Gromacs Runs On Most of All Computer Systems
11584
    1U      O5'    1   1.769   2.355   5.513
    1U      H5T    2   1.678   2.351   5.472
    1U      C5'    3   1.800   2.489   5.547
    1U     H5'1    4   1.731   2.521   5.611
    1U     H5'2    5   1.796   2.544   5.463
    1U      C4'    6   1.938   2.495   5.609
    1U      H4'    7   1.963   2.590   5.626
    1U      O4'    8   1.937   2.421   5.734
    1U      C1'    9   2.073   2.369   5.747
    1U      H1'   10   2.117   2.421   5.820
    1U       N1   11   2.070   2.227   5.786
    1U       C6   12   1.987   2.154   5.707
    1U       H6   13   1.937   2.199   5.633
    1U       C5   14   1.971   2.021   5.728
    1U       H5   15   1.910   1.966   5.671
    1U       C4   16   2.046   1.963   5.835
    1U       O4   17   2.035   1.832   5.860
    1U       N3   18   2.128   2.037   5.911
    1U       H3   19   2.179   1.994   5.985
    1U       C2   20   2.142   2.170   5.889
    1U       O2   21   2.217   2.238   5.959
    1U      C3'   22   2.037   2.421   5.519
    1U      H3'   23   2.000   2.345   5.466
    1U      C2'   24   2.149   2.385   5.616
    1U     H2'1   25   2.207   2.308   5.590
    1U      O2'   26   2.239   2.494   5.626
    1U     HO'2   27   2.289   2.504   5.540
    1U      O3'   28   2.086   2.510   5.420
    2G        P   29   2.060   2.478   5.264
    2G      O1P   30   2.100   2.597   5.186
    2G      O2P   31   1.922   2.424   5.251
    2G      O5'   32   2.163   2.359   5.231
    2G      C5'   33   2.300   2.387   5.201
    2G     H5'1   34   2.338   2.441   5.276
    2G     H5'2   35   2.304   2.440   5.116
    2G      C4'   36   2.375   2.257   5.185
    2G      H4'   37   2.470   2.277   5.162
    2G      O4'   38   2.371   2.182   5.309
    2G      C1'   39   2.362   2.044   5.274
    2G      H1'   40   2.446   2.000   5.307
    2G       N9   41   2.244   1.987   5.341
    2G       C8   42   2.114   2.034   5.341
    2G       H8   43   2.085   2.117   5.292
    2G       N7   44   2.032   1.960   5.411
    2G       C5   45   2.113   1.858   5.460
    2G       C6   46   2.085   1.747   5.542
    2G       O6   47   1.973   1.723   5.586
    2G       N1   48   2.196   1.667   5.569
    2G       H1   49   2.181   1.587   5.627
    2G       C2   50   2.329   1.688   5.523
    2G       N2   51   2.432   1.607   5.552
    2G      H21   52   2.418   1.526   5.609
    2G      H22   53   2.523   1.627   5.516
    2G       N3   54   2.348   1.794   5.446
    2G       C4   55   2.242   1.874   5.418
    2G      C3'   56   2.304   2.170   5.082
    2G      H3'   57   2.206   2.185   5.074
    2G      C2'   58   2.346   2.029   5.123
    2G     H2'1   59   2.287   1.954   5.092
    2G      O2'   60   2.472   2.000   5.066
    2G     HO'2   61   2.462   1.990   4.967
    2G      O3'   62   2.354   2.199   4.952
    2G      H3T   63   2.307   2.142   4.885
    3SOL     OW   64   0.355   0.147   0.481
    3SOL    HW2   65   0.448   0.161   0.466
    3SOL    HW3   66   0.312   0.218   0.433
    3SOL    MW4   67   0.361   0.158   0.472
    4SOL     OW   68   3.984   0.231   0.489
    4SOL    HW2   69   4.062   0.181   0.469
    4SOL    HW3   70   3.990   0.309   0.433
    4SOL    MW4   71   3.995   0.235   0.479
    5SOL     OW   72   3.790   0.311   0.132
    5SOL    HW2   73   3.714   0.293   0.075
    5SOL    HW3   74   3.773   0.260   0.211
    5SOL    MW4   75   3.777   0.302   0.135
    6SOL     OW   76   4.462   1.673   0.514
    6SOL    HW2   77   4.486   1.657   0.606
    6SOL    HW3   78   4.537   1.641   0.464
    6SOL    MW4   79   4.475   1.667   0.520
    7SOL     OW   80   1.324   0.826   0.288
    7SOL    HW2   81   1.230   0.835   0.306
    7SOL    HW3   82   1.328   0.792   0.199
    7SOL    MW4   83   1.312   0.822   0.279
    8SOL     OW   84   0.166   0.552   0.486
    8SOL    HW2   85   0.179   0.549   0.581
    8SOL    HW3   86   0.146   0.461   0.462
    8SOL    MW4   87   0.165   0.539   0.496
    9SOL     OW   88   0.416   0.913   0.476
    9SOL    HW2   89   0.438   0.886   0.565
    9SOL    HW3   90   0.397   0.831   0.430
    9SOL    MW4   91   0.416   0.898   0.482
   10SOL     OW   92   0.782   0.858   0.443
   10SOL    HW2   93   0.823   0.895   0.521
   10SOL    HW3   94   0.748   0.935   0.396
   10SOL    MW4   95   0.783   0.873   0.447
   11SOL     OW   96   0.624   1.042   0.308
   11SOL    HW2   97   0.594   1.056   0.219
   11SOL    HW3   98   0.545   1.018   0.357
   11SOL    MW4   99   0.610   1.041   0.303
   12SOL     OW  100   4.284   1.808   0.172
   12SOL    HW2  101   4.260   1.753   0.247
   12SOL    HW3  102   4.248   1.895   0.194
   12SOL    MW4  103   4.276   1.812   0.185
   13SOL     OW  104   4.213   1.628   0.400
   13SOL    HW2  105   4.153   1.695   0.432
   13SOL    HW3  106   4.295   1.643   0.448
   13SOL    MW4  107   4.216   1.639   0.411
   14SOL     OW  108   0.051   1.930   0.377
   14SOL    HW2  109   0.014   1.862   0.433
   14SOL    HW3  110   0.037   1.899   0.288
   14SOL    MW4  111   0.045   1.917   0.373
   15SOL     OW  112   0.157   2.495   0.334
   15SOL    HW2  113   0.106   2.477   0.255
   15SOL    HW3  114   0.248   2.491   0.306
   15SOL    MW4  115   0.162   2.492   0.320
   16SOL     OW  116   4.310   2.814   0.476
   16SOL    HW2  117   4.402   2.787   0.475
   16SOL    HW3  118   4.314   2.910   0.479
   16SOL    MW4  119   4.323   2.823   0.477
   17SOL     OW  120   4.284   3.411   0.438
   17SOL    HW2  121   4.223   3.343   0.468
   17SOL    HW3  122   4.356   3.362   0.399
   17SOL    MW4  123   4.285   3.395   0.437
   18SOL     OW  124   0.328   3.212   0.323
   18SOL    HW2  125   0.357   3.204   0.414
   18SOL    HW3  126   0.404   3.247   0.276
   18SOL    MW4  127   0.342   3.216   0.329
   19SOL     OW  128   0.844   3.411   0.387
   19SOL    HW2  129   0.892   3.457   0.317
   19SOL    HW3  130   0.818   3.480   0.448
   19SOL    MW4  131   0.847   3.426   0.386
   20SOL     OW  132   0.972   3.808   0.287
   20SOL    HW2  133   1.030   3.884   0.296
   20SOL    HW3  134   0.890   3.835   0.328
   20SOL    MW4  135   0.969   3.821   0.294
   21SOL     OW  136   3.815   3.350   0.431
   21SOL    HW2  137   3.817   3.439   0.468
   21SOL    HW3  138   3.905   3.334   0.403
   21SOL    MW4  139   3.827   3.360   0.432
   22SOL     OW  140   4.479   3.850   0.448
   22SOL    HW2  141   4.403   3.795   0.467
   22SOL    HW3  142   4.446   3.939   0.455
   22SOL    MW4  143   4.465   3.854   0.451
   23SOL     OW  144   0.203   4.545   0.507
   23SOL    HW2  145   0.251   4.623   0.480
   23SOL    HW3  146   0.199   4.490   0.429
   23SOL    MW4  147   0.208   4.548   0.493
   24SOL     OW  148   0.108   4.393   0.282
   24SOL    HW2  149   0.020   4.370   0.312
   24SOL    HW3  150   0.100   4.402   0.187
   24SOL    MW4  151   0.095   4.392   0.273
   25SOL     OW  152   4.335   4.323   0.397
   25SOL    HW2  153   4.310   4.244   0.445
   25SOL    HW3  154   4.254   4.374   0.391
   25SOL    MW4  155   4.321   4.319   0.403
   26SOL     OW  156   0.432   3.669   0.499
   26SOL    HW2  157   0.526   3.654   0.501
   26SOL    HW3  158   0.423   3.763   0.483
   26SOL    MW4  159   0.443   3.679   0.497
   27SOL     OW  160   0.737   0.008   0.357
   27SOL    HW2  161   0.830   0.006   0.378
   27SOL    HW3  162   0.727  -0.055   0.285
   27SOL    MW4  163   0.748  -0.001   0.350
   28SOL     OW  164   0.106   0.263   0.398
   28SOL    HW2  165   0.070   0.199   0.459
   28SOL    HW3  166   0.042   0.270   0.328
   28SOL    MW4  167   0.093   0.256   0.397
   29SOL     OW  168   4.378   0.566   0.482
   29SOL    HW2  169   4.473   0.565   0.479
   29SOL    HW3  170   4.354   0.656   0.463
   29SOL    MW4  171   4.387   0.577   0.479
   30SOL     OW  172   1.049   4.435   0.524
   30SOL    HW2  173   0.966   4.387   0.526
   30SOL    HW3  174   1.096   4.405   0.601
   30SOL    MW4  175   1.044   4.425   0.534
   31SOL     OW  176   1.062   0.803   0.358
   31SOL    HW2  177   0.968   0.813   0.374
   31SOL    HW3  178   1.087   0.727   0.411
   31SOL    MW4  179   1.053   0.794   0.367
   32SOL     OW  180   0.583   0.469   0.258
   32SOL    HW2  181   0.666   0.496   0.219
   32SOL    HW3  182   0.606   0.395   0.314
   32SOL    MW4  183   0.597   0.463   0.260
   33SOL     OW  184   0.180   1.083   0.496
   33SOL    HW2  185   0.101   1.029   0.496
   33SOL    HW3  186   0.252   1.021   0.485
   33SOL    MW4  187   0.179   1.068   0.495
   34SOL     OW  188   0.459   1.626   0.480
   34SOL    HW2  189   0.526   1.557   0.476
   34SOL    HW3  190   0.389   1.595   0.422
   34SOL    MW4  191   0.458   1.613   0.472
   35SOL     OW  192   0.205   1.625   0.337
   35SOL    HW2  193   0.162   1.539   0.338
   35SOL    HW3  194   0.173   1.667   0.257
   35SOL    MW4  195   0.195   1.619   0.326
   36SOL     OW  196   0.418   2.496   0.222
   36SOL    HW2  197   0.496   2.449   0.253
   36SOL    HW3  198   0.440   2.588   0.233
   36SOL    MW4  199   0.431   2.502   0.228
   37SOL     OW  200   0.072   2.732   0.489
   37SOL    HW2  201   0.086   2.654   0.435
   37SOL    HW3  202   0.135   2.796   0.456
   37SOL    MW4  203   0.083   2.730   0.477
   38SOL     OW  204   3.868   2.281   0.268
   38SOL    HW2  205   3.893   2.371   0.289
   38SOL    HW3  206   3.882   2.274   0.173
   38SOL    MW4  207   3.873   2.292   0.258
   39SOL     OW  208   0.589   2.540   0.526
   39SOL    HW2  209   0.563   2.462   0.477
   39SOL    HW3  210   0.679   2.557   0.497
   39SOL    MW4  211   0.598   2.532   0.516
   40SOL     OW  212   0.499   2.739   0.330
   40SOL    HW2  213   0.528   2.680   0.400
   40SOL    HW3  214   0.555   2.816   0.339
   40SOL    MW4  215   0.510   2.741   0.341
   41SOL     OW  216   4.342   3.085   0.482
   41SOL    HW2  217   4.259   3.131   0.491
   41SOL    HW3  218   4.404   3.137   0.533
   41SOL    MW4  219   4.340   3.098   0.490
   42SOL     OW  220   0.288   2.917   0.374
   42SOL    HW2  221   0.305   3.000   0.329
   42SOL    HW3  222   0.366   2.864   0.357
   42SOL    MW4  223   0.301   2.921   0.366
   43SOL     OW  224   0.802   4.452   0.208
   43SOL    HW2  225   0.784   4.429   0.117
   43SOL    HW3  226   0.895   4.434   0.219
   43SOL    MW4  227   0.812   4.446   0.197
   44SOL     OW  228   0.105   3.350   0.414
   44SOL    HW2  229   0.125   3.443   0.423
   44SOL    HW3  230   0.175   3.315   0.360
   44SOL    MW4  231   0.117   3.357   0.408
   45SOL     OW  232   0.722   3.623   0.529
   45SOL    HW2  233   0.714   3.712   0.494
   45SOL    HW3  234   0.704   3.632   0.622
   45SOL    MW4  235   0.718   3.636   0.537
   46SOL     OW  236   1.156   3.639   0.447
   46SOL    HW2  237   1.071   3.672   0.417
   46SOL    HW3  238   1.173   3.563   0.391
   46SOL    MW4  239   1.147   3.633   0.436
   47SOL     OW  240   0.450   3.956   0.441
   47SOL    HW2  241   0.436   3.994   0.527
   47SOL    HW3  242   0.367   3.968   0.395
   47SOL    MW4  243   0.437   3.962   0.446
   48SOL     OW  244   0.987   3.567   0.198
   48SOL    HW2  245   0.954   3.557   0.108
   48SOL    HW3  246   0.980   3.661   0.215
   48SOL    MW4  247   0.982   3.578   0.188
   49SOL     OW  248   0.746   4.395   0.504
   49SOL    HW2  249   0.712   4.462   0.445
   49SOL    HW3  250   0.725   4.427   0.591
   49SOL    MW4  251   0.739   4.408   0.508
   50SOL     OW  252   0.613   0.237   0.450
   50SOL    HW2  253   0.665   0.165   0.415
   50SOL    HW3  254   0.662   0.266   0.527
   50SOL    MW4  255   0.627   0.232   0.456
   51SOL     OW  256   0.681   0.602   0.514
   51SOL    HW2  257   0.717   0.688   0.495
   51SOL    HW3  258   0.628   0.580   0.437
   51SOL    MW4  259   0.679   0.610   0.501
   52SOL     OW  260   0.363   0.665   0.328
   52SOL    HW2  261   0.289   0.635   0.381
   52SOL    HW3  262   0.420   0.588   0.321
   52SOL    MW4  263   0.361   0.651   0.334
   53SOL     OW  264   1.378   0.555   0.329
   53SOL    HW2  265   1.365   0.650   0.329
   53SOL    HW3  266   1.469   0.543   0.358
   53SOL    MW4  267   1.389   0.566   0.333
   54SOL     OW  268   1.799   0.693   0.263
   54SOL    HW2  269   1.782   0.787   0.271
   54SOL    HW3  270   1.735   0.653   0.323
   54SOL    MW4  271   1.788   0.700   0.272
   55SOL     OW  272   1.487   0.972   0.458
   55SOL    HW2  273   1.427   0.935   0.393
   55SOL    HW3  274   1.445   0.955   0.542
   55SOL    MW4  275   1.474   0.965   0.460
   56SOL     OW  276   0.678   1.451   0.522
   56SOL    HW2  277   0.694   1.362   0.489
   56SOL    HW3  278   0.766   1.488   0.532
   56SOL    MW4  279   0.692   1.444   0.519
   57SOL     OW  280   0.781   1.202   0.487
   57SOL    HW2  281   0.745   1.160   0.409
   57SOL    HW3  282   0.869   1.230   0.461
   57SOL    MW4  283   0.788   1.200   0.473
   58SOL     OW  284   1.737   1.395   0.446
   58SOL    HW2  285   1.776   1.482   0.440
   58SOL    HW3  286   1.812   1.335   0.446
   58SOL    MW4  287   1.752   1.398   0.445
   59SOL     OW  288   1.036   1.368   0.480
   59SOL    HW2  289   1.124   1.377   0.445
   59SOL    HW3  290   1.005   1.459   0.489
   59SOL    MW4  291   1.043   1.381   0.476
   60SOL     OW  292   0.928   1.619   0.533
   60SOL    HW2  293   1.016   1.654   0.518
   60SOL    HW3  294   0.916   1.625   0.628
   60SOL    MW4  295   0.938   1.625   0.544
   61SOL     OW  296   0.315   1.900   0.430
   61SOL    HW2  297   0.223   1.905   0.406
   61SOL    HW3  298   0.331   1.806   0.443
   61SOL    MW4  299   0.305   1.888   0.428
   62SOL     OW  300   0.700   1.790   0.465
   62SOL    HW2  301   0.769   1.728   0.486
   62SOL    HW3  302   0.620   1.737   0.465
   62SOL    MW4  303   0.698   1.774   0.468
   63SOL     OW  304   0.856   2.546   0.468
   63SOL    HW2  305   0.863   2.460   0.428
   63SOL    HW3  306   0.893   2.535   0.555
   63SOL    MW4  307   0.862   2.533   0.474
   64SOL     OW  308   0.565   2.041   0.464
   64SOL    HW2  309   0.620   1.966   0.440
   64SOL    HW3  310   0.477   2.015   0.439
   64SOL    MW4  311   0.561   2.028   0.457
   65SOL     OW  312   1.096   2.685   0.417
   65SOL    HW2  313   1.023   2.624   0.410
   65SOL    HW3  314   1.058   2.771   0.399
   65SOL    MW4  315   1.081   2.688   0.414
   66SOL     OW  316   0.608   2.314   0.346
   66SOL    HW2  317   0.694   2.301   0.306
   66SOL    HW3  318   0.581   2.225   0.372
   66SOL    MW4  319   0.616   2.300   0.344
   67SOL     OW  320   0.695   2.937   0.454
   67SOL    HW2  321   0.731   2.915   0.540
   67SOL    HW3  322   0.674   3.030   0.460
   67SOL    MW4  323   0.697   2.946   0.466
   68SOL     OW  324   1.014   3.236   0.479
   68SOL    HW2  325   0.989   3.217   0.569
   68SOL    HW3  326   0.948   3.298   0.448
   68SOL    MW4  327   1.002   3.242   0.486
   69SOL     OW  328   1.395   3.779   0.506
   69SOL    HW2  329   1.465   3.717   0.486
   69SOL    HW3  330   1.316   3.737   0.472
   69SOL    MW4  331   1.394   3.765   0.499
   70SOL     OW  332   1.079   4.063   0.381
   70SOL    HW2  333   1.097   4.138   0.323
   70SOL    HW3  334   1.000   4.088   0.428
   70SOL    MW4  335   1.071   4.077   0.379
   71SOL     OW  336   0.711   3.890   0.411
   71SOL    HW2  337   0.767   3.958   0.448
   71SOL    HW3  338   0.622   3.924   0.420
   71SOL    MW4  339   0.706   3.903   0.417
   72SOL     OW  340   1.088   4.422   0.261
   72SOL    HW2  341   1.169   4.448   0.217
   72SOL    HW3  342   1.108   4.426   0.354
   72SOL    MW4  343   1.101   4.426   0.267
   73SOL     OW  344   1.145   0.505   0.461
   73SOL    HW2  345   1.139   0.409   0.468
   73SOL    HW3  346   1.229   0.520   0.417
   73SOL    MW4  347   1.156   0.494   0.456
   74SOL     OW  348   0.982   0.037   0.485
   74SOL    HW2  349   1.020  -0.051   0.490
   74SOL    HW3  350   0.947   0.053   0.572
   74SOL    MW4  351   0.983   0.028   0.497
   75SOL     OW  352   1.449   0.272   0.283
   75SOL    HW2  353   1.544   0.282   0.293
   75SOL    HW3  354   1.418   0.362   0.268
   75SOL    MW4  355   1.458   0.285   0.283
   76SOL     OW  356   1.635   0.537   0.443
   76SOL    HW2  357   1.678   0.456   0.416
   76SOL    HW3  358   1.623   0.528   0.537
   76SOL    MW4  359   1.639   0.525   0.452
   77SOL     OW  360   1.178   0.226   0.482
   77SOL    HW2  361   1.106   0.163   0.478
   77SOL    HW3  362   1.238   0.199   0.413
   77SOL    MW4  363   1.177   0.214   0.473
   78SOL     OW  364   1.969   0.469   0.244
   78SOL    HW2  365   2.014   0.437   0.165
   78SOL    HW3  366   1.920   0.546   0.214
   78SOL    MW4  367   1.969   0.475   0.229
   79SOL     OW  368   2.214   0.802   0.477
   79SOL    HW2  369   2.178   0.713   0.471
   79SOL    HW3  370   2.298   0.797   0.432
   79SOL    MW4  371   2.220   0.789   0.470
   80SOL     OW  372   1.761   0.950   0.439
   80SOL    HW2  373   1.784   0.904   0.520
   80SOL    HW3  374   1.665   0.949   0.438
   80SOL    MW4  375   1.751   0.944   0.450
   81SOL     OW  376   1.483   1.269   0.461
   81SOL    HW2  377   1.474   1.173   0.464
   81SOL    HW3  378   1.570   1.283   0.425
   81SOL    MW4  379   1.493   1.258   0.457
   82SOL     OW  380   1.304   1.462   0.361
   82SOL    HW2  381   1.374   1.411   0.401
   82SOL    HW3  382   1.303   1.433   0.270
   82SOL    MW4  383   1.313   1.451   0.354
   83SOL     OW  384   1.200   1.694   0.486
   83SOL    HW2  385   1.248   1.659   0.561
   83SOL    HW3  386   1.221   1.634   0.414
   83SOL    MW4  387   1.209   1.681   0.486
   84SOL     OW  388   1.151   2.178   0.286
   84SOL    HW2  389   1.225   2.233   0.312
   84SOL    HW3  390   1.174   2.090   0.317
   84SOL    MW4  391   1.164   2.173   0.293
   85SOL     OW  392   1.340   2.548   0.466
   85SOL    HW2  393   1.258   2.596   0.452
   85SOL    HW3  394   1.408   2.615   0.461
   85SOL    MW4  395   1.338   2.563   0.463
   86SOL     OW  396   1.950   2.149   0.450
   86SOL    HW2  397   1.960   2.114   0.538
   86SOL    HW3  398   2.007   2.094   0.396
   86SOL    MW4  399   1.959   2.137   0.455
   87SOL     OW  400   1.517   2.044   0.487
   87SOL    HW2  401   1.511   2.130   0.444
   87SOL    HW3  402   1.430   2.005   0.474
   87SOL    MW4  403   1.504   2.050   0.480
   88SOL     OW  404   0.898   2.280   0.359
   88SOL    HW2  405   0.905   2.226   0.439
   88SOL    HW3  406   0.982   2.268   0.315
   88SOL    MW4  407   0.910   2.271   0.364
   89SOL     OW  408   1.007   2.961   0.405
   89SOL    HW2  409   0.921   2.946   0.366
   89SOL    HW3  410   1.006   3.053   0.431
   89SOL    MW4  411   0.996   2.971   0.403
   90SOL     OW  412   2.107   2.419   0.433
   90SOL    HW2  413   2.199   2.405   0.453
   90SOL    HW3  414   2.067   2.332   0.439
   90SOL    MW4  415   2.114   2.406   0.437
   91SOL     OW  416   1.720   4.107   0.510
   91SOL    HW2  417   1.656   4.160   0.463
   91SOL    HW3  418   1.710   4.019   0.473
   91SOL    MW4  419   1.710   4.102   0.499
   92SOL     OW  420   1.350   4.038   0.434
   92SOL    HW2  421   1.368   3.950   0.467
   92SOL    HW3  422   1.257   4.037   0.412
   92SOL    MW4  423   1.340   4.026   0.436
   93SOL     OW  424   1.748   2.837   0.347
   93SOL    HW2  425   1.661   2.804   0.368
   93SOL    HW3  426   1.808   2.778   0.394
   93SOL    MW4  427   1.745   2.825   0.356
   94SOL     OW  428   1.678   3.620   0.256
   94SOL    HW2  429   1.763   3.578   0.243
   94SOL    HW3  430   1.621   3.550   0.286
   94SOL    MW4  431   1.682   3.605   0.258
   95SOL     OW  432   1.294   3.251   0.476
   95SOL    HW2  433   1.315   3.164   0.444
   95SOL    HW3  434   1.199   3.258   0.468
   95SOL    MW4  435   1.284   3.241   0.470
   96SOL     OW  436   1.583   3.392   0.440
   96SOL    HW2  437   1.504   3.371   0.488
   96SOL    HW3  438   1.616   3.307   0.409
   96SOL    MW4  439   1.577   3.378   0.442
   97SOL     OW  440   0.846   4.128   0.489
   97SOL    HW2  441   0.831   4.096   0.578
   97SOL    HW3  442   0.797   4.210   0.485
   97SOL    MW4  443   0.837   4.135   0.500
   98SOL     OW  444   2.274   0.001   0.605
   98SOL    HW2  445   2.242  -0.085   0.578
   98SOL    HW3  446   2.370  -0.005   0.597
   98SOL    MW4  447   2.283  -0.011   0.600
   99SOL     OW  448   1.840   4.515   0.398
   99SOL    HW2  449   1.748   4.492   0.409
   99SOL    HW3  450   1.884   4.431   0.382
   99SOL    MW4  451   1.834   4.501   0.398
  100SOL     OW  452   1.888   0.112   0.465
  100SOL    HW2  453   1.860   0.119   0.556
  100SOL    HW3  454   1.871   0.021   0.441
  100SOL    MW4  455   1.882   0.101   0.474
  101SOL     OW  456   1.398   0.015   0.351
  101SOL    HW2  457   1.423   0.102   0.322
  101SOL    HW3  458   1.468  -0.012   0.411
  101SOL    MW4  459   1.410   0.023   0.355
  102SOL     OW  460   2.149   0.458   0.451
  102SOL    HW2  461   2.135   0.365   0.474
  102SOL    HW3  462   2.109   0.467   0.365
  102SOL    MW4  463   2.142   0.447   0.443
  103SOL     OW  464   2.382   1.531   0.435
  103SOL    HW2  465   2.325   1.475   0.488
  103SOL    HW3  466   2.326   1.604   0.408
  103SOL    MW4  467   2.367   1.533   0.439
  104SOL     OW  468   2.182   1.082   0.447
  104SOL    HW2  469   2.275   1.097   0.466
  104SOL    HW3  470   2.172   0.987   0.447
  104SOL    MW4  471   2.193   1.071   0.450
  105SOL     OW  472   1.918   1.169   0.487
  105SOL    HW2  473   1.865   1.091   0.472
  105SOL    HW3  474   2.005   1.146   0.455
  105SOL    MW4  475   1.923   1.156   0.481
  106SOL     OW  476   2.598   1.349   0.364
  106SOL    HW2  477   2.675   1.403   0.345
  106SOL    HW3  478   2.530   1.412   0.389
  106SOL    MW4  479   2.599   1.365   0.365
  107SOL     OW  480   2.160   1.719   0.471
  107SOL    HW2  481   2.164   1.811   0.446
  107SOL    HW3  482   2.067   1.701   0.483
  107SOL    MW4  483   2.149   1.729   0.470
  108SOL     OW  484   1.773   1.930   0.412
  108SOL    HW2  485   1.811   2.017   0.402
  108SOL    HW3  486   1.680   1.945   0.425
  108SOL    MW4  487   1.766   1.943   0.412
  109SOL     OW  488   2.373   2.406   0.534
  109SOL    HW2  489   2.450   2.462   0.525
  109SOL    HW3  490   2.328   2.441   0.612
  109SOL    MW4  491   2.377   2.418   0.543
  110SOL     OW  492   1.914   3.262   0.484
  110SOL    HW2  493   1.976   3.194   0.460
  110SOL    HW3  494   1.929   3.331   0.419
  110SOL    MW4  495   1.924   3.262   0.472
  111SOL     OW  496   1.495   2.771   0.443
  111SOL    HW2  497   1.444   2.851   0.433
  111SOL    HW3  498   1.535   2.779   0.530
  111SOL    MW4  499   1.494   2.783   0.453
  112SOL     OW  500   1.318   2.993   0.370
  112SOL    HW2  501   1.363   3.010   0.287
  112SOL    HW3  502   1.227   2.976   0.343
  112SOL    MW4  503   1.312   2.993   0.355
  113SOL     OW  504   1.245   1.977   0.479
  113SOL    HW2  505   1.191   1.987   0.557
  113SOL    HW3  506   1.245   1.883   0.462
  113SOL    MW4  507   1.238   1.966   0.487
  114SOL     OW  508   3.601   2.339   0.388
  114SOL    HW2  509   3.662   2.301   0.325
  114SOL    HW3  510   3.595   2.274   0.458
  114SOL    MW4  511   3.608   2.325   0.389
  115SOL     OW  512   1.923   2.661   0.473
  115SOL    HW2  513   1.956   2.712   0.546
  115SOL    HW3  514   1.992   2.596   0.457
  115SOL    MW4  515   1.937   2.659   0.480
  116SOL     OW  516   1.513   2.305   0.402
  116SOL    HW2  517   1.607   2.325   0.409
  116SOL    HW3  518   1.470   2.388   0.420
  116SOL    MW4  519   1.520   2.319   0.406
  117SOL     OW  520   1.673   3.113   0.414
  117SOL    HW2  521   1.699   3.025   0.387
  117SOL    HW3  522   1.753   3.153   0.449
  117SOL    MW4  523   1.687   3.107   0.415
  118SOL     OW  524   2.273   3.191   0.479
  118SOL    HW2  525   2.206   3.124   0.467
  118SOL    HW3  526   2.255   3.227   0.566
  118SOL    MW4  527   2.262   3.187   0.489
  119SOL     OW  528   1.788   3.836   0.420
  119SOL    HW2  529   1.756   3.789   0.343
  119SOL    HW3  530   1.883   3.821   0.420
  119SOL    MW4  531   1.796   3.828   0.410
  120SOL     OW  532   1.508   4.249   0.352
  120SOL    HW2  533   1.464   4.177   0.397
  120SOL    HW3  534   1.442   4.284   0.292
  120SOL    MW4  535   1.494   4.244   0.350
  121SOL     OW  536   1.580   4.497   0.469
  121SOL    HW2  537   1.588   4.475   0.562
  121SOL    HW3  538   1.559   4.413   0.427
  121SOL    MW4  539   1.578   4.483   0.476
  122SOL     OW  540   1.351   4.471   0.188
  122SOL    HW2  541   1.370   4.533   0.258
  122SOL    HW3  542   1.369   4.520   0.107
  122SOL    MW4  543   1.356   4.486   0.186
  123SOL     OW  544   2.419   0.193   0.351
  123SOL    HW2  545   2.453   0.136   0.420
  123SOL    HW3  546   2.324   0.190   0.361
  123SOL    MW4  547   2.411   0.185   0.361
  124SOL     OW  548   2.151   0.178   0.458
  124SOL    HW2  549   2.175   0.107   0.518
  124SOL    HW3  550   2.056   0.169   0.448
  124SOL    MW4  551   2.142   0.167   0.464
  125SOL     OW  552   2.690   0.929   0.499
  125SOL    HW2  553   2.639   0.855   0.465
  125SOL    HW3  554   2.772   0.927   0.451
  125SOL    MW4  555   2.694   0.919   0.488
  126SOL     OW  556   2.477   0.746   0.390
  126SOL    HW2  557   2.468   0.652   0.409
  126SOL    HW3  558   2.522   0.748   0.305
  126SOL    MW4  559   2.482   0.734   0.381
  127SOL     OW  560   2.905   0.897   0.131
  127SOL    HW2  561   2.915   0.933   0.219
  127SOL    HW3  562   2.982   0.842   0.118
  127SOL    MW4  563   2.916   0.894   0.141
  128SOL     OW  564   2.946   1.000   0.397
  128SOL    HW2  565   3.017   0.981   0.458
  128SOL    HW3  566   2.914   1.086   0.423
  128SOL    MW4  567   2.951   1.009   0.408
  129SOL     OW  568   2.960   1.247   0.503
  129SOL    HW2  569   2.934   1.336   0.479
  129SOL    HW3  570   2.926   1.235   0.592
  129SOL    MW4  571   2.952   1.257   0.511
  130SOL     OW  572   2.732   1.664   0.429
  130SOL    HW2  573   2.717   1.696   0.518
  130SOL    HW3  574   2.694   1.732   0.373
  130SOL    MW4  575   2.725   1.677   0.433
  131SOL     OW  576   2.809   0.674   0.366
  131SOL    HW2  577   2.892   0.714   0.341
  131SOL    HW3  578   2.750   0.692   0.293
  131SOL    MW4  579   2.812   0.681   0.353
  132SOL     OW  580   2.212   2.003   0.336
  132SOL    HW2  581   2.287   2.045   0.378
  132SOL    HW3  582   2.234   1.999   0.244
  132SOL    MW4  583   2.225   2.008   0.330
  133SOL     OW  584   1.890   1.675   0.481
  133SOL    HW2  585   1.850   1.675   0.568
  133SOL    HW3  586   1.870   1.762   0.446
  133SOL    MW4  587   1.882   1.687   0.488
  134SOL     OW  588   2.425   2.138   0.475
  134SOL    HW2  589   2.405   2.228   0.501
  134SOL    HW3  590   2.520   2.138   0.458
  134SOL    MW4  591   2.435   2.150   0.476
  135SOL     OW  592   2.706   2.165   0.441
  135SOL    HW2  593   2.737   2.252   0.413
  135SOL    HW3  594   2.774   2.134   0.500
  135SOL    MW4  595   2.719   2.173   0.445
  136SOL     OW  596   2.577   2.793   0.462
  136SOL    HW2  597   2.577   2.864   0.398
  136SOL    HW3  598   2.526   2.826   0.536
  136SOL    MW4  599   2.571   2.807   0.463
  137SOL     OW  600   1.769   2.407   0.441
  137SOL    HW2  601   1.837   2.341   0.428
  137SOL    HW3  602   1.807   2.488   0.408
  137SOL    MW4  603   1.783   2.409   0.435
  138SOL     OW  604   2.050   3.014   0.468
  138SOL    HW2  605   2.034   2.964   0.548
  138SOL    HW3  606   2.000   2.968   0.400
  138SOL    MW4  607   2.041   3.001   0.469
  139SOL     OW  608   2.034   3.702   0.485
  139SOL    HW2  609   2.129   3.711   0.477
  139SOL    HW3  610   2.019   3.680   0.577
  139SOL    MW4  611   2.044   3.700   0.496
  140SOL     OW  612   2.188   4.063   0.445
  140SOL    HW2  613   2.199   3.995   0.379
  140SOL    HW3  614   2.264   4.120   0.433
  140SOL    MW4  615   2.200   4.062   0.435
  141SOL     OW  616   1.628   3.631   0.564
  141SOL    HW2  617   1.635   3.538   0.541
  141SOL    HW3  618   1.705   3.671   0.525
  141SOL    MW4  619   1.639   3.624   0.556
  142SOL     OW  620   1.921   3.494   0.315
  142SOL    HW2  621   1.990   3.471   0.253
  142SOL    HW3  622   1.957   3.568   0.364
  142SOL    MW4  623   1.935   3.501   0.314
  143SOL     OW  624   2.098   4.472   0.519
  143SOL    HW2  625   2.085   4.378   0.514
  143SOL    HW3  626   2.019   4.510   0.481
  143SOL    MW4  627   2.086   4.465   0.513
  144SOL     OW  628   1.976   4.232   0.451
  144SOL    HW2  629   1.902   4.173   0.464
  144SOL    HW3  630   2.051   4.174   0.436
  144SOL    MW4  631   1.976   4.217   0.450
  145SOL     OW  632   2.400   4.266   0.427
  145SOL    HW2  633   2.405   4.303   0.515
  145SOL    HW3  634   2.443   4.332   0.372
  145SOL    MW4  635   2.407   4.280   0.431
  146SOL     OW  636   2.329   3.898   0.261
  146SOL    HW2  637   2.300   3.866   0.176
  146SOL    HW3  638   2.310   3.826   0.321
  146SOL    MW4  639   2.323   3.884   0.258
  147SOL     OW  640   2.773   3.919   0.507
  147SOL    HW2  641   2.692   3.948   0.465
  147SOL    HW3  642   2.835   3.990   0.490
  147SOL    MW4  643   2.770   3.932   0.499
  148SOL     OW  644   2.443   0.470   0.445
  148SOL    HW2  645   2.348   0.474   0.435
  148SOL    HW3  646   2.466   0.382   0.415
  148SOL    MW4  647   2.434   0.459   0.440
  149SOL     OW  648   1.740   0.305   0.341
  149SOL    HW2  649   1.811   0.356   0.302
  149SOL    HW3  650   1.784   0.231   0.384
  149SOL    MW4  651   1.755   0.302   0.341
  150SOL     OW  652   3.138   0.373   0.376
  150SOL    HW2  653   3.229   0.402   0.372
  150SOL    HW3  654   3.143   0.279   0.391
  150SOL    MW4  655   3.150   0.365   0.377
  151SOL     OW  656   2.467   1.115   0.474
  151SOL    HW2  657   2.514   1.180   0.422
  151SOL    HW3  658   2.526   1.040   0.480
  151SOL    MW4  659   2.481   1.114   0.468
  152SOL     OW  660   3.261   0.784   0.429
  152SOL    HW2  661   3.336   0.841   0.414
  152SOL    HW3  662   3.219   0.819   0.507
  152SOL    MW4  663   3.266   0.796   0.437
  153SOL     OW  664   3.198   1.614   0.475
  153SOL    HW2  665   3.212   1.519   0.478
  153SOL    HW3  666   3.283   1.650   0.448
  153SOL    MW4  667   3.211   1.606   0.471
  154SOL     OW  668   3.195   1.192   0.366
  154SOL    HW2  669   3.158   1.161   0.284
  154SOL    HW3  670   3.119   1.213   0.421
  154SOL    MW4  671   3.180   1.191   0.362
  155SOL     OW  672   3.430   1.770   0.426
  155SOL    HW2  673   3.399   1.846   0.376
  155SOL    HW3  674   3.512   1.799   0.467
  155SOL    MW4  675   3.437   1.784   0.425
  156SOL     OW  676   2.763   0.195   0.617
  156SOL    HW2  677   2.756   0.258   0.688
  156SOL    HW3  678   2.801   0.244   0.545
  156SOL    MW4  679   2.767   0.209   0.617
  157SOL     OW  680   3.165   2.071   0.619
  157SOL    HW2  681   3.070   2.084   0.618
  157SOL    HW3  682   3.179   2.000   0.681
  157SOL    MW4  683   3.154   2.064   0.627
  158SOL     OW  684   2.825   2.416   0.303
  158SOL    HW2  685   2.852   2.399   0.212
  158SOL    HW3  686   2.908   2.418   0.351
  158SOL    MW4  687   2.840   2.414   0.297
  159SOL     OW  688   2.947   1.496   0.379
  159SOL    HW2  689   2.866   1.545   0.393
  159SOL    HW3  690   3.016   1.553   0.414
  159SOL    MW4  691   2.946   1.510   0.386
  160SOL     OW  692   2.620   2.521   0.471
  160SOL    HW2  693   2.598   2.612   0.451
  160SOL    HW3  694   2.682   2.496   0.403
  160SOL    MW4  695   2.625   2.530   0.460
  161SOL     OW  696   2.736   3.193   0.572
  161SOL    HW2  697   2.786   3.262   0.529
  161SOL    HW3  698   2.741   3.213   0.665
  161SOL    MW4  699   2.743   3.204   0.578
  162SOL     OW  700   2.856   3.393   0.422
  162SOL    HW2  701   2.946   3.361   0.422
  162SOL    HW3  702   2.864   3.488   0.434
  162SOL    MW4  703   2.869   3.401   0.424
  163SOL     OW  704   3.095   3.249   0.482
  163SOL    HW2  705   3.109   3.155   0.470
  163SOL    HW3  706   3.095   3.262   0.577
  163SOL    MW4  707   3.097   3.239   0.493
  164SOL     OW  708   2.355   3.461   0.360
  164SOL    HW2  709   2.446   3.451   0.334
  164SOL    HW3  710   2.341   3.394   0.427
  164SOL    MW4  711   2.365   3.451   0.365
  165SOL     OW  712   2.164   3.460   0.116
  165SOL    HW2  713   2.232   3.478   0.180
  165SOL    HW3  714   2.210   3.422   0.041
  165SOL    MW4  715   2.179   3.458   0.114
  166SOL     OW  716   3.626   3.473   0.241
  166SOL    HW2  717   3.668   3.416   0.305
  166SOL    HW3  718   3.532   3.456   0.251
  166SOL    MW4  719   3.619   3.463   0.251
  167SOL     OW  720   2.567   4.031   0.352
  167SOL    HW2  721   2.535   4.121   0.359
  167SOL    HW3  722   2.499   3.986   0.301
  167SOL    MW4  723   2.554   4.037   0.346
  168SOL     OW  724   2.304   3.705   0.463
  168SOL    HW2  725   2.334   3.694   0.553
  168SOL    HW3  726   2.335   3.626   0.418
  168SOL    MW4  727   2.312   3.693   0.469
  169SOL     OW  728   3.615   3.995   0.456
  169SOL    HW2  729   3.541   4.048   0.427
  169SOL    HW3  730   3.597   3.907   0.422
  169SOL    MW4  731   3.603   3.990   0.447
  170SOL     OW  732   2.937   4.391   0.416
  170SOL    HW2  733   2.915   4.414   0.506
  170SOL    HW3  734   2.900   4.304   0.404
  170SOL    MW4  735   2.929   4.382   0.427
  171SOL     OW  736   3.394   4.408   0.464
  171SOL    HW2  737   3.461   4.464   0.424
  171SOL    HW3  738   3.311   4.442   0.430
  171SOL    MW4  739   3.392   4.420   0.454
  172SOL     OW  740   3.161   4.522   0.339
  172SOL    HW2  741   3.080   4.479   0.365
  172SOL    HW3  742   3.155   4.529   0.244
  172SOL    MW4  743   3.150   4.517   0.330
  173SOL     OW  744   2.901   4.124   0.329
  173SOL    HW2  745   2.841   4.085   0.265
  173SOL    HW3  746   2.988   4.098   0.299
  173SOL    MW4  747   2.905   4.115   0.316
  174SOL     OW  748   2.636   0.798   0.160
  174SOL    HW2  749   2.593   0.800   0.075
  174SOL    HW3  750   2.710   0.858   0.151
  174SOL    MW4  751   2.640   0.806   0.148
  175SOL     OW  752   3.370   0.538   0.407
  175SOL    HW2  753   3.460   0.549   0.376
  175SOL    HW3  754   3.335   0.626   0.411
  175SOL    MW4  755   3.378   0.551   0.403
  176SOL     OW  756   2.893   0.430   0.499
  176SOL    HW2  757   2.854   0.495   0.441
  176SOL    HW3  758   2.979   0.412   0.462
  176SOL    MW4  759   2.899   0.437   0.486
  177SOL     OW  760   3.626   0.476   0.334
  177SOL    HW2  761   3.696   0.497   0.395
  177SOL    HW3  762   3.671   0.457   0.251
  177SOL    MW4  763   3.641   0.476   0.331
  178SOL     OW  764   3.080   0.698   0.229
  178SOL    HW2  765   3.155   0.729   0.281
  178SOL    HW3  766   3.073   0.605   0.250
  178SOL    MW4  767   3.089   0.690   0.239
  179SOL     OW  768   3.672   1.870   0.534
  179SOL    HW2  769   3.660   1.830   0.620
  179SOL    HW3  770   3.624   1.953   0.539
  179SOL    MW4  771   3.664   1.876   0.546
  180SOL     OW  772   3.318   2.062   0.393
  180SOL    HW2  773   3.264   2.045   0.470
  180SOL    HW3  774   3.294   2.150   0.366
  180SOL    MW4  775   3.308   2.071   0.399
  181SOL     OW  776   3.461   0.993   0.406
  181SOL    HW2  777   3.407   1.069   0.384
  181SOL    HW3  778   3.470   0.997   0.501
  181SOL    MW4  779   3.455   1.004   0.416
  182SOL     OW  780   3.546   2.110   0.541
  182SOL    HW2  781   3.466   2.100   0.489
  182SOL    HW3  782   3.517   2.102   0.632
  182SOL    MW4  783   3.531   2.108   0.546
  183SOL     OW  784   3.278   2.321   0.664
  183SOL    HW2  785   3.235   2.236   0.652
  183SOL    HW3  786   3.325   2.312   0.747
  183SOL    MW4  787   3.279   2.308   0.674
  184SOL     OW  788   3.573   2.739   0.600
  184SOL    HW2  789   3.596   2.753   0.692
  184SOL    HW3  790   3.622   2.660   0.576
  184SOL    MW4  791   3.583   2.731   0.609
  185SOL     OW  792   2.530   3.082   0.413
  185SOL    HW2  793   2.452   3.131   0.438
  185SOL    HW3  794   2.595   3.105   0.480
  185SOL    MW4  795   2.528   3.091   0.425
  186SOL     OW  796   3.138   2.752   0.277
  186SOL    HW2  797   3.125   2.663   0.312
  186SOL    HW3  798   3.143   2.739   0.182
  186SOL    MW4  799   3.137   2.738   0.269
  187SOL     OW  800   2.928   2.855   0.836
  187SOL    HW2  801   2.928   2.861   0.740
  187SOL    HW3  802   3.012   2.814   0.857
  187SOL    MW4  803   2.939   2.851   0.826
  188SOL     OW  804   3.210   0.105   0.456
  188SOL    HW2  805   3.191   0.089   0.548
  188SOL    HW3  806   3.185   0.024   0.412
  188SOL    MW4  807   3.204   0.092   0.462
  189SOL     OW  808   3.168   3.806   0.442
  189SOL    HW2  809   3.230   3.738   0.468
  189SOL    HW3  810   3.158   3.861   0.519
  189SOL    MW4  811   3.175   3.805   0.455
  190SOL     OW  812   3.586   3.713   0.406
  190SOL    HW2  813   3.597   3.664   0.324
  190SOL    HW3  814   3.504   3.680   0.443
  190SOL    MW4  815   3.577   3.702   0.400
  191SOL     OW  816   3.575   3.244   0.455
  191SOL    HW2  817   3.664   3.278   0.445
  191SOL    HW3  818   3.582   3.150   0.439
  191SOL    MW4  819   3.587   3.236   0.451
  192SOL     OW  820   3.348   3.374   0.376
  192SOL    HW2  821   3.271   3.318   0.388
  192SOL    HW3  822   3.419   3.327   0.418
  192SOL    MW4  823   3.347   3.361   0.383
  193SOL     OW  824   3.154   4.035   0.227
  193SOL    HW2  825   3.152   3.958   0.284
  193SOL    HW3  826   3.176   4.001   0.140
  193SOL    MW4  827   3.157   4.020   0.223
  194SOL     OW  828   2.601   3.343   0.297
  194SOL    HW2  829   2.697   3.345   0.297
  194SOL    HW3  830   2.579   3.253   0.320
  194SOL    MW4  831   2.611   3.332   0.300
  195SOL     OW  832   4.220   0.086   0.423
  195SOL    HW2  833   4.306   0.067   0.459
  195SOL    HW3  834   4.169   0.006   0.437
  195SOL    MW4  835   4.225   0.073   0.429
  196SOL     OW  836   3.734   0.168   0.364
  196SOL    HW2  837   3.665   0.202   0.421
  196SOL    HW3  838   3.815   0.189   0.411
  196SOL    MW4  839   3.736   0.176   0.378
  197SOL     OW  840   3.514   0.260   0.492
  197SOL    HW2  841   3.425   0.225   0.486
  197SOL    HW3  842   3.510   0.345   0.448
  197SOL    MW4  843   3.502   0.267   0.485
  198SOL     OW  844   3.858   0.583   0.506
  198SOL    HW2  845   3.848   0.570   0.600
  198SOL    HW3  846   3.927   0.522   0.481
  198SOL    MW4  847   3.865   0.573   0.515
  199SOL     OW  848   4.009   0.425   0.301
  199SOL    HW2  849   4.098   0.405   0.273
  199SOL    HW3  850   3.953   0.389   0.232
  199SOL    MW4  851   4.013   0.417   0.289
  200SOL     OW  852   4.227   0.822   0.434
  200SOL    HW2  853   4.143   0.819   0.480
  200SOL    HW3  854   4.204   0.807   0.342
  200SOL    MW4  855   4.213   0.819   0.428
  201SOL     OW  856   3.757   1.032   0.449
  201SOL    HW2  857   3.757   1.127   0.462
  201SOL    HW3  858   3.665   1.010   0.437
  201SOL    MW4  859   3.745   1.042   0.449
  202SOL     OW  860   4.091   1.387   0.364
  202SOL    HW2  861   4.067   1.403   0.273
  202SOL    HW3  862   4.125   1.471   0.395
  202SOL    MW4  863   4.092   1.401   0.356
  203SOL     OW  864   3.820   1.313   0.466
  203SOL    HW2  865   3.909   1.343   0.448
  203SOL    HW3  866   3.766   1.391   0.454
  203SOL    MW4  867   3.825   1.328   0.462
  204SOL     OW  868   3.371   1.394   0.484
  204SOL    HW2  869   3.381   1.369   0.576
  204SOL    HW3  870   3.328   1.319   0.443
  204SOL    MW4  871   3.367   1.381   0.491
  205SOL     OW  872   3.670   1.568   0.494
  205SOL    HW2  873   3.579   1.548   0.473
  205SOL    HW3  874   3.676   1.663   0.487
  205SOL    MW4  875   3.659   1.578   0.490
  206SOL     OW  876   3.731   2.521   0.539
  206SOL    HW2  877   3.684   2.456   0.487
  206SOL    HW3  878   3.722   2.491   0.629
  206SOL    MW4  879   3.724   2.508   0.544
  207SOL     OW  880   3.949   2.519   0.378
  207SOL    HW2  881   3.873   2.517   0.435
  207SOL    HW3  882   4.017   2.473   0.426
  207SOL    MW4  883   3.948   2.512   0.392
  208SOL     OW  884   3.070   2.489   0.401
  208SOL    HW2  885   3.147   2.444   0.366
  208SOL    HW3  886   3.086   2.493   0.496
  208SOL    MW4  887   3.082   2.484   0.409
  209SOL     OW  888   2.907   3.661   0.498
  209SOL    HW2  889   2.993   3.699   0.481
  209SOL    HW3  890   2.846   3.735   0.494
  209SOL    MW4  891   2.910   3.676   0.495
  210SOL     OW  892   3.092   2.954   0.441
  210SOL    HW2  893   3.109   2.892   0.370
  210SOL    HW3  894   3.007   2.927   0.476
  210SOL    MW4  895   3.083   2.942   0.436
  211SOL     OW  896   4.037   2.784   0.411
  211SOL    HW2  897   4.131   2.789   0.425
  211SOL    HW3  898   4.022   2.695   0.379
  211SOL    MW4  899   4.047   2.773   0.408
  212SOL     OW  900   3.689   2.980   0.520
  212SOL    HW2  901   3.763   2.979   0.580
  212SOL    HW3  902   3.640   2.900   0.541
  212SOL    MW4  903   3.692   2.969   0.530
  213SOL     OW  904   3.982   3.751   0.388
  213SOL    HW2  905   3.954   3.691   0.457
  213SOL    HW3  906   3.949   3.712   0.307
  213SOL    MW4  907   3.974   3.738   0.386
  214SOL     OW  908   3.307   2.352   0.360
  214SOL    HW2  909   3.317   2.338   0.455
  214SOL    HW3  910   3.395   2.371   0.329
  214SOL    MW4  911   3.320   2.353   0.369
  215SOL     OW  912   3.349   3.613   0.514
  215SOL    HW2  913   3.333   3.525   0.482
  215SOL    HW3  914   3.374   3.601   0.606
  215SOL    MW4  915   3.350   3.600   0.522
  216SOL     OW  916   4.239   3.695   0.479
  216SOL    HW2  917   4.153   3.720   0.446
  216SOL    HW3  918   4.257   3.611   0.438
  216SOL    MW4  919   4.230   3.687   0.469
  217SOL     OW  920   3.376   4.134   0.376
  217SOL    HW2  921   3.377   4.227   0.395
  217SOL    HW3  922   3.303   4.122   0.316
  217SOL    MW4  923   3.367   4.144   0.371
  218SOL     OW  924   3.803   4.425   0.565
  218SOL    HW2  925   3.831   4.343   0.524
  218SOL    HW3  926   3.805   4.406   0.658
  218SOL    MW4  927   3.807   4.411   0.572
  219SOL     OW  928   4.487   0.051   0.552
  219SOL    HW2  929   4.539  -0.029   0.539
  219SOL    HW3  930   4.486   0.064   0.647
  219SOL    MW4  931   4.494   0.042   0.563
  220SOL     OW  932   3.957   0.838   0.508
  220SOL    HW2  933   3.897   0.900   0.467
  220SOL    HW3  934   3.906   0.758   0.519
  220SOL    MW4  935   3.943   0.836   0.504
  221SOL     OW  936   0.055   1.764   0.115
  221SOL    HW2  937  -0.040   1.768   0.109
  221SOL    HW3  938   0.087   1.801   0.033
  221SOL    MW4  939   0.047   1.770   0.104
  222SOL     OW  940   4.288   0.339   0.316
  222SOL    HW2  941   4.282   0.253   0.359
  222SOL    HW3  942   4.330   0.395   0.381
  222SOL    MW4  943   4.293   0.335   0.331
  223SOL     OW  944   4.423   0.996   0.519
  223SOL    HW2  945   4.413   1.089   0.498
  223SOL    HW3  946   4.347   0.954   0.480
  223SOL    MW4  947   4.412   1.003   0.511
  224SOL     OW  948   3.626   4.620   0.484
  224SOL    HW2  949   3.698   4.560   0.507
  224SOL    HW3  950   3.668   4.687   0.430
  224SOL    MW4  951   3.641   4.621   0.480
  225SOL     OW  952   4.321   1.253   0.438
  225SOL    HW2  953   4.295   1.266   0.529
  225SOL    HW3  954   4.248   1.288   0.387
  225SOL    MW4  955   4.308   1.259   0.444
  226SOL     OW  956   0.064   1.376   0.431
  226SOL    HW2  957  -0.028   1.360   0.453
  226SOL    HW3  958   0.108   1.292   0.446
  226SOL    MW4  959   0.058   1.363   0.436
  227SOL     OW  960   4.001   2.123   0.475
  227SOL    HW2  961   3.945   2.163   0.410
  227SOL    HW3  962   4.055   2.195   0.508
  227SOL    MW4  963   4.001   2.138   0.471
  228SOL     OW  964   4.084   1.845   0.531
  228SOL    HW2  965   4.153   1.912   0.529
  228SOL    HW3  966   4.005   1.892   0.506
  228SOL    MW4  967   4.083   1.860   0.527
  229SOL     OW  968   4.389   2.139   0.438
  229SOL    HW2  969   4.430   2.224   0.455
  229SOL    HW3  970   4.462   2.080   0.418
  229SOL    MW4  971   4.404   2.142   0.437
  230SOL     OW  972   4.195   2.081   0.251
  230SOL    HW2  973   4.117   2.106   0.301
  230SOL    HW3  974   4.268   2.116   0.301
  230SOL    MW4  975   4.194   2.089   0.264
  231SOL     OW  976   4.449   2.405   0.513
  231SOL    HW2  977   4.520   2.443   0.461
  231SOL    HW3  978   4.458   2.446   0.599
  231SOL    MW4  979   4.460   2.416   0.517
  232SOL     OW  980   3.927   3.032   0.329
  232SOL    HW2  981   3.971   2.947   0.333
  232SOL    HW3  982   3.835   3.012   0.342
  232SOL    MW4  983   3.921   3.018   0.331
  233SOL     OW  984   4.166   2.360   0.541
  233SOL    HW2  985   4.147   2.400   0.626
  233SOL    HW3  986   4.261   2.351   0.539
  233SOL    MW4  987   4.176   2.364   0.552
  234SOL     OW  988   0.166   3.630   0.453
  234SOL    HW2  989   0.117   3.711   0.434
  234SOL    HW3  990   0.257   3.658   0.456
  234SOL    MW4  991   0.171   3.644   0.450
  235SOL     OW  992   3.829   3.631   0.155
  235SOL    HW2  993   3.764   3.565   0.180
  235SOL    HW3  994   3.801   3.660   0.068
  235SOL    MW4  995   3.817   3.626   0.147
  236SOL     OW  996   0.604   3.221   0.451
  236SOL    HW2  997   0.560   3.264   0.523
  236SOL    HW3  998   0.669   3.284   0.420
  236SOL    MW4  999   0.607   3.235   0.456
  237SOL     OW 1000   3.803   3.602   0.543
  237SOL    HW2 1001   3.730   3.645   0.498
  237SOL    HW3 1002   3.782   3.612   0.636
  237SOL    MW4 1003   3.790   3.609   0.550
  238SOL     OW 1004   4.083   3.204   0.489
  238SOL    HW2 1005   4.048   3.186   0.577
  238SOL    HW3 1006   4.035   3.144   0.432
  238SOL    MW4 1007   4.072   3.194   0.493
  239SOL     OW 1008   4.304   4.081   0.523
  239SOL    HW2 1009   4.224   4.029   0.532
  239SOL    HW3 1010   4.359   4.053   0.597
  239SOL    MW4 1011   4.301   4.070   0.534
  240SOL     OW 1012   4.010   3.999   0.512
  240SOL    HW2 1013   3.992   3.915   0.469
  240SOL    HW3 1014   3.941   4.057   0.481
  240SOL    MW4 1015   3.999   3.996   0.502
  241SOL     OW 1016   3.846   4.195   0.413
  241SOL    HW2 1017   3.757   4.160   0.408
  241SOL    HW3 1018   3.868   4.215   0.322
  241SOL    MW4 1019   3.837   4.193   0.400
  242SOL     OW 1020   4.083   4.504   0.485
  242SOL    HW2 1021   4.126   4.455   0.555
  242SOL    HW3 1022   3.990   4.482   0.495
  242SOL    MW4 1023   4.076   4.494   0.495
  243SOL     OW 1024   0.237   4.639   0.905
  243SOL    HW2 1025   0.240   4.549   0.873
  243SOL    HW3 1026   0.154   4.673   0.873
  243SOL    MW4 1027   0.227   4.632   0.897
  244SOL     OW 1028   0.013   0.085   0.819
  244SOL    HW2 1029  -0.079   0.063   0.806
  244SOL    HW3 1030   0.015   0.181   0.817
  244SOL    MW4 1031   0.001   0.095   0.817
  245SOL     OW 1032   4.487   0.362   0.829
  245SOL    HW2 1033   4.479   0.373   0.924
  245SOL    HW3 1034   4.567   0.410   0.806
  245SOL    MW4 1035   4.497   0.370   0.839
  246SOL     OW 1036   0.196   0.537   0.755
  246SOL    HW2 1037   0.269   0.487   0.792
  246SOL    HW3 1038   0.206   0.625   0.790
  246SOL    MW4 1039   0.207   0.542   0.764
  247SOL     OW 1040   0.197   0.791   0.846
  247SOL    HW2 1041   0.193   0.772   0.939
  247SOL    HW3 1042   0.111   0.828   0.825
  247SOL    MW4 1043   0.185   0.794   0.855
  248SOL     OW 1044   4.443   0.893   0.781
  248SOL    HW2 1045   4.360   0.857   0.811
  248SOL    HW3 1046   4.432   0.903   0.686
  248SOL    MW4 1047   4.431   0.889   0.772
  249SOL     OW 1048   0.014   1.152   0.856
  249SOL    HW2 1049   0.001   1.160   0.951
  249SOL    HW3 1050   0.001   1.059   0.838
  249SOL    MW4 1051   0.011   1.141   0.866
  250SOL     OW 1052   0.244   1.232   0.731
  250SOL    HW2 1053   0.160   1.207   0.771
  250SOL    HW3 1054   0.251   1.177   0.653
  250SOL    MW4 1055   0.234   1.221   0.726
  251SOL     OW 1056   0.239   1.505   0.842
  251SOL    HW2 1057   0.328   1.537   0.832
  251SOL    HW3 1058   0.239   1.418   0.803
  251SOL    MW4 1059   0.251   1.498   0.836
  252SOL     OW 1060   0.017   1.651   0.793
  252SOL    HW2 1061  -0.064   1.605   0.815
  252SOL    HW3 1062   0.087   1.596   0.828
  252SOL    MW4 1063   0.015   1.638   0.801
  253SOL     OW 1064   0.011   1.943   0.816
  253SOL    HW2 1065   0.088   1.974   0.769
  253SOL    HW3 1066   0.013   1.848   0.806
  253SOL    MW4 1067   0.021   1.935   0.808
  254SOL     OW 1068   0.252   2.026   0.679
  254SOL    HW2 1069   0.255   2.121   0.675
  254SOL    HW3 1070   0.289   1.997   0.596
  254SOL    MW4 1071   0.257   2.035   0.668
  255SOL     OW 1072   0.291   2.305   0.790
  255SOL    HW2 1073   0.279   2.288   0.883
  255SOL    HW3 1074   0.364   2.366   0.785
  255SOL    MW4 1075   0.299   2.311   0.801
  256SOL     OW 1076   0.058   2.471   0.770
  256SOL    HW2 1077  -0.006   2.404   0.794
  256SOL    HW3 1078   0.142   2.426   0.770
  256SOL    MW4 1079   0.061   2.456   0.773
  257SOL     OW 1080   0.078   2.742   0.831
  257SOL    HW2 1081   0.077   2.745   0.927
  257SOL    HW3 1082   0.074   2.649   0.810
  257SOL    MW4 1083   0.077   2.730   0.841
  258SOL     OW 1084   0.285   2.860   0.706
  258SOL    HW2 1085   0.208   2.810   0.736
  258SOL    HW3 1086   0.278   2.860   0.611
  258SOL    MW4 1087   0.274   2.853   0.697
  259SOL     OW 1088   0.240   3.114   0.787
  259SOL    HW2 1089   0.247   3.115   0.883
  259SOL    HW3 1090   0.249   3.022   0.763
  259SOL    MW4 1091   0.242   3.102   0.797
  260SOL     OW 1092   0.026   3.228   0.656
  260SOL    HW2 1093   0.102   3.187   0.696
  260SOL    HW3 1094   0.061   3.277   0.581
  260SOL    MW4 1095   0.040   3.229   0.651
  261SOL     OW 1096   4.471   3.444   0.831
  261SOL    HW2 1097   4.402   3.497   0.793
  261SOL    HW3 1098   4.481   3.370   0.771
  261SOL    MW4 1099   4.463   3.441   0.818
  262SOL     OW 1100   0.163   3.609   0.734
  262SOL    HW2 1101   0.105   3.543   0.772
  262SOL    HW3 1102   0.161   3.592   0.640
  262SOL    MW4 1103   0.155   3.598   0.727
  263SOL     OW 1104   0.219   3.897   0.814
  263SOL    HW2 1105   0.225   3.923   0.906
  263SOL    HW3 1106   0.181   3.810   0.816
  263SOL    MW4 1107   0.215   3.889   0.826
  264SOL     OW 1108   4.470   4.012   0.726
  264SOL    HW2 1109   4.415   3.950   0.773
  264SOL    HW3 1110   4.560   3.981   0.741
  264SOL    MW4 1111   4.475   4.000   0.734
  265SOL     OW 1112   4.440   4.281   0.798
  265SOL    HW2 1113   4.433   4.277   0.893
  265SOL    HW3 1114   4.443   4.189   0.769
  265SOL    MW4 1115   4.440   4.268   0.806
  266SOL     OW 1116   0.215   4.407   0.757
  266SOL    HW2 1117   0.130   4.363   0.760
  266SOL    HW3 1118   0.217   4.448   0.671
  266SOL    MW4 1119   0.204   4.406   0.746
  267SOL     OW 1120   0.674   0.053   0.869
  267SOL    HW2 1121   0.669   0.046   0.964
  267SOL    HW3 1122   0.588   0.084   0.842
  267SOL    MW4 1123   0.662   0.056   0.878
  268SOL     OW 1124   0.414   0.150   0.764
  268SOL    HW2 1125   0.352   0.083   0.793
  268SOL    HW3 1126   0.427   0.133   0.671
  268SOL    MW4 1127   0.407   0.139   0.756
  269SOL     OW 1128   0.414   0.402   0.886
  269SOL    HW2 1129   0.504   0.424   0.859
  269SOL    HW3 1130   0.392   0.326   0.833
  269SOL    MW4 1131   0.423   0.395   0.875
  270SOL     OW 1132   0.655   0.493   0.766
  270SOL    HW2 1133   0.745   0.463   0.778
  270SOL    HW3 1134   0.652   0.527   0.677
  270SOL    MW4 1135   0.667   0.493   0.756
  271SOL     OW 1136   0.708   0.765   0.803
  271SOL    HW2 1137   0.629   0.803   0.764
  271SOL    HW3 1138   0.693   0.671   0.800
  271SOL    MW4 1139   0.696   0.758   0.797
  272SOL     OW 1140   0.452   0.872   0.749
  272SOL    HW2 1141   0.473   0.958   0.785
  272SOL    HW3 1142   0.368   0.849   0.789
  272SOL    MW4 1143   0.444   0.880   0.759
  273SOL     OW 1144   0.481   1.132   0.844
  273SOL    HW2 1145   0.559   1.167   0.801
  273SOL    HW3 1146   0.408   1.177   0.802
  273SOL    MW4 1147   0.482   1.143   0.833
  274SOL     OW 1148   0.708   1.261   0.756
  274SOL    HW2 1149   0.705   1.356   0.767
  274SOL    HW3 1150   0.728   1.249   0.663
  274SOL    MW4 1151   0.710   1.272   0.745
  275SOL     OW 1152   0.716   1.533   0.849
  275SOL    HW2 1153   0.706   1.528   0.944
  275SOL    HW3 1154   0.628   1.550   0.817
  275SOL    MW4 1155   0.703   1.535   0.858
  276SOL     OW 1156   0.480   1.623   0.753
  276SOL    HW2 1157   0.494   1.714   0.778
  276SOL    HW3 1158   0.474   1.625   0.658
  276SOL    MW4 1159   0.481   1.635   0.744
  277SOL     OW 1160   0.445   1.909   0.866
  277SOL    HW2 1161   0.446   1.926   0.960
  277SOL    HW3 1162   0.368   1.955   0.834
  277SOL    MW4 1163   0.435   1.917   0.874
  278SOL     OW 1164   0.623   2.093   0.753
  278SOL    HW2 1165   0.571   2.028   0.800
  278SOL    HW3 1166   0.596   2.083   0.661
  278SOL    MW4 1167   0.613   2.083   0.747
  279SOL     OW 1168   0.692   2.360   0.850
  279SOL    HW2 1169   0.713   2.351   0.943
  279SOL    HW3 1170   0.671   2.270   0.822
  279SOL    MW4 1171   0.692   2.347   0.859
  280SOL     OW 1172   0.469   2.496   0.773
  280SOL    HW2 1173   0.546   2.448   0.804
  280SOL    HW3 1174   0.489   2.516   0.681
  280SOL    MW4 1175   0.482   2.493   0.765
  281SOL     OW 1176   0.492   2.763   0.873
  281SOL    HW2 1177   0.472   2.670   0.856
  281SOL    HW3 1178   0.423   2.810   0.826
  281SOL    MW4 1179   0.480   2.757   0.864
  282SOL     OW 1180   0.713   2.858   0.731
  282SOL    HW2 1181   0.795   2.811   0.749
  282SOL    HW3 1182   0.646   2.807   0.775
  282SOL    MW4 1183   0.715   2.845   0.739
  283SOL     OW 1184   0.675   3.118   0.808
  283SOL    HW2 1185   0.602   3.159   0.763
  283SOL    HW3 1186   0.686   3.033   0.764
  283SOL    MW4 1187   0.667   3.112   0.796
  284SOL     OW 1188   0.460   3.252   0.710
  284SOL    HW2 1189   0.443   3.339   0.746
  284SOL    HW3 1190   0.382   3.201   0.734
  284SOL    MW4 1191   0.447   3.257   0.718
  285SOL     OW 1192   0.406   3.495   0.834
  285SOL    HW2 1193   0.414   3.508   0.929
  285SOL    HW3 1194   0.327   3.543   0.809
  285SOL    MW4 1195   0.397   3.503   0.844
  286SOL     OW 1196   0.651   3.614   0.791
  286SOL    HW2 1197   0.571   3.562   0.801
  286SOL    HW3 1198   0.623   3.704   0.805
  286SOL    MW4 1199   0.637   3.619   0.794
  287SOL     OW 1200   0.628   3.891   0.838
  287SOL    HW2 1201   0.707   3.919   0.791
  287SOL    HW3 1202   0.559   3.947   0.804
  287SOL    MW4 1203   0.630   3.902   0.827
  288SOL     OW 1204   0.448   4.053   0.710
  288SOL    HW2 1205   0.438   4.141   0.747
  288SOL    HW3 1206   0.375   4.003   0.749
  288SOL    MW4 1207   0.437   4.058   0.720
  289SOL     OW 1208   0.462   4.311   0.836
  289SOL    HW2 1209   0.451   4.301   0.931
  289SOL    HW3 1210   0.381   4.354   0.807
  289SOL    MW4 1211   0.450   4.315   0.845
  290SOL     OW 1212   0.700   4.456   0.785
  290SOL    HW2 1213   0.629   4.396   0.805
  290SOL    HW3 1214   0.678   4.537   0.831
  290SOL    MW4 1215   0.688   4.459   0.793
  291SOL     OW 1216   1.152   0.023   0.892
  291SOL    HW2 1217   1.215   0.081   0.849
  291SOL    HW3 1218   1.067   0.052   0.860
  291SOL    MW4 1219   1.149   0.035   0.882
  292SOL     OW 1220   0.921   0.108   0.748
  292SOL    HW2 1221   0.943   0.197   0.774
  292SOL    HW3 1222   0.834   0.092   0.785
  292SOL    MW4 1223   0.912   0.118   0.756
  293SOL     OW 1224   0.899   0.368   0.840
  293SOL    HW2 1225   0.900   0.375   0.935
  293SOL    HW3 1226   0.981   0.410   0.812
  293SOL    MW4 1227   0.910   0.375   0.849
  294SOL     OW 1228   1.130   0.504   0.746
  294SOL    HW2 1229   1.204   0.456   0.784
  294SOL    HW3 1230   1.149   0.507   0.652
  294SOL    MW4 1231   1.142   0.498   0.739
  295SOL     OW 1232   1.153   0.777   0.807
  295SOL    HW2 1233   1.140   0.770   0.901
  295SOL    HW3 1234   1.158   0.687   0.776
  295SOL    MW4 1235   1.152   0.764   0.815
  296SOL     OW 1236   0.910   0.914   0.692
  296SOL    HW2 1237   0.998   0.880   0.708
  296SOL    HW3 1238   0.852   0.847   0.728
  296SOL    MW4 1239   0.914   0.900   0.699
  297SOL     OW 1240   0.906   1.123   0.880
  297SOL    HW2 1241   0.915   1.045   0.826
  297SOL    HW3 1242   0.835   1.173   0.839
  297SOL    MW4 1243   0.898   1.119   0.867
  298SOL     OW 1244   1.116   1.310   0.748
  298SOL    HW2 1245   1.057   1.250   0.794
  298SOL    HW3 1246   1.096   1.297   0.655
  298SOL    MW4 1247   1.105   1.301   0.742
  299SOL     OW 1248   1.140   1.545   0.899
  299SOL    HW2 1249   1.069   1.606   0.880
  299SOL    HW3 1250   1.122   1.469   0.845
  299SOL    MW4 1251   1.128   1.543   0.890
  300SOL     OW 1252   0.936   1.697   0.804
  300SOL    HW2 1253   0.922   1.791   0.811
  300SOL    HW3 1254   0.851   1.658   0.824
  300SOL    MW4 1255   0.923   1.704   0.808
  301SOL     OW 1256   0.883   1.964   0.844
  301SOL    HW2 1257   0.879   1.973   0.940
  301SOL    HW3 1258   0.800   2.001   0.813
  301SOL    MW4 1259   0.872   1.970   0.853
  302SOL     OW 1260   1.143   2.055   0.719
  302SOL    HW2 1261   1.144   2.141   0.762
  302SOL    HW3 1262   1.067   2.010   0.756
  302SOL    MW4 1263   1.133   2.061   0.729
  303SOL     OW 1264   1.105   2.307   0.882
  303SOL    HW2 1265   1.113   2.302   0.977
  303SOL    HW3 1266   1.175   2.365   0.855
  303SOL    MW4 1267   1.115   2.314   0.891
  304SOL     OW 1268   0.904   2.439   0.720
  304SOL    HW2 1269   0.969   2.399   0.779
  304SOL    HW3 1270   0.820   2.407   0.752
  304SOL    MW4 1271   0.902   2.430   0.732
  305SOL     OW 1272   0.922   2.697   0.842
  305SOL    HW2 1273   0.921   2.680   0.936
  305SOL    HW3 1274   0.900   2.612   0.803
  305SOL    MW4 1275   0.919   2.683   0.849
  306SOL     OW 1276   1.159   2.766   0.696
  306SOL    HW2 1277   1.076   2.747   0.739
  306SOL    HW3 1278   1.145   2.744   0.604
  306SOL    MW4 1279   1.146   2.760   0.690
  307SOL     OW 1280   1.154   3.037   0.816
  307SOL    HW2 1281   1.073   3.083   0.796
  307SOL    HW3 1282   1.150   2.956   0.765
  307SOL    MW4 1283   1.143   3.032   0.807
  308SOL     OW 1284   0.932   3.214   0.764
  308SOL    HW2 1285   0.934   3.307   0.787
  308SOL    HW3 1286   0.841   3.188   0.777
  308SOL    MW4 1287   0.920   3.223   0.769
  309SOL     OW 1288   0.912   3.485   0.840
  309SOL    HW2 1289   0.970   3.548   0.796
  309SOL    HW3 1290   0.825   3.523   0.831
  309SOL    MW4 1291   0.908   3.499   0.833
  310SOL     OW 1292   1.107   3.634   0.719
  310SOL    HW2 1293   1.185   3.593   0.756
  310SOL    HW3 1294   1.109   3.611   0.626
  310SOL    MW4 1295   1.117   3.625   0.712
  311SOL     OW 1296   1.124   3.888   0.832
  311SOL    HW2 1297   1.129   3.874   0.926
  311SOL    HW3 1298   1.118   3.801   0.794
  311SOL    MW4 1299   1.124   3.875   0.839
  312SOL     OW 1300   0.879   4.006   0.755
  312SOL    HW2 1301   0.877   4.092   0.797
  312SOL    HW3 1302   0.955   3.962   0.793
  312SOL    MW4 1303   0.889   4.011   0.766
  313SOL     OW 1304   0.895   4.257   0.873
  313SOL    HW2 1305   0.980   4.300   0.861
  313SOL    HW3 1306   0.833   4.315   0.830
  313SOL    MW4 1307   0.898   4.270   0.865
  314SOL     OW 1308   1.117   4.418   0.815
  314SOL    HW2 1309   1.200   4.377   0.839
  314SOL    HW3 1310   1.127   4.509   0.844
  314SOL    MW4 1311   1.129   4.425   0.822
  315SOL     OW 1312   1.595   0.041   0.859
  315SOL    HW2 1313   1.574   0.006   0.946
  315SOL    HW3 1314   1.515   0.084   0.831
  315SOL    MW4 1315   1.582   0.042   0.867
  316SOL     OW 1316   1.339   0.145   0.716
  316SOL    HW2 1317   1.343   0.239   0.736
  316SOL    HW3 1318   1.307   0.142   0.626
  316SOL    MW4 1319   1.335   0.157   0.707
  317SOL     OW 1320   1.358   0.391   0.861
  317SOL    HW2 1321   1.363   0.386   0.956
  317SOL    HW3 1322   1.436   0.440   0.835
  317SOL    MW4 1323   1.369   0.397   0.870
  318SOL     OW 1324   1.602   0.515   0.734
  318SOL    HW2 1325   1.592   0.608   0.757
  318SOL    HW3 1326   1.684   0.489   0.775
  318SOL    MW4 1327   1.611   0.524   0.742
  319SOL     OW 1328   1.558   0.789   0.824
  319SOL    HW2 1329   1.634   0.832   0.786
  319SOL    HW3 1330   1.483   0.836   0.788
  319SOL    MW4 1331   1.558   0.801   0.814
  320SOL     OW 1332   1.361   0.951   0.721
  320SOL    HW2 1333   1.367   1.023   0.784
  320SOL    HW3 1334   1.285   0.901   0.748
  320SOL    MW4 1335   1.352   0.954   0.733
  321SOL     OW 1336   1.342   1.184   0.860
  321SOL    HW2 1337   1.426   1.218   0.830
  321SOL    HW3 1338   1.277   1.233   0.809
  321SOL    MW4 1339   1.344   1.195   0.849
  322SOL     OW 1340   1.562   1.293   0.725
  322SOL    HW2 1341   1.584   1.380   0.756
  322SOL    HW3 1342   1.544   1.305   0.631
  322SOL    MW4 1343   1.563   1.306   0.716
  323SOL     OW 1344   1.575   1.563   0.805
  323SOL    HW2 1345   1.562   1.568   0.900
  323SOL    HW3 1346   1.491   1.590   0.767
  323SOL    MW4 1347   1.562   1.567   0.812
  324SOL     OW 1348   1.331   1.644   0.721
  324SOL    HW2 1349   1.319   1.736   0.744
  324SOL    HW3 1350   1.285   1.596   0.790
  324SOL    MW4 1351   1.323   1.650   0.733
  325SOL     OW 1352   1.344   1.898   0.811
  325SOL    HW2 1353   1.329   1.891   0.905
  325SOL    HW3 1354   1.272   1.953   0.779
  325SOL    MW4 1355   1.332   1.904   0.819
  326SOL     OW 1356   1.557   2.055   0.762
  326SOL    HW2 1357   1.481   2.002   0.788
  326SOL    HW3 1358   1.557   2.051   0.666
  326SOL    MW4 1359   1.547   2.047   0.753
  327SOL     OW 1360   1.535   2.312   0.872
  327SOL    HW2 1361   1.466   2.360   0.828
  327SOL    HW3 1362   1.525   2.222   0.840
  327SOL    MW4 1363   1.524   2.306   0.862
  328SOL     OW 1364   1.315   2.445   0.780
  328SOL    HW2 1365   1.342   2.533   0.805
  328SOL    HW3 1366   1.305   2.449   0.685
  328SOL    MW4 1367   1.317   2.457   0.771
  329SOL     OW 1368   1.387   2.719   0.853
  329SOL    HW2 1369   1.357   2.728   0.944
  329SOL    HW3 1370   1.314   2.752   0.801
  329SOL    MW4 1371   1.373   2.725   0.858
  330SOL     OW 1372   1.586   2.822   0.706
  330SOL    HW2 1373   1.588   2.912   0.738
  330SOL    HW3 1374   1.523   2.777   0.762
  330SOL    MW4 1375   1.578   2.828   0.717
  331SOL     OW 1376   1.569   3.076   0.797
  331SOL    HW2 1377   1.571   3.080   0.892
  331SOL    HW3 1378   1.484   3.114   0.773
  331SOL    MW4 1379   1.558   3.081   0.806
  332SOL     OW 1380   1.338   3.223   0.749
  332SOL    HW2 1381   1.268   3.169   0.786
  332SOL    HW3 1382   1.323   3.221   0.655
  332SOL    MW4 1383   1.327   3.215   0.742
  333SOL     OW 1384   1.326   3.514   0.841
  333SOL    HW2 1385   1.398   3.576   0.850
  333SOL    HW3 1386   1.364   3.440   0.793
  333SOL    MW4 1387   1.341   3.512   0.836
  334SOL     OW 1388   1.552   3.666   0.830
  334SOL    HW2 1389   1.620   3.610   0.868
  334SOL    HW3 1390   1.571   3.666   0.736
  334SOL    MW4 1391   1.564   3.659   0.822
  335SOL     OW 1392   1.543   3.927   0.906
  335SOL    HW2 1393   1.459   3.952   0.866
  335SOL    HW3 1394   1.557   3.837   0.877
  335SOL    MW4 1395   1.534   3.918   0.897
  336SOL     OW 1396   1.326   4.057   0.725
  336SOL    HW2 1397   1.241   4.020   0.749
  336SOL    HW3 1398   1.326   4.057   0.629
  336SOL    MW4 1399   1.315   4.052   0.715
  337SOL     OW 1400   1.371   4.280   0.868
  337SOL    HW2 1401   1.457   4.303   0.832
  337SOL    HW3 1402   1.348   4.198   0.824
  337SOL    MW4 1403   1.380   4.272   0.857
  338SOL     OW 1404   1.587   4.460   0.742
  338SOL    HW2 1405   1.653   4.410   0.790
  338SOL    HW3 1406   1.593   4.549   0.776
  338SOL    MW4 1407   1.596   4.465   0.753
  339SOL     OW 1408   2.044   0.014   0.887
  339SOL    HW2 1409   2.138   0.030   0.893
  339SOL    HW3 1410   2.037  -0.077   0.857
  339SOL    MW4 1411   2.056   0.004   0.883
  340SOL     OW 1412   1.835   0.140   0.742
  340SOL    HW2 1413   1.913   0.107   0.786
  340SOL    HW3 1414   1.763   0.089   0.778
  340SOL    MW4 1415   1.836   0.129   0.753
  341SOL     OW 1416   1.858   0.402   0.835
  341SOL    HW2 1417   1.866   0.322   0.783
  341SOL    HW3 1418   1.936   0.453   0.813
  341SOL    MW4 1419   1.869   0.398   0.825
  342SOL     OW 1420   2.079   0.525   0.733
  342SOL    HW2 1421   2.158   0.491   0.775
  342SOL    HW3 1422   2.083   0.490   0.643
  342SOL    MW4 1423   2.090   0.516   0.726
  343SOL     OW 1424   2.036   0.794   0.825
  343SOL    HW2 1425   2.104   0.854   0.796
  343SOL    HW3 1426   2.059   0.710   0.784
  343SOL    MW4 1427   2.048   0.791   0.816
  344SOL     OW 1428   1.799   0.908   0.737
  344SOL    HW2 1429   1.814   0.999   0.762
  344SOL    HW3 1430   1.875   0.861   0.770
  344SOL    MW4 1431   1.811   0.914   0.744
  345SOL     OW 1432   1.800   1.178   0.854
  345SOL    HW2 1433   1.876   1.218   0.813
  345SOL    HW3 1434   1.725   1.218   0.809
  345SOL    MW4 1435   1.800   1.189   0.843
  346SOL     OW 1436   1.997   1.317   0.734
  346SOL    HW2 1437   2.080   1.278   0.762
  346SOL    HW3 1438   1.982   1.283   0.646
  346SOL    MW4 1439   2.006   1.308   0.726
  347SOL     OW 1440   2.017   1.545   0.886
  347SOL    HW2 1441   2.098   1.581   0.850
  347SOL    HW3 1442   2.002   1.464   0.837
  347SOL    MW4 1443   2.026   1.539   0.875
  348SOL     OW 1444   1.796   1.696   0.749
  348SOL    HW2 1445   1.854   1.636   0.794
  348SOL    HW3 1446   1.709   1.656   0.757
  348SOL    MW4 1447   1.792   1.683   0.756
  349SOL     OW 1448   1.814   1.964   0.815
  349SOL    HW2 1449   1.811   1.873   0.786
  349SOL    HW3 1450   1.724   1.996   0.806
  349SOL    MW4 1451   1.802   1.956   0.810
  350SOL     OW 1452   2.047   2.074   0.721
  350SOL    HW2 1453   2.040   2.160   0.761
  350SOL    HW3 1454   1.965   2.030   0.743
  350SOL    MW4 1455   2.036   2.079   0.729
  351SOL     OW 1456   1.998   2.325   0.857
  351SOL    HW2 1457   1.979   2.312   0.950
  351SOL    HW3 1458   1.912   2.341   0.818
  351SOL    MW4 1459   1.984   2.326   0.864
  352SOL     OW 1460   1.749   2.409   0.724
  352SOL    HW2 1461   1.666   2.376   0.758
  352SOL    HW3 1462   1.733   2.421   0.630
  352SOL    MW4 1463   1.736   2.406   0.716
  353SOL     OW 1464   1.801   2.666   0.832
  353SOL    HW2 1465   1.800   2.574   0.806
  353SOL    HW3 1466   1.732   2.707   0.780
  353SOL    MW4 1467   1.792   2.659   0.822
  354SOL     OW 1468   1.984   2.817   0.688
  354SOL    HW2 1469   2.075   2.799   0.713
  354SOL    HW3 1470   1.932   2.769   0.753
  354SOL    MW4 1471   1.989   2.808   0.700
  355SOL     OW 1472   1.990   3.043   0.869
  355SOL    HW2 1473   1.911   3.095   0.854
  355SOL    HW3 1474   1.973   2.960   0.824
  355SOL    MW4 1475   1.977   3.039   0.861
  356SOL     OW 1476   1.821   3.259   0.764
  356SOL    HW2 1477   1.733   3.223   0.748
  356SOL    HW3 1478   1.865   3.250   0.679
  356SOL    MW4 1479   1.815   3.253   0.750
  357SOL     OW 1480   1.768   3.496   0.889
  357SOL    HW2 1481   1.757   3.479   0.982
  357SOL    HW3 1482   1.787   3.410   0.851
  357SOL    MW4 1483   1.769   3.482   0.896
  358SOL     OW 1484   1.977   3.641   0.764
  358SOL    HW2 1485   1.960   3.730   0.794
  358SOL    HW3 1486   1.901   3.591   0.792
  358SOL    MW4 1487   1.965   3.646   0.772
  359SOL     OW 1488   1.964   3.898   0.846
  359SOL    HW2 1489   1.978   3.915   0.940
  359SOL    HW3 1490   1.886   3.948   0.825
  359SOL    MW4 1491   1.956   3.907   0.856
  360SOL     OW 1492   1.754   4.054   0.781
  360SOL    HW2 1493   1.669   4.014   0.800
  360SOL    HW3 1494   1.755   4.063   0.686
  360SOL    MW4 1495   1.743   4.050   0.771
  361SOL     OW 1496   1.777   4.316   0.878
  361SOL    HW2 1497   1.764   4.301   0.971
  361SOL    HW3 1498   1.759   4.231   0.837
  361SOL    MW4 1499   1.773   4.303   0.885
  362SOL     OW 1500   2.023   4.402   0.794
  362SOL    HW2 1501   1.939   4.366   0.821
  362SOL    HW3 1502   2.010   4.428   0.703
  362SOL    MW4 1503   2.010   4.401   0.786
  363SOL     OW 1504   2.559   4.583   0.840
  363SOL    HW2 1505   2.598   4.581   0.928
  363SOL    HW3 1506   2.539   4.492   0.820
  363SOL    MW4 1507   2.562   4.571   0.849
  364SOL     OW 1508   2.320   0.088   0.871
  364SOL    HW2 1509   2.394   0.032   0.894
  364SOL    HW3 1510   2.295   0.058   0.783
  364SOL    MW4 1511   2.326   0.076   0.862
  365SOL     OW 1512   2.271   0.369   0.877
  365SOL    HW2 1513   2.349   0.408   0.837
  365SOL    HW3 1514   2.289   0.275   0.878
  365SOL    MW4 1515   2.284   0.362   0.872
  366SOL     OW 1516   2.461   0.495   0.721
  366SOL    HW2 1517   2.553   0.471   0.736
  366SOL    HW3 1518   2.449   0.485   0.627
  366SOL    MW4 1519   2.472   0.491   0.711
  367SOL     OW 1520   2.447   0.788   0.813
  367SOL    HW2 1521   2.541   0.802   0.810
  367SOL    HW3 1522   2.435   0.698   0.783
  367SOL    MW4 1523   2.457   0.778   0.809
  368SOL     OW 1524   2.244   0.941   0.735
  368SOL    HW2 1525   2.323   0.901   0.771
  368SOL    HW3 1526   2.244   0.914   0.643
  368SOL    MW4 1527   2.255   0.932   0.727
  369SOL     OW 1528   2.209   1.192   0.833
  369SOL    HW2 1529   2.215   1.180   0.928
  369SOL    HW3 1530   2.222   1.105   0.796
  369SOL    MW4 1531   2.212   1.179   0.841
  370SOL     OW 1532   2.469   1.233   0.725
  370SOL    HW2 1533   2.382   1.223   0.764
  370SOL    HW3 1534   2.465   1.182   0.644
  370SOL    MW4 1535   2.457   1.225   0.719
  371SOL     OW 1536   2.457   1.537   0.783
  371SOL    HW2 1537   2.538   1.584   0.764
  371SOL    HW3 1538   2.472   1.449   0.750
  371SOL    MW4 1539   2.470   1.532   0.776
  372SOL     OW 1540   2.222   1.678   0.740
  372SOL    HW2 1541   2.308   1.637   0.733
  372SOL    HW3 1542   2.191   1.685   0.649
  372SOL    MW4 1543   2.229   1.673   0.727
  373SOL     OW 1544   2.253   1.932   0.832
  373SOL    HW2 1545   2.242   1.840   0.810
  373SOL    HW3 1546   2.185   1.977   0.781
  373SOL    MW4 1547   2.243   1.926   0.822
  374SOL     OW 1548   2.479   2.084   0.761
  374SOL    HW2 1549   2.414   2.017   0.784
  374SOL    HW3 1550   2.466   2.100   0.668
  374SOL    MW4 1551   2.469   2.077   0.752
  375SOL     OW 1552   2.472   2.325   0.890
  375SOL    HW2 1553   2.534   2.382   0.844
  375SOL    HW3 1554   2.480   2.240   0.845
  375SOL    MW4 1555   2.481   2.321   0.878
  376SOL     OW 1556   2.237   2.463   0.782
  376SOL    HW2 1557   2.308   2.422   0.832
  376SOL    HW3 1558   2.158   2.421   0.815
  376SOL    MW4 1559   2.236   2.452   0.793
  377SOL     OW 1560   2.210   2.737   0.834
  377SOL    HW2 1561   2.222   2.743   0.929
  377SOL    HW3 1562   2.206   2.643   0.817
  377SOL    MW4 1563   2.211   2.725   0.845
  378SOL     OW 1564   2.457   2.843   0.724
  378SOL    HW2 1565   2.523   2.811   0.786
  378SOL    HW3 1566   2.376   2.800   0.751
  378SOL    MW4 1567   2.455   2.833   0.736
  379SOL     OW 1568   2.415   3.107   0.854
  379SOL    HW2 1569   2.422   3.089   0.948
  379SOL    HW3 1570   2.428   3.022   0.812
  379SOL    MW4 1571   2.418   3.093   0.861
  380SOL     OW 1572   2.184   3.234   0.750
  380SOL    HW2 1573   2.119   3.177   0.792
  380SOL    HW3 1574   2.269   3.195   0.775
  380SOL    MW4 1575   2.187   3.221   0.759
  381SOL     OW 1576   2.211   3.502   0.834
  381SOL    HW2 1577   2.201   3.412   0.805
  381SOL    HW3 1578   2.124   3.541   0.820
  381SOL    MW4 1579   2.198   3.496   0.828
  382SOL     OW 1580   2.429   3.647   0.701
  382SOL    HW2 1581   2.512   3.604   0.723
  382SOL    HW3 1582   2.362   3.592   0.739
  382SOL    MW4 1583   2.431   3.634   0.709
  383SOL     OW 1584   2.432   3.882   0.874
  383SOL    HW2 1585   2.360   3.932   0.834
  383SOL    HW3 1586   2.427   3.797   0.831
  383SOL    MW4 1587   2.422   3.878   0.863
  384SOL     OW 1588   2.182   4.010   0.733
  384SOL    HW2 1589   2.104   3.963   0.762
  384SOL    HW3 1590   2.170   4.023   0.639
  384SOL    MW4 1591   2.170   4.006   0.725
  385SOL     OW 1592   2.240   4.268   0.859
  385SOL    HW2 1593   2.219   4.185   0.816
  385SOL    HW3 1594   2.174   4.329   0.827
  385SOL    MW4 1595   2.228   4.265   0.849
  386SOL     OW 1596   2.452   4.369   0.688
  386SOL    HW2 1597   2.534   4.323   0.704
  386SOL    HW3 1598   2.390   4.333   0.751
  386SOL    MW4 1599   2.455   4.358   0.698
  387SOL     OW 1600   2.898   0.016   0.784
  387SOL    HW2 1601   2.903  -0.072   0.747
  387SOL    HW3 1602   2.845   0.066   0.721
  387SOL    MW4 1603   2.891   0.011   0.770
  388SOL     OW 1604   2.570   4.651   0.548
  388SOL    HW2 1605   2.637   4.719   0.557
  388SOL    HW3 1606   2.559   4.617   0.637
  388SOL    MW4 1607   2.578   4.655   0.561
  389SOL     OW 1608   2.717   0.369   0.820
  389SOL    HW2 1609   2.725   0.355   0.915
  389SOL    HW3 1610   2.789   0.428   0.799
  389SOL    MW4 1611   2.728   0.375   0.830
  390SOL     OW 1612   2.944   0.493   0.755
  390SOL    HW2 1613   3.012   0.430   0.780
  390SOL    HW3 1614   2.923   0.471   0.664
  390SOL    MW4 1615   2.950   0.482   0.746
  391SOL     OW 1616   3.027   0.743   0.789
  391SOL    HW2 1617   2.987   0.766   0.872
  391SOL    HW3 1618   3.003   0.651   0.776
  391SOL    MW4 1619   3.018   0.734   0.798
  392SOL     OW 1620   2.697   0.892   0.775
  392SOL    HW2 1621   2.778   0.842   0.785
  392SOL    HW3 1622   2.696   0.917   0.683
  392SOL    MW4 1623   2.708   0.888   0.764
  393SOL     OW 1624   2.672   1.140   0.895
  393SOL    HW2 1625   2.673   1.048   0.868
  393SOL    HW3 1626   2.624   1.185   0.825
  393SOL    MW4 1627   2.666   1.134   0.882
  394SOL     OW 1628   2.878   1.253   0.770
  394SOL    HW2 1629   2.956   1.218   0.813
  394SOL    HW3 1630   2.805   1.215   0.818
  394SOL    MW4 1631   2.879   1.244   0.782
  395SOL     OW 1632   2.915   1.540   0.825
  395SOL    HW2 1633   2.998   1.572   0.789
  395SOL    HW3 1634   2.908   1.450   0.793
  395SOL    MW4 1635   2.925   1.532   0.816
  396SOL     OW 1636   2.689   1.686   0.734
  396SOL    HW2 1637   2.690   1.766   0.787
  396SOL    HW3 1638   2.768   1.640   0.762
  396SOL    MW4 1639   2.700   1.691   0.745
  397SOL     OW 1640   2.713   1.950   0.814
  397SOL    HW2 1641   2.719   1.955   0.910
  397SOL    HW3 1642   2.631   1.994   0.793
  397SOL    MW4 1643   2.703   1.957   0.824
  398SOL     OW 1644   2.881   2.099   0.640
  398SOL    HW2 1645   2.882   2.176   0.697
  398SOL    HW3 1646   2.836   2.032   0.692
  398SOL    MW4 1647   2.875   2.101   0.654
  399SOL     OW 1648   2.867   2.342   0.774
  399SOL    HW2 1649   2.886   2.331   0.867
  399SOL    HW3 1650   2.781   2.382   0.771
  399SOL    MW4 1651   2.858   2.346   0.786
  400SOL     OW 1652   2.645   2.503   0.751
  400SOL    HW2 1653   2.644   2.522   0.657
  400SOL    HW3 1654   2.667   2.587   0.792
  400SOL    MW4 1655   2.648   2.517   0.744
  401SOL     OW 1656   2.681   2.757   0.873
  401SOL    HW2 1657   2.688   2.742   0.968
  401SOL    HW3 1658   2.769   2.782   0.847
  401SOL    MW4 1659   2.693   2.758   0.882
  402SOL     OW 1660   2.824   2.912   0.566
  402SOL    HW2 1661   2.758   2.859   0.522
  402SOL    HW3 1662   2.786   3.000   0.570
  402SOL    MW4 1663   2.810   2.916   0.561
  403SOL     OW 1664   2.923   3.126   0.930
  403SOL    HW2 1665   2.829   3.139   0.913
  403SOL    HW3 1666   2.945   3.044   0.886
  403SOL    MW4 1667   2.913   3.117   0.922
  404SOL     OW 1668   2.677   3.209   0.850
  404SOL    HW2 1669   2.654   3.301   0.836
  404SOL    HW3 1670   2.593   3.163   0.845
  404SOL    MW4 1671   2.663   3.215   0.847
  405SOL     OW 1672   2.624   3.480   0.817
  405SOL    HW2 1673   2.633   3.484   0.913
  405SOL    HW3 1674   2.711   3.505   0.784
  405SOL    MW4 1675   2.637   3.484   0.826
  406SOL     OW 1676   2.870   3.568   0.766
  406SOL    HW2 1677   2.876   3.655   0.807
  406SOL    HW3 1678   2.901   3.582   0.676
  406SOL    MW4 1679   2.875   3.582   0.759
  407SOL     OW 1680   2.910   3.843   0.846
  407SOL    HW2 1681   2.920   3.838   0.941
  407SOL    HW3 1682   2.828   3.892   0.833
  407SOL    MW4 1683   2.900   3.849   0.857
  408SOL     OW 1684   2.675   3.993   0.773
  408SOL    HW2 1685   2.594   3.951   0.803
  408SOL    HW3 1686   2.688   3.959   0.685
  408SOL    MW4 1687   2.666   3.983   0.765
  409SOL     OW 1688   2.684   4.256   0.803
  409SOL    HW2 1689   2.672   4.267   0.897
  409SOL    HW3 1690   2.688   4.161   0.790
  409SOL    MW4 1691   2.683   4.245   0.813
  410SOL     OW 1692   2.881   4.401   0.691
  410SOL    HW2 1693   2.958   4.348   0.714
  410SOL    HW3 1694   2.807   4.353   0.729
  410SOL    MW4 1695   2.881   4.388   0.699
  411SOL     OW 1696   3.337   4.582   0.848
  411SOL    HW2 1697   3.323   4.596   0.942
  411SOL    HW3 1698   3.282   4.648   0.806
  411SOL    MW4 1699   3.328   4.593   0.855
  412SOL     OW 1700   3.168   0.093   0.725
  412SOL    HW2 1701   3.168   0.184   0.752
  412SOL    HW3 1702   3.078   0.063   0.739
  412SOL    MW4 1703   3.156   0.101   0.730
  413SOL     OW 1704   3.186   0.370   0.822
  413SOL    HW2 1705   3.196   0.389   0.915
  413SOL    HW3 1706   3.251   0.425   0.779
  413SOL    MW4 1707   3.196   0.380   0.829
  414SOL     OW 1708   3.367   0.532   0.691
  414SOL    HW2 1709   3.440   0.477   0.721
  414SOL    HW3 1710   3.376   0.532   0.596
  414SOL    MW4 1711   3.378   0.525   0.682
  415SOL     OW 1712   3.313   0.775   0.817
  415SOL    HW2 1713   3.219   0.779   0.804
  415SOL    HW3 1714   3.340   0.693   0.776
  415SOL    MW4 1715   3.304   0.765   0.810
  416SOL     OW 1716   3.115   0.940   0.605
  416SOL    HW2 1717   3.123   1.008   0.671
  416SOL    HW3 1718   3.057   0.875   0.644
  416SOL    MW4 1719   3.109   0.940   0.619
  417SOL     OW 1720   3.160   1.147   0.809
  417SOL    HW2 1721   3.183   1.147   0.902
  417SOL    HW3 1722   3.231   1.194   0.766
  417SOL    MW4 1723   3.172   1.153   0.815
  418SOL     OW 1724   3.399   1.287   0.731
  418SOL    HW2 1725   3.478   1.235   0.749
  418SOL    HW3 1726   3.411   1.366   0.784
  418SOL    MW4 1727   3.411   1.291   0.740
  419SOL     OW 1728   3.409   1.537   0.839
  419SOL    HW2 1729   3.421   1.526   0.934
  419SOL    HW3 1730   3.470   1.606   0.815
  419SOL    MW4 1731   3.418   1.544   0.849
  420SOL     OW 1732   3.166   1.631   0.746
  420SOL    HW2 1733   3.256   1.604   0.765
  420SOL    HW3 1734   3.166   1.653   0.653
  420SOL    MW4 1735   3.178   1.630   0.736
  421SOL     OW 1736   3.235   1.884   0.825
  421SOL    HW2 1737   3.183   1.897   0.904
  421SOL    HW3 1738   3.208   1.798   0.792
  421SOL    MW4 1739   3.224   1.875   0.831
  422SOL     OW 1740   3.459   2.047   0.797
  422SOL    HW2 1741   3.445   2.131   0.841
  422SOL    HW3 1742   3.379   1.997   0.813
  422SOL    MW4 1743   3.446   2.051   0.805
  423SOL     OW 1744   3.453   2.299   0.888
  423SOL    HW2 1745   3.421   2.323   0.975
  423SOL    HW3 1746   3.513   2.370   0.865
  423SOL    MW4 1747   3.457   2.312   0.896
  424SOL     OW 1748   3.085   2.522   0.680
  424SOL    HW2 1749   3.154   2.456   0.673
  424SOL    HW3 1750   3.006   2.472   0.705
  424SOL    MW4 1751   3.083   2.506   0.683
  425SOL     OW 1752   3.160   2.733   0.883
  425SOL    HW2 1753   3.126   2.656   0.837
  425SOL    HW3 1754   3.225   2.770   0.823
  425SOL    MW4 1755   3.164   2.728   0.869
  426SOL     OW 1756   3.291   2.890   0.651
  426SOL    HW2 1757   3.232   2.923   0.584
  426SOL    HW3 1758   3.360   2.845   0.602
  426SOL    MW4 1759   3.292   2.888   0.636
  427SOL     OW 1760   3.339   3.087   0.843
  427SOL    HW2 1761   3.362   3.058   0.932
  427SOL    HW3 1762   3.326   3.005   0.795
  427SOL    MW4 1763   3.340   3.072   0.849
  428SOL     OW 1764   3.111   3.249   0.779
  428SOL    HW2 1765   3.182   3.186   0.782
  428SOL    HW3 1766   3.039   3.207   0.827
  428SOL    MW4 1767   3.111   3.235   0.786
  429SOL     OW 1768   3.108   3.487   0.905
  429SOL    HW2 1769   3.118   3.398   0.872
  429SOL    HW3 1770   3.024   3.517   0.871
  429SOL    MW4 1771   3.099   3.479   0.896
  430SOL     OW 1772   3.347   3.577   0.784
  430SOL    HW2 1773   3.332   3.672   0.779
  430SOL    HW3 1774   3.267   3.543   0.825
  430SOL    MW4 1775   3.334   3.585   0.789
  431SOL     OW 1776   3.323   3.858   0.838
  431SOL    HW2 1777   3.337   3.859   0.933
  431SOL    HW3 1778   3.394   3.910   0.802
  431SOL    MW4 1779   3.334   3.865   0.846
  432SOL     OW 1780   3.105   3.970   0.691
  432SOL    HW2 1781   3.187   3.949   0.734
  432SOL    HW3 1782   3.039   3.919   0.738
  432SOL    MW4 1783   3.107   3.961   0.703
  433SOL     OW 1784   3.088   4.239   0.793
  433SOL    HW2 1785   3.180   4.264   0.780
  433SOL    HW3 1786   3.079   4.157   0.744
  433SOL    MW4 1787   3.099   4.231   0.785
  434SOL     OW 1788   3.322   4.355   0.714
  434SOL    HW2 1789   3.319   4.437   0.762
  434SOL    HW3 1790   3.355   4.378   0.627
  434SOL    MW4 1791   3.326   4.369   0.709
  435SOL     OW 1792   3.789   4.664   0.843
  435SOL    HW2 1793   3.860   4.709   0.798
  435SOL    HW3 1794   3.711   4.716   0.822
  435SOL    MW4 1795   3.788   4.677   0.834
  436SOL     OW 1796   3.541   0.107   0.757
  436SOL    HW2 1797   3.484   0.040   0.795
  436SOL    HW3 1798   3.558   0.076   0.668
  436SOL    MW4 1799   3.535   0.094   0.751
  437SOL     OW 1800   3.606   0.375   0.790
  437SOL    HW2 1801   3.585   0.379   0.883
  437SOL    HW3 1802   3.577   0.288   0.762
  437SOL    MW4 1803   3.600   0.364   0.799
  438SOL     OW 1804   3.818   0.560   0.772
  438SOL    HW2 1805   3.789   0.646   0.804
  438SOL    HW3 1806   3.747   0.500   0.795
  438SOL    MW4 1807   3.805   0.564   0.779
  439SOL     OW 1808   3.748   0.811   0.846
  439SOL    HW2 1809   3.746   0.812   0.942
  439SOL    HW3 1810   3.834   0.847   0.823
  439SOL    MW4 1811   3.759   0.816   0.856
  440SOL     OW 1812   3.487   0.950   0.674
  440SOL    HW2 1813   3.565   0.895   0.680
  440SOL    HW3 1814   3.423   0.906   0.729
  440SOL    MW4 1815   3.489   0.937   0.682
  441SOL     OW 1816   3.632   1.139   0.834
  441SOL    HW2 1817   3.608   1.131   0.926
  441SOL    HW3 1818   3.594   1.061   0.793
  441SOL    MW4 1819   3.623   1.127   0.841
  442SOL     OW 1820   3.853   1.303   0.756
  442SOL    HW2 1821   3.777   1.249   0.777
  442SOL    HW3 1822   3.850   1.312   0.661
  442SOL    MW4 1823   3.843   1.297   0.746
  443SOL     OW 1824   3.825   1.567   0.846
  443SOL    HW2 1825   3.901   1.618   0.818
  443SOL    HW3 1826   3.841   1.479   0.812
  443SOL    MW4 1827   3.837   1.562   0.838
  444SOL     OW 1828   3.601   1.722   0.771
  444SOL    HW2 1829   3.630   1.795   0.825
  444SOL    HW3 1830   3.671   1.657   0.779
  444SOL    MW4 1831   3.614   1.723   0.779
  445SOL     OW 1832   3.682   1.946   0.922
  445SOL    HW2 1833   3.747   1.999   0.876
  445SOL    HW3 1834   3.598   1.978   0.889
  445SOL    MW4 1835   3.679   1.958   0.911
  446SOL     OW 1836   3.874   2.062   0.730
  446SOL    HW2 1837   3.960   2.031   0.760
  446SOL    HW3 1838   3.888   2.086   0.639
  446SOL    MW4 1839   3.887   2.061   0.722
  447SOL     OW 1840   3.861   2.319   0.857
  447SOL    HW2 1841   3.844   2.301   0.949
  447SOL    HW3 1842   3.860   2.233   0.815
  447SOL    MW4 1843   3.859   2.305   0.863
  448SOL     OW 1844   3.653   2.494   0.812
  448SOL    HW2 1845   3.659   2.583   0.848
  448SOL    HW3 1846   3.733   2.451   0.840
  448SOL    MW4 1847   3.664   2.500   0.820
  449SOL     OW 1848   3.678   2.783   0.867
  449SOL    HW2 1849   3.668   2.776   0.962
  449SOL    HW3 1850   3.728   2.864   0.854
  449SOL    MW4 1851   3.683   2.793   0.878
  450SOL     OW 1852   3.872   2.781   0.643
  450SOL    HW2 1853   3.784   2.745   0.630
  450SOL    HW3 1854   3.907   2.788   0.554
  450SOL    MW4 1855   3.865   2.778   0.630
  451SOL     OW 1856   3.794   3.037   0.872
  451SOL    HW2 1857   3.869   3.090   0.844
  451SOL    HW3 1858   3.718   3.084   0.839
  451SOL    MW4 1859   3.794   3.050   0.864
  452SOL     OW 1860   3.573   3.179   0.746
  452SOL    HW2 1861   3.490   3.137   0.767
  452SOL    HW3 1862   3.574   3.183   0.650
  452SOL    MW4 1863   3.562   3.174   0.736
  453SOL     OW 1864   3.579   3.445   0.856
  453SOL    HW2 1865   3.562   3.354   0.830
  453SOL    HW3 1866   3.499   3.492   0.831
  453SOL    MW4 1867   3.566   3.439   0.849
  454SOL     OW 1868   3.804   3.595   0.867
  454SOL    HW2 1869   3.887   3.548   0.860
  454SOL    HW3 1870   3.738   3.527   0.856
  454SOL    MW4 1871   3.806   3.580   0.865
  455SOL     OW 1872   3.767   3.863   0.852
  455SOL    HW2 1873   3.693   3.888   0.796
  455SOL    HW3 1874   3.762   3.767   0.857
  455SOL    MW4 1875   3.757   3.853   0.845
  456SOL     OW 1876   3.541   3.979   0.723
  456SOL    HW2 1877   3.536   4.069   0.755
  456SOL    HW3 1878   3.558   3.987   0.629
  456SOL    MW4 1879   3.543   3.992   0.715
  457SOL     OW 1880   3.562   4.248   0.838
  457SOL    HW2 1881   3.646   4.294   0.833
  457SOL    HW3 1882   3.498   4.311   0.807
  457SOL    MW4 1883   3.565   4.262   0.834
  458SOL     OW 1884   3.796   4.400   0.844
  458SOL    HW2 1885   3.880   4.359   0.864
  458SOL    HW3 1886   3.815   4.494   0.840
  458SOL    MW4 1887   3.809   4.407   0.846
  459SOL     OW 1888   4.247   4.661   0.823
  459SOL    HW2 1889   4.249   4.656   0.918
  459SOL    HW3 1890   4.167   4.710   0.803
  459SOL    MW4 1891   4.237   4.667   0.833
  460SOL     OW 1892   4.013   0.145   0.742
  460SOL    HW2 1893   4.015   0.213   0.810
  460SOL    HW3 1894   3.999   0.193   0.661
  460SOL    MW4 1895   4.011   0.160   0.741
  461SOL     OW 1896   4.035   0.398   0.857
  461SOL    HW2 1897   4.111   0.432   0.811
  461SOL    HW3 1898   3.961   0.444   0.818
  461SOL    MW4 1899   4.035   0.409   0.846
  462SOL     OW 1900   4.271   0.496   0.726
  462SOL    HW2 1901   4.339   0.464   0.784
  462SOL    HW3 1902   4.316   0.516   0.644
  462SOL    MW4 1903   4.286   0.495   0.723
  463SOL     OW 1904   4.224   0.763   0.865
  463SOL    HW2 1905   4.141   0.804   0.840
  463SOL    HW3 1906   4.212   0.670   0.845
  463SOL    MW4 1907   4.212   0.756   0.859
  464SOL     OW 1908   4.002   0.895   0.770
  464SOL    HW2 1909   4.023   0.985   0.794
  464SOL    HW3 1910   4.008   0.894   0.674
  464SOL    MW4 1911   4.005   0.906   0.761
  465SOL     OW 1912   4.075   1.158   0.831
  465SOL    HW2 1913   4.059   1.140   0.924
  465SOL    HW3 1914   3.997   1.205   0.802
  465SOL    MW4 1915   4.062   1.162   0.839
  466SOL     OW 1916   4.292   1.285   0.730
  466SOL    HW2 1917   4.209   1.241   0.751
  466SOL    HW3 1918   4.359   1.225   0.763
  466SOL    MW4 1919   4.290   1.271   0.737
  467SOL     OW 1920   4.257   1.537   0.853
  467SOL    HW2 1921   4.280   1.530   0.946
  467SOL    HW3 1922   4.271   1.448   0.819
  467SOL    MW4 1923   4.262   1.524   0.861
  468SOL     OW 1924   4.068   1.716   0.797
  468SOL    HW2 1925   4.130   1.645   0.813
  468SOL    HW3 1926   4.076   1.734   0.703
  468SOL    MW4 1927   4.078   1.709   0.787
  469SOL     OW 1928   4.123   1.978   0.870
  469SOL    HW2 1929   4.204   2.016   0.836
  469SOL    HW3 1930   4.129   1.885   0.849
  469SOL    MW4 1931   4.135   1.971   0.863
  470SOL     OW 1932   4.278   2.049   0.661
  470SOL    HW2 1933   4.349   1.993   0.693
  470SOL    HW3 1934   4.311   2.085   0.578
  470SOL    MW4 1935   4.292   2.046   0.654
  471SOL     OW 1936   4.348   2.298   0.800
  471SOL    HW2 1937   4.260   2.337   0.808
  471SOL    HW3 1938   4.332   2.210   0.768
  471SOL    MW4 1939   4.334   2.292   0.797
  472SOL     OW 1940   4.108   2.438   0.802
  472SOL    HW2 1941   4.093   2.531   0.818
  472SOL    HW3 1942   4.028   2.395   0.831
  472SOL    MW4 1943   4.096   2.445   0.808
  473SOL     OW 1944   4.076   2.702   0.819
  473SOL    HW2 1945   4.153   2.754   0.797
  473SOL    HW3 1946   4.011   2.728   0.754
  473SOL    MW4 1947   4.078   2.712   0.808
  474SOL     OW 1948   4.311   2.835   0.768
  474SOL    HW2 1949   4.395   2.810   0.805
  474SOL    HW3 1950   4.323   2.825   0.673
  474SOL    MW4 1951   4.323   2.830   0.760
  475SOL     OW 1952   4.304   3.112   0.838
  475SOL    HW2 1953   4.317   3.025   0.803
  475SOL    HW3 1954   4.355   3.169   0.780
  475SOL    MW4 1955   4.313   3.108   0.826
  476SOL     OW 1956   4.012   3.164   0.760
  476SOL    HW2 1957   4.015   3.256   0.786
  476SOL    HW3 1958   4.099   3.130   0.782
  476SOL    MW4 1959   4.024   3.172   0.767
  477SOL     OW 1960   4.041   3.450   0.840
  477SOL    HW2 1961   4.056   3.464   0.934
  477SOL    HW3 1962   4.113   3.494   0.797
  477SOL    MW4 1963   4.052   3.457   0.847
  478SOL     OW 1964   4.269   3.593   0.733
  478SOL    HW2 1965   4.272   3.674   0.783
  478SOL    HW3 1966   4.266   3.620   0.642
  478SOL    MW4 1967   4.269   3.607   0.728
  479SOL     OW 1968   4.267   3.845   0.853
  479SOL    HW2 1969   4.261   3.855   0.948
  479SOL    HW3 1970   4.181   3.871   0.821
  479SOL    MW4 1971   4.255   3.850   0.861
  480SOL     OW 1972   4.020   3.974   0.780
  480SOL    HW2 1973   3.945   3.930   0.820
  480SOL    HW3 1974   3.998   3.981   0.687
  480SOL    MW4 1975   4.007   3.969   0.773
  481SOL     OW 1976   4.035   4.236   0.843
  481SOL    HW2 1977   4.100   4.293   0.802
  481SOL    HW3 1978   4.047   4.151   0.802
  481SOL    MW4 1979   4.045   4.232   0.832
  482SOL     OW 1980   4.216   4.402   0.699
  482SOL    HW2 1981   4.224   4.493   0.727
  482SOL    HW3 1982   4.305   4.366   0.710
  482SOL    MW4 1983   4.229   4.409   0.704
  483SOL     OW 1984   0.211   0.018   1.182
  483SOL    HW2 1985   0.295   0.049   1.216
  483SOL    HW3 1986   0.226   0.007   1.088
  483SOL    MW4 1987   0.224   0.021   1.174
  484SOL     OW 1988   4.461   0.140   1.251
  484SOL    HW2 1989   4.389   0.091   1.211
  484SOL    HW3 1990   4.539   0.087   1.233
  484SOL    MW4 1991   4.462   0.127   1.243
  485SOL     OW 1992   4.465   0.391   1.121
  485SOL    HW2 1993   4.387   0.429   1.161
  485SOL    HW3 1994   4.469   0.302   1.156
  485SOL    MW4 1995   4.456   0.384   1.131
  486SOL     OW 1996   0.187   0.514   1.246
  486SOL    HW2 1997   0.196   0.590   1.189
  486SOL    HW3 1998   0.118   0.461   1.206
  486SOL    MW4 1999   0.179   0.517   1.233
  487SOL     OW 2000   0.217   0.752   1.111
  487SOL    HW2 2001   0.301   0.781   1.146
  487SOL    HW3 2002   0.151   0.800   1.161
  487SOL    MW4 2003   0.219   0.762   1.122
  488SOL     OW 2004   4.483   0.912   1.241
  488SOL    HW2 2005   4.486   0.895   1.335
  488SOL    HW3 2006   4.412   0.856   1.208
  488SOL    MW4 2007   4.474   0.903   1.249
  489SOL     OW 2008   4.453   1.161   1.124
  489SOL    HW2 2009   4.372   1.196   1.160
  489SOL    HW3 2010   4.466   1.077   1.168
  489SOL    MW4 2011   4.444   1.155   1.134
  490SOL     OW 2012   0.199   1.262   1.230
  490SOL    HW2 2013   0.259   1.202   1.185
  490SOL    HW3 2014   0.112   1.236   1.199
  490SOL    MW4 2015   0.195   1.250   1.220
  491SOL     OW 2016   0.238   1.516   1.129
  491SOL    HW2 2017   0.254   1.426   1.159
  491SOL    HW3 2018   0.225   1.508   1.034
  491SOL    MW4 2019   0.239   1.503   1.120
  492SOL     OW 2020   0.023   1.663   1.235
  492SOL    HW2 2021   0.033   1.746   1.188
  492SOL    HW3 2022   0.098   1.611   1.208
  492SOL    MW4 2023   0.034   1.667   1.225
  493SOL     OW 2024   0.007   1.911   1.121
  493SOL    HW2 2025  -0.064   1.963   1.159
  493SOL    HW3 2026   0.001   1.928   1.027
  493SOL    MW4 2027  -0.003   1.920   1.113
  494SOL     OW 2028   0.198   2.064   1.249
  494SOL    HW2 2029   0.202   2.136   1.187
  494SOL    HW3 2030   0.140   1.999   1.208
  494SOL    MW4 2031   0.191   2.065   1.236
  495SOL     OW 2032   0.230   2.289   1.070
  495SOL    HW2 2033   0.314   2.335   1.076
  495SOL    HW3 2034   0.166   2.353   1.098
  495SOL    MW4 2035   0.233   2.303   1.074
  496SOL     OW 2036   0.033   2.432   1.194
  496SOL    HW2 2037   0.029   2.425   1.289
  496SOL    HW3 2038  -0.034   2.371   1.162
  496SOL    MW4 2039   0.023   2.423   1.202
  497SOL     OW 2040   0.033   2.718   1.111
  497SOL    HW2 2041  -0.033   2.745   1.174
  497SOL    HW3 2042   0.014   2.625   1.094
  497SOL    MW4 2043   0.022   2.709   1.117
  498SOL     OW 2044   0.246   2.855   1.221
  498SOL    HW2 2045   0.226   2.841   1.314
  498SOL    HW3 2046   0.178   2.807   1.174
  498SOL    MW4 2047   0.234   2.847   1.227
  499SOL     OW 2048   0.205   3.090   1.077
  499SOL    HW2 2049   0.276   3.148   1.104
  499SOL    HW3 2050   0.216   3.012   1.130
  499SOL    MW4 2051   0.216   3.088   1.087
  500SOL     OW 2052   4.484   3.233   1.210
  500SOL    HW2 2053   4.417   3.169   1.188
  500SOL    HW3 2054   4.563   3.200   1.167
  500SOL    MW4 2055   4.485   3.220   1.201
  501SOL     OW 2056   4.449   3.500   1.107
  501SOL    HW2 2057   4.461   3.416   1.150
  501SOL    HW3 2058   4.465   3.482   1.014
  501SOL    MW4 2059   4.453   3.487   1.100
  502SOL     OW 2060   0.185   3.647   1.191
  502SOL    HW2 2061   0.189   3.635   1.285
  502SOL    HW3 2062   0.105   3.602   1.164
  502SOL    MW4 2063   0.175   3.639   1.200
  503SOL     OW 2064   0.212   3.915   1.098
  503SOL    HW2 2065   0.141   3.952   1.152
  503SOL    HW3 2066   0.204   3.821   1.110
  503SOL    MW4 2067   0.202   3.908   1.107
  504SOL     OW 2068   4.465   4.002   1.203
  504SOL    HW2 2069   4.451   3.996   1.297
  504SOL    HW3 2070   4.393   3.953   1.164
  504SOL    MW4 2071   4.454   3.995   1.210
  505SOL     OW 2072   4.449   4.264   1.094
  505SOL    HW2 2073   4.534   4.293   1.127
  505SOL    HW3 2074   4.450   4.169   1.104
  505SOL    MW4 2075   4.460   4.255   1.100
  506SOL     OW 2076   0.149   4.414   1.236
  506SOL    HW2 2077   0.180   4.409   1.326
  506SOL    HW3 2078   0.159   4.506   1.212
  506SOL    MW4 2079   0.154   4.426   1.244
  507SOL     OW 2080   0.679   4.653   1.144
  507SOL    HW2 2081   0.751   4.687   1.198
  507SOL    HW3 2082   0.664   4.564   1.178
  507SOL    MW4 2083   0.687   4.645   1.156
  508SOL     OW 2084   0.472   0.120   1.268
  508SOL    HW2 2085   0.458   0.206   1.228
  508SOL    HW3 2086   0.548   0.084   1.222
  508SOL    MW4 2087   0.480   0.127   1.257
  509SOL     OW 2088   0.416   0.379   1.166
  509SOL    HW2 2089   0.330   0.408   1.196
  509SOL    HW3 2090   0.411   0.386   1.070
  509SOL    MW4 2091   0.404   0.384   1.157
  510SOL     OW 2092   0.653   0.489   1.248
  510SOL    HW2 2093   0.652   0.576   1.209
  510SOL    HW3 2094   0.569   0.450   1.224
  510SOL    MW4 2095   0.642   0.495   1.240
  511SOL     OW 2096   0.649   0.731   1.092
  511SOL    HW2 2097   0.578   0.791   1.116
  511SOL    HW3 2098   0.665   0.748   1.000
  511SOL    MW4 2099   0.642   0.741   1.083
  512SOL     OW 2100   0.444   0.885   1.210
  512SOL    HW2 2101   0.426   0.908   1.302
  512SOL    HW3 2102   0.432   0.967   1.162
  512SOL    MW4 2103   0.440   0.899   1.216
  513SOL     OW 2104   0.422   1.138   1.117
  513SOL    HW2 2105   0.499   1.161   1.169
  513SOL    HW3 2106   0.451   1.148   1.026
  513SOL    MW4 2107   0.436   1.142   1.112
  514SOL     OW 2108   0.627   1.254   1.251
  514SOL    HW2 2109   0.705   1.199   1.250
  514SOL    HW3 2110   0.657   1.337   1.213
  514SOL    MW4 2111   0.642   1.258   1.246
  515SOL     OW 2112   0.683   1.546   1.133
  515SOL    HW2 2113   0.751   1.603   1.167
  515SOL    HW3 2114   0.602   1.597   1.142
  515SOL    MW4 2115   0.681   1.560   1.139
  516SOL     OW 2116   0.446   1.666   1.227
  516SOL    HW2 2117   0.436   1.648   1.320
  516SOL    HW3 2118   0.374   1.619   1.186
  516SOL    MW4 2119   0.436   1.657   1.234
  517SOL     OW 2120   0.430   1.935   1.141
  517SOL    HW2 2121   0.436   1.844   1.170
  517SOL    HW3 2122   0.341   1.961   1.165
  517SOL    MW4 2123   0.419   1.927   1.148
  518SOL     OW 2124   0.654   2.050   1.220
  518SOL    HW2 2125   0.645   2.055   1.315
  518SOL    HW3 2126   0.582   1.995   1.192
  518SOL    MW4 2127   0.643   2.044   1.229
  519SOL     OW 2128   0.705   2.310   1.128
  519SOL    HW2 2129   0.622   2.358   1.133
  519SOL    HW3 2130   0.686   2.226   1.169
  519SOL    MW4 2131   0.691   2.305   1.134
  520SOL     OW 2132   0.445   2.424   1.176
  520SOL    HW2 2133   0.442   2.408   1.270
  520SOL    HW3 2134   0.450   2.519   1.168
  520SOL    MW4 2135   0.445   2.434   1.187
  521SOL     OW 2136   0.480   2.704   1.160
  521SOL    HW2 2137   0.401   2.752   1.186
  521SOL    HW3 2138   0.490   2.724   1.067
  521SOL    MW4 2139   0.471   2.713   1.151
  522SOL     OW 2140   0.695   2.884   1.211
  522SOL    HW2 2141   0.680   2.970   1.173
  522SOL    HW3 2142   0.618   2.833   1.187
  522SOL    MW4 2143   0.683   2.888   1.203
  523SOL     OW 2144   0.668   3.126   1.086
  523SOL    HW2 2145   0.755   3.145   1.121
  523SOL    HW3 2146   0.682   3.120   0.991
  523SOL    MW4 2147   0.682   3.128   1.078
  524SOL     OW 2148   0.418   3.264   1.170
  524SOL    HW2 2149   0.426   3.356   1.147
  524SOL    HW3 2150   0.497   3.223   1.133
  524SOL    MW4 2151   0.430   3.271   1.162
  525SOL     OW 2152   0.433   3.540   1.104
  525SOL    HW2 2153   0.517   3.578   1.132
  525SOL    HW3 2154   0.367   3.597   1.143
  525SOL    MW4 2155   0.436   3.553   1.113
  526SOL     OW 2156   0.667   3.673   1.183
  526SOL    HW2 2157   0.675   3.678   1.278
  526SOL    HW3 2158   0.665   3.764   1.154
  526SOL    MW4 2159   0.668   3.685   1.191
  527SOL     OW 2160   0.679   3.933   1.096
  527SOL    HW2 2161   0.602   3.972   1.139
  527SOL    HW3 2162   0.656   3.933   1.003
  527SOL    MW4 2163   0.666   3.938   1.089
  528SOL     OW 2164   0.446   4.056   1.204
  528SOL    HW2 2165   0.437   4.151   1.208
  528SOL    HW3 2166   0.368   4.026   1.158
  528SOL    MW4 2167   0.435   4.065   1.198
  529SOL     OW 2168   0.391   4.312   1.119
  529SOL    HW2 2169   0.464   4.354   1.164
  529SOL    HW3 2170   0.313   4.348   1.160
  529SOL    MW4 2171   0.390   4.322   1.130
  530SOL     OW 2172   0.642   4.394   1.226
  530SOL    HW2 2173   0.640   4.387   1.322
  530SOL    HW3 2174   0.730   4.365   1.202
  530SOL    MW4 2175   0.653   4.389   1.236
  531SOL     OW 2176   1.100   0.038   1.170
  531SOL    HW2 2177   1.102  -0.057   1.185
  531SOL    HW3 2178   1.121   0.048   1.077
  531SOL    MW4 2179   1.103   0.026   1.160
  532SOL     OW 2180   0.878   0.144   1.263
  532SOL    HW2 2181   0.886   0.120   1.355
  532SOL    HW3 2182   0.956   0.108   1.221
  532SOL    MW4 2183   0.889   0.136   1.269
  533SOL     OW 2184   0.885   0.375   1.123
  533SOL    HW2 2185   0.870   0.292   1.170
  533SOL    HW3 2186   0.815   0.433   1.153
  533SOL    MW4 2187   0.874   0.371   1.133
  534SOL     OW 2188   1.147   0.473   1.226
  534SOL    HW2 2189   1.135   0.481   1.321
  534SOL    HW3 2190   1.061   0.444   1.194
  534SOL    MW4 2191   1.134   0.471   1.234
  535SOL     OW 2192   1.133   0.756   1.103
  535SOL    HW2 2193   1.049   0.787   1.137
  535SOL    HW3 2194   1.143   0.669   1.140
  535SOL    MW4 2195   1.123   0.749   1.112
  536SOL     OW 2196   0.882   0.829   1.186
  536SOL    HW2 2197   0.869   0.924   1.179
  536SOL    HW3 2198   0.807   0.792   1.138
  536SOL    MW4 2199   0.870   0.837   1.178
  537SOL     OW 2200   0.868   1.109   1.163
  537SOL    HW2 2201   0.937   1.170   1.188
  537SOL    HW3 2202   0.864   1.115   1.068
  537SOL    MW4 2203   0.877   1.118   1.154
  538SOL     OW 2204   1.074   1.273   1.266
  538SOL    HW2 2205   1.087   1.288   1.360
  538SOL    HW3 2206   1.158   1.236   1.237
  538SOL    MW4 2207   1.087   1.270   1.275
  539SOL     OW 2208   1.105   1.529   1.175
  539SOL    HW2 2209   1.072   1.443   1.203
  539SOL    HW3 2210   1.128   1.516   1.083
  539SOL    MW4 2211   1.103   1.516   1.167
  540SOL     OW 2212   0.891   1.686   1.230
  540SOL    HW2 2213   0.902   1.764   1.176
  540SOL    HW3 2214   0.972   1.636   1.217
  540SOL    MW4 2215   0.903   1.689   1.221
  541SOL     OW 2216   0.890   1.940   1.125
  541SOL    HW2 2217   0.961   1.984   1.172
  541SOL    HW3 2218   0.812   1.990   1.148
  541SOL    MW4 2219   0.889   1.952   1.134
  542SOL     OW 2220   1.105   2.060   1.251
  542SOL    HW2 2221   1.109   2.053   1.347
  542SOL    HW3 2222   1.130   2.150   1.232
  542SOL    MW4 2223   1.109   2.071   1.261
  543SOL     OW 2224   1.148   2.327   1.170
  543SOL    HW2 2225   1.219   2.382   1.202
  543SOL    HW3 2226   1.069   2.377   1.189
  543SOL    MW4 2227   1.147   2.341   1.177
  544SOL     OW 2228   0.897   2.483   1.234
  544SOL    HW2 2229   0.888   2.481   1.330
  544SOL    HW3 2230   0.833   2.418   1.203
  544SOL    MW4 2231   0.887   2.474   1.243
  545SOL     OW 2232   0.901   2.719   1.115
  545SOL    HW2 2233   0.881   2.636   1.158
  545SOL    HW3 2234   0.830   2.777   1.142
  545SOL    MW4 2235   0.889   2.715   1.124
  546SOL     OW 2236   1.113   2.823   1.254
  546SOL    HW2 2237   1.102   2.809   1.348
  546SOL    HW3 2238   1.034   2.787   1.215
  546SOL    MW4 2239   1.101   2.817   1.261
  547SOL     OW 2240   1.148   3.075   1.116
  547SOL    HW2 2241   1.147   2.994   1.167
  547SOL    HW3 2242   1.126   3.048   1.027
  547SOL    MW4 2243   1.145   3.061   1.111
  548SOL     OW 2244   0.892   3.209   1.232
  548SOL    HW2 2245   0.895   3.300   1.202
  548SOL    HW3 2246   0.979   3.175   1.212
  548SOL    MW4 2247   0.903   3.216   1.225
  549SOL     OW 2248   0.840   3.441   1.110
  549SOL    HW2 2249   0.773   3.507   1.128
  549SOL    HW3 2250   0.859   3.451   1.017
  549SOL    MW4 2251   0.833   3.451   1.100
  550SOL     OW 2252   1.069   3.593   1.191
  550SOL    HW2 2253   1.147   3.551   1.155
  550SOL    HW3 2254   0.995   3.545   1.154
  550SOL    MW4 2255   1.070   3.581   1.181
  551SOL     OW 2256   1.139   3.847   1.111
  551SOL    HW2 2257   1.062   3.889   1.150
  551SOL    HW3 2258   1.125   3.753   1.125
  551SOL    MW4 2259   1.127   3.840   1.118
  552SOL     OW 2260   0.929   4.014   1.205
  552SOL    HW2 2261   0.915   4.029   1.299
  552SOL    HW3 2262   0.843   3.985   1.173
  552SOL    MW4 2263   0.916   4.012   1.213
  553SOL     OW 2264   0.895   4.308   1.161
  553SOL    HW2 2265   0.905   4.215   1.179
  553SOL    HW3 2266   0.897   4.314   1.065
  553SOL    MW4 2267   0.897   4.296   1.150
  554SOL     OW 2268   1.118   4.442   1.232
  554SOL    HW2 2269   1.120   4.427   1.327
  554SOL    HW3 2270   1.034   4.405   1.205
  554SOL    MW4 2271   1.107   4.435   1.241
  555SOL     OW 2272   1.616   4.615   1.115
  555SOL    HW2 2273   1.665   4.670   1.176
  555SOL    HW3 2274   1.581   4.544   1.169
  555SOL    MW4 2275   1.618   4.613   1.130
  556SOL     OW 2276   1.385   0.123   1.204
  556SOL    HW2 2277   1.443   0.059   1.164
  556SOL    HW3 2278   1.297   0.088   1.190
  556SOL    MW4 2279   1.381   0.110   1.197
  557SOL     OW 2280   1.397   0.406   1.127
  557SOL    HW2 2281   1.402   0.316   1.157
  557SOL    HW3 2282   1.318   0.441   1.168
  557SOL    MW4 2283   1.387   0.399   1.136
  558SOL     OW 2284   1.636   0.516   1.209
  558SOL    HW2 2285   1.622   0.598   1.162
  558SOL    HW3 2286   1.556   0.465   1.193
  558SOL    MW4 2287   1.623   0.520   1.201
  559SOL     OW 2288   1.566   0.748   1.099
  559SOL    HW2 2289   1.652   0.787   1.118
  559SOL    HW3 2290   1.564   0.740   1.004
  559SOL    MW4 2291   1.577   0.752   1.089
  560SOL     OW 2292   1.335   0.878   1.254
  560SOL    HW2 2293   1.407   0.837   1.207
  560SOL    HW3 2294   1.256   0.837   1.219
  560SOL    MW4 2295   1.334   0.867   1.243
  561SOL     OW 2296   1.322   1.156   1.173
  561SOL    HW2 2297   1.308   1.062   1.186
  561SOL    HW3 2298   1.314   1.169   1.079
  561SOL    MW4 2299   1.319   1.146   1.163
  562SOL     OW 2300   1.558   1.317   1.215
  562SOL    HW2 2301   1.618   1.261   1.166
  562SOL    HW3 2302   1.475   1.269   1.215
  562SOL    MW4 2303   1.555   1.303   1.208
  563SOL     OW 2304   1.546   1.555   1.082
  563SOL    HW2 2305   1.619   1.607   1.116
  563SOL    HW3 2306   1.566   1.465   1.107
  563SOL    MW4 2307   1.558   1.550   1.090
  564SOL     OW 2308   1.342   1.671   1.230
  564SOL    HW2 2309   1.416   1.624   1.192
  564SOL    HW3 2310   1.269   1.609   1.223
  564SOL    MW4 2311   1.342   1.656   1.224
  565SOL     OW 2312   1.299   1.926   1.107
  565SOL    HW2 2313   1.320   1.839   1.141
  565SOL    HW3 2314   1.232   1.960   1.166
  565SOL    MW4 2315   1.293   1.919   1.119
  566SOL     OW 2316   1.535   2.058   1.195
  566SOL    HW2 2317   1.552   2.151   1.181
  566SOL    HW3 2318   1.457   2.040   1.143
  566SOL    MW4 2319   1.527   2.068   1.186
  567SOL     OW 2320   1.561   2.332   1.144
  567SOL    HW2 2321   1.489   2.385   1.177
  567SOL    HW3 2322   1.554   2.339   1.048
  567SOL    MW4 2323   1.550   2.340   1.136
  568SOL     OW 2324   1.370   2.480   1.251
  568SOL    HW2 2325   1.339   2.478   1.342
  568SOL    HW3 2326   1.347   2.568   1.221
  568SOL    MW4 2327   1.363   2.491   1.259
  569SOL     OW 2328   1.331   2.726   1.136
  569SOL    HW2 2329   1.409   2.764   1.175
  569SOL    HW3 2330   1.258   2.762   1.186
  569SOL    MW4 2331   1.332   2.735   1.148
  570SOL     OW 2332   1.567   2.853   1.207
  570SOL    HW2 2333   1.642   2.801   1.179
  570SOL    HW3 2334   1.563   2.926   1.146
  570SOL    MW4 2335   1.576   2.855   1.196
  571SOL     OW 2336   1.552   3.106   1.073
  571SOL    HW2 2337   1.638   3.131   1.106
  571SOL    HW3 2338   1.491   3.160   1.123
  571SOL    MW4 2339   1.555   3.116   1.084
  572SOL     OW 2340   1.342   3.225   1.220
  572SOL    HW2 2341   1.328   3.226   1.315
  572SOL    HW3 2342   1.273   3.168   1.186
  572SOL    MW4 2343   1.331   3.217   1.228
  573SOL     OW 2344   1.301   3.477   1.116
  573SOL    HW2 2345   1.318   3.386   1.140
  573SOL    HW3 2346   1.312   3.479   1.021
  573SOL    MW4 2347   1.305   3.465   1.106
  574SOL     OW 2348   1.518   3.583   1.234
  574SOL    HW2 2349   1.529   3.676   1.217
  574SOL    HW3 2350   1.425   3.566   1.221
  574SOL    MW4 2351   1.507   3.593   1.230
  575SOL     OW 2352   1.530   3.846   1.181
  575SOL    HW2 2353   1.462   3.902   1.219
  575SOL    HW3 2354   1.529   3.867   1.088
  575SOL    MW4 2355   1.521   3.857   1.174
  576SOL     OW 2356   1.319   4.010   1.262
  576SOL    HW2 2357   1.321   4.090   1.211
  576SOL    HW3 2358   1.253   3.955   1.220
  576SOL    MW4 2359   1.311   4.013   1.250
  577SOL     OW 2360   1.293   4.247   1.127
  577SOL    HW2 2361   1.230   4.316   1.147
  577SOL    HW3 2362   1.323   4.268   1.038
  577SOL    MW4 2363   1.289   4.259   1.118
  578SOL     OW 2364   1.490   4.408   1.242
  578SOL    HW2 2365   1.496   4.392   1.336
  578SOL    HW3 2366   1.425   4.345   1.211
  578SOL    MW4 2367   1.482   4.398   1.251
  579SOL     OW 2368   1.995   4.646   1.162
  579SOL    HW2 2369   2.009   4.556   1.191
  579SOL    HW3 2370   1.983   4.640   1.068
  579SOL    MW4 2371   1.995   4.633   1.154
  580SOL     OW 2372   1.801   0.128   1.265
  580SOL    HW2 2373   1.823   0.211   1.222
  580SOL    HW3 2374   1.866   0.066   1.232
  580SOL    MW4 2375   1.812   0.131   1.255
  581SOL     OW 2376   1.840   0.370   1.125
  581SOL    HW2 2377   1.772   0.435   1.144
  581SOL    HW3 2378   1.836   0.358   1.030
  581SOL    MW4 2379   1.831   0.377   1.115
  582SOL     OW 2380   2.030   0.548   1.212
  582SOL    HW2 2381   2.035   0.548   1.307
  582SOL    HW3 2382   1.966   0.480   1.190
  582SOL    MW4 2383   2.022   0.539   1.221
  583SOL     OW 2384   2.031   0.802   1.099
  583SOL    HW2 2385   2.036   0.709   1.122
  583SOL    HW3 2386   2.031   0.803   1.003
  583SOL    MW4 2387   2.032   0.790   1.089
  584SOL     OW 2388   1.788   0.896   1.186
  584SOL    HW2 2389   1.793   0.917   1.280
  584SOL    HW3 2390   1.878   0.874   1.162
  584SOL    MW4 2391   1.801   0.896   1.196
  585SOL     OW 2392   1.777   1.185   1.126
  585SOL    HW2 2393   1.774   1.092   1.148
  585SOL    HW3 2394   1.787   1.186   1.031
  585SOL    MW4 2395   1.778   1.173   1.116
  586SOL     OW 2396   1.986   1.307   1.244
  586SOL    HW2 2397   2.062   1.258   1.214
  586SOL    HW3 2398   1.911   1.261   1.206
  586SOL    MW4 2399   1.986   1.294   1.235
  587SOL     OW 2400   2.005   1.582   1.147
  587SOL    HW2 2401   2.012   1.493   1.182
  587SOL    HW3 2402   2.010   1.570   1.052
  587SOL    MW4 2403   2.007   1.569   1.139
  588SOL     OW 2404   1.757   1.680   1.223
  588SOL    HW2 2405   1.764   1.770   1.190
  588SOL    HW3 2406   1.834   1.636   1.188
  588SOL    MW4 2407   1.768   1.686   1.214
  589SOL     OW 2408   1.787   1.950   1.117
  589SOL    HW2 2409   1.696   1.978   1.119
  589SOL    HW3 2410   1.810   1.949   1.024
  589SOL    MW4 2411   1.778   1.953   1.105
  590SOL     OW 2412   2.043   2.082   1.201
  590SOL    HW2 2413   2.044   2.069   1.296
  590SOL    HW3 2414   1.958   2.051   1.173
  590SOL    MW4 2415   2.032   2.076   1.210
  591SOL     OW 2416   2.010   2.357   1.153
  591SOL    HW2 2417   2.096   2.395   1.172
  591SOL    HW3 2418   2.018   2.265   1.176
  591SOL    MW4 2419   2.022   2.350   1.158
  592SOL     OW 2420   1.782   2.453   1.261
  592SOL    HW2 2421   1.867   2.416   1.241
  592SOL    HW3 2422   1.720   2.400   1.211
  592SOL    MW4 2423   1.785   2.441   1.252
  593SOL     OW 2424   1.803   2.700   1.121
  593SOL    HW2 2425   1.798   2.614   1.163
  593SOL    HW3 2426   1.792   2.681   1.028
  593SOL    MW4 2427   1.800   2.686   1.114
  594SOL     OW 2428   2.044   2.790   1.242
  594SOL    HW2 2429   2.036   2.876   1.201
  594SOL    HW3 2430   1.969   2.741   1.208
  594SOL    MW4 2431   2.033   2.795   1.232
  595SOL     OW 2432   2.015   3.060   1.137
  595SOL    HW2 2433   1.931   3.089   1.172
  595SOL    HW3 2434   2.002   3.055   1.042
  595SOL    MW4 2435   2.003   3.063   1.129
  596SOL     OW 2436   1.784   3.185   1.216
  596SOL    HW2 2437   1.776   3.191   1.311
  596SOL    HW3 2438   1.773   3.274   1.185
  596SOL    MW4 2439   1.781   3.197   1.224
  597SOL     OW 2440   1.743   3.469   1.156
  597SOL    HW2 2441   1.801   3.545   1.167
  597SOL    HW3 2442   1.655   3.504   1.171
  597SOL    MW4 2443   1.739   3.484   1.159
  598SOL     OW 2444   1.981   3.648   1.213
  598SOL    HW2 2445   1.994   3.643   1.308
  598SOL    HW3 2446   2.056   3.602   1.175
  598SOL    MW4 2447   1.993   3.641   1.220
  599SOL     OW 2448   2.005   3.915   1.123
  599SOL    HW2 2449   1.929   3.966   1.150
  599SOL    HW3 2450   1.989   3.828   1.159
  599SOL    MW4 2451   1.993   3.910   1.131
  600SOL     OW 2452   1.758   4.001   1.214
  600SOL    HW2 2453   1.771   4.011   1.308
  600SOL    HW3 2454   1.680   3.947   1.207
  600SOL    MW4 2455   1.749   3.995   1.226
  601SOL     OW 2456   1.737   4.276   1.155
  601SOL    HW2 2457   1.733   4.182   1.169
  601SOL    HW3 2458   1.652   4.308   1.186
  601SOL    MW4 2459   1.725   4.268   1.161
  602SOL     OW 2460   1.993   4.383   1.218
  602SOL    HW2 2461   1.975   4.385   1.312
  602SOL    HW3 2462   1.912   4.351   1.179
  602SOL    MW4 2463   1.980   4.379   1.226
  603SOL     OW 2464   2.496   4.663   1.121
  603SOL    HW2 2465   2.569   4.719   1.146
  603SOL    HW3 2466   2.419   4.708   1.153
  603SOL    MW4 2467   2.496   4.676   1.129
  604SOL     OW 2468   2.239   0.077   1.207
  604SOL    HW2 2469   2.240   0.170   1.186
  604SOL    HW3 2470   2.150   0.049   1.186
  604SOL    MW4 2471   2.227   0.086   1.202
  605SOL     OW 2472   2.241   0.357   1.146
  605SOL    HW2 2473   2.171   0.420   1.163
  605SOL    HW3 2474   2.245   0.351   1.051
  605SOL    MW4 2475   2.233   0.365   1.136
  606SOL     OW 2476   2.475   0.503   1.219
  606SOL    HW2 2477   2.482   0.521   1.312
  606SOL    HW3 2478   2.401   0.444   1.211
  606SOL    MW4 2479   2.466   0.498   1.230
  607SOL     OW 2480   2.452   0.763   1.100
  607SOL    HW2 2481   2.455   0.670   1.122
  607SOL    HW3 2482   2.431   0.765   1.006
  607SOL    MW4 2483   2.450   0.751   1.090
  608SOL     OW 2484   2.249   0.920   1.204
  608SOL    HW2 2485   2.324   0.870   1.172
  608SOL    HW3 2486   2.173   0.872   1.171
  608SOL    MW4 2487   2.249   0.907   1.195
  609SOL     OW 2488   2.209   1.195   1.116
  609SOL    HW2 2489   2.296   1.231   1.134
  609SOL    HW3 2490   2.213   1.105   1.148
  609SOL    MW4 2491   2.221   1.188   1.123
  610SOL     OW 2492   2.454   1.319   1.200
  610SOL    HW2 2493   2.533   1.271   1.178
  610SOL    HW3 2494   2.470   1.408   1.169
  610SOL    MW4 2495   2.466   1.325   1.193
  611SOL     OW 2496   2.472   1.553   1.063
  611SOL    HW2 2497   2.388   1.593   1.084
  611SOL    HW3 2498   2.470   1.540   0.968
  611SOL    MW4 2499   2.461   1.557   1.053
  612SOL     OW 2500   2.263   1.679   1.202
  612SOL    HW2 2501   2.263   1.765   1.160
  612SOL    HW3 2502   2.172   1.650   1.197
  612SOL    MW4 2503   2.251   1.686   1.195
  613SOL     OW 2504   2.267   1.946   1.113
  613SOL    HW2 2505   2.186   1.995   1.132
  613SOL    HW3 2506   2.265   1.934   1.018
  613SOL    MW4 2507   2.256   1.951   1.103
  614SOL     OW 2508   2.474   2.090   1.224
  614SOL    HW2 2509   2.549   2.048   1.182
  614SOL    HW3 2510   2.399   2.037   1.199
  614SOL    MW4 2511   2.474   2.078   1.215
  615SOL     OW 2512   2.477   2.338   1.149
  615SOL    HW2 2513   2.489   2.250   1.184
  615SOL    HW3 2514   2.453   2.326   1.058
  615SOL    MW4 2515   2.476   2.325   1.142
  616SOL     OW 2516   2.264   2.485   1.229
  616SOL    HW2 2517   2.258   2.483   1.324
  616SOL    HW3 2518   2.338   2.428   1.208
  616SOL    MW4 2519   2.273   2.477   1.239
  617SOL     OW 2520   2.274   2.753   1.107
  617SOL    HW2 2521   2.281   2.658   1.104
  617SOL    HW3 2522   2.193   2.770   1.155
  617SOL    MW4 2523   2.264   2.743   1.113
  618SOL     OW 2524   2.514   2.841   1.234
  618SOL    HW2 2525   2.509   2.832   1.329
  618SOL    HW3 2526   2.437   2.795   1.201
  618SOL    MW4 2527   2.503   2.834   1.242
  619SOL     OW 2528   2.436   3.099   1.138
  619SOL    HW2 2529   2.359   3.147   1.168
  619SOL    HW3 2530   2.437   3.020   1.192
  619SOL    MW4 2531   2.426   3.095   1.149
  620SOL     OW 2532   2.214   3.232   1.219
  620SOL    HW2 2533   2.199   3.310   1.166
  620SOL    HW3 2534   2.149   3.168   1.188
  620SOL    MW4 2535   2.203   3.234   1.208
  621SOL     OW 2536   2.200   3.493   1.113
  621SOL    HW2 2537   2.285   3.527   1.140
  621SOL    HW3 2538   2.204   3.490   1.017
  621SOL    MW4 2539   2.212   3.497   1.104
  622SOL     OW 2540   2.452   3.617   1.188
  622SOL    HW2 2541   2.463   3.590   1.280
  622SOL    HW3 2542   2.453   3.712   1.191
  622SOL    MW4 2543   2.454   3.626   1.201
  623SOL     OW 2544   2.475   3.889   1.149
  623SOL    HW2 2545   2.392   3.921   1.182
  623SOL    HW3 2546   2.459   3.873   1.056
  623SOL    MW4 2547   2.462   3.891   1.141
  624SOL     OW 2548   2.235   4.023   1.231
  624SOL    HW2 2549   2.240   4.114   1.200
  624SOL    HW3 2550   2.155   3.989   1.192
  624SOL    MW4 2551   2.225   4.031   1.222
  625SOL     OW 2552   2.243   4.279   1.138
  625SOL    HW2 2553   2.160   4.314   1.170
  625SOL    HW3 2554   2.237   4.286   1.042
  625SOL    MW4 2555   2.231   4.284   1.129
  626SOL     OW 2556   2.463   4.400   1.245
  626SOL    HW2 2557   2.406   4.336   1.202
  626SOL    HW3 2558   2.448   4.482   1.196
  626SOL    MW4 2559   2.454   4.402   1.233
  627SOL     OW 2560   2.955   4.637   1.098
  627SOL    HW2 2561   2.925   4.554   1.135
  627SOL    HW3 2562   2.937   4.630   1.004
  627SOL    MW4 2563   2.949   4.625   1.090
  628SOL     OW 2564   2.720   0.119   1.208
  628SOL    HW2 2565   2.746   0.124   1.300
  628SOL    HW3 2566   2.794   0.077   1.164
  628SOL    MW4 2567   2.733   0.114   1.214
  629SOL     OW 2568   2.698   0.379   1.103
  629SOL    HW2 2569   2.703   0.292   1.143
  629SOL    HW3 2570   2.607   0.405   1.115
  629SOL    MW4 2571   2.687   0.371   1.110
  630SOL     OW 2572   2.915   0.544   1.171
  630SOL    HW2 2573   2.916   0.622   1.116
  630SOL    HW3 2574   2.838   0.495   1.141
  630SOL    MW4 2575   2.905   0.548   1.159
  631SOL     OW 2576   2.912   0.784   1.037
  631SOL    HW2 2577   2.983   0.827   1.084
  631SOL    HW3 2578   2.833   0.809   1.085
  631SOL    MW4 2579   2.911   0.793   1.049
  632SOL     OW 2580   2.696   0.888   1.188
  632SOL    HW2 2581   2.673   0.981   1.185
  632SOL    HW3 2582   2.613   0.842   1.174
  632SOL    MW4 2583   2.682   0.894   1.186
  633SOL     OW 2584   2.692   1.173   1.169
  633SOL    HW2 2585   2.777   1.205   1.199
  633SOL    HW3 2586   2.702   1.160   1.075
  633SOL    MW4 2587   2.704   1.175   1.160
  634SOL     OW 2588   2.950   1.287   1.212
  634SOL    HW2 2589   2.955   1.310   1.305
  634SOL    HW3 2590   2.945   1.371   1.166
  634SOL    MW4 2591   2.950   1.301   1.218
  635SOL     OW 2592   2.916   1.549   1.115
  635SOL    HW2 2593   2.992   1.590   1.156
  635SOL    HW3 2594   2.931   1.559   1.021
  635SOL    MW4 2595   2.928   1.555   1.108
  636SOL     OW 2596   2.680   1.690   1.193
  636SOL    HW2 2597   2.756   1.635   1.175
  636SOL    HW3 2598   2.611   1.655   1.136
  636SOL    MW4 2599   2.681   1.678   1.183
  637SOL     OW 2600   2.685   1.949   1.116
  637SOL    HW2 2601   2.767   1.985   1.148
  637SOL    HW3 2602   2.688   1.856   1.139
  637SOL    MW4 2603   2.696   1.941   1.124
  638SOL     OW 2604   2.914   2.079   1.198
  638SOL    HW2 2605   2.939   2.106   1.286
  638SOL    HW3 2606   2.910   2.160   1.148
  638SOL    MW4 2607   2.917   2.093   1.203
  639SOL     OW 2608   2.910   2.321   1.066
  639SOL    HW2 2609   2.987   2.359   1.108
  639SOL    HW3 2610   2.836   2.358   1.113
  639SOL    MW4 2611   2.910   2.331   1.078
  640SOL     OW 2612   2.711   2.460   1.210
  640SOL    HW2 2613   2.720   2.464   1.305
  640SOL    HW3 2614   2.628   2.415   1.195
  640SOL    MW4 2615   2.701   2.454   1.220
  641SOL     OW 2616   2.751   2.725   1.132
  641SOL    HW2 2617   2.733   2.632   1.148
  641SOL    HW3 2618   2.672   2.770   1.161
  641SOL    MW4 2619   2.738   2.718   1.138
  642SOL     OW 2620   2.962   2.855   1.265
  642SOL    HW2 2621   2.955   2.838   1.359
  642SOL    HW3 2622   2.894   2.800   1.225
  642SOL    MW4 2623   2.953   2.845   1.272
  643SOL     OW 2624   2.850   3.104   1.194
  643SOL    HW2 2625   2.875   3.013   1.212
  643SOL    HW3 2626   2.875   3.118   1.103
  643SOL    MW4 2627   2.857   3.094   1.184
  644SOL     OW 2628   2.628   3.250   1.252
  644SOL    HW2 2629   2.707   3.198   1.238
  644SOL    HW3 2630   2.558   3.199   1.211
  644SOL    MW4 2631   2.629   3.236   1.245
  645SOL     OW 2632   2.666   3.464   1.089
  645SOL    HW2 2633   2.664   3.379   1.133
  645SOL    HW3 2634   2.589   3.510   1.122
  645SOL    MW4 2635   2.656   3.459   1.099
  646SOL     OW 2636   2.872   3.580   1.249
  646SOL    HW2 2637   2.954   3.533   1.230
  646SOL    HW3 2638   2.807   3.538   1.193
  646SOL    MW4 2639   2.875   3.568   1.239
  647SOL     OW 2640   2.896   3.843   1.118
  647SOL    HW2 2641   2.977   3.878   1.155
  647SOL    HW3 2642   2.890   3.754   1.151
  647SOL    MW4 2643   2.906   3.836   1.127
  648SOL     OW 2644   2.704   4.033   1.197
  648SOL    HW2 2645   2.767   3.965   1.174
  648SOL    HW3 2646   2.620   3.997   1.169
  648SOL    MW4 2647   2.701   4.019   1.190
  649SOL     OW 2648   2.671   4.307   1.085
  649SOL    HW2 2649   2.679   4.215   1.112
  649SOL    HW3 2650   2.610   4.345   1.148
  649SOL    MW4 2651   2.664   4.300   1.097
  650SOL     OW 2652   2.877   4.395   1.213
  650SOL    HW2 2653   2.947   4.343   1.173
  650SOL    HW3 2654   2.798   4.369   1.165
  650SOL    MW4 2655   2.876   4.384   1.201
  651SOL     OW 2656   3.330   4.658   1.115
  651SOL    HW2 2657   3.408   4.698   1.153
  651SOL    HW3 2658   3.262   4.724   1.124
  651SOL    MW4 2659   3.331   4.672   1.121
  652SOL     OW 2660   3.127   0.170   1.174
  652SOL    HW2 2661   3.136   0.164   1.269
  652SOL    HW3 2662   3.072   0.095   1.151
  652SOL    MW4 2663   3.121   0.159   1.184
  653SOL     OW 2664   3.170   0.435   1.127
  653SOL    HW2 2665   3.141   0.345   1.143
  653SOL    HW3 2666   3.092   0.488   1.141
  653SOL    MW4 2667   3.156   0.430   1.131
  654SOL     OW 2668   3.394   0.555   1.222
  654SOL    HW2 2669   3.386   0.644   1.190
  654SOL    HW3 2670   3.312   0.512   1.195
  654SOL    MW4 2671   3.382   0.561   1.214
  655SOL     OW 2672   3.362   0.796   1.086
  655SOL    HW2 2673   3.274   0.816   1.118
  655SOL    HW3 2674   3.352   0.790   0.991
  655SOL    MW4 2675   3.349   0.798   1.077
  656SOL     OW 2676   3.119   0.870   1.209
  656SOL    HW2 2677   3.143   0.864   1.301
  656SOL    HW3 2678   3.134   0.962   1.186
  656SOL    MW4 2679   3.124   0.882   1.218
  657SOL     OW 2680   3.166   1.140   1.149
  657SOL    HW2 2681   3.244   1.192   1.163
  657SOL    HW3 2682   3.093   1.200   1.166
  657SOL    MW4 2683   3.167   1.155   1.153
  658SOL     OW 2684   3.388   1.293   1.220
  658SOL    HW2 2685   3.387   1.306   1.315
  658SOL    HW3 2686   3.374   1.381   1.184
  658SOL    MW4 2687   3.386   1.306   1.228
  659SOL     OW 2688   3.369   1.544   1.125
  659SOL    HW2 2689   3.443   1.599   1.152
  659SOL    HW3 2690   3.292   1.593   1.151
  659SOL    MW4 2691   3.369   1.558   1.132
  660SOL     OW 2692   3.142   1.683   1.204
  660SOL    HW2 2693   3.132   1.716   1.293
  660SOL    HW3 2694   3.123   1.759   1.148
  660SOL    MW4 2695   3.138   1.698   1.208
  661SOL     OW 2696   3.110   1.930   1.080
  661SOL    HW2 2697   3.187   1.971   1.119
  661SOL    HW3 2698   3.037   1.984   1.110
  661SOL    MW4 2699   3.111   1.943   1.089
  662SOL     OW 2700   3.340   2.045   1.212
  662SOL    HW2 2701   3.430   2.015   1.199
  662SOL    HW3 2702   3.340   2.135   1.180
  662SOL    MW4 2703   3.352   2.053   1.206
  663SOL     OW 2704   3.333   2.309   1.140
  663SOL    HW2 2705   3.404   2.358   1.183
  663SOL    HW3 2706   3.255   2.332   1.190
  663SOL    MW4 2707   3.332   2.319   1.152
  664SOL     OW 2708   3.114   2.460   1.235
  664SOL    HW2 2709   3.126   2.461   1.330
  664SOL    HW3 2710   3.156   2.540   1.204
  664SOL    MW4 2711   3.121   2.471   1.244
  665SOL     OW 2712   3.183   2.724   1.166
  665SOL    HW2 2713   3.101   2.766   1.191
  665SOL    HW3 2714   3.186   2.731   1.071
  665SOL    MW4 2715   3.172   2.730   1.157
  666SOL     OW 2716   3.411   2.822   1.271
  666SOL    HW2 2717   3.395   2.911   1.239
  666SOL    HW3 2718   3.329   2.775   1.255
  666SOL    MW4 2719   3.398   2.827   1.265
  667SOL     OW 2720   3.356   3.075   1.122
  667SOL    HW2 2721   3.437   3.112   1.157
  667SOL    HW3 2722   3.287   3.129   1.159
  667SOL    MW4 2723   3.358   3.087   1.132
  668SOL     OW 2724   3.116   3.213   1.243
  668SOL    HW2 2725   3.112   3.307   1.224
  668SOL    HW3 2726   3.026   3.182   1.228
  668SOL    MW4 2727   3.103   3.221   1.239
  669SOL     OW 2728   3.107   3.474   1.182
  669SOL    HW2 2729   3.195   3.512   1.181
  669SOL    HW3 2730   3.086   3.459   1.090
  669SOL    MW4 2731   3.116   3.477   1.170
  670SOL     OW 2732   3.339   3.609   1.200
  670SOL    HW2 2733   3.342   3.628   1.294
  670SOL    HW3 2734   3.417   3.557   1.183
  670SOL    MW4 2735   3.350   3.605   1.210
  671SOL     OW 2736   3.382   3.875   1.108
  671SOL    HW2 2737   3.300   3.907   1.144
  671SOL    HW3 2738   3.384   3.782   1.132
  671SOL    MW4 2739   3.371   3.867   1.116
  672SOL     OW 2740   3.134   3.971   1.190
  672SOL    HW2 2741   3.133   3.981   1.285
  672SOL    HW3 2742   3.117   4.059   1.156
  672SOL    MW4 2743   3.131   3.984   1.198
  673SOL     OW 2744   3.096   4.238   1.096
  673SOL    HW2 2745   3.165   4.303   1.108
  673SOL    HW3 2746   3.101   4.215   1.003
  673SOL    MW4 2747   3.106   4.244   1.085
  674SOL     OW 2748   3.337   4.374   1.161
  674SOL    HW2 2749   3.425   4.342   1.145
  674SOL    HW3 2750   3.341   4.467   1.139
  674SOL    MW4 2751   3.349   4.382   1.156
  675SOL     OW 2752   3.797   4.650   1.138
  675SOL    HW2 2753   3.799   4.557   1.160
  675SOL    HW3 2754   3.805   4.652   1.042
  675SOL    MW4 2755   3.798   4.638   1.128
  676SOL     OW 2756   3.560   0.104   1.192
  676SOL    HW2 2757   3.565   0.175   1.128
  676SOL    HW3 2758   3.642   0.056   1.181
  676SOL    MW4 2759   3.571   0.107   1.182
  677SOL     OW 2760   3.560   0.361   1.063
  677SOL    HW2 2761   3.634   0.376   1.122
  677SOL    HW3 2762   3.498   0.431   1.083
  677SOL    MW4 2763   3.561   0.372   1.074
  678SOL     OW 2764   3.751   0.476   1.233
  678SOL    HW2 2765   3.841   0.467   1.200
  678SOL    HW3 2766   3.729   0.568   1.218
  678SOL    MW4 2767   3.760   0.487   1.227
  679SOL     OW 2768   3.747   0.734   1.143
  679SOL    HW2 2769   3.824   0.778   1.178
  679SOL    HW3 2770   3.672   0.784   1.177
  679SOL    MW4 2771   3.747   0.746   1.152
  680SOL     OW 2772   3.581   0.926   1.208
  680SOL    HW2 2773   3.599   1.008   1.163
  680SOL    HW3 2774   3.496   0.897   1.174
  680SOL    MW4 2775   3.572   0.933   1.198
  681SOL     OW 2776   3.608   1.180   1.104
  681SOL    HW2 2777   3.674   1.223   1.158
  681SOL    HW3 2778   3.525   1.199   1.148
  681SOL    MW4 2779   3.605   1.188   1.117
  682SOL     OW 2780   3.813   1.295   1.248
  682SOL    HW2 2781   3.815   1.321   1.341
  682SOL    HW3 2782   3.811   1.378   1.200
  682SOL    MW4 2783   3.813   1.310   1.254
  683SOL     OW 2784   3.830   1.546   1.123
  683SOL    HW2 2785   3.899   1.608   1.148
  683SOL    HW3 2786   3.833   1.545   1.027
  683SOL    MW4 2787   3.840   1.554   1.113
  684SOL     OW 2788   3.602   1.687   1.210
  684SOL    HW2 2789   3.621   1.780   1.208
  684SOL    HW3 2790   3.683   1.645   1.181
  684SOL    MW4 2791   3.615   1.693   1.206
  685SOL     OW 2792   3.608   1.964   1.204
  685SOL    HW2 2793   3.681   2.018   1.234
  685SOL    HW3 2794   3.628   1.946   1.112
  685SOL    MW4 2795   3.620   1.969   1.196
  686SOL     OW 2796   3.839   2.080   1.275
  686SOL    HW2 2797   3.860   2.067   1.368
  686SOL    HW3 2798   3.896   2.018   1.230
  686SOL    MW4 2799   3.849   2.070   1.282
  687SOL     OW 2800   3.821   2.330   1.132
  687SOL    HW2 2801   3.894   2.385   1.160
  687SOL    HW3 2802   3.838   2.245   1.174
  687SOL    MW4 2803   3.833   2.326   1.141
  688SOL     OW 2804   3.570   2.423   1.227
  688SOL    HW2 2805   3.586   2.428   1.321
  688SOL    HW3 2806   3.649   2.382   1.191
  688SOL    MW4 2807   3.583   2.418   1.235
  689SOL     OW 2808   3.626   2.699   1.143
  689SOL    HW2 2809   3.614   2.608   1.168
  689SOL    HW3 2810   3.555   2.746   1.186
  689SOL    MW4 2811   3.615   2.693   1.152
  690SOL     OW 2812   3.863   2.864   1.243
  690SOL    HW2 2813   3.859   2.871   1.339
  690SOL    HW3 2814   3.795   2.800   1.222
  690SOL    MW4 2815   3.853   2.857   1.253
  691SOL     OW 2816   3.789   3.103   1.151
  691SOL    HW2 2817   3.823   3.023   1.191
  691SOL    HW3 2818   3.768   3.077   1.061
  691SOL    MW4 2819   3.791   3.089   1.144
  692SOL     OW 2820   3.569   3.216   1.239
  692SOL    HW2 2821   3.549   3.299   1.195
  692SOL    HW3 2822   3.648   3.185   1.195
  692SOL    MW4 2823   3.577   3.223   1.227
  693SOL     OW 2824   3.573   3.485   1.129
  693SOL    HW2 2825   3.653   3.527   1.162
  693SOL    HW3 2826   3.589   3.474   1.035
  693SOL    MW4 2827   3.586   3.489   1.121
  694SOL     OW 2828   3.791   3.606   1.227
  694SOL    HW2 2829   3.802   3.594   1.321
  694SOL    HW3 2830   3.815   3.698   1.212
  694SOL    MW4 2831   3.796   3.617   1.237
  695SOL     OW 2832   3.816   3.878   1.136
  695SOL    HW2 2833   3.739   3.922   1.171
  695SOL    HW3 2834   3.806   3.883   1.041
  695SOL    MW4 2835   3.805   3.884   1.128
  696SOL     OW 2836   3.591   4.000   1.232
  696SOL    HW2 2837   3.579   3.973   1.323
  696SOL    HW3 2838   3.518   3.959   1.185
  696SOL    MW4 2839   3.580   3.991   1.238
  697SOL     OW 2840   3.584   4.263   1.134
  697SOL    HW2 2841   3.593   4.178   1.177
  697SOL    HW3 2842   3.589   4.242   1.040
  697SOL    MW4 2843   3.586   4.249   1.127
  698SOL     OW 2844   3.828   4.382   1.224
  698SOL    HW2 2845   3.823   4.377   1.319
  698SOL    HW3 2846   3.751   4.333   1.193
  698SOL    MW4 2847   3.817   4.375   1.232
  699SOL     OW 2848   4.257   0.008   1.113
  699SOL    HW2 2849   4.249  -0.082   1.146
  699SOL    HW3 2850   4.182   0.054   1.149
  699SOL    MW4 2851   4.246   0.002   1.122
  700SOL     OW 2852   4.024   0.117   1.203
  700SOL    HW2 2853   4.020   0.136   1.297
  700SOL    HW3 2854   3.943   0.068   1.186
  700SOL    MW4 2855   4.013   0.113   1.213
  701SOL     OW 2856   3.999   0.401   1.126
  701SOL    HW2 2857   4.005   0.307   1.143
  701SOL    HW3 2858   4.020   0.410   1.033
  701SOL    MW4 2859   4.002   0.390   1.116
  702SOL     OW 2860   4.235   0.492   1.235
  702SOL    HW2 2861   4.224   0.481   1.329
  702SOL    HW3 2862   4.150   0.469   1.198
  702SOL    MW4 2863   4.222   0.487   1.242
  703SOL     OW 2864   4.262   0.765   1.146
  703SOL    HW2 2865   4.239   0.676   1.170
  703SOL    HW3 2866   4.259   0.766   1.050
  703SOL    MW4 2867   4.259   0.754   1.136
  704SOL     OW 2868   3.984   0.881   1.243
  704SOL    HW2 2869   3.991   0.881   1.339
  704SOL    HW3 2870   4.065   0.839   1.213
  704SOL    MW4 2871   3.995   0.875   1.252
  705SOL     OW 2872   4.001   1.143   1.113
  705SOL    HW2 2873   3.987   1.053   1.142
  705SOL    HW3 2874   3.928   1.192   1.149
  705SOL    MW4 2875   3.990   1.137   1.121
  706SOL     OW 2876   4.226   1.296   1.216
  706SOL    HW2 2877   4.219   1.279   1.310
  706SOL    HW3 2878   4.145   1.261   1.179
  706SOL    MW4 2879   4.214   1.289   1.223
  707SOL     OW 2880   4.275   1.550   1.123
  707SOL    HW2 2881   4.270   1.458   1.149
  707SOL    HW3 2882   4.362   1.578   1.153
  707SOL    MW4 2883   4.286   1.541   1.130
  708SOL     OW 2884   4.059   1.705   1.225
  708SOL    HW2 2885   4.088   1.700   1.317
  708SOL    HW3 2886   4.124   1.654   1.177
  708SOL    MW4 2887   4.071   1.698   1.231
  709SOL     OW 2888   4.050   1.962   1.141
  709SOL    HW2 2889   4.053   1.871   1.171
  709SOL    HW3 2890   4.069   1.957   1.048
  709SOL    MW4 2891   4.053   1.949   1.133
  710SOL     OW 2892   4.292   2.052   1.235
  710SOL    HW2 2893   4.301   2.139   1.195
  710SOL    HW3 2894   4.208   2.020   1.203
  710SOL    MW4 2895   4.282   2.059   1.226
  711SOL     OW 2896   4.310   2.280   1.076
  711SOL    HW2 2897   4.234   2.331   1.104
  711SOL    HW3 2898   4.319   2.298   0.983
  711SOL    MW4 2899   4.301   2.289   1.068
  712SOL     OW 2900   4.046   2.452   1.229
  712SOL    HW2 2901   4.044   2.436   1.324
  712SOL    HW3 2902   4.066   2.546   1.221
  712SOL    MW4 2903   4.048   2.463   1.241
  713SOL     OW 2904   4.077   2.723   1.120
  713SOL    HW2 2905   4.001   2.774   1.148
  713SOL    HW3 2906   4.073   2.726   1.024
  713SOL    MW4 2907   4.066   2.730   1.111
  714SOL     OW 2908   4.292   2.841   1.248
  714SOL    HW2 2909   4.303   2.923   1.199
  714SOL    HW3 2910   4.229   2.791   1.196
  714SOL    MW4 2911   4.285   2.845   1.234
  715SOL     OW 2912   4.257   3.099   1.113
  715SOL    HW2 2913   4.187   3.156   1.145
  715SOL    HW3 2914   4.260   3.114   1.019
  715SOL    MW4 2915   4.248   3.108   1.105
  716SOL     OW 2916   4.030   3.251   1.188
  716SOL    HW2 2917   4.037   3.237   1.283
  716SOL    HW3 2918   3.953   3.199   1.163
  716SOL    MW4 2919   4.021   3.242   1.198
  717SOL     OW 2920   4.035   3.519   1.101
  717SOL    HW2 2921   4.036   3.437   1.150
  717SOL    HW3 2922   3.947   3.555   1.116
  717SOL    MW4 2923   4.023   3.513   1.109
  718SOL     OW 2924   4.254   3.641   1.250
  718SOL    HW2 2925   4.182   3.587   1.217
  718SOL    HW3 2926   4.333   3.600   1.216
  718SOL    MW4 2927   4.255   3.629   1.241
  719SOL     OW 2928   4.216   3.880   1.128
  719SOL    HW2 2929   4.146   3.929   1.173
  719SOL    HW3 2930   4.212   3.793   1.167
  719SOL    MW4 2931   4.206   3.875   1.139
  720SOL     OW 2932   4.022   4.028   1.275
  720SOL    HW2 2933   4.032   4.107   1.222
  720SOL    HW3 2934   3.948   3.981   1.235
  720SOL    MW4 2935   4.014   4.032   1.263
  721SOL     OW 2936   4.040   4.263   1.128
  721SOL    HW2 2937   3.956   4.298   1.157
  721SOL    HW3 2938   4.031   4.254   1.033
  721SOL    MW4 2939   4.028   4.266   1.119
  722SOL     OW 2940   4.253   4.417   1.209
  722SOL    HW2 2941   4.175   4.367   1.186
  722SOL    HW3 2942   4.325   4.368   1.169
  722SOL    MW4 2943   4.252   4.404   1.201
  723SOL     OW 2944   0.208   4.654   1.628
  723SOL    HW2 2945   0.288   4.700   1.602
  723SOL    HW3 2946   0.137   4.710   1.598
  723SOL    MW4 2947   0.210   4.668   1.621
  724SOL     OW 2948   4.484   0.123   1.527
  724SOL    HW2 2949   4.401   0.086   1.556
  724SOL    HW3 2950   4.474   0.133   1.432
  724SOL    MW4 2951   4.471   0.120   1.518
  725SOL     OW 2952   4.471   0.386   1.601
  725SOL    HW2 2953   4.461   0.393   1.696
  725SOL    HW3 2954   4.490   0.293   1.586
  725SOL    MW4 2955   4.472   0.374   1.611
  726SOL     OW 2956   0.199   0.534   1.526
  726SOL    HW2 2957   0.123   0.482   1.552
  726SOL    HW3 2958   0.187   0.548   1.432
  726SOL    MW4 2959   0.187   0.529   1.517
  727SOL     OW 2960   0.240   0.782   1.663
  727SOL    HW2 2961   0.302   0.835   1.611
  727SOL    HW3 2962   0.223   0.705   1.609
  727SOL    MW4 2963   0.246   0.779   1.649
  728SOL     OW 2964   0.001   0.863   1.532
  728SOL    HW2 2965  -0.022   0.956   1.540
  728SOL    HW3 2966   0.075   0.851   1.591
  728SOL    MW4 2967   0.008   0.874   1.541
  729SOL     OW 2968   4.467   1.131   1.571
  729SOL    HW2 2969   4.463   1.128   1.666
  729SOL    HW3 2970   4.552   1.170   1.551
  729SOL    MW4 2971   4.478   1.136   1.581
  730SOL     OW 2972   0.226   1.236   1.509
  730SOL    HW2 2973   0.234   1.327   1.539
  730SOL    HW3 2974   0.222   1.242   1.414
  730SOL    MW4 2975   0.226   1.249   1.501
  731SOL     OW 2976   0.200   1.492   1.624
  731SOL    HW2 2977   0.218   1.497   1.718
  731SOL    HW3 2978   0.122   1.547   1.612
  731SOL    MW4 2979   0.192   1.500   1.635
  732SOL     OW 2980   4.475   1.663   1.528
  732SOL    HW2 2981   4.496   1.753   1.556
  732SOL    HW3 2982   4.494   1.663   1.434
  732SOL    MW4 2983   4.480   1.675   1.519
  733SOL     OW 2984   4.479   1.931   1.619
  733SOL    HW2 2985   4.474   1.929   1.714
  733SOL    HW3 2986   4.423   2.005   1.594
  733SOL    MW4 2987   4.471   1.941   1.628
  734SOL     OW 2988   0.230   2.088   1.536
  734SOL    HW2 2989   0.158   2.033   1.566
  734SOL    HW3 2990   0.212   2.101   1.443
  734SOL    MW4 2991   0.218   2.083   1.528
  735SOL     OW 2992   0.214   2.376   1.607
  735SOL    HW2 2993   0.219   2.386   1.702
  735SOL    HW3 2994   0.219   2.281   1.594
  735SOL    MW4 2995   0.215   2.365   1.618
  736SOL     OW 2996   0.003   2.454   1.461
  736SOL    HW2 2997  -0.068   2.425   1.518
  736SOL    HW3 2998   0.082   2.440   1.513
  736SOL    MW4 2999   0.004   2.448   1.476
  737SOL     OW 3000   4.482   2.708   1.591
  737SOL    HW2 3001   4.407   2.760   1.562
  737SOL    HW3 3002   4.473   2.624   1.548
  737SOL    MW4 3003   4.471   2.704   1.582
  738SOL     OW 3004   0.226   2.826   1.505
  738SOL    HW2 3005   0.302   2.776   1.534
  738SOL    HW3 3006   0.151   2.781   1.543
  738SOL    MW4 3007   0.226   2.814   1.514
  739SOL     OW 3008   0.242   3.095   1.596
  739SOL    HW2 3009   0.158   3.130   1.565
  739SOL    HW3 3010   0.245   3.006   1.559
  739SOL    MW4 3011   0.231   3.088   1.587
  740SOL     OW 3012   0.014   3.235   1.494
  740SOL    HW2 3013   0.018   3.324   1.528
  740SOL    HW3 3014   0.004   3.246   1.399
  740SOL    MW4 3015   0.013   3.248   1.486
  741SOL     OW 3016   0.036   3.495   1.608
  741SOL    HW2 3017   0.058   3.506   1.701
  741SOL    HW3 3018  -0.051   3.535   1.600
  741SOL    MW4 3019   0.027   3.502   1.619
  742SOL     OW 3020   0.222   3.613   1.468
  742SOL    HW2 3021   0.225   3.705   1.494
  742SOL    HW3 3022   0.158   3.574   1.527
  742SOL    MW4 3023   0.214   3.620   1.479
  743SOL     OW 3024   0.198   3.862   1.599
  743SOL    HW2 3025   0.209   3.870   1.693
  743SOL    HW3 3026   0.264   3.920   1.562
  743SOL    MW4 3027   0.208   3.870   1.606
  744SOL     OW 3028   4.481   3.987   1.479
  744SOL    HW2 3029   4.482   4.071   1.526
  744SOL    HW3 3030   4.559   3.942   1.510
  744SOL    MW4 3031   4.491   3.992   1.490
  745SOL     OW 3032   0.010   4.238   1.593
  745SOL    HW2 3033   0.002   4.246   1.688
  745SOL    HW3 3034  -0.062   4.290   1.558
  745SOL    MW4 3035  -0.000   4.246   1.601
  746SOL     OW 3036   0.232   4.400   1.508
  746SOL    HW2 3037   0.167   4.340   1.545
  746SOL    HW3 3038   0.219   4.481   1.556
  746SOL    MW4 3039   0.221   4.402   1.519
  747SOL     OW 3040   0.671   4.638   1.639
  747SOL    HW2 3041   0.743   4.689   1.603
  747SOL    HW3 3042   0.592   4.687   1.614
  747SOL    MW4 3043   0.670   4.651   1.631
  748SOL     OW 3044   0.444   0.106   1.556
  748SOL    HW2 3045   0.454   0.199   1.574
  748SOL    HW3 3046   0.442   0.100   1.460
  748SOL    MW4 3047   0.445   0.117   1.546
  749SOL     OW 3048   0.459   0.408   1.601
  749SOL    HW2 3049   0.539   0.448   1.566
  749SOL    HW3 3050   0.388   0.456   1.560
  749SOL    MW4 3051   0.460   0.419   1.591
  750SOL     OW 3052   0.710   0.526   1.508
  750SOL    HW2 3053   0.678   0.615   1.525
  750SOL    HW3 3054   0.698   0.513   1.414
  750SOL    MW4 3055   0.704   0.536   1.498
  751SOL     OW 3056   0.652   0.781   1.571
  751SOL    HW2 3057   0.679   0.766   1.662
  751SOL    HW3 3058   0.727   0.825   1.530
  751SOL    MW4 3059   0.665   0.785   1.578
  752SOL     OW 3060   0.432   0.925   1.480
  752SOL    HW2 3061   0.436   1.003   1.535
  752SOL    HW3 3062   0.511   0.875   1.503
  752SOL    MW4 3063   0.443   0.929   1.490
  753SOL     OW 3064   0.424   1.109   1.671
  753SOL    HW2 3065   0.502   1.153   1.636
  753SOL    HW3 3066   0.351   1.152   1.628
  753SOL    MW4 3067   0.425   1.120   1.661
  754SOL     OW 3068   0.645   1.259   1.535
  754SOL    HW2 3069   0.639   1.354   1.547
  754SOL    HW3 3070   0.626   1.246   1.442
  754SOL    MW4 3071   0.642   1.270   1.524
  755SOL     OW 3072   0.648   1.545   1.625
  755SOL    HW2 3073   0.719   1.572   1.568
  755SOL    HW3 3074   0.568   1.564   1.575
  755SOL    MW4 3075   0.647   1.551   1.611
  756SOL     OW 3076   0.421   1.638   1.504
  756SOL    HW2 3077   0.426   1.732   1.524
  756SOL    HW3 3078   0.336   1.611   1.539
  756SOL    MW4 3079   0.411   1.647   1.512
  757SOL     OW 3080   0.429   1.903   1.588
  757SOL    HW2 3081   0.440   1.903   1.684
  757SOL    HW3 3082   0.358   1.965   1.572
  757SOL    MW4 3083   0.421   1.911   1.599
  758SOL     OW 3084   0.653   2.071   1.511
  758SOL    HW2 3085   0.735   2.027   1.532
  758SOL    HW3 3086   0.587   2.025   1.563
  758SOL    MW4 3087   0.655   2.059   1.521
  759SOL     OW 3088   0.630   2.335   1.608
  759SOL    HW2 3089   0.551   2.370   1.569
  759SOL    HW3 3090   0.628   2.241   1.587
  759SOL    MW4 3091   0.619   2.327   1.600
  760SOL     OW 3092   0.434   2.461   1.455
  760SOL    HW2 3093   0.452   2.544   1.499
  760SOL    HW3 3094   0.350   2.433   1.491
  760SOL    MW4 3095   0.425   2.468   1.466
  761SOL     OW 3096   0.447   2.689   1.597
  761SOL    HW2 3097   0.446   2.682   1.692
  761SOL    HW3 3098   0.516   2.753   1.578
  761SOL    MW4 3099   0.456   2.696   1.607
  762SOL     OW 3100   0.671   2.849   1.523
  762SOL    HW2 3101   0.657   2.939   1.550
  762SOL    HW3 3102   0.649   2.848   1.430
  762SOL    MW4 3103   0.666   2.861   1.514
  763SOL     OW 3104   0.666   3.115   1.583
  763SOL    HW2 3105   0.746   3.150   1.543
  763SOL    HW3 3106   0.597   3.173   1.553
  763SOL    MW4 3107   0.668   3.127   1.574
  764SOL     OW 3108   0.456   3.262   1.449
  764SOL    HW2 3109   0.376   3.226   1.487
  764SOL    HW3 3110   0.443   3.254   1.354
  764SOL    MW4 3111   0.444   3.256   1.441
  765SOL     OW 3112   0.448   3.519   1.586
  765SOL    HW2 3113   0.460   3.438   1.536
  765SOL    HW3 3114   0.368   3.557   1.551
  765SOL    MW4 3115   0.439   3.513   1.575
  766SOL     OW 3116   0.667   3.640   1.464
  766SOL    HW2 3117   0.735   3.584   1.502
  766SOL    HW3 3118   0.585   3.603   1.495
  766SOL    MW4 3119   0.665   3.628   1.473
  767SOL     OW 3120   0.646   3.888   1.582
  767SOL    HW2 3121   0.720   3.930   1.538
  767SOL    HW3 3122   0.646   3.798   1.548
  767SOL    MW4 3123   0.656   3.882   1.572
  768SOL     OW 3124   0.417   4.017   1.485
  768SOL    HW2 3125   0.494   3.974   1.523
  768SOL    HW3 3126   0.442   4.035   1.394
  768SOL    MW4 3127   0.431   4.014   1.478
  769SOL     OW 3128   0.440   4.264   1.627
  769SOL    HW2 3129   0.440   4.181   1.579
  769SOL    HW3 3130   0.379   4.320   1.579
  769SOL    MW4 3131   0.432   4.261   1.614
  770SOL     OW 3132   0.662   4.392   1.508
  770SOL    HW2 3133   0.582   4.356   1.549
  770SOL    HW3 3134   0.674   4.477   1.551
  770SOL    MW4 3135   0.653   4.398   1.519
  771SOL     OW 3136   1.111   4.644   1.635
  771SOL    HW2 3137   1.117   4.668   1.727
  771SOL    HW3 3138   1.182   4.693   1.593
  771SOL    MW4 3139   1.122   4.654   1.642
  772SOL     OW 3140   0.873   0.114   1.542
  772SOL    HW2 3141   0.890   0.204   1.568
  772SOL    HW3 3142   0.940   0.063   1.588
  772SOL    MW4 3143   0.884   0.119   1.552
  773SOL     OW 3144   0.912   0.380   1.634
  773SOL    HW2 3145   0.899   0.400   1.726
  773SOL    HW3 3146   0.843   0.430   1.589
  773SOL    MW4 3147   0.901   0.389   1.640
  774SOL     OW 3148   1.128   0.531   1.512
  774SOL    HW2 3149   1.111   0.616   1.553
  774SOL    HW3 3150   1.056   0.475   1.543
  774SOL    MW4 3151   1.116   0.535   1.522
  775SOL     OW 3152   1.113   0.808   1.605
  775SOL    HW2 3153   1.111   0.796   1.700
  775SOL    HW3 3154   1.193   0.857   1.590
  775SOL    MW4 3155   1.123   0.813   1.616
  776SOL     OW 3156   0.890   0.879   1.470
  776SOL    HW2 3157   0.977   0.865   1.506
  776SOL    HW3 3158   0.894   0.840   1.382
  776SOL    MW4 3159   0.902   0.872   1.463
  777SOL     OW 3160   0.877   1.135   1.619
  777SOL    HW2 3161   0.879   1.052   1.572
  777SOL    HW3 3162   0.797   1.178   1.588
  777SOL    MW4 3163   0.866   1.129   1.609
  778SOL     OW 3164   1.112   1.318   1.532
  778SOL    HW2 3165   1.194   1.297   1.577
  778SOL    HW3 3166   1.045   1.272   1.582
  778SOL    MW4 3167   1.114   1.309   1.544
  779SOL     OW 3168   1.093   1.578   1.617
  779SOL    HW2 3169   1.164   1.623   1.571
  779SOL    HW3 3170   1.090   1.491   1.577
  779SOL    MW4 3171   1.102   1.573   1.606
  780SOL     OW 3172   0.850   1.675   1.506
  780SOL    HW2 3173   0.934   1.648   1.545
  780SOL    HW3 3174   0.868   1.680   1.412
  780SOL    MW4 3175   0.863   1.672   1.499
  781SOL     OW 3176   0.872   1.942   1.606
  781SOL    HW2 3177   0.957   1.980   1.586
  781SOL    HW3 3178   0.874   1.854   1.568
  781SOL    MW4 3179   0.883   1.935   1.598
  782SOL     OW 3180   1.118   2.072   1.526
  782SOL    HW2 3181   1.203   2.037   1.551
  782SOL    HW3 3182   1.117   2.162   1.560
  782SOL    MW4 3183   1.129   2.080   1.534
  783SOL     OW 3184   1.082   2.330   1.630
  783SOL    HW2 3185   1.149   2.385   1.590
  783SOL    HW3 3186   1.002   2.352   1.583
  783SOL    MW4 3187   1.081   2.340   1.618
  784SOL     OW 3188   0.852   2.451   1.494
  784SOL    HW2 3189   0.856   2.542   1.525
  784SOL    HW3 3190   0.773   2.415   1.536
  784SOL    MW4 3191   0.842   2.458   1.504
  785SOL     OW 3192   0.884   2.709   1.607
  785SOL    HW2 3193   0.886   2.700   1.702
  785SOL    HW3 3194   0.801   2.752   1.588
  785SOL    MW4 3195   0.873   2.714   1.617
  786SOL     OW 3196   1.114   2.819   1.519
  786SOL    HW2 3197   1.093   2.912   1.525
  786SOL    HW3 3198   1.035   2.774   1.549
  786SOL    MW4 3199   1.101   2.825   1.524
  787SOL     OW 3200   1.121   3.091   1.594
  787SOL    HW2 3201   1.136   3.095   1.689
  787SOL    HW3 3202   1.206   3.113   1.555
  787SOL    MW4 3203   1.135   3.094   1.602
  788SOL     OW 3204   0.908   3.238   1.503
  788SOL    HW2 3205   0.987   3.204   1.544
  788SOL    HW3 3206   0.914   3.208   1.412
  788SOL    MW4 3207   0.919   3.230   1.496
  789SOL     OW 3208   0.874   3.503   1.596
  789SOL    HW2 3209   0.950   3.550   1.561
  789SOL    HW3 3210   0.888   3.412   1.568
  789SOL    MW4 3211   0.886   3.497   1.588
  790SOL     OW 3212   1.107   3.629   1.468
  790SOL    HW2 3213   1.179   3.572   1.495
  790SOL    HW3 3214   1.106   3.623   1.373
  790SOL    MW4 3215   1.116   3.621   1.459
  791SOL     OW 3216   1.090   3.875   1.591
  791SOL    HW2 3217   1.177   3.914   1.576
  791SOL    HW3 3218   1.093   3.792   1.545
  791SOL    MW4 3219   1.102   3.869   1.583
  792SOL     OW 3220   0.861   4.015   1.477
  792SOL    HW2 3221   0.861   4.108   1.502
  792SOL    HW3 3222   0.935   3.978   1.524
  792SOL    MW4 3223   0.871   4.022   1.486
  793SOL     OW 3224   0.902   4.257   1.604
  793SOL    HW2 3225   0.914   4.263   1.699
  793SOL    HW3 3226   0.820   4.302   1.587
  793SOL    MW4 3227   0.893   4.264   1.614
  794SOL     OW 3228   1.128   4.387   1.500
  794SOL    HW2 3229   1.051   4.340   1.532
  794SOL    HW3 3230   1.122   4.473   1.540
  794SOL    MW4 3231   1.117   4.392   1.510
  795SOL     OW 3232   1.537   4.657   1.567
  795SOL    HW2 3233   1.540   4.656   1.663
  795SOL    HW3 3234   1.456   4.704   1.547
  795SOL    MW4 3235   1.527   4.663   1.577
  796SOL     OW 3236   1.299   0.137   1.487
  796SOL    HW2 3237   1.309   0.223   1.529
  796SOL    HW3 3238   1.308   0.156   1.393
  796SOL    MW4 3239   1.302   0.151   1.480
  797SOL     OW 3240   1.343   0.377   1.594
  797SOL    HW2 3241   1.425   0.416   1.564
  797SOL    HW3 3242   1.275   0.438   1.564
  797SOL    MW4 3243   1.345   0.390   1.586
  798SOL     OW 3244   1.567   0.519   1.488
  798SOL    HW2 3245   1.637   0.484   1.543
  798SOL    HW3 3246   1.604   0.523   1.400
  798SOL    MW4 3247   1.581   0.515   1.484
  799SOL     OW 3248   1.585   0.806   1.571
  799SOL    HW2 3249   1.573   0.795   1.665
  799SOL    HW3 3250   1.564   0.721   1.534
  799SOL    MW4 3251   1.580   0.794   1.578
  800SOL     OW 3252   1.345   0.963   1.517
  800SOL    HW2 3253   1.424   0.919   1.550
  800SOL    HW3 3254   1.347   0.948   1.423
  800SOL    MW4 3255   1.356   0.955   1.509
  801SOL     OW 3256   1.348   1.235   1.623
  801SOL    HW2 3257   1.354   1.215   1.716
  801SOL    HW3 3258   1.357   1.151   1.579
  801SOL    MW4 3259   1.350   1.222   1.629
  802SOL     OW 3260   1.559   1.376   1.488
  802SOL    HW2 3261   1.485   1.333   1.531
  802SOL    HW3 3262   1.547   1.355   1.395
  802SOL    MW4 3263   1.547   1.367   1.482
  803SOL     OW 3264   1.531   1.625   1.633
  803SOL    HW2 3265   1.524   1.611   1.727
  803SOL    HW3 3266   1.562   1.541   1.598
  803SOL    MW4 3267   1.534   1.612   1.641
  804SOL     OW 3268   1.301   1.721   1.501
  804SOL    HW2 3269   1.374   1.671   1.538
  804SOL    HW3 3270   1.308   1.708   1.406
  804SOL    MW4 3271   1.312   1.713   1.493
  805SOL     OW 3272   1.354   1.964   1.605
  805SOL    HW2 3273   1.373   1.953   1.698
  805SOL    HW3 3274   1.358   1.875   1.570
  805SOL    MW4 3275   1.357   1.951   1.612
  806SOL     OW 3276   1.574   2.073   1.486
  806SOL    HW2 3277   1.499   2.026   1.523
  806SOL    HW3 3278   1.564   2.062   1.391
  806SOL    MW4 3279   1.563   2.066   1.478
  807SOL     OW 3280   1.522   2.326   1.595
  807SOL    HW2 3281   1.607   2.370   1.593
  807SOL    HW3 3282   1.536   2.245   1.546
  807SOL    MW4 3283   1.535   2.321   1.589
  808SOL     OW 3284   1.302   2.462   1.510
  808SOL    HW2 3285   1.308   2.554   1.537
  808SOL    HW3 3286   1.375   2.419   1.554
  808SOL    MW4 3287   1.312   2.469   1.519
  809SOL     OW 3288   1.332   2.701   1.652
  809SOL    HW2 3289   1.388   2.746   1.589
  809SOL    HW3 3290   1.244   2.735   1.634
  809SOL    MW4 3291   1.328   2.712   1.641
  810SOL     OW 3292   1.521   2.831   1.500
  810SOL    HW2 3293   1.595   2.787   1.543
  810SOL    HW3 3294   1.542   2.829   1.407
  810SOL    MW4 3295   1.534   2.825   1.494
  811SOL     OW 3296   1.551   3.081   1.599
  811SOL    HW2 3297   1.631   3.125   1.570
  811SOL    HW3 3298   1.555   2.994   1.559
  811SOL    MW4 3299   1.562   3.075   1.590
  812SOL     OW 3300   1.336   3.203   1.486
  812SOL    HW2 3301   1.342   3.292   1.521
  812SOL    HW3 3302   1.410   3.157   1.524
  812SOL    MW4 3303   1.347   3.209   1.495
  813SOL     OW 3304   1.311   3.473   1.578
  813SOL    HW2 3305   1.316   3.471   1.673
  813SOL    HW3 3306   1.395   3.510   1.550
  813SOL    MW4 3307   1.323   3.478   1.587
  814SOL     OW 3308   1.541   3.568   1.498
  814SOL    HW2 3309   1.541   3.662   1.517
  814SOL    HW3 3310   1.549   3.562   1.403
  814SOL    MW4 3311   1.542   3.580   1.488
  815SOL     OW 3312   1.586   3.832   1.591
  815SOL    HW2 3313   1.596   3.848   1.685
  815SOL    HW3 3314   1.511   3.885   1.566
  815SOL    MW4 3315   1.578   3.841   1.600
  816SOL     OW 3316   1.363   3.966   1.526
  816SOL    HW2 3317   1.361   4.051   1.569
  816SOL    HW3 3318   1.333   3.983   1.437
  816SOL    MW4 3319   1.358   3.979   1.520
  817SOL     OW 3320   1.347   4.230   1.623
  817SOL    HW2 3321   1.422   4.276   1.586
  817SOL    HW3 3322   1.270   4.275   1.588
  817SOL    MW4 3323   1.347   4.242   1.614
  818SOL     OW 3324   1.531   4.384   1.510
  818SOL    HW2 3325   1.612   4.347   1.545
  818SOL    HW3 3326   1.541   4.478   1.523
  818SOL    MW4 3327   1.543   4.392   1.516
  819SOL     OW 3328   1.996   0.005   1.602
  819SOL    HW2 3329   1.999   0.003   1.698
  819SOL    HW3 3330   1.925   0.066   1.582
  819SOL    MW4 3331   1.987   0.013   1.612
  820SOL     OW 3332   1.778   0.153   1.543
  820SOL    HW2 3333   1.700   0.103   1.569
  820SOL    HW3 3334   1.787   0.137   1.449
  820SOL    MW4 3335   1.769   0.144   1.534
  821SOL     OW 3336   1.786   0.432   1.652
  821SOL    HW2 3337   1.856   0.470   1.599
  821SOL    HW3 3338   1.786   0.339   1.627
  821SOL    MW4 3339   1.796   0.424   1.641
  822SOL     OW 3340   2.013   0.523   1.495
  822SOL    HW2 3341   2.102   0.492   1.510
  822SOL    HW3 3342   2.017   0.617   1.511
  822SOL    MW4 3343   2.025   0.531   1.499
  823SOL     OW 3344   2.038   0.791   1.540
  823SOL    HW2 3345   2.120   0.837   1.522
  823SOL    HW3 3346   1.972   0.839   1.491
  823SOL    MW4 3347   2.040   0.803   1.531
  824SOL     OW 3348   1.781   0.971   1.453
  824SOL    HW2 3349   1.778   1.048   1.510
  824SOL    HW3 3350   1.708   0.917   1.483
  824SOL    MW4 3351   1.771   0.974   1.465
  825SOL     OW 3352   1.770   1.214   1.626
  825SOL    HW2 3353   1.852   1.255   1.598
  825SOL    HW3 3354   1.702   1.257   1.573
  825SOL    MW4 3355   1.772   1.225   1.615
  826SOL     OW 3356   2.011   1.320   1.518
  826SOL    HW2 3357   2.015   1.413   1.541
  826SOL    HW3 3358   2.012   1.320   1.422
  826SOL    MW4 3359   2.012   1.332   1.508
  827SOL     OW 3360   2.032   1.600   1.617
  827SOL    HW2 3361   2.108   1.627   1.564
  827SOL    HW3 3362   1.958   1.643   1.575
  827SOL    MW4 3363   2.033   1.610   1.604
  828SOL     OW 3364   1.779   1.704   1.507
  828SOL    HW2 3365   1.698   1.679   1.550
  828SOL    HW3 3366   1.757   1.709   1.414
  828SOL    MW4 3367   1.766   1.701   1.501
  829SOL     OW 3368   1.822   1.982   1.580
  829SOL    HW2 3369   1.822   1.891   1.553
  829SOL    HW3 3370   1.739   2.017   1.547
  829SOL    MW4 3371   1.811   1.975   1.572
  830SOL     OW 3372   2.054   2.097   1.484
  830SOL    HW2 3373   2.123   2.032   1.499
  830SOL    HW3 3374   1.975   2.055   1.518
  830SOL    MW4 3375   2.053   2.083   1.491
  831SOL     OW 3376   2.015   2.338   1.626
  831SOL    HW2 3377   2.017   2.312   1.719
  831SOL    HW3 3378   2.026   2.256   1.578
  831SOL    MW4 3379   2.017   2.324   1.632
  832SOL     OW 3380   1.772   2.445   1.554
  832SOL    HW2 3381   1.857   2.410   1.581
  832SOL    HW3 3382   1.777   2.451   1.459
  832SOL    MW4 3383   1.784   2.441   1.545
  833SOL     OW 3384   1.756   2.709   1.619
  833SOL    HW2 3385   1.839   2.745   1.586
  833SOL    HW3 3386   1.760   2.616   1.595
  833SOL    MW4 3387   1.768   2.702   1.611
  834SOL     OW 3388   1.975   2.817   1.502
  834SOL    HW2 3389   2.009   2.903   1.526
  834SOL    HW3 3390   1.986   2.812   1.407
  834SOL    MW4 3391   1.981   2.827   1.493
  835SOL     OW 3392   2.007   3.078   1.595
  835SOL    HW2 3393   2.019   3.068   1.690
  835SOL    HW3 3394   2.082   3.130   1.567
  835SOL    MW4 3395   2.019   3.083   1.604
  836SOL     OW 3396   1.780   3.205   1.490
  836SOL    HW2 3397   1.771   3.288   1.537
  836SOL    HW3 3398   1.860   3.166   1.525
  836SOL    MW4 3399   1.789   3.211   1.501
  837SOL     OW 3400   1.801   3.463   1.588
  837SOL    HW2 3401   1.811   3.469   1.683
  837SOL    HW3 3402   1.713   3.496   1.570
  837SOL    MW4 3403   1.791   3.468   1.598
  838SOL     OW 3404   1.999   3.629   1.483
  838SOL    HW2 3405   2.069   3.580   1.526
  838SOL    HW3 3406   1.919   3.583   1.507
  838SOL    MW4 3407   1.998   3.616   1.492
  839SOL     OW 3408   2.009   3.876   1.593
  839SOL    HW2 3409   2.078   3.924   1.547
  839SOL    HW3 3410   2.009   3.789   1.552
  839SOL    MW4 3411   2.018   3.870   1.581
  840SOL     OW 3412   1.798   4.014   1.481
  840SOL    HW2 3413   1.874   3.984   1.531
  840SOL    HW3 3414   1.726   3.958   1.511
  840SOL    MW4 3415   1.798   4.003   1.491
  841SOL     OW 3416   1.761   4.262   1.627
  841SOL    HW2 3417   1.841   4.307   1.599
  841SOL    HW3 3418   1.761   4.180   1.578
  841SOL    MW4 3419   1.772   4.257   1.617
  842SOL     OW 3420   1.979   4.406   1.504
  842SOL    HW2 3421   2.052   4.352   1.534
  842SOL    HW3 3422   1.996   4.492   1.543
  842SOL    MW4 3423   1.991   4.410   1.513
  843SOL     OW 3424   2.471   4.648   1.597
  843SOL    HW2 3425   2.479   4.677   1.688
  843SOL    HW3 3426   2.392   4.693   1.564
  843SOL    MW4 3427   2.462   4.658   1.604
  844SOL     OW 3428   2.231   0.107   1.489
  844SOL    HW2 3429   2.161   0.050   1.522
  844SOL    HW3 3430   2.235   0.087   1.395
  844SOL    MW4 3431   2.222   0.097   1.481
  845SOL     OW 3432   2.247   0.398   1.553
  845SOL    HW2 3433   2.243   0.387   1.648
  845SOL    HW3 3434   2.241   0.310   1.517
  845SOL    MW4 3435   2.246   0.385   1.561
  846SOL     OW 3436   2.499   0.529   1.487
  846SOL    HW2 3437   2.573   0.474   1.513
  846SOL    HW3 3438   2.422   0.482   1.519
  846SOL    MW4 3439   2.498   0.515   1.495
  847SOL     OW 3440   2.506   0.779   1.576
  847SOL    HW2 3441   2.420   0.810   1.548
  847SOL    HW3 3442   2.507   0.687   1.552
  847SOL    MW4 3443   2.495   0.771   1.569
  848SOL     OW 3444   2.278   0.912   1.475
  848SOL    HW2 3445   2.280   0.998   1.518
  848SOL    HW3 3446   2.292   0.932   1.382
  848SOL    MW4 3447   2.280   0.926   1.468
  849SOL     OW 3448   2.258   1.180   1.590
  849SOL    HW2 3449   2.260   1.176   1.686
  849SOL    HW3 3450   2.181   1.232   1.570
  849SOL    MW4 3451   2.248   1.186   1.600
  850SOL     OW 3452   2.471   1.312   1.477
  850SOL    HW2 3453   2.394   1.269   1.515
  850SOL    HW3 3454   2.459   1.305   1.383
  850SOL    MW4 3455   2.459   1.305   1.470
  851SOL     OW 3456   2.491   1.543   1.623
  851SOL    HW2 3457   2.566   1.597   1.600
  851SOL    HW3 3458   2.497   1.467   1.566
  851SOL    MW4 3459   2.502   1.540   1.613
  852SOL     OW 3460   2.269   1.648   1.483
  852SOL    HW2 3461   2.351   1.610   1.516
  852SOL    HW3 3462   2.281   1.652   1.388
  852SOL    MW4 3463   2.282   1.644   1.475
  853SOL     OW 3464   2.260   1.912   1.554
  853SOL    HW2 3465   2.261   1.925   1.649
  853SOL    HW3 3466   2.249   1.818   1.542
  853SOL    MW4 3467   2.259   1.902   1.565
  854SOL     OW 3468   2.494   2.054   1.494
  854SOL    HW2 3469   2.425   1.999   1.532
  854SOL    HW3 3470   2.481   2.047   1.400
  854SOL    MW4 3471   2.483   2.046   1.487
  855SOL     OW 3472   2.476   2.331   1.581
  855SOL    HW2 3473   2.456   2.326   1.674
  855SOL    HW3 3474   2.479   2.240   1.552
  855SOL    MW4 3475   2.474   2.318   1.589
  856SOL     OW 3476   2.232   2.449   1.503
  856SOL    HW2 3477   2.319   2.418   1.526
  856SOL    HW3 3478   2.172   2.397   1.556
  856SOL    MW4 3479   2.235   2.438   1.513
  857SOL     OW 3480   2.233   2.717   1.570
  857SOL    HW2 3481   2.234   2.626   1.539
  857SOL    HW3 3482   2.144   2.747   1.552
  857SOL    MW4 3483   2.221   2.709   1.563
  858SOL     OW 3484   2.452   2.847   1.488
  858SOL    HW2 3485   2.454   2.916   1.554
  858SOL    HW3 3486   2.381   2.788   1.516
  858SOL    MW4 3487   2.443   2.848   1.500
  859SOL     OW 3488   2.426   3.082   1.618
  859SOL    HW2 3489   2.510   3.124   1.605
  859SOL    HW3 3490   2.362   3.144   1.583
  859SOL    MW4 3491   2.428   3.096   1.612
  860SOL     OW 3492   2.225   3.236   1.509
  860SOL    HW2 3493   2.211   3.324   1.542
  860SOL    HW3 3494   2.231   3.247   1.414
  860SOL    MW4 3495   2.224   3.249   1.501
  861SOL     OW 3496   2.213   3.500   1.615
  861SOL    HW2 3497   2.242   3.508   1.706
  861SOL    HW3 3498   2.286   3.532   1.563
  861SOL    MW4 3499   2.226   3.505   1.620
  862SOL     OW 3500   2.451   3.571   1.483
  862SOL    HW2 3501   2.529   3.537   1.527
  862SOL    HW3 3502   2.443   3.661   1.514
  862SOL    MW4 3503   2.460   3.578   1.493
  863SOL     OW 3504   2.432   3.835   1.568
  863SOL    HW2 3505   2.423   3.833   1.663
  863SOL    HW3 3506   2.507   3.893   1.553
  863SOL    MW4 3507   2.441   3.842   1.578
  864SOL     OW 3508   2.238   4.026   1.501
  864SOL    HW2 3509   2.302   3.962   1.535
  864SOL    HW3 3510   2.250   4.023   1.406
  864SOL    MW4 3511   2.248   4.017   1.493
  865SOL     OW 3512   2.194   4.272   1.633
  865SOL    HW2 3513   2.262   4.325   1.591
  865SOL    HW3 3514   2.192   4.191   1.583
  865SOL    MW4 3515   2.203   4.268   1.621
  866SOL     OW 3516   2.395   4.405   1.517
  866SOL    HW2 3517   2.416   4.496   1.538
  866SOL    HW3 3518   2.416   4.397   1.424
  866SOL    MW4 3519   2.401   4.416   1.507
  867SOL     OW 3520   2.934   4.642   1.543
  867SOL    HW2 3521   2.933   4.636   1.638
  867SOL    HW3 3522   2.849   4.680   1.520
  867SOL    MW4 3523   2.923   4.646   1.552
  868SOL     OW 3524   2.711   0.122   1.488
  868SOL    HW2 3525   2.708   0.211   1.522
  868SOL    HW3 3526   2.632   0.081   1.521
  868SOL    MW4 3527   2.700   0.128   1.497
  869SOL     OW 3528   2.709   0.381   1.605
  869SOL    HW2 3529   2.716   0.377   1.700
  869SOL    HW3 3530   2.793   0.417   1.577
  869SOL    MW4 3531   2.721   0.385   1.614
  870SOL     OW 3532   2.912   0.515   1.462
  870SOL    HW2 3533   2.910   0.605   1.496
  870SOL    HW3 3534   2.910   0.525   1.367
  870SOL    MW4 3535   2.911   0.529   1.454
  871SOL     OW 3536   2.922   0.770   1.570
  871SOL    HW2 3537   2.913   0.763   1.665
  871SOL    HW3 3538   2.865   0.843   1.546
  871SOL    MW4 3539   2.913   0.778   1.580
  872SOL     OW 3540   2.726   0.949   1.485
  872SOL    HW2 3541   2.660   0.886   1.511
  872SOL    HW3 3542   2.756   0.919   1.399
  872SOL    MW4 3543   2.721   0.937   1.477
  873SOL     OW 3544   2.702   1.230   1.593
  873SOL    HW2 3545   2.712   1.139   1.566
  873SOL    HW3 3546   2.632   1.264   1.538
  873SOL    MW4 3547   2.694   1.223   1.583
  874SOL     OW 3548   2.955   1.333   1.490
  874SOL    HW2 3549   3.021   1.273   1.523
  874SOL    HW3 3550   2.872   1.293   1.516
  874SOL    MW4 3551   2.952   1.320   1.498
  875SOL     OW 3552   2.929   1.587   1.601
  875SOL    HW2 3553   2.850   1.625   1.562
  875SOL    HW3 3554   2.939   1.503   1.558
  875SOL    MW4 3555   2.920   1.581   1.590
  876SOL     OW 3556   2.713   1.698   1.477
  876SOL    HW2 3557   2.725   1.790   1.502
  876SOL    HW3 3558   2.682   1.702   1.387
  876SOL    MW4 3559   2.711   1.711   1.468
  877SOL     OW 3560   2.758   1.976   1.562
  877SOL    HW2 3561   2.757   1.955   1.655
  877SOL    HW3 3562   2.672   2.015   1.545
  877SOL    MW4 3563   2.747   1.979   1.572
  878SOL     OW 3564   2.973   2.124   1.498
  878SOL    HW2 3565   2.963   2.209   1.541
  878SOL    HW3 3566   2.889   2.079   1.514
  878SOL    MW4 3567   2.960   2.129   1.506
  879SOL     OW 3568   2.925   2.357   1.649
  879SOL    HW2 3569   2.910   2.337   1.741
  879SOL    HW3 3570   2.841   2.390   1.617
  879SOL    MW4 3571   2.912   2.359   1.657
  880SOL     OW 3572   2.701   2.457   1.474
  880SOL    HW2 3573   2.697   2.543   1.517
  880SOL    HW3 3574   2.623   2.411   1.506
  880SOL    MW4 3575   2.690   2.462   1.484
  881SOL     OW 3576   2.691   2.718   1.587
  881SOL    HW2 3577   2.762   2.780   1.569
  881SOL    HW3 3578   2.611   2.766   1.562
  881SOL    MW4 3579   2.690   2.733   1.581
  882SOL     OW 3580   2.906   2.862   1.539
  882SOL    HW2 3581   2.978   2.814   1.580
  882SOL    HW3 3582   2.908   2.948   1.580
  882SOL    MW4 3583   2.916   2.867   1.549
  883SOL     OW 3584   2.896   3.117   1.628
  883SOL    HW2 3585   2.901   3.141   1.721
  883SOL    HW3 3586   2.972   3.159   1.589
  883SOL    MW4 3587   2.907   3.125   1.635
  884SOL     OW 3588   2.647   3.199   1.529
  884SOL    HW2 3589   2.737   3.167   1.533
  884SOL    HW3 3590   2.632   3.216   1.436
  884SOL    MW4 3591   2.657   3.197   1.517
  885SOL     OW 3592   2.682   3.452   1.627
  885SOL    HW2 3593   2.659   3.462   1.720
  885SOL    HW3 3594   2.670   3.359   1.609
  885SOL    MW4 3595   2.678   3.441   1.637
  886SOL     OW 3596   2.894   3.601   1.545
  886SOL    HW2 3597   2.830   3.546   1.590
  886SOL    HW3 3598   2.891   3.572   1.454
  886SOL    MW4 3599   2.885   3.590   1.539
  887SOL     OW 3600   2.879   3.887   1.586
  887SOL    HW2 3601   2.796   3.919   1.549
  887SOL    HW3 3602   2.881   3.794   1.565
  887SOL    MW4 3603   2.868   3.879   1.578
  888SOL     OW 3604   2.657   4.007   1.483
  888SOL    HW2 3605   2.656   4.094   1.522
  888SOL    HW3 3606   2.656   4.023   1.388
  888SOL    MW4 3607   2.657   4.021   1.476
  889SOL     OW 3608   2.639   4.276   1.588
  889SOL    HW2 3609   2.715   4.320   1.551
  889SOL    HW3 3610   2.564   4.331   1.562
  889SOL    MW4 3611   2.639   4.289   1.580
  890SOL     OW 3612   2.856   4.395   1.467
  890SOL    HW2 3613   2.883   4.485   1.489
  890SOL    HW3 3614   2.849   4.396   1.371
  890SOL    MW4 3615   2.859   4.407   1.457
  891SOL     OW 3616   3.331   4.664   1.590
  891SOL    HW2 3617   3.411   4.699   1.550
  891SOL    HW3 3618   3.330   4.571   1.565
  891SOL    MW4 3619   3.342   4.656   1.581
  892SOL     OW 3620   3.133   0.124   1.432
  892SOL    HW2 3621   3.205   0.082   1.479
  892SOL    HW3 3622   3.055   0.077   1.460
  892SOL    MW4 3623   3.132   0.112   1.442
  893SOL     OW 3624   3.150   0.385   1.536
  893SOL    HW2 3625   3.140   0.296   1.502
  893SOL    HW3 3626   3.066   0.428   1.517
  893SOL    MW4 3627   3.137   0.379   1.529
  894SOL     OW 3628   3.392   0.536   1.499
  894SOL    HW2 3629   3.312   0.485   1.512
  894SOL    HW3 3630   3.399   0.546   1.404
  894SOL    MW4 3631   3.382   0.531   1.488
  895SOL     OW 3632   3.396   0.785   1.620
  895SOL    HW2 3633   3.378   0.775   1.713
  895SOL    HW3 3634   3.410   0.696   1.588
  895SOL    MW4 3635   3.396   0.772   1.628
  896SOL     OW 3636   3.176   0.882   1.494
  896SOL    HW2 3637   3.243   0.842   1.550
  896SOL    HW3 3638   3.097   0.829   1.509
  896SOL    MW4 3639   3.174   0.870   1.503
  897SOL     OW 3640   3.132   1.146   1.583
  897SOL    HW2 3641   3.162   1.145   1.674
  897SOL    HW3 3642   3.132   1.054   1.556
  897SOL    MW4 3643   3.136   1.134   1.591
  898SOL     OW 3644   3.326   1.304   1.485
  898SOL    HW2 3645   3.409   1.270   1.520
  898SOL    HW3 3646   3.259   1.246   1.520
  898SOL    MW4 3647   3.328   1.292   1.494
  899SOL     OW 3648   3.335   1.572   1.557
  899SOL    HW2 3649   3.320   1.546   1.648
  899SOL    HW3 3650   3.357   1.491   1.511
  899SOL    MW4 3651   3.336   1.558   1.563
  900SOL     OW 3652   3.140   1.725   1.459
  900SOL    HW2 3653   3.215   1.675   1.490
  900SOL    HW3 3654   3.065   1.687   1.505
  900SOL    MW4 3655   3.140   1.713   1.469
  901SOL     OW 3656   3.174   1.970   1.606
  901SOL    HW2 3657   3.155   1.883   1.570
  901SOL    HW3 3658   3.103   2.025   1.573
  901SOL    MW4 3659   3.162   1.966   1.597
  902SOL     OW 3660   3.406   2.095   1.511
  902SOL    HW2 3661   3.333   2.043   1.545
  902SOL    HW3 3662   3.393   2.095   1.416
  902SOL    MW4 3663   3.395   2.088   1.503
  903SOL     OW 3664   3.387   2.344   1.638
  903SOL    HW2 3665   3.443   2.389   1.575
  903SOL    HW3 3666   3.394   2.252   1.616
  903SOL    MW4 3667   3.395   2.338   1.627
  904SOL     OW 3668   3.147   2.442   1.523
  904SOL    HW2 3669   3.222   2.415   1.576
  904SOL    HW3 3670   3.071   2.423   1.578
  904SOL    MW4 3671   3.147   2.436   1.537
  905SOL     OW 3672   3.142   2.710   1.606
  905SOL    HW2 3673   3.220   2.760   1.583
  905SOL    HW3 3674   3.156   2.624   1.566
  905SOL    MW4 3675   3.154   2.705   1.598
  906SOL     OW 3676   3.387   2.841   1.542
  906SOL    HW2 3677   3.354   2.929   1.560
  906SOL    HW3 3678   3.391   2.836   1.446
  906SOL    MW4 3679   3.383   2.852   1.531
  907SOL     OW 3680   3.333   3.110   1.606
  907SOL    HW2 3681   3.352   3.092   1.698
  907SOL    HW3 3682   3.414   3.146   1.571
  907SOL    MW4 3683   3.346   3.112   1.614
  908SOL     OW 3684   3.113   3.241   1.520
  908SOL    HW2 3685   3.196   3.205   1.550
  908SOL    HW3 3686   3.116   3.232   1.425
  908SOL    MW4 3687   3.124   3.235   1.511
  909SOL     OW 3688   3.158   3.504   1.594
  909SOL    HW2 3689   3.137   3.418   1.557
  909SOL    HW3 3690   3.081   3.558   1.576
  909SOL    MW4 3691   3.145   3.500   1.586
  910SOL     OW 3692   3.376   3.624   1.486
  910SOL    HW2 3693   3.447   3.577   1.531
  910SOL    HW3 3694   3.296   3.588   1.523
  910SOL    MW4 3695   3.375   3.613   1.497
  911SOL     OW 3696   3.319   3.877   1.599
  911SOL    HW2 3697   3.244   3.908   1.548
  911SOL    HW3 3698   3.326   3.784   1.578
  911SOL    MW4 3699   3.310   3.869   1.589
  912SOL     OW 3700   3.106   4.001   1.456
  912SOL    HW2 3701   3.102   4.093   1.480
  912SOL    HW3 3702   3.030   3.961   1.498
  912SOL    MW4 3703   3.096   4.008   1.465
  913SOL     OW 3704   3.095   4.263   1.557
  913SOL    HW2 3705   3.094   4.247   1.651
  913SOL    HW3 3706   3.009   4.299   1.538
  913SOL    MW4 3707   3.084   4.265   1.567
  914SOL     OW 3708   3.338   4.411   1.484
  914SOL    HW2 3709   3.254   4.370   1.507
  914SOL    HW3 3710   3.331   4.430   1.390
  914SOL    MW4 3711   3.326   4.408   1.475
  915SOL     OW 3712   3.810   4.616   1.582
  915SOL    HW2 3713   3.814   4.626   1.677
  915SOL    HW3 3714   3.880   4.672   1.549
  915SOL    MW4 3715   3.820   4.625   1.591
  916SOL     OW 3716   3.567   0.069   1.471
  916SOL    HW2 3717   3.650   0.023   1.486
  916SOL    HW3 3718   3.562   0.078   1.376
  916SOL    MW4 3719   3.578   0.064   1.460
  917SOL     OW 3720   3.555   0.329   1.611
  917SOL    HW2 3721   3.568   0.250   1.558
  917SOL    HW3 3722   3.493   0.381   1.561
  917SOL    MW4 3723   3.549   0.325   1.598
  918SOL     OW 3724   3.760   0.469   1.513
  918SOL    HW2 3725   3.680   0.427   1.543
  918SOL    HW3 3726   3.760   0.456   1.418
  918SOL    MW4 3727   3.749   0.462   1.504
  919SOL     OW 3728   3.795   0.744   1.564
  919SOL    HW2 3729   3.716   0.794   1.548
  919SOL    HW3 3730   3.768   0.652   1.557
  919SOL    MW4 3731   3.781   0.738   1.561
  920SOL     OW 3732   3.588   0.936   1.493
  920SOL    HW2 3733   3.509   0.888   1.518
  920SOL    HW3 3734   3.589   0.933   1.397
  920SOL    MW4 3735   3.578   0.929   1.484
  921SOL     OW 3736   3.570   1.208   1.572
  921SOL    HW2 3737   3.657   1.240   1.550
  921SOL    HW3 3738   3.565   1.121   1.532
  921SOL    MW4 3739   3.581   1.201   1.564
  922SOL     OW 3740   3.816   1.327   1.523
  922SOL    HW2 3741   3.900   1.282   1.538
  922SOL    HW3 3742   3.825   1.409   1.572
  922SOL    MW4 3743   3.829   1.332   1.532
  923SOL     OW 3744   3.822   1.591   1.615
  923SOL    HW2 3745   3.813   1.571   1.708
  923SOL    HW3 3746   3.733   1.616   1.588
  923SOL    MW4 3747   3.809   1.591   1.623
  924SOL     OW 3748   3.587   1.676   1.488
  924SOL    HW2 3749   3.498   1.643   1.502
  924SOL    HW3 3750   3.600   1.669   1.394
  924SOL    MW4 3751   3.577   1.671   1.477
  925SOL     OW 3752   3.591   1.920   1.600
  925SOL    HW2 3753   3.589   1.834   1.558
  925SOL    HW3 3754   3.546   1.978   1.540
  925SOL    MW4 3755   3.585   1.916   1.587
  926SOL     OW 3756   3.851   2.042   1.535
  926SOL    HW2 3757   3.835   2.131   1.568
  926SOL    HW3 3758   3.774   1.992   1.564
  926SOL    MW4 3759   3.838   2.047   1.543
  927SOL     OW 3760   3.805   2.308   1.600
  927SOL    HW2 3761   3.798   2.321   1.695
  927SOL    HW3 3762   3.886   2.352   1.575
  927SOL    MW4 3763   3.814   2.316   1.609
  928SOL     OW 3764   3.604   2.460   1.497
  928SOL    HW2 3765   3.615   2.550   1.528
  928SOL    HW3 3766   3.688   2.417   1.517
  928SOL    MW4 3767   3.617   2.466   1.503
  929SOL     OW 3768   3.615   2.719   1.612
  929SOL    HW2 3769   3.620   2.716   1.707
  929SOL    HW3 3770   3.532   2.761   1.593
  929SOL    MW4 3771   3.605   2.724   1.622
  930SOL     OW 3772   3.873   2.870   1.526
  930SOL    HW2 3773   3.934   2.804   1.559
  930SOL    HW3 3774   3.786   2.838   1.552
  930SOL    MW4 3775   3.869   2.857   1.533
  931SOL     OW 3776   3.819   3.126   1.599
  931SOL    HW2 3777   3.894   3.170   1.559
  931SOL    HW3 3778   3.834   3.033   1.580
  931SOL    MW4 3779   3.831   3.119   1.591
  932SOL     OW 3780   3.571   3.219   1.521
  932SOL    HW2 3781   3.657   3.183   1.541
  932SOL    HW3 3782   3.561   3.207   1.427
  932SOL    MW4 3783   3.581   3.212   1.511
  933SOL     OW 3784   3.565   3.485   1.626
  933SOL    HW2 3785   3.648   3.514   1.587
  933SOL    HW3 3786   3.558   3.392   1.602
  933SOL    MW4 3787   3.575   3.476   1.618
  934SOL     OW 3788   3.785   3.610   1.511
  934SOL    HW2 3789   3.866   3.566   1.534
  934SOL    HW3 3790   3.794   3.698   1.547
  934SOL    MW4 3791   3.797   3.616   1.519
  935SOL     OW 3792   3.792   3.854   1.625
  935SOL    HW2 3793   3.864   3.909   1.593
  935SOL    HW3 3794   3.716   3.884   1.577
  935SOL    MW4 3795   3.792   3.865   1.615
  936SOL     OW 3796   3.560   3.971   1.495
  936SOL    HW2 3797   3.562   4.064   1.515
  936SOL    HW3 3798   3.473   3.942   1.524
  936SOL    MW4 3799   3.548   3.979   1.502
  937SOL     OW 3800   3.574   4.248   1.557
  937SOL    HW2 3801   3.565   4.271   1.649
  937SOL    HW3 3802   3.509   4.301   1.512
  937SOL    MW4 3803   3.564   4.258   1.563
  938SOL     OW 3804   3.826   4.356   1.498
  938SOL    HW2 3805   3.745   4.305   1.506
  938SOL    HW3 3806   3.807   4.438   1.543
  938SOL    MW4 3807   3.813   4.360   1.505
  939SOL     OW 3808   4.228   0.002   1.587
  939SOL    HW2 3809   4.246  -0.023   1.677
  939SOL    HW3 3810   4.231  -0.080   1.538
  939SOL    MW4 3811   4.231  -0.012   1.592
  940SOL     OW 3812   4.002   0.152   1.481
  940SOL    HW2 3813   4.004   0.236   1.526
  940SOL    HW3 3814   4.077   0.104   1.518
  940SOL    MW4 3815   4.012   0.157   1.492
  941SOL     OW 3816   3.997   0.385   1.631
  941SOL    HW2 3817   4.003   0.386   1.727
  941SOL    HW3 3818   3.907   0.411   1.613
  941SOL    MW4 3819   3.986   0.389   1.642
  942SOL     OW 3820   4.221   0.495   1.517
  942SOL    HW2 3821   4.149   0.451   1.562
  942SOL    HW3 3822   4.300   0.453   1.550
  942SOL    MW4 3823   4.222   0.484   1.527
  943SOL     OW 3824   4.249   0.755   1.627
  943SOL    HW2 3825   4.242   0.670   1.584
  943SOL    HW3 3826   4.326   0.796   1.588
  943SOL    MW4 3827   4.258   0.749   1.616
  944SOL     OW 3828   4.032   0.888   1.525
  944SOL    HW2 3829   4.110   0.863   1.575
  944SOL    HW3 3830   3.967   0.821   1.547
  944SOL    MW4 3831   4.034   0.876   1.534
  945SOL     OW 3832   4.029   1.149   1.591
  945SOL    HW2 3833   4.008   1.144   1.684
  945SOL    HW3 3834   4.019   1.059   1.559
  945SOL    MW4 3835   4.025   1.137   1.599
  946SOL     OW 3836   4.243   1.288   1.504
  946SOL    HW2 3837   4.176   1.230   1.540
  946SOL    HW3 3838   4.326   1.250   1.533
  946SOL    MW4 3839   4.245   1.275   1.512
  947SOL     OW 3840   4.259   1.526   1.658
  947SOL    HW2 3841   4.261   1.431   1.641
  947SOL    HW3 3842   4.342   1.558   1.622
  947SOL    MW4 3843   4.270   1.517   1.651
  948SOL     OW 3844   4.069   1.687   1.525
  948SOL    HW2 3845   4.129   1.627   1.569
  948SOL    HW3 3846   3.981   1.656   1.549
  948SOL    MW4 3847   4.065   1.675   1.534
  949SOL     OW 3848   4.099   1.947   1.621
  949SOL    HW2 3849   4.098   1.855   1.595
  949SOL    HW3 3850   4.019   1.984   1.582
  949SOL    MW4 3851   4.088   1.940   1.612
  950SOL     OW 3852   4.292   2.112   1.524
  950SOL    HW2 3853   4.221   2.052   1.546
  950SOL    HW3 3854   4.302   2.105   1.429
  950SOL    MW4 3855   4.284   2.103   1.514
  951SOL     OW 3856   4.278   2.361   1.620
  951SOL    HW2 3857   4.268   2.350   1.714
  951SOL    HW3 3858   4.278   2.272   1.585
  951SOL    MW4 3859   4.277   2.348   1.628
  952SOL     OW 3860   4.045   2.448   1.515
  952SOL    HW2 3861   4.052   2.537   1.548
  952SOL    HW3 3862   4.126   2.406   1.542
  952SOL    MW4 3863   4.056   2.454   1.523
  953SOL     OW 3864   4.047   2.690   1.623
  953SOL    HW2 3865   4.035   2.695   1.718
  953SOL    HW3 3866   4.123   2.746   1.606
  953SOL    MW4 3867   4.055   2.698   1.634
  954SOL     OW 3868   4.262   2.840   1.537
  954SOL    HW2 3869   4.254   2.935   1.549
  954SOL    HW3 3870   4.280   2.829   1.444
  954SOL    MW4 3871   4.264   2.851   1.526
  955SOL     OW 3872   4.273   3.125   1.584
  955SOL    HW2 3873   4.287   3.133   1.679
  955SOL    HW3 3874   4.356   3.152   1.545
  955SOL    MW4 3875   4.286   3.129   1.592
  956SOL     OW 3876   4.034   3.277   1.480
  956SOL    HW2 3877   4.029   3.367   1.512
  956SOL    HW3 3878   4.115   3.243   1.519
  956SOL    MW4 3879   4.044   3.284   1.490
  957SOL     OW 3880   4.018   3.518   1.600
  957SOL    HW2 3881   4.015   3.499   1.694
  957SOL    HW3 3882   4.110   3.535   1.581
  957SOL    MW4 3883   4.029   3.517   1.610
  958SOL     OW 3884   4.288   3.593   1.525
  958SOL    HW2 3885   4.284   3.683   1.555
  958SOL    HW3 3886   4.289   3.600   1.429
  958SOL    MW4 3887   4.288   3.606   1.516
  959SOL     OW 3888   4.286   3.860   1.613
  959SOL    HW2 3889   4.210   3.902   1.572
  959SOL    HW3 3890   4.361   3.894   1.565
  959SOL    MW4 3891   4.285   3.870   1.601
  960SOL     OW 3892   4.023   3.959   1.554
  960SOL    HW2 3893   4.045   4.043   1.594
  960SOL    HW3 3894   4.027   3.976   1.459
  960SOL    MW4 3895   4.026   3.972   1.547
  961SOL     OW 3896   4.057   4.238   1.606
  961SOL    HW2 3897   4.039   4.231   1.699
  961SOL    HW3 3898   3.971   4.257   1.566
  961SOL    MW4 3899   4.043   4.240   1.613
  962SOL     OW 3900   4.278   4.403   1.493
  962SOL    HW2 3901   4.193   4.370   1.523
  962SOL    HW3 3902   4.272   4.399   1.398
  962SOL    MW4 3903   4.266   4.398   1.484
  963SOL     OW 3904   0.216   4.667   1.939
  963SOL    HW2 3905   0.294   4.708   1.975
  963SOL    HW3 3906   0.231   4.665   1.845
  963SOL    MW4 3907   0.228   4.672   1.931
  964SOL     OW 3908   4.467   0.129   2.004
  964SOL    HW2 3909   4.460   0.219   1.971
  964SOL    HW3 3910   4.554   0.100   1.975
  964SOL    MW4 3911   4.478   0.137   1.996
  965SOL     OW 3912   4.447   0.391   1.891
  965SOL    HW2 3913   4.387   0.453   1.932
  965SOL    HW3 3914   4.534   0.422   1.916
  965SOL    MW4 3915   4.450   0.403   1.900
  966SOL     OW 3916   0.188   0.475   1.991
  966SOL    HW2 3917   0.267   0.438   1.950
  966SOL    HW3 3918   0.183   0.564   1.957
  966SOL    MW4 3919   0.198   0.482   1.981
  967SOL     OW 3920   0.199   0.762   1.947
  967SOL    HW2 3921   0.276   0.803   1.987
  967SOL    HW3 3922   0.218   0.763   1.853
  967SOL    MW4 3923   0.212   0.768   1.939
  968SOL     OW 3924   4.476   0.923   2.019
  968SOL    HW2 3925   4.402   0.867   1.994
  968SOL    HW3 3926   4.554   0.875   1.992
  968SOL    MW4 3927   4.476   0.909   2.012
  969SOL     OW 3928   4.448   1.133   1.846
  969SOL    HW2 3929   4.378   1.181   1.888
  969SOL    HW3 3930   4.464   1.058   1.904
  969SOL    MW4 3931   4.441   1.129   1.859
  970SOL     OW 3932   0.174   1.249   1.981
  970SOL    HW2 3933   0.174   1.338   1.945
  970SOL    HW3 3934   0.101   1.206   1.937
  970SOL    MW4 3935   0.164   1.255   1.970
  971SOL     OW 3936   0.222   1.508   1.897
  971SOL    HW2 3937   0.301   1.550   1.931
  971SOL    HW3 3938   0.152   1.570   1.917
  971SOL    MW4 3939   0.223   1.522   1.904
  972SOL     OW 3940   0.017   1.682   1.988
  972SOL    HW2 3941   0.026   1.679   2.083
  972SOL    HW3 3942  -0.067   1.638   1.970
  972SOL    MW4 3943   0.007   1.676   1.998
  973SOL     OW 3944   4.488   1.942   1.898
  973SOL    HW2 3945   4.414   1.979   1.945
  973SOL    HW3 3946   4.494   1.851   1.930
  973SOL    MW4 3947   4.479   1.935   1.909
  974SOL     OW 3948   0.245   2.075   1.974
  974SOL    HW2 3949   0.223   2.163   1.942
  974SOL    HW3 3950   0.169   2.022   1.950
  974SOL    MW4 3951   0.232   2.080   1.967
  975SOL     OW 3952   0.188   2.338   1.889
  975SOL    HW2 3953   0.273   2.370   1.921
  975SOL    HW3 3954   0.124   2.396   1.931
  975SOL    MW4 3955   0.191   2.350   1.899
  976SOL     OW 3956   4.450   2.457   2.031
  976SOL    HW2 3957   4.464   2.438   2.124
  976SOL    HW3 3958   4.465   2.551   2.023
  976SOL    MW4 3959   4.454   2.467   2.042
  977SOL     OW 3960   4.473   2.701   1.888
  977SOL    HW2 3961   4.392   2.747   1.908
  977SOL    HW3 3962   4.479   2.702   1.793
  977SOL    MW4 3963   4.463   2.707   1.878
  978SOL     OW 3964   0.203   2.854   1.982
  978SOL    HW2 3965   0.197   2.944   1.952
  978SOL    HW3 3966   0.127   2.811   1.944
  978SOL    MW4 3967   0.192   2.860   1.973
  979SOL     OW 3968   0.232   3.148   1.887
  979SOL    HW2 3969   0.314   3.163   1.933
  979SOL    HW3 3970   0.253   3.160   1.795
  979SOL    MW4 3971   0.245   3.152   1.881
  980SOL     OW 3972   0.017   3.252   2.014
  980SOL    HW2 3973  -0.050   3.214   1.958
  980SOL    HW3 3974   0.097   3.204   1.993
  980SOL    MW4 3975   0.019   3.241   2.004
  981SOL     OW 3976   0.033   3.505   1.892
  981SOL    HW2 3977   0.101   3.551   1.941
  981SOL    HW3 3978   0.046   3.412   1.912
  981SOL    MW4 3979   0.044   3.499   1.901
  982SOL     OW 3980   0.261   3.631   1.998
  982SOL    HW2 3981   0.261   3.612   2.092
  982SOL    HW3 3982   0.320   3.566   1.960
  982SOL    MW4 3983   0.269   3.620   2.005
  983SOL     OW 3984   0.244   3.871   1.875
  983SOL    HW2 3985   0.315   3.931   1.901
  983SOL    HW3 3986   0.268   3.787   1.913
  983SOL    MW4 3987   0.257   3.868   1.883
  984SOL     OW 3988   0.016   4.005   1.981
  984SOL    HW2 3989   0.026   4.093   1.942
  984SOL    HW3 3990   0.089   3.955   1.946
  984SOL    MW4 3991   0.027   4.010   1.971
  985SOL     OW 3992   4.490   4.237   1.863
  985SOL    HW2 3993   4.410   4.271   1.903
  985SOL    HW3 3994   4.561   4.289   1.903
  985SOL    MW4 3995   4.489   4.249   1.874
  986SOL     OW 3996   0.190   4.386   2.000
  986SOL    HW2 3997   0.200   4.386   2.095
  986SOL    HW3 3998   0.196   4.478   1.974
  986SOL    MW4 3999   0.192   4.398   2.009
  987SOL     OW 4000   0.689   0.004   1.910
  987SOL    HW2 4001   0.690  -0.085   1.944
  987SOL    HW3 4002   0.702  -0.006   1.815
  987SOL    MW4 4003   0.691  -0.009   1.902
  988SOL     OW 4004   0.464   0.117   2.014
  988SOL    HW2 4005   0.445   0.200   1.969
  988SOL    HW3 4006   0.544   0.085   1.973
  988SOL    MW4 4007   0.472   0.124   2.003
  989SOL     OW 4008   0.421   0.368   1.882
  989SOL    HW2 4009   0.499   0.416   1.911
  989SOL    HW3 4010   0.417   0.383   1.787
  989SOL    MW4 4011   0.431   0.376   1.873
  990SOL     OW 4012   0.622   0.517   1.976
  990SOL    HW2 4013   0.631   0.513   2.071
  990SOL    HW3 4014   0.702   0.475   1.943
  990SOL    MW4 4015   0.634   0.511   1.984
  991SOL     OW 4016   0.681   0.751   1.835
  991SOL    HW2 4017   0.746   0.790   1.894
  991SOL    HW3 4018   0.650   0.674   1.882
  991SOL    MW4 4019   0.686   0.746   1.849
  992SOL     OW 4020   0.451   0.864   2.008
  992SOL    HW2 4021   0.453   0.958   1.990
  992SOL    HW3 4022   0.530   0.830   1.964
  992SOL    MW4 4023   0.462   0.872   2.000
  993SOL     OW 4024   0.416   1.133   1.956
  993SOL    HW2 4025   0.340   1.188   1.978
  993SOL    HW3 4026   0.426   1.143   1.862
  993SOL    MW4 4027   0.407   1.142   1.947
  994SOL     OW 4028   0.668   1.271   2.009
  994SOL    HW2 4029   0.702   1.257   2.097
  994SOL    HW3 4030   0.589   1.217   2.005
  994SOL    MW4 4031   0.662   1.262   2.020
  995SOL     OW 4032   0.690   1.535   1.907
  995SOL    HW2 4033   0.680   1.442   1.930
  995SOL    HW3 4034   0.692   1.535   1.811
  995SOL    MW4 4035   0.689   1.522   1.897
  996SOL     OW 4036   0.448   1.683   1.953
  996SOL    HW2 4037   0.453   1.700   2.047
  996SOL    HW3 4038   0.531   1.641   1.932
  996SOL    MW4 4039   0.460   1.680   1.963
  997SOL     OW 4040   0.475   1.946   1.872
  997SOL    HW2 4041   0.474   1.855   1.902
  997SOL    HW3 4042   0.399   1.986   1.913
  997SOL    MW4 4043   0.465   1.939   1.881
  998SOL     OW 4044   0.707   2.063   1.950
  998SOL    HW2 4045   0.688   2.067   2.043
  998SOL    HW3 4046   0.626   2.030   1.911
  998SOL    MW4 4047   0.694   2.060   1.957
  999SOL     OW 4048   0.664   2.347   1.893
  999SOL    HW2 4049   0.674   2.253   1.911
  999SOL    HW3 4050   0.681   2.354   1.799
  999SOL    MW4 4051   0.667   2.335   1.883
 1000SOL     OW 4052   0.421   2.461   1.987
 1000SOL    HW2 4053   0.432   2.467   2.082
 1000SOL    HW3 4054   0.497   2.412   1.957
 1000SOL    MW4 4055   0.433   2.455   1.995
 1001SOL     OW 4056   0.445   2.728   1.892
 1001SOL    HW2 4057   0.449   2.638   1.924
 1001SOL    HW3 4058   0.359   2.760   1.920
 1001SOL    MW4 4059   0.434   2.721   1.900
 1002SOL     OW 4060   0.673   2.842   2.009
 1002SOL    HW2 4061   0.650   2.854   2.101
 1002SOL    HW3 4062   0.588   2.828   1.966
 1002SOL    MW4 4063   0.659   2.842   2.015
 1003SOL     OW 4064   0.690   3.101   1.861
 1003SOL    HW2 4065   0.681   3.010   1.891
 1003SOL    HW3 4066   0.694   3.095   1.766
 1003SOL    MW4 4067   0.690   3.088   1.852
 1004SOL     OW 4068   0.492   3.247   1.998
 1004SOL    HW2 4069   0.475   3.325   1.945
 1004SOL    HW3 4070   0.568   3.207   1.956
 1004SOL    MW4 4071   0.500   3.252   1.985
 1005SOL     OW 4072   0.437   3.474   1.861
 1005SOL    HW2 4073   0.511   3.523   1.896
 1005SOL    HW3 4074   0.438   3.493   1.767
 1005SOL    MW4 4075   0.446   3.483   1.853
 1006SOL     OW 4076   0.637   3.616   1.996
 1006SOL    HW2 4077   0.716   3.567   1.974
 1006SOL    HW3 4078   0.648   3.700   1.953
 1006SOL    MW4 4079   0.649   3.620   1.988
 1007SOL     OW 4080   0.675   3.848   1.865
 1007SOL    HW2 4081   0.754   3.894   1.892
 1007SOL    HW3 4082   0.662   3.873   1.774
 1007SOL    MW4 4083   0.684   3.857   1.856
 1008SOL     OW 4084   0.453   4.021   2.001
 1008SOL    HW2 4085   0.459   4.110   1.968
 1008SOL    HW3 4086   0.538   3.982   1.978
 1008SOL    MW4 4087   0.465   4.027   1.993
 1009SOL     OW 4088   0.447   4.298   1.921
 1009SOL    HW2 4089   0.356   4.313   1.945
 1009SOL    HW3 4090   0.445   4.285   1.826
 1009SOL    MW4 4091   0.435   4.298   1.911
 1010SOL     OW 4092   0.692   4.413   1.977
 1010SOL    HW2 4093   0.754   4.360   1.928
 1010SOL    HW3 4094   0.607   4.372   1.960
 1010SOL    MW4 4095   0.689   4.400   1.969
 1011SOL     OW 4096   1.073   0.014   1.905
 1011SOL    HW2 4097   1.156   0.057   1.926
 1011SOL    HW3 4098   1.088  -0.078   1.925
 1011SOL    MW4 4099   1.086   0.008   1.911
 1012SOL     OW 4100   0.870   0.164   2.050
 1012SOL    HW2 4101   0.958   0.138   2.023
 1012SOL    HW3 4102   0.812   0.099   2.009
 1012SOL    MW4 4103   0.874   0.152   2.041
 1013SOL     OW 4104   0.868   0.394   1.901
 1013SOL    HW2 4105   0.953   0.429   1.928
 1013SOL    HW3 4106   0.861   0.311   1.948
 1013SOL    MW4 4107   0.878   0.387   1.911
 1014SOL     OW 4108   1.113   0.511   2.000
 1014SOL    HW2 4109   1.190   0.467   1.965
 1014SOL    HW3 4110   1.111   0.596   1.956
 1014SOL    MW4 4111   1.123   0.516   1.990
 1015SOL     OW 4112   1.102   0.752   1.874
 1015SOL    HW2 4113   1.179   0.801   1.902
 1015SOL    HW3 4114   1.029   0.796   1.917
 1015SOL    MW4 4115   1.103   0.765   1.883
 1016SOL     OW 4116   0.858   0.871   2.013
 1016SOL    HW2 4117   0.873   0.890   2.105
 1016SOL    HW3 4118   0.865   0.956   1.970
 1016SOL    MW4 4119   0.861   0.885   2.019
 1017SOL     OW 4120   0.871   1.118   1.887
 1017SOL    HW2 4121   0.798   1.171   1.917
 1017SOL    HW3 4122   0.870   1.125   1.792
 1017SOL    MW4 4123   0.861   1.126   1.878
 1018SOL     OW 4124   1.087   1.251   1.980
 1018SOL    HW2 4125   1.094   1.337   1.939
 1018SOL    HW3 4126   0.999   1.220   1.959
 1018SOL    MW4 4127   1.077   1.258   1.972
 1019SOL     OW 4128   1.126   1.519   1.883
 1019SOL    HW2 4129   1.044   1.539   1.928
 1019SOL    HW3 4130   1.113   1.549   1.794
 1019SOL    MW4 4131   1.114   1.525   1.877
 1020SOL     OW 4132   0.914   1.641   1.996
 1020SOL    HW2 4133   0.921   1.730   1.961
 1020SOL    HW3 4134   0.831   1.608   1.963
 1020SOL    MW4 4135   0.904   1.649   1.987
 1021SOL     OW 4136   0.915   1.900   1.884
 1021SOL    HW2 4137   0.839   1.939   1.925
 1021SOL    HW3 4138   0.894   1.897   1.791
 1021SOL    MW4 4139   0.902   1.905   1.877
 1022SOL     OW 4140   1.146   2.032   1.958
 1022SOL    HW2 4141   1.135   2.122   1.929
 1022SOL    HW3 4142   1.070   1.985   1.924
 1022SOL    MW4 4143   1.135   2.037   1.950
 1023SOL     OW 4144   1.097   2.306   1.898
 1023SOL    HW2 4145   1.181   2.347   1.920
 1023SOL    HW3 4146   1.088   2.320   1.804
 1023SOL    MW4 4147   1.107   2.313   1.889
 1024SOL     OW 4148   0.893   2.454   1.982
 1024SOL    HW2 4149   0.954   2.386   1.952
 1024SOL    HW3 4150   0.808   2.427   1.947
 1024SOL    MW4 4151   0.890   2.441   1.974
 1025SOL     OW 4152   0.915   2.733   1.893
 1025SOL    HW2 4153   0.932   2.648   1.934
 1025SOL    HW3 4154   0.828   2.757   1.924
 1025SOL    MW4 4155   0.906   2.725   1.902
 1026SOL     OW 4156   1.149   2.859   1.990
 1026SOL    HW2 4157   1.134   2.861   2.085
 1026SOL    HW3 4158   1.068   2.825   1.953
 1026SOL    MW4 4159   1.137   2.855   1.998
 1027SOL     OW 4160   1.158   3.100   1.881
 1027SOL    HW2 4161   1.075   3.142   1.900
 1027SOL    HW3 4162   1.154   3.016   1.927
 1027SOL    MW4 4163   1.146   3.094   1.889
 1028SOL     OW 4164   0.916   3.234   1.938
 1028SOL    HW2 4165   0.898   3.252   2.030
 1028SOL    HW3 4166   0.850   3.169   1.913
 1028SOL    MW4 4167   0.905   3.228   1.947
 1029SOL     OW 4168   0.844   3.493   1.868
 1029SOL    HW2 4169   0.857   3.400   1.889
 1029SOL    HW3 4170   0.839   3.496   1.773
 1029SOL    MW4 4171   0.845   3.481   1.858
 1030SOL     OW 4172   1.092   3.601   1.915
 1030SOL    HW2 4173   1.085   3.629   2.006
 1030SOL    HW3 4174   1.006   3.565   1.894
 1030SOL    MW4 4175   1.080   3.600   1.924
 1031SOL     OW 4176   1.139   3.864   1.882
 1031SOL    HW2 4177   1.115   3.771   1.882
 1031SOL    HW3 4178   1.139   3.888   1.789
 1031SOL    MW4 4179   1.135   3.855   1.870
 1032SOL     OW 4180   0.901   3.973   1.968
 1032SOL    HW2 4181   0.913   3.999   2.059
 1032SOL    HW3 4182   0.989   3.951   1.937
 1032SOL    MW4 4183   0.914   3.974   1.976
 1033SOL     OW 4184   0.888   4.249   1.882
 1033SOL    HW2 4185   0.972   4.278   1.918
 1033SOL    HW3 4186   0.885   4.155   1.902
 1033SOL    MW4 4187   0.899   4.240   1.889
 1034SOL     OW 4188   1.097   4.416   1.983
 1034SOL    HW2 4189   1.108   4.402   2.077
 1034SOL    HW3 4190   1.162   4.359   1.942
 1034SOL    MW4 4191   1.107   4.407   1.990
 1035SOL     OW 4192   1.543   4.655   1.859
 1035SOL    HW2 4193   1.616   4.690   1.910
 1035SOL    HW3 4194   1.539   4.563   1.884
 1035SOL    MW4 4195   1.552   4.648   1.869
 1036SOL     OW 4196   1.317   0.115   1.950
 1036SOL    HW2 4197   1.341   0.115   2.042
 1036SOL    HW3 4198   1.392   0.077   1.905
 1036SOL    MW4 4199   1.330   0.110   1.956
 1037SOL     OW 4200   1.337   0.392   1.896
 1037SOL    HW2 4201   1.322   0.299   1.911
 1037SOL    HW3 4202   1.333   0.403   1.801
 1037SOL    MW4 4203   1.334   0.381   1.885
 1038SOL     OW 4204   1.524   0.530   2.010
 1038SOL    HW2 4205   1.603   0.487   1.978
 1038SOL    HW3 4206   1.452   0.483   1.968
 1038SOL    MW4 4207   1.525   0.518   2.000
 1039SOL     OW 4208   1.559   0.772   1.864
 1039SOL    HW2 4209   1.641   0.811   1.896
 1039SOL    HW3 4210   1.552   0.689   1.913
 1039SOL    MW4 4211   1.569   0.766   1.875
 1040SOL     OW 4212   1.331   0.897   1.941
 1040SOL    HW2 4213   1.340   0.898   2.037
 1040SOL    HW3 4214   1.414   0.864   1.909
 1040SOL    MW4 4215   1.343   0.893   1.950
 1041SOL     OW 4216   1.369   1.174   1.900
 1041SOL    HW2 4217   1.368   1.079   1.907
 1041SOL    HW3 4218   1.281   1.201   1.926
 1041SOL    MW4 4219   1.357   1.165   1.905
 1042SOL     OW 4220   1.580   1.290   2.038
 1042SOL    HW2 4221   1.589   1.372   1.989
 1042SOL    HW3 4222   1.519   1.237   1.987
 1042SOL    MW4 4223   1.573   1.294   2.025
 1043SOL     OW 4224   1.574   1.518   1.884
 1043SOL    HW2 4225   1.642   1.582   1.905
 1043SOL    HW3 4226   1.494   1.556   1.919
 1043SOL    MW4 4227   1.573   1.532   1.891
 1044SOL     OW 4228   1.358   1.595   2.017
 1044SOL    HW2 4229   1.369   1.607   2.111
 1044SOL    HW3 4230   1.264   1.575   2.006
 1044SOL    MW4 4231   1.347   1.594   2.028
 1045SOL     OW 4232   1.362   1.898   1.877
 1045SOL    HW2 4233   1.372   1.816   1.925
 1045SOL    HW3 4234   1.282   1.937   1.913
 1045SOL    MW4 4235   1.352   1.892   1.888
 1046SOL     OW 4236   1.584   2.032   1.987
 1046SOL    HW2 4237   1.569   2.125   1.970
 1046SOL    HW3 4238   1.513   1.988   1.940
 1046SOL    MW4 4239   1.572   2.038   1.979
 1047SOL     OW 4240   1.545   2.300   1.875
 1047SOL    HW2 4241   1.627   2.347   1.890
 1047SOL    HW3 4242   1.528   2.310   1.781
 1047SOL    MW4 4243   1.554   2.307   1.864
 1048SOL     OW 4244   1.326   2.410   1.976
 1048SOL    HW2 4245   1.351   2.501   1.961
 1048SOL    HW3 4246   1.400   2.359   1.943
 1048SOL    MW4 4247   1.339   2.416   1.970
 1049SOL     OW 4248   1.352   2.658   1.925
 1049SOL    HW2 4249   1.283   2.719   1.952
 1049SOL    HW3 4250   1.357   2.667   1.830
 1049SOL    MW4 4251   1.344   2.667   1.916
 1050SOL     OW 4252   1.588   2.819   1.992
 1050SOL    HW2 4253   1.667   2.773   1.963
 1050SOL    HW3 4254   1.517   2.760   1.969
 1050SOL    MW4 4255   1.589   2.805   1.985
 1051SOL     OW 4256   1.565   3.082   1.873
 1051SOL    HW2 4257   1.579   2.991   1.900
 1051SOL    HW3 4258   1.567   3.079   1.778
 1051SOL    MW4 4259   1.567   3.069   1.864
 1052SOL     OW 4260   1.371   3.234   1.995
 1052SOL    HW2 4261   1.439   3.187   1.947
 1052SOL    HW3 4262   1.290   3.187   1.973
 1052SOL    MW4 4263   1.369   3.221   1.986
 1053SOL     OW 4264   1.333   3.470   1.856
 1053SOL    HW2 4265   1.351   3.385   1.897
 1053SOL    HW3 4266   1.245   3.492   1.886
 1053SOL    MW4 4267   1.324   3.462   1.865
 1054SOL     OW 4268   1.549   3.604   1.987
 1054SOL    HW2 4269   1.534   3.623   2.080
 1054SOL    HW3 4270   1.467   3.563   1.958
 1054SOL    MW4 4271   1.536   3.601   1.996
 1055SOL     OW 4272   1.596   3.860   1.869
 1055SOL    HW2 4273   1.674   3.904   1.902
 1055SOL    HW3 4274   1.593   3.776   1.915
 1055SOL    MW4 4275   1.606   3.855   1.879
 1056SOL     OW 4276   1.368   4.000   1.975
 1056SOL    HW2 4277   1.457   3.976   1.949
 1056SOL    HW3 4278   1.312   3.934   1.935
 1056SOL    MW4 4279   1.372   3.988   1.966
 1057SOL     OW 4280   1.286   4.242   1.900
 1057SOL    HW2 4281   1.302   4.153   1.929
 1057SOL    HW3 4282   1.300   4.240   1.805
 1057SOL    MW4 4283   1.290   4.230   1.891
 1058SOL     OW 4284   1.513   4.379   1.982
 1058SOL    HW2 4285   1.514   4.380   2.077
 1058SOL    HW3 4286   1.439   4.322   1.960
 1058SOL    MW4 4287   1.503   4.371   1.991
 1059SOL     OW 4288   1.988   0.046   1.886
 1059SOL    HW2 4289   2.065   0.098   1.911
 1059SOL    HW3 4290   2.010  -0.043   1.914
 1059SOL    MW4 4291   2.001   0.041   1.893
 1060SOL     OW 4292   1.732   0.130   1.975
 1060SOL    HW2 4293   1.736   0.130   2.071
 1060SOL    HW3 4294   1.813   0.087   1.948
 1060SOL    MW4 4295   1.743   0.124   1.984
 1061SOL     OW 4296   1.751   0.404   1.918
 1061SOL    HW2 4297   1.751   0.309   1.929
 1061SOL    HW3 4298   1.768   0.416   1.824
 1061SOL    MW4 4299   1.753   0.393   1.907
 1062SOL     OW 4300   2.015   0.496   1.982
 1062SOL    HW2 4301   2.014   0.588   1.954
 1062SOL    HW3 4302   1.932   0.461   1.950
 1062SOL    MW4 4303   2.004   0.504   1.974
 1063SOL     OW 4304   2.018   0.751   1.835
 1063SOL    HW2 4305   2.102   0.789   1.860
 1063SOL    HW3 4306   2.018   0.752   1.740
 1063SOL    MW4 4307   2.029   0.756   1.826
 1064SOL     OW 4308   1.790   0.899   1.970
 1064SOL    HW2 4309   1.787   0.988   1.934
 1064SOL    HW3 4310   1.863   0.857   1.925
 1064SOL    MW4 4311   1.799   0.905   1.959
 1065SOL     OW 4312   1.769   1.161   1.902
 1065SOL    HW2 4313   1.700   1.211   1.945
 1065SOL    HW3 4314   1.771   1.195   1.812
 1065SOL    MW4 4315   1.760   1.172   1.896
 1066SOL     OW 4316   2.008   1.297   1.957
 1066SOL    HW2 4317   2.082   1.242   1.930
 1066SOL    HW3 4318   1.931   1.246   1.932
 1066SOL    MW4 4319   2.007   1.283   1.950
 1067SOL     OW 4320   2.013   1.575   1.885
 1067SOL    HW2 4321   2.013   1.481   1.900
 1067SOL    HW3 4322   2.006   1.585   1.790
 1067SOL    MW4 4323   2.012   1.564   1.875
 1068SOL     OW 4324   1.774   1.697   1.969
 1068SOL    HW2 4325   1.783   1.778   1.920
 1068SOL    HW3 4326   1.853   1.648   1.948
 1068SOL    MW4 4327   1.786   1.701   1.960
 1069SOL     OW 4328   1.803   1.963   1.854
 1069SOL    HW2 4329   1.728   2.008   1.893
 1069SOL    HW3 4330   1.797   1.981   1.761
 1069SOL    MW4 4331   1.792   1.971   1.847
 1070SOL     OW 4332   2.034   2.052   1.954
 1070SOL    HW2 4333   2.104   2.019   1.898
 1070SOL    HW3 4334   1.955   2.010   1.921
 1070SOL    MW4 4335   2.033   2.042   1.942
 1071SOL     OW 4336   2.017   2.328   1.893
 1071SOL    HW2 4337   2.105   2.364   1.903
 1071SOL    HW3 4338   2.024   2.237   1.921
 1071SOL    MW4 4339   2.029   2.321   1.898
 1072SOL     OW 4340   1.763   2.446   1.929
 1072SOL    HW2 4341   1.747   2.443   2.024
 1072SOL    HW3 4342   1.852   2.414   1.918
 1072SOL    MW4 4343   1.772   2.442   1.940
 1073SOL     OW 4344   1.835   2.712   1.895
 1073SOL    HW2 4345   1.828   2.619   1.916
 1073SOL    HW3 4346   1.821   2.717   1.801
 1073SOL    MW4 4347   1.832   2.700   1.886
 1074SOL     OW 4348   2.081   2.852   1.972
 1074SOL    HW2 4349   2.094   2.843   2.066
 1074SOL    HW3 4350   2.013   2.788   1.950
 1074SOL    MW4 4351   2.074   2.843   1.981
 1075SOL     OW 4352   2.013   3.089   1.871
 1075SOL    HW2 4353   1.928   3.115   1.907
 1075SOL    HW3 4354   2.033   3.006   1.916
 1075SOL    MW4 4355   2.004   3.081   1.882
 1076SOL     OW 4356   1.779   3.212   1.969
 1076SOL    HW2 4357   1.783   3.197   2.063
 1076SOL    HW3 4358   1.706   3.158   1.939
 1076SOL    MW4 4359   1.770   3.203   1.978
 1077SOL     OW 4360   1.784   3.468   1.870
 1077SOL    HW2 4361   1.782   3.377   1.900
 1077SOL    HW3 4362   1.700   3.504   1.898
 1077SOL    MW4 4363   1.772   3.461   1.878
 1078SOL     OW 4364   2.000   3.611   1.953
 1078SOL    HW2 4365   1.994   3.700   1.917
 1078SOL    HW3 4366   1.924   3.566   1.918
 1078SOL    MW4 4367   1.989   3.617   1.944
 1079SOL     OW 4368   1.978   3.871   1.871
 1079SOL    HW2 4369   2.061   3.889   1.915
 1079SOL    HW3 4370   1.998   3.879   1.778
 1079SOL    MW4 4371   1.992   3.875   1.865
 1080SOL     OW 4372   1.784   4.008   1.988
 1080SOL    HW2 4373   1.761   4.090   1.944
 1080SOL    HW3 4374   1.861   3.976   1.940
 1080SOL    MW4 4375   1.791   4.014   1.976
 1081SOL     OW 4376   1.766   4.293   1.917
 1081SOL    HW2 4377   1.676   4.311   1.942
 1081SOL    HW3 4378   1.766   4.294   1.821
 1081SOL    MW4 4379   1.754   4.296   1.908
 1082SOL     OW 4380   2.007   4.430   1.979
 1082SOL    HW2 4381   2.073   4.372   1.940
 1082SOL    HW3 4382   1.926   4.380   1.976
 1082SOL    MW4 4383   2.005   4.416   1.974
 1083SOL     OW 4384   2.455   4.661   1.888
 1083SOL    HW2 4385   2.535   4.705   1.916
 1083SOL    HW3 4386   2.456   4.578   1.934
 1083SOL    MW4 4387   2.465   4.656   1.898
 1084SOL     OW 4388   2.229   0.154   1.977
 1084SOL    HW2 4389   2.242   0.147   2.071
 1084SOL    HW3 4390   2.300   0.103   1.938
 1084SOL    MW4 4391   2.240   0.146   1.984
 1085SOL     OW 4392   2.235   0.388   1.829
 1085SOL    HW2 4393   2.265   0.324   1.894
 1085SOL    HW3 4394   2.157   0.427   1.868
 1085SOL    MW4 4395   2.229   0.385   1.843
 1086SOL     OW 4396   2.461   0.526   1.923
 1086SOL    HW2 4397   2.533   0.471   1.891
 1086SOL    HW3 4398   2.382   0.482   1.893
 1086SOL    MW4 4399   2.460   0.512   1.915
 1087SOL     OW 4400   2.483   0.795   1.842
 1087SOL    HW2 4401   2.479   0.704   1.873
 1087SOL    HW3 4402   2.487   0.788   1.747
 1087SOL    MW4 4403   2.483   0.782   1.834
 1088SOL     OW 4404   2.247   0.886   1.938
 1088SOL    HW2 4405   2.259   0.855   2.027
 1088SOL    HW3 4406   2.331   0.869   1.895
 1088SOL    MW4 4407   2.260   0.880   1.944
 1089SOL     OW 4408   2.228   1.155   1.883
 1089SOL    HW2 4409   2.305   1.186   1.929
 1089SOL    HW3 4410   2.228   1.060   1.897
 1089SOL    MW4 4411   2.238   1.147   1.891
 1090SOL     OW 4412   2.473   1.279   1.967
 1090SOL    HW2 4413   2.461   1.293   2.061
 1090SOL    HW3 4414   2.455   1.364   1.927
 1090SOL    MW4 4415   2.469   1.292   1.974
 1091SOL     OW 4416   2.436   1.547   1.886
 1091SOL    HW2 4417   2.369   1.610   1.913
 1091SOL    HW3 4418   2.443   1.560   1.791
 1091SOL    MW4 4419   2.428   1.557   1.877
 1092SOL     OW 4420   2.250   1.711   2.001
 1092SOL    HW2 4421   2.226   1.710   2.094
 1092SOL    HW3 4422   2.176   1.667   1.958
 1092SOL    MW4 4423   2.237   1.705   2.008
 1093SOL     OW 4424   2.251   1.933   1.823
 1093SOL    HW2 4425   2.329   1.974   1.859
 1093SOL    HW3 4426   2.238   1.854   1.875
 1093SOL    MW4 4427   2.259   1.928   1.835
 1094SOL     OW 4428   2.474   2.055   1.920
 1094SOL    HW2 4429   2.563   2.018   1.911
 1094SOL    HW3 4430   2.484   2.147   1.897
 1094SOL    MW4 4431   2.487   2.062   1.916
 1095SOL     OW 4432   2.453   2.332   1.854
 1095SOL    HW2 4433   2.523   2.395   1.872
 1095SOL    HW3 4434   2.373   2.376   1.882
 1095SOL    MW4 4435   2.452   2.346   1.860
 1096SOL     OW 4436   2.239   2.471   1.938
 1096SOL    HW2 4437   2.262   2.475   2.031
 1096SOL    HW3 4438   2.235   2.563   1.911
 1096SOL    MW4 4439   2.242   2.484   1.947
 1097SOL     OW 4440   2.291   2.716   1.848
 1097SOL    HW2 4441   2.214   2.767   1.873
 1097SOL    HW3 4442   2.283   2.705   1.753
 1097SOL    MW4 4443   2.280   2.721   1.839
 1098SOL     OW 4444   2.494   2.863   1.958
 1098SOL    HW2 4445   2.465   2.951   1.933
 1098SOL    HW3 4446   2.424   2.805   1.928
 1098SOL    MW4 4447   2.481   2.867   1.951
 1099SOL     OW 4448   2.434   3.114   1.901
 1099SOL    HW2 4449   2.348   3.144   1.931
 1099SOL    HW3 4450   2.430   3.122   1.806
 1099SOL    MW4 4451   2.422   3.119   1.893
 1100SOL     OW 4452   2.212   3.234   1.977
 1100SOL    HW2 4453   2.179   3.239   2.067
 1100SOL    HW3 4454   2.150   3.178   1.931
 1100SOL    MW4 4455   2.200   3.227   1.983
 1101SOL     OW 4456   2.257   3.507   1.924
 1101SOL    HW2 4457   2.241   3.414   1.942
 1101SOL    HW3 4458   2.175   3.550   1.945
 1101SOL    MW4 4459   2.244   3.500   1.929
 1102SOL     OW 4460   2.494   3.653   1.970
 1102SOL    HW2 4461   2.502   3.656   2.065
 1102SOL    HW3 4462   2.420   3.594   1.955
 1102SOL    MW4 4463   2.485   3.645   1.981
 1103SOL     OW 4464   2.454   3.908   1.856
 1103SOL    HW2 4465   2.380   3.943   1.905
 1103SOL    HW3 4466   2.472   3.823   1.896
 1103SOL    MW4 4467   2.447   3.902   1.868
 1104SOL     OW 4468   2.223   3.981   1.974
 1104SOL    HW2 4469   2.205   3.989   2.068
 1104SOL    HW3 4470   2.207   4.069   1.940
 1104SOL    MW4 4471   2.219   3.994   1.982
 1105SOL     OW 4472   2.200   4.256   1.902
 1105SOL    HW2 4473   2.271   4.312   1.931
 1105SOL    HW3 4474   2.199   4.265   1.807
 1105SOL    MW4 4475   2.209   4.265   1.894
 1106SOL     OW 4476   2.427   4.400   1.977
 1106SOL    HW2 4477   2.449   4.400   2.070
 1106SOL    HW3 4478   2.508   4.373   1.933
 1106SOL    MW4 4479   2.441   4.396   1.983
 1107SOL     OW 4480   2.918   4.666   1.823
 1107SOL    HW2 4481   2.984   4.720   1.865
 1107SOL    HW3 4482   2.938   4.577   1.851
 1107SOL    MW4 4483   2.929   4.661   1.832
 1108SOL     OW 4484   2.697   0.124   1.957
 1108SOL    HW2 4485   2.708   0.130   2.052
 1108SOL    HW3 4486   2.775   0.078   1.927
 1108SOL    MW4 4487   2.708   0.119   1.966
 1109SOL     OW 4488   2.702   0.385   1.885
 1109SOL    HW2 4489   2.784   0.426   1.910
 1109SOL    HW3 4490   2.705   0.297   1.922
 1109SOL    MW4 4491   2.713   0.379   1.893
 1110SOL     OW 4492   2.941   0.503   1.925
 1110SOL    HW2 4493   3.019   0.461   1.888
 1110SOL    HW3 4494   2.940   0.590   1.886
 1110SOL    MW4 4495   2.951   0.509   1.915
 1111SOL     OW 4496   2.911   0.757   1.844
 1111SOL    HW2 4497   2.993   0.795   1.877
 1111SOL    HW3 4498   2.843   0.795   1.900
 1111SOL    MW4 4499   2.913   0.767   1.856
 1112SOL     OW 4500   2.693   0.893   1.987
 1112SOL    HW2 4501   2.695   0.980   1.947
 1112SOL    HW3 4502   2.626   0.845   1.938
 1112SOL    MW4 4503   2.684   0.898   1.975
 1113SOL     OW 4504   2.691   1.155   1.876
 1113SOL    HW2 4505   2.613   1.193   1.915
 1113SOL    HW3 4506   2.674   1.158   1.781
 1113SOL    MW4 4507   2.678   1.161   1.868
 1114SOL     OW 4508   2.938   1.295   1.924
 1114SOL    HW2 4509   2.923   1.390   1.917
 1114SOL    HW3 4510   2.857   1.256   1.891
 1114SOL    MW4 4511   2.925   1.302   1.918
 1115SOL     OW 4512   2.903   1.587   1.907
 1115SOL    HW2 4513   2.991   1.606   1.940
 1115SOL    HW3 4514   2.912   1.593   1.812
 1115SOL    MW4 4515   2.916   1.590   1.899
 1116SOL     OW 4516   2.658   1.685   1.971
 1116SOL    HW2 4517   2.743   1.641   1.963
 1116SOL    HW3 4518   2.595   1.622   1.937
 1116SOL    MW4 4519   2.661   1.671   1.965
 1117SOL     OW 4520   2.703   1.920   1.848
 1117SOL    HW2 4521   2.776   1.954   1.899
 1117SOL    HW3 4522   2.684   1.835   1.887
 1117SOL    MW4 4523   2.710   1.913   1.860
 1118SOL     OW 4524   2.926   2.060   1.958
 1118SOL    HW2 4525   2.919   2.071   2.053
 1118SOL    HW3 4526   3.015   2.028   1.944
 1118SOL    MW4 4527   2.937   2.058   1.968
 1119SOL     OW 4528   2.915   2.332   1.920
 1119SOL    HW2 4529   3.003   2.365   1.938
 1119SOL    HW3 4530   2.922   2.237   1.932
 1119SOL    MW4 4531   2.928   2.323   1.924
 1120SOL     OW 4532   2.680   2.466   1.984
 1120SOL    HW2 4533   2.701   2.551   1.944
 1120SOL    HW3 4534   2.762   2.417   1.979
 1120SOL    MW4 4535   2.694   2.471   1.978
 1121SOL     OW 4536   2.711   2.722   1.878
 1121SOL    HW2 4537   2.639   2.776   1.911
 1121SOL    HW3 4538   2.693   2.711   1.785
 1121SOL    MW4 4539   2.699   2.728   1.870
 1122SOL     OW 4540   2.920   2.877   1.981
 1122SOL    HW2 4541   2.911   2.967   1.951
 1122SOL    HW3 4542   2.846   2.831   1.941
 1122SOL    MW4 4543   2.909   2.883   1.972
 1123SOL     OW 4544   2.930   3.149   1.910
 1123SOL    HW2 4545   3.004   3.182   1.961
 1123SOL    HW3 4546   2.853   3.180   1.958
 1123SOL    MW4 4547   2.929   3.157   1.923
 1124SOL     OW 4548   2.665   3.220   2.003
 1124SOL    HW2 4549   2.668   3.309   1.967
 1124SOL    HW3 4550   2.581   3.186   1.974
 1124SOL    MW4 4551   2.654   3.227   1.994
 1125SOL     OW 4552   2.692   3.480   1.901
 1125SOL    HW2 4553   2.776   3.519   1.924
 1125SOL    HW3 4554   2.627   3.541   1.937
 1125SOL    MW4 4555   2.695   3.493   1.909
 1126SOL     OW 4556   2.921   3.625   1.947
 1126SOL    HW2 4557   2.917   3.642   2.041
 1126SOL    HW3 4558   2.994   3.564   1.937
 1126SOL    MW4 4559   2.930   3.619   1.958
 1127SOL     OW 4560   2.900   3.903   1.864
 1127SOL    HW2 4561   2.900   3.810   1.888
 1127SOL    HW3 4562   2.883   3.903   1.770
 1127SOL    MW4 4563   2.898   3.891   1.855
 1128SOL     OW 4564   2.657   4.067   1.947
 1128SOL    HW2 4565   2.737   4.022   1.919
 1128SOL    HW3 4566   2.586   4.011   1.917
 1128SOL    MW4 4567   2.658   4.054   1.940
 1129SOL     OW 4568   2.666   4.316   1.853
 1129SOL    HW2 4569   2.665   4.233   1.901
 1129SOL    HW3 4570   2.666   4.291   1.761
 1129SOL    MW4 4571   2.666   4.302   1.847
 1130SOL     OW 4572   2.919   4.416   1.945
 1130SOL    HW2 4573   2.921   4.409   2.040
 1130SOL    HW3 4574   2.830   4.392   1.921
 1130SOL    MW4 4575   2.908   4.412   1.954
 1131SOL     OW 4576   3.402   4.636   1.864
 1131SOL    HW2 4577   3.393   4.545   1.895
 1131SOL    HW3 4578   3.383   4.632   1.771
 1131SOL    MW4 4579   3.398   4.623   1.856
 1132SOL     OW 4580   3.165   0.100   1.919
 1132SOL    HW2 4581   3.182   0.104   2.014
 1132SOL    HW3 4582   3.230   0.037   1.886
 1132SOL    MW4 4583   3.176   0.092   1.927
 1133SOL     OW 4584   3.184   0.379   1.821
 1133SOL    HW2 4585   3.193   0.285   1.834
 1133SOL    HW3 4586   3.187   0.391   1.726
 1133SOL    MW4 4587   3.186   0.368   1.810
 1134SOL     OW 4588   3.380   0.498   1.971
 1134SOL    HW2 4589   3.460   0.455   1.940
 1134SOL    HW3 4590   3.311   0.463   1.916
 1134SOL    MW4 4591   3.382   0.488   1.960
 1135SOL     OW 4592   3.385   0.781   1.889
 1135SOL    HW2 4593   3.302   0.828   1.902
 1135SOL    HW3 4594   3.373   0.698   1.936
 1135SOL    MW4 4595   3.372   0.776   1.897
 1136SOL     OW 4596   3.131   0.878   1.965
 1136SOL    HW2 4597   3.149   0.887   2.059
 1136SOL    HW3 4598   3.131   0.968   1.932
 1136SOL    MW4 4599   3.134   0.891   1.973
 1137SOL     OW 4600   3.157   1.133   1.869
 1137SOL    HW2 4601   3.224   1.195   1.900
 1137SOL    HW3 4602   3.074   1.176   1.891
 1137SOL    MW4 4603   3.154   1.147   1.876
 1138SOL     OW 4604   3.380   1.296   1.959
 1138SOL    HW2 4605   3.390   1.302   2.054
 1138SOL    HW3 4606   3.369   1.386   1.930
 1138SOL    MW4 4607   3.380   1.308   1.968
 1139SOL     OW 4608   3.346   1.533   1.835
 1139SOL    HW2 4609   3.430   1.574   1.855
 1139SOL    HW3 4610   3.282   1.581   1.887
 1139SOL    MW4 4611   3.349   1.544   1.845
 1140SOL     OW 4612   3.173   1.661   2.004
 1140SOL    HW2 4613   3.149   1.664   2.097
 1140SOL    HW3 4614   3.162   1.751   1.974
 1140SOL    MW4 4615   3.169   1.673   2.013
 1141SOL     OW 4616   3.166   1.921   1.884
 1141SOL    HW2 4617   3.240   1.965   1.926
 1141SOL    HW3 4618   3.179   1.936   1.790
 1141SOL    MW4 4619   3.177   1.929   1.877
 1142SOL     OW 4620   3.393   2.084   1.986
 1142SOL    HW2 4621   3.457   2.036   1.933
 1142SOL    HW3 4622   3.398   2.174   1.954
 1142SOL    MW4 4623   3.402   2.089   1.975
 1143SOL     OW 4624   3.422   2.346   1.906
 1143SOL    HW2 4625   3.338   2.388   1.924
 1143SOL    HW3 4626   3.427   2.341   1.811
 1143SOL    MW4 4627   3.412   2.351   1.896
 1144SOL     OW 4628   3.179   2.467   1.958
 1144SOL    HW2 4629   3.166   2.463   2.052
 1144SOL    HW3 4630   3.150   2.554   1.932
 1144SOL    MW4 4631   3.174   2.478   1.967
 1145SOL     OW 4632   3.136   2.727   1.891
 1145SOL    HW2 4633   3.055   2.773   1.913
 1145SOL    HW3 4634   3.141   2.735   1.795
 1145SOL    MW4 4635   3.126   2.734   1.881
 1146SOL     OW 4636   3.380   2.862   1.993
 1146SOL    HW2 4637   3.372   2.882   2.086
 1146SOL    HW3 4638   3.297   2.820   1.970
 1146SOL    MW4 4639   3.368   2.859   2.002
 1147SOL     OW 4640   3.353   3.098   1.868
 1147SOL    HW2 4641   3.419   3.149   1.915
 1147SOL    HW3 4642   3.359   3.011   1.906
 1147SOL    MW4 4643   3.363   3.093   1.879
 1148SOL     OW 4644   3.147   3.244   2.018
 1148SOL    HW2 4645   3.149   3.325   1.968
 1148SOL    HW3 4646   3.209   3.186   1.973
 1148SOL    MW4 4647   3.156   3.247   2.006
 1149SOL     OW 4648   3.146   3.480   1.878
 1149SOL    HW2 4649   3.226   3.521   1.911
 1149SOL    HW3 4650   3.147   3.499   1.784
 1149SOL    MW4 4651   3.157   3.488   1.870
 1150SOL     OW 4652   3.351   3.642   1.980
 1150SOL    HW2 4653   3.438   3.610   1.958
 1150SOL    HW3 4654   3.351   3.733   1.950
 1150SOL    MW4 4655   3.362   3.650   1.973
 1151SOL     OW 4656   3.344   3.910   1.873
 1151SOL    HW2 4657   3.266   3.960   1.897
 1151SOL    HW3 4658   3.341   3.906   1.777
 1151SOL    MW4 4659   3.333   3.916   1.863
 1152SOL     OW 4660   3.123   4.036   1.957
 1152SOL    HW2 4661   3.156   4.011   2.043
 1152SOL    HW3 4662   3.041   3.987   1.947
 1152SOL    MW4 4663   3.117   4.026   1.967
 1153SOL     OW 4664   3.143   4.281   1.840
 1153SOL    HW2 4665   3.139   4.193   1.876
 1153SOL    HW3 4666   3.064   4.324   1.873
 1153SOL    MW4 4667   3.132   4.275   1.849
 1154SOL     OW 4668   3.364   4.372   1.988
 1154SOL    HW2 4669   3.444   4.329   1.958
 1154SOL    HW3 4670   3.294   4.330   1.938
 1154SOL    MW4 4671   3.365   4.361   1.977
 1155SOL     OW 4672   3.820   4.653   1.871
 1155SOL    HW2 4673   3.827   4.562   1.901
 1155SOL    HW3 4674   3.742   4.687   1.914
 1155SOL    MW4 4675   3.810   4.645   1.880
 1156SOL     OW 4676   3.603   0.093   1.986
 1156SOL    HW2 4677   3.586   0.103   2.080
 1156SOL    HW3 4678   3.524   0.051   1.952
 1156SOL    MW4 4679   3.590   0.089   1.994
 1157SOL     OW 4680   3.595   0.354   1.877
 1157SOL    HW2 4681   3.606   0.265   1.909
 1157SOL    HW3 4682   3.578   0.344   1.783
 1157SOL    MW4 4683   3.594   0.341   1.869
 1158SOL     OW 4684   3.790   0.508   2.005
 1158SOL    HW2 4685   3.789   0.593   1.960
 1158SOL    HW3 4686   3.724   0.456   1.960
 1158SOL    MW4 4687   3.781   0.512   1.993
 1159SOL     OW 4688   3.813   0.744   1.860
 1159SOL    HW2 4689   3.740   0.801   1.884
 1159SOL    HW3 4690   3.812   0.743   1.764
 1159SOL    MW4 4691   3.804   0.751   1.850
 1160SOL     OW 4692   3.609   0.900   1.962
 1160SOL    HW2 4693   3.601   0.992   1.935
 1160SOL    HW3 4694   3.532   0.858   1.925
 1160SOL    MW4 4695   3.597   0.907   1.954
 1161SOL     OW 4696   3.592   1.186   1.847
 1161SOL    HW2 4697   3.508   1.225   1.872
 1161SOL    HW3 4698   3.591   1.186   1.751
 1161SOL    MW4 4699   3.581   1.191   1.837
 1162SOL     OW 4700   3.823   1.278   1.982
 1162SOL    HW2 4701   3.818   1.281   2.077
 1162SOL    HW3 4702   3.736   1.250   1.954
 1162SOL    MW4 4703   3.811   1.275   1.991
 1163SOL     OW 4704   3.815   1.547   1.894
 1163SOL    HW2 4705   3.878   1.604   1.938
 1163SOL    HW3 4706   3.824   1.463   1.940
 1163SOL    MW4 4707   3.824   1.543   1.906
 1164SOL     OW 4708   3.580   1.658   1.961
 1164SOL    HW2 4709   3.599   1.751   1.943
 1164SOL    HW3 4710   3.658   1.612   1.932
 1164SOL    MW4 4711   3.593   1.664   1.955
 1165SOL     OW 4712   3.581   1.921   1.862
 1165SOL    HW2 4713   3.654   1.975   1.892
 1165SOL    HW3 4714   3.592   1.918   1.766
 1165SOL    MW4 4715   3.592   1.928   1.853
 1166SOL     OW 4716   3.790   2.073   1.950
 1166SOL    HW2 4717   3.879   2.040   1.937
 1166SOL    HW3 4718   3.791   2.160   1.909
 1166SOL    MW4 4719   3.802   2.080   1.943
 1167SOL     OW 4720   3.829   2.341   1.880
 1167SOL    HW2 4721   3.914   2.371   1.911
 1167SOL    HW3 4722   3.769   2.413   1.900
 1167SOL    MW4 4723   3.833   2.355   1.886
 1168SOL     OW 4724   3.642   2.506   2.001
 1168SOL    HW2 4725   3.614   2.586   1.957
 1168SOL    HW3 4726   3.576   2.441   1.976
 1168SOL    MW4 4727   3.630   2.508   1.992
 1169SOL     OW 4728   3.618   2.749   1.887
 1169SOL    HW2 4729   3.682   2.798   1.939
 1169SOL    HW3 4730   3.535   2.793   1.904
 1169SOL    MW4 4731   3.616   2.761   1.896
 1170SOL     OW 4732   3.815   2.896   2.016
 1170SOL    HW2 4733   3.836   2.919   2.107
 1170SOL    HW3 4734   3.823   2.979   1.969
 1170SOL    MW4 4735   3.819   2.910   2.022
 1171SOL     OW 4736   3.818   3.147   1.887
 1171SOL    HW2 4737   3.734   3.181   1.917
 1171SOL    HW3 4738   3.808   3.140   1.792
 1171SOL    MW4 4739   3.806   3.151   1.878
 1172SOL     OW 4740   3.547   3.236   1.993
 1172SOL    HW2 4741   3.568   3.248   2.085
 1172SOL    HW3 4742   3.561   3.322   1.954
 1172SOL    MW4 4743   3.552   3.249   2.000
 1173SOL     OW 4744   3.578   3.496   1.899
 1173SOL    HW2 4745   3.670   3.498   1.926
 1173SOL    HW3 4746   3.581   3.490   1.804
 1173SOL    MW4 4747   3.591   3.496   1.890
 1174SOL     OW 4748   3.835   3.561   1.979
 1174SOL    HW2 4749   3.916   3.530   1.940
 1174SOL    HW3 4750   3.832   3.654   1.958
 1174SOL    MW4 4751   3.845   3.569   1.971
 1175SOL     OW 4752   3.814   3.830   1.925
 1175SOL    HW2 4753   3.731   3.873   1.946
 1175SOL    HW3 4754   3.816   3.829   1.829
 1175SOL    MW4 4755   3.803   3.836   1.915
 1176SOL     OW 4756   3.571   4.014   1.973
 1176SOL    HW2 4757   3.564   4.016   2.069
 1176SOL    HW3 4758   3.488   3.978   1.944
 1176SOL    MW4 4759   3.559   4.009   1.982
 1177SOL     OW 4760   3.592   4.270   1.863
 1177SOL    HW2 4761   3.668   4.313   1.902
 1177SOL    HW3 4762   3.588   4.185   1.906
 1177SOL    MW4 4763   3.602   4.265   1.874
 1178SOL     OW 4764   3.809   4.401   1.987
 1178SOL    HW2 4765   3.817   4.378   2.080
 1178SOL    HW3 4766   3.873   4.345   1.943
 1178SOL    MW4 4767   3.819   4.390   1.994
 1179SOL     OW 4768   4.266   4.638   1.878
 1179SOL    HW2 4769   4.194   4.682   1.923
 1179SOL    HW3 4770   4.345   4.682   1.911
 1179SOL    MW4 4771   4.267   4.650   1.888
 1180SOL     OW 4772   4.045   0.082   2.002
 1180SOL    HW2 4773   4.039   0.088   2.097
 1180SOL    HW3 4774   3.961   0.043   1.976
 1180SOL    MW4 4775   4.033   0.078   2.011
 1181SOL     OW 4776   4.035   0.365   1.907
 1181SOL    HW2 4777   4.033   0.270   1.911
 1181SOL    HW3 4778   3.950   0.393   1.941
 1181SOL    MW4 4779   4.023   0.356   1.912
 1182SOL     OW 4780   4.231   0.521   2.005
 1182SOL    HW2 4781   4.231   0.530   2.100
 1182SOL    HW3 4782   4.154   0.468   1.986
 1182SOL    MW4 4783   4.221   0.515   2.015
 1183SOL     OW 4784   4.247   0.780   1.908
 1183SOL    HW2 4785   4.227   0.695   1.949
 1183SOL    HW3 4786   4.238   0.763   1.814
 1183SOL    MW4 4787   4.243   0.766   1.901
 1184SOL     OW 4788   4.017   0.868   2.028
 1184SOL    HW2 4789   4.102   0.840   1.994
 1184SOL    HW3 4790   3.953   0.816   1.979
 1184SOL    MW4 4791   4.019   0.858   2.017
 1185SOL     OW 4792   4.038   1.121   1.885
 1185SOL    HW2 4793   4.046   1.031   1.918
 1185SOL    HW3 4794   3.963   1.158   1.932
 1185SOL    MW4 4795   4.029   1.114   1.896
 1186SOL     OW 4796   4.249   1.271   1.991
 1186SOL    HW2 4797   4.232   1.281   2.085
 1186SOL    HW3 4798   4.182   1.209   1.961
 1186SOL    MW4 4799   4.238   1.264   2.000
 1187SOL     OW 4800   4.269   1.538   1.944
 1187SOL    HW2 4801   4.251   1.445   1.959
 1187SOL    HW3 4802   4.280   1.545   1.849
 1187SOL    MW4 4803   4.268   1.526   1.933
 1188SOL     OW 4804   4.017   1.683   2.012
 1188SOL    HW2 4805   4.015   1.670   2.107
 1188SOL    HW3 4806   4.090   1.629   1.982
 1188SOL    MW4 4807   4.026   1.674   2.021
 1189SOL     OW 4808   4.037   1.927   1.889
 1189SOL    HW2 4809   4.045   1.837   1.919
 1189SOL    HW3 4810   4.067   1.924   1.798
 1189SOL    MW4 4811   4.042   1.915   1.881
 1190SOL     OW 4812   4.252   2.064   1.996
 1190SOL    HW2 4813   4.263   2.054   2.091
 1190SOL    HW3 4814   4.170   2.019   1.977
 1190SOL    MW4 4815   4.243   2.057   2.006
 1191SOL     OW 4816   4.238   2.330   1.902
 1191SOL    HW2 4817   4.234   2.243   1.942
 1191SOL    HW3 4818   4.321   2.366   1.933
 1191SOL    MW4 4819   4.248   2.323   1.912
 1192SOL     OW 4820   4.039   2.501   1.997
 1192SOL    HW2 4821   4.049   2.490   2.091
 1192SOL    HW3 4822   4.103   2.441   1.958
 1192SOL    MW4 4823   4.048   2.491   2.004
 1193SOL     OW 4824   4.004   2.755   1.889
 1193SOL    HW2 4825   4.021   2.670   1.930
 1193SOL    HW3 4826   3.934   2.794   1.942
 1193SOL    MW4 4827   3.997   2.749   1.902
 1194SOL     OW 4828   4.251   2.863   1.974
 1194SOL    HW2 4829   4.270   2.846   2.067
 1194SOL    HW3 4830   4.167   2.821   1.958
 1194SOL    MW4 4831   4.243   2.855   1.984
 1195SOL     OW 4832   4.313   3.122   1.858
 1195SOL    HW2 4833   4.237   3.157   1.905
 1195SOL    HW3 4834   4.307   3.027   1.870
 1195SOL    MW4 4835   4.302   3.114   1.866
 1196SOL     OW 4836   4.080   3.201   1.989
 1196SOL    HW2 4837   4.081   3.202   2.085
 1196SOL    HW3 4838   3.998   3.158   1.966
 1196SOL    MW4 4839   4.070   3.195   1.999
 1197SOL     OW 4840   4.056   3.457   1.879
 1197SOL    HW2 4841   4.133   3.494   1.923
 1197SOL    HW3 4842   4.059   3.364   1.901
 1197SOL    MW4 4843   4.067   3.449   1.888
 1198SOL     OW 4844   4.279   3.616   1.978
 1198SOL    HW2 4845   4.257   3.701   1.941
 1198SOL    HW3 4846   4.366   3.596   1.943
 1198SOL    MW4 4847   4.287   3.624   1.968
 1199SOL     OW 4848   4.283   3.880   1.901
 1199SOL    HW2 4849   4.369   3.917   1.917
 1199SOL    HW3 4850   4.275   3.876   1.806
 1199SOL    MW4 4851   4.293   3.884   1.891
 1200SOL     OW 4852   4.032   3.977   1.959
 1200SOL    HW2 4853   4.108   3.920   1.949
 1200SOL    HW3 4854   3.957   3.917   1.959
 1200SOL    MW4 4855   4.032   3.962   1.958
 1201SOL     OW 4856   4.009   4.255   1.872
 1201SOL    HW2 4857   4.087   4.306   1.891
 1201SOL    HW3 4858   4.025   4.169   1.912
 1201SOL    MW4 4859   4.021   4.250   1.880
 1202SOL     OW 4860   4.252   4.365   1.956
 1202SOL    HW2 4861   4.259   4.383   2.050
 1202SOL    HW3 4862   4.257   4.451   1.915
 1202SOL    MW4 4863   4.254   4.379   1.963
 1203SOL     OW 4864   0.198   0.017   2.376
 1203SOL    HW2 4865   0.206   0.034   2.469
 1203SOL    HW3 4866   0.284   0.037   2.340
 1203SOL    MW4 4867   0.210   0.022   2.383
 1204SOL     OW 4868   4.469   0.158   2.284
 1204SOL    HW2 4869   4.558   0.128   2.300
 1204SOL    HW3 4870   4.458   0.149   2.189
 1204SOL    MW4 4871   4.479   0.153   2.273
 1205SOL     OW 4872   4.465   0.424   2.349
 1205SOL    HW2 4873   4.552   0.449   2.319
 1205SOL    HW3 4874   4.458   0.331   2.329
 1205SOL    MW4 4875   4.476   0.415   2.343
 1206SOL     OW 4876   0.230   0.488   2.252
 1206SOL    HW2 4877   0.313   0.455   2.287
 1206SOL    HW3 4878   0.241   0.485   2.157
 1206SOL    MW4 4879   0.242   0.483   2.244
 1207SOL     OW 4880   0.238   0.756   2.358
 1207SOL    HW2 4881   0.217   0.747   2.451
 1207SOL    HW3 4882   0.227   0.668   2.322
 1207SOL    MW4 4883   0.234   0.743   2.365
 1208SOL     OW 4884   0.016   0.921   2.311
 1208SOL    HW2 4885   0.088   0.861   2.332
 1208SOL    HW3 4886  -0.003   0.904   2.219
 1208SOL    MW4 4887   0.023   0.911   2.302
 1209SOL     OW 4888   0.004   1.220   2.372
 1209SOL    HW2 4889  -0.011   1.224   2.466
 1209SOL    HW3 4890   0.007   1.127   2.351
 1209SOL    MW4 4891   0.002   1.208   2.381
 1210SOL     OW 4892   0.256   1.257   2.246
 1210SOL    HW2 4893   0.180   1.229   2.296
 1210SOL    HW3 4894   0.230   1.248   2.155
 1210SOL    MW4 4895   0.243   1.252   2.241
 1211SOL     OW 4896   0.239   1.514   2.341
 1211SOL    HW2 4897   0.241   1.514   2.437
 1211SOL    HW3 4898   0.250   1.422   2.317
 1211SOL    MW4 4899   0.241   1.502   2.350
 1212SOL     OW 4900   0.013   1.663   2.270
 1212SOL    HW2 4901   0.001   1.737   2.330
 1212SOL    HW3 4902   0.098   1.626   2.295
 1212SOL    MW4 4903   0.023   1.668   2.281
 1213SOL     OW 4904   4.468   1.918   2.385
 1213SOL    HW2 4905   4.399   1.961   2.335
 1213SOL    HW3 4906   4.549   1.962   2.357
 1213SOL    MW4 4907   4.470   1.930   2.374
 1214SOL     OW 4908   0.207   2.034   2.252
 1214SOL    HW2 4909   0.296   2.000   2.263
 1214SOL    HW3 4910   0.200   2.054   2.159
 1214SOL    MW4 4911   0.218   2.032   2.241
 1215SOL     OW 4912   0.235   2.288   2.377
 1215SOL    HW2 4913   0.216   2.277   2.470
 1215SOL    HW3 4914   0.219   2.202   2.339
 1215SOL    MW4 4915   0.230   2.276   2.384
 1216SOL     OW 4916   4.475   2.391   2.318
 1216SOL    HW2 4917   4.472   2.485   2.339
 1216SOL    HW3 4918   4.567   2.367   2.325
 1216SOL    MW4 4919   4.487   2.400   2.322
 1217SOL     OW 4920   0.037   2.668   2.322
 1217SOL    HW2 4921   0.040   2.667   2.418
 1217SOL    HW3 4922   0.094   2.742   2.297
 1217SOL    MW4 4923   0.045   2.678   2.331
 1218SOL     OW 4924   0.218   2.873   2.254
 1218SOL    HW2 4925   0.294   2.819   2.276
 1218SOL    HW3 4926   0.207   2.861   2.160
 1218SOL    MW4 4927   0.227   2.865   2.245
 1219SOL     OW 4928   0.216   3.135   2.353
 1219SOL    HW2 4929   0.137   3.182   2.325
 1219SOL    HW3 4930   0.200   3.044   2.329
 1219SOL    MW4 4931   0.203   3.129   2.346
 1220SOL     OW 4932   4.474   3.238   2.296
 1220SOL    HW2 4933   4.466   3.321   2.342
 1220SOL    HW3 4934   4.480   3.262   2.203
 1220SOL    MW4 4935   4.473   3.252   2.290
 1221SOL     OW 4936   4.485   3.496   2.401
 1221SOL    HW2 4937   4.456   3.495   2.493
 1221SOL    HW3 4938   4.422   3.554   2.357
 1221SOL    MW4 4939   4.473   3.503   2.408
 1222SOL     OW 4940   0.228   3.564   2.267
 1222SOL    HW2 4941   0.312   3.527   2.295
 1222SOL    HW3 4942   0.164   3.525   2.327
 1222SOL    MW4 4943   0.231   3.554   2.279
 1223SOL     OW 4944   0.221   3.854   2.383
 1223SOL    HW2 4945   0.143   3.897   2.349
 1223SOL    HW3 4946   0.223   3.769   2.338
 1223SOL    MW4 4947   0.211   3.848   2.373
 1224SOL     OW 4948   4.479   3.983   2.249
 1224SOL    HW2 4949   4.491   4.072   2.281
 1224SOL    HW3 4950   4.490   3.990   2.154
 1224SOL    MW4 4951   4.482   3.996   2.240
 1225SOL     OW 4952   4.467   4.248   2.330
 1225SOL    HW2 4953   4.460   4.241   2.425
 1225SOL    HW3 4954   4.538   4.311   2.315
 1225SOL    MW4 4955   4.475   4.255   2.340
 1226SOL     OW 4956   0.198   4.377   2.277
 1226SOL    HW2 4957   0.279   4.346   2.318
 1226SOL    HW3 4958   0.187   4.466   2.310
 1226SOL    MW4 4959   0.208   4.385   2.287
 1227SOL     OW 4960   0.699   4.649   2.377
 1227SOL    HW2 4961   0.681   4.638   2.470
 1227SOL    HW3 4962   0.775   4.707   2.374
 1227SOL    MW4 4963   0.706   4.655   2.389
 1228SOL     OW 4964   0.454   0.110   2.283
 1228SOL    HW2 4965   0.537   0.068   2.305
 1228SOL    HW3 4966   0.454   0.114   2.187
 1228SOL    MW4 4967   0.465   0.105   2.273
 1229SOL     OW 4968   0.462   0.370   2.357
 1229SOL    HW2 4969   0.469   0.370   2.452
 1229SOL    HW3 4970   0.440   0.280   2.334
 1229SOL    MW4 4971   0.460   0.358   2.366
 1230SOL     OW 4972   0.687   0.478   2.251
 1230SOL    HW2 4973   0.681   0.569   2.280
 1230SOL    HW3 4974   0.610   0.435   2.288
 1230SOL    MW4 4975   0.676   0.485   2.260
 1231SOL     OW 4976   0.686   0.729   2.349
 1231SOL    HW2 4977   0.691   0.724   2.444
 1231SOL    HW3 4978   0.610   0.785   2.332
 1231SOL    MW4 4979   0.677   0.736   2.359
 1232SOL     OW 4980   0.474   0.889   2.289
 1232SOL    HW2 4981   0.388   0.861   2.321
 1232SOL    HW3 4982   0.472   0.869   2.196
 1232SOL    MW4 4983   0.462   0.883   2.281
 1233SOL     OW 4984   0.484   1.159   2.385
 1233SOL    HW2 4985   0.485   1.069   2.352
 1233SOL    HW3 4986   0.425   1.205   2.325
 1233SOL    MW4 4987   0.476   1.153   2.373
 1234SOL     OW 4988   0.715   1.264   2.284
 1234SOL    HW2 4989   0.708   1.357   2.304
 1234SOL    HW3 4990   0.641   1.224   2.330
 1234SOL    MW4 4991   0.704   1.271   2.293
 1235SOL     OW 4992   0.656   1.542   2.355
 1235SOL    HW2 4993   0.672   1.538   2.449
 1235SOL    HW3 4994   0.739   1.575   2.318
 1235SOL    MW4 4995   0.669   1.546   2.362
 1236SOL     OW 4996   0.440   1.678   2.241
 1236SOL    HW2 4997   0.521   1.651   2.284
 1236SOL    HW3 4998   0.374   1.618   2.273
 1236SOL    MW4 4999   0.442   1.667   2.251
 1237SOL     OW 5000   0.445   1.931   2.336
 1237SOL    HW2 5001   0.525   1.972   2.301
 1237SOL    HW3 5002   0.440   1.846   2.293
 1237SOL    MW4 5003   0.455   1.925   2.326
 1238SOL     OW 5004   0.664   2.044   2.226
 1238SOL    HW2 5005   0.746   2.005   2.257
 1238SOL    HW3 5006   0.664   2.132   2.263
 1238SOL    MW4 5007   0.675   2.051   2.235
 1239SOL     OW 5008   0.698   2.301   2.344
 1239SOL    HW2 5009   0.691   2.318   2.437
 1239SOL    HW3 5010   0.763   2.364   2.312
 1239SOL    MW4 5011   0.706   2.311   2.352
 1240SOL     OW 5012   0.453   2.421   2.265
 1240SOL    HW2 5013   0.529   2.370   2.295
 1240SOL    HW3 5014   0.378   2.378   2.306
 1240SOL    MW4 5015   0.454   2.409   2.275
 1241SOL     OW 5016   0.400   2.679   2.349
 1241SOL    HW2 5017   0.428   2.678   2.440
 1241SOL    HW3 5018   0.401   2.587   2.322
 1241SOL    MW4 5019   0.404   2.667   2.357
 1242SOL     OW 5020   0.660   2.834   2.279
 1242SOL    HW2 5021   0.738   2.787   2.308
 1242SOL    HW3 5022   0.587   2.777   2.302
 1242SOL    MW4 5023   0.660   2.820   2.286
 1243SOL     OW 5024   0.702   3.103   2.392
 1243SOL    HW2 5025   0.617   3.138   2.364
 1243SOL    HW3 5026   0.706   3.016   2.354
 1243SOL    MW4 5027   0.691   3.096   2.384
 1244SOL     OW 5028   0.471   3.205   2.281
 1244SOL    HW2 5029   0.379   3.178   2.290
 1244SOL    HW3 5030   0.484   3.214   2.187
 1244SOL    MW4 5031   0.460   3.203   2.270
 1245SOL     OW 5032   0.458   3.456   2.408
 1245SOL    HW2 5033   0.531   3.503   2.368
 1245SOL    HW3 5034   0.459   3.370   2.366
 1245SOL    MW4 5035   0.468   3.451   2.397
 1246SOL     OW 5036   0.646   3.636   2.283
 1246SOL    HW2 5037   0.666   3.727   2.306
 1246SOL    HW3 5038   0.629   3.638   2.189
 1246SOL    MW4 5039   0.646   3.648   2.274
 1247SOL     OW 5040   0.684   3.916   2.348
 1247SOL    HW2 5041   0.675   3.904   2.443
 1247SOL    HW3 5042   0.596   3.940   2.319
 1247SOL    MW4 5043   0.671   3.918   2.357
 1248SOL     OW 5044   0.435   4.026   2.287
 1248SOL    HW2 5045   0.365   3.971   2.321
 1248SOL    HW3 5046   0.428   4.021   2.192
 1248SOL    MW4 5047   0.425   4.018   2.279
 1249SOL     OW 5048   0.445   4.309   2.354
 1249SOL    HW2 5049   0.525   4.351   2.322
 1249SOL    HW3 5050   0.454   4.217   2.329
 1249SOL    MW4 5051   0.457   4.303   2.347
 1250SOL     OW 5052   0.686   4.390   2.251
 1250SOL    HW2 5053   0.697   4.478   2.287
 1250SOL    HW3 5054   0.699   4.401   2.157
 1250SOL    MW4 5055   0.689   4.403   2.243
 1251SOL     OW 5056   1.130   4.640   2.363
 1251SOL    HW2 5057   1.121   4.612   2.455
 1251SOL    HW3 5058   1.051   4.690   2.345
 1251SOL    MW4 5059   1.118   4.643   2.373
 1252SOL     OW 5060   0.909   0.150   2.323
 1252SOL    HW2 5061   0.925   0.238   2.357
 1252SOL    HW3 5062   0.881   0.164   2.232
 1252SOL    MW4 5063   0.907   0.164   2.316
 1253SOL     OW 5064   0.925   0.415   2.398
 1253SOL    HW2 5065   0.998   0.461   2.358
 1253SOL    HW3 5066   0.847   0.452   2.356
 1253SOL    MW4 5067   0.924   0.426   2.387
 1254SOL     OW 5068   1.164   0.523   2.268
 1254SOL    HW2 5069   1.227   0.456   2.294
 1254SOL    HW3 5070   1.161   0.519   2.173
 1254SOL    MW4 5071   1.172   0.514   2.259
 1255SOL     OW 5072   1.128   0.797   2.362
 1255SOL    HW2 5073   1.042   0.824   2.329
 1255SOL    HW3 5074   1.139   0.708   2.329
 1255SOL    MW4 5075   1.118   0.789   2.354
 1256SOL     OW 5076   0.889   0.925   2.294
 1256SOL    HW2 5077   0.913   1.002   2.345
 1256SOL    HW3 5078   0.819   0.883   2.344
 1256SOL    MW4 5079   0.883   0.929   2.307
 1257SOL     OW 5080   0.969   1.168   2.421
 1257SOL    HW2 5081   1.044   1.196   2.370
 1257SOL    HW3 5082   0.897   1.223   2.390
 1257SOL    MW4 5083   0.969   1.179   2.410
 1258SOL     OW 5084   1.151   1.289   2.245
 1258SOL    HW2 5085   1.226   1.230   2.249
 1258SOL    HW3 5086   1.119   1.281   2.155
 1258SOL    MW4 5087   1.157   1.280   2.234
 1259SOL     OW 5088   1.141   1.541   2.371
 1259SOL    HW2 5089   1.062   1.590   2.348
 1259SOL    HW3 5090   1.137   1.462   2.318
 1259SOL    MW4 5091   1.130   1.537   2.361
 1260SOL     OW 5092   0.901   1.670   2.275
 1260SOL    HW2 5093   0.891   1.764   2.288
 1260SOL    HW3 5094   0.908   1.660   2.180
 1260SOL    MW4 5095   0.901   1.681   2.264
 1261SOL     OW 5096   0.899   1.932   2.316
 1261SOL    HW2 5097   0.903   1.931   2.412
 1261SOL    HW3 5098   0.970   1.991   2.290
 1261SOL    MW4 5099   0.909   1.940   2.325
 1262SOL     OW 5100   1.124   2.103   2.241
 1262SOL    HW2 5101   1.194   2.053   2.281
 1262SOL    HW3 5102   1.125   2.077   2.149
 1262SOL    MW4 5103   1.133   2.093   2.234
 1263SOL     OW 5104   1.112   2.347   2.356
 1263SOL    HW2 5105   1.191   2.393   2.328
 1263SOL    HW3 5106   1.118   2.262   2.313
 1263SOL    MW4 5107   1.123   2.342   2.347
 1264SOL     OW 5108   0.899   2.489   2.247
 1264SOL    HW2 5109   0.967   2.432   2.284
 1264SOL    HW3 5110   0.897   2.467   2.154
 1264SOL    MW4 5111   0.908   2.478   2.240
 1265SOL     OW 5112   0.896   2.729   2.369
 1265SOL    HW2 5113   0.894   2.717   2.464
 1265SOL    HW3 5114   0.904   2.641   2.334
 1265SOL    MW4 5115   0.896   2.716   2.377
 1266SOL     OW 5116   1.128   2.856   2.283
 1266SOL    HW2 5117   1.205   2.804   2.305
 1266SOL    HW3 5118   1.055   2.807   2.322
 1266SOL    MW4 5119   1.128   2.842   2.291
 1267SOL     OW 5120   1.127   3.125   2.373
 1267SOL    HW2 5121   1.069   3.185   2.325
 1267SOL    HW3 5122   1.102   3.038   2.342
 1267SOL    MW4 5123   1.116   3.121   2.362
 1268SOL     OW 5124   0.900   3.252   2.239
 1268SOL    HW2 5125   0.898   3.336   2.286
 1268SOL    HW3 5126   0.850   3.192   2.296
 1268SOL    MW4 5127   0.893   3.255   2.253
 1269SOL     OW 5128   0.884   3.507   2.361
 1269SOL    HW2 5129   0.879   3.478   2.452
 1269SOL    HW3 5130   0.802   3.555   2.347
 1269SOL    MW4 5131   0.872   3.509   2.371
 1270SOL     OW 5132   1.090   3.617   2.203
 1270SOL    HW2 5133   1.175   3.601   2.245
 1270SOL    HW3 5134   1.026   3.576   2.261
 1270SOL    MW4 5135   1.093   3.609   2.216
 1271SOL     OW 5136   1.075   3.852   2.332
 1271SOL    HW2 5137   1.157   3.895   2.305
 1271SOL    HW3 5138   1.068   3.775   2.275
 1271SOL    MW4 5139   1.085   3.847   2.321
 1272SOL     OW 5140   0.902   4.034   2.246
 1272SOL    HW2 5141   0.960   3.963   2.272
 1272SOL    HW3 5142   0.816   4.008   2.279
 1272SOL    MW4 5143   0.898   4.021   2.254
 1273SOL     OW 5144   0.907   4.272   2.383
 1273SOL    HW2 5145   0.905   4.185   2.344
 1273SOL    HW3 5146   0.834   4.318   2.342
 1273SOL    MW4 5147   0.897   4.267   2.372
 1274SOL     OW 5148   1.123   4.387   2.252
 1274SOL    HW2 5149   1.052   4.337   2.291
 1274SOL    HW3 5150   1.111   4.476   2.285
 1274SOL    MW4 5151   1.112   4.392   2.261
 1275SOL     OW 5152   1.548   4.637   2.371
 1275SOL    HW2 5153   1.622   4.674   2.322
 1275SOL    HW3 5154   1.471   4.664   2.321
 1275SOL    MW4 5155   1.548   4.645   2.358
 1276SOL     OW 5156   1.341   0.101   2.231
 1276SOL    HW2 5157   1.347   0.184   2.277
 1276SOL    HW3 5158   1.270   0.054   2.275
 1276SOL    MW4 5159   1.332   0.106   2.243
 1277SOL     OW 5160   1.340   0.355   2.365
 1277SOL    HW2 5161   1.352   0.350   2.460
 1277SOL    HW3 5162   1.418   0.401   2.334
 1277SOL    MW4 5163   1.352   0.360   2.374
 1278SOL     OW 5164   1.547   0.533   2.291
 1278SOL    HW2 5165   1.626   0.480   2.295
 1278SOL    HW3 5166   1.533   0.549   2.197
 1278SOL    MW4 5167   1.555   0.528   2.279
 1279SOL     OW 5168   1.569   0.807   2.370
 1279SOL    HW2 5169   1.644   0.833   2.316
 1279SOL    HW3 5170   1.559   0.713   2.354
 1279SOL    MW4 5171   1.577   0.798   2.361
 1280SOL     OW 5172   1.349   0.912   2.229
 1280SOL    HW2 5173   1.427   0.881   2.276
 1280SOL    HW3 5174   1.276   0.872   2.275
 1280SOL    MW4 5175   1.350   0.903   2.241
 1281SOL     OW 5176   1.349   1.145   2.368
 1281SOL    HW2 5177   1.341   1.119   2.460
 1281SOL    HW3 5178   1.344   1.064   2.319
 1281SOL    MW4 5179   1.348   1.131   2.374
 1282SOL     OW 5180   1.560   1.301   2.303
 1282SOL    HW2 5181   1.494   1.237   2.329
 1282SOL    HW3 5182   1.562   1.295   2.207
 1282SOL    MW4 5183   1.552   1.292   2.294
 1283SOL     OW 5184   1.554   1.549   2.419
 1283SOL    HW2 5185   1.617   1.591   2.360
 1283SOL    HW3 5186   1.536   1.464   2.378
 1283SOL    MW4 5187   1.560   1.543   2.406
 1284SOL     OW 5188   1.360   1.698   2.272
 1284SOL    HW2 5189   1.434   1.667   2.324
 1284SOL    HW3 5190   1.286   1.645   2.302
 1284SOL    MW4 5191   1.360   1.687   2.283
 1285SOL     OW 5192   1.353   1.972   2.369
 1285SOL    HW2 5193   1.442   2.003   2.352
 1285SOL    HW3 5194   1.344   1.894   2.314
 1285SOL    MW4 5195   1.364   1.966   2.360
 1286SOL     OW 5196   1.580   2.063   2.261
 1286SOL    HW2 5197   1.655   2.008   2.286
 1286SOL    HW3 5198   1.573   2.051   2.166
 1286SOL    MW4 5199   1.589   2.054   2.252
 1287SOL     OW 5200   1.565   2.344   2.380
 1287SOL    HW2 5201   1.558   2.333   2.475
 1287SOL    HW3 5202   1.576   2.255   2.346
 1287SOL    MW4 5203   1.565   2.330   2.388
 1288SOL     OW 5204   1.337   2.470   2.254
 1288SOL    HW2 5205   1.411   2.434   2.303
 1288SOL    HW3 5206   1.335   2.419   2.173
 1288SOL    MW4 5207   1.346   2.458   2.250
 1289SOL     OW 5208   1.350   2.726   2.352
 1289SOL    HW2 5209   1.434   2.765   2.327
 1289SOL    HW3 5210   1.348   2.643   2.305
 1289SOL    MW4 5211   1.361   2.720   2.342
 1290SOL     OW 5212   1.580   2.838   2.261
 1290SOL    HW2 5213   1.579   2.932   2.276
 1290SOL    HW3 5214   1.578   2.829   2.165
 1290SOL    MW4 5215   1.580   2.849   2.250
 1291SOL     OW 5216   1.580   3.108   2.336
 1291SOL    HW2 5217   1.564   3.089   2.429
 1291SOL    HW3 5218   1.504   3.160   2.309
 1291SOL    MW4 5219   1.568   3.113   2.345
 1292SOL     OW 5220   1.369   3.266   2.262
 1292SOL    HW2 5221   1.314   3.198   2.300
 1292SOL    HW3 5222   1.362   3.252   2.167
 1292SOL    MW4 5223   1.361   3.256   2.254
 1293SOL     OW 5224   1.302   3.534   2.349
 1293SOL    HW2 5225   1.290   3.524   2.444
 1293SOL    HW3 5226   1.315   3.445   2.317
 1293SOL    MW4 5227   1.302   3.521   2.357
 1294SOL     OW 5228   1.555   3.602   2.268
 1294SOL    HW2 5229   1.567   3.683   2.318
 1294SOL    HW3 5230   1.471   3.568   2.297
 1294SOL    MW4 5231   1.546   3.608   2.278
 1295SOL     OW 5232   1.583   3.863   2.372
 1295SOL    HW2 5233   1.578   3.867   2.467
 1295SOL    HW3 5234   1.649   3.927   2.348
 1295SOL    MW4 5235   1.591   3.872   2.381
 1296SOL     OW 5236   1.340   3.964   2.274
 1296SOL    HW2 5237   1.416   3.919   2.312
 1296SOL    HW3 5238   1.353   3.957   2.180
 1296SOL    MW4 5239   1.352   3.957   2.267
 1297SOL     OW 5240   1.344   4.240   2.359
 1297SOL    HW2 5241   1.341   4.153   2.319
 1297SOL    HW3 5242   1.268   4.285   2.324
 1297SOL    MW4 5243   1.334   4.235   2.349
 1298SOL     OW 5244   1.553   4.375   2.252
 1298SOL    HW2 5245   1.480   4.332   2.296
 1298SOL    HW3 5246   1.558   4.461   2.293
 1298SOL    MW4 5247   1.544   4.381   2.263
 1299SOL     OW 5248   2.025   0.003   2.368
 1299SOL    HW2 5249   2.097   0.056   2.333
 1299SOL    HW3 5250   2.034  -0.082   2.324
 1299SOL    MW4 5251   2.036  -0.001   2.357
 1300SOL     OW 5252   1.777   0.084   2.241
 1300SOL    HW2 5253   1.781   0.177   2.264
 1300SOL    HW3 5254   1.856   0.046   2.281
 1300SOL    MW4 5255   1.788   0.091   2.250
 1301SOL     OW 5256   1.773   0.349   2.324
 1301SOL    HW2 5257   1.767   0.349   2.420
 1301SOL    HW3 5258   1.861   0.382   2.306
 1301SOL    MW4 5259   1.784   0.353   2.334
 1302SOL     OW 5260   2.011   0.502   2.256
 1302SOL    HW2 5261   2.021   0.595   2.276
 1302SOL    HW3 5262   2.013   0.497   2.160
 1302SOL    MW4 5263   2.013   0.513   2.246
 1303SOL     OW 5264   2.025   0.757   2.357
 1303SOL    HW2 5265   2.100   0.804   2.321
 1303SOL    HW3 5266   1.949   0.793   2.311
 1303SOL    MW4 5267   2.025   0.768   2.346
 1304SOL     OW 5268   1.813   0.898   2.252
 1304SOL    HW2 5269   1.809   0.986   2.292
 1304SOL    HW3 5270   1.808   0.914   2.158
 1304SOL    MW4 5271   1.812   0.912   2.245
 1305SOL     OW 5272   1.797   1.158   2.354
 1305SOL    HW2 5273   1.874   1.190   2.306
 1305SOL    HW3 5274   1.726   1.215   2.325
 1305SOL    MW4 5275   1.798   1.170   2.344
 1306SOL     OW 5276   2.018   1.286   2.235
 1306SOL    HW2 5277   1.999   1.367   2.281
 1306SOL    HW3 5278   2.014   1.309   2.142
 1306SOL    MW4 5279   2.015   1.300   2.229
 1307SOL     OW 5280   1.971   1.539   2.333
 1307SOL    HW2 5281   1.984   1.549   2.427
 1307SOL    HW3 5282   1.886   1.580   2.315
 1307SOL    MW4 5283   1.962   1.546   2.343
 1308SOL     OW 5284   1.727   1.668   2.242
 1308SOL    HW2 5285   1.764   1.751   2.272
 1308SOL    HW3 5286   1.736   1.671   2.147
 1308SOL    MW4 5287   1.733   1.680   2.234
 1309SOL     OW 5288   1.809   1.924   2.328
 1309SOL    HW2 5289   1.804   1.942   2.422
 1309SOL    HW3 5290   1.881   1.978   2.297
 1309SOL    MW4 5291   1.817   1.933   2.336
 1310SOL     OW 5292   2.014   2.091   2.231
 1310SOL    HW2 5293   2.094   2.047   2.261
 1310SOL    HW3 5294   2.011   2.074   2.137
 1310SOL    MW4 5295   2.024   2.083   2.222
 1311SOL     OW 5296   2.003   2.355   2.321
 1311SOL    HW2 5297   2.066   2.407   2.271
 1311SOL    HW3 5298   2.019   2.265   2.293
 1311SOL    MW4 5299   2.014   2.350   2.311
 1312SOL     OW 5300   1.766   2.466   2.206
 1312SOL    HW2 5301   1.844   2.415   2.227
 1312SOL    HW3 5302   1.695   2.420   2.251
 1312SOL    MW4 5303   1.767   2.453   2.214
 1313SOL     OW 5304   1.832   2.719   2.320
 1313SOL    HW2 5305   1.805   2.641   2.271
 1313SOL    HW3 5306   1.756   2.776   2.319
 1313SOL    MW4 5307   1.819   2.716   2.314
 1314SOL     OW 5308   2.070   2.861   2.259
 1314SOL    HW2 5309   2.129   2.817   2.320
 1314SOL    HW3 5310   1.984   2.821   2.275
 1314SOL    MW4 5311   2.066   2.850   2.269
 1315SOL     OW 5312   2.020   3.105   2.365
 1315SOL    HW2 5313   2.092   3.159   2.334
 1315SOL    HW3 5314   2.034   3.020   2.325
 1315SOL    MW4 5315   2.031   3.101   2.356
 1316SOL     OW 5316   1.807   3.231   2.245
 1316SOL    HW2 5317   1.874   3.176   2.286
 1316SOL    HW3 5318   1.724   3.194   2.273
 1316SOL    MW4 5319   1.805   3.219   2.254
 1317SOL     OW 5320   1.796   3.492   2.345
 1317SOL    HW2 5321   1.792   3.399   2.321
 1317SOL    HW3 5322   1.707   3.524   2.333
 1317SOL    MW4 5323   1.784   3.484   2.340
 1318SOL     OW 5324   2.029   3.611   2.223
 1318SOL    HW2 5325   1.952   3.575   2.266
 1318SOL    HW3 5326   2.009   3.606   2.129
 1318SOL    MW4 5327   2.016   3.605   2.216
 1319SOL     OW 5328   2.001   3.865   2.345
 1319SOL    HW2 5329   2.045   3.867   2.430
 1319SOL    HW3 5330   2.023   3.780   2.308
 1319SOL    MW4 5331   2.010   3.854   2.352
 1320SOL     OW 5332   1.792   4.021   2.278
 1320SOL    HW2 5333   1.862   3.958   2.295
 1320SOL    HW3 5334   1.790   4.031   2.183
 1320SOL    MW4 5335   1.801   4.014   2.268
 1321SOL     OW 5336   1.797   4.290   2.331
 1321SOL    HW2 5337   1.800   4.195   2.317
 1321SOL    HW3 5338   1.707   4.315   2.310
 1321SOL    MW4 5339   1.786   4.281   2.327
 1322SOL     OW 5340   2.032   4.416   2.246
 1322SOL    HW2 5341   1.951   4.380   2.281
 1322SOL    HW3 5342   2.017   4.424   2.152
 1322SOL    MW4 5343   2.020   4.412   2.239
 1323SOL     OW 5344   2.495   4.649   2.373
 1323SOL    HW2 5345   2.562   4.697   2.325
 1323SOL    HW3 5346   2.494   4.562   2.333
 1323SOL    MW4 5347   2.504   4.644   2.362
 1324SOL     OW 5348   2.272   0.120   2.253
 1324SOL    HW2 5349   2.287   0.209   2.284
 1324SOL    HW3 5350   2.343   0.069   2.292
 1324SOL    MW4 5351   2.284   0.125   2.262
 1325SOL     OW 5352   2.261   0.383   2.340
 1325SOL    HW2 5353   2.333   0.436   2.306
 1325SOL    HW3 5354   2.182   0.423   2.303
 1325SOL    MW4 5355   2.260   0.396   2.331
 1326SOL     OW 5356   2.469   0.530   2.206
 1326SOL    HW2 5357   2.547   0.481   2.231
 1326SOL    HW3 5358   2.464   0.522   2.111
 1326SOL    MW4 5359   2.479   0.523   2.197
 1327SOL     OW 5360   2.470   0.773   2.356
 1327SOL    HW2 5361   2.545   0.826   2.327
 1327SOL    HW3 5362   2.480   0.690   2.310
 1327SOL    MW4 5363   2.481   0.769   2.346
 1328SOL     OW 5364   2.243   0.866   2.231
 1328SOL    HW2 5365   2.233   0.960   2.244
 1328SOL    HW3 5366   2.314   0.841   2.289
 1328SOL    MW4 5367   2.251   0.875   2.240
 1329SOL     OW 5368   2.240   1.131   2.296
 1329SOL    HW2 5369   2.320   1.180   2.279
 1329SOL    HW3 5370   2.170   1.187   2.260
 1329SOL    MW4 5371   2.241   1.145   2.289
 1330SOL     OW 5372   2.456   1.294   2.248
 1330SOL    HW2 5373   2.537   1.251   2.277
 1330SOL    HW3 5374   2.460   1.381   2.288
 1330SOL    MW4 5375   2.467   1.300   2.257
 1331SOL     OW 5376   2.429   1.552   2.382
 1331SOL    HW2 5377   2.455   1.546   2.474
 1331SOL    HW3 5378   2.504   1.594   2.339
 1331SOL    MW4 5379   2.442   1.557   2.389
 1332SOL     OW 5380   2.209   1.698   2.272
 1332SOL    HW2 5381   2.271   1.637   2.312
 1332SOL    HW3 5382   2.123   1.663   2.297
 1332SOL    MW4 5383   2.206   1.685   2.281
 1333SOL     OW 5384   2.226   1.967   2.318
 1333SOL    HW2 5385   2.301   2.002   2.270
 1333SOL    HW3 5386   2.230   1.873   2.303
 1333SOL    MW4 5387   2.237   1.959   2.310
 1334SOL     OW 5388   2.452   2.087   2.201
 1334SOL    HW2 5389   2.523   2.036   2.238
 1334SOL    HW3 5390   2.461   2.075   2.106
 1334SOL    MW4 5391   2.462   2.079   2.193
 1335SOL     OW 5392   2.462   2.318   2.358
 1335SOL    HW2 5393   2.528   2.378   2.321
 1335SOL    HW3 5394   2.459   2.245   2.296
 1335SOL    MW4 5395   2.471   2.317   2.345
 1336SOL     OW 5396   2.233   2.460   2.209
 1336SOL    HW2 5397   2.248   2.533   2.270
 1336SOL    HW3 5398   2.294   2.392   2.237
 1336SOL    MW4 5399   2.243   2.461   2.221
 1337SOL     OW 5400   2.256   2.693   2.366
 1337SOL    HW2 5401   2.238   2.712   2.458
 1337SOL    HW3 5402   2.314   2.764   2.337
 1337SOL    MW4 5403   2.262   2.705   2.374
 1338SOL     OW 5404   2.445   2.870   2.266
 1338SOL    HW2 5405   2.520   2.817   2.293
 1338SOL    HW3 5406   2.458   2.884   2.172
 1338SOL    MW4 5407   2.456   2.865   2.257
 1339SOL     OW 5408   2.470   3.136   2.362
 1339SOL    HW2 5409   2.547   3.182   2.329
 1339SOL    HW3 5410   2.478   3.047   2.328
 1339SOL    MW4 5411   2.481   3.130   2.353
 1340SOL     OW 5412   2.235   3.252   2.258
 1340SOL    HW2 5413   2.250   3.346   2.264
 1340SOL    HW3 5414   2.316   3.213   2.290
 1340SOL    MW4 5415   2.248   3.259   2.263
 1341SOL     OW 5416   2.264   3.523   2.314
 1341SOL    HW2 5417   2.251   3.499   2.406
 1341SOL    HW3 5418   2.178   3.555   2.285
 1341SOL    MW4 5419   2.251   3.524   2.322
 1342SOL     OW 5420   2.505   3.647   2.233
 1342SOL    HW2 5421   2.489   3.736   2.266
 1342SOL    HW3 5422   2.429   3.597   2.261
 1342SOL    MW4 5423   2.493   3.652   2.241
 1343SOL     OW 5424   2.459   3.904   2.342
 1343SOL    HW2 5425   2.461   3.903   2.437
 1343SOL    HW3 5426   2.378   3.951   2.319
 1343SOL    MW4 5427   2.448   3.910   2.351
 1344SOL     OW 5428   2.213   3.997   2.241
 1344SOL    HW2 5429   2.204   4.090   2.262
 1344SOL    HW3 5430   2.144   3.954   2.292
 1344SOL    MW4 5431   2.203   4.004   2.251
 1345SOL     OW 5432   2.235   4.271   2.332
 1345SOL    HW2 5433   2.245   4.280   2.427
 1345SOL    HW3 5434   2.173   4.340   2.308
 1345SOL    MW4 5435   2.228   4.282   2.341
 1346SOL     OW 5436   2.506   4.392   2.251
 1346SOL    HW2 5437   2.578   4.348   2.297
 1346SOL    HW3 5438   2.428   4.345   2.280
 1346SOL    MW4 5439   2.505   4.380   2.261
 1347SOL     OW 5440   2.928   0.006   2.323
 1347SOL    HW2 5441   3.000   0.054   2.282
 1347SOL    HW3 5442   2.933  -0.081   2.284
 1347SOL    MW4 5443   2.938   0.001   2.312
 1348SOL     OW 5444   2.688   0.113   2.228
 1348SOL    HW2 5445   2.679   0.206   2.246
 1348SOL    HW3 5446   2.770   0.088   2.270
 1348SOL    MW4 5447   2.698   0.122   2.236
 1349SOL     OW 5448   2.674   0.376   2.283
 1349SOL    HW2 5449   2.655   0.393   2.375
 1349SOL    HW3 5450   2.765   0.405   2.272
 1349SOL    MW4 5451   2.684   0.382   2.294
 1350SOL     OW 5452   2.926   0.502   2.213
 1350SOL    HW2 5453   2.932   0.590   2.251
 1350SOL    HW3 5454   2.930   0.516   2.119
 1350SOL    MW4 5455   2.927   0.516   2.206
 1351SOL     OW 5456   2.928   0.747   2.359
 1351SOL    HW2 5457   2.930   0.756   2.454
 1351SOL    HW3 5458   2.846   0.789   2.333
 1351SOL    MW4 5459   2.917   0.754   2.368
 1352SOL     OW 5460   2.710   0.881   2.262
 1352SOL    HW2 5461   2.700   0.974   2.286
 1352SOL    HW3 5462   2.724   0.883   2.167
 1352SOL    MW4 5463   2.710   0.894   2.252
 1353SOL     OW 5464   2.684   1.149   2.327
 1353SOL    HW2 5465   2.684   1.148   2.423
 1353SOL    HW3 5466   2.764   1.195   2.303
 1353SOL    MW4 5467   2.695   1.155   2.336
 1354SOL     OW 5468   2.911   1.274   2.222
 1354SOL    HW2 5469   2.989   1.234   2.260
 1354SOL    HW3 5470   2.928   1.276   2.128
 1354SOL    MW4 5471   2.923   1.269   2.215
 1355SOL     OW 5472   2.883   1.530   2.336
 1355SOL    HW2 5473   2.897   1.516   2.429
 1355SOL    HW3 5474   2.877   1.442   2.299
 1355SOL    MW4 5475   2.884   1.517   2.343
 1356SOL     OW 5476   2.642   1.652   2.235
 1356SOL    HW2 5477   2.716   1.593   2.243
 1356SOL    HW3 5478   2.636   1.671   2.142
 1356SOL    MW4 5479   2.651   1.647   2.224
 1357SOL     OW 5480   2.659   1.925   2.308
 1357SOL    HW2 5481   2.681   1.932   2.401
 1357SOL    HW3 5482   2.652   1.831   2.292
 1357SOL    MW4 5483   2.661   1.914   2.318
 1358SOL     OW 5484   2.881   2.078   2.233
 1358SOL    HW2 5485   2.963   2.037   2.262
 1358SOL    HW3 5486   2.812   2.022   2.267
 1358SOL    MW4 5487   2.883   2.065   2.241
 1359SOL     OW 5488   2.900   2.340   2.335
 1359SOL    HW2 5489   2.907   2.309   2.425
 1359SOL    HW3 5490   2.896   2.260   2.283
 1359SOL    MW4 5491   2.900   2.325   2.340
 1360SOL     OW 5492   2.654   2.481   2.259
 1360SOL    HW2 5493   2.736   2.438   2.284
 1360SOL    HW3 5494   2.651   2.473   2.164
 1360SOL    MW4 5495   2.664   2.474   2.250
 1361SOL     OW 5496   2.679   2.742   2.355
 1361SOL    HW2 5497   2.750   2.788   2.310
 1361SOL    HW3 5498   2.686   2.651   2.325
 1361SOL    MW4 5499   2.689   2.736   2.345
 1362SOL     OW 5500   2.901   2.857   2.252
 1362SOL    HW2 5501   2.907   2.943   2.294
 1362SOL    HW3 5502   2.910   2.875   2.159
 1362SOL    MW4 5503   2.903   2.871   2.246
 1363SOL     OW 5504   2.936   3.108   2.363
 1363SOL    HW2 5505   2.996   3.175   2.331
 1363SOL    HW3 5506   2.852   3.128   2.320
 1363SOL    MW4 5507   2.933   3.119   2.353
 1364SOL     OW 5508   2.712   3.232   2.270
 1364SOL    HW2 5509   2.720   3.324   2.296
 1364SOL    HW3 5510   2.703   3.235   2.174
 1364SOL    MW4 5511   2.712   3.245   2.261
 1365SOL     OW 5512   2.715   3.503   2.346
 1365SOL    HW2 5513   2.784   3.547   2.296
 1365SOL    HW3 5514   2.634   3.547   2.317
 1365SOL    MW4 5515   2.713   3.515   2.336
 1366SOL     OW 5516   2.917   3.652   2.214
 1366SOL    HW2 5517   2.981   3.602   2.265
 1366SOL    HW3 5518   2.897   3.727   2.268
 1366SOL    MW4 5519   2.923   3.655   2.228
 1367SOL     OW 5520   2.904   3.923   2.328
 1367SOL    HW2 5521   2.907   3.907   2.422
 1367SOL    HW3 5522   2.815   3.955   2.313
 1367SOL    MW4 5523   2.892   3.925   2.339
 1368SOL     OW 5524   2.671   4.074   2.259
 1368SOL    HW2 5525   2.589   4.039   2.294
 1368SOL    HW3 5526   2.669   4.051   2.166
 1368SOL    MW4 5527   2.660   4.066   2.251
 1369SOL     OW 5528   2.742   4.318   2.390
 1369SOL    HW2 5529   2.704   4.302   2.476
 1369SOL    HW3 5530   2.733   4.235   2.344
 1369SOL    MW4 5531   2.736   4.305   2.396
 1370SOL     OW 5532   2.948   4.405   2.226
 1370SOL    HW2 5533   3.026   4.361   2.259
 1370SOL    HW3 5534   2.878   4.377   2.285
 1370SOL    MW4 5535   2.949   4.396   2.238
 1371SOL     OW 5536   3.360   4.637   2.309
 1371SOL    HW2 5537   3.361   4.672   2.398
 1371SOL    HW3 5538   3.444   4.665   2.272
 1371SOL    MW4 5539   3.372   4.646   2.316
 1372SOL     OW 5540   3.168   0.113   2.200
 1372SOL    HW2 5541   3.173   0.202   2.236
 1372SOL    HW3 5542   3.243   0.067   2.239
 1372SOL    MW4 5543   3.178   0.119   2.210
 1373SOL     OW 5544   3.133   0.380   2.343
 1373SOL    HW2 5545   3.211   0.432   2.323
 1373SOL    HW3 5546   3.064   0.419   2.290
 1373SOL    MW4 5547   3.134   0.392   2.333
 1374SOL     OW 5548   3.351   0.530   2.241
 1374SOL    HW2 5549   3.426   0.483   2.276
 1374SOL    HW3 5550   3.358   0.521   2.146
 1374SOL    MW4 5551   3.362   0.522   2.233
 1375SOL     OW 5552   3.361   0.762   2.379
 1375SOL    HW2 5553   3.448   0.787   2.348
 1375SOL    HW3 5554   3.348   0.674   2.342
 1375SOL    MW4 5555   3.371   0.753   2.370
 1376SOL     OW 5556   3.158   0.876   2.242
 1376SOL    HW2 5557   3.237   0.845   2.287
 1376SOL    HW3 5558   3.087   0.823   2.278
 1376SOL    MW4 5559   3.159   0.865   2.252
 1377SOL     OW 5560   3.139   1.145   2.329
 1377SOL    HW2 5561   3.217   1.187   2.293
 1377SOL    HW3 5562   3.136   1.059   2.286
 1377SOL    MW4 5563   3.149   1.139   2.318
 1378SOL     OW 5564   3.375   1.273   2.238
 1378SOL    HW2 5565   3.452   1.230   2.276
 1378SOL    HW3 5566   3.372   1.359   2.281
 1378SOL    MW4 5567   3.385   1.279   2.249
 1379SOL     OW 5568   3.352   1.523   2.325
 1379SOL    HW2 5569   3.376   1.536   2.417
 1379SOL    HW3 5570   3.279   1.583   2.311
 1379SOL    MW4 5571   3.345   1.533   2.336
 1380SOL     OW 5572   3.132   1.678   2.275
 1380SOL    HW2 5573   3.125   1.772   2.294
 1380SOL    HW3 5574   3.049   1.641   2.307
 1380SOL    MW4 5575   3.120   1.685   2.282
 1381SOL     OW 5576   3.117   1.968   2.342
 1381SOL    HW2 5577   3.120   1.955   2.437
 1381SOL    HW3 5578   3.207   1.992   2.318
 1381SOL    MW4 5579   3.129   1.970   2.351
 1382SOL     OW 5580   3.363   2.050   2.243
 1382SOL    HW2 5581   3.436   2.006   2.286
 1382SOL    HW3 5582   3.385   2.049   2.150
 1382SOL    MW4 5583   3.375   2.044   2.236
 1383SOL     OW 5584   3.364   2.313   2.352
 1383SOL    HW2 5585   3.296   2.353   2.299
 1383SOL    HW3 5586   3.377   2.226   2.312
 1383SOL    MW4 5587   3.357   2.307   2.340
 1384SOL     OW 5588   3.140   2.448   2.237
 1384SOL    HW2 5589   3.142   2.537   2.272
 1384SOL    HW3 5590   3.056   2.412   2.266
 1384SOL    MW4 5591   3.129   2.455   2.245
 1385SOL     OW 5592   3.127   2.717   2.333
 1385SOL    HW2 5593   3.146   2.703   2.426
 1385SOL    HW3 5594   3.040   2.755   2.332
 1385SOL    MW4 5595   3.118   2.720   2.345
 1386SOL     OW 5596   3.358   2.872   2.273
 1386SOL    HW2 5597   3.361   2.955   2.320
 1386SOL    HW3 5598   3.272   2.835   2.296
 1386SOL    MW4 5599   3.347   2.878   2.282
 1387SOL     OW 5600   3.393   3.110   2.387
 1387SOL    HW2 5601   3.467   3.161   2.354
 1387SOL    HW3 5602   3.316   3.158   2.359
 1387SOL    MW4 5603   3.393   3.123   2.379
 1388SOL     OW 5604   3.159   3.263   2.292
 1388SOL    HW2 5605   3.158   3.358   2.308
 1388SOL    HW3 5606   3.152   3.255   2.197
 1388SOL    MW4 5607   3.158   3.275   2.282
 1389SOL     OW 5608   3.112   3.538   2.357
 1389SOL    HW2 5609   3.121   3.533   2.453
 1389SOL    HW3 5610   3.194   3.578   2.328
 1389SOL    MW4 5611   3.124   3.543   2.366
 1390SOL     OW 5612   3.335   3.668   2.255
 1390SOL    HW2 5613   3.415   3.624   2.283
 1390SOL    HW3 5614   3.330   3.651   2.161
 1390SOL    MW4 5615   3.345   3.660   2.246
 1391SOL     OW 5616   3.358   3.905   2.394
 1391SOL    HW2 5617   3.416   3.954   2.336
 1391SOL    HW3 5618   3.350   3.819   2.353
 1391SOL    MW4 5619   3.365   3.900   2.381
 1392SOL     OW 5620   3.153   3.985   2.237
 1392SOL    HW2 5621   3.217   3.953   2.301
 1392SOL    HW3 5622   3.069   3.952   2.268
 1392SOL    MW4 5623   3.151   3.976   2.250
 1393SOL     OW 5624   3.133   4.240   2.327
 1393SOL    HW2 5625   3.215   4.276   2.292
 1393SOL    HW3 5626   3.134   4.148   2.302
 1393SOL    MW4 5627   3.144   4.233   2.319
 1394SOL     OW 5628   3.366   4.375   2.256
 1394SOL    HW2 5629   3.378   4.465   2.285
 1394SOL    HW3 5630   3.369   4.379   2.160
 1394SOL    MW4 5631   3.368   4.387   2.247
 1395SOL     OW 5632   3.786   4.644   2.384
 1395SOL    HW2 5633   3.814   4.649   2.476
 1395SOL    HW3 5634   3.857   4.686   2.335
 1395SOL    MW4 5635   3.799   4.650   2.390
 1396SOL     OW 5636   3.581   0.142   2.268
 1396SOL    HW2 5637   3.576   0.221   2.323
 1396SOL    HW3 5638   3.650   0.090   2.309
 1396SOL    MW4 5639   3.589   0.146   2.281
 1397SOL     OW 5640   3.552   0.401   2.379
 1397SOL    HW2 5641   3.556   0.388   2.474
 1397SOL    HW3 5642   3.628   0.456   2.359
 1397SOL    MW4 5643   3.563   0.407   2.389
 1398SOL     OW 5644   3.782   0.518   2.294
 1398SOL    HW2 5645   3.793   0.610   2.317
 1398SOL    HW3 5646   3.799   0.515   2.199
 1398SOL    MW4 5647   3.785   0.530   2.284
 1399SOL     OW 5648   3.825   0.783   2.358
 1399SOL    HW2 5649   3.814   0.801   2.451
 1399SOL    HW3 5650   3.913   0.815   2.337
 1399SOL    MW4 5651   3.835   0.789   2.367
 1400SOL     OW 5652   3.586   0.870   2.247
 1400SOL    HW2 5653   3.675   0.844   2.274
 1400SOL    HW3 5654   3.595   0.890   2.154
 1400SOL    MW4 5655   3.599   0.869   2.238
 1401SOL     OW 5656   3.602   1.135   2.335
 1401SOL    HW2 5657   3.602   1.143   2.431
 1401SOL    HW3 5658   3.602   1.040   2.319
 1401SOL    MW4 5659   3.602   1.123   2.346
 1402SOL     OW 5660   3.830   1.255   2.248
 1402SOL    HW2 5661   3.815   1.344   2.279
 1402SOL    HW3 5662   3.761   1.203   2.289
 1402SOL    MW4 5663   3.819   1.260   2.257
 1403SOL     OW 5664   3.796   1.507   2.347
 1403SOL    HW2 5665   3.809   1.537   2.437
 1403SOL    HW3 5666   3.729   1.566   2.313
 1403SOL    MW4 5667   3.789   1.519   2.355
 1404SOL     OW 5668   3.542   1.697   2.226
 1404SOL    HW2 5669   3.477   1.630   2.247
 1404SOL    HW3 5670   3.554   1.690   2.131
 1404SOL    MW4 5671   3.535   1.687   2.216
 1405SOL     OW 5672   3.586   1.936   2.361
 1405SOL    HW2 5673   3.649   1.978   2.303
 1405SOL    HW3 5674   3.570   1.851   2.322
 1405SOL    MW4 5675   3.592   1.931   2.348
 1406SOL     OW 5676   3.788   2.068   2.229
 1406SOL    HW2 5677   3.871   2.027   2.254
 1406SOL    HW3 5678   3.790   2.068   2.133
 1406SOL    MW4 5679   3.799   2.062   2.219
 1407SOL     OW 5680   3.793   2.328   2.359
 1407SOL    HW2 5681   3.715   2.380   2.342
 1407SOL    HW3 5682   3.783   2.250   2.304
 1407SOL    MW4 5683   3.782   2.324   2.349
 1408SOL     OW 5684   3.557   2.494   2.280
 1408SOL    HW2 5685   3.497   2.422   2.298
 1408SOL    HW3 5686   3.567   2.494   2.185
 1408SOL    MW4 5687   3.550   2.484   2.270
 1409SOL     OW 5688   3.590   2.763   2.357
 1409SOL    HW2 5689   3.569   2.674   2.332
 1409SOL    HW3 5690   3.518   2.816   2.324
 1409SOL    MW4 5691   3.578   2.758   2.349
 1410SOL     OW 5692   3.866   2.890   2.287
 1410SOL    HW2 5693   3.849   2.974   2.329
 1410SOL    HW3 5694   3.793   2.834   2.316
 1410SOL    MW4 5695   3.854   2.894   2.297
 1411SOL     OW 5696   3.797   3.148   2.388
 1411SOL    HW2 5697   3.809   3.126   2.481
 1411SOL    HW3 5698   3.884   3.174   2.359
 1411SOL    MW4 5699   3.810   3.149   2.397
 1412SOL     OW 5700   3.579   3.278   2.259
 1412SOL    HW2 5701   3.572   3.365   2.298
 1412SOL    HW3 5702   3.666   3.247   2.285
 1412SOL    MW4 5703   3.590   3.286   2.267
 1413SOL     OW 5704   3.596   3.544   2.342
 1413SOL    HW2 5705   3.606   3.569   2.434
 1413SOL    HW3 5706   3.685   3.549   2.306
 1413SOL    MW4 5707   3.609   3.548   2.350
 1414SOL     OW 5708   3.853   3.596   2.265
 1414SOL    HW2 5709   3.846   3.689   2.289
 1414SOL    HW3 5710   3.854   3.596   2.170
 1414SOL    MW4 5711   3.852   3.609   2.256
 1415SOL     OW 5712   3.758   3.864   2.358
 1415SOL    HW2 5713   3.763   3.865   2.454
 1415SOL    HW3 5714   3.830   3.920   2.329
 1415SOL    MW4 5715   3.768   3.871   2.367
 1416SOL     OW 5716   3.560   4.023   2.243
 1416SOL    HW2 5717   3.560   4.092   2.309
 1416SOL    HW3 5718   3.631   3.964   2.269
 1416SOL    MW4 5719   3.569   4.024   2.255
 1417SOL     OW 5720   3.583   4.262   2.374
 1417SOL    HW2 5721   3.653   4.309   2.330
 1417SOL    HW3 5722   3.502   4.301   2.340
 1417SOL    MW4 5723   3.581   4.273   2.364
 1418SOL     OW 5724   3.806   4.374   2.262
 1418SOL    HW2 5725   3.875   4.323   2.304
 1418SOL    HW3 5726   3.806   4.458   2.308
 1418SOL    MW4 5727   3.815   4.378   2.274
 1419SOL     OW 5728   4.265   4.652   2.399
 1419SOL    HW2 5729   4.291   4.653   2.491
 1419SOL    HW3 5730   4.323   4.715   2.356
 1419SOL    MW4 5731   4.276   4.661   2.405
 1420SOL     OW 5732   4.022   0.102   2.279
 1420SOL    HW2 5733   3.994   0.184   2.319
 1420SOL    HW3 5734   4.094   0.072   2.335
 1420SOL    MW4 5735   4.028   0.109   2.291
 1421SOL     OW 5736   4.006   0.356   2.369
 1421SOL    HW2 5737   4.080   0.401   2.327
 1421SOL    HW3 5738   3.931   0.411   2.349
 1421SOL    MW4 5739   4.006   0.369   2.361
 1422SOL     OW 5740   4.225   0.520   2.278
 1422SOL    HW2 5741   4.214   0.603   2.325
 1422SOL    HW3 5742   4.315   0.493   2.296
 1422SOL    MW4 5743   4.236   0.527   2.286
 1423SOL     OW 5744   4.294   0.770   2.389
 1423SOL    HW2 5745   4.223   0.826   2.359
 1423SOL    HW3 5746   4.374   0.819   2.368
 1423SOL    MW4 5747   4.295   0.784   2.382
 1424SOL     OW 5748   4.081   0.891   2.302
 1424SOL    HW2 5749   4.090   0.984   2.323
 1424SOL    HW3 5750   4.095   0.887   2.207
 1424SOL    MW4 5751   4.084   0.903   2.292
 1425SOL     OW 5752   4.059   1.182   2.366
 1425SOL    HW2 5753   4.042   1.173   2.460
 1425SOL    HW3 5754   3.975   1.208   2.329
 1425SOL    MW4 5755   4.046   1.184   2.374
 1426SOL     OW 5756   4.252   1.326   2.255
 1426SOL    HW2 5757   4.197   1.266   2.305
 1426SOL    HW3 5758   4.342   1.304   2.281
 1426SOL    MW4 5759   4.257   1.316   2.265
 1427SOL     OW 5760   4.266   1.570   2.387
 1427SOL    HW2 5761   4.255   1.476   2.374
 1427SOL    HW3 5762   4.340   1.593   2.331
 1427SOL    MW4 5763   4.274   1.561   2.378
 1428SOL     OW 5764   4.028   1.649   2.274
 1428SOL    HW2 5765   4.099   1.603   2.318
 1428SOL    HW3 5766   3.951   1.593   2.285
 1428SOL    MW4 5767   4.027   1.636   2.281
 1429SOL     OW 5768   4.013   1.915   2.319
 1429SOL    HW2 5769   4.026   1.918   2.414
 1429SOL    HW3 5770   4.028   1.823   2.296
 1429SOL    MW4 5771   4.017   1.903   2.328
 1430SOL     OW 5772   4.252   2.036   2.273
 1430SOL    HW2 5773   4.247   2.125   2.309
 1430SOL    HW3 5774   4.166   1.998   2.291
 1430SOL    MW4 5775   4.240   2.043   2.280
 1431SOL     OW 5776   4.244   2.277   2.403
 1431SOL    HW2 5777   4.178   2.327   2.355
 1431SOL    HW3 5778   4.327   2.302   2.362
 1431SOL    MW4 5779   4.247   2.287   2.391
 1432SOL     OW 5780   4.027   2.447   2.264
 1432SOL    HW2 5781   4.026   2.537   2.296
 1432SOL    HW3 5782   3.948   2.408   2.301
 1432SOL    MW4 5783   4.016   2.454   2.273
 1433SOL     OW 5784   4.056   2.703   2.338
 1433SOL    HW2 5785   4.057   2.713   2.434
 1433SOL    HW3 5786   4.008   2.780   2.307
 1433SOL    MW4 5787   4.050   2.714   2.347
 1434SOL     OW 5788   4.307   2.781   2.223
 1434SOL    HW2 5789   4.234   2.735   2.263
 1434SOL    HW3 5790   4.385   2.741   2.261
 1434SOL    MW4 5791   4.308   2.770   2.233
 1435SOL     OW 5792   4.258   3.046   2.319
 1435SOL    HW2 5793   4.246   2.954   2.294
 1435SOL    HW3 5794   4.327   3.077   2.261
 1435SOL    MW4 5795   4.265   3.038   2.308
 1436SOL     OW 5796   4.035   3.211   2.259
 1436SOL    HW2 5797   4.045   3.291   2.310
 1436SOL    HW3 5798   4.113   3.159   2.281
 1436SOL    MW4 5799   4.047   3.214   2.269
 1437SOL     OW 5800   4.097   3.466   2.369
 1437SOL    HW2 5801   4.170   3.509   2.325
 1437SOL    HW3 5802   4.019   3.502   2.327
 1437SOL    MW4 5803   4.096   3.476   2.358
 1438SOL     OW 5804   4.295   3.625   2.248
 1438SOL    HW2 5805   4.261   3.713   2.263
 1438SOL    HW3 5806   4.297   3.616   2.153
 1438SOL    MW4 5807   4.291   3.635   2.238
 1439SOL     OW 5808   4.233   3.891   2.365
 1439SOL    HW2 5809   4.246   3.887   2.459
 1439SOL    HW3 5810   4.318   3.920   2.330
 1439SOL    MW4 5811   4.246   3.894   2.373
 1440SOL     OW 5812   4.019   4.003   2.244
 1440SOL    HW2 5813   4.086   3.952   2.288
 1440SOL    HW3 5814   4.037   3.991   2.151
 1440SOL    MW4 5815   4.030   3.995   2.237
 1441SOL     OW 5816   4.039   4.255   2.359
 1441SOL    HW2 5817   4.104   4.305   2.310
 1441SOL    HW3 5818   4.045   4.166   2.324
 1441SOL    MW4 5819   4.048   4.250   2.348
 1442SOL     OW 5820   4.250   4.415   2.257
 1442SOL    HW2 5821   4.257   4.498   2.303
 1442SOL    HW3 5822   4.320   4.361   2.294
 1442SOL    MW4 5823   4.260   4.419   2.268
 1443SOL     OW 5824   0.231   4.657   2.642
 1443SOL    HW2 5825   0.222   4.565   2.668
 1443SOL    HW3 5826   0.159   4.701   2.687
 1443SOL    MW4 5827   0.220   4.651   2.651
 1444SOL     OW 5828   0.026   0.142   2.761
 1444SOL    HW2 5829   0.026   0.153   2.856
 1444SOL    HW3 5830   0.015   0.231   2.727
 1444SOL    MW4 5831   0.025   0.155   2.769
 1445SOL     OW 5832   0.017   0.405   2.641
 1445SOL    HW2 5833   0.094   0.458   2.662
 1445SOL    HW3 5834   0.010   0.410   2.545
 1445SOL    MW4 5835   0.026   0.413   2.631
 1446SOL     OW 5836   0.257   0.526   2.748
 1446SOL    HW2 5837   0.271   0.522   2.842
 1446SOL    HW3 5838   0.316   0.459   2.712
 1446SOL    MW4 5839   0.267   0.517   2.755
 1447SOL     OW 5840   0.215   0.764   2.650
 1447SOL    HW2 5841   0.297   0.800   2.685
 1447SOL    HW3 5842   0.217   0.672   2.676
 1447SOL    MW4 5843   0.226   0.757   2.658
 1448SOL     OW 5844   0.006   0.902   2.760
 1448SOL    HW2 5845  -0.064   0.838   2.741
 1448SOL    HW3 5846   0.085   0.862   2.723
 1448SOL    MW4 5847   0.007   0.888   2.752
 1449SOL     OW 5848   4.484   1.160   2.644
 1449SOL    HW2 5849   4.562   1.201   2.681
 1449SOL    HW3 5850   4.486   1.070   2.678
 1449SOL    MW4 5851   4.495   1.153   2.653
 1450SOL     OW 5852   0.214   1.275   2.752
 1450SOL    HW2 5853   0.280   1.225   2.705
 1450SOL    HW3 5854   0.221   1.364   2.717
 1450SOL    MW4 5855   0.223   1.280   2.741
 1451SOL     OW 5856   0.219   1.521   2.629
 1451SOL    HW2 5857   0.303   1.559   2.654
 1451SOL    HW3 5858   0.153   1.576   2.670
 1451SOL    MW4 5859   0.222   1.533   2.638
 1452SOL     OW 5860   0.043   1.694   2.764
 1452SOL    HW2 5861   0.018   1.698   2.856
 1452SOL    HW3 5862   0.018   1.779   2.728
 1452SOL    MW4 5863   0.036   1.706   2.771
 1453SOL     OW 5864   4.463   1.942   2.662
 1453SOL    HW2 5865   4.546   1.983   2.685
 1453SOL    HW3 5866   4.462   1.940   2.567
 1453SOL    MW4 5867   4.474   1.947   2.653
 1454SOL     OW 5868   0.223   2.053   2.714
 1454SOL    HW2 5869   0.298   2.001   2.683
 1454SOL    HW3 5870   0.244   2.142   2.688
 1454SOL    MW4 5871   0.236   2.058   2.707
 1455SOL     OW 5872   0.246   2.328   2.661
 1455SOL    HW2 5873   0.321   2.375   2.698
 1455SOL    HW3 5874   0.171   2.362   2.710
 1455SOL    MW4 5875   0.246   2.339   2.672
 1456SOL     OW 5876   0.020   2.425   2.764
 1456SOL    HW2 5877   0.018   2.425   2.860
 1456SOL    HW3 5878  -0.061   2.380   2.739
 1456SOL    MW4 5879   0.009   2.419   2.774
 1457SOL     OW 5880   0.002   2.668   2.593
 1457SOL    HW2 5881  -0.056   2.735   2.629
 1457SOL    HW3 5882  -0.009   2.593   2.652
 1457SOL    MW4 5883  -0.007   2.667   2.605
 1458SOL     OW 5884   0.238   2.825   2.699
 1458SOL    HW2 5885   0.219   2.916   2.675
 1458SOL    HW3 5886   0.158   2.777   2.675
 1458SOL    MW4 5887   0.225   2.831   2.693
 1459SOL     OW 5888   0.212   3.081   2.623
 1459SOL    HW2 5889   0.291   3.118   2.662
 1459SOL    HW3 5890   0.223   3.095   2.529
 1459SOL    MW4 5891   0.224   3.088   2.616
 1460SOL     OW 5892   4.484   3.212   2.740
 1460SOL    HW2 5893   4.415   3.161   2.697
 1460SOL    HW3 5894   4.564   3.188   2.693
 1460SOL    MW4 5895   4.485   3.202   2.728
 1461SOL     OW 5896   4.451   3.494   2.689
 1461SOL    HW2 5897   4.544   3.511   2.705
 1461SOL    HW3 5898   4.436   3.406   2.723
 1461SOL    MW4 5899   4.461   3.485   2.696
 1462SOL     OW 5900   0.211   3.582   2.746
 1462SOL    HW2 5901   0.208   3.582   2.842
 1462SOL    HW3 5902   0.295   3.542   2.724
 1462SOL    MW4 5903   0.221   3.577   2.756
 1463SOL     OW 5904   0.212   3.859   2.667
 1463SOL    HW2 5905   0.205   3.766   2.692
 1463SOL    HW3 5906   0.228   3.857   2.572
 1463SOL    MW4 5907   0.213   3.846   2.658
 1464SOL     OW 5908   4.488   4.021   2.747
 1464SOL    HW2 5909   4.479   4.102   2.696
 1464SOL    HW3 5910   4.561   3.975   2.706
 1464SOL    MW4 5911   4.496   4.026   2.735
 1465SOL     OW 5912   0.008   4.268   2.606
 1465SOL    HW2 5913  -0.062   4.314   2.652
 1465SOL    HW3 5914   0.088   4.291   2.654
 1465SOL    MW4 5915   0.009   4.277   2.618
 1466SOL     OW 5916   0.223   4.394   2.743
 1466SOL    HW2 5917   0.239   4.379   2.836
 1466SOL    HW3 5918   0.301   4.360   2.699
 1466SOL    MW4 5919   0.235   4.388   2.749
 1467SOL     OW 5920   0.664   4.639   2.645
 1467SOL    HW2 5921   0.734   4.700   2.668
 1467SOL    HW3 5922   0.583   4.683   2.673
 1467SOL    MW4 5923   0.662   4.653   2.651
 1468SOL     OW 5924   0.459   0.100   2.742
 1468SOL    HW2 5925   0.461   0.086   2.836
 1468SOL    HW3 5926   0.377   0.060   2.713
 1468SOL    MW4 5927   0.448   0.093   2.750
 1469SOL     OW 5928   0.470   0.379   2.632
 1469SOL    HW2 5929   0.531   0.432   2.683
 1469SOL    HW3 5930   0.479   0.291   2.670
 1469SOL    MW4 5931   0.479   0.374   2.644
 1470SOL     OW 5932   0.658   0.506   2.775
 1470SOL    HW2 5933   0.656   0.509   2.870
 1470SOL    HW3 5934   0.743   0.468   2.754
 1470SOL    MW4 5935   0.669   0.501   2.785
 1471SOL     OW 5936   0.697   0.731   2.628
 1471SOL    HW2 5937   0.778   0.772   2.660
 1471SOL    HW3 5938   0.687   0.653   2.683
 1471SOL    MW4 5939   0.707   0.726   2.640
 1472SOL     OW 5940   0.468   0.858   2.742
 1472SOL    HW2 5941   0.465   0.939   2.692
 1472SOL    HW3 5942   0.542   0.809   2.705
 1472SOL    MW4 5943   0.477   0.862   2.731
 1473SOL     OW 5944   0.412   1.122   2.656
 1473SOL    HW2 5945   0.486   1.164   2.700
 1473SOL    HW3 5946   0.424   1.142   2.564
 1473SOL    MW4 5947   0.423   1.130   2.650
 1474SOL     OW 5948   0.640   1.241   2.769
 1474SOL    HW2 5949   0.643   1.249   2.864
 1474SOL    HW3 5950   0.721   1.196   2.745
 1474SOL    MW4 5951   0.651   1.236   2.778
 1475SOL     OW 5952   0.666   1.494   2.633
 1475SOL    HW2 5953   0.597   1.551   2.666
 1475SOL    HW3 5954   0.644   1.407   2.668
 1475SOL    MW4 5955   0.654   1.490   2.642
 1476SOL     OW 5956   0.446   1.650   2.714
 1476SOL    HW2 5957   0.447   1.664   2.809
 1476SOL    HW3 5958   0.455   1.737   2.677
 1476SOL    MW4 5959   0.447   1.663   2.722
 1477SOL     OW 5960   0.447   1.908   2.622
 1477SOL    HW2 5961   0.521   1.963   2.646
 1477SOL    HW3 5962   0.445   1.911   2.526
 1477SOL    MW4 5963   0.456   1.915   2.612
 1478SOL     OW 5964   0.660   2.062   2.701
 1478SOL    HW2 5965   0.658   2.071   2.796
 1478SOL    HW3 5966   0.744   2.020   2.682
 1478SOL    MW4 5967   0.671   2.058   2.711
 1479SOL     OW 5968   0.664   2.320   2.626
 1479SOL    HW2 5969   0.748   2.355   2.657
 1479SOL    HW3 5970   0.668   2.227   2.648
 1479SOL    MW4 5971   0.676   2.312   2.633
 1480SOL     OW 5972   0.473   2.457   2.766
 1480SOL    HW2 5973   0.466   2.537   2.713
 1480SOL    HW3 5974   0.537   2.403   2.720
 1480SOL    MW4 5975   0.481   2.460   2.753
 1481SOL     OW 5976   0.471   2.698   2.616
 1481SOL    HW2 5977   0.545   2.746   2.652
 1481SOL    HW3 5978   0.394   2.742   2.653
 1481SOL    MW4 5979   0.471   2.710   2.625
 1482SOL     OW 5980   0.674   2.818   2.748
 1482SOL    HW2 5981   0.652   2.840   2.839
 1482SOL    HW3 5982   0.673   2.902   2.703
 1482SOL    MW4 5983   0.671   2.832   2.754
 1483SOL     OW 5984   0.678   3.094   2.676
 1483SOL    HW2 5985   0.761   3.121   2.715
 1483SOL    HW3 5986   0.691   3.104   2.582
 1483SOL    MW4 5987   0.691   3.099   2.669
 1484SOL     OW 5988   0.433   3.176   2.782
 1484SOL    HW2 5989   0.429   3.190   2.876
 1484SOL    HW3 5990   0.517   3.132   2.768
 1484SOL    MW4 5991   0.444   3.172   2.792
 1485SOL     OW 5992   0.458   3.461   2.680
 1485SOL    HW2 5993   0.448   3.368   2.701
 1485SOL    HW3 5994   0.463   3.463   2.584
 1485SOL    MW4 5995   0.458   3.449   2.670
 1486SOL     OW 5996   0.673   3.619   2.718
 1486SOL    HW2 5997   0.667   3.641   2.811
 1486SOL    HW3 5998   0.596   3.566   2.700
 1486SOL    MW4 5999   0.662   3.615   2.727
 1487SOL     OW 6000   0.641   3.885   2.622
 1487SOL    HW2 6001   0.577   3.918   2.684
 1487SOL    HW3 6002   0.657   3.795   2.649
 1487SOL    MW4 6003   0.635   3.878   2.634
 1488SOL     OW 6004   0.442   4.020   2.759
 1488SOL    HW2 6005   0.438   4.100   2.707
 1488SOL    HW3 6006   0.361   3.973   2.737
 1488SOL    MW4 6007   0.431   4.025   2.749
 1489SOL     OW 6008   0.457   4.285   2.652
 1489SOL    HW2 6009   0.523   4.332   2.702
 1489SOL    HW3 6010   0.484   4.294   2.561
 1489SOL    MW4 6011   0.469   4.292   2.647
 1490SOL     OW 6012   0.661   4.396   2.788
 1490SOL    HW2 6013   0.738   4.347   2.758
 1490SOL    HW3 6014   0.663   4.477   2.737
 1490SOL    MW4 6015   0.671   4.400   2.777
 1491SOL     OW 6016   1.130   4.617   2.634
 1491SOL    HW2 6017   1.209   4.651   2.675
 1491SOL    HW3 6018   1.126   4.525   2.662
 1491SOL    MW4 6019   1.140   4.609   2.644
 1492SOL     OW 6020   0.903   0.110   2.723
 1492SOL    HW2 6021   0.907   0.111   2.818
 1492SOL    HW3 6022   0.986   0.070   2.696
 1492SOL    MW4 6023   0.914   0.105   2.732
 1493SOL     OW 6024   0.889   0.391   2.673
 1493SOL    HW2 6025   0.885   0.295   2.679
 1493SOL    HW3 6026   0.901   0.408   2.579
 1493SOL    MW4 6027   0.890   0.380   2.661
 1494SOL     OW 6028   1.133   0.486   2.737
 1494SOL    HW2 6029   1.128   0.577   2.708
 1494SOL    HW3 6030   1.052   0.446   2.705
 1494SOL    MW4 6031   1.122   0.492   2.729
 1495SOL     OW 6032   1.124   0.754   2.656
 1495SOL    HW2 6033   1.195   0.805   2.696
 1495SOL    HW3 6034   1.143   0.758   2.562
 1495SOL    MW4 6035   1.136   0.761   2.649
 1496SOL     OW 6036   0.901   0.872   2.755
 1496SOL    HW2 6037   0.916   0.893   2.847
 1496SOL    HW3 6038   0.980   0.825   2.727
 1496SOL    MW4 6039   0.913   0.868   2.763
 1497SOL     OW 6040   0.881   1.136   2.690
 1497SOL    HW2 6041   0.894   1.042   2.696
 1497SOL    HW3 6042   0.909   1.158   2.601
 1497SOL    MW4 6043   0.886   1.127   2.679
 1498SOL     OW 6044   1.109   1.240   2.804
 1498SOL    HW2 6045   1.118   1.310   2.739
 1498SOL    HW3 6046   1.023   1.201   2.785
 1498SOL    MW4 6047   1.099   1.244   2.793
 1499SOL     OW 6048   1.122   1.478   2.641
 1499SOL    HW2 6049   1.047   1.535   2.656
 1499SOL    HW3 6050   1.134   1.478   2.546
 1499SOL    MW4 6051   1.113   1.486   2.630
 1500SOL     OW 6052   0.899   1.634   2.709
 1500SOL    HW2 6053   0.895   1.639   2.805
 1500SOL    HW3 6054   0.836   1.567   2.686
 1500SOL    MW4 6055   0.890   1.626   2.719
 1501SOL     OW 6056   0.884   1.908   2.609
 1501SOL    HW2 6057   0.954   1.960   2.648
 1501SOL    HW3 6058   0.910   1.817   2.625
 1501SOL    MW4 6059   0.897   1.903   2.616
 1502SOL     OW 6060   1.101   2.062   2.716
 1502SOL    HW2 6061   1.184   2.023   2.692
 1502SOL    HW3 6062   1.102   2.149   2.674
 1502SOL    MW4 6063   1.112   2.069   2.707
 1503SOL     OW 6064   1.124   2.318   2.619
 1503SOL    HW2 6065   1.202   2.363   2.651
 1503SOL    HW3 6066   1.118   2.343   2.527
 1503SOL    MW4 6067   1.133   2.327   2.611
 1504SOL     OW 6068   0.904   2.409   2.743
 1504SOL    HW2 6069   0.902   2.499   2.712
 1504SOL    HW3 6070   0.979   2.370   2.698
 1504SOL    MW4 6071   0.914   2.416   2.733
 1505SOL     OW 6072   0.874   2.673   2.635
 1505SOL    HW2 6073   0.947   2.714   2.680
 1505SOL    HW3 6074   0.796   2.710   2.676
 1505SOL    MW4 6075   0.873   2.683   2.646
 1506SOL     OW 6076   1.083   2.832   2.735
 1506SOL    HW2 6077   1.106   2.825   2.828
 1506SOL    HW3 6078   1.159   2.795   2.689
 1506SOL    MW4 6079   1.096   2.826   2.741
 1507SOL     OW 6080   1.148   3.096   2.655
 1507SOL    HW2 6081   1.122   3.007   2.677
 1507SOL    HW3 6082   1.136   3.101   2.560
 1507SOL    MW4 6083   1.143   3.085   2.645
 1508SOL     OW 6084   0.919   3.208   2.767
 1508SOL    HW2 6085   0.903   3.287   2.715
 1508SOL    HW3 6086   1.006   3.179   2.741
 1508SOL    MW4 6087   0.929   3.215   2.757
 1509SOL     OW 6088   0.887   3.462   2.637
 1509SOL    HW2 6089   0.960   3.509   2.676
 1509SOL    HW3 6090   0.810   3.512   2.664
 1509SOL    MW4 6091   0.886   3.475   2.646
 1510SOL     OW 6092   1.102   3.599   2.774
 1510SOL    HW2 6093   1.101   3.626   2.866
 1510SOL    HW3 6094   1.100   3.682   2.725
 1510SOL    MW4 6095   1.102   3.614   2.780
 1511SOL     OW 6096   1.098   3.851   2.622
 1511SOL    HW2 6097   1.178   3.889   2.659
 1511SOL    HW3 6098   1.111   3.859   2.527
 1511SOL    MW4 6099   1.110   3.857   2.614
 1512SOL     OW 6100   0.893   4.008   2.729
 1512SOL    HW2 6101   0.957   3.963   2.674
 1512SOL    HW3 6102   0.809   3.968   2.704
 1512SOL    MW4 6103   0.890   3.997   2.718
 1513SOL     OW 6104   0.888   4.266   2.665
 1513SOL    HW2 6105   0.892   4.173   2.689
 1513SOL    HW3 6106   0.884   4.265   2.569
 1513SOL    MW4 6107   0.888   4.253   2.655
 1514SOL     OW 6108   1.144   4.351   2.722
 1514SOL    HW2 6109   1.137   4.378   2.813
 1514SOL    HW3 6110   1.055   4.327   2.697
 1514SOL    MW4 6111   1.131   4.351   2.731
 1515SOL     OW 6112   1.593   4.643   2.655
 1515SOL    HW2 6113   1.588   4.549   2.671
 1515SOL    HW3 6114   1.581   4.652   2.561
 1515SOL    MW4 6115   1.591   4.632   2.645
 1516SOL     OW 6116   1.351   0.086   2.746
 1516SOL    HW2 6117   1.350   0.171   2.702
 1516SOL    HW3 6118   1.436   0.049   2.726
 1516SOL    MW4 6119   1.362   0.093   2.737
 1517SOL     OW 6120   1.360   0.344   2.646
 1517SOL    HW2 6121   1.437   0.387   2.682
 1517SOL    HW3 6122   1.286   0.396   2.678
 1517SOL    MW4 6123   1.360   0.356   2.655
 1518SOL     OW 6124   1.566   0.501   2.735
 1518SOL    HW2 6125   1.641   0.458   2.694
 1518SOL    HW3 6126   1.565   0.589   2.695
 1518SOL    MW4 6127   1.576   0.507   2.724
 1519SOL     OW 6128   1.571   0.749   2.637
 1519SOL    HW2 6129   1.490   0.778   2.680
 1519SOL    HW3 6130   1.566   0.787   2.549
 1519SOL    MW4 6131   1.559   0.758   2.631
 1520SOL     OW 6132   1.337   0.859   2.764
 1520SOL    HW2 6133   1.328   0.833   2.856
 1520SOL    HW3 6134   1.331   0.955   2.766
 1520SOL    MW4 6135   1.335   0.869   2.776
 1521SOL     OW 6136   1.335   1.125   2.679
 1521SOL    HW2 6137   1.413   1.167   2.716
 1521SOL    HW3 6138   1.262   1.163   2.728
 1521SOL    MW4 6139   1.335   1.135   2.691
 1522SOL     OW 6140   1.558   1.260   2.777
 1522SOL    HW2 6141   1.578   1.271   2.870
 1522SOL    HW3 6142   1.639   1.228   2.738
 1522SOL    MW4 6143   1.571   1.257   2.784
 1523SOL     OW 6144   1.515   1.539   2.694
 1523SOL    HW2 6145   1.527   1.446   2.716
 1523SOL    HW3 6146   1.510   1.540   2.598
 1523SOL    MW4 6147   1.516   1.526   2.684
 1524SOL     OW 6148   1.300   1.665   2.776
 1524SOL    HW2 6149   1.380   1.625   2.743
 1524SOL    HW3 6150   1.230   1.605   2.749
 1524SOL    MW4 6151   1.301   1.652   2.768
 1525SOL     OW 6152   1.342   1.924   2.641
 1525SOL    HW2 6153   1.316   1.841   2.679
 1525SOL    HW3 6154   1.337   1.911   2.547
 1525SOL    MW4 6155   1.338   1.911   2.634
 1526SOL     OW 6156   1.584   2.067   2.742
 1526SOL    HW2 6157   1.662   2.038   2.695
 1526SOL    HW3 6158   1.515   2.006   2.713
 1526SOL    MW4 6159   1.585   2.055   2.732
 1527SOL     OW 6160   1.562   2.317   2.654
 1527SOL    HW2 6161   1.644   2.356   2.682
 1527SOL    HW3 6162   1.565   2.227   2.688
 1527SOL    MW4 6163   1.573   2.310   2.662
 1528SOL     OW 6164   1.332   2.452   2.719
 1528SOL    HW2 6165   1.338   2.539   2.679
 1528SOL    HW3 6166   1.416   2.411   2.698
 1528SOL    MW4 6167   1.344   2.458   2.711
 1529SOL     OW 6168   1.329   2.709   2.634
 1529SOL    HW2 6169   1.409   2.736   2.678
 1529SOL    HW3 6170   1.351   2.707   2.541
 1529SOL    MW4 6171   1.342   2.712   2.628
 1530SOL     OW 6172   1.573   2.787   2.713
 1530SOL    HW2 6173   1.569   2.818   2.803
 1530SOL    HW3 6174   1.663   2.757   2.702
 1530SOL    MW4 6175   1.584   2.787   2.723
 1531SOL     OW 6176   1.597   3.047   2.609
 1531SOL    HW2 6177   1.667   3.093   2.655
 1531SOL    HW3 6178   1.593   2.961   2.651
 1531SOL    MW4 6179   1.606   3.042   2.621
 1532SOL     OW 6180   1.387   3.208   2.711
 1532SOL    HW2 6181   1.448   3.151   2.664
 1532SOL    HW3 6182   1.303   3.163   2.704
 1532SOL    MW4 6183   1.384   3.194   2.704
 1533SOL     OW 6184   1.302   3.459   2.618
 1533SOL    HW2 6185   1.319   3.370   2.647
 1533SOL    HW3 6186   1.230   3.490   2.672
 1533SOL    MW4 6187   1.295   3.452   2.629
 1534SOL     OW 6188   1.556   3.601   2.701
 1534SOL    HW2 6189   1.633   3.551   2.674
 1534SOL    HW3 6190   1.482   3.544   2.680
 1534SOL    MW4 6191   1.556   3.587   2.695
 1535SOL     OW 6192   1.581   3.904   2.648
 1535SOL    HW2 6193   1.495   3.930   2.679
 1535SOL    HW3 6194   1.587   3.811   2.667
 1535SOL    MW4 6195   1.571   3.895   2.655
 1536SOL     OW 6196   1.337   3.976   2.743
 1536SOL    HW2 6197   1.345   3.982   2.838
 1536SOL    HW3 6198   1.341   4.066   2.712
 1536SOL    MW4 6199   1.339   3.988   2.751
 1537SOL     OW 6200   1.379   4.239   2.641
 1537SOL    HW2 6201   1.294   4.278   2.664
 1537SOL    HW3 6202   1.382   4.243   2.545
 1537SOL    MW4 6203   1.368   4.245   2.631
 1538SOL     OW 6204   1.571   4.383   2.737
 1538SOL    HW2 6205   1.552   4.406   2.828
 1538SOL    HW3 6206   1.493   4.335   2.708
 1538SOL    MW4 6207   1.558   4.379   2.746
 1539SOL     OW 6208   2.016   0.050   2.649
 1539SOL    HW2 6209   2.102   0.072   2.685
 1539SOL    HW3 6210   2.031   0.038   2.555
 1539SOL    MW4 6211   2.029   0.051   2.641
 1540SOL     OW 6212   1.789   0.149   2.771
 1540SOL    HW2 6213   1.873   0.112   2.744
 1540SOL    HW3 6214   1.724   0.099   2.722
 1540SOL    MW4 6215   1.791   0.137   2.761
 1541SOL     OW 6216   1.769   0.374   2.615
 1541SOL    HW2 6217   1.854   0.408   2.643
 1541SOL    HW3 6218   1.753   0.298   2.672
 1541SOL    MW4 6219   1.778   0.368   2.626
 1542SOL     OW 6220   1.984   0.492   2.745
 1542SOL    HW2 6221   2.064   0.448   2.715
 1542SOL    HW3 6222   1.998   0.584   2.720
 1542SOL    MW4 6223   1.996   0.499   2.738
 1543SOL     OW 6224   2.029   0.754   2.647
 1543SOL    HW2 6225   1.949   0.800   2.671
 1543SOL    HW3 6226   2.029   0.755   2.551
 1543SOL    MW4 6227   2.019   0.760   2.637
 1544SOL     OW 6228   1.807   0.875   2.734
 1544SOL    HW2 6229   1.806   0.961   2.693
 1544SOL    HW3 6230   1.742   0.824   2.685
 1544SOL    MW4 6231   1.799   0.880   2.722
 1545SOL     OW 6232   1.780   1.168   2.642
 1545SOL    HW2 6233   1.863   1.209   2.665
 1545SOL    HW3 6234   1.776   1.175   2.546
 1545SOL    MW4 6235   1.790   1.174   2.632
 1546SOL     OW 6236   2.011   1.304   2.718
 1546SOL    HW2 6237   2.021   1.309   2.813
 1546SOL    HW3 6238   2.097   1.274   2.687
 1546SOL    MW4 6239   2.024   1.301   2.727
 1547SOL     OW 6240   2.000   1.556   2.603
 1547SOL    HW2 6241   1.926   1.601   2.642
 1547SOL    HW3 6242   1.996   1.467   2.639
 1547SOL    MW4 6243   1.990   1.550   2.613
 1548SOL     OW 6244   1.774   1.708   2.719
 1548SOL    HW2 6245   1.772   1.700   2.815
 1548SOL    HW3 6246   1.696   1.663   2.690
 1548SOL    MW4 6247   1.764   1.701   2.728
 1549SOL     OW 6248   1.794   1.958   2.612
 1549SOL    HW2 6249   1.878   1.994   2.640
 1549SOL    HW3 6250   1.783   1.878   2.663
 1549SOL    MW4 6251   1.804   1.952   2.622
 1550SOL     OW 6252   2.041   2.066   2.691
 1550SOL    HW2 6253   2.045   2.088   2.785
 1550SOL    HW3 6254   2.035   2.151   2.647
 1550SOL    MW4 6255   2.041   2.080   2.698
 1551SOL     OW 6256   2.046   2.326   2.577
 1551SOL    HW2 6257   2.126   2.374   2.600
 1551SOL    HW3 6258   2.042   2.333   2.481
 1551SOL    MW4 6259   2.056   2.333   2.567
 1552SOL     OW 6260   1.823   2.409   2.713
 1552SOL    HW2 6261   1.833   2.391   2.806
 1552SOL    HW3 6262   1.911   2.396   2.677
 1552SOL    MW4 6263   1.836   2.405   2.720
 1553SOL     OW 6264   1.832   2.682   2.643
 1553SOL    HW2 6265   1.826   2.589   2.663
 1553SOL    HW3 6266   1.845   2.686   2.549
 1553SOL    MW4 6267   1.833   2.670   2.634
 1554SOL     OW 6268   2.025   2.851   2.751
 1554SOL    HW2 6269   2.105   2.807   2.721
 1554SOL    HW3 6270   1.954   2.798   2.716
 1554SOL    MW4 6271   2.026   2.838   2.742
 1555SOL     OW 6272   2.045   3.121   2.641
 1555SOL    HW2 6273   2.049   3.034   2.679
 1555SOL    HW3 6274   2.054   3.107   2.547
 1555SOL    MW4 6275   2.046   3.108   2.633
 1556SOL     OW 6276   1.788   3.219   2.702
 1556SOL    HW2 6277   1.804   3.311   2.681
 1556SOL    HW3 6278   1.873   3.176   2.689
 1556SOL    MW4 6279   1.801   3.226   2.698
 1557SOL     OW 6280   1.803   3.479   2.622
 1557SOL    HW2 6281   1.882   3.528   2.646
 1557SOL    HW3 6282   1.799   3.483   2.527
 1557SOL    MW4 6283   1.813   3.486   2.613
 1558SOL     OW 6284   2.017   3.630   2.708
 1558SOL    HW2 6285   2.029   3.615   2.802
 1558SOL    HW3 6286   2.079   3.571   2.666
 1558SOL    MW4 6287   2.027   3.620   2.715
 1559SOL     OW 6288   2.012   3.900   2.640
 1559SOL    HW2 6289   1.943   3.947   2.687
 1559SOL    HW3 6290   2.004   3.809   2.670
 1559SOL    MW4 6291   2.002   3.894   2.650
 1560SOL     OW 6292   1.796   4.017   2.798
 1560SOL    HW2 6293   1.824   4.097   2.753
 1560SOL    HW3 6294   1.730   3.979   2.740
 1560SOL    MW4 6295   1.791   4.023   2.785
 1561SOL     OW 6296   1.841   4.273   2.648
 1561SOL    HW2 6297   1.749   4.293   2.665
 1561SOL    HW3 6298   1.847   4.265   2.553
 1561SOL    MW4 6299   1.830   4.275   2.638
 1562SOL     OW 6300   2.041   4.447   2.744
 1562SOL    HW2 6301   1.967   4.402   2.702
 1562SOL    HW3 6302   2.037   4.536   2.710
 1562SOL    MW4 6303   2.031   4.452   2.734
 1563SOL     OW 6304   2.492   4.641   2.646
 1563SOL    HW2 6305   2.555   4.700   2.687
 1563SOL    HW3 6306   2.503   4.656   2.552
 1563SOL    MW4 6307   2.501   4.651   2.639
 1564SOL     OW 6308   2.271   0.121   2.744
 1564SOL    HW2 6309   2.267   0.097   2.837
 1564SOL    HW3 6310   2.334   0.060   2.706
 1564SOL    MW4 6311   2.279   0.110   2.751
 1565SOL     OW 6312   2.221   0.358   2.633
 1565SOL    HW2 6313   2.266   0.278   2.659
 1565SOL    HW3 6314   2.212   0.351   2.538
 1565SOL    MW4 6315   2.226   0.346   2.623
 1566SOL     OW 6316   2.457   0.502   2.722
 1566SOL    HW2 6317   2.458   0.593   2.695
 1566SOL    HW3 6318   2.374   0.468   2.688
 1566SOL    MW4 6319   2.446   0.509   2.714
 1567SOL     OW 6320   2.466   0.759   2.629
 1567SOL    HW2 6321   2.404   0.829   2.648
 1567SOL    HW3 6322   2.465   0.752   2.534
 1567SOL    MW4 6323   2.458   0.767   2.619
 1568SOL     OW 6324   2.259   0.925   2.703
 1568SOL    HW2 6325   2.274   0.928   2.797
 1568SOL    HW3 6326   2.180   0.872   2.693
 1568SOL    MW4 6327   2.250   0.918   2.714
 1569SOL     OW 6328   2.245   1.176   2.575
 1569SOL    HW2 6329   2.265   1.086   2.600
 1569SOL    HW3 6330   2.232   1.172   2.480
 1569SOL    MW4 6331   2.246   1.163   2.566
 1570SOL     OW 6332   2.486   1.264   2.709
 1570SOL    HW2 6333   2.563   1.224   2.668
 1570SOL    HW3 6334   2.411   1.227   2.661
 1570SOL    MW4 6335   2.486   1.254   2.697
 1571SOL     OW 6336   2.478   1.569   2.658
 1571SOL    HW2 6337   2.397   1.599   2.700
 1571SOL    HW3 6338   2.476   1.474   2.669
 1571SOL    MW4 6339   2.467   1.560   2.665
 1572SOL     OW 6340   2.215   1.683   2.736
 1572SOL    HW2 6341   2.233   1.767   2.693
 1572SOL    HW3 6342   2.143   1.645   2.685
 1572SOL    MW4 6343   2.208   1.689   2.724
 1573SOL     OW 6344   2.257   1.917   2.599
 1573SOL    HW2 6345   2.183   1.960   2.641
 1573SOL    HW3 6346   2.248   1.939   2.506
 1573SOL    MW4 6347   2.246   1.926   2.592
 1574SOL     OW 6348   2.482   2.035   2.715
 1574SOL    HW2 6349   2.478   2.115   2.662
 1574SOL    HW3 6350   2.402   1.988   2.693
 1574SOL    MW4 6351   2.471   2.039   2.705
 1575SOL     OW 6352   2.510   2.300   2.619
 1575SOL    HW2 6353   2.578   2.363   2.638
 1575SOL    HW3 6354   2.498   2.305   2.524
 1575SOL    MW4 6355   2.517   2.309   2.609
 1576SOL     OW 6356   2.283   2.439   2.679
 1576SOL    HW2 6357   2.282   2.456   2.774
 1576SOL    HW3 6358   2.369   2.401   2.663
 1576SOL    MW4 6359   2.294   2.436   2.690
 1577SOL     OW 6360   2.252   2.732   2.644
 1577SOL    HW2 6361   2.334   2.772   2.675
 1577SOL    HW3 6362   2.273   2.639   2.637
 1577SOL    MW4 6363   2.266   2.725   2.647
 1578SOL     OW 6364   2.484   2.843   2.754
 1578SOL    HW2 6365   2.567   2.800   2.736
 1578SOL    HW3 6366   2.493   2.930   2.715
 1578SOL    MW4 6367   2.496   2.849   2.747
 1579SOL     OW 6368   2.477   3.115   2.642
 1579SOL    HW2 6369   2.402   3.150   2.691
 1579SOL    HW3 6370   2.455   3.131   2.551
 1579SOL    MW4 6371   2.464   3.122   2.637
 1580SOL     OW 6372   2.247   3.248   2.762
 1580SOL    HW2 6373   2.257   3.222   2.854
 1580SOL    HW3 6374   2.174   3.196   2.730
 1580SOL    MW4 6375   2.238   3.238   2.770
 1581SOL     OW 6376   2.255   3.480   2.600
 1581SOL    HW2 6377   2.336   3.527   2.621
 1581SOL    HW3 6378   2.253   3.408   2.663
 1581SOL    MW4 6379   2.265   3.477   2.611
 1582SOL     OW 6380   2.468   3.622   2.685
 1582SOL    HW2 6381   2.451   3.624   2.779
 1582SOL    HW3 6382   2.461   3.714   2.658
 1582SOL    MW4 6383   2.465   3.635   2.693
 1583SOL     OW 6384   2.443   3.898   2.628
 1583SOL    HW2 6385   2.520   3.943   2.663
 1583SOL    HW3 6386   2.371   3.932   2.680
 1583SOL    MW4 6387   2.444   3.908   2.640
 1584SOL     OW 6388   2.229   4.032   2.750
 1584SOL    HW2 6389   2.214   4.023   2.845
 1584SOL    HW3 6390   2.151   3.995   2.710
 1584SOL    MW4 6391   2.217   4.026   2.757
 1585SOL     OW 6392   2.235   4.285   2.621
 1585SOL    HW2 6393   2.237   4.205   2.674
 1585SOL    HW3 6394   2.170   4.340   2.664
 1585SOL    MW4 6395   2.227   4.282   2.634
 1586SOL     OW 6396   2.420   4.404   2.775
 1586SOL    HW2 6397   2.348   4.370   2.722
 1586SOL    HW3 6398   2.446   4.485   2.731
 1586SOL    MW4 6399   2.414   4.411   2.762
 1587SOL     OW 6400   2.926   0.002   2.612
 1587SOL    HW2 6401   3.007   0.042   2.644
 1587SOL    HW3 6402   2.934   0.005   2.517
 1587SOL    MW4 6403   2.938   0.007   2.604
 1588SOL     OW 6404   2.688   0.144   2.738
 1588SOL    HW2 6405   2.691   0.129   2.832
 1588SOL    HW3 6406   2.766   0.099   2.704
 1588SOL    MW4 6407   2.699   0.136   2.746
 1589SOL     OW 6408   2.639   0.380   2.579
 1589SOL    HW2 6409   2.642   0.298   2.627
 1589SOL    HW3 6410   2.576   0.434   2.627
 1589SOL    MW4 6411   2.631   0.377   2.592
 1590SOL     OW 6412   2.897   0.474   2.697
 1590SOL    HW2 6413   2.892   0.569   2.695
 1590SOL    HW3 6414   2.830   0.444   2.636
 1590SOL    MW4 6415   2.888   0.482   2.689
 1591SOL     OW 6416   2.888   0.756   2.632
 1591SOL    HW2 6417   2.965   0.811   2.648
 1591SOL    HW3 6418   2.814   0.812   2.658
 1591SOL    MW4 6419   2.888   0.771   2.638
 1592SOL     OW 6420   2.674   0.915   2.724
 1592SOL    HW2 6421   2.676   0.889   2.816
 1592SOL    HW3 6422   2.615   0.853   2.682
 1592SOL    MW4 6423   2.667   0.904   2.730
 1593SOL     OW 6424   2.698   1.152   2.594
 1593SOL    HW2 6425   2.772   1.192   2.640
 1593SOL    HW3 6426   2.687   1.067   2.636
 1593SOL    MW4 6427   2.706   1.146   2.606
 1594SOL     OW 6428   2.900   1.295   2.718
 1594SOL    HW2 6429   2.896   1.295   2.814
 1594SOL    HW3 6430   2.984   1.254   2.698
 1594SOL    MW4 6431   2.910   1.289   2.728
 1595SOL     OW 6432   2.940   1.548   2.622
 1595SOL    HW2 6433   2.862   1.600   2.640
 1595SOL    HW3 6434   2.924   1.464   2.664
 1595SOL    MW4 6435   2.928   1.544   2.630
 1596SOL     OW 6436   2.725   1.694   2.724
 1596SOL    HW2 6437   2.715   1.721   2.815
 1596SOL    HW3 6438   2.653   1.632   2.710
 1596SOL    MW4 6439   2.714   1.689   2.734
 1597SOL     OW 6440   2.702   1.925   2.586
 1597SOL    HW2 6441   2.719   1.840   2.627
 1597SOL    HW3 6442   2.638   1.967   2.644
 1597SOL    MW4 6443   2.696   1.919   2.599
 1598SOL     OW 6444   2.910   2.054   2.734
 1598SOL    HW2 6445   2.917   2.141   2.696
 1598SOL    HW3 6446   2.842   2.010   2.682
 1598SOL    MW4 6447   2.902   2.060   2.722
 1599SOL     OW 6448   2.934   2.292   2.608
 1599SOL    HW2 6449   3.016   2.337   2.629
 1599SOL    HW3 6450   2.866   2.350   2.643
 1599SOL    MW4 6451   2.936   2.306   2.615
 1600SOL     OW 6452   2.719   2.451   2.684
 1600SOL    HW2 6453   2.714   2.454   2.780
 1600SOL    HW3 6454   2.722   2.543   2.658
 1600SOL    MW4 6455   2.719   2.463   2.693
 1601SOL     OW 6456   2.723   2.735   2.649
 1601SOL    HW2 6457   2.801   2.789   2.661
 1601SOL    HW3 6458   2.707   2.738   2.554
 1601SOL    MW4 6459   2.731   2.743   2.638
 1602SOL     OW 6460   2.961   2.851   2.693
 1602SOL    HW2 6461   2.948   2.849   2.788
 1602SOL    HW3 6462   2.968   2.944   2.672
 1602SOL    MW4 6463   2.960   2.863   2.703
 1603SOL     OW 6464   2.968   3.110   2.637
 1603SOL    HW2 6465   2.894   3.164   2.665
 1603SOL    HW3 6466   2.965   3.114   2.541
 1603SOL    MW4 6467   2.958   3.118   2.628
 1604SOL     OW 6468   2.727   3.236   2.703
 1604SOL    HW2 6469   2.723   3.327   2.673
 1604SOL    HW3 6470   2.643   3.198   2.677
 1604SOL    MW4 6471   2.716   3.243   2.695
 1605SOL     OW 6472   2.697   3.497   2.614
 1605SOL    HW2 6473   2.614   3.541   2.633
 1605SOL    HW3 6474   2.703   3.497   2.519
 1605SOL    MW4 6475   2.687   3.503   2.604
 1606SOL     OW 6476   2.918   3.634   2.713
 1606SOL    HW2 6477   2.924   3.611   2.806
 1606SOL    HW3 6478   2.843   3.584   2.681
 1606SOL    MW4 6479   2.909   3.624   2.721
 1607SOL     OW 6480   2.918   3.889   2.606
 1607SOL    HW2 6481   2.989   3.936   2.650
 1607SOL    HW3 6482   2.912   3.805   2.652
 1607SOL    MW4 6483   2.927   3.884   2.618
 1608SOL     OW 6484   2.685   3.982   2.722
 1608SOL    HW2 6485   2.675   4.077   2.718
 1608SOL    HW3 6486   2.765   3.965   2.673
 1608SOL    MW4 6487   2.694   3.992   2.715
 1609SOL     OW 6488   2.650   4.255   2.676
 1609SOL    HW2 6489   2.723   4.309   2.704
 1609SOL    HW3 6490   2.572   4.301   2.708
 1609SOL    MW4 6491   2.649   4.268   2.684
 1610SOL     OW 6492   2.875   4.427   2.741
 1610SOL    HW2 6493   2.850   4.441   2.833
 1610SOL    HW3 6494   2.893   4.514   2.708
 1610SOL    MW4 6495   2.874   4.440   2.749
 1611SOL     OW 6496   3.380   4.659   2.584
 1611SOL    HW2 6497   3.368   4.574   2.626
 1611SOL    HW3 6498   3.315   4.716   2.625
 1611SOL    MW4 6499   3.370   4.656   2.595
 1612SOL     OW 6500   3.137   0.141   2.700
 1612SOL    HW2 6501   3.130   0.125   2.794
 1612SOL    HW3 6502   3.139   0.237   2.691
 1612SOL    MW4 6503   3.136   0.152   2.711
 1613SOL     OW 6504   3.160   0.408   2.619
 1613SOL    HW2 6505   3.074   0.444   2.642
 1613SOL    HW3 6506   3.153   0.385   2.527
 1613SOL    MW4 6507   3.148   0.410   2.610
 1614SOL     OW 6508   3.377   0.530   2.751
 1614SOL    HW2 6509   3.378   0.623   2.727
 1614SOL    HW3 6510   3.310   0.492   2.696
 1614SOL    MW4 6511   3.368   0.537   2.741
 1615SOL     OW 6512   3.359   0.788   2.655
 1615SOL    HW2 6513   3.434   0.842   2.680
 1615SOL    HW3 6514   3.374   0.767   2.562
 1615SOL    MW4 6515   3.371   0.792   2.646
 1616SOL     OW 6516   3.109   0.893   2.692
 1616SOL    HW2 6517   3.111   0.903   2.787
 1616SOL    HW3 6518   3.183   0.836   2.672
 1616SOL    MW4 6519   3.119   0.887   2.701
 1617SOL     OW 6520   3.125   1.171   2.620
 1617SOL    HW2 6521   3.127   1.077   2.633
 1617SOL    HW3 6522   3.129   1.183   2.525
 1617SOL    MW4 6523   3.126   1.161   2.609
 1618SOL     OW 6524   3.355   1.330   2.690
 1618SOL    HW2 6525   3.384   1.316   2.780
 1618SOL    HW3 6526   3.284   1.267   2.677
 1618SOL    MW4 6527   3.350   1.320   2.700
 1619SOL     OW 6528   3.382   1.593   2.626
 1619SOL    HW2 6529   3.306   1.639   2.662
 1619SOL    HW3 6530   3.372   1.503   2.658
 1619SOL    MW4 6531   3.370   1.587   2.635
 1620SOL     OW 6532   3.151   1.680   2.728
 1620SOL    HW2 6533   3.143   1.762   2.679
 1620SOL    HW3 6534   3.087   1.621   2.687
 1620SOL    MW4 6535   3.141   1.683   2.716
 1621SOL     OW 6536   3.133   1.941   2.613
 1621SOL    HW2 6537   3.201   1.976   2.671
 1621SOL    HW3 6538   3.051   1.960   2.658
 1621SOL    MW4 6539   3.131   1.948   2.626
 1622SOL     OW 6540   3.369   2.049   2.730
 1622SOL    HW2 6541   3.366   2.059   2.825
 1622SOL    HW3 6542   3.383   2.138   2.697
 1622SOL    MW4 6543   3.370   2.062   2.738
 1623SOL     OW 6544   3.386   2.306   2.618
 1623SOL    HW2 6545   3.454   2.365   2.650
 1623SOL    HW3 6546   3.386   2.317   2.523
 1623SOL    MW4 6547   3.395   2.315   2.610
 1624SOL     OW 6548   3.158   2.427   2.708
 1624SOL    HW2 6549   3.153   2.511   2.663
 1624SOL    HW3 6550   3.237   2.385   2.674
 1624SOL    MW4 6551   3.167   2.432   2.698
 1625SOL     OW 6552   3.163   2.687   2.595
 1625SOL    HW2 6553   3.228   2.748   2.632
 1625SOL    HW3 6554   3.079   2.726   2.618
 1625SOL    MW4 6555   3.161   2.700   2.603
 1626SOL     OW 6556   3.392   2.854   2.724
 1626SOL    HW2 6557   3.386   2.845   2.819
 1626SOL    HW3 6558   3.466   2.799   2.699
 1626SOL    MW4 6559   3.401   2.846   2.733
 1627SOL     OW 6560   3.390   3.135   2.653
 1627SOL    HW2 6561   3.406   3.048   2.690
 1627SOL    HW3 6562   3.388   3.121   2.559
 1627SOL    MW4 6563   3.392   3.122   2.646
 1628SOL     OW 6564   3.168   3.254   2.766
 1628SOL    HW2 6565   3.248   3.236   2.715
 1628SOL    HW3 6566   3.101   3.201   2.724
 1628SOL    MW4 6567   3.170   3.244   2.754
 1629SOL     OW 6568   3.130   3.509   2.613
 1629SOL    HW2 6569   3.121   3.440   2.679
 1629SOL    HW3 6570   3.051   3.562   2.623
 1629SOL    MW4 6571   3.118   3.507   2.623
 1630SOL     OW 6572   3.349   3.630   2.732
 1630SOL    HW2 6573   3.353   3.587   2.817
 1630SOL    HW3 6574   3.269   3.596   2.692
 1630SOL    MW4 6575   3.339   3.620   2.738
 1631SOL     OW 6576   3.343   3.911   2.669
 1631SOL    HW2 6577   3.354   3.822   2.702
 1631SOL    HW3 6578   3.359   3.904   2.575
 1631SOL    MW4 6579   3.346   3.898   2.661
 1632SOL     OW 6580   3.118   4.035   2.743
 1632SOL    HW2 6581   3.125   4.123   2.705
 1632SOL    HW3 6582   3.200   3.993   2.719
 1632SOL    MW4 6583   3.130   4.041   2.735
 1633SOL     OW 6584   3.110   4.277   2.619
 1633SOL    HW2 6585   3.031   4.324   2.645
 1633SOL    HW3 6586   3.096   4.256   2.527
 1633SOL    MW4 6587   3.097   4.280   2.610
 1634SOL     OW 6588   3.349   4.414   2.719
 1634SOL    HW2 6589   3.333   4.420   2.813
 1634SOL    HW3 6590   3.266   4.381   2.683
 1634SOL    MW4 6591   3.336   4.411   2.726
 1635SOL     OW 6592   3.829   4.655   2.658
 1635SOL    HW2 6593   3.831   4.572   2.705
 1635SOL    HW3 6594   3.747   4.697   2.685
 1635SOL    MW4 6595   3.819   4.650   2.668
 1636SOL     OW 6596   3.584   0.111   2.728
 1636SOL    HW2 6597   3.571   0.203   2.706
 1636SOL    HW3 6598   3.525   0.063   2.670
 1636SOL    MW4 6599   3.575   0.117   2.718
 1637SOL     OW 6600   3.578   0.382   2.651
 1637SOL    HW2 6601   3.664   0.421   2.669
 1637SOL    HW3 6602   3.515   0.443   2.689
 1637SOL    MW4 6603   3.581   0.395   2.658
 1638SOL     OW 6604   3.810   0.519   2.718
 1638SOL    HW2 6605   3.816   0.514   2.814
 1638SOL    HW3 6606   3.885   0.467   2.688
 1638SOL    MW4 6607   3.821   0.511   2.727
 1639SOL     OW 6608   3.807   0.781   2.630
 1639SOL    HW2 6609   3.730   0.809   2.680
 1639SOL    HW3 6610   3.814   0.687   2.649
 1639SOL    MW4 6611   3.798   0.772   2.639
 1640SOL     OW 6612   3.589   0.913   2.727
 1640SOL    HW2 6613   3.605   0.921   2.821
 1640SOL    HW3 6614   3.590   1.003   2.695
 1640SOL    MW4 6615   3.591   0.926   2.735
 1641SOL     OW 6616   3.587   1.173   2.620
 1641SOL    HW2 6617   3.659   1.212   2.670
 1641SOL    HW3 6618   3.510   1.222   2.647
 1641SOL    MW4 6619   3.587   1.185   2.630
 1642SOL     OW 6620   3.825   1.269   2.731
 1642SOL    HW2 6621   3.912   1.240   2.704
 1642SOL    HW3 6622   3.809   1.347   2.679
 1642SOL    MW4 6623   3.835   1.275   2.721
 1643SOL     OW 6624   3.814   1.518   2.622
 1643SOL    HW2 6625   3.893   1.565   2.652
 1643SOL    HW3 6626   3.742   1.574   2.649
 1643SOL    MW4 6627   3.815   1.532   2.630
 1644SOL     OW 6628   3.637   1.715   2.688
 1644SOL    HW2 6629   3.654   1.803   2.655
 1644SOL    HW3 6630   3.565   1.683   2.635
 1644SOL    MW4 6631   3.630   1.722   2.677
 1645SOL     OW 6632   3.624   1.992   2.622
 1645SOL    HW2 6633   3.539   2.013   2.661
 1645SOL    HW3 6634   3.607   1.989   2.528
 1645SOL    MW4 6635   3.611   1.995   2.615
 1646SOL     OW 6636   3.846   2.072   2.744
 1646SOL    HW2 6637   3.912   2.013   2.707
 1646SOL    HW3 6638   3.763   2.042   2.706
 1646SOL    MW4 6639   3.844   2.060   2.734
 1647SOL     OW 6640   3.808   2.325   2.627
 1647SOL    HW2 6641   3.817   2.234   2.656
 1647SOL    HW3 6642   3.788   2.318   2.534
 1647SOL    MW4 6643   3.806   2.312   2.618
 1648SOL     OW 6644   3.600   2.467   2.730
 1648SOL    HW2 6645   3.602   2.470   2.825
 1648SOL    HW3 6646   3.683   2.426   2.705
 1648SOL    MW4 6647   3.611   2.462   2.739
 1649SOL     OW 6648   3.627   2.725   2.635
 1649SOL    HW2 6649   3.619   2.633   2.660
 1649SOL    HW3 6650   3.612   2.726   2.540
 1649SOL    MW4 6651   3.624   2.713   2.626
 1650SOL     OW 6652   3.823   2.875   2.785
 1650SOL    HW2 6653   3.907   2.853   2.746
 1650SOL    HW3 6654   3.759   2.824   2.736
 1650SOL    MW4 6655   3.826   2.866   2.774
 1651SOL     OW 6656   3.844   3.125   2.668
 1651SOL    HW2 6657   3.776   3.178   2.710
 1651SOL    HW3 6658   3.836   3.039   2.709
 1651SOL    MW4 6659   3.834   3.121   2.679
 1652SOL     OW 6660   3.614   3.308   2.728
 1652SOL    HW2 6661   3.611   3.389   2.676
 1652SOL    HW3 6662   3.547   3.252   2.688
 1652SOL    MW4 6663   3.605   3.312   2.716
 1653SOL     OW 6664   3.612   3.581   2.598
 1653SOL    HW2 6665   3.681   3.610   2.658
 1653SOL    HW3 6666   3.531   3.604   2.642
 1653SOL    MW4 6667   3.611   3.588   2.611
 1654SOL     OW 6668   3.809   3.635   2.768
 1654SOL    HW2 6669   3.878   3.589   2.720
 1654SOL    HW3 6670   3.805   3.721   2.728
 1654SOL    MW4 6671   3.818   3.640   2.756
 1655SOL     OW 6672   3.799   3.876   2.636
 1655SOL    HW2 6673   3.882   3.916   2.664
 1655SOL    HW3 6674   3.731   3.931   2.674
 1655SOL    MW4 6675   3.801   3.888   2.644
 1656SOL     OW 6676   3.589   4.015   2.749
 1656SOL    HW2 6677   3.592   4.099   2.704
 1656SOL    HW3 6678   3.500   3.983   2.733
 1656SOL    MW4 6679   3.577   4.022   2.741
 1657SOL     OW 6680   3.590   4.268   2.654
 1657SOL    HW2 6681   3.522   4.327   2.685
 1657SOL    HW3 6682   3.591   4.278   2.559
 1657SOL    MW4 6683   3.581   4.277   2.645
 1658SOL     OW 6684   3.817   4.410   2.777
 1658SOL    HW2 6685   3.893   4.362   2.745
 1658SOL    HW3 6686   3.742   4.363   2.741
 1658SOL    MW4 6687   3.817   4.398   2.768
 1659SOL     OW 6688   4.305   4.650   2.684
 1659SOL    HW2 6689   4.237   4.700   2.729
 1659SOL    HW3 6690   4.386   4.697   2.705
 1659SOL    MW4 6691   4.307   4.663   2.693
 1660SOL     OW 6692   4.070   0.117   2.746
 1660SOL    HW2 6693   4.055   0.124   2.841
 1660SOL    HW3 6694   3.994   0.068   2.713
 1660SOL    MW4 6695   4.058   0.111   2.754
 1661SOL     OW 6696   4.036   0.369   2.637
 1661SOL    HW2 6697   4.048   0.281   2.672
 1661SOL    HW3 6698   4.025   0.356   2.543
 1661SOL    MW4 6699   4.036   0.356   2.629
 1662SOL     OW 6700   4.254   0.496   2.746
 1662SOL    HW2 6701   4.185   0.447   2.701
 1662SOL    HW3 6702   4.335   0.467   2.703
 1662SOL    MW4 6703   4.255   0.485   2.734
 1663SOL     OW 6704   4.257   0.767   2.671
 1663SOL    HW2 6705   4.263   0.675   2.695
 1663SOL    HW3 6706   4.266   0.768   2.576
 1663SOL    MW4 6707   4.259   0.755   2.662
 1664SOL     OW 6708   4.040   0.896   2.778
 1664SOL    HW2 6709   4.108   0.840   2.742
 1664SOL    HW3 6710   3.958   0.861   2.742
 1664SOL    MW4 6711   4.038   0.884   2.768
 1665SOL     OW 6712   4.065   1.156   2.642
 1665SOL    HW2 6713   4.136   1.205   2.684
 1665SOL    HW3 6714   4.066   1.071   2.685
 1665SOL    MW4 6715   4.075   1.151   2.653
 1666SOL     OW 6716   4.272   1.323   2.782
 1666SOL    HW2 6717   4.294   1.414   2.758
 1666SOL    HW3 6718   4.324   1.270   2.722
 1666SOL    MW4 6719   4.282   1.328   2.771
 1667SOL     OW 6720   4.304   1.577   2.667
 1667SOL    HW2 6721   4.395   1.597   2.691
 1667SOL    HW3 6722   4.303   1.578   2.572
 1667SOL    MW4 6723   4.316   1.580   2.658
 1668SOL     OW 6724   4.045   1.675   2.711
 1668SOL    HW2 6725   4.046   1.684   2.806
 1668SOL    HW3 6726   4.129   1.633   2.690
 1668SOL    MW4 6727   4.056   1.670   2.721
 1669SOL     OW 6728   4.084   1.930   2.629
 1669SOL    HW2 6729   4.147   1.967   2.690
 1669SOL    HW3 6730   4.077   1.838   2.655
 1669SOL    MW4 6731   4.091   1.922   2.641
 1670SOL     OW 6732   4.255   2.055   2.804
 1670SOL    HW2 6733   4.239   2.139   2.761
 1670SOL    HW3 6734   4.330   2.018   2.757
 1670SOL    MW4 6735   4.263   2.061   2.792
 1671SOL     OW 6736   4.248   2.322   2.686
 1671SOL    HW2 6737   4.173   2.381   2.677
 1671SOL    HW3 6738   4.262   2.288   2.597
 1671SOL    MW4 6739   4.240   2.325   2.673
 1672SOL     OW 6740   4.016   2.473   2.718
 1672SOL    HW2 6741   4.021   2.448   2.810
 1672SOL    HW3 6742   3.955   2.411   2.679
 1672SOL    MW4 6743   4.009   2.462   2.725
 1673SOL     OW 6744   4.049   2.743   2.611
 1673SOL    HW2 6745   4.132   2.772   2.648
 1673SOL    HW3 6746   4.037   2.654   2.647
 1673SOL    MW4 6747   4.058   2.735   2.621
 1674SOL     OW 6748   4.312   2.838   2.702
 1674SOL    HW2 6749   4.298   2.839   2.796
 1674SOL    HW3 6750   4.305   2.930   2.676
 1674SOL    MW4 6751   4.309   2.851   2.711
 1675SOL     OW 6752   4.276   3.092   2.621
 1675SOL    HW2 6753   4.201   3.144   2.651
 1675SOL    HW3 6754   4.262   3.083   2.527
 1675SOL    MW4 6755   4.264   3.098   2.613
 1676SOL     OW 6756   4.087   3.254   2.743
 1676SOL    HW2 6757   4.066   3.346   2.726
 1676SOL    HW3 6758   4.004   3.208   2.733
 1676SOL    MW4 6759   4.073   3.260   2.740
 1677SOL     OW 6760   4.047   3.520   2.637
 1677SOL    HW2 6761   4.118   3.570   2.678
 1677SOL    HW3 6762   4.077   3.508   2.546
 1677SOL    MW4 6763   4.061   3.525   2.630
 1678SOL     OW 6764   4.249   3.656   2.741
 1678SOL    HW2 6765   4.252   3.674   2.835
 1678SOL    HW3 6766   4.323   3.598   2.726
 1678SOL    MW4 6767   4.259   3.651   2.751
 1679SOL     OW 6768   4.252   3.917   2.641
 1679SOL    HW2 6769   4.243   3.823   2.656
 1679SOL    HW3 6770   4.340   3.938   2.673
 1679SOL    MW4 6771   4.262   3.908   2.647
 1680SOL     OW 6772   4.011   4.028   2.748
 1680SOL    HW2 6773   4.022   4.025   2.843
 1680SOL    HW3 6774   4.093   3.992   2.714
 1680SOL    MW4 6775   4.023   4.023   2.756
 1681SOL     OW 6776   4.018   4.283   2.664
 1681SOL    HW2 6777   4.004   4.194   2.697
 1681SOL    HW3 6778   4.036   4.271   2.571
 1681SOL    MW4 6779   4.018   4.270   2.656
 1682SOL     OW 6780   4.289   4.384   2.753
 1682SOL    HW2 6781   4.197   4.356   2.751
 1682SOL    HW3 6782   4.287   4.476   2.726
 1682SOL    MW4 6783   4.277   4.392   2.749
 1683SOL     OW 6784   0.184   4.624   3.124
 1683SOL    HW2 6785   0.191   4.644   3.217
 1683SOL    HW3 6786   0.114   4.681   3.092
 1683SOL    MW4 6787   0.176   4.634   3.132
 1684SOL     OW 6788   0.016   0.148   3.028
 1684SOL    HW2 6789  -0.068   0.107   3.049
 1684SOL    HW3 6790   0.014   0.233   3.070
 1684SOL    MW4 6791   0.005   0.153   3.036
 1685SOL     OW 6792   4.483   0.389   3.131
 1685SOL    HW2 6793   4.474   0.379   3.226
 1685SOL    HW3 6794   4.403   0.432   3.104
 1685SOL    MW4 6795   4.471   0.393   3.140
 1686SOL     OW 6796   0.237   0.495   3.025
 1686SOL    HW2 6797   0.311   0.436   3.038
 1686SOL    HW3 6798   0.161   0.444   3.052
 1686SOL    MW4 6799   0.237   0.481   3.030
 1687SOL     OW 6800   0.233   0.753   3.124
 1687SOL    HW2 6801   0.217   0.761   3.218
 1687SOL    HW3 6802   0.222   0.659   3.106
 1687SOL    MW4 6803   0.229   0.742   3.134
 1688SOL     OW 6804   4.485   0.910   3.033
 1688SOL    HW2 6805   4.559   0.853   3.052
 1688SOL    HW3 6806   4.492   0.929   2.939
 1688SOL    MW4 6807   4.496   0.905   3.023
 1689SOL     OW 6808   0.004   1.151   3.164
 1689SOL    HW2 6809  -0.066   1.201   3.122
 1689SOL    HW3 6810   0.001   1.065   3.121
 1689SOL    MW4 6811  -0.006   1.146   3.153
 1690SOL     OW 6812   0.246   1.283   3.034
 1690SOL    HW2 6813   0.167   1.239   3.067
 1690SOL    HW3 6814   0.236   1.280   2.939
 1690SOL    MW4 6815   0.234   1.277   3.026
 1691SOL     OW 6816   0.240   1.542   3.105
 1691SOL    HW2 6817   0.162   1.591   3.080
 1691SOL    HW3 6818   0.227   1.456   3.066
 1691SOL    MW4 6819   0.228   1.537   3.096
 1692SOL     OW 6820   0.005   1.682   3.032
 1692SOL    HW2 6821  -0.065   1.640   3.081
 1692SOL    HW3 6822   0.007   1.772   3.065
 1692SOL    MW4 6823  -0.004   1.689   3.043
 1693SOL     OW 6824   4.477   1.914   3.167
 1693SOL    HW2 6825   4.392   1.947   3.137
 1693SOL    HW3 6826   4.541   1.977   3.131
 1693SOL    MW4 6827   4.475   1.927   3.158
 1694SOL     OW 6828   0.170   2.058   2.989
 1694SOL    HW2 6829   0.193   2.142   3.028
 1694SOL    HW3 6830   0.176   2.073   2.894
 1694SOL    MW4 6831   0.174   2.071   2.981
 1695SOL     OW 6832   0.250   2.311   3.130
 1695SOL    HW2 6833   0.259   2.318   3.225
 1695SOL    HW3 6834   0.323   2.363   3.096
 1695SOL    MW4 6835   0.261   2.319   3.138
 1696SOL     OW 6836   0.008   2.424   3.034
 1696SOL    HW2 6837   0.003   2.513   3.069
 1696SOL    HW3 6838   0.088   2.388   3.072
 1696SOL    MW4 6839   0.018   2.431   3.044
 1697SOL     OW 6840   0.003   2.686   3.115
 1697SOL    HW2 6841   0.003   2.694   3.210
 1697SOL    HW3 6842   0.069   2.749   3.086
 1697SOL    MW4 6843   0.012   2.696   3.124
 1698SOL     OW 6844   0.199   2.862   3.002
 1698SOL    HW2 6845   0.281   2.832   3.040
 1698SOL    HW3 6846   0.214   2.860   2.907
 1698SOL    MW4 6847   0.212   2.858   2.994
 1699SOL     OW 6848   0.164   3.097   3.143
 1699SOL    HW2 6849   0.096   3.137   3.088
 1699SOL    HW3 6850   0.190   3.019   3.096
 1699SOL    MW4 6851   0.158   3.092   3.130
 1700SOL     OW 6852   4.463   3.238   3.010
 1700SOL    HW2 6853   4.390   3.181   3.031
 1700SOL    HW3 6854   4.471   3.234   2.915
 1700SOL    MW4 6855   4.455   3.230   3.001
 1701SOL     OW 6856   4.471   3.497   3.129
 1701SOL    HW2 6857   4.395   3.553   3.112
 1701SOL    HW3 6858   4.454   3.418   3.077
 1701SOL    MW4 6859   4.459   3.494   3.120
 1702SOL     OW 6860   0.204   3.611   3.020
 1702SOL    HW2 6861   0.201   3.704   3.041
 1702SOL    HW3 6862   0.123   3.575   3.058
 1702SOL    MW4 6863   0.193   3.618   3.028
 1703SOL     OW 6864   0.203   3.872   3.124
 1703SOL    HW2 6865   0.190   3.884   3.218
 1703SOL    HW3 6866   0.271   3.935   3.100
 1703SOL    MW4 6867   0.210   3.882   3.133
 1704SOL     OW 6868   4.484   4.027   3.023
 1704SOL    HW2 6869   4.561   3.976   3.049
 1704SOL    HW3 6870   4.489   4.030   2.927
 1704SOL    MW4 6871   4.495   4.020   3.014
 1705SOL     OW 6872   4.484   4.271   3.154
 1705SOL    HW2 6873   4.477   4.257   3.249
 1705SOL    HW3 6874   4.472   4.185   3.116
 1705SOL    MW4 6875   4.482   4.258   3.162
 1706SOL     OW 6876   0.221   4.368   3.030
 1706SOL    HW2 6877   0.139   4.322   3.049
 1706SOL    HW3 6878   0.206   4.458   3.059
 1706SOL    MW4 6879   0.208   4.373   3.036
 1707SOL     OW 6880   0.652   4.651   3.161
 1707SOL    HW2 6881   0.650   4.557   3.141
 1707SOL    HW3 6882   0.582   4.688   3.108
 1707SOL    MW4 6883   0.642   4.643   3.152
 1708SOL     OW 6884   0.429   0.087   3.037
 1708SOL    HW2 6885   0.445   0.176   3.068
 1708SOL    HW3 6886   0.338   0.069   3.060
 1708SOL    MW4 6887   0.419   0.096   3.044
 1709SOL     OW 6888   0.471   0.347   3.105
 1709SOL    HW2 6889   0.467   0.358   3.200
 1709SOL    HW3 6890   0.547   0.399   3.079
 1709SOL    MW4 6891   0.481   0.355   3.114
 1710SOL     OW 6892   0.687   0.529   3.055
 1710SOL    HW2 6893   0.772   0.484   3.057
 1710SOL    HW3 6894   0.706   0.616   3.088
 1710SOL    MW4 6895   0.701   0.534   3.059
 1711SOL     OW 6896   0.727   0.793   3.152
 1711SOL    HW2 6897   0.712   0.775   3.245
 1711SOL    HW3 6898   0.640   0.808   3.116
 1711SOL    MW4 6899   0.714   0.793   3.159
 1712SOL     OW 6900   0.473   0.855   3.023
 1712SOL    HW2 6901   0.393   0.818   3.061
 1712SOL    HW3 6902   0.455   0.862   2.929
 1712SOL    MW4 6903   0.460   0.851   3.016
 1713SOL     OW 6904   0.455   1.109   3.152
 1713SOL    HW2 6905   0.477   1.030   3.103
 1713SOL    HW3 6906   0.381   1.147   3.105
 1713SOL    MW4 6907   0.448   1.104   3.139
 1714SOL     OW 6908   0.673   1.257   3.048
 1714SOL    HW2 6909   0.756   1.232   3.089
 1714SOL    HW3 6910   0.608   1.205   3.094
 1714SOL    MW4 6911   0.676   1.247   3.060
 1715SOL     OW 6912   0.670   1.529   3.115
 1715SOL    HW2 6913   0.699   1.535   3.206
 1715SOL    HW3 6914   0.674   1.435   3.096
 1715SOL    MW4 6915   0.675   1.517   3.125
 1716SOL     OW 6916   0.456   1.666   3.001
 1716SOL    HW2 6917   0.529   1.635   3.054
 1716SOL    HW3 6918   0.386   1.604   3.018
 1716SOL    MW4 6919   0.457   1.653   3.010
 1717SOL     OW 6920   0.408   1.920   3.073
 1717SOL    HW2 6921   0.417   1.829   3.045
 1717SOL    HW3 6922   0.329   1.952   3.028
 1717SOL    MW4 6923   0.399   1.913   3.064
 1718SOL     OW 6924   0.637   2.082   2.975
 1718SOL    HW2 6925   0.700   2.035   3.029
 1718SOL    HW3 6926   0.557   2.029   2.979
 1718SOL    MW4 6927   0.635   2.069   2.983
 1719SOL     OW 6928   0.662   2.343   3.092
 1719SOL    HW2 6929   0.646   2.337   3.186
 1719SOL    HW3 6930   0.650   2.253   3.061
 1719SOL    MW4 6931   0.658   2.330   3.101
 1720SOL     OW 6932   0.437   2.475   3.025
 1720SOL    HW2 6933   0.511   2.419   3.050
 1720SOL    HW3 6934   0.436   2.473   2.930
 1720SOL    MW4 6935   0.447   2.467   3.016
 1721SOL     OW 6936   0.434   2.739   3.128
 1721SOL    HW2 6937   0.506   2.781   3.081
 1721SOL    HW3 6938   0.437   2.647   3.101
 1721SOL    MW4 6939   0.444   2.733   3.118
 1722SOL     OW 6940   0.660   2.857   3.021
 1722SOL    HW2 6941   0.740   2.814   3.048
 1722SOL    HW3 6942   0.669   2.947   3.052
 1722SOL    MW4 6943   0.672   2.864   3.028
 1723SOL     OW 6944   0.683   3.120   3.147
 1723SOL    HW2 6945   0.668   3.117   3.242
 1723SOL    HW3 6946   0.602   3.156   3.111
 1723SOL    MW4 6947   0.670   3.124   3.155
 1724SOL     OW 6948   0.428   3.185   3.055
 1724SOL    HW2 6949   0.426   3.281   3.060
 1724SOL    HW3 6950   0.342   3.157   3.086
 1724SOL    MW4 6951   0.416   3.194   3.059
 1725SOL     OW 6952   0.423   3.465   3.084
 1725SOL    HW2 6953   0.419   3.477   3.179
 1725SOL    HW3 6954   0.345   3.509   3.051
 1725SOL    MW4 6955   0.412   3.472   3.092
 1726SOL     OW 6956   0.626   3.625   2.987
 1726SOL    HW2 6957   0.714   3.605   3.019
 1726SOL    HW3 6958   0.570   3.558   3.029
 1726SOL    MW4 6959   0.630   3.613   2.997
 1727SOL     OW 6960   0.663   3.874   3.087
 1727SOL    HW2 6961   0.696   3.871   3.177
 1727SOL    HW3 6962   0.641   3.784   3.066
 1727SOL    MW4 6963   0.665   3.862   3.096
 1728SOL     OW 6964   0.450   4.044   3.034
 1728SOL    HW2 6965   0.530   3.994   3.049
 1728SOL    HW3 6966   0.438   4.043   2.939
 1728SOL    MW4 6967   0.459   4.038   3.024
 1729SOL     OW 6968   0.451   4.286   3.162
 1729SOL    HW2 6969   0.458   4.202   3.119
 1729SOL    HW3 6970   0.372   4.326   3.126
 1729SOL    MW4 6971   0.442   4.280   3.152
 1730SOL     OW 6972   0.693   4.387   3.060
 1730SOL    HW2 6973   0.604   4.354   3.072
 1730SOL    HW3 6974   0.704   4.391   2.965
 1730SOL    MW4 6975   0.683   4.383   3.049
 1731SOL     OW 6976   1.077   4.635   3.125
 1731SOL    HW2 6977   1.149   4.694   3.102
 1731SOL    HW3 6978   1.006   4.660   3.065
 1731SOL    MW4 6979   1.077   4.646   3.114
 1732SOL     OW 6980   0.875   0.098   2.993
 1732SOL    HW2 6981   0.903   0.182   3.028
 1732SOL    HW3 6982   0.804   0.070   3.050
 1732SOL    MW4 6983   0.869   0.105   3.005
 1733SOL     OW 6984   0.898   0.346   3.125
 1733SOL    HW2 6985   0.895   0.351   3.220
 1733SOL    HW3 6986   0.977   0.395   3.100
 1733SOL    MW4 6987   0.908   0.353   3.134
 1734SOL     OW 6988   1.112   0.475   3.013
 1734SOL    HW2 6989   1.198   0.436   3.031
 1734SOL    HW3 6990   1.100   0.463   2.919
 1734SOL    MW4 6991   1.122   0.468   3.003
 1735SOL     OW 6992   1.113   0.759   3.122
 1735SOL    HW2 6993   1.113   0.740   3.216
 1735SOL    HW3 6994   1.107   0.674   3.080
 1735SOL    MW4 6995   1.112   0.745   3.129
 1736SOL     OW 6996   0.927   0.931   3.013
 1736SOL    HW2 6997   0.981   0.869   3.062
 1736SOL    HW3 6998   0.838   0.898   3.025
 1736SOL    MW4 6999   0.922   0.918   3.021
 1737SOL     OW 7000   0.912   1.183   3.143
 1737SOL    HW2 7001   1.000   1.218   3.130
 1737SOL    HW3 7002   0.917   1.093   3.112
 1737SOL    MW4 7003   0.924   1.176   3.137
 1738SOL     OW 7004   1.169   1.280   3.087
 1738SOL    HW2 7005   1.260   1.252   3.096
 1738SOL    HW3 7006   1.159   1.297   2.993
 1738SOL    MW4 7007   1.180   1.278   3.076
 1739SOL     OW 7008   1.111   1.570   3.117
 1739SOL    HW2 7009   1.198   1.604   3.096
 1739SOL    HW3 7010   1.121   1.475   3.109
 1739SOL    MW4 7011   1.124   1.562   3.113
 1740SOL     OW 7012   0.878   1.669   2.992
 1740SOL    HW2 7013   0.950   1.638   3.047
 1740SOL    HW3 7014   0.802   1.621   3.024
 1740SOL    MW4 7015   0.878   1.658   3.004
 1741SOL     OW 7016   0.829   1.930   3.082
 1741SOL    HW2 7017   0.831   1.899   3.173
 1741SOL    HW3 7018   0.845   1.851   3.030
 1741SOL    MW4 7019   0.831   1.915   3.087
 1742SOL     OW 7020   1.076   2.043   3.005
 1742SOL    HW2 7021   0.991   2.011   3.037
 1742SOL    HW3 7022   1.066   2.047   2.910
 1742SOL    MW4 7023   1.063   2.039   2.997
 1743SOL     OW 7024   1.128   2.297   3.105
 1743SOL    HW2 7025   1.050   2.345   3.076
 1743SOL    HW3 7026   1.117   2.209   3.069
 1743SOL    MW4 7027   1.116   2.292   3.096
 1744SOL     OW 7028   0.909   2.444   3.033
 1744SOL    HW2 7029   0.822   2.405   3.037
 1744SOL    HW3 7030   0.934   2.439   2.941
 1744SOL    MW4 7031   0.901   2.438   3.021
 1745SOL     OW 7032   0.896   2.724   3.114
 1745SOL    HW2 7033   0.901   2.723   3.209
 1745SOL    HW3 7034   0.898   2.632   3.088
 1745SOL    MW4 7035   0.897   2.712   3.123
 1746SOL     OW 7036   1.131   2.821   2.994
 1746SOL    HW2 7037   1.144   2.910   3.027
 1746SOL    HW3 7038   1.051   2.791   3.037
 1746SOL    MW4 7039   1.122   2.829   3.004
 1747SOL     OW 7040   1.148   3.096   3.105
 1747SOL    HW2 7041   1.218   3.147   3.066
 1747SOL    HW3 7042   1.067   3.141   3.078
 1747SOL    MW4 7043   1.146   3.109   3.097
 1748SOL     OW 7044   0.913   3.216   3.044
 1748SOL    HW2 7045   0.831   3.178   3.074
 1748SOL    HW3 7046   0.903   3.225   2.949
 1748SOL    MW4 7047   0.901   3.212   3.035
 1749SOL     OW 7048   0.862   3.499   3.097
 1749SOL    HW2 7049   0.940   3.548   3.072
 1749SOL    HW3 7050   0.885   3.408   3.083
 1749SOL    MW4 7051   0.876   3.494   3.092
 1750SOL     OW 7052   1.097   3.623   3.051
 1750SOL    HW2 7053   1.185   3.591   3.069
 1750SOL    HW3 7054   1.095   3.710   3.091
 1750SOL    MW4 7055   1.108   3.630   3.059
 1751SOL     OW 7056   1.113   3.882   3.144
 1751SOL    HW2 7057   1.094   3.890   3.238
 1751SOL    HW3 7058   1.039   3.925   3.101
 1751SOL    MW4 7059   1.101   3.889   3.151
 1752SOL     OW 7060   0.893   4.003   3.014
 1752SOL    HW2 7061   0.806   3.975   3.042
 1752SOL    HW3 7062   0.890   3.999   2.919
 1752SOL    MW4 7063   0.881   3.999   3.005
 1753SOL     OW 7064   0.927   4.260   3.155
 1753SOL    HW2 7065   0.933   4.175   3.111
 1753SOL    HW3 7066   0.841   4.293   3.131
 1753SOL    MW4 7067   0.916   4.253   3.146
 1754SOL     OW 7068   1.107   4.415   2.980
 1754SOL    HW2 7069   1.029   4.370   3.012
 1754SOL    HW3 7070   1.112   4.494   3.033
 1754SOL    MW4 7071   1.097   4.419   2.991
 1755SOL     OW 7072   1.536   4.646   3.123
 1755SOL    HW2 7073   1.545   4.648   3.219
 1755SOL    HW3 7074   1.451   4.687   3.107
 1755SOL    MW4 7075   1.526   4.652   3.134
 1756SOL     OW 7076   1.295   0.103   3.014
 1756SOL    HW2 7077   1.326   0.192   3.030
 1756SOL    HW3 7078   1.314   0.087   2.922
 1756SOL    MW4 7079   1.302   0.113   3.004
 1757SOL     OW 7080   1.371   0.373   3.100
 1757SOL    HW2 7081   1.355   0.384   3.194
 1757SOL    HW3 7082   1.445   0.430   3.081
 1757SOL    MW4 7083   1.379   0.382   3.110
 1758SOL     OW 7084   1.599   0.512   3.018
 1758SOL    HW2 7085   1.604   0.604   3.045
 1758SOL    HW3 7086   1.589   0.515   2.923
 1758SOL    MW4 7087   1.599   0.525   3.009
 1759SOL     OW 7088   1.642   0.770   3.118
 1759SOL    HW2 7089   1.640   0.758   3.213
 1759SOL    HW3 7090   1.553   0.795   3.095
 1759SOL    MW4 7091   1.630   0.772   3.127
 1760SOL     OW 7092   1.360   0.857   3.050
 1760SOL    HW2 7093   1.368   0.950   3.068
 1760SOL    HW3 7094   1.277   0.831   3.090
 1760SOL    MW4 7095   1.350   0.866   3.058
 1761SOL     OW 7096   1.389   1.118   3.119
 1761SOL    HW2 7097   1.381   1.125   3.214
 1761SOL    HW3 7098   1.473   1.158   3.099
 1761SOL    MW4 7099   1.399   1.125   3.129
 1762SOL     OW 7100   1.594   1.297   3.037
 1762SOL    HW2 7101   1.677   1.261   3.066
 1762SOL    HW3 7102   1.596   1.389   3.065
 1762SOL    MW4 7103   1.605   1.305   3.044
 1763SOL     OW 7104   1.590   1.553   3.119
 1763SOL    HW2 7105   1.668   1.596   3.084
 1763SOL    HW3 7106   1.518   1.613   3.095
 1763SOL    MW4 7107   1.591   1.567   3.111
 1764SOL     OW 7108   1.346   1.695   3.041
 1764SOL    HW2 7109   1.342   1.790   3.055
 1764SOL    HW3 7110   1.333   1.684   2.947
 1764SOL    MW4 7111   1.344   1.706   3.031
 1765SOL     OW 7112   1.336   1.974   3.089
 1765SOL    HW2 7113   1.333   1.973   3.185
 1765SOL    HW3 7114   1.249   2.002   3.062
 1765SOL    MW4 7115   1.325   1.977   3.098
 1766SOL     OW 7116   1.608   2.051   3.010
 1766SOL    HW2 7117   1.524   2.018   3.041
 1766SOL    HW3 7118   1.599   2.052   2.915
 1766SOL    MW4 7119   1.595   2.047   3.002
 1767SOL     OW 7120   1.570   2.329   3.072
 1767SOL    HW2 7121   1.497   2.356   3.016
 1767SOL    HW3 7122   1.581   2.236   3.053
 1767SOL    MW4 7123   1.562   2.320   3.062
 1768SOL     OW 7124   1.360   2.484   2.989
 1768SOL    HW2 7125   1.286   2.436   3.028
 1768SOL    HW3 7126   1.343   2.481   2.895
 1768SOL    MW4 7127   1.348   2.477   2.982
 1769SOL     OW 7128   1.372   2.741   3.110
 1769SOL    HW2 7129   1.362   2.649   3.086
 1769SOL    HW3 7130   1.289   2.782   3.086
 1769SOL    MW4 7131   1.360   2.734   3.104
 1770SOL     OW 7132   1.578   2.862   2.983
 1770SOL    HW2 7133   1.647   2.808   3.020
 1770SOL    HW3 7134   1.497   2.828   3.021
 1770SOL    MW4 7135   1.577   2.851   2.993
 1771SOL     OW 7136   1.602   3.117   3.107
 1771SOL    HW2 7137   1.618   3.114   3.201
 1771SOL    HW3 7138   1.601   3.025   3.080
 1771SOL    MW4 7139   1.604   3.104   3.116
 1772SOL     OW 7140   1.361   3.215   2.994
 1772SOL    HW2 7141   1.435   3.183   3.046
 1772SOL    HW3 7142   1.391   3.212   2.904
 1772SOL    MW4 7143   1.374   3.211   2.989
 1773SOL     OW 7144   1.336   3.490   3.105
 1773SOL    HW2 7145   1.347   3.468   3.198
 1773SOL    HW3 7146   1.339   3.406   3.060
 1773SOL    MW4 7147   1.338   3.476   3.111
 1774SOL     OW 7148   1.551   3.643   2.993
 1774SOL    HW2 7149   1.486   3.582   3.028
 1774SOL    HW3 7150   1.544   3.633   2.898
 1774SOL    MW4 7151   1.542   3.634   2.985
 1775SOL     OW 7152   1.566   3.893   3.163
 1775SOL    HW2 7153   1.650   3.932   3.141
 1775SOL    HW3 7154   1.562   3.812   3.112
 1775SOL    MW4 7155   1.576   3.888   3.153
 1776SOL     OW 7156   1.342   3.986   3.013
 1776SOL    HW2 7157   1.421   3.976   3.066
 1776SOL    HW3 7158   1.277   3.930   3.057
 1776SOL    MW4 7159   1.344   3.977   3.026
 1777SOL     OW 7160   1.290   4.255   3.111
 1777SOL    HW2 7161   1.299   4.166   3.076
 1777SOL    HW3 7162   1.227   4.297   3.052
 1777SOL    MW4 7163   1.283   4.249   3.098
 1778SOL     OW 7164   1.498   4.399   3.006
 1778SOL    HW2 7165   1.423   4.356   3.047
 1778SOL    HW3 7166   1.495   4.489   3.039
 1778SOL    MW4 7167   1.488   4.405   3.016
 1779SOL     OW 7168   2.020   4.658   3.124
 1779SOL    HW2 7169   2.016   4.646   3.218
 1779SOL    HW3 7170   1.943   4.711   3.103
 1779SOL    MW4 7171   2.010   4.664   3.133
 1780SOL     OW 7172   1.773   0.111   3.065
 1780SOL    HW2 7173   1.694   0.060   3.079
 1780SOL    HW3 7174   1.777   0.123   2.970
 1780SOL    MW4 7175   1.763   0.106   3.054
 1781SOL     OW 7176   1.786   0.372   3.146
 1781SOL    HW2 7177   1.767   0.280   3.127
 1781SOL    HW3 7178   1.708   0.419   3.117
 1781SOL    MW4 7179   1.773   0.366   3.139
 1782SOL     OW 7180   1.974   0.521   3.016
 1782SOL    HW2 7181   1.916   0.468   3.071
 1782SOL    HW3 7182   1.950   0.498   2.926
 1782SOL    MW4 7183   1.963   0.511   3.011
 1783SOL     OW 7184   2.045   0.781   3.056
 1783SOL    HW2 7185   1.963   0.819   3.024
 1783SOL    HW3 7186   2.031   0.687   3.054
 1783SOL    MW4 7187   2.033   0.774   3.051
 1784SOL     OW 7188   1.830   0.925   2.994
 1784SOL    HW2 7189   1.764   0.868   3.034
 1784SOL    HW3 7190   1.811   0.922   2.901
 1784SOL    MW4 7191   1.819   0.917   2.987
 1785SOL     OW 7192   1.831   1.169   3.119
 1785SOL    HW2 7193   1.818   1.158   3.214
 1785SOL    HW3 7194   1.844   1.079   3.087
 1785SOL    MW4 7195   1.831   1.155   3.127
 1786SOL     OW 7196   2.049   1.280   2.978
 1786SOL    HW2 7197   2.122   1.236   3.023
 1786SOL    HW3 7198   1.971   1.249   3.024
 1786SOL    MW4 7199   2.048   1.270   2.990
 1787SOL     OW 7200   2.047   1.548   3.103
 1787SOL    HW2 7201   2.040   1.528   3.197
 1787SOL    HW3 7202   2.053   1.462   3.061
 1787SOL    MW4 7203   2.047   1.534   3.110
 1788SOL     OW 7204   1.803   1.687   3.007
 1788SOL    HW2 7205   1.835   1.771   3.039
 1788SOL    HW3 7206   1.879   1.629   3.013
 1788SOL    MW4 7207   1.817   1.690   3.012
 1789SOL     OW 7208   1.862   1.950   3.086
 1789SOL    HW2 7209   1.929   1.998   3.038
 1789SOL    HW3 7210   1.780   1.992   3.061
 1789SOL    MW4 7211   1.860   1.962   3.077
 1790SOL     OW 7212   2.054   2.129   2.981
 1790SOL    HW2 7213   2.130   2.082   3.016
 1790SOL    HW3 7214   2.057   2.215   3.023
 1790SOL    MW4 7215   2.064   2.134   2.991
 1791SOL     OW 7216   2.080   2.356   3.118
 1791SOL    HW2 7217   2.161   2.386   3.076
 1791SOL    HW3 7218   2.011   2.405   3.075
 1791SOL    MW4 7219   2.082   2.366   3.107
 1792SOL     OW 7220   1.824   2.438   2.994
 1792SOL    HW2 7221   1.809   2.532   3.007
 1792SOL    HW3 7222   1.737   2.399   3.008
 1792SOL    MW4 7223   1.810   2.446   2.997
 1793SOL     OW 7224   1.788   2.711   3.072
 1793SOL    HW2 7225   1.786   2.709   3.168
 1793SOL    HW3 7226   1.875   2.745   3.050
 1793SOL    MW4 7227   1.799   2.715   3.082
 1794SOL     OW 7228   2.028   2.844   3.041
 1794SOL    HW2 7229   2.033   2.936   3.066
 1794SOL    HW3 7230   2.036   2.845   2.945
 1794SOL    MW4 7231   2.030   2.857   3.031
 1795SOL     OW 7232   2.038   3.095   3.103
 1795SOL    HW2 7233   2.038   3.122   3.195
 1795SOL    HW3 7234   1.958   3.132   3.067
 1795SOL    MW4 7235   2.028   3.103   3.110
 1796SOL     OW 7236   1.830   3.240   2.983
 1796SOL    HW2 7237   1.748   3.200   3.014
 1796SOL    HW3 7238   1.826   3.230   2.888
 1796SOL    MW4 7239   1.818   3.233   2.975
 1797SOL     OW 7240   1.789   3.530   3.077
 1797SOL    HW2 7241   1.775   3.444   3.037
 1797SOL    HW3 7242   1.716   3.583   3.045
 1797SOL    MW4 7243   1.777   3.525   3.067
 1798SOL     OW 7244   2.038   3.630   2.981
 1798SOL    HW2 7245   2.042   3.710   3.033
 1798SOL    HW3 7246   1.955   3.590   3.004
 1798SOL    MW4 7247   2.028   3.635   2.991
 1799SOL     OW 7248   2.019   3.871   3.115
 1799SOL    HW2 7249   2.039   3.871   3.208
 1799SOL    HW3 7250   1.943   3.929   3.107
 1799SOL    MW4 7251   2.011   3.879   3.126
 1800SOL     OW 7252   1.793   4.035   3.075
 1800SOL    HW2 7253   1.772   4.126   3.095
 1800SOL    HW3 7254   1.790   4.030   2.980
 1800SOL    MW4 7255   1.790   4.046   3.065
 1801SOL     OW 7256   1.726   4.300   3.133
 1801SOL    HW2 7257   1.789   4.358   3.091
 1801SOL    HW3 7258   1.640   4.334   3.107
 1801SOL    MW4 7259   1.723   4.312   3.124
 1802SOL     OW 7260   1.958   4.409   3.026
 1802SOL    HW2 7261   1.960   4.493   3.070
 1802SOL    HW3 7262   1.997   4.426   2.940
 1802SOL    MW4 7263   1.963   4.422   3.020
 1803SOL     OW 7264   2.453   4.627   3.164
 1803SOL    HW2 7265   2.463   4.547   3.113
 1803SOL    HW3 7266   2.377   4.670   3.126
 1803SOL    MW4 7267   2.444   4.622   3.152
 1804SOL     OW 7268   2.271   0.102   3.018
 1804SOL    HW2 7269   2.255   0.196   3.029
 1804SOL    HW3 7270   2.193   0.061   3.056
 1804SOL    MW4 7271   2.259   0.109   3.025
 1805SOL     OW 7272   2.188   0.357   3.073
 1805SOL    HW2 7273   2.190   0.381   3.165
 1805SOL    HW3 7274   2.106   0.394   3.041
 1805SOL    MW4 7275   2.177   0.365   3.081
 1806SOL     OW 7276   2.401   0.517   3.004
 1806SOL    HW2 7277   2.315   0.477   3.009
 1806SOL    HW3 7278   2.417   0.529   2.910
 1806SOL    MW4 7279   2.392   0.513   2.992
 1807SOL     OW 7280   2.458   0.752   3.108
 1807SOL    HW2 7281   2.541   0.770   3.063
 1807SOL    HW3 7282   2.432   0.665   3.076
 1807SOL    MW4 7283   2.466   0.743   3.098
 1808SOL     OW 7284   2.285   0.919   2.978
 1808SOL    HW2 7285   2.347   0.873   3.035
 1808SOL    HW3 7286   2.201   0.877   2.994
 1808SOL    MW4 7287   2.282   0.907   2.987
 1809SOL     OW 7288   2.298   1.176   3.100
 1809SOL    HW2 7289   2.294   1.161   3.195
 1809SOL    HW3 7290   2.309   1.089   3.063
 1809SOL    MW4 7291   2.299   1.163   3.108
 1810SOL     OW 7292   2.515   1.321   2.985
 1810SOL    HW2 7293   2.437   1.281   3.024
 1810SOL    HW3 7294   2.499   1.317   2.891
 1810SOL    MW4 7295   2.502   1.315   2.978
 1811SOL     OW 7296   2.480   1.566   3.094
 1811SOL    HW2 7297   2.392   1.593   3.068
 1811SOL    HW3 7298   2.494   1.483   3.049
 1811SOL    MW4 7299   2.470   1.559   3.084
 1812SOL     OW 7300   2.249   1.700   3.010
 1812SOL    HW2 7301   2.181   1.654   3.060
 1812SOL    HW3 7302   2.214   1.705   2.921
 1812SOL    MW4 7303   2.235   1.695   3.005
 1813SOL     OW 7304   2.243   1.959   3.098
 1813SOL    HW2 7305   2.319   2.006   3.064
 1813SOL    HW3 7306   2.251   1.870   3.063
 1813SOL    MW4 7307   2.254   1.953   3.089
 1814SOL     OW 7308   2.470   2.110   2.997
 1814SOL    HW2 7309   2.548   2.070   3.036
 1814SOL    HW3 7310   2.475   2.087   2.904
 1814SOL    MW4 7311   2.481   2.101   2.990
 1815SOL     OW 7312   2.488   2.359   3.110
 1815SOL    HW2 7313   2.481   2.344   3.204
 1815SOL    HW3 7314   2.484   2.272   3.071
 1815SOL    MW4 7315   2.487   2.346   3.117
 1816SOL     OW 7316   2.285   2.469   2.965
 1816SOL    HW2 7317   2.281   2.552   3.013
 1816SOL    HW3 7318   2.355   2.420   3.009
 1816SOL    MW4 7319   2.294   2.473   2.977
 1817SOL     OW 7320   2.256   2.694   3.113
 1817SOL    HW2 7321   2.321   2.753   3.076
 1817SOL    HW3 7322   2.175   2.745   3.114
 1817SOL    MW4 7323   2.254   2.709   3.109
 1818SOL     OW 7324   2.484   2.835   3.034
 1818SOL    HW2 7325   2.506   2.922   3.067
 1818SOL    HW3 7326   2.487   2.844   2.939
 1818SOL    MW4 7327   2.488   2.848   3.026
 1819SOL     OW 7328   2.530   3.106   3.106
 1819SOL    HW2 7329   2.610   3.153   3.083
 1819SOL    HW3 7330   2.460   3.158   3.066
 1819SOL    MW4 7331   2.531   3.119   3.098
 1820SOL     OW 7332   2.282   3.215   3.030
 1820SOL    HW2 7333   2.264   3.307   3.048
 1820SOL    HW3 7334   2.204   3.169   3.062
 1820SOL    MW4 7335   2.269   3.221   3.037
 1821SOL     OW 7336   2.229   3.475   3.102
 1821SOL    HW2 7337   2.302   3.514   3.055
 1821SOL    HW3 7338   2.151   3.509   3.058
 1821SOL    MW4 7339   2.228   3.484   3.090
 1822SOL     OW 7340   2.430   3.617   2.967
 1822SOL    HW2 7341   2.509   3.570   2.994
 1822SOL    HW3 7342   2.431   3.698   3.018
 1822SOL    MW4 7343   2.440   3.621   2.977
 1823SOL     OW 7344   2.472   3.872   3.105
 1823SOL    HW2 7345   2.477   3.869   3.200
 1823SOL    HW3 7346   2.556   3.910   3.078
 1823SOL    MW4 7347   2.484   3.877   3.114
 1824SOL     OW 7348   2.234   4.020   3.023
 1824SOL    HW2 7349   2.308   3.965   3.052
 1824SOL    HW3 7350   2.156   3.972   3.053
 1824SOL    MW4 7351   2.234   4.006   3.031
 1825SOL     OW 7352   2.194   4.268   3.154
 1825SOL    HW2 7353   2.215   4.179   3.125
 1825SOL    HW3 7354   2.103   4.281   3.127
 1825SOL    MW4 7355   2.185   4.258   3.146
 1826SOL     OW 7356   2.444   4.374   3.057
 1826SOL    HW2 7357   2.361   4.333   3.083
 1826SOL    HW3 7358   2.437   4.381   2.962
 1826SOL    MW4 7359   2.432   4.369   3.048
 1827SOL     OW 7360   2.885   0.037   3.107
 1827SOL    HW2 7361   2.970   0.064   3.073
 1827SOL    HW3 7362   2.882  -0.058   3.091
 1827SOL    MW4 7363   2.896   0.028   3.100
 1828SOL     OW 7364   2.640   0.127   3.002
 1828SOL    HW2 7365   2.721   0.091   3.039
 1828SOL    HW3 7366   2.571   0.073   3.039
 1828SOL    MW4 7367   2.642   0.115   3.012
 1829SOL     OW 7368   2.630   0.388   3.084
 1829SOL    HW2 7369   2.637   0.298   3.050
 1829SOL    HW3 7370   2.544   0.418   3.055
 1829SOL    MW4 7371   2.620   0.380   3.076
 1830SOL     OW 7372   2.875   0.466   2.984
 1830SOL    HW2 7373   2.799   0.418   3.016
 1830SOL    HW3 7374   2.872   0.456   2.889
 1830SOL    MW4 7375   2.865   0.458   2.976
 1831SOL     OW 7376   2.930   0.741   3.051
 1831SOL    HW2 7377   2.924   0.736   3.146
 1831SOL    HW3 7378   2.922   0.650   3.021
 1831SOL    MW4 7379   2.928   0.728   3.059
 1832SOL     OW 7380   2.683   0.868   2.998
 1832SOL    HW2 7381   2.692   0.961   3.018
 1832SOL    HW3 7382   2.772   0.833   3.007
 1832SOL    MW4 7383   2.696   0.876   3.002
 1833SOL     OW 7384   2.719   1.127   3.069
 1833SOL    HW2 7385   2.802   1.173   3.052
 1833SOL    HW3 7386   2.652   1.195   3.062
 1833SOL    MW4 7387   2.721   1.142   3.066
 1834SOL     OW 7388   2.933   1.289   3.006
 1834SOL    HW2 7389   3.019   1.250   3.021
 1834SOL    HW3 7390   2.937   1.373   3.052
 1834SOL    MW4 7391   2.945   1.295   3.014
 1835SOL     OW 7392   2.923   1.569   3.110
 1835SOL    HW2 7393   2.928   1.594   3.202
 1835SOL    HW3 7394   3.003   1.604   3.071
 1835SOL    MW4 7395   2.934   1.577   3.117
 1836SOL     OW 7396   2.712   1.730   3.020
 1836SOL    HW2 7397   2.785   1.677   3.051
 1836SOL    HW3 7398   2.636   1.673   3.027
 1836SOL    MW4 7399   2.711   1.716   3.025
 1837SOL     OW 7400   2.704   2.001   3.095
 1837SOL    HW2 7401   2.790   2.028   3.064
 1837SOL    HW3 7402   2.698   1.908   3.071
 1837SOL    MW4 7403   2.714   1.992   3.088
 1838SOL     OW 7404   2.957   2.059   3.011
 1838SOL    HW2 7405   2.936   2.151   3.028
 1838SOL    HW3 7406   2.950   2.050   2.916
 1838SOL    MW4 7407   2.954   2.070   3.001
 1839SOL     OW 7408   2.898   2.324   3.068
 1839SOL    HW2 7409   2.981   2.367   3.047
 1839SOL    HW3 7410   2.831   2.385   3.036
 1839SOL    MW4 7411   2.900   2.337   3.061
 1840SOL     OW 7412   2.700   2.491   2.971
 1840SOL    HW2 7413   2.722   2.568   3.023
 1840SOL    HW3 7414   2.634   2.445   3.022
 1840SOL    MW4 7415   2.694   2.495   2.984
 1841SOL     OW 7416   2.726   2.718   3.131
 1841SOL    HW2 7417   2.737   2.715   3.226
 1841SOL    HW3 7418   2.636   2.746   3.118
 1841SOL    MW4 7419   2.716   2.721   3.142
 1842SOL     OW 7420   2.921   2.859   2.966
 1842SOL    HW2 7421   3.004   2.823   2.995
 1842SOL    HW3 7422   2.855   2.799   3.003
 1842SOL    MW4 7423   2.923   2.846   2.975
 1843SOL     OW 7424   2.923   3.092   3.118
 1843SOL    HW2 7425   2.873   3.155   3.066
 1843SOL    HW3 7426   2.906   3.007   3.078
 1843SOL    MW4 7427   2.914   3.089   3.106
 1844SOL     OW 7428   2.735   3.252   2.985
 1844SOL    HW2 7429   2.704   3.338   3.013
 1844SOL    HW3 7430   2.736   3.257   2.889
 1844SOL    MW4 7431   2.731   3.264   2.976
 1845SOL     OW 7432   2.658   3.489   3.082
 1845SOL    HW2 7433   2.672   3.472   3.175
 1845SOL    HW3 7434   2.737   3.535   3.054
 1845SOL    MW4 7435   2.670   3.493   3.091
 1846SOL     OW 7436   2.918   3.599   2.977
 1846SOL    HW2 7437   2.993   3.566   3.026
 1846SOL    HW3 7438   2.917   3.693   2.994
 1846SOL    MW4 7439   2.928   3.607   2.986
 1847SOL     OW 7440   2.926   3.859   3.083
 1847SOL    HW2 7441   2.935   3.860   3.179
 1847SOL    HW3 7442   2.843   3.903   3.067
 1847SOL    MW4 7443   2.916   3.865   3.094
 1848SOL     OW 7444   2.693   3.966   2.996
 1848SOL    HW2 7445   2.688   4.055   3.032
 1848SOL    HW3 7446   2.690   3.978   2.901
 1848SOL    MW4 7447   2.692   3.979   2.989
 1849SOL     OW 7448   2.667   4.218   3.128
 1849SOL    HW2 7449   2.688   4.243   3.218
 1849SOL    HW3 7450   2.588   4.268   3.107
 1849SOL    MW4 7451   2.659   4.228   3.137
 1850SOL     OW 7452   2.854   4.428   3.033
 1850SOL    HW2 7453   2.939   4.393   3.060
 1850SOL    HW3 7454   2.790   4.365   3.066
 1850SOL    MW4 7455   2.857   4.415   3.041
 1851SOL     OW 7456   3.362   4.657   3.145
 1851SOL    HW2 7457   3.427   4.705   3.094
 1851SOL    HW3 7458   3.354   4.573   3.100
 1851SOL    MW4 7459   3.370   4.652   3.132
 1852SOL     OW 7460   3.139   0.075   2.993
 1852SOL    HW2 7461   3.131   0.164   3.029
 1852SOL    HW3 7462   3.221   0.042   3.031
 1852SOL    MW4 7463   3.149   0.082   3.003
 1853SOL     OW 7464   3.086   0.334   3.098
 1853SOL    HW2 7465   3.162   0.384   3.069
 1853SOL    HW3 7466   3.012   0.373   3.050
 1853SOL    MW4 7467   3.086   0.346   3.088
 1854SOL     OW 7468   3.331   0.440   3.021
 1854SOL    HW2 7469   3.419   0.418   3.052
 1854SOL    HW3 7470   3.344   0.469   2.931
 1854SOL    MW4 7471   3.345   0.441   3.013
 1855SOL     OW 7472   3.362   0.745   3.090
 1855SOL    HW2 7473   3.357   0.746   3.186
 1855SOL    HW3 7474   3.336   0.656   3.066
 1855SOL    MW4 7475   3.358   0.733   3.100
 1856SOL     OW 7476   3.140   0.889   2.961
 1856SOL    HW2 7477   3.211   0.853   3.014
 1856SOL    HW3 7478   3.062   0.842   2.990
 1856SOL    MW4 7479   3.139   0.878   2.972
 1857SOL     OW 7480   3.168   1.164   3.058
 1857SOL    HW2 7481   3.256   1.198   3.040
 1857SOL    HW3 7482   3.160   1.087   3.003
 1857SOL    MW4 7483   3.179   1.159   3.048
 1858SOL     OW 7484   3.421   1.271   2.954
 1858SOL    HW2 7485   3.484   1.231   3.015
 1858SOL    HW3 7486   3.404   1.358   2.991
 1858SOL    MW4 7487   3.427   1.277   2.967
 1859SOL     OW 7488   3.392   1.525   3.050
 1859SOL    HW2 7489   3.416   1.518   3.142
 1859SOL    HW3 7490   3.454   1.588   3.013
 1859SOL    MW4 7491   3.403   1.532   3.057
 1860SOL     OW 7492   3.181   1.678   3.013
 1860SOL    HW2 7493   3.255   1.622   3.037
 1860SOL    HW3 7494   3.174   1.670   2.918
 1860SOL    MW4 7495   3.190   1.669   3.004
 1861SOL     OW 7496   3.192   1.926   3.106
 1861SOL    HW2 7497   3.199   1.840   3.065
 1861SOL    HW3 7498   3.119   1.968   3.061
 1861SOL    MW4 7499   3.183   1.920   3.094
 1862SOL     OW 7500   3.377   2.107   3.004
 1862SOL    HW2 7501   3.462   2.063   3.008
 1862SOL    HW3 7502   3.316   2.046   3.046
 1862SOL    MW4 7503   3.380   2.094   3.010
 1863SOL     OW 7504   3.360   2.375   3.080
 1863SOL    HW2 7505   3.366   2.355   3.173
 1863SOL    HW3 7506   3.375   2.291   3.037
 1863SOL    MW4 7507   3.363   2.361   3.087
 1864SOL     OW 7508   3.123   2.468   2.982
 1864SOL    HW2 7509   3.191   2.414   3.023
 1864SOL    HW3 7510   3.134   2.452   2.888
 1864SOL    MW4 7511   3.134   2.459   2.975
 1865SOL     OW 7512   3.145   2.734   3.083
 1865SOL    HW2 7513   3.165   2.720   3.176
 1865SOL    HW3 7514   3.133   2.646   3.048
 1865SOL    MW4 7515   3.146   2.720   3.091
 1866SOL     OW 7516   3.393   2.840   3.027
 1866SOL    HW2 7517   3.400   2.934   3.045
 1866SOL    HW3 7518   3.301   2.819   3.046
 1866SOL    MW4 7519   3.381   2.850   3.032
 1867SOL     OW 7520   3.427   3.111   3.120
 1867SOL    HW2 7521   3.429   3.113   3.216
 1867SOL    HW3 7522   3.343   3.149   3.097
 1867SOL    MW4 7523   3.416   3.116   3.130
 1868SOL     OW 7524   3.162   3.201   3.038
 1868SOL    HW2 7525   3.084   3.155   3.068
 1868SOL    HW3 7526   3.150   3.208   2.943
 1868SOL    MW4 7527   3.150   3.196   3.029
 1869SOL     OW 7528   3.141   3.485   3.110
 1869SOL    HW2 7529   3.222   3.524   3.075
 1869SOL    HW3 7530   3.136   3.399   3.068
 1869SOL    MW4 7531   3.151   3.479   3.100
 1870SOL     OW 7532   3.372   3.602   3.017
 1870SOL    HW2 7533   3.459   3.579   3.049
 1870SOL    HW3 7534   3.366   3.697   3.029
 1870SOL    MW4 7535   3.383   3.612   3.023
 1871SOL     OW 7536   3.331   3.872   3.047
 1871SOL    HW2 7537   3.327   3.864   3.142
 1871SOL    HW3 7538   3.252   3.920   3.023
 1871SOL    MW4 7539   3.320   3.877   3.056
 1872SOL     OW 7540   3.116   4.063   3.003
 1872SOL    HW2 7541   3.040   4.016   3.036
 1872SOL    HW3 7542   3.114   4.051   2.909
 1872SOL    MW4 7543   3.106   4.055   2.995
 1873SOL     OW 7544   3.097   4.317   3.107
 1873SOL    HW2 7545   3.106   4.307   3.202
 1873SOL    HW3 7546   3.129   4.234   3.071
 1873SOL    MW4 7547   3.103   4.305   3.115
 1874SOL     OW 7548   3.326   4.431   2.993
 1874SOL    HW2 7549   3.398   4.377   3.026
 1874SOL    HW3 7550   3.249   4.400   3.040
 1874SOL    MW4 7551   3.326   4.420   3.004
 1875SOL     OW 7552   3.812   4.652   3.146
 1875SOL    HW2 7553   3.817   4.558   3.126
 1875SOL    HW3 7554   3.726   4.678   3.114
 1875SOL    MW4 7555   3.801   4.643   3.139
 1876SOL     OW 7556   3.605   0.105   3.007
 1876SOL    HW2 7557   3.620   0.194   3.037
 1876SOL    HW3 7558   3.610   0.111   2.912
 1876SOL    MW4 7559   3.608   0.117   2.998
 1877SOL     OW 7560   3.591   0.373   3.112
 1877SOL    HW2 7561   3.587   0.390   3.206
 1877SOL    HW3 7562   3.649   0.440   3.078
 1877SOL    MW4 7563   3.598   0.384   3.120
 1878SOL     OW 7564   3.795   0.527   2.996
 1878SOL    HW2 7565   3.866   0.485   3.045
 1878SOL    HW3 7566   3.791   0.616   3.032
 1878SOL    MW4 7567   3.804   0.533   3.007
 1879SOL     OW 7568   3.800   0.765   3.136
 1879SOL    HW2 7569   3.815   0.739   3.227
 1879SOL    HW3 7570   3.883   0.803   3.107
 1879SOL    MW4 7571   3.813   0.767   3.144
 1880SOL     OW 7572   3.600   0.911   3.015
 1880SOL    HW2 7573   3.669   0.857   3.053
 1880SOL    HW3 7574   3.519   0.862   3.032
 1880SOL    MW4 7575   3.598   0.898   3.022
 1881SOL     OW 7576   3.608   1.177   3.128
 1881SOL    HW2 7577   3.689   1.223   3.104
 1881SOL    HW3 7578   3.628   1.085   3.110
 1881SOL    MW4 7579   3.622   1.171   3.122
 1882SOL     OW 7580   3.836   1.286   3.014
 1882SOL    HW2 7581   3.827   1.380   3.028
 1882SOL    HW3 7582   3.829   1.275   2.919
 1882SOL    MW4 7583   3.834   1.297   3.003
 1883SOL     OW 7584   3.819   1.543   3.078
 1883SOL    HW2 7585   3.814   1.536   3.174
 1883SOL    HW3 7586   3.736   1.583   3.052
 1883SOL    MW4 7587   3.807   1.547   3.087
 1884SOL     OW 7588   3.602   1.677   2.964
 1884SOL    HW2 7589   3.588   1.764   3.001
 1884SOL    HW3 7590   3.636   1.695   2.876
 1884SOL    MW4 7591   3.605   1.691   2.957
 1885SOL     OW 7592   3.573   1.912   3.073
 1885SOL    HW2 7593   3.566   1.894   3.167
 1885SOL    HW3 7594   3.661   1.948   3.061
 1885SOL    MW4 7595   3.583   1.914   3.084
 1886SOL     OW 7596   3.825   2.062   3.027
 1886SOL    HW2 7597   3.817   2.150   3.065
 1886SOL    HW3 7598   3.853   2.078   2.936
 1886SOL    MW4 7599   3.828   2.076   3.020
 1887SOL     OW 7600   3.797   2.329   3.129
 1887SOL    HW2 7601   3.775   2.335   3.222
 1887SOL    HW3 7602   3.724   2.372   3.084
 1887SOL    MW4 7603   3.784   2.336   3.135
 1888SOL     OW 7604   3.605   2.472   3.004
 1888SOL    HW2 7605   3.603   2.559   3.045
 1888SOL    HW3 7606   3.515   2.440   3.012
 1888SOL    MW4 7607   3.593   2.479   3.011
 1889SOL     OW 7608   3.590   2.697   3.151
 1889SOL    HW2 7609   3.671   2.742   3.125
 1889SOL    HW3 7610   3.520   2.755   3.121
 1889SOL    MW4 7611   3.591   2.710   3.143
 1890SOL     OW 7612   3.822   2.851   3.058
 1890SOL    HW2 7613   3.806   2.943   3.077
 1890SOL    HW3 7614   3.822   2.846   2.963
 1890SOL    MW4 7615   3.820   2.862   3.048
 1891SOL     OW 7616   3.839   3.129   3.091
 1891SOL    HW2 7617   3.922   3.176   3.092
 1891SOL    HW3 7618   3.775   3.194   3.062
 1891SOL    MW4 7619   3.841   3.144   3.087
 1892SOL     OW 7620   3.624   3.266   3.009
 1892SOL    HW2 7621   3.548   3.220   3.043
 1892SOL    HW3 7622   3.611   3.269   2.914
 1892SOL    MW4 7623   3.612   3.261   3.001
 1893SOL     OW 7624   3.622   3.516   3.127
 1893SOL    HW2 7625   3.705   3.558   3.104
 1893SOL    HW3 7626   3.628   3.429   3.088
 1893SOL    MW4 7627   3.634   3.510   3.119
 1894SOL     OW 7628   3.859   3.619   3.037
 1894SOL    HW2 7629   3.845   3.712   3.056
 1894SOL    HW3 7630   3.848   3.612   2.942
 1894SOL    MW4 7631   3.856   3.630   3.027
 1895SOL     OW 7632   3.796   3.904   3.133
 1895SOL    HW2 7633   3.798   3.918   3.227
 1895SOL    HW3 7634   3.712   3.941   3.105
 1895SOL    MW4 7635   3.785   3.911   3.141
 1896SOL     OW 7636   3.562   4.012   3.011
 1896SOL    HW2 7637   3.486   3.957   3.031
 1896SOL    HW3 7638   3.568   4.010   2.915
 1896SOL    MW4 7639   3.553   4.004   3.001
 1897SOL     OW 7640   3.535   4.275   3.129
 1897SOL    HW2 7641   3.611   4.318   3.089
 1897SOL    HW3 7642   3.533   4.188   3.090
 1897SOL    MW4 7643   3.544   4.269   3.119
 1898SOL     OW 7644   3.781   4.395   3.045
 1898SOL    HW2 7645   3.868   4.369   3.076
 1898SOL    HW3 7646   3.793   4.409   2.951
 1898SOL    MW4 7647   3.794   4.393   3.036
 1899SOL     OW 7648   4.268   0.023   3.099
 1899SOL    HW2 7649   4.281   0.021   3.194
 1899SOL    HW3 7650   4.260  -0.069   3.075
 1899SOL    MW4 7651   4.268   0.011   3.109
 1900SOL     OW 7652   4.028   0.157   3.041
 1900SOL    HW2 7653   4.106   0.123   3.084
 1900SOL    HW3 7654   3.956   0.109   3.080
 1900SOL    MW4 7655   4.029   0.146   3.052
 1901SOL     OW 7656   4.015   0.421   3.120
 1901SOL    HW2 7657   4.100   0.452   3.089
 1901SOL    HW3 7658   4.012   0.329   3.096
 1901SOL    MW4 7659   4.026   0.413   3.113
 1902SOL     OW 7660   4.262   0.515   3.024
 1902SOL    HW2 7661   4.270   0.602   3.063
 1902SOL    HW3 7662   4.271   0.530   2.930
 1902SOL    MW4 7663   4.264   0.528   3.017
 1903SOL     OW 7664   4.276   0.747   3.146
 1903SOL    HW2 7665   4.199   0.783   3.104
 1903SOL    HW3 7666   4.348   0.802   3.116
 1903SOL    MW4 7667   4.276   0.759   3.137
 1904SOL     OW 7668   4.046   0.876   3.061
 1904SOL    HW2 7669   4.053   0.966   3.093
 1904SOL    HW3 7670   4.033   0.885   2.967
 1904SOL    MW4 7671   4.045   0.889   3.053
 1905SOL     OW 7672   4.061   1.164   3.091
 1905SOL    HW2 7673   4.054   1.155   3.186
 1905SOL    HW3 7674   3.982   1.210   3.065
 1905SOL    MW4 7675   4.050   1.169   3.100
 1906SOL     OW 7676   4.297   1.298   3.050
 1906SOL    HW2 7677   4.214   1.256   3.070
 1906SOL    HW3 7678   4.294   1.312   2.955
 1906SOL    MW4 7679   4.286   1.295   3.040
 1907SOL     OW 7680   4.275   1.545   3.142
 1907SOL    HW2 7681   4.197   1.575   3.096
 1907SOL    HW3 7682   4.289   1.456   3.109
 1907SOL    MW4 7683   4.267   1.537   3.132
 1908SOL     OW 7684   4.072   1.644   3.009
 1908SOL    HW2 7685   4.064   1.731   3.049
 1908SOL    HW3 7686   3.991   1.599   3.033
 1908SOL    MW4 7687   4.060   1.650   3.017
 1909SOL     OW 7688   4.037   1.909   3.087
 1909SOL    HW2 7689   4.113   1.966   3.092
 1909SOL    HW3 7690   3.963   1.969   3.070
 1909SOL    MW4 7691   4.037   1.925   3.085
 1910SOL     OW 7692   4.277   2.048   3.080
 1910SOL    HW2 7693   4.271   2.142   3.095
 1910SOL    HW3 7694   4.269   2.039   2.985
 1910SOL    MW4 7695   4.275   2.059   3.069
 1911SOL     OW 7696   4.246   2.307   3.104
 1911SOL    HW2 7697   4.179   2.364   3.067
 1911SOL    HW3 7698   4.329   2.347   3.079
 1911SOL    MW4 7699   4.248   2.320   3.096
 1912SOL     OW 7700   4.018   2.459   3.016
 1912SOL    HW2 7701   4.012   2.551   3.040
 1912SOL    HW3 7702   3.941   2.418   3.056
 1912SOL    MW4 7703   4.007   2.466   3.025
 1913SOL     OW 7704   4.069   2.737   3.104
 1913SOL    HW2 7705   4.067   2.728   3.200
 1913SOL    HW3 7706   3.983   2.773   3.083
 1913SOL    MW4 7707   4.057   2.740   3.114
 1914SOL     OW 7708   4.277   2.845   2.974
 1914SOL    HW2 7709   4.203   2.796   3.008
 1914SOL    HW3 7710   4.354   2.805   3.015
 1914SOL    MW4 7711   4.277   2.833   2.984
 1915SOL     OW 7712   4.250   3.092   3.115
 1915SOL    HW2 7713   4.179   3.134   3.066
 1915SOL    HW3 7714   4.254   3.003   3.079
 1915SOL    MW4 7715   4.241   3.086   3.104
 1916SOL     OW 7716   4.063   3.270   3.025
 1916SOL    HW2 7717   4.077   3.363   3.045
 1916SOL    HW3 7718   4.080   3.263   2.931
 1916SOL    MW4 7719   4.067   3.281   3.015
 1917SOL     OW 7720   4.077   3.514   3.167
 1917SOL    HW2 7721   4.066   3.512   3.262
 1917SOL    HW3 7722   4.003   3.567   3.135
 1917SOL    MW4 7723   4.066   3.521   3.175
 1918SOL     OW 7724   4.266   3.686   3.025
 1918SOL    HW2 7725   4.272   3.770   3.070
 1918SOL    HW3 7726   4.200   3.637   3.074
 1918SOL    MW4 7727   4.258   3.691   3.037
 1919SOL     OW 7728   4.254   3.933   3.148
 1919SOL    HW2 7729   4.172   3.953   3.103
 1919SOL    HW3 7730   4.321   3.977   3.097
 1919SOL    MW4 7731   4.252   3.941   3.135
 1920SOL     OW 7732   4.029   4.020   3.036
 1920SOL    HW2 7733   4.026   4.111   3.067
 1920SOL    HW3 7734   3.948   3.981   3.070
 1920SOL    MW4 7735   4.018   4.027   3.044
 1921SOL     OW 7736   4.043   4.288   3.125
 1921SOL    HW2 7737   4.033   4.275   3.219
 1921SOL    HW3 7738   4.132   4.323   3.115
 1921SOL    MW4 7739   4.054   4.291   3.136
 1922SOL     OW 7740   4.282   4.418   3.033
 1922SOL    HW2 7741   4.353   4.363   3.067
 1922SOL    HW3 7742   4.280   4.399   2.939
 1922SOL    MW4 7743   4.291   4.408   3.025
 1923SOL     OW 7744   0.233   0.010   3.386
 1923SOL    HW2 7745   0.307   0.058   3.422
 1923SOL    HW3 7746   0.250  -0.082   3.407
 1923SOL    MW4 7747   0.245   0.004   3.394
 1924SOL     OW 7748   0.019   0.116   3.515
 1924SOL    HW2 7749   0.032   0.208   3.491
 1924SOL    HW3 7750   0.094   0.071   3.477
 1924SOL    MW4 7751   0.031   0.122   3.507
 1925SOL     OW 7752   0.041   0.376   3.421
 1925SOL    HW2 7753  -0.034   0.421   3.460
 1925SOL    HW3 7754   0.117   0.410   3.468
 1925SOL    MW4 7755   0.041   0.386   3.432
 1926SOL     OW 7756   0.267   0.510   3.541
 1926SOL    HW2 7757   0.335   0.471   3.486
 1926SOL    HW3 7758   0.246   0.593   3.498
 1926SOL    MW4 7759   0.273   0.516   3.528
 1927SOL     OW 7760   0.219   0.759   3.438
 1927SOL    HW2 7761   0.294   0.815   3.460
 1927SOL    HW3 7762   0.142   0.814   3.452
 1927SOL    MW4 7763   0.219   0.773   3.443
 1928SOL     OW 7764   4.490   0.895   3.505
 1928SOL    HW2 7765   4.517   0.894   3.597
 1928SOL    HW3 7766   4.493   0.987   3.481
 1928SOL    MW4 7767   4.494   0.907   3.514
 1929SOL     OW 7768   4.464   1.158   3.433
 1929SOL    HW2 7769   4.544   1.198   3.465
 1929SOL    HW3 7770   4.463   1.176   3.339
 1929SOL    MW4 7771   4.474   1.166   3.425
 1930SOL     OW 7772   0.213   1.290   3.507
 1930SOL    HW2 7773   0.281   1.227   3.483
 1930SOL    HW3 7774   0.229   1.366   3.450
 1930SOL    MW4 7775   0.224   1.292   3.496
 1931SOL     OW 7776   0.255   1.538   3.390
 1931SOL    HW2 7777   0.339   1.577   3.415
 1931SOL    HW3 7778   0.261   1.528   3.295
 1931SOL    MW4 7779   0.267   1.542   3.381
 1932SOL     OW 7780   0.024   1.664   3.484
 1932SOL    HW2 7781  -0.053   1.621   3.448
 1932SOL    HW3 7782   0.098   1.611   3.453
 1932SOL    MW4 7783   0.023   1.652   3.475
 1933SOL     OW 7784   4.454   1.937   3.435
 1933SOL    HW2 7785   4.469   1.843   3.448
 1933SOL    HW3 7786   4.454   1.949   3.340
 1933SOL    MW4 7787   4.456   1.926   3.424
 1934SOL     OW 7788   0.222   2.047   3.469
 1934SOL    HW2 7789   0.261   2.020   3.552
 1934SOL    HW3 7790   0.140   1.998   3.464
 1934SOL    MW4 7791   0.216   2.037   3.480
 1935SOL     OW 7792   0.249   2.313   3.412
 1935SOL    HW2 7793   0.167   2.356   3.437
 1935SOL    HW3 7794   0.231   2.220   3.423
 1935SOL    MW4 7795   0.235   2.306   3.417
 1936SOL     OW 7796   0.023   2.448   3.462
 1936SOL    HW2 7797   0.015   2.442   3.557
 1936SOL    HW3 7798  -0.057   2.408   3.428
 1936SOL    MW4 7799   0.011   2.442   3.470
 1937SOL     OW 7800   0.001   2.712   3.391
 1937SOL    HW2 7801   0.078   2.747   3.435
 1937SOL    HW3 7802  -0.001   2.620   3.418
 1937SOL    MW4 7803   0.011   2.704   3.401
 1938SOL     OW 7804   0.214   2.818   3.505
 1938SOL    HW2 7805   0.290   2.779   3.461
 1938SOL    HW3 7806   0.211   2.908   3.472
 1938SOL    MW4 7807   0.224   2.825   3.495
 1939SOL     OW 7808   0.208   3.064   3.421
 1939SOL    HW2 7809   0.129   3.099   3.463
 1939SOL    HW3 7810   0.188   3.065   3.328
 1939SOL    MW4 7811   0.195   3.069   3.414
 1940SOL     OW 7812   4.480   3.182   3.529
 1940SOL    HW2 7813   4.401   3.148   3.488
 1940SOL    HW3 7814   4.491   3.270   3.493
 1940SOL    MW4 7815   4.471   3.189   3.519
 1941SOL     OW 7816   4.486   3.426   3.402
 1941SOL    HW2 7817   4.417   3.479   3.442
 1941SOL    HW3 7818   4.484   3.450   3.309
 1941SOL    MW4 7819   4.477   3.436   3.395
 1942SOL     OW 7820   0.204   3.590   3.475
 1942SOL    HW2 7821   0.192   3.577   3.569
 1942SOL    HW3 7822   0.137   3.535   3.434
 1942SOL    MW4 7823   0.193   3.581   3.482
 1943SOL     OW 7824   0.227   3.848   3.391
 1943SOL    HW2 7825   0.154   3.887   3.438
 1943SOL    HW3 7826   0.216   3.754   3.404
 1943SOL    MW4 7827   0.216   3.841   3.399
 1944SOL     OW 7828   0.012   3.994   3.503
 1944SOL    HW2 7829   0.037   3.984   3.595
 1944SOL    HW3 7830   0.027   4.086   3.483
 1944SOL    MW4 7831   0.017   4.005   3.512
 1945SOL     OW 7832   0.030   4.275   3.422
 1945SOL    HW2 7833  -0.053   4.318   3.445
 1945SOL    HW3 7834   0.097   4.328   3.465
 1945SOL    MW4 7835   0.028   4.288   3.431
 1946SOL     OW 7836   0.231   4.418   3.526
 1946SOL    HW2 7837   0.226   4.411   3.622
 1946SOL    HW3 7838   0.306   4.363   3.503
 1946SOL    MW4 7839   0.241   4.410   3.536
 1947SOL     OW 7840   0.623   4.594   3.437
 1947SOL    HW2 7841   0.696   4.645   3.472
 1947SOL    HW3 7842   0.622   4.615   3.343
 1947SOL    MW4 7843   0.632   4.604   3.429
 1948SOL     OW 7844   0.459   0.141   3.501
 1948SOL    HW2 7845   0.468   0.160   3.594
 1948SOL    HW3 7846   0.513   0.063   3.486
 1948SOL    MW4 7847   0.467   0.133   3.511
 1949SOL     OW 7848   0.449   0.393   3.380
 1949SOL    HW2 7849   0.533   0.429   3.410
 1949SOL    HW3 7850   0.442   0.308   3.422
 1949SOL    MW4 7851   0.459   0.387   3.389
 1950SOL     OW 7852   0.670   0.494   3.500
 1950SOL    HW2 7853   0.692   0.504   3.592
 1950SOL    HW3 7854   0.738   0.436   3.465
 1950SOL    MW4 7855   0.682   0.488   3.507
 1951SOL     OW 7856   0.698   0.748   3.420
 1951SOL    HW2 7857   0.613   0.784   3.444
 1951SOL    HW3 7858   0.692   0.654   3.441
 1951SOL    MW4 7859   0.686   0.740   3.426
 1952SOL     OW 7860   0.464   0.884   3.514
 1952SOL    HW2 7861   0.472   0.885   3.610
 1952SOL    HW3 7862   0.446   0.976   3.491
 1952SOL    MW4 7863   0.463   0.896   3.524
 1953SOL     OW 7864   0.435   1.140   3.425
 1953SOL    HW2 7865   0.518   1.186   3.441
 1953SOL    HW3 7866   0.436   1.119   3.332
 1953SOL    MW4 7867   0.446   1.143   3.415
 1954SOL     OW 7868   0.682   1.267   3.485
 1954SOL    HW2 7869   0.768   1.226   3.476
 1954SOL    HW3 7870   0.697   1.359   3.462
 1954SOL    MW4 7871   0.695   1.274   3.481
 1955SOL     OW 7872   0.744   1.544   3.396
 1955SOL    HW2 7873   0.807   1.603   3.439
 1955SOL    HW3 7874   0.659   1.581   3.419
 1955SOL    MW4 7875   0.741   1.557   3.405
 1956SOL     OW 7876   0.484   1.669   3.447
 1956SOL    HW2 7877   0.474   1.666   3.542
 1956SOL    HW3 7878   0.449   1.755   3.422
 1956SOL    MW4 7879   0.478   1.680   3.456
 1957SOL     OW 7880   0.439   1.919   3.366
 1957SOL    HW2 7881   0.368   1.968   3.407
 1957SOL    HW3 7882   0.413   1.908   3.275
 1957SOL    MW4 7883   0.427   1.924   3.359
 1958SOL     OW 7884   0.688   1.998   3.469
 1958SOL    HW2 7885   0.666   1.993   3.562
 1958SOL    HW3 7886   0.607   1.973   3.424
 1958SOL    MW4 7887   0.674   1.994   3.476
 1959SOL     OW 7888   0.671   2.288   3.375
 1959SOL    HW2 7889   0.754   2.327   3.399
 1959SOL    HW3 7890   0.679   2.196   3.399
 1959SOL    MW4 7891   0.683   2.281   3.381
 1960SOL     OW 7892   0.476   2.457   3.475
 1960SOL    HW2 7893   0.547   2.401   3.444
 1960SOL    HW3 7894   0.396   2.410   3.450
 1960SOL    MW4 7895   0.475   2.443   3.468
 1961SOL     OW 7896   0.442   2.737   3.399
 1961SOL    HW2 7897   0.473   2.652   3.432
 1961SOL    HW3 7898   0.433   2.724   3.304
 1961SOL    MW4 7899   0.445   2.724   3.391
 1962SOL     OW 7900   0.683   2.846   3.493
 1962SOL    HW2 7901   0.740   2.783   3.449
 1962SOL    HW3 7902   0.595   2.813   3.480
 1962SOL    MW4 7903   0.679   2.834   3.485
 1963SOL     OW 7904   0.686   3.130   3.424
 1963SOL    HW2 7905   0.595   3.149   3.444
 1963SOL    HW3 7906   0.695   3.035   3.439
 1963SOL    MW4 7907   0.676   3.120   3.428
 1964SOL     OW 7908   0.437   3.213   3.473
 1964SOL    HW2 7909   0.440   3.219   3.568
 1964SOL    HW3 7910   0.363   3.155   3.454
 1964SOL    MW4 7911   0.428   3.206   3.483
 1965SOL     OW 7912   0.430   3.460   3.366
 1965SOL    HW2 7913   0.420   3.375   3.408
 1965SOL    HW3 7914   0.359   3.513   3.401
 1965SOL    MW4 7915   0.419   3.456   3.376
 1966SOL     OW 7916   0.658   3.591   3.489
 1966SOL    HW2 7917   0.743   3.560   3.456
 1966SOL    HW3 7918   0.594   3.536   3.444
 1966SOL    MW4 7919   0.661   3.579   3.478
 1967SOL     OW 7920   0.688   3.838   3.361
 1967SOL    HW2 7921   0.604   3.878   3.385
 1967SOL    HW3 7922   0.687   3.753   3.404
 1967SOL    MW4 7923   0.677   3.832   3.370
 1968SOL     OW 7924   0.430   3.988   3.509
 1968SOL    HW2 7925   0.406   4.078   3.488
 1968SOL    HW3 7926   0.366   3.934   3.462
 1968SOL    MW4 7927   0.419   3.992   3.500
 1969SOL     OW 7928   0.425   4.254   3.429
 1969SOL    HW2 7929   0.507   4.295   3.456
 1969SOL    HW3 7930   0.425   4.264   3.333
 1969SOL    MW4 7931   0.436   4.261   3.420
 1970SOL     OW 7932   0.661   4.343   3.555
 1970SOL    HW2 7933   0.738   4.294   3.524
 1970SOL    HW3 7934   0.667   4.427   3.510
 1970SOL    MW4 7935   0.672   4.348   3.545
 1971SOL     OW 7936   1.102   4.667   3.410
 1971SOL    HW2 7937   1.191   4.700   3.423
 1971SOL    HW3 7938   1.089   4.669   3.315
 1971SOL    MW4 7939   1.112   4.671   3.399
 1972SOL     OW 7940   0.849   0.071   3.505
 1972SOL    HW2 7941   0.857   0.069   3.601
 1972SOL    HW3 7942   0.930   0.031   3.474
 1972SOL    MW4 7943   0.861   0.065   3.514
 1973SOL     OW 7944   0.899   0.328   3.422
 1973SOL    HW2 7945   0.988   0.351   3.448
 1973SOL    HW3 7946   0.884   0.241   3.461
 1973SOL    MW4 7947   0.909   0.319   3.430
 1974SOL     OW 7948   1.149   0.478   3.502
 1974SOL    HW2 7949   1.155   0.492   3.597
 1974SOL    HW3 7950   1.133   0.566   3.467
 1974SOL    MW4 7951   1.147   0.491   3.510
 1975SOL     OW 7952   1.119   0.731   3.408
 1975SOL    HW2 7953   1.203   0.770   3.434
 1975SOL    HW3 7954   1.054   0.777   3.461
 1975SOL    MW4 7955   1.122   0.742   3.418
 1976SOL     OW 7956   0.918   0.883   3.525
 1976SOL    HW2 7957   0.918   0.971   3.487
 1976SOL    HW3 7958   0.844   0.839   3.483
 1976SOL    MW4 7959   0.908   0.889   3.514
 1977SOL     OW 7960   0.944   1.154   3.442
 1977SOL    HW2 7961   1.016   1.210   3.470
 1977SOL    HW3 7962   0.949   1.156   3.346
 1977SOL    MW4 7963   0.954   1.162   3.433
 1978SOL     OW 7964   1.166   1.304   3.506
 1978SOL    HW2 7965   1.194   1.322   3.596
 1978SOL    HW3 7966   1.158   1.391   3.466
 1978SOL    MW4 7967   1.169   1.318   3.513
 1979SOL     OW 7968   1.170   1.555   3.404
 1979SOL    HW2 7969   1.249   1.607   3.421
 1979SOL    HW3 7970   1.144   1.579   3.315
 1979SOL    MW4 7971   1.177   1.565   3.394
 1980SOL     OW 7972   0.947   1.691   3.521
 1980SOL    HW2 7973   0.951   1.766   3.462
 1980SOL    HW3 7974   1.024   1.639   3.500
 1980SOL    MW4 7975   0.958   1.694   3.511
 1981SOL     OW 7976   0.905   1.909   3.351
 1981SOL    HW2 7977   0.979   1.949   3.396
 1981SOL    HW3 7978   0.830   1.929   3.407
 1981SOL    MW4 7979   0.905   1.917   3.364
 1982SOL     OW 7980   1.130   2.038   3.470
 1982SOL    HW2 7981   1.216   2.000   3.453
 1982SOL    HW3 7982   1.130   2.122   3.424
 1982SOL    MW4 7983   1.141   2.044   3.462
 1983SOL     OW 7984   1.145   2.315   3.404
 1983SOL    HW2 7985   1.207   2.382   3.432
 1983SOL    HW3 7986   1.145   2.319   3.309
 1983SOL    MW4 7987   1.153   2.324   3.396
 1984SOL     OW 7988   0.892   2.396   3.494
 1984SOL    HW2 7989   0.890   2.409   3.589
 1984SOL    HW3 7990   0.970   2.342   3.480
 1984SOL    MW4 7991   0.902   2.391   3.505
 1985SOL     OW 7992   0.874   2.675   3.409
 1985SOL    HW2 7993   0.945   2.728   3.445
 1985SOL    HW3 7994   0.900   2.585   3.426
 1985SOL    MW4 7995   0.887   2.670   3.416
 1986SOL     OW 7996   1.104   2.814   3.488
 1986SOL    HW2 7997   1.125   2.831   3.580
 1986SOL    HW3 7998   1.185   2.782   3.450
 1986SOL    MW4 7999   1.117   2.812   3.495
 1987SOL     OW 8000   1.108   3.097   3.402
 1987SOL    HW2 8001   1.088   3.004   3.418
 1987SOL    HW3 8002   1.138   3.100   3.311
 1987SOL    MW4 8003   1.109   3.085   3.392
 1988SOL     OW 8004   0.910   3.262   3.518
 1988SOL    HW2 8005   0.983   3.211   3.484
 1988SOL    HW3 8006   0.833   3.226   3.474
 1988SOL    MW4 8007   0.909   3.251   3.507
 1989SOL     OW 8008   0.895   3.490   3.368
 1989SOL    HW2 8009   0.912   3.401   3.399
 1989SOL    HW3 8010   0.888   3.481   3.273
 1989SOL    MW4 8011   0.896   3.477   3.359
 1990SOL     OW 8012   1.126   3.611   3.466
 1990SOL    HW2 8013   1.124   3.601   3.561
 1990SOL    HW3 8014   1.044   3.572   3.435
 1990SOL    MW4 8015   1.115   3.605   3.474
 1991SOL     OW 8016   1.122   3.871   3.430
 1991SOL    HW2 8017   1.202   3.922   3.441
 1991SOL    HW3 8018   1.148   3.781   3.451
 1991SOL    MW4 8019   1.136   3.866   3.434
 1992SOL     OW 8020   0.874   3.984   3.513
 1992SOL    HW2 8021   0.949   3.954   3.461
 1992SOL    HW3 8022   0.798   3.940   3.475
 1992SOL    MW4 8023   0.874   3.974   3.501
 1993SOL     OW 8024   0.890   4.258   3.429
 1993SOL    HW2 8025   0.920   4.169   3.445
 1993SOL    HW3 8026   0.913   4.276   3.338
 1993SOL    MW4 8027   0.897   4.249   3.419
 1994SOL     OW 8028   1.109   4.419   3.536
 1994SOL    HW2 8029   1.033   4.363   3.523
 1994SOL    HW3 8030   1.089   4.497   3.484
 1994SOL    MW4 8031   1.096   4.422   3.527
 1995SOL     OW 8032   1.598   4.636   3.416
 1995SOL    HW2 8033   1.587   4.551   3.458
 1995SOL    HW3 8034   1.516   4.682   3.435
 1995SOL    MW4 8035   1.586   4.631   3.424
 1996SOL     OW 8036   1.345   0.099   3.468
 1996SOL    HW2 8037   1.350   0.109   3.563
 1996SOL    HW3 8038   1.359   0.187   3.434
 1996SOL    MW4 8039   1.348   0.112   3.476
 1997SOL     OW 8040   1.357   0.374   3.386
 1997SOL    HW2 8041   1.424   0.415   3.442
 1997SOL    HW3 8042   1.275   0.409   3.420
 1997SOL    MW4 8043   1.355   0.384   3.398
 1998SOL     OW 8044   1.563   0.489   3.514
 1998SOL    HW2 8045   1.573   0.508   3.608
 1998SOL    HW3 8046   1.649   0.457   3.487
 1998SOL    MW4 8047   1.576   0.488   3.523
 1999SOL     OW 8048   1.579   0.734   3.388
 1999SOL    HW2 8049   1.506   0.785   3.424
 1999SOL    HW3 8050   1.571   0.648   3.428
 1999SOL    MW4 8051   1.568   0.730   3.398
 2000SOL     OW 8052   1.367   0.862   3.491
 2000SOL    HW2 8053   1.377   0.870   3.586
 2000SOL    HW3 8054   1.371   0.952   3.459
 2000SOL    MW4 8055   1.369   0.875   3.499
 2001SOL     OW 8056   1.365   1.121   3.402
 2001SOL    HW2 8057   1.440   1.171   3.436
 2001SOL    HW3 8058   1.289   1.164   3.440
 2001SOL    MW4 8059   1.365   1.134   3.411
 2002SOL     OW 8060   1.587   1.272   3.493
 2002SOL    HW2 8061   1.588   1.263   3.588
 2002SOL    HW3 8062   1.667   1.227   3.464
 2002SOL    MW4 8063   1.598   1.265   3.502
 2003SOL     OW 8064   1.618   1.529   3.385
 2003SOL    HW2 8065   1.597   1.437   3.402
 2003SOL    HW3 8066   1.600   1.541   3.292
 2003SOL    MW4 8067   1.613   1.518   3.375
 2004SOL     OW 8068   1.406   1.690   3.449
 2004SOL    HW2 8069   1.396   1.681   3.544
 2004SOL    HW3 8070   1.477   1.630   3.426
 2004SOL    MW4 8071   1.414   1.681   3.458
 2005SOL     OW 8072   1.363   1.939   3.365
 2005SOL    HW2 8073   1.441   1.987   3.395
 2005SOL    HW3 8074   1.381   1.848   3.389
 2005SOL    MW4 8075   1.376   1.933   3.372
 2006SOL     OW 8076   1.586   2.092   3.469
 2006SOL    HW2 8077   1.662   2.057   3.422
 2006SOL    HW3 8078   1.572   2.178   3.431
 2006SOL    MW4 8079   1.594   2.098   3.457
 2007SOL     OW 8080   1.585   2.348   3.360
 2007SOL    HW2 8081   1.513   2.389   3.409
 2007SOL    HW3 8082   1.565   2.366   3.269
 2007SOL    MW4 8083   1.573   2.356   3.355
 2008SOL     OW 8084   1.375   2.482   3.491
 2008SOL    HW2 8085   1.369   2.473   3.586
 2008SOL    HW3 8086   1.387   2.576   3.476
 2008SOL    MW4 8087   1.376   2.493   3.502
 2009SOL     OW 8088   1.338   2.748   3.376
 2009SOL    HW2 8089   1.424   2.781   3.400
 2009SOL    HW3 8090   1.339   2.742   3.281
 2009SOL    MW4 8091   1.349   2.752   3.367
 2010SOL     OW 8092   1.589   2.819   3.473
 2010SOL    HW2 8093   1.654   2.760   3.437
 2010SOL    HW3 8094   1.614   2.906   3.441
 2010SOL    MW4 8095   1.601   2.823   3.464
 2011SOL     OW 8096   1.622   3.082   3.379
 2011SOL    HW2 8097   1.678   3.158   3.393
 2011SOL    HW3 8098   1.533   3.114   3.394
 2011SOL    MW4 8099   1.617   3.096   3.383
 2012SOL     OW 8100   1.361   3.201   3.483
 2012SOL    HW2 8101   1.362   3.205   3.579
 2012SOL    HW3 8102   1.276   3.163   3.462
 2012SOL    MW4 8103   1.350   3.197   3.493
 2013SOL     OW 8104   1.380   3.464   3.382
 2013SOL    HW2 8105   1.381   3.373   3.410
 2013SOL    HW3 8106   1.293   3.496   3.407
 2013SOL    MW4 8107   1.368   3.456   3.389
 2014SOL     OW 8108   1.576   3.627   3.488
 2014SOL    HW2 8109   1.573   3.615   3.583
 2014SOL    HW3 8110   1.507   3.570   3.455
 2014SOL    MW4 8111   1.566   3.618   3.496
 2015SOL     OW 8112   1.551   3.912   3.445
 2015SOL    HW2 8113   1.560   3.818   3.465
 2015SOL    HW3 8114   1.561   3.918   3.350
 2015SOL    MW4 8115   1.553   3.900   3.435
 2016SOL     OW 8116   1.329   4.058   3.506
 2016SOL    HW2 8117   1.326   4.141   3.459
 2016SOL    HW3 8118   1.405   4.013   3.469
 2016SOL    MW4 8119   1.338   4.063   3.495
 2017SOL     OW 8120   1.330   4.298   3.375
 2017SOL    HW2 8121   1.245   4.331   3.404
 2017SOL    HW3 8122   1.328   4.308   3.280
 2017SOL    MW4 8123   1.319   4.304   3.366
 2018SOL     OW 8124   1.558   4.385   3.526
 2018SOL    HW2 8125   1.632   4.331   3.498
 2018SOL    HW3 8126   1.482   4.346   3.484
 2018SOL    MW4 8127   1.558   4.373   3.517
 2019SOL     OW 8128   1.997   0.014   3.404
 2019SOL    HW2 8129   2.068   0.074   3.428
 2019SOL    HW3 8130   1.919   0.054   3.443
 2019SOL    MW4 8131   1.996   0.027   3.413
 2020SOL     OW 8132   1.787   0.135   3.522
 2020SOL    HW2 8133   1.791   0.119   3.617
 2020SOL    HW3 8134   1.726   0.069   3.489
 2020SOL    MW4 8135   1.780   0.124   3.531
 2021SOL     OW 8136   1.815   0.394   3.439
 2021SOL    HW2 8137   1.801   0.305   3.472
 2021SOL    HW3 8138   1.822   0.385   3.345
 2021SOL    MW4 8139   1.814   0.381   3.431
 2022SOL     OW 8140   2.011   0.573   3.522
 2022SOL    HW2 8141   2.004   0.646   3.460
 2022SOL    HW3 8142   1.937   0.517   3.500
 2022SOL    MW4 8143   2.000   0.576   3.511
 2023SOL     OW 8144   2.022   0.812   3.357
 2023SOL    HW2 8145   2.107   0.849   3.382
 2023SOL    HW3 8146   2.026   0.809   3.261
 2023SOL    MW4 8147   2.034   0.817   3.347
 2024SOL     OW 8148   1.782   0.891   3.498
 2024SOL    HW2 8149   1.865   0.860   3.462
 2024SOL    HW3 8150   1.716   0.838   3.455
 2024SOL    MW4 8151   1.784   0.880   3.488
 2025SOL     OW 8152   1.809   1.159   3.389
 2025SOL    HW2 8153   1.894   1.198   3.409
 2025SOL    HW3 8154   1.804   1.081   3.444
 2025SOL    MW4 8155   1.819   1.154   3.399
 2026SOL     OW 8156   2.065   1.254   3.485
 2026SOL    HW2 8157   2.068   1.253   3.580
 2026SOL    HW3 8158   2.062   1.347   3.461
 2026SOL    MW4 8159   2.065   1.266   3.494
 2027SOL     OW 8160   2.050   1.507   3.367
 2027SOL    HW2 8161   2.127   1.556   3.396
 2027SOL    HW3 8162   1.975   1.556   3.401
 2027SOL    MW4 8163   2.050   1.520   3.375
 2028SOL     OW 8164   1.841   1.666   3.462
 2028SOL    HW2 8165   1.823   1.746   3.413
 2028SOL    HW3 8166   1.764   1.611   3.448
 2028SOL    MW4 8167   1.828   1.669   3.454
 2029SOL     OW 8168   1.815   1.945   3.372
 2029SOL    HW2 8169   1.885   1.970   3.432
 2029SOL    HW3 8170   1.852   1.957   3.285
 2029SOL    MW4 8171   1.829   1.950   3.369
 2030SOL     OW 8172   2.035   2.083   3.478
 2030SOL    HW2 8173   2.121   2.056   3.445
 2030SOL    HW3 8174   2.028   2.176   3.453
 2030SOL    MW4 8175   2.046   2.092   3.470
 2031SOL     OW 8176   2.036   2.363   3.381
 2031SOL    HW2 8177   2.108   2.415   3.417
 2031SOL    HW3 8178   2.048   2.369   3.286
 2031SOL    MW4 8179   2.047   2.371   3.373
 2032SOL     OW 8180   1.812   2.467   3.493
 2032SOL    HW2 8181   1.898   2.447   3.457
 2032SOL    HW3 8182   1.754   2.401   3.456
 2032SOL    MW4 8183   1.816   2.456   3.483
 2033SOL     OW 8184   1.808   2.710   3.352
 2033SOL    HW2 8185   1.889   2.760   3.363
 2033SOL    HW3 8186   1.829   2.623   3.385
 2033SOL    MW4 8187   1.822   2.705   3.358
 2034SOL     OW 8188   2.022   2.852   3.433
 2034SOL    HW2 8189   2.028   2.843   3.528
 2034SOL    HW3 8190   2.002   2.944   3.418
 2034SOL    MW4 8191   2.021   2.863   3.443
 2035SOL     OW 8192   1.995   3.120   3.385
 2035SOL    HW2 8193   2.077   3.158   3.417
 2035SOL    HW3 8194   1.930   3.189   3.399
 2035SOL    MW4 8195   1.997   3.134   3.391
 2036SOL     OW 8196   1.789   3.295   3.460
 2036SOL    HW2 8197   1.757   3.304   3.550
 2036SOL    HW3 8198   1.793   3.385   3.427
 2036SOL    MW4 8199   1.785   3.308   3.468
 2037SOL     OW 8200   1.812   3.555   3.356
 2037SOL    HW2 8201   1.727   3.577   3.396
 2037SOL    HW3 8202   1.792   3.547   3.262
 2037SOL    MW4 8203   1.798   3.557   3.349
 2038SOL     OW 8204   2.020   3.647   3.506
 2038SOL    HW2 8205   2.093   3.611   3.456
 2038SOL    HW3 8206   1.942   3.611   3.464
 2038SOL    MW4 8207   2.020   3.638   3.494
 2039SOL     OW 8208   2.051   3.908   3.399
 2039SOL    HW2 8209   1.979   3.959   3.435
 2039SOL    HW3 8210   2.045   3.823   3.443
 2039SOL    MW4 8211   2.041   3.903   3.409
 2040SOL     OW 8212   1.803   4.006   3.500
 2040SOL    HW2 8213   1.808   3.993   3.595
 2040SOL    HW3 8214   1.724   3.959   3.474
 2040SOL    MW4 8215   1.793   3.998   3.509
 2041SOL     OW 8216   1.808   4.306   3.407
 2041SOL    HW2 8217   1.807   4.212   3.423
 2041SOL    HW3 8218   1.780   4.316   3.316
 2041SOL    MW4 8219   1.804   4.295   3.398
 2042SOL     OW 8220   2.003   4.449   3.535
 2042SOL    HW2 8221   1.929   4.402   3.498
 2042SOL    HW3 8222   1.999   4.536   3.495
 2042SOL    MW4 8223   1.993   4.455   3.525
 2043SOL     OW 8224   2.417   0.007   3.426
 2043SOL    HW2 8225   2.417  -0.071   3.481
 2043SOL    HW3 8226   2.429  -0.025   3.337
 2043SOL    MW4 8227   2.419  -0.007   3.421
 2044SOL     OW 8228   2.199   0.175   3.502
 2044SOL    HW2 8229   2.200   0.254   3.447
 2044SOL    HW3 8230   2.276   0.125   3.474
 2044SOL    MW4 8231   2.209   0.179   3.491
 2045SOL     OW 8232   2.167   0.414   3.352
 2045SOL    HW2 8233   2.257   0.426   3.384
 2045SOL    HW3 8234   2.114   0.468   3.410
 2045SOL    MW4 8235   2.172   0.422   3.364
 2046SOL     OW 8236   2.414   0.474   3.466
 2046SOL    HW2 8237   2.491   0.439   3.421
 2046SOL    HW3 8238   2.411   0.566   3.440
 2046SOL    MW4 8239   2.424   0.482   3.457
 2047SOL     OW 8240   2.457   0.737   3.393
 2047SOL    HW2 8241   2.534   0.788   3.422
 2047SOL    HW3 8242   2.466   0.733   3.298
 2047SOL    MW4 8243   2.469   0.743   3.384
 2048SOL     OW 8244   2.245   0.904   3.483
 2048SOL    HW2 8245   2.271   0.991   3.454
 2048SOL    HW3 8246   2.317   0.847   3.456
 2048SOL    MW4 8247   2.258   0.908   3.476
 2049SOL     OW 8248   2.293   1.151   3.370
 2049SOL    HW2 8249   2.357   1.205   3.416
 2049SOL    HW3 8250   2.208   1.187   3.397
 2049SOL    MW4 8251   2.290   1.163   3.380
 2050SOL     OW 8252   2.526   1.278   3.451
 2050SOL    HW2 8253   2.529   1.268   3.546
 2050SOL    HW3 8254   2.599   1.226   3.418
 2050SOL    MW4 8255   2.536   1.270   3.459
 2051SOL     OW 8256   2.518   1.547   3.372
 2051SOL    HW2 8257   2.535   1.455   3.391
 2051SOL    HW3 8258   2.513   1.551   3.276
 2051SOL    MW4 8259   2.520   1.536   3.361
 2052SOL     OW 8260   2.273   1.659   3.453
 2052SOL    HW2 8261   2.272   1.660   3.549
 2052SOL    HW3 8262   2.356   1.617   3.430
 2052SOL    MW4 8263   2.284   1.654   3.463
 2053SOL     OW 8264   2.270   1.949   3.388
 2053SOL    HW2 8265   2.258   1.861   3.422
 2053SOL    HW3 8266   2.239   1.944   3.297
 2053SOL    MW4 8267   2.264   1.937   3.380
 2054SOL     OW 8268   2.488   2.062   3.504
 2054SOL    HW2 8269   2.478   2.058   3.599
 2054SOL    HW3 8270   2.418   2.007   3.470
 2054SOL    MW4 8271   2.478   2.054   3.512
 2055SOL     OW 8272   2.475   2.320   3.381
 2055SOL    HW2 8273   2.558   2.353   3.417
 2055SOL    HW3 8274   2.473   2.228   3.405
 2055SOL    MW4 8275   2.486   2.312   3.389
 2056SOL     OW 8276   2.253   2.486   3.481
 2056SOL    HW2 8277   2.260   2.575   3.447
 2056SOL    HW3 8278   2.330   2.441   3.445
 2056SOL    MW4 8279   2.264   2.492   3.471
 2057SOL     OW 8280   2.266   2.729   3.374
 2057SOL    HW2 8281   2.186   2.778   3.393
 2057SOL    HW3 8282   2.260   2.709   3.280
 2057SOL    MW4 8283   2.254   2.733   3.364
 2058SOL     OW 8284   2.474   2.835   3.522
 2058SOL    HW2 8285   2.486   2.927   3.498
 2058SOL    HW3 8286   2.407   2.803   3.462
 2058SOL    MW4 8287   2.467   2.843   3.511
 2059SOL     OW 8288   2.457   3.080   3.394
 2059SOL    HW2 8289   2.520   3.133   3.442
 2059SOL    HW3 8290   2.480   3.092   3.302
 2059SOL    MW4 8291   2.468   3.089   3.388
 2060SOL     OW 8292   2.213   3.251   3.492
 2060SOL    HW2 8293   2.219   3.241   3.587
 2060SOL    HW3 8294   2.284   3.197   3.458
 2060SOL    MW4 8295   2.223   3.243   3.500
 2061SOL     OW 8296   2.247   3.523   3.390
 2061SOL    HW2 8297   2.246   3.437   3.433
 2061SOL    HW3 8298   2.234   3.503   3.297
 2061SOL    MW4 8299   2.245   3.509   3.383
 2062SOL     OW 8300   2.479   3.635   3.480
 2062SOL    HW2 8301   2.489   3.718   3.433
 2062SOL    HW3 8302   2.400   3.596   3.442
 2062SOL    MW4 8303   2.470   3.641   3.469
 2063SOL     OW 8304   2.496   3.895   3.385
 2063SOL    HW2 8305   2.567   3.948   3.421
 2063SOL    HW3 8306   2.418   3.925   3.430
 2063SOL    MW4 8307   2.495   3.906   3.396
 2064SOL     OW 8308   2.273   4.021   3.509
 2064SOL    HW2 8309   2.271   4.111   3.475
 2064SOL    HW3 8310   2.204   3.976   3.460
 2064SOL    MW4 8311   2.263   4.027   3.498
 2065SOL     OW 8312   2.205   4.304   3.427
 2065SOL    HW2 8313   2.129   4.350   3.463
 2065SOL    HW3 8314   2.186   4.294   3.334
 2065SOL    MW4 8315   2.193   4.309   3.420
 2066SOL     OW 8316   2.470   4.408   3.528
 2066SOL    HW2 8317   2.476   4.410   3.623
 2066SOL    HW3 8318   2.378   4.386   3.511
 2066SOL    MW4 8319   2.458   4.405   3.538
 2067SOL     OW 8320   2.865   4.661   3.386
 2067SOL    HW2 8321   2.788   4.711   3.412
 2067SOL    HW3 8322   2.872   4.676   3.292
 2067SOL    MW4 8323   2.856   4.670   3.377
 2068SOL     OW 8324   2.658   0.121   3.507
 2068SOL    HW2 8325   2.664   0.205   3.463
 2068SOL    HW3 8326   2.570   0.088   3.486
 2068SOL    MW4 8327   2.647   0.127   3.498
 2069SOL     OW 8328   2.661   0.354   3.386
 2069SOL    HW2 8329   2.735   0.396   3.429
 2069SOL    HW3 8330   2.674   0.371   3.293
 2069SOL    MW4 8331   2.672   0.361   3.379
 2070SOL     OW 8332   2.909   0.521   3.465
 2070SOL    HW2 8333   2.928   0.537   3.557
 2070SOL    HW3 8334   2.910   0.608   3.424
 2070SOL    MW4 8335   2.911   0.535   3.472
 2071SOL     OW 8336   2.905   0.777   3.332
 2071SOL    HW2 8337   2.985   0.808   3.375
 2071SOL    HW3 8338   2.836   0.795   3.395
 2071SOL    MW4 8339   2.907   0.784   3.346
 2072SOL     OW 8340   2.702   0.889   3.489
 2072SOL    HW2 8341   2.714   0.916   3.580
 2072SOL    HW3 8342   2.721   0.968   3.438
 2072SOL    MW4 8343   2.706   0.903   3.494
 2073SOL     OW 8344   2.739   1.126   3.352
 2073SOL    HW2 8345   2.779   1.209   3.379
 2073SOL    HW3 8346   2.770   1.113   3.263
 2073SOL    MW4 8347   2.749   1.135   3.344
 2074SOL     OW 8348   2.897   1.329   3.431
 2074SOL    HW2 8349   2.897   1.328   3.526
 2074SOL    HW3 8350   2.969   1.272   3.405
 2074SOL    MW4 8351   2.906   1.321   3.440
 2075SOL     OW 8352   2.923   1.595   3.379
 2075SOL    HW2 8353   2.845   1.637   3.416
 2075SOL    HW3 8354   2.912   1.502   3.399
 2075SOL    MW4 8355   2.912   1.588   3.387
 2076SOL     OW 8356   2.714   1.725   3.493
 2076SOL    HW2 8357   2.727   1.805   3.443
 2076SOL    HW3 8358   2.647   1.677   3.444
 2076SOL    MW4 8359   2.707   1.729   3.480
 2077SOL     OW 8360   2.731   1.966   3.377
 2077SOL    HW2 8361   2.655   2.000   3.423
 2077SOL    HW3 8362   2.712   1.982   3.284
 2077SOL    MW4 8363   2.718   1.972   3.371
 2078SOL     OW 8364   2.955   2.089   3.470
 2078SOL    HW2 8365   2.949   2.108   3.564
 2078SOL    HW3 8366   2.877   2.038   3.450
 2078SOL    MW4 8367   2.944   2.085   3.480
 2079SOL     OW 8368   2.891   2.343   3.344
 2079SOL    HW2 8369   2.891   2.251   3.371
 2079SOL    HW3 8370   2.875   2.340   3.250
 2079SOL    MW4 8371   2.889   2.330   3.335
 2080SOL     OW 8372   2.702   2.453   3.483
 2080SOL    HW2 8373   2.706   2.422   3.573
 2080SOL    HW3 8374   2.779   2.415   3.441
 2080SOL    MW4 8375   2.713   2.444   3.490
 2081SOL     OW 8376   2.723   2.708   3.425
 2081SOL    HW2 8377   2.702   2.616   3.444
 2081SOL    HW3 8378   2.641   2.755   3.441
 2081SOL    MW4 8379   2.709   2.702   3.429
 2082SOL     OW 8380   2.963   2.835   3.485
 2082SOL    HW2 8381   2.976   2.856   3.578
 2082SOL    HW3 8382   2.879   2.789   3.483
 2082SOL    MW4 8383   2.953   2.832   3.497
 2083SOL     OW 8384   2.936   3.114   3.410
 2083SOL    HW2 8385   2.955   3.023   3.433
 2083SOL    HW3 8386   2.924   3.113   3.316
 2083SOL    MW4 8387   2.937   3.102   3.401
 2084SOL     OW 8388   2.681   3.237   3.476
 2084SOL    HW2 8389   2.677   3.221   3.571
 2084SOL    HW3 8390   2.767   3.204   3.450
 2084SOL    MW4 8391   2.692   3.230   3.485
 2085SOL     OW 8392   2.685   3.485   3.372
 2085SOL    HW2 8393   2.680   3.397   3.410
 2085SOL    HW3 8394   2.615   3.533   3.414
 2085SOL    MW4 8395   2.675   3.480   3.382
 2086SOL     OW 8396   2.906   3.608   3.501
 2086SOL    HW2 8397   2.906   3.693   3.457
 2086SOL    HW3 8398   2.834   3.560   3.460
 2086SOL    MW4 8399   2.896   3.613   3.490
 2087SOL     OW 8400   2.912   3.879   3.349
 2087SOL    HW2 8401   2.990   3.917   3.390
 2087SOL    HW3 8402   2.839   3.925   3.390
 2087SOL    MW4 8403   2.913   3.890   3.359
 2088SOL     OW 8404   2.709   4.019   3.486
 2088SOL    HW2 8405   2.681   4.015   3.577
 2088SOL    HW3 8406   2.703   4.112   3.463
 2088SOL    MW4 8407   2.705   4.031   3.495
 2089SOL     OW 8408   2.674   4.279   3.423
 2089SOL    HW2 8409   2.754   4.319   3.455
 2089SOL    HW3 8410   2.604   4.330   3.463
 2089SOL    MW4 8411   2.675   4.291   3.432
 2090SOL     OW 8412   2.933   4.390   3.486
 2090SOL    HW2 8413   2.939   4.402   3.581
 2090SOL    HW3 8414   2.908   4.476   3.453
 2090SOL    MW4 8415   2.931   4.403   3.494
 2091SOL     OW 8416   3.347   0.014   3.411
 2091SOL    HW2 8417   3.264   0.045   3.447
 2091SOL    HW3 8418   3.336   0.018   3.316
 2091SOL    MW4 8419   3.335   0.019   3.403
 2092SOL     OW 8420   3.095   0.095   3.527
 2092SOL    HW2 8421   3.105   0.187   3.503
 2092SOL    HW3 8422   3.020   0.065   3.475
 2092SOL    MW4 8423   3.087   0.103   3.517
 2093SOL     OW 8424   3.110   0.337   3.394
 2093SOL    HW2 8425   3.035   0.393   3.415
 2093SOL    HW3 8426   3.109   0.332   3.298
 2093SOL    MW4 8427   3.100   0.344   3.384
 2094SOL     OW 8428   3.350   0.493   3.461
 2094SOL    HW2 8429   3.355   0.522   3.552
 2094SOL    HW3 8430   3.264   0.452   3.453
 2094SOL    MW4 8431   3.339   0.492   3.472
 2095SOL     OW 8432   3.369   0.762   3.368
 2095SOL    HW2 8433   3.446   0.810   3.400
 2095SOL    HW3 8434   3.371   0.679   3.415
 2095SOL    MW4 8435   3.380   0.757   3.378
 2096SOL     OW 8436   3.141   0.911   3.443
 2096SOL    HW2 8437   3.133   0.998   3.405
 2096SOL    HW3 8438   3.223   0.876   3.406
 2096SOL    MW4 8439   3.151   0.918   3.433
 2097SOL     OW 8440   3.122   1.162   3.338
 2097SOL    HW2 8441   3.202   1.211   3.357
 2097SOL    HW3 8442   3.126   1.146   3.243
 2097SOL    MW4 8443   3.133   1.167   3.328
 2098SOL     OW 8444   3.339   1.295   3.458
 2098SOL    HW2 8445   3.413   1.239   3.436
 2098SOL    HW3 8446   3.363   1.381   3.422
 2098SOL    MW4 8447   3.352   1.299   3.450
 2099SOL     OW 8448   3.379   1.535   3.341
 2099SOL    HW2 8449   3.450   1.575   3.391
 2099SOL    HW3 8450   3.299   1.570   3.380
 2099SOL    MW4 8451   3.377   1.545   3.353
 2100SOL     OW 8452   3.162   1.645   3.476
 2100SOL    HW2 8453   3.167   1.736   3.446
 2100SOL    HW3 8454   3.074   1.617   3.453
 2100SOL    MW4 8455   3.151   1.653   3.469
 2101SOL     OW 8456   3.167   1.915   3.384
 2101SOL    HW2 8457   3.091   1.964   3.417
 2101SOL    HW3 8458   3.163   1.924   3.289
 2101SOL    MW4 8459   3.157   1.923   3.376
 2102SOL     OW 8460   3.398   2.085   3.503
 2102SOL    HW2 8461   3.405   2.162   3.447
 2102SOL    HW3 8462   3.312   2.048   3.482
 2102SOL    MW4 8463   3.387   2.090   3.493
 2103SOL     OW 8464   3.384   2.332   3.358
 2103SOL    HW2 8465   3.455   2.371   3.409
 2103SOL    HW3 8466   3.307   2.385   3.381
 2103SOL    MW4 8467   3.383   2.344   3.368
 2104SOL     OW 8468   3.139   2.456   3.478
 2104SOL    HW2 8469   3.141   2.540   3.433
 2104SOL    HW3 8470   3.072   2.406   3.433
 2104SOL    MW4 8471   3.131   2.461   3.466
 2105SOL     OW 8472   3.179   2.716   3.360
 2105SOL    HW2 8473   3.247   2.753   3.418
 2105SOL    HW3 8474   3.097   2.743   3.400
 2105SOL    MW4 8475   3.177   2.724   3.373
 2106SOL     OW 8476   3.363   2.824   3.526
 2106SOL    HW2 8477   3.429   2.769   3.484
 2106SOL    HW3 8478   3.365   2.906   3.477
 2106SOL    MW4 8479   3.372   2.828   3.514
 2107SOL     OW 8480   3.383   3.084   3.398
 2107SOL    HW2 8481   3.457   3.132   3.436
 2107SOL    HW3 8482   3.306   3.124   3.438
 2107SOL    MW4 8483   3.383   3.095   3.409
 2108SOL     OW 8484   3.162   3.261   3.510
 2108SOL    HW2 8485   3.174   3.342   3.460
 2108SOL    HW3 8486   3.088   3.218   3.467
 2108SOL    MW4 8487   3.154   3.266   3.498
 2109SOL     OW 8488   3.149   3.507   3.395
 2109SOL    HW2 8489   3.071   3.552   3.428
 2109SOL    HW3 8490   3.140   3.509   3.300
 2109SOL    MW4 8491   3.138   3.513   3.387
 2110SOL     OW 8492   3.375   3.629   3.503
 2110SOL    HW2 8493   3.367   3.705   3.447
 2110SOL    HW3 8494   3.304   3.571   3.475
 2110SOL    MW4 8495   3.365   3.631   3.492
 2111SOL     OW 8496   3.351   3.854   3.331
 2111SOL    HW2 8497   3.419   3.905   3.375
 2111SOL    HW3 8498   3.269   3.894   3.360
 2111SOL    MW4 8499   3.349   3.866   3.340
 2112SOL     OW 8500   3.142   3.995   3.470
 2112SOL    HW2 8501   3.136   4.014   3.564
 2112SOL    HW3 8502   3.137   4.081   3.428
 2112SOL    MW4 8503   3.140   4.009   3.477
 2113SOL     OW 8504   3.147   4.253   3.370
 2113SOL    HW2 8505   3.220   4.300   3.409
 2113SOL    HW3 8506   3.069   4.292   3.410
 2113SOL    MW4 8507   3.146   4.265   3.380
 2114SOL     OW 8508   3.364   4.408   3.483
 2114SOL    HW2 8509   3.351   4.393   3.576
 2114SOL    HW3 8510   3.358   4.503   3.473
 2114SOL    MW4 8511   3.362   4.419   3.494
 2115SOL     OW 8512   3.837   4.636   3.402
 2115SOL    HW2 8513   3.760   4.680   3.438
 2115SOL    HW3 8514   3.828   4.644   3.308
 2115SOL    MW4 8515   3.826   4.643   3.395
 2116SOL     OW 8516   3.612   0.119   3.511
 2116SOL    HW2 8517   3.597   0.195   3.455
 2116SOL    HW3 8518   3.530   0.071   3.509
 2116SOL    MW4 8519   3.599   0.123   3.503
 2117SOL     OW 8520   3.590   0.371   3.401
 2117SOL    HW2 8521   3.661   0.424   3.438
 2117SOL    HW3 8522   3.510   0.411   3.436
 2117SOL    MW4 8523   3.589   0.383   3.411
 2118SOL     OW 8524   3.798   0.486   3.550
 2118SOL    HW2 8525   3.821   0.484   3.643
 2118SOL    HW3 8526   3.879   0.462   3.505
 2118SOL    MW4 8527   3.812   0.483   3.556
 2119SOL     OW 8528   3.807   0.740   3.433
 2119SOL    HW2 8529   3.890   0.778   3.463
 2119SOL    HW3 8530   3.803   0.656   3.477
 2119SOL    MW4 8531   3.818   0.734   3.443
 2120SOL     OW 8532   3.589   0.892   3.501
 2120SOL    HW2 8533   3.583   0.905   3.595
 2120SOL    HW3 8534   3.661   0.831   3.489
 2120SOL    MW4 8535   3.598   0.886   3.511
 2121SOL     OW 8536   3.564   1.147   3.401
 2121SOL    HW2 8537   3.578   1.056   3.428
 2121SOL    HW3 8538   3.569   1.145   3.305
 2121SOL    MW4 8539   3.566   1.135   3.392
 2122SOL     OW 8540   3.797   1.282   3.449
 2122SOL    HW2 8541   3.809   1.283   3.544
 2122SOL    HW3 8542   3.719   1.228   3.435
 2122SOL    MW4 8543   3.788   1.275   3.460
 2123SOL     OW 8544   3.803   1.560   3.371
 2123SOL    HW2 8545   3.886   1.593   3.405
 2123SOL    HW3 8546   3.794   1.473   3.407
 2123SOL    MW4 8547   3.813   1.553   3.380
 2124SOL     OW 8548   3.584   1.685   3.468
 2124SOL    HW2 8549   3.586   1.777   3.442
 2124SOL    HW3 8550   3.657   1.645   3.420
 2124SOL    MW4 8551   3.594   1.692   3.458
 2125SOL     OW 8552   3.597   1.928   3.364
 2125SOL    HW2 8553   3.681   1.969   3.382
 2125SOL    HW3 8554   3.533   1.984   3.407
 2125SOL    MW4 8555   3.600   1.941   3.372
 2126SOL     OW 8556   3.811   2.060   3.460
 2126SOL    HW2 8557   3.809   2.051   3.555
 2126SOL    HW3 8558   3.884   2.005   3.432
 2126SOL    MW4 8559   3.820   2.052   3.468
 2127SOL     OW 8560   3.789   2.322   3.405
 2127SOL    HW2 8561   3.876   2.357   3.420
 2127SOL    HW3 8562   3.802   2.227   3.401
 2127SOL    MW4 8563   3.802   2.314   3.406
 2128SOL     OW 8564   3.573   2.427   3.532
 2128SOL    HW2 8565   3.588   2.518   3.507
 2128SOL    HW3 8566   3.650   2.380   3.499
 2128SOL    MW4 8567   3.586   2.433   3.524
 2129SOL     OW 8568   3.580   2.685   3.415
 2129SOL    HW2 8569   3.666   2.716   3.445
 2129SOL    HW3 8570   3.582   2.697   3.320
 2129SOL    MW4 8571   3.591   2.691   3.406
 2130SOL     OW 8572   3.818   2.822   3.504
 2130SOL    HW2 8573   3.832   2.831   3.598
 2130SOL    HW3 8574   3.800   2.911   3.473
 2130SOL    MW4 8575   3.817   2.835   3.512
 2131SOL     OW 8576   3.795   3.085   3.375
 2131SOL    HW2 8577   3.869   3.126   3.420
 2131SOL    HW3 8578   3.811   3.101   3.282
 2131SOL    MW4 8579   3.807   3.093   3.369
 2132SOL     OW 8580   3.592   3.240   3.479
 2132SOL    HW2 8581   3.613   3.329   3.449
 2132SOL    HW3 8582   3.659   3.185   3.439
 2132SOL    MW4 8583   3.603   3.245   3.470
 2133SOL     OW 8584   3.629   3.493   3.421
 2133SOL    HW2 8585   3.553   3.544   3.450
 2133SOL    HW3 8586   3.637   3.513   3.328
 2133SOL    MW4 8587   3.620   3.502   3.412
 2134SOL     OW 8588   3.834   3.656   3.494
 2134SOL    HW2 8589   3.830   3.653   3.590
 2134SOL    HW3 8590   3.756   3.607   3.466
 2134SOL    MW4 8591   3.823   3.649   3.503
 2135SOL     OW 8592   3.838   3.917   3.399
 2135SOL    HW2 8593   3.754   3.948   3.434
 2135SOL    HW3 8594   3.842   3.825   3.425
 2135SOL    MW4 8595   3.827   3.909   3.407
 2136SOL     OW 8596   3.586   3.984   3.473
 2136SOL    HW2 8597   3.594   4.006   3.566
 2136SOL    HW3 8598   3.579   4.069   3.429
 2136SOL    MW4 8599   3.586   3.998   3.480
 2137SOL     OW 8600   3.581   4.246   3.387
 2137SOL    HW2 8601   3.514   4.304   3.422
 2137SOL    HW3 8602   3.577   4.257   3.292
 2137SOL    MW4 8603   3.572   4.255   3.379
 2138SOL     OW 8604   3.807   4.360   3.505
 2138SOL    HW2 8605   3.732   4.315   3.467
 2138SOL    HW3 8606   3.806   4.447   3.465
 2138SOL    MW4 8607   3.797   4.366   3.495
 2139SOL     OW 8608   4.276   0.017   3.372
 2139SOL    HW2 8609   4.270  -0.077   3.391
 2139SOL    HW3 8610   4.361   0.043   3.409
 2139SOL    MW4 8611   4.287   0.008   3.380
 2140SOL     OW 8612   4.055   0.125   3.503
 2140SOL    HW2 8613   4.140   0.092   3.474
 2140SOL    HW3 8614   3.992   0.060   3.473
 2140SOL    MW4 8615   4.058   0.112   3.495
 2141SOL     OW 8616   4.030   0.403   3.402
 2141SOL    HW2 8617   4.039   0.309   3.418
 2141SOL    HW3 8618   4.028   0.411   3.306
 2141SOL    MW4 8619   4.031   0.392   3.391
 2142SOL     OW 8620   4.277   0.509   3.488
 2142SOL    HW2 8621   4.265   0.604   3.476
 2142SOL    HW3 8622   4.194   0.471   3.460
 2142SOL    MW4 8623   4.265   0.517   3.483
 2143SOL     OW 8624   4.245   0.771   3.424
 2143SOL    HW2 8625   4.324   0.810   3.460
 2143SOL    HW3 8626   4.260   0.766   3.330
 2143SOL    MW4 8627   4.257   0.776   3.416
 2144SOL     OW 8628   4.031   0.893   3.493
 2144SOL    HW2 8629   4.024   0.970   3.437
 2144SOL    HW3 8630   4.110   0.849   3.463
 2144SOL    MW4 8631   4.041   0.898   3.482
 2145SOL     OW 8632   4.024   1.151   3.362
 2145SOL    HW2 8633   4.106   1.178   3.404
 2145SOL    HW3 8634   3.958   1.209   3.399
 2145SOL    MW4 8635   4.026   1.162   3.372
 2146SOL     OW 8636   4.223   1.273   3.515
 2146SOL    HW2 8637   4.214   1.362   3.482
 2146SOL    HW3 8638   4.315   1.251   3.501
 2146SOL    MW4 8639   4.234   1.282   3.509
 2147SOL     OW 8640   4.264   1.538   3.411
 2147SOL    HW2 8641   4.187   1.586   3.441
 2147SOL    HW3 8642   4.255   1.534   3.316
 2147SOL    MW4 8643   4.253   1.543   3.402
 2148SOL     OW 8644   4.021   1.656   3.505
 2148SOL    HW2 8645   4.021   1.672   3.599
 2148SOL    HW3 8646   4.035   1.742   3.466
 2148SOL    MW4 8647   4.023   1.669   3.512
 2149SOL     OW 8648   4.021   1.908   3.378
 2149SOL    HW2 8649   4.095   1.959   3.412
 2149SOL    HW3 8650   4.026   1.919   3.283
 2149SOL    MW4 8651   4.032   1.916   3.370
 2150SOL     OW 8652   4.216   2.063   3.490
 2150SOL    HW2 8653   4.234   2.148   3.450
 2150SOL    HW3 8654   4.300   2.017   3.490
 2150SOL    MW4 8655   4.229   2.068   3.485
 2151SOL     OW 8656   4.269   2.319   3.388
 2151SOL    HW2 8657   4.181   2.343   3.415
 2151SOL    HW3 8658   4.265   2.317   3.292
 2151SOL    MW4 8659   4.257   2.322   3.379
 2152SOL     OW 8660   4.029   2.433   3.455
 2152SOL    HW2 8661   4.014   2.454   3.547
 2152SOL    HW3 8662   4.038   2.519   3.412
 2152SOL    MW4 8663   4.028   2.447   3.461
 2153SOL     OW 8664   4.033   2.691   3.378
 2153SOL    HW2 8665   4.105   2.732   3.426
 2153SOL    HW3 8666   3.955   2.738   3.408
 2153SOL    MW4 8667   4.032   2.703   3.388
 2154SOL     OW 8668   4.242   2.810   3.484
 2154SOL    HW2 8669   4.249   2.806   3.579
 2154SOL    HW3 8670   4.329   2.786   3.453
 2154SOL    MW4 8671   4.254   2.806   3.492
 2155SOL     OW 8672   4.251   3.074   3.407
 2155SOL    HW2 8673   4.255   2.982   3.433
 2155SOL    HW3 8674   4.258   3.073   3.312
 2155SOL    MW4 8675   4.253   3.062   3.398
 2156SOL     OW 8676   4.011   3.202   3.509
 2156SOL    HW2 8677   4.006   3.297   3.501
 2156SOL    HW3 8678   4.090   3.178   3.461
 2156SOL    MW4 8679   4.021   3.211   3.502
 2157SOL     OW 8680   4.056   3.492   3.451
 2157SOL    HW2 8681   4.133   3.519   3.500
 2157SOL    HW3 8682   3.996   3.567   3.456
 2157SOL    MW4 8683   4.058   3.506   3.458
 2158SOL     OW 8684   4.294   3.614   3.504
 2158SOL    HW2 8685   4.294   3.633   3.597
 2158SOL    HW3 8686   4.281   3.699   3.462
 2158SOL    MW4 8687   4.293   3.627   3.511
 2159SOL     OW 8688   4.285   3.870   3.407
 2159SOL    HW2 8689   4.362   3.915   3.442
 2159SOL    HW3 8690   4.276   3.904   3.318
 2159SOL    MW4 8691   4.294   3.881   3.400
 2160SOL     OW 8692   4.072   3.989   3.533
 2160SOL    HW2 8693   4.145   3.942   3.495
 2160SOL    HW3 8694   3.994   3.953   3.490
 2160SOL    MW4 8695   4.071   3.978   3.522
 2161SOL     OW 8696   4.062   4.255   3.409
 2161SOL    HW2 8697   4.053   4.168   3.447
 2161SOL    HW3 8698   3.985   4.303   3.440
 2161SOL    MW4 8699   4.051   4.250   3.418
 2162SOL     OW 8700   4.281   4.417   3.492
 2162SOL    HW2 8701   4.295   4.421   3.586
 2162SOL    HW3 8702   4.202   4.365   3.481
 2162SOL    MW4 8703   4.273   4.411   3.503
 2163SOL     OW 8704   0.270   0.010   3.883
 2163SOL    HW2 8705   0.269   0.014   3.978
 2163SOL    HW3 8706   0.199   0.068   3.856
 2163SOL    MW4 8707   0.260   0.018   3.892
 2164SOL     OW 8708   0.057   0.145   3.777
 2164SOL    HW2 8709   0.035   0.233   3.807
 2164SOL    HW3 8710   0.041   0.146   3.683
 2164SOL    MW4 8711   0.052   0.157   3.769
 2165SOL     OW 8712   0.020   0.393   3.891
 2165SOL    HW2 8713  -0.050   0.437   3.842
 2165SOL    HW3 8714   0.099   0.444   3.871
 2165SOL    MW4 8715   0.021   0.405   3.882
 2166SOL     OW 8716   0.262   0.535   3.828
 2166SOL    HW2 8717   0.241   0.627   3.848
 2166SOL    HW3 8718   0.288   0.536   3.736
 2166SOL    MW4 8719   0.263   0.548   3.818
 2167SOL     OW 8720   0.247   0.803   3.907
 2167SOL    HW2 8721   0.244   0.792   4.002
 2167SOL    HW3 8722   0.164   0.846   3.885
 2167SOL    MW4 8723   0.235   0.808   3.917
 2168SOL     OW 8724   0.034   0.906   3.787
 2168SOL    HW2 8725  -0.042   0.863   3.827
 2168SOL    HW3 8726   0.036   0.993   3.827
 2168SOL    MW4 8727   0.024   0.912   3.797
 2169SOL     OW 8728   0.032   1.162   3.909
 2169SOL    HW2 8729  -0.044   1.187   3.856
 2169SOL    HW3 8730   0.102   1.220   3.880
 2169SOL    MW4 8731   0.031   1.173   3.898
 2170SOL     OW 8732   0.253   1.275   3.784
 2170SOL    HW2 8733   0.262   1.365   3.814
 2170SOL    HW3 8734   0.251   1.282   3.688
 2170SOL    MW4 8735   0.254   1.288   3.775
 2171SOL     OW 8736   0.225   1.555   3.857
 2171SOL    HW2 8737   0.218   1.568   3.951
 2171SOL    HW3 8738   0.136   1.567   3.824
 2171SOL    MW4 8739   0.212   1.559   3.865
 2172SOL     OW 8740   4.475   1.654   3.757
 2172SOL    HW2 8741   4.468   1.742   3.794
 2172SOL    HW3 8742   4.510   1.667   3.669
 2172SOL    MW4 8743   4.479   1.667   3.750
 2173SOL     OW 8744   4.474   1.924   3.837
 2173SOL    HW2 8745   4.471   1.935   3.932
 2173SOL    HW3 8746   4.417   1.993   3.803
 2173SOL    MW4 8747   4.466   1.935   3.845
 2174SOL     OW 8748   0.245   2.013   3.733
 2174SOL    HW2 8749   0.224   2.099   3.767
 2174SOL    HW3 8750   0.170   1.958   3.757
 2174SOL    MW4 8751   0.233   2.017   3.741
 2175SOL     OW 8752   0.213   2.258   3.827
 2175SOL    HW2 8753   0.217   2.264   3.923
 2175SOL    HW3 8754   0.134   2.306   3.803
 2175SOL    MW4 8755   0.203   2.265   3.837
 2176SOL     OW 8756   4.487   2.440   3.744
 2176SOL    HW2 8757   4.401   2.421   3.781
 2176SOL    HW3 8758   4.512   2.524   3.783
 2176SOL    MW4 8759   4.479   2.449   3.754
 2177SOL     OW 8760   0.016   2.677   3.876
 2177SOL    HW2 8761   0.011   2.688   3.971
 2177SOL    HW3 8762   0.092   2.729   3.849
 2177SOL    MW4 8763   0.025   2.686   3.885
 2178SOL     OW 8764   0.231   2.831   3.802
 2178SOL    HW2 8765   0.300   2.769   3.828
 2178SOL    HW3 8766   0.239   2.836   3.707
 2178SOL    MW4 8767   0.241   2.823   3.793
 2179SOL     OW 8768   0.267   3.102   3.851
 2179SOL    HW2 8769   0.275   3.103   3.947
 2179SOL    HW3 8770   0.258   3.010   3.829
 2179SOL    MW4 8771   0.267   3.090   3.861
 2180SOL     OW 8772   0.012   3.185   3.804
 2180SOL    HW2 8773   0.104   3.158   3.811
 2180SOL    HW3 8774  -0.011   3.167   3.713
 2180SOL    MW4 8775   0.021   3.179   3.793
 2181SOL     OW 8776   4.480   3.446   3.860
 2181SOL    HW2 8777   4.553   3.493   3.819
 2181SOL    HW3 8778   4.496   3.354   3.840
 2181SOL    MW4 8779   4.492   3.440   3.852
 2182SOL     OW 8780   0.205   3.609   3.772
 2182SOL    HW2 8781   0.294   3.576   3.766
 2182SOL    HW3 8782   0.213   3.694   3.816
 2182SOL    MW4 8783   0.218   3.616   3.777
 2183SOL     OW 8784   0.231   3.849   3.899
 2183SOL    HW2 8785   0.243   3.820   3.990
 2183SOL    HW3 8786   0.304   3.908   3.882
 2183SOL    MW4 8787   0.242   3.853   3.909
 2184SOL     OW 8788   0.041   4.000   3.779
 2184SOL    HW2 8789  -0.029   3.964   3.833
 2184SOL    HW3 8790   0.120   3.955   3.808
 2184SOL    MW4 8791   0.042   3.990   3.790
 2185SOL     OW 8792   0.007   4.271   3.867
 2185SOL    HW2 8793   0.084   4.323   3.843
 2185SOL    HW3 8794   0.026   4.183   3.834
 2185SOL    MW4 8795   0.020   4.266   3.859
 2186SOL     OW 8796   0.241   4.406   3.799
 2186SOL    HW2 8797   0.310   4.356   3.842
 2186SOL    HW3 8798   0.254   4.496   3.828
 2186SOL    MW4 8799   0.252   4.411   3.808
 2187SOL     OW 8800   0.684   0.013   3.957
 2187SOL    HW2 8801   0.674  -0.071   3.913
 2187SOL    HW3 8802   0.615   0.069   3.921
 2187SOL    MW4 8803   0.674   0.010   3.947
 2188SOL     OW 8804   0.496   0.135   3.773
 2188SOL    HW2 8805   0.475   0.214   3.824
 2188SOL    HW3 8806   0.428   0.072   3.797
 2188SOL    MW4 8807   0.484   0.137   3.783
 2189SOL     OW 8808   0.478   0.372   3.909
 2189SOL    HW2 8809   0.551   0.428   3.883
 2189SOL    HW3 8810   0.399   0.421   3.886
 2189SOL    MW4 8811   0.477   0.386   3.903
 2190SOL     OW 8812   0.709   0.495   3.791
 2190SOL    HW2 8813   0.781   0.444   3.827
 2190SOL    HW3 8814   0.720   0.582   3.830
 2190SOL    MW4 8815   0.720   0.500   3.801
 2191SOL     OW 8816   0.682   0.745   3.909
 2191SOL    HW2 8817   0.761   0.782   3.870
 2191SOL    HW3 8818   0.611   0.801   3.878
 2191SOL    MW4 8819   0.683   0.757   3.899
 2192SOL     OW 8820   0.487   0.898   3.806
 2192SOL    HW2 8821   0.493   0.986   3.842
 2192SOL    HW3 8822   0.410   0.861   3.849
 2192SOL    MW4 8823   0.477   0.905   3.816
 2193SOL     OW 8824   0.501   1.156   3.879
 2193SOL    HW2 8825   0.569   1.212   3.841
 2193SOL    HW3 8826   0.419   1.191   3.847
 2193SOL    MW4 8827   0.499   1.168   3.870
 2194SOL     OW 8828   0.687   1.321   3.756
 2194SOL    HW2 8829   0.767   1.278   3.785
 2194SOL    HW3 8830   0.676   1.292   3.665
 2194SOL    MW4 8831   0.696   1.311   3.748
 2195SOL     OW 8832   0.667   1.570   3.882
 2195SOL    HW2 8833   0.740   1.623   3.850
 2195SOL    HW3 8834   0.671   1.490   3.831
 2195SOL    MW4 8835   0.677   1.567   3.871
 2196SOL     OW 8836   0.444   1.654   3.706
 2196SOL    HW2 8837   0.523   1.617   3.746
 2196SOL    HW3 8838   0.372   1.618   3.756
 2196SOL    MW4 8839   0.445   1.645   3.718
 2197SOL     OW 8840   0.441   1.890   3.874
 2197SOL    HW2 8841   0.441   1.808   3.826
 2197SOL    HW3 8842   0.358   1.932   3.851
 2197SOL    MW4 8843   0.430   1.885   3.865
 2198SOL     OW 8844   0.624   2.031   3.730
 2198SOL    HW2 8845   0.616   2.116   3.774
 2198SOL    HW3 8846   0.546   1.983   3.757
 2198SOL    MW4 8847   0.612   2.036   3.739
 2199SOL     OW 8848   0.658   2.268   3.865
 2199SOL    HW2 8849   0.732   2.317   3.828
 2199SOL    HW3 8850   0.581   2.306   3.823
 2199SOL    MW4 8851   0.658   2.280   3.854
 2200SOL     OW 8852   0.446   2.390   3.743
 2200SOL    HW2 8853   0.368   2.334   3.752
 2200SOL    HW3 8854   0.448   2.413   3.650
 2200SOL    MW4 8855   0.436   2.386   3.732
 2201SOL     OW 8856   0.458   2.647   3.879
 2201SOL    HW2 8857   0.520   2.689   3.819
 2201SOL    HW3 8858   0.445   2.560   3.842
 2201SOL    MW4 8859   0.464   2.641   3.866
 2202SOL     OW 8860   0.688   2.822   3.777
 2202SOL    HW2 8861   0.767   2.778   3.807
 2202SOL    HW3 8862   0.697   2.826   3.682
 2202SOL    MW4 8863   0.699   2.817   3.769
 2203SOL     OW 8864   0.684   3.082   3.859
 2203SOL    HW2 8865   0.681   3.075   3.954
 2203SOL    HW3 8866   0.692   2.992   3.829
 2203SOL    MW4 8867   0.685   3.069   3.868
 2204SOL     OW 8868   0.470   3.230   3.731
 2204SOL    HW2 8869   0.549   3.196   3.773
 2204SOL    HW3 8870   0.399   3.183   3.773
 2204SOL    MW4 8871   0.471   3.220   3.742
 2205SOL     OW 8872   0.461   3.498   3.826
 2205SOL    HW2 8873   0.543   3.543   3.803
 2205SOL    HW3 8874   0.470   3.411   3.788
 2205SOL    MW4 8875   0.473   3.493   3.818
 2206SOL     OW 8876   0.714   3.602   3.766
 2206SOL    HW2 8877   0.708   3.696   3.777
 2206SOL    HW3 8878   0.718   3.589   3.671
 2206SOL    MW4 8879   0.714   3.612   3.755
 2207SOL     OW 8880   0.709   3.868   3.834
 2207SOL    HW2 8881   0.720   3.863   3.929
 2207SOL    HW3 8882   0.779   3.926   3.805
 2207SOL    MW4 8883   0.720   3.875   3.843
 2208SOL     OW 8884   0.452   4.000   3.787
 2208SOL    HW2 8885   0.536   3.968   3.820
 2208SOL    HW3 8886   0.458   3.991   3.692
 2208SOL    MW4 8887   0.464   3.995   3.779
 2209SOL     OW 8888   0.442   4.260   3.916
 2209SOL    HW2 8889   0.514   4.320   3.901
 2209SOL    HW3 8890   0.463   4.183   3.862
 2209SOL    MW4 8891   0.454   4.258   3.907
 2210SOL     OW 8892   0.658   4.435   3.821
 2210SOL    HW2 8893   0.743   4.398   3.844
 2210SOL    HW3 8894   0.646   4.412   3.729
 2210SOL    MW4 8895   0.667   4.427   3.812
 2211SOL     OW 8896   1.136   0.024   3.865
 2211SOL    HW2 8897   1.217   0.064   3.833
 2211SOL    HW3 8898   1.148  -0.070   3.849
 2211SOL    MW4 8899   1.149   0.017   3.859
 2212SOL     OW 8900   0.881   0.095   3.786
 2212SOL    HW2 8901   0.971   0.079   3.815
 2212SOL    HW3 8902   0.826   0.056   3.854
 2212SOL    MW4 8903   0.886   0.088   3.799
 2213SOL     OW 8904   0.923   0.349   3.888
 2213SOL    HW2 8905   0.928   0.359   3.983
 2213SOL    HW3 8906   0.894   0.259   3.875
 2213SOL    MW4 8907   0.920   0.339   3.899
 2214SOL     OW 8908   1.144   0.499   3.779
 2214SOL    HW2 8909   1.223   0.458   3.814
 2214SOL    HW3 8910   1.073   0.442   3.808
 2214SOL    MW4 8911   1.145   0.486   3.787
 2215SOL     OW 8912   1.127   0.771   3.871
 2215SOL    HW2 8913   1.125   0.765   3.966
 2215SOL    HW3 8914   1.126   0.679   3.842
 2215SOL    MW4 8915   1.127   0.758   3.879
 2216SOL     OW 8916   0.900   0.891   3.811
 2216SOL    HW2 8917   0.983   0.847   3.828
 2216SOL    HW3 8918   0.883   0.876   3.718
 2216SOL    MW4 8919   0.909   0.883   3.801
 2217SOL     OW 8920   0.920   1.156   3.861
 2217SOL    HW2 8921   0.915   1.161   3.956
 2217SOL    HW3 8922   0.907   1.063   3.841
 2217SOL    MW4 8923   0.917   1.144   3.871
 2218SOL     OW 8924   1.152   1.307   3.789
 2218SOL    HW2 8925   1.152   1.388   3.840
 2218SOL    HW3 8926   1.080   1.256   3.827
 2218SOL    MW4 8927   1.142   1.311   3.801
 2219SOL     OW 8928   1.145   1.582   3.906
 2219SOL    HW2 8929   1.168   1.579   3.999
 2219SOL    HW3 8930   1.225   1.610   3.862
 2219SOL    MW4 8931   1.158   1.585   3.913
 2220SOL     OW 8932   0.899   1.690   3.799
 2220SOL    HW2 8933   0.981   1.670   3.844
 2220SOL    HW3 8934   0.923   1.702   3.708
 2220SOL    MW4 8935   0.913   1.689   3.793
 2221SOL     OW 8936   0.859   1.959   3.869
 2221SOL    HW2 8937   0.863   1.864   3.858
 2221SOL    HW3 8938   0.779   1.984   3.822
 2221SOL    MW4 8939   0.849   1.950   3.861
 2222SOL     OW 8940   1.104   2.052   3.753
 2222SOL    HW2 8941   1.051   1.990   3.803
 2222SOL    HW3 8942   1.083   2.034   3.662
 2222SOL    MW4 8943   1.094   2.042   3.748
 2223SOL     OW 8944   1.116   2.312   3.861
 2223SOL    HW2 8945   1.113   2.312   3.956
 2223SOL    HW3 8946   1.113   2.220   3.837
 2223SOL    MW4 8947   1.115   2.300   3.870
 2224SOL     OW 8948   0.869   2.429   3.765
 2224SOL    HW2 8949   0.897   2.519   3.786
 2224SOL    HW3 8950   0.948   2.377   3.777
 2224SOL    MW4 8951   0.883   2.434   3.770
 2225SOL     OW 8952   0.933   2.693   3.824
 2225SOL    HW2 8953   0.937   2.679   3.919
 2225SOL    HW3 8954   1.014   2.740   3.804
 2225SOL    MW4 8955   0.945   2.698   3.834
 2226SOL     OW 8956   1.157   2.854   3.755
 2226SOL    HW2 8957   1.224   2.802   3.798
 2226SOL    HW3 8958   1.158   2.938   3.801
 2226SOL    MW4 8959   1.166   2.858   3.766
 2227SOL     OW 8960   1.161   3.088   3.892
 2227SOL    HW2 8961   1.228   3.134   3.841
 2227SOL    HW3 8962   1.078   3.121   3.857
 2227SOL    MW4 8963   1.159   3.099   3.880
 2228SOL     OW 8964   0.922   3.181   3.798
 2228SOL    HW2 8965   0.840   3.133   3.816
 2228SOL    HW3 8966   0.908   3.221   3.712
 2228SOL    MW4 8967   0.909   3.180   3.789
 2229SOL     OW 8968   0.895   3.451   3.908
 2229SOL    HW2 8969   0.893   3.359   3.882
 2229SOL    HW3 8970   0.834   3.495   3.849
 2229SOL    MW4 8971   0.887   3.445   3.897
 2230SOL     OW 8972   1.122   3.580   3.759
 2230SOL    HW2 8973   1.135   3.667   3.798
 2230SOL    HW3 8974   1.051   3.541   3.810
 2230SOL    MW4 8975   1.115   3.586   3.771
 2231SOL     OW 8976   1.141   3.834   3.874
 2231SOL    HW2 8977   1.146   3.845   3.969
 2231SOL    HW3 8978   1.210   3.891   3.840
 2231SOL    MW4 8979   1.151   3.843   3.882
 2232SOL     OW 8980   0.932   4.025   3.794
 2232SOL    HW2 8981   1.008   3.974   3.822
 2232SOL    HW3 8982   0.932   4.017   3.699
 2232SOL    MW4 8983   0.942   4.017   3.786
 2233SOL     OW 8984   0.902   4.312   3.866
 2233SOL    HW2 8985   0.904   4.310   3.962
 2233SOL    HW3 8986   0.904   4.220   3.839
 2233SOL    MW4 8987   0.902   4.300   3.875
 2234SOL     OW 8988   1.156   4.422   3.817
 2234SOL    HW2 8989   1.081   4.368   3.842
 2234SOL    HW3 8990   1.144   4.436   3.723
 2234SOL    MW4 8991   1.145   4.417   3.808
 2235SOL     OW 8992   1.584   4.650   3.885
 2235SOL    HW2 8993   1.580   4.655   3.980
 2235SOL    HW3 8994   1.582   4.557   3.865
 2235SOL    MW4 8995   1.583   4.639   3.895
 2236SOL     OW 8996   1.380   0.107   3.730
 2236SOL    HW2 8997   1.374   0.201   3.749
 2236SOL    HW3 8998   1.458   0.078   3.778
 2236SOL    MW4 8999   1.390   0.116   3.739
 2237SOL     OW 9000   1.378   0.369   3.849
 2237SOL    HW2 9001   1.384   0.361   3.944
 2237SOL    HW3 9002   1.452   0.424   3.825
 2237SOL    MW4 9003   1.388   0.375   3.859
 2238SOL     OW 9004   1.593   0.530   3.798
 2238SOL    HW2 9005   1.666   0.482   3.837
 2238SOL    HW3 9006   1.602   0.619   3.832
 2238SOL    MW4 9007   1.604   0.536   3.807
 2239SOL     OW 9008   1.593   0.795   3.903
 2239SOL    HW2 9009   1.661   0.839   3.851
 2239SOL    HW3 9010   1.511   0.822   3.861
 2239SOL    MW4 9011   1.591   0.805   3.891
 2240SOL     OW 9012   1.362   0.910   3.787
 2240SOL    HW2 9013   1.386   0.984   3.842
 2240SOL    HW3 9014   1.280   0.878   3.823
 2240SOL    MW4 9015   1.355   0.915   3.799
 2241SOL     OW 9016   1.369   1.169   3.914
 2241SOL    HW2 9017   1.448   1.214   3.883
 2241SOL    HW3 9018   1.297   1.212   3.868
 2241SOL    MW4 9019   1.370   1.180   3.904
 2242SOL     OW 9020   1.626   1.256   3.781
 2242SOL    HW2 9021   1.710   1.233   3.821
 2242SOL    HW3 9022   1.622   1.352   3.786
 2242SOL    MW4 9023   1.636   1.266   3.787
 2243SOL     OW 9024   1.604   1.544   3.824
 2243SOL    HW2 9025   1.601   1.549   3.919
 2243SOL    HW3 9026   1.686   1.586   3.800
 2243SOL    MW4 9027   1.614   1.550   3.833
 2244SOL     OW 9028   1.343   1.643   3.722
 2244SOL    HW2 9029   1.336   1.736   3.742
 2244SOL    HW3 9030   1.426   1.616   3.762
 2244SOL    MW4 9031   1.353   1.652   3.730
 2245SOL     OW 9032   1.322   1.895   3.809
 2245SOL    HW2 9033   1.345   1.918   3.900
 2245SOL    HW3 9034   1.248   1.952   3.788
 2245SOL    MW4 9035   1.315   1.906   3.818
 2246SOL     OW 9036   1.600   2.047   3.756
 2246SOL    HW2 9037   1.516   2.002   3.765
 2246SOL    HW3 9038   1.605   2.070   3.663
 2246SOL    MW4 9039   1.589   2.044   3.745
 2247SOL     OW 9040   1.570   2.301   3.863
 2247SOL    HW2 9041   1.651   2.349   3.842
 2247SOL    HW3 9042   1.583   2.215   3.824
 2247SOL    MW4 9043   1.583   2.296   3.855
 2248SOL     OW 9044   1.366   2.456   3.766
 2248SOL    HW2 9045   1.436   2.404   3.804
 2248SOL    HW3 9046   1.285   2.415   3.798
 2248SOL    MW4 9047   1.364   2.444   3.775
 2249SOL     OW 9048   1.366   2.714   3.865
 2249SOL    HW2 9049   1.352   2.716   3.960
 2249SOL    HW3 9050   1.364   2.622   3.842
 2249SOL    MW4 9051   1.364   2.702   3.875
 2250SOL     OW 9052   1.587   2.851   3.755
 2250SOL    HW2 9053   1.512   2.801   3.786
 2250SOL    HW3 9054   1.581   2.847   3.659
 2250SOL    MW4 9055   1.576   2.844   3.746
 2251SOL     OW 9056   1.579   3.115   3.855
 2251SOL    HW2 9057   1.590   3.103   3.950
 2251SOL    HW3 9058   1.594   3.028   3.818
 2251SOL    MW4 9059   1.582   3.102   3.863
 2252SOL     OW 9060   1.359   3.212   3.757
 2252SOL    HW2 9061   1.368   3.305   3.781
 2252SOL    HW3 9062   1.437   3.171   3.793
 2252SOL    MW4 9063   1.371   3.219   3.765
 2253SOL     OW 9064   1.346   3.463   3.853
 2253SOL    HW2 9065   1.421   3.516   3.827
 2253SOL    HW3 9066   1.272   3.504   3.807
 2253SOL    MW4 9067   1.346   3.475   3.843
 2254SOL     OW 9068   1.594   3.587   3.784
 2254SOL    HW2 9069   1.681   3.562   3.813
 2254SOL    HW3 9070   1.579   3.674   3.822
 2254SOL    MW4 9071   1.603   3.595   3.792
 2255SOL     OW 9072   1.570   3.866   3.844
 2255SOL    HW2 9073   1.579   3.880   3.938
 2255SOL    HW3 9074   1.492   3.916   3.820
 2255SOL    MW4 9075   1.561   3.874   3.853
 2256SOL     OW 9076   1.330   4.009   3.775
 2256SOL    HW2 9077   1.352   4.097   3.807
 2256SOL    HW3 9078   1.304   4.023   3.684
 2256SOL    MW4 9079   1.330   4.023   3.767
 2257SOL     OW 9080   1.364   4.263   3.892
 2257SOL    HW2 9081   1.448   4.305   3.872
 2257SOL    HW3 9082   1.298   4.325   3.863
 2257SOL    MW4 9083   1.366   4.277   3.885
 2258SOL     OW 9084   1.609   4.378   3.828
 2258SOL    HW2 9085   1.677   4.321   3.865
 2258SOL    HW3 9086   1.621   4.371   3.733
 2258SOL    MW4 9087   1.620   4.370   3.820
 2259SOL     OW 9088   2.005   4.650   3.920
 2259SOL    HW2 9089   2.081   4.692   3.879
 2259SOL    HW3 9090   1.990   4.572   3.867
 2259SOL    MW4 9091   2.013   4.646   3.907
 2260SOL     OW 9092   1.793   0.134   3.820
 2260SOL    HW2 9093   1.862   0.072   3.847
 2260SOL    HW3 9094   1.712   0.092   3.847
 2260SOL    MW4 9095   1.792   0.120   3.827
 2261SOL     OW 9096   1.812   0.419   3.916
 2261SOL    HW2 9097   1.823   0.427   4.011
 2261SOL    HW3 9098   1.800   0.325   3.901
 2261SOL    MW4 9099   1.812   0.408   3.927
 2262SOL     OW 9100   2.044   0.490   3.792
 2262SOL    HW2 9101   1.959   0.483   3.835
 2262SOL    HW3 9102   2.024   0.500   3.699
 2262SOL    MW4 9103   2.030   0.491   3.786
 2263SOL     OW 9104   2.055   0.752   3.870
 2263SOL    HW2 9105   2.027   0.753   3.961
 2263SOL    HW3 9106   2.080   0.661   3.853
 2263SOL    MW4 9107   2.055   0.740   3.880
 2264SOL     OW 9108   1.823   0.888   3.782
 2264SOL    HW2 9109   1.909   0.846   3.784
 2264SOL    HW3 9110   1.800   0.891   3.689
 2264SOL    MW4 9111   1.832   0.883   3.770
 2265SOL     OW 9112   1.845   1.150   3.935
 2265SOL    HW2 9113   1.824   1.146   4.028
 2265SOL    HW3 9114   1.838   1.059   3.905
 2265SOL    MW4 9115   1.841   1.138   3.943
 2266SOL     OW 9116   2.073   1.236   3.769
 2266SOL    HW2 9117   2.151   1.198   3.810
 2266SOL    HW3 9118   2.000   1.201   3.820
 2266SOL    MW4 9119   2.074   1.227   3.781
 2267SOL     OW 9120   2.035   1.510   3.882
 2267SOL    HW2 9121   1.964   1.557   3.839
 2267SOL    HW3 9122   2.043   1.428   3.834
 2267SOL    MW4 9123   2.027   1.506   3.870
 2268SOL     OW 9124   1.843   1.662   3.758
 2268SOL    HW2 9125   1.861   1.752   3.784
 2268SOL    HW3 9126   1.852   1.663   3.663
 2268SOL    MW4 9127   1.847   1.674   3.749
 2269SOL     OW 9128   1.833   1.908   3.857
 2269SOL    HW2 9129   1.833   1.903   3.953
 2269SOL    HW3 9130   1.745   1.938   3.835
 2269SOL    MW4 9131   1.821   1.911   3.867
 2270SOL     OW 9132   2.018   2.073   3.765
 2270SOL    HW2 9133   1.945   2.016   3.788
 2270SOL    HW3 9134   2.019   2.073   3.669
 2270SOL    MW4 9135   2.009   2.065   3.755
 2271SOL     OW 9136   2.013   2.317   3.918
 2271SOL    HW2 9137   1.944   2.355   3.864
 2271SOL    HW3 9138   2.034   2.233   3.875
 2271SOL    MW4 9139   2.007   2.311   3.905
 2272SOL     OW 9140   1.810   2.436   3.753
 2272SOL    HW2 9141   1.834   2.526   3.775
 2272SOL    HW3 9142   1.805   2.434   3.658
 2272SOL    MW4 9143   1.813   2.448   3.744
 2273SOL     OW 9144   1.826   2.696   3.864
 2273SOL    HW2 9145   1.836   2.705   3.959
 2273SOL    HW3 9146   1.745   2.742   3.843
 2273SOL    MW4 9147   1.817   2.703   3.874
 2274SOL     OW 9148   2.023   2.829   3.706
 2274SOL    HW2 9149   2.104   2.804   3.751
 2274SOL    HW3 9150   1.954   2.784   3.755
 2274SOL    MW4 9151   2.024   2.820   3.718
 2275SOL     OW 9152   1.989   3.079   3.814
 2275SOL    HW2 9153   2.076   3.118   3.801
 2275SOL    HW3 9154   1.993   2.995   3.769
 2275SOL    MW4 9155   2.001   3.073   3.806
 2276SOL     OW 9156   1.800   3.243   3.737
 2276SOL    HW2 9157   1.883   3.198   3.748
 2276SOL    HW3 9158   1.738   3.195   3.791
 2276SOL    MW4 9159   1.803   3.231   3.745
 2277SOL     OW 9160   1.838   3.485   3.863
 2277SOL    HW2 9161   1.906   3.538   3.820
 2277SOL    HW3 9162   1.840   3.401   3.816
 2277SOL    MW4 9163   1.847   3.481   3.851
 2278SOL     OW 9164   2.039   3.664   3.768
 2278SOL    HW2 9165   2.123   3.623   3.787
 2278SOL    HW3 9166   2.034   3.665   3.672
 2278SOL    MW4 9167   2.049   3.659   3.758
 2279SOL     OW 9168   2.036   3.894   3.925
 2279SOL    HW2 9169   2.112   3.931   3.879
 2279SOL    HW3 9170   2.021   3.809   3.882
 2279SOL    MW4 9171   2.044   3.888   3.913
 2280SOL     OW 9172   1.809   3.991   3.780
 2280SOL    HW2 9173   1.885   3.951   3.822
 2280SOL    HW3 9174   1.738   3.930   3.796
 2280SOL    MW4 9175   1.810   3.978   3.788
 2281SOL     OW 9176   1.812   4.217   3.916
 2281SOL    HW2 9177   1.874   4.276   3.873
 2281SOL    HW3 9178   1.812   4.138   3.861
 2281SOL    MW4 9179   1.820   4.214   3.903
 2282SOL     OW 9180   1.988   4.391   3.809
 2282SOL    HW2 9181   2.068   4.347   3.838
 2282SOL    HW3 9182   2.002   4.408   3.716
 2282SOL    MW4 9183   2.001   4.387   3.801
 2283SOL     OW 9184   2.459   0.012   3.861
 2283SOL    HW2 9185   2.458   0.021   3.957
 2283SOL    HW3 9186   2.529   0.071   3.833
 2283SOL    MW4 9187   2.468   0.021   3.870
 2284SOL     OW 9188   2.215   0.115   3.781
 2284SOL    HW2 9189   2.297   0.066   3.786
 2284SOL    HW3 9190   2.198   0.125   3.688
 2284SOL    MW4 9191   2.223   0.110   3.770
 2285SOL     OW 9192   2.277   0.376   3.890
 2285SOL    HW2 9193   2.263   0.284   3.868
 2285SOL    HW3 9194   2.196   0.419   3.864
 2285SOL    MW4 9195   2.265   0.369   3.884
 2286SOL     OW 9196   2.470   0.504   3.744
 2286SOL    HW2 9197   2.407   0.450   3.792
 2286SOL    HW3 9198   2.456   0.481   3.652
 2286SOL    MW4 9199   2.459   0.494   3.739
 2287SOL     OW 9200   2.504   0.776   3.851
 2287SOL    HW2 9201   2.424   0.822   3.826
 2287SOL    HW3 9202   2.491   0.686   3.823
 2287SOL    MW4 9203   2.492   0.770   3.844
 2288SOL     OW 9204   2.278   0.897   3.744
 2288SOL    HW2 9205   2.198   0.859   3.780
 2288SOL    HW3 9206   2.269   0.886   3.649
 2288SOL    MW4 9207   2.266   0.890   3.736
 2289SOL     OW 9208   2.314   1.137   3.849
 2289SOL    HW2 9209   2.288   1.141   3.941
 2289SOL    HW3 9210   2.293   1.048   3.822
 2289SOL    MW4 9211   2.308   1.126   3.858
 2290SOL     OW 9212   2.521   1.274   3.730
 2290SOL    HW2 9213   2.498   1.360   3.764
 2290SOL    HW3 9214   2.445   1.219   3.752
 2290SOL    MW4 9215   2.508   1.278   3.737
 2291SOL     OW 9216   2.472   1.510   3.856
 2291SOL    HW2 9217   2.548   1.561   3.828
 2291SOL    HW3 9218   2.397   1.562   3.827
 2291SOL    MW4 9219   2.472   1.524   3.849
 2292SOL     OW 9220   2.240   1.647   3.746
 2292SOL    HW2 9221   2.221   1.737   3.773
 2292SOL    HW3 9222   2.176   1.594   3.794
 2292SOL    MW4 9223   2.229   1.651   3.756
 2293SOL     OW 9224   2.242   1.919   3.841
 2293SOL    HW2 9225   2.256   1.909   3.935
 2293SOL    HW3 9226   2.154   1.955   3.834
 2293SOL    MW4 9227   2.232   1.922   3.852
 2294SOL     OW 9228   2.470   2.057   3.780
 2294SOL    HW2 9229   2.444   2.141   3.816
 2294SOL    HW3 9230   2.396   1.999   3.801
 2294SOL    MW4 9231   2.457   2.060   3.787
 2295SOL     OW 9232   2.456   2.312   3.878
 2295SOL    HW2 9233   2.528   2.351   3.828
 2295SOL    HW3 9234   2.378   2.356   3.845
 2295SOL    MW4 9235   2.455   2.323   3.867
 2296SOL     OW 9236   2.238   2.424   3.752
 2296SOL    HW2 9237   2.157   2.375   3.764
 2296SOL    HW3 9238   2.242   2.441   3.658
 2296SOL    MW4 9239   2.228   2.420   3.741
 2297SOL     OW 9240   2.216   2.712   3.862
 2297SOL    HW2 9241   2.224   2.723   3.957
 2297SOL    HW3 9242   2.224   2.618   3.848
 2297SOL    MW4 9243   2.218   2.701   3.873
 2298SOL     OW 9244   2.463   2.803   3.787
 2298SOL    HW2 9245   2.377   2.764   3.801
 2298SOL    HW3 9246   2.471   2.812   3.692
 2298SOL    MW4 9247   2.453   2.799   3.777
 2299SOL     OW 9248   2.481   3.072   3.837
 2299SOL    HW2 9249   2.498   3.077   3.931
 2299SOL    HW3 9250   2.449   2.983   3.824
 2299SOL    MW4 9251   2.479   3.061   3.848
 2300SOL     OW 9252   2.220   3.220   3.779
 2300SOL    HW2 9253   2.236   3.314   3.778
 2300SOL    HW3 9254   2.306   3.182   3.798
 2300SOL    MW4 9255   2.234   3.227   3.782
 2301SOL     OW 9256   2.284   3.494   3.813
 2301SOL    HW2 9257   2.296   3.492   3.908
 2301SOL    HW3 9258   2.363   3.536   3.780
 2301SOL    MW4 9259   2.296   3.499   3.821
 2302SOL     OW 9260   2.535   3.651   3.751
 2302SOL    HW2 9261   2.601   3.585   3.772
 2302SOL    HW3 9262   2.516   3.636   3.659
 2302SOL    MW4 9263   2.541   3.640   3.742
 2303SOL     OW 9264   2.483   3.896   3.855
 2303SOL    HW2 9265   2.553   3.948   3.817
 2303SOL    HW3 9266   2.493   3.809   3.817
 2303SOL    MW4 9267   2.494   3.892   3.845
 2304SOL     OW 9268   2.243   4.014   3.783
 2304SOL    HW2 9269   2.324   3.967   3.800
 2304SOL    HW3 9270   2.240   4.024   3.688
 2304SOL    MW4 9271   2.253   4.009   3.773
 2305SOL     OW 9272   2.250   4.278   3.860
 2305SOL    HW2 9273   2.260   4.260   3.953
 2305SOL    HW3 9274   2.245   4.192   3.819
 2305SOL    MW4 9275   2.250   4.264   3.867
 2306SOL     OW 9276   2.490   4.418   3.803
 2306SOL    HW2 9277   2.407   4.380   3.834
 2306SOL    HW3 9278   2.484   4.511   3.826
 2306SOL    MW4 9279   2.478   4.425   3.810
 2307SOL     OW 9280   2.918   4.662   3.877
 2307SOL    HW2 9281   2.920   4.679   3.972
 2307SOL    HW3 9282   3.000   4.698   3.844
 2307SOL    MW4 9283   2.929   4.669   3.885
 2308SOL     OW 9284   2.701   0.146   3.777
 2308SOL    HW2 9285   2.780   0.101   3.809
 2308SOL    HW3 9286   2.700   0.127   3.683
 2308SOL    MW4 9287   2.712   0.138   3.769
 2309SOL     OW 9288   2.721   0.431   3.820
 2309SOL    HW2 9289   2.718   0.336   3.807
 2309SOL    HW3 9290   2.632   0.460   3.802
 2309SOL    MW4 9291   2.709   0.422   3.816
 2310SOL     OW 9292   2.954   0.555   3.728
 2310SOL    HW2 9293   3.013   0.483   3.751
 2310SOL    HW3 9294   2.867   0.523   3.751
 2310SOL    MW4 9295   2.950   0.541   3.734
 2311SOL     OW 9296   2.949   0.809   3.876
 2311SOL    HW2 9297   3.004   0.866   3.823
 2311SOL    HW3 9298   2.955   0.723   3.834
 2311SOL    MW4 9299   2.957   0.805   3.864
 2312SOL     OW 9300   2.737   0.915   3.755
 2312SOL    HW2 9301   2.814   0.880   3.799
 2312SOL    HW3 9302   2.664   0.864   3.791
 2312SOL    MW4 9303   2.737   0.903   3.765
 2313SOL     OW 9304   2.707   1.174   3.892
 2313SOL    HW2 9305   2.726   1.089   3.853
 2313SOL    HW3 9306   2.636   1.210   3.839
 2313SOL    MW4 9307   2.700   1.168   3.880
 2314SOL     OW 9308   2.919   1.296   3.731
 2314SOL    HW2 9309   2.931   1.378   3.779
 2314SOL    HW3 9310   2.840   1.257   3.770
 2314SOL    MW4 9311   2.910   1.302   3.743
 2315SOL     OW 9312   2.943   1.556   3.835
 2315SOL    HW2 9313   2.947   1.564   3.930
 2315SOL    HW3 9314   3.027   1.590   3.804
 2315SOL    MW4 9315   2.955   1.561   3.843
 2316SOL     OW 9316   2.697   1.678   3.766
 2316SOL    HW2 9317   2.778   1.633   3.788
 2316SOL    HW3 9318   2.706   1.700   3.673
 2316SOL    MW4 9319   2.709   1.675   3.757
 2317SOL     OW 9320   2.706   1.940   3.847
 2317SOL    HW2 9321   2.697   1.851   3.812
 2317SOL    HW3 9322   2.620   1.979   3.837
 2317SOL    MW4 9323   2.694   1.933   3.841
 2318SOL     OW 9324   2.942   2.064   3.742
 2318SOL    HW2 9325   2.942   2.152   3.781
 2318SOL    HW3 9326   2.873   2.017   3.788
 2318SOL    MW4 9327   2.933   2.070   3.753
 2319SOL     OW 9328   2.955   2.310   3.848
 2319SOL    HW2 9329   2.963   2.315   3.944
 2319SOL    HW3 9330   3.025   2.368   3.816
 2319SOL    MW4 9331   2.965   2.318   3.857
 2320SOL     OW 9332   2.704   2.412   3.758
 2320SOL    HW2 9333   2.702   2.506   3.775
 2320SOL    HW3 9334   2.785   2.382   3.798
 2320SOL    MW4 9335   2.715   2.421   3.766
 2321SOL     OW 9336   2.698   2.687   3.815
 2321SOL    HW2 9337   2.705   2.681   3.910
 2321SOL    HW3 9338   2.617   2.736   3.800
 2321SOL    MW4 9339   2.688   2.692   3.826
 2322SOL     OW 9340   2.945   2.869   3.760
 2322SOL    HW2 9341   2.948   2.958   3.795
 2322SOL    HW3 9342   2.855   2.839   3.777
 2322SOL    MW4 9343   2.933   2.877   3.767
 2323SOL     OW 9344   2.949   3.105   3.869
 2323SOL    HW2 9345   3.023   3.158   3.840
 2323SOL    HW3 9346   2.872   3.147   3.830
 2323SOL    MW4 9347   2.949   3.117   3.860
 2324SOL     OW 9348   2.708   3.199   3.751
 2324SOL    HW2 9349   2.700   3.284   3.794
 2324SOL    HW3 9350   2.641   3.145   3.793
 2324SOL    MW4 9351   2.698   3.203   3.762
 2325SOL     OW 9352   2.702   3.463   3.846
 2325SOL    HW2 9353   2.687   3.472   3.940
 2325SOL    HW3 9354   2.776   3.521   3.828
 2325SOL    MW4 9355   2.710   3.472   3.856
 2326SOL     OW 9356   2.911   3.634   3.784
 2326SOL    HW2 9357   2.988   3.593   3.823
 2326SOL    HW3 9358   2.928   3.634   3.689
 2326SOL    MW4 9359   2.923   3.629   3.776
 2327SOL     OW 9360   2.937   3.899   3.843
 2327SOL    HW2 9361   2.941   3.891   3.938
 2327SOL    HW3 9362   2.929   3.808   3.812
 2327SOL    MW4 9363   2.937   3.886   3.852
 2328SOL     OW 9364   2.709   4.008   3.766
 2328SOL    HW2 9365   2.709   4.087   3.820
 2328SOL    HW3 9366   2.790   3.963   3.789
 2328SOL    MW4 9367   2.719   4.013   3.776
 2329SOL     OW 9368   2.715   4.278   3.902
 2329SOL    HW2 9369   2.792   4.329   3.877
 2329SOL    HW3 9370   2.641   4.334   3.880
 2329SOL    MW4 9371   2.716   4.292   3.896
 2330SOL     OW 9372   2.931   4.421   3.756
 2330SOL    HW2 9373   3.004   4.381   3.804
 2330SOL    HW3 9374   2.921   4.507   3.795
 2330SOL    MW4 9375   2.939   4.427   3.767
 2331SOL     OW 9376   3.385   0.024   3.906
 2331SOL    HW2 9377   3.393   0.049   3.998
 2331SOL    HW3 9378   3.459   0.066   3.863
 2331SOL    MW4 9379   3.396   0.033   3.913
 2332SOL     OW 9380   3.135   0.134   3.801
 2332SOL    HW2 9381   3.221   0.112   3.838
 2332SOL    HW3 9382   3.138   0.101   3.712
 2332SOL    MW4 9383   3.147   0.127   3.794
 2333SOL     OW 9384   3.151   0.403   3.850
 2333SOL    HW2 9385   3.157   0.408   3.946
 2333SOL    HW3 9386   3.147   0.310   3.831
 2333SOL    MW4 9387   3.151   0.392   3.860
 2334SOL     OW 9388   3.370   0.529   3.733
 2334SOL    HW2 9389   3.446   0.498   3.783
 2334SOL    HW3 9390   3.294   0.491   3.778
 2334SOL    MW4 9391   3.370   0.520   3.746
 2335SOL     OW 9392   3.355   0.804   3.795
 2335SOL    HW2 9393   3.373   0.814   3.888
 2335SOL    HW3 9394   3.348   0.709   3.781
 2335SOL    MW4 9395   3.356   0.793   3.805
 2336SOL     OW 9396   3.127   0.937   3.718
 2336SOL    HW2 9397   3.210   0.899   3.746
 2336SOL    HW3 9398   3.130   0.935   3.622
 2336SOL    MW4 9399   3.138   0.932   3.709
 2337SOL     OW 9400   3.145   1.177   3.819
 2337SOL    HW2 9401   3.145   1.089   3.782
 2337SOL    HW3 9402   3.063   1.216   3.788
 2337SOL    MW4 9403   3.134   1.170   3.810
 2338SOL     OW 9404   3.389   1.308   3.742
 2338SOL    HW2 9405   3.304   1.276   3.771
 2338SOL    HW3 9406   3.383   1.309   3.647
 2338SOL    MW4 9407   3.377   1.304   3.733
 2339SOL     OW 9408   3.418   1.548   3.862
 2339SOL    HW2 9409   3.338   1.596   3.840
 2339SOL    HW3 9410   3.407   1.463   3.821
 2339SOL    MW4 9411   3.406   1.543   3.854
 2340SOL     OW 9412   3.199   1.646   3.747
 2340SOL    HW2 9413   3.192   1.740   3.765
 2340SOL    HW3 9414   3.210   1.641   3.652
 2340SOL    MW4 9415   3.199   1.658   3.736
 2341SOL     OW 9416   3.152   1.905   3.818
 2341SOL    HW2 9417   3.129   1.914   3.910
 2341SOL    HW3 9418   3.085   1.956   3.771
 2341SOL    MW4 9419   3.140   1.913   3.824
 2342SOL     OW 9420   3.387   2.051   3.768
 2342SOL    HW2 9421   3.313   1.991   3.782
 2342SOL    HW3 9422   3.401   2.050   3.673
 2342SOL    MW4 9423   3.379   2.043   3.757
 2343SOL     OW 9424   3.356   2.283   3.903
 2343SOL    HW2 9425   3.283   2.321   3.854
 2343SOL    HW3 9426   3.371   2.198   3.863
 2343SOL    MW4 9427   3.348   2.277   3.891
 2344SOL     OW 9428   3.182   2.441   3.754
 2344SOL    HW2 9429   3.184   2.534   3.778
 2344SOL    HW3 9430   3.177   2.441   3.659
 2344SOL    MW4 9431   3.181   2.453   3.745
 2345SOL     OW 9432   3.137   2.699   3.855
 2345SOL    HW2 9433   3.134   2.717   3.949
 2345SOL    HW3 9434   3.066   2.752   3.819
 2345SOL    MW4 9435   3.127   2.709   3.863
 2346SOL     OW 9436   3.364   2.853   3.809
 2346SOL    HW2 9437   3.276   2.827   3.836
 2346SOL    HW3 9438   3.363   2.849   3.713
 2346SOL    MW4 9439   3.353   2.849   3.800
 2347SOL     OW 9440   3.375   3.119   3.864
 2347SOL    HW2 9441   3.452   3.155   3.822
 2347SOL    HW3 9442   3.373   3.028   3.838
 2347SOL    MW4 9443   3.385   3.112   3.855
 2348SOL     OW 9444   3.148   3.275   3.784
 2348SOL    HW2 9445   3.229   3.232   3.811
 2348SOL    HW3 9446   3.154   3.278   3.688
 2348SOL    MW4 9447   3.159   3.270   3.775
 2349SOL     OW 9448   3.150   3.536   3.894
 2349SOL    HW2 9449   3.231   3.574   3.860
 2349SOL    HW3 9450   3.146   3.450   3.853
 2349SOL    MW4 9451   3.160   3.530   3.884
 2350SOL     OW 9452   3.379   3.658   3.773
 2350SOL    HW2 9453   3.390   3.749   3.799
 2350SOL    HW3 9454   3.373   3.662   3.677
 2350SOL    MW4 9455   3.380   3.671   3.764
 2351SOL     OW 9456   3.400   3.904   3.873
 2351SOL    HW2 9457   3.477   3.945   3.833
 2351SOL    HW3 9458   3.326   3.938   3.823
 2351SOL    MW4 9459   3.401   3.914   3.861
 2352SOL     OW 9460   3.164   4.021   3.742
 2352SOL    HW2 9461   3.157   4.112   3.770
 2352SOL    HW3 9462   3.086   3.978   3.776
 2352SOL    MW4 9463   3.153   4.027   3.750
 2353SOL     OW 9464   3.159   4.292   3.866
 2353SOL    HW2 9465   3.164   4.261   3.957
 2353SOL    HW3 9466   3.246   4.327   3.847
 2353SOL    MW4 9467   3.171   4.292   3.876
 2354SOL     OW 9468   3.382   4.449   3.786
 2354SOL    HW2 9469   3.459   4.403   3.819
 2354SOL    HW3 9470   3.389   4.537   3.823
 2354SOL    MW4 9471   3.393   4.454   3.795
 2355SOL     OW 9472   3.840   0.063   3.868
 2355SOL    HW2 9473   3.931   0.085   3.849
 2355SOL    HW3 9474   3.830  -0.028   3.839
 2355SOL    MW4 9475   3.850   0.054   3.862
 2356SOL     OW 9476   3.595   0.165   3.784
 2356SOL    HW2 9477   3.675   0.134   3.825
 2356SOL    HW3 9478   3.612   0.157   3.690
 2356SOL    MW4 9479   3.608   0.160   3.777
 2357SOL     OW 9480   3.574   0.440   3.885
 2357SOL    HW2 9481   3.656   0.479   3.853
 2357SOL    HW3 9482   3.579   0.348   3.858
 2357SOL    MW4 9483   3.586   0.433   3.877
 2358SOL     OW 9484   3.842   0.497   3.821
 2358SOL    HW2 9485   3.922   0.456   3.855
 2358SOL    HW3 9486   3.862   0.591   3.823
 2358SOL    MW4 9487   3.855   0.504   3.826
 2359SOL     OW 9488   3.797   0.779   3.865
 2359SOL    HW2 9489   3.887   0.812   3.865
 2359SOL    HW3 9490   3.747   0.846   3.818
 2359SOL    MW4 9491   3.802   0.792   3.859
 2360SOL     OW 9492   3.599   0.950   3.766
 2360SOL    HW2 9493   3.608   1.036   3.808
 2360SOL    HW3 9494   3.507   0.926   3.780
 2360SOL    MW4 9495   3.588   0.958   3.774
 2361SOL     OW 9496   3.604   1.202   3.893
 2361SOL    HW2 9497   3.673   1.236   3.835
 2361SOL    HW3 9498   3.523   1.214   3.843
 2361SOL    MW4 9499   3.602   1.208   3.878
 2362SOL     OW 9500   3.836   1.267   3.716
 2362SOL    HW2 9501   3.911   1.226   3.758
 2362SOL    HW3 9502   3.828   1.353   3.759
 2362SOL    MW4 9503   3.845   1.273   3.727
 2363SOL     OW 9504   3.813   1.501   3.852
 2363SOL    HW2 9505   3.819   1.512   3.947
 2363SOL    HW3 9506   3.752   1.569   3.824
 2363SOL    MW4 9507   3.806   1.511   3.861
 2364SOL     OW 9508   3.652   1.687   3.749
 2364SOL    HW2 9509   3.576   1.645   3.789
 2364SOL    HW3 9510   3.640   1.674   3.655
 2364SOL    MW4 9511   3.640   1.680   3.742
 2365SOL     OW 9512   3.628   1.946   3.882
 2365SOL    HW2 9513   3.641   1.863   3.835
 2365SOL    HW3 9514   3.542   1.977   3.852
 2365SOL    MW4 9515   3.618   1.939   3.872
 2366SOL     OW 9516   3.826   2.102   3.750
 2366SOL    HW2 9517   3.910   2.066   3.779
 2366SOL    HW3 9518   3.761   2.055   3.803
 2366SOL    MW4 9519   3.829   2.091   3.761
 2367SOL     OW 9520   3.819   2.323   3.901
 2367SOL    HW2 9521   3.748   2.383   3.878
 2367SOL    HW3 9522   3.817   2.256   3.833
 2367SOL    MW4 9523   3.810   2.322   3.889
 2368SOL     OW 9524   3.593   2.455   3.816
 2368SOL    HW2 9525   3.517   2.408   3.851
 2368SOL    HW3 9526   3.583   2.448   3.721
 2368SOL    MW4 9527   3.581   2.448   3.808
 2369SOL     OW 9528   3.603   2.724   3.842
 2369SOL    HW2 9529   3.587   2.630   3.853
 2369SOL    HW3 9530   3.516   2.762   3.828
 2369SOL    MW4 9531   3.590   2.716   3.842
 2370SOL     OW 9532   3.851   2.830   3.776
 2370SOL    HW2 9533   3.910   2.782   3.833
 2370SOL    HW3 9534   3.764   2.794   3.796
 2370SOL    MW4 9535   3.847   2.819   3.786
 2371SOL     OW 9536   3.827   3.113   3.890
 2371SOL    HW2 9537   3.748   3.151   3.851
 2371SOL    HW3 9538   3.833   3.026   3.850
 2371SOL    MW4 9539   3.817   3.106   3.879
 2372SOL     OW 9540   3.607   3.250   3.756
 2372SOL    HW2 9541   3.608   3.341   3.785
 2372SOL    HW3 9542   3.604   3.255   3.660
 2372SOL    MW4 9543   3.607   3.262   3.747
 2373SOL     OW 9544   3.601   3.502   3.883
 2373SOL    HW2 9545   3.598   3.506   3.979
 2373SOL    HW3 9546   3.516   3.534   3.854
 2373SOL    MW4 9547   3.590   3.507   3.892
 2374SOL     OW 9548   3.821   3.648   3.771
 2374SOL    HW2 9549   3.824   3.736   3.808
 2374SOL    HW3 9550   3.753   3.603   3.822
 2374SOL    MW4 9551   3.812   3.653   3.782
 2375SOL     OW 9552   3.847   3.902   3.875
 2375SOL    HW2 9553   3.859   3.908   3.969
 2375SOL    HW3 9554   3.925   3.944   3.838
 2375SOL    MW4 9555   3.859   3.909   3.882
 2376SOL     OW 9556   3.593   4.044   3.757
 2376SOL    HW2 9557   3.596   4.137   3.781
 2376SOL    HW3 9558   3.681   4.012   3.775
 2376SOL    MW4 9559   3.605   4.052   3.763
 2377SOL     OW 9560   3.602   4.306   3.866
 2377SOL    HW2 9561   3.617   4.294   3.960
 2377SOL    HW3 9562   3.677   4.357   3.836
 2377SOL    MW4 9563   3.614   4.311   3.875
 2378SOL     OW 9564   3.814   4.449   3.772
 2378SOL    HW2 9565   3.888   4.406   3.815
 2378SOL    HW3 9566   3.818   4.417   3.681
 2378SOL    MW4 9567   3.824   4.439   3.765
 2379SOL     OW 9568   4.318   4.665   3.887
 2379SOL    HW2 9569   4.325   4.693   3.979
 2379SOL    HW3 9570   4.399   4.697   3.846
 2379SOL    MW4 9571   4.330   4.673   3.894
 2380SOL     OW 9572   4.091   0.124   3.793
 2380SOL    HW2 9573   4.171   0.080   3.820
 2380SOL    HW3 9574   4.082   0.103   3.700
 2380SOL    MW4 9575   4.100   0.116   3.784
 2381SOL     OW 9576   4.083   0.389   3.900
 2381SOL    HW2 9577   4.075   0.383   3.995
 2381SOL    HW3 9578   4.080   0.298   3.870
 2381SOL    MW4 9579   4.082   0.376   3.908
 2382SOL     OW 9580   4.293   0.521   3.771
 2382SOL    HW2 9581   4.229   0.466   3.815
 2382SOL    HW3 9582   4.274   0.509   3.678
 2382SOL    MW4 9583   4.282   0.512   3.764
 2383SOL     OW 9584   4.289   0.776   3.868
 2383SOL    HW2 9585   4.213   0.828   3.842
 2383SOL    HW3 9586   4.279   0.693   3.821
 2383SOL    MW4 9587   4.278   0.772   3.858
 2384SOL     OW 9588   4.061   0.894   3.782
 2384SOL    HW2 9589   4.065   0.983   3.818
 2384SOL    HW3 9590   4.057   0.908   3.687
 2384SOL    MW4 9591   4.061   0.908   3.774
 2385SOL     OW 9592   4.040   1.157   3.868
 2385SOL    HW2 9593   4.030   1.156   3.964
 2385SOL    HW3 9594   4.129   1.188   3.854
 2385SOL    MW4 9595   4.051   1.161   3.879
 2386SOL     OW 9596   4.279   1.252   3.785
 2386SOL    HW2 9597   4.266   1.342   3.814
 2386SOL    HW3 9598   4.253   1.252   3.693
 2386SOL    MW4 9599   4.274   1.264   3.777
 2387SOL     OW 9600   4.234   1.515   3.868
 2387SOL    HW2 9601   4.157   1.557   3.829
 2387SOL    HW3 9602   4.309   1.564   3.833
 2387SOL    MW4 9603   4.234   1.527   3.858
 2388SOL     OW 9604   4.027   1.675   3.780
 2388SOL    HW2 9605   4.042   1.766   3.807
 2388SOL    HW3 9606   3.938   1.656   3.811
 2388SOL    MW4 9607   4.017   1.685   3.788
 2389SOL     OW 9608   4.049   1.957   3.863
 2389SOL    HW2 9609   4.035   1.976   3.956
 2389SOL    HW3 9610   4.126   2.008   3.839
 2389SOL    MW4 9611   4.057   1.966   3.872
 2390SOL     OW 9612   4.271   2.104   3.753
 2390SOL    HW2 9613   4.268   2.193   3.787
 2390SOL    HW3 9614   4.250   2.113   3.661
 2390SOL    MW4 9615   4.268   2.117   3.746
 2391SOL     OW 9616   4.235   2.368   3.836
 2391SOL    HW2 9617   4.210   2.365   3.928
 2391SOL    HW3 9618   4.156   2.397   3.790
 2391SOL    MW4 9619   4.222   2.372   3.842
 2392SOL     OW 9620   3.980   2.485   3.730
 2392SOL    HW2 9621   3.997   2.565   3.779
 2392SOL    HW3 9622   3.924   2.433   3.787
 2392SOL    MW4 9623   3.975   2.488   3.744
 2393SOL     OW 9624   4.050   2.688   3.909
 2393SOL    HW2 9625   4.062   2.699   4.004
 2393SOL    HW3 9626   4.133   2.717   3.871
 2393SOL    MW4 9627   4.062   2.694   3.917
 2394SOL     OW 9628   4.267   2.788   3.769
 2394SOL    HW2 9629   4.258   2.877   3.805
 2394SOL    HW3 9630   4.350   2.756   3.806
 2394SOL    MW4 9631   4.277   2.796   3.779
 2395SOL     OW 9632   4.259   3.102   3.898
 2395SOL    HW2 9633   4.197   3.164   3.860
 2395SOL    HW3 9634   4.345   3.134   3.871
 2395SOL    MW4 9635   4.262   3.115   3.890
 2396SOL     OW 9636   4.063   3.252   3.764
 2396SOL    HW2 9637   4.000   3.202   3.817
 2396SOL    HW3 9638   4.034   3.238   3.674
 2396SOL    MW4 9639   4.051   3.244   3.759
 2397SOL     OW 9640   4.049   3.530   3.893
 2397SOL    HW2 9641   4.038   3.445   3.850
 2397SOL    HW3 9642   3.973   3.581   3.865
 2397SOL    MW4 9643   4.038   3.525   3.884
 2398SOL     OW 9644   4.291   3.627   3.778
 2398SOL    HW2 9645   4.211   3.590   3.816
 2398SOL    HW3 9646   4.361   3.570   3.809
 2398SOL    MW4 9647   4.290   3.615   3.787
 2399SOL     OW 9648   4.316   3.884   3.906
 2399SOL    HW2 9649   4.252   3.935   3.856
 2399SOL    HW3 9650   4.312   3.797   3.867
 2399SOL    MW4 9651   4.307   3.879   3.894
 2400SOL     OW 9652   4.103   4.027   3.799
 2400SOL    HW2 9653   4.089   4.120   3.819
 2400SOL    HW3 9654   4.086   4.020   3.705
 2400SOL    MW4 9655   4.099   4.038   3.789
 2401SOL     OW 9656   4.017   4.288   3.857
 2401SOL    HW2 9657   4.018   4.287   3.952
 2401SOL    HW3 9658   4.100   4.329   3.832
 2401SOL    MW4 9659   4.028   4.294   3.866
 2402SOL     OW 9660   4.298   4.404   3.763
 2402SOL    HW2 9661   4.310   4.484   3.813
 2402SOL    HW3 9662   4.364   4.344   3.798
 2402SOL    MW4 9663   4.309   4.406   3.774
 2403SOL     OW 9664   0.260   4.665   4.144
 2403SOL    HW2 9665   0.335   4.702   4.191
 2403SOL    HW3 9666   0.247   4.579   4.184
 2403SOL    MW4 9667   0.268   4.659   4.156
 2404SOL     OW 9668   0.062   0.158   4.249
 2404SOL    HW2 9669   0.097   0.171   4.337
 2404SOL    HW3 9670   0.129   0.108   4.203
 2404SOL    MW4 9671   0.075   0.153   4.255
 2405SOL     OW 9672   4.479   0.394   4.156
 2405SOL    HW2 9673   4.492   0.304   4.187
 2405SOL    HW3 9674   4.485   0.389   4.061
 2405SOL    MW4 9675   4.481   0.382   4.148
 2406SOL     OW 9676   0.215   0.503   4.294
 2406SOL    HW2 9677   0.296   0.461   4.263
 2406SOL    HW3 9678   0.146   0.462   4.241
 2406SOL    MW4 9679   0.217   0.492   4.283
 2407SOL     OW 9680   0.228   0.758   4.188
 2407SOL    HW2 9681   0.161   0.809   4.235
 2407SOL    HW3 9682   0.224   0.672   4.229
 2407SOL    MW4 9683   0.219   0.754   4.200
 2408SOL     OW 9684   0.010   0.881   4.330
 2408SOL    HW2 9685  -0.052   0.852   4.264
 2408SOL    HW3 9686   0.020   0.975   4.316
 2408SOL    MW4 9687   0.003   0.889   4.320
 2409SOL     OW 9688   0.032   1.132   4.197
 2409SOL    HW2 9689   0.087   1.202   4.231
 2409SOL    HW3 9690   0.029   1.147   4.102
 2409SOL    MW4 9691   0.039   1.143   4.189
 2410SOL     OW 9692   0.246   1.294   4.255
 2410SOL    HW2 9693   0.283   1.283   4.342
 2410SOL    HW3 9694   0.289   1.227   4.201
 2410SOL    MW4 9695   0.257   1.284   4.259
 2411SOL     OW 9696   0.085   1.506   4.610
 2411SOL    HW2 9697   0.172   1.536   4.635
 2411SOL    HW3 9698   0.044   1.582   4.569
 2411SOL    MW4 9699   0.091   1.520   4.608
 2412SOL     OW 9700   0.006   1.694   4.213
 2412SOL    HW2 9701  -0.064   1.637   4.180
 2412SOL    HW3 9702  -0.025   1.783   4.196
 2412SOL    MW4 9703  -0.007   1.698   4.206
 2413SOL     OW 9704   0.224   2.001   4.225
 2413SOL    HW2 9705   0.217   1.999   4.321
 2413SOL    HW3 9706   0.297   1.942   4.206
 2413SOL    MW4 9707   0.233   1.993   4.235
 2414SOL     OW 9708   0.450   1.828   4.567
 2414SOL    HW2 9709   0.361   1.858   4.546
 2414SOL    HW3 9710   0.479   1.783   4.488
 2414SOL    MW4 9711   0.442   1.826   4.554
 2415SOL     OW 9712   0.224   2.254   4.106
 2415SOL    HW2 9713   0.298   2.312   4.124
 2415SOL    HW3 9714   0.239   2.178   4.162
 2415SOL    MW4 9715   0.236   2.252   4.116
 2416SOL     OW 9716   0.047   2.439   4.213
 2416SOL    HW2 9717  -0.041   2.416   4.183
 2416SOL    HW3 9718   0.103   2.368   4.182
 2416SOL    MW4 9719   0.042   2.426   4.205
 2417SOL     OW 9720   0.018   2.703   4.162
 2417SOL    HW2 9721   0.082   2.754   4.211
 2417SOL    HW3 9722   0.023   2.615   4.200
 2417SOL    MW4 9723   0.027   2.698   4.173
 2418SOL     OW 9724   0.234   2.853   4.299
 2418SOL    HW2 9725   0.293   2.801   4.244
 2418SOL    HW3 9726   0.219   2.932   4.248
 2418SOL    MW4 9727   0.240   2.856   4.285
 2419SOL     OW 9728   0.226   3.097   4.126
 2419SOL    HW2 9729   0.308   3.138   4.153
 2419SOL    HW3 9730   0.158   3.151   4.166
 2419SOL    MW4 9731   0.228   3.110   4.135
 2420SOL     OW 9732   4.474   3.237   4.249
 2420SOL    HW2 9733   4.395   3.206   4.206
 2420SOL    HW3 9734   4.483   3.328   4.221
 2420SOL    MW4 9735   4.465   3.245   4.240
 2421SOL     OW 9736   0.007   3.495   4.136
 2421SOL    HW2 9737  -0.066   3.548   4.169
 2421SOL    HW3 9738  -0.007   3.491   4.042
 2421SOL    MW4 9739  -0.005   3.501   4.128
 2422SOL     OW 9740   0.245   3.576   4.229
 2422SOL    HW2 9741   0.313   3.517   4.195
 2422SOL    HW3 9742   0.164   3.544   4.188
 2422SOL    MW4 9743   0.243   3.564   4.219
 2423SOL     OW 9744   0.292   3.852   4.172
 2423SOL    HW2 9745   0.215   3.898   4.206
 2423SOL    HW3 9746   0.278   3.760   4.196
 2423SOL    MW4 9747   0.280   3.846   4.180
 2424SOL     OW 9748   0.066   3.972   4.272
 2424SOL    HW2 9749   0.065   3.988   4.366
 2424SOL    HW3 9750  -0.022   3.939   4.252
 2424SOL    MW4 9751   0.054   3.970   4.282
 2425SOL     OW 9752   0.030   4.224   4.148
 2425SOL    HW2 9753   0.041   4.134   4.179
 2425SOL    HW3 9754   0.015   4.216   4.054
 2425SOL    MW4 9755   0.029   4.211   4.140
 2426SOL     OW 9756   0.199   4.415   4.252
 2426SOL    HW2 9757   0.167   4.423   4.342
 2426SOL    HW3 9758   0.139   4.353   4.211
 2426SOL    MW4 9759   0.186   4.408   4.259
 2427SOL     OW 9760   0.703   4.650   4.260
 2427SOL    HW2 9761   0.613   4.681   4.270
 2427SOL    HW3 9762   0.722   4.660   4.167
 2427SOL    MW4 9763   0.694   4.656   4.249
 2428SOL     OW 9764   0.458   0.098   4.291
 2428SOL    HW2 9765   0.419   0.091   4.378
 2428SOL    HW3 9766   0.471   0.192   4.278
 2428SOL    MW4 9767   0.455   0.110   4.301
 2429SOL     OW 9768   0.456   0.357   4.207
 2429SOL    HW2 9769   0.522   0.414   4.246
 2429SOL    HW3 9770   0.480   0.352   4.114
 2429SOL    MW4 9771   0.468   0.364   4.200
 2430SOL     OW 9772   0.680   0.500   4.289
 2430SOL    HW2 9773   0.753   0.469   4.236
 2430SOL    HW3 9774   0.672   0.593   4.267
 2430SOL    MW4 9775   0.689   0.508   4.279
 2431SOL     OW 9776   0.701   0.774   4.217
 2431SOL    HW2 9777   0.633   0.835   4.247
 2431SOL    HW3 9778   0.699   0.782   4.122
 2431SOL    MW4 9779   0.691   0.783   4.208
 2432SOL     OW 9780   0.462   0.904   4.265
 2432SOL    HW2 9781   0.451   0.993   4.230
 2432SOL    HW3 9782   0.391   0.854   4.225
 2432SOL    MW4 9783   0.451   0.909   4.255
 2433SOL     OW 9784   0.469   1.152   4.151
 2433SOL    HW2 9785   0.534   1.204   4.199
 2433SOL    HW3 9786   0.500   1.153   4.060
 2433SOL    MW4 9787   0.482   1.159   4.145
 2434SOL     OW 9788   0.691   1.283   4.277
 2434SOL    HW2 9789   0.697   1.299   4.371
 2434SOL    HW3 9790   0.692   1.370   4.238
 2434SOL    MW4 9791   0.692   1.297   4.284
 2435SOL     OW 9792   0.696   1.529   4.164
 2435SOL    HW2 9793   0.789   1.552   4.171
 2435SOL    HW3 9794   0.679   1.525   4.069
 2435SOL    MW4 9795   0.706   1.531   4.152
 2436SOL     OW 9796   0.259   1.579   4.156
 2436SOL    HW2 9797   0.272   1.501   4.209
 2436SOL    HW3 9798   0.178   1.618   4.189
 2436SOL    MW4 9799   0.250   1.574   4.168
 2437SOL     OW 9800   0.425   1.819   4.177
 2437SOL    HW2 9801   0.387   1.731   4.172
 2437SOL    HW3 9802   0.455   1.837   4.088
 2437SOL    MW4 9803   0.424   1.810   4.165
 2438SOL     OW 9804   0.715   2.023   4.289
 2438SOL    HW2 9805   0.711   2.046   4.382
 2438SOL    HW3 9806   0.643   1.962   4.277
 2438SOL    MW4 9807   0.705   2.018   4.299
 2439SOL     OW 9808   0.686   2.274   4.141
 2439SOL    HW2 9809   0.711   2.187   4.171
 2439SOL    HW3 9810   0.702   2.273   4.046
 2439SOL    MW4 9811   0.691   2.263   4.132
 2440SOL     OW 9812   0.464   2.415   4.167
 2440SOL    HW2 9813   0.476   2.503   4.131
 2440SOL    HW3 9814   0.549   2.372   4.153
 2440SOL    MW4 9815   0.477   2.421   4.161
 2441SOL     OW 9816   0.426   2.709   4.144
 2441SOL    HW2 9817   0.514   2.731   4.171
 2441SOL    HW3 9818   0.429   2.708   4.048
 2441SOL    MW4 9819   0.438   2.712   4.135
 2442SOL     OW 9820   0.655   2.799   4.260
 2442SOL    HW2 9821   0.684   2.801   4.351
 2442SOL    HW3 9822   0.648   2.891   4.235
 2442SOL    MW4 9823   0.658   2.811   4.269
 2443SOL     OW 9824   0.663   3.052   4.144
 2443SOL    HW2 9825   0.740   3.096   4.180
 2443SOL    HW3 9826   0.589   3.108   4.168
 2443SOL    MW4 9827   0.663   3.065   4.152
 2444SOL     OW 9828   0.471   3.224   4.245
 2444SOL    HW2 9829   0.490   3.260   4.331
 2444SOL    HW3 9830   0.468   3.300   4.187
 2444SOL    MW4 9831   0.473   3.238   4.249
 2445SOL     OW 9832   0.450   3.458   4.111
 2445SOL    HW2 9833   0.521   3.502   4.159
 2445SOL    HW3 9834   0.461   3.488   4.021
 2445SOL    MW4 9835   0.461   3.468   4.105
 2446SOL     OW 9836   0.682   3.628   4.260
 2446SOL    HW2 9837   0.677   3.618   4.355
 2446SOL    HW3 9838   0.764   3.585   4.236
 2446SOL    MW4 9839   0.692   3.621   4.269
 2447SOL     OW 9840   0.714   3.884   4.113
 2447SOL    HW2 9841   0.640   3.934   4.150
 2447SOL    HW3 9842   0.712   3.801   4.160
 2447SOL    MW4 9843   0.704   3.880   4.124
 2448SOL     OW 9844   0.510   3.998   4.250
 2448SOL    HW2 9845   0.487   4.090   4.236
 2448SOL    HW3 9846   0.432   3.950   4.222
 2448SOL    MW4 9847   0.497   4.004   4.245
 2449SOL     OW 9848   0.415   4.257   4.200
 2449SOL    HW2 9849   0.338   4.309   4.223
 2449SOL    HW3 9850   0.419   4.262   4.104
 2449SOL    MW4 9851   0.406   4.264   4.190
 2450SOL     OW 9852   0.670   4.356   4.279
 2450SOL    HW2 9853   0.586   4.312   4.269
 2450SOL    HW3 9854   0.653   4.447   4.256
 2450SOL    MW4 9855   0.657   4.362   4.275
 2451SOL     OW 9856   1.125   0.028   4.144
 2451SOL    HW2 9857   1.111  -0.066   4.156
 2451SOL    HW3 9858   1.152   0.036   4.052
 2451SOL    MW4 9859   1.127   0.016   4.133
 2452SOL     OW 9860   0.924   0.130   4.299
 2452SOL    HW2 9861   0.982   0.089   4.235
 2452SOL    HW3 9862   0.846   0.075   4.299
 2452SOL    MW4 9863   0.921   0.117   4.290
 2453SOL     OW 9864   0.904   0.382   4.176
 2453SOL    HW2 9865   0.989   0.424   4.188
 2453SOL    HW3 9866   0.912   0.298   4.221
 2453SOL    MW4 9867   0.916   0.376   4.183
 2454SOL     OW 9868   1.157   0.502   4.225
 2454SOL    HW2 9869   1.177   0.509   4.318
 2454SOL    HW3 9870   1.226   0.446   4.190
 2454SOL    MW4 9871   1.169   0.496   4.233
 2455SOL     OW 9872   1.129   0.753   4.131
 2455SOL    HW2 9873   1.191   0.804   4.183
 2455SOL    HW3 9874   1.140   0.663   4.162
 2455SOL    MW4 9875   1.138   0.748   4.142
 2456SOL     OW 9876   0.942   0.890   4.287
 2456SOL    HW2 9877   1.006   0.841   4.236
 2456SOL    HW3 9878   0.859   0.846   4.270
 2456SOL    MW4 9879   0.939   0.878   4.278
 2457SOL     OW 9880   0.901   1.136   4.154
 2457SOL    HW2 9881   0.913   1.046   4.184
 2457SOL    HW3 9882   0.828   1.169   4.205
 2457SOL    MW4 9883   0.893   1.129   4.164
 2458SOL     OW 9884   1.125   1.259   4.290
 2458SOL    HW2 9885   1.100   1.261   4.382
 2458SOL    HW3 9886   1.042   1.252   4.243
 2458SOL    MW4 9887   1.111   1.259   4.296
 2459SOL     OW 9888   1.189   1.548   4.186
 2459SOL    HW2 9889   1.098   1.565   4.210
 2459SOL    HW3 9890   1.202   1.455   4.204
 2459SOL    MW4 9891   1.179   1.538   4.192
 2460SOL     OW 9892   0.936   1.622   4.268
 2460SOL    HW2 9893   0.918   1.619   4.362
 2460SOL    HW3 9894   0.934   1.715   4.245
 2460SOL    MW4 9895   0.933   1.633   4.277
 2461SOL     OW 9896   0.910   1.877   4.173
 2461SOL    HW2 9897   0.843   1.920   4.226
 2461SOL    HW3 9898   0.898   1.913   4.085
 2461SOL    MW4 9899   0.900   1.887   4.168
 2462SOL     OW 9900   1.158   2.047   4.229
 2462SOL    HW2 9901   1.149   2.060   4.323
 2462SOL    HW3 9902   1.083   1.992   4.205
 2462SOL    MW4 9903   1.147   2.042   4.238
 2463SOL     OW 9904   1.103   2.309   4.147
 2463SOL    HW2 9905   1.186   2.345   4.181
 2463SOL    HW3 9906   1.097   2.222   4.186
 2463SOL    MW4 9907   1.113   2.302   4.156
 2464SOL     OW 9908   0.886   2.458   4.234
 2464SOL    HW2 9909   0.968   2.413   4.212
 2464SOL    HW3 9910   0.818   2.392   4.219
 2464SOL    MW4 9911   0.888   2.443   4.229
 2465SOL     OW 9912   0.862   2.684   4.112
 2465SOL    HW2 9913   0.864   2.600   4.158
 2465SOL    HW3 9914   0.786   2.729   4.149
 2465SOL    MW4 9915   0.853   2.679   4.123
 2466SOL     OW 9916   1.087   2.810   4.246
 2466SOL    HW2 9917   1.094   2.894   4.202
 2466SOL    HW3 9918   1.006   2.771   4.213
 2466SOL    MW4 9919   1.077   2.816   4.236
 2467SOL     OW 9920   1.136   3.065   4.160
 2467SOL    HW2 9921   1.205   3.115   4.204
 2467SOL    HW3 9922   1.153   3.078   4.067
 2467SOL    MW4 9923   1.147   3.073   4.154
 2468SOL     OW 9924   0.893   3.169   4.243
 2468SOL    HW2 9925   0.886   3.122   4.327
 2468SOL    HW3 9926   0.969   3.130   4.201
 2468SOL    MW4 9927   0.902   3.157   4.249
 2469SOL     OW 9928   0.900   3.463   4.208
 2469SOL    HW2 9929   0.905   3.369   4.224
 2469SOL    HW3 9930   0.886   3.471   4.114
 2469SOL    MW4 9931   0.899   3.452   4.198
 2470SOL     OW 9932   1.152   3.604   4.269
 2470SOL    HW2 9933   1.132   3.691   4.234
 2470SOL    HW3 9934   1.068   3.559   4.272
 2470SOL    MW4 9935   1.138   3.609   4.265
 2471SOL     OW 9936   1.118   3.861   4.161
 2471SOL    HW2 9937   1.199   3.898   4.195
 2471SOL    HW3 9938   1.050   3.924   4.186
 2471SOL    MW4 9939   1.119   3.874   4.169
 2472SOL     OW 9940   0.896   4.029   4.246
 2472SOL    HW2 9941   0.900   4.111   4.197
 2472SOL    HW3 9942   0.824   3.980   4.205
 2472SOL    MW4 9943   0.887   4.033   4.234
 2473SOL     OW 9944   0.875   4.294   4.131
 2473SOL    HW2 9945   0.946   4.343   4.171
 2473SOL    HW3 9946   0.797   4.318   4.183
 2473SOL    MW4 9947   0.874   4.304   4.143
 2474SOL     OW 9948   1.098   4.428   4.260
 2474SOL    HW2 9949   1.094   4.403   4.352
 2474SOL    HW3 9950   1.182   4.393   4.229
 2474SOL    MW4 9951   1.109   4.420   4.268
 2475SOL     OW 9952   1.598   4.634   4.162
 2475SOL    HW2 9953   1.681   4.663   4.201
 2475SOL    HW3 9954   1.531   4.670   4.219
 2475SOL    MW4 9955   1.600   4.642   4.175
 2476SOL     OW 9956   1.377   0.081   4.264
 2476SOL    HW2 9957   1.372   0.074   4.359
 2476SOL    HW3 9958   1.288   0.063   4.233
 2476SOL    MW4 9959   1.365   0.078   4.272
 2477SOL     OW 9960   1.371   0.350   4.133
 2477SOL    HW2 9961   1.454   0.392   4.154
 2477SOL    HW3 9962   1.377   0.264   4.174
 2477SOL    MW4 9963   1.383   0.344   4.141
 2478SOL     OW 9964   1.576   0.495   4.261
 2478SOL    HW2 9965   1.584   0.505   4.356
 2478SOL    HW3 9966   1.580   0.584   4.227
 2478SOL    MW4 9967   1.577   0.508   4.269
 2479SOL     OW 9968   1.572   0.757   4.167
 2479SOL    HW2 9969   1.649   0.801   4.204
 2479SOL    HW3 9970   1.583   0.766   4.072
 2479SOL    MW4 9971   1.584   0.764   4.159
 2480SOL     OW 9972   1.337   0.870   4.273
 2480SOL    HW2 9973   1.363   0.962   4.267
 2480SOL    HW3 9974   1.413   0.821   4.241
 2480SOL    MW4 9975   1.351   0.875   4.268
 2481SOL     OW 9976   1.360   1.142   4.192
 2481SOL    HW2 9977   1.276   1.176   4.221
 2481SOL    HW3 9978   1.360   1.154   4.098
 2481SOL    MW4 9979   1.349   1.148   4.184
 2482SOL     OW 9980   1.558   1.312   4.253
 2482SOL    HW2 9981   1.546   1.337   4.345
 2482SOL    HW3 9982   1.486   1.251   4.235
 2482SOL    MW4 9983   1.547   1.307   4.263
 2483SOL     OW 9984   1.573   1.582   4.120
 2483SOL    HW2 9985   1.501   1.621   4.170
 2483SOL    HW3 9986   1.590   1.499   4.164
 2483SOL    MW4 9987   1.566   1.576   4.132
 2484SOL     OW 9988   1.383   1.736   4.257
 2484SOL    HW2 9989   1.381   1.807   4.193
 2484SOL    HW3 9990   1.305   1.684   4.238
 2484SOL    MW4 9991   1.372   1.738   4.246
 2485SOL     OW 9992   1.374   1.962   4.076
 2485SOL    HW2 9993   1.448   2.014   4.106
 2485SOL    HW3 9994   1.299   1.996   4.125
 2485SOL    MW4 9995   1.373   1.973   4.086
 2486SOL     OW 9996   1.599   2.071   4.182
 2486SOL    HW2 9997   1.561   2.053   4.268
 2486SOL    HW3 9998   1.586   2.165   4.168
 2486SOL    MW4 9999   1.592   2.081   4.191
 2487SOL     OW10000   1.526   2.333   4.132
 2487SOL    HW210001   1.600   2.389   4.155
 2487SOL    HW310002   1.530   2.327   4.036
 2487SOL    MW410003   1.536   2.340   4.122
 2488SOL     OW10004   1.319   2.446   4.254
 2488SOL    HW210005   1.320   2.538   4.228
 2488SOL    HW310006   1.392   2.407   4.207
 2488SOL    MW410007   1.328   2.453   4.244
 2489SOL     OW10008   1.329   2.702   4.159
 2489SOL    HW210009   1.404   2.748   4.196
 2489SOL    HW310010   1.253   2.743   4.201
 2489SOL    MW410011   1.329   2.713   4.170
 2490SOL     OW10012   1.572   2.832   4.236
 2490SOL    HW210013   1.573   2.848   4.330
 2490SOL    HW310014   1.587   2.918   4.197
 2490SOL    MW410015   1.574   2.845   4.243
 2491SOL     OW10016   1.593   3.092   4.124
 2491SOL    HW210017   1.663   3.141   4.168
 2491SOL    HW310018   1.512   3.133   4.155
 2491SOL    MW410019   1.591   3.104   4.134
 2492SOL     OW10020   1.361   3.215   4.245
 2492SOL    HW210021   1.388   3.224   4.336
 2492SOL    HW310022   1.358   3.304   4.211
 2492SOL    MW410023   1.364   3.228   4.253
 2493SOL     OW10024   1.354   3.469   4.125
 2493SOL    HW210025   1.285   3.523   4.164
 2493SOL    HW310026   1.337   3.473   4.030
 2493SOL    MW410027   1.343   3.477   4.117
 2494SOL     OW10028   1.587   3.576   4.239
 2494SOL    HW210029   1.556   3.562   4.329
 2494SOL    HW310030   1.516   3.545   4.184
 2494SOL    MW410031   1.574   3.570   4.244
 2495SOL     OW10032   1.630   3.835   4.134
 2495SOL    HW210033   1.560   3.899   4.148
 2495SOL    HW310034   1.599   3.756   4.177
 2495SOL    MW410035   1.617   3.833   4.141
 2496SOL     OW10036   1.375   4.010   4.189
 2496SOL    HW210037   1.365   4.026   4.283
 2496SOL    HW310038   1.347   4.092   4.148
 2496SOL    MW410039   1.370   4.023   4.196
 2497SOL     OW10040   1.331   4.300   4.164
 2497SOL    HW210041   1.407   4.341   4.204
 2497SOL    HW310042   1.343   4.316   4.070
 2497SOL    MW410043   1.343   4.307   4.157
 2498SOL     OW10044   1.574   4.367   4.267
 2498SOL    HW210045   1.608   4.446   4.226
 2498SOL    HW310046   1.639   4.300   4.246
 2498SOL    MW410047   1.587   4.369   4.259
 2499SOL     OW10048   2.028   4.643   4.189
 2499SOL    HW210049   1.943   4.671   4.224
 2499SOL    HW310050   2.023   4.661   4.095
 2499SOL    MW410051   2.016   4.649   4.182
 2500SOL     OW10052   1.801   0.085   4.280
 2500SOL    HW210053   1.772   0.091   4.371
 2500SOL    HW310054   1.808   0.176   4.251
 2500SOL    MW410055   1.798   0.097   4.289
 2501SOL     OW10056   1.829   0.337   4.194
 2501SOL    HW210057   1.903   0.391   4.224
 2501SOL    HW310058   1.752   0.381   4.229
 2501SOL    MW410059   1.829   0.350   4.202
 2502SOL     OW10060   2.037   0.500   4.259
 2502SOL    HW210061   2.045   0.499   4.355
 2502SOL    HW310062   2.121   0.465   4.228
 2502SOL    MW410063   2.049   0.495   4.268
 2503SOL     OW10064   1.992   0.746   4.135
 2503SOL    HW210065   2.078   0.762   4.175
 2503SOL    HW310066   1.973   0.654   4.154
 2503SOL    MW410067   2.001   0.736   4.143
 2504SOL     OW10068   1.796   0.881   4.283
 2504SOL    HW210069   1.805   0.976   4.276
 2504SOL    HW310070   1.860   0.847   4.221
 2504SOL    MW410071   1.805   0.889   4.274
 2505SOL     OW10072   1.799   1.161   4.233
 2505SOL    HW210073   1.873   1.216   4.259
 2505SOL    HW310074   1.724   1.221   4.231
 2505SOL    MW410075   1.799   1.176   4.236
 2506SOL     OW10076   2.025   1.293   4.276
 2506SOL    HW210077   2.090   1.255   4.217
 2506SOL    HW310078   2.023   1.386   4.254
 2506SOL    MW410079   2.033   1.300   4.265
 2507SOL     OW10080   2.013   1.562   4.170
 2507SOL    HW210081   2.090   1.606   4.204
 2507SOL    HW310082   2.038   1.533   4.082
 2507SOL    MW410083   2.026   1.564   4.163
 2508SOL     OW10084   1.790   1.668   4.273
 2508SOL    HW210085   1.870   1.637   4.230
 2508SOL    HW310086   1.720   1.638   4.216
 2508SOL    MW410087   1.791   1.660   4.260
 2509SOL     OW10088   1.825   1.904   4.143
 2509SOL    HW210089   1.809   1.825   4.195
 2509SOL    HW310090   1.750   1.961   4.161
 2509SOL    MW410091   1.813   1.901   4.152
 2510SOL     OW10092   2.050   2.041   4.245
 2510SOL    HW210093   2.125   2.016   4.192
 2510SOL    HW310094   1.976   1.996   4.206
 2510SOL    MW410095   2.050   2.032   4.233
 2511SOL     OW10096   2.003   2.317   4.188
 2511SOL    HW210097   2.027   2.227   4.210
 2511SOL    HW310098   1.996   2.318   4.093
 2511SOL    MW410099   2.005   2.305   4.178
 2512SOL     OW10100   1.767   2.445   4.230
 2512SOL    HW210101   1.738   2.448   4.321
 2512SOL    HW310102   1.845   2.391   4.231
 2512SOL    MW410103   1.773   2.438   4.242
 2513SOL     OW10104   1.800   2.712   4.142
 2513SOL    HW210105   1.794   2.620   4.169
 2513SOL    HW310106   1.718   2.752   4.174
 2513SOL    MW410107   1.788   2.705   4.150
 2514SOL     OW10108   1.983   2.891   4.246
 2514SOL    HW210109   1.996   2.889   4.341
 2514SOL    HW310110   1.916   2.824   4.229
 2514SOL    MW410111   1.976   2.882   4.256
 2515SOL     OW10112   2.036   3.115   4.090
 2515SOL    HW210113   2.000   3.040   4.137
 2515SOL    HW310114   2.033   3.088   3.998
 2515SOL    MW410115   2.031   3.101   4.084
 2516SOL     OW10116   1.803   3.233   4.205
 2516SOL    HW210117   1.810   3.320   4.167
 2516SOL    HW310118   1.875   3.183   4.165
 2516SOL    MW410119   1.813   3.238   4.195
 2517SOL     OW10120   1.837   3.489   4.134
 2517SOL    HW210121   1.751   3.522   4.163
 2517SOL    HW310122   1.830   3.486   4.039
 2517SOL    MW410123   1.824   3.493   4.125
 2518SOL     OW10124   2.101   3.615   4.181
 2518SOL    HW210125   2.078   3.706   4.199
 2518SOL    HW310126   2.017   3.573   4.161
 2518SOL    MW410127   2.087   3.621   4.181
 2519SOL     OW10128   2.106   3.892   4.224
 2519SOL    HW210129   2.018   3.901   4.262
 2519SOL    HW310130   2.092   3.903   4.130
 2519SOL    MW410131   2.092   3.895   4.217
 2520SOL     OW10132   1.844   3.928   4.285
 2520SOL    HW210133   1.799   4.003   4.247
 2520SOL    HW310134   1.809   3.853   4.237
 2520SOL    MW410135   1.834   3.928   4.274
 2521SOL     OW10136   1.794   4.222   4.194
 2521SOL    HW210137   1.881   4.256   4.216
 2521SOL    HW310138   1.796   4.209   4.099
 2521SOL    MW410139   1.806   4.225   4.184
 2522SOL     OW10140   2.043   4.367   4.242
 2522SOL    HW210141   2.041   4.388   4.336
 2522SOL    HW310142   2.060   4.450   4.199
 2522SOL    MW410143   2.045   4.380   4.249
 2523SOL     OW10144   2.425   0.005   4.137
 2523SOL    HW210145   2.501   0.048   4.177
 2523SOL    HW310146   2.430  -0.085   4.169
 2523SOL    MW410147   2.436  -0.001   4.147
 2524SOL     OW10148   2.255   0.151   4.262
 2524SOL    HW210149   2.316   0.094   4.215
 2524SOL    HW310150   2.169   0.110   4.248
 2524SOL    MW410151   2.252   0.138   4.254
 2525SOL     OW10152   2.285   0.415   4.172
 2525SOL    HW210153   2.281   0.325   4.205
 2525SOL    HW310154   2.274   0.406   4.077
 2525SOL    MW410155   2.283   0.402   4.164
 2526SOL     OW10156   2.527   0.532   4.237
 2526SOL    HW210157   2.565   0.492   4.315
 2526SOL    HW310158   2.438   0.497   4.232
 2526SOL    MW410159   2.520   0.522   4.246
 2527SOL     OW10160   2.510   0.811   4.126
 2527SOL    HW210161   2.507   0.719   4.154
 2527SOL    HW310162   2.493   0.808   4.032
 2527SOL    MW410163   2.507   0.798   4.117
 2528SOL     OW10164   2.243   0.877   4.208
 2528SOL    HW210165   2.237   0.888   4.303
 2528SOL    HW310166   2.335   0.861   4.191
 2528SOL    MW410167   2.254   0.877   4.218
 2529SOL     OW10168   2.205   1.148   4.115
 2529SOL    HW210169   2.272   1.204   4.152
 2529SOL    HW310170   2.225   1.060   4.147
 2529SOL    MW410171   2.216   1.144   4.124
 2530SOL     OW10172   2.428   1.292   4.248
 2530SOL    HW210173   2.451   1.307   4.340
 2530SOL    HW310174   2.509   1.263   4.207
 2530SOL    MW410175   2.442   1.290   4.255
 2531SOL     OW10176   2.446   1.567   4.169
 2531SOL    HW210177   2.444   1.472   4.182
 2531SOL    HW310178   2.440   1.578   4.074
 2531SOL    MW410179   2.445   1.556   4.158
 2532SOL     OW10180   2.233   1.677   4.281
 2532SOL    HW210181   2.244   1.702   4.373
 2532SOL    HW310182   2.320   1.650   4.253
 2532SOL    MW410183   2.246   1.677   4.290
 2533SOL     OW10184   2.258   1.910   4.116
 2533SOL    HW210185   2.332   1.961   4.149
 2533SOL    HW310186   2.253   1.835   4.176
 2533SOL    MW410187   2.267   1.907   4.128
 2534SOL     OW10188   2.445   2.076   4.251
 2534SOL    HW210189   2.455   2.065   4.345
 2534SOL    HW310190   2.530   2.053   4.215
 2534SOL    MW410191   2.457   2.072   4.258
 2535SOL     OW10192   2.441   2.335   4.164
 2535SOL    HW210193   2.430   2.242   4.186
 2535SOL    HW310194   2.449   2.336   4.068
 2535SOL    MW410195   2.441   2.323   4.154
 2536SOL     OW10196   2.222   2.486   4.250
 2536SOL    HW210197   2.298   2.430   4.233
 2536SOL    HW310198   2.149   2.441   4.208
 2536SOL    MW410199   2.222   2.473   4.242
 2537SOL     OW10200   2.233   2.741   4.152
 2537SOL    HW210201   2.225   2.649   4.177
 2537SOL    HW310202   2.162   2.785   4.198
 2537SOL    MW410203   2.223   2.734   4.161
 2538SOL     OW10204   2.488   2.845   4.213
 2538SOL    HW210205   2.487   2.858   4.308
 2538SOL    HW310206   2.400   2.816   4.191
 2538SOL    MW410207   2.476   2.843   4.222
 2539SOL     OW10208   2.537   3.092   4.108
 2539SOL    HW210209   2.452   3.125   4.138
 2539SOL    HW310210   2.539   3.001   4.136
 2539SOL    MW410211   2.526   3.085   4.116
 2540SOL     OW10212   2.286   3.184   4.168
 2540SOL    HW210213   2.285   3.268   4.123
 2540SOL    HW310214   2.208   3.138   4.137
 2540SOL    MW410215   2.276   3.189   4.158
 2541SOL     OW10216   2.307   3.471   4.073
 2541SOL    HW210217   2.383   3.515   4.112
 2541SOL    HW310218   2.233   3.526   4.096
 2541SOL    MW410219   2.308   3.484   4.081
 2542SOL     OW10220   2.507   3.600   4.215
 2542SOL    HW210221   2.482   3.593   4.307
 2542SOL    HW310222   2.500   3.693   4.195
 2542SOL    MW410223   2.503   3.611   4.225
 2543SOL     OW10224   2.503   3.866   4.132
 2543SOL    HW210225   2.570   3.924   4.167
 2543SOL    HW310226   2.496   3.890   4.040
 2543SOL    MW410227   2.511   3.877   4.125
 2544SOL     OW10228   2.341   4.032   4.284
 2544SOL    HW210229   2.406   3.982   4.235
 2544SOL    HW310230   2.262   3.978   4.281
 2544SOL    MW410231   2.339   4.018   4.278
 2545SOL     OW10232   2.271   4.256   4.143
 2545SOL    HW210233   2.303   4.182   4.193
 2545SOL    HW310234   2.178   4.262   4.165
 2545SOL    MW410235   2.263   4.247   4.152
 2546SOL     OW10236   2.450   4.429   4.272
 2546SOL    HW210237   2.538   4.399   4.249
 2546SOL    HW310238   2.392   4.368   4.226
 2546SOL    MW410239   2.454   4.417   4.263
 2547SOL     OW10240   2.914   0.038   4.144
 2547SOL    HW210241   2.983   0.090   4.183
 2547SOL    HW310242   2.937  -0.053   4.166
 2547SOL    MW410243   2.926   0.033   4.152
 2548SOL     OW10244   2.667   0.172   4.222
 2548SOL    HW210245   2.672   0.263   4.192
 2548SOL    HW310246   2.754   0.135   4.205
 2548SOL    MW410247   2.679   0.179   4.216
 2549SOL     OW10248   2.718   0.416   4.094
 2549SOL    HW210249   2.648   0.459   4.143
 2549SOL    HW310250   2.691   0.422   4.002
 2549SOL    MW410251   2.705   0.423   4.088
 2550SOL     OW10252   2.955   0.528   4.201
 2550SOL    HW210253   2.957   0.621   4.176
 2550SOL    HW310254   2.884   0.491   4.149
 2550SOL    MW410255   2.946   0.536   4.191
 2551SOL     OW10256   2.936   0.789   4.146
 2551SOL    HW210257   3.025   0.821   4.161
 2551SOL    HW310258   2.928   0.783   4.051
 2551SOL    MW410259   2.947   0.793   4.136
 2552SOL     OW10260   2.713   0.954   4.231
 2552SOL    HW210261   2.795   0.907   4.219
 2552SOL    HW310262   2.645   0.894   4.201
 2552SOL    MW410263   2.715   0.940   4.226
 2553SOL     OW10264   2.670   1.214   4.152
 2553SOL    HW210265   2.653   1.125   4.180
 2553SOL    HW310266   2.681   1.207   4.057
 2553SOL    MW410267   2.670   1.201   4.143
 2554SOL     OW10268   2.931   1.328   4.196
 2554SOL    HW210269   2.994   1.260   4.176
 2554SOL    HW310270   2.846   1.286   4.185
 2554SOL    MW410271   2.928   1.314   4.192
 2555SOL     OW10272   2.932   1.596   4.138
 2555SOL    HW210273   3.012   1.642   4.162
 2555SOL    HW310274   2.949   1.505   4.161
 2555SOL    MW410275   2.945   1.590   4.144
 2556SOL     OW10276   2.690   1.695   4.227
 2556SOL    HW210277   2.758   1.633   4.200
 2556SOL    HW310278   2.608   1.646   4.219
 2556SOL    MW410279   2.688   1.680   4.223
 2557SOL     OW10280   2.693   1.968   4.131
 2557SOL    HW210281   2.684   1.884   4.176
 2557SOL    HW310282   2.691   1.946   4.038
 2557SOL    MW410283   2.691   1.954   4.125
 2558SOL     OW10284   2.928   2.076   4.249
 2558SOL    HW210285   2.944   2.158   4.202
 2558SOL    HW310286   2.852   2.038   4.204
 2558SOL    MW410287   2.920   2.082   4.237
 2559SOL     OW10288   2.945   2.318   4.134
 2559SOL    HW210289   2.996   2.383   4.182
 2559SOL    HW310290   2.854   2.342   4.150
 2559SOL    MW410291   2.939   2.330   4.143
 2560SOL     OW10292   2.697   2.445   4.201
 2560SOL    HW210293   2.724   2.455   4.293
 2560SOL    HW310294   2.609   2.408   4.206
 2560SOL    MW410295   2.689   2.441   4.214
 2561SOL     OW10296   2.693   2.703   4.088
 2561SOL    HW210297   2.699   2.619   4.134
 2561SOL    HW310298   2.623   2.750   4.134
 2561SOL    MW410299   2.685   2.698   4.100
 2562SOL     OW10300   2.876   2.847   4.231
 2562SOL    HW210301   2.863   2.825   4.323
 2562SOL    HW310302   2.809   2.796   4.184
 2562SOL    MW410303   2.865   2.837   4.237
 2563SOL     OW10304   2.936   3.107   4.148
 2563SOL    HW210305   2.904   3.018   4.165
 2563SOL    HW310306   2.944   3.112   4.053
 2563SOL    MW410307   2.933   3.096   4.137
 2564SOL     OW10308   2.726   3.211   4.296
 2564SOL    HW210309   2.807   3.179   4.255
 2564SOL    HW310310   2.657   3.186   4.235
 2564SOL    MW410311   2.728   3.203   4.282
 2565SOL     OW10312   2.766   3.470   4.147
 2565SOL    HW210313   2.767   3.394   4.205
 2565SOL    HW310314   2.684   3.516   4.168
 2565SOL    MW410315   2.755   3.466   4.157
 2566SOL     OW10316   2.939   3.666   4.235
 2566SOL    HW210317   2.921   3.675   4.329
 2566SOL    HW310318   2.880   3.596   4.206
 2566SOL    MW410319   2.929   3.658   4.244
 2567SOL     OW10320   2.949   3.917   4.114
 2567SOL    HW210321   3.029   3.946   4.157
 2567SOL    HW310322   2.938   3.827   4.143
 2567SOL    MW410323   2.958   3.909   4.124
 2568SOL     OW10324   2.728   4.027   4.233
 2568SOL    HW210325   2.735   4.123   4.238
 2568SOL    HW310326   2.814   3.998   4.203
 2568SOL    MW410327   2.740   4.036   4.230
 2569SOL     OW10328   2.696   4.298   4.196
 2569SOL    HW210329   2.787   4.324   4.208
 2569SOL    HW310330   2.689   4.277   4.103
 2569SOL    MW410331   2.707   4.299   4.185
 2570SOL     OW10332   2.957   4.431   4.249
 2570SOL    HW210333   2.950   4.436   4.344
 2570SOL    HW310334   3.030   4.372   4.233
 2570SOL    MW410335   2.966   4.424   4.259
 2571SOL     OW10336   3.387   0.032   4.212
 2571SOL    HW210337   3.471   0.061   4.246
 2571SOL    HW310338   3.393  -0.064   4.213
 2571SOL    MW410339   3.399   0.023   4.216
 2572SOL     OW10340   3.142   0.167   4.235
 2572SOL    HW210341   3.131   0.179   4.330
 2572SOL    HW310342   3.228   0.125   4.227
 2572SOL    MW410343   3.152   0.163   4.247
 2573SOL     OW10344   3.193   0.416   4.122
 2573SOL    HW210345   3.178   0.333   4.167
 2573SOL    HW310346   3.114   0.468   4.140
 2573SOL    MW410347   3.180   0.412   4.130
 2574SOL     OW10348   3.419   0.587   4.192
 2574SOL    HW210349   3.495   0.530   4.180
 2574SOL    HW310350   3.345   0.533   4.165
 2574SOL    MW410351   3.420   0.572   4.187
 2575SOL     OW10352   3.400   0.842   4.066
 2575SOL    HW210353   3.323   0.877   4.112
 2575SOL    HW310354   3.416   0.757   4.107
 2575SOL    MW410355   3.392   0.836   4.078
 2576SOL     OW10356   3.185   0.916   4.213
 2576SOL    HW210357   3.179   0.916   4.309
 2576SOL    HW310358   3.149   1.000   4.186
 2576SOL    MW410359   3.179   0.927   4.222
 2577SOL     OW10360   3.139   1.156   4.098
 2577SOL    HW210361   3.216   1.196   4.137
 2577SOL    HW310362   3.154   1.163   4.004
 2577SOL    MW410363   3.151   1.162   4.091
 2578SOL     OW10364   3.388   1.271   4.239
 2578SOL    HW210365   3.399   1.280   4.334
 2578SOL    HW310366   3.382   1.361   4.207
 2578SOL    MW410367   3.389   1.284   4.248
 2579SOL     OW10368   3.402   1.544   4.141
 2579SOL    HW210369   3.325   1.602   4.146
 2579SOL    HW310370   3.421   1.539   4.047
 2579SOL    MW410371   3.394   1.551   4.129
 2580SOL     OW10372   3.178   1.695   4.203
 2580SOL    HW210373   3.192   1.709   4.297
 2580SOL    HW310374   3.144   1.779   4.171
 2580SOL    MW410375   3.175   1.708   4.212
 2581SOL     OW10376   3.125   1.946   4.094
 2581SOL    HW210377   3.204   1.989   4.129
 2581SOL    HW310378   3.054   1.979   4.148
 2581SOL    MW410379   3.126   1.956   4.106
 2582SOL     OW10380   3.328   2.036   4.259
 2582SOL    HW210381   3.400   1.995   4.211
 2582SOL    HW310382   3.325   2.126   4.227
 2582SOL    MW410383   3.337   2.042   4.248
 2583SOL     OW10384   3.362   2.313   4.177
 2583SOL    HW210385   3.446   2.352   4.198
 2583SOL    HW310386   3.360   2.310   4.082
 2583SOL    MW410387   3.373   2.318   4.167
 2584SOL     OW10388   3.158   2.487   4.254
 2584SOL    HW210389   3.143   2.575   4.219
 2584SOL    HW310390   3.234   2.454   4.206
 2584SOL    MW410391   3.166   2.495   4.243
 2585SOL     OW10392   3.110   2.731   4.125
 2585SOL    HW210393   3.182   2.770   4.174
 2585SOL    HW310394   3.033   2.781   4.154
 2585SOL    MW410395   3.109   2.743   4.136
 2586SOL     OW10396   3.349   2.840   4.211
 2586SOL    HW210397   3.429   2.800   4.178
 2586SOL    HW310398   3.359   2.934   4.192
 2586SOL    MW410399   3.361   2.847   4.204
 2587SOL     OW10400   3.382   3.106   4.145
 2587SOL    HW210401   3.311   3.157   4.186
 2587SOL    HW310402   3.364   3.112   4.051
 2587SOL    MW410403   3.370   3.114   4.138
 2588SOL     OW10404   3.159   3.229   4.270
 2588SOL    HW210405   3.141   3.321   4.251
 2588SOL    HW310406   3.089   3.181   4.225
 2588SOL    MW410407   3.147   3.235   4.262
 2589SOL     OW10408   3.152   3.511   4.184
 2589SOL    HW210409   3.080   3.567   4.214
 2589SOL    HW310410   3.156   3.526   4.090
 2589SOL    MW410411   3.143   3.521   4.176
 2590SOL     OW10412   3.376   3.677   4.262
 2590SOL    HW210413   3.381   3.691   4.357
 2590SOL    HW310414   3.295   3.626   4.250
 2590SOL    MW410415   3.366   3.672   4.273
 2591SOL     OW10416   3.403   3.923   4.137
 2591SOL    HW210417   3.389   3.833   4.166
 2591SOL    HW310418   3.419   3.916   4.043
 2591SOL    MW410419   3.403   3.910   4.128
 2592SOL     OW10420   3.160   4.021   4.249
 2592SOL    HW210421   3.142   3.982   4.335
 2592SOL    HW310422   3.242   3.982   4.221
 2592SOL    MW410423   3.168   4.011   4.257
 2593SOL     OW10424   3.141   4.273   4.142
 2593SOL    HW210425   3.217   4.329   4.155
 2593SOL    HW310426   3.167   4.188   4.178
 2593SOL    MW410427   3.154   4.269   4.148
 2594SOL     OW10428   3.378   4.415   4.215
 2594SOL    HW210429   3.391   4.392   4.308
 2594SOL    HW310430   3.446   4.365   4.169
 2594SOL    MW410431   3.389   4.405   4.221
 2595SOL     OW10432   3.850   0.004   4.156
 2595SOL    HW210433   3.929   0.053   4.177
 2595SOL    HW310434   3.834   0.023   4.063
 2595SOL    MW410435   3.858   0.013   4.146
 2596SOL     OW10436   3.641   0.136   4.258
 2596SOL    HW210437   3.649   0.227   4.227
 2596SOL    HW310438   3.712   0.089   4.213
 2596SOL    MW410439   3.651   0.142   4.248
 2597SOL     OW10440   3.625   0.415   4.155
 2597SOL    HW210441   3.704   0.455   4.191
 2597SOL    HW310442   3.629   0.434   4.061
 2597SOL    MW410443   3.636   0.423   4.147
 2598SOL     OW10444   3.855   0.488   4.270
 2598SOL    HW210445   3.851   0.494   4.365
 2598SOL    HW310446   3.835   0.576   4.239
 2598SOL    MW410447   3.852   0.500   4.279
 2599SOL     OW10448   3.796   0.725   4.142
 2599SOL    HW210449   3.730   0.791   4.165
 2599SOL    HW310450   3.799   0.726   4.046
 2599SOL    MW410451   3.788   0.734   4.132
 2600SOL     OW10452   3.624   0.940   4.216
 2600SOL    HW210453   3.625   1.031   4.188
 2600SOL    HW310454   3.547   0.902   4.174
 2600SOL    MW410455   3.614   0.947   4.207
 2601SOL     OW10456   3.648   1.210   4.163
 2601SOL    HW210457   3.559   1.232   4.191
 2601SOL    HW310458   3.644   1.212   4.068
 2601SOL    MW410459   3.636   1.213   4.154
 2602SOL     OW10460   3.876   1.346   4.239
 2602SOL    HW210461   3.789   1.315   4.214
 2602SOL    HW310462   3.888   1.426   4.189
 2602SOL    MW410463   3.866   1.352   4.229
 2603SOL     OW10464   3.892   1.587   4.106
 2603SOL    HW210465   3.961   1.640   4.146
 2603SOL    HW310466   3.812   1.614   4.151
 2603SOL    MW410467   3.890   1.597   4.118
 2604SOL     OW10468   3.631   1.665   4.228
 2604SOL    HW210469   3.552   1.620   4.198
 2604SOL    HW310470   3.637   1.644   4.321
 2604SOL    MW410471   3.622   1.656   4.236
 2605SOL     OW10472   3.564   1.932   4.163
 2605SOL    HW210473   3.572   1.840   4.189
 2605SOL    HW310474   3.591   1.934   4.072
 2605SOL    MW410475   3.569   1.920   4.155
 2606SOL     OW10476   3.684   2.106   4.323
 2606SOL    HW210477   3.757   2.059   4.363
 2606SOL    HW310478   3.647   2.044   4.260
 2606SOL    MW410479   3.689   2.092   4.320
 2607SOL     OW10480   3.802   2.325   4.176
 2607SOL    HW210481   3.779   2.239   4.212
 2607SOL    HW310482   3.805   2.311   4.081
 2607SOL    MW410483   3.799   2.312   4.168
 2608SOL     OW10484   3.569   2.474   4.216
 2608SOL    HW210485   3.571   2.508   4.305
 2608SOL    HW310486   3.659   2.443   4.200
 2608SOL    MW410487   3.581   2.474   4.225
 2609SOL     OW10488   3.582   2.731   4.122
 2609SOL    HW210489   3.568   2.637   4.128
 2609SOL    HW310490   3.587   2.750   4.029
 2609SOL    MW410491   3.581   2.721   4.111
 2610SOL     OW10492   3.814   2.845   4.236
 2610SOL    HW210493   3.799   2.891   4.318
 2610SOL    HW310494   3.726   2.823   4.204
 2610SOL    MW410495   3.801   2.848   4.243
 2611SOL     OW10496   3.811   3.112   4.154
 2611SOL    HW210497   3.831   3.021   4.178
 2611SOL    HW310498   3.812   3.112   4.059
 2611SOL    MW410499   3.814   3.100   4.145
 2612SOL     OW10500   3.586   3.257   4.260
 2612SOL    HW210501   3.660   3.206   4.227
 2612SOL    HW310502   3.509   3.214   4.223
 2612SOL    MW410503   3.586   3.245   4.251
 2613SOL     OW10504   3.596   3.525   4.156
 2613SOL    HW210505   3.593   3.438   4.195
 2613SOL    HW310506   3.535   3.578   4.208
 2613SOL    MW410507   3.588   3.521   4.168
 2614SOL     OW10508   3.824   3.645   4.257
 2614SOL    HW210509   3.896   3.588   4.232
 2614SOL    HW310510   3.750   3.614   4.206
 2614SOL    MW410511   3.824   3.633   4.247
 2615SOL     OW10512   3.866   3.901   4.157
 2615SOL    HW210513   3.786   3.947   4.181
 2615SOL    HW310514   3.849   3.809   4.179
 2615SOL    MW410515   3.853   3.895   4.163
 2616SOL     OW10516   3.648   4.030   4.243
 2616SOL    HW210517   3.618   4.040   4.333
 2616SOL    HW310518   3.568   4.007   4.194
 2616SOL    MW410519   3.633   4.028   4.248
 2617SOL     OW10520   3.608   4.285   4.142
 2617SOL    HW210521   3.672   4.341   4.187
 2617SOL    HW310522   3.631   4.196   4.169
 2617SOL    MW410523   3.619   4.281   4.151
 2618SOL     OW10524   3.848   4.417   4.252
 2618SOL    HW210525   3.923   4.361   4.228
 2618SOL    HW310526   3.868   4.502   4.213
 2618SOL    MW410527   3.861   4.420   4.244
 2619SOL     OW10528   4.317   0.015   4.172
 2619SOL    HW210529   4.330  -0.078   4.193
 2619SOL    HW310530   4.390   0.059   4.216
 2619SOL    MW410531   4.329   0.009   4.181
 2620SOL     OW10532   4.090   0.109   4.285
 2620SOL    HW210533   4.097   0.199   4.256
 2620SOL    HW310534   4.161   0.063   4.240
 2620SOL    MW410535   4.100   0.115   4.276
 2621SOL     OW10536   4.085   0.375   4.176
 2621SOL    HW210537   4.150   0.431   4.219
 2621SOL    HW310538   4.001   0.412   4.202
 2621SOL    MW410539   4.083   0.388   4.185
 2622SOL     OW10540   4.286   0.535   4.298
 2622SOL    HW210541   4.297   0.619   4.254
 2622SOL    HW310542   4.362   0.483   4.271
 2622SOL    MW410543   4.298   0.539   4.289
 2623SOL     OW10544   4.290   0.788   4.168
 2623SOL    HW210545   4.200   0.801   4.198
 2623SOL    HW310546   4.281   0.761   4.077
 2623SOL    MW410547   4.277   0.786   4.160
 2624SOL     OW10548   4.022   0.860   4.226
 2624SOL    HW210549   4.004   0.950   4.198
 2624SOL    HW310550   3.950   0.809   4.189
 2624SOL    MW410551   4.010   0.865   4.217
 2625SOL     OW10552   4.014   1.126   4.155
 2625SOL    HW210553   4.094   1.174   4.176
 2625SOL    HW310554   3.943   1.182   4.187
 2625SOL    MW410555   4.015   1.140   4.162
 2626SOL     OW10556   4.283   1.261   4.192
 2626SOL    HW210557   4.269   1.249   4.286
 2626SOL    HW310558   4.366   1.216   4.175
 2626SOL    MW410559   4.292   1.254   4.202
 2627SOL     OW10560   4.285   1.536   4.131
 2627SOL    HW210561   4.282   1.445   4.158
 2627SOL    HW310562   4.266   1.534   4.038
 2627SOL    MW410563   4.282   1.524   4.123
 2628SOL     OW10564   4.112   1.726   4.227
 2628SOL    HW210565   4.126   1.718   4.321
 2628SOL    HW310566   4.176   1.667   4.187
 2628SOL    MW410567   4.122   1.717   4.234
 2629SOL     OW10568   4.024   1.974   4.141
 2629SOL    HW210569   4.052   1.883   4.152
 2629SOL    HW310570   3.973   1.993   4.220
 2629SOL    MW410571   4.021   1.965   4.153
 2630SOL     OW10572   4.465   1.954   4.106
 2630SOL    HW210573   4.551   1.987   4.134
 2630SOL    HW310574   4.402   2.011   4.149
 2630SOL    MW410575   4.468   1.966   4.115
 2631SOL     OW10576   4.238   2.353   4.130
 2631SOL    HW210577   4.160   2.391   4.170
 2631SOL    HW310578   4.241   2.263   4.162
 2631SOL    MW410579   4.228   2.346   4.139
 2632SOL     OW10580   4.023   2.449   4.285
 2632SOL    HW210581   4.038   2.399   4.365
 2632SOL    HW310582   3.944   2.409   4.247
 2632SOL    MW410583   4.014   2.437   4.290
 2633SOL     OW10584   4.061   2.723   4.177
 2633SOL    HW210585   4.050   2.638   4.220
 2633SOL    HW310586   3.979   2.770   4.195
 2633SOL    MW410587   4.049   2.718   4.185
 2634SOL     OW10588   4.277   2.856   4.251
 2634SOL    HW210589   4.197   2.816   4.218
 2634SOL    HW310590   4.347   2.802   4.215
 2634SOL    MW410591   4.276   2.844   4.242
 2635SOL     OW10592   4.246   3.125   4.164
 2635SOL    HW210593   4.262   3.036   4.195
 2635SOL    HW310594   4.254   3.119   4.068
 2635SOL    MW410595   4.249   3.112   4.155
 2636SOL     OW10596   4.016   3.233   4.271
 2636SOL    HW210597   4.092   3.196   4.226
 2636SOL    HW310598   3.940   3.191   4.230
 2636SOL    MW410599   4.016   3.222   4.260
 2637SOL     OW10600   4.063   3.520   4.169
 2637SOL    HW210601   4.043   3.435   4.209
 2637SOL    HW310602   4.057   3.504   4.075
 2637SOL    MW410603   4.060   3.506   4.162
 2638SOL     OW10604   4.300   3.614   4.284
 2638SOL    HW210605   4.290   3.707   4.264
 2638SOL    HW310606   4.224   3.572   4.244
 2638SOL    MW410607   4.289   3.620   4.276
 2639SOL     OW10608   4.312   3.887   4.197
 2639SOL    HW210609   4.242   3.943   4.230
 2639SOL    HW310610   4.299   3.884   4.103
 2639SOL    MW410611   4.301   3.894   4.189
 2640SOL     OW10612   4.097   4.041   4.259
 2640SOL    HW210613   4.089   4.042   4.354
 2640SOL    HW310614   4.027   3.983   4.229
 2640SOL    MW410615   4.087   4.033   4.268
 2641SOL     OW10616   4.077   4.296   4.132
 2641SOL    HW210617   4.156   4.334   4.171
 2641SOL    HW310618   4.078   4.204   4.161
 2641SOL    MW410619   4.088   4.289   4.141
 2642SOL     OW10620   4.232   4.627   4.655
 2642SOL    HW210621   4.283   4.702   4.625
 2642SOL    HW310622   4.141   4.654   4.643
 2642SOL    MW410623   4.226   4.640   4.649
 2643SOL     OW10624   0.077   0.207   4.531
 2643SOL    HW210625   0.095   0.295   4.564
 2643SOL    HW310626  -0.018   0.201   4.529
 2643SOL    MW410627   0.067   0.217   4.535
 2644SOL     OW10628   4.302   4.401   4.520
 2644SOL    HW210629   4.242   4.337   4.559
 2644SOL    HW310630   4.278   4.484   4.561
 2644SOL    MW410631   4.291   4.403   4.531
 2645SOL     OW10632   3.981   0.105   4.564
 2645SOL    HW210633   3.980   0.087   4.470
 2645SOL    HW310634   3.889   0.101   4.589
 2645SOL    MW410635   3.969   0.102   4.555
 2646SOL     OW10636   4.186   1.195   4.784
 2646SOL    HW210637   4.272   1.167   4.814
 2646SOL    HW310638   4.185   1.290   4.799
 2646SOL    MW410639   4.197   1.204   4.790
 2647SOL     OW10640   0.324   0.010   4.517
 2647SOL    HW210641   0.239   0.043   4.546
 2647SOL    HW310642   0.312  -0.084   4.511
 2647SOL    MW410643   0.311   0.002   4.520
 2648SOL     OW10644   0.644   0.821   4.616
 2648SOL    HW210645   0.652   0.727   4.597
 2648SOL    HW310646   0.551   0.840   4.601
 2648SOL    MW410647   0.633   0.811   4.612
 2649SOL     OW10648   4.361   0.853   4.586
 2649SOL    HW210649   4.345   0.758   4.589
 2649SOL    HW310650   4.412   0.866   4.507
 2649SOL    MW410651   4.365   0.842   4.576
 2650SOL     OW10652   0.457   1.394   4.522
 2650SOL    HW210653   0.417   1.309   4.540
 2650SOL    HW310654   0.418   1.453   4.588
 2650SOL    MW410655   0.447   1.391   4.533
 2651SOL     OW10656   0.656   2.032   4.565
 2651SOL    HW210657   0.724   1.969   4.590
 2651SOL    HW310658   0.574   1.987   4.582
 2651SOL    MW410659   0.654   2.018   4.571
 2652SOL     OW10660   4.259   1.242   4.466
 2652SOL    HW210661   4.230   1.152   4.482
 2652SOL    HW310662   4.352   1.242   4.490
 2652SOL    MW410663   4.267   1.230   4.471
 2653SOL     OW10664   0.187   1.943   4.497
 2653SOL    HW210665   0.118   1.880   4.517
 2653SOL    HW310666   0.154   2.026   4.531
 2653SOL    MW410667   0.174   1.946   4.504
 2654SOL     OW10668   0.539   1.626   4.384
 2654SOL    HW210669   0.501   1.544   4.417
 2654SOL    HW310670   0.595   1.599   4.312
 2654SOL    MW410671   0.541   1.612   4.379
 2655SOL     OW10672   0.069   2.187   4.612
 2655SOL    HW210673   0.103   2.174   4.701
 2655SOL    HW310674   0.098   2.275   4.588
 2655SOL    MW410675   0.077   2.197   4.621
 2656SOL     OW10676   4.132   2.318   4.765
 2656SOL    HW210677   4.154   2.410   4.779
 2656SOL    HW310678   4.199   2.286   4.705
 2656SOL    MW410679   4.143   2.326   4.759
 2657SOL     OW10680   0.484   2.702   4.528
 2657SOL    HW210681   0.447   2.731   4.445
 2657SOL    HW310682   0.492   2.607   4.518
 2657SOL    MW410683   0.480   2.693   4.516
 2658SOL     OW10684   0.390   2.925   4.667
 2658SOL    HW210685   0.435   2.850   4.629
 2658SOL    HW310686   0.299   2.914   4.640
 2658SOL    MW410687   0.384   2.914   4.658
 2659SOL     OW10688   4.279   2.459   4.472
 2659SOL    HW210689   4.348   2.514   4.510
 2659SOL    HW310690   4.198   2.491   4.512
 2659SOL    MW410691   4.277   2.470   4.482
 2660SOL     OW10692   4.339   3.351   4.658
 2660SOL    HW210693   4.401   3.286   4.626
 2660SOL    HW310694   4.254   3.322   4.623
 2660SOL    MW410695   4.336   3.338   4.649
 2661SOL     OW10696   0.069   3.179   4.522
 2661SOL    HW210697   0.040   3.154   4.434
 2661SOL    HW310698   0.130   3.252   4.508
 2661SOL    MW410699   0.073   3.185   4.509
 2662SOL     OW10700   4.335   3.850   4.608
 2662SOL    HW210701   4.251   3.877   4.571
 2662SOL    HW310702   4.339   3.755   4.593
 2662SOL    MW410703   4.324   3.841   4.601
 2663SOL     OW10704   4.302   0.194   4.522
 2663SOL    HW210705   4.255   0.244   4.589
 2663SOL    HW310706   4.237   0.177   4.454
 2663SOL    MW410707   4.287   0.199   4.521
 2664SOL     OW10708   3.850   0.506   4.557
 2664SOL    HW210709   3.759   0.475   4.564
 2664SOL    HW310710   3.844   0.601   4.573
 2664SOL    MW410711   3.837   0.515   4.560
 2665SOL     OW10712   4.021   3.553   4.779
 2665SOL    HW210713   4.109   3.590   4.791
 2665SOL    HW310714   3.997   3.520   4.865
 2665SOL    MW410715   4.029   3.554   4.792
 2666SOL     OW10716   3.863   4.252   4.628
 2666SOL    HW210717   3.801   4.322   4.608
 2666SOL    HW310718   3.809   4.181   4.664
 2666SOL    MW410719   3.848   4.252   4.630
 2667SOL     OW10720   0.543   0.021   4.671
 2667SOL    HW210721   0.466   0.016   4.615
 2667SOL    HW310722   0.537  -0.054   4.729
 2667SOL    MW410723   0.532   0.011   4.671
 2668SOL     OW10724   4.463   1.066   4.786
 2668SOL    HW210725   4.414   0.996   4.743
 2668SOL    HW310726   4.538   1.022   4.826
 2668SOL    MW410727   4.466   1.051   4.786
 2669SOL     OW10728   1.427   1.099   4.785
 2669SOL    HW210729   1.424   1.072   4.877
 2669SOL    HW310730   1.360   1.046   4.742
 2669SOL    MW410731   1.418   1.088   4.791
 2670SOL     OW10732   0.715   0.282   4.697
 2670SOL    HW210733   0.788   0.238   4.654
 2670SOL    HW310734   0.643   0.219   4.694
 2670SOL    MW410735   0.715   0.268   4.691
 2671SOL     OW10736   1.217   0.969   4.658
 2671SOL    HW210737   1.275   0.916   4.604
 2671SOL    HW310738   1.130   0.931   4.645
 2671SOL    MW410739   1.213   0.957   4.649
 2672SOL     OW10740   0.374   0.918   4.544
 2672SOL    HW210741   0.336   0.832   4.563
 2672SOL    HW310742   0.411   0.909   4.456
 2672SOL    MW410743   0.374   0.905   4.535
 2673SOL     OW10744   2.107   1.172   4.523
 2673SOL    HW210745   2.091   1.206   4.435
 2673SOL    HW310746   2.175   1.230   4.558
 2673SOL    MW410747   2.114   1.184   4.516
 2674SOL     OW10748   0.783   1.641   4.515
 2674SOL    HW210749   0.797   1.718   4.570
 2674SOL    HW310750   0.690   1.643   4.493
 2674SOL    MW410751   0.773   1.652   4.519
 2675SOL     OW10752   1.282   1.328   4.637
 2675SOL    HW210753   1.322   1.257   4.687
 2675SOL    HW310754   1.188   1.310   4.641
 2675SOL    MW410755   1.275   1.316   4.644
 2676SOL     OW10756   0.894   1.862   4.662
 2676SOL    HW210757   0.955   1.909   4.605
 2676SOL    HW310758   0.951   1.816   4.724
 2676SOL    MW410759   0.910   1.862   4.662
 2677SOL     OW10760   0.694   2.323   4.513
 2677SOL    HW210761   0.778   2.363   4.535
 2677SOL    HW310762   0.703   2.232   4.541
 2677SOL    MW410763   0.707   2.316   4.519
 2678SOL     OW10764   1.095   1.693   4.823
 2678SOL    HW210765   1.095   1.661   4.913
 2678SOL    HW310766   1.181   1.667   4.788
 2678SOL    MW410767   1.106   1.685   4.830
 2679SOL     OW10768   0.149   2.417   4.490
 2679SOL    HW210769   0.116   2.428   4.401
 2679SOL    HW310770   0.244   2.419   4.481
 2679SOL    MW410771   0.157   2.419   4.477
 2680SOL     OW10772   1.080   2.686   4.561
 2680SOL    HW210773   1.087   2.777   4.532
 2680SOL    HW310774   1.149   2.676   4.627
 2680SOL    MW410775   1.090   2.696   4.566
 2681SOL     OW10776   0.430   2.420   4.452
 2681SOL    HW210777   0.514   2.383   4.480
 2681SOL    HW310778   0.441   2.433   4.358
 2681SOL    MW410779   0.443   2.417   4.443
 2682SOL     OW10780   1.376   2.938   4.603
 2682SOL    HW210781   1.295   2.943   4.552
 2682SOL    HW310782   1.364   2.863   4.660
 2682SOL    MW410783   1.363   2.929   4.604
 2683SOL     OW10784   0.626   3.133   4.615
 2683SOL    HW210785   0.584   3.213   4.582
 2683SOL    HW310786   0.553   3.078   4.644
 2683SOL    MW410787   0.611   3.137   4.614
 2684SOL     OW10788   1.303   4.484   4.634
 2684SOL    HW210789   1.231   4.434   4.596
 2684SOL    HW310790   1.382   4.435   4.609
 2684SOL    MW410791   1.304   4.471   4.626
 2685SOL     OW10792   4.474   2.643   4.580
 2685SOL    HW210793   4.547   2.584   4.563
 2685SOL    HW310794   4.511   2.731   4.575
 2685SOL    MW410795   4.488   2.647   4.577
 2686SOL     OW10796   4.440   3.589   4.537
 2686SOL    HW210797   4.400   3.517   4.585
 2686SOL    HW310798   4.409   3.579   4.447
 2686SOL    MW410799   4.431   3.578   4.531
 2687SOL     OW10800   0.775   4.352   4.532
 2687SOL    HW210801   0.774   4.436   4.579
 2687SOL    HW310802   0.715   4.365   4.459
 2687SOL    MW410803   0.767   4.365   4.529
 2688SOL     OW10804   0.060   4.300   4.520
 2688SOL    HW210805   0.048   4.205   4.528
 2688SOL    HW310806  -0.029   4.335   4.526
 2688SOL    MW410807   0.046   4.292   4.522
 2689SOL     OW10808   0.067   4.013   4.534
 2689SOL    HW210809   0.135   3.946   4.543
 2689SOL    HW310810  -0.013   3.971   4.566
 2689SOL    MW410811   0.066   3.999   4.540
 2690SOL     OW10812   0.313   4.412   4.541
 2690SOL    HW210813   0.375   4.339   4.546
 2690SOL    HW310814   0.227   4.371   4.548
 2690SOL    MW410815   0.310   4.397   4.542
 2691SOL     OW10816   1.209   0.253   4.616
 2691SOL    HW210817   1.207   0.273   4.710
 2691SOL    HW310818   1.124   0.213   4.598
 2691SOL    MW410819   1.197   0.250   4.626
 2692SOL     OW10820   0.961   0.159   4.573
 2692SOL    HW210821   0.968   0.164   4.478
 2692SOL    HW310822   0.909   0.080   4.589
 2692SOL    MW410823   0.955   0.149   4.563
 2693SOL     OW10824   0.681   0.537   4.579
 2693SOL    HW210825   0.680   0.503   4.489
 2693SOL    HW310826   0.695   0.459   4.633
 2693SOL    MW410827   0.683   0.522   4.574
 2694SOL     OW10828   1.646   1.122   4.611
 2694SOL    HW210829   1.587   1.101   4.684
 2694SOL    HW310830   1.725   1.156   4.653
 2694SOL    MW410831   1.649   1.124   4.626
 2695SOL     OW10832   1.766   0.860   4.568
 2695SOL    HW210833   1.716   0.941   4.575
 2695SOL    HW310834   1.802   0.861   4.479
 2695SOL    MW410835   1.764   0.871   4.558
 2696SOL     OW10836   0.293   1.173   4.544
 2696SOL    HW210837   0.313   1.079   4.537
 2696SOL    HW310838   0.200   1.179   4.525
 2696SOL    MW410839   0.284   1.161   4.541
 2697SOL     OW10840   0.754   1.361   4.546
 2697SOL    HW210841   0.771   1.455   4.532
 2697SOL    HW310842   0.662   1.357   4.570
 2697SOL    MW410843   0.744   1.373   4.547
 2698SOL     OW10844   0.919   0.894   4.583
 2698SOL    HW210845   0.824   0.895   4.593
 2698SOL    HW310846   0.934   0.903   4.489
 2698SOL    MW410847   0.909   0.895   4.572
 2699SOL     OW10848   1.904   1.207   4.717
 2699SOL    HW210849   1.935   1.141   4.780
 2699SOL    HW310850   1.957   1.193   4.639
 2699SOL    MW410851   1.915   1.196   4.715
 2700SOL     OW10852   1.015   1.241   4.554
 2700SOL    HW210853   1.010   1.163   4.609
 2700SOL    HW310854   0.924   1.270   4.546
 2700SOL    MW410855   1.002   1.235   4.560
 2701SOL     OW10856   1.206   2.292   4.539
 2701SOL    HW210857   1.139   2.353   4.507
 2701SOL    HW310858   1.289   2.337   4.522
 2701SOL    MW410859   1.208   2.306   4.532
 2702SOL     OW10860   1.307   2.670   4.703
 2702SOL    HW210861   1.321   2.596   4.645
 2702SOL    HW310862   1.350   2.645   4.785
 2702SOL    MW410863   1.314   2.657   4.707
 2703SOL     OW10864   1.637   2.874   4.510
 2703SOL    HW210865   1.561   2.911   4.554
 2703SOL    HW310866   1.690   2.950   4.484
 2703SOL    MW410867   1.634   2.888   4.512
 2704SOL     OW10868   1.495   3.483   4.484
 2704SOL    HW210869   1.579   3.506   4.521
 2704SOL    HW310870   1.483   3.391   4.507
 2704SOL    MW410871   1.504   3.474   4.492
 2705SOL     OW10872   0.756   2.784   4.507
 2705SOL    HW210873   0.818   2.720   4.541
 2705SOL    HW310874   0.676   2.770   4.557
 2705SOL    MW410875   0.753   2.774   4.518
 2706SOL     OW10876   0.583   3.941   4.516
 2706SOL    HW210877   0.673   3.975   4.506
 2706SOL    HW310878   0.543   3.955   4.430
 2706SOL    MW410879   0.590   3.948   4.503
 2707SOL     OW10880   1.133   2.951   4.478
 2707SOL    HW210881   1.126   2.922   4.387
 2707SOL    HW310882   1.049   2.991   4.498
 2707SOL    MW410883   1.121   2.952   4.469
 2708SOL     OW10884   0.859   3.049   4.493
 2708SOL    HW210885   0.785   3.105   4.517
 2708SOL    HW310886   0.821   2.961   4.486
 2708SOL    MW410887   0.844   3.044   4.495
 2709SOL     OW10888   1.746   3.584   4.568
 2709SOL    HW210889   1.758   3.678   4.582
 2709SOL    HW310890   1.833   3.551   4.544
 2709SOL    MW410891   1.759   3.592   4.567
 2710SOL     OW10892   0.497   3.353   4.506
 2710SOL    HW210893   0.539   3.432   4.539
 2710SOL    HW310894   0.404   3.372   4.509
 2710SOL    MW410895   0.491   3.366   4.511
 2711SOL     OW10896   0.509   4.213   4.583
 2711SOL    HW210897   0.597   4.249   4.590
 2711SOL    HW310898   0.521   4.119   4.585
 2711SOL    MW410899   0.522   4.206   4.584
 2712SOL     OW10900   0.841   4.082   4.529
 2712SOL    HW210901   0.834   4.178   4.531
 2712SOL    HW310902   0.866   4.062   4.439
 2712SOL    MW410903   0.844   4.092   4.517
 2713SOL     OW10904   0.773   4.622   4.537
 2713SOL    HW210905   0.694   4.654   4.580
 2713SOL    HW310906   0.758   4.636   4.444
 2713SOL    MW410907   0.761   4.628   4.530
 2714SOL     OW10908   1.590   4.163   4.878
 2714SOL    HW210909   1.575   4.103   4.951
 2714SOL    HW310910   1.514   4.221   4.879
 2714SOL    MW410911   1.578   4.163   4.887
 2715SOL     OW10912   1.554   4.390   4.549
 2715SOL    HW210913   1.638   4.431   4.566
 2715SOL    HW310914   1.542   4.398   4.454
 2715SOL    MW410915   1.563   4.396   4.539
 2716SOL     OW10916   1.067   4.354   4.539
 2716SOL    HW210917   1.094   4.269   4.574
 2716SOL    HW310918   0.972   4.354   4.549
 2716SOL    MW410919   1.058   4.342   4.545
 2717SOL     OW10920   1.200   0.509   4.483
 2717SOL    HW210921   1.120   0.545   4.520
 2717SOL    HW310922   1.207   0.421   4.522
 2717SOL    MW410923   1.191   0.502   4.493
 2718SOL     OW10924   1.680   0.111   4.536
 2718SOL    HW210925   1.588   0.083   4.541
 2718SOL    HW310926   1.727   0.046   4.589
 2718SOL    MW410927   1.674   0.099   4.544
 2719SOL     OW10928   1.343   0.764   4.520
 2719SOL    HW210929   1.288   0.686   4.517
 2719SOL    HW310930   1.340   0.800   4.432
 2719SOL    MW410931   1.336   0.758   4.508
 2720SOL     OW10932   1.851   1.515   4.769
 2720SOL    HW210933   1.870   1.422   4.759
 2720SOL    HW310934   1.859   1.532   4.863
 2720SOL    MW410935   1.855   1.505   4.780
 2721SOL     OW10936   0.956   0.623   4.572
 2721SOL    HW210937   0.946   0.718   4.580
 2721SOL    HW310938   0.868   0.588   4.586
 2721SOL    MW410939   0.943   0.631   4.575
 2722SOL     OW10940   2.066   0.504   4.532
 2722SOL    HW210941   2.125   0.431   4.551
 2722SOL    HW310942   1.979   0.468   4.546
 2722SOL    MW410943   2.063   0.489   4.536
 2723SOL     OW10944   1.520   1.369   4.522
 2723SOL    HW210945   1.428   1.369   4.550
 2723SOL    HW310946   1.553   1.283   4.547
 2723SOL    MW410947   1.512   1.358   4.529
 2724SOL     OW10948   1.315   1.834   4.519
 2724SOL    HW210949   1.311   1.759   4.578
 2724SOL    HW310950   1.333   1.796   4.433
 2724SOL    MW410951   1.317   1.819   4.516
 2725SOL     OW10952   1.683   2.455   4.501
 2725SOL    HW210953   1.737   2.521   4.543
 2725SOL    HW310954   1.731   2.373   4.512
 2725SOL    MW410955   1.696   2.453   4.508
 2726SOL     OW10956   1.978   2.363   4.619
 2726SOL    HW210957   1.918   2.289   4.609
 2726SOL    HW310958   1.927   2.430   4.665
 2726SOL    MW410959   1.964   2.362   4.624
 2727SOL     OW10960   0.972   2.445   4.496
 2727SOL    HW210961   0.998   2.533   4.523
 2727SOL    HW310962   0.936   2.457   4.407
 2727SOL    MW410963   0.970   2.458   4.487
 2728SOL     OW10964   1.349   3.997   4.470
 2728SOL    HW210965   1.356   3.901   4.464
 2728SOL    HW310966   1.430   4.024   4.513
 2728SOL    MW410967   1.361   3.988   4.475
 2729SOL     OW10968   1.403   2.475   4.517
 2729SOL    HW210969   1.363   2.471   4.430
 2729SOL    HW310970   1.494   2.451   4.503
 2729SOL    MW410971   1.410   2.471   4.504
 2730SOL     OW10972   1.834   2.686   4.558
 2730SOL    HW210973   1.766   2.752   4.546
 2730SOL    HW310974   1.916   2.735   4.552
 2730SOL    MW410975   1.836   2.701   4.556
 2731SOL     OW10976   1.454   3.190   4.496
 2731SOL    HW210977   1.537   3.143   4.489
 2731SOL    HW310978   1.391   3.125   4.527
 2731SOL    MW410979   1.456   3.175   4.499
 2732SOL     OW10980   1.357   3.729   4.469
 2732SOL    HW210981   1.412   3.660   4.505
 2732SOL    HW310982   1.295   3.683   4.412
 2732SOL    MW410983   1.356   3.714   4.466
 2733SOL     OW10984   0.622   3.623   4.535
 2733SOL    HW210985   0.571   3.704   4.535
 2733SOL    HW310986   0.687   3.635   4.605
 2733SOL    MW410987   0.624   3.635   4.545
 2734SOL     OW10988   2.063   3.527   4.464
 2734SOL    HW210989   2.076   3.557   4.374
 2734SOL    HW310990   2.079   3.433   4.460
 2734SOL    MW410991   2.067   3.518   4.451
 2735SOL     OW10992   1.751   3.118   4.472
 2735SOL    HW210993   1.828   3.136   4.526
 2735SOL    HW310994   1.765   3.171   4.393
 2735SOL    MW410995   1.763   3.127   4.468
 2736SOL     OW10996   2.247   3.616   4.682
 2736SOL    HW210997   2.218   3.707   4.689
 2736SOL    HW310998   2.199   3.581   4.608
 2736SOL    MW410999   2.237   3.623   4.673
 2737SOL     OW11000   1.149   4.111   4.627
 2737SOL    HW211001   1.076   4.054   4.602
 2737SOL    HW311002   1.227   4.067   4.592
 2737SOL    MW411003   1.150   4.097   4.620
 2738SOL     OW11004   1.799   4.367   4.853
 2738SOL    HW211005   1.883   4.322   4.861
 2738SOL    HW311006   1.737   4.297   4.831
 2738SOL    MW411007   1.802   4.352   4.851
 2739SOL     OW11008   2.267   0.370   4.658
 2739SOL    HW211009   2.322   0.444   4.634
 2739SOL    HW311010   2.266   0.371   4.754
 2739SOL    MW411011   2.274   0.380   4.667
 2740SOL     OW11012   1.399   0.065   4.538
 2740SOL    HW211013   1.360   0.141   4.581
 2740SOL    HW311014   1.359  -0.011   4.582
 2740SOL    MW411015   1.388   0.065   4.549
 2741SOL     OW11016   1.803   0.406   4.559
 2741SOL    HW211017   1.763   0.320   4.556
 2741SOL    HW311018   1.729   0.467   4.560
 2741SOL    MW411019   1.788   0.403   4.559
 2742SOL     OW11020   2.337   0.127   4.527
 2742SOL    HW211021   2.307   0.140   4.437
 2742SOL    HW311022   2.289   0.192   4.578
 2742SOL    MW411023   2.326   0.137   4.522
 2743SOL     OW11024   2.031   0.779   4.662
 2743SOL    HW211025   2.046   0.685   4.654
 2743SOL    HW311026   1.942   0.792   4.629
 2743SOL    MW411027   2.021   0.769   4.657
 2744SOL     OW11028   1.596   0.613   4.548
 2744SOL    HW211029   1.646   0.688   4.579
 2744SOL    HW311030   1.506   0.645   4.540
 2744SOL    MW411031   1.591   0.627   4.551
 2745SOL     OW11032   2.129   1.530   4.664
 2745SOL    HW211033   2.182   1.468   4.714
 2745SOL    HW311034   2.042   1.526   4.705
 2745SOL    MW411035   2.124   1.521   4.676
 2746SOL     OW11036   1.093   2.016   4.498
 2746SOL    HW211037   1.172   1.966   4.520
 2746SOL    HW311038   1.103   2.098   4.546
 2746SOL    MW411039   1.105   2.020   4.507
 2747SOL     OW11040   1.607   1.598   4.660
 2747SOL    HW211041   1.576   1.518   4.617
 2747SOL    HW311042   1.692   1.574   4.696
 2747SOL    MW411043   1.614   1.584   4.659
 2748SOL     OW11044   1.574   1.956   4.449
 2748SOL    HW211045   1.486   1.928   4.474
 2748SOL    HW311046   1.631   1.884   4.476
 2748SOL    MW411047   1.570   1.943   4.456
 2749SOL     OW11048   1.781   1.782   4.530
 2749SOL    HW211049   1.725   1.725   4.583
 2749SOL    HW311050   1.795   1.733   4.449
 2749SOL    MW411051   1.775   1.768   4.526
 2750SOL     OW11052   1.983   1.993   4.505
 2750SOL    HW211053   1.927   1.916   4.499
 2750SOL    HW311054   2.010   2.010   4.414
 2750SOL    MW411055   1.980   1.985   4.492
 2751SOL     OW11056   1.778   2.177   4.530
 2751SOL    HW211057   1.706   2.121   4.504
 2751SOL    HW311058   1.857   2.128   4.505
 2751SOL    MW411059   1.779   2.163   4.523
 2752SOL     OW11060   2.219   2.454   4.526
 2752SOL    HW211061   2.139   2.412   4.558
 2752SOL    HW311062   2.208   2.456   4.431
 2752SOL    MW411063   2.207   2.449   4.518
 2753SOL     OW11064   2.271   2.712   4.624
 2753SOL    HW211065   2.336   2.686   4.689
 2753SOL    HW311066   2.234   2.629   4.592
 2753SOL    MW411067   2.274   2.698   4.628
 2754SOL     OW11068   1.576   4.112   4.589
 2754SOL    HW211069   1.564   4.200   4.553
 2754SOL    HW311070   1.592   4.127   4.683
 2754SOL    MW411071   1.577   4.126   4.597
 2755SOL     OW11072   2.156   3.269   4.415
 2755SOL    HW211073   2.183   3.262   4.323
 2755SOL    HW311074   2.229   3.233   4.465
 2755SOL    MW411075   2.169   3.263   4.409
 2756SOL     OW11076   1.994   3.173   4.608
 2756SOL    HW211077   2.011   3.226   4.686
 2756SOL    HW311078   2.049   3.212   4.540
 2756SOL    MW411079   2.003   3.185   4.609
 2757SOL     OW11080   2.479   3.694   4.516
 2757SOL    HW211081   2.402   3.689   4.572
 2757SOL    HW311082   2.509   3.785   4.524
 2757SOL    MW411083   2.473   3.706   4.524
 2758SOL     OW11084   1.954   4.057   4.597
 2758SOL    HW211085   1.884   3.991   4.602
 2758SOL    HW311086   1.937   4.102   4.514
 2758SOL    MW411087   1.942   4.054   4.587
 2759SOL     OW11088   2.206   3.914   4.642
 2759SOL    HW211089   2.127   3.957   4.609
 2759SOL    HW311090   2.278   3.953   4.593
 2759SOL    MW411091   2.205   3.925   4.631
 2760SOL     OW11092   1.743   3.870   4.547
 2760SOL    HW211093   1.671   3.930   4.566
 2760SOL    HW311094   1.751   3.870   4.452
 2760SOL    MW411095   1.735   3.878   4.537
 2761SOL     OW11096   2.049   4.257   4.803
 2761SOL    HW211097   2.143   4.269   4.792
 2761SOL    HW311098   2.031   4.170   4.766
 2761SOL    MW411099   2.059   4.247   4.797
 2762SOL     OW11100   1.793   4.532   4.617
 2762SOL    HW211101   1.862   4.477   4.580
 2762SOL    HW311102   1.795   4.512   4.711
 2762SOL    MW411103   1.803   4.522   4.625
 2763SOL     OW11104   2.031   4.385   4.551
 2763SOL    HW211105   2.043   4.338   4.633
 2763SOL    HW311106   2.111   4.436   4.540
 2763SOL    MW411107   2.043   4.386   4.561
 2764SOL     OW11108   2.277   4.492   4.495
 2764SOL    HW211109   2.337   4.477   4.422
 2764SOL    HW311110   2.263   4.587   4.494
 2764SOL    MW411111   2.283   4.503   4.485
 2765SOL     OW11112   1.318   1.602   4.679
 2765SOL    HW211113   1.412   1.597   4.696
 2765SOL    HW311114   1.297   1.517   4.640
 2765SOL    MW411115   1.327   1.590   4.676
 2766SOL     OW11116   2.649   0.138   4.504
 2766SOL    HW211117   2.560   0.153   4.537
 2766SOL    HW311118   2.640   0.144   4.409
 2766SOL    MW411119   2.636   0.141   4.496
 2767SOL     OW11120   2.474   0.861   4.635
 2767SOL    HW211121   2.399   0.884   4.579
 2767SOL    HW311122   2.551   0.886   4.583
 2767SOL    MW411123   2.474   0.868   4.621
 2768SOL     OW11124   2.937   0.766   4.548
 2768SOL    HW211125   3.004   0.832   4.530
 2768SOL    HW311126   2.972   0.685   4.512
 2768SOL    MW411127   2.950   0.764   4.541
 2769SOL     OW11128   2.276   1.295   4.695
 2769SOL    HW211129   2.293   1.210   4.735
 2769SOL    HW311130   2.355   1.315   4.645
 2769SOL    MW411131   2.288   1.286   4.693
 2770SOL     OW11132   2.479   1.328   4.514
 2770SOL    HW211133   2.552   1.268   4.529
 2770SOL    HW311134   2.512   1.413   4.540
 2770SOL    MW411135   2.493   1.331   4.519
 2771SOL     OW11136   2.563   1.578   4.579
 2771SOL    HW211137   2.629   1.645   4.558
 2771SOL    HW311138   2.482   1.627   4.589
 2771SOL    MW411139   2.561   1.594   4.577
 2772SOL     OW11140   2.307   1.727   4.559
 2772SOL    HW211141   2.278   1.815   4.583
 2772SOL    HW311142   2.242   1.668   4.598
 2772SOL    MW411143   2.295   1.731   4.568
 2773SOL     OW11144   2.233   1.984   4.636
 2773SOL    HW211145   2.143   1.971   4.608
 2773SOL    HW311146   2.231   1.976   4.731
 2773SOL    MW411147   2.221   1.981   4.645
 2774SOL     OW11148   2.466   2.134   4.524
 2774SOL    HW211149   2.382   2.101   4.555
 2774SOL    HW311150   2.531   2.077   4.565
 2774SOL    MW411151   2.464   2.123   4.534
 2775SOL     OW11152   2.760   2.465   4.464
 2775SOL    HW211153   2.666   2.460   4.478
 2775SOL    HW311154   2.782   2.557   4.476
 2775SOL    MW411155   2.751   2.476   4.467
 2776SOL     OW11156   2.447   2.625   4.806
 2776SOL    HW211157   2.513   2.693   4.794
 2776SOL    HW311158   2.475   2.554   4.749
 2776SOL    MW411159   2.459   2.625   4.797
 2777SOL     OW11160   2.038   2.901   4.537
 2777SOL    HW211161   2.008   2.975   4.590
 2777SOL    HW311162   2.116   2.869   4.582
 2777SOL    MW411163   2.044   2.907   4.550
 2778SOL     OW11164   2.449   2.879   4.493
 2778SOL    HW211165   2.382   2.819   4.524
 2778SOL    HW311166   2.419   2.966   4.520
 2778SOL    MW411167   2.436   2.883   4.501
 2779SOL     OW11168   2.358   3.152   4.596
 2779SOL    HW211169   2.432   3.199   4.557
 2779SOL    HW311170   2.339   3.199   4.677
 2779SOL    MW411171   2.365   3.164   4.601
 2780SOL     OW11172   1.335   4.288   4.826
 2780SOL    HW211173   1.331   4.368   4.773
 2780SOL    HW311174   1.267   4.232   4.789
 2780SOL    MW411175   1.326   4.291   4.814
 2781SOL     OW11176   2.685   3.941   4.505
 2781SOL    HW211177   2.597   3.976   4.518
 2781SOL    HW311178   2.714   3.979   4.422
 2781SOL    MW411179   2.677   3.951   4.496
 2782SOL     OW11180   2.173   3.355   4.843
 2782SOL    HW211181   2.136   3.351   4.931
 2782SOL    HW311182   2.211   3.443   4.836
 2782SOL    MW411183   2.173   3.366   4.853
 2783SOL     OW11184   3.348   3.966   4.866
 2783SOL    HW211185   3.313   4.055   4.877
 2783SOL    HW311186   3.307   3.916   4.937
 2783SOL    MW411187   3.338   3.971   4.877
 2784SOL     OW11188   3.077   3.963   4.505
 2784SOL    HW211189   3.013   3.891   4.507
 2784SOL    HW311190   3.154   3.927   4.548
 2784SOL    MW411191   3.078   3.949   4.511
 2785SOL     OW11192   2.415   4.064   4.545
 2785SOL    HW211193   2.378   4.132   4.601
 2785SOL    HW311194   2.373   4.077   4.460
 2785SOL    MW411195   2.405   4.074   4.541
 2786SOL     OW11196   2.328   4.299   4.693
 2786SOL    HW211197   2.316   4.352   4.615
 2786SOL    HW311198   2.393   4.346   4.745
 2786SOL    MW411199   2.335   4.312   4.690
 2787SOL     OW11200   3.057   0.489   4.455
 2787SOL    HW211201   3.040   0.496   4.361
 2787SOL    HW311202   3.149   0.511   4.464
 2787SOL    MW411203   3.067   0.493   4.443
 2788SOL     OW11204   2.899   0.018   4.577
 2788SOL    HW211205   2.964   0.079   4.541
 2788SOL    HW311206   2.816   0.067   4.572
 2788SOL    MW411207   2.896   0.033   4.571
 2789SOL     OW11208   3.058   0.216   4.490
 2789SOL    HW211209   3.058   0.312   4.490
 2789SOL    HW311210   3.128   0.192   4.551
 2789SOL    MW411211   3.067   0.225   4.498
 2790SOL     OW11212   2.708   0.948   4.507
 2790SOL    HW211213   2.772   0.882   4.534
 2790SOL    HW311214   2.703   0.939   4.412
 2790SOL    MW411215   2.715   0.938   4.498
 2791SOL     OW11216   3.577   0.675   4.772
 2791SOL    HW211217   3.659   0.709   4.738
 2791SOL    HW311218   3.578   0.582   4.750
 2791SOL    MW411219   3.588   0.667   4.765
 2792SOL     OW11220   2.226   0.913   4.479
 2792SOL    HW211221   2.187   0.996   4.505
 2792SOL    HW311222   2.175   0.847   4.526
 2792SOL    MW411223   2.214   0.915   4.489
 2793SOL     OW11224   2.767   1.207   4.557
 2793SOL    HW211225   2.843   1.238   4.508
 2793SOL    HW311226   2.757   1.116   4.529
 2793SOL    MW411227   2.776   1.199   4.547
 2794SOL     OW11228   3.005   1.339   4.455
 2794SOL    HW211229   3.000   1.429   4.488
 2794SOL    HW311230   2.986   1.347   4.362
 2794SOL    MW411231   3.002   1.352   4.447
 2795SOL     OW11232   2.968   1.586   4.574
 2795SOL    HW211233   2.908   1.654   4.545
 2795SOL    HW311234   2.917   1.533   4.636
 2795SOL    MW411235   2.954   1.588   4.578
 2796SOL     OW11236   2.763   1.778   4.517
 2796SOL    HW211237   2.735   1.853   4.569
 2796SOL    HW311238   2.744   1.802   4.427
 2796SOL    MW411239   2.757   1.791   4.512
 2797SOL     OW11240   2.719   2.030   4.652
 2797SOL    HW211241   2.721   2.046   4.747
 2797SOL    HW311242   2.792   2.082   4.618
 2797SOL    MW411243   2.729   2.039   4.660
 2798SOL     OW11244   2.897   2.195   4.503
 2798SOL    HW211245   2.858   2.279   4.480
 2798SOL    HW311246   2.910   2.151   4.418
 2798SOL    MW411247   2.894   2.200   4.488
 2799SOL     OW11248   3.148   2.219   4.615
 2799SOL    HW211249   3.132   2.242   4.706
 2799SOL    HW311250   3.062   2.223   4.574
 2799SOL    MW411251   3.134   2.223   4.622
 2800SOL     OW11252   2.492   2.432   4.586
 2800SOL    HW211253   2.500   2.338   4.571
 2800SOL    HW311254   2.400   2.452   4.564
 2800SOL    MW411255   2.481   2.423   4.581
 2801SOL     OW11256   3.009   2.981   4.661
 2801SOL    HW211257   3.078   3.040   4.630
 2801SOL    HW311258   3.041   2.893   4.641
 2801SOL    MW411259   3.022   2.977   4.654
 2802SOL     OW11260   2.647   2.821   4.663
 2802SOL    HW211261   2.680   2.903   4.699
 2802SOL    HW311262   2.578   2.847   4.601
 2802SOL    MW411263   2.642   2.835   4.660
 2803SOL     OW11264   2.602   3.256   4.550
 2803SOL    HW211265   2.644   3.190   4.605
 2803SOL    HW311266   2.640   3.244   4.463
 2803SOL    MW411267   2.612   3.246   4.546
 2804SOL     OW11268   2.756   3.070   4.730
 2804SOL    HW211269   2.845   3.060   4.694
 2804SOL    HW311270   2.769   3.122   4.810
 2804SOL    MW411271   2.770   3.076   4.736
 2805SOL     OW11272   2.867   3.738   4.513
 2805SOL    HW211273   2.790   3.795   4.508
 2805SOL    HW311274   2.838   3.663   4.566
 2805SOL    MW411275   2.853   3.735   4.519
 2806SOL     OW11276   3.320   3.894   4.604
 2806SOL    HW211277   3.371   3.814   4.593
 2806SOL    HW311278   3.336   3.922   4.694
 2806SOL    MW411279   3.329   3.887   4.615
 2807SOL     OW11280   3.896   3.839   4.672
 2807SOL    HW211281   3.904   3.778   4.745
 2807SOL    HW311282   3.857   3.787   4.602
 2807SOL    MW411283   3.892   3.824   4.673
 2808SOL     OW11284   2.708   3.515   4.614
 2808SOL    HW211285   2.631   3.568   4.596
 2808SOL    HW311286   2.677   3.425   4.605
 2808SOL    MW411287   2.694   3.510   4.611
 2809SOL     OW11288   2.911   4.148   4.644
 2809SOL    HW211289   2.837   4.090   4.662
 2809SOL    HW311290   2.981   4.090   4.614
 2809SOL    MW411291   2.910   4.133   4.642
 2810SOL     OW11292   2.974   4.417   4.523
 2810SOL    HW211293   2.925   4.347   4.566
 2810SOL    HW311294   2.929   4.497   4.550
 2810SOL    MW411295   2.962   4.419   4.532
 2811SOL     OW11296   3.345   0.527   4.461
 2811SOL    HW211297   3.381   0.541   4.374
 2811SOL    HW311298   3.347   0.614   4.501
 2811SOL    MW411299   3.350   0.541   4.455
 2812SOL     OW11300   2.452   0.582   4.595
 2812SOL    HW211301   2.539   0.549   4.575
 2812SOL    HW311302   2.465   0.676   4.608
 2812SOL    MW411303   2.465   0.590   4.594
 2813SOL     OW11304   2.338   1.044   4.798
 2813SOL    HW211305   2.385   0.989   4.735
 2813SOL    HW311306   2.275   0.986   4.839
 2813SOL    MW411307   2.336   1.029   4.795
 2814SOL     OW11308   2.684   0.425   4.460
 2814SOL    HW211309   2.692   0.329   4.468
 2814SOL    HW311310   2.772   0.457   4.480
 2814SOL    MW411311   2.697   0.416   4.464
 2815SOL     OW11312   3.395   0.777   4.590
 2815SOL    HW211313   3.467   0.813   4.539
 2815SOL    HW311314   3.437   0.734   4.665
 2815SOL    MW411315   3.410   0.776   4.593
 2816SOL     OW11316   3.447   1.283   4.508
 2816SOL    HW211317   3.372   1.265   4.566
 2816SOL    HW311318   3.519   1.233   4.546
 2816SOL    MW411319   3.446   1.274   4.521
 2817SOL     OW11320   2.773   1.435   4.721
 2817SOL    HW211321   2.697   1.473   4.676
 2817SOL    HW311322   2.795   1.357   4.669
 2817SOL    MW411323   2.766   1.430   4.708
 2818SOL     OW11324   3.960   1.030   4.682
 2818SOL    HW211325   4.000   1.081   4.752
 2818SOL    HW311326   4.032   1.013   4.621
 2818SOL    MW411327   3.975   1.035   4.683
 2819SOL     OW11328   3.465   1.556   4.632
 2819SOL    HW211329   3.394   1.600   4.586
 2819SOL    HW311330   3.468   1.468   4.593
 2819SOL    MW411331   3.456   1.550   4.621
 2820SOL     OW11332   3.244   1.676   4.497
 2820SOL    HW211333   3.252   1.769   4.517
 2820SOL    HW311334   3.169   1.646   4.549
 2820SOL    MW411335   3.235   1.684   4.507
 2821SOL     OW11336   3.271   1.965   4.520
 2821SOL    HW211337   3.226   2.044   4.550
 2821SOL    HW311338   3.286   1.980   4.427
 2821SOL    MW411339   3.267   1.977   4.512
 2822SOL     OW11340   3.708   1.852   4.682
 2822SOL    HW211341   3.670   1.916   4.622
 2822SOL    HW311342   3.639   1.835   4.746
 2822SOL    MW411343   3.694   1.858   4.683
 2823SOL     OW11344   2.828   2.738   4.483
 2823SOL    HW211345   2.774   2.784   4.547
 2823SOL    HW311346   2.918   2.747   4.517
 2823SOL    MW411347   2.833   2.745   4.496
 2824SOL     OW11348   3.519   2.530   4.475
 2824SOL    HW211349   3.432   2.510   4.511
 2824SOL    HW311350   3.536   2.620   4.503
 2824SOL    MW411351   3.509   2.539   4.483
 2825SOL     OW11352   3.249   2.472   4.507
 2825SOL    HW211353   3.204   2.461   4.423
 2825SOL    HW311354   3.249   2.384   4.545
 2825SOL    MW411355   3.243   2.459   4.501
 2826SOL     OW11356   3.620   2.803   4.541
 2826SOL    HW211357   3.660   2.888   4.523
 2826SOL    HW311358   3.693   2.748   4.569
 2826SOL    MW411359   3.635   2.807   4.542
 2827SOL     OW11360   3.220   3.127   4.533
 2827SOL    HW211361   3.270   3.048   4.512
 2827SOL    HW311362   3.193   3.161   4.448
 2827SOL    MW411363   3.223   3.121   4.519
 2828SOL     OW11364   3.363   2.894   4.478
 2828SOL    HW211365   3.355   2.875   4.384
 2828SOL    HW311366   3.449   2.862   4.502
 2828SOL    MW411367   3.373   2.887   4.469
 2829SOL     OW11368   4.052   2.594   4.543
 2829SOL    HW211369   4.030   2.592   4.450
 2829SOL    HW311370   4.095   2.678   4.556
 2829SOL    MW411371   4.055   2.604   4.533
 2830SOL     OW11372   3.654   3.249   4.532
 2830SOL    HW211373   3.705   3.327   4.553
 2830SOL    HW311374   3.621   3.265   4.443
 2830SOL    MW411375   3.656   3.261   4.523
 2831SOL     OW11376   3.510   4.082   4.469
 2831SOL    HW211377   3.575   4.078   4.539
 2831SOL    HW311378   3.437   4.028   4.500
 2831SOL    MW411379   3.509   4.075   4.483
 2832SOL     OW11380   3.219   4.215   4.766
 2832SOL    HW211381   3.232   4.309   4.763
 2832SOL    HW311382   3.125   4.204   4.778
 2832SOL    MW411383   3.209   4.226   4.767
 2833SOL     OW11384   3.234   4.457   4.629
 2833SOL    HW211385   3.300   4.415   4.573
 2833SOL    HW311386   3.151   4.442   4.584
 2833SOL    MW411387   3.232   4.450   4.616
 2834SOL     OW11388   3.436   4.353   4.476
 2834SOL    HW211389   3.453   4.259   4.473
 2834SOL    HW311390   3.523   4.393   4.477
 2834SOL    MW411391   3.450   4.346   4.476
 2835SOL     OW11392   3.690   4.034   4.681
 2835SOL    HW211393   3.759   3.969   4.670
 2835SOL    HW311394   3.628   3.994   4.742
 2835SOL    MW411395   3.691   4.020   4.688
 2836SOL     OW11396   3.499   0.141   4.719
 2836SOL    HW211397   3.534   0.128   4.808
 2836SOL    HW311398   3.406   0.117   4.727
 2836SOL    MW411399   3.491   0.136   4.732
 2837SOL     OW11400   3.176   0.909   4.491
 2837SOL    HW211401   3.188   0.993   4.537
 2837SOL    HW311402   3.236   0.849   4.535
 2837SOL    MW411403   3.186   0.913   4.503
 2838SOL     OW11404   3.206   1.160   4.619
 2838SOL    HW211405   3.212   1.161   4.715
 2838SOL    HW311406   3.144   1.230   4.598
 2838SOL    MW411407   3.199   1.169   4.629
 2839SOL     OW11408   4.113   1.440   4.602
 2839SOL    HW211409   4.159   1.373   4.552
 2839SOL    HW311410   4.020   1.424   4.583
 2839SOL    MW411411   4.107   1.429   4.593
 2840SOL     OW11412   3.728   1.164   4.576
 2840SOL    HW211413   3.767   1.251   4.579
 2840SOL    HW311414   3.800   1.105   4.600
 2840SOL    MW411415   3.743   1.167   4.579
 2841SOL     OW11416   4.126   0.962   4.486
 2841SOL    HW211417   4.197   0.914   4.529
 2841SOL    HW311418   4.104   0.908   4.409
 2841SOL    MW411419   4.133   0.948   4.481
 2842SOL     OW11420   4.292   0.563   4.577
 2842SOL    HW211421   4.223   0.511   4.619
 2842SOL    HW311422   4.282   0.545   4.484
 2842SOL    MW411423   4.282   0.554   4.570
 2843SOL     OW11424   3.669   1.651   4.494
 2843SOL    HW211425   3.712   1.713   4.553
 2843SOL    HW311426   3.589   1.626   4.541
 2843SOL    MW411427   3.664   1.656   4.508
 2844SOL     OW11428   3.978   1.854   4.631
 2844SOL    HW211429   3.889   1.851   4.667
 2844SOL    HW311430   4.027   1.910   4.692
 2844SOL    MW411431   3.973   1.861   4.644
 2845SOL     OW11432   3.541   2.038   4.556
 2845SOL    HW211433   3.577   2.063   4.471
 2845SOL    HW311434   3.462   1.988   4.535
 2845SOL    MW411435   3.535   2.035   4.542
 2846SOL     OW11436   4.164   2.041   4.750
 2846SOL    HW211437   4.146   2.132   4.774
 2846SOL    HW311438   4.224   2.048   4.675
 2846SOL    MW411439   4.170   2.054   4.743
 2847SOL     OW11440   4.452   1.727   4.491
 2847SOL    HW211441   4.478   1.714   4.400
 2847SOL    HW311442   4.357   1.717   4.490
 2847SOL    MW411443   4.443   1.724   4.479
 2848SOL     OW11444   3.967   2.292   4.517
 2848SOL    HW211445   4.008   2.320   4.598
 2848SOL    HW311446   3.873   2.303   4.532
 2848SOL    MW411447   3.960   2.297   4.530
 2849SOL     OW11448   3.789   2.609   4.640
 2849SOL    HW211449   3.756   2.520   4.631
 2849SOL    HW311450   3.879   2.605   4.605
 2849SOL    MW411451   3.797   2.597   4.634
 2850SOL     OW11452   3.775   3.013   4.469
 2850SOL    HW211453   3.855   3.013   4.522
 2850SOL    HW311454   3.738   3.100   4.480
 2850SOL    MW411455   3.781   3.024   4.478
 2851SOL     OW11456   4.010   2.993   4.622
 2851SOL    HW211457   3.988   2.964   4.711
 2851SOL    HW311458   4.082   2.937   4.596
 2851SOL    MW411459   4.016   2.982   4.631
 2852SOL     OW11460   3.371   3.392   4.598
 2852SOL    HW211461   3.301   3.327   4.589
 2852SOL    HW311462   3.451   3.340   4.606
 2852SOL    MW411463   3.372   3.377   4.598
 2853SOL     OW11464   3.882   3.424   4.576
 2853SOL    HW211465   3.932   3.463   4.647
 2853SOL    HW311466   3.945   3.369   4.530
 2853SOL    MW411467   3.897   3.422   4.579
 2854SOL     OW11468   3.470   3.668   4.547
 2854SOL    HW211469   3.437   3.586   4.583
 2854SOL    HW311470   3.565   3.659   4.550
 2854SOL    MW411471   3.478   3.656   4.552
 2855SOL     OW11472   3.745   3.663   4.527
 2855SOL    HW211473   3.751   3.682   4.434
 2855SOL    HW311474   3.797   3.584   4.540
 2855SOL    MW411475   3.753   3.655   4.517
 2856SOL     OW11476   0.101   2.895   4.550
 2856SOL    HW211477   0.082   2.988   4.546
 2856SOL    HW311478   0.136   2.873   4.464
 2856SOL    MW411479   0.103   2.904   4.538
 2857SOL     OW11480   4.104   3.971   4.533
 2857SOL    HW211481   4.123   4.046   4.590
 2857SOL    HW311482   4.034   3.924   4.579
 2857SOL    MW411483   4.097   3.975   4.547
 2858SOL     OW11484   3.714   4.446   4.500
 2858SOL    HW211485   3.786   4.444   4.437
 2858SOL    HW311486   3.702   4.538   4.521
 2858SOL    MW411487   3.722   4.458   4.494
 2859SOL     OW11488   3.229   0.056   4.683
 2859SOL    HW211489   3.236  -0.035   4.655
 2859SOL    HW311490   3.155   0.058   4.743
 2859SOL    MW411491   3.220   0.044   4.687
 2860SOL     OW11492   3.608   0.928   4.488
 2860SOL    HW211493   3.644   1.013   4.513
 2860SOL    HW311494   3.623   0.923   4.393
 2860SOL    MW411495   3.615   0.939   4.479
 2861SOL     OW11496   3.801   0.784   4.612
 2861SOL    HW211497   3.871   0.846   4.631
 2861SOL    HW311498   3.731   0.836   4.572
 2861SOL    MW411499   3.801   0.799   4.609
 2862SOL     OW11500   0.099   0.496   4.585
 2862SOL    HW211501   0.006   0.517   4.592
 2862SOL    HW311502   0.118   0.501   4.491
 2862SOL    MW411503   0.089   0.500   4.573
 2863SOL     OW11504   0.325   0.652   4.616
 2863SOL    HW211505   0.394   0.613   4.670
 2863SOL    HW311506   0.254   0.588   4.618
 2863SOL    MW411507   0.325   0.638   4.624
 2864SOL     OW11508   4.092   0.360   4.622
 2864SOL    HW211509   4.053   0.276   4.597
 2864SOL    HW311510   4.022   0.424   4.609
 2864SOL    MW411511   4.078   0.357   4.617
 2865SOL     OW11512   3.847   1.409   4.534
 2865SOL    HW211513   3.850   1.397   4.439
 2865SOL    HW311514   3.790   1.485   4.547
 2865SOL    MW411515   3.840   1.417   4.523
 2866SOL     OW11516   0.027   1.239   4.534
 2866SOL    HW211517   0.029   1.334   4.546
 2866SOL    HW311518   0.011   1.205   4.622
 2866SOL    MW411519   0.025   1.247   4.547
 2867SOL     OW11520   0.336   1.598   4.699
 2867SOL    HW211521   0.319   1.617   4.791
 2867SOL    HW311522   0.387   1.673   4.667
 2867SOL    MW411523   0.341   1.610   4.707
 2868SOL     OW11524   4.176   1.687   4.507
 2868SOL    HW211525   4.156   1.598   4.538
 2868SOL    HW311526   4.114   1.743   4.553
 2868SOL    MW411527   4.166   1.682   4.517
 2869SOL     OW11528   3.123   2.751   4.525
 2869SOL    HW211529   3.202   2.804   4.519
 2869SOL    HW311530   3.155   2.661   4.539
 2869SOL    MW411531   3.138   2.746   4.526
 2870SOL     OW11532   4.254   2.097   4.237
 2870SOL    HW211533   4.168   2.061   4.219
 2870SOL    HW311534   4.267   2.083   4.331
 2870SOL    MW411535   4.245   2.090   4.247
 2871SOL     OW11536   4.296   2.201   4.541
 2871SOL    HW211537   4.377   2.199   4.592
 2871SOL    HW311538   4.295   2.288   4.500
 2871SOL    MW411539   4.307   2.212   4.542
 2872SOL     OW11540   3.939   2.024   4.413
 2872SOL    HW211541   3.958   1.976   4.493
 2872SOL    HW311542   3.957   2.116   4.435
 2872SOL    MW411543   3.944   2.030   4.426
 2873SOL     OW11544   3.691   2.322   4.560
 2873SOL    HW211545   3.628   2.377   4.513
 2873SOL    HW311546   3.642   2.242   4.580
 2873SOL    MW411547   3.676   2.319   4.556
 2874SOL     OW11548   4.320   2.544   4.797
 2874SOL    HW211549   4.380   2.576   4.730
 2874SOL    HW311550   4.376   2.528   4.874
 2874SOL    MW411551   4.336   2.546   4.799
 2875SOL     OW11552   4.231   2.847   4.521
 2875SOL    HW211553   4.313   2.840   4.570
 2875SOL    HW311554   4.258   2.855   4.430
 2875SOL    MW411555   4.245   2.847   4.516
 2876SOL     OW11556   4.093   3.250   4.540
 2876SOL    HW211557   4.080   3.244   4.445
 2876SOL    HW311558   4.043   3.176   4.575
 2876SOL    MW411559   4.085   3.239   4.532
 2877SOL     OW11560   0.211   3.439   4.471
 2877SOL    HW211561   0.217   3.489   4.390
 2877SOL    HW311562   0.128   3.466   4.510
 2877SOL    MW411563   0.201   3.449   4.466
 2878SOL     OW11564   4.127   4.223   4.653
 2878SOL    HW211565   4.151   4.240   4.744
 2878SOL    HW311566   4.036   4.254   4.645
 2878SOL    MW411567   4.118   4.230   4.664
 2879SOL     OW11568   3.680   0.064   4.531
 2879SOL    HW211569   3.608   0.099   4.584
 2879SOL    HW311570   3.667   0.104   4.445
 2879SOL    MW411571   3.669   0.074   4.527
 2880SOL     OW11572   4.288   3.601   4.855
 2880SOL    HW211573   4.330   3.686   4.864
 2880SOL    HW311574   4.361   3.538   4.857
 2880SOL    MW411575   4.303   3.604   4.857
 2881SOL     OW11576   3.555   0.422   4.639
 2881SOL    HW211577   3.478   0.437   4.584
 2881SOL    HW311578   3.546   0.332   4.669
 2881SOL    MW411579   3.544   0.412   4.636
 2882SOL     OW11580   4.322   4.416   4.238
 2882SOL    HW211581   4.395   4.363   4.207
 2882SOL    HW311582   4.323   4.406   4.333
 2882SOL    MW411583   4.332   4.408   4.246
 2883NA      NA11584   0.472   0.760   0.000
   4.49070   4.66690  10.00000
