Gromacs Runs On Most of All Computer Systems
   63
    1U      O5'    1   0.023  -0.097  -0.093
    1U      C5'    2   0.054   0.037  -0.059
    1U      H5'    3  -0.020   0.075   0.014
    1U     H5''    4   0.052   0.100  -0.150
    1U      C4'    5   0.192   0.043   0.003
    1U      H4'    6   0.220   0.148   0.022
    1U      O4'    7   0.191  -0.031   0.128
    1U      C3'    8   0.291  -0.031  -0.087
    1U      H3'    9   0.240  -0.117  -0.136
    1U      O3'   10   0.340   0.058  -0.186
    1U      C2'   11   0.403  -0.067   0.010
    1U      C1'   12   0.327  -0.083   0.141
    1U      H1'   13   0.374  -0.019   0.219
    1U      H2'   14   0.447  -0.165  -0.019
    1U      O2'   15   0.493   0.042   0.020
    1U     HO'2   16   0.490   0.091  -0.062
    1U       N1   17   0.324  -0.225   0.180
    1U       C2   18   0.396  -0.282   0.283
    1U       O2   19   0.471  -0.214   0.353
    1U       N3   20   0.382  -0.415   0.305
    1U       H3   21   0.432  -0.495   0.385
    1U       C4   22   0.300  -0.489   0.229
    1U       O4   23   0.289  -0.620   0.254
    1U       C5   24   0.225  -0.431   0.122
    1U       H5   25   0.160  -0.493   0.063
    1U       C6   26   0.241  -0.298   0.101
    1U       H6   27   0.186  -0.250   0.022
    1U      H5T   28   0.043  -0.132  -0.181
    2G        P   29   0.314   0.026  -0.342
    2G      OP1   30   0.354   0.145  -0.420
    2G      OP2   31   0.176  -0.028  -0.355
    2G      O5'   32   0.417  -0.093  -0.375
    2G      C5'   33   0.554  -0.065  -0.405
    2G     H5'1   34   0.598  -0.007  -0.321
    2G     H5'2   35   0.560  -0.006  -0.499
    2G      C4'   36   0.629  -0.195  -0.421
    2G      H4'   37   0.735  -0.173  -0.448
    2G      O4'   38   0.625  -0.270  -0.297
    2G      C3'   39   0.558  -0.282  -0.524
    2G      H3'   40   0.449  -0.262  -0.520
    2G      O3'   41   0.608  -0.253  -0.654
    2G      C2'   42   0.600  -0.423  -0.483
    2G      C1'   43   0.616  -0.408  -0.332
    2G      H1'   44   0.710  -0.456  -0.299
    2G      H2'   45   0.518  -0.495  -0.505
    2G      O2'   46   0.726  -0.452  -0.540
    2G     HO'2   47   0.736  -0.401  -0.621
    2G       N9   48   0.498  -0.465  -0.265
    2G       C8   49   0.368  -0.418  -0.265
    2G       H8   50   0.338  -0.329  -0.318
    2G       N7   51   0.286  -0.492  -0.195
    2G       C5   52   0.367  -0.594  -0.146
    2G       C4   53   0.496  -0.578  -0.188
    2G       C6   54   0.339  -0.705  -0.064
    2G       N3   55   0.602  -0.658  -0.160
    2G       C2   56   0.583  -0.764  -0.083
    2G       N1   57   0.450  -0.785  -0.037
    2G       H1   58   0.434  -0.866   0.021
    2G       N2   59   0.686  -0.845  -0.054
    2G      H21   60   0.778  -0.824  -0.090
    2G      H22   61   0.672  -0.926   0.004
    2G       O6   62   0.227  -0.729  -0.020
    2G      H3T   63   0.577  -0.175  -0.700
   0.00000   0.00000   0.00000
