Gromacs Runs On Most of All Computer Systems in water
11558
    1RG35     P    1   2.635   2.514   4.292  0.1994  0.1314 -0.0369
    1RG35   O1P    2   2.773   2.511   4.349  0.0842  0.4348 -0.2016
    1RG35   O2P    3   2.605   2.419   4.187 -0.8154 -0.1205  0.9300
    1RG35   O5'    4   2.542   2.457   4.403  0.1440  0.0379 -0.2320
    1RG35   C5'    5   2.569   2.332   4.472 -0.4404  0.1811  0.1323
    1RG35  H5'1    6   2.663   2.340   4.526 -0.0898 -1.2786 -0.2201
    1RG35  H5'2    7   2.583   2.260   4.391  0.6351  1.9133 -1.2585
    1RG35   C4'    8   2.453   2.303   4.566 -0.1214 -0.1384  0.3911
    1RG35   H4'    9   2.391   2.392   4.576  1.8399  1.4162 -0.9906
    1RG35   O4'   10   2.364   2.201   4.523  0.4162  0.3633 -0.3269
    1RG35   C1'   11   2.293   2.142   4.632  0.1590  0.8252  0.0891
    1RG35   H1'   12   2.191   2.181   4.630  0.2679  1.1306  0.4117
    1RG35    N9   13   2.286   1.995   4.606 -0.6031  0.4518 -0.3707
    1RG35    C8   14   2.170   1.922   4.580 -0.0585  0.2881 -0.0376
    1RG35    H8   15   2.069   1.962   4.584  0.0475  0.5345  0.3220
    1RG35    N7   16   2.190   1.795   4.553 -0.5362  0.5785  0.1454
    1RG35    C5   17   2.330   1.782   4.549 -0.1790  0.4382  0.2103
    1RG35    C6   18   2.418   1.678   4.511 -0.3947 -0.1400 -0.1645
    1RG35    O6   19   2.381   1.565   4.475  0.2574 -0.1080  0.0517
    1RG35    N1   20   2.551   1.707   4.528 -0.2724 -0.6043  0.2513
    1RG35    H1   21   2.612   1.627   4.519  0.4455  0.2676 -3.3645
    1RG35    C2   22   2.595   1.824   4.548 -0.8260 -0.2500  0.0810
    1RG35    N2   23   2.723   1.836   4.561  0.3095 -0.2003  0.3276
    1RG35   H21   24   2.780   1.754   4.545 -0.1301 -0.2965 -0.7425
    1RG35   H22   25   2.755   1.919   4.608 -0.2461  0.1275  0.1180
    1RG35    N3   26   2.521   1.934   4.571  0.0562  0.1185  0.2219
    1RG35    C4   27   2.389   1.904   4.583  0.1606  0.1307  0.4709
    1RG35   C3'   28   2.496   2.249   4.707 -0.2716 -0.4468  0.0402
    1RG35   H3'   29   2.574   2.176   4.682 -0.3250  0.1520 -1.9758
    1RG35   C2'   30   2.374   2.178   4.759  0.6948  0.2958  0.1653
    1RG35  H2'1   31   2.408   2.089   4.812 -0.3789 -0.3502 -0.2100
    1RG35   O2'   32   2.299   2.263   4.840  0.0285  0.2700  0.2679
    1RG35  HO'2   33   2.366   2.314   4.886 -0.1852 -0.6555  1.6365
    1RG35   O3'   34   2.538   2.350   4.793 -0.1554  0.2602  0.1141
    1RG35   H3T   35   2.629   2.335   4.820  0.2991  1.0505 -0.9226
    1RG35   O3P   36   2.582   2.653   4.267 -0.0160 -1.2207 -0.2188
    1SOL     OW   37   2.956   3.501   0.862  0.3264  0.1720  0.1130
    1SOL    HW2   38   2.960   3.596   0.855 -0.0488  0.0833 -1.5030
    1SOL    HW3   39   2.862   3.481   0.860  0.3524 -0.1655  1.5863
    1SOL    MW4   40   2.944   3.511   0.860  0.2804  0.1156  0.0941
    1SOL     OW   41   0.871   3.464   0.811  0.5300  0.0644 -0.0940
    1SOL    HW2   42   0.819   3.536   0.773  0.4917 -0.2906 -0.7265
    1SOL    HW3   43   0.960   3.482   0.783  0.4684 -0.3204 -0.5390
    1SOL    MW4   44   0.876   3.476   0.802  0.5168 -0.0334 -0.2362
    1SOL     OW   45   2.160   0.965   0.420  0.3279  0.2388  0.1900
    1SOL    HW2   46   2.189   0.934   0.506 -0.1506  1.2397  0.7227
    1SOL    HW3   47   2.153   1.060   0.431 -3.4752  0.0069  0.1930
    1SOL    MW4   48   2.163   0.974   0.433 -0.2372  0.3402  0.2607
    1SOL     OW   49   2.674   0.761   0.596  0.1907  0.3313 -0.0033
    1SOL    HW2   50   2.723   0.825   0.544 -1.1449  1.6724  0.3509
    1SOL    HW3   51   2.602   0.733   0.538  0.7171 -0.7968 -0.1283
    1SOL    MW4   52   2.671   0.766   0.581  0.0839  0.3594  0.0269
    1SOL     OW   53   1.265   4.451   0.323  0.5824  0.3153  0.0004
    1SOL    HW2   54   1.199   4.512   0.290  0.8968 -0.7427 -2.7636
    1SOL    HW3   55   1.334   4.451   0.256  2.4376 -0.1440  1.8387
    1SOL    MW4   56   1.266   4.459   0.310  0.8687  0.1149 -0.1217
    1SOL     OW   57   1.563   1.910   0.264 -0.3746  0.0605 -0.2640
    1SOL    HW2   58   1.503   1.925   0.192 -0.7816 -1.6511 -0.3148
    1SOL    HW3   59   1.565   1.815   0.274  0.1246  0.2388  1.5931
    1SOL    MW4   60   1.556   1.899   0.256 -0.3624 -0.1419 -0.0257
    1SOL     OW   61   2.107   3.810   0.877  0.2465 -0.2324  0.0034
    1SOL    HW2   62   2.104   3.875   0.807  0.3381 -2.1248 -1.8111
    1SOL    HW3   63   2.200   3.798   0.896  0.2216  0.2745  0.4515
    1SOL    MW4   64   2.119   3.817   0.870  0.2553 -0.4153 -0.1768
    1SOL     OW   65   2.951   4.623   0.839 -0.2175  0.2615 -0.3384
    1SOL    HW2   66   3.030   4.572   0.822  0.7766  1.4224  0.7138
    1SOL    HW3   67   2.947   4.633   0.934 -2.0516 -0.4177 -0.3126
    1SOL    MW4   68   2.961   4.618   0.849 -0.3283  0.3252 -0.1961
    1SOL     OW   69   3.571   0.760   0.540 -0.2320  0.1353  0.0990
    1SOL    HW2   70   3.576   0.838   0.484 -0.3317 -1.0269 -1.5873
    1SOL    HW3   71   3.557   0.794   0.628 -0.1751  2.0246 -0.5985
    1SOL    MW4   72   3.570   0.775   0.544 -0.2379  0.2312 -0.2155
    1SOL     OW   73   3.271   3.873   0.865 -0.0005 -0.2825 -0.0360
    1SOL    HW2   74   3.308   3.959   0.845 -0.5643 -0.1426 -0.4650
    1SOL    HW3   75   3.303   3.853   0.953 -1.7675  1.3928  1.0236
    1SOL    MW4   76   3.280   3.882   0.874 -0.3080 -0.0429  0.0471
    1SOL     OW   77   2.195   3.972   0.241 -0.1036  0.0012 -0.0862
    1SOL    HW2   78   2.219   3.954   0.150 -0.3698  0.2695 -0.2129
    1SOL    HW3   79   2.100   3.987   0.238 -0.2143 -0.6216  0.3364
    1SOL    MW4   80   2.186   3.972   0.229 -0.1535 -0.0460 -0.0471
    1SOL     OW   81   1.579   1.560   0.882 -0.2047 -0.3861 -0.0520
    1SOL    HW2   82   1.662   1.600   0.857 -0.0346 -1.5576 -1.4573
    1SOL    HW3   83   1.515   1.599   0.822 -0.1460 -1.7309 -1.0004
    1SOL    MW4   84   1.581   1.571   0.871 -0.1745 -0.7180 -0.3625
    1SOL     OW   85   0.660   2.295   0.815  0.2684 -0.6662 -0.0935
    1SOL    HW2   86   0.734   2.353   0.796  0.5545 -0.9450  0.1655
    1SOL    HW3   87   0.654   2.294   0.910 -0.7371  0.1894 -0.1430
    1SOL    MW4   88   0.669   2.303   0.825  0.1735 -0.5903 -0.0659
    1SOL     OW   89   3.063   4.089   0.461  0.0421 -0.4256 -0.1546
    1SOL    HW2   90   2.990   4.113   0.404  1.0559 -0.6932 -1.5916
    1SOL    HW3   91   3.078   3.997   0.443 -0.2372 -0.7629  1.2657
    1SOL    MW4   92   3.056   4.080   0.451  0.1392 -0.5050 -0.1568
    1SOL     OW   93   3.550   3.476   0.840  0.5826  0.0745  0.3665
    1SOL    HW2   94   3.478   3.522   0.795  1.9541  1.3535 -0.5690
    1SOL    HW3   95   3.565   3.398   0.786 -0.7559 -0.7344  1.1269
    1SOL    MW4   96   3.542   3.472   0.827  0.5867  0.1364  0.3434
    1SOL     OW   97   0.266   2.864   0.759 -0.2727  0.1484 -0.0918
    1SOL    HW2   98   0.266   2.953   0.793 -0.4784  0.3244 -0.5461
    1SOL    HW3   99   0.349   2.827   0.788 -1.1750 -0.2514  2.0214
    1SOL    MW4  100   0.277   2.871   0.767 -0.4189  0.1187  0.1271
    1SOL     OW  101   2.438   2.807   0.456  0.2094  0.2273 -0.0527
    1SOL    HW2  102   2.358   2.766   0.425  1.0580 -2.5538  1.2555
    1SOL    HW3  103   2.432   2.803   0.552  0.7512  2.3203  0.0832
    1SOL    MW4  104   2.427   2.801   0.465  0.3929  0.1364  0.1378
    1SOL     OW  105   1.105   4.357   0.701  0.1493  0.3302 -0.1372
    1SOL    HW2  106   1.031   4.310   0.739  1.6331 -0.4198  1.8916
    1SOL    HW3  107   1.109   4.439   0.749  0.0115  0.8217 -0.9523
    1SOL    MW4  108   1.096   4.362   0.712  0.3269  0.2961  0.0229
    1SOL     OW  109   2.830   1.396   0.610 -0.3847 -0.8713 -0.0603
    1SOL    HW2  110   2.830   1.483   0.570  1.0972 -1.0436 -0.4733
    1SOL    HW3  111   2.744   1.388   0.651 -0.2520  1.1108  0.6682
    1SOL    MW4  112   2.819   1.406   0.610 -0.1719 -0.6326 -0.0187
    1SOL     OW  113   3.158   3.352   0.715 -0.1017  0.2853 -0.0558
    1SOL    HW2  114   3.235   3.408   0.729 -0.8794  1.2367  0.5387
    1SOL    HW3  115   3.085   3.403   0.752 -1.1263 -0.2757 -1.2585
    1SOL    MW4  116   3.158   3.366   0.721 -0.3393  0.3369 -0.1361
    1SOL     OW  117   3.728   1.946   0.342 -0.3187 -0.0160 -0.0029
    1SOL    HW2  118   3.689   1.861   0.320  0.4688 -0.2363 -0.5611
    1SOL    HW3  119   3.654   2.000   0.370 -0.7465 -1.0476  0.8435
    1SOL    MW4  120   3.713   1.942   0.342 -0.2711 -0.1812  0.0352
    1SOL     OW  121   4.053   3.200   0.769 -0.2139  0.4923 -0.0519
    1SOL    HW2  122   4.061   3.185   0.675  0.5644 -1.7011  0.3359
    1SOL    HW3  123   3.961   3.180   0.788  0.1407 -1.2656 -0.0225
    1SOL    MW4  124   4.042   3.195   0.759 -0.0639 -0.0291  0.0032
    1SOL     OW  125   1.083   3.096   0.893  0.0801 -0.2532  0.3610
    1SOL    HW2  126   1.004   3.131   0.852 -0.3500 -0.8047  0.6969
    1SOL    HW3  127   1.080   3.002   0.874  1.3149 -0.0877 -0.6944
    1SOL    MW4  128   1.072   3.088   0.885  0.1863 -0.3045  0.2661
    1SOL     OW  129   3.436   0.520   0.567 -0.0387  0.4305  0.1784
    1SOL    HW2  130   3.477   0.606   0.556  1.0773 -0.3492 -1.9835
    1SOL    HW3  131   3.501   0.468   0.613 -0.1875  0.3439  0.2911
    1SOL    MW4  132   3.450   0.525   0.572  0.0892  0.3163 -0.0920
    1SOL     OW  133   3.876   3.531   0.253  0.6418 -0.3584 -0.4193
    1SOL    HW2  134   3.952   3.578   0.287  0.3536  0.1969 -0.5323
    1SOL    HW3  135   3.812   3.600   0.235  0.6893 -0.6849 -1.8372
    1SOL    MW4  136   3.877   3.546   0.255  0.6101 -0.3281 -0.6213
    1SOL     OW  137   1.105   0.540   0.779 -0.0131  0.4721  0.0018
    1SOL    HW2  138   1.176   0.481   0.805 -1.0808  0.3782  2.9820
    1SOL    HW3  139   1.025   0.493   0.804 -0.9237  2.4799  0.9454
    1SOL    MW4  140   1.104   0.526   0.786 -0.2741  0.7246  0.5195
    1SOL     OW  141   0.687   3.895   0.853  0.0527 -0.4979  0.6975
    1SOL    HW2  142   0.774   3.927   0.829 -1.1852  2.9601  0.5842
    1SOL    HW3  143   0.668   3.826   0.789  1.6467  0.5061 -0.8820
    1SOL    MW4  144   0.696   3.890   0.842  0.0997  0.0911  0.4742
    1SOL     OW  145   3.164   0.544   0.488  0.4224 -0.0297 -0.4639
    1SOL    HW2  146   3.260   0.539   0.498  0.3177 -0.9425  0.1197
    1SOL    HW3  147   3.135   0.453   0.492 -0.2716  0.0654 -2.8349
    1SOL    MW4  148   3.173   0.532   0.490  0.3169 -0.1375 -0.6997
    1SOL     OW  149   3.442   1.544   0.363  0.3008  0.3205  0.4361
    1SOL    HW2  150   3.347   1.532   0.363  0.3446 -0.1918 -1.3950
    1SOL    HW3  151   3.477   1.456   0.376  0.5241  0.3299 -0.0764
    1SOL    MW4  152   3.434   1.531   0.365  0.3359  0.2540  0.1269
    1SOL     OW  153   1.359   1.668   0.753  0.3677 -0.4341 -0.0582
    1SOL    HW2  154   1.283   1.640   0.806  1.2655 -1.3377  0.7767
    1SOL    HW3  155   1.367   1.761   0.770  0.2373 -0.5884  0.8870
    1SOL    MW4  156   1.350   1.676   0.762  0.4691 -0.5736  0.1767
    1SOL     OW  157   4.418   0.121   0.567 -0.1041 -0.6485  0.0654
    1SOL    HW2  158   4.410   0.215   0.550  3.2332 -0.4777 -0.9374
    1SOL    HW3  159   4.450   0.116   0.658 -0.8624 -0.8323  0.3203
    1SOL    MW4  160   4.421   0.133   0.577  0.2360 -0.6502 -0.0333
    1SOL     OW  161   3.458   3.264   0.447 -0.3651 -0.0236 -0.3076
    1SOL    HW2  162   3.502   3.206   0.385  1.5079 -0.6959  1.6079
    1SOL    HW3  163   3.511   3.344   0.447 -0.4283  0.0189  0.3445
    1SOL    MW4  164   3.471   3.267   0.439 -0.1264 -0.1068  0.0311
    1SOL     OW  165   0.036   3.227   0.762 -0.2045  0.4794  0.0991
    1SOL    HW2  166  -0.050   3.193   0.790  0.7111 -1.3394  0.8442
    1SOL    HW3  167   0.033   3.225   0.667 -0.1738 -1.8278  0.1199
    1SOL    MW4  168   0.024   3.222   0.753 -0.0797 -0.0651  0.2002
    1SOL     OW  169   0.015   3.944   0.726  0.2753  0.1849  0.4490
    1SOL    HW2  170   0.082   3.899   0.778  0.4594 -0.5457 -0.4037
    1SOL    HW3  171   0.006   4.030   0.767  3.0081  0.9610 -0.4333
    1SOL    MW4  172   0.023   3.949   0.738  0.6602  0.1910  0.2201
    1SOL     OW  173   1.306   0.388   0.437  0.0199 -0.3399  0.3617
    1SOL    HW2  174   1.262   0.455   0.489  1.2086  0.5735  0.2213
    1SOL    HW3  175   1.399   0.406   0.448  0.3392 -1.5202 -0.2754
    1SOL    MW4  176   1.312   0.400   0.445  0.2189 -0.3751  0.2591
    1SOL     OW  177   1.572   1.315   0.742  0.7077  0.0589  1.0050
    1SOL    HW2  178   1.511   1.255   0.785 -0.6216  0.7966  0.2142
    1SOL    HW3  179   1.563   1.397   0.790  0.0166  0.5723  0.0326
    1SOL    MW4  180   1.562   1.318   0.754  0.4413  0.2239  0.7724
    1SOL     OW  181   4.279   0.771   0.869 -0.2755 -0.0216  0.2328
    1SOL    HW2  182   4.356   0.816   0.833  0.3469 -0.5132  0.9280
    1SOL    HW3  183   4.283   0.790   0.963 -1.6648  0.9266  0.1048
    1SOL    MW4  184   4.290   0.780   0.877 -0.3762  0.0386  0.3076
    1SOL     OW  185   2.895   0.206   0.300 -0.2903 -0.2886 -0.3024
    1SOL    HW2  186   2.806   0.242   0.298 -0.6120 -1.1149 -1.4031
    1SOL    HW3  187   2.884   0.112   0.286  0.7452 -0.4221 -0.2961
    1SOL    MW4  188   2.882   0.199   0.298 -0.1962 -0.4152 -0.4468
    1SOL     OW  189   3.746   2.259   0.448  0.2853 -0.0411  0.3375
    1SOL    HW2  190   3.665   2.219   0.477  0.7139  0.0887  1.7609
    1SOL    HW3  191   3.730   2.353   0.453  0.2736 -0.0188 -0.1053
    1SOL    MW4  192   3.733   2.266   0.452  0.3402 -0.0210  0.4669
    1SOL     OW  193   3.567   2.455   0.757  0.2228  0.4215 -0.4671
    1SOL    HW2  194   3.557   2.537   0.804 -0.1801  0.2747 -0.2911
    1SOL    HW3  195   3.494   2.401   0.787  0.3984  0.0532 -0.6919
    1SOL    MW4  196   3.556   2.458   0.767  0.1929  0.3536 -0.4735
    1SOL     OW  197   0.332   1.360   0.490  0.1484  0.2227  0.5534
    1SOL    HW2  198   0.320   1.452   0.465 -0.2208 -0.0086 -0.1557
    1SOL    HW3  199   0.423   1.341   0.467 -0.1939  0.0090 -0.6579
    1SOL    MW4  200   0.342   1.370   0.483  0.0545  0.1640  0.3000
    1SOL     OW  201   0.178   4.391   0.835  0.0023 -0.0650 -0.3065
    1SOL    HW2  202   0.175   4.383   0.739  0.6920 -2.4879 -0.1741
    1SOL    HW3  203   0.262   4.352   0.859  0.7982  2.4965  1.1514
    1SOL    MW4  204   0.188   4.385   0.825  0.1983 -0.0463 -0.0967
    1SOL     OW  205   4.281   4.388   0.759 -0.1169  0.2348  0.0692
    1SOL    HW2  206   4.200   4.356   0.799 -0.4777  3.0259  1.6992
    1SOL    HW3  207   4.347   4.321   0.781 -1.6262 -1.3303 -0.0429
    1SOL    MW4  208   4.279   4.375   0.767 -0.3638  0.3967  0.2694
    1SOL     OW  209   0.864   2.894   0.377  0.0221  0.2091  0.6546
    1SOL    HW2  210   0.956   2.898   0.405  0.0567 -0.7359  0.6946
    1SOL    HW3  211   0.824   2.972   0.417  1.1335  1.4813 -0.6369
    1SOL    MW4  212   0.871   2.905   0.386  0.1733  0.2525  0.4894
    1SOL     OW  213   2.749   2.505   0.692 -0.4150  0.3195 -0.3603
    1SOL    HW2  214   2.765   2.490   0.599  0.5997  1.0813 -0.3205
    1SOL    HW3  215   2.761   2.419   0.733 -3.2770 -0.5521 -1.2159
    1SOL    MW4  216   2.753   2.491   0.686 -0.6588  0.3049 -0.4679
    1SOL     OW  217   2.745   1.021   0.843 -0.0778  0.2361  0.1844
    1SOL    HW2  218   2.798   1.061   0.774 -0.0804 -0.8243 -0.4481
    1SOL    HW3  219   2.783   0.934   0.856  0.1228  0.5459  1.7608
    1SOL    MW4  220   2.757   1.015   0.835 -0.0515  0.1370  0.3089
    1SOL     OW  221   3.803   3.167   0.857 -0.3516 -0.0326  0.0479
    1SOL    HW2  222   3.725   3.206   0.816  0.1941  0.0853 -0.9050
    1SOL    HW3  223   3.800   3.075   0.830  0.5543  0.2708 -1.1124
    1SOL    MW4  224   3.792   3.160   0.848 -0.1597  0.0229 -0.2309
    1SOL     OW  225   2.021   0.461   0.755  0.0951 -0.0265  0.0010
    1SOL    HW2  226   2.016   0.453   0.660  0.0476  0.0367 -0.0016
    1SOL    HW3  227   2.095   0.406   0.780 -0.3590 -0.6402  0.0016
    1SOL    MW4  228   2.030   0.453   0.746  0.0291 -0.0991  0.0008
    1SOL     OW  229   3.120   0.872   0.743  0.3290  0.0334 -0.3305
    1SOL    HW2  230   3.135   0.965   0.760  0.3749  0.0895 -0.6642
    1SOL    HW3  231   3.187   0.827   0.794  0.6473  0.2100 -0.5940
    1SOL    MW4  232   3.131   0.879   0.752  0.3772  0.0641 -0.4092
    1SOL     OW  233   1.567   3.891   1.119 -0.3021 -0.2914  0.4146
    1SOL    HW2  234   1.651   3.928   1.148  0.1412 -0.7938 -0.2288
    1SOL    HW3  235   1.582   3.866   1.028 -1.2464 -0.1006  0.2066
    1SOL    MW4  236   1.580   3.893   1.111 -0.3681 -0.3326  0.3023
    1SOL     OW  237   1.023   1.469   0.190  0.1012  0.0925 -0.0187
    1SOL    HW2  238   0.999   1.558   0.164 -0.2884  0.2399  0.8473
    1SOL    HW3  239   0.968   1.450   0.266  0.7851 -0.5802  0.3163
    1SOL    MW4  240   1.012   1.478   0.196  0.1401  0.0231  0.1398
    1SOL     OW  241   3.572   3.999   1.241 -0.0279  0.7570 -0.1821
    1SOL    HW2  242   3.559   3.986   1.335 -0.4733  0.0858 -0.3320
    1SOL    HW3  243   3.505   3.945   1.200  1.7222 -0.8874 -0.9414
    1SOL    MW4  244   3.562   3.990   1.248  0.1445  0.4513 -0.3021
    1SOL     OW  245   4.125   1.233   0.455 -0.0076 -0.2280 -0.0721
    1SOL    HW2  246   4.190   1.186   0.403  0.9480  0.4749  0.4798
    1SOL    HW3  247   4.161   1.235   0.543 -0.8254  0.0940  0.2640
    1SOL    MW4  248   4.138   1.227   0.460  0.0110 -0.0927  0.0451
    1SOL     OW  249   3.284   0.496   0.805  0.2219  0.1317  0.8435
    1SOL    HW2  250   3.330   0.494   0.720 -1.9995  0.1528 -0.3971
    1SOL    HW3  251   3.336   0.438   0.861  1.0903 -0.8119 -0.8761
    1SOL    MW4  252   3.297   0.488   0.801  0.0432  0.0100  0.4529
    1SOL     OW  253   0.335   4.480   0.432 -0.1012 -0.1589 -0.0784
    1SOL    HW2  254   0.279   4.502   0.357  0.7112  0.2803 -0.5648
    1SOL    HW3  255   0.365   4.565   0.464  1.5047 -0.4445 -0.7658
    1SOL    MW4  256   0.332   4.494   0.426  0.2179 -0.1388 -0.2332
    1SOL     OW  257   2.598   3.482   0.394 -0.4633 -0.4206 -0.4588
    1SOL    HW2  258   2.544   3.422   0.446 -0.3987 -0.3469 -0.3044
    1SOL    HW3  259   2.674   3.499   0.450  0.3454 -1.5406 -1.2034
    1SOL    MW4  260   2.601   3.476   0.408 -0.3481 -0.5589 -0.5367
    1SOL     OW  261   3.631   1.115   0.803  0.0413  0.1610  0.2836
    1SOL    HW2  262   3.553   1.165   0.781 -0.9564 -1.3060  0.4161
    1SOL    HW3  263   3.633   1.113   0.899  0.8857  1.1701  0.2955
    1SOL    MW4  264   3.621   1.121   0.813  0.0210  0.1006  0.3026
    1SOL     OW  265   2.184   3.223   0.488 -0.1168 -0.1669 -0.3101
    1SOL    HW2  266   2.161   3.134   0.459  0.5744 -0.2005 -0.7795
    1SOL    HW3  267   2.183   3.218   0.583 -0.2855 -0.6289 -0.3325
    1SOL    MW4  268   2.181   3.211   0.497 -0.0477 -0.2322 -0.3750
    1SOL     OW  269   0.682   2.047   0.718 -0.8948  0.2970 -0.4448
    1SOL    HW2  270   0.616   1.989   0.756 -2.2845  1.2099 -1.4195
    1SOL    HW3  271   0.672   2.129   0.765 -0.2968  0.3749 -0.4478
    1SOL    MW4  272   0.672   2.050   0.729 -0.9993  0.4275 -0.5739
    1SOL     OW  273   2.531   4.629   0.849 -0.0567  0.0759  0.2361
    1SOL    HW2  274   2.593   4.558   0.831 -0.3031  0.1491 -0.9857
    1SOL    HW3  275   2.518   4.627   0.943  1.8284  0.0708  0.5158
    1SOL    MW4  276   2.537   4.620   0.859  0.1595  0.0844  0.1118
    1SOL     OW  277   4.090   0.823   0.513  1.0126  0.6212 -0.0504
    1SOL    HW2  278   4.185   0.837   0.510  1.1409 -0.3943 -1.5783
    1SOL    HW3  279   4.079   0.731   0.489 -0.2804  0.3350  1.5763
    1SOL    MW4  280   4.101   0.813   0.509  0.8593  0.4495 -0.0374
    1SOL     OW  281   0.056   2.699   0.821 -0.6202 -0.1472  0.1450
    1SOL    HW2  282   0.049   2.712   0.915 -0.3643  1.0969  0.0117
    1SOL    HW3  283   0.133   2.751   0.796 -1.0154 -0.0165 -0.8215
    1SOL    MW4  284   0.065   2.708   0.830 -0.6386  0.0343 -0.0001
    1SOL     OW  285   1.114   0.277   0.278  0.0320 -0.1601 -0.2233
    1SOL    HW2  286   1.127   0.283   0.183  0.7726  0.4461 -0.0832
    1SOL    HW3  287   1.190   0.320   0.316  0.1404 -1.0966  0.6626
    1SOL    MW4  288   1.126   0.283   0.270  0.1441 -0.2037 -0.0879
    1SOL     OW  289   3.832   2.039   0.679 -0.6713  0.3471  0.7911
    1SOL    HW2  290   3.812   2.124   0.717  1.1833  0.9288  0.5225
    1SOL    HW3  291   3.897   2.000   0.738  0.9832  0.5599 -0.8288
    1SOL    MW4  292   3.838   2.045   0.692 -0.2084  0.4518  0.5419
    1SOL     OW  293   2.456   0.259   0.475  0.3358 -0.5277  0.2255
    1SOL    HW2  294   2.417   0.346   0.483 -0.2918 -0.8752  1.1454
    1SOL    HW3  295   2.477   0.234   0.565 -0.3926 -1.7287  0.0778
    1SOL    MW4  296   2.454   0.267   0.488  0.1569 -0.7321  0.3273
    1SOL     OW  297   0.228   2.477   0.355  0.2748  0.2939 -0.0217
    1SOL    HW2  298   0.295   2.510   0.415  1.2169  0.7153 -1.2907
    1SOL    HW3  299   0.270   2.477   0.270 -0.7523 -1.1944 -0.5487
    1SOL    MW4  300   0.242   2.481   0.352  0.2636  0.1531 -0.2587
    1SOL     OW  301   0.925   4.045   0.792 -0.3750 -0.2193 -0.7790
    1SOL    HW2  302   0.930   4.039   0.697 -0.5903 -1.2839 -0.7239
    1SOL    HW3  303   0.993   3.985   0.824  0.3641  0.8627 -0.2654
    1SOL    MW4  304   0.935   4.036   0.784 -0.3059 -0.2174 -0.7040
    1SOL     OW  305   0.278   2.859   0.506 -0.1045 -0.4703 -0.0542
    1SOL    HW2  306   0.267   2.882   0.598  1.1938  0.9254 -0.2306
    1SOL    HW3  307   0.351   2.797   0.505  0.3580  0.0773 -0.2233
    1SOL    MW4  308   0.286   2.854   0.518  0.1279 -0.2139 -0.0998
    1SOL     OW  309   3.329   1.882   0.358 -0.0405 -0.2688 -0.4402
    1SOL    HW2  310   3.385   1.805   0.363  0.0720 -0.0620  1.7191
    1SOL    HW3  311   3.384   1.954   0.389 -1.6625 -0.1803  2.3516
    1SOL    MW4  312   3.344   1.882   0.363 -0.2394 -0.2300  0.2130
    1SOL     OW  313   0.029   0.129   0.825 -0.3968  0.0009 -0.2527
    1SOL    HW2  314  -0.047   0.077   0.849  0.3834 -1.7543 -1.4771
    1SOL    HW3  315   0.104   0.079   0.858  0.3074  0.8882 -0.4866
    1SOL    MW4  316   0.029   0.116   0.833 -0.2009 -0.1136 -0.4450
    1SOL     OW  317   0.543   3.297   0.416  0.0340 -0.2248  0.0158
    1SOL    HW2  318   0.627   3.254   0.434  0.3798  0.3488 -0.1969
    1SOL    HW3  319   0.563   3.391   0.421 -0.5986 -0.0852 -0.0273
    1SOL    MW4  320   0.557   3.304   0.419 -0.0038 -0.1307 -0.0179
    1SOL     OW  321   2.913   2.883   0.265 -0.1010 -0.1549 -0.1007
    1SOL    HW2  322   2.891   2.969   0.299  0.9815  0.2152 -0.3057
    1SOL    HW3  323   2.848   2.866   0.197 -1.1393 -0.0968  0.8720
    1SOL    MW4  324   2.902   2.892   0.261 -0.0951 -0.0985  0.0006
    1SOL     OW  325   3.619   0.999   0.380 -0.1863 -0.4500 -0.1418
    1SOL    HW2  326   3.711   1.014   0.403 -0.3793 -0.5586  0.7404
    1SOL    HW3  327   3.620   0.970   0.289  0.5753  0.4971 -0.4393
    1SOL    MW4  328   3.631   0.997   0.371 -0.1113 -0.3393 -0.0647
    1SOL     OW  329   4.129   0.339   0.370  0.0511 -0.2089 -0.0830
    1SOL    HW2  330   4.102   0.262   0.421  0.7616 -0.7870 -0.5658
    1SOL    HW3  331   4.191   0.304   0.306 -0.9335  0.5077 -1.4238
    1SOL    MW4  332   4.134   0.324   0.369  0.0148 -0.1906 -0.3236
    1SOL     OW  333   3.088   4.227   0.844 -0.1235  0.0681 -0.7292
    1SOL    HW2  334   3.165   4.170   0.836 -0.1917 -0.3586  1.3575
    1SOL    HW3  335   3.016   4.175   0.809  0.3035 -0.0320 -1.4732
    1SOL    MW4  336   3.089   4.213   0.838 -0.0763 -0.0010 -0.5521
    1SOL     OW  337   2.230   3.421   0.875 -0.0800  0.3779  0.3085
    1SOL    HW2  338   2.153   3.463   0.836 -0.6950 -0.3183  0.7738
    1SOL    HW3  339   2.302   3.480   0.853 -0.8480  1.4065  0.4681
    1SOL    MW4  340   2.229   3.434   0.867 -0.2625  0.4220  0.3909
    1SOL     OW  341   1.743   0.975   0.485 -0.5539 -0.6057  0.5048
    1SOL    HW2  342   1.773   0.934   0.566  0.1701  0.8650  1.0011
    1SOL    HW3  343   1.809   0.952   0.420 -0.4880 -0.7672  0.6313
    1SOL    MW4  344   1.756   0.967   0.487 -0.4497 -0.4330  0.5869
    1SOL     OW  345   3.324   3.605   0.445 -0.2310 -0.3872 -0.4585
    1SOL    HW2  346   3.409   3.576   0.413 -0.8170 -1.5156 -1.0088
    1SOL    HW3  347   3.263   3.536   0.418 -1.1438 -0.1347  0.8945
    1SOL    MW4  348   3.327   3.592   0.438 -0.4287 -0.5028 -0.3526
    1SOL     OW  349   0.658   0.799   0.793 -0.0194  0.1827 -0.1453
    1SOL    HW2  350   0.736   0.844   0.762 -0.2191  0.3794 -0.3699
    1SOL    HW3  351   0.587   0.837   0.741 -0.0634 -1.0384 -0.9977
    1SOL    MW4  352   0.659   0.810   0.782 -0.0516  0.0475 -0.2874
    1SOL     OW  353   4.328   3.622   0.764  0.4550  0.2178 -0.1967
    1SOL    HW2  354   4.245   3.576   0.777  0.8553 -0.1098  1.3171
    1SOL    HW3  355   4.311   3.712   0.792  0.2147  0.5240 -1.2964
    1SOL    MW4  356   4.315   3.628   0.770  0.4764  0.2148 -0.1421
    1SOL     OW  357   3.499   0.316   0.891 -0.2714 -0.1314  0.3394
    1SOL    HW2  358   3.561   0.337   0.820 -0.2888 -0.8561  0.1087
    1SOL    HW3  359   3.551   0.325   0.971 -0.2059  0.5278  0.2299
    1SOL    MW4  360   3.514   0.320   0.892 -0.2649 -0.1400  0.2945
    1SOL     OW  361   0.484   2.731   0.841 -0.2858  0.1729 -0.2051
    1SOL    HW2  362   0.569   2.759   0.808  0.1302 -0.5813  0.2337
    1SOL    HW3  363   0.472   2.643   0.806  0.4095 -0.8653  2.0773
    1SOL    MW4  364   0.494   2.723   0.832 -0.1392 -0.0637  0.1539
    1SOL     OW  365   4.068   3.131   0.504  0.0888  0.4811  0.6719
    1SOL    HW2  366   4.024   3.208   0.468 -0.3958 -0.0323  0.1462
    1SOL    HW3  367   4.158   3.137   0.472  0.0797  0.8679  0.7114
    1SOL    MW4  368   4.074   3.142   0.495  0.0234  0.4644  0.6077
    1SOL     OW  369   2.975   0.736   0.526  0.2260 -0.3421 -0.4080
    1SOL    HW2  370   3.024   0.657   0.502 -0.2258 -0.5868 -0.5359
    1SOL    HW3  371   3.033   0.783   0.586  1.0941 -0.0611 -1.4567
    1SOL    MW4  372   2.989   0.732   0.531  0.2813 -0.3373 -0.5632
    1SOL     OW  373   1.050   4.325   0.428 -0.6658 -0.0574 -0.0210
    1SOL    HW2  374   1.125   4.352   0.375 -0.0762 -1.3380  0.1670
    1SOL    HW3  375   1.073   4.350   0.518  0.1341 -1.7002  0.2405
    1SOL    MW4  376   1.063   4.332   0.433 -0.4823 -0.4430  0.0383
    1SOL     OW  377   2.989   0.460   0.744  0.1472  0.1223  0.0009
    1SOL    HW2  378   3.077   0.495   0.757  0.2703  0.4418 -1.6795
    1SOL    HW3  379   2.996   0.368   0.770  0.8729  0.2510  0.2749
    1SOL    MW4  380   3.002   0.452   0.749  0.2592  0.1814 -0.1847
    1SOL     OW  381   4.080   3.469   0.825  0.2154 -0.2123  0.2829
    1SOL    HW2  382   4.089   3.376   0.809 -0.9858 -0.4268  0.7806
    1SOL    HW3  383   4.071   3.477   0.920  0.2342  0.4064  0.2393
    1SOL    MW4  384   4.080   3.458   0.835  0.0596 -0.1593  0.3428
    1SOL     OW  385   2.925   4.052   0.720  0.3071 -0.3697  0.0287
    1SOL    HW2  386   2.958   4.061   0.631 -0.7416 -0.3055 -0.3699
    1SOL    HW3  387   2.971   3.977   0.756  1.2869  0.0576 -0.3076
    1SOL    MW4  388   2.935   4.043   0.713  0.2980 -0.3047 -0.0682
    1SOL     OW  389   3.910   4.547   0.902 -0.1790 -0.1828 -0.4357
    1SOL    HW2  390   3.838   4.572   0.845 -1.6419 -1.7054  0.7175
    1SOL    HW3  391   3.936   4.460   0.872  0.1906 -0.2635  0.1042
    1SOL    MW4  392   3.904   4.539   0.891 -0.3233 -0.3943 -0.2123
    1SOL     OW  393   2.225   4.291   0.856 -0.0758 -0.0690  0.1629
    1SOL    HW2  394   2.268   4.226   0.801  0.4423 -0.5285  1.1020
    1SOL    HW3  395   2.234   4.257   0.945 -1.6735  0.2301  0.4527
    1SOL    MW4  396   2.232   4.278   0.860 -0.2182 -0.0901  0.3250
    1SOL     OW  397   0.048   3.465   0.878  0.0088  0.1099  0.0210
    1SOL    HW2  398   0.042   3.380   0.835 -1.0941 -0.6308  1.5704
    1SOL    HW3  399  -0.019   3.518   0.836 -2.0269 -1.0443  1.7271
    1SOL    MW4  400   0.038   3.461   0.867 -0.4053 -0.1402  0.4506
    1SOL     OW  401   3.601   3.492   0.402  0.1466  0.0895 -0.1285
    1SOL    HW2  402   3.624   3.582   0.424 -0.7477  0.3292 -0.1418
    1SOL    HW3  403   3.683   3.453   0.370  0.2753  1.2490 -1.2672
    1SOL    MW4  404   3.615   3.499   0.401  0.0458  0.2742 -0.2805
    1SOL     OW  405   0.007   2.439   0.754 -0.3140  0.5210 -0.1448
    1SOL    HW2  406   0.023   2.531   0.778 -1.1990  0.6695 -0.1002
    1SOL    HW3  407  -0.019   2.442   0.662 -0.4696  0.3234 -0.1070
    1SOL    MW4  408   0.006   2.452   0.745 -0.4511  0.5143 -0.1340
    1SOL     OW  409   4.333   3.634   0.489 -0.4431  0.1474 -0.3049
    1SOL    HW2  410   4.377   3.715   0.462  0.1453  0.5296  1.7122
    1SOL    HW3  411   4.336   3.636   0.585 -1.0189 -1.9402 -0.2217
    1SOL    MW4  412   4.339   3.645   0.498 -0.4411 -0.0777 -0.0278
    1SOL     OW  413   1.771   4.240   0.858 -0.1502  0.0317  0.0395
    1SOL    HW2  414   1.770   4.237   0.954 -0.0684  0.4800  0.0571
    1SOL    HW3  415   1.691   4.286   0.835  0.0786  0.3652 -0.0883
    1SOL    MW4  416   1.761   4.246   0.868 -0.1091  0.1349  0.0249
    1SOL     OW  417   0.085   3.273   0.490  0.2697  0.1055 -0.1931
    1SOL    HW2  418   0.101   3.362   0.459 -0.2895  0.6304  0.9854
    1SOL    HW3  419   0.168   3.227   0.477  0.5312  0.7698 -0.8950
    1SOL    MW4  420   0.098   3.278   0.485  0.2304  0.2623 -0.1302
    1SOL     OW  421   1.770   0.325   0.842  0.2154  0.1694  0.0151
    1SOL    HW2  422   1.848   0.362   0.801  0.2083  0.4140  0.2140
    1SOL    HW3  423   1.771   0.232   0.819  0.4121  0.2308 -0.2190
    1SOL    MW4  424   1.781   0.318   0.834  0.2404  0.2098  0.0105
    1SOL     OW  425   2.699   3.305   0.203  0.1032 -0.1895 -0.1877
    1SOL    HW2  426   2.653   3.371   0.256  0.4505 -0.4008  0.3901
    1SOL    HW3  427   2.629   3.246   0.174 -0.0055 -0.4850  0.6493
    1SOL    MW4  428   2.683   3.306   0.206  0.1347 -0.2561 -0.0011
    1SOL     OW  429   0.964   1.709   0.725 -0.0410  0.4192 -0.0083
    1SOL    HW2  430   0.942   1.798   0.752 -1.4217 -0.2976  1.3258
    1SOL    HW3  431   0.937   1.704   0.634 -1.0127  1.0158  0.2428
    1SOL    MW4  432   0.958   1.720   0.716 -0.3514  0.4034  0.2009
    1SOL     OW  433   4.296   3.094   0.841  0.7134 -0.0737  0.4722
    1SOL    HW2  434   4.295   3.001   0.819  1.4064 -0.1464  0.7237
    1SOL    HW3  435   4.223   3.131   0.791  0.5086 -0.7288  0.2761
    1SOL    MW4  436   4.287   3.086   0.831  0.7777 -0.1700  0.4795
    1SOL     OW  437   4.302   0.502   0.811  0.3117 -0.1426 -0.7074
    1SOL    HW2  438   4.224   0.460   0.847  1.2225 -0.8706  0.4462
    1SOL    HW3  439   4.288   0.595   0.826 -0.3602 -0.2643 -0.5577
    1SOL    MW4  440   4.289   0.508   0.818  0.3428 -0.2546 -0.5355
    1SOL     OW  441   3.861   1.520   0.838 -0.0485  0.0857  0.0817
    1SOL    HW2  442   3.936   1.570   0.804  0.7470 -1.1167  0.0244
    1SOL    HW3  443   3.865   1.436   0.791 -1.2954 -0.0786  0.2530
    1SOL    MW4  444   3.872   1.515   0.827 -0.1080 -0.0947  0.0967
    1SOL     OW  445   0.330   3.141   0.500  0.7589 -0.3110 -0.3444
    1SOL    HW2  446   0.325   3.048   0.477 -0.0576 -0.2920 -0.2600
    1SOL    HW3  447   0.407   3.173   0.453  1.6155 -1.2410  0.4078
    1SOL    MW4  448   0.340   3.133   0.490  0.7642 -0.4313 -0.2340
    1SOL     OW  449   2.471   0.783   0.806 -0.5349  0.0837 -0.4675
    1SOL    HW2  450   2.399   0.817   0.753  0.0793 -0.5799 -1.7352
    1SOL    HW3  451   2.544   0.776   0.745  0.2614 -0.4018  0.5444
    1SOL    MW4  452   2.471   0.787   0.791 -0.3486 -0.0679 -0.5013
    1SOL     OW  453   1.062   3.618   0.482  0.5216  0.2677 -0.0366
    1SOL    HW2  454   1.007   3.541   0.466  0.9172  0.1482 -0.8252
    1SOL    HW3  455   1.143   3.600   0.435  0.7014  1.0758 -0.0418
    1SOL    MW4  456   1.065   3.605   0.474  0.5975  0.3586 -0.1413
    1SOL     OW  457   4.017   2.433   0.684  0.1322 -0.0076 -0.5866
    1SOL    HW2  458   4.047   2.456   0.596  0.5248  1.6095 -0.0499
    1SOL    HW3  459   4.095   2.398   0.727  0.9458  2.8709  0.3544
    1SOL    MW4  460   4.031   2.431   0.678  0.2918  0.5856 -0.3917
    1SOL     OW  461   3.160   3.816   0.433 -0.1506  0.3706 -0.0162
    1SOL    HW2  462   3.225   3.746   0.427 -0.2197  0.4757 -2.1939
    1SOL    HW3  463   3.082   3.772   0.467  0.0977 -0.4278 -0.4562
    1SOL    MW4  464   3.158   3.801   0.437 -0.1268  0.2789 -0.3616
    1SOL     OW  465   1.129   3.837   1.182 -0.1565 -0.5135  0.1870
    1SOL    HW2  466   1.211   3.878   1.210 -0.4866  0.2484  0.0611
    1SOL    HW3  467   1.138   3.745   1.207  1.4325 -0.8007 -1.3459
    1SOL    MW4  468   1.141   3.830   1.189  0.0095 -0.4508 -0.0319
    1SOL     OW  469   3.578   1.290   0.448 -0.0211 -0.4388 -0.1072
    1SOL    HW2  470   3.666   1.320   0.471 -0.2770  1.1761 -1.1352
    1SOL    HW3  471   3.593   1.209   0.399  1.0058  0.6159 -1.5891
    1SOL    MW4  472   3.592   1.283   0.444  0.0803 -0.0865 -0.4384
    1SOL     OW  473   2.439   2.795   0.747  0.0169  0.1877  0.2228
    1SOL    HW2  474   2.366   2.754   0.792  0.2608 -0.0448  0.4064
    1SOL    HW3  475   2.517   2.751   0.781  0.3908  1.7608  1.4825
    1SOL    MW4  476   2.440   2.784   0.757  0.0985  0.3645  0.4132
    1SOL     OW  477   1.312   0.388   0.846  0.2836 -0.1525 -0.1063
    1SOL    HW2  478   1.320   0.390   0.941 -0.8081 -0.1337 -0.0046
    1SOL    HW3  479   1.387   0.438   0.814 -0.0604  0.9585  0.7835
    1SOL    MW4  480   1.323   0.395   0.854  0.0941 -0.0034  0.0244
    1SOL     OW  481   2.640   0.336   0.292 -0.1625  0.2671 -0.9737
    1SOL    HW2  482   2.595   0.349   0.208 -0.9462  0.3348 -0.5447
    1SOL    HW3  483   2.576   0.291   0.347  0.6445 -0.5373 -0.6786
    1SOL    MW4  484   2.625   0.332   0.288 -0.1597  0.1699 -0.8782
    1SOL     OW  485   3.909   3.569   0.619 -0.1314  0.2723 -0.1950
    1SOL    HW2  486   3.976   3.554   0.686  1.1282 -4.1856 -2.2385
    1SOL    HW3  487   3.954   3.615   0.549 -0.0766  0.1663 -0.2285
    1SOL    MW4  488   3.923   3.573   0.619  0.0422 -0.3297 -0.4691
    1SOL     OW  489   1.185   0.640   0.494  0.0205  0.4373 -0.0761
    1SOL    HW2  490   1.114   0.656   0.432 -0.3501 -2.0996 -0.3706
    1SOL    HW3  491   1.141   0.631   0.579 -0.0381 -1.2149 -0.2711
    1SOL    MW4  492   1.170   0.641   0.497 -0.0361 -0.1153 -0.1407
    1SOL     OW  493   1.339   0.855   0.423 -0.0147 -0.2850  0.4699
    1SOL    HW2  494   1.429   0.827   0.408  0.3881 -0.0526  2.3102
    1SOL    HW3  495   1.292   0.774   0.444 -0.1662 -0.3557 -0.1227
    1SOL    MW4  496   1.344   0.840   0.424  0.0185 -0.2637  0.6346
    1SOL     OW  497   1.549   3.818   0.180 -0.1009 -0.1454  0.2549
    1SOL    HW2  498   1.470   3.837   0.231  1.7658  0.9751  2.8555
    1SOL    HW3  499   1.544   3.879   0.106 -0.5876  1.5428  1.6213
    1SOL    MW4  500   1.538   3.829   0.177  0.0812  0.2253  0.7783
    1SOL     OW  501   1.153   2.370   0.856 -0.2303 -0.5215  0.0843
    1SOL    HW2  502   1.065   2.403   0.836 -0.1924 -0.1804  0.4628
    1SOL    HW3  503   1.149   2.346   0.949  0.5460  1.0440  0.5353
    1SOL    MW4  504   1.141   2.371   0.866 -0.1227 -0.2701  0.1938
    1SOL     OW  505   4.333   3.148   0.405 -0.3413  0.3810 -0.0748
    1SOL    HW2  506   4.348   3.057   0.432  1.2686 -0.1526 -2.6415
    1SOL    HW3  507   4.403   3.197   0.449  0.3459 -0.0071 -0.7289
    1SOL    MW4  508   4.344   3.142   0.415 -0.0377  0.2594 -0.4998
    1SOL     OW  509   0.502   3.241   0.738 -0.3023  0.1416 -0.6016
    1SOL    HW2  510   0.421   3.203   0.772 -0.4540  2.0683  1.3113
    1SOL    HW3  511   0.494   3.235   0.643 -2.1584 -0.7417 -0.4005
    1SOL    MW4  512   0.491   3.235   0.730 -0.5672  0.2792 -0.3227
    1SOL     OW  513   1.329   0.101   0.775  0.1721  0.0659 -0.2418
    1SOL    HW2  514   1.315   0.192   0.801  0.4172 -0.0447  0.2817
    1SOL    HW3  515   1.355   0.106   0.683  0.4524  0.5486 -0.1386
    1SOL    MW4  516   1.331   0.113   0.767  0.2413  0.1150 -0.1592
    1SOL     OW  517   2.055   0.145   0.427  0.3958 -0.4488  0.3525
    1SOL    HW2  518   2.070   0.134   0.521  1.5127 -0.1642  0.2194
    1SOL    HW3  519   2.133   0.108   0.386  0.7482  1.0894 -0.3828
    1SOL    MW4  520   2.067   0.139   0.434  0.5896 -0.2083  0.2379
    1SOL     OW  521   2.698   2.897   0.106  0.5115  0.1927  0.2160
    1SOL    HW2  522   2.687   2.940   0.020 -0.6047 -0.0028  0.2583
    1SOL    HW3  523   2.647   2.951   0.166 -0.0641 -0.6260  0.4595
    1SOL    MW4  524   2.690   2.910   0.102  0.2882  0.0587  0.2537
    1SOL     OW  525   3.616   3.777   0.477 -0.2251 -0.2061 -0.0073
    1SOL    HW2  526   3.642   3.765   0.569 -0.0593 -0.2519 -0.0606
    1SOL    HW3  527   3.666   3.854   0.448 -1.8638  1.0877  0.5595
    1SOL    MW4  528   3.626   3.786   0.486 -0.4196 -0.0415  0.0604
    1SOL     OW  529   1.382   4.082   0.538  0.1193 -0.0404  0.1022
    1SOL    HW2  530   1.361   4.047   0.625  1.0206 -1.3958 -0.2187
    1SOL    HW3  531   1.476   4.068   0.529  0.3985  1.9570 -0.2775
    1SOL    MW4  532   1.391   4.076   0.549  0.2750  0.0439  0.0098
    1SOL     OW  533   0.053   2.717   0.424  0.3548 -0.2828  0.0234
    1SOL    HW2  534   0.104   2.653   0.374  0.0784  1.2021 -2.2243
    1SOL    HW3  535   0.118   2.771   0.467  0.6045 -0.9781  0.5365
    1SOL    MW4  536   0.068   2.715   0.423  0.3513 -0.1786 -0.2055
    1SOL     OW  537   3.095   3.449   0.352  0.1862  0.2531 -0.7799
    1SOL    HW2  538   3.117   3.371   0.403  0.3735  0.7808 -0.0313
    1SOL    HW3  539   3.076   3.417   0.264 -0.6931 -0.7426 -0.2283
    1SOL    MW4  540   3.096   3.435   0.347  0.0947  0.1915 -0.6084
    1SOL     OW  541   1.365   3.970   0.792 -0.1945  0.6251 -0.3111
    1SOL    HW2  542   1.443   3.932   0.831 -0.1170  2.5177  1.4889
    1SOL    HW3  543   1.292   3.924   0.834 -0.0840 -0.8933 -1.7330
    1SOL    MW4  544   1.366   3.959   0.803 -0.1698  0.6745 -0.2612
    1SOL     OW  545   2.697   4.401   0.468 -0.1297  0.2728 -0.1965
    1SOL    HW2  546   2.752   4.470   0.432 -1.1935  0.0521 -2.2856
    1SOL    HW3  547   2.608   4.427   0.447 -0.5604 -1.5676 -0.7121
    1SOL    MW4  548   2.693   4.413   0.461 -0.3266  0.0014 -0.5402
    1SOL     OW  549   1.418   4.352   0.533 -0.6015 -0.0737 -0.4878
    1SOL    HW2  550   1.402   4.258   0.536 -0.3981 -0.1227 -0.8205
    1SOL    HW3  551   1.355   4.385   0.468  1.3367 -0.4324 -2.6255
    1SOL    MW4  552   1.407   4.344   0.525 -0.3188 -0.1273 -0.8137
    1SOL     OW  553   2.838   3.489   0.508 -0.0677 -0.5224  0.0155
    1SOL    HW2  554   2.830   3.414   0.567  1.4102 -0.3004  0.5204
    1SOL    HW3  555   2.911   3.467   0.450 -0.2524  0.1083 -0.4706
    1SOL    MW4  556   2.846   3.476   0.508  0.1030 -0.4101  0.0181
    1SOL     OW  557   1.485   1.284   0.268  0.0426  0.1961  0.0380
    1SOL    HW2  558   1.535   1.276   0.349 -0.8811 -0.9561  0.5125
    1SOL    HW3  559   1.398   1.313   0.296 -0.3807 -0.5311 -0.5016
    1SOL    MW4  560   1.480   1.287   0.282 -0.1352 -0.0519  0.0294
    1SOL     OW  561   3.593   3.244   0.705  0.1366 -0.1644  0.1011
    1SOL    HW2  562   3.514   3.207   0.746  0.0951 -0.3752 -0.1679
    1SOL    HW3  563   3.573   3.245   0.611 -0.4058  1.8099  0.2002
    1SOL    MW4  564   3.580   3.239   0.698  0.0596  0.0682  0.0787
    1SOL     OW  565   3.402   2.043   0.727  0.2817  0.6981  0.4342
    1SOL    HW2  566   3.465   1.987   0.772  0.6002  0.0841 -0.7517
    1SOL    HW3  567   3.319   1.995   0.733  0.1408  1.0241  1.1097
    1SOL    MW4  568   3.399   2.029   0.734  0.3052  0.6599  0.3669
    1SOL     OW  569   0.124   4.314   0.555  0.5242  0.3820  0.3289
    1SOL    HW2  570   0.193   4.360   0.507 -0.2046  0.4149 -0.6975
    1SOL    HW3  571   0.135   4.222   0.530 -0.7581  0.5917 -1.0298
    1SOL    MW4  572   0.134   4.308   0.546  0.2589  0.4144  0.0142
    1SOL     OW  573   0.225   0.830   0.869 -0.0099  0.0012 -0.0662
    1SOL    HW2  574   0.221   0.744   0.828  1.0840 -0.0395 -0.0883
    1SOL    HW3  575   0.256   0.814   0.958  1.2904  0.4762 -0.4199
    1SOL    MW4  576   0.229   0.817   0.875  0.3060  0.0585 -0.1158
    1SOL     OW  577   1.524   4.619   0.882 -0.3215  0.0183  0.3044
    1SOL    HW2  578   1.455   4.664   0.833 -0.3852  0.4334  0.7697
    1SOL    HW3  579   1.516   4.527   0.856 -1.7395 -0.1099  1.1641
    1SOL    MW4  580   1.514   4.613   0.872 -0.5171  0.0567  0.4793
    1SOL     OW  581   1.583   0.797   0.321 -0.1105 -0.2584  0.1288
    1SOL    HW2  582   1.565   0.863   0.254 -0.1243 -1.2543 -0.8650
    1SOL    HW3  583   1.645   0.840   0.380  0.4861  0.3904 -0.9418
    1SOL    MW4  584   1.589   0.811   0.320 -0.0335 -0.3043 -0.1436
    1SOL     OW  585   2.891   3.787   1.100  0.2381 -0.1046  0.4605
    1SOL    HW2  586   2.969   3.823   1.142 -0.4589  0.3959  1.3434
    1SOL    HW3  587   2.873   3.706   1.148 -0.9621  0.8206  1.6142
    1SOL    MW4  588   2.898   3.781   1.112 -0.0124  0.0834  0.7294
    1SOL     OW  589   1.598   0.375   0.499  0.0935  0.0612 -0.4100
    1SOL    HW2  590   1.666   0.309   0.511  1.5443  1.5945  0.0596
    1SOL    HW3  591   1.635   0.435   0.433 -1.0885  0.5486 -0.6454
    1SOL    MW4  592   1.612   0.375   0.492  0.1290  0.3278 -0.3791
    1SOL     OW  593   3.358   2.294   0.851  0.3458 -0.2384 -0.7195
    1SOL    HW2  594   3.361   2.291   0.947  1.2163 -0.3522 -0.7534
    1SOL    HW3  595   3.367   2.203   0.824  2.2800  0.0208 -0.9744
    1SOL    MW4  596   3.359   2.282   0.860  0.7160 -0.2193 -0.7576
    1SOL     OW  597   0.653   3.917   1.130  0.1457  0.1828 -0.6152
    1SOL    HW2  598   0.737   3.955   1.155  0.1700 -0.5337  0.3918
    1SOL    HW3  599   0.648   3.931   1.035  0.4319  2.1401 -0.3699
    1SOL    MW4  600   0.663   3.924   1.121  0.1867  0.3467 -0.4501
    1SOL     OW  601   1.768   2.420   0.695  0.0338 -0.2581  0.0713
    1SOL    HW2  602   1.835   2.381   0.750 -0.4183 -0.2227  0.6514
    1SOL    HW3  603   1.772   2.514   0.715  1.9282  0.2020 -2.1884
    1SOL    MW4  604   1.777   2.427   0.705  0.2241 -0.1924 -0.1504
    1SOL     OW  605   1.506   3.085   0.818 -0.0745  0.2375 -0.2352
    1SOL    HW2  606   1.584   3.131   0.788  1.6269 -2.5137 -0.2502
    1SOL    HW3  607   1.519   3.075   0.913 -1.2400  1.2341  0.0451
    1SOL    MW4  608   1.518   3.089   0.827 -0.0038  0.0060 -0.2003
    1SOL     OW  609   3.357   2.550   0.430  0.5229 -0.5735 -0.0092
    1SOL    HW2  610   3.314   2.465   0.423  1.1689 -1.0511  1.6770
    1SOL    HW3  611   3.450   2.530   0.440  0.9631  0.4054 -1.7414
    1SOL    MW4  612   3.363   2.536   0.430  0.6661 -0.5074 -0.0153
    1SOL     OW  613   3.970   0.534   0.507 -0.5061 -0.1401  0.5604
    1SOL    HW2  614   3.888   0.551   0.461 -0.9693 -1.3183  0.9280
    1SOL    HW3  615   4.021   0.479   0.447 -0.0065  0.5378  0.3583
    1SOL    MW4  616   3.966   0.529   0.493 -0.5014 -0.2061  0.5821
    1SOL     OW  617   1.550   0.754   0.832 -0.1073 -0.0355  0.1579
    1SOL    HW2  618   1.474   0.790   0.787 -0.1248  0.3747  0.5077
    1SOL    HW3  619   1.555   0.663   0.803 -1.7409 -0.5515  1.4404
    1SOL    MW4  620   1.541   0.747   0.822 -0.3251 -0.0495  0.3732
    1SOL     OW  621   0.430   4.257   0.839 -0.3811 -0.1327 -0.1286
    1SOL    HW2  622   0.443   4.250   0.934  1.8796  1.0226 -0.3150
    1SOL    HW3  623   0.443   4.168   0.807 -2.1471 -0.7275  0.7262
    1SOL    MW4  624   0.433   4.244   0.848 -0.3158 -0.0591 -0.0404
    1SOL     OW  625   0.478   1.663   0.718  0.1702 -0.0920 -0.1558
    1SOL    HW2  626   0.562   1.622   0.739 -0.1906  0.1828  1.8998
    1SOL    HW3  627   0.412   1.607   0.758 -0.4739  1.1332  0.5235
    1SOL    MW4  628   0.480   1.651   0.726  0.0376  0.1061  0.2050
    1SOL     OW  629   1.041   3.860   0.368 -0.1598  0.2117 -0.1144
    1SOL    HW2  630   1.048   3.783   0.425  0.3562  0.1637 -0.2356
    1SOL    HW3  631   1.003   3.927   0.424 -0.4715 -0.0875  0.0365
    1SOL    MW4  632   1.037   3.859   0.383 -0.1328  0.1657 -0.1105
    1SOL     OW  633   1.086   0.003   0.300  0.3436 -0.0073  0.2578
    1SOL    HW2  634   1.108   0.094   0.280  2.7378 -0.3530  1.1943
    1SOL    HW3  635   0.990   0.001   0.302  0.2513  2.1833 -1.1355
    1SOL    MW4  636   1.076   0.014   0.298  0.6473  0.2360  0.1976
    1SOL     OW  637   2.237   0.319   0.871 -0.0520  0.0284  0.1240
    1SOL    HW2  638   2.227   0.246   0.810 -0.1816 -1.7245  2.1840
    1SOL    HW3  639   2.301   0.376   0.828 -0.0161 -1.2303 -1.5809
    1SOL    MW4  640   2.244   0.317   0.857 -0.0644 -0.3690  0.1708
    1SOL     OW  641   3.140   1.671   0.398  0.2869 -0.0750 -0.1353
    1SOL    HW2  642   3.166   1.659   0.489  0.2636 -0.5563 -0.1918
    1SOL    HW3  643   3.187   1.749   0.370  1.9033 -1.0853 -0.3200
    1SOL    MW4  644   3.150   1.680   0.406  0.4973 -0.2718 -0.1671
    1SOL     OW  645   2.322   2.195   0.418 -0.0807  0.5208  0.6227
    1SOL    HW2  646   2.235   2.156   0.427 -0.6958  1.8667  0.5904
    1SOL    HW3  647   2.334   2.245   0.499  1.7008 -1.6410  1.7567
    1SOL    MW4  648   2.312   2.196   0.430  0.0732  0.4134  0.7681
    1SOL     OW  649   4.362   0.847   0.470 -0.1944  0.2404  0.1939
    1SOL    HW2  650   4.356   0.922   0.411 -1.2119  0.5115  0.6317
    1SOL    HW3  651   4.379   0.885   0.556 -0.4385 -0.0416  0.3671
    1SOL    MW4  652   4.364   0.862   0.474 -0.3605  0.2390  0.2745
    1SOL     OW  653   3.860   0.495   0.765 -0.0501 -0.1058  0.1764
    1SOL    HW2  654   3.899   0.508   0.679  1.8734  0.4328  1.1053
    1SOL    HW3  655   3.852   0.583   0.801 -0.1348 -0.3930  0.8636
    1SOL    MW4  656   3.864   0.508   0.758  0.1926 -0.0727  0.3896
    1SOL     OW  657   1.736   3.788   0.380  0.0473  0.1980  0.5525
    1SOL    HW2  658   1.689   3.795   0.297 -1.6928 -1.2531  1.3930
    1SOL    HW3  659   1.719   3.872   0.424  0.6674  0.8238 -0.3769
    1SOL    MW4  660   1.728   3.800   0.375 -0.1005  0.0892  0.5407
    1SOL     OW  661   2.461   0.774   1.098  0.1366  0.2942 -0.3228
    1SOL    HW2  662   2.463   0.681   1.120  0.3500 -0.0455 -1.6900
    1SOL    HW3  663   2.473   0.776   1.003 -0.5068  1.6834 -0.3922
    1SOL    MW4  664   2.463   0.762   1.088  0.0799  0.4327 -0.5124
    1SOL     OW  665   0.113   0.721   0.407 -0.4207 -0.3928 -0.2695
    1SOL    HW2  666   0.103   0.634   0.447  0.2166  0.1630  1.1368
    1SOL    HW3  667   0.028   0.762   0.418 -0.7313 -0.8538 -0.9575
    1SOL    MW4  668   0.101   0.715   0.414 -0.3776 -0.3803 -0.1748
    1SOL     OW  669   2.690   4.215   1.156  0.0341 -0.2122 -0.3146
    1SOL    HW2  670   2.687   4.206   1.061  0.6626  3.2434 -0.7209
    1SOL    HW3  671   2.607   4.254   1.180 -0.3367 -1.5469  0.6568
    1SOL    MW4  672   2.679   4.219   1.147  0.0682  0.0672 -0.2401
    1SOL     OW  673   2.202   0.118   0.690  0.3889  0.2560 -0.0945
    1SOL    HW2  674   2.275   0.065   0.656  1.0753  0.4975  0.9740
    1SOL    HW3  675   2.145   0.055   0.734  0.2975  0.1650 -0.3401
    1SOL    MW4  676   2.204   0.103   0.691  0.4675  0.2759  0.0141
    1SOL     OW  677   2.226   0.882   0.681  0.6517  0.0947  0.0805
    1SOL    HW2  678   2.229   0.961   0.734  0.8838 -0.7437  1.3563
    1SOL    HW3  679   2.171   0.822   0.731 -1.2228  0.1478 -1.8723
    1SOL    MW4  680   2.219   0.884   0.694  0.4349 -0.0089 -0.0088
    1SOL     OW  681   0.875   4.305   0.857 -0.1090  0.5199  0.4933
    1SOL    HW2  682   0.871   4.314   0.952  0.5526 -0.0324  0.5708
    1SOL    HW3  683   0.880   4.211   0.841  1.9201  0.6914  0.0017
    1SOL    MW4  684   0.875   4.294   0.867  0.2460  0.4697  0.4387
    1SOL     OW  685   4.009   1.844   0.495 -0.3213  0.0536 -0.0806
    1SOL    HW2  686   3.937   1.788   0.467 -0.1190 -0.3551  0.2170
    1SOL    HW3  687   4.041   1.804   0.576 -1.0304  1.3461  0.8617
    1SOL    MW4  688   4.004   1.832   0.502 -0.3886  0.1701  0.0830
    1SOL     OW  689   3.023   2.644   0.400  0.0276 -0.0306  0.0148
    1SOL    HW2  690   3.114   2.667   0.384 -0.0675 -0.1963 -0.7809
    1SOL    HW3  691   2.973   2.714   0.359 -0.2259 -0.5792 -0.6175
    1SOL    MW4  692   3.028   2.656   0.393 -0.0184 -0.1247 -0.1736
    1SOL     OW  693   2.818   3.203   0.645  0.0857 -0.2714  0.3902
    1SOL    HW2  694   2.725   3.210   0.666  0.7178  2.3730  2.6461
    1SOL    HW3  695   2.851   3.135   0.704 -0.4273 -1.4560 -0.6495
    1SOL    MW4  696   2.810   3.195   0.655  0.1013 -0.0789  0.5507
    1SOL     OW  697   0.040   1.629   0.756  0.1291  0.2098 -0.6677
    1SOL    HW2  698   0.033   1.656   0.664  0.2799 -0.5582 -0.9119
    1SOL    HW3  699  -0.046   1.591   0.776  0.7508 -1.4790 -1.1106
    1SOL    MW4  700   0.028   1.627   0.746  0.2310 -0.1144 -0.7584
    1SOL     OW  701   0.955   2.443   0.512 -0.2611  0.1965 -0.3290
    1SOL    HW2  702   0.919   2.356   0.497  0.1469 -0.0157 -0.1075
    1SOL    HW3  703   1.045   2.438   0.479 -0.3295  0.6213 -0.5835
    1SOL    MW4  704   0.962   2.431   0.506 -0.2163  0.2246 -0.3334
    1SOL     OW  705   0.450   0.393   0.858 -0.1846  0.1951  0.2034
    1SOL    HW2  706   0.466   0.388   0.952 -1.2666  2.3315  0.5243
    1SOL    HW3  707   0.426   0.303   0.833 -1.0088 -0.1497  2.1657
    1SOL    MW4  708   0.449   0.380   0.867 -0.4361  0.4314  0.5047
    1SOL     OW  709   4.068   0.340   0.930 -0.1321  0.0373 -0.0048
    1SOL    HW2  710   4.007   0.383   0.870  1.4847  0.2690 -1.5473
    1SOL    HW3  711   4.066   0.248   0.905  0.4101  0.1056 -0.3221
    1SOL    MW4  712   4.060   0.334   0.919  0.1531  0.0769 -0.2502
    1SOL     OW  713   0.905   0.138   0.709  0.5568 -0.2504  0.3259
    1SOL    HW2  714   0.822   0.109   0.745 -0.0490  0.4832 -0.4688
    1SOL    HW3  715   0.886   0.159   0.618  1.5051  0.3809  0.2650
    1SOL    MW4  716   0.892   0.137   0.702  0.6019 -0.0703  0.2130
    1SOL     OW  717   1.800   1.938   0.800 -0.3163 -0.2893  0.4453
    1SOL    HW2  718   1.721   1.975   0.761 -0.2841 -0.8351 -0.1443
    1SOL    HW3  719   1.803   1.848   0.768  1.0018 -0.0223 -0.2222
    1SOL    MW4  720   1.790   1.931   0.791 -0.1380 -0.3262  0.2795
    1SOL     OW  721   0.180   4.069   0.417  0.1686  0.2786  0.1369
    1SOL    HW2  722   0.259   4.019   0.439  0.1346 -0.0915 -0.5349
    1SOL    HW3  723   0.198   4.104   0.329 -1.2049 -1.4964 -0.8865
    1SOL    MW4  724   0.193   4.067   0.408 -0.0171 -0.0048 -0.0868
    1SOL     OW  725   3.154   1.158   0.805  0.3223 -0.1288 -0.1211
    1SOL    HW2  726   3.162   1.153   0.900 -0.9474  0.0308  0.0068
    1SOL    HW3  727   3.232   1.206   0.776 -0.8045  2.5290  1.1350
    1SOL    MW4  728   3.165   1.163   0.814  0.0064  0.2429  0.0616
    1SOL     OW  729   3.398   4.620   1.118 -0.6932  0.0020  0.0401
    1SOL    HW2  730   3.317   4.635   1.167 -0.6571  0.1038  0.0691
    1SOL    HW3  731   3.464   4.673   1.163 -0.5708 -0.2157  0.1199
    1SOL    MW4  732   3.396   4.629   1.130 -0.6723 -0.0134  0.0545
    1SOL     OW  733   2.110   1.244   0.472  0.1108 -0.4823 -0.1127
    1SOL    HW2  734   2.189   1.299   0.468 -1.0649  1.1500 -1.9567
    1SOL    HW3  735   2.076   1.257   0.560  1.2053 -0.1808  0.2722
    1SOL    MW4  736   2.116   1.253   0.483  0.0999 -0.2273 -0.3052
    1SOL     OW  737   3.637   2.520   0.498  0.4295 -0.6755  0.0243
    1SOL    HW2  738   3.616   2.499   0.589 -0.8158  0.7560  0.0784
    1SOL    HW3  739   3.654   2.614   0.498 -0.7019 -0.4602 -1.4108
    1SOL    MW4  740   3.636   2.529   0.510  0.1161 -0.4580 -0.1578
    1SOL     OW  741   1.856   1.064   0.166 -0.3799 -0.2336  0.4256
    1SOL    HW2  742   1.762   1.067   0.147 -0.7087  0.0895  2.0247
    1SOL    HW3  743   1.880   1.155   0.184  0.1103 -0.4044  0.6311
    1SOL    MW4  744   1.846   1.076   0.166 -0.3586 -0.2135  0.6637
    1SOL     OW  745   4.307   1.803   0.372 -0.4328  0.0797 -0.0898
    1SOL    HW2  746   4.217   1.784   0.399 -0.2544 -0.2004  0.3199
    1SOL    HW3  747   4.319   1.755   0.290 -1.1970  1.4737 -1.0404
    1SOL    MW4  748   4.297   1.794   0.365 -0.5097  0.2265 -0.1611
    1SOL     OW  749   3.774   3.961   0.863  0.1880 -0.0767 -0.1751
    1SOL    HW2  750   3.863   3.977   0.830  0.4003  0.0754  0.4645
    1SOL    HW3  751   3.752   3.874   0.831  0.0679  0.4045 -1.4153
    1SOL    MW4  752   3.783   3.952   0.855  0.2005  0.0069 -0.2544
    1SOL     OW  753   2.556   3.277   0.721  0.2493 -0.6142  0.0522
    1SOL    HW2  754   2.502   3.253   0.645 -1.5730  0.5383  0.9389
    1SOL    HW3  755   2.542   3.205   0.783  1.1040 -1.1579 -0.3734
    1SOL    MW4  756   2.547   3.264   0.719  0.1218 -0.5341  0.1131
    1SOL     OW  757   0.074   3.536   0.392  0.2517 -0.3990 -0.3738
    1SOL    HW2  758  -0.005   3.562   0.440  0.0139 -0.3477 -0.7841
    1SOL    HW3  759   0.049   3.544   0.300  0.8090 -0.1683 -0.5077
    1SOL    MW4  760   0.060   3.540   0.386  0.2939 -0.3617 -0.4456
    1SOL     OW  761   1.893   1.893   0.382  0.0489 -0.7197 -0.2976
    1SOL    HW2  762   1.832   1.881   0.309 -2.0317  0.2794  1.2437
    1SOL    HW3  763   1.898   1.807   0.424  0.8452 -1.1626 -1.2606
    1SOL    MW4  764   1.886   1.880   0.378 -0.1205 -0.6462 -0.2213
    1SOL     OW  765   0.917   1.927   1.107 -0.3842 -0.9279  0.3638
    1SOL    HW2  766   0.997   1.961   1.145  0.0466 -1.9772  0.4062
    1SOL    HW3  767   0.847   1.976   1.152  0.2429  0.7300 -0.4222
    1SOL    MW4  768   0.918   1.938   1.118 -0.2446 -0.8477  0.2657
    1SOL     OW  769   1.670   0.526   0.283  0.1220 -0.0453 -0.4009
    1SOL    HW2  770   1.649   0.617   0.300  0.7546 -0.2342  1.4681
    1SOL    HW3  771   1.765   0.521   0.289  0.0332 -0.9913  0.3721
    1SOL    MW4  772   1.680   0.537   0.286  0.1938 -0.1950 -0.0523
    1SOL     OW  773   3.099   2.115   0.304 -0.0574 -0.2011  0.6864
    1SOL    HW2  774   3.005   2.117   0.323  0.2141  0.8606  1.9707
    1SOL    HW3  775   3.124   2.023   0.314 -1.0567 -0.5956 -0.2467
    1SOL    MW4  776   3.089   2.103   0.308 -0.1531 -0.1135  0.7327
    1SOL     OW  777   0.208   2.002   0.481  0.1829 -0.1888  0.3963
    1SOL    HW2  778   0.284   1.979   0.427  0.6268 -2.7169  1.9929
    1SOL    HW3  779   0.244   2.029   0.565 -0.5982  0.5231  0.5099
    1SOL    MW4  780   0.222   2.002   0.485  0.1384 -0.4282  0.6219
    1SOL     OW  781   0.067   1.745   0.511  0.8762 -0.1746 -0.0204
    1SOL    HW2  782  -0.016   1.758   0.466  0.6100 -1.0682  0.2030
    1SOL    HW3  783   0.114   1.827   0.499 -0.3021  0.5729  0.4133
    1SOL    MW4  784   0.062   1.757   0.503  0.6857 -0.1938  0.0663
    1SOL     OW  785   2.020   1.289   0.735  0.2869 -0.1462 -0.0100
    1SOL    HW2  786   1.945   1.238   0.768  0.1191 -1.3810 -2.2092
    1SOL    HW3  787   2.096   1.236   0.759  0.2117 -0.6739 -0.9115
    1SOL    MW4  788   2.020   1.275   0.743  0.2546 -0.3788 -0.4191
    1SOL     OW  789   2.225   3.159   0.761  0.0012 -0.6120  0.1267
    1SOL    HW2  790   2.298   3.101   0.783  0.0689 -0.5513  0.0634
    1SOL    HW3  791   2.245   3.240   0.808 -0.9265 -1.1790  1.5486
    1SOL    MW4  792   2.237   3.162   0.770 -0.1125 -0.6788  0.3060
    1SOL     OW  793   2.466   0.692   0.419 -0.1047 -0.1131  0.5695
    1SOL    HW2  794   2.407   0.620   0.443 -2.5703  1.9465  0.8628
    1SOL    HW3  795   2.407   0.763   0.393  2.3060  1.5718 -0.3978
    1SOL    MW4  796   2.450   0.692   0.418 -0.1116  0.3809  0.4805
    1SOL     OW  797   0.670   3.045   0.872 -0.7471 -0.1749 -0.4138
    1SOL    HW2  798   0.680   2.955   0.841 -1.0884 -0.6205  0.7617
    1SOL    HW3  799   0.597   3.080   0.820 -0.6541 -0.5892 -0.8300
    1SOL    MW4  800   0.662   3.038   0.861 -0.7799 -0.2880 -0.3137
    1SOL     OW  801   0.674   0.013   0.855 -0.8448  0.4454 -0.1504
    1SOL    HW2  802   0.680  -0.006   0.949 -1.6914  0.3094 -0.1191
    1SOL    HW3  803   0.652  -0.071   0.815  1.5601  0.0575 -0.7118
    1SOL    MW4  804   0.672  -0.001   0.862 -0.6392  0.3767 -0.2203
    1SOL     OW  805   4.273   4.104   0.372  0.3097 -0.0738  0.6325
    1SOL    HW2  806   4.355   4.054   0.375  1.1747  1.2338 -0.3569
    1SOL    HW3  807   4.297   4.190   0.408 -0.4372  0.5605 -0.3830
    1SOL    MW4  808   4.287   4.108   0.377  0.3257  0.1826  0.3679
    1SOL     OW  809   1.138   2.905   0.467  0.4669 -0.3315 -0.0882
    1SOL    HW2  810   1.181   2.990   0.454  0.4336  0.0488  2.0340
    1SOL    HW3  811   1.191   2.844   0.417  1.4313  0.6891 -0.3462
    1SOL    MW4  812   1.150   2.908   0.459  0.5898 -0.1464  0.1578
    1SOL     OW  813   2.896   1.853   0.713 -0.1740  0.3114  0.1862
    1SOL    HW2  814   2.821   1.844   0.771 -1.5295 -0.9940 -1.7092
    1SOL    HW3  815   2.883   1.938   0.670 -1.3138 -0.5085 -1.1285
    1SOL    MW4  816   2.884   1.863   0.715 -0.5031  0.0311 -0.2374
    1SOL     OW  817   1.269   3.178   0.708  0.3228  0.6654  0.0288
    1SOL    HW2  818   1.195   3.152   0.763 -0.3558  1.2093 -0.6185
    1SOL    HW3  819   1.344   3.132   0.746 -0.8973 -2.6337 -1.3507
    1SOL    MW4  820   1.269   3.168   0.720  0.0722  0.3018 -0.2387
    1SOL     OW  821   2.819   2.439   0.418  0.2795 -0.0416 -0.6854
    1SOL    HW2  822   2.740   2.489   0.401  0.1308  0.2530  0.8291
    1SOL    HW3  823   2.891   2.500   0.398  0.1029  0.4070  0.0163
    1SOL    MW4  824   2.818   2.454   0.413  0.2365  0.0565 -0.3930
    1SOL     OW  825   2.624   1.734   0.365  0.5824 -0.1836  0.0622
    1SOL    HW2  826   2.607   1.641   0.354 -0.2984 -0.3020  2.2565
    1SOL    HW3  827   2.694   1.739   0.429 -1.3160  0.7172  2.1196
    1SOL    MW4  828   2.631   1.723   0.372  0.2158 -0.0805  0.6232
    1SOL     OW  829   1.571   3.572   0.718  0.2097 -0.1742 -0.1968
    1SOL    HW2  830   1.584   3.549   0.626 -0.6166 -0.0849 -0.3400
    1SOL    HW3  831   1.637   3.521   0.765  0.0721 -0.8777 -0.7579
    1SOL    MW4  832   1.582   3.562   0.712  0.0826 -0.2553 -0.2897
    1SOL     OW  833   0.591   4.372   0.492  0.5469  0.0246  0.1766
    1SOL    HW2  834   0.503   4.403   0.473 -0.0828 -1.0705  1.2538
    1SOL    HW3  835   0.601   4.383   0.586  0.8835 -1.5097  0.3391
    1SOL    MW4  836   0.581   4.378   0.502  0.5082 -0.3219  0.3402
    1SOL     OW  837   0.467   4.000   0.749  0.1571  0.0294  0.0439
    1SOL    HW2  838   0.548   3.970   0.790 -0.6838 -2.8740 -0.2819
    1SOL    HW3  839   0.398   3.953   0.796 -1.0972 -0.0362 -1.8368
    1SOL    MW4  840   0.469   3.989   0.761 -0.1193 -0.3624 -0.2472
    1SOL     OW  841   3.921   1.033   0.388 -0.1352 -0.6971 -0.1156
    1SOL    HW2  842   3.986   1.094   0.422 -1.1072 -0.4451  1.2995
    1SOL    HW3  843   3.949   0.947   0.420  0.1182 -0.7425 -0.4504
    1SOL    MW4  844   3.933   1.029   0.396 -0.2301 -0.6698  0.0270
    1SOL     OW  845   0.903   0.358   0.854 -0.1671  0.2214 -0.2937
    1SOL    HW2  846   0.827   0.407   0.823 -0.7364  0.6670  1.7203
    1SOL    HW3  847   0.912   0.285   0.792 -1.8115  0.5468 -0.9398
    1SOL    MW4  848   0.895   0.355   0.842 -0.4591  0.3232 -0.1131
    1SOL     OW  849   2.441   1.016   0.422  0.4793 -0.2439 -0.1837
    1SOL    HW2  850   2.488   0.983   0.346  0.5190 -0.4705 -0.0612
    1SOL    HW3  851   2.349   0.997   0.403  0.5982 -1.3678  0.3534
    1SOL    MW4  852   2.435   1.009   0.410  0.5004 -0.4221 -0.0966
    1SOL     OW  853   1.356   4.004   1.266 -0.2317 -0.0810  0.7021
    1SOL    HW2  854   1.349   4.089   1.222 -0.3431  0.3425  1.5290
    1SOL    HW3  855   1.420   3.955   1.214 -0.6755  0.2615 -0.1667
    1SOL    MW4  856   1.364   4.009   1.253 -0.3049  0.0200  0.6965
    1SOL     OW  857   0.286   1.538   0.852  0.0471  0.3900 -0.7118
    1SOL    HW2  858   0.208   1.590   0.830  0.3126  0.5596 -1.2544
    1SOL    HW3  859   0.268   1.451   0.817 -0.2415  0.2107 -0.1246
    1SOL    MW4  860   0.274   1.534   0.845  0.0440  0.3886 -0.7059
    1SOL     OW  861   2.864   0.784   0.841  0.1560 -0.3781 -0.0871
    1SOL    HW2  862   2.882   0.775   0.934 -0.5518  1.1691  0.2192
    1SOL    HW3  863   2.947   0.815   0.803 -0.8653  3.8507  0.8524
    1SOL    MW4  864   2.878   0.787   0.848 -0.0718  0.3840  0.0772
    1SOL     OW  865   2.283   4.216   0.373  0.0440 -0.2077 -0.1291
    1SOL    HW2  866   2.196   4.241   0.405  0.8385 -0.0589  2.0151
    1SOL    HW3  867   2.266   4.143   0.314 -1.5291 -0.4184  0.5298
    1SOL    MW4  868   2.269   4.209   0.370 -0.0589 -0.2155  0.2407
    1SOL     OW  869   0.477   3.488   0.855  0.0628 -0.1970  0.1519
    1SOL    HW2  870   0.488   3.490   0.950  0.5994 -0.7374  0.1038
    1SOL    HW3  871   0.498   3.397   0.831 -0.3760 -0.1380 -0.4413
    1SOL    MW4  872   0.481   3.476   0.865  0.0757 -0.2604  0.0673
    1SOL     OW  873   0.478   1.136   0.835 -0.0109  0.0650 -0.2912
    1SOL    HW2  874   0.551   1.197   0.824 -0.0064  0.0274 -0.4613
    1SOL    HW3  875   0.488   1.073   0.764 -0.1728  0.0235 -0.2767
    1SOL    MW4  876   0.489   1.136   0.824 -0.0317  0.0546 -0.3118
    1SOL     OW  877   0.718   2.797   0.742  0.1432 -0.0539  0.1258
    1SOL    HW2  878   0.785   2.771   0.806 -1.4096 -0.5898  1.5683
    1SOL    HW3  879   0.734   2.741   0.667  0.4014 -1.2302  1.0370
    1SOL    MW4  880   0.729   2.786   0.741 -0.0276 -0.2801  0.4364
    1SOL     OW  881   3.127   2.314   0.662  0.1830 -0.1672 -0.5223
    1SOL    HW2  882   3.184   2.305   0.739 -0.0410 -0.7075 -0.4144
    1SOL    HW3  883   3.095   2.404   0.667  1.4600  0.3121 -0.8959
    1SOL    MW4  884   3.130   2.325   0.673  0.3219 -0.1755 -0.5574
    1SOL     OW  885   3.333   3.613   0.743 -0.3392  0.3555  0.0203
    1SOL    HW2  886   3.315   3.617   0.649  1.8506  0.6043 -0.4308
    1SOL    HW3  887   3.323   3.704   0.773 -0.2788  0.4169 -0.1431
    1SOL    MW4  888   3.329   3.626   0.734 -0.0422  0.3965 -0.0608
    1SOL     OW  889   1.319   3.598   0.387 -0.0263 -0.3719 -0.1588
    1SOL    HW2  890   1.328   3.690   0.361 -0.7638  0.2792  1.7841
    1SOL    HW3  891   1.402   3.576   0.429  0.6636 -1.0196 -1.8312
    1SOL    MW4  892   1.331   3.607   0.389 -0.0327 -0.3712 -0.1231
    1SOL     OW  893   3.836   1.275   0.716 -0.2164 -0.3912 -0.1068
    1SOL    HW2  894   3.848   1.307   0.627 -0.0763  0.9427  0.3864
    1SOL    HW3  895   3.762   1.214   0.710 -0.2245 -0.2881 -1.1267
    1SOL    MW4  896   3.828   1.271   0.703 -0.1993 -0.2016 -0.1763
    1SOL     OW  897   4.252   4.603   0.420  0.0446 -0.3123  0.1665
    1SOL    HW2  898   4.277   4.513   0.402 -1.4185 -0.6823 -0.0961
    1SOL    HW3  899   4.325   4.639   0.471  1.5373 -1.0247 -1.4469
    1SOL    MW4  900   4.265   4.596   0.424  0.0482 -0.4549 -0.0810
    1SOL     OW  901   4.354   4.338   0.477 -0.0080 -0.1196  0.0227
    1SOL    HW2  902   4.310   4.370   0.555 -1.4899 -0.1295 -0.7875
    1SOL    HW3  903   4.445   4.328   0.503 -0.2199  1.2120  1.3481
    1SOL    MW4  904   4.360   4.341   0.491 -0.2317  0.0548  0.0907
    1SOL     OW  905   0.232   4.638   0.912  0.0784 -0.2314  0.1883
    1SOL    HW2  906   0.313   4.672   0.874  0.2433 -1.0559 -0.2072
    1SOL    HW3  907   0.219   4.554   0.868 -1.0200 -0.0783  0.2190
    1SOL    MW4  908   0.241   4.631   0.901 -0.0448 -0.3195  0.1402
    1SOL     OW  909   1.583   2.083   0.714 -0.0224 -0.3137 -0.5274
    1SOL    HW2  910   1.511   2.037   0.756  1.2600 -0.8455  1.0954
    1SOL    HW3  911   1.580   2.171   0.751 -0.0421 -0.2290 -0.7272
    1SOL    MW4  912   1.573   2.089   0.724  0.1442 -0.3731 -0.3397
    1SOL     OW  913   3.406   1.249   0.691  0.5302  0.0147  0.2226
    1SOL    HW2  914   3.407   1.340   0.721  0.3617  0.5762 -1.4442
    1SOL    HW3  915   3.445   1.252   0.603  0.1535 -1.4654 -0.0051
    1SOL    MW4  916   3.412   1.262   0.683  0.4582 -0.1063 -0.0274
    1SOL     OW  917   4.319   0.151   0.252  0.1739 -0.1474  0.2797
    1SOL    HW2  918   4.307   0.086   0.321  0.3465 -1.3183 -0.7842
    1SOL    HW3  919   4.308   0.103   0.170  1.1993  0.9747 -0.5428
    1SOL    MW4  920   4.316   0.136   0.250  0.3319 -0.1539  0.0308
    1SOL     OW  921   4.071   0.080   0.831  0.1025  0.6560  0.1561
    1SOL    HW2  922   4.163   0.060   0.843  0.4160  0.9320 -1.6669
    1SOL    HW3  923   4.024   0.004   0.866  1.0749 -0.2954 -0.5861
    1SOL    MW4  924   4.077   0.068   0.837  0.2723  0.5669 -0.1824
    1SOL     OW  925   1.786   3.443   0.859  0.0852 -0.1889 -0.4844
    1SOL    HW2  926   1.809   3.419   0.949  0.5515 -1.4085 -0.9137
    1SOL    HW3  927   1.864   3.486   0.825 -0.2681  0.7225 -0.1493
    1SOL    MW4  928   1.800   3.445   0.866  0.1001 -0.2294 -0.4968
    1SOL     OW  929   2.042   2.037   0.707  0.1035 -0.0415  0.1995
    1SOL    HW2  930   2.031   2.044   0.612  1.0894  2.2623  0.2154
    1SOL    HW3  931   1.966   1.985   0.736  0.5317 -1.9478 -1.9621
    1SOL    MW4  932   2.030   2.031   0.698  0.2899  0.0110 -0.0836
    1SOL     OW  933   0.572   0.347   0.326  0.2222  0.1077 -0.1214
    1SOL    HW2  934   0.600   0.256   0.318 -0.8907 -0.1880 -0.6507
    1SOL    HW3  935   0.477   0.342   0.334  0.1249  1.2555 -0.5752
    1SOL    MW4  936   0.563   0.334   0.326  0.0625  0.2201 -0.2511
    1SOL     OW  937   1.820   2.770   0.363  0.4369 -0.1794  0.0981
    1SOL    HW2  938   1.833   2.749   0.270 -1.4713  0.8224 -0.4225
    1SOL    HW3  939   1.898   2.819   0.388  1.2471 -0.9895 -0.8155
    1SOL    MW4  940   1.832   2.774   0.354  0.2921 -0.1543 -0.0911
    1SOL     OW  941   3.853   1.385   0.466 -0.4161 -0.2093 -0.2910
    1SOL    HW2  942   3.941   1.354   0.443 -0.4430 -0.8122  0.3951
    1SOL    HW3  943   3.858   1.480   0.457  0.4123 -0.2146  0.1091
    1SOL    MW4  944   3.865   1.393   0.462 -0.3104 -0.2897 -0.1477
    1SOL     OW  945   3.303   2.869   0.781  0.1715 -0.2871 -0.4143
    1SOL    HW2  946   3.319   2.963   0.778 -1.2962  0.0087  0.5372
    1SOL    HW3  947   3.340   2.835   0.699  1.4835  0.9791 -0.3562
    1SOL    MW4  948   3.310   2.877   0.769  0.1507 -0.0811 -0.2811
    1SOL     OW  949   0.896   3.425   0.372  0.2473 -0.4175 -0.2837
    1SOL    HW2  950   0.851   3.494   0.324 -0.4642  0.1552  1.1764
    1SOL    HW3  951   0.969   3.400   0.315  0.1915  1.1546 -1.0680
    1SOL    MW4  952   0.900   3.431   0.358  0.1460 -0.1345 -0.1946
    1SOL     OW  953   1.109   3.575   0.747  0.3185 -0.1134 -0.3565
    1SOL    HW2  954   1.100   3.590   0.653  1.2455  1.0608 -0.2705
    1SOL    HW3  955   1.197   3.540   0.758 -0.1898 -1.3004 -0.0433
    1SOL    MW4  956   1.119   3.573   0.736  0.3738 -0.1149 -0.3038
    1SOL     OW  957   3.613   4.327   0.599 -0.0581 -0.2852 -0.1878
    1SOL    HW2  958   3.617   4.286   0.686 -0.0447 -0.4486 -0.2658
    1SOL    HW3  959   3.521   4.348   0.586  0.1503  1.2053  0.5480
    1SOL    MW4  960   3.601   4.325   0.609 -0.0288 -0.1101 -0.1010
    1SOL     OW  961   1.390   1.925   0.834 -0.1311  0.3074  0.1941
    1SOL    HW2  962   1.395   1.913   0.929 -0.0505 -0.0718  0.1435
    1SOL    HW3  963   1.313   1.980   0.821 -0.2999  0.1362  0.4603
    1SOL    MW4  964   1.381   1.931   0.845 -0.1428  0.2350  0.2226
    1SOL     OW  965   0.257   1.294   0.749  0.3506 -0.3659 -0.2428
    1SOL    HW2  966   0.314   1.223   0.778  0.6274 -0.1149 -0.1630
    1SOL    HW3  967   0.286   1.312   0.659  0.4335 -0.2019 -0.1833
    1SOL    MW4  968   0.269   1.287   0.741  0.3981 -0.3113 -0.2245
    1SOL     OW  969   2.114   2.910   0.471 -0.1122 -0.1207  0.0841
    1SOL    HW2  970   2.098   2.858   0.550  0.1223 -0.3397 -0.0085
    1SOL    HW3  971   2.151   2.847   0.408  1.0407  0.3457  0.2774
    1SOL    MW4  972   2.117   2.895   0.473  0.0706 -0.0880  0.0974
    1SOL     OW  973   4.036   1.948   0.829 -0.4565 -0.0729 -0.3077
    1SOL    HW2  974   4.034   1.967   0.923 -0.6276  0.2328 -0.3703
    1SOL    HW3  975   4.116   1.989   0.798  0.8537 -2.2577  0.1291
    1SOL    MW4  976   4.046   1.956   0.838 -0.3061 -0.3208 -0.2584
    1SOL     OW  977   3.503   2.084   0.455 -0.0567 -0.4182 -0.8742
    1SOL    HW2  978   3.474   2.074   0.546 -0.5862 -1.8644 -1.1985
    1SOL    HW3  979   3.447   2.154   0.421  0.5954  0.6046  0.0850
    1SOL    MW4  980   3.492   2.092   0.463 -0.0405 -0.4740 -0.7904
    1SOL     OW  981   1.295   2.164   0.370 -0.0412 -0.0176 -0.2870
    1SOL    HW2  982   1.387   2.150   0.390 -0.1569  0.1324  0.3699
    1SOL    HW3  983   1.281   2.257   0.389 -0.2059  0.0766 -0.8663
    1SOL    MW4  984   1.305   2.175   0.375 -0.0782  0.0145 -0.2767
    1SOL     OW  985   0.229   0.936   0.521 -0.2796  0.3371 -0.4273
    1SOL    HW2  986   0.167   0.936   0.594 -0.9355  1.2761 -0.9699
    1SOL    HW3  987   0.213   0.853   0.476  0.1135 -0.2372  0.4670
    1SOL    MW4  988   0.219   0.925   0.525 -0.3143  0.3853 -0.3809
    1SOL     OW  989   1.974   3.617   0.466  0.3453  0.2156  0.8218
    1SOL    HW2  990   1.914   3.684   0.433  0.8081  0.4827  0.5264
    1SOL    HW3  991   2.061   3.652   0.448  0.5971 -1.5493 -1.5758
    1SOL    MW4  992   1.977   3.631   0.459  0.4396  0.0179  0.4665
    1SOL     OW  993   1.920   3.973   0.263  0.1231  0.1649 -0.1803
    1SOL    HW2  994   1.863   4.049   0.272  0.1909  0.1821  0.1325
    1SOL    HW3  995   1.865   3.898   0.289  0.5240  0.2941  1.1108
    1SOL    MW4  996   1.905   3.973   0.268  0.1849  0.1845  0.0313
    1SOL     OW  997   2.017   4.601   0.824  0.1676  0.6647  0.5748
    1SOL    HW2  998   2.023   4.587   0.918 -1.8682 -0.1218  0.6043
    1SOL    HW3  999   2.019   4.513   0.786 -3.8539  0.6195  0.2188
    1SOL    MW4 1000   2.018   4.588   0.831 -0.6318  0.5546  0.5317
    1SOL     OW 1001   4.362   0.390   0.552  0.2927  0.1553 -0.5446
    1SOL    HW2 1002   4.326   0.427   0.633  0.8512  1.3313 -0.8179
    1SOL    HW3 1003   4.290   0.397   0.489 -0.7814 -2.5238  0.3305
    1SOL    MW4 1004   4.347   0.396   0.555  0.2241 -0.0431 -0.4652
    1SOL     OW 1005   1.141   1.048   0.349  0.1306 -0.1247 -0.1137
    1SOL    HW2 1006   1.225   1.011   0.376  0.4377 -0.3056 -1.2627
    1SOL    HW3 1007   1.162   1.101   0.272 -0.6497  0.6759  0.2197
    1SOL    MW4 1008   1.155   1.050   0.342  0.0682 -0.0429 -0.2213
    1SOL     OW 1009   1.580   2.831   0.715 -0.1459 -0.2907  0.2285
    1SOL    HW2 1010   1.567   2.923   0.740 -0.5028 -0.5255  0.9115
    1SOL    HW3 1011   1.575   2.831   0.620 -3.6342 -0.1259  0.3692
    1SOL    MW4 1012   1.578   2.843   0.706 -0.6534 -0.2999  0.3372
    1SOL     OW 1013   2.409   0.517   0.760  0.0498  0.4299  0.2039
    1SOL    HW2 1014   2.430   0.603   0.795  2.5005  0.1296 -0.3931
    1SOL    HW3 1015   2.492   0.469   0.764 -0.8229 -1.2572 -1.2318
    1SOL    MW4 1016   2.423   0.522   0.765  0.2580  0.1676 -0.0643
    1SOL     OW 1017   4.475   0.913   0.741 -0.1133  0.2060 -0.2361
    1SOL    HW2 1018   4.553   0.884   0.789 -1.8974 -1.4466  1.7690
    1SOL    HW3 1019   4.462   1.003   0.768  0.5178  0.1608  0.2288
    1SOL    MW4 1020   4.483   0.921   0.751 -0.2651 -0.0181  0.0898
    1SOL     OW 1021   1.356   0.119   0.484  0.3082 -0.3894  0.2061
    1SOL    HW2 1022   1.265   0.092   0.479 -0.0183  0.7623 -0.2411
    1SOL    HW3 1023   1.354   0.214   0.474  1.6036 -0.4095 -0.4966
    1SOL    MW4 1024   1.344   0.128   0.482  0.4359 -0.2401  0.0544
    1SOL     OW 1025   1.947   0.578   0.265 -0.0060 -0.3637 -0.2155
    1SOL    HW2 1026   2.006   0.571   0.190 -0.3800 -0.4403 -0.5050
    1SOL    HW3 1027   1.947   0.672   0.286  0.6641 -0.4409  0.1518
    1SOL    MW4 1028   1.955   0.590   0.258  0.0330 -0.3840 -0.2053
    1SOL     OW 1029   0.721   1.605   0.814 -0.1506 -0.2314  0.1131
    1SOL    HW2 1030   0.719   1.606   0.909  0.2525  0.9858  0.1115
    1SOL    HW3 1031   0.811   1.627   0.791 -0.5393  0.7300 -0.5516
    1SOL    MW4 1032   0.732   1.608   0.823 -0.1487  0.0560  0.0253
    1SOL     OW 1033   0.476   1.926   0.834 -0.1532  0.0639  0.4574
    1SOL    HW2 1034   0.482   1.925   0.929  0.2196  0.1605  0.4357
    1SOL    HW3 1035   0.465   1.835   0.809  0.0509  0.0065  0.5748
    1SOL    MW4 1036   0.475   1.914   0.843 -0.0771  0.0691  0.4700
    1SOL     OW 1037   1.283   2.703   0.329 -0.2296 -0.2510 -0.1579
    1SOL    HW2 1038   1.257   2.719   0.239 -0.1977  0.6303 -0.0147
    1SOL    HW3 1039   1.374   2.732   0.334  0.2586 -1.7230 -0.2241
    1SOL    MW4 1040   1.292   2.709   0.318 -0.1609 -0.3288 -0.1477
    1SOL     OW 1041   3.604   4.182   0.849  0.5271  0.1295 -0.2663
    1SOL    HW2 1042   3.665   4.109   0.853 -1.8077 -1.8402  0.0797
    1SOL    HW3 1043   3.585   4.203   0.940 -0.2317 -0.0513 -0.3808
    1SOL    MW4 1044   3.609   4.175   0.861  0.1190 -0.1540 -0.2357
    1SOL     OW 1045   4.267   1.522   0.818 -0.3343 -0.1300 -0.0009
    1SOL    HW2 1046   4.273   1.513   0.913 -3.5863 -0.2367  0.2502
    1SOL    HW3 1047   4.258   1.433   0.786 -0.2794 -0.0186 -0.3299
    1SOL    MW4 1048   4.267   1.509   0.826 -0.7563 -0.1295 -0.0111
    1SOL     OW 1049   0.258   3.594   0.741  0.2969 -0.2048  0.3190
    1SOL    HW2 1050   0.340   3.556   0.772 -0.0861 -0.6466  0.8256
    1SOL    HW3 1051   0.192   3.555   0.799 -0.3227 -0.2614 -0.4280
    1SOL    MW4 1052   0.260   3.584   0.753  0.1646 -0.2704  0.2874
    1SOL     OW 1053   1.146   1.529   0.862 -0.2371 -0.1500 -0.0647
    1SOL    HW2 1054   1.140   1.556   0.954  0.3122 -0.7506  0.1530
    1SOL    HW3 1055   1.078   1.579   0.818 -0.7199 -0.0986  0.7283
    1SOL    MW4 1056   1.137   1.540   0.869 -0.2283 -0.2224  0.0687
    1SOL     OW 1057   0.924   2.698   0.897 -0.3662 -0.2204 -0.3021
    1SOL    HW2 1058   0.987   2.759   0.857  0.0756 -0.2743  0.3086
    1SOL    HW3 1059   0.932   2.713   0.991 -1.6151  0.0959 -0.2425
    1SOL    MW4 1060   0.934   2.708   0.904 -0.4727 -0.1857 -0.2138
    1SOL     OW 1061   2.517   2.232   0.824 -0.2929  0.2483  0.3805
    1SOL    HW2 1062   2.484   2.306   0.774 -0.6112  0.4251  0.8411
    1SOL    HW3 1063   2.611   2.245   0.830  0.0704 -0.9637 -2.1101
    1SOL    MW4 1064   2.525   2.243   0.818 -0.2871  0.1116  0.1127
    1SOL     OW 1065   0.828   3.678   0.265  0.0952 -0.4325  0.1239
    1SOL    HW2 1066   0.910   3.724   0.283  0.2569  0.0824 -1.8491
    1SOL    HW3 1067   0.789   3.726   0.192 -1.2067 -1.6135  0.0312
    1SOL    MW4 1068   0.834   3.690   0.258 -0.0552 -0.5205 -0.1486
    1SOL     OW 1069   1.588   1.595   0.319 -0.3976 -0.5710  0.1796
    1SOL    HW2 1070   1.603   1.507   0.283  0.8226 -0.6405  0.8165
    1SOL    HW3 1071   1.507   1.586   0.369  0.5432 -1.7689  1.5472
    1SOL    MW4 1072   1.579   1.582   0.321 -0.1125 -0.7381  0.4441
    1SOL     OW 1073   1.529   2.336   0.826 -0.2566 -0.2430 -0.2190
    1SOL    HW2 1074   1.606   2.377   0.788 -0.6986  1.3962  0.6061
    1SOL    HW3 1075   1.455   2.384   0.789 -0.7350  0.4789  1.6294
    1SOL    MW4 1076   1.530   2.348   0.816 -0.3781  0.0684  0.1338
    1SOL     OW 1077   0.942   0.650   0.345  0.3656  0.0713 -0.7976
    1SOL    HW2 1078   0.862   0.612   0.381  1.1517 -0.0422  0.8877
    1SOL    HW3 1079   0.961   0.597   0.268 -0.9880 -0.1156 -1.0136
    1SOL    MW4 1080   0.934   0.638   0.340  0.2907  0.0317 -0.6037
    1SOL     OW 1081   3.781   0.122   0.577 -0.1671  0.2295  0.0500
    1SOL    HW2 1082   3.874   0.108   0.591 -0.1292 -0.9239 -1.1824
    1SOL    HW3 1083   3.738   0.060   0.636 -0.1148 -0.4648 -0.6334
    1SOL    MW4 1084   3.788   0.112   0.586 -0.1554 -0.0143 -0.2027
    1SOL     OW 1085   2.293   0.485   0.499  0.1196 -0.1866 -0.4667
    1SOL    HW2 1086   2.307   0.493   0.593  0.4865 -0.8873 -0.4558
    1SOL    HW3 1087   2.199   0.471   0.489 -0.3110  2.3011 -0.3824
    1SOL    MW4 1088   2.283   0.484   0.510  0.1111  0.0491 -0.4541
    1SOL     OW 1089   1.739   3.283   0.452 -0.3528 -0.1682 -0.6308
    1SOL    HW2 1090   1.760   3.243   0.536 -0.3724 -1.3713 -1.1833
    1SOL    HW3 1091   1.824   3.305   0.414 -0.3796  1.6386  0.2735
    1SOL    MW4 1092   1.753   3.281   0.458 -0.3589 -0.0887 -0.5844
    1SOL     OW 1093   4.056   0.102   0.537 -0.0276 -0.1295 -0.1347
    1SOL    HW2 1094   4.091   0.020   0.501  0.2230  0.2486 -0.7644
    1SOL    HW3 1095   4.092   0.107   0.626  0.9127 -0.1137 -0.5173
    1SOL    MW4 1096   4.065   0.092   0.544  0.1297 -0.0776 -0.2683
    1SOL     OW 1097   0.878   0.946   0.706 -0.0649 -0.1069 -0.1008
    1SOL    HW2 1098   0.908   0.940   0.616  0.1946 -1.2268  0.0514
    1SOL    HW3 1099   0.950   0.910   0.758 -0.8794 -1.0066  0.4255
    1SOL    MW4 1100   0.892   0.941   0.701 -0.1382 -0.3734 -0.0113
    1SOL     OW 1101   1.318   1.636   0.468  0.1882 -0.1096  0.0946
    1SOL    HW2 1102   1.322   1.648   0.563  0.7212  0.3566  0.0158
    1SOL    HW3 1103   1.292   1.545   0.456  2.7146 -0.9406  0.6723
    1SOL    MW4 1104   1.315   1.626   0.479  0.5919 -0.1577  0.1604
    1SOL     OW 1105   1.497   0.307   0.175 -0.1411  0.3862  0.0281
    1SOL    HW2 1106   1.533   0.225   0.210 -0.7481  0.0371 -0.1536
    1SOL    HW3 1107   1.537   0.375   0.228  3.5246  0.2809 -2.4293
    1SOL    MW4 1108   1.507   0.305   0.187  0.2625  0.3262 -0.3201
    1SOL     OW 1109   0.435   1.219   1.100  0.0225  0.3047 -0.6466
    1SOL    HW2 1110   0.447   1.191   1.009  0.4798 -0.9628 -0.2068
    1SOL    HW3 1111   0.523   1.239   1.131  0.0107 -0.4930 -0.0963
    1SOL    MW4 1112   0.448   1.218   1.092  0.0812  0.0322 -0.5161
    1SOL     OW 1113   4.258   3.887   0.845 -0.4893  0.2755  0.0265
    1SOL    HW2 1114   4.347   3.912   0.820 -0.3946  1.4108  1.3680
    1SOL    HW3 1115   4.261   3.883   0.941 -1.8769  0.3223  0.0814
    1SOL    MW4 1116   4.270   3.890   0.855 -0.6595  0.4315  0.2107
    1SOL     OW 1117   0.926   4.065   0.508  0.4366  0.3046  0.2798
    1SOL    HW2 1118   0.959   4.148   0.473 -0.8314  1.2401  1.2486
    1SOL    HW3 1119   0.831   4.070   0.494  0.1250 -0.1206  2.0966
    1SOL    MW4 1120   0.918   4.077   0.501  0.2282  0.3719  0.6473
    1SOL     OW 1121   3.897   2.929   0.385  0.4072  0.0524  0.0904
    1SOL    HW2 1122   3.835   2.885   0.442  0.3183  0.6330  0.4476
    1SOL    HW3 1123   3.950   2.982   0.443  0.5783  0.3381 -0.3217
    1SOL    MW4 1124   3.895   2.930   0.400  0.4179  0.1669  0.0832
    1SOL     OW 1125   0.436   0.123   0.781 -0.2876 -0.2301 -0.0449
    1SOL    HW2 1126   0.439   0.130   0.685  0.5263  0.1417  0.0012
    1SOL    HW3 1127   0.526   0.103   0.806 -0.1991  1.0678  0.7409
    1SOL    MW4 1128   0.448   0.121   0.771 -0.1685 -0.0098  0.0648
    1SOL     OW 1129   2.476   1.567   0.880 -0.3748 -0.5825  0.3099
    1SOL    HW2 1130   2.524   1.648   0.860 -0.4234 -0.5130  0.4663
    1SOL    HW3 1131   2.494   1.509   0.807 -0.7637 -0.2388 -0.0647
    1SOL    MW4 1132   2.485   1.570   0.868 -0.4325 -0.5281  0.2811
    1SOL     OW 1133   4.322   4.637   0.891  0.0457 -0.4293 -0.2493
    1SOL    HW2 1134   4.317   4.616   0.984 -0.6661  0.2436 -0.1325
    1SOL    HW3 1135   4.311   4.552   0.848 -0.5506 -0.6200  0.2654
    1SOL    MW4 1136   4.320   4.623   0.898 -0.1268 -0.3657 -0.1661
    1SOL     OW 1137   2.537   1.968   0.672  0.4112 -0.7156 -0.1697
    1SOL    HW2 1138   2.529   2.056   0.709 -1.3023 -1.4792  1.3469
    1SOL    HW3 1139   2.563   1.983   0.581 -0.6118  1.3714 -0.1508
    1SOL    MW4 1140   2.540   1.982   0.665  0.0503 -0.5410  0.0329
    1SOL     OW 1141   3.709   0.179   0.320 -0.0387  0.4390  0.2425
    1SOL    HW2 1142   3.747   0.104   0.273 -1.0980 -0.6115  1.0380
    1SOL    HW3 1143   3.729   0.162   0.412 -2.0889  0.0742  0.6368
    1SOL    MW4 1144   3.717   0.167   0.326 -0.4492  0.2522  0.3994
    1SOL     OW 1145   3.696   3.140   0.333 -0.4114 -0.0460 -0.3784
    1SOL    HW2 1146   3.739   3.054   0.334 -0.6035 -0.1347  0.7213
    1SOL    HW3 1147   3.765   3.201   0.359 -0.9911 -0.2248  1.6981
    1SOL    MW4 1148   3.711   3.137   0.337 -0.5133 -0.0813  0.0406
    1SOL     OW 1149   1.791   0.169   0.481  0.3450  0.2182  0.2789
    1SOL    HW2 1150   1.783   0.123   0.565 -1.8302 -1.4487 -0.8008
    1SOL    HW3 1151   1.880   0.149   0.452  0.8944  0.2577  1.8563
    1SOL    MW4 1152   1.802   0.160   0.488  0.1305  0.0035  0.3445
    1SOL     OW 1153   1.967   2.285   0.811  0.1465  0.4491  0.3462
    1SOL    HW2 1154   1.981   2.267   0.904 -0.9097 -0.3115  0.3644
    1SOL    HW3 1155   1.987   2.203   0.767  0.3365  0.7160 -0.0739
    1SOL    MW4 1156   1.972   2.272   0.817  0.0322  0.3839  0.2932
    1SOL     OW 1157   3.703   3.717   0.739 -0.2160  0.0640  0.1147
    1SOL    HW2 1158   3.775   3.676   0.691 -1.3403  0.7353 -2.2151
    1SOL    HW3 1159   3.658   3.644   0.782  0.5649 -0.6078 -0.1942
    1SOL    MW4 1160   3.706   3.702   0.738 -0.2613  0.0639 -0.2335
    1SOL     OW 1161   0.227   0.571   0.783  0.2651 -0.2474  0.0267
    1SOL    HW2 1162   0.162   0.520   0.833  0.2713 -0.5828 -0.3042
    1SOL    HW3 1163   0.311   0.532   0.808  0.1894 -1.1274 -1.0622
    1SOL    MW4 1164   0.229   0.559   0.793  0.2559 -0.4078 -0.1606
    1SOL     OW 1165   2.381   2.379   0.616 -0.2494 -0.0099 -0.0616
    1SOL    HW2 1166   2.439   2.452   0.592 -0.3837  0.1736  0.1762
    1SOL    HW3 1167   2.300   2.421   0.643 -0.6754 -0.2836 -0.8846
    1SOL    MW4 1168   2.378   2.395   0.616 -0.3235 -0.0217 -0.1388
    1SOL     OW 1169   2.833   2.156   0.401  0.1594 -0.0844 -0.1271
    1SOL    HW2 1170   2.828   2.252   0.401  1.1625  0.0196  2.5854
    1SOL    HW3 1171   2.742   2.127   0.404 -0.2332  0.7082 -2.7484
    1SOL    MW4 1172   2.821   2.165   0.401  0.2398  0.0339 -0.1151
    1SOL     OW 1173   2.549   2.552   0.433 -0.2120  0.6147  0.0201
    1SOL    HW2 1174   2.525   2.645   0.438  0.8854  0.9600 -0.7321
    1SOL    HW3 1175   2.491   2.516   0.367 -0.5336  0.8076  0.1966
    1SOL    MW4 1176   2.538   2.559   0.425 -0.1097  0.6857 -0.0559
    1SOL     OW 1177   0.420   1.886   0.352 -0.0009 -0.3440 -0.3122
    1SOL    HW2 1178   0.401   1.792   0.359  0.5316 -0.5102 -1.0594
    1SOL    HW3 1179   0.515   1.892   0.361  0.0748  0.0170 -1.2427
    1SOL    MW4 1180   0.430   1.874   0.354  0.0793 -0.3182 -0.5336
    1SOL     OW 1181   3.399   2.817   0.524  0.0047 -0.0573 -0.2420
    1SOL    HW2 1182   3.395   2.727   0.494 -0.8040 -0.1760  0.2116
    1SOL    HW3 1183   3.330   2.862   0.476 -0.1577  0.1338  0.1717
    1SOL    MW4 1184   3.390   2.811   0.514 -0.1235 -0.0477 -0.1276
    1SOL     OW 1185   3.344   4.122   0.757 -0.2467 -0.4270  0.7175
    1SOL    HW2 1186   3.349   4.080   0.671 -0.9240  1.5132 -0.2971
    1SOL    HW3 1187   3.435   4.141   0.780 -0.1800  0.6855 -0.4189
    1SOL    MW4 1188   3.356   4.119   0.749 -0.3271 -0.0243  0.4337
    1SOL     OW 1189   3.428   0.289   0.381 -0.1964  0.1570 -0.6411
    1SOL    HW2 1190   3.513   0.251   0.360 -0.4957 -0.6189 -0.4475
    1SOL    HW3 1191   3.448   0.362   0.439  0.2367 -0.7976  0.4094
    1SOL    MW4 1192   3.442   0.294   0.386 -0.1788 -0.0713 -0.4769
    1SOL     OW 1193   1.374   1.104   0.813 -0.1295  0.6211 -0.5326
    1SOL    HW2 1194   1.385   1.020   0.769  0.8309 -0.2898  1.3640
    1SOL    HW3 1195   1.282   1.127   0.798 -0.5981 -1.1183 -0.4997
    1SOL    MW4 1196   1.363   1.096   0.806 -0.0646  0.2716 -0.2779
    1SOL     OW 1197   2.133   2.479   0.666 -0.1551  0.2540 -0.0465
    1SOL    HW2 1198   2.068   2.491   0.597  0.7423 -0.3919 -1.0050
    1SOL    HW3 1199   2.093   2.415   0.725 -1.0972  1.1145  0.2795
    1SOL    MW4 1200   2.119   2.472   0.665 -0.1612  0.2823 -0.1299
    1SOL     OW 1201   1.103   2.840   0.740  0.0252 -0.0844  0.0242
    1SOL    HW2 1202   1.183   2.793   0.764  0.1674  0.3572  0.4230
    1SOL    HW3 1203   1.122   2.878   0.654  0.1205 -0.2694 -0.0362
    1SOL    MW4 1204   1.116   2.839   0.732  0.0566 -0.0503  0.0688
    1SOL     OW 1205   2.283   1.471   0.474  0.1765 -0.0284 -0.1871
    1SOL    HW2 1206   2.320   1.513   0.396 -0.0108 -0.8442 -0.7278
    1SOL    HW3 1207   2.251   1.543   0.528 -0.3662  0.5135 -1.2139
    1SOL    MW4 1208   2.283   1.486   0.471  0.0803 -0.0645 -0.3940
    1SOL     OW 1209   1.556   0.473   0.750  0.0423 -0.1740 -0.4546
    1SOL    HW2 1210   1.571   0.455   0.657  0.7063 -1.1254 -0.1773
    1SOL    HW3 1211   1.614   0.412   0.795  0.4988  0.9914  0.5762
    1SOL    MW4 1212   1.566   0.463   0.743  0.1903 -0.1458 -0.2820
    1SOL     OW 1213   0.843   4.489   0.343  0.1331 -0.3841 -0.0562
    1SOL    HW2 1214   0.763   4.449   0.378  0.2350 -0.9970 -0.5114
    1SOL    HW3 1215   0.913   4.430   0.370  0.7565  1.4872  2.5244
    1SOL    MW4 1216   0.842   4.476   0.351  0.2287 -0.2189  0.2242
    1SOL     OW 1217   3.316   0.753   0.880  0.2088 -0.5124  0.0569
    1SOL    HW2 1218   3.304   0.661   0.857  0.8472 -0.6299  0.1808
    1SOL    HW3 1219   3.406   0.773   0.855 -0.6808  0.7816 -2.2943
    1SOL    MW4 1220   3.326   0.744   0.874  0.1757 -0.3573 -0.2370
    1SOL     OW 1221   4.112   2.747   0.356  1.0633  0.2812 -0.0167
    1SOL    HW2 1222   4.132   2.784   0.270 -0.6877 -1.1485 -1.0505
    1SOL    HW3 1223   4.031   2.790   0.382  0.2459 -1.1495 -0.2028
    1SOL    MW4 1224   4.104   2.758   0.348  0.7243 -0.0961 -0.1777
    1SOL     OW 1225   2.011   3.583   0.743  0.3753  0.1353  0.1782
    1SOL    HW2 1226   1.982   3.588   0.652 -0.5947  0.5933  0.5070
    1SOL    HW3 1227   2.025   3.674   0.769 -0.3204  0.0721  0.7912
    1SOL    MW4 1228   2.009   3.595   0.734  0.1557  0.1872  0.3025
    1SOL     OW 1229   1.313   3.896   0.321  0.4994  0.0805 -0.7333
    1SOL    HW2 1230   1.217   3.900   0.327  0.5363 -0.0877  0.1035
    1SOL    HW3 1231   1.344   3.959   0.386  0.9536 -0.0266 -0.8425
    1SOL    MW4 1232   1.304   3.905   0.331  0.5642  0.0441 -0.6373
    1SOL     OW 1233   2.420   4.466   0.415 -0.1865  0.2767 -0.3078
    1SOL    HW2 1234   2.392   4.481   0.505  1.2388  1.7888 -0.1061
    1SOL    HW3 1235   2.374   4.386   0.389  0.3223 -0.8622  2.1584
    1SOL    MW4 1236   2.410   4.457   0.423  0.0687  0.3262  0.0442
    1SOL     OW 1237   3.535   2.719   0.858  0.5307  0.4298 -0.0106
    1SOL    HW2 1238   3.552   2.727   0.952 -0.4516 -0.6074  0.2786
    1SOL    HW3 1239   3.472   2.789   0.839  0.9710  0.8397  0.0367
    1SOL    MW4 1240   3.529   2.729   0.868  0.4592  0.3471  0.0338
    1SOL     OW 1241   0.037   0.394   0.909 -0.0540  0.1456  0.1084
    1SOL    HW2 1242  -0.044   0.437   0.883  0.6659  0.9337 -0.8453
    1SOL    HW3 1243   0.031   0.306   0.872  0.1098  0.6329 -1.0949
    1SOL    MW4 1244   0.026   0.388   0.901  0.0626  0.3138 -0.1761
    1SOL     OW 1245   0.913   0.921   0.432 -0.3932 -0.0730 -0.1310
    1SOL    HW2 1246   0.923   0.830   0.404  1.5225 -0.1278  0.6730
    1SOL    HW3 1247   0.982   0.968   0.384 -1.2551  0.9149 -0.4033
    1SOL    MW4 1248   0.924   0.916   0.422 -0.2542  0.0501 -0.0608
    1SOL     OW 1249   3.167   1.886   0.798 -0.7560 -0.4368  0.3421
    1SOL    HW2 1250   3.154   1.910   0.890  1.1531 -0.8249  0.7503
    1SOL    HW3 1251   3.081   1.895   0.758 -1.1892  1.8713  1.6711
    1SOL    MW4 1252   3.154   1.891   0.805 -0.5610 -0.1835  0.5713
    1SOL     OW 1253   1.669   1.254   0.473  0.4046  0.1144 -0.2800
    1SOL    HW2 1254   1.693   1.166   0.501 -0.4910  0.1073  0.4923
    1SOL    HW3 1255   1.633   1.295   0.552 -1.3863  0.3838 -1.2232
    1SOL    MW4 1256   1.668   1.248   0.487  0.0502  0.1490 -0.3026
    1SOL     OW 1257   0.924   1.984   0.830 -0.4532 -0.1602  0.2559
    1SOL    HW2 1258   0.907   1.953   0.918 -1.0978 -0.0538  0.1731
    1SOL    HW3 1259   0.837   2.002   0.793 -0.2108 -0.5027 -0.5050
    1SOL    MW4 1260   0.910   1.983   0.837 -0.5063 -0.1915  0.1447
    1SOL     OW 1261   2.682   3.489   0.854 -0.1343 -0.0733  0.2837
    1SOL    HW2 1262   2.650   3.472   0.943  0.2630 -0.1162  0.4230
    1SOL    HW3 1263   2.640   3.423   0.800 -2.1418  1.3316  0.0476
    1SOL    MW4 1264   2.672   3.478   0.859 -0.3469  0.1066  0.2710
    1SOL     OW 1265   2.303   0.038   0.331  0.1717  0.2187 -0.3233
    1SOL    HW2 1266   2.362   0.100   0.374  0.6218 -0.4137 -0.0201
    1SOL    HW3 1267   2.347  -0.046   0.340 -2.3394 -0.8399  2.8887
    1SOL    MW4 1268   2.316   0.035   0.338 -0.0999 -0.0043  0.1405
    1SOL     OW 1269   1.112   4.435   1.221  0.1046  0.6670 -0.0063
    1SOL    HW2 1270   1.110   4.421   1.316  1.6186 -1.6377 -0.2782
    1SOL    HW3 1271   1.039   4.383   1.188  0.7586 -0.0863 -0.2749
    1SOL    MW4 1272   1.102   4.427   1.229  0.3908  0.2637 -0.0777
    1SOL     OW 1273   0.874   1.172   0.867 -0.2633  0.0209 -0.3164
    1SOL    HW2 1274   0.957   1.213   0.845 -0.3540  0.1111 -0.4948
    1SOL    HW3 1275   0.867   1.098   0.807 -0.5439  0.3086 -0.6398
    1SOL    MW4 1276   0.884   1.168   0.856 -0.3123  0.0707 -0.3827
    1SOL     OW 1277   0.272   3.130   0.869  0.0367  0.0467  0.0564
    1SOL    HW2 1278   0.200   3.179   0.830  0.3176  2.5758  2.5460
    1SOL    HW3 1279   0.236   3.094   0.950  1.1837  0.2028  0.6444
    1SOL    MW4 1280   0.258   3.132   0.874  0.2251  0.4008  0.4624
    1SOL     OW 1281   2.518   1.399   0.662  0.0066 -0.0332 -0.1090
    1SOL    HW2 1282   2.526   1.305   0.678  0.4607  0.2448  1.4062
    1SOL    HW3 1283   2.433   1.409   0.619 -0.1247 -1.1045 -0.1157
    1SOL    MW4 1284   2.508   1.388   0.658  0.0491 -0.1378  0.0900
    1SOL     OW 1285   4.317   2.876   0.494 -0.0453 -0.3252 -0.2335
    1SOL    HW2 1286   4.395   2.828   0.465 -0.7599 -1.5093 -0.2115
    1SOL    HW3 1287   4.245   2.837   0.444 -0.4941  1.4523 -1.0172
    1SOL    MW4 1288   4.318   2.865   0.483 -0.1988 -0.2468 -0.3340
    1SOL     OW 1289   2.801   0.446   0.497 -0.0465 -0.2212  0.2640
    1SOL    HW2 1290   2.873   0.384   0.493  1.2364  1.2484  0.2437
    1SOL    HW3 1291   2.753   0.434   0.415  0.6362 -0.6287 -0.0712
    1SOL    MW4 1292   2.804   0.436   0.486  0.2129 -0.0811  0.2171
    1SOL     OW 1293   1.608   4.447   0.350 -0.3344 -0.0193 -0.2031
    1SOL    HW2 1294   1.612   4.542   0.340 -0.0149  0.0869  0.8522
    1SOL    HW3 1295   1.550   4.433   0.425  0.6174 -0.5981  0.4356
    1SOL    MW4 1296   1.601   4.457   0.359 -0.1667 -0.0815  0.0204
    1SOL     OW 1297   3.286   2.276   0.422 -0.1943  0.1616  0.2678
    1SOL    HW2 1298   3.236   2.288   0.503 -1.5716  0.1472 -0.5685
    1SOL    HW3 1299   3.228   2.225   0.365  0.9266 -0.1793 -0.5824
    1SOL    MW4 1300   3.272   2.271   0.425 -0.2279  0.1147  0.0453
    1SOL     OW 1301   0.412   3.945   0.487 -0.1843 -0.2823  0.5007
    1SOL    HW2 1302   0.443   3.961   0.576  0.6472 -0.7472  0.3012
    1SOL    HW3 1303   0.369   3.860   0.491 -1.7395  0.5118  0.8491
    1SOL    MW4 1304   0.411   3.936   0.499 -0.2798 -0.2387  0.5203
    1SOL     OW 1305   2.056   3.972   0.652  0.2146 -0.0039  0.1177
    1SOL    HW2 1306   2.094   3.899   0.603  0.1741 -0.5130  0.8382
    1SOL    HW3 1307   2.115   4.046   0.636 -0.7125  0.3032 -2.0928
    1SOL    MW4 1308   2.069   3.972   0.643  0.0868 -0.0305 -0.0789
    1SOL     OW 1309   1.163   3.362   0.292  0.4118  0.0976  0.1555
    1SOL    HW2 1310   1.233   3.426   0.307  0.4900 -0.1738  0.9924
    1SOL    HW3 1311   1.196   3.281   0.332 -0.7560  0.2090  1.3837
    1SOL    MW4 1312   1.177   3.360   0.299  0.2682  0.0768  0.4280
    1SOL     OW 1313   1.994   4.343   0.709  0.7415  0.0699  0.2536
    1SOL    HW2 1314   2.073   4.306   0.747 -0.1969 -0.9513  1.2741
    1SOL    HW3 1315   1.922   4.301   0.757 -0.4128  1.2999 -0.3423
    1SOL    MW4 1316   1.995   4.333   0.720  0.4655  0.0978  0.3096
    1SOL     OW 1317   1.938   0.855   0.309  0.3837  0.1688  0.2866
    1SOL    HW2 1318   2.025   0.876   0.344  0.1933 -0.9830  1.4833
    1SOL    HW3 1319   1.922   0.923   0.244  1.2982  1.6176  1.5342
    1SOL    MW4 1320   1.948   0.867   0.305  0.4791  0.2080  0.6091
    1SOL     OW 1321   2.026   1.542   0.848  0.5574 -0.6614 -0.2412
    1SOL    HW2 1322   2.019   1.452   0.818  2.4022 -1.1925  0.8665
    1SOL    HW3 1323   2.107   1.575   0.807  0.3217  0.2284 -0.0087
    1SOL    MW4 1324   2.036   1.535   0.838  0.7696 -0.6140 -0.0644
    1SOL     OW 1325   3.780   2.867   0.791 -0.2382 -0.4254 -0.0349
    1SOL    HW2 1326   3.716   2.819   0.844 -0.6561  0.9007  0.6824
    1SOL    HW3 1327   3.859   2.812   0.793 -0.2660 -0.4288  1.9337
    1SOL    MW4 1328   3.782   2.853   0.799 -0.2971 -0.2511  0.3195
    1SOL     OW 1329   3.039   1.430   0.803 -0.5016 -0.3392  0.0741
    1SOL    HW2 1330   2.954   1.431   0.759 -1.6020  0.7144  2.1431
    1SOL    HW3 1331   3.065   1.338   0.804 -1.2009 -0.5572 -1.3563
    1SOL    MW4 1332   3.031   1.418   0.797 -0.7391 -0.2290  0.1584
    1SOL     OW 1333   2.580   2.031   0.399  0.0775  0.3773 -0.3451
    1SOL    HW2 1334   2.510   2.090   0.369  0.6684  1.1303 -0.2443
    1SOL    HW3 1335   2.567   1.951   0.347 -0.4972  0.7242 -0.7457
    1SOL    MW4 1336   2.569   2.028   0.388  0.0796  0.5224 -0.3847
    1SOL     OW 1337   0.873   3.188   0.735  0.4027 -0.0748  0.0086
    1SOL    HW2 1338   0.797   3.148   0.779  0.5406  0.3643  0.6595
    1SOL    HW3 1339   0.865   3.281   0.755  0.2426  0.1919 -1.2565
    1SOL    MW4 1340   0.862   3.195   0.744  0.3998  0.0184 -0.0724
    1SOL     OW 1341   1.116   0.808   0.823  0.6898 -0.1642  0.2856
    1SOL    HW2 1342   1.118   0.829   0.916  0.6346 -0.4213  0.3449
    1SOL    HW3 1343   1.106   0.713   0.819  0.7441 -0.1616  0.0175
    1SOL    MW4 1344   1.115   0.798   0.834  0.6897 -0.1977  0.2581
    1SOL     OW 1345   0.433   0.091   0.493 -0.0347 -0.1547  0.2962
    1SOL    HW2 1346   0.509   0.086   0.434 -0.9236  0.0809 -0.8887
    1SOL    HW3 1347   0.371   0.148   0.448 -1.6564 -1.7664  0.4141
    1SOL    MW4 1348   0.435   0.097   0.479 -0.3659 -0.3362  0.1554
    1SOL     OW 1349   3.068   0.210   0.845  0.1267  0.3038  0.2040
    1SOL    HW2 1350   3.154   0.191   0.807 -0.0395  0.7426 -0.3953
    1SOL    HW3 1351   3.026   0.125   0.852  0.3202  0.1705 -0.2036
    1SOL    MW4 1352   3.074   0.196   0.841  0.1304  0.3441  0.0711
    1SOL     OW 1353   0.666   1.053   0.394 -0.4773  0.0396 -0.8831
    1SOL    HW2 1354   0.654   1.050   0.299  0.8165 -1.5450 -1.0308
    1SOL    HW3 1355   0.754   1.017   0.408  0.6172  3.1709  0.6930
    1SOL    MW4 1356   0.676   1.048   0.383 -0.1622  0.2438 -0.6947
    1SOL     OW 1357   1.735   3.195   0.720 -0.6751 -0.2252 -0.2893
    1SOL    HW2 1358   1.738   3.273   0.776 -2.4927 -0.5328  0.2640
    1SOL    HW3 1359   1.816   3.148   0.740 -0.2365  0.8041  0.4074
    1SOL    MW4 1360   1.746   3.199   0.730 -0.8571 -0.1302 -0.1243
    1SOL     OW 1361   1.553   2.841   0.439  0.1341  0.2451 -0.0824
    1SOL    HW2 1362   1.628   2.806   0.390  0.0328 -0.0033 -0.0584
    1SOL    HW3 1363   1.538   2.928   0.401 -1.5625 -0.9499 -2.2278
    1SOL    MW4 1364   1.561   2.848   0.428 -0.1031  0.0546 -0.3623
    1SOL     OW 1365   2.828   3.123   0.363  0.2553 -0.2241 -0.0912
    1SOL    HW2 1366   2.797   3.197   0.310  1.3382  0.7450  0.6126
    1SOL    HW3 1367   2.816   3.152   0.453 -0.3352 -1.3518  0.2008
    1SOL    MW4 1368   2.822   3.137   0.368  0.3202 -0.2451  0.0402
    1SOL     OW 1369   3.781   3.986   0.390 -0.5801 -0.3216 -0.0791
    1SOL    HW2 1370   3.799   3.996   0.297  0.5850  1.1413  0.2785
    1SOL    HW3 1371   3.713   4.051   0.407  0.6544  0.8482  0.4813
    1SOL    MW4 1372   3.774   3.996   0.380 -0.2635  0.0257  0.0420
    1SOL     OW 1373   1.338   3.447   0.801  0.1472  0.0912 -0.2127
    1SOL    HW2 1374   1.335   3.359   0.763  0.4731 -0.6024  1.3228
    1SOL    HW3 1375   1.421   3.483   0.769  0.3849 -0.4561 -0.2340
    1SOL    MW4 1376   1.349   3.440   0.791  0.2215 -0.0725 -0.0129
    1SOL     OW 1377   0.689   0.511   0.761  0.0015  0.2099  0.1264
    1SOL    HW2 1378   0.677   0.605   0.777 -0.0901  0.2083  0.0672
    1SOL    HW3 1379   0.606   0.472   0.788  0.1830  0.1015  0.5267
    1SOL    MW4 1380   0.676   0.519   0.767  0.0133  0.1954  0.1714
    1SOL     OW 1381   1.285   1.995   0.136  0.4891 -0.1940  0.1057
    1SOL    HW2 1382   1.293   2.046   0.217 -0.8839 -0.9808  0.7647
    1SOL    HW3 1383   1.226   1.923   0.159 -0.7932  0.1737 -1.8639
    1SOL    MW4 1384   1.278   1.992   0.150  0.1388 -0.2493 -0.0672
    1SOL     OW 1385   1.166   2.086   0.800  0.0743  0.5068 -0.3657
    1SOL    HW2 1386   1.167   2.178   0.825 -0.4012 -0.0931  1.9648
    1SOL    HW3 1387   1.076   2.057   0.816  0.3126 -0.4506 -0.7102
    1SOL    MW4 1388   1.155   2.094   0.806  0.0430  0.3011 -0.1037
    1SOL     OW 1389   0.838   2.186   0.484 -0.3205  0.2287 -0.1877
    1SOL    HW2 1390   0.913   2.131   0.508  1.1323  0.9627 -2.9211
    1SOL    HW3 1391   0.779   2.179   0.559  2.2236 -0.8069  1.7993
    1SOL    MW4 1392   0.840   2.178   0.497  0.2068  0.1888 -0.2861
    1SOL     OW 1393   2.683   0.397   1.108  0.6329  0.2874 -0.0655
    1SOL    HW2 1394   2.607   0.446   1.139 -0.3310 -0.2241 -1.5286
    1SOL    HW3 1395   2.659   0.305   1.122 -0.1789 -0.0039 -2.9377
    1SOL    MW4 1396   2.670   0.391   1.114  0.3989  0.1815 -0.6375
    1SOL     OW 1397   3.668   4.586   0.733 -0.3997  0.4185  0.7415
    1SOL    HW2 1398   3.588   4.587   0.786  0.5660 -0.5940  2.2699
    1SOL    HW3 1399   3.664   4.503   0.686 -0.3574  0.4842  0.6218
    1SOL    MW4 1400   3.657   4.575   0.734 -0.2670  0.2937  0.9274
    1SOL     OW 1401   4.049   3.700   0.421 -0.2108  0.6366 -0.2559
    1SOL    HW2 1402   4.136   3.672   0.447 -0.1431  0.2743 -0.8553
    1SOL    HW3 1403   4.049   3.795   0.433  0.2117  0.6155 -0.1032
    1SOL    MW4 1404   4.060   3.709   0.426 -0.1464  0.5860 -0.3148
    1SOL     OW 1405   0.792   3.158   0.472 -0.5174  0.5355 -0.2985
    1SOL    HW2 1406   0.829   3.241   0.441  1.3577 -0.3862 -0.6224
    1SOL    HW3 1407   0.825   3.150   0.561 -2.2458  1.0257  0.4039
    1SOL    MW4 1408   0.801   3.168   0.480 -0.4980  0.4785 -0.2485
    1SOL     OW 1409   3.640   0.362   0.670  0.1809 -0.6857 -0.0010
    1SOL    HW2 1410   3.714   0.412   0.705 -0.2459 -0.0164 -0.0459
    1SOL    HW3 1411   3.680   0.295   0.614  0.6279  1.6535 -2.5512
    1SOL    MW4 1412   3.655   0.360   0.667  0.1833 -0.2888 -0.3434
    1SOL     OW 1413   0.078   2.236   0.413 -0.0273  0.3351 -0.2789
    1SOL    HW2 1414   0.130   2.312   0.385 -1.8215  1.0221 -1.8975
    1SOL    HW3 1415   0.142   2.168   0.432  1.5393  1.7619 -0.3344
    1SOL    MW4 1416   0.093   2.237   0.412 -0.0573  0.6137 -0.4998
    1SOL     OW 1417   1.821   1.931   1.083 -0.1480 -0.0913 -0.0963
    1SOL    HW2 1418   1.740   1.973   1.113 -0.6116 -0.2166 -1.1680
    1SOL    HW3 1419   1.812   1.926   0.988  1.3898  0.4538 -0.2873
    1SOL    MW4 1420   1.809   1.936   1.074 -0.0062 -0.0360 -0.2631
    1SOL     OW 1421   1.768   0.055   0.756  0.6851 -0.2553  0.0350
    1SOL    HW2 1422   1.688   0.027   0.801  0.6563  1.4605  1.0969
    1SOL    HW3 1423   1.837  -0.001   0.791  0.6621  1.0590  2.2194
    1SOL    MW4 1424   1.766   0.044   0.766  0.6783  0.1444  0.4632
    1SOL     OW 1425   1.341   2.482   0.693 -0.1401  0.3925  0.0629
    1SOL    HW2 1426   1.349   2.569   0.734 -0.0914  0.0439  0.8115
    1SOL    HW3 1427   1.269   2.441   0.740  0.1988 -0.1778  0.0840
    1SOL    MW4 1428   1.332   2.488   0.705 -0.0889  0.2711  0.1644
    1SOL     OW 1429   0.768   2.649   0.509 -0.3578 -0.0233 -0.1736
    1SOL    HW2 1430   0.831   2.578   0.502  1.1780  1.3324 -0.4452
    1SOL    HW3 1431   0.810   2.723   0.465 -0.9794  1.6740  2.0069
    1SOL    MW4 1432   0.781   2.649   0.502 -0.2372  0.3798  0.0782
    1SOL     OW 1433   1.343   2.726   0.835 -0.1250 -0.1115 -0.7063
    1SOL    HW2 1434   1.346   2.744   0.929 -0.3524 -0.4963 -0.6231
    1SOL    HW3 1435   1.427   2.757   0.802 -0.4691  1.0187 -0.5562
    1SOL    MW4 1436   1.354   2.732   0.843 -0.2004 -0.0129 -0.6755
    1SOL     OW 1437   1.782   4.214   0.334  0.2598  0.1016  0.2776
    1SOL    HW2 1438   1.735   4.292   0.306 -0.8517 -0.2861  1.0475
    1SOL    HW3 1439   1.868   4.246   0.362  0.8253  0.6918 -2.0647
    1SOL    MW4 1440   1.787   4.228   0.334  0.1878  0.1283  0.0701
    1SOL     OW 1441   0.138   0.473   0.545 -0.3325 -0.0800  0.1577
    1SOL    HW2 1442   0.052   0.440   0.570  0.0228 -1.2383 -0.1346
    1SOL    HW3 1443   0.173   0.511   0.626 -1.1470  0.4682  0.2568
    1SOL    MW4 1444   0.131   0.474   0.559 -0.3931 -0.1605  0.1323
    1SOL     OW 1445   4.017   4.045   0.771 -0.3288  0.0798  0.0999
    1SOL    HW2 1446   4.097   4.001   0.800  0.1783  0.2836 -0.9858
    1SOL    HW3 1447   4.021   4.042   0.676 -1.8188 -0.2690  0.0430
    1SOL    MW4 1448   4.028   4.039   0.762 -0.4587  0.0615 -0.0509
    1SOL     OW 1449   0.094   1.196   0.443 -0.0811  0.7450 -0.1689
    1SOL    HW2 1450   0.157   1.268   0.439  0.1061  0.6298  0.7360
    1SOL    HW3 1451   0.146   1.118   0.462 -0.6719  0.9105  2.2562
    1SOL    MW4 1452   0.109   1.195   0.445 -0.1344  0.7517  0.2705
    1SOL     OW 1453   4.386   2.479   0.494 -0.3595  0.3006  0.2579
    1SOL    HW2 1454   4.436   2.417   0.441  0.3268  0.9735  0.1004
    1SOL    HW3 1455   4.426   2.564   0.475 -1.0288  0.7381  0.7736
    1SOL    MW4 1456   4.398   2.482   0.484 -0.3572  0.4468  0.3052
    1SOL     OW 1457   2.337   2.417   0.246 -0.1000  0.3950  0.1069
    1SOL    HW2 1458   2.333   2.378   0.159 -0.6423  0.3059  0.1725
    1SOL    HW3 1459   2.335   2.342   0.306 -0.8921  0.5070  0.2250
    1SOL    MW4 1460   2.336   2.402   0.243 -0.2759  0.3979  0.1311
    1SOL     OW 1461   2.857   0.140   0.627  0.5216 -0.2069  0.1093
    1SOL    HW2 1462   2.896   0.075   0.686  1.2310  0.0133 -0.1129
    1SOL    HW3 1463   2.929   0.198   0.604 -0.2079  0.9767  0.7035
    1SOL    MW4 1464   2.871   0.139   0.632  0.5190 -0.0217  0.1584
    1SOL     OW 1465   1.639   4.030   0.495  0.1221 -0.2486 -0.0974
    1SOL    HW2 1466   1.687   4.013   0.577 -0.1588  1.2676  0.3895
    1SOL    HW3 1467   1.694   4.091   0.447 -0.0098 -0.6569 -0.7681
    1SOL    MW4 1468   1.653   4.035   0.500  0.0677 -0.1025 -0.1217
    1SOL     OW 1469   0.617   3.584   0.435  0.2185  0.3322  0.5698
    1SOL    HW2 1470   0.539   3.639   0.428 -0.5752 -0.8260 -0.0051
    1SOL    HW3 1471   0.684   3.630   0.386 -0.4395  0.7695  0.0723
    1SOL    MW4 1472   0.615   3.597   0.428  0.0269  0.2372  0.4283
    1SOL     OW 1473   0.680   1.313   0.740 -0.0222 -0.5654  0.3313
    1SOL    HW2 1474   0.747   1.258   0.779  1.2387  0.5440 -0.2427
    1SOL    HW3 1475   0.688   1.397   0.784 -0.9292 -0.3699  0.1483
    1SOL    MW4 1476   0.690   1.317   0.751  0.0246 -0.3933  0.2314
    1SOL     OW 1477   3.267   4.297   0.455  0.0270  0.2547 -0.0734
    1SOL    HW2 1478   3.341   4.263   0.405  0.3315  1.6789 -0.6116
    1SOL    HW3 1479   3.205   4.225   0.458  1.3989 -0.9518  0.3355
    1SOL    MW4 1480   3.269   4.283   0.449  0.2482  0.2832 -0.0904
    1SOL     OW 1481   1.789   0.883   0.760 -0.7072 -0.1264  0.0665
    1SOL    HW2 1482   1.707   0.851   0.797 -0.3154  1.6773  2.5955
    1SOL    HW3 1483   1.795   0.974   0.789  2.2823 -0.2904  0.1075
    1SOL    MW4 1484   1.779   0.891   0.768 -0.2612  0.0899  0.4055
    1SOL     OW 1485   2.503   1.121   0.696  0.1753  0.5148 -0.4196
    1SOL    HW2 1486   2.558   1.053   0.735 -0.2578  1.2100  1.4486
    1SOL    HW3 1487   2.475   1.084   0.612  1.2232 -0.9689 -0.1252
    1SOL    MW4 1488   2.507   1.107   0.690  0.2565  0.4107 -0.1342
    1SOL     OW 1489   4.297   2.815   0.767 -0.2813  0.0027  0.1190
    1SOL    HW2 1490   4.383   2.780   0.792 -0.1096  0.7033  0.5273
    1SOL    HW3 1491   4.306   2.836   0.674  0.1098  0.4262  0.2525
    1SOL    MW4 1492   4.310   2.813   0.758 -0.2074  0.1514  0.1905
    1SOL     OW 1493   0.251   3.872   0.867 -0.0160  0.6627 -0.0661
    1SOL    HW2 1494   0.283   3.785   0.843  0.4158  1.0453 -0.8763
    1SOL    HW3 1495   0.227   3.864   0.960 -0.8988 -0.5918 -0.3814
    1SOL    MW4 1496   0.252   3.859   0.876 -0.0755  0.5474 -0.2146
    1SOL     OW 1497   4.243   1.263   0.712 -0.1239 -0.5981  0.1331
    1SOL    HW2 1498   4.324   1.236   0.754 -0.1997 -1.1110 -0.0466
    1SOL    HW3 1499   4.175   1.212   0.756 -0.1754 -1.3157 -0.7757
    1SOL    MW4 1500   4.245   1.253   0.724 -0.1407 -0.7606 -0.0106
    1SOL     OW 1501   1.249   0.302   0.040  0.2839 -0.8714  0.1504
    1SOL    HW2 1502   1.252   0.271  -0.050  1.0239  1.8397 -0.8058
    1SOL    HW3 1503   1.337   0.286   0.074  0.7061  0.2474 -0.3863
    1SOL    MW4 1504   1.261   0.296   0.033  0.4371 -0.3661 -0.0465
    1SOL     OW 1505   2.931   2.140   0.654 -0.1813  0.1706 -0.0915
    1SOL    HW2 1506   3.006   2.199   0.668 -2.0815  2.3599  1.2450
    1SOL    HW3 1507   2.909   2.150   0.562  1.0463 -0.3245 -0.4433
    1SOL    MW4 1508   2.938   2.149   0.644 -0.2701  0.3943  0.0384
    1SOL     OW 1509   2.248   1.647   0.727 -0.3392 -0.3119  0.1518
    1SOL    HW2 1510   2.245   1.743   0.731 -2.1750 -0.3584  0.5375
    1SOL    HW3 1511   2.326   1.623   0.777  0.1028  0.9872  0.1021
    1SOL    MW4 1512   2.258   1.657   0.734 -0.5229 -0.1466  0.1961
    1SOL     OW 1513   2.873   4.609   0.424 -0.3924  0.0355 -0.0160
    1SOL    HW2 1514   2.962   4.574   0.424 -0.8820 -1.2624 -0.9995
    1SOL    HW3 1515   2.875   4.680   0.488  0.9891 -0.9060  1.0141
    1SOL    MW4 1516   2.885   4.614   0.433 -0.2747 -0.2604 -0.0098
    1SOL     OW 1517   0.643   4.110   0.415 -0.0269  0.1887 -0.5765
    1SOL    HW2 1518   0.568   4.053   0.434 -0.2802  0.4929 -0.6554
    1SOL    HW3 1519   0.604   4.196   0.400  0.3889  0.4693 -0.0672
    1SOL    MW4 1520   0.628   4.114   0.415 -0.0055  0.2661 -0.5197
    1SOL     OW 1521   1.824   1.625   0.453  0.2244 -0.2194 -0.0258
    1SOL    HW2 1522   1.876   1.549   0.429 -0.5916 -0.7141 -0.2537
    1SOL    HW3 1523   1.735   1.604   0.424 -0.0013  0.8377 -0.1358
    1SOL    MW4 1524   1.819   1.612   0.446  0.0871 -0.1453 -0.0704
    1SOL     OW 1525   2.277   1.911   0.778 -0.3116  0.3801 -0.2227
    1SOL    HW2 1526   2.201   1.964   0.750 -0.0898  1.1007  0.5044
    1SOL    HW3 1527   2.349   1.941   0.723  0.3812  2.5591  1.7549
    1SOL    MW4 1528   2.276   1.922   0.767 -0.1910  0.7627  0.1342
    1SOL     OW 1529   2.931   3.748   0.566 -0.3399  0.2975  0.1125
    1SOL    HW2 1530   2.959   3.742   0.658  0.4382 -0.8692 -0.1826
    1SOL    HW3 1531   2.891   3.663   0.549 -0.6372  0.5783 -0.5750
    1SOL    MW4 1532   2.930   3.736   0.576 -0.2761  0.1805 -0.0172
    1SOL     OW 1533   1.583   3.815   0.853  0.3284 -0.1416  0.2547
    1SOL    HW2 1534   1.567   3.735   0.804 -0.0555  0.4901 -0.6746
    1SOL    HW3 1535   1.640   3.867   0.796  2.2609 -0.5918  1.7106
    1SOL    MW4 1536   1.588   3.812   0.839  0.5327 -0.1175  0.3241
    1SOL     OW 1537   2.027   0.414   0.474  0.0914  0.9104  0.0636
    1SOL    HW2 1538   1.990   0.466   0.403 -1.1627 -1.1594 -0.8545
    1SOL    HW3 1539   2.050   0.330   0.433  2.0890  0.7102  1.4911
    1SOL    MW4 1540   2.025   0.409   0.459  0.1893  0.6109  0.1308
    1SOL     OW 1541   2.041   2.825   0.720 -0.1622 -0.2461  0.6938
    1SOL    HW2 1542   2.015   2.912   0.750 -0.4681  0.4878 -1.6365
    1SOL    HW3 1543   2.113   2.800   0.778  1.8127  2.7207 -0.3947
    1SOL    MW4 1544   2.047   2.833   0.732  0.0582  0.2422  0.2427
    1SOL     OW 1545   4.463   3.884   0.448 -0.5154 -0.4068  0.1131
    1SOL    HW2 1546   4.461   3.907   0.541 -0.6405 -0.1172  0.0404
    1SOL    HW3 1547   4.548   3.917   0.418 -0.4144 -0.6279  0.1569
    1SOL    MW4 1548   4.474   3.892   0.456 -0.5188 -0.3977  0.1093
    1SOL     OW 1549   3.625   1.888   0.807 -0.4363 -0.4552  0.2326
    1SOL    HW2 1550   3.649   1.810   0.757 -0.9363 -0.2916 -0.2740
    1SOL    HW3 1551   3.691   1.953   0.783 -0.9701 -0.2212 -0.6134
    1SOL    MW4 1552   3.637   1.886   0.797 -0.5729 -0.4029  0.0540
    1SOL     OW 1553   4.071   1.687   0.735 -0.0130 -0.3150 -0.0906
    1SOL    HW2 1554   4.148   1.640   0.766 -0.7846 -1.3689  0.2584
    1SOL    HW3 1555   4.070   1.767   0.788  0.5887 -0.5079  0.2220
    1SOL    MW4 1556   4.081   1.691   0.746 -0.0353 -0.4796 -0.0033
    1SOL     OW 1557   1.589   2.135   0.434 -0.3492 -0.0475  0.1759
    1SOL    HW2 1558   1.600   2.050   0.393 -0.7624 -0.3107  0.6123
    1SOL    HW3 1559   1.581   2.116   0.527 -0.4532  0.4664  0.2731
    1SOL    MW4 1560   1.590   2.122   0.441 -0.4176 -0.0143  0.2463
    1SOL     OW 1561   0.244   2.340   0.840  0.5098 -0.3932  0.0585
    1SOL    HW2 1562   0.162   2.380   0.812  1.7068  2.4942  0.5541
    1SOL    HW3 1563   0.233   2.327   0.934  1.4749  2.1867  0.5564
    1SOL    MW4 1564   0.232   2.343   0.848  0.7951  0.3283  0.1896
    1SOL     OW 1565   2.531   4.002   0.737  0.0048  0.1766  0.2582
    1SOL    HW2 1566   2.600   3.960   0.686 -0.1123  0.1445  0.1217
    1SOL    HW3 1567   2.575   4.068   0.790  0.1377  0.1650  0.1611
    1SOL    MW4 1568   2.546   4.005   0.737  0.0069  0.1707  0.2273
    1SOL     OW 1569   3.055   2.789   0.832  0.3958  0.1049 -0.8303
    1SOL    HW2 1570   3.051   2.713   0.775  0.0447  1.0645 -2.1062
    1SOL    HW3 1571   3.136   2.834   0.807  0.9305 -0.1861  0.3590
    1SOL    MW4 1572   3.065   2.785   0.821  0.4199  0.1929 -0.8417
    1SOL     OW 1573   1.964   2.521   0.415 -0.1207 -0.0559  0.6220
    1SOL    HW2 1574   1.902   2.593   0.429  0.8722  0.6444  1.4620
    1SOL    HW3 1575   1.910   2.442   0.416 -1.3218  0.7108 -0.9778
    1SOL    MW4 1576   1.948   2.520   0.417 -0.1481  0.1376  0.5217
    1SOL     OW 1577   1.178   1.202   0.113 -0.0526  0.0392 -0.3368
    1SOL    HW2 1578   1.135   1.286   0.127  1.1212  0.4558  0.9316
    1SOL    HW3 1579   1.244   1.218   0.046 -0.2054 -0.0085 -0.4990
    1SOL    MW4 1580   1.181   1.215   0.106  0.0820  0.0879 -0.1908
    1SOL     OW 1581   3.270   0.104   0.492 -0.8074  0.5148  0.6233
    1SOL    HW2 1582   3.328   0.165   0.447 -0.3698 -1.0127 -0.9155
    1SOL    HW3 1583   3.295   0.112   0.584  1.1891  0.6224  0.1125
    1SOL    MW4 1584   3.281   0.113   0.498 -0.4861  0.3275  0.3528
    1SOL     OW 1585   0.873   1.697   0.464 -0.1247 -0.6878 -0.3950
    1SOL    HW2 1586   0.957   1.724   0.427 -0.3212 -0.8726 -0.9720
    1SOL    HW3 1587   0.814   1.770   0.446 -0.2586 -0.8411 -0.5659
    1SOL    MW4 1588   0.876   1.710   0.457 -0.1683 -0.7324 -0.4937
    1SOL     OW 1589   2.688   2.721   0.841 -0.8151 -0.7938 -0.1060
    1SOL    HW2 1590   2.717   2.638   0.805  0.2220 -0.2923 -0.4519
    1SOL    HW3 1591   2.689   2.709   0.936 -1.5390 -1.4537 -0.1793
    1SOL    MW4 1592   2.692   2.709   0.849 -0.7737 -0.8144 -0.1613
    1SOL     OW 1593   3.726   0.480   0.370  0.2716 -0.5390  0.9723
    1SOL    HW2 1594   3.719   0.400   0.318 -0.3776  0.9036 -1.2071
    1SOL    HW3 1595   3.638   0.518   0.368  0.9678  1.1044  0.5418
    1SOL    MW4 1596   3.714   0.474   0.363  0.2780 -0.1319  0.6280
    1SOL     OW 1597   1.263   3.146   0.431 -0.1394 -0.3275  0.4206
    1SOL    HW2 1598   1.357   3.145   0.414 -0.4379  0.3313 -1.2652
    1SOL    HW3 1599   1.256   3.170   0.524  1.2969  0.8402  0.2285
    1SOL    MW4 1600   1.275   3.149   0.441  0.0108 -0.0868  0.1728
    1SOL     OW 1601   4.123   2.479   0.419  0.4051 -0.0512  0.0802
    1SOL    HW2 1602   4.104   2.568   0.390  0.8774  0.1165  0.2633
    1SOL    HW3 1603   4.216   2.481   0.443  0.5628 -0.7374 -0.4369
    1SOL    MW4 1604   4.133   2.491   0.419  0.4888 -0.1199  0.0361
    1SOL     OW 1605   3.678   1.655   0.684 -0.4364 -0.4957  0.0301
    1SOL    HW2 1606   3.597   1.606   0.695 -0.5812  0.1173  1.9074
    1SOL    HW3 1607   3.740   1.613   0.743  0.7580 -1.1911 -1.6592
    1SOL    MW4 1608   3.676   1.643   0.693 -0.2980 -0.5064  0.0550
    1SOL     OW 1609   3.191   1.632   0.663 -0.0145  0.1215  0.2073
    1SOL    HW2 1610   3.176   1.714   0.711  0.8134 -0.3529  1.2914
    1SOL    HW3 1611   3.136   1.568   0.709 -0.3494 -0.0291 -0.3925
    1SOL    MW4 1612   3.181   1.635   0.676  0.0505  0.0390  0.2712
    1SOL     OW 1613   2.652   1.778   0.848  0.3185  0.7204  0.0199
    1SOL    HW2 1614   2.658   1.813   0.937  0.3775  0.4034  0.1386
    1SOL    HW3 1615   2.609   1.848   0.798 -0.8679  0.3913  0.5679
    1SOL    MW4 1616   2.647   1.792   0.853  0.1698  0.6351  0.1078
    1SOL     OW 1617   2.468   3.872   1.126  0.3214  0.1007 -0.6274
    1SOL    HW2 1618   2.401   3.904   1.185 -0.0192 -2.7797  0.6463
    1SOL    HW3 1619   2.546   3.924   1.146 -0.5939  1.1354  0.2596
    1SOL    MW4 1620   2.470   3.883   1.136  0.1559 -0.1428 -0.3422
    1SOL     OW 1621   2.248   1.127   0.830  0.0960  0.5171  0.1838
    1SOL    HW2 1622   2.271   1.131   0.923  0.9926 -2.1131  0.1108
    1SOL    HW3 1623   2.331   1.146   0.784  0.2638 -0.7582 -0.0636
    1SOL    MW4 1624   2.262   1.130   0.836  0.2365  0.0019  0.1416
    1SOL     OW 1625   2.867   1.648   0.509 -0.4084 -0.3381 -0.0699
    1SOL    HW2 1626   2.949   1.654   0.461  0.3809 -2.4263  0.9623
    1SOL    HW3 1627   2.878   1.709   0.582  0.9263 -1.8391  1.0223
    1SOL    MW4 1628   2.879   1.657   0.512 -0.1280 -0.8116  0.2104
    1SOL     OW 1629   2.220   2.688   0.864  0.2790  0.2144  0.1657
    1SOL    HW2 1630   2.187   2.602   0.836  0.0813 -0.0886  1.3180
    1SOL    HW3 1631   2.228   2.681   0.959 -0.3111  1.6793  0.3344
    1SOL    MW4 1632   2.217   2.676   0.873  0.1752  0.3674  0.3400
    1SOL     OW 1633   0.457   2.636   0.511  0.0502 -0.1224 -0.1723
    1SOL    HW2 1634   0.547   2.651   0.482 -0.2083  0.5552 -0.6314
    1SOL    HW3 1635   0.466   2.574   0.584  0.9468  0.4283  0.1992
    1SOL    MW4 1636   0.470   2.630   0.517  0.1344  0.0398 -0.1839
    1SOL     OW 1637   0.618   1.303   0.478 -0.3239 -0.8913  0.4743
    1SOL    HW2 1638   0.642   1.311   0.571 -0.9389  0.8591  0.5106
    1SOL    HW3 1639   0.627   1.210   0.459 -0.4088 -1.3162  2.3579
    1SOL    MW4 1640   0.622   1.292   0.488 -0.4163 -0.7164  0.7276
    1SOL     OW 1641   0.326   1.642   0.450  0.4437 -0.3343  0.2922
    1SOL    HW2 1642   0.367   1.658   0.535 -0.6218  0.6810  0.6414
    1SOL    HW3 1643   0.237   1.678   0.459  1.5938  3.6140 -2.5435
    1SOL    MW4 1644   0.320   1.649   0.462  0.4549  0.3206 -0.0359
    1SOL     OW 1645   3.552   4.131   0.412  0.2897  0.2210  0.0731
    1SOL    HW2 1646   3.589   4.185   0.482  1.0785  0.8031 -0.7952
    1SOL    HW3 1647   3.501   4.064   0.459  1.9548 -0.2556  1.2583
    1SOL    MW4 1648   3.550   4.129   0.428  0.6137  0.2351  0.1149
    1SOL     OW 1649   3.012   3.781   0.835  0.8367 -0.4421 -0.0426
    1SOL    HW2 1650   2.954   3.805   0.907 -0.0610  2.5781 -1.6821
    1SOL    HW3 1651   3.098   3.813   0.862  0.4449  0.9524 -0.4109
    1SOL    MW4 1652   3.016   3.788   0.848  0.6664  0.1400 -0.3075
    1SOL     OW 1653   4.027   0.865   0.791  0.1005 -0.4149  1.1189
    1SOL    HW2 1654   4.113   0.852   0.829  0.2401 -0.1986  0.8773
    1SOL    HW3 1655   4.040   0.858   0.697 -0.1099 -0.1812  1.0698
    1SOL    MW4 1656   4.040   0.863   0.784  0.0916 -0.3555  1.0805
    1SOL     OW 1657   3.196   3.205   0.479 -0.0253  0.3986 -0.3136
    1SOL    HW2 1658   3.289   3.226   0.475  0.5123 -1.7859  0.5597
    1SOL    HW3 1659   3.170   3.227   0.569  0.0546 -0.6430 -0.0320
    1SOL    MW4 1660   3.205   3.211   0.490  0.0560 -0.0272 -0.1612
    1SOL     OW 1661   0.766   0.484   0.486  0.0829  0.0431 -0.6677
    1SOL    HW2 1662   0.742   0.477   0.578  0.1019  1.5058 -0.5339
    1SOL    HW3 1663   0.691   0.450   0.438 -0.4554  0.4756 -0.1403
    1SOL    MW4 1664   0.753   0.479   0.492  0.0144  0.2932 -0.5805
    1SOL     OW 1665   2.699   0.134   1.184  0.4210 -0.2070  0.1533
    1SOL    HW2 1666   2.785   0.093   1.174  0.3693 -0.7694  1.8905
    1SOL    HW3 1667   2.693   0.156   1.277 -0.3469  1.9972 -0.3765
    1SOL    MW4 1668   2.709   0.131   1.195  0.3128  0.0096  0.3126
    1SOL     OW 1669   1.530   3.108   0.370 -0.2677  0.4404  0.3338
    1SOL    HW2 1670   1.519   3.143   0.282 -0.8205  0.5848  0.4634
    1SOL    HW3 1671   1.593   3.167   0.412 -1.5762  1.5640  0.7222
    1SOL    MW4 1672   1.537   3.120   0.364 -0.5132  0.6077  0.4022
    1SOL     OW 1673   1.801   2.674   0.785 -0.2547  0.0844 -0.1644
    1SOL    HW2 1674   1.882   2.724   0.771  0.8900 -1.7595 -0.2675
    1SOL    HW3 1675   1.731   2.736   0.763  1.1159  1.6605 -0.2278
    1SOL    MW4 1676   1.803   2.689   0.780  0.0772  0.0494 -0.1864
    1SOL     OW 1677   2.309   4.144   0.633  0.2777  0.4217 -0.3511
    1SOL    HW2 1678   2.315   4.167   0.541 -0.6893 -0.6905 -0.7114
    1SOL    HW3 1679   2.389   4.095   0.651 -0.9643 -2.0847 -1.4349
    1SOL    MW4 1680   2.320   4.140   0.624 -0.0141 -0.0558 -0.5417
    1SOL     OW 1681   1.239   2.447   0.444  0.0189 -0.1974 -0.1316
    1SOL    HW2 1682   1.246   2.534   0.407 -0.8195 -0.0559  0.0505
    1SOL    HW3 1683   1.280   2.455   0.531  0.1788 -0.0550 -0.2189
    1SOL    MW4 1684   1.245   2.459   0.451 -0.0706 -0.1600 -0.1191
    1SOL     OW 1685   1.521   4.339   0.800  0.2709  0.6699 -0.6528
    1SOL    HW2 1686   1.496   4.359   0.710  0.1383  0.3385 -0.6896
    1SOL    HW3 1687   1.440   4.308   0.842  0.1098  1.7646 -0.1457
    1SOL    MW4 1688   1.507   4.338   0.794  0.2321  0.7706 -0.5908
    1SOL     OW 1689   2.557   3.045   0.296 -0.1545  0.3094  0.1537
    1SOL    HW2 1690   2.652   3.049   0.308 -0.0946  0.8029 -0.4609
    1SOL    HW3 1691   2.531   2.960   0.332  0.7901 -0.7286 -1.5557
    1SOL    MW4 1692   2.566   3.034   0.302 -0.0219  0.2377 -0.1529
    1SOL     OW 1693   1.236   1.386   0.359  0.5080  0.1295 -0.0505
    1SOL    HW2 1694   1.177   1.344   0.421 -1.4102  0.8697 -1.3316
    1SOL    HW3 1695   1.178   1.425   0.293  2.4274  0.8121 -1.3777
    1SOL    MW4 1696   1.221   1.386   0.358  0.5082  0.3172 -0.3946
    1SOL     OW 1697   1.597   0.054   0.330  0.2373  0.3754 -0.2983
    1SOL    HW2 1698   1.520   0.078   0.382 -0.1316  0.1911 -0.7517
    1SOL    HW3 1699   1.671   0.089   0.379 -0.1867  1.1385 -0.1946
    1SOL    MW4 1700   1.596   0.062   0.343  0.1327  0.4518 -0.3445
    1SOL     OW 1701   3.435   1.530   0.785  0.2695 -0.0441  0.3746
    1SOL    HW2 1702   3.413   1.533   0.878 -0.8803  0.4146  0.1016
    1SOL    HW3 1703   3.353   1.552   0.741  0.8653 -0.0426 -0.7417
    1SOL    MW4 1704   3.421   1.533   0.792  0.1962  0.0166  0.1913
    1SOL     OW 1705   3.360   3.154   0.821  0.4242 -0.1486 -0.2885
    1SOL    HW2 1706   3.273   3.192   0.804  1.2694  1.6304 -0.7207
    1SOL    HW3 1707   3.356   3.126   0.913 -0.6484 -0.2132 -0.3415
    1SOL    MW4 1708   3.348   3.155   0.831  0.3943  0.0777 -0.3526
    1SOL     OW 1709   2.814   0.924   0.423  0.5535 -0.8292  0.3948
    1SOL    HW2 1710   2.847   0.981   0.493  1.2405 -1.5414  0.6591
    1SOL    HW3 1711   2.869   0.846   0.428  0.0451 -1.2423 -0.3919
    1SOL    MW4 1712   2.825   0.921   0.433  0.5770 -0.9778  0.3258
    1SOL     OW 1713   0.282   0.301   0.376  0.0665 -0.3550 -0.1646
    1SOL    HW2 1714   0.216   0.291   0.308  0.0123  0.5957 -0.2619
    1SOL    HW3 1715   0.239   0.353   0.444  0.5398 -0.1937  0.0144
    1SOL    MW4 1716   0.268   0.307   0.376  0.1217 -0.2083 -0.1538
    1SOL     OW 1717   4.026   2.698   0.809 -0.2770 -0.0517  0.5586
    1SOL    HW2 1718   4.114   2.730   0.787 -0.4181 -0.6903 -0.9929
    1SOL    HW3 1719   4.026   2.607   0.781 -0.9229 -0.5191  2.0336
    1SOL    MW4 1720   4.038   2.690   0.802 -0.3805 -0.1976  0.5485
    1SOL     OW 1721   2.794   2.272   0.848 -0.4190 -0.2448  0.1665
    1SOL    HW2 1722   2.838   2.265   0.933  0.3633  1.8857 -0.0229
    1SOL    HW3 1723   2.844   2.215   0.790 -0.6674 -1.3400  1.0169
    1SOL    MW4 1724   2.806   2.264   0.851 -0.3488 -0.1082  0.2536
    1SOL     OW 1725   2.461   3.045   0.845  0.1690  0.2886  0.2182
    1SOL    HW2 1726   2.461   3.039   0.940  1.6850 -1.3299  0.1440
    1SOL    HW3 1727   2.468   2.954   0.815 -1.0712  0.7248 -1.4462
    1SOL    MW4 1728   2.462   3.032   0.853  0.2050  0.1323 -0.0111
    1SOL     OW 1729   3.816   0.744   0.870 -0.0195 -0.2549 -0.4048
    1SOL    HW2 1730   3.899   0.789   0.854 -0.7321  1.4525  0.5248
    1SOL    HW3 1731   3.803   0.752   0.964 -0.6592 -1.5709 -0.3804
    1SOL    MW4 1732   3.825   0.751   0.880 -0.1976 -0.2033 -0.2789
    1SOL     OW 1733   3.393   3.942   0.536  0.1931  0.6569  0.0118
    1SOL    HW2 1734   3.305   3.919   0.505  0.1496  1.6375 -0.6187
    1SOL    HW3 1735   3.450   3.878   0.494 -0.4889 -1.8279  2.7008
    1SOL    MW4 1736   3.389   3.931   0.526  0.0975  0.4585  0.2834
    1SOL     OW 1737   4.250   2.334   0.835  0.3287 -0.3778 -0.4471
    1SOL    HW2 1738   4.328   2.382   0.810 -0.4795 -0.2912 -2.8776
    1SOL    HW3 1739   4.273   2.242   0.823  0.0853 -0.3577 -1.0543
    1SOL    MW4 1740   4.263   2.328   0.830  0.1898 -0.3636 -0.8478
    1SOL     OW 1741   0.638   4.423   0.754 -0.2046  0.6522  0.1209
    1SOL    HW2 1742   0.720   4.379   0.777  0.0536  0.2358 -1.5644
    1SOL    HW3 1743   0.570   4.359   0.776  0.0751  0.0304 -0.7782
    1SOL    MW4 1744   0.640   4.409   0.760 -0.1337  0.5155 -0.2201
    1SOL     OW 1745   3.023   2.568   0.657  0.1053 -0.4464  0.1452
    1SOL    HW2 1746   2.927   2.565   0.664  0.0888 -0.6709 -0.1333
    1SOL    HW3 1747   3.039   2.610   0.572  0.2954  3.2895  1.9385
    1SOL    MW4 1748   3.012   2.573   0.647  0.1280  0.0167  0.3451
    1SOL     OW 1749   1.963   3.072   0.801  0.3380 -0.0533  0.0027
    1SOL    HW2 1750   1.964   3.080   0.897 -0.8517 -0.6516  0.0822
    1SOL    HW3 1751   2.049   3.103   0.773  0.9278 -0.4561  1.3150
    1SOL    MW4 1752   1.974   3.077   0.810  0.2588 -0.1853  0.1863
    1SOL     OW 1753   3.107   4.205   1.141 -0.2431  0.1883  0.0275
    1SOL    HW2 1754   3.186   4.250   1.170 -0.4430  0.5181  0.0595
    1SOL    HW3 1755   3.102   4.225   1.047 -0.9888  1.2393  0.2783
    1SOL    MW4 1756   3.117   4.214   1.132 -0.3679  0.3705  0.0650
    1SOL     OW 1757   1.115   3.837   0.906 -0.2106  0.4031 -0.0003
    1SOL    HW2 1758   1.118   3.824   1.001  0.8338 -0.0138 -0.0858
    1SOL    HW3 1759   1.107   3.749   0.870 -0.4517  0.5496 -0.3100
    1SOL    MW4 1760   1.114   3.824   0.914 -0.1045  0.3674 -0.0525
    1SOL     OW 1761   1.822   2.288   0.435 -0.0244  0.0637  0.1263
    1SOL    HW2 1762   1.746   2.236   0.411 -1.8581  2.5148  0.4571
    1SOL    HW3 1763   1.798   2.329   0.518  0.4494  3.2149 -1.2309
    1SOL    MW4 1764   1.809   2.287   0.443 -0.2040  0.8032 -0.0091
    1SOL     OW 1765   2.470   3.242   0.458  0.2518  0.1322  0.1708
    1SOL    HW2 1766   2.374   3.241   0.464  0.2752  1.4759  1.0309
    1SOL    HW3 1767   2.491   3.170   0.399 -1.2059 -1.2552  1.2819
    1SOL    MW4 1768   2.460   3.232   0.451  0.0625  0.1266  0.4309
    1SOL     OW 1769   0.076   4.664   0.323  0.2354  0.1876  0.2785
    1SOL    HW2 1770   0.049   4.701   0.408 -1.1626 -0.4150  0.1026
    1SOL    HW3 1771  -0.005   4.652   0.275  0.8966 -0.9286 -0.5787
    1SOL    MW4 1772   0.062   4.668   0.328  0.1382 -0.0392  0.1422
    1SOL     OW 1773   3.827   0.748   1.146 -0.0071  0.1817 -0.0274
    1SOL    HW2 1774   3.903   0.793   1.182  0.2391 -0.5038  0.3136
    1SOL    HW3 1775   3.752   0.796   1.181  0.2394 -0.1320  0.9301
    1SOL    MW4 1776   3.827   0.760   1.155  0.0577  0.0499  0.1439
    1SOL     OW 1777   0.902   2.460   0.782 -0.1361  0.0482 -0.3053
    1SOL    HW2 1778   0.939   2.471   0.694 -0.3516  0.2293 -0.3734
    1SOL    HW3 1779   0.902   2.549   0.818 -2.2424  0.3547 -0.9973
    1SOL    MW4 1780   0.907   2.474   0.775 -0.4425  0.1125 -0.4056
    1SOL     OW 1781   3.569   0.845   0.787 -0.1815  0.1302  0.0964
    1SOL    HW2 1782   3.648   0.799   0.814 -0.9160 -1.0023  0.3739
    1SOL    HW3 1783   3.598   0.933   0.766  1.3254 -0.5848 -0.8783
    1SOL    MW4 1784   3.583   0.851   0.788 -0.0796 -0.1135  0.0044
    1SOL     OW 1785   3.822   1.657   0.415 -0.2462 -0.1621  0.0039
    1SOL    HW2 1786   3.752   1.658   0.480 -0.3250 -0.9144 -0.0667
    1SOL    HW3 1787   3.776   1.653   0.331 -0.1361  0.2782 -0.0763
    1SOL    MW4 1788   3.806   1.657   0.413 -0.2422 -0.2033 -0.0160
    1SOL     OW 1789   4.047   1.141   0.867 -0.0236  0.1466 -0.0237
    1SOL    HW2 1790   4.031   1.048   0.856  0.6949  0.2462 -2.0874
    1SOL    HW3 1791   3.969   1.183   0.830 -0.2090  0.3790  0.6237
    1SOL    MW4 1792   4.034   1.135   0.861  0.0467  0.1904 -0.2105
    1SOL     OW 1793   4.460   1.175   0.847 -0.2824  0.0507 -0.1247
    1SOL    HW2 1794   4.551   1.202   0.834  0.0290 -1.1169 -0.4408
    1SOL    HW3 1795   4.452   1.160   0.942 -0.2272  0.4568 -0.0586
    1SOL    MW4 1796   4.471   1.176   0.858 -0.2341 -0.0498 -0.1577
    1SOL     OW 1797   2.690   0.457   0.846 -0.0524  0.0102 -0.3789
    1SOL    HW2 1798   2.685   0.370   0.805  2.4313  0.1077 -0.9638
    1SOL    HW3 1799   2.683   0.440   0.939  0.7191 -0.8621 -0.4724
    1SOL    MW4 1800   2.688   0.443   0.853  0.3769 -0.0920 -0.4684
    1SOL     OW 1801   1.100   4.615   0.828  0.0219 -0.2124 -0.1490
    1SOL    HW2 1802   1.028   4.666   0.790 -0.4353  0.1130  1.1580
    1SOL    HW3 1803   1.179   4.665   0.805 -0.0439 -1.0879 -2.4616
    1SOL    MW4 1804   1.101   4.628   0.820 -0.0471 -0.2856 -0.2817
    1SOL     OW 1805   1.811   1.162   0.837  0.6155  0.2528  0.3897
    1SOL    HW2 1806   1.824   1.145   0.930 -0.0706 -0.4644  0.3621
    1SOL    HW3 1807   1.742   1.229   0.835  1.7573  1.4394  0.4372
    1SOL    MW4 1808   1.803   1.169   0.849  0.6757  0.3147  0.3923
    1SOL     OW 1809   3.337   0.115   0.756 -0.3343 -0.0470  0.3242
    1SOL    HW2 1810   3.368   0.032   0.794  0.3581 -1.5966 -3.4168
    1SOL    HW3 1811   3.390   0.182   0.799  1.2530 -1.8034  1.1990
    1SOL    MW4 1812   3.348   0.113   0.767 -0.0336 -0.4832 -0.0539
    1SOL     OW 1813   2.848   2.988   0.843 -0.4095 -0.2206 -0.1719
    1SOL    HW2 1814   2.917   2.923   0.835  0.2046  0.1081  2.1035
    1SOL    HW3 1815   2.766   2.938   0.838  0.0502 -1.1622  1.4190
    1SOL    MW4 1816   2.846   2.973   0.841 -0.2677 -0.3014  0.3383
    1SOL     OW 1817   4.282   2.080   0.746  0.0965 -0.2085 -0.1442
    1SOL    HW2 1818   4.304   2.076   0.652 -0.1345  0.4724 -0.2299
    1SOL    HW3 1819   4.345   2.020   0.787 -1.0260 -1.9793 -0.9425
    1SOL    MW4 1820   4.293   2.071   0.739 -0.0815 -0.3524 -0.2608
    1SOL     OW 1821   3.397   2.322   1.116 -0.0512 -0.4855 -0.5766
    1SOL    HW2 1822   3.308   2.353   1.132 -0.5329 -2.1332  0.0281
    1SOL    HW3 1823   3.453   2.390   1.154 -1.0501  0.5068 -0.8630
    1SOL    MW4 1824   3.393   2.335   1.123 -0.2468 -0.5722 -0.5345
    1SOL     OW 1825   2.355   4.511   0.682 -0.0928 -0.3024 -0.2713
    1SOL    HW2 1826   2.400   4.570   0.742 -0.4018 -0.1350 -0.2014
    1SOL    HW3 1827   2.333   4.435   0.736 -0.0390 -0.3139 -0.2661
    1SOL    MW4 1828   2.358   4.508   0.697 -0.1261 -0.2818 -0.2614
    1SOL     OW 1829   2.900   1.122   0.640 -0.3971 -0.2619  0.4402
    1SOL    HW2 1830   2.880   1.214   0.618 -0.0091 -0.4791 -0.8646
    1SOL    HW3 1831   2.987   1.126   0.680  0.5376 -0.2670 -1.4905
    1SOL    MW4 1832   2.909   1.135   0.642 -0.2224 -0.2912  0.0134
    1SOL     OW 1833   2.718   4.178   0.865  0.2466 -0.2496 -0.3130
    1SOL    HW2 1834   2.779   4.140   0.802  0.5545 -1.2460  0.5691
    1SOL    HW3 1835   2.698   4.265   0.830  0.4772 -0.7519 -1.7284
    1SOL    MW4 1836   2.723   4.185   0.852  0.3173 -0.4468 -0.3834
    1SOL     OW 1837   3.689   2.803   0.546  0.2007  0.3173  0.6122
    1SOL    HW2 1838   3.720   2.827   0.633  1.5803 -0.1012  0.2525
    1SOL    HW3 1839   3.595   2.816   0.549  0.3542  1.2008  1.8816
    1SOL    MW4 1840   3.681   2.808   0.558  0.4029  0.3788  0.7323
    1SOL     OW 1841   1.069   1.255   0.527 -0.3353  0.3201 -0.3068
    1SOL    HW2 1842   1.101   1.180   0.477 -0.4702  0.5167 -0.6846
    1SOL    HW3 1843   0.983   1.274   0.491 -1.2396 -0.7196  1.2664
    1SOL    MW4 1844   1.062   1.248   0.516 -0.4723  0.2090 -0.1491
    1SOL     OW 1845   2.373   3.826   0.885 -0.1253 -0.2357 -0.0629
    1SOL    HW2 1846   2.414   3.892   0.830  0.5812 -1.7219 -1.3618
    1SOL    HW3 1847   2.399   3.849   0.974 -2.2007  2.8526 -0.1867
    1SOL    MW4 1848   2.382   3.837   0.890 -0.3061 -0.0243 -0.2506
    1SOL     OW 1849   3.070   0.279   0.491 -0.0694  0.2893 -0.9228
    1SOL    HW2 1850   3.023   0.254   0.411 -0.3969 -1.1369 -0.3002
    1SOL    HW3 1851   3.146   0.221   0.494 -0.4370 -0.1583  0.1537
    1SOL    MW4 1852   3.074   0.268   0.481 -0.1612  0.0421 -0.6986
    1SOL     OW 1853   2.218   2.643   0.361 -0.5131  0.0434 -0.7624
    1SOL    HW2 1854   2.267   2.570   0.324 -1.0868 -0.7170 -0.0349
    1SOL    HW3 1855   2.137   2.604   0.394  0.5984  0.3965  2.6482
    1SOL    MW4 1856   2.214   2.628   0.361 -0.4420 -0.0103 -0.2164
    1SOL     OW 1857   2.678   3.865   0.534 -0.0754  0.2207  0.4339
    1SOL    HW2 1858   2.764   3.830   0.513 -0.7295 -0.6284 -0.8616
    1SOL    HW3 1859   2.617   3.800   0.502 -1.2168  0.7831  1.4080
    1SOL    MW4 1860   2.681   3.852   0.527 -0.3123  0.1831  0.3915
    1SOL     OW 1861   4.336   2.086   0.458 -0.5227  0.1266 -0.3505
    1SOL    HW2 1862   4.330   1.995   0.428 -1.5432  0.7153 -2.0401
    1SOL    HW3 1863   4.421   2.116   0.426  0.3555 -0.5809  1.2712
    1SOL    MW4 1864   4.346   2.078   0.450 -0.5412  0.1109 -0.3595
    1SOL     OW 1865   0.682   3.635   0.715  0.1849  0.0459 -0.1782
    1SOL    HW2 1866   0.683   3.605   0.624  0.1398 -0.1997 -0.0981
    1SOL    HW3 1867   0.621   3.576   0.758 -1.3304  1.4095 -0.4171
    1SOL    MW4 1868   0.674   3.624   0.708 -0.0209  0.1934 -0.1992
    1SOL     OW 1869   2.434   3.600   0.768 -0.4317 -0.3197 -0.0617
    1SOL    HW2 1870   2.524   3.589   0.798 -0.0695 -0.5622 -1.2022
    1SOL    HW3 1871   2.400   3.674   0.818  0.5988  0.1624 -0.0654
    1SOL    MW4 1872   2.441   3.608   0.778 -0.2477 -0.2878 -0.2127
    1SOL     OW 1873   2.724   4.446   0.740 -0.2837 -0.4555  0.2583
    1SOL    HW2 1874   2.726   4.438   0.644 -2.8376  1.9937 -0.0431
    1SOL    HW3 1875   2.801   4.499   0.761 -0.7146  0.5404 -0.6238
    1SOL    MW4 1876   2.734   4.452   0.730 -0.6773 -0.0010  0.1022
    1SOL     OW 1877   1.767   4.012   0.724 -0.3129  0.2386 -0.0097
    1SOL    HW2 1878   1.760   4.094   0.773 -1.1427 -0.5582  1.2254
    1SOL    HW3 1879   1.861   3.991   0.726 -0.5212 -0.6787  2.7849
    1SOL    MW4 1880   1.779   4.020   0.731 -0.4499  0.0119  0.5220
    1SOL     OW 1881   1.105   2.063   0.537 -0.2110  0.1776  0.2143
    1SOL    HW2 1882   1.176   2.095   0.481 -0.3137 -0.0594 -0.0530
    1SOL    HW3 1883   1.134   2.083   0.626  0.0376  0.3898  0.0866
    1SOL    MW4 1884   1.118   2.070   0.541 -0.1918  0.1743  0.1621
    1SOL     OW 1885   0.447   2.472   0.741  0.1474  0.3674 -0.2595
    1SOL    HW2 1886   0.508   2.400   0.756  0.3288  0.7949  1.0942
    1SOL    HW3 1887   0.360   2.432   0.751  0.2282  0.1454 -0.4316
    1SOL    MW4 1888   0.443   2.457   0.744  0.1820  0.3946 -0.1036
    1SOL     OW 1889   0.879   0.233   0.456  0.1423 -0.6713 -0.4017
    1SOL    HW2 1890   0.962   0.254   0.413  0.4696 -0.3631  0.3836
    1SOL    HW3 1891   0.840   0.318   0.474  0.3793 -0.7865  0.6468
    1SOL    MW4 1892   0.885   0.247   0.452  0.2168 -0.6458 -0.1597
    1SOL     OW 1893   1.123   1.819   0.388 -0.2758  0.0188  0.4915
    1SOL    HW2 1894   1.118   1.892   0.450  0.4178  0.5096 -0.0150
    1SOL    HW3 1895   1.202   1.772   0.414 -0.2723 -0.0763  0.3077
    1SOL    MW4 1896   1.133   1.822   0.400 -0.1837  0.0710  0.4005
    1SOL     OW 1897   3.408   4.539   0.859 -0.4619 -0.1934  0.2714
    1SOL    HW2 1898   3.399   4.581   0.944  0.9302  1.3124 -0.3149
    1SOL    HW3 1899   3.319   4.539   0.823 -0.9481 -0.2814  1.4491
    1SOL    MW4 1900   3.395   4.544   0.865 -0.3421 -0.0062  0.3495
    1SOL     OW 1901   4.070   2.198   0.456  0.2253  0.1321  0.0262
    1SOL    HW2 1902   4.087   2.291   0.446  0.8578 -0.1145 -1.3211
    1SOL    HW3 1903   4.156   2.157   0.445 -0.2162 -0.6779 -0.4939
    1SOL    MW4 1904   4.084   2.205   0.453  0.2508 -0.0074 -0.2202
    1SOL     OW 1905   4.463   1.896   0.852  0.1745 -0.7323  0.3874
    1SOL    HW2 1906   4.494   1.814   0.812  0.3775  0.2272 -1.5109
    1SOL    HW3 1907   4.539   1.954   0.850 -0.5858  0.2585 -0.4295
    1SOL    MW4 1908   4.477   1.893   0.846  0.1011 -0.4750  0.0291
    1SOL     OW 1909   0.693   0.068   0.357 -0.3408  0.2690 -0.4157
    1SOL    HW2 1910   0.753   0.131   0.396 -0.0576  0.6519 -1.4604
    1SOL    HW3 1911   0.740  -0.016   0.361 -0.5463  0.1947  0.5813
    1SOL    MW4 1912   0.707   0.065   0.363 -0.3306  0.3097 -0.4220
    1SOL     OW 1913   0.235   2.067   0.769  0.7064 -0.4331 -0.1342
    1SOL    HW2 1914   0.231   2.161   0.788  0.7902 -0.4456 -0.0577
    1SOL    HW3 1915   0.328   2.046   0.769  0.7156 -0.4112 -0.6632
    1SOL    MW4 1916   0.247   2.077   0.771  0.7187 -0.4315 -0.1940
    1SOL     OW 1917   0.322   3.671   0.469 -0.2659 -0.1339  0.0569
    1SOL    HW2 1918   0.252   3.631   0.417 -0.6266 -0.1984  0.5855
    1SOL    HW3 1919   0.308   3.637   0.558 -0.7607  1.3982  0.5854
    1SOL    MW4 1920   0.311   3.661   0.474 -0.3788  0.0598  0.1963
    1SOL     OW 1921   1.603   3.551   0.454  0.5380  0.2585  0.4112
    1SOL    HW2 1922   1.644   3.480   0.405 -0.0368 -0.1851  0.5560
    1SOL    HW3 1923   1.646   3.631   0.423  2.0014 -0.2521  1.0897
    1SOL    MW4 1924   1.614   3.552   0.443  0.6552  0.1328  0.5198
    1SOL     OW 1925   2.461   3.686   0.497  0.5874  0.1283  0.4408
    1SOL    HW2 1926   2.501   3.613   0.451 -0.9959 -1.2161  1.1404
    1SOL    HW3 1927   2.450   3.655   0.587 -1.2891  0.7325  0.4400
    1SOL    MW4 1928   2.465   3.672   0.503  0.1309  0.0308  0.5330
    1SOL     OW 1929   3.618   1.696   0.202 -0.1222 -0.2493 -0.2049
    1SOL    HW2 1930   3.553   1.643   0.248 -1.7190  2.3451  0.6180
    1SOL    HW3 1931   3.612   1.668   0.111 -2.5215  0.0176 -0.1624
    1SOL    MW4 1932   3.608   1.685   0.196 -0.6495  0.1283 -0.0907
    1SOL     OW 1933   3.802   2.291   0.793 -0.4759  0.0191 -0.0330
    1SOL    HW2 1934   3.869   2.340   0.746  0.5695 -1.6564 -0.3184
    1SOL    HW3 1935   3.723   2.345   0.785 -0.1593  0.1160 -3.1273
    1SOL    MW4 1936   3.800   2.305   0.786 -0.2959 -0.1891 -0.4789
    1SOL     OW 1937   3.906   3.325   0.441 -0.0941 -0.0325  0.2863
    1SOL    HW2 1938   3.899   3.398   0.503 -1.9831 -0.2310  0.3433
    1SOL    HW3 1939   3.918   3.367   0.356 -0.9282  0.3512  0.3517
    1SOL    MW4 1940   3.906   3.340   0.438 -0.4535 -0.0081  0.3024
    1SOL     OW 1941   1.896   1.344   0.310 -0.3986  0.4143 -0.0314
    1SOL    HW2 1942   1.967   1.317   0.367 -1.0661  1.2503  1.2164
    1SOL    HW3 1943   1.817   1.308   0.350 -0.7286 -0.1966 -1.2024
    1SOL    MW4 1944   1.895   1.336   0.323 -0.5302  0.4441 -0.0213
    1SOL     OW 1945   4.051   3.974   0.486 -0.1487  0.3433 -0.2152
    1SOL    HW2 1946   4.105   4.030   0.430 -0.3341  0.5375 -0.2013
    1SOL    HW3 1947   3.964   3.976   0.446 -0.5134  1.2299  0.6014
    1SOL    MW4 1948   4.047   3.982   0.473 -0.2208  0.4861 -0.1056
    1SOL     OW 1949   2.043   2.120   0.438 -0.6232 -0.3375  0.1911
    1SOL    HW2 1950   1.974   2.186   0.433  0.5033  0.8972  0.7404
    1SOL    HW3 1951   2.000   2.039   0.410 -1.9936  0.6280 -0.5700
    1SOL    MW4 1952   2.028   2.118   0.434 -0.6552 -0.0474  0.1632
    1SOL     OW 1953   1.791   1.675   0.736  0.1066 -0.2998  0.1005
    1SOL    HW2 1954   1.868   1.639   0.779  0.5493  2.2422  1.5308
    1SOL    HW3 1955   1.808   1.665   0.642  2.1581  0.1641  0.4026
    1SOL    MW4 1956   1.803   1.669   0.729  0.4356  0.0969  0.3291
    1SOL     OW 1957   0.303   4.639   1.187 -0.4780  0.0732  0.6468
    1SOL    HW2 1958   0.370   4.705   1.206 -1.0011  0.2858  1.7625
    1SOL    HW3 1959   0.279   4.656   1.096  1.6692 -0.6209 -0.0824
    1SOL    MW4 1960   0.309   4.650   1.177 -0.2637  0.0095  0.6979
    1SOL     OW 1961   0.033   0.070   1.251  0.2238  0.3297  0.5288
    1SOL    HW2 1962   0.122   0.039   1.234 -0.3739 -0.8146 -0.6430
    1SOL    HW3 1963   0.031   0.159   1.214  0.8541  0.3116  0.4528
    1SOL    MW4 1964   0.044   0.078   1.244  0.2281  0.1763  0.3642
    1SOL     OW 1965   0.023   0.347   1.180  0.5099 -0.6247 -0.0356
    1SOL    HW2 1966  -0.047   0.401   1.217  0.9267 -0.2574  0.2065
    1SOL    HW3 1967   0.028   0.373   1.088  0.3530 -0.6274 -0.0447
    1SOL    MW4 1968   0.014   0.358   1.173  0.5442 -0.5766 -0.0049
    1SOL     OW 1969   0.236   0.495   1.259 -0.0384 -0.0320  0.5226
    1SOL    HW2 1970   0.240   0.571   1.200 -0.7830  0.0040  0.5060
    1SOL    HW3 1971   0.156   0.449   1.233 -0.7452  0.3531  1.9432
    1SOL    MW4 1972   0.226   0.499   1.248 -0.2299  0.0236  0.7079
    1SOL     OW 1973   0.260   0.757   1.127 -0.1397 -0.1444  0.4231
    1SOL    HW2 1974   0.329   0.823   1.128 -0.3246  0.1436 -1.7282
    1SOL    HW3 1975   0.182   0.803   1.159  0.1350  0.1974  0.6065
    1SOL    MW4 1976   0.258   0.772   1.131 -0.1279 -0.0614  0.1634
    1SOL     OW 1977   0.040   0.873   1.237  0.3944  0.3776  0.0989
    1SOL    HW2 1978   0.028   0.890   1.330  0.5670 -0.3816  0.2609
    1SOL    HW3 1979  -0.037   0.821   1.212  0.4083  0.4797 -0.1576
    1SOL    MW4 1980   0.028   0.868   1.246  0.4191  0.2909  0.0864
    1SOL     OW 1981   4.479   1.125   1.122 -0.0557  0.3997  0.0077
    1SOL    HW2 1982   4.401   1.153   1.170 -0.4478  0.9963 -0.9691
    1SOL    HW3 1983   4.500   1.039   1.158 -0.5923  0.6601  0.9523
    1SOL    MW4 1984   4.472   1.118   1.133 -0.1783  0.5127  0.0033
    1SOL     OW 1985   0.186   1.290   1.207  0.3862 -0.2534  0.0832
    1SOL    HW2 1986   0.257   1.253   1.154 -0.2099 -1.5767  0.1839
    1SOL    HW3 1987   0.109   1.237   1.184 -0.4500  0.8229  0.3622
    1SOL    MW4 1988   0.185   1.278   1.197  0.1972 -0.2861  0.1333
    1SOL     OW 1989   0.246   1.539   1.125  0.1373  0.0015  0.2434
    1SOL    HW2 1990   0.222   1.450   1.152  1.8810  0.0244  1.8919
    1SOL    HW3 1991   0.259   1.532   1.030 -1.0046 -1.1977  0.1586
    1SOL    MW4 1992   0.245   1.526   1.116  0.2167 -0.1535  0.4497
    1SOL     OW 1993   4.487   1.661   1.211  0.1886  0.0656  0.3467
    1SOL    HW2 1994   4.503   1.755   1.198  0.8078 -0.4631 -3.1118
    1SOL    HW3 1995   4.574   1.621   1.209 -0.2646 -0.9107 -1.5770
    1SOL    MW4 1996   4.501   1.668   1.209  0.2103 -0.1329 -0.3633
    1SOL     OW 1997   4.485   1.911   1.125  0.1323 -0.0640  0.4349
    1SOL    HW2 1998   4.407   1.963   1.143 -0.1150 -0.2436 -0.1303
    1SOL    HW3 1999   4.482   1.893   1.031  0.0817 -1.3258  0.6672
    1SOL    MW4 2000   4.474   1.915   1.115  0.0930 -0.2543  0.3909
    1SOL     OW 2001   0.244   2.039   1.216  0.2773  0.1660 -0.2682
    1SOL    HW2 2002   0.235   2.127   1.182 -0.9366 -0.6447 -2.1035
    1SOL    HW3 2003   0.159   1.997   1.199  0.5549 -1.1117  1.3046
    1SOL    MW4 2004   0.232   2.045   1.209  0.1538 -0.1097 -0.3030
    1SOL     OW 2005   0.208   2.299   1.145 -0.4564 -0.3070  0.3966
    1SOL    HW2 2006   0.286   2.340   1.181  0.6068 -1.7041 -0.2733
    1SOL    HW3 2007   0.136   2.357   1.172  0.6640  0.4129  1.9474
    1SOL    MW4 2008   0.209   2.312   1.154 -0.1683 -0.3960  0.5127
    1SOL     OW 2009   4.488   2.436   1.219  0.1144 -0.0704 -0.9160
    1SOL    HW2 2010   4.469   2.440   1.313 -1.0940 -0.7367 -1.1281
    1SOL    HW3 2011   4.419   2.382   1.183  1.0290 -0.4689 -2.0855
    1SOL    MW4 2012   4.476   2.430   1.227  0.0757 -0.2108 -1.0984
    1SOL     OW 2013   0.002   2.698   1.086 -0.2164 -0.3509 -0.3037
    1SOL    HW2 2014  -0.059   2.748   1.141 -0.4897 -1.2742  0.2333
    1SOL    HW3 2015  -0.003   2.609   1.119 -0.6929 -1.0099 -2.1090
    1SOL    MW4 2016  -0.007   2.693   1.098 -0.3153 -0.5596 -0.4709
    1SOL     OW 2017   0.222   2.844   1.191  0.4748  0.0159  0.0666
    1SOL    HW2 2018   0.207   2.829   1.284  0.3141 -0.9229 -0.1117
    1SOL    HW3 2019   0.156   2.791   1.147  0.2485  0.8168 -0.5748
    1SOL    MW4 2020   0.211   2.835   1.197  0.4237 -0.0024 -0.0416
    1SOL     OW 2021   0.203   3.110   1.130 -0.0838 -0.1806 -0.0739
    1SOL    HW2 2022   0.288   3.152   1.147 -0.4996  0.5352  0.2587
    1SOL    HW3 2023   0.220   3.017   1.142  0.5455 -0.0009  0.4786
    1SOL    MW4 2024   0.217   3.104   1.134 -0.0557 -0.0622  0.0430
    1SOL     OW 2025   4.479   3.262   1.223  0.4244  0.2505 -0.2088
    1SOL    HW2 2026   4.413   3.206   1.183  0.9521 -0.6121  0.1131
    1SOL    HW3 2027   4.563   3.223   1.197  0.7751 -0.8053  2.3869
    1SOL    MW4 2028   4.481   3.250   1.214  0.5407 -0.0026  0.1762
    1SOL     OW 2029   0.028   3.517   1.154 -0.0255 -0.0006  0.1424
    1SOL    HW2 2030   0.009   3.433   1.197 -0.0173 -0.6516 -1.1141
    1SOL    HW3 2031   0.041   3.494   1.062 -1.1318  1.5211 -0.4050
    1SOL    MW4 2032   0.027   3.503   1.148 -0.1704  0.1144 -0.0957
    1SOL     OW 2033   0.274   3.583   1.242 -0.3644 -0.0084  0.3360
    1SOL    HW2 2034   0.255   3.608   1.333 -0.3695 -0.5201  0.4772
    1SOL    HW3 2035   0.192   3.547   1.209 -0.3233  0.0483  0.1711
    1SOL    MW4 2036   0.261   3.582   1.250 -0.3597 -0.0684  0.3328
    1SOL     OW 2037   0.216   3.867   1.143  0.4695  0.1171  0.1902
    1SOL    HW2 2038   0.147   3.920   1.183  0.7795 -0.1200  1.0527
    1SOL    HW3 2039   0.208   3.781   1.185  0.1658 -0.4359 -0.9791
    1SOL    MW4 2040   0.206   3.863   1.154  0.4703  0.0129  0.1497
    1SOL     OW 2041   0.018   4.020   1.256  0.4401 -0.0285  0.1898
    1SOL    HW2 2042   0.003   4.017   1.350 -0.0378  0.1309  0.1202
    1SOL    HW3 2043  -0.058   3.977   1.217 -0.0610  1.1457 -0.1808
    1SOL    MW4 2044   0.006   4.014   1.263  0.3109  0.1473  0.1317
    1SOL     OW 2045   0.016   4.244   1.114 -0.1979 -0.3668 -0.2345
    1SOL    HW2 2046   0.089   4.301   1.138 -0.6602  0.4317 -0.6797
    1SOL    HW3 2047   0.016   4.174   1.179  1.2565 -0.6311 -0.5137
    1SOL    MW4 2048   0.025   4.242   1.126 -0.0668 -0.2966 -0.3300
    1SOL     OW 2049   0.203   4.393   1.231 -0.2157  0.4211  0.2416
    1SOL    HW2 2050   0.209   4.364   1.323 -1.9877  1.8752  0.8534
    1SOL    HW3 2051   0.238   4.482   1.231 -0.9844  0.7312 -0.3127
    1SOL    MW4 2052   0.208   4.401   1.243 -0.5510  0.6542  0.2491
    1SOL     OW 2053   0.702   4.661   1.122  0.0708  0.2062  0.1998
    1SOL    HW2 2054   0.789   4.675   1.160 -0.3234  1.5532  0.6188
    1SOL    HW3 2055   0.673   4.578   1.159  0.6648  0.3569  1.0251
    1SOL    MW4 2056   0.710   4.652   1.132  0.0971  0.4034  0.3641
    1SOL     OW 2057   0.512   0.151   1.254 -0.7549 -0.3639 -0.5929
    1SOL    HW2 2058   0.478   0.230   1.213 -2.1987 -0.6524 -0.0067
    1SOL    HW3 2059   0.584   0.123   1.198 -0.5577  1.0835 -1.0734
    1SOL    MW4 2060   0.517   0.157   1.241 -0.9193 -0.2110 -0.5790
    1SOL     OW 2061   0.452   0.392   1.131  0.4340  0.0174  0.0351
    1SOL    HW2 2062   0.529   0.437   1.166 -0.2714  1.5764 -0.3383
    1SOL    HW3 2063   0.378   0.435   1.174 -0.3739  0.9277 -2.1753
    1SOL    MW4 2064   0.453   0.404   1.141  0.2343  0.3432 -0.3059
    1SOL     OW 2065   0.679   0.527   1.221 -0.7081  0.0426  0.5217
    1SOL    HW2 2066   0.689   0.609   1.172  1.0546 -0.1975  0.4167
    1SOL    HW3 2067   0.745   0.468   1.182 -1.2361 -1.0722  1.2894
    1SOL    MW4 2068   0.689   0.530   1.210 -0.5453 -0.1361  0.6092
    1SOL     OW 2069   0.687   0.772   1.076  0.0458  0.0360  0.0765
    1SOL    HW2 2070   0.621   0.824   1.122  0.6877  0.5856  0.3845
    1SOL    HW3 2071   0.686   0.805   0.987  1.0500  1.1751  0.4740
    1SOL    MW4 2072   0.678   0.783   1.071  0.2630  0.2589  0.1695
    1SOL     OW 2073   0.466   0.938   1.156  0.5266 -0.1817 -0.1906
    1SOL    HW2 2074   0.457   0.924   1.250 -2.3438 -0.9895 -0.5286
    1SOL    HW3 2075   0.435   1.027   1.141  1.1710  0.0188 -0.3566
    1SOL    MW4 2076   0.461   0.948   1.166  0.2329 -0.2618 -0.2570
    1SOL     OW 2077   0.674   1.256   1.194  0.0836  0.0222 -0.0671
    1SOL    HW2 2078   0.750   1.202   1.171  0.3302  0.6868 -0.8166
    1SOL    HW3 2079   0.688   1.339   1.148 -1.2171  0.0583 -0.4169
    1SOL    MW4 2080   0.686   1.260   1.185 -0.0555  0.1147 -0.2121
    1SOL     OW 2081   0.914   1.143   1.132 -0.0134  0.0480 -0.4507
    1SOL    HW2 2082   0.985   1.202   1.158  1.7801 -1.4345 -1.8490
    1SOL    HW3 2083   0.900   1.162   1.039 -0.4621 -0.6911 -0.5318
    1SOL    MW4 2084   0.922   1.154   1.123  0.1641 -0.2450 -0.6458
    1SOL     OW 2085   0.676   1.521   1.097 -0.3546 -0.1661 -0.2169
    1SOL    HW2 2086   0.752   1.569   1.131 -0.8501  1.3602 -1.2390
    1SOL    HW3 2087   0.601   1.578   1.116 -0.9627 -0.5814 -1.3405
    1SOL    MW4 2088   0.676   1.535   1.104 -0.5001 -0.0196 -0.5000
    1SOL     OW 2089   0.466   1.667   1.195  0.3099  0.4012  0.1835
    1SOL    HW2 2090   0.465   1.647   1.289  0.9520 -0.2024  0.0695
    1SOL    HW3 2091   0.384   1.631   1.162 -0.4531  1.6169  0.7060
    1SOL    MW4 2092   0.455   1.660   1.203  0.2939  0.4820  0.2373
    1SOL     OW 2093   0.484   1.930   1.119  0.0686  0.0415  0.2270
    1SOL    HW2 2094   0.467   1.838   1.139 -1.3839  0.3391  0.3945
    1SOL    HW3 2095   0.408   1.977   1.153  0.9910  1.3599  0.5060
    1SOL    MW4 2096   0.472   1.924   1.126 -0.0013  0.2546  0.2859
    1SOL     OW 2097   0.707   2.066   1.219  0.0286 -0.2170  0.1689
    1SOL    HW2 2098   0.707   2.060   1.315 -0.5817  1.0374  0.2549
    1SOL    HW3 2099   0.631   2.015   1.192  0.7863 -1.4225  0.2892
    1SOL    MW4 2100   0.697   2.058   1.228  0.0480 -0.2108  0.1961
    1SOL     OW 2101   0.666   2.320   1.100 -0.3903  0.1308 -0.4873
    1SOL    HW2 2102   0.581   2.340   1.138 -1.0797 -0.8436 -1.4822
    1SOL    HW3 2103   0.696   2.242   1.146 -0.4845 -0.1037 -0.8241
    1SOL    MW4 2104   0.659   2.312   1.111 -0.4936 -0.0286 -0.6629
    1SOL     OW 2105   0.437   2.440   1.210 -0.3112  0.4823  0.3498
    1SOL    HW2 2106   0.442   2.450   1.305 -0.8370  2.4099  0.1959
    1SOL    HW3 2107   0.442   2.529   1.176  0.1895 -0.2125 -1.4597
    1SOL    MW4 2108   0.438   2.453   1.218 -0.3145  0.6447  0.0910
    1SOL     OW 2109   0.465   2.717   1.127 -0.1295  0.4022 -0.3322
    1SOL    HW2 2110   0.388   2.770   1.149 -1.3642 -1.6584  0.4869
    1SOL    HW3 2111   0.472   2.723   1.032 -0.1552  2.1584 -0.2258
    1SOL    MW4 2112   0.456   2.724   1.117 -0.2958  0.3622 -0.2099
    1SOL     OW 2113   0.688   2.833   1.253 -0.3169 -0.3595 -0.0700
    1SOL    HW2 2114   0.682   2.921   1.215  0.5986 -0.6121 -0.8034
    1SOL    HW3 2115   0.619   2.784   1.208 -0.4184 -0.1819 -0.1109
    1SOL    MW4 2116   0.678   2.838   1.242 -0.2096 -0.3691 -0.1721
    1SOL     OW 2117   0.649   3.090   1.149  0.1392 -0.6890 -0.3402
    1SOL    HW2 2118   0.722   3.149   1.167  1.0030 -1.4519 -1.2568
    1SOL    HW3 2119   0.653   3.076   1.054 -1.4236 -0.4551 -0.4487
    1SOL    MW4 2120   0.659   3.096   1.139  0.0470 -0.7589 -0.4754
    1SOL     OW 2121   0.437   3.222   1.243 -0.0458 -0.1019 -0.8481
    1SOL    HW2 2122   0.467   3.310   1.222 -0.3888  0.1820 -0.1329
    1SOL    HW3 2123   0.506   3.165   1.210  1.3476  0.5470  0.8764
    1SOL    MW4 2124   0.450   3.226   1.236  0.0928  0.0212 -0.5262
    1SOL     OW 2125   0.519   3.493   1.127 -0.0085 -0.0846 -0.6717
    1SOL    HW2 2126   0.588   3.554   1.155  0.9543 -1.0501 -0.9011
    1SOL    HW3 2127   0.438   3.530   1.162  1.0441 -0.7635  2.6075
    1SOL    MW4 2128   0.517   3.506   1.135  0.2574 -0.3014 -0.2694
    1SOL     OW 2129   0.736   3.647   1.200  0.0655 -0.0636 -0.5898
    1SOL    HW2 2130   0.709   3.730   1.161  1.2968  0.7343  0.2083
    1SOL    HW3 2131   0.710   3.654   1.292 -0.0638 -0.6673 -0.5808
    1SOL    MW4 2132   0.729   3.659   1.207  0.2108 -0.0379 -0.4834
    1SOL     OW 2133   0.430   4.016   1.245 -0.4559  0.6708  0.1581
    1SOL    HW2 2134   0.357   3.963   1.213 -0.3796  0.3134  0.5783
    1SOL    HW3 2135   0.509   3.972   1.212 -0.4008  0.6511  0.3172
    1SOL    MW4 2136   0.431   4.004   1.236 -0.4386  0.6213  0.2345
    1SOL     OW 2137   0.424   4.249   1.108  0.0450  0.2517  0.0308
    1SOL    HW2 2138   0.351   4.288   1.156 -0.3236 -1.6348  1.0430
    1SOL    HW3 2139   0.427   4.158   1.138  1.8795 -0.0908 -1.1024
    1SOL    MW4 2140   0.415   4.242   1.119  0.2384 -0.0420  0.0149
    1SOL     OW 2141   0.632   4.415   1.226  0.6893  0.2060  0.0207
    1SOL    HW2 2142   0.652   4.397   1.317  0.1931  1.6687  0.4355
    1SOL    HW3 2143   0.551   4.368   1.209  1.2266 -0.7537  0.0821
    1SOL    MW4 2144   0.624   4.406   1.235  0.6947  0.2723  0.0836
    1SOL     OW 2145   0.887   4.293   1.139  0.1169 -0.1222  0.1159
    1SOL    HW2 2146   0.903   4.202   1.164  0.8853  0.4702  1.8085
    1SOL    HW3 2147   0.795   4.308   1.159  0.1857 -0.2951  0.5546
    1SOL    MW4 2148   0.877   4.283   1.145  0.2274 -0.0668  0.3972
    1SOL     OW 2149   1.281   4.229   0.892 -0.1923  0.1377  0.5229
    1SOL    HW2 2150   1.303   4.143   0.856 -1.5804  0.0131 -0.0608
    1SOL    HW3 2151   1.229   4.271   0.824 -0.1188  1.1731  1.0951
    1SOL    MW4 2152   1.277   4.223   0.878 -0.3656  0.2580  0.5214
    1SOL     OW 2153   0.942   0.124   1.231 -0.2076  0.4404 -0.4851
    1SOL    HW2 2154   0.932   0.078   1.314  0.9029 -0.0487 -0.6142
    1SOL    HW3 2155   1.004   0.071   1.181  0.7351  1.8171 -0.8197
    1SOL    MW4 2156   0.949   0.111   1.236  0.0632  0.5575 -0.5463
    1SOL     OW 2157   0.878   0.356   1.122 -0.6638  0.1391  0.1365
    1SOL    HW2 2158   0.879   0.268   1.160 -0.5783 -0.4655 -1.2636
    1SOL    HW3 2159   0.897   0.343   1.030  1.1281  1.8139  0.2513
    1SOL    MW4 2160   0.881   0.343   1.115 -0.4161  0.2804 -0.0330
    1SOL     OW 2161   1.111   0.505   1.205  0.0547  0.3528 -0.8732
    1SOL    HW2 2162   1.111   0.502   1.301 -0.9631  1.5048 -0.8232
    1SOL    HW3 2163   1.036   0.450   1.180  1.3871 -1.4027 -1.0835
    1SOL    MW4 2164   1.101   0.497   1.214  0.0962  0.2732 -0.8943
    1SOL     OW 2165   1.104   0.784   1.105 -0.2063  0.2618  0.3721
    1SOL    HW2 2166   1.033   0.830   1.150  0.6329  1.0508  0.9214
    1SOL    HW3 2167   1.100   0.694   1.138 -0.9130  0.3205  0.4429
    1SOL    MW4 2168   1.094   0.778   1.115 -0.1888  0.3737  0.4539
    1SOL     OW 2169   0.893   0.893   1.238  0.0938  0.2208 -0.5766
    1SOL    HW2 2170   0.901   0.979   1.196 -0.5315  1.3961  1.6222
    1SOL    HW3 2171   0.828   0.846   1.185  1.5613  0.5127 -2.6953
    1SOL    MW4 2172   0.885   0.898   1.225  0.2050  0.4145 -0.5661
    1SOL     OW 2173   1.122   1.253   0.805  0.3336  0.3302  0.2893
    1SOL    HW2 2174   1.105   1.263   0.711  1.1825  0.1021  0.1090
    1SOL    HW3 2175   1.147   1.341   0.833  1.1436  0.1688  0.0799
    1SOL    MW4 2176   1.123   1.266   0.796  0.5524  0.2788  0.2378
    1SOL     OW 2177   1.143   1.272   1.185 -0.1320 -0.2459  0.0343
    1SOL    HW2 2178   1.159   1.289   1.278  0.1833  0.7279 -0.1894
    1SOL    HW3 2179   1.214   1.213   1.158 -0.2193 -0.5197  0.4099
    1SOL    MW4 2180   1.154   1.266   1.193 -0.1019 -0.1537  0.0544
    1SOL     OW 2181   1.178   1.545   1.165  0.1687 -0.1346 -0.2935
    1SOL    HW2 2182   1.169   1.450   1.165 -0.4101 -0.0881  0.8669
    1SOL    HW3 2183   1.089   1.578   1.177  0.4486  0.5332  0.0076
    1SOL    MW4 2184   1.165   1.537   1.167  0.1292 -0.0403 -0.1007
    1SOL     OW 2185   0.937   1.655   1.185 -0.0564 -0.3747  0.1728
    1SOL    HW2 2186   0.933   1.746   1.154 -1.6167 -0.3294  0.4306
    1SOL    HW3 2187   0.904   1.659   1.275  0.4521 -1.1124  0.3959
    1SOL    MW4 2188   0.932   1.668   1.193 -0.1953 -0.4661  0.2362
    1SOL     OW 2189   0.705   1.935   0.423  0.1816 -0.2775 -0.0724
    1SOL    HW2 2190   0.668   1.948   0.510 -0.9404 -2.1851 -0.2364
    1SOL    HW3 2191   0.731   2.023   0.395 -0.2730  0.4885  1.8109
    1SOL    MW4 2192   0.703   1.948   0.431 -0.0265 -0.4281  0.1544
    1SOL     OW 2193   1.168   2.040   1.214 -0.0485  0.2643 -0.6143
    1SOL    HW2 2194   1.177   2.046   1.309 -0.6294  0.7126 -0.5798
    1SOL    HW3 2195   1.162   2.131   1.185 -1.9756  0.0976 -0.8474
    1SOL    MW4 2196   1.168   2.053   1.223 -0.3794  0.3016 -0.6405
    1SOL     OW 2197   1.127   2.313   1.140  0.0375  0.1667  0.5948
    1SOL    HW2 2198   1.198   2.376   1.156  1.2467 -0.8162 -0.8153
    1SOL    HW3 2199   1.047   2.363   1.156  1.0348  1.0389  3.1361
    1SOL    MW4 2200   1.126   2.328   1.144  0.3287  0.1521  0.7441
    1SOL     OW 2201   0.897   2.453   1.202 -0.4541  0.2682  0.1701
    1SOL    HW2 2202   0.882   2.461   1.296 -0.6009 -1.6921  0.3378
    1SOL    HW3 2203   0.811   2.428   1.166 -0.6471  1.9838 -0.6369
    1SOL    MW4 2204   0.884   2.451   1.209 -0.4989  0.2358  0.0856
    1SOL     OW 2205   0.930   2.724   1.185  0.3864  0.1557 -0.5493
    1SOL    HW2 2206   0.921   2.628   1.186  0.1748  0.1767  0.7121
    1SOL    HW3 2207   0.846   2.756   1.217  0.8796  0.7239  0.1967
    1SOL    MW4 2208   0.918   2.715   1.189  0.4236  0.2337 -0.2843
    1SOL     OW 2209   1.168   2.847   1.283 -0.3743 -0.1770  0.0792
    1SOL    HW2 2210   1.158   2.865   1.376 -2.3497 -0.3147 -0.0990
    1SOL    HW3 2211   1.088   2.800   1.258  1.4703 -2.8637 -1.0283
    1SOL    MW4 2212   1.156   2.843   1.292 -0.3915 -0.5498 -0.0905
    1SOL     OW 2213   1.126   3.096   1.159  0.2665 -0.1019 -0.3405
    1SOL    HW2 2214   1.135   3.006   1.190  0.7879 -0.0655 -0.3845
    1SOL    HW3 2215   1.105   3.087   1.066  2.8117 -0.1479 -0.9531
    1SOL    MW4 2216   1.124   3.083   1.151  0.6711 -0.1030 -0.4271
    1SOL     OW 2217   0.879   3.254   1.227  0.1622 -0.2619  0.2155
    1SOL    HW2 2218   0.890   3.336   1.178  0.8632 -0.0360  0.7489
    1SOL    HW3 2219   0.954   3.201   1.200 -0.0098 -0.5285  0.2691
    1SOL    MW4 2220   0.890   3.258   1.217  0.2320 -0.2670  0.2929
    1SOL     OW 2221   0.926   3.486   1.075  0.3312  0.2074 -0.5433
    1SOL    HW2 2222   0.861   3.544   1.114 -1.0075  0.1151 -2.5849
    1SOL    HW3 2223   0.899   3.477   0.983  2.4782 -0.8745 -1.1033
    1SOL    MW4 2224   0.914   3.492   1.068  0.4379  0.0525 -0.8866
    1SOL     OW 2225   1.165   3.554   1.228 -0.4735  0.1163 -0.0657
    1SOL    HW2 2226   1.237   3.515   1.179 -1.3141 -0.4477 -0.8653
    1SOL    HW3 2227   1.086   3.523   1.183 -1.2042  0.9307  0.6482
    1SOL    MW4 2228   1.164   3.545   1.215 -0.6808  0.1493 -0.0770
    1SOL     OW 2229   0.912   4.020   1.217  0.2899 -0.1827 -0.2126
    1SOL    HW2 2230   0.898   4.016   1.312 -0.3001 -2.7796 -0.3583
    1SOL    HW3 2231   0.978   3.954   1.200  0.9080  0.7609 -1.5497
    1SOL    MW4 2232   0.919   4.011   1.227  0.2936 -0.4010 -0.4082
    1SOL     OW 2233   4.460   4.197   0.845 -0.2149 -0.4818  0.2350
    1SOL    HW2 2234   4.526   4.262   0.822  0.6975 -1.5135 -0.1503
    1SOL    HW3 2235   4.458   4.197   0.941 -0.1401  0.0385  0.2354
    1SOL    MW4 2236   4.469   4.205   0.854 -0.0847 -0.5488  0.1842
    1SOL     OW 2237   2.613   0.952   0.215 -0.2058 -0.0368  0.0909
    1SOL    HW2 2238   2.637   1.037   0.178  1.0268  0.2407  1.4871
    1SOL    HW3 2239   2.687   0.928   0.271 -1.3946 -1.1217  1.2405
    1SOL    MW4 2240   2.626   0.960   0.217 -0.2000 -0.1433  0.4268
    1SOL     OW 2241   1.152   0.004   1.092  0.2067  0.2527  0.0037
    1SOL    HW2 2242   1.149  -0.077   1.142 -1.7783 -0.0647 -0.5990
    1SOL    HW3 2243   1.119  -0.020   1.005  1.4421  1.2906 -0.7780
    1SOL    MW4 2244   1.148  -0.010   1.087  0.1076  0.3471 -0.1789
    1SOL     OW 2245   1.560   4.655   1.161  0.4914  0.0611  0.1495
    1SOL    HW2 2246   1.532   4.629   1.073 -0.8514  0.0706  0.5684
    1SOL    HW3 2247   1.559   4.574   1.212 -0.8300  0.4196  0.7038
    1SOL    MW4 2248   1.556   4.641   1.156  0.1398  0.1092  0.2779
    1SOL     OW 2249   1.356   0.125   1.270  0.6200  0.0010  0.4797
    1SOL    HW2 2250   1.437   0.088   1.236 -0.1387 -1.5158  0.2861
    1SOL    HW3 2251   1.288   0.094   1.211 -0.1941  0.6983  1.0337
    1SOL    MW4 2252   1.358   0.116   1.258  0.4125 -0.1071  0.5274
    1SOL     OW 2253   1.342   0.375   1.112  0.1382 -0.2939  0.3384
    1SOL    HW2 2254   1.350   0.291   1.159  0.2472 -0.8511 -0.6720
    1SOL    HW3 2255   1.267   0.418   1.153  0.1331 -0.8390  0.9214
    1SOL    MW4 2256   1.333   0.370   1.124  0.1520 -0.4394  0.2820
    1SOL     OW 2257   1.586   0.480   1.194  0.2669  0.0462 -0.0752
    1SOL    HW2 2258   1.589   0.568   1.155 -0.9314 -0.0545 -0.4057
    1SOL    HW3 2259   1.496   0.450   1.179 -0.1107 -0.1685  2.3844
    1SOL    MW4 2260   1.574   0.488   1.187  0.0590  0.0046  0.2058
    1SOL     OW 2261   1.554   0.748   1.119  0.1530 -0.2831  0.4525
    1SOL    HW2 2262   1.636   0.791   1.141 -1.4656  2.2938  1.7627
    1SOL    HW3 2263   1.545   0.759   1.024  0.4449  1.0482  0.5716
    1SOL    MW4 2264   1.563   0.755   1.109 -0.0219  0.2325  0.6410
    1SOL     OW 2265   1.319   0.898   1.213  0.4735  0.2979  0.2696
    1SOL    HW2 2266   1.396   0.845   1.193  0.5846  1.0086 -1.2607
    1SOL    HW3 2267   1.245   0.845   1.184  0.4944  0.3164  0.1813
    1SOL    MW4 2268   1.320   0.884   1.207  0.4908  0.3942  0.0560
    1SOL     OW 2269   1.377   1.145   1.097 -0.5676 -0.2470  0.0506
    1SOL    HW2 2270   1.381   1.113   1.007  0.4091  0.4431 -0.1575
    1SOL    HW3 2271   1.382   1.066   1.151  1.2297 -0.5011 -0.4665
    1SOL    MW4 2272   1.378   1.131   1.093 -0.2016 -0.1895 -0.0451
    1SOL     OW 2273   1.602   1.283   1.209 -0.4430 -0.4841  0.4368
    1SOL    HW2 2274   1.526   1.256   1.157 -0.1251 -0.1430 -0.2231
    1SOL    HW3 2275   1.595   1.379   1.211  0.1828 -0.4268  0.0316
    1SOL    MW4 2276   1.591   1.292   1.202 -0.3185 -0.4314  0.2964
    1SOL     OW 2277   1.608   1.549   1.165  0.1268  0.0908  0.4193
    1SOL    HW2 2278   1.696   1.586   1.164  0.6746 -1.2224  0.0582
    1SOL    HW3 2279   1.575   1.561   1.076 -0.1274  0.7163  0.5919
    1SOL    MW4 2280   1.615   1.556   1.153  0.1656  0.0001  0.3945
    1SOL     OW 2281   1.386   1.678   1.287  0.0256 -0.1905 -0.3876
    1SOL    HW2 2282   1.465   1.633   1.256 -0.3993 -1.1814 -0.0722
    1SOL    HW3 2283   1.314   1.632   1.243 -0.4642 -0.3536  0.5632
    1SOL    MW4 2284   1.386   1.666   1.277 -0.0951 -0.3428 -0.2204
    1SOL     OW 2285   1.380   1.891   1.107 -0.2107 -0.2967 -0.1950
    1SOL    HW2 2286   1.377   1.810   1.158  1.0558  0.7161  1.5322
    1SOL    HW3 2287   1.304   1.941   1.137 -0.2511 -0.2908 -0.3073
    1SOL    MW4 2288   1.369   1.887   1.118 -0.0490 -0.1622  0.0182
    1SOL     OW 2289   1.522   2.279   1.104 -0.4631  0.3550  0.3026
    1SOL    HW2 2290   1.462   2.350   1.128 -0.8734 -0.1655  0.8506
    1SOL    HW3 2291   1.528   2.283   1.009 -0.6512  0.9917  0.3178
    1SOL    MW4 2292   1.515   2.289   1.095 -0.5420  0.3700  0.3769
    1SOL     OW 2293   2.032   4.328   0.443  0.0055 -0.3309 -0.1527
    1SOL    HW2 2294   2.028   4.420   0.416  1.9216 -0.3760 -0.6352
    1SOL    HW3 2295   2.004   4.329   0.535 -0.4502  0.6735 -0.3025
    1SOL    MW4 2296   2.028   4.340   0.452  0.1984 -0.2046 -0.2361
    1SOL     OW 2297   1.343   2.461   1.190 -0.4609 -0.0642 -0.0996
    1SOL    HW2 2298   1.340   2.451   1.285 -1.9412 -0.2148 -0.1497
    1SOL    HW3 2299   1.357   2.554   1.175  0.3173 -0.1242  0.2712
    1SOL    MW4 2300   1.344   2.472   1.200 -0.5535 -0.0920 -0.0575
    1SOL     OW 2301   1.365   2.739   1.123 -0.3669 -0.3553  0.3854
    1SOL    HW2 2302   1.449   2.765   1.160  0.4231 -0.9974 -0.9232
    1SOL    HW3 2303   1.300   2.781   1.179  0.8362  1.4899  0.4569
    1SOL    MW4 2304   1.367   2.748   1.135 -0.1037 -0.1965  0.2222
    1SOL     OW 2305   1.579   2.814   1.259 -0.2595 -0.0463 -0.3299
    1SOL    HW2 2306   1.658   2.770   1.228  1.0692  0.8325  1.6870
    1SOL    HW3 2307   1.579   2.898   1.213  1.6415  1.2055  1.8195
    1SOL    MW4 2308   1.590   2.819   1.249  0.1667  0.2346  0.2198
    1SOL     OW 2309   1.568   3.039   1.095 -0.0548 -0.5292  0.2230
    1SOL    HW2 2310   1.642   3.085   1.134  0.5342  0.2278 -1.6886
    1SOL    HW3 2311   1.491   3.082   1.132  0.4817  0.3357  0.3716
    1SOL    MW4 2312   1.568   3.051   1.105  0.0936 -0.3152 -0.0097
    1SOL     OW 2313   1.366   3.224   1.193  0.2091  0.0605  0.0114
    1SOL    HW2 2314   1.358   3.251   1.284 -0.9837 -0.2222  0.0018
    1SOL    HW3 2315   1.286   3.174   1.176  0.9098 -0.7809 -0.8792
    1SOL    MW4 2316   1.354   3.221   1.203  0.1442 -0.0877 -0.1072
    1SOL     OW 2317   1.378   3.472   1.070  0.1263 -0.4167 -0.3679
    1SOL    HW2 2318   1.383   3.384   1.109 -0.8304 -0.6440 -0.7439
    1SOL    HW3 2319   1.360   3.455   0.977  1.2516  0.1464 -0.6952
    1SOL    MW4 2320   1.377   3.458   1.063  0.1485 -0.3726 -0.4607
    1SOL     OW 2321   1.585   3.617   1.203  0.1199 -0.1694 -0.5937
    1SOL    HW2 2322   1.595   3.703   1.161 -0.7811  1.2783  2.0575
    1SOL    HW3 2323   1.507   3.579   1.162  0.4949  0.2942 -1.7509
    1SOL    MW4 2324   1.576   3.623   1.192  0.0505  0.0830 -0.3966
    1SOL     OW 2325   2.194   3.805   0.469 -0.2774  0.1068 -0.1598
    1SOL    HW2 2326   2.193   3.856   0.387 -1.5014 -0.3789 -0.4516
    1SOL    HW3 2327   2.287   3.785   0.482  0.2073  2.1595 -0.1908
    1SOL    MW4 2328   2.206   3.809   0.460 -0.3750  0.3138 -0.2024
    1SOL     OW 2329   1.335   4.252   1.151  0.5917 -0.4138 -0.1697
    1SOL    HW2 2330   1.265   4.310   1.180  0.1623 -1.0737  0.1335
    1SOL    HW3 2331   1.331   4.254   1.056  0.4037 -0.1573 -0.1559
    1SOL    MW4 2332   1.325   4.260   1.142  0.5102 -0.4673 -0.1279
    1SOL     OW 2333   1.982   3.375   0.326 -0.2795 -0.3217 -0.1479
    1SOL    HW2 2334   1.987   3.464   0.362  1.6580  0.3730 -2.0386
    1SOL    HW3 2335   2.048   3.326   0.375 -0.3880 -0.3702 -0.0500
    1SOL    MW4 2336   1.992   3.380   0.337 -0.0383 -0.2365 -0.3844
    1SOL     OW 2337   1.546   4.387   1.258 -0.0576  0.2800  0.9536
    1SOL    HW2 2338   1.545   4.392   1.354 -1.6183 -0.7923  1.0151
    1SOL    HW3 2339   1.464   4.342   1.236  0.1196  0.8321 -0.9027
    1SOL    MW4 2340   1.535   4.382   1.268 -0.2401  0.2112  0.7168
    1SOL     OW 2341   2.032   4.606   1.096 -0.1614  0.1944  0.0445
    1SOL    HW2 2342   2.032   4.526   1.149 -0.3943  0.0507 -0.1713
    1SOL    HW3 2343   1.964   4.661   1.136  0.2859  0.4554  0.4488
    1SOL    MW4 2344   2.023   4.603   1.108 -0.1333  0.2098  0.0694
    1SOL     OW 2345   1.822   0.093   1.218  0.4996 -0.0133 -0.1910
    1SOL    HW2 2346   1.842   0.182   1.188  0.3217  0.3664  0.8038
    1SOL    HW3 2347   1.732   0.078   1.191  0.1957  0.4915  0.5275
    1SOL    MW4 2348   1.813   0.103   1.211  0.4361  0.1034  0.0350
    1SOL     OW 2349   1.831   0.362   1.127  0.0727 -0.8525 -0.2547
    1SOL    HW2 2350   1.745   0.400   1.145 -0.2648 -1.2070 -1.0879
    1SOL    HW3 2351   1.834   0.354   1.032  1.4266  0.0818 -0.2936
    1SOL    MW4 2352   1.820   0.366   1.117  0.2066 -0.7760 -0.3698
    1SOL     OW 2353   2.051   0.476   1.222  0.1756 -0.2192  0.0223
    1SOL    HW2 2354   2.048   0.488   1.317  0.0089  0.3190 -0.0456
    1SOL    HW3 2355   1.966   0.437   1.200 -0.3786  0.9884 -0.0709
    1SOL    MW4 2356   2.039   0.473   1.232  0.0808  0.0111  0.0010
    1SOL     OW 2357   2.021   0.743   1.122 -0.4498 -0.4818  0.2727
    1SOL    HW2 2358   2.022   0.720   1.029 -1.5338 -0.1841  0.1747
    1SOL    HW3 2359   2.037   0.661   1.168 -2.1630 -1.0629 -0.1321
    1SOL    MW4 2360   2.023   0.730   1.116 -0.8187 -0.5192  0.2065
    1SOL     OW 2361   1.782   0.856   1.199 -0.5445 -0.4013 -0.1502
    1SOL    HW2 2362   1.795   0.845   1.294 -0.6677 -0.5653 -0.1516
    1SOL    HW3 2363   1.853   0.805   1.160 -0.0580  0.2540 -0.1426
    1SOL    MW4 2364   1.793   0.848   1.207 -0.4966 -0.3365 -0.1493
    1SOL     OW 2365   1.842   1.138   1.121  0.0281 -0.1559  0.0966
    1SOL    HW2 2366   1.829   1.046   1.146 -0.0203 -0.1168  0.2176
    1SOL    HW3 2367   1.765   1.183   1.156  0.9892  0.2560  1.7514
    1SOL    MW4 2368   1.830   1.132   1.129  0.1485 -0.0964  0.3308
    1SOL     OW 2369   2.069   1.285   1.196  0.2317 -0.3236 -0.4468
    1SOL    HW2 2370   2.148   1.237   1.170  0.7015 -0.0958  0.5673
    1SOL    HW3 2371   1.997   1.228   1.167  0.7492 -0.4776 -1.4768
    1SOL    MW4 2372   2.070   1.271   1.189  0.3617 -0.3139 -0.4488
    1SOL     OW 2373   2.038   1.539   1.129  0.0334  0.0298  0.2573
    1SOL    HW2 2374   2.046   1.445   1.147  1.5628 -0.0152 -0.6238
    1SOL    HW3 2375   2.025   1.544   1.035 -0.0415  0.7193  0.3029
    1SOL    MW4 2376   2.037   1.527   1.119  0.2251  0.1147  0.1470
    1SOL     OW 2377   1.839   1.688   1.210  0.4496 -0.2091 -0.0147
    1SOL    HW2 2378   1.854   1.771   1.165 -0.1337 -0.2648 -0.3195
    1SOL    HW3 2379   1.917   1.635   1.191 -0.1800 -0.5552 -1.6897
    1SOL    MW4 2380   1.851   1.692   1.202  0.2897 -0.2620 -0.2760
    1SOL     OW 2381   1.600   2.033   1.193  0.3251  0.3536  0.1177
    1SOL    HW2 2382   1.565   2.115   1.159  0.6820 -0.4499 -2.2983
    1SOL    HW3 2383   1.538   1.967   1.162  1.5197 -0.5745 -0.3253
    1SOL    MW4 2384   1.587   2.035   1.184  0.5298  0.1249 -0.2595
    1SOL     OW 2385   2.051   2.022   1.182 -0.2397 -0.0421  0.3794
    1SOL    HW2 2386   2.041   2.021   1.278  0.4029 -0.2450  0.4498
    1SOL    HW3 2387   1.964   2.001   1.149 -0.2111 -1.0992  0.9406
    1SOL    MW4 2388   2.038   2.019   1.191 -0.1509 -0.2086  0.4628
    1SOL     OW 2389   1.993   2.277   1.094 -0.2094  0.6425 -0.2982
    1SOL    HW2 2390   2.067   2.332   1.120  0.0980  0.4990 -0.8649
    1SOL    HW3 2391   2.009   2.192   1.134  0.4239  0.3286 -1.1961
    1SOL    MW4 2392   2.005   2.273   1.102 -0.0851  0.5817 -0.4914
    1SOL     OW 2393   1.753   2.418   1.199  0.6880 -1.0386  0.6175
    1SOL    HW2 2394   1.829   2.363   1.181  0.3877 -0.7008 -1.9393
    1SOL    HW3 2395   1.677   2.362   1.182  0.3838 -0.2246 -0.7842
    1SOL    MW4 2396   1.753   2.404   1.194  0.6082 -0.8867  0.0952
    1SOL     OW 2397   1.797   2.698   1.086  0.0532  0.4800  0.5347
    1SOL    HW2 2398   1.786   2.608   1.115  0.6174  0.8663  1.9727
    1SOL    HW3 2399   1.781   2.695   0.992 -0.0989 -1.0860  0.6025
    1SOL    MW4 2400   1.793   2.686   1.078  0.1075  0.3240  0.7333
    1SOL     OW 2401   2.010   2.809   1.229 -0.0793 -0.4750 -0.3464
    1SOL    HW2 2402   2.009   2.878   1.163 -1.3682  0.5290  0.6985
    1SOL    HW3 2403   1.939   2.750   1.204  0.2963 -0.8157 -0.6091
    1SOL    MW4 2404   2.000   2.810   1.217 -0.1998 -0.3877 -0.2432
    1SOL     OW 2405   2.010   3.057   1.093 -0.6979 -0.3546  0.6431
    1SOL    HW2 2406   1.938   3.096   1.142 -0.6462  1.3624 -0.6012
    1SOL    HW3 2407   2.088   3.084   1.140 -0.6583  1.1360 -0.2532
    1SOL    MW4 2408   2.011   3.066   1.106 -0.6857  0.0687  0.3606
    1SOL     OW 2409   1.773   3.171   1.207  0.1409  0.3058 -0.4811
    1SOL    HW2 2410   1.764   3.180   1.302 -1.0732  1.2526 -0.6757
    1SOL    HW3 2411   1.802   3.257   1.177  1.1437 -0.1742 -0.9024
    1SOL    MW4 2412   1.775   3.183   1.216  0.1131  0.3672 -0.5624
    1SOL     OW 2413   1.812   3.435   1.140 -0.2324  0.3825  0.1464
    1SOL    HW2 2414   1.867   3.506   1.174 -0.5077  0.2102  0.9519
    1SOL    HW3 2415   1.722   3.462   1.158 -0.3513 -0.0614  0.2330
    1SOL    MW4 2416   1.808   3.448   1.147 -0.2843  0.3011  0.2639
    1SOL     OW 2417   1.997   3.613   1.214  0.3174  0.0686  0.3101
    1SOL    HW2 2418   1.996   3.630   1.308 -0.0925 -1.6673  0.6373
    1SOL    HW3 2419   2.064   3.546   1.202 -0.7660 -0.9144 -0.3952
    1SOL    MW4 2420   2.006   3.606   1.225  0.1206 -0.2904  0.2604
    1SOL     OW 2421   2.045   3.868   1.148  0.0580 -0.1215 -0.2894
    1SOL    HW2 2422   2.060   3.869   1.053  1.4310 -1.8331 -0.1144
    1SOL    HW3 2423   2.023   3.777   1.168  1.0050 -0.0428  1.2075
    1SOL    MW4 2424   2.044   3.856   1.138  0.3641 -0.3371 -0.0689
    1SOL     OW 2425   1.800   3.980   1.252 -0.0778  0.1501  0.6005
    1SOL    HW2 2426   1.881   3.929   1.242 -1.2763 -1.6142 -0.2454
    1SOL    HW3 2427   1.789   3.988   1.346 -0.4892 -2.1726  0.7686
    1SOL    MW4 2428   1.809   3.974   1.263 -0.2903 -0.3893  0.5112
    1SOL     OW 2429   1.767   4.252   1.141 -0.8571  0.3945  0.0378
    1SOL    HW2 2430   1.770   4.163   1.177 -1.9641  0.5335  0.4915
    1SOL    HW3 2431   1.685   4.289   1.175 -0.8174  1.2966 -0.8216
    1SOL    MW4 2432   1.756   4.245   1.150 -0.9979  0.5322 -0.0159
    1SOL     OW 2433   2.013   4.327   1.219  0.0053 -0.1482 -0.0629
    1SOL    HW2 2434   2.016   4.337   1.314  2.4168 -0.1947 -0.1062
    1SOL    HW3 2435   1.920   4.320   1.199 -0.4795 -1.3808  2.4229
    1SOL    MW4 2436   2.001   4.328   1.229  0.2596 -0.3171  0.2594
    1SOL     OW 2437   2.502   4.612   1.113  0.4130 -0.3460 -0.1642
    1SOL    HW2 2438   2.577   4.669   1.130  0.8324 -1.4612  1.7443
    1SOL    HW3 2439   2.427   4.662   1.146  0.7894 -0.9034  1.5776
    1SOL    MW4 2440   2.502   4.626   1.119  0.5178 -0.5670  0.3175
    1SOL     OW 2441   2.266   0.058   1.212  0.1742 -0.3988 -0.0884
    1SOL    HW2 2442   2.254   0.150   1.187  0.7435 -0.7980 -1.9439
    1SOL    HW3 2443   2.193   0.012   1.169  0.8526 -1.0300 -0.5778
    1SOL    MW4 2444   2.255   0.064   1.203  0.3390 -0.5347 -0.3977
    1SOL     OW 2445   2.261   0.330   1.148 -0.2129  0.0205  0.3413
    1SOL    HW2 2446   2.257   0.327   1.052  1.4403  1.1844  0.2182
    1SOL    HW3 2447   2.180   0.375   1.173 -0.6178 -0.2120 -0.5174
    1SOL    MW4 2448   2.250   0.336   1.138 -0.0482  0.1434  0.2116
    1SOL     OW 2449   2.944   0.496   1.185  0.5871  0.0676 -0.1495
    1SOL    HW2 2450   2.920   0.586   1.164  0.5821  0.1581  0.2520
    1SOL    HW3 2451   2.870   0.444   1.152  0.3874  0.2452  0.0195
    1SOL    MW4 2452   2.931   0.501   1.178  0.5603  0.1030 -0.0741
    1SOL     OW 2453   2.466   0.527   1.203  0.3403  0.5308  0.5435
    1SOL    HW2 2454   2.454   0.528   1.298 -0.8600  1.9893  0.3945
    1SOL    HW3 2455   2.407   0.458   1.172 -0.4749  1.1244  0.7332
    1SOL    MW4 2456   2.456   0.518   1.212  0.0744  0.8016  0.5490
    1SOL     OW 2457   2.225   0.894   1.215 -0.2571 -0.0341  0.1508
    1SOL    HW2 2458   2.307   0.862   1.176  0.8709  0.7422  1.8317
    1SOL    HW3 2459   2.157   0.838   1.177  1.3743 -2.5882  0.9078
    1SOL    MW4 2460   2.227   0.882   1.205  0.1070 -0.2686  0.4727
    1SOL     OW 2461   2.283   1.132   1.098  0.1148  0.2498  0.0013
    1SOL    HW2 2462   2.350   1.154   1.163 -1.0959  1.1323  0.9967
    1SOL    HW3 2463   2.252   1.045   1.125 -0.2343  0.5209  0.4760
    1SOL    MW4 2464   2.288   1.123   1.110 -0.0911  0.4019  0.1954
    1SOL     OW 2465   2.473   1.255   1.260 -0.3848 -0.0019  0.1338
    1SOL    HW2 2466   2.527   1.220   1.189 -0.4567 -0.0958  0.1244
    1SOL    HW3 2467   2.466   1.348   1.242 -2.5338 -0.4375 -1.4152
    1SOL    MW4 2468   2.479   1.262   1.248 -0.6781 -0.0718 -0.0719
    1SOL     OW 2469   2.481   1.497   1.144  0.1932  0.9697  0.1567
    1SOL    HW2 2470   2.408   1.553   1.168 -1.0855 -0.0116 -1.3787
    1SOL    HW3 2471   2.492   1.509   1.050  1.2897  0.2697  0.1839
    1SOL    MW4 2472   2.473   1.506   1.135  0.1693  0.7479 -0.0424
    1SOL     OW 2473   2.272   1.644   1.209 -0.3620 -0.4016 -0.0836
    1SOL    HW2 2474   2.260   1.726   1.161  1.7247  0.4618  0.8340
    1SOL    HW3 2475   2.188   1.599   1.200 -0.9689  1.0566 -2.0417
    1SOL    MW4 2476   2.259   1.649   1.202 -0.1664 -0.0954 -0.2208
    1SOL     OW 2477   2.258   1.877   1.058 -0.2862 -0.0402  0.2539
    1SOL    HW2 2478   2.189   1.937   1.088 -0.3156  0.0499  0.0080
    1SOL    HW3 2479   2.263   1.892   0.964 -0.1736 -0.3019  0.2181
    1SOL    MW4 2480   2.250   1.887   1.050 -0.2751 -0.0628  0.2166
    1SOL     OW 2481   2.471   2.000   1.211 -0.3439 -0.2707  0.0544
    1SOL    HW2 2482   2.553   1.983   1.165  0.1680  1.2657  0.3760
    1SOL    HW3 2483   2.403   1.962   1.155  0.5916 -1.6282 -0.1702
    1SOL    MW4 2484   2.473   1.993   1.198 -0.1528 -0.2470  0.0672
    1SOL     OW 2485   2.471   2.275   1.127 -0.2492 -0.1068 -0.7220
    1SOL    HW2 2486   2.484   2.279   1.032  1.2849 -0.7338 -0.5557
    1SOL    HW3 2487   2.486   2.183   1.149 -1.0463 -0.0534  0.0773
    1SOL    MW4 2488   2.475   2.263   1.117 -0.1521 -0.1826 -0.5947
    1SOL     OW 2489   2.220   2.401   1.215 -0.2102  0.1577  0.4912
    1SOL    HW2 2490   2.221   2.388   1.310 -0.3938  0.4529  0.5325
    1SOL    HW3 2491   2.299   2.357   1.185 -0.4947 -0.5066  0.7043
    1SOL    MW4 2492   2.231   2.393   1.224 -0.2718  0.1090  0.5248
    1SOL     OW 2493   2.229   2.675   1.148 -0.6324 -0.1112 -0.0307
    1SOL    HW2 2494   2.215   2.590   1.189  0.1181 -0.6055 -0.7945
    1SOL    HW3 2495   2.151   2.725   1.170 -0.9132 -0.8689  0.7334
    1SOL    MW4 2496   2.217   2.671   1.156 -0.5703 -0.2766 -0.0306
    1SOL     OW 2497   2.460   2.801   1.238  0.1349  0.2926 -0.3371
    1SOL    HW2 2498   2.462   2.812   1.333 -1.7495  2.2821 -0.4846
    1SOL    HW3 2499   2.380   2.752   1.221  0.9242 -0.8478 -0.8607
    1SOL    MW4 2500   2.450   2.796   1.249 -0.0098  0.4046 -0.4257
    1SOL     OW 2501   2.467   3.066   1.125  0.0259  0.1921  0.2326
    1SOL    HW2 2502   2.392   3.117   1.156 -0.1907 -0.3672  0.6324
    1SOL    HW3 2503   2.457   2.980   1.166  0.1331 -0.3237 -0.7961
    1SOL    MW4 2504   2.456   3.062   1.134  0.0117  0.0503  0.1496
    1SOL     OW 2505   2.219   3.178   1.223 -0.4279 -0.1011 -0.0888
    1SOL    HW2 2506   2.224   3.272   1.202  3.0876 -0.3281 -0.6836
    1SOL    HW3 2507   2.223   3.174   1.318  1.7832  0.3107 -0.1402
    1SOL    MW4 2508   2.220   3.190   1.233  0.3278 -0.0765 -0.1742
    1SOL     OW 2509   2.205   3.440   1.154  0.1808  0.0852 -0.4827
    1SOL    HW2 2510   2.262   3.513   1.177  1.3283 -0.9816  0.0977
    1SOL    HW3 2511   2.209   3.435   1.059  0.1304  0.7460 -0.5215
    1SOL    MW4 2512   2.213   3.448   1.145  0.3254  0.0319 -0.4113
    1SOL     OW 2513   2.433   3.601   1.227  0.2853  0.1932 -0.4008
    1SOL    HW2 2514   2.438   3.613   1.322 -0.6842 -0.7832 -0.2156
    1SOL    HW3 2515   2.439   3.689   1.192  0.6493  0.5684  0.5772
    1SOL    MW4 2516   2.434   3.614   1.235  0.2050  0.1140 -0.2472
    1SOL     OW 2517   3.164   4.485   0.746 -0.5051 -0.4226 -0.4133
    1SOL    HW2 2518   3.152   4.393   0.769 -2.5599  0.3289  1.6995
    1SOL    HW3 2519   3.139   4.490   0.654 -0.7595 -1.9190 -0.4363
    1SOL    MW4 2520   3.159   4.474   0.737 -0.8099 -0.5212 -0.1376
    1SOL     OW 2521   2.259   3.980   1.287 -0.1552 -0.0448 -0.1295
    1SOL    HW2 2522   2.263   3.974   1.382 -2.3729  1.3188  0.0995
    1SOL    HW3 2523   2.175   3.940   1.264  0.3503 -0.3328 -1.5006
    1SOL    MW4 2524   2.248   3.974   1.297 -0.3810  0.0973 -0.2801
    1SOL     OW 2525   2.223   4.183   1.117 -0.0683  0.0002  0.2730
    1SOL    HW2 2526   2.144   4.229   1.144 -0.0163  0.4910 -0.4000
    1SOL    HW3 2527   2.237   4.117   1.185 -0.8829  0.1124  0.5519
    1SOL    MW4 2528   2.214   4.180   1.129 -0.1688  0.0796  0.2210
    1SOL     OW 2529   1.577   1.041   0.142 -0.1811 -0.4516  0.0675
    1SOL    HW2 2530   1.521   1.014   0.069  0.4022  1.1998 -0.9936
    1SOL    HW3 2531   1.534   1.119   0.177 -0.2431 -1.0079  1.2670
    1SOL    MW4 2532   1.564   1.048   0.137 -0.1124 -0.3070  0.0857
    1SOL     OW 2533   2.932   4.642   1.111  0.4571 -0.1352  0.3084
    1SOL    HW2 2534   3.013   4.672   1.152  1.1482 -0.5949 -0.6956
    1SOL    HW3 2535   2.912   4.559   1.154  0.2727  0.2071  0.8781
    1SOL    MW4 2536   2.940   4.635   1.122  0.5240 -0.1507  0.2511
    1SOL     OW 2537   3.143   0.324   1.098  0.0857  0.2514 -0.9262
    1SOL    HW2 2538   3.085   0.398   1.117 -1.9490 -1.9916  1.9637
    1SOL    HW3 2539   3.101   0.280   1.024 -1.9031 -1.2574  1.0357
    1SOL    MW4 2540   3.129   0.328   1.091 -0.4451 -0.2436 -0.2861
    1SOL     OW 2541   2.789   4.126   0.422 -0.0729 -0.1401 -0.2869
    1SOL    HW2 2542   2.724   4.059   0.442 -0.6105 -0.0365 -1.6268
    1SOL    HW3 2543   2.743   4.209   0.433  0.4924  0.0112  1.0251
    1SOL    MW4 2544   2.775   4.128   0.426 -0.0691 -0.1063 -0.2906
    1SOL     OW 2545   1.347   0.869   0.689 -0.1082 -0.1177  0.5385
    1SOL    HW2 2546   1.344   0.854   0.595  1.8485  3.1796 -0.1138
    1SOL    HW3 2547   1.262   0.837   0.721 -1.8397  0.9899 -2.7018
    1SOL    MW4 2548   1.335   0.863   0.681 -0.0784  0.4634  0.0249
    1SOL     OW 2549   2.918   0.769   1.118  0.2488  0.5190  0.1512
    1SOL    HW2 2550   3.000   0.808   1.147  0.5960  0.8380 -1.2128
    1SOL    HW3 2551   2.850   0.817   1.164  0.7384  1.7551 -0.3869
    1SOL    MW4 2552   2.920   0.780   1.128  0.3591  0.7241 -0.0999
    1SOL     OW 2553   2.686   0.883   1.208 -0.0833 -0.2275  0.1458
    1SOL    HW2 2554   2.677   0.974   1.180 -0.2949 -0.1380  0.5114
    1SOL    HW3 2555   2.614   0.837   1.164  0.6499 -0.4180 -0.8893
    1SOL    MW4 2556   2.676   0.889   1.198 -0.0145 -0.2408  0.0576
    1SOL     OW 2557   2.677   1.150   1.090  0.1972  0.0836 -0.3103
    1SOL    HW2 2558   2.752   1.197   1.124 -0.0011  0.1722  0.0037
    1SOL    HW3 2559   2.709   1.109   1.010  1.1856 -1.6764  0.9549
    1SOL    MW4 2560   2.691   1.151   1.084  0.3016 -0.1369 -0.1019
    1SOL     OW 2561   2.908   1.258   1.197 -0.3987  0.3616  0.1734
    1SOL    HW2 2562   2.922   1.260   1.291  2.1811 -0.3918 -0.1783
    1SOL    HW3 2563   2.919   1.349   1.169 -0.0403  0.3965  0.4322
    1SOL    MW4 2564   2.911   1.270   1.205 -0.0112  0.2668  0.1612
    1SOL     OW 2565   2.939   1.550   1.078 -0.0052  0.0247 -0.2235
    1SOL    HW2 2566   3.006   1.600   1.126  1.2370 -0.2316 -1.6490
    1SOL    HW3 2567   2.961   1.563   0.986 -0.8574 -1.5251 -0.6659
    1SOL    MW4 2568   2.951   1.558   1.072  0.0463 -0.2137 -0.4698
    1SOL     OW 2569   2.733   1.634   1.229 -0.2382 -0.0260 -0.0053
    1SOL    HW2 2570   2.806   1.598   1.179 -0.3212 -0.0104 -0.1366
    1SOL    HW3 2571   2.656   1.589   1.195 -0.2752 -0.1329  0.2194
    1SOL    MW4 2572   2.733   1.624   1.218 -0.2542 -0.0380  0.0069
    1SOL     OW 2573   2.699   1.894   1.107 -0.0095  0.1621 -0.0110
    1SOL    HW2 2574   2.772   1.947   1.136  0.2371 -0.0274 -0.2795
    1SOL    HW3 2575   2.699   1.818   1.166 -1.0809  1.0294  1.1168
    1SOL    MW4 2576   2.708   1.891   1.119 -0.1185  0.2515  0.1025
    1SOL     OW 2577   2.914   2.048   1.199  0.3264  0.0035  0.5366
    1SOL    HW2 2578   2.921   2.051   1.294  0.6128 -0.2248  0.5250
    1SOL    HW3 2579   2.907   2.139   1.172 -0.8886  0.0096  0.8547
    1SOL    MW4 2580   2.914   2.060   1.208  0.2036 -0.0260  0.5770
    1SOL     OW 2581   2.898   2.305   1.108 -0.1696  0.2902 -0.4662
    1SOL    HW2 2582   2.977   2.357   1.123 -0.2825  0.3478 -0.0647
    1SOL    HW3 2583   2.829   2.351   1.155 -0.4565  0.2758 -0.8736
    1SOL    MW4 2584   2.900   2.318   1.116 -0.2222  0.2961 -0.4669
    1SOL     OW 2585   2.681   2.447   1.206 -0.0906  0.5794  0.3583
    1SOL    HW2 2586   2.694   2.455   1.301  0.5640 -0.0761  0.3230
    1SOL    HW3 2587   2.597   2.401   1.198 -0.8149  1.8268  0.6018
    1SOL    MW4 2588   2.672   2.442   1.218 -0.0999  0.6571  0.3858
    1SOL     OW 2589   2.681   2.709   1.119  0.3616  0.1849 -0.2445
    1SOL    HW2 2590   2.686   2.618   1.149 -1.3191  0.1276 -0.0906
    1SOL    HW3 2591   2.594   2.738   1.146  0.8177  1.7887 -0.4583
    1SOL    MW4 2592   2.670   2.700   1.127  0.2000  0.3889 -0.2524
    1SOL     OW 2593   2.919   2.817   1.230  0.2566 -0.2195  0.0135
    1SOL    HW2 2594   2.912   2.817   1.325 -0.2514  2.2798  0.0152
    1SOL    HW3 2595   2.836   2.781   1.199  0.0510 -0.1687  0.5021
    1SOL    MW4 2596   2.907   2.812   1.238  0.1624  0.1168  0.0782
    1SOL     OW 2597   2.915   3.070   1.124  0.1594 -0.1037  0.0285
    1SOL    HW2 2598   2.919   2.984   1.166  0.4882 -0.6567 -1.0955
    1SOL    HW3 2599   2.906   3.049   1.031 -0.5431  1.0886 -0.1715
    1SOL    MW4 2600   2.915   3.056   1.117  0.1101 -0.0196 -0.1462
    1SOL     OW 2601   2.676   3.194   1.240 -0.0989 -0.2328  0.0501
    1SOL    HW2 2602   2.750   3.145   1.204  0.1849  0.1893  0.0526
    1SOL    HW3 2603   2.598   3.145   1.212  0.1633 -0.4229 -0.3438
    1SOL    MW4 2604   2.675   3.181   1.232 -0.0267 -0.2019 -0.0015
    1SOL     OW 2605   2.642   3.443   1.128  0.1455  0.1493 -0.2967
    1SOL    HW2 2606   2.651   3.364   1.181  0.5074 -0.1583 -0.8213
    1SOL    HW3 2607   2.564   3.486   1.164  0.6148  0.1468  0.7531
    1SOL    MW4 2608   2.633   3.438   1.140  0.2551  0.1087 -0.2273
    1SOL     OW 2609   2.861   3.541   1.254 -0.2722  0.2114  0.5259
    1SOL    HW2 2610   2.933   3.492   1.216 -0.4283  0.2591  0.1676
    1SOL    HW3 2611   2.782   3.501   1.216 -0.5153 -0.9020  2.1305
    1SOL    MW4 2612   2.860   3.529   1.244 -0.3250  0.0708  0.6903
    1SOL     OW 2613   2.720   3.958   1.230  0.0590  0.3116  0.5540
    1SOL    HW2 2614   2.726   4.047   1.195 -1.0195 -0.0529 -0.5785
    1SOL    HW3 2615   2.771   3.905   1.169  0.3932  0.0830  1.0243
    1SOL    MW4 2616   2.728   3.963   1.218 -0.0391  0.2329  0.4666
    1SOL     OW 2617   2.030   0.744   0.828  0.3237 -0.0450  0.8337
    1SOL    HW2 2618   2.003   0.654   0.810  1.6580 -0.3285  0.2036
    1SOL    HW3 2619   1.954   0.797   0.802  0.5105 -0.7982 -1.3646
    1SOL    MW4 2620   2.016   0.739   0.822  0.5243 -0.1817  0.4605
    1SOL     OW 2621   4.336   1.108   0.323  0.2001 -0.0109  0.2473
    1SOL    HW2 2622   4.330   1.142   0.234 -0.9676 -0.3461  0.1876
    1SOL    HW3 2623   4.420   1.140   0.356  0.2904  0.7466 -0.7088
    1SOL    MW4 2624   4.346   1.117   0.316  0.0577  0.0449  0.1132
    1SOL     OW 2625   2.445   4.343   1.234  0.1118 -0.5354  0.1461
    1SOL    HW2 2626   2.362   4.307   1.204  1.4220 -2.3154 -1.4767
    1SOL    HW3 2627   2.446   4.433   1.200 -1.2787 -0.4032  0.4524
    1SOL    MW4 2628   2.434   4.350   1.226  0.1013 -0.7529 -0.0277
    1SOL     OW 2629   0.865   1.399   0.392  0.2682  0.1381 -0.7212
    1SOL    HW2 2630   0.880   1.478   0.444  0.3173 -1.4211  1.7561
    1SOL    HW3 2631   0.773   1.378   0.407  0.7252 -1.3066  0.1925
    1SOL    MW4 2632   0.855   1.406   0.401  0.3350 -0.2582 -0.2738
    1SOL     OW 2633   3.164   0.075   1.217  0.0684  0.2953  0.3853
    1SOL    HW2 2634   3.157   0.085   1.312 -3.2864 -0.1280  0.2385
    1SOL    HW3 2635   3.164   0.164   1.184  0.1497  0.4222  0.7212
    1SOL    MW4 2636   3.163   0.088   1.225 -0.3636  0.2562  0.4103
    1SOL     OW 2637   2.589   0.206   0.727 -0.4142  0.6327  0.1754
    1SOL    HW2 2638   2.674   0.195   0.683 -0.3129 -0.3808  0.6013
    1SOL    HW3 2639   2.572   0.120   0.766 -1.5555  0.8851  0.2381
    1SOL    MW4 2640   2.598   0.193   0.726 -0.5517  0.5323  0.2398
    1SOL     OW 2641   3.360   0.470   1.232 -0.3631  0.1272 -0.5164
    1SOL    HW2 2642   3.374   0.561   1.207 -1.9020  0.1485 -1.4336
    1SOL    HW3 2643   3.286   0.442   1.177  0.3778 -1.7990 -0.5613
    1SOL    MW4 2644   3.352   0.478   1.222 -0.4687 -0.1242 -0.6434
    1SOL     OW 2645   3.361   0.748   1.153  0.0731  0.1296 -0.4442
    1SOL    HW2 2646   3.289   0.793   1.197  0.3875  0.3942 -0.2040
    1SOL    HW3 2647   3.346   0.764   1.060  0.4929  1.1997 -0.3361
    1SOL    MW4 2648   3.349   0.756   1.146  0.1700  0.3057 -0.3983
    1SOL     OW 2649   3.138   0.893   1.227 -0.0604  0.1250  0.0175
    1SOL    HW2 2650   3.152   0.912   1.320  2.4031 -0.7576 -0.1330
    1SOL    HW3 2651   3.167   0.973   1.183  0.2702 -0.0330 -0.0562
    1SOL    MW4 2652   3.144   0.906   1.234  0.3080 -0.0123 -0.0120
    1SOL     OW 2653   3.134   1.153   1.065 -0.0406  0.4915  0.4568
    1SOL    HW2 2654   3.207   1.209   1.093 -0.0468  0.7144  0.0345
    1SOL    HW3 2655   3.057   1.197   1.100  0.1547 -0.8153  2.6495
    1SOL    MW4 2656   3.134   1.166   1.073 -0.0160  0.3486  0.6903
    1SOL     OW 2657   3.344   1.294   1.178  0.0916 -0.5771 -0.3526
    1SOL    HW2 2658   3.377   1.296   1.268  0.0988 -2.0327 -0.3109
    1SOL    HW3 2659   3.364   1.381   1.143 -2.0070  0.8186  1.7983
    1SOL    MW4 2660   3.351   1.306   1.185 -0.1841 -0.5850 -0.0633
    1SOL     OW 2661   3.382   1.536   1.058 -0.2357 -0.2344  0.3018
    1SOL    HW2 2662   3.458   1.569   1.106  0.3413 -0.6536 -0.3115
    1SOL    HW3 2663   3.309   1.589   1.089  0.9020  2.5769 -1.6616
    1SOL    MW4 2664   3.382   1.547   1.068 -0.0093  0.0813 -0.0381
    1SOL     OW 2665   3.164   1.689   1.165 -0.5554 -0.4429 -0.2990
    1SOL    HW2 2666   3.170   1.679   1.260  1.2926  0.9711 -0.2502
    1SOL    HW3 2667   3.141   1.781   1.152  0.0072 -0.4291 -1.2316
    1SOL    MW4 2668   3.162   1.700   1.176 -0.2375 -0.2544 -0.4156
    1SOL     OW 2669   3.138   1.960   1.068 -0.4982 -0.1042 -0.0123
    1SOL    HW2 2670   3.220   1.991   1.108  0.4164  0.8482 -2.5115
    1SOL    HW3 2671   3.069   1.997   1.122  0.7058  1.4683  0.4772
    1SOL    MW4 2672   3.140   1.969   1.080 -0.2189  0.2290 -0.2775
    1SOL     OW 2673   3.375   2.046   1.178  0.0264 -0.2020  0.1991
    1SOL    HW2 2674   3.446   1.995   1.138 -0.3878 -0.6642  0.0434
    1SOL    HW3 2675   3.397   2.137   1.160  0.8821 -0.3115  0.6423
    1SOL    MW4 2676   3.387   2.051   1.170  0.0846 -0.2773  0.2371
    1SOL     OW 2677   3.188   2.930   0.385 -0.1394  0.1693 -0.5218
    1SOL    HW2 2678   3.191   3.024   0.406  2.1085  0.3230 -1.3618
    1SOL    HW3 2679   3.108   2.920   0.333  0.5580  1.9958 -2.0283
    1SOL    MW4 2680   3.178   2.941   0.381  0.2491  0.4303 -0.8314
    1SOL     OW 2681   3.144   2.449   1.154 -0.5808  0.2948  0.0309
    1SOL    HW2 2682   3.146   2.460   1.249  0.5323  0.9611 -0.0749
    1SOL    HW3 2683   3.153   2.538   1.119  1.1508 -0.1697 -0.7208
    1SOL    MW4 2684   3.145   2.462   1.162 -0.2055  0.3216 -0.0823
    1SOL     OW 2685   3.135   2.712   1.089  0.1658  0.6251 -0.1943
    1SOL    HW2 2686   3.064   2.747   1.142  0.2342 -0.1289  0.4165
    1SOL    HW3 2687   3.110   2.730   0.999 -0.0586  1.7276  0.0858
    1SOL    MW4 2688   3.122   2.719   1.084  0.1452  0.6711 -0.0768
    1SOL     OW 2689   3.354   2.847   1.205 -0.1820 -0.2505 -1.0303
    1SOL    HW2 2690   3.372   2.933   1.167 -1.7531  0.5034 -0.1022
    1SOL    HW3 2691   3.283   2.812   1.152 -1.0844 -0.0093  0.0163
    1SOL    MW4 2692   3.347   2.854   1.193 -0.5085 -0.1194 -0.7697
    1SOL     OW 2693   3.373   3.082   1.089  0.2670 -0.4332 -0.2119
    1SOL    HW2 2694   3.440   3.135   1.131  0.7250 -0.0458 -1.4280
    1SOL    HW3 2695   3.292   3.104   1.136  0.8956 -0.5704  0.9533
    1SOL    MW4 2696   3.371   3.092   1.101  0.4103 -0.3998 -0.2187
    1SOL     OW 2697   3.137   3.190   1.191 -0.0715 -0.3792  0.4792
    1SOL    HW2 2698   3.122   3.280   1.163  0.1218 -0.0563  1.3992
    1SOL    HW3 2699   3.057   3.143   1.164  0.2994 -0.1932 -1.0129
    1SOL    MW4 2700   3.124   3.195   1.184  0.0029 -0.3121  0.4038
    1SOL     OW 2701   3.090   3.461   1.105 -0.1496 -0.0082 -0.2405
    1SOL    HW2 2702   3.167   3.516   1.120  0.6348 -0.8138 -1.1469
    1SOL    HW3 2703   3.056   3.491   1.020 -0.8988  0.4110  0.2060
    1SOL    MW4 2704   3.096   3.472   1.096 -0.1452 -0.0591 -0.3011
    1SOL     OW 2705   3.343   3.566   1.208  0.2215  0.6317  0.1102
    1SOL    HW2 2706   3.336   3.573   1.304 -0.2009 -1.0640  0.2244
    1SOL    HW3 2707   3.430   3.530   1.194  0.1816  0.6265 -0.1139
    1SOL    MW4 2708   3.353   3.562   1.219  0.1605  0.4075  0.0956
    1SOL     OW 2709   3.380   3.839   1.115  0.1019  0.5413 -0.1733
    1SOL    HW2 2710   3.289   3.854   1.144 -0.6370 -1.9306 -1.1109
    1SOL    HW3 2711   3.399   3.750   1.142  1.5875  0.3630 -1.7379
    1SOL    MW4 2712   3.370   3.829   1.123  0.2005  0.1917 -0.5034
    1SOL     OW 2713   3.115   3.912   1.204 -0.3845  0.2070 -0.1703
    1SOL    HW2 2714   3.117   3.928   1.298 -0.4928  0.1577 -0.1593
    1SOL    HW3 2715   3.098   3.998   1.166 -1.3285  0.0591 -0.0904
    1SOL    MW4 2716   3.113   3.926   1.211 -0.5233  0.1810 -0.1583
    1SOL     OW 2717   2.906   4.378   1.223 -0.1054 -0.4049 -0.5310
    1SOL    HW2 2718   2.970   4.327   1.174 -0.0089 -0.7742 -0.0341
    1SOL    HW3 2719   2.822   4.339   1.200 -0.1039 -0.2661 -0.7720
    1SOL    MW4 2720   2.903   4.366   1.214 -0.0927 -0.4354 -0.4972
    1SOL     OW 2721   3.339   4.357   1.223 -0.1760  0.2490  0.0130
    1SOL    HW2 2722   3.419   4.310   1.200 -0.9169 -0.0712 -2.0076
    1SOL    HW3 2723   3.353   4.447   1.191  0.4104  0.8917  2.0121
    1SOL    MW4 2724   3.351   4.363   1.216 -0.1967  0.2913  0.0103
    1SOL     OW 2725   3.802   4.381   1.251 -0.4412 -0.1401 -0.5012
    1SOL    HW2 2726   3.812   4.384   1.346 -2.4704  0.2297 -0.2722
    1SOL    HW3 2727   3.809   4.472   1.222 -1.0972 -0.1012 -0.5494
    1SOL    MW4 2728   3.804   4.393   1.259 -0.7956 -0.0868 -0.4774
    1SOL     OW 2729   3.599   0.080   1.261 -0.7211 -0.5683  0.5854
    1SOL    HW2 2730   3.595   0.169   1.228  0.1431 -0.4426  0.8229
    1SOL    HW3 2731   3.677   0.042   1.222 -1.7743 -1.6450 -0.5418
    1SOL    MW4 2732   3.609   0.087   1.252 -0.7460 -0.6938  0.4679
    1SOL     OW 2733   3.587   0.326   1.154 -0.0365  0.0588 -0.2582
    1SOL    HW2 2734   3.654   0.391   1.178  0.1059  0.1107 -0.8009
    1SOL    HW3 2735   3.505   0.365   1.185  0.1005  0.3079 -0.2029
    1SOL    MW4 2736   3.585   0.340   1.161  0.0002  0.0985 -0.3226
    1SOL     OW 2737   3.798   0.485   1.251 -0.2506  0.4845  0.0522
    1SOL    HW2 2738   3.881   0.439   1.235 -0.4857  0.3452 -0.7856
    1SOL    HW3 2739   3.810   0.571   1.212 -1.1935 -0.2079 -1.8434
    1SOL    MW4 2740   3.811   0.490   1.244 -0.4058  0.3748 -0.3085
    1SOL     OW 2741   4.017   0.903   1.259 -0.3362 -0.0844  0.6498
    1SOL    HW2 2742   4.018   0.906   1.355 -0.9584  0.8134  0.6377
    1SOL    HW3 2743   4.031   0.994   1.233  0.5462 -0.4424 -0.1194
    1SOL    MW4 2744   4.019   0.916   1.269 -0.3018 -0.0132  0.5468
    1SOL     OW 2745   3.590   0.886   1.232 -0.1562  0.0463  0.3006
    1SOL    HW2 2746   3.580   0.967   1.182 -0.1169  0.0132  0.2390
    1SOL    HW3 2747   3.508   0.839   1.218 -0.2271  0.1286  0.4332
    1SOL    MW4 2748   3.578   0.891   1.223 -0.1605  0.0528  0.3101
    1SOL     OW 2749   3.585   1.128   1.085 -0.0991  0.0195 -0.1643
    1SOL    HW2 2750   3.647   1.190   1.123  0.5407 -1.0904  0.6370
    1SOL    HW3 2751   3.500   1.170   1.095  0.2054  0.3340  1.3243
    1SOL    MW4 2752   3.582   1.142   1.092  0.0253 -0.0854  0.1379
    1SOL     OW 2753   3.785   1.285   1.188  0.1263 -0.1501 -0.0682
    1SOL    HW2 2754   3.795   1.295   1.283  1.0502  1.0908 -0.2836
    1SOL    HW3 2755   3.777   1.374   1.155 -0.6899 -0.5981 -1.1227
    1SOL    MW4 2756   3.785   1.298   1.196  0.1404 -0.0454 -0.2359
    1SOL     OW 2757   3.836   1.548   1.112  0.3774 -0.6452 -0.0492
    1SOL    HW2 2758   3.910   1.594   1.152  0.7960 -1.8680  0.5884
    1SOL    HW3 2759   3.856   1.548   1.018  0.3837  0.4440 -0.0575
    1SOL    MW4 2760   3.848   1.554   1.104  0.4337 -0.6628  0.0339
    1SOL     OW 2761   3.598   1.645   1.206 -0.1407 -0.4212  0.2300
    1SOL    HW2 2762   3.601   1.738   1.187  0.2989 -0.2601  1.0500
    1SOL    HW3 2763   3.678   1.609   1.166  1.0382 -0.0014  2.1501
    1SOL    MW4 2764   3.609   1.652   1.198  0.0725 -0.3446  0.5914
    1SOL     OW 2765   3.599   1.917   1.069 -0.2074  0.0106  0.1742
    1SOL    HW2 2766   3.617   1.890   0.979 -0.1345  0.3142  0.0979
    1SOL    HW3 2767   3.671   1.976   1.092 -1.1787  1.3681 -0.1876
    1SOL    MW4 2768   3.611   1.921   1.060 -0.3259  0.2298  0.1162
    1SOL     OW 2769   3.815   2.078   1.167 -0.0094  0.3756 -0.4891
    1SOL    HW2 2770   3.794   2.074   1.261  1.2683 -0.3134 -0.2242
    1SOL    HW3 2771   3.818   2.172   1.147  0.0265  0.5274  0.2264
    1SOL    MW4 2772   3.813   2.090   1.177  0.1638  0.3047 -0.3598
    1SOL     OW 2773   3.796   2.344   1.080 -0.4368  0.0379 -0.2572
    1SOL    HW2 2774   3.810   2.328   0.986 -1.0354 -0.5855 -0.2453
    1SOL    HW3 2775   3.873   2.392   1.108 -0.6794  1.0467 -1.2759
    1SOL    MW4 2776   3.808   2.348   1.071 -0.5479  0.0889 -0.3901
    1SOL     OW 2777   3.599   2.483   1.232  0.3031  0.3188  0.1316
    1SOL    HW2 2778   3.589   2.444   1.319  0.0441 -0.4163 -0.2305
    1SOL    HW3 2779   3.670   2.433   1.192  0.6349  0.8622  0.0282
    1SOL    MW4 2780   3.607   2.471   1.238  0.3128  0.2935  0.0701
    1SOL     OW 2781   3.578   2.729   1.122  0.1362 -0.6759  0.6680
    1SOL    HW2 2782   3.585   2.643   1.164 -0.9546 -0.1968  1.8587
    1SOL    HW3 2783   3.493   2.762   1.148 -0.4370 -0.1940 -1.6791
    1SOL    MW4 2784   3.568   2.722   1.131 -0.0832 -0.5493  0.5153
    1SOL     OW 2785   3.834   2.837   1.202  0.3436  0.2076  0.1043
    1SOL    HW2 2786   3.834   2.836   1.298  1.8457  1.2788  0.1300
    1SOL    HW3 2787   3.749   2.801   1.178  0.4805 -1.3488  1.8229
    1SOL    MW4 2788   3.823   2.832   1.212  0.5598  0.1438  0.3345
    1SOL     OW 2789   3.819   3.104   1.138 -0.0107  0.3742 -0.0358
    1SOL    HW2 2790   3.827   3.009   1.144 -1.1811  0.2706 -0.0508
    1SOL    HW3 2791   3.803   3.121   1.045  0.5373  0.6123 -0.0875
    1SOL    MW4 2792   3.818   3.094   1.126 -0.0930  0.3920 -0.0447
    1SOL     OW 2793   3.578   3.208   1.236  0.2182  0.1794  0.1000
    1SOL    HW2 2794   3.585   3.302   1.221  1.2257 -0.0406 -0.8472
    1SOL    HW3 2795   3.654   3.170   1.192  1.2206 -0.8541  2.5650
    1SOL    MW4 2796   3.589   3.215   1.228  0.4835  0.0138  0.3003
    1SOL     OW 2797   3.585   3.456   1.131 -0.4732 -0.2712  0.2107
    1SOL    HW2 2798   3.662   3.504   1.164 -0.4116 -0.2099 -0.0253
    1SOL    HW3 2799   3.590   3.465   1.036 -1.5775  0.9981  0.2486
    1SOL    MW4 2800   3.596   3.464   1.123 -0.6108 -0.0954  0.1847
    1SOL     OW 2801   3.797   3.617   1.209 -0.4788 -0.4520  0.0964
    1SOL    HW2 2802   3.792   3.605   1.304 -1.8644 -1.7426 -0.1291
    1SOL    HW3 2803   3.798   3.712   1.198 -2.5565 -0.2397  1.3211
    1SOL    MW4 2804   3.797   3.628   1.220 -0.9356 -0.5941  0.2283
    1SOL     OW 2805   3.793   3.889   1.127  0.1025 -0.4259  0.3395
    1SOL    HW2 2806   3.777   3.909   1.035  0.3616 -1.2243  0.1172
    1SOL    HW3 2807   3.719   3.927   1.174  0.0063  0.0378 -0.1882
    1SOL    MW4 2808   3.781   3.897   1.121  0.1240 -0.4702  0.2404
    1SOL     OW 2809   3.567   3.958   1.535 -0.1846  0.2287  0.3192
    1SOL    HW2 2810   3.556   4.049   1.561 -0.7377  0.2015  0.1914
    1SOL    HW3 2811   3.485   3.916   1.560 -0.5785  0.1189 -1.1061
    1SOL    MW4 2812   3.555   3.964   1.542 -0.3099  0.2108  0.1143
    1SOL     OW 2813   3.133   4.534   0.485  0.1850  0.1315  0.0577
    1SOL    HW2 2814   3.187   4.610   0.463 -0.0977  0.2509 -0.2233
    1SOL    HW3 2815   3.187   4.459   0.461  0.3016  0.2472 -0.0415
    1SOL    MW4 2816   3.147   4.534   0.479  0.1633  0.1621  0.0075
    1SOL     OW 2817   3.841   4.645   1.153  0.7248  0.0465 -0.2072
    1SOL    HW2 2818   3.868   4.608   1.069  1.6415 -0.8058  0.4642
    1SOL    HW3 2819   3.921   4.679   1.192  0.0976  1.6710 -0.2576
    1SOL    MW4 2820   3.855   4.645   1.147  0.7629  0.1483 -0.1253
    1SOL     OW 2821   4.297   4.629   1.161 -0.3173  0.2308  0.1900
    1SOL    HW2 2822   4.299   4.538   1.190 -0.2190  0.4970  1.0300
    1SOL    HW3 2823   4.382   4.665   1.186 -0.5454  0.6898  0.3157
    1SOL    MW4 2824   4.308   4.622   1.168 -0.3343  0.3266  0.3175
    1SOL     OW 2825   4.066   0.085   1.276 -0.0146  0.0066 -0.2209
    1SOL    HW2 2826   4.069   0.081   1.371 -0.3273 -0.6282 -0.2344
    1SOL    HW3 2827   4.148   0.045   1.247  0.4485  0.9464 -0.2003
    1SOL    MW4 2828   4.077   0.079   1.285  0.0052  0.0468 -0.2201
    1SOL     OW 2829   4.039   0.372   1.204  0.2540 -0.1137  0.1743
    1SOL    HW2 2830   4.045   0.375   1.108  1.0690  0.1830  0.2255
    1SOL    HW3 2831   4.045   0.279   1.226  0.2515 -0.1680 -0.0547
    1SOL    MW4 2832   4.041   0.360   1.194  0.3610 -0.0817  0.1509
    1SOL     OW 2833   0.498   0.967   0.624  0.1517 -0.2522 -0.0144
    1SOL    HW2 2834   0.407   0.959   0.598 -0.5613  2.0597  1.6022
    1SOL    HW3 2835   0.544   0.992   0.543 -0.8232 -0.3115 -0.5927
    1SOL    MW4 2836   0.492   0.969   0.610 -0.0710  0.0450  0.1225
    1SOL     OW 2837   4.284   0.504   1.224 -0.5842 -0.0561 -0.6959
    1SOL    HW2 2838   4.275   0.520   1.318  1.8944 -0.6147 -0.3281
    1SOL    HW3 2839   4.211   0.445   1.202 -2.2228  1.4926  0.4910
    1SOL    MW4 2840   4.273   0.498   1.233 -0.4735  0.0746 -0.4908
    1SOL     OW 2841   4.254   0.791   1.161  0.4418  0.4327 -0.1024
    1SOL    HW2 2842   4.169   0.820   1.196 -0.7443  0.0887 -2.5766
    1SOL    HW3 2843   4.257   0.697   1.180  0.5452  0.5752  0.5693
    1SOL    MW4 2844   4.243   0.782   1.168  0.2985  0.4061 -0.3402
    1SOL     OW 2845   4.037   1.153   1.153  0.1609  0.3851 -0.2978
    1SOL    HW2 2846   4.041   1.149   1.057 -1.1392 -0.6799 -0.3279
    1SOL    HW3 2847   3.952   1.193   1.172 -0.2107 -0.7039  0.4111
    1SOL    MW4 2848   4.026   1.158   1.143 -0.0591  0.1010 -0.2083
    1SOL     OW 2849   4.272   1.275   1.231  0.1173  0.2317 -0.2198
    1SOL    HW2 2850   4.263   1.294   1.325  1.7240 -2.4107  0.5037
    1SOL    HW3 2851   4.184   1.247   1.204 -0.2003  0.3964  0.6110
    1SOL    MW4 2852   4.259   1.274   1.240  0.2880 -0.0952 -0.0147
    1SOL     OW 2853   4.279   1.532   1.103  0.2478 -0.0728 -0.1109
    1SOL    HW2 2854   4.277   1.446   1.145 -0.8579  0.1334  0.2673
    1SOL    HW3 2855   4.357   1.574   1.138 -1.3261  0.5841  2.7431
    1SOL    MW4 2856   4.289   1.527   1.113 -0.1054  0.0411  0.3154
    1SOL     OW 2857   4.082   1.684   1.215  0.2873 -0.0152 -0.0592
    1SOL    HW2 2858   4.081   1.661   1.308 -0.0388 -0.4399 -0.1646
    1SOL    HW3 2859   4.147   1.625   1.177  0.0056 -0.2380 -0.1981
    1SOL    MW4 2860   4.091   1.673   1.222  0.2069 -0.1009 -0.0914
    1SOL     OW 2861   4.056   1.961   1.112 -0.2388 -0.0445  0.0873
    1SOL    HW2 2862   3.972   2.004   1.127 -0.1395  0.1541  0.0634
    1SOL    HW3 2863   4.046   1.875   1.153 -0.2876  0.1539  0.4927
    1SOL    MW4 2864   4.043   1.955   1.119 -0.2322  0.0077  0.1377
    1SOL     OW 2865   4.288   2.095   1.209  0.0565  0.1565  0.1428
    1SOL    HW2 2866   4.275   2.180   1.166 -0.4968 -0.6449 -1.3213
    1SOL    HW3 2867   4.211   2.043   1.184  1.2461 -1.3623 -0.4865
    1SOL    MW4 2868   4.276   2.099   1.200  0.1407 -0.1500 -0.1336
    1SOL     OW 2869   4.258   2.344   1.107 -0.0577 -0.3232 -0.7385
    1SOL    HW2 2870   4.173   2.375   1.136  0.3120 -0.3388  0.3922
    1SOL    HW3 2871   4.250   2.335   1.012 -1.1873  0.0433 -0.6774
    1SOL    MW4 2872   4.246   2.347   1.098 -0.1583 -0.2766 -0.5814
    1SOL     OW 2873   4.024   2.461   1.183 -0.0310  1.2178 -0.2508
    1SOL    HW2 2874   4.009   2.459   1.277  0.7926 -1.6781 -0.1323
    1SOL    HW3 2875   4.050   2.552   1.165  1.1569  1.4791  2.5247
    1SOL    MW4 2876   4.026   2.473   1.193  0.2346  0.8705  0.1311
    1SOL     OW 2877   4.074   2.726   1.116 -0.3058  0.4195  0.0109
    1SOL    HW2 2878   4.001   2.771   1.158 -1.8302 -1.4784 -0.5211
    1SOL    HW3 2879   4.064   2.746   1.023  0.1981  0.6169 -0.0035
    1SOL    MW4 2880   4.063   2.735   1.109 -0.4411  0.1953 -0.0613
    1SOL     OW 2881   4.307   2.853   1.212 -0.0839  0.7566 -0.6316
    1SOL    HW2 2882   4.297   2.943   1.183 -1.3631  1.0681  0.6986
    1SOL    HW3 2883   4.224   2.811   1.188 -0.6106  0.6699  1.2718
    1SOL    MW4 2884   4.295   2.859   1.205 -0.3223  0.7863 -0.2049
    1SOL     OW 2885   4.287   3.125   1.112  0.1643 -0.4076  0.3718
    1SOL    HW2 2886   4.212   3.180   1.133  0.6375 -0.0179  1.0552
    1SOL    HW3 2887   4.291   3.125   1.016 -0.7635 -0.5134  0.3269
    1SOL    MW4 2888   4.277   3.132   1.102  0.1049 -0.3698  0.4560
    1SOL     OW 2889   4.054   3.251   1.189 -0.3160  0.3043  0.3832
    1SOL    HW2 2890   4.066   3.238   1.284 -0.2452  0.3461  0.3802
    1SOL    HW3 2891   3.974   3.203   1.168  0.4261 -0.8795  0.2147
    1SOL    MW4 2892   4.045   3.243   1.199 -0.2084  0.1538  0.3604
    1SOL     OW 2893   4.048   3.509   1.090 -0.0744  0.1936 -0.1885
    1SOL    HW2 2894   4.050   3.416   1.114  1.6014  0.2280 -0.1157
    1SOL    HW3 2895   3.969   3.544   1.132  0.8865 -0.5311  2.2910
    1SOL    MW4 2896   4.038   3.501   1.098  0.2732  0.1025  0.1483
    1SOL     OW 2897   4.239   3.645   1.232 -0.5104  0.0247 -0.8650
    1SOL    HW2 2898   4.163   3.617   1.181 -0.9531 -1.6319  0.6599
    1SOL    HW3 2899   4.314   3.610   1.185 -0.6444  1.7929 -2.4610
    1SOL    MW4 2900   4.239   3.637   1.219 -0.5860  0.0393 -0.8745
    1SOL     OW 2901   4.284   3.898   1.110 -0.5765 -0.0525  0.1263
    1SOL    HW2 2902   4.198   3.931   1.135 -0.4245  0.5681 -0.1553
    1SOL    HW3 2903   4.290   3.812   1.151 -1.4472 -0.2161 -0.0853
    1SOL    MW4 2904   4.274   3.891   1.118 -0.6714  0.0074  0.0614
    1SOL     OW 2905   4.056   4.262   1.157  0.1988 -0.0869 -0.3115
    1SOL    HW2 2906   3.974   4.308   1.177  0.9935  1.4445 -0.5320
    1SOL    HW3 2907   4.038   4.171   1.182 -1.6398  0.1809 -0.5693
    1SOL    MW4 2908   4.042   4.256   1.163  0.0615  0.1507 -0.3746
    1SOL     OW 2909   4.059   4.316   0.884  0.4350  0.0633  0.3952
    1SOL    HW2 2910   4.034   4.303   0.975 -0.6102 -2.3942 -0.2019
    1SOL    HW3 2911   4.054   4.228   0.845  1.2119  1.0146 -1.9415
    1SOL    MW4 2912   4.055   4.303   0.891  0.3996 -0.1354  0.0080
    1SOL     OW 2913   4.301   4.378   1.255  0.2287  0.3616 -0.1512
    1SOL    HW2 2914   4.225   4.328   1.225  0.4985 -0.0372 -0.1708
    1SOL    HW3 2915   4.375   4.340   1.207  0.5956  0.0286  0.6609
    1SOL    MW4 2916   4.301   4.366   1.245  0.3128  0.2651 -0.0466
    1SOL     OW 2917   0.240   4.622   1.615  0.0899 -0.1284 -0.5422
    1SOL    HW2 2918   0.316   4.672   1.585  0.0438  0.1236 -0.2420
    1SOL    HW3 2919   0.165   4.679   1.596  0.1179  0.3429  0.6933
    1SOL    MW4 2920   0.240   4.636   1.608  0.0875 -0.0324 -0.3395
    1SOL     OW 2921   0.020   0.120   1.537 -0.2646 -0.2250 -0.4844
    1SOL    HW2 2922  -0.064   0.085   1.569 -0.8690  0.9901 -0.7313
    1SOL    HW3 2923   0.008   0.128   1.443 -0.1054  0.5915 -0.4349
    1SOL    MW4 2924   0.007   0.116   1.529 -0.3233  0.0430 -0.5105
    1SOL     OW 2925   4.489   0.413   1.600 -0.1715  0.5478 -0.2452
    1SOL    HW2 2926   4.473   0.410   1.694  0.4085  0.3635 -0.1556
    1SOL    HW3 2927   4.506   0.322   1.575  1.0776  0.7920 -0.2923
    1SOL    MW4 2928   4.489   0.400   1.609  0.0698  0.5557 -0.2395
    1SOL     OW 2929   0.232   0.542   1.532  0.0513  0.1155 -0.1250
    1SOL    HW2 2930   0.155   0.498   1.567  0.7425 -1.2016 -0.2299
    1SOL    HW3 2931   0.233   0.517   1.439  0.9010 -0.3116 -0.0016
    1SOL    MW4 2932   0.222   0.533   1.524  0.2546 -0.1146 -0.1225
    1SOL     OW 2933   0.222   0.810   1.621  0.3582 -0.2777  0.4773
    1SOL    HW2 2934   0.293   0.843   1.566 -0.3419  0.1797 -0.1511
    1SOL    HW3 2935   0.225   0.715   1.610  1.4932 -0.3390  1.2145
    1SOL    MW4 2936   0.232   0.802   1.612  0.4156 -0.2255  0.4917
    1SOL     OW 2937   0.001   0.928   1.497  0.1411 -0.5963  0.2675
    1SOL    HW2 2938  -0.011   1.014   1.536 -0.1884 -1.3646  1.9319
    1SOL    HW3 2939   0.081   0.894   1.537 -0.1115 -1.3467  0.1610
    1SOL    MW4 2940   0.010   0.935   1.507  0.0644 -0.7967  0.4729
    1SOL     OW 2941   4.480   1.175   1.609  0.1318 -0.5399 -0.0595
    1SOL    HW2 2942   4.485   1.182   1.704 -0.1846 -0.6859 -0.0300
    1SOL    HW3 2943   4.565   1.206   1.578 -0.4559  1.3893  0.1721
    1SOL    MW4 2944   4.492   1.180   1.617  0.0125 -0.3046 -0.0252
    1SOL     OW 2945   0.216   1.293   1.496 -0.3308 -0.1454  0.4080
    1SOL    HW2 2946   0.207   1.386   1.516  0.2736  0.1043 -0.4280
    1SOL    HW3 2947   0.219   1.289   1.401 -1.3360 -1.1245  0.4067
    1SOL    MW4 2948   0.215   1.305   1.486 -0.3836 -0.2418  0.2975
    1SOL     OW 2949   0.205   1.542   1.614 -0.1453  0.5279  0.3507
    1SOL    HW2 2950   0.229   1.553   1.706 -1.6468 -0.8943  0.9256
    1SOL    HW3 2951   0.137   1.607   1.598 -0.5006  0.1796  0.4667
    1SOL    MW4 2952   0.199   1.552   1.624 -0.3903  0.2943  0.4419
    1SOL     OW 2953   4.479   1.690   1.483  0.0379  0.2943  0.2340
    1SOL    HW2 2954   4.507   1.780   1.500  1.6060  0.0364 -0.7983
    1SOL    HW3 2955   4.478   1.684   1.387 -0.9926 -0.5063  0.2991
    1SOL    MW4 2956   4.483   1.701   1.473  0.1089  0.1547  0.1063
    1SOL     OW 2957   0.029   1.951   1.573  0.2266 -0.2029  0.2516
    1SOL    HW2 2958   0.018   1.960   1.667 -0.6012 -0.4005  0.1824
    1SOL    HW3 2959  -0.054   1.983   1.536  0.5219 -0.1790 -0.4011
    1SOL    MW4 2960   0.016   1.956   1.580  0.1564 -0.2259  0.1564
    1SOL     OW 2961   0.259   2.092   1.500 -0.1628  0.3074  0.3086
    1SOL    HW2 2962   0.173   2.063   1.530  0.0760 -0.9018 -0.1512
    1SOL    HW3 2963   0.257   2.079   1.405  0.1840  1.1863  0.1756
    1SOL    MW4 2964   0.247   2.086   1.491 -0.0856  0.2639  0.2304
    1SOL     OW 2965   0.191   2.336   1.574  0.0420  0.3248 -0.0134
    1SOL    HW2 2966   0.195   2.333   1.670  1.1158  0.4191 -0.0498
    1SOL    HW3 2967   0.211   2.246   1.546  1.0132  0.5865 -0.1800
    1SOL    MW4 2968   0.194   2.324   1.583  0.3118  0.3719 -0.0403
    1SOL     OW 2969   4.465   2.479   1.483 -0.0244  0.2085  0.2257
    1SOL    HW2 2970   4.386   2.431   1.510  0.2575  0.1078  0.8888
    1SOL    HW3 2971   4.537   2.427   1.516  0.3938 -0.6328 -1.9396
    1SOL    MW4 2972   4.464   2.466   1.491  0.0682  0.0842  0.0277
    1SOL     OW 2973   4.475   2.728   1.614  0.8337 -0.1763 -0.5308
    1SOL    HW2 2974   4.393   2.761   1.577  0.7099 -0.3478 -0.4073
    1SOL    HW3 2975   4.491   2.646   1.566  0.4748 -0.5962  0.0661
    1SOL    MW4 2976   4.467   2.721   1.602  0.7701 -0.2544 -0.4356
    1SOL     OW 2977   0.201   2.822   1.465  0.1217  0.0994 -0.3112
    1SOL    HW2 2978   0.273   2.764   1.491  0.7213  1.1281  0.3795
    1SOL    HW3 2979   0.126   2.792   1.517  0.7380  0.6971  0.9665
    1SOL    MW4 2980   0.201   2.811   1.476  0.2821  0.3140 -0.0515
    1SOL     OW 2981   0.217   3.067   1.607  0.4555 -0.1734 -0.1238
    1SOL    HW2 2982   0.149   3.126   1.574  0.3868  0.3580  0.9487
    1SOL    HW3 2983   0.205   2.987   1.557  0.6440  0.7640 -1.7101
    1SOL    MW4 2984   0.206   3.064   1.596  0.4713  0.0205 -0.1917
    1SOL     OW 2985   0.012   3.229   1.500  0.1997  0.3391  0.1919
    1SOL    HW2 2986   0.005   3.307   1.556  0.3311  1.4256 -1.2775
    1SOL    HW3 2987   0.002   3.262   1.411  0.9138 -1.2392 -0.5024
    1SOL    MW4 2988   0.010   3.244   1.496  0.3114  0.2742 -0.0935
    1SOL     OW 2989   0.008   3.480   1.617  0.2848  0.5022  0.3290
    1SOL    HW2 2990   0.009   3.468   1.712 -0.7073 -0.2180  0.2535
    1SOL    HW3 2991  -0.083   3.498   1.596  0.8109  2.5308 -0.2744
    1SOL    MW4 2992  -0.004   3.481   1.627  0.2232  0.6747  0.2394
    1SOL     OW 2993   0.196   3.645   1.494 -0.1872 -0.1835 -0.1574
    1SOL    HW2 2994   0.202   3.730   1.539 -0.2600 -0.5083  0.4660
    1SOL    HW3 2995   0.122   3.601   1.535 -1.3584  0.1994 -1.7645
    1SOL    MW4 2996   0.187   3.651   1.505 -0.3513 -0.1757 -0.2872
    1SOL     OW 2997   0.169   3.893   1.632  0.0173  0.1410 -0.1010
    1SOL    HW2 2998   0.188   3.894   1.725  0.9677  0.2107 -0.2862
    1SOL    HW3 2999   0.245   3.938   1.592  0.5160 -1.5226 -1.0542
    1SOL    MW4 3000   0.182   3.899   1.639  0.2085 -0.0694 -0.2512
    1SOL     OW 3001   4.433   4.004   1.522  0.0234 -0.0695  0.4183
    1SOL    HW2 3002   4.450   4.096   1.543  1.8821 -0.2578 -0.1413
    1SOL    HW3 3003   4.495   3.956   1.578  0.1360 -0.8951 -0.4086
    1SOL    MW4 3004   4.444   4.010   1.532  0.2832 -0.2031  0.2353
    1SOL     OW 3005   4.489   4.273   1.605  0.2838 -0.5414 -0.3665
    1SOL    HW2 3006   4.476   4.272   1.699  1.7791  2.7228 -0.0458
    1SOL    HW3 3007   4.418   4.327   1.571  1.4603  0.8073 -0.7387
    1SOL    MW4 3008   4.478   4.280   1.613  0.6361  0.0672 -0.3731
    1SOL     OW 3009   0.217   4.368   1.516 -0.4542 -0.0804 -0.4941
    1SOL    HW2 3010   0.136   4.328   1.550 -0.4359  0.2765 -0.0161
    1SOL    HW3 3011   0.208   4.461   1.538  1.0536 -0.3841  1.4972
    1SOL    MW4 3012   0.205   4.375   1.524 -0.2528 -0.0739 -0.1683
    1SOL     OW 3013   0.647   4.586   1.609 -0.0164  0.1792 -0.2137
    1SOL    HW2 3014   0.730   4.616   1.572  0.2058  0.3711  0.4236
    1SOL    HW3 3015   0.589   4.662   1.605  0.3250  0.4955  0.7536
    1SOL    MW4 3016   0.650   4.600   1.604  0.0580  0.2465 -0.0021
    1SOL     OW 3017   0.455   0.120   1.534  0.4450  0.2294 -0.0466
    1SOL    HW2 3018   0.439   0.210   1.562  0.3373  0.1061  0.2878
    1SOL    HW3 3019   0.477   0.128   1.441 -0.6230  0.4950 -0.2883
    1SOL    MW4 3020   0.456   0.133   1.525  0.2898  0.2481 -0.0345
    1SOL     OW 3021   0.445   0.382   1.622 -0.3961 -0.2486  0.1812
    1SOL    HW2 3022   0.524   0.423   1.587 -1.3970  0.6379 -1.0761
    1SOL    HW3 3023   0.373   0.433   1.585 -1.5853 -1.6086  0.5827
    1SOL    MW4 3024   0.446   0.394   1.613 -0.6850 -0.3110  0.0683
    1SOL     OW 3025   0.689   0.523   1.522 -0.1254 -0.3423 -0.1678
    1SOL    HW2 3026   0.678   0.619   1.520  0.5263 -0.2040  2.0612
    1SOL    HW3 3027   0.688   0.498   1.430 -1.1135  1.7232 -0.7599
    1SOL    MW4 3028   0.688   0.533   1.509 -0.1698 -0.0515  0.0483
    1SOL     OW 3029   0.661   0.814   1.557 -0.1967  0.4375 -0.4450
    1SOL    HW2 3030   0.660   0.798   1.651  1.1737  1.7959 -0.1897
    1SOL    HW3 3031   0.745   0.856   1.540  0.6170 -1.9200 -2.6380
    1SOL    MW4 3032   0.672   0.817   1.567  0.0914  0.3057 -0.7006
    1SOL     OW 3033   0.427   0.909   1.437 -0.1951  0.4093 -0.0632
    1SOL    HW2 3034   0.430   1.002   1.461  0.2182  0.4836 -0.4011
    1SOL    HW3 3035   0.502   0.870   1.482  0.9451  0.6647 -1.7323
    1SOL    MW4 3036   0.437   0.916   1.446  0.0098  0.4527 -0.3279
    1SOL     OW 3037   0.438   1.155   1.577 -0.3607 -0.4790 -0.3261
    1SOL    HW2 3038   0.516   1.199   1.542 -0.7120 -0.5042 -1.1274
    1SOL    HW3 3039   0.365   1.209   1.548 -0.5718  0.3530  1.6180
    1SOL    MW4 3040   0.439   1.168   1.569 -0.4349 -0.3724 -0.1754
    1SOL     OW 3041   0.665   1.261   1.474 -0.4735  0.2521 -0.7553
    1SOL    HW2 3042   0.651   1.355   1.483  2.4826  0.7701 -1.2265
    1SOL    HW3 3043   0.683   1.248   1.381 -1.8818 -0.9541 -0.8828
    1SOL    MW4 3044   0.666   1.272   1.463 -0.2693  0.1614 -0.8342
    1SOL     OW 3045   0.654   1.543   1.560 -0.4285  0.2272  0.1323
    1SOL    HW2 3046   0.730   1.588   1.524 -0.0383  0.1349  0.8352
    1SOL    HW3 3047   0.580   1.599   1.538  0.0014  0.9817  0.5877
    1SOL    MW4 3048   0.654   1.556   1.553 -0.3203  0.3146  0.2850
    1SOL     OW 3049   0.435   1.667   1.482  0.0196 -0.1905  0.2721
    1SOL    HW2 3050   0.451   1.751   1.525 -0.3481 -0.1459  0.3286
    1SOL    HW3 3051   0.363   1.628   1.532 -0.5252 -0.0659 -0.3979
    1SOL    MW4 3052   0.427   1.673   1.494 -0.1008 -0.1682  0.1910
    1SOL     OW 3053   0.461   1.902   1.631  0.4955  0.3764 -0.0916
    1SOL    HW2 3054   0.457   1.912   1.726 -0.1178 -0.6455 -0.0017
    1SOL    HW3 3055   0.386   1.952   1.598  0.7961  0.8539 -0.0455
    1SOL    MW4 3056   0.450   1.910   1.639  0.4543  0.3046 -0.0737
    1SOL     OW 3057   0.698   2.064   1.511 -0.1086 -0.1187  0.2045
    1SOL    HW2 3058   0.776   2.019   1.543 -0.4794 -0.3963  0.7178
    1SOL    HW3 3059   0.624   2.012   1.543 -0.5053  0.0628 -0.3963
    1SOL    MW4 3060   0.698   2.051   1.519 -0.2099 -0.1311  0.1929
    1SOL     OW 3061   0.674   2.330   1.579 -0.1791  0.2697 -0.2197
    1SOL    HW2 3062   0.591   2.358   1.541 -0.0548  0.4739 -0.3388
    1SOL    HW3 3063   0.681   2.237   1.554 -0.0148  0.4457 -0.8506
    1SOL    MW4 3064   0.664   2.321   1.570 -0.1410  0.3200 -0.3185
    1SOL     OW 3065   0.428   2.431   1.490  0.5216  0.3212 -0.0894
    1SOL    HW2 3066   0.437   2.521   1.521  0.4577  0.1135  0.5282
    1SOL    HW3 3067   0.350   2.397   1.534  0.8999 -0.2359  0.1598
    1SOL    MW4 3068   0.419   2.438   1.500  0.5631  0.2201  0.0250
    1SOL     OW 3069   0.413   2.681   1.585  0.0994  0.2698  0.1374
    1SOL    HW2 3070   0.419   2.681   1.681 -0.6408  0.4599  0.1844
    1SOL    HW3 3071   0.485   2.738   1.557 -0.6000  1.4377  0.6477
    1SOL    MW4 3072   0.423   2.689   1.594 -0.0905  0.4489  0.2109
    1SOL     OW 3073   0.654   2.831   1.528  0.4308 -0.0024  0.5840
    1SOL    HW2 3074   0.661   2.922   1.556  0.8040  0.4167 -0.8490
    1SOL    HW3 3075   0.659   2.834   1.432 -2.7492 -1.2304  0.3251
    1SOL    MW4 3076   0.656   2.843   1.519  0.0605 -0.1092  0.3607
    1SOL     OW 3077   0.639   3.099   1.602 -0.2587  0.2356 -0.6066
    1SOL    HW2 3078   0.713   3.146   1.564 -0.2605  0.3467 -0.4726
    1SOL    HW3 3079   0.566   3.160   1.594 -0.1323  0.4808  0.0971
    1SOL    MW4 3080   0.639   3.113   1.596 -0.2422  0.2828 -0.4959
    1SOL     OW 3081   0.412   3.242   1.537  0.0585  0.2033 -0.1901
    1SOL    HW2 3082   0.345   3.179   1.562  1.1122 -1.3942 -1.3186
    1SOL    HW3 3083   0.422   3.231   1.442 -1.1674  3.4887 -0.7896
    1SOL    MW4 3084   0.404   3.232   1.528  0.0358  0.4258 -0.4182
    1SOL     OW 3085   0.411   3.518   1.591 -0.4263 -0.4329 -0.2887
    1SOL    HW2 3086   0.410   3.428   1.558  0.8448 -0.2477 -0.8689
    1SOL    HW3 3087   0.333   3.559   1.553  0.0348 -0.7395 -1.6001
    1SOL    MW4 3088   0.401   3.511   1.582 -0.1978 -0.4487 -0.5383
    1SOL     OW 3089   0.654   3.623   1.473 -0.2078  0.0914 -0.2871
    1SOL    HW2 3090   0.724   3.581   1.524  0.2597  1.1104 -0.0864
    1SOL    HW3 3091   0.574   3.582   1.506  0.2972 -1.2467 -0.6775
    1SOL    MW4 3092   0.653   3.612   1.484 -0.0795  0.0489 -0.3122
    1SOL     OW 3093   0.650   3.886   1.598  0.0371  0.2389 -0.0805
    1SOL    HW2 3094   0.723   3.929   1.554  0.6496 -0.4141  0.2907
    1SOL    HW3 3095   0.650   3.797   1.564 -1.5748  0.6557 -1.2689
    1SOL    MW4 3096   0.659   3.880   1.588 -0.0948  0.2077 -0.1884
    1SOL     OW 3097   0.401   3.987   1.525 -0.3599  0.0868  0.2242
    1SOL    HW2 3098   0.485   3.948   1.550 -0.6855 -0.3840  0.5914
    1SOL    HW3 3099   0.413   4.013   1.434  0.6902  1.4123  0.7308
    1SOL    MW4 3100   0.414   3.985   1.516 -0.2643  0.1998  0.3394
    1SOL     OW 3101   0.423   4.231   1.642 -0.4075 -0.0096 -0.3678
    1SOL    HW2 3102   0.398   4.144   1.610  0.7754 -0.7151  0.5867
    1SOL    HW3 3103   0.350   4.288   1.617 -1.0620 -1.2214 -1.2464
    1SOL    MW4 3104   0.410   4.227   1.635 -0.3378 -0.2623 -0.3575
    1SOL     OW 3105   0.646   4.337   1.495  0.1346  0.2935  0.2910
    1SOL    HW2 3106   0.576   4.292   1.542 -1.0335  0.1711 -1.5357
    1SOL    HW3 3107   0.642   4.428   1.527 -0.1464  0.0396  0.9858
    1SOL    MW4 3108   0.636   4.343   1.505 -0.0566  0.2432  0.1416
    1SOL     OW 3109   1.139   4.645   1.618  0.0845  0.0817  0.4502
    1SOL    HW2 3110   1.143   4.642   1.714  0.7091  1.2280  0.4675
    1SOL    HW3 3111   1.214   4.698   1.593  1.2216 -2.0297 -0.7981
    1SOL    MW4 3112   1.150   4.651   1.628  0.3170 -0.0453  0.2879
    1SOL     OW 3113   0.878   0.062   1.510 -0.4964  0.0082  0.1239
    1SOL    HW2 3114   0.843   0.147   1.539 -1.8820 -0.5327  0.0428
    1SOL    HW3 3115   0.963   0.055   1.554  0.3769  2.1555 -1.0930
    1SOL    MW4 3116   0.885   0.073   1.520 -0.5640  0.2201 -0.0474
    1SOL     OW 3117   0.880   0.348   1.634  0.8478 -0.4378  0.0602
    1SOL    HW2 3118   0.871   0.356   1.729  1.4421 -0.0157  0.0858
    1SOL    HW3 3119   0.821   0.415   1.599  0.6838 -0.5434  0.1369
    1SOL    MW4 3120   0.871   0.358   1.642  0.9046 -0.3960  0.0737
    1SOL     OW 3121   1.090   0.495   1.491 -0.4673  0.0666 -0.0691
    1SOL    HW2 3122   1.094   0.582   1.531  1.2041 -0.1569  0.3044
    1SOL    HW3 3123   1.026   0.447   1.545 -0.4112  0.6660  0.5408
    1SOL    MW4 3124   1.082   0.500   1.504 -0.2394  0.1162  0.0607
    1SOL     OW 3125   1.105   0.743   1.622 -0.2112 -0.3567  0.3240
    1SOL    HW2 3126   1.113   0.747   1.718  0.7950 -1.1616  0.2729
    1SOL    HW3 3127   1.169   0.807   1.591  0.4733 -1.1353  0.1425
    1SOL    MW4 3128   1.114   0.752   1.631  0.0118 -0.5656  0.2934
    1SOL     OW 3129   0.919   0.915   1.521  0.3504  0.3349 -0.0763
    1SOL    HW2 3130   0.974   0.845   1.556  0.5919  0.5938  0.0628
    1SOL    HW3 3131   0.915   0.897   1.427  1.8139  1.1034 -0.2982
    1SOL    MW4 3132   0.926   0.903   1.513  0.5754  0.4704 -0.0873
    1SOL     OW 3133   0.935   1.184   1.581  0.2948  0.5634  0.9282
    1SOL    HW2 3134   0.939   1.089   1.566  0.4989  0.4555  1.6503
    1SOL    HW3 3135   0.849   1.210   1.548 -0.4011 -0.1315  2.1558
    1SOL    MW4 3136   0.924   1.175   1.575  0.2299  0.4576  1.1853
    1SOL     OW 3137   1.175   1.283   1.471  0.0225  0.0900 -0.5317
    1SOL    HW2 3138   1.247   1.256   1.527 -0.2195 -0.1547 -0.3410
    1SOL    HW3 3139   1.100   1.232   1.501 -0.8153  2.1050  0.8880
    1SOL    MW4 3140   1.175   1.273   1.482 -0.1202  0.3235 -0.3192
    1SOL     OW 3141   1.126   1.534   1.589 -0.1161 -0.2075 -0.0802
    1SOL    HW2 3142   1.211   1.577   1.578 -0.0662 -0.3691 -0.3291
    1SOL    HW3 3143   1.141   1.444   1.558 -0.2237 -0.3972  0.4146
    1SOL    MW4 3144   1.139   1.528   1.583 -0.1237 -0.2538 -0.0477
    1SOL     OW 3145   0.899   1.665   1.465 -0.0849 -0.4731  0.1541
    1SOL    HW2 3146   0.959   1.604   1.507 -0.1163 -1.3608 -1.0510
    1SOL    HW3 3147   0.913   1.748   1.510  0.9181 -1.0579  0.9286
    1SOL    MW4 3148   0.909   1.668   1.476  0.0433 -0.6675  0.0972
    1SOL     OW 3149   0.896   1.916   1.623 -0.2679  0.2808 -0.2362
    1SOL    HW2 3150   0.971   1.965   1.590  0.5882 -1.2593 -0.6120
    1SOL    HW3 3151   0.909   1.913   1.718 -0.9677  1.8122 -0.0804
    1SOL    MW4 3152   0.907   1.922   1.631 -0.2473  0.2795 -0.2651
    1SOL     OW 3153   1.113   2.079   1.500 -0.4996  0.2347 -0.3952
    1SOL    HW2 3154   1.189   2.062   1.556 -1.5249 -0.8892  0.6961
    1SOL    HW3 3155   1.097   2.172   1.508 -1.4264 -0.1124  2.2546
    1SOL    MW4 3156   1.121   2.089   1.508 -0.7572  0.0405  0.0982
    1SOL     OW 3157   1.100   2.349   1.605  0.8428 -0.1080  0.0173
    1SOL    HW2 3158   1.176   2.386   1.560  1.1362 -0.0659  0.5406
    1SOL    HW3 3159   1.025   2.396   1.568  1.1655  0.6010  0.2566
    1SOL    MW4 3160   1.100   2.360   1.595  0.9241 -0.0088  0.1179
    1SOL     OW 3161   0.878   2.487   1.485 -0.1297 -0.5549  0.3271
    1SOL    HW2 3162   0.881   2.571   1.530 -0.7287  0.2518 -1.1105
    1SOL    HW3 3163   0.803   2.441   1.524  0.7619 -0.8299  1.7710
    1SOL    MW4 3164   0.869   2.492   1.496 -0.0911 -0.4847  0.3279
    1SOL     OW 3165   0.889   2.723   1.633  0.6435 -0.5524 -0.2298
    1SOL    HW2 3166   0.901   2.695   1.724  0.9213  1.1848  0.2970
    1SOL    HW3 3167   0.803   2.764   1.632  0.9805  0.1734 -0.5273
    1SOL    MW4 3168   0.880   2.725   1.645  0.7247 -0.2272 -0.1997
    1SOL     OW 3169   1.112   2.879   1.535  0.2789  0.1771  0.2493
    1SOL    HW2 3170   1.098   2.974   1.543 -0.4514 -0.0884  2.3856
    1SOL    HW3 3171   1.030   2.840   1.565  0.9717 -1.1540  0.4480
    1SOL    MW4 3172   1.099   2.886   1.540  0.2738 -0.0334  0.5574
    1SOL     OW 3173   1.093   3.145   1.611 -0.0136 -0.1332  0.0675
    1SOL    HW2 3174   1.112   3.163   1.703  0.4172  0.5946 -0.1531
    1SOL    HW3 3175   1.174   3.169   1.565 -1.0114  1.7573 -0.7530
    1SOL    MW4 3176   1.106   3.151   1.617 -0.0885  0.2124 -0.0697
    1SOL     OW 3177   0.852   3.250   1.516 -0.2375  0.0583 -0.1593
    1SOL    HW2 3178   0.938   3.218   1.545  0.1299  0.8870 -0.3143
    1SOL    HW3 3179   0.861   3.259   1.421 -0.0360  1.4523 -0.0266
    1SOL    MW4 3180   0.865   3.247   1.508 -0.1624  0.3519 -0.1622
    1SOL     OW 3181   0.892   3.503   1.625  0.1306 -0.3266  0.2336
    1SOL    HW2 3182   0.977   3.527   1.589  0.2131 -0.2276  0.4953
    1SOL    HW3 3183   0.874   3.416   1.590  0.6286 -0.6166  0.6990
    1SOL    MW4 3184   0.901   3.495   1.616  0.2072 -0.3514  0.3295
    1SOL     OW 3185   1.122   3.602   1.497  0.4629 -0.1587  0.0391
    1SOL    HW2 3186   1.194   3.559   1.544 -1.0571 -2.0347  0.7425
    1SOL    HW3 3187   1.129   3.569   1.408 -0.5791 -1.7813  0.5301
    1SOL    MW4 3188   1.133   3.592   1.492  0.1248 -0.6204  0.1966
    1SOL     OW 3189   1.139   3.851   1.631  0.5553 -0.1022  0.3588
    1SOL    HW2 3190   1.211   3.898   1.590  0.5213 -0.9260 -0.6615
    1SOL    HW3 3191   1.128   3.773   1.577 -0.0685 -0.7581  1.4284
    1SOL    MW4 3192   1.147   3.847   1.619  0.4685 -0.2975  0.3654
    1SOL     OW 3193   0.891   3.985   1.497  0.1237 -0.0818 -0.8837
    1SOL    HW2 3194   0.891   4.077   1.525 -0.0304  0.5802 -2.9749
    1SOL    HW3 3195   0.972   3.949   1.532  0.2166  0.8764 -0.0971
    1SOL    MW4 3196   0.901   3.993   1.505  0.1156  0.1323 -1.0561
    1SOL     OW 3197   0.895   4.258   1.579 -0.4425  0.5763 -0.2781
    1SOL    HW2 3198   0.903   4.284   1.671 -0.4343  0.8281 -0.3496
    1SOL    HW3 3199   0.804   4.277   1.556 -0.4049  0.6555 -0.3646
    1SOL    MW4 3200   0.884   4.264   1.588 -0.4365  0.6199 -0.2990
    1SOL     OW 3201   1.134   4.374   1.499  0.0188 -0.4326 -0.4159
    1SOL    HW2 3202   1.051   4.333   1.520 -0.2561  0.0836 -0.5033
    1SOL    HW3 3203   1.122   4.467   1.518 -0.6812  0.3019 -4.0564
    1SOL    MW4 3204   1.122   4.381   1.504 -0.1098 -0.2670 -0.9079
    1SOL     OW 3205   1.602   4.639   1.620 -0.2967 -0.1923 -0.5095
    1SOL    HW2 3206   1.597   4.624   1.715  1.0185 -0.2657 -0.4374
    1SOL    HW3 3207   1.522   4.687   1.599 -1.1600 -1.1757  0.4426
    1SOL    MW4 3208   1.591   4.644   1.630 -0.2370 -0.3319 -0.3743
    1SOL     OW 3209   1.373   0.117   1.546  0.3008  0.4426 -0.2161
    1SOL    HW2 3210   1.342   0.205   1.563 -0.1778  0.3553 -0.6087
    1SOL    HW3 3211   1.358   0.104   1.452  0.2479 -0.1028 -0.1335
    1SOL    MW4 3212   1.367   0.127   1.536  0.2307  0.3591 -0.2570
    1SOL     OW 3213   1.356   0.396   1.566 -0.3936 -0.0404  0.0311
    1SOL    HW2 3214   1.424   0.446   1.522  0.7503 -1.7827 -0.2243
    1SOL    HW3 3215   1.274   0.431   1.531  0.3039  2.6344  0.9352
    1SOL    MW4 3216   1.354   0.407   1.556 -0.1506  0.0826  0.1167
    1SOL     OW 3217   1.593   0.529   1.470 -0.6189  0.4243  0.1100
    1SOL    HW2 3218   1.668   0.490   1.514 -1.0933 -1.0841 -0.3799
    1SOL    HW3 3219   1.594   0.492   1.382 -2.4061 -0.3047  0.3571
    1SOL    MW4 3220   1.603   0.519   1.465 -0.9173  0.1291  0.0780
    1SOL     OW 3221   1.559   0.786   1.558 -0.1473  0.1025  0.3489
    1SOL    HW2 3222   1.539   0.776   1.651  1.9008 -0.6476  0.7426
    1SOL    HW3 3223   1.562   0.697   1.524  1.2183  0.2327  0.0678
    1SOL    MW4 3224   1.557   0.773   1.566  0.3030  0.0206  0.3638
    1SOL     OW 3225   1.315   0.891   1.488 -0.3580  0.2181  0.2853
    1SOL    HW2 3226   1.400   0.857   1.517  0.3193  0.7894 -0.9688
    1SOL    HW3 3227   1.322   0.894   1.392 -1.6692  0.5983  0.1898
    1SOL    MW4 3228   1.327   0.887   1.479 -0.4417  0.3437  0.1073
    1SOL     OW 3229   1.419   1.146   1.592 -0.2179 -0.0214 -0.2396
    1SOL    HW2 3230   1.379   1.075   1.542  0.1116 -1.6105  1.7010
    1SOL    HW3 3231   1.397   1.126   1.683  1.7183  1.1825  0.5145
    1SOL    MW4 3232   1.411   1.134   1.597  0.0811 -0.0722  0.1159
    1SOL     OW 3233   1.608   1.320   1.475 -0.0316  0.0756 -0.5967
    1SOL    HW2 3234   1.526   1.275   1.494  0.8759 -1.4329 -0.2128
    1SOL    HW3 3235   1.622   1.307   1.382  0.4278 -0.7580 -0.4089
    1SOL    MW4 3236   1.599   1.313   1.465  0.1489 -0.2334 -0.5213
    1SOL     OW 3237   1.599   1.547   1.608 -0.2286 -0.1112 -0.3160
    1SOL    HW2 3238   1.580   1.515   1.696 -1.2717 -0.1183 -0.5363
    1SOL    HW3 3239   1.609   1.468   1.555  0.5876 -0.1099 -0.1699
    1SOL    MW4 3240   1.598   1.533   1.613 -0.2584 -0.1121 -0.3257
    1SOL     OW 3241   1.375   1.673   1.540 -0.7064  0.0513  0.2120
    1SOL    HW2 3242   1.459   1.634   1.565 -0.8228  0.0538  0.6155
    1SOL    HW3 3243   1.378   1.677   1.445 -0.3264 -0.1258  0.2138
    1SOL    MW4 3244   1.386   1.668   1.531 -0.6717  0.0284  0.2654
    1SOL     OW 3245   1.320   1.962   1.602 -0.2725  0.3392 -0.5610
    1SOL    HW2 3246   1.319   1.962   1.698  0.0455  2.0638 -0.5367
    1SOL    HW3 3247   1.331   1.870   1.578 -0.5889 -0.1359  1.0507
    1SOL    MW4 3248   1.321   1.950   1.612 -0.2724  0.5041 -0.3451
    1SOL     OW 3249   1.550   2.065   1.471  0.4401 -0.0567 -0.1058
    1SOL    HW2 3250   1.460   2.039   1.487 -0.1395  0.9773 -1.5891
    1SOL    HW3 3251   1.560   2.059   1.376  1.7153  0.5559 -0.0170
    1SOL    MW4 3252   1.540   2.061   1.460  0.5319  0.1607 -0.2898
    1SOL     OW 3253   1.551   2.311   1.593 -0.0709 -0.2090  0.0007
    1SOL    HW2 3254   1.624   2.367   1.568 -0.0780 -0.2110 -0.0255
    1SOL    HW3 3255   1.563   2.231   1.541 -1.2744  0.6305 -1.6126
    1SOL    MW4 3256   1.562   2.307   1.583 -0.2306 -0.0985 -0.2156
    1SOL     OW 3257   1.330   2.446   1.470  0.0589  0.0731 -0.1352
    1SOL    HW2 3258   1.331   2.532   1.513  0.6140 -1.2800  2.6289
    1SOL    HW3 3259   1.408   2.401   1.504 -0.8511 -1.9682 -0.6800
    1SOL    MW4 3260   1.341   2.452   1.480  0.0120 -0.3746  0.1577
    1SOL     OW 3261   1.305   2.705   1.615  0.0946  0.0445 -0.9229
    1SOL    HW2 3262   1.382   2.755   1.586  0.3414 -0.2012 -0.6951
    1SOL    HW3 3263   1.231   2.763   1.597  0.2387 -0.1147 -2.0691
    1SOL    MW4 3264   1.306   2.719   1.609  0.1462 -0.0088 -1.0440
    1SOL     OW 3265   1.551   2.844   1.532  0.4120  0.0329  0.2409
    1SOL    HW2 3266   1.635   2.810   1.562 -0.0060  0.0762  1.4879
    1SOL    HW3 3267   1.553   2.834   1.437  1.3237 -1.1117  0.3800
    1SOL    MW4 3268   1.562   2.838   1.523  0.4771 -0.1123  0.4238
    1SOL     OW 3269   1.542   3.119   1.597  0.2217 -0.0197  0.0610
    1SOL    HW2 3270   1.622   3.147   1.553 -0.3891  0.3698 -0.8149
    1SOL    HW3 3271   1.541   3.024   1.584  1.0356 -0.1474  0.9145
    1SOL    MW4 3272   1.553   3.110   1.589  0.2484  0.0148  0.0581
    1SOL     OW 3273   1.319   3.224   1.478  0.1366  0.6274 -0.0667
    1SOL    HW2 3274   1.321   3.307   1.526  0.6575  0.6148 -0.0610
    1SOL    HW3 3275   1.401   3.181   1.503 -0.1549  0.0924 -0.0349
    1SOL    MW4 3276   1.330   3.230   1.488  0.1670  0.5553 -0.0618
    1SOL     OW 3277   1.316   3.457   1.629 -0.0528  0.1805 -0.5482
    1SOL    HW2 3278   1.325   3.469   1.724 -0.8956  2.2847 -0.7020
    1SOL    HW3 3279   1.399   3.489   1.594 -0.0623  0.1808 -0.5698
    1SOL    MW4 3280   1.328   3.463   1.637 -0.1652  0.4582 -0.5714
    1SOL     OW 3281   1.554   3.570   1.522  0.5686  0.1960 -0.3467
    1SOL    HW2 3282   1.555   3.660   1.554 -0.6027  0.3148 -0.6198
    1SOL    HW3 3283   1.565   3.578   1.427  0.4045  0.0543 -0.3781
    1SOL    MW4 3284   1.556   3.583   1.513  0.3926  0.1931 -0.3870
    1SOL     OW 3285   1.579   3.830   1.593 -0.0268  0.1868 -0.8272
    1SOL    HW2 3286   1.587   3.829   1.689  0.4146 -1.5627 -0.8690
    1SOL    HW3 3287   1.506   3.889   1.576 -0.3516  0.2209  0.6217
    1SOL    MW4 3288   1.570   3.838   1.604 -0.0113 -0.0396 -0.6415
    1SOL     OW 3289   1.358   3.989   1.542  0.0028 -0.4768 -0.0397
    1SOL    HW2 3290   1.365   4.079   1.576  1.1931 -0.4959 -0.1916
    1SOL    HW3 3291   1.348   4.000   1.448 -1.6857 -0.4639  0.1338
    1SOL    MW4 3292   1.358   4.003   1.534 -0.0631 -0.4778 -0.0367
    1SOL     OW 3293   1.352   4.245   1.627 -0.1314 -0.0046 -0.1981
    1SOL    HW2 3294   1.427   4.302   1.609 -0.8556  0.9000 -0.3670
    1SOL    HW3 3295   1.280   4.284   1.578 -0.2925 -1.9313 -1.5507
    1SOL    MW4 3296   1.352   4.258   1.618 -0.2482 -0.1397 -0.3989
    1SOL     OW 3297   1.567   4.381   1.523  0.1139 -0.3538  0.1130
    1SOL    HW2 3298   1.633   4.337   1.577  0.6094 -0.1007 -0.2805
    1SOL    HW3 3299   1.574   4.473   1.548  0.6594 -0.1716 -0.7130
    1SOL    MW4 3300   1.576   4.388   1.534  0.2513 -0.2961 -0.0479
    1SOL     OW 3301   2.013   4.645   1.568  0.0952 -0.3289  0.1262
    1SOL    HW2 3302   2.018   4.625   1.661 -0.8129 -0.1946  0.2123
    1SOL    HW3 3303   1.936   4.702   1.560  0.2282 -0.2579 -0.6870
    1SOL    MW4 3304   2.003   4.650   1.579 -0.0069 -0.3023  0.0303
    1SOL     OW 3305   1.797   0.140   1.493  0.5123 -0.0350 -0.9144
    1SOL    HW2 3306   1.719   0.096   1.528  0.7284  0.5652  0.3750
    1SOL    HW3 3307   1.797   0.120   1.400 -0.8798 -0.5082 -0.8176
    1SOL    MW4 3308   1.787   0.132   1.486  0.3573 -0.0182 -0.7316
    1SOL     OW 3309   1.772   0.385   1.606 -0.4322  0.0403  0.1577
    1SOL    HW2 3310   1.852   0.432   1.582  0.2678 -0.6244  1.1334
    1SOL    HW3 3311   1.781   0.300   1.563 -1.1748  0.3896 -0.6976
    1SOL    MW4 3312   1.784   0.380   1.598 -0.4379 -0.0013  0.1737
    1SOL     OW 3313   2.010   0.490   1.493  0.4891 -0.0579  0.5094
    1SOL    HW2 3314   2.088   0.440   1.518  1.3721  0.5964 -0.8241
    1SOL    HW3 3315   2.030   0.580   1.519 -0.2608 -0.0525  1.0894
    1SOL    MW4 3316   2.023   0.495   1.500  0.5069  0.0291  0.4098
    1SOL     OW 3317   2.047   0.754   1.582 -0.5095 -0.4758 -0.4219
    1SOL    HW2 3318   2.119   0.814   1.567  0.6651 -1.2898  1.7669
    1SOL    HW3 3319   1.971   0.796   1.542  0.3635  2.2850  0.7490
    1SOL    MW4 3320   2.046   0.767   1.575 -0.2394 -0.2190  0.0213
    1SOL     OW 3321   1.818   0.865   1.478  0.0833  0.4748  0.1895
    1SOL    HW2 3322   1.832   0.952   1.516 -2.2185  0.5489  0.8924
    1SOL    HW3 3323   1.730   0.840   1.506  0.8196 -2.2177  0.2360
    1SOL    MW4 3324   1.808   0.873   1.487 -0.1233  0.1294  0.2884
    1SOL     OW 3325   1.796   1.135   1.596  0.0651 -0.0583 -0.1867
    1SOL    HW2 3326   1.865   1.189   1.557 -0.5433  1.4364  0.7250
    1SOL    HW3 3327   1.715   1.172   1.562 -0.3842 -0.0571  0.8655
    1SOL    MW4 3328   1.795   1.147   1.586 -0.0743  0.1391  0.0724
    1SOL     OW 3329   1.994   1.282   1.470  0.3660  0.2657  0.1041
    1SOL    HW2 3330   2.011   1.370   1.502 -0.5847  0.7634 -0.7311
    1SOL    HW3 3331   2.024   1.283   1.379 -0.8681  0.1203 -0.3063
    1SOL    MW4 3332   2.000   1.294   1.462  0.0777  0.3122 -0.0602
    1SOL     OW 3333   2.026   1.537   1.567  0.1645  0.3296 -0.1331
    1SOL    HW2 3334   2.100   1.584   1.526  0.1682  0.1148 -0.3715
    1SOL    HW3 3335   1.952   1.598   1.559  0.3982  0.6960  0.4293
    1SOL    MW4 3336   2.026   1.552   1.560  0.1957  0.3496 -0.0904
    1SOL     OW 3337   1.811   1.703   1.506  0.1373  0.1551  0.2488
    1SOL    HW2 3338   1.730   1.655   1.528  1.0677 -2.1945 -1.2116
    1SOL    HW3 3339   1.823   1.687   1.413  2.5761  0.0469  0.5630
    1SOL    MW4 3340   1.802   1.694   1.497  0.5817 -0.1690  0.0975
    1SOL     OW 3341   1.773   1.945   1.596  0.0918 -0.0033  0.1330
    1SOL    HW2 3342   1.785   1.854   1.570  0.6751 -0.0387  0.5051
    1SOL    HW3 3343   1.687   1.969   1.562  0.0883 -0.5840 -0.2729
    1SOL    MW4 3344   1.763   1.936   1.588  0.1682 -0.0846  0.1285
    1SOL     OW 3345   1.992   2.028   1.459  0.1776  0.2597  0.4901
    1SOL    HW2 3346   2.060   1.986   1.511  0.0699 -1.7024 -0.8730
    1SOL    HW3 3347   1.910   1.998   1.497  0.0915  0.3367  0.3672
    1SOL    MW4 3348   1.990   2.019   1.471  0.1520  0.0110  0.2940
    1SOL     OW 3349   1.982   2.289   1.586  0.1937  0.3916  0.4487
    1SOL    HW2 3350   1.975   2.280   1.681  0.0370  0.4066  0.4393
    1SOL    HW3 3351   1.989   2.199   1.555  1.3834  0.4358  0.5561
    1SOL    MW4 3352   1.982   2.276   1.595  0.3301  0.3996  0.4617
    1SOL     OW 3353   1.776   2.444   1.474 -0.1131  0.2029  0.1324
    1SOL    HW2 3354   1.845   2.392   1.514  0.0556  0.2562 -0.0874
    1SOL    HW3 3355   1.779   2.420   1.381 -1.6448 -1.2490  0.4243
    1SOL    MW4 3356   1.785   2.434   1.467 -0.2930  0.0184  0.1419
    1SOL     OW 3357   1.775   2.693   1.605  0.0703  0.0511  0.1592
    1SOL    HW2 3358   1.864   2.724   1.588 -0.0570  0.4322  0.1669
    1SOL    HW3 3359   1.770   2.608   1.562 -0.4686  1.3122 -2.4176
    1SOL    MW4 3360   1.786   2.686   1.597 -0.0176  0.2677 -0.1799
    1SOL     OW 3361   2.000   2.807   1.505 -0.0424  0.2673 -0.2688
    1SOL    HW2 3362   1.994   2.902   1.515  1.6732  0.2096  1.5284
    1SOL    HW3 3363   2.026   2.794   1.414 -1.7261  1.4381 -0.9473
    1SOL    MW4 3364   2.002   2.818   1.494 -0.0381  0.4141 -0.1211
    1SOL     OW 3365   2.019   3.077   1.572 -0.0920  0.4617 -0.1216
    1SOL    HW2 3366   2.010   3.068   1.667  0.7486  1.1120  0.0237
    1SOL    HW3 3367   2.105   3.117   1.560  0.2154 -0.5237 -1.2097
    1SOL    MW4 3368   2.029   3.081   1.583  0.0591  0.4175 -0.2460
    1SOL     OW 3369   1.773   3.189   1.471  0.8195  0.5085 -0.1134
    1SOL    HW2 3370   1.758   3.271   1.518 -0.6387  0.3127 -0.2221
    1SOL    HW3 3371   1.862   3.164   1.496 -0.0637  0.1860  2.8811
    1SOL    MW4 3372   1.783   3.197   1.481  0.5107  0.4399  0.2675
    1SOL     OW 3373   1.790   3.446   1.598 -0.0729 -0.2669 -0.0881
    1SOL    HW2 3374   1.816   3.468   1.687  1.5880 -0.3770 -0.5299
    1SOL    HW3 3375   1.718   3.506   1.579  0.1980  0.4122  0.9834
    1SOL    MW4 3376   1.784   3.457   1.607  0.1820 -0.1917 -0.0050
    1SOL     OW 3377   1.995   3.624   1.510  0.9810 -0.1288 -1.1051
    1SOL    HW2 3378   2.073   3.578   1.542 -0.0351  0.6589  2.8260
    1SOL    HW3 3379   1.921   3.570   1.538 -0.0446  1.6188 -0.3146
    1SOL    MW4 3380   1.996   3.611   1.518  0.7116  0.2058 -0.4822
    1SOL     OW 3381   2.014   3.872   1.633 -0.0871  0.0862 -0.2823
    1SOL    HW2 3382   2.017   3.854   1.727  2.2688  1.5841 -0.0261
    1SOL    HW3 3383   2.019   3.785   1.592 -2.2610 -0.6494  0.9454
    1SOL    MW4 3384   2.015   3.858   1.640 -0.0629  0.1869 -0.0865
    1SOL     OW 3385   1.797   3.991   1.535  0.4240 -0.3590 -0.3565
    1SOL    HW2 3386   1.874   3.947   1.570  0.4192 -0.0729  0.0097
    1SOL    HW3 3387   1.727   3.926   1.543  0.4989 -0.4163 -0.1547
    1SOL    MW4 3388   1.798   3.976   1.541  0.4332 -0.3285 -0.2815
    1SOL     OW 3389   1.793   4.259   1.635 -0.1963 -0.4967 -0.0587
    1SOL    HW2 3390   1.858   4.301   1.579  0.1725 -0.4164  0.4363
    1SOL    HW3 3391   1.785   4.171   1.600 -1.1487  0.0486 -1.2550
    1SOL    MW4 3392   1.800   4.253   1.623 -0.2733 -0.4139 -0.1513
    1SOL     OW 3393   1.999   4.378   1.493 -0.1647 -0.0060  0.4813
    1SOL    HW2 3394   2.082   4.352   1.533 -0.2040  0.4121  0.8321
    1SOL    HW3 3395   1.994   4.472   1.506 -0.3957  0.0668 -0.1073
    1SOL    MW4 3396   2.010   4.387   1.500 -0.2000  0.0587  0.4500
    1SOL     OW 3397   2.495   4.645   1.614  0.2596 -0.8257 -0.3818
    1SOL    HW2 3398   2.501   4.669   1.706  0.5549  0.6873 -0.7811
    1SOL    HW3 3399   2.407   4.673   1.588  0.5849 -0.2358 -0.8433
    1SOL    MW4 3400   2.484   4.652   1.623  0.3417 -0.5482 -0.4954
    1SOL     OW 3401   2.259   0.084   1.492  0.4776 -0.4921  0.8403
    1SOL    HW2 3402   2.179   0.044   1.525 -0.6771  0.6791 -0.4785
    1SOL    HW3 3403   2.253   0.076   1.397  1.0185  1.2436  0.6350
    1SOL    MW4 3404   2.248   0.078   1.484  0.3965 -0.1085  0.6392
    1SOL     OW 3405   2.242   0.348   1.543 -0.0784 -0.2421 -0.2453
    1SOL    HW2 3406   2.247   0.345   1.639 -1.0002 -1.3192 -0.2105
    1SOL    HW3 3407   2.248   0.256   1.516 -0.1963  0.0246 -1.1935
    1SOL    MW4 3408   2.243   0.335   1.552 -0.2155 -0.3491 -0.3657
    1SOL     OW 3409   2.474   0.531   1.477  0.2535  0.4748  0.3931
    1SOL    HW2 3410   2.546   0.479   1.511  1.0302  0.6436 -0.9533
    1SOL    HW3 3411   2.396   0.480   1.498  0.8697 -0.3701  0.6600
    1SOL    MW4 3412   2.473   0.517   1.484  0.4375  0.3855  0.2507
    1SOL     OW 3413   2.496   0.754   1.617  0.1773 -0.0711 -0.2884
    1SOL    HW2 3414   2.434   0.811   1.572  1.4826  0.4280 -1.4633
    1SOL    HW3 3415   2.492   0.671   1.568  0.2841 -0.1071 -0.2362
    1SOL    MW4 3416   2.487   0.750   1.605  0.3638 -0.0100 -0.4367
    1SOL     OW 3417   2.280   0.879   1.499 -0.2465 -0.0095  0.0285
    1SOL    HW2 3418   2.258   0.966   1.534 -2.3404 -0.2735 -0.5454
    1SOL    HW3 3419   2.280   0.891   1.404 -0.4990 -0.6340 -0.0500
    1SOL    MW4 3420   2.277   0.892   1.491 -0.5562 -0.1267 -0.0576
    1SOL     OW 3421   2.211   1.136   1.617 -0.3044 -0.4564  0.1201
    1SOL    HW2 3422   2.218   1.130   1.712  1.5636  0.0602  0.0268
    1SOL    HW3 3423   2.137   1.196   1.602  1.1486  1.6695  1.2768
    1SOL    MW4 3424   2.202   1.143   1.627  0.1338 -0.1076  0.2604
    1SOL     OW 3425   2.447   1.240   1.545  0.5152 -0.3306  0.4061
    1SOL    HW2 3426   2.362   1.213   1.577 -0.1229  0.2033 -0.8097
    1SOL    HW3 3427   2.442   1.231   1.450  1.7172 -0.0355  0.2967
    1SOL    MW4 3428   2.435   1.235   1.537  0.5896 -0.2213  0.2313
    1SOL     OW 3429   2.450   1.525   1.588 -0.2664  0.3100 -0.2928
    1SOL    HW2 3430   2.527   1.556   1.540 -0.1703  0.8170  0.1925
    1SOL    HW3 3431   2.440   1.434   1.560  0.4922  0.2526 -0.3857
    1SOL    MW4 3432   2.459   1.517   1.578 -0.1535  0.3693 -0.2410
    1SOL     OW 3433   2.238   1.686   1.484 -0.1584  0.1139 -0.0821
    1SOL    HW2 3434   2.305   1.630   1.522 -0.3541  0.0304  0.1358
    1SOL    HW3 3435   2.260   1.690   1.391  1.5447  1.9916  0.3678
    1SOL    MW4 3436   2.250   1.679   1.477  0.0403  0.3506  0.0060
    1SOL     OW 3437   2.215   1.933   1.586  0.2747  0.0564  0.0208
    1SOL    HW2 3438   2.223   1.927   1.682 -0.1546 -0.3768  0.0303
    1SOL    HW3 3439   2.226   1.842   1.556  0.9289  0.2628 -0.3838
    1SOL    MW4 3440   2.218   1.920   1.595  0.3042  0.0263 -0.0315
    1SOL     OW 3441   2.441   2.050   1.476 -0.3960  0.8903  0.3112
    1SOL    HW2 3442   2.361   2.009   1.508 -0.7568  0.6176 -0.9172
    1SOL    HW3 3443   2.446   2.025   1.384  0.6202  1.6623  0.1426
    1SOL    MW4 3444   2.431   2.042   1.468 -0.3095  0.9561  0.1270
    1SOL     OW 3445   2.478   2.284   1.600  0.3404  0.4429 -0.1922
    1SOL    HW2 3446   2.485   2.273   1.695 -0.7714  0.5405 -0.0944
    1SOL    HW3 3447   2.476   2.195   1.566 -1.4940  0.3680  0.0558
    1SOL    MW4 3448   2.479   2.271   1.608 -0.0482  0.4458 -0.1467
    1SOL     OW 3449   2.234   2.407   1.495 -0.7489  0.4598 -0.5226
    1SOL    HW2 3450   2.314   2.360   1.518 -0.8486 -0.7269 -2.4703
    1SOL    HW3 3451   2.167   2.367   1.550  0.0058  1.5239  1.1837
    1SOL    MW4 3452   2.236   2.395   1.505 -0.6623  0.4437 -0.5543
    1SOL     OW 3453   2.234   2.668   1.575  0.0960 -0.1399 -0.1470
    1SOL    HW2 3454   2.216   2.579   1.544  0.6235 -0.0393 -0.7555
    1SOL    HW3 3455   2.155   2.717   1.554 -0.7862 -0.8057  1.5478
    1SOL    MW4 3456   2.221   2.662   1.568  0.0494 -0.2141 -0.0037
    1SOL     OW 3457   2.441   2.844   1.520 -0.1525 -0.5115 -0.4140
    1SOL    HW2 3458   2.370   2.787   1.550 -0.0958  0.3109  1.3436
    1SOL    HW3 3459   2.521   2.797   1.543 -0.0886  0.7289  2.0562
    1SOL    MW4 3460   2.442   2.830   1.527 -0.1364 -0.2396  0.1438
    1SOL     OW 3461   2.495   3.117   1.592 -0.2612 -0.5102  0.1717
    1SOL    HW2 3462   2.577   3.162   1.571 -0.0956 -0.4702  0.8828
    1SOL    HW3 3463   2.504   3.030   1.553 -0.5995  0.0770 -1.2538
    1SOL    MW4 3464   2.507   3.112   1.584 -0.2842 -0.4275  0.0776
    1SOL     OW 3465   2.253   3.199   1.495 -0.1171  0.4167 -0.3541
    1SOL    HW2 3466   2.243   3.290   1.525  0.0088  0.3533 -0.1210
    1SOL    HW3 3467   2.335   3.170   1.534 -0.8609 -0.2654  0.7212
    1SOL    MW4 3468   2.263   3.207   1.504 -0.1988  0.3183 -0.1814
    1SOL     OW 3469   2.216   3.464   1.576 -0.4812  0.0839  0.1116
    1SOL    HW2 3470   2.227   3.486   1.668  0.3202 -0.3549  0.1216
    1SOL    HW3 3471   2.283   3.515   1.530 -0.9148  0.3482 -0.2363
    1SOL    MW4 3472   2.226   3.474   1.582 -0.4325  0.0608  0.0671
    1SOL     OW 3473   2.417   3.616   1.503  0.1185 -0.1466 -0.1813
    1SOL    HW2 3474   2.481   3.559   1.546  0.1206 -0.0537 -0.0636
    1SOL    HW3 3475   2.420   3.698   1.552  0.3070  0.0488 -0.5207
    1SOL    MW4 3476   2.426   3.619   1.515  0.1438 -0.1085 -0.2108
    1SOL     OW 3477   2.453   3.858   1.632 -0.2398  0.6930  0.2230
    1SOL    HW2 3478   2.489   3.852   1.721 -0.5339 -0.5268  0.2736
    1SOL    HW3 3479   2.523   3.896   1.580  0.4267  0.1516  0.7184
    1SOL    MW4 3480   2.467   3.862   1.637 -0.1907  0.4606  0.2950
    1SOL     OW 3481   2.237   4.018   1.552 -0.2749  0.2139  0.4258
    1SOL    HW2 3482   2.161   3.973   1.589 -0.6619  3.1205  3.2906
    1SOL    HW3 3483   2.313   3.977   1.595 -0.2759 -1.0773 -0.7282
    1SOL    MW4 3484   2.237   4.007   1.562 -0.3259  0.4263  0.6515
    1SOL     OW 3485   2.245   4.283   1.604  0.2409  0.1308 -0.4312
    1SOL    HW2 3486   2.333   4.297   1.567  1.2546  0.2996  1.9197
    1SOL    HW3 3487   2.230   4.189   1.596  0.4197  0.1821 -1.3507
    1SOL    MW4 3488   2.255   4.273   1.598  0.3979  0.1597 -0.2424
    1SOL     OW 3489   2.477   4.383   1.516 -0.0547  0.0296 -0.5574
    1SOL    HW2 3490   2.487   4.474   1.547  0.6911 -0.9081  2.1079
    1SOL    HW3 3491   2.481   4.390   1.421  2.0511  2.5813 -0.3505
    1SOL    MW4 3492   2.479   4.396   1.508  0.3216  0.2427 -0.1785
    1SOL     OW 3493   2.898   4.642   1.560 -0.3059 -0.7003 -0.0785
    1SOL    HW2 3494   2.914   4.673   1.650  1.0095 -0.7130 -0.2976
    1SOL    HW3 3495   2.814   4.680   1.536  0.2522  0.9128  0.4585
    1SOL    MW4 3496   2.889   4.651   1.569 -0.0587 -0.4892 -0.0366
    1SOL     OW 3497   2.662   0.136   1.460 -0.2609  0.1751 -0.4148
    1SOL    HW2 3498   2.590   0.084   1.495 -0.4728  0.1641 -0.8524
    1SOL    HW3 3499   2.663   0.216   1.513 -1.4188  0.7428 -1.2056
    1SOL    MW4 3500   2.653   0.140   1.471 -0.4418  0.2486 -0.5769
    1SOL     OW 3501   2.690   0.395   1.573  0.0787  0.1500 -0.3702
    1SOL    HW2 3502   2.703   0.386   1.668  1.0204 -0.1773 -0.5300
    1SOL    HW3 3503   2.773   0.430   1.541 -0.1065 -0.1168 -1.1397
    1SOL    MW4 3504   2.702   0.399   1.581  0.1783  0.0716 -0.4928
    1SOL     OW 3505   2.972   0.472   1.471 -0.5746 -0.2711  0.2178
    1SOL    HW2 3506   2.962   0.564   1.494  0.3995  0.0020 -0.4368
    1SOL    HW3 3507   2.966   0.470   1.376  0.3765 -0.7570  0.1629
    1SOL    MW4 3508   2.970   0.484   1.462 -0.3204 -0.2992  0.1242
    1SOL     OW 3509   2.957   0.736   1.592 -0.0220  0.2014 -0.0678
    1SOL    HW2 3510   2.957   0.734   1.687  2.0779 -1.5871 -0.0768
    1SOL    HW3 3511   2.880   0.789   1.569  0.2477  1.8369  2.6094
    1SOL    MW4 3512   2.946   0.743   1.601  0.2906  0.1812  0.2842
    1SOL     OW 3513   2.723   0.863   1.483  0.0586  0.1895 -0.3888
    1SOL    HW2 3514   2.650   0.820   1.529  1.4221 -1.2999  0.4070
    1SOL    HW3 3515   2.702   0.853   1.390 -0.8031 -0.1114 -0.1713
    1SOL    MW4 3516   2.710   0.856   1.477  0.1247 -0.0466 -0.2551
    1SOL     OW 3517   2.700   1.131   1.540 -0.1712  0.1832  0.0406
    1SOL    HW2 3518   2.693   1.039   1.514  0.0394  0.3221 -0.5271
    1SOL    HW3 3519   2.610   1.158   1.558 -0.0048 -0.7208  2.3125
    1SOL    MW4 3520   2.687   1.122   1.539 -0.1211  0.0821  0.2656
    1SOL     OW 3521   2.923   1.281   1.476  0.3384  0.2653  0.1430
    1SOL    HW2 3522   3.000   1.239   1.515  0.8907  1.3828  0.2979
    1SOL    HW3 3523   2.851   1.222   1.494  1.4037 -1.5044 -1.2348
    1SOL    MW4 3524   2.924   1.268   1.484  0.5519  0.1793 -0.0184
    1SOL     OW 3525   2.924   1.533   1.594  0.2105 -0.2037 -0.4896
    1SOL    HW2 3526   2.841   1.570   1.562 -0.5418 -1.2597  0.1881
    1SOL    HW3 3527   2.917   1.440   1.575  0.5792 -0.5439  0.9547
    1SOL    MW4 3528   2.912   1.526   1.588  0.1597 -0.3879 -0.2096
    1SOL     OW 3529   2.676   1.659   1.500  0.2023  0.0081  0.4383
    1SOL    HW2 3530   2.683   1.750   1.528  1.4340 -0.2130  0.8494
    1SOL    HW3 3531   2.685   1.663   1.405 -0.1143  0.3448  0.4192
    1SOL    MW4 3532   2.678   1.671   1.491  0.3231  0.0232  0.4901
    1SOL     OW 3533   2.680   1.936   1.591 -0.1063 -0.2462 -0.2585
    1SOL    HW2 3534   2.676   1.921   1.685  0.8873 -0.7184 -0.2820
    1SOL    HW3 3535   2.591   1.957   1.566  0.1621  3.1559  1.3431
    1SOL    MW4 3536   2.668   1.937   1.600  0.0601  0.1402 -0.0503
    1SOL     OW 3537   2.915   2.071   1.474  0.4436 -0.1618  0.2335
    1SOL    HW2 3538   2.913   2.162   1.505 -1.6610  0.1494 -0.7120
    1SOL    HW3 3539   2.825   2.040   1.484  0.3413 -0.9951 -2.6798
    1SOL    MW4 3540   2.903   2.079   1.479  0.1523 -0.2308 -0.2756
    1SOL     OW 3541   2.933   2.333   1.559 -0.2927  0.0207 -0.1097
    1SOL    HW2 3542   2.843   2.360   1.545 -0.5505 -0.7518  0.0527
    1SOL    HW3 3543   2.940   2.318   1.653  0.3283  1.2100  0.0461
    1SOL    MW4 3544   2.922   2.335   1.569 -0.2449  0.0756 -0.0678
    1SOL     OW 3545   2.669   2.429   1.470  0.0141  0.0378 -0.0475
    1SOL    HW2 3546   2.668   2.519   1.503  0.3210 -0.3263  0.9784
    1SOL    HW3 3547   2.600   2.385   1.518  0.2126 -0.4090 -0.1677
    1SOL    MW4 3548   2.660   2.435   1.481  0.0808 -0.0691  0.0719
    1SOL     OW 3549   2.670   2.689   1.574  0.8393  0.4743  0.5122
    1SOL    HW2 3550   2.750   2.732   1.544  1.7145 -0.6864  1.1881
    1SOL    HW3 3551   2.680   2.683   1.669 -0.6161  1.4527  0.7502
    1SOL    MW4 3552   2.682   2.694   1.582  0.7627  0.4501  0.6326
    1SOL     OW 3553   2.907   2.842   1.515  0.1575 -0.2682 -0.8389
    1SOL    HW2 3554   2.997   2.809   1.523 -0.2413 -1.1345  0.1199
    1SOL    HW3 3555   2.913   2.933   1.544  0.4801 -0.7040  0.4856
    1SOL    MW4 3556   2.920   2.850   1.519  0.1473 -0.4399 -0.5376
    1SOL     OW 3557   2.932   3.109   1.590 -0.1548 -0.0480  0.5582
    1SOL    HW2 3558   2.939   3.112   1.686  0.1513  0.2768  0.5266
    1SOL    HW3 3559   3.017   3.138   1.559 -0.9572  1.9800  0.1770
    1SOL    MW4 3560   2.944   3.113   1.599 -0.2203  0.2625  0.5038
    1SOL     OW 3561   2.714   3.248   1.501  0.3390 -0.3382  0.8575
    1SOL    HW2 3562   2.788   3.200   1.538  0.3664 -0.5058  0.5843
    1SOL    HW3 3563   2.708   3.219   1.410 -0.2353 -0.5412  0.9534
    1SOL    MW4 3564   2.723   3.238   1.494  0.2670 -0.3872  0.8342
    1SOL     OW 3565   2.655   3.490   1.633  0.6966  0.2857 -0.1568
    1SOL    HW2 3566   2.680   3.468   1.723 -0.8227  1.1834  0.5153
    1SOL    HW3 3567   2.665   3.408   1.584  2.7111  0.0842  0.5540
    1SOL    MW4 3568   2.660   3.476   1.639  0.7620  0.3779  0.0257
    1SOL     OW 3569   2.896   3.568   1.531 -0.7224  0.1248 -0.2471
    1SOL    HW2 3570   2.819   3.543   1.582 -0.3031 -0.1367  0.2645
    1SOL    HW3 3571   2.872   3.549   1.440 -0.9999 -0.6242 -0.0220
    1SOL    MW4 3572   2.882   3.562   1.526 -0.7036 -0.0081 -0.1498
    1SOL     OW 3573   2.891   3.841   1.580  0.5585  0.5216 -0.2479
    1SOL    HW2 3574   2.816   3.875   1.531  0.7384  0.2261 -0.7372
    1SOL    HW3 3575   2.887   3.746   1.568  0.7125  0.4658  0.1536
    1SOL    MW4 3576   2.881   3.833   1.572  0.6027  0.4752 -0.2595
    1SOL     OW 3577   2.670   3.977   1.490 -0.1565 -0.2117  0.7485
    1SOL    HW2 3578   2.693   4.062   1.529  0.4264  0.0324 -0.1023
    1SOL    HW3 3579   2.705   3.982   1.401  1.3895 -2.0012  1.2303
    1SOL    MW4 3580   2.678   3.989   1.483  0.1247 -0.4156  0.6998
    1SOL     OW 3581   2.716   4.233   1.598 -0.0821  0.2501 -0.3577
    1SOL    HW2 3582   2.788   4.289   1.568 -0.8994  0.8687 -1.1701
    1SOL    HW3 3583   2.637   4.287   1.587 -0.6308 -0.2742  0.9138
    1SOL    MW4 3584   2.715   4.248   1.592 -0.2623  0.2623 -0.2971
    1SOL     OW 3585   2.925   4.372   1.493 -0.8004  0.1144 -0.1332
    1SOL    HW2 3586   2.936   4.463   1.519  1.9980 -0.1991 -0.0582
    1SOL    HW3 3587   2.914   4.375   1.398 -0.6446  0.5351 -0.1387
    1SOL    MW4 3588   2.925   4.384   1.484 -0.4106  0.1283 -0.1240
    1SOL     OW 3589   3.362   4.595   1.619  0.6527 -0.9838 -0.4541
    1SOL    HW2 3590   3.441   4.639   1.588  0.9590 -1.6578 -0.6522
    1SOL    HW3 3591   3.368   4.507   1.582 -0.8020 -0.6667 -1.4839
    1SOL    MW4 3592   3.374   4.589   1.610  0.5014 -1.0304 -0.6161
    1SOL     OW 3593   3.156   0.074   1.488  0.0905 -0.1566 -0.2711
    1SOL    HW2 3594   3.227   0.040   1.541 -0.3893  0.1344  0.5687
    1SOL    HW3 3595   3.083   0.014   1.503 -0.6449  1.0159  0.9375
    1SOL    MW4 3596   3.156   0.062   1.497 -0.0699  0.0365 -0.0008
    1SOL     OW 3597   3.171   0.319   1.590  0.3008  0.6383 -0.0925
    1SOL    HW2 3598   3.158   0.231   1.556 -0.3399  0.8199 -0.3114
    1SOL    HW3 3599   3.103   0.372   1.548  1.8111  1.6151 -1.3642
    1SOL    MW4 3600   3.161   0.315   1.580  0.4158  0.7912 -0.2892
    1SOL     OW 3601   3.379   0.483   1.524  0.4714 -0.1824 -0.0656
    1SOL    HW2 3602   3.295   0.443   1.549 -0.1849  1.4008  0.3541
    1SOL    HW3 3603   3.379   0.480   1.429  0.1812 -0.6830 -0.0543
    1SOL    MW4 3604   3.368   0.477   1.515  0.3464 -0.0395 -0.0087
    1SOL     OW 3605   3.425   0.758   1.579 -0.4086 -0.4824  0.2499
    1SOL    HW2 3606   3.402   0.776   1.670  0.9604  0.8755  0.3478
    1SOL    HW3 3607   3.406   0.665   1.567 -2.6919 -0.1649  1.2764
    1SOL    MW4 3608   3.420   0.748   1.589 -0.5288 -0.2614  0.3984
    1SOL     OW 3609   3.168   0.894   1.514 -0.0504  0.4211  0.1953
    1SOL    HW2 3610   3.247   0.845   1.537  0.4519  0.3030 -1.7174
    1SOL    HW3 3611   3.096   0.834   1.534  0.5047 -0.6768 -0.9911
    1SOL    MW4 3612   3.169   0.879   1.520  0.0889  0.2606 -0.2135
    1SOL     OW 3613   3.157   1.153   1.569  0.2879  0.1356 -0.1580
    1SOL    HW2 3614   3.151   1.144   1.664 -1.2303  0.7868 -0.1723
    1SOL    HW3 3615   3.156   1.063   1.536  0.3961 -0.0799  0.4322
    1SOL    MW4 3616   3.156   1.140   1.577  0.1020  0.1930 -0.0820
    1SOL     OW 3617   3.392   1.268   1.456 -0.6865  0.0881 -0.2044
    1SOL    HW2 3618   3.462   1.218   1.498  0.3993  1.0819 -0.7891
    1SOL    HW3 3619   3.312   1.240   1.500  0.3006  0.3517  1.8226
    1SOL    MW4 3620   3.391   1.258   1.467 -0.4132  0.2539 -0.0141
    1SOL     OW 3621   3.373   1.525   1.580  0.1130  0.0960  0.8554
    1SOL    HW2 3622   3.397   1.525   1.673 -0.5761 -0.1114  1.0368
    1SOL    HW3 3623   3.383   1.434   1.553 -1.2325 -0.1493  1.1398
    1SOL    MW4 3624   3.377   1.513   1.589 -0.1557  0.0362  0.9167
    1SOL     OW 3625   3.148   1.661   1.455 -0.0381 -0.1833  0.1480
    1SOL    HW2 3626   3.208   1.639   1.527  0.5757  0.3524 -0.1975
    1SOL    HW3 3627   3.064   1.621   1.481  0.4880 -1.0169  0.5841
    1SOL    MW4 3628   3.145   1.653   1.468  0.1123 -0.2226  0.1600
    1SOL     OW 3629   3.143   1.914   1.559 -0.2492 -0.2220  0.5439
    1SOL    HW2 3630   3.137   1.830   1.514 -0.1561 -0.3672  0.8001
    1SOL    HW3 3631   3.057   1.954   1.548 -0.0009  0.0679 -0.3902
    1SOL    MW4 3632   3.131   1.909   1.552 -0.2043 -0.2030  0.4544
    1SOL     OW 3633   3.398   2.016   1.453 -0.4427 -0.3963  0.3147
    1SOL    HW2 3634   3.395   2.029   1.358 -2.0483  0.9142  0.5138
    1SOL    HW3 3635   3.308   1.992   1.477 -0.1969 -0.1055  1.5669
    1SOL    MW4 3636   3.386   2.015   1.444 -0.6220 -0.1853  0.5063
    1SOL     OW 3637   3.354   2.278   1.550  0.2687  0.0229  0.1943
    1SOL    HW2 3638   3.429   2.337   1.540  1.2805 -1.2369  0.1724
    1SOL    HW3 3639   3.380   2.199   1.502 -1.0394 -0.4528  0.2681
    1SOL    MW4 3640   3.367   2.276   1.542  0.2296 -0.2060  0.2011
    1SOL     OW 3641   3.156   2.445   1.437  0.1704 -0.0882  0.4300
    1SOL    HW2 3642   3.075   2.415   1.478 -0.8871 -0.5632 -1.9369
    1SOL    HW3 3643   3.224   2.388   1.474 -0.8759 -1.0770  0.8687
    1SOL    MW4 3644   3.154   2.433   1.448 -0.1070 -0.2811  0.1756
    1SOL     OW 3645   3.144   2.709   1.587 -0.3778 -0.6296 -0.3598
    1SOL    HW2 3646   3.227   2.746   1.556  0.2768 -1.3055  0.5700
    1SOL    HW3 3647   3.136   2.627   1.539 -0.7571 -0.3333 -0.8095
    1SOL    MW4 3648   3.154   2.703   1.576 -0.3417 -0.6797 -0.2962
    1SOL     OW 3649   3.370   2.814   1.478 -0.5187  0.0858 -0.7692
    1SOL    HW2 3650   3.380   2.906   1.504  0.9320 -0.3769  0.3803
    1SOL    HW3 3651   3.372   2.816   1.382  1.7428  1.0501 -0.7423
    1SOL    MW4 3652   3.372   2.826   1.468 -0.0288  0.1519 -0.6139
    1SOL     OW 3653   3.392   3.088   1.562 -0.4312  0.5228 -0.2448
    1SOL    HW2 3654   3.380   3.100   1.656 -1.3066  0.5992 -0.3637
    1SOL    HW3 3655   3.473   3.134   1.542  0.4681 -0.6316  0.7045
    1SOL    MW4 3656   3.401   3.096   1.572 -0.4282  0.3805 -0.1353
    1SOL     OW 3657   3.164   3.231   1.488 -0.0326  0.0384  0.4124
    1SOL    HW2 3658   3.248   3.190   1.511 -0.7820 -1.2955  0.8171
    1SOL    HW3 3659   3.151   3.209   1.396 -0.7904 -1.2709  0.8280
    1SOL    MW4 3660   3.174   3.223   1.479 -0.2315 -0.3102  0.5206
    1SOL     OW 3661   3.151   3.460   1.625  0.3914 -0.1151 -0.1679
    1SOL    HW2 3662   3.150   3.374   1.582 -1.2129 -0.1823 -0.0478
    1SOL    HW3 3663   3.066   3.499   1.602  0.2177  0.5582  1.5057
    1SOL    MW4 3664   3.140   3.453   1.617  0.1569 -0.0350  0.0688
    1SOL     OW 3665   3.576   4.231   1.115  0.0814  0.2378  0.5425
    1SOL    HW2 3666   3.652   4.283   1.140  1.7269 -0.8006 -2.0938
    1SOL    HW3 3667   3.582   4.152   1.168  0.4909  0.4141  0.7568
    1SOL    MW4 3668   3.587   4.228   1.125  0.3524  0.1240  0.2229
    1SOL     OW 3669   3.337   3.834   1.621 -0.4258  0.4590 -0.0254
    1SOL    HW2 3670   3.260   3.884   1.594 -0.2968  0.6028 -0.1252
    1SOL    HW3 3671   3.334   3.755   1.568 -0.2823  0.6510 -0.3218
    1SOL    MW4 3672   3.327   3.830   1.611 -0.3896  0.5033 -0.0776
    1SOL     OW 3673   3.130   3.963   1.484  0.1720  0.1681 -0.4822
    1SOL    HW2 3674   3.136   4.056   1.506  1.0303 -0.4628  2.0486
    1SOL    HW3 3675   3.047   3.935   1.523  0.9225 -0.5918  0.5832
    1SOL    MW4 3676   3.120   3.972   1.492  0.3843 -0.0155 -0.0077
    1SOL     OW 3677   3.125   4.217   1.589 -0.3128  0.2362  0.0873
    1SOL    HW2 3678   3.135   4.256   1.675  0.3920 -1.3445  0.7437
    1SOL    HW3 3679   3.071   4.280   1.540 -0.7342  1.1375  1.6677
    1SOL    MW4 3680   3.119   4.231   1.594 -0.2754  0.1459  0.3823
    1SOL     OW 3681   3.369   4.349   1.491  0.1337 -0.2386 -0.3962
    1SOL    HW2 3682   3.291   4.306   1.528  0.1426  0.8050  0.8758
    1SOL    HW3 3683   3.354   4.349   1.397 -1.4704  0.0689 -0.1514
    1SOL    MW4 3684   3.357   4.343   1.483 -0.0770 -0.0606 -0.1961
    1SOL     OW 3685   3.815   4.631   1.633 -0.2830 -0.6460 -0.1744
    1SOL    HW2 3686   3.811   4.647   1.727 -3.1987  0.9144 -0.4998
    1SOL    HW3 3687   3.886   4.687   1.601  0.1477 -0.5401  0.9493
    1SOL    MW4 3688   3.824   4.640   1.641 -0.6113 -0.4258 -0.0691
    1SOL     OW 3689   3.580   0.068   1.535 -0.0228  0.0620 -0.5740
    1SOL    HW2 3690   3.659   0.022   1.562 -0.6666 -1.4674 -1.2271
    1SOL    HW3 3691   3.582   0.064   1.439 -0.0099  1.5517 -0.6446
    1SOL    MW4 3692   3.591   0.061   1.526 -0.1059  0.0568 -0.6695
    1SOL     OW 3693   3.594   0.341   1.613 -0.2721  0.2435 -0.3823
    1SOL    HW2 3694   3.590   0.254   1.573  1.0001  0.2264 -0.4924
    1SOL    HW3 3695   3.510   0.382   1.591 -1.3601 -1.3909  0.6815
    1SOL    MW4 3696   3.582   0.335   1.605 -0.2477  0.0256 -0.2565
    1SOL     OW 3697   3.820   0.491   1.532 -0.1335  0.1705 -0.1105
    1SOL    HW2 3698   3.741   0.449   1.567  0.0140  0.7438  0.9186
    1SOL    HW3 3699   3.804   0.498   1.438 -1.8489  1.4292  0.2556
    1SOL    MW4 3700   3.808   0.486   1.524 -0.3405  0.4123  0.0736
    1SOL     OW 3701   3.851   0.747   1.642  0.2599  0.2311  0.5823
    1SOL    HW2 3702   3.791   0.800   1.590  0.4803 -0.6325 -0.5567
    1SOL    HW3 3703   3.840   0.658   1.609  0.1686 -0.3976  2.2253
    1SOL    MW4 3704   3.841   0.743   1.631  0.2770  0.0343  0.6490
    1SOL     OW 3705   3.653   0.882   1.499 -0.1854  0.3125  0.1489
    1SOL    HW2 3706   3.574   0.841   1.534 -0.0846  1.4519  1.7588
    1SOL    HW3 3707   3.641   0.882   1.404 -0.3020 -3.1896  0.1018
    1SOL    MW4 3708   3.641   0.877   1.491 -0.1874  0.0008  0.3551
    1SOL     OW 3709   3.621   1.152   1.578 -0.1552 -0.0236  0.2334
    1SOL    HW2 3710   3.685   1.205   1.532  0.2396  0.1046  0.9304
    1SOL    HW3 3711   3.640   1.062   1.550 -0.4552  0.1351 -0.4968
    1SOL    MW4 3712   3.632   1.147   1.568 -0.1423  0.0143  0.2292
    1SOL     OW 3713   3.829   1.288   1.462  0.4304 -0.2153 -0.1728
    1SOL    HW2 3714   3.902   1.239   1.500  0.8564 -0.5659 -1.4191
    1SOL    HW3 3715   3.837   1.376   1.497  0.1978 -0.7895  1.3743
    1SOL    MW4 3716   3.840   1.293   1.472  0.4561 -0.3372 -0.1330
    1SOL     OW 3717   3.846   1.536   1.576 -0.1658  0.2979  0.0433
    1SOL    HW2 3718   3.842   1.525   1.671 -0.9436 -0.4310 -0.0699
    1SOL    HW3 3719   3.757   1.564   1.551 -0.0332  0.2487 -0.4934
    1SOL    MW4 3720   3.833   1.538   1.585 -0.2513  0.1953 -0.0423
    1SOL     OW 3721   3.607   1.644   1.495 -0.1071  0.0011  0.2843
    1SOL    HW2 3722   3.531   1.598   1.530 -0.2998  0.1451  0.0551
    1SOL    HW3 3723   3.591   1.648   1.401  1.0787 -1.6714 -0.0322
    1SOL    MW4 3724   3.595   1.638   1.487  0.0236 -0.2006  0.2122
    1SOL     OW 3725   3.594   1.903   1.588 -0.1579 -0.0983  0.3368
    1SOL    HW2 3726   3.600   1.817   1.545 -0.7457  0.1708 -0.2916
    1SOL    HW3 3727   3.519   1.946   1.546 -0.5892  0.2731  1.4588
    1SOL    MW4 3728   3.585   1.897   1.577 -0.2921 -0.0138  0.4020
    1SOL     OW 3729   3.786   2.070   1.455 -0.2369  0.0968  0.4429
    1SOL    HW2 3730   3.802   2.150   1.505 -0.8334  0.1758  0.5093
    1SOL    HW3 3731   3.721   2.022   1.507 -1.4675  0.5543 -0.6426
    1SOL    MW4 3732   3.780   2.074   1.468 -0.4780  0.1676  0.3083
    1SOL     OW 3733   3.826   2.310   1.621  0.0681 -0.1198  0.0347
    1SOL    HW2 3734   3.846   2.335   1.711  0.1544  0.8686 -0.2481
    1SOL    HW3 3735   3.904   2.338   1.571  0.3925 -1.4541 -0.2124
    1SOL    MW4 3736   3.839   2.317   1.626  0.1218 -0.1655 -0.0353
    1SOL     OW 3737   3.603   2.412   1.501 -0.5532 -0.1162  0.4298
    1SOL    HW2 3738   3.592   2.506   1.516  1.6889  0.3853 -0.9172
    1SOL    HW3 3739   3.672   2.386   1.563 -0.0744 -0.5470 -0.2805
    1SOL    MW4 3740   3.611   2.421   1.511 -0.1943 -0.1068  0.1584
    1SOL     OW 3741   3.611   2.675   1.569 -0.0407  0.6549 -0.0227
    1SOL    HW2 3742   3.615   2.676   1.665 -0.4947  0.4778 -0.0017
    1SOL    HW3 3743   3.531   2.722   1.547 -1.7891 -2.2645 -0.1794
    1SOL    MW4 3744   3.601   2.681   1.579 -0.3312  0.2463 -0.0408
    1SOL     OW 3745   3.827   2.802   1.473  0.1977 -0.0622 -0.3778
    1SOL    HW2 3746   3.892   2.755   1.525 -0.5595  0.1680  0.8122
    1SOL    HW3 3747   3.743   2.779   1.513 -0.3864  0.2583 -1.3983
    1SOL    MW4 3748   3.825   2.793   1.485  0.0210  0.0107 -0.3555
    1SOL     OW 3749   3.865   3.079   1.585 -0.5321  0.0197  0.0756
    1SOL    HW2 3750   3.923   3.129   1.527 -0.1202  0.3193  0.7375
    1SOL    HW3 3751   3.849   2.997   1.538 -0.5139  0.4209 -0.6334
    1SOL    MW4 3752   3.871   3.075   1.571 -0.4754  0.1121  0.0694
    1SOL     OW 3753   3.632   3.226   1.513  0.0277 -0.2254 -0.1390
    1SOL    HW2 3754   3.710   3.177   1.537  0.7324  0.1268 -1.6904
    1SOL    HW3 3755   3.612   3.198   1.423 -0.2189  1.4891 -0.6342
    1SOL    MW4 3756   3.639   3.216   1.504  0.0880  0.0472 -0.4090
    1SOL     OW 3757   3.581   3.481   1.614 -0.0982 -0.1645  0.0982
    1SOL    HW2 3758   3.663   3.524   1.587  0.1749 -1.0132 -0.4441
    1SOL    HW3 3759   3.589   3.392   1.581 -0.7383 -0.5903  1.0715
    1SOL    MW4 3760   3.593   3.475   1.606 -0.1469 -0.3326  0.1550
    1SOL     OW 3761   3.806   3.593   1.487 -0.6026 -0.3425  0.0779
    1SOL    HW2 3762   3.887   3.553   1.517 -0.2740  0.5052  0.3340
    1SOL    HW3 3763   3.803   3.678   1.531 -1.0076  0.1574 -0.9058
    1SOL    MW4 3764   3.816   3.599   1.497 -0.6127 -0.1650 -0.0184
    1SOL     OW 3765   3.809   3.838   1.608 -0.6512  0.1327  0.1292
    1SOL    HW2 3766   3.878   3.883   1.559 -1.4209  0.6276 -0.4995
    1SOL    HW3 3767   3.729   3.887   1.588 -1.4137 -1.2269 -0.1657
    1SOL    MW4 3768   3.808   3.851   1.599 -0.8535  0.0188  0.0073
    1SOL     OW 3769   3.343   3.589   1.489  0.2947  0.0434 -0.0973
    1SOL    HW2 3770   3.269   3.541   1.526 -0.3140  0.4620 -0.7401
    1SOL    HW3 3771   3.420   3.548   1.526 -0.3204  1.2571  2.6439
    1SOL    MW4 3772   3.343   3.577   1.499  0.1330  0.2584  0.1795
    1SOL     OW 3773   3.606   4.234   1.631 -0.1512  0.2942  0.6010
    1SOL    HW2 3774   3.619   4.262   1.722 -0.6581  0.3042  0.6695
    1SOL    HW3 3775   3.523   4.273   1.605  0.3332  0.8783 -0.1008
    1SOL    MW4 3776   3.597   4.243   1.640 -0.1543  0.3724  0.5175
    1SOL     OW 3777   3.830   4.361   1.526 -0.0471  0.1139  0.4074
    1SOL    HW2 3778   3.763   4.304   1.566  0.8105  0.0912  1.8521
    1SOL    HW3 3779   3.812   4.448   1.563 -0.4325  0.4953 -0.6575
    1SOL    MW4 3780   3.819   4.365   1.536  0.0153  0.1612  0.4575
    1SOL     OW 3781   4.286   4.653   1.642  0.1623 -0.1213  0.6269
    1SOL    HW2 3782   4.289   4.643   1.737 -0.9963 -1.6524  0.5192
    1SOL    HW3 3783   4.274   4.564   1.609  0.6128  0.3856 -0.9647
    1SOL    MW4 3784   4.285   4.640   1.650  0.0691 -0.2565  0.4028
    1SOL     OW 3785   4.061   0.128   1.552 -0.0846  0.5041 -0.0525
    1SOL    HW2 3786   4.059   0.220   1.577 -0.3148  0.2611  0.8293
    1SOL    HW3 3787   4.137   0.092   1.598  0.6559  0.4979 -1.2642
    1SOL    MW4 3788   4.071   0.135   1.561 -0.0176  0.4712 -0.0960
    1SOL     OW 3789   4.071   0.391   1.653  0.1079  0.6817 -0.1395
    1SOL    HW2 3790   4.075   0.398   1.748 -0.6526 -0.9049  0.0253
    1SOL    HW3 3791   3.983   0.420   1.631 -0.1202 -0.0515 -0.2307
    1SOL    MW4 3792   4.060   0.395   1.663 -0.0224  0.3756 -0.1298
    1SOL     OW 3793   4.259   0.535   1.505 -0.1236  0.3796  0.3548
    1SOL    HW2 3794   4.185   0.490   1.545 -0.7043  0.2203 -0.8572
    1SOL    HW3 3795   4.336   0.487   1.535 -0.5918 -0.0877  0.8133
    1SOL    MW4 3796   4.259   0.522   1.514 -0.2618  0.2970  0.2555
    1SOL     OW 3797   4.309   0.768   1.633 -0.5094  0.5095  0.0899
    1SOL    HW2 3798   4.284   0.689   1.586  1.3189 -0.5664  0.8678
    1SOL    HW3 3799   4.376   0.808   1.579 -1.0840  1.2819 -0.0600
    1SOL    MW4 3800   4.314   0.763   1.620 -0.3443  0.4694  0.1727
    1SOL     OW 3801   4.060   0.887   1.541  0.0415 -1.0357  0.3038
    1SOL    HW2 3802   4.139   0.858   1.587 -0.2063 -2.2223  0.0140
    1SOL    HW3 3803   3.988   0.854   1.595 -0.2673  0.3255  0.7404
    1SOL    MW4 3804   4.061   0.879   1.554 -0.0324 -1.0127  0.3231
    1SOL     OW 3805   4.032   1.154   1.610 -0.0901  0.0874 -0.1823
    1SOL    HW2 3806   4.026   1.163   1.705 -2.6241  1.5044 -0.4267
    1SOL    HW3 3807   4.030   1.059   1.594 -0.6479 -0.1347  1.1435
    1SOL    MW4 3808   4.031   1.143   1.620 -0.4978  0.2452 -0.0396
    1SOL     OW 3809   4.254   1.282   1.492  0.1331 -0.0732  0.2874
    1SOL    HW2 3810   4.187   1.253   1.555  0.8609 -0.6578  0.8010
    1SOL    HW3 3811   4.333   1.235   1.517  0.4589 -0.2576 -1.0288
    1SOL    MW4 3812   4.256   1.272   1.504  0.2723 -0.1746  0.1814
    1SOL     OW 3813   4.275   1.537   1.589 -0.0843  0.0205 -0.1290
    1SOL    HW2 3814   4.282   1.445   1.562  0.0258 -0.0815  0.2402
    1SOL    HW3 3815   4.345   1.582   1.542  0.7748 -0.3446  0.7990
    1SOL    MW4 3816   4.285   1.531   1.579  0.0434 -0.0412  0.0422
    1SOL     OW 3817   4.060   1.673   1.490  0.0503 -0.8314  0.2584
    1SOL    HW2 3818   4.137   1.628   1.524 -0.6785 -2.1263  0.2377
    1SOL    HW3 3819   3.987   1.615   1.513 -1.0278  0.8020  1.0856
    1SOL    MW4 3820   4.061   1.660   1.498 -0.1888 -0.7867  0.3648
    1SOL     OW 3821   4.024   1.944   1.547 -0.1816 -0.0067 -0.2121
    1SOL    HW2 3822   4.033   1.855   1.515 -0.2952  0.2342 -0.9160
    1SOL    HW3 3823   3.942   1.976   1.510  0.4810  0.8130 -0.9805
    1SOL    MW4 3824   4.015   1.937   1.538 -0.1092  0.1333 -0.4063
    1SOL     OW 3825   4.270   2.045   1.484  0.3445 -0.2175  0.3388
    1SOL    HW2 3826   4.183   2.015   1.509 -0.9387  2.2328 -1.0472
    1SOL    HW3 3827   4.262   2.071   1.392  2.5103  0.1107  0.2051
    1SOL    MW4 3828   4.258   2.044   1.475  0.4611  0.1493  0.1383
    1SOL     OW 3829   4.264   2.329   1.574 -0.4776  0.4100  0.3236
    1SOL    HW2 3830   4.246   2.343   1.667 -1.4212 -0.0452  0.2219
    1SOL    HW3 3831   4.271   2.234   1.565  0.3619  0.4977  0.0642
    1SOL    MW4 3832   4.262   2.318   1.585 -0.4911  0.3614  0.2760
    1SOL     OW 3833   4.039   2.422   1.443 -0.2860 -0.1159 -0.4455
    1SOL    HW2 3834   4.030   2.502   1.494  0.2340 -0.2520 -0.1337
    1SOL    HW3 3835   4.119   2.381   1.476 -0.5328 -0.7529 -0.6103
    1SOL    MW4 3836   4.048   2.427   1.454 -0.2494 -0.2182 -0.4262
    1SOL     OW 3837   4.053   2.665   1.587 -0.1078  0.0380  0.3120
    1SOL    HW2 3838   4.063   2.690   1.679  0.9146 -1.7629  0.7208
    1SOL    HW3 3839   4.112   2.724   1.539 -1.7066  1.9351  0.6220
    1SOL    MW4 3840   4.062   2.676   1.593 -0.1841  0.0505  0.4067
    1SOL     OW 3841   4.248   2.831   1.485 -0.0056  0.1552  0.1337
    1SOL    HW2 3842   4.243   2.925   1.503 -1.6887  0.0438  0.3861
    1SOL    HW3 3843   4.259   2.825   1.391  0.8455  0.6213  0.2019
    1SOL    MW4 3844   4.249   2.842   1.475 -0.1154  0.2022  0.1758
    1SOL     OW 3845   4.276   3.108   1.555 -0.1206  0.7007 -0.4183
    1SOL    HW2 3846   4.299   3.099   1.647  0.2180  0.4315 -0.5284
    1SOL    HW3 3847   4.358   3.131   1.511  0.0625 -0.7841 -0.8888
    1SOL    MW4 3848   4.290   3.109   1.561 -0.0515  0.4692 -0.4948
    1SOL     OW 3849   4.058   3.227   1.451 -0.4493 -0.0189 -0.3178
    1SOL    HW2 3850   4.051   3.315   1.490  0.4745  0.7862 -1.9306
    1SOL    HW3 3851   4.138   3.190   1.489  0.2381  0.6152 -1.1232
    1SOL    MW4 3852   4.068   3.234   1.461 -0.2370  0.1709 -0.6369
    1SOL     OW 3853   4.049   3.473   1.596 -0.5499 -0.4692 -0.6881
    1SOL    HW2 3854   4.050   3.483   1.691 -0.0347  0.3648 -0.7663
    1SOL    HW3 3855   4.124   3.525   1.567 -1.6353  0.5779 -1.6626
    1SOL    MW4 3856   4.059   3.481   1.605 -0.6251 -0.2210 -0.8271
    1SOL     OW 3857   4.265   3.627   1.538  0.2564  0.0468  0.0116
    1SOL    HW2 3858   4.250   3.717   1.567  1.6515 -0.0467  1.0903
    1SOL    HW3 3859   4.275   3.633   1.443 -0.1192  0.9657  0.0345
    1SOL    MW4 3860   4.264   3.639   1.529  0.3910  0.1557  0.1570
    1SOL     OW 3861   3.993   3.982   1.476 -0.3819  0.2070  0.4448
    1SOL    HW2 3862   4.002   4.071   1.510 -0.4336  0.8986 -1.3127
    1SOL    HW3 3863   4.053   3.930   1.529  1.9928  1.8541 -0.5423
    1SOL    MW4 3864   4.002   3.987   1.488 -0.0753  0.5157  0.0826
    1SOL     OW 3865   4.033   3.997   1.203  0.2423  0.2056 -0.0761
    1SOL    HW2 3866   4.038   4.006   1.298 -3.0763  0.5711  0.1028
    1SOL    HW3 3867   3.954   3.945   1.188  0.7741  0.0851 -2.6386
    1SOL    MW4 3868   4.024   3.991   1.214 -0.1249  0.2379 -0.3906
    1SOL     OW 3869   4.063   4.232   1.601 -0.1416  0.1414  0.0650
    1SOL    HW2 3870   4.056   4.249   1.695  1.7007  0.1892  0.2228
    1SOL    HW3 3871   3.989   4.278   1.562  0.8159  2.7097  1.1926
    1SOL    MW4 3872   4.052   4.240   1.608  0.2279  0.4864  0.2345
    1SOL     OW 3873   4.270   4.409   1.529  0.3502 -0.1128  0.0937
    1SOL    HW2 3874   4.201   4.348   1.556  0.9673 -0.9657 -0.2222
    1SOL    HW3 3875   4.277   4.396   1.434  1.3948 -0.5106  0.2195
    1SOL    MW4 3876   4.262   4.399   1.520  0.5689 -0.2780  0.0685
    1SOL     OW 3877   0.233   4.660   1.890  0.4547  0.3316  0.4612
    1SOL    HW2 3878   0.318   4.700   1.911 -0.2765  2.7766 -1.0777
    1SOL    HW3 3879   0.239   4.638   1.797 -0.4804  0.2132  0.4306
    1SOL    MW4 3880   0.245   4.663   1.881  0.2348  0.6390  0.2540
    1SOL     OW 3881   0.001   0.160   1.973 -0.1173  0.2126 -0.3977
    1SOL    HW2 3882   0.005   0.245   1.929 -0.9486  0.9284  0.8676
    1SOL    HW3 3883   0.086   0.119   1.955  0.8381  1.9141  0.1808
    1SOL    MW4 3884   0.012   0.166   1.965 -0.1009  0.5315 -0.1544
    1SOL     OW 3885   0.018   0.419   1.891  0.4416 -0.0898  0.1384
    1SOL    HW2 3886  -0.047   0.470   1.938  0.2317 -0.6217  0.4248
    1SOL    HW3 3887   0.101   0.437   1.936  0.0385 -1.5982  1.5205
    1SOL    MW4 3888   0.021   0.428   1.903  0.3605 -0.3590  0.3586
    1SOL     OW 3889   0.232   0.491   2.030  0.4493 -0.1070  0.1652
    1SOL    HW2 3890   0.310   0.450   1.994  1.5210 -0.0345  2.3410
    1SOL    HW3 3891   0.230   0.578   1.990  0.4768 -0.7409 -1.2550
    1SOL    MW4 3892   0.242   0.497   2.020  0.5943 -0.1811  0.2649
    1SOL     OW 3893   0.232   0.751   1.907  0.2494 -0.1468  0.4087
    1SOL    HW2 3894   0.306   0.796   1.947 -0.1495  0.9824 -0.1079
    1SOL    HW3 3895   0.228   0.786   1.818 -0.3132 -0.9135  0.1267
    1SOL    MW4 3896   0.242   0.761   1.901  0.1225 -0.0990  0.3033
    1SOL     OW 3897   0.019   0.919   2.006 -0.3282  0.2523 -0.0386
    1SOL    HW2 3898  -0.062   0.890   1.966 -0.1789  0.8251 -0.7569
    1SOL    HW3 3899   0.086   0.859   1.972 -0.1749  0.8373 -0.7908
    1SOL    MW4 3900   0.017   0.907   1.996 -0.2882  0.4051 -0.2328
    1SOL     OW 3901   0.027   1.191   1.893 -0.2612 -0.0403  0.0674
    1SOL    HW2 3902   0.023   1.102   1.928 -1.2160  0.0519  0.2137
    1SOL    HW3 3903  -0.058   1.229   1.915  0.1587  0.9250  0.0493
    1SOL    MW4 3904   0.015   1.184   1.900 -0.3318  0.0993  0.0844
    1SOL     OW 3905   0.256   1.323   2.009 -0.3666 -0.4516  0.4304
    1SOL    HW2 3906   0.268   1.402   1.957 -1.0858 -0.1068  0.7854
    1SOL    HW3 3907   0.186   1.275   1.964 -0.0865 -0.7868  0.3439
    1SOL    MW4 3908   0.249   1.327   1.996 -0.4245 -0.4504  0.4659
    1SOL     OW 3909   0.244   1.571   1.891 -0.1062 -0.0493  0.1609
    1SOL    HW2 3910   0.310   1.616   1.943 -0.0695 -0.1226  0.1772
    1SOL    HW3 3911   0.161   1.613   1.915 -0.4420 -1.8273  2.2307
    1SOL    MW4 3912   0.242   1.583   1.901 -0.1457 -0.2936  0.4362
    1SOL     OW 3913   0.001   1.708   1.977  0.0965  0.0108  0.2434
    1SOL    HW2 3914  -0.001   1.688   2.071 -0.1227 -1.2787 -0.0260
    1SOL    HW3 3915  -0.071   1.656   1.941  0.8971 -0.3608 -0.8098
    1SOL    MW4 3916  -0.009   1.698   1.985  0.1736 -0.2084  0.0689
    1SOL     OW 3917   0.024   1.973   1.862  0.2196 -0.3280 -0.0880
    1SOL    HW2 3918  -0.061   2.013   1.880  0.1947  0.6347 -2.2562
    1SOL    HW3 3919   0.020   1.889   1.907 -2.0418 -0.4760 -0.5038
    1SOL    MW4 3920   0.013   1.967   1.870 -0.0820 -0.2204 -0.4289
    1SOL     OW 3921   0.203   2.108   2.014 -0.2292 -0.3712 -0.3734
    1SOL    HW2 3922   0.208   2.200   1.988  2.3107 -0.7502 -1.3719
    1SOL    HW3 3923   0.155   2.066   1.942 -0.2995 -0.0347 -0.5246
    1SOL    MW4 3924   0.197   2.114   2.001  0.0966 -0.3769 -0.5250
    1SOL     OW 3925   0.210   2.329   1.863 -0.6669 -0.9287  0.1431
    1SOL    HW2 3926   0.292   2.370   1.894 -0.4287 -1.0616 -0.3104
    1SOL    HW3 3927   0.141   2.385   1.899 -0.3261  0.4600 -1.3043
    1SOL    MW4 3928   0.212   2.342   1.872 -0.5905 -0.7632 -0.1078
    1SOL     OW 3929   4.469   2.446   1.946  0.0212 -0.0517 -0.1511
    1SOL    HW2 3930   4.465   2.449   2.041  1.3500 -0.1912 -0.0833
    1SOL    HW3 3931   4.474   2.538   1.919  2.4851 -0.0827  0.0721
    1SOL    MW4 3932   4.469   2.459   1.955  0.5217 -0.0741 -0.1127
    1SOL     OW 3933   0.007   2.718   1.880 -0.0456 -0.2412 -0.3667
    1SOL    HW2 3934  -0.072   2.760   1.914  0.6937  0.0585  1.0060
    1SOL    HW3 3935  -0.005   2.717   1.785 -1.1683  0.8587 -0.2427
    1SOL    MW4 3936  -0.005   2.723   1.872 -0.0962 -0.0565 -0.1693
    1SOL     OW 3937   0.243   2.803   1.966 -0.2388 -0.0054 -0.4101
    1SOL    HW2 3938   0.249   2.894   1.940 -0.4826  0.1497  0.0627
    1SOL    HW3 3939   0.161   2.772   1.927 -0.7683  0.3169  0.4300
    1SOL    MW4 3940   0.233   2.811   1.957 -0.3408  0.0575 -0.2369
    1SOL     OW 3941   0.211   3.055   1.894 -0.7549 -0.3547  0.1279
    1SOL    HW2 3942   0.286   3.113   1.912 -1.3547  0.2996  0.5472
    1SOL    HW3 3943   0.204   3.055   1.799 -1.5536  1.3224  0.1580
    1SOL    MW4 3944   0.220   3.063   1.884 -0.9395 -0.0470  0.1873
    1SOL     OW 3945   0.000   3.200   2.008 -0.2991  0.2747  0.3426
    1SOL    HW2 3946  -0.077   3.159   1.970  0.4949 -0.6379 -0.3188
    1SOL    HW3 3947   0.074   3.152   1.970  0.5746  0.7736  1.3787
    1SOL    MW4 3948  -0.000   3.188   1.998 -0.0790  0.2201  0.3921
    1SOL     OW 3949   0.011   3.453   1.891 -0.0183 -0.2637  0.1705
    1SOL    HW2 3950   0.068   3.516   1.935 -0.4425  0.8403 -0.8181
    1SOL    HW3 3951   0.025   3.370   1.937  1.5107  0.2641  0.6710
    1SOL    MW4 3952   0.021   3.450   1.903  0.1275 -0.0484  0.1061
    1SOL     OW 3953   0.213   3.625   1.977 -0.1959  0.3547 -0.3228
    1SOL    HW2 3954   0.236   3.618   2.070 -1.5505 -0.3179 -0.0203
    1SOL    HW3 3955   0.286   3.584   1.930  0.9668  1.5800  0.3786
    1SOL    MW4 3956   0.225   3.619   1.983 -0.2212  0.4277 -0.1904
    1SOL     OW 3957   0.223   3.884   1.894 -0.1158  0.2622 -0.3866
    1SOL    HW2 3958   0.300   3.923   1.935 -0.1428  0.0926 -0.1783
    1SOL    HW3 3959   0.227   3.791   1.917  0.0024  0.1196 -0.9692
    1SOL    MW4 3960   0.234   3.877   1.902 -0.1037  0.2210 -0.4359
    1SOL     OW 3961   4.480   3.974   2.052 -1.0603 -0.0408 -0.2792
    1SOL    HW2 3962   4.471   4.057   2.005  1.5016  0.8954  0.7374
    1SOL    HW3 3963   4.551   3.929   2.006  0.2827  0.1282  1.5593
    1SOL    MW4 3964   4.488   3.979   2.040 -0.5451  0.1049  0.0975
    1SOL     OW 3965   0.005   4.208   1.894  0.8984 -0.0807 -0.0353
    1SOL    HW2 3966  -0.063   4.261   1.936  0.3789 -1.3750  0.7757
    1SOL    HW3 3967   0.087   4.251   1.918  0.5566 -0.3558  1.6716
    1SOL    MW4 3968   0.007   4.221   1.902  0.7849 -0.2875  0.2968
    1SOL     OW 3969   0.214   4.375   1.967  0.3047  0.2373 -0.5524
    1SOL    HW2 3970   0.211   4.374   2.062  1.2913 -1.1800 -0.5199
    1SOL    HW3 3971   0.214   4.468   1.944  1.5371  0.6120  0.8864
    1SOL    MW4 3972   0.214   4.388   1.976  0.5975  0.1001 -0.3582
    1SOL     OW 3973   0.671   4.666   1.887  0.3914  0.7944  0.3719
    1SOL    HW2 3974   0.691   4.593   1.945 -0.2518  0.7604  0.5495
    1SOL    HW3 3975   0.628   4.627   1.812  0.7557  0.9019  0.1033
    1SOL    MW4 3976   0.668   4.652   1.885  0.3545  0.8039  0.3601
    1SOL     OW 3977   0.460   0.125   1.998 -0.0247  0.0226  0.1606
    1SOL    HW2 3978   0.459   0.214   1.963  0.0487 -0.2421 -0.5191
    1SOL    HW3 3979   0.538   0.085   1.958 -1.2885 -1.0446 -1.2707
    1SOL    MW4 3980   0.470   0.132   1.988 -0.1817 -0.1531 -0.1180
    1SOL     OW 3981   0.451   0.377   1.913 -0.2456 -0.0961 -0.1417
    1SOL    HW2 3982   0.517   0.444   1.930  0.7349 -1.0746 -0.0650
    1SOL    HW3 3983   0.440   0.379   1.817  2.8038 -2.6379 -0.5940
    1SOL    MW4 3984   0.458   0.386   1.902  0.2861 -0.5606 -0.1912
    1SOL     OW 3985   0.671   0.528   2.002  0.4033  0.1525  0.2575
    1SOL    HW2 3986   0.683   0.526   2.097  1.1001  1.4623  0.2086
    1SOL    HW3 3987   0.732   0.463   1.969  0.2227 -0.2460  0.7064
    1SOL    MW4 3988   0.681   0.519   2.010  0.4714  0.2728  0.3102
    1SOL     OW 3989   0.682   0.764   1.845 -0.1945 -0.0448  0.3260
    1SOL    HW2 3990   0.755   0.816   1.879  0.2688  0.0752 -0.8162
    1SOL    HW3 3991   0.671   0.694   1.909  0.9830 -0.1058  0.4777
    1SOL    MW4 3992   0.690   0.761   1.858  0.0220 -0.0370  0.1954
    1SOL     OW 3993   0.454   0.900   1.996 -0.8057 -0.3053  0.0470
    1SOL    HW2 3994   0.445   0.993   1.973  0.2255 -0.0605  0.6091
    1SOL    HW3 3995   0.531   0.870   1.947 -0.0006 -0.3736  1.3305
    1SOL    MW4 3996   0.463   0.908   1.986 -0.5634 -0.2820  0.2905
    1SOL     OW 3997   0.470   1.161   1.873  0.3339 -0.3838 -0.5482
    1SOL    HW2 3998   0.408   1.226   1.905 -0.1365 -0.4084 -1.3942
    1SOL    HW3 3999   0.452   1.154   1.780  0.6812 -1.3978 -0.5524
    1SOL    MW4 4000   0.459   1.169   1.865  0.3177 -0.5208 -0.6604
    1SOL     OW 4001   0.711   1.308   1.960  0.4692  0.2311 -0.0542
    1SOL    HW2 4002   0.707   1.321   2.055 -0.0756  1.0157 -0.1813
    1SOL    HW3 4003   0.643   1.243   1.941  0.7841 -0.1514  0.1323
    1SOL    MW4 4004   0.702   1.301   1.970  0.4389  0.2841 -0.0464
    1SOL     OW 4005   0.627   1.567   1.836  0.4503  0.2134 -0.2427
    1SOL    HW2 4006   0.627   1.476   1.865 -0.6730  0.1889 -0.3103
    1SOL    HW3 4007   0.629   1.562   1.740 -2.0285  0.2135 -0.3260
    1SOL    MW4 4008   0.627   1.554   1.827 -0.0249  0.2102 -0.2625
    1SOL     OW 4009   0.451   1.711   1.988  0.5759 -0.0419 -0.1058
    1SOL    HW2 4010   0.478   1.691   2.078 -0.7050  0.4248  0.3928
    1SOL    HW3 4011   0.517   1.668   1.933  2.6982  1.6037  1.0696
    1SOL    MW4 4012   0.463   1.702   1.993  0.6869  0.2369  0.1150
    1SOL     OW 4013   0.417   1.980   1.897  0.0144 -0.3794  0.1020
    1SOL    HW2 4014   0.426   1.893   1.935 -0.0176 -0.0495  0.8658
    1SOL    HW3 4015   0.350   2.023   1.950  0.0166  0.1056 -0.2840
    1SOL    MW4 4016   0.409   1.974   1.909  0.0105 -0.2720  0.1518
    1SOL     OW 4017   0.675   2.061   1.995 -0.4524 -0.2005  0.1702
    1SOL    HW2 4018   0.663   2.083   2.087 -0.4623  0.8161 -0.0708
    1SOL    HW3 4019   0.587   2.041   1.963 -0.5273  0.0414  0.2266
    1SOL    MW4 4020   0.662   2.061   2.003 -0.4635 -0.0343  0.1457
    1SOL     OW 4021   0.694   2.339   1.865 -0.1234 -0.4253  0.2856
    1SOL    HW2 4022   0.719   2.247   1.865 -0.5936 -0.5583  0.8377
    1SOL    HW3 4023   0.693   2.364   1.772  0.6018 -0.8076  0.1722
    1SOL    MW4 4024   0.697   2.330   1.853 -0.0898 -0.4935  0.3434
    1SOL     OW 4025   0.447   2.427   1.964  0.2499 -0.1240  0.1184
    1SOL    HW2 4026   0.461   2.436   2.058  0.8022  0.6923 -0.0412
    1SOL    HW3 4027   0.530   2.393   1.930  0.1395 -0.1650 -0.1126
    1SOL    MW4 4028   0.459   2.424   1.972  0.3082 -0.0217  0.0668
    1SOL     OW 4029   0.449   2.677   1.843 -0.6576 -0.1671 -0.1585
    1SOL    HW2 4030   0.460   2.594   1.890  0.1839  0.3613  0.6054
    1SOL    HW3 4031   0.381   2.723   1.893 -0.3458  0.0547  0.0629
    1SOL    MW4 4032   0.442   2.672   1.856 -0.5055 -0.0682 -0.0285
    1SOL     OW 4033   0.654   2.837   1.945  0.8300 -0.3267 -0.5097
    1SOL    HW2 4034   0.650   2.825   2.040  0.7168 -0.4930 -0.5352
    1SOL    HW3 4035   0.578   2.789   1.912  1.0662 -0.5609 -0.7135
    1SOL    MW4 4036   0.643   2.829   1.953  0.8463 -0.3796 -0.5399
    1SOL     OW 4037   0.665   3.115   1.890  0.0005 -0.2605 -0.1820
    1SOL    HW2 4038   0.667   3.020   1.899  0.0841 -0.4266 -1.8422
    1SOL    HW3 4039   0.673   3.131   1.796  1.3768  1.4207  0.1889
    1SOL    MW4 4040   0.666   3.104   1.879  0.1931 -0.0603 -0.3521
    1SOL     OW 4041   0.435   3.234   1.970 -0.1675  0.8681  0.5345
    1SOL    HW2 4042   0.427   3.326   1.947 -1.3690  0.8315  0.7670
    1SOL    HW3 4043   0.525   3.211   1.949  0.1120  2.0817  0.4257
    1SOL    MW4 4044   0.446   3.243   1.964 -0.2892  1.0233  0.5507
    1SOL     OW 4045   0.403   3.495   1.854  0.3468 -0.6809 -0.2431
    1SOL    HW2 4046   0.482   3.539   1.886  0.3003 -0.1153 -0.8781
    1SOL    HW3 4047   0.412   3.498   1.758 -1.3525  1.0550 -0.3539
    1SOL    MW4 4048   0.415   3.501   1.845  0.1165 -0.3774 -0.3414
    1SOL     OW 4049   0.620   3.613   1.969 -0.1732  0.0161  0.2057
    1SOL    HW2 4050   0.706   3.585   1.936  0.5735  1.9272  0.4841
    1SOL    HW3 4051   0.617   3.707   1.950 -2.3080 -0.0857 -0.0022
    1SOL    MW4 4052   0.631   3.622   1.962 -0.3564  0.2546  0.2151
    1SOL     OW 4053   0.637   3.907   1.881 -0.0272 -0.2180  0.5420
    1SOL    HW2 4054   0.722   3.933   1.917  0.5800 -2.2305  0.6739
    1SOL    HW3 4055   0.652   3.901   1.787  0.1028 -0.9050  0.5975
    1SOL    MW4 4056   0.650   3.909   1.873  0.0700 -0.5741  0.5667
    1SOL     OW 4057   0.430   4.017   2.033 -0.3154 -0.2796 -0.2873
    1SOL    HW2 4058   0.434   4.109   2.006 -1.3686 -0.7132 -2.0254
    1SOL    HW3 4059   0.496   3.973   1.979  2.8657  0.0223  3.1998
    1SOL    MW4 4060   0.439   4.024   2.022 -0.0347 -0.2971 -0.0565
    1SOL     OW 4061   0.463   4.261   1.906  0.4700 -0.5219  0.2521
    1SOL    HW2 4062   0.382   4.305   1.930  0.6977  0.8405 -1.4282
    1SOL    HW3 4063   0.462   4.258   1.810  2.1588 -0.9262  0.2271
    1SOL    MW4 4064   0.452   4.266   1.896  0.7229 -0.3953  0.0271
    1SOL     OW 4065   0.690   4.399   2.003 -0.2162  0.2898 -0.5235
    1SOL    HW2 4066   0.765   4.351   1.966  0.7817  0.2682  1.4310
    1SOL    HW3 4067   0.614   4.360   1.962  0.6826 -1.8842 -0.1960
    1SOL    MW4 4068   0.690   4.387   1.993  0.0340  0.0000 -0.2223
    1SOL     OW 4069   1.141   4.642   1.905 -0.1217 -0.0375  0.1005
    1SOL    HW2 4070   1.216   4.680   1.951 -1.7763  0.8289  2.1854
    1SOL    HW3 4071   1.132   4.554   1.944 -0.4922  0.0462  0.2004
    1SOL    MW4 4072   1.150   4.635   1.916 -0.3889  0.0877  0.3887
    1SOL     OW 4073   0.903   0.088   2.017 -0.0545  0.0825 -0.3645
    1SOL    HW2 4074   0.972   0.050   1.962  0.6201 -1.4366  1.4649
    1SOL    HW3 4075   0.822   0.066   1.972  0.4511 -1.7638 -0.4354
    1SOL    MW4 4076   0.902   0.080   2.004  0.1013 -0.3615 -0.1326
    1SOL     OW 4077   0.885   0.365   1.911  0.0740  0.0618 -0.3789
    1SOL    HW2 4078   0.960   0.414   1.942  0.3743  0.1315 -1.1886
    1SOL    HW3 4079   0.884   0.286   1.965  1.3382 -0.4228 -1.0369
    1SOL    MW4 4080   0.895   0.361   1.922  0.2804  0.0070 -0.5726
    1SOL     OW 4081   1.122   0.478   2.001 -0.2571  0.0606  0.7464
    1SOL    HW2 4082   1.201   0.441   1.961 -1.0092 -2.5694  1.5608
    1SOL    HW3 4083   1.117   0.567   1.967  2.2064 -0.2509 -0.5329
    1SOL    MW4 4084   1.132   0.485   1.991 -0.0312 -0.3274  0.6850
    1SOL     OW 4085   1.099   0.725   1.901  0.7955  0.0378  0.3228
    1SOL    HW2 4086   1.176   0.775   1.929  0.7045  0.1995  0.2874
    1SOL    HW3 4087   1.025   0.781   1.924  0.7993  0.9413 -1.7739
    1SOL    MW4 4088   1.099   0.739   1.908  0.7839  0.1783  0.0414
    1SOL     OW 4089   0.894   0.915   1.964  0.2607  0.1215  0.2251
    1SOL    HW2 4090   0.884   0.924   2.058 -2.1007  1.3148 -0.1062
    1SOL    HW3 4091   0.927   1.000   1.935 -2.3293  0.9554 -0.4079
    1SOL    MW4 4092   0.897   0.927   1.972 -0.3926  0.3889  0.0979
    1SOL     OW 4093   0.941   1.159   1.855  0.2467 -0.1806 -0.0154
    1SOL    HW2 4094   0.878   1.225   1.884  1.4398  1.1226 -0.3377
    1SOL    HW3 4095   0.935   1.162   1.759  0.7075 -0.1391 -0.0414
    1SOL    MW4 4096   0.932   1.168   1.846  0.4649 -0.0032 -0.0615
    1SOL     OW 4097   1.157   1.280   1.974  0.3794  0.2342  0.2012
    1SOL    HW2 4098   1.162   1.364   1.928  0.7761 -0.6350 -1.3975
    1SOL    HW3 4099   1.077   1.239   1.939  1.0944 -0.7562 -0.2970
    1SOL    MW4 4100   1.147   1.286   1.963  0.5262 -0.0112 -0.0755
    1SOL     OW 4101   1.115   1.542   1.870  0.2678 -0.6354  0.0248
    1SOL    HW2 4102   1.026   1.558   1.902 -0.4232  0.4100 -2.3661
    1SOL    HW3 4103   1.110   1.555   1.776  2.6312 -2.0903 -0.3513
    1SOL    MW4 4104   1.103   1.546   1.862  0.4885 -0.6894 -0.3403
    1SOL     OW 4105   0.856   1.644   1.966 -0.0666 -0.1642 -0.5241
    1SOL    HW2 4106   0.879   1.736   1.956  0.6190 -0.2734 -0.0181
    1SOL    HW3 4107   0.771   1.635   1.923 -0.8497  1.0229  0.7353
    1SOL    MW4 4108   0.848   1.655   1.959 -0.0794 -0.0219 -0.2912
    1SOL     OW 4109   0.901   1.911   1.905  0.7291 -0.1777  0.0525
    1SOL    HW2 4110   0.977   1.961   1.934  1.2678  0.3556 -2.1761
    1SOL    HW3 4111   0.825   1.962   1.934  1.2543  0.2361  0.6815
    1SOL    MW4 4112   0.901   1.924   1.912  0.8696 -0.0526 -0.1587
    1SOL     OW 4113   1.122   2.052   2.000 -0.2849  0.3807 -0.0191
    1SOL    HW2 4114   1.108   2.143   1.973  0.0854  0.1141 -1.1392
    1SOL    HW3 4115   1.193   2.021   1.943 -0.4478 -0.6197  0.3231
    1SOL    MW4 4116   1.129   2.060   1.989 -0.2575  0.2136 -0.1218
    1SOL     OW 4117   1.120   2.302   1.870  0.3761  0.2082  0.0557
    1SOL    HW2 4118   1.185   2.361   1.909  2.1383 -1.7168  0.1383
    1SOL    HW3 4119   1.122   2.322   1.777  0.8326  0.4347  0.1114
    1SOL    MW4 4120   1.129   2.312   1.863  0.6690 -0.0157  0.0740
    1SOL     OW 4121   0.922   2.438   2.010  0.1977  0.2401  0.1906
    1SOL    HW2 4122   0.989   2.389   1.963 -0.1668  0.4251 -0.5397
    1SOL    HW3 4123   0.840   2.415   1.965 -0.1974  0.1771  0.9373
    1SOL    MW4 4124   0.920   2.428   1.998  0.0975  0.2563  0.1926
    1SOL     OW 4125   0.904   2.691   1.911 -0.4560 -0.0176 -0.4875
    1SOL    HW2 4126   0.915   2.604   1.949 -1.8638 -0.2888 -0.6977
    1SOL    HW3 4127   0.812   2.712   1.924  0.0159  1.7453  0.1970
    1SOL    MW4 4128   0.893   2.682   1.918 -0.5795  0.1795 -0.4249
    1SOL     OW 4129   1.106   2.873   1.980  0.4096  0.8318  0.3458
    1SOL    HW2 4130   1.104   2.869   2.075  0.9609  2.1683  0.4263
    1SOL    HW3 4131   1.037   2.813   1.952  1.6031 -1.1068  1.5217
    1SOL    MW4 4132   1.096   2.865   1.989  0.6398  0.7524  0.5115
    1SOL     OW 4133   1.154   3.157   1.879  0.1946 -0.4623  0.5373
    1SOL    HW2 4134   1.071   3.200   1.901 -0.2627 -0.9734 -0.1500
    1SOL    HW3 4135   1.150   3.073   1.925  0.6302 -0.2086  1.0426
    1SOL    MW4 4136   1.142   3.152   1.888  0.1919 -0.4964  0.5132
    1SOL     OW 4137   0.899   3.254   1.955  0.2026 -0.7402 -0.2373
    1SOL    HW2 4138   0.884   3.233   2.047  1.8169 -0.7378  0.0481
    1SOL    HW3 4139   0.828   3.211   1.908 -1.0978 -0.0694  1.0850
    1SOL    MW4 4140   0.888   3.246   1.961  0.2440 -0.6514 -0.0252
    1SOL     OW 4141   0.880   3.528   1.913  0.0371 -0.2049  0.1308
    1SOL    HW2 4142   0.895   3.440   1.947 -1.9830 -0.0929  1.4260
    1SOL    HW3 4143   0.893   3.521   1.818  1.5784 -1.4811  0.4182
    1SOL    MW4 4144   0.884   3.516   1.905 -0.0261 -0.3581  0.3395
    1SOL     OW 4145   1.112   3.614   1.999 -0.4621 -0.4124 -0.5344
    1SOL    HW2 4146   1.091   3.628   2.091 -1.2973 -0.4805 -0.7141
    1SOL    HW3 4147   1.032   3.579   1.961  0.1239 -1.1407 -1.1205
    1SOL    MW4 4148   1.099   3.611   2.006 -0.4948 -0.5174 -0.6356
    1SOL     OW 4149   1.123   3.869   1.910 -0.2665  0.2910 -0.0760
    1SOL    HW2 4150   1.130   3.779   1.943 -0.3423  0.3758  0.1736
    1SOL    HW3 4151   1.118   3.859   1.815 -1.2190 -0.0248 -0.0017
    1SOL    MW4 4152   1.123   3.856   1.902 -0.4022  0.2604 -0.0334
    1SOL     OW 4153   0.888   4.002   1.982  0.0421  0.4606  0.0118
    1SOL    HW2 4154   0.880   4.024   2.074  1.1894 -1.9302  0.7220
    1SOL    HW3 4155   0.972   3.957   1.975 -1.0377 -1.3566 -1.7883
    1SOL    MW4 4156   0.898   3.999   1.993  0.0510 -0.0949 -0.1321
    1SOL     OW 4157   0.888   4.275   1.876 -0.1386  0.0612 -0.0914
    1SOL    HW2 4158   0.967   4.314   1.913 -0.9778  1.5671  0.1455
    1SOL    HW3 4159   0.882   4.189   1.919 -0.2944  1.1675  2.1674
    1SOL    MW4 4160   0.898   4.268   1.887 -0.2699  0.4053  0.2378
    1SOL     OW 4161   1.096   4.394   2.017 -0.0488 -0.1302  0.0424
    1SOL    HW2 4162   1.081   4.379   2.111 -0.9466  0.6263  0.0246
    1SOL    HW3 4163   1.164   4.331   1.994 -0.1611 -0.6560  1.0978
    1SOL    MW4 4164   1.103   4.384   2.026 -0.1820 -0.0997  0.1791
    1SOL     OW 4165   1.562   4.599   1.907 -0.2839 -0.1203  0.1300
    1SOL    HW2 4166   1.646   4.635   1.937  0.6984 -1.4792 -0.8947
    1SOL    HW3 4167   1.565   4.507   1.934 -1.4443 -0.1866  0.0618
    1SOL    MW4 4168   1.574   4.591   1.915 -0.3076 -0.3085 -0.0141
    1SOL     OW 4169   1.369   0.102   2.015 -0.0670  0.0122 -0.3129
    1SOL    HW2 4170   1.387   0.134   2.104 -0.5577  0.1927 -0.2769
    1SOL    HW3 4171   1.439   0.039   1.998 -0.0302 -0.1030  0.2424
    1SOL    MW4 4172   1.381   0.098   2.025 -0.1268  0.0208 -0.2348
    1SOL     OW 4173   1.342   0.364   1.854  0.1505  0.1754 -0.5904
    1SOL    HW2 4174   1.328   0.273   1.882 -1.5147  0.5939 -0.0252
    1SOL    HW3 4175   1.345   0.359   1.759 -1.2107 -0.3033 -0.6146
    1SOL    MW4 4176   1.341   0.351   1.845 -0.2488  0.1674 -0.5190
    1SOL     OW 4177   1.549   0.516   1.963 -0.2958  0.2998  0.1865
    1SOL    HW2 4178   1.620   0.462   1.930  1.8936  2.5829  0.9727
    1SOL    HW3 4179   1.470   0.479   1.923  1.2714 -2.4309 -0.5348
    1SOL    MW4 4180   1.548   0.504   1.953  0.1999  0.2408  0.1949
    1SOL     OW 4181   1.547   0.776   1.839  0.6375 -0.2988  0.0575
    1SOL    HW2 4182   1.622   0.829   1.867  0.4621  0.3851 -0.7344
    1SOL    HW3 4183   1.559   0.692   1.883  1.3595  0.1265  0.6896
    1SOL    MW4 4184   1.559   0.772   1.848  0.7098 -0.1524  0.0362
    1SOL     OW 4185   1.345   0.889   2.000  0.1736  0.5183  0.5661
    1SOL    HW2 4186   1.364   0.891   2.094  0.4866 -1.8243  0.5817
    1SOL    HW3 4187   1.413   0.832   1.963 -1.9992 -1.3814 -0.5810
    1SOL    MW4 4188   1.357   0.882   2.007 -0.0718 -0.0414  0.4170
    1SOL     OW 4189   1.381   1.123   1.868  0.0268  0.1702  0.0405
    1SOL    HW2 4190   1.371   1.039   1.914 -1.1229 -0.3873 -1.1688
    1SOL    HW3 4191   1.313   1.179   1.906  0.4747  0.3918  0.5099
    1SOL    MW4 4192   1.371   1.119   1.879 -0.0658  0.1259 -0.0571
    1SOL     OW 4193   1.601   1.245   1.971  0.2107 -0.1224 -0.1898
    1SOL    HW2 4194   1.595   1.335   1.939 -0.8126  0.5062  1.7277
    1SOL    HW3 4195   1.519   1.205   1.943  0.3673 -0.2771 -0.4343
    1SOL    MW4 4196   1.589   1.252   1.963  0.0964 -0.0598  0.0310
    1SOL     OW 4197   1.562   1.505   1.880  0.6217 -0.1434  0.0422
    1SOL    HW2 4198   1.633   1.561   1.909  0.1449  0.0095  0.9595
    1SOL    HW3 4199   1.484   1.561   1.884  0.2209 -0.7181  0.5057
    1SOL    MW4 4200   1.561   1.520   1.884  0.5059 -0.1991  0.2245
    1SOL     OW 4201   1.350   1.668   1.953  0.6219  0.0371  0.6267
    1SOL    HW2 4202   1.355   1.662   2.048 -2.2584 -1.1899  0.7528
    1SOL    HW3 4203   1.271   1.619   1.930  1.1798  0.4576 -2.3840
    1SOL    MW4 4204   1.340   1.661   1.962  0.3154 -0.0694  0.2462
    1SOL     OW 4205   1.339   1.939   1.882 -0.0542 -0.1071 -0.3077
    1SOL    HW2 4206   1.343   1.845   1.901 -0.3818  0.4620  2.8130
    1SOL    HW3 4207   1.417   1.975   1.924 -1.0937  1.3198  0.4342
    1SOL    MW4 4208   1.350   1.931   1.890 -0.2346  0.1563  0.2019
    1SOL     OW 4209   1.581   2.068   1.983 -0.4347  0.0693 -0.1661
    1SOL    HW2 4210   1.572   2.078   2.078 -0.7480  0.2068 -0.2094
    1SOL    HW3 4211   1.559   2.155   1.948  0.6701  0.3045 -0.3013
    1SOL    MW4 4212   1.577   2.081   1.991 -0.3302  0.1185 -0.1897
    1SOL     OW 4213   1.521   2.301   1.874 -0.7326  0.4821 -0.3109
    1SOL    HW2 4214   1.600   2.354   1.884 -0.5483 -0.0208  1.0668
    1SOL    HW3 4215   1.518   2.279   1.781  1.1165 -0.0479 -0.2664
    1SOL    MW4 4216   1.531   2.305   1.863 -0.4644  0.3459 -0.1234
    1SOL     OW 4217   1.308   2.460   1.977 -0.0675  0.0109 -0.0728
    1SOL    HW2 4218   1.317   2.551   1.949 -0.1777 -0.0531 -0.3219
    1SOL    HW3 4219   1.387   2.417   1.945 -1.5424 -0.7347 -2.9967
    1SOL    MW4 4220   1.319   2.467   1.969 -0.2767 -0.0958 -0.4914
    1SOL     OW 4221   1.329   2.717   1.893  0.5707 -0.2147  0.6140
    1SOL    HW2 4222   1.255   2.759   1.936  0.2558 -0.4859  0.3416
    1SOL    HW3 4223   1.306   2.718   1.800  0.7610 -0.5906  0.5633
    1SOL    MW4 4224   1.316   2.723   1.887  0.5542 -0.3002  0.5714
    1SOL     OW 4225   1.550   2.844   1.979 -0.3990 -0.4444 -0.2726
    1SOL    HW2 4226   1.625   2.801   1.939 -0.3899  0.6118 -1.4402
    1SOL    HW3 4227   1.475   2.789   1.955 -0.3584  0.0258 -1.5743
    1SOL    MW4 4228   1.550   2.831   1.970 -0.3924 -0.2429 -0.5983
    1SOL     OW 4229   1.591   3.121   1.885 -0.7303  0.1867 -0.3332
    1SOL    HW2 4230   1.573   3.029   1.903 -0.8332  0.1956 -0.3879
    1SOL    HW3 4231   1.568   3.132   1.792  1.5533 -0.3064 -0.9854
    1SOL    MW4 4232   1.586   3.110   1.875 -0.4426  0.1225 -0.4264
    1SOL     OW 4233   1.381   3.256   2.001 -0.0870 -0.2653  0.1617
    1SOL    HW2 4234   1.446   3.190   1.975 -0.2440 -0.5181  0.4103
    1SOL    HW3 4235   1.303   3.233   1.951 -0.2492 -0.4792  0.5128
    1SOL    MW4 4236   1.379   3.244   1.991 -0.1292 -0.3269  0.2410
    1SOL     OW 4237   1.341   3.526   1.898 -0.1138 -0.3583  0.5224
    1SOL    HW2 4238   1.364   3.440   1.934 -0.0012  0.0064  1.3339
    1SOL    HW3 4239   1.258   3.548   1.939 -0.1850 -0.1093  0.2476
    1SOL    MW4 4240   1.333   3.517   1.908 -0.1085 -0.2773  0.5932
    1SOL     OW 4241   1.589   3.608   1.978 -0.0948  0.2425  0.4238
    1SOL    HW2 4242   1.584   3.603   2.074  1.1184 -1.1109  0.4354
    1SOL    HW3 4243   1.504   3.576   1.948 -0.8138  1.4967  1.0472
    1SOL    MW4 4244   1.577   3.603   1.987 -0.0298  0.2294  0.5075
    1SOL     OW 4245   1.576   3.860   1.868  0.0380  0.2344  0.2530
    1SOL    HW2 4246   1.629   3.920   1.920  1.2551 -0.2152 -0.4385
    1SOL    HW3 4247   1.592   3.774   1.907  0.9301 -0.0996 -0.8265
    1SOL    MW4 4248   1.585   3.856   1.880  0.3163  0.1309  0.0193
    1SOL     OW 4249   1.362   3.983   2.002  0.1578 -0.0382  0.1652
    1SOL    HW2 4250   1.427   3.934   1.952 -0.6189  0.8499 -1.7770
    1SOL    HW3 4251   1.278   3.952   1.969 -0.3820  0.5236  0.9793
    1SOL    MW4 4252   1.359   3.973   1.991 -0.0157  0.1528  0.0162
    1SOL     OW 4253   1.300   4.237   1.906 -0.1542  0.4364  0.3187
    1SOL    HW2 4254   1.312   4.150   1.943  0.3368  0.5342  0.3994
    1SOL    HW3 4255   1.312   4.225   1.812 -3.6889 -0.2207 -0.0841
    1SOL    MW4 4256   1.303   4.224   1.898 -0.5559  0.3624  0.2762
    1SOL     OW 4257   1.543   4.337   2.014  0.3180 -0.2176 -0.1395
    1SOL    HW2 4258   1.530   4.365   2.105  2.9784 -1.9512  0.8198
    1SOL    HW3 4259   1.459   4.297   1.989 -1.2512  2.4006  0.6961
    1SOL    MW4 4260   1.530   4.336   2.023  0.4621 -0.1011  0.0973
    1SOL     OW 4261   2.011   4.616   1.844 -0.0452  0.8438  0.3165
    1SOL    HW2 4262   2.083   4.676   1.867 -0.2373  1.8913 -1.7272
    1SOL    HW3 4263   2.024   4.541   1.902  1.5487  1.8753  1.3521
    1SOL    MW4 4264   2.022   4.614   1.855  0.1400  1.1182  0.1835
    1SOL     OW 4265   1.783   0.083   1.993 -0.4887  0.1729 -0.0298
    1SOL    HW2 4266   1.789   0.089   2.088 -0.2699 -3.3522  0.2539
    1SOL    HW3 4267   1.861   0.034   1.967 -1.2408 -0.0976 -1.8957
    1SOL    MW4 4268   1.794   0.077   2.002 -0.5591 -0.3279 -0.2384
    1SOL     OW 4269   1.757   0.374   1.904 -0.5208  0.2482  0.4568
    1SOL    HW2 4270   1.748   0.284   1.935  0.9533  0.4055  1.4021
    1SOL    HW3 4271   1.760   0.366   1.808  2.1063 -0.9915  0.5833
    1SOL    MW4 4272   1.756   0.361   1.895  0.0203  0.1054  0.5982
    1SOL     OW 4273   2.020   0.481   1.943  0.0281 -0.0595 -0.5064
    1SOL    HW2 4274   2.006   0.567   1.902  0.0539  0.1924  0.0127
    1SOL    HW3 4275   1.938   0.434   1.929 -0.3307  0.3975  0.0459
    1SOL    MW4 4276   2.008   0.486   1.936 -0.0160  0.0341 -0.3650
    1SOL     OW 4277   1.983   0.748   1.862  0.3977  0.7716 -0.5059
    1SOL    HW2 4278   2.052   0.802   1.901  0.6042  0.7587 -0.8494
    1SOL    HW3 4279   2.009   0.739   1.770  1.2146 -1.2713 -0.0928
    1SOL    MW4 4280   1.995   0.754   1.855  0.5327  0.5003 -0.4967
    1SOL     OW 4281   1.762   0.892   1.946  0.2840  0.2135 -0.1236
    1SOL    HW2 4282   1.765   0.983   1.917 -1.8154  0.2420 -0.3785
    1SOL    HW3 4283   1.838   0.851   1.905  1.0786  1.7834 -0.2530
    1SOL    MW4 4284   1.772   0.899   1.936  0.1118  0.4244 -0.1743
    1SOL     OW 4285   1.829   1.159   1.858 -0.3840  0.0737 -0.1944
    1SOL    HW2 4286   1.751   1.199   1.897  0.5547  1.3150  0.4641
    1SOL    HW3 4287   1.812   1.160   1.764 -1.5015 -0.4135 -0.0124
    1SOL    MW4 4288   1.816   1.164   1.851 -0.4076  0.1732 -0.0833
    1SOL     OW 4289   2.052   1.296   1.974  0.5274 -0.3965 -0.0643
    1SOL    HW2 4290   2.123   1.236   1.951 -0.3437 -1.1295 -0.8754
    1SOL    HW3 4291   1.973   1.254   1.940 -0.0799  1.3061 -0.8440
    1SOL    MW4 4292   2.051   1.283   1.966  0.3324 -0.2687 -0.2743
    1SOL     OW 4293   2.018   1.540   1.845  0.2101 -0.0246 -0.0073
    1SOL    HW2 4294   2.028   1.452   1.882 -0.2667  0.5055  1.4130
    1SOL    HW3 4295   2.033   1.528   1.751  1.2883 -1.4274  0.3166
    1SOL    MW4 4296   2.021   1.527   1.838  0.2897 -0.1397  0.2227
    1SOL     OW 4297   1.779   1.651   1.971  0.5868  0.0040  0.1098
    1SOL    HW2 4298   1.757   1.739   1.939 -0.6624 -0.3465  0.0018
    1SOL    HW3 4299   1.862   1.630   1.927  0.8394  1.0788  0.0503
    1SOL    MW4 4300   1.787   1.660   1.961  0.4554  0.0995  0.0876
    1SOL     OW 4301   1.774   1.918   1.876  0.2043 -0.2583  0.4856
    1SOL    HW2 4302   1.703   1.970   1.914 -0.4421 -0.5039 -0.3750
    1SOL    HW3 4303   1.772   1.940   1.783  1.0992 -0.4587  0.4210
    1SOL    MW4 4304   1.764   1.928   1.869  0.2371 -0.3172  0.3637
    1SOL     OW 4305   1.992   2.050   1.967  0.4208 -0.4623  0.4783
    1SOL    HW2 4306   2.070   2.016   1.923  0.2225  1.9861 -1.8761
    1SOL    HW3 4307   1.922   1.989   1.943  0.5785  0.1613 -1.5885
    1SOL    MW4 4308   1.993   2.037   1.958  0.4153 -0.0570 -0.1051
    1SOL     OW 4309   1.995   2.309   1.868 -0.3703 -0.0512  0.3319
    1SOL    HW2 4310   2.064   2.352   1.918 -1.8226  0.5104  1.9350
    1SOL    HW3 4311   1.997   2.217   1.897  0.3260 -0.2535 -0.3469
    1SOL    MW4 4312   2.004   2.302   1.879 -0.4702 -0.0041  0.4539
    1SOL     OW 4313   1.763   2.441   1.940  0.1241  0.6020  0.3517
    1SOL    HW2 4314   1.774   2.449   2.035 -1.8203 -0.3984  0.6970
    1SOL    HW3 4315   1.843   2.399   1.910  0.1111 -0.4773  1.7600
    1SOL    MW4 4316   1.775   2.437   1.949 -0.1342  0.3276  0.5831
    1SOL     OW 4317   1.777   2.715   1.886 -0.2621  0.1058 -0.3309
    1SOL    HW2 4318   1.759   2.626   1.916 -0.5124 -0.0684 -0.9839
    1SOL    HW3 4319   1.770   2.709   1.791  1.3049  0.4672 -0.4847
    1SOL    MW4 4320   1.774   2.702   1.878 -0.0885  0.1304 -0.4374
    1SOL     OW 4321   2.009   2.831   1.983 -0.1498 -0.2237  0.0086
    1SOL    HW2 4322   1.998   2.840   2.078  1.9044 -0.3158  0.2943
    1SOL    HW3 4323   1.925   2.799   1.952 -0.6585 -0.8184  1.9018
    1SOL    MW4 4324   1.997   2.828   1.992  0.0540 -0.3142  0.2960
    1SOL     OW 4325   2.012   3.088   1.849  0.3784 -0.1136 -0.4000
    1SOL    HW2 4326   1.936   3.122   1.896  0.3880  0.3255 -0.7029
    1SOL    HW3 4327   2.031   3.005   1.892  0.3788  0.2791  0.3697
    1SOL    MW4 4328   2.004   3.082   1.861  0.3796 -0.0041 -0.3384
    1SOL     OW 4329   1.820   3.227   1.987 -0.0333 -0.2991 -0.4596
    1SOL    HW2 4330   1.804   3.222   2.081 -1.0627  1.6460 -0.5044
    1SOL    HW3 4331   1.742   3.188   1.947 -0.3015  0.2990 -0.5247
    1SOL    MW4 4332   1.807   3.221   1.994 -0.2046  0.0367 -0.4741
    1SOL     OW 4333   1.821   3.488   1.865  0.6347  0.1302 -0.1708
    1SOL    HW2 4334   1.805   3.401   1.901  1.8746 -1.0346 -2.2867
    1SOL    HW3 4335   1.753   3.543   1.903  2.2850 -0.8087  4.4071
    1SOL    MW4 4336   1.810   3.484   1.875  1.0161 -0.1473  0.1539
    1SOL     OW 4337   2.017   3.614   2.028  0.2639 -0.7563 -0.4608
    1SOL    HW2 4338   2.003   3.613   2.123 -1.0480  0.9167 -0.5902
    1SOL    HW3 4339   1.938   3.573   1.992 -0.6860  1.3966 -0.9179
    1SOL    MW4 4340   2.004   3.609   2.036 -0.0343 -0.2515 -0.5383
    1SOL     OW 4341   2.032   3.892   1.909  0.0628  0.0833  0.0784
    1SOL    HW2 4342   2.111   3.932   1.944 -1.0734  0.2892  2.4730
    1SOL    HW3 4343   2.030   3.804   1.948 -0.4160 -0.2599 -0.7040
    1SOL    MW4 4344   2.042   3.885   1.919 -0.1502  0.0651  0.2911
    1SOL     OW 4345   1.767   4.000   2.005  0.0707  0.0139 -0.0047
    1SOL    HW2 4346   1.775   4.093   1.980  1.6927  0.9740  3.7583
    1SOL    HW3 4347   1.855   3.965   1.991  0.2433 -0.1629  1.5025
    1SOL    MW4 4348   1.780   4.008   2.000  0.3076  0.1173  0.6909
    1SOL     OW 4349   1.800   4.261   1.916  0.6568  0.3774  0.5319
    1SOL    HW2 4350   1.712   4.287   1.943 -0.2124  0.1024 -1.9152
    1SOL    HW3 4351   1.804   4.281   1.823  2.2279 -2.1353 -0.0066
    1SOL    MW4 4352   1.789   4.267   1.907  0.7495  0.0100  0.1378
    1SOL     OW 4353   2.023   4.409   2.010  0.0967  0.3948 -0.1655
    1SOL    HW2 4354   2.096   4.353   1.982  0.3189  0.0535  1.0554
    1SOL    HW3 4355   1.945   4.364   1.978  0.3085 -0.3108  0.3095
    1SOL    MW4 4356   2.022   4.396   2.002  0.1538  0.2565  0.0582
    1SOL     OW 4357   2.461   4.660   1.875  0.1667 -0.4048 -0.1518
    1SOL    HW2 4358   2.536   4.701   1.918  0.6821 -0.4719 -0.9874
    1SOL    HW3 4359   2.473   4.567   1.890 -0.8204 -0.2967  1.4450
    1SOL    MW4 4360   2.472   4.653   1.883  0.1042 -0.3994 -0.0513
    1SOL     OW 4361   2.224   0.105   1.965  0.3524  0.1555 -0.3518
    1SOL    HW2 4362   2.219   0.090   2.059  0.4336  0.6176 -0.2741
    1SOL    HW3 4363   2.303   0.059   1.937  0.6359  0.4915 -0.1042
    1SOL    MW4 4364   2.234   0.097   1.974  0.4005  0.2608 -0.3089
    1SOL     OW 4365   2.222   0.349   1.828 -0.1272  0.0269 -0.6001
    1SOL    HW2 4366   2.229   0.276   1.889 -0.7141  1.2635  0.9835
    1SOL    HW3 4367   2.157   0.408   1.868  0.7912  1.7147 -1.5254
    1SOL    MW4 4368   2.214   0.347   1.841 -0.0834  0.4128 -0.5132
    1SOL     OW 4369   2.431   0.478   1.937  0.4972  0.5009 -0.2430
    1SOL    HW2 4370   2.508   0.427   1.909 -0.1243 -0.6677  0.1493
    1SOL    HW3 4371   2.356   0.426   1.908 -0.1503  1.5801 -0.5123
    1SOL    MW4 4372   2.431   0.464   1.929  0.3297  0.4891 -0.2269
    1SOL     OW 4373   2.448   0.740   1.884 -0.2281 -0.2604 -0.2434
    1SOL    HW2 4374   2.432   0.645   1.889  0.9747 -0.4541  0.2517
    1SOL    HW3 4375   2.472   0.756   1.793 -0.8218 -0.3626 -0.4201
    1SOL    MW4 4376   2.449   0.729   1.873 -0.1481 -0.2995 -0.2015
    1SOL     OW 4377   2.212   0.861   1.979 -0.1111  0.2515 -0.1897
    1SOL    HW2 4378   2.206   0.843   2.073 -0.7130 -0.3795 -0.3480
    1SOL    HW3 4379   2.292   0.816   1.952 -0.4758 -0.4122 -0.1715
    1SOL    MW4 4380   2.222   0.853   1.988 -0.2387  0.0806 -0.2081
    1SOL     OW 4381   2.248   1.126   1.885  0.0350  0.4591 -0.1888
    1SOL    HW2 4382   2.333   1.161   1.912  0.6065 -0.2590 -1.0377
    1SOL    HW3 4383   2.247   1.036   1.920 -0.6603  0.6904  0.4006
    1SOL    MW4 4384   2.259   1.119   1.893  0.0186  0.3948 -0.2233
    1SOL     OW 4385   2.517   1.217   1.947 -0.3047 -0.6331  0.1432
    1SOL    HW2 4386   2.504   1.211   2.042  0.4642 -0.5890  0.2528
    1SOL    HW3 4387   2.515   1.310   1.928 -2.1668 -0.7069 -0.1348
    1SOL    MW4 4388   2.515   1.228   1.957 -0.4489 -0.6371  0.1210
    1SOL     OW 4389   2.486   1.491   1.887  0.1549 -0.2011 -0.1074
    1SOL    HW2 4390   2.411   1.536   1.926  0.0595  0.1004 -0.6430
    1SOL    HW3 4391   2.472   1.497   1.793  0.4644 -0.8101 -0.1941
    1SOL    MW4 4392   2.474   1.498   1.880  0.1831 -0.2418 -0.1895
    1SOL     OW 4393   2.253   1.636   1.972 -0.2556  0.1155  0.1456
    1SOL    HW2 4394   2.261   1.648   2.066 -1.1004 -1.1404  0.3961
    1SOL    HW3 4395   2.167   1.595   1.960 -0.3427  0.6620 -1.2023
    1SOL    MW4 4396   2.243   1.632   1.983 -0.3786  0.0218  0.0008
    1SOL     OW 4397   2.233   1.898   1.867 -0.6262 -0.3960  0.3220
    1SOL    HW2 4398   2.310   1.941   1.904  0.3588 -1.6713 -0.2096
    1SOL    HW3 4399   2.233   1.811   1.906 -2.2674 -0.1454  0.9306
    1SOL    MW4 4400   2.243   1.892   1.877 -0.7129 -0.5311  0.3321
    1SOL     OW 4401   2.444   2.018   1.977  0.4776 -0.0629 -0.4316
    1SOL    HW2 4402   2.525   1.984   1.940  0.7124 -0.1076  0.1173
    1SOL    HW3 4403   2.468   2.047   2.065  0.1208  0.8285 -0.6155
    1SOL    MW4 4404   2.458   2.017   1.984  0.4616  0.0489 -0.3835
    1SOL     OW 4405   2.486   2.290   1.878  0.0869  0.0042 -0.0610
    1SOL    HW2 4406   2.478   2.201   1.912 -0.4871 -0.5916 -1.7110
    1SOL    HW3 4407   2.403   2.331   1.900  0.8636  0.5818  1.9061
    1SOL    MW4 4408   2.474   2.283   1.885  0.1137  0.0019 -0.0191
    1SOL     OW 4409   2.241   2.414   1.970 -0.2325 -0.3484  0.0287
    1SOL    HW2 4410   2.247   2.428   2.064  0.2950  0.5274 -0.1292
    1SOL    HW3 4411   2.237   2.502   1.932  2.5535 -0.5641 -0.9450
    1SOL    MW4 4412   2.242   2.427   1.977  0.2046 -0.2613 -0.1204
    1SOL     OW 4413   2.245   2.672   1.872 -0.1087  0.1987  0.0985
    1SOL    HW2 4414   2.165   2.717   1.898 -1.3455 -2.4715  1.1949
    1SOL    HW3 4415   2.240   2.668   1.777 -1.3311  0.0488  0.1542
    1SOL    MW4 4416   2.234   2.677   1.863 -0.4332 -0.1736  0.2506
    1SOL     OW 4417   2.469   2.811   1.953 -0.1106 -0.6524 -0.6182
    1SOL    HW2 4418   2.472   2.906   1.941  2.0470 -0.6824 -0.4406
    1SOL    HW3 4419   2.382   2.786   1.923 -1.0009  1.4847  0.0945
    1SOL    MW4 4420   2.458   2.820   1.947  0.0565 -0.3743 -0.5008
    1SOL     OW 4421   2.481   3.088   1.867 -0.1150 -0.2812 -0.2941
    1SOL    HW2 4422   2.396   3.128   1.887 -0.9387 -0.7441 -2.6912
    1SOL    HW3 4423   2.481   3.079   1.772  3.0843  0.6874 -0.4301
    1SOL    MW4 4424   2.469   3.092   1.857  0.1984 -0.2146 -0.6282
    1SOL     OW 4425   2.239   3.223   1.927 -0.5420  0.4695 -0.2070
    1SOL    HW2 4426   2.235   3.228   2.023 -0.0620 -0.0968 -0.1614
    1SOL    HW3 4427   2.153   3.187   1.902 -0.6276  0.5175  0.0131
    1SOL    MW4 4428   2.227   3.219   1.937 -0.4900  0.4013 -0.1719
    1SOL     OW 4429   2.218   3.501   1.863 -0.8354  0.2920  0.2665
    1SOL    HW2 4430   2.223   3.411   1.895  0.8504  0.5949  0.8991
    1SOL    HW3 4431   2.153   3.543   1.919  0.7366  0.3192  2.1074
    1SOL    MW4 4432   2.210   3.494   1.874 -0.4058  0.3357  0.5929
    1SOL     OW 4433   2.450   3.583   1.983 -0.2795 -0.1729 -0.0275
    1SOL    HW2 4434   2.450   3.561   2.076 -0.6358  0.8842  0.2299
    1SOL    HW3 4435   2.363   3.557   1.952 -0.4505  0.2112  0.1219
    1SOL    MW4 4436   2.438   3.577   1.991 -0.3490  0.0172  0.0261
    1SOL     OW 4437   2.502   3.848   1.902  0.2153  0.1826  0.1826
    1SOL    HW2 4438   2.434   3.903   1.940  0.8230 -0.0855  1.7085
    1SOL    HW3 4439   2.479   3.759   1.929  0.0568 -0.1515 -1.0171
    1SOL    MW4 4440   2.490   3.844   1.911  0.2747  0.1030  0.2258
    1SOL     OW 4441   2.285   4.000   1.986 -0.1381  0.7023  0.6466
    1SOL    HW2 4442   2.277   4.009   2.081  1.0092  0.6222  0.7547
    1SOL    HW3 4443   2.265   4.087   1.952 -0.5481  0.7331  0.9580
    1SOL    MW4 4444   2.281   4.013   1.994 -0.0410  0.6962  0.7020
    1SOL     OW 4445   2.234   4.262   1.894 -0.2013  0.3991 -0.1659
    1SOL    HW2 4446   2.312   4.307   1.927  0.1537 -0.5109  0.2513
    1SOL    HW3 4447   2.238   4.275   1.799 -0.3933  1.6938 -0.0103
    1SOL    MW4 4448   2.245   4.269   1.885 -0.1795  0.4497 -0.0902
    1SOL     OW 4449   2.452   4.404   1.983 -0.5897 -0.0800 -0.2314
    1SOL    HW2 4450   2.456   4.405   2.079  1.5374 -0.7338 -0.2840
    1SOL    HW3 4451   2.517   4.339   1.958  0.3969  1.6304 -2.1976
    1SOL    MW4 4452   2.461   4.396   1.993 -0.1791  0.0601 -0.4977
    1SOL     OW 4453   2.925   4.649   1.852 -0.3920 -0.2905 -0.0738
    1SOL    HW2 4454   2.996   4.692   1.899  0.5456  0.1714 -1.8590
    1SOL    HW3 4455   2.922   4.561   1.889 -1.4853  0.8495  2.7188
    1SOL    MW4 4456   2.934   4.643   1.863 -0.4125 -0.0792  0.0590
    1SOL     OW 4457   2.712   0.112   1.964 -0.1206 -0.2008  0.2110
    1SOL    HW2 4458   2.720   0.114   2.060 -1.4605 -0.3617  0.3303
    1SOL    HW3 4459   2.787   0.059   1.935  0.2661 -0.1913  1.1651
    1SOL    MW4 4460   2.723   0.105   1.973 -0.2463 -0.2208  0.3526
    1SOL     OW 4461   2.704   0.355   1.851 -0.0613  0.0927 -0.3241
    1SOL    HW2 4462   2.770   0.406   1.898 -0.5443 -0.2616  0.7502
    1SOL    HW3 4463   2.720   0.265   1.877 -1.0599  0.0191  0.0571
    1SOL    MW4 4464   2.714   0.350   1.861 -0.2570  0.0362 -0.1320
    1SOL     OW 4465   2.906   0.486   1.993 -0.3288 -0.2311  0.0285
    1SOL    HW2 4466   2.988   0.453   1.957  0.6558 -0.4195  2.3309
    1SOL    HW3 4467   2.900   0.577   1.962  0.0261 -0.6531 -1.2929
    1SOL    MW4 4468   2.916   0.494   1.984 -0.1521 -0.3117  0.1581
    1SOL     OW 4469   2.907   0.721   1.868 -0.0249  0.2305 -0.2417
    1SOL    HW2 4470   2.981   0.772   1.899 -0.6352  0.3429  1.0522
    1SOL    HW3 4471   2.831   0.759   1.911 -0.7386 -0.4402 -0.8733
    1SOL    MW4 4472   2.907   0.732   1.878 -0.1993  0.1569 -0.1544
    1SOL     OW 4473   2.686   0.850   1.977  0.2625  0.0710  0.1341
    1SOL    HW2 4474   2.703   0.932   1.931  1.4884 -0.1960  0.1153
    1SOL    HW3 4475   2.602   0.820   1.942  0.8673  0.2088 -1.4348
    1SOL    MW4 4476   2.677   0.857   1.967  0.5043  0.0539 -0.0755
    1SOL     OW 4477   2.732   1.105   1.827 -0.4091 -0.0990 -0.0494
    1SOL    HW2 4478   2.660   1.161   1.855  1.2926  1.4600  1.2740
    1SOL    HW3 4479   2.728   1.107   1.732  0.0325  2.8517 -0.0465
    1SOL    MW4 4480   2.722   1.113   1.818 -0.1264  0.4960  0.1256
    1SOL     OW 4481   2.918   1.263   1.932  0.1561 -0.1987  0.2481
    1SOL    HW2 4482   2.911   1.356   1.912  0.6275  0.0833  1.3477
    1SOL    HW3 4483   2.846   1.222   1.884  0.0491  0.7061 -0.3749
    1SOL    MW4 4484   2.908   1.270   1.923  0.2041 -0.0421  0.3110
    1SOL     OW 4485   2.919   1.539   1.868 -0.1156 -0.3082  0.1070
    1SOL    HW2 4486   3.006   1.572   1.888 -0.2657 -0.0935  0.4036
    1SOL    HW3 4487   2.919   1.528   1.772  0.2088 -0.2405  0.0983
    1SOL    MW4 4488   2.930   1.542   1.858 -0.0927 -0.2710  0.1451
    1SOL     OW 4489   2.694   1.676   1.959  0.1202 -0.5255 -0.2485
    1SOL    HW2 4490   2.774   1.638   1.923  0.0069  0.7050 -1.8649
    1SOL    HW3 4491   2.626   1.611   1.941  0.2853 -0.4331 -1.2771
    1SOL    MW4 4492   2.695   1.662   1.952  0.1271 -0.3510 -0.5975
    1SOL     OW 4493   2.686   1.932   1.865 -0.4529 -0.2306  0.3319
    1SOL    HW2 4494   2.769   1.975   1.887 -0.5783  0.3649 -0.3652
    1SOL    HW3 4495   2.701   1.840   1.887  0.3667 -0.1172  0.2776
    1SOL    MW4 4496   2.699   1.925   1.871 -0.3614 -0.1370  0.2327
    1SOL     OW 4497   2.953   2.046   1.923 -0.0398 -0.2600  0.0889
    1SOL    HW2 4498   2.944   2.043   2.019  0.8937  0.4394  0.2082
    1SOL    HW3 4499   3.035   2.000   1.906  0.1225  0.1865 -0.3229
    1SOL    MW4 4500   2.963   2.039   1.934  0.1049 -0.1087  0.0503
    1SOL     OW 4501   2.921   2.301   1.837  0.2150 -0.2230 -0.4066
    1SOL    HW2 4502   3.000   2.345   1.869 -0.1634 -0.1147  0.4012
    1SOL    HW3 4503   2.924   2.214   1.878 -0.2557 -0.0940 -0.0873
    1SOL    MW4 4504   2.931   2.296   1.847  0.1028 -0.1915 -0.2577
    1SOL     OW 4505   2.711   2.434   1.977  0.1676 -0.2140  0.0297
    1SOL    HW2 4506   2.640   2.383   1.937  0.3707  0.8637 -1.7374
    1SOL    HW3 4507   2.791   2.388   1.951  0.3775  1.2708 -1.9713
    1SOL    MW4 4508   2.712   2.421   1.968  0.2222  0.1242 -0.4674
    1SOL     OW 4509   2.697   2.679   1.842 -0.1366  0.0768 -0.1013
    1SOL    HW2 4510   2.704   2.611   1.910  0.4635 -0.1320 -0.3626
    1SOL    HW3 4511   2.636   2.743   1.877 -1.3308 -0.9993 -0.1766
    1SOL    MW4 4512   2.690   2.678   1.855 -0.2151 -0.0930 -0.1457
    1SOL     OW 4513   2.908   2.834   1.952 -0.2568  0.1931  0.1255
    1SOL    HW2 4514   2.916   2.919   1.909 -0.9829  0.0829 -0.2440
    1SOL    HW3 4515   2.835   2.792   1.907  1.4346 -1.4808 -1.1306
    1SOL    MW4 4516   2.899   2.840   1.940 -0.1295 -0.0424 -0.0889
    1SOL     OW 4517   2.943   3.110   1.845  0.5179  0.1116 -0.3244
    1SOL    HW2 4518   3.020   3.141   1.892  1.3510  0.2363 -1.7439
    1SOL    HW3 4519   2.870   3.159   1.883  1.4579  1.7705 -0.6160
    1SOL    MW4 4520   2.944   3.121   1.856  0.7517  0.3469 -0.5503
    1SOL     OW 4521   2.712   3.217   1.977  0.0165  0.0433  0.3318
    1SOL    HW2 4522   2.709   3.310   1.952 -1.0132  0.0646  0.4892
    1SOL    HW3 4523   2.631   3.181   1.940  0.0301 -0.6155  0.9493
    1SOL    MW4 4524   2.701   3.225   1.969 -0.1178 -0.0405  0.4340
    1SOL     OW 4525   2.715   3.482   1.898  0.1358  0.1494  0.0708
    1SOL    HW2 4526   2.786   3.543   1.918 -0.4274  0.4932  1.1063
    1SOL    HW3 4527   2.635   3.532   1.918 -0.3600 -0.6182  0.0344
    1SOL    MW4 4528   2.714   3.497   1.903 -0.0041  0.0937  0.2025
    1SOL     OW 4529   2.927   3.639   1.969 -0.6994 -0.5193 -0.3683
    1SOL    HW2 4530   2.925   3.631   2.064 -1.9149 -1.0931 -0.4315
    1SOL    HW3 4531   3.004   3.588   1.942  1.2063  1.8000  0.4715
    1SOL    MW4 4532   2.937   3.631   1.978 -0.6084 -0.2892 -0.2661
    1SOL     OW 4533   2.915   3.892   1.850  0.0964 -0.1027 -0.3844
    1SOL    HW2 4534   2.926   3.802   1.880 -3.2761 -1.0054 -1.6779
    1SOL    HW3 4535   2.905   3.885   1.755  0.1497  1.6905 -0.5438
    1SOL    MW4 4536   2.915   3.879   1.842 -0.3414  0.0145 -0.5761
    1SOL     OW 4537   2.705   4.005   1.997 -0.0784  0.1296  0.1369
    1SOL    HW2 4538   2.780   3.975   1.945  0.1332 -0.0298  0.5338
    1SOL    HW3 4539   2.629   3.960   1.958  0.0768  0.0388 -0.0578
    1SOL    MW4 4540   2.704   3.995   1.985 -0.0300  0.0968  0.1636
    1SOL     OW 4541   2.661   4.257   1.875  0.6662 -0.1623 -0.1892
    1SOL    HW2 4542   2.694   4.179   1.920  1.4566  0.2178 -0.1109
    1SOL    HW3 4543   2.678   4.240   1.782  0.4006 -0.2909 -0.2149
    1SOL    MW4 4544   2.667   4.244   1.869  0.7358 -0.1292 -0.1823
    1SOL     OW 4545   2.893   4.394   1.933  0.1184 -0.0372  0.3505
    1SOL    HW2 4546   2.888   4.410   2.028 -0.0136  0.5516  0.2451
    1SOL    HW3 4547   2.815   4.343   1.913 -1.1408  1.9259  0.1488
    1SOL    MW4 4548   2.882   4.389   1.943 -0.0651  0.2999  0.3101
    1SOL     OW 4549   3.350   4.661   1.885 -0.6152  0.0872  0.0483
    1SOL    HW2 4550   3.361   4.575   1.923  1.0159  0.3381  0.1455
    1SOL    HW3 4551   3.360   4.647   1.791  1.5079  0.4691  0.2130
    1SOL    MW4 4552   3.353   4.648   1.877 -0.1199  0.1702  0.0829
    1SOL     OW 4553   3.121   0.121   1.972 -0.1399 -0.8342  0.2388
    1SOL    HW2 4554   3.138   0.100   2.064 -0.1755 -1.9744 -0.0122
    1SOL    HW3 4555   3.196   0.085   1.924  0.6826  1.1604 -0.0293
    1SOL    MW4 4556   3.133   0.114   1.978 -0.0362 -0.7215  0.1704
    1SOL     OW 4557   3.137   0.377   1.859  0.0856 -0.1944 -0.1439
    1SOL    HW2 4558   3.149   0.291   1.897 -0.1533  0.1548  0.7280
    1SOL    HW3 4559   3.135   0.362   1.764  1.5332 -0.9479 -0.0528
    1SOL    MW4 4560   3.138   0.364   1.851  0.2453 -0.2478 -0.0169
    1SOL     OW 4561   3.375   0.522   1.938  0.2277  0.0197  0.1901
    1SOL    HW2 4562   3.440   0.455   1.917 -0.2359 -0.4033  0.0990
    1SOL    HW3 4563   3.290   0.479   1.925 -0.0731  0.5340  0.4118
    1SOL    MW4 4564   3.372   0.507   1.934  0.1271  0.0318  0.2073
    1SOL     OW 4565   3.357   0.797   1.848  0.7918 -0.9071  0.6014
    1SOL    HW2 4566   3.268   0.819   1.875  0.5882 -1.3908  0.3335
    1SOL    HW3 4567   3.371   0.708   1.881  0.5097 -1.5486 -0.9427
    1SOL    MW4 4568   3.347   0.788   1.856  0.7277 -1.0556  0.3624
    1SOL     OW 4569   3.119   0.876   1.968 -0.0502 -0.6086 -0.2104
    1SOL    HW2 4570   3.103   0.898   2.060 -0.6267 -0.7288 -0.2770
    1SOL    HW3 4571   3.125   0.961   1.924  2.6499 -0.4853  0.3146
    1SOL    MW4 4572   3.118   0.890   1.974  0.2298 -0.6082 -0.1500
    1SOL     OW 4573   3.153   1.139   1.848 -0.5092 -0.0253 -0.0333
    1SOL    HW2 4574   3.236   1.173   1.881  0.0355 -1.8433  0.5326
    1SOL    HW3 4575   3.087   1.199   1.883  0.3660  0.1017  1.4311
    1SOL    MW4 4576   3.155   1.152   1.857 -0.3216 -0.2486  0.2345
    1SOL     OW 4577   3.384   1.240   1.948 -0.6175  0.3752  0.0224
    1SOL    HW2 4578   3.396   1.230   2.042  0.6262 -0.4864 -0.2143
    1SOL    HW3 4579   3.386   1.335   1.933 -0.6903  0.5073  0.8353
    1SOL    MW4 4580   3.386   1.252   1.958 -0.4628  0.2789  0.0985
    1SOL     OW 4581   3.408   1.513   1.853 -0.2884  0.9647 -0.4975
    1SOL    HW2 4582   3.482   1.563   1.888 -0.5288  1.6172 -0.8947
    1SOL    HW3 4583   3.331   1.555   1.893 -0.4310  0.1288  0.1109
    1SOL    MW4 4584   3.407   1.525   1.863 -0.3388  0.9404 -0.4698
    1SOL     OW 4585   3.178   1.622   1.958  0.1972  0.3444  0.3063
    1SOL    HW2 4586   3.168   1.649   2.050 -0.8317 -1.9397  0.8910
    1SOL    HW3 4587   3.176   1.704   1.909 -0.8539  1.4911  2.2046
    1SOL    MW4 4588   3.176   1.637   1.964 -0.0770  0.1943  0.6340
    1SOL     OW 4589   3.164   1.868   1.833 -0.0618 -0.0718  0.2639
    1SOL    HW2 4590   3.239   1.926   1.848 -0.4022  0.1482  1.1865
    1SOL    HW3 4591   3.142   1.881   1.741  0.3354  0.7050  0.2695
    1SOL    MW4 4592   3.171   1.878   1.823 -0.0544  0.0597  0.3864
    1SOL     OW 4593   3.377   2.038   1.931 -0.7677 -0.4068  0.1065
    1SOL    HW2 4594   3.451   1.993   1.889  0.3669 -0.4807  2.1164
    1SOL    HW3 4595   3.379   2.126   1.893  0.2898 -0.4445  0.0438
    1SOL    MW4 4596   3.387   2.044   1.921 -0.4785 -0.4215  0.3632
    1SOL     OW 4597   3.389   2.292   1.844  0.1385  0.4766 -0.1602
    1SOL    HW2 4598   3.317   2.338   1.887 -1.9683 -1.9624 -0.9876
    1SOL    HW3 4599   3.375   2.307   1.751  2.1215  1.9995 -0.2386
    1SOL    MW4 4600   3.378   2.300   1.837  0.1221  0.3557 -0.2798
    1SOL     OW 4601   3.156   2.448   1.936 -0.5942  0.0789 -0.4246
    1SOL    HW2 4602   3.179   2.433   2.027  0.3200 -0.6164 -0.7598
    1SOL    HW3 4603   3.174   2.541   1.921  0.6635 -0.1350 -0.2887
    1SOL    MW4 4604   3.161   2.458   1.946 -0.3076 -0.0410 -0.4510
    1SOL     OW 4605   3.133   2.717   1.858  0.1941 -0.3479 -0.6561
    1SOL    HW2 4606   3.057   2.762   1.895 -0.5001 -1.0454 -1.2414
    1SOL    HW3 4607   3.122   2.725   1.763  0.2774 -1.4127 -0.7576
    1SOL    MW4 4608   3.122   2.724   1.850  0.1132 -0.5805 -0.7467
    1SOL     OW 4609   3.380   2.844   1.917 -0.1334 -0.6830 -0.4117
    1SOL    HW2 4610   3.391   2.851   2.011 -0.4012  2.3885 -0.5576
    1SOL    HW3 4611   3.296   2.800   1.905  0.6181 -2.4993  0.7272
    1SOL    MW4 4612   3.370   2.839   1.928 -0.0696 -0.5176 -0.2806
    1SOL     OW 4613   3.366   3.100   1.822  0.1378 -0.2606  0.5163
    1SOL    HW2 4614   3.454   3.130   1.843 -0.0666 -0.4599  1.6736
    1SOL    HW3 4615   3.364   3.009   1.853 -0.6836 -0.0546  1.0584
    1SOL    MW4 4616   3.378   3.092   1.829  0.0026 -0.2596  0.7406
    1SOL     OW 4617   3.147   3.233   1.978 -0.0139  0.1189 -0.0452
    1SOL    HW2 4618   3.156   3.324   1.949  0.6937 -0.3330 -1.2331
    1SOL    HW3 4619   3.228   3.191   1.951  0.8150 -0.2582  2.8493
    1SOL    MW4 4620   3.159   3.240   1.971  0.1888  0.0098  0.1798
    1SOL     OW 4621   3.141   3.489   1.898 -0.2921  0.2065  0.0949
    1SOL    HW2 4622   3.209   3.548   1.929 -0.4621  0.7283 -0.5113
    1SOL    HW3 4623   3.156   3.483   1.804 -2.0389  1.6027 -0.3135
    1SOL    MW4 4624   3.152   3.496   1.890 -0.5448  0.4599 -0.0390
    1SOL     OW 4625   3.359   3.646   1.984  0.2225 -0.1822 -0.2817
    1SOL    HW2 4626   3.427   3.599   1.936  1.0742  0.8335 -0.0932
    1SOL    HW3 4627   3.361   3.735   1.948  0.9704  0.6450  1.6942
    1SOL    MW4 4628   3.368   3.652   1.973  0.4337  0.0608  0.0039
    1SOL     OW 4629   3.381   3.901   1.887 -0.2096 -0.3020  0.1987
    1SOL    HW2 4630   3.309   3.964   1.900 -0.0716  0.0038 -0.4964
    1SOL    HW3 4631   3.377   3.880   1.794  0.2828 -0.6790  0.2655
    1SOL    MW4 4632   3.371   3.907   1.876 -0.1264 -0.3114  0.1158
    1SOL     OW 4633   3.141   4.034   1.954  0.2035 -0.1244 -0.3541
    1SOL    HW2 4634   3.121   4.039   2.048  0.6737  0.0885 -0.2631
    1SOL    HW3 4635   3.071   3.980   1.918 -0.8585  1.0647 -0.1367
    1SOL    MW4 4636   3.129   4.028   1.962  0.1254  0.0606 -0.3134
    1SOL     OW 4637   3.149   4.313   1.848  0.1116  0.0472  0.8124
    1SOL    HW2 4638   3.149   4.227   1.890 -0.9283 -0.3855 -0.0511
    1SOL    HW3 4639   3.067   4.353   1.877 -1.0621 -0.6035 -1.4488
    1SOL    MW4 4640   3.138   4.307   1.857 -0.1802 -0.0954  0.4003
    1SOL     OW 4641   3.355   4.407   2.000  0.5409 -0.2586  0.2265
    1SOL    HW2 4642   3.437   4.377   1.960  1.4836  0.4675  1.5786
    1SOL    HW3 4643   3.287   4.365   1.948  1.7841 -1.6891 -0.2955
    1SOL    MW4 4644   3.357   4.398   1.988  0.8292 -0.3519  0.3361
    1SOL     OW 4645   3.819   0.003   1.926  0.1990 -0.0145  0.3211
    1SOL    HW2 4646   3.815  -0.087   1.958  1.2704 -1.6171 -3.6809
    1SOL    HW3 4647   3.733   0.040   1.948 -0.9522 -2.6345  0.4244
    1SOL    MW4 4648   3.807  -0.004   1.933  0.1886 -0.5713 -0.1934
    1SOL     OW 4649   3.587   0.112   2.006  0.4207  0.2669  0.3288
    1SOL    HW2 4650   3.579   0.107   2.101  0.2304  0.7964  0.3411
    1SOL    HW3 4651   3.509   0.069   1.973  0.0246  0.9146  0.4191
    1SOL    MW4 4652   3.576   0.106   2.014  0.3431  0.4222  0.3424
    1SOL     OW 4653   3.583   0.355   1.904 -0.1296  0.3823 -0.0743
    1SOL    HW2 4654   3.569   0.266   1.938  0.2926  0.3908  0.1201
    1SOL    HW3 4655   3.590   0.343   1.809 -2.3664  0.4780 -0.2876
    1SOL    MW4 4656   3.582   0.341   1.896 -0.3688  0.3960 -0.0769
    1SOL     OW 4657   3.813   0.476   1.995  0.0296  0.2773 -0.5365
    1SOL    HW2 4658   3.794   0.565   1.966 -0.4611 -0.0992 -1.4174
    1SOL    HW3 4659   3.734   0.426   1.971 -0.5446  0.0226  1.8038
    1SOL    MW4 4660   3.800   0.481   1.988 -0.1109  0.1940 -0.3439
    1SOL     OW 4661   3.807   0.746   1.924  0.0737 -0.0065 -0.4669
    1SOL    HW2 4662   3.724   0.789   1.940  0.1822  0.1426 -0.3096
    1SOL    HW3 4663   3.815   0.744   1.828  0.7214  1.5675 -0.4529
    1SOL    MW4 4664   3.797   0.751   1.913  0.1733  0.2209 -0.4444
    1SOL     OW 4665   3.572   0.886   2.017  0.2992 -0.5581  0.0590
    1SOL    HW2 4666   3.602   0.964   1.971 -1.2235  0.0436  0.0544
    1SOL    HW3 4667   3.495   0.857   1.968 -1.3616  0.1008  2.1613
    1SOL    MW4 4668   3.565   0.893   2.004 -0.1211 -0.3918  0.3359
    1SOL     OW 4669   3.613   1.126   1.846  0.3093  0.0553 -1.2360
    1SOL    HW2 4670   3.535   1.172   1.877  0.9719  1.1110 -1.1221
    1SOL    HW3 4671   3.601   1.121   1.751 -0.1346 -0.2452 -1.1699
    1SOL    MW4 4672   3.601   1.131   1.838  0.3381  0.1547 -1.2122
    1SOL     OW 4673   3.820   1.302   1.943  0.5139  0.0680  0.2411
    1SOL    HW2 4674   3.808   1.290   2.037  0.0589 -0.5864  0.1090
    1SOL    HW3 4675   3.747   1.254   1.904  0.5808  0.5112 -0.4395
    1SOL    MW4 4676   3.809   1.294   1.950  0.4625  0.0402  0.1338
    1SOL     OW 4677   3.848   1.543   1.844 -0.5870 -0.1216  0.0111
    1SOL    HW2 4678   3.924   1.583   1.886 -0.7633  0.4950 -0.2397
    1SOL    HW3 4679   3.836   1.460   1.889 -0.0678  0.0051  0.3880
    1SOL    MW4 4680   3.856   1.538   1.855 -0.5419 -0.0237  0.0275
    1SOL     OW 4681   3.610   1.650   1.957  0.0847  0.3719  0.1060
    1SOL    HW2 4682   3.615   1.744   1.935  0.2326  0.6024  1.1348
    1SOL    HW3 4683   3.680   1.610   1.906  0.4295  0.9145  0.1492
    1SOL    MW4 4684   3.620   1.657   1.947  0.1497  0.4740  0.2474
    1SOL     OW 4685   3.618   1.904   1.848  0.1711  0.0804  0.7123
    1SOL    HW2 4686   3.683   1.971   1.869  0.5756 -0.2361  0.4841
    1SOL    HW3 4687   3.624   1.893   1.754 -0.1723  0.0027  0.6971
    1SOL    MW4 4688   3.627   1.911   1.839  0.1793  0.0285  0.6802
    1SOL     OW 4689   3.808   2.068   1.920 -0.5760 -0.0010 -0.2956
    1SOL    HW2 4690   3.893   2.034   1.893 -1.1222 -0.3850 -1.6251
    1SOL    HW3 4691   3.814   2.162   1.906 -1.1238 -0.2793 -2.6679
    1SOL    MW4 4692   3.820   2.076   1.914 -0.7207 -0.0885 -0.7842
    1SOL     OW 4693   3.848   2.339   1.886 -0.5227 -0.5883 -0.1687
    1SOL    HW2 4694   3.914   2.395   1.925 -0.4914 -0.4209 -0.4551
    1SOL    HW3 4695   3.764   2.382   1.906 -0.5339 -0.7192  0.0630
    1SOL    MW4 4696   3.845   2.352   1.894 -0.5200 -0.5834 -0.1760
    1SOL     OW 4697   3.604   2.437   1.938 -0.0952  0.0677 -0.0039
    1SOL    HW2 4698   3.595   2.531   1.928  1.2985  0.0860 -1.2785
    1SOL    HW3 4699   3.526   2.400   1.897 -0.3203  0.6462 -0.0904
    1SOL    MW4 4700   3.593   2.444   1.932  0.0589  0.1466 -0.1835
    1SOL     OW 4701   3.594   2.691   1.855  0.6764 -0.3694  0.0843
    1SOL    HW2 4702   3.667   2.747   1.882 -0.2539  0.7603  0.3540
    1SOL    HW3 4703   3.517   2.749   1.861 -0.3343 -1.7368  0.5401
    1SOL    MW4 4704   3.593   2.706   1.860  0.4203 -0.4005  0.1801
    1SOL     OW 4705   3.814   2.860   1.909  0.1335  0.2597 -0.0188
    1SOL    HW2 4706   3.807   2.849   2.004 -1.6045  1.1753 -0.0165
    1SOL    HW3 4707   3.829   2.954   1.897  0.0510  0.1973 -0.6496
    1SOL    MW4 4708   3.815   2.871   1.920 -0.1066  0.3724 -0.1017
    1SOL     OW 4709   3.839   3.146   1.873  0.0835  0.2722 -0.0596
    1SOL    HW2 4710   3.750   3.178   1.884 -0.2119 -0.4686 -0.2915
    1SOL    HW3 4711   3.858   3.158   1.780 -0.3664 -1.0859 -0.3377
    1SOL    MW4 4712   3.830   3.152   1.862 -0.0150 -0.0050 -0.1268
    1SOL     OW 4713   3.582   3.234   1.918 -0.3832 -0.4117 -0.0901
    1SOL    HW2 4714   3.580   3.226   2.014  1.8480  0.0078  0.0290
    1SOL    HW3 4715   3.562   3.326   1.902  1.1330 -0.0327  0.1028
    1SOL    MW4 4716   3.579   3.245   1.929  0.1113 -0.3061 -0.0490
    1SOL     OW 4717   3.579   3.503   1.887 -0.0830  0.6514 -0.0980
    1SOL    HW2 4718   3.660   3.551   1.906 -1.5061  2.8901  0.5369
    1SOL    HW3 4719   3.573   3.505   1.791  0.6892  0.3339 -0.1585
    1SOL    MW4 4720   3.589   3.510   1.877 -0.1690  0.9048 -0.0223
    1SOL     OW 4721   3.816   3.604   1.997 -0.1960 -0.1023 -0.2680
    1SOL    HW2 4722   3.873   3.553   1.940  1.3152  1.2832 -0.0512
    1SOL    HW3 4723   3.828   3.695   1.968 -1.7622  0.2807  0.2470
    1SOL    MW4 4724   3.825   3.610   1.986 -0.2034  0.1311 -0.1714
    1SOL     OW 4725   3.834   3.880   1.888 -0.2444  0.3733 -0.1186
    1SOL    HW2 4726   3.753   3.915   1.925 -0.9346 -1.0920 -0.2045
    1SOL    HW3 4727   3.823   3.888   1.794 -0.8681 -1.0568 -0.1765
    1SOL    MW4 4728   3.822   3.886   1.881 -0.4177 -0.0086 -0.1376
    1SOL     OW 4729   3.612   4.029   1.977  0.2091  0.1119 -0.1928
    1SOL    HW2 4730   3.605   4.005   2.070  0.4588 -0.1071 -0.2307
    1SOL    HW3 4731   3.541   3.980   1.935  1.0277 -0.9572 -0.3475
    1SOL    MW4 4732   3.602   4.019   1.984  0.3500 -0.0582 -0.2183
    1SOL     OW 4733   3.584   4.288   1.897 -0.0783 -0.1892  0.3113
    1SOL    HW2 4734   3.650   4.340   1.941 -1.7099  1.1041  1.3056
    1SOL    HW3 4735   3.595   4.200   1.934  1.1975 -0.0348  0.3207
    1SOL    MW4 4736   3.594   4.283   1.908 -0.1252  0.0019  0.4437
    1SOL     OW 4737   3.793   4.423   2.002  0.4213  0.3660  0.1376
    1SOL    HW2 4738   3.783   4.405   2.096  1.0577  1.5642  0.4532
    1SOL    HW3 4739   3.883   4.398   1.982 -0.2757 -1.6198 -0.5793
    1SOL    MW4 4740   3.803   4.418   2.012  0.4134  0.2623  0.0849
    1SOL     OW 4741   4.288   4.633   1.918 -0.1504 -0.5120  0.0697
    1SOL    HW2 4742   4.211   4.669   1.962 -0.8324 -2.4680  0.5505
    1SOL    HW3 4743   4.358   4.696   1.936 -0.9407 -0.1827  2.1644
    1SOL    MW4 4744   4.287   4.646   1.926 -0.3448 -0.7267  0.4096
    1SOL     OW 4745   4.062   0.124   2.008  0.6207  0.2349 -0.0627
    1SOL    HW2 4746   4.038   0.121   2.101  0.6086  2.6716  0.0453
    1SOL    HW3 4747   3.981   0.101   1.962  0.4941 -0.4918  0.5069
    1SOL    MW4 4748   4.048   0.120   2.014  0.6022  0.4606  0.0269
    1SOL     OW 4749   4.072   0.388   1.934  0.4558 -0.0888  0.6007
    1SOL    HW2 4750   4.078   0.296   1.959 -1.0254 -0.3793 -0.0150
    1SOL    HW3 4751   3.989   0.417   1.972  0.1495  0.5541 -0.5525
    1SOL    MW4 4752   4.062   0.379   1.942  0.2193 -0.0423  0.3673
    1SOL     OW 4753   4.291   0.550   2.009  0.1308  0.0528 -0.2349
    1SOL    HW2 4754   4.300   0.539   2.104 -0.2674  0.9804 -0.0836
    1SOL    HW3 4755   4.227   0.484   1.983 -0.5163  0.4598  0.3012
    1SOL    MW4 4756   4.284   0.540   2.018 -0.0067  0.2289 -0.1442
    1SOL     OW 4757   4.275   0.806   1.909  0.1073 -0.4447 -0.0624
    1SOL    HW2 4758   4.278   0.718   1.947 -0.7726 -0.3966  0.1284
    1SOL    HW3 4759   4.285   0.793   1.815  1.5636 -0.6237  0.1115
    1SOL    MW4 4760   4.277   0.793   1.902  0.1836 -0.4620 -0.0143
    1SOL     OW 4761   4.036   0.921   1.991 -0.0460  0.2485 -0.3712
    1SOL    HW2 4762   4.108   0.858   1.987  1.0621  1.4183  0.6756
    1SOL    HW3 4763   3.958   0.868   1.977  0.9730 -1.1203 -1.0604
    1SOL    MW4 4764   4.035   0.905   1.989  0.2341  0.2223 -0.3241
    1SOL     OW 4765   4.038   1.166   1.873  0.7802 -0.2660 -0.1969
    1SOL    HW2 4766   4.042   1.082   1.919 -0.4152 -0.5076 -0.5202
    1SOL    HW3 4767   3.965   1.213   1.915 -0.4102 -0.5438 -1.9073
    1SOL    MW4 4768   4.029   1.161   1.885  0.4649 -0.3346 -0.4653
    1SOL     OW 4769   4.266   1.282   1.952 -0.0538 -0.7288 -0.3221
    1SOL    HW2 4770   4.257   1.282   2.047 -1.6207 -2.0583 -0.4401
    1SOL    HW3 4771   4.182   1.251   1.920 -0.9144  3.3513 -2.3242
    1SOL    MW4 4772   4.254   1.278   1.960 -0.3743 -0.3659 -0.6018
    1SOL     OW 4773   4.284   1.548   1.872  0.1520 -0.6034 -0.0132
    1SOL    HW2 4774   4.278   1.456   1.898  2.4339 -1.1812 -1.3200
    1SOL    HW3 4775   4.284   1.545   1.776 -0.0603  0.7832 -0.0598
    1SOL    MW4 4776   4.284   1.535   1.862  0.4253 -0.4966 -0.1917
    1SOL     OW 4777   4.063   1.689   1.938 -0.2916 -0.0523 -0.0327
    1SOL    HW2 4778   4.063   1.685   2.034  1.2823  1.7901  0.0684
    1SOL    HW3 4779   4.148   1.652   1.913  0.7141  2.4763 -0.5198
    1SOL    MW4 4780   4.074   1.683   1.948  0.0482  0.5244 -0.0837
    1SOL     OW 4781   4.041   1.949   1.815  0.5450  0.0365 -0.7732
    1SOL    HW2 4782   4.042   1.858   1.846 -0.3121 -0.0315 -0.9264
    1SOL    HW3 4783   4.025   1.942   1.721 -1.8070  0.4203 -0.4240
    1SOL    MW4 4784   4.039   1.936   1.807  0.1211  0.0782 -0.7473
    1SOL     OW 4785   4.257   2.057   1.956 -0.2071 -0.6344 -0.0539
    1SOL    HW2 4786   4.265   2.030   2.048 -1.3363 -0.6013  0.0598
    1SOL    HW3 4787   4.186   2.003   1.921  0.5661 -1.0095 -1.0493
    1SOL    MW4 4788   4.249   2.046   1.964 -0.2542 -0.6795 -0.1702
    1SOL     OW 4789   4.235   2.321   1.856 -0.0105 -0.5330 -0.0485
    1SOL    HW2 4790   4.244   2.233   1.893 -1.4287  0.0236  1.6795
    1SOL    HW3 4791   4.319   2.363   1.875 -0.4901 -0.4719  2.0095
    1SOL    MW4 4792   4.247   2.315   1.863 -0.2613 -0.4516  0.4510
    1SOL     OW 4793   4.057   2.493   1.999  0.3423 -0.0486 -0.0110
    1SOL    HW2 4794   4.049   2.459   2.088  0.4783  0.7822  0.3238
    1SOL    HW3 4795   4.120   2.435   1.957  0.3975 -0.3496  0.4813
    1SOL    MW4 4796   4.064   2.481   2.005  0.3676  0.0210  0.0980
    1SOL     OW 4797   4.046   2.737   1.862  0.0148  0.1517 -0.0910
    1SOL    HW2 4798   4.043   2.648   1.898  0.5765  0.3223  0.3860
    1SOL    HW3 4799   3.956   2.769   1.870 -0.2290 -0.4417 -0.4387
    1SOL    MW4 4800   4.033   2.730   1.868  0.0567  0.0961 -0.0740
    1SOL     OW 4801   4.272   2.823   2.002  0.1336  0.8966  0.0597
    1SOL    HW2 4802   4.273   2.795   2.094  0.9575  1.0237  0.0910
    1SOL    HW3 4803   4.185   2.799   1.971 -0.6696  2.1671  1.2891
    1SOL    MW4 4804   4.261   2.816   2.010  0.1359  1.0810  0.2258
    1SOL     OW 4805   4.300   3.064   1.844  0.1951  0.0522  0.4984
    1SOL    HW2 4806   4.234   3.118   1.888  0.1033  0.1880  0.1947
    1SOL    HW3 4807   4.298   2.981   1.892 -0.6909 -0.1827  0.0565
    1SOL    MW4 4808   4.291   3.060   1.856  0.0658  0.0391  0.4001
    1SOL     OW 4809   4.085   3.205   1.970 -0.1502  0.3490 -0.5893
    1SOL    HW2 4810   4.081   3.206   2.065  0.5176 -2.1705 -0.5112
    1SOL    HW3 4811   3.996   3.183   1.942  0.4390 -2.4240 -0.4102
    1SOL    MW4 4812   4.073   3.202   1.979  0.0157 -0.3490 -0.5552
    1SOL     OW 4813   4.060   3.480   1.891  0.1587  0.0374 -0.5877
    1SOL    HW2 4814   4.133   3.529   1.927 -0.8508  1.1119  0.0352
    1SOL    HW3 4815   4.073   3.391   1.924  0.4590  0.5131  0.6275
    1SOL    MW4 4816   4.071   3.475   1.900  0.0658  0.2418 -0.3452
    1SOL     OW 4817   4.269   3.870   1.907  0.1055  0.0597  0.3301
    1SOL    HW2 4818   4.345   3.912   1.946  0.4923 -0.3689  0.0427
    1SOL    HW3 4819   4.280   3.777   1.929  0.7117 -0.2973 -1.4345
    1SOL    MW4 4820   4.280   3.863   1.915  0.2365 -0.0439  0.0594
    1SOL     OW 4821   4.188   3.882   1.638  0.5042  0.2958 -0.0765
    1SOL    HW2 4822   4.212   3.875   1.730  0.9279 -0.4902 -0.2438
    1SOL    HW3 4823   4.252   3.942   1.601  0.6703  0.1823  0.0264
    1SOL    MW4 4824   4.199   3.889   1.645  0.5817  0.1771 -0.0852
    1SOL     OW 4825   4.058   4.040   1.966 -0.0533  0.0788  0.1051
    1SOL    HW2 4826   4.132   3.990   1.934  0.0241  0.7614 -0.8122
    1SOL    HW3 4827   3.982   3.985   1.948  0.0536  0.1838 -0.6671
    1SOL    MW4 4828   4.058   4.026   1.960 -0.0296  0.1826 -0.1179
    1SOL     OW 4829   4.047   4.318   1.905 -0.0634 -0.2599 -0.1208
    1SOL    HW2 4830   4.122   4.354   1.951  0.7550 -1.8649 -0.1360
    1SOL    HW3 4831   4.044   4.226   1.933 -2.2935 -0.1022  0.2203
    1SOL    MW4 4832   4.057   4.310   1.915 -0.2499 -0.4516 -0.0776
    1SOL     OW 4833   4.313   4.366   2.014  0.0513  0.1036 -0.0378
    1SOL    HW2 4834   4.291   4.370   2.107 -0.6145 -0.5396 -0.1647
    1SOL    HW3 4835   4.302   4.456   1.983  0.1228  0.2884  0.4618
    1SOL    MW4 4836   4.309   4.378   2.022 -0.0267  0.0434  0.0112
    1SOL     OW 4837   0.177   4.637   2.346 -0.4576 -0.4010  0.2012
    1SOL    HW2 4838   0.177   4.640   2.442  0.3041  1.8661  0.1520
    1SOL    HW3 4839   0.251   4.692   2.320 -0.5840 -1.1001 -1.6884
    1SOL    MW4 4840   0.186   4.645   2.355 -0.3738 -0.1941 -0.0548
    1SOL     OW 4841   4.438   0.108   2.237 -0.1946 -0.3906 -0.2179
    1SOL    HW2 4842   4.499   0.037   2.252 -0.4762 -0.7185 -0.6022
    1SOL    HW3 4843   4.457   0.138   2.148 -1.4741 -1.3787 -0.8421
    1SOL    MW4 4844   4.448   0.103   2.227 -0.4001 -0.5643 -0.3507
    1SOL     OW 4845   0.011   0.385   2.389  0.2771 -0.0761 -0.3101
    1SOL    HW2 4846   0.086   0.435   2.357  1.0215 -1.2065 -0.3739
    1SOL    HW3 4847   0.021   0.299   2.348 -0.7254 -0.4176  0.1534
    1SOL    MW4 4848   0.023   0.380   2.379  0.2427 -0.2703 -0.2575
    1SOL     OW 4849   0.244   0.527   2.303  0.0043  0.2841 -0.1796
    1SOL    HW2 4850   0.324   0.483   2.335 -0.9287 -0.6945  0.8756
    1SOL    HW3 4851   0.243   0.509   2.209 -0.3103 -1.9371  0.2089
    1SOL    MW4 4852   0.254   0.519   2.295 -0.1603 -0.1380  0.0110
    1SOL     OW 4853   0.246   0.795   2.362  0.3585 -0.0574 -0.5966
    1SOL    HW2 4854   0.228   0.807   2.455 -0.8529 -0.1281 -0.8135
    1SOL    HW3 4855   0.247   0.701   2.349 -1.0600 -0.0281 -0.9508
    1SOL    MW4 4856   0.244   0.784   2.373  0.0115 -0.0628 -0.6721
    1SOL     OW 4857   4.483   0.880   2.285  0.0591 -0.1827 -0.4356
    1SOL    HW2 4858   4.574   0.856   2.302  0.0439 -0.2385 -0.4321
    1SOL    HW3 4859   4.480   0.893   2.190  0.5113  1.6844 -0.2160
    1SOL    MW4 4860   4.495   0.879   2.275  0.1168  0.0563 -0.4060
    1SOL     OW 4861   4.456   1.141   2.361 -0.2085  0.7193  0.3130
    1SOL    HW2 4862   4.455   1.139   2.456  1.8377  0.2306  0.3489
    1SOL    HW3 4863   4.458   1.049   2.335  0.7990  0.8620 -0.1497
    1SOL    MW4 4864   4.456   1.128   2.370  0.1941  0.6737  0.2565
    1SOL     OW 4865   0.200   1.284   2.272  0.5355  0.0520 -0.0618
    1SOL    HW2 4866   0.115   1.242   2.281  0.7586 -0.2247  0.7259
    1SOL    HW3 4867   0.197   1.324   2.185 -0.2305 -0.3275 -0.2154
    1SOL    MW4 4868   0.188   1.284   2.262  0.4639 -0.0345  0.0217
    1SOL     OW 4869   0.221   1.516   2.377 -0.1775 -0.0205  0.3395
    1SOL    HW2 4870   0.199   1.512   2.471  0.0420 -1.0284  0.3593
    1SOL    HW3 4871   0.225   1.424   2.350 -1.2276  0.2765 -0.8961
    1SOL    MW4 4872   0.218   1.503   2.386 -0.2871 -0.1143  0.1791
    1SOL     OW 4873   4.486   1.630   2.251 -0.0693 -0.2887 -0.2833
    1SOL    HW2 4874   4.482   1.712   2.301 -1.3496 -0.2046 -0.4975
    1SOL    HW3 4875   4.564   1.586   2.283 -0.4208  0.1404  1.2097
    1SOL    MW4 4876   4.495   1.635   2.261 -0.2842 -0.2210 -0.1147
    1SOL     OW 4877   4.463   1.904   2.387 -0.1618 -0.2978  0.1580
    1SOL    HW2 4878   4.395   1.945   2.334 -0.7503 -1.8979 -0.3599
    1SOL    HW3 4879   4.546   1.933   2.348 -0.5403  1.3694  0.5687
    1SOL    MW4 4880   4.465   1.913   2.375 -0.2899 -0.2891  0.1438
    1SOL     OW 4881   0.186   2.030   2.272 -0.0626 -0.1174 -0.4313
    1SOL    HW2 4882   0.275   2.000   2.290  0.4206  1.2189 -0.5302
    1SOL    HW3 4883   0.184   2.045   2.177 -0.5273 -0.5353 -0.4946
    1SOL    MW4 4884   0.197   2.028   2.262 -0.0601  0.0036 -0.4528
    1SOL     OW 4885   0.227   2.299   2.326  0.0088 -0.1250 -0.6499
    1SOL    HW2 4886   0.251   2.308   2.418  0.4703 -0.7947 -0.7048
    1SOL    HW3 4887   0.200   2.207   2.317 -1.5441  0.3339 -0.8249
    1SOL    MW4 4888   0.226   2.288   2.337 -0.1352 -0.1528 -0.6800
    1SOL     OW 4889   4.469   2.402   2.222 -0.7284 -0.6453  0.4580
    1SOL    HW2 4890   4.459   2.486   2.268  1.5834  0.2416 -0.5887
    1SOL    HW3 4891   4.560   2.378   2.236 -0.9174 -2.1231 -0.7348
    1SOL    MW4 4892   4.480   2.410   2.230 -0.4483 -0.7234  0.1624
    1SOL     OW 4893   4.484   2.654   2.342  0.3131  0.2723  0.2541
    1SOL    HW2 4894   4.482   2.670   2.436 -0.4229 -0.0528  0.2948
    1SOL    HW3 4895   4.544   2.720   2.308  0.4495  0.5010  0.9282
    1SOL    MW4 4896   4.492   2.665   2.350  0.2341  0.2596  0.3481
    1SOL     OW 4897   0.170   2.842   2.249  0.2357  0.1418  0.0759
    1SOL    HW2 4898   0.256   2.810   2.277  1.3907  1.4752 -1.7703
    1SOL    HW3 4899   0.173   2.837   2.153 -0.5984  2.9825 -0.1629
    1SOL    MW4 4900   0.182   2.838   2.240  0.2780  0.6926 -0.1991
    1SOL     OW 4901   0.197   3.108   2.353 -0.1357  0.2697  0.0606
    1SOL    HW2 4902   0.128   3.159   2.311 -0.5342  1.2387  1.8343
    1SOL    HW3 4903   0.181   3.018   2.327 -2.1113  0.4763  0.4927
    1SOL    MW4 4904   0.186   3.103   2.344 -0.4489  0.4249  0.3517
    1SOL     OW 4905   4.453   3.244   2.284  0.1528 -0.1356  0.2330
    1SOL    HW2 4906   4.469   3.335   2.307 -2.0427  0.5805 -0.8828
    1SOL    HW3 4907   4.471   3.239   2.191  1.3426 -1.1269  0.5027
    1SOL    MW4 4908   4.457   3.255   2.275  0.0196 -0.1721  0.1218
    1SOL     OW 4909   0.009   3.521   2.392 -0.0994  0.5338  0.3510
    1SOL    HW2 4910  -0.002   3.489   2.482 -0.7995 -1.4771 -0.4162
    1SOL    HW3 4911  -0.076   3.558   2.369 -0.5662 -0.8737 -0.2066
    1SOL    MW4 4912  -0.004   3.522   2.401 -0.2532  0.0827  0.1762
    1SOL     OW 4913   0.222   3.630   2.263  0.1795  0.1456  0.1328
    1SOL    HW2 4914   0.300   3.582   2.291  0.4927  0.4550 -0.2008
    1SOL    HW3 4915   0.150   3.592   2.314  0.3468 -1.0007 -0.4626
    1SOL    MW4 4916   0.223   3.619   2.273  0.2429  0.0355  0.0100
    1SOL     OW 4917   0.215   3.859   2.430  0.3075  0.0408  0.1625
    1SOL    HW2 4918   0.139   3.904   2.393  0.5609  0.9739  0.7723
    1SOL    HW3 4919   0.220   3.777   2.381 -1.8053 -0.5656  0.9275
    1SOL    MW4 4920   0.206   3.854   2.418  0.0621  0.0837  0.3436
    1SOL     OW 4921   4.482   3.988   2.334  0.3498 -0.4726  0.0076
    1SOL    HW2 4922   4.488   4.082   2.350  1.8780 -0.6216  0.3885
    1SOL    HW3 4923   4.467   3.980   2.240 -3.0195  0.2220  0.4165
    1SOL    MW4 4924   4.481   3.999   2.324  0.1073 -0.4003  0.1118
    1SOL     OW 4925   4.463   4.249   2.394  0.1905  0.3269  0.7504
    1SOL    HW2 4926   4.482   4.259   2.487  1.5942 -0.1724  0.5263
    1SOL    HW3 4927   4.535   4.293   2.350 -0.3834  0.4137 -0.1092
    1SOL    MW4 4928   4.475   4.256   2.401  0.2999  0.2728  0.6077
    1SOL     OW 4929   0.185   4.361   2.256 -0.1895 -0.2921 -0.3375
    1SOL    HW2 4930   0.271   4.333   2.286  0.6094  0.1134 -2.2047
    1SOL    HW3 4931   0.176   4.450   2.290  0.0516 -0.3954  0.0032
    1SOL    MW4 4932   0.195   4.369   2.265 -0.0522 -0.2527 -0.5386
    1SOL     OW 4933   0.678   4.636   2.371  0.3884  0.0930 -0.0261
    1SOL    HW2 4934   0.695   4.636   2.465 -0.2254  0.9230  0.0970
    1SOL    HW3 4935   0.752   4.683   2.333 -0.2600  1.3276  0.2278
    1SOL    MW4 4936   0.690   4.642   2.379  0.2218  0.3654  0.0238
    1SOL     OW 4937   0.414   0.124   2.296  0.2168  0.0827 -0.0510
    1SOL    HW2 4938   0.475   0.074   2.350 -0.8196 -1.5376 -0.3432
    1SOL    HW3 4939   0.448   0.115   2.207  0.6109  0.7573  0.0370
    1SOL    MW4 4940   0.426   0.116   2.291  0.1320 -0.0420 -0.0780
    1SOL     OW 4941   0.482   0.396   2.368  0.2063 -0.5934 -0.0226
    1SOL    HW2 4942   0.468   0.385   2.462  1.4212  0.0311  0.2423
    1SOL    HW3 4943   0.468   0.309   2.331  1.5588 -1.2608  0.9798
    1SOL    MW4 4944   0.479   0.383   2.376  0.5450 -0.5990  0.1445
    1SOL     OW 4945   0.724   0.506   2.268  0.1286 -0.0239  0.3681
    1SOL    HW2 4946   0.732   0.597   2.295 -0.0402 -0.3216  1.4462
    1SOL    HW3 4947   0.653   0.471   2.321 -0.3948 -0.5587 -0.6565
    1SOL    MW4 4948   0.716   0.513   2.278  0.0372 -0.1338  0.3750
    1SOL     OW 4949   0.685   0.780   2.364 -0.0779  0.6034  0.1883
    1SOL    HW2 4950   0.665   0.781   2.458 -1.7491 -0.8081 -0.1159
    1SOL    HW3 4951   0.601   0.802   2.322  0.2499 -0.4029 -1.0176
    1SOL    MW4 4952   0.671   0.783   2.371 -0.2552  0.2844 -0.0112
    1SOL     OW 4953   0.476   0.913   2.269 -0.3752 -0.0760 -0.1515
    1SOL    HW2 4954   0.389   0.888   2.299 -0.6445  1.0735  0.0281
    1SOL    HW3 4955   0.474   0.898   2.174 -0.0044 -2.2717  0.1516
    1SOL    MW4 4956   0.465   0.908   2.261 -0.3618 -0.2140 -0.0880
    1SOL     OW 4957   0.454   1.178   2.305  0.3481  0.2139  0.0731
    1SOL    HW2 4958   0.465   1.087   2.277 -0.9970  0.0208  0.1566
    1SOL    HW3 4959   0.362   1.198   2.287  0.3346  1.1861  1.1691
    1SOL    MW4 4960   0.444   1.169   2.299  0.1689  0.3166  0.2286
    1SOL     OW 4961   0.699   1.305   2.241 -0.4583 -0.3984  0.0140
    1SOL    HW2 4962   0.673   1.392   2.273  1.0078  0.0661 -0.0583
    1SOL    HW3 4963   0.620   1.252   2.252 -1.4872  1.0289 -0.2879
    1SOL    MW4 4964   0.685   1.309   2.247 -0.4007 -0.1490 -0.0355
    1SOL     OW 4965   0.653   1.558   2.357  0.0404  0.2878  0.1127
    1SOL    HW2 4966   0.668   1.542   2.450 -0.6654  1.6261  0.4757
    1SOL    HW3 4967   0.726   1.614   2.330  0.0973  0.1244 -0.0688
    1SOL    MW4 4968   0.665   1.564   2.366 -0.0452  0.4429  0.1366
    1SOL     OW 4969   0.428   1.660   2.247 -0.1046  0.3284 -0.1394
    1SOL    HW2 4970   0.500   1.624   2.298  0.9283 -1.5473 -2.8148
    1SOL    HW3 4971   0.350   1.615   2.281  0.1447  1.2667  1.7381
    1SOL    MW4 4972   0.427   1.649   2.258  0.0645  0.2048 -0.2446
    1SOL     OW 4973   0.463   1.931   2.363  0.2786 -0.0313  0.0210
    1SOL    HW2 4974   0.544   1.979   2.345 -0.1410  0.2799 -1.1315
    1SOL    HW3 4975   0.468   1.854   2.307 -0.4202  0.2227 -0.4029
    1SOL    MW4 4976   0.474   1.927   2.353  0.1310  0.0432 -0.1869
    1SOL     OW 4977   0.681   2.081   2.273 -0.1427  0.2649 -0.2882
    1SOL    HW2 4978   0.764   2.037   2.293 -0.9039 -0.9190  0.3554
    1SOL    HW3 4979   0.692   2.170   2.305  0.6010 -0.1138  0.5314
    1SOL    MW4 4980   0.693   2.087   2.280 -0.1450  0.0589 -0.0951
    1SOL     OW 4981   0.705   2.332   2.368 -0.4023 -0.3578 -0.0597
    1SOL    HW2 4982   0.694   2.335   2.463  0.5135 -0.2490  0.0489
    1SOL    HW3 4983   0.787   2.379   2.352  0.0828 -1.4476 -0.8005
    1SOL    MW4 4984   0.714   2.339   2.378 -0.2175 -0.4871 -0.1433
    1SOL     OW 4985   0.476   2.432   2.261 -0.3883  1.0612 -0.3188
    1SOL    HW2 4986   0.550   2.394   2.309  0.1086  1.8267 -0.4772
    1SOL    HW3 4987   0.404   2.372   2.279  0.5590 -0.3661 -1.1471
    1SOL    MW4 4988   0.476   2.419   2.270 -0.1978  0.9737 -0.4489
    1SOL     OW 4989   0.405   2.713   2.319 -0.2937  0.3120 -0.0398
    1SOL    HW2 4990   0.402   2.721   2.414  0.5862  1.4025 -0.0962
    1SOL    HW3 4991   0.415   2.619   2.303  1.3464  0.2945  0.9983
    1SOL    MW4 4992   0.406   2.701   2.329  0.0388  0.4535  0.0899
    1SOL     OW 4993   0.637   2.838   2.226  0.9420  0.0777  0.1125
    1SOL    HW2 4994   0.707   2.789   2.269  0.1653 -1.3995 -0.2517
    1SOL    HW3 4995   0.556   2.798   2.259  0.3248 -0.4723 -1.9882
    1SOL    MW4 4996   0.636   2.826   2.236  0.7582 -0.1898 -0.2127
    1SOL     OW 4997   0.676   3.101   2.372 -0.1064  0.1585  0.0694
    1SOL    HW2 4998   0.598   3.134   2.327  0.2580 -1.2530 -1.6580
    1SOL    HW3 4999   0.690   3.014   2.335  2.5630  0.5757 -0.0029
    1SOL    MW4 5000   0.668   3.094   2.361  0.2939  0.0274 -0.1681
    1SOL     OW 5001   0.437   3.227   2.263  0.2986 -0.0350 -0.5755
    1SOL    HW2 5002   0.359   3.181   2.293  1.6586 -2.4301 -0.6491
    1SOL    HW3 5003   0.425   3.237   2.169  0.2405 -0.7465 -0.6448
    1SOL    MW4 5004   0.425   3.223   2.255  0.4703 -0.4449 -0.5944
    1SOL     OW 5005   0.449   3.484   2.371 -0.0080 -0.0560  0.2128
    1SOL    HW2 5006   0.532   3.529   2.353  0.7408 -0.6256  2.1165
    1SOL    HW3 5007   0.458   3.399   2.327  0.8034 -0.4811  1.1870
    1SOL    MW4 5008   0.461   3.479   2.363  0.1979 -0.1876  0.5922
    1SOL     OW 5009   0.663   3.635   2.292 -0.3602  0.0281 -0.1540
    1SOL    HW2 5010   0.646   3.725   2.320  1.4675  0.8088 -1.4494
    1SOL    HW3 5011   0.662   3.639   2.196  1.1309 -1.0574 -0.2245
    1SOL    MW4 5012   0.660   3.647   2.283  0.0776 -0.0122 -0.3343
    1SOL     OW 5013   0.652   3.894   2.373  0.3177 -0.1832 -0.5703
    1SOL    HW2 5014   0.666   3.904   2.467 -0.8810  0.5693 -0.4594
    1SOL    HW3 5015   0.568   3.938   2.356  0.7139  0.0426 -2.0503
    1SOL    MW4 5016   0.643   3.901   2.383  0.2118 -0.0541 -0.7510
    1SOL     OW 5017   0.432   4.023   2.309  0.0076 -0.0501  0.2575
    1SOL    HW2 5018   0.352   3.982   2.341  0.4956 -0.9796  0.3149
    1SOL    HW3 5019   0.429   4.011   2.214  0.1754 -0.2710  0.2790
    1SOL    MW4 5020   0.421   4.016   2.300  0.0941 -0.2017  0.2680
    1SOL     OW 5021   0.427   4.285   2.372 -0.3220 -0.3631  0.0068
    1SOL    HW2 5022   0.504   4.317   2.325  1.0382 -1.2357  1.5983
    1SOL    HW3 5023   0.431   4.190   2.363  0.5059 -0.6060  2.6987
    1SOL    MW4 5024   0.438   4.277   2.365 -0.0333 -0.5102  0.5720
    1SOL     OW 5025   0.651   4.387   2.272  0.4574  0.3513  0.1893
    1SOL    HW2 5026   0.650   4.479   2.300 -1.8617  0.7290 -0.9614
    1SOL    HW3 5027   0.658   4.392   2.177 -0.1452 -0.6428  0.0877
    1SOL    MW4 5028   0.652   4.400   2.263  0.0720  0.2704  0.0241
    1SOL     OW 5029   1.148   4.659   2.386 -0.4015 -0.0295 -0.0792
    1SOL    HW2 5030   1.135   4.631   2.477 -1.0208 -0.8427 -0.4192
    1SOL    HW3 5031   1.069   4.710   2.366 -1.4337 -1.9655 -0.9793
    1SOL    MW4 5032   1.136   4.662   2.396 -0.6193 -0.3924 -0.2429
    1SOL     OW 5033   0.911   0.102   2.295 -0.4948  0.5242  0.0369
    1SOL    HW2 5034   0.924   0.197   2.303 -0.3036  0.4867  0.1892
    1SOL    HW3 5035   0.917   0.084   2.201 -2.0163  0.8724 -0.1515
    1SOL    MW4 5036   0.913   0.112   2.284 -0.6703  0.5652  0.0319
    1SOL     OW 5037   0.940   0.371   2.369 -0.7772 -0.3130 -0.5386
    1SOL    HW2 5038   1.007   0.436   2.350 -1.4361  0.6659  0.3914
    1SOL    HW3 5039   0.860   0.407   2.332 -1.2182 -0.4080  0.2955
    1SOL    MW4 5040   0.938   0.384   2.362 -0.9223 -0.1964 -0.3061
    1SOL     OW 5041   1.140   0.525   2.281  0.3592 -0.1476  0.0423
    1SOL    HW2 5042   1.215   0.481   2.322  2.2180  1.7273 -1.2813
    1SOL    HW3 5043   1.141   0.493   2.191  1.3920  2.0929 -0.7848
    1SOL    MW4 5044   1.150   0.515   2.275  0.7408  0.3954 -0.2415
    1SOL     OW 5045   1.140   0.794   2.324  0.0367 -0.0275 -0.0957
    1SOL    HW2 5046   1.059   0.831   2.291 -0.3807 -0.7810  0.0700
    1SOL    HW3 5047   1.131   0.699   2.309  0.9436 -0.0975 -0.2206
    1SOL    MW4 5048   1.128   0.786   2.317  0.1014 -0.1361 -0.0904
    1SOL     OW 5049   0.896   0.914   2.243  0.0459  0.4987 -0.3692
    1SOL    HW2 5050   0.917   0.998   2.283 -1.5269  1.0028 -0.5441
    1SOL    HW3 5051   0.828   0.877   2.300  0.4671 -0.4925 -0.4929
    1SOL    MW4 5052   0.889   0.920   2.256 -0.1060  0.4344 -0.4084
    1SOL     OW 5053   0.897   1.165   2.344 -0.0749  0.4913 -0.1589
    1SOL    HW2 5054   0.969   1.209   2.299  0.1970  1.0624  0.8175
    1SOL    HW3 5055   0.820   1.220   2.328 -0.2020  0.1135 -0.8381
    1SOL    MW4 5056   0.896   1.178   2.336 -0.0558  0.5168 -0.1199
    1SOL     OW 5057   1.122   1.292   2.261 -0.1610 -0.4450 -0.0532
    1SOL    HW2 5058   1.191   1.233   2.292  1.1598  1.1351  0.1518
    1SOL    HW3 5059   1.139   1.301   2.167  0.8017  0.9930  0.2227
    1SOL    MW4 5060   1.134   1.286   2.253  0.1401 -0.0467  0.0105
    1SOL     OW 5061   1.116   1.556   2.347 -0.0348  0.4049  0.0386
    1SOL    HW2 5062   1.040   1.604   2.314  1.4518  1.8303 -1.4140
    1SOL    HW3 5063   1.099   1.465   2.321 -2.2043  0.3388  1.5757
    1SOL    MW4 5064   1.104   1.550   2.339 -0.1251  0.5842  0.0496
    1SOL     OW 5065   0.886   1.680   2.256  0.1744  0.2116  0.3488
    1SOL    HW2 5066   0.911   1.769   2.280  0.3937  0.3279 -0.3132
    1SOL    HW3 5067   0.883   1.681   2.160  0.1183 -0.4766  0.3451
    1SOL    MW4 5068   0.889   1.692   2.247  0.1960  0.1363  0.2611
    1SOL     OW 5069   0.900   1.955   2.343  0.0359 -0.1120 -0.1014
    1SOL    HW2 5070   0.877   1.961   2.436  0.9477  0.6524  0.0922
    1SOL    HW3 5071   0.982   2.004   2.336  0.3524 -0.7758 -1.1815
    1SOL    MW4 5072   0.908   1.963   2.354  0.1979 -0.0987 -0.2184
    1SOL     OW 5073   1.127   2.105   2.272  0.1487 -0.1681  0.0381
    1SOL    HW2 5074   1.193   2.049   2.313 -0.5722 -0.1332  1.2646
    1SOL    HW3 5075   1.132   2.082   2.179  1.9706 -0.0697  0.0781
    1SOL    MW4 5076   1.137   2.095   2.265  0.2939 -0.1504  0.2050
    1SOL     OW 5077   1.162   2.364   2.392 -0.2589 -0.2268 -0.4977
    1SOL    HW2 5078   1.239   2.400   2.349  0.4155 -1.0393  0.0336
    1SOL    HW3 5079   1.152   2.277   2.353  0.1530 -0.8314  0.7522
    1SOL    MW4 5080   1.171   2.357   2.381 -0.1155 -0.4139 -0.2630
    1SOL     OW 5081   0.933   2.469   2.280 -0.3358  0.5116 -0.1784
    1SOL    HW2 5082   1.008   2.416   2.308 -0.8142  0.2295  0.5958
    1SOL    HW3 5083   0.936   2.466   2.184  0.1592 -0.1886 -0.1479
    1SOL    MW4 5084   0.943   2.461   2.271 -0.3336  0.3822 -0.0722
    1SOL     OW 5085   0.861   2.744   2.346 -0.6637 -0.2400 -0.0679
    1SOL    HW2 5086   0.854   2.753   2.441 -0.1548  0.5244 -0.0965
    1SOL    HW3 5087   0.880   2.651   2.332 -3.1077 -0.8559  0.4314
    1SOL    MW4 5088   0.862   2.733   2.357 -0.9190 -0.2203 -0.0055
    1SOL     OW 5089   1.099   2.866   2.255  0.2340 -0.2351 -0.1412
    1SOL    HW2 5090   1.160   2.803   2.293 -0.8441 -0.9119  0.4845
    1SOL    HW3 5091   1.013   2.825   2.264 -0.3170  0.7120 -1.0097
    1SOL    MW4 5092   1.095   2.852   2.261  0.0192 -0.1996 -0.1733
    1SOL     OW 5093   1.126   3.106   2.376 -0.2719 -0.0108 -0.0272
    1SOL    HW2 5094   1.064   3.165   2.334 -1.1570  0.3161  1.7035
    1SOL    HW3 5095   1.108   3.020   2.339 -1.7272  0.0958  0.4117
    1SOL    MW4 5096   1.116   3.103   2.366 -0.5807  0.0465  0.2592
    1SOL     OW 5097   0.903   3.228   2.234  0.2190 -0.1598 -0.0664
    1SOL    HW2 5098   0.900   3.318   2.266 -0.9425  0.0535 -0.7718
    1SOL    HW3 5099   0.820   3.189   2.261  0.2945 -0.7329 -0.6469
    1SOL    MW4 5100   0.892   3.234   2.242  0.0757 -0.2072 -0.2358
    1SOL     OW 5101   0.885   3.488   2.356 -0.3185  0.3237  0.1026
    1SOL    HW2 5102   0.895   3.485   2.451 -0.4447  0.5612  0.1239
    1SOL    HW3 5103   0.805   3.539   2.342 -1.4010 -1.3878 -0.0825
    1SOL    MW4 5104   0.876   3.495   2.367 -0.4780  0.1290  0.0811
    1SOL     OW 5105   1.117   3.638   2.288  0.0107 -0.0294 -0.5394
    1SOL    HW2 5106   1.195   3.599   2.329 -0.1143  0.1463 -0.1324
    1SOL    HW3 5107   1.044   3.583   2.317 -0.2802  1.0397  0.7682
    1SOL    MW4 5108   1.118   3.626   2.297 -0.0442  0.1352 -0.3133
    1SOL     OW 5109   1.093   3.900   2.376  0.0301 -0.1417 -0.0591
    1SOL    HW2 5110   1.166   3.933   2.324 -1.6152  0.0880 -2.3048
    1SOL    HW3 5111   1.090   3.806   2.356  1.0292 -0.5550  1.6978
    1SOL    MW4 5112   1.102   3.892   2.366 -0.0552 -0.1659 -0.1235
    1SOL     OW 5113   0.868   4.037   2.262  0.3078  0.1073  0.0739
    1SOL    HW2 5114   0.937   3.980   2.295 -0.0814 -0.3932  0.0369
    1SOL    HW3 5115   0.786   3.993   2.286  0.0142 -0.5350 -1.9505
    1SOL    MW4 5116   0.866   4.024   2.269  0.2177 -0.0439 -0.1979
    1SOL     OW 5117   0.871   4.259   2.412  0.3364 -0.0213  0.3446
    1SOL    HW2 5118   0.887   4.173   2.373  1.1772 -0.4981  1.6994
    1SOL    HW3 5119   0.790   4.289   2.371  1.1601 -0.5112 -1.7277
    1SOL    MW4 5120   0.862   4.252   2.401  0.5561 -0.1493  0.2499
    1SOL     OW 5121   1.060   4.403   2.308  0.1670  0.1999  0.6824
    1SOL    HW2 5122   0.988   4.369   2.360 -0.1885 -0.4618 -0.2368
    1SOL    HW3 5123   1.065   4.496   2.331 -3.0345  1.0083 -1.5624
    1SOL    MW4 5124   1.051   4.411   2.318 -0.3023  0.2189  0.2651
    1SOL     OW 5125   1.579   4.654   2.409 -0.3145  0.3390  0.0965
    1SOL    HW2 5126   1.646   4.696   2.355 -1.0296 -1.6990 -2.4915
    1SOL    HW3 5127   1.496   4.687   2.375 -0.7793 -1.0446 -0.1423
    1SOL    MW4 5128   1.577   4.664   2.397 -0.4702 -0.1125 -0.2763
    1SOL     OW 5129   1.373   0.125   2.290 -0.0115  0.1245  0.6615
    1SOL    HW2 5130   1.375   0.215   2.323 -1.4303  0.7153 -0.8541
    1SOL    HW3 5131   1.287   0.092   2.315  0.0424 -0.4098  0.1530
    1SOL    MW4 5132   1.362   0.133   2.298 -0.1917  0.1319  0.3948
    1SOL     OW 5133   1.357   0.392   2.390  0.3546  0.1082  0.0904
    1SOL    HW2 5134   1.390   0.370   2.477  2.0188 -0.6256 -0.7165
    1SOL    HW3 5135   1.429   0.436   2.346 -0.8453  1.5011 -0.5545
    1SOL    MW4 5136   1.371   0.395   2.396  0.4158  0.1951 -0.1011
    1SOL     OW 5137   1.578   0.498   2.244 -0.1064 -0.5257 -0.3815
    1SOL    HW2 5138   1.664   0.462   2.265 -0.3259 -0.7108  0.1922
    1SOL    HW3 5139   1.573   0.492   2.148  0.8435  0.2205 -0.4889
    1SOL    MW4 5140   1.589   0.493   2.234 -0.0099 -0.4517 -0.3200
    1SOL     OW 5141   1.580   0.735   2.411 -0.4054  0.3554  0.1318
    1SOL    HW2 5142   1.635   0.791   2.357  1.7245 -1.7723  0.0196
    1SOL    HW3 5143   1.571   0.654   2.361 -0.9833 -0.5136  1.5890
    1SOL    MW4 5144   1.586   0.732   2.398 -0.2006 -0.0400  0.3095
    1SOL     OW 5145   1.380   0.903   2.272 -0.0830 -0.1565  0.0922
    1SOL    HW2 5146   1.443   0.851   2.322 -0.7199 -0.0282  1.0423
    1SOL    HW3 5147   1.297   0.856   2.283 -0.3366  0.1596 -0.4274
    1SOL    MW4 5148   1.377   0.890   2.280 -0.2005 -0.0978  0.1493
    1SOL     OW 5149   1.359   1.173   2.345 -0.4861 -0.1272  0.5824
    1SOL    HW2 5150   1.350   1.169   2.440 -0.1564 -0.8169  0.5891
    1SOL    HW3 5151   1.378   1.083   2.319 -1.4937 -0.1162 -0.2350
    1SOL    MW4 5152   1.360   1.160   2.354 -0.5755 -0.2167  0.4754
    1SOL     OW 5153   1.594   1.295   2.252 -0.3938 -0.0284 -0.1377
    1SOL    HW2 5154   1.533   1.231   2.288 -0.3760 -0.4215 -0.7998
    1SOL    HW3 5155   1.587   1.285   2.158 -0.2549  0.8264 -0.2444
    1SOL    MW4 5156   1.585   1.285   2.245 -0.3730  0.0325 -0.2394
    1SOL     OW 5157   1.591   1.558   2.333  0.2628  0.3582 -0.0992
    1SOL    HW2 5158   1.665   1.609   2.301 -0.6543  0.9841 -1.3157
    1SOL    HW3 5159   1.605   1.471   2.297  0.3110  0.5330 -0.5173
    1SOL    MW4 5160   1.602   1.554   2.324  0.1481  0.4640 -0.3152
    1SOL     OW 5161   1.355   1.676   2.252  0.1413  0.0765  0.0463
    1SOL    HW2 5162   1.426   1.617   2.276  0.0977  0.0747  0.1688
    1SOL    HW3 5163   1.275   1.629   2.277  0.0240 -0.6314 -1.5956
    1SOL    MW4 5164   1.354   1.662   2.258  0.1200 -0.0173 -0.1543
    1SOL     OW 5165   1.339   1.944   2.354 -0.1004  0.3975  0.1472
    1SOL    HW2 5166   1.354   1.946   2.449 -1.8291  0.8353  0.4188
    1SOL    HW3 5167   1.360   1.854   2.328  0.7386  0.3720  0.8711
    1SOL    MW4 5168   1.344   1.933   2.363 -0.2177  0.4518  0.2787
    1SOL     OW 5169   1.557   2.077   2.258  0.2206  0.2098  0.1423
    1SOL    HW2 5170   1.480   2.022   2.274 -0.4836  0.7087 -1.4188
    1SOL    HW3 5171   1.631   2.024   2.287 -0.6526 -0.5928  0.9301
    1SOL    MW4 5172   1.557   2.062   2.264  0.0126  0.1695  0.0403
    1SOL     OW 5173   1.582   2.344   2.346 -0.3109  0.2901 -0.0001
    1SOL    HW2 5174   1.584   2.345   2.441 -0.0403  1.1349 -0.0064
    1SOL    HW3 5175   1.573   2.252   2.322  1.0848 -0.0539  0.8113
    1SOL    MW4 5176   1.581   2.332   2.355 -0.0911  0.3560  0.1061
    1SOL     OW 5177   1.367   2.474   2.244 -0.2432 -0.3183 -0.1181
    1SOL    HW2 5178   1.448   2.425   2.258  0.1482  0.0649 -0.9761
    1SOL    HW3 5179   1.338   2.448   2.157 -0.3705  0.4857 -0.3228
    1SOL    MW4 5180   1.374   2.464   2.234 -0.2085 -0.1616 -0.2582
    1SOL     OW 5181   1.354   2.743   2.325  1.0170  0.2591 -0.8304
    1SOL    HW2 5182   1.429   2.795   2.297  1.7011 -0.2642  0.0239
    1SOL    HW3 5183   1.369   2.657   2.288  0.5684  0.2899 -1.0937
    1SOL    MW4 5184   1.366   2.739   2.316  1.0481  0.1941 -0.7524
    1SOL     OW 5185   1.595   2.845   2.257 -0.1309 -0.0401  0.5969
    1SOL    HW2 5186   1.601   2.939   2.275 -0.1367  0.0200  0.2948
    1SOL    HW3 5187   1.580   2.840   2.162  0.4788 -0.3687  0.5166
    1SOL    MW4 5188   1.593   2.857   2.247 -0.0511 -0.0753  0.5465
    1SOL     OW 5189   1.573   3.111   2.342  0.4064 -0.2483 -0.0197
    1SOL    HW2 5190   1.566   3.117   2.437 -0.2715 -1.2489 -0.0034
    1SOL    HW3 5191   1.499   3.163   2.310  0.6770  0.1499 -0.0115
    1SOL    MW4 5192   1.562   3.119   2.350  0.3526 -0.3278 -0.0165
    1SOL     OW 5193   1.342   3.246   2.281  0.5059 -0.8146 -0.3083
    1SOL    HW2 5194   1.285   3.175   2.310  1.6846 -1.9840 -0.7950
    1SOL    HW3 5195   1.328   3.252   2.187  1.0079 -0.9563 -0.3951
    1SOL    MW4 5196   1.333   3.237   2.272  0.7275 -0.9875 -0.3839
    1SOL     OW 5197   1.338   3.502   2.390 -0.0383  0.0130 -0.0501
    1SOL    HW2 5198   1.343   3.480   2.483 -0.0219 -0.9010 -0.2623
    1SOL    HW3 5199   1.319   3.419   2.347 -1.8017  0.7224 -0.6976
    1SOL    MW4 5200   1.336   3.488   2.397 -0.2685 -0.0141 -0.1633
    1SOL     OW 5201   1.577   3.617   2.277 -0.3891  0.3461 -0.2818
    1SOL    HW2 5202   1.552   3.706   2.300  0.0815  0.0725  1.3050
    1SOL    HW3 5203   1.499   3.564   2.296 -0.5114  0.3445 -0.7772
    1SOL    MW4 5204   1.563   3.622   2.282 -0.3432  0.3099 -0.1376
    1SOL     OW 5205   1.528   3.863   2.364 -0.6821 -0.7941  0.0935
    1SOL    HW2 5206   1.532   3.861   2.460  0.7677 -1.2296  0.0392
    1SOL    HW3 5207   1.612   3.899   2.337 -0.1459 -2.8168 -1.0847
    1SOL    MW4 5208   1.540   3.868   2.373 -0.4201 -1.1184 -0.0694
    1SOL     OW 5209   1.333   4.022   2.277 -0.7340  0.1247  0.6118
    1SOL    HW2 5210   1.398   3.962   2.316  0.5209  0.2293 -1.2395
    1SOL    HW3 5211   1.353   4.020   2.183 -2.0090  1.8822  0.2925
    1SOL    MW4 5212   1.344   4.014   2.270 -0.7367  0.3705  0.3254
    1SOL     OW 5213   1.299   4.284   2.365 -0.1278 -0.1379  0.1068
    1SOL    HW2 5214   1.299   4.197   2.326  0.0098 -0.3026  0.4674
    1SOL    HW3 5215   1.216   4.323   2.339  0.2915  0.0376 -0.9822
    1SOL    MW4 5216   1.288   4.278   2.357 -0.0545 -0.1359  0.0110
    1SOL     OW 5217   1.509   4.436   2.263  0.2217  0.2211 -0.2725
    1SOL    HW2 5218   1.423   4.418   2.301  0.1975  0.5270 -0.1809
    1SOL    HW3 5219   1.538   4.516   2.306  0.5590  0.1105 -0.2945
    1SOL    MW4 5220   1.501   4.444   2.273  0.2631  0.2470 -0.2635
    1SOL     OW 5221   2.026   4.640   2.363  0.1679  0.5892 -0.1028
    1SOL    HW2 5222   2.097   4.679   2.312 -1.2947  1.2589 -1.6945
    1SOL    HW3 5223   2.017   4.552   2.328  0.7523  0.2208  0.6667
    1SOL    MW4 5224   2.034   4.634   2.352  0.0517  0.6289 -0.2112
    1SOL     OW 5225   1.792   0.113   2.277 -0.1616  0.6802 -0.0949
    1SOL    HW2 5226   1.812   0.198   2.314 -0.3383  0.9372 -0.5839
    1SOL    HW3 5227   1.864   0.056   2.305 -0.9304  0.5531  1.6960
    1SOL    MW4 5228   1.804   0.116   2.285 -0.2862  0.6974  0.0768
    1SOL     OW 5229   1.807   0.378   2.384  0.0647 -0.2219  0.1310
    1SOL    HW2 5230   1.810   0.417   2.471  1.6320 -2.7750  1.2675
    1SOL    HW3 5231   1.892   0.401   2.345  0.2042 -0.8198  0.0731
    1SOL    MW4 5232   1.819   0.386   2.390  0.2898 -0.6377  0.2732
    1SOL     OW 5233   2.033   0.479   2.217 -0.1584  0.1644 -0.6001
    1SOL    HW2 5234   2.004   0.564   2.250 -1.3029 -0.1175 -0.8507
    1SOL    HW3 5235   2.028   0.487   2.122 -0.5689 -0.2893 -0.6163
    1SOL    MW4 5236   2.029   0.492   2.209 -0.3633  0.0674 -0.6354
    1SOL     OW 5237   1.955   0.724   2.302  0.0614  0.2333  0.7939
    1SOL    HW2 5238   2.031   0.780   2.288  0.1404  0.1619  0.9316
    1SOL    HW3 5239   1.883   0.771   2.262  0.7029 -1.0953 -2.0565
    1SOL    MW4 5240   1.956   0.738   2.295  0.1565  0.0486  0.4358
    1SOL     OW 5241   1.752   0.899   2.214  0.2816 -0.0927  0.1949
    1SOL    HW2 5242   1.789   0.981   2.246 -1.6625  0.1863  1.7821
    1SOL    HW3 5243   1.758   0.905   2.119  0.9584  1.5101  0.3336
    1SOL    MW4 5244   1.758   0.910   2.206  0.1144  0.1556  0.4227
    1SOL     OW 5245   1.840   1.153   2.323  0.6994 -0.0783  0.3150
    1SOL    HW2 5246   1.916   1.200   2.289  0.5690 -0.1832 -0.1275
    1SOL    HW3 5247   1.765   1.203   2.292  0.5607 -0.5951 -0.1822
    1SOL    MW4 5248   1.840   1.166   2.314  0.6639 -0.1602  0.1910
    1SOL     OW 5249   2.053   1.307   2.247  0.5422  0.3566  0.3101
    1SOL    HW2 5250   2.058   1.396   2.284 -0.7392  0.4305  0.3212
    1SOL    HW3 5251   2.066   1.320   2.153  0.7694  0.5139  0.3624
    1SOL    MW4 5252   2.056   1.321   2.239  0.4029  0.3871  0.3185
    1SOL     OW 5253   2.065   1.577   2.347  0.1652  0.1317 -0.3979
    1SOL    HW2 5254   2.051   1.586   2.441  2.6292 -0.5626  0.0744
    1SOL    HW3 5255   1.990   1.620   2.307 -0.9425  0.3789  1.8840
    1SOL    MW4 5256   2.053   1.584   2.354  0.3440  0.0728 -0.0348
    1SOL     OW 5257   1.839   1.702   2.249 -0.3705 -0.2510 -0.0994
    1SOL    HW2 5258   1.807   1.786   2.283  0.1054  0.0153 -0.3149
    1SOL    HW3 5259   1.813   1.703   2.157 -0.3221 -0.3252 -0.1134
    1SOL    MW4 5260   1.831   1.713   2.242 -0.3012 -0.2257 -0.1297
    1SOL     OW 5261   1.785   1.947   2.344 -0.2320 -0.2517  0.4169
    1SOL    HW2 5262   1.791   1.939   2.439 -0.0170 -1.4687  0.3114
    1SOL    HW3 5263   1.859   2.002   2.320  0.7195 -1.3289  0.8025
    1SOL    MW4 5264   1.796   1.953   2.353 -0.0781 -0.5544  0.4537
    1SOL     OW 5265   1.997   2.090   2.255 -0.3028 -0.1856  0.1350
    1SOL    HW2 5266   2.077   2.050   2.289 -0.1521 -0.2652 -0.3078
    1SOL    HW3 5267   2.007   2.086   2.160 -0.1355  1.2055  0.0862
    1SOL    MW4 5268   2.009   2.084   2.247 -0.2606 -0.0126  0.0701
    1SOL     OW 5269   1.993   2.347   2.347  0.5386 -0.7742 -0.1195
    1SOL    HW2 5270   2.079   2.385   2.329  0.9853 -0.9565  1.4882
    1SOL    HW3 5271   1.997   2.259   2.309  0.1152  0.1331 -2.3316
    1SOL    MW4 5272   2.005   2.341   2.340  0.5414 -0.6785 -0.1991
    1SOL     OW 5273   1.788   2.479   2.215 -0.1521 -0.5422 -0.1813
    1SOL    HW2 5274   1.868   2.435   2.242  0.3084  0.0733 -0.5253
    1SOL    HW3 5275   1.720   2.441   2.271  0.2594 -1.5660 -0.3747
    1SOL    MW4 5276   1.789   2.468   2.226 -0.0368 -0.5960 -0.2522
    1SOL     OW 5277   1.797   2.707   2.364 -0.0692 -0.2065 -0.0599
    1SOL    HW2 5278   1.793   2.616   2.334  0.3485 -0.6460  1.1860
    1SOL    HW3 5279   1.731   2.753   2.312  0.2867 -1.0519 -1.2765
    1SOL    MW4 5280   1.788   2.701   2.353  0.0329 -0.3760 -0.0558
    1SOL     OW 5281   1.997   2.846   2.278  0.0443  0.1115 -0.5553
    1SOL    HW2 5282   2.081   2.803   2.289  0.3367  0.7020 -0.4501
    1SOL    HW3 5283   1.933   2.784   2.312  0.5107  0.0098  0.1436
    1SOL    MW4 5284   1.999   2.832   2.284  0.1442  0.1757 -0.4492
    1SOL     OW 5285   2.021   3.125   2.376  0.0940 -0.3643  0.2913
    1SOL    HW2 5286   2.077   3.175   2.317 -0.3119 -0.6741 -0.3677
    1SOL    HW3 5287   2.016   3.038   2.336 -1.4007 -0.1429 -0.0331
    1SOL    MW4 5288   2.027   3.121   2.363 -0.1569 -0.3760  0.1616
    1SOL     OW 5289   1.801   3.250   2.275 -0.3861 -0.3011 -0.1940
    1SOL    HW2 5290   1.863   3.196   2.324  0.4393  0.7891 -0.0146
    1SOL    HW3 5291   1.717   3.204   2.284  0.3259 -1.6458 -0.2070
    1SOL    MW4 5292   1.798   3.237   2.283 -0.1833 -0.3345 -0.1719
    1SOL     OW 5293   1.807   3.492   2.414 -0.6746  0.0949 -0.3522
    1SOL    HW2 5294   1.817   3.418   2.354 -0.6401  0.8166 -1.2605
    1SOL    HW3 5295   1.733   3.541   2.378 -0.4396  0.7139 -0.0031
    1SOL    MW4 5296   1.799   3.489   2.401 -0.6391  0.2720 -0.4258
    1SOL     OW 5297   2.010   3.625   2.302 -0.5398  0.0774  0.3844
    1SOL    HW2 5298   1.940   3.579   2.347 -1.5001  0.1689 -0.9713
    1SOL    HW3 5299   2.087   3.569   2.314 -1.1432 -0.6814  0.7819
    1SOL    MW4 5300   2.011   3.611   2.309 -0.7460 -0.0107  0.2577
    1SOL     OW 5301   2.011   3.895   2.361 -0.1768  0.1661  0.4125
    1SOL    HW2 5302   1.992   3.915   2.453 -1.9768 -0.2667  0.1622
    1SOL    HW3 5303   2.005   3.800   2.356 -2.0667  0.3097 -0.5421
    1SOL    MW4 5304   2.008   3.885   2.372 -0.6638  0.1278  0.2534
    1SOL     OW 5305   1.770   4.005   2.277  0.5754 -0.2722  0.0493
    1SOL    HW2 5306   1.859   3.973   2.296  0.4218 -0.6625  0.1159
    1SOL    HW3 5307   1.767   4.011   2.182  1.4889  2.0871  0.1449
    1SOL    MW4 5308   1.781   4.001   2.267  0.6757 -0.0124  0.0708
    1SOL     OW 5309   1.728   4.263   2.353 -0.2689 -0.1019  0.1913
    1SOL    HW2 5310   1.718   4.172   2.325 -0.3758  0.0769 -0.3624
    1SOL    HW3 5311   1.657   4.310   2.309  0.7153  0.5199 -0.7572
    1SOL    MW4 5312   1.717   4.257   2.344 -0.1532  0.0038 -0.0067
    1SOL     OW 5313   1.982   4.365   2.279  0.2436  0.2309 -0.1865
    1SOL    HW2 5314   1.901   4.314   2.288  0.3355 -0.0354 -0.8114
    1SOL    HW3 5315   1.992   4.377   2.184  0.1615  1.5084 -0.0537
    1SOL    MW4 5316   1.972   4.360   2.267  0.2449  0.3638 -0.2515
    1SOL     OW 5317   2.460   4.660   2.339 -0.2891  0.5219  0.0948
    1SOL    HW2 5318   2.550   4.683   2.314  0.3543 -1.8264  0.1419
    1SOL    HW3 5319   2.448   4.572   2.305 -2.1297  0.3141  1.2527
    1SOL    MW4 5320   2.470   4.652   2.331 -0.4470  0.1850  0.2537
    1SOL     OW 5321   2.236   0.096   2.247 -0.3541 -0.3267  0.0372
    1SOL    HW2 5322   2.231   0.181   2.289 -0.8007 -0.4898  0.3158
    1SOL    HW3 5323   2.318   0.058   2.279 -0.5491 -0.3302  0.5249
    1SOL    MW4 5324   2.246   0.102   2.256 -0.4387 -0.3487  0.1385
    1SOL     OW 5325   2.259   0.362   2.339  0.4859  0.4160  0.2294
    1SOL    HW2 5326   2.338   0.407   2.308  0.2206  1.3877  0.9515
    1SOL    HW3 5327   2.188   0.406   2.292  0.4456 -1.1655 -1.2294
    1SOL    MW4 5328   2.260   0.374   2.328  0.4456  0.3356  0.1323
    1SOL     OW 5329   2.486   0.501   2.228 -0.6307 -0.1782  0.1174
    1SOL    HW2 5330   2.569   0.458   2.247  0.8116  2.2689 -0.3732
    1SOL    HW3 5331   2.485   0.508   2.132 -0.5872  1.2910  0.2126
    1SOL    MW4 5332   2.497   0.496   2.218 -0.4349  0.3386  0.0653
    1SOL     OW 5333   2.443   0.749   2.370  0.2159 -0.4041 -0.1508
    1SOL    HW2 5334   2.514   0.799   2.331 -0.6568 -0.5329 -1.9913
    1SOL    HW3 5335   2.444   0.665   2.324  0.1157 -1.1492  1.1831
    1SOL    MW4 5336   2.452   0.744   2.359  0.0877 -0.5195 -0.2177
    1SOL     OW 5337   2.209   0.861   2.258  0.1788  0.0455  0.2454
    1SOL    HW2 5338   2.207   0.953   2.284  0.4018  0.3406 -0.7787
    1SOL    HW3 5339   2.279   0.823   2.312 -0.5002  0.2657  1.3113
    1SOL    MW4 5340   2.218   0.868   2.269  0.1185  0.1135  0.2506
    1SOL     OW 5341   2.245   1.116   2.340  0.2257 -0.1412 -0.5445
    1SOL    HW2 5342   2.327   1.133   2.295 -0.2625 -1.3488 -1.9495
    1SOL    HW3 5343   2.186   1.184   2.309 -0.0289 -0.8054 -1.5566
    1SOL    MW4 5344   2.248   1.127   2.330  0.1276 -0.3883 -0.8631
    1SOL     OW 5345   2.475   1.210   2.228 -0.6138  0.3603  0.3319
    1SOL    HW2 5346   2.556   1.175   2.265  0.6589  1.5962 -1.2008
    1SOL    HW3 5347   2.469   1.298   2.263 -0.4137  0.8531 -0.8399
    1SOL    MW4 5348   2.485   1.217   2.238 -0.4196  0.5884 -0.0248
    1SOL     OW 5349   2.449   1.483   2.331 -0.0689  0.6662 -0.3295
    1SOL    HW2 5350   2.443   1.508   2.423  0.1714  0.7926 -0.3494
    1SOL    HW3 5351   2.523   1.532   2.297 -1.6877  2.5845 -1.2255
    1SOL    MW4 5352   2.458   1.493   2.338 -0.2508  0.9360 -0.4504
    1SOL     OW 5353   2.296   1.698   2.260  0.9269 -0.2256 -0.1663
    1SOL    HW2 5354   2.352   1.623   2.283 -1.0802 -1.7487 -0.1061
    1SOL    HW3 5355   2.209   1.674   2.293 -0.0737  1.4814 -1.4857
    1SOL    MW4 5356   2.292   1.685   2.267  0.5300 -0.2015 -0.3326
    1SOL     OW 5357   2.252   1.974   2.320 -0.0715  0.2152  0.3753
    1SOL    HW2 5358   2.247   1.889   2.277 -0.0671  0.3297  0.1515
    1SOL    HW3 5359   2.274   1.953   2.411  0.1489 -0.0099  0.2698
    1SOL    MW4 5360   2.254   1.960   2.327 -0.0417  0.2006  0.3319
    1SOL     OW 5361   2.499   2.085   2.224  0.3492 -0.0585  0.2786
    1SOL    HW2 5362   2.418   2.049   2.261  0.3605 -0.7751 -0.3928
    1SOL    HW3 5363   2.568   2.029   2.257  0.6825  1.0515  1.5332
    1SOL    MW4 5364   2.497   2.073   2.234  0.3948 -0.0064  0.3552
    1SOL     OW 5365   2.485   2.357   2.332 -0.2879  0.3044  0.1642
    1SOL    HW2 5366   2.565   2.387   2.288 -1.4328  0.8112 -1.6289
    1SOL    HW3 5367   2.470   2.269   2.297  0.6928 -0.7131  2.1952
    1SOL    MW4 5368   2.494   2.350   2.321 -0.3097  0.2370  0.1957
    1SOL     OW 5369   2.247   2.489   2.242  0.3148  0.0568 -0.1456
    1SOL    HW2 5370   2.253   2.580   2.270  0.6513 -0.3258  1.0579
    1SOL    HW3 5371   2.326   2.448   2.277 -0.9314 -1.1978  1.2811
    1SOL    MW4 5372   2.259   2.495   2.250  0.1945 -0.1590  0.2015
    1SOL     OW 5373   2.245   2.740   2.330 -0.1508  0.2372 -0.0743
    1SOL    HW2 5374   2.257   2.753   2.424  0.0101  0.0721 -0.0721
    1SOL    HW3 5375   2.324   2.777   2.290 -0.7197  1.3349 -0.2243
    1SOL    MW4 5376   2.257   2.747   2.337 -0.2048  0.3603 -0.0937
    1SOL     OW 5377   2.477   2.839   2.225 -0.1366 -0.0878 -0.1397
    1SOL    HW2 5378   2.560   2.801   2.252  0.8165  1.5919 -0.5976
    1SOL    HW3 5379   2.469   2.817   2.132 -0.2230 -0.2963 -0.0821
    1SOL    MW4 5380   2.487   2.831   2.216 -0.0224  0.1063 -0.1926
    1SOL     OW 5381   2.462   3.102   2.316 -0.1950  0.0761  0.1989
    1SOL    HW2 5382   2.450   3.110   2.411 -1.4809  1.2930 -0.0490
    1SOL    HW3 5383   2.463   3.008   2.300 -0.0269 -0.1454  1.4092
    1SOL    MW4 5384   2.460   3.091   2.327 -0.3424  0.2074  0.3259
    1SOL     OW 5385   2.236   3.229   2.206  0.5659 -0.1910  0.6772
    1SOL    HW2 5386   2.251   3.308   2.259 -0.4894  0.8020 -0.4806
    1SOL    HW3 5387   2.317   3.179   2.216  0.5917  0.2259  2.7938
    1SOL    MW4 5388   2.249   3.233   2.214  0.4301 -0.0048  0.8035
    1SOL     OW 5389   2.222   3.445   2.359  0.1452 -0.5495  0.1518
    1SOL    HW2 5390   2.215   3.450   2.454 -0.9107  0.3095  0.0418
    1SOL    HW3 5391   2.297   3.500   2.337  0.7173 -1.1850  0.5375
    1SOL    MW4 5392   2.231   3.453   2.368  0.0813 -0.5200  0.1884
    1SOL     OW 5393   2.436   3.598   2.273 -0.0580 -0.2016 -0.4989
    1SOL    HW2 5394   2.448   3.689   2.300  0.2206  0.5725 -3.0685
    1SOL    HW3 5395   2.521   3.556   2.288 -0.1604 -0.0215  0.5933
    1SOL    MW4 5396   2.448   3.604   2.279 -0.0346 -0.0758 -0.6940
    1SOL     OW 5397   2.458   3.870   2.366 -0.4216 -0.0592  0.0129
    1SOL    HW2 5398   2.450   3.884   2.460 -0.2214 -0.7387  0.1383
    1SOL    HW3 5399   2.380   3.910   2.329 -0.9686 -0.6113  0.5609
    1SOL    MW4 5400   2.447   3.877   2.373 -0.4671 -0.2215  0.1023
    1SOL     OW 5401   2.249   4.001   2.253 -0.3441  0.4353 -0.2900
    1SOL    HW2 5402   2.247   4.081   2.305  2.0657 -0.3544  1.0616
    1SOL    HW3 5403   2.170   3.953   2.279 -0.7466  1.4469  0.3737
    1SOL    MW4 5404   2.238   4.005   2.263 -0.0792  0.4649 -0.0241
    1SOL     OW 5405   2.222   4.270   2.358 -0.3148 -0.5769  0.3976
    1SOL    HW2 5406   2.225   4.281   2.453  0.0330 -0.1278  0.3363
    1SOL    HW3 5407   2.133   4.296   2.333 -0.0548  0.3698  0.4672
    1SOL    MW4 5408   2.210   4.275   2.367 -0.2346 -0.3920  0.3986
    1SOL     OW 5409   2.447   4.393   2.257 -0.2567  0.0303 -0.4378
    1SOL    HW2 5410   2.519   4.348   2.303  1.1065  0.5836 -1.9824
    1SOL    HW3 5411   2.368   4.354   2.294  0.8560 -1.6008  0.3093
    1SOL    MW4 5412   2.446   4.382   2.268  0.0699 -0.1121 -0.5431
    1SOL     OW 5413   2.916   4.637   2.363  0.4869  0.5670 -0.0135
    1SOL    HW2 5414   2.994   4.671   2.320  0.1596  1.0820 -0.1991
    1SOL    HW3 5415   2.903   4.551   2.323  0.2312  1.0049 -0.8875
    1SOL    MW4 5416   2.925   4.630   2.352  0.4101  0.6924 -0.1531
    1SOL     OW 5417   2.710   0.090   2.233  0.3438 -0.2934 -0.3134
    1SOL    HW2 5418   2.694   0.170   2.283 -1.0362  0.3939 -1.7807
    1SOL    HW3 5419   2.780   0.045   2.280  0.6423  1.4295  0.9341
    1SOL    MW4 5420   2.717   0.095   2.245  0.2010  0.0246 -0.3424
    1SOL     OW 5421   2.696   0.347   2.351 -0.4563  0.0493  0.0729
    1SOL    HW2 5422   2.683   0.354   2.446 -2.6517 -0.2507 -0.1941
    1SOL    HW3 5423   2.775   0.398   2.335  1.8021 -2.4856  2.4950
    1SOL    MW4 5424   2.705   0.355   2.362 -0.4480 -0.3247  0.3572
    1SOL     OW 5425   2.928   0.490   2.289  0.4780  0.4198  0.5519
    1SOL    HW2 5426   2.934   0.580   2.319  0.9781  0.5928 -0.0430
    1SOL    HW3 5427   2.904   0.497   2.196  0.0273 -0.0684  0.6301
    1SOL    MW4 5428   2.926   0.502   2.281  0.4845  0.3781  0.4835
    1SOL     OW 5429   2.892   0.757   2.373 -0.1000 -0.5539  0.0159
    1SOL    HW2 5430   2.883   0.766   2.468  1.2367 -0.1527  0.1263
    1SOL    HW3 5431   2.811   0.792   2.338 -0.5559 -0.5882  1.0169
    1SOL    MW4 5432   2.880   0.763   2.381  0.0162 -0.5054  0.1624
    1SOL     OW 5433   2.662   0.878   2.246 -0.2826 -0.0126 -0.0856
    1SOL    HW2 5434   2.677   0.970   2.269  0.5047 -0.4917  1.4505
    1SOL    HW3 5435   2.661   0.877   2.151  2.5344  1.1810 -0.1830
    1SOL    MW4 5436   2.664   0.890   2.237  0.1931  0.0817  0.1042
    1SOL     OW 5437   2.712   1.125   2.347 -0.2582 -0.2921  0.0750
    1SOL    HW2 5438   2.696   1.146   2.439  1.4281 -0.9815  0.5444
    1SOL    HW3 5439   2.792   1.174   2.326  0.0176 -1.0743 -0.6796
    1SOL    MW4 5440   2.720   1.134   2.357  0.0005 -0.4863  0.0372
    1SOL     OW 5441   2.931   1.279   2.216  0.5691 -0.0887 -0.1286
    1SOL    HW2 5442   3.019   1.244   2.230  0.2140 -0.8320  0.2801
    1SOL    HW3 5443   2.915   1.266   2.123  0.5945 -0.6694 -0.0575
    1SOL    MW4 5444   2.941   1.273   2.206  0.5255 -0.2635 -0.0653
    1SOL     OW 5445   2.903   1.536   2.278 -0.0668  0.3257  0.1477
    1SOL    HW2 5446   2.911   1.539   2.373 -2.0249 -0.2563  0.3516
    1SOL    HW3 5447   2.906   1.443   2.256  0.6251  0.4665 -0.4043
    1SOL    MW4 5448   2.905   1.524   2.287 -0.2339  0.2675  0.1018
    1SOL     OW 5449   2.657   1.650   2.232 -0.2302 -0.2475  0.5243
    1SOL    HW2 5450   2.742   1.622   2.265  0.3416 -0.6367 -1.2521
    1SOL    HW3 5451   2.675   1.686   2.146 -1.4181  2.7009  1.4650
    1SOL    MW4 5452   2.670   1.651   2.225 -0.3114  0.0900  0.4141
    1SOL     OW 5453   2.698   1.919   2.336 -0.7091 -0.1684 -0.7965
    1SOL    HW2 5454   2.678   1.937   2.428 -0.4940  0.1595 -0.8143
    1SOL    HW3 5455   2.678   1.826   2.325  0.8709 -0.6090  0.0072
    1SOL    MW4 5456   2.693   1.909   2.347 -0.4723 -0.1833 -0.6926
    1SOL     OW 5457   2.914   2.062   2.201 -0.1932 -0.1572 -0.1990
    1SOL    HW2 5458   2.992   2.021   2.238  0.2549  2.2431  1.6172
    1SOL    HW3 5459   2.841   2.021   2.249  0.0251 -1.1131 -0.6613
    1SOL    MW4 5460   2.914   2.051   2.213 -0.1051  0.0336 -0.0205
    1SOL     OW 5461   2.935   2.316   2.316 -0.0437  0.0928 -0.5361
    1SOL    HW2 5462   2.930   2.290   2.408  0.2804 -0.0511 -0.5587
    1SOL    HW3 5463   2.921   2.234   2.268  1.3026 -0.1034 -0.6078
    1SOL    MW4 5464   2.933   2.302   2.322  0.1769  0.0479 -0.5486
    1SOL     OW 5465   2.735   2.467   2.242  0.3030  0.0306  0.2507
    1SOL    HW2 5466   2.811   2.418   2.274  0.1915  0.1976  0.7750
    1SOL    HW3 5467   2.743   2.464   2.147  0.8301 -0.1687  0.2996
    1SOL    MW4 5468   2.746   2.460   2.234  0.3579  0.0262  0.3264
    1SOL     OW 5469   2.726   2.724   2.311 -0.5254  0.2053 -0.5918
    1SOL    HW2 5470   2.806   2.767   2.278 -0.0720 -0.0887  0.1021
    1SOL    HW3 5471   2.731   2.635   2.277  0.1117 -0.1954  0.5276
    1SOL    MW4 5472   2.737   2.718   2.302 -0.3815  0.1137 -0.3524
    1SOL     OW 5473   2.980   2.817   2.232 -0.0471  0.0767  0.5200
    1SOL    HW2 5474   2.971   2.905   2.268  2.1890  1.1311 -1.4133
    1SOL    HW3 5475   2.953   2.826   2.140  0.2522 -1.2566  0.2949
    1SOL    MW4 5476   2.975   2.830   2.225  0.2878  0.0398  0.2353
    1SOL     OW 5477   2.937   3.082   2.343 -0.1183  0.1432 -0.1803
    1SOL    HW2 5478   3.006   3.146   2.330 -0.5351  0.6812  0.2380
    1SOL    HW3 5479   2.857   3.125   2.312 -0.2451 -0.5350 -0.8235
    1SOL    MW4 5480   2.935   3.096   2.337 -0.1900  0.1247 -0.2098
    1SOL     OW 5481   2.722   3.218   2.251 -0.4815  0.2363 -0.2521
    1SOL    HW2 5482   2.635   3.187   2.277 -0.1876  0.0183  0.4939
    1SOL    HW3 5483   2.715   3.236   2.157 -1.5575  0.9613 -0.0464
    1SOL    MW4 5484   2.710   3.217   2.242 -0.5844  0.3033 -0.1264
    1SOL     OW 5485   2.691   3.484   2.332  0.0786  0.3407  0.1563
    1SOL    HW2 5486   2.768   3.540   2.321  0.0854  0.3908  0.4668
    1SOL    HW3 5487   2.714   3.402   2.287  1.0029 -0.2983  1.7759
    1SOL    MW4 5488   2.704   3.480   2.324  0.2017  0.2630  0.4110
    1SOL     OW 5489   2.899   3.647   2.255  0.4326  0.2874 -0.3375
    1SOL    HW2 5490   2.981   3.615   2.293 -0.2486  0.6334  1.5076
    1SOL    HW3 5491   2.902   3.741   2.271 -1.0511  0.0875  1.2527
    1SOL    MW4 5492   2.911   3.655   2.262  0.1469  0.3066  0.1159
    1SOL     OW 5493   2.907   3.915   2.323  0.4361 -0.0630  0.0060
    1SOL    HW2 5494   2.915   3.912   2.418  1.5970 -0.5394 -0.1016
    1SOL    HW3 5495   2.828   3.968   2.308  0.0920 -0.1991  1.2269
    1SOL    MW4 5496   2.897   3.922   2.334  0.5438 -0.1440  0.1528
    1SOL     OW 5497   2.676   4.031   2.267  0.4348  0.1543 -0.1023
    1SOL    HW2 5498   2.610   3.972   2.304  0.6075  0.7294  1.1444
    1SOL    HW3 5499   2.684   4.003   2.176 -1.4759  0.0143 -0.2615
    1SOL    MW4 5500   2.668   4.020   2.260  0.2058  0.2112  0.0412
    1SOL     OW 5501   2.688   4.288   2.332  0.4438 -0.2528  0.1711
    1SOL    HW2 5502   2.690   4.277   2.427  0.3687  0.8242  0.3076
    1SOL    HW3 5503   2.691   4.199   2.297  1.0893 -0.6291  1.1719
    1SOL    MW4 5504   2.689   4.275   2.340  0.5188 -0.1602  0.3214
    1SOL     OW 5505   2.933   4.408   2.213 -0.7335  0.4925  0.0360
    1SOL    HW2 5506   3.004   4.363   2.259 -0.0678  1.6197  0.1153
    1SOL    HW3 5507   2.854   4.359   2.238 -0.2076  0.2502  1.2728
    1SOL    MW4 5508   2.932   4.395   2.222 -0.5765  0.6089  0.2093
    1SOL     OW 5509   3.369   4.626   2.381 -0.4246 -0.3102 -0.7866
    1SOL    HW2 5510   3.364   4.639   2.476 -0.5511 -2.0129 -0.5447
    1SOL    HW3 5511   3.438   4.686   2.353  0.0944 -0.2916  0.4804
    1SOL    MW4 5512   3.377   4.635   2.390 -0.3729 -0.5322 -0.5875
    1SOL     OW 5513   3.150   0.055   2.247 -0.4034 -0.0137  0.2108
    1SOL    HW2 5514   3.151   0.150   2.264 -1.0507 -0.0328  0.3928
    1SOL    HW3 5515   3.223   0.021   2.298 -0.6035  0.3005  0.7151
    1SOL    MW4 5516   3.160   0.063   2.256 -0.5152  0.0253  0.3014
    1SOL     OW 5517   3.151   0.325   2.312  0.1069  0.1847  0.3195
    1SOL    HW2 5518   3.225   0.373   2.273  0.4647 -0.3203  0.3722
    1SOL    HW3 5519   3.076   0.382   2.298 -0.1164 -0.7851 -2.7843
    1SOL    MW4 5520   3.151   0.339   2.305  0.1247 -0.0098 -0.0830
    1SOL     OW 5521   3.356   0.476   2.238 -0.2430  0.1324  0.1251
    1SOL    HW2 5522   3.435   0.429   2.266 -0.2496 -0.2066 -0.4200
    1SOL    HW3 5523   3.371   0.494   2.145 -1.0033 -0.3384 -0.0913
    1SOL    MW4 5524   3.369   0.472   2.229 -0.3440  0.0255  0.0248
    1SOL     OW 5525   3.320   0.734   2.382 -0.2982  0.2277  0.2014
    1SOL    HW2 5526   3.404   0.775   2.365 -0.3147  0.4301  0.6209
    1SOL    HW3 5527   3.329   0.645   2.348  0.0288  0.2991  0.1051
    1SOL    MW4 5528   3.332   0.727   2.375 -0.2570  0.2638  0.2439
    1SOL     OW 5529   3.108   0.892   2.258  0.1626  0.5802  0.2413
    1SOL    HW2 5530   3.178   0.840   2.297  1.1834  0.7035 -1.4026
    1SOL    HW3 5531   3.028   0.847   2.283  1.0459 -2.3721 -1.9522
    1SOL    MW4 5532   3.107   0.879   2.267  0.4139  0.2069 -0.2651
    1SOL     OW 5533   3.177   1.146   2.342 -0.0912 -0.1234  0.1170
    1SOL    HW2 5534   3.261   1.161   2.300 -0.1927 -0.4755 -0.2273
    1SOL    HW3 5535   3.164   1.051   2.337  0.2489 -0.2638  1.6519
    1SOL    MW4 5536   3.186   1.135   2.336 -0.0601 -0.1884  0.2739
    1SOL     OW 5537   3.410   1.230   2.214 -0.3219  0.3517  0.1008
    1SOL    HW2 5538   3.483   1.183   2.252 -1.7736 -0.2154  2.2651
    1SOL    HW3 5539   3.417   1.319   2.248 -0.5048  0.3549  0.1338
    1SOL    MW4 5540   3.420   1.235   2.223 -0.5374  0.2772  0.3908
    1SOL     OW 5541   3.386   1.511   2.281  0.2414  0.2090  0.2721
    1SOL    HW2 5542   3.376   1.489   2.374  3.1083  1.6780  1.0223
    1SOL    HW3 5543   3.308   1.562   2.260 -1.0359 -1.1799  1.5226
    1SOL    MW4 5544   3.374   1.515   2.291  0.4513  0.2196  0.5360
    1SOL     OW 5545   3.156   1.674   2.226  0.8484 -0.5567 -0.2520
    1SOL    HW2 5546   3.136   1.764   2.252  1.6281 -0.8776  1.5520
    1SOL    HW3 5547   3.071   1.629   2.228  0.6415 -0.1524  0.1043
    1SOL    MW4 5548   3.142   1.680   2.230  0.9239 -0.5457  0.0331
    1SOL     OW 5549   3.139   1.935   2.311 -0.2561  0.1580 -0.2992
    1SOL    HW2 5550   3.134   1.930   2.406 -0.9811  1.5727 -0.2569
    1SOL    HW3 5551   3.224   1.973   2.292 -0.0515 -0.2600 -0.2289
    1SOL    MW4 5552   3.149   1.939   2.321 -0.3247  0.2894 -0.2844
    1SOL     OW 5553   3.380   2.048   2.207  0.1941  0.2521 -0.4815
    1SOL    HW2 5554   3.457   1.994   2.225  1.1775  1.4465 -0.9930
    1SOL    HW3 5555   3.380   2.056   2.111  0.7042  2.0552 -0.3424
    1SOL    MW4 5556   3.390   2.042   2.196  0.3912  0.6475 -0.5307
    1SOL     OW 5557   3.382   2.302   2.333 -0.1397  0.1823 -0.4819
    1SOL    HW2 5558   3.303   2.352   2.310 -0.5762  0.4569  1.5789
    1SOL    HW3 5559   3.371   2.219   2.286 -1.8822  0.0468  0.1026
    1SOL    MW4 5560   3.370   2.297   2.323 -0.4272  0.2007 -0.1328
    1SOL     OW 5561   3.167   2.429   2.210 -0.0592  0.0204  0.0831
    1SOL    HW2 5562   3.169   2.515   2.253  1.0803  0.6192 -1.1395
    1SOL    HW3 5563   3.081   2.393   2.233 -0.1002  0.9952  1.5438
    1SOL    MW4 5564   3.156   2.436   2.219  0.0856  0.2279  0.1144
    1SOL     OW 5565   3.196   2.675   2.329  0.1184 -0.6557  0.5668
    1SOL    HW2 5566   3.188   2.692   2.422 -0.7711  1.1243  0.2000
    1SOL    HW3 5567   3.120   2.719   2.290  0.4154 -1.4725 -0.9779
    1SOL    MW4 5568   3.185   2.683   2.336  0.0403 -0.5288  0.3145
    1SOL     OW 5569   3.398   2.835   2.186  0.1773 -0.1122 -0.2451
    1SOL    HW2 5570   3.380   2.925   2.214 -0.2092  0.5156 -2.3515
    1SOL    HW3 5571   3.324   2.785   2.219  0.1405  0.4421  0.5269
    1SOL    MW4 5572   3.386   2.840   2.194  0.1214  0.0439 -0.4210
    1SOL     OW 5573   3.365   3.091   2.302  0.0692 -0.0158 -0.5350
    1SOL    HW2 5574   3.440   3.141   2.271 -0.3957  0.5756 -0.7374
    1SOL    HW3 5575   3.295   3.157   2.310 -0.9089 -0.8470 -2.0198
    1SOL    MW4 5576   3.365   3.107   2.299 -0.1209 -0.0477 -0.7577
    1SOL     OW 5577   3.128   3.268   2.253  0.1484 -0.0354 -0.1617
    1SOL    HW2 5578   3.110   3.356   2.285 -0.0785  0.2743 -1.1155
    1SOL    HW3 5579   3.148   3.280   2.160  3.1066 -0.6011  0.3463
    1SOL    MW4 5580   3.129   3.281   2.245  0.5085 -0.0691 -0.2205
    1SOL     OW 5581   3.122   3.536   2.370  0.1917 -0.2149  0.1411
    1SOL    HW2 5582   3.123   3.527   2.465 -0.6026  0.3227  0.2032
    1SOL    HW3 5583   3.215   3.546   2.346  0.4626 -1.1086  0.7708
    1SOL    MW4 5584   3.135   3.536   2.379  0.1228 -0.2618  0.2325
    1SOL     OW 5585   3.362   3.616   2.268 -0.0694 -0.2156  0.3653
    1SOL    HW2 5586   3.448   3.576   2.278 -0.1916 -0.5858 -0.0709
    1SOL    HW3 5587   3.353   3.632   2.174 -0.8332 -0.9728  0.3078
    1SOL    MW4 5588   3.372   3.613   2.257 -0.1864 -0.3643  0.2999
    1SOL     OW 5589   3.330   3.875   2.385  0.2090 -0.5593 -0.1866
    1SOL    HW2 5590   3.409   3.912   2.345  0.0651  0.3668  0.3847
    1SOL    HW3 5591   3.333   3.782   2.361  0.3187 -0.0913 -2.0180
    1SOL    MW4 5592   3.341   3.868   2.377  0.2043 -0.3753 -0.3529
    1SOL     OW 5593   3.140   4.029   2.251 -0.3023  0.3806  0.2081
    1SOL    HW2 5594   3.202   3.965   2.285 -0.2802 -0.5727 -1.5533
    1SOL    HW3 5595   3.054   3.994   2.273 -0.2962 -0.3948 -0.9288
    1SOL    MW4 5596   3.136   4.016   2.258 -0.2990  0.1531 -0.1743
    1SOL     OW 5597   3.118   4.298   2.363  0.1422  0.2375 -0.0671
    1SOL    HW2 5598   3.205   4.320   2.329 -0.1819  0.3677 -0.8085
    1SOL    HW3 5599   3.110   4.204   2.347 -0.3408  0.4498 -1.1036
    1SOL    MW4 5600   3.128   4.288   2.356  0.0358  0.2828 -0.3014
    1SOL     OW 5601   3.368   4.368   2.268  0.0319  0.3652  0.0218
    1SOL    HW2 5602   3.369   4.454   2.310  0.7116  0.6352 -0.5300
    1SOL    HW3 5603   3.352   4.388   2.175  0.9323 -0.0458 -0.2263
    1SOL    MW4 5604   3.366   4.382   2.261  0.2406  0.3467 -0.0837
    1SOL     OW 5605   3.833   4.654   2.365  0.2532  0.2584 -0.4353
    1SOL    HW2 5606   3.828   4.668   2.459  0.9843 -1.2604 -0.1519
    1SOL    HW3 5607   3.918   4.689   2.339  0.5544 -0.3960 -0.3314
    1SOL    MW4 5608   3.843   4.660   2.374  0.3893 -0.0281 -0.3846
    1SOL     OW 5609   3.583   0.109   2.283 -0.3633  0.2540  0.0165
    1SOL    HW2 5610   3.574   0.192   2.330  1.9494  1.0175 -0.8111
    1SOL    HW3 5611   3.673   0.082   2.300 -0.8925 -1.7722 -0.2776
    1SOL    MW4 5612   3.594   0.116   2.291 -0.1283  0.0874 -0.1314
    1SOL     OW 5613   3.570   0.375   2.388  0.5443  0.5348 -0.3403
    1SOL    HW2 5614   3.563   0.379   2.483  0.6585  0.0411 -0.3118
    1SOL    HW3 5615   3.661   0.399   2.369  0.8703 -0.6306 -0.2482
    1SOL    MW4 5616   3.581   0.379   2.398  0.6022  0.3159 -0.3242
    1SOL     OW 5617   3.808   0.479   2.288 -0.1135 -0.2075  0.2968
    1SOL    HW2 5618   3.798   0.570   2.316  0.7000 -0.2214  0.6628
    1SOL    HW3 5619   3.804   0.483   2.193 -0.7978  0.1201  0.3388
    1SOL    MW4 5620   3.806   0.492   2.279 -0.0966 -0.1661  0.3507
    1SOL     OW 5621   3.808   0.745   2.383  0.3985  0.1541 -0.1322
    1SOL    HW2 5622   3.821   0.764   2.476 -1.1086  1.0311 -0.0915
    1SOL    HW3 5623   3.878   0.793   2.339  0.0613  1.1642  0.4200
    1SOL    MW4 5624   3.819   0.754   2.389  0.1552  0.4030 -0.0541
    1SOL     OW 5625   3.572   0.851   2.316  0.0291 -0.1323  0.2370
    1SOL    HW2 5626   3.655   0.810   2.342 -0.6831 -2.3322 -0.8536
    1SOL    HW3 5627   3.576   0.856   2.221 -0.4433  1.2109  0.2765
    1SOL    MW4 5628   3.583   0.846   2.307 -0.1273 -0.2453  0.0982
    1SOL     OW 5629   3.630   1.122   2.344 -0.1089  0.1058  0.6663
    1SOL    HW2 5630   3.616   1.146   2.435  0.1073  1.2894  0.3976
    1SOL    HW3 5631   3.629   1.026   2.343  1.1607  0.0822  2.1032
    1SOL    MW4 5632   3.628   1.112   2.356  0.0873  0.2588  0.8204
    1SOL     OW 5633   3.826   1.285   2.225  0.1547 -0.2761  0.0333
    1SOL    HW2 5634   3.828   1.373   2.262 -0.5800 -0.2332 -0.0039
    1SOL    HW3 5635   3.751   1.243   2.267 -0.6823 -0.2326 -1.3682
    1SOL    MW4 5636   3.816   1.291   2.235 -0.0527 -0.2646 -0.1566
    1SOL     OW 5637   3.819   1.545   2.358 -0.4636  0.3318 -0.0885
    1SOL    HW2 5638   3.811   1.553   2.453  0.1992 -0.9671  0.0859
    1SOL    HW3 5639   3.748   1.600   2.324 -0.4981  1.0817  1.1392
    1SOL    MW4 5640   3.809   1.554   2.366 -0.3808  0.2594  0.0963
    1SOL     OW 5641   3.605   1.676   2.234 -0.0599  0.5326 -0.4822
    1SOL    HW2 5642   3.523   1.633   2.259  0.2342 -0.2386 -0.8142
    1SOL    HW3 5643   3.606   1.674   2.139  0.4402  0.3363 -0.4792
    1SOL    MW4 5644   3.595   1.670   2.225  0.0446  0.4048 -0.5255
    1SOL     OW 5645   3.590   1.922   2.332 -0.0540  0.2725  0.1654
    1SOL    HW2 5646   3.673   1.959   2.302 -0.5486  0.8521 -0.5156
    1SOL    HW3 5647   3.595   1.829   2.310  1.1468 -0.0801  1.7668
    1SOL    MW4 5648   3.602   1.915   2.325  0.0391  0.3023  0.2871
    1SOL     OW 5649   3.837   2.063   2.225  0.4283  0.3494 -0.0386
    1SOL    HW2 5650   3.915   2.021   2.261  0.6609  0.7474 -0.0746
    1SOL    HW3 5651   3.841   2.043   2.131  0.0725 -0.2914  0.0866
    1SOL    MW4 5652   3.848   2.055   2.217  0.4122  0.3173 -0.0265
    1SOL     OW 5653   3.798   2.310   2.347 -0.5197 -0.2726  0.2156
    1SOL    HW2 5654   3.736   2.364   2.299  1.0698  0.7849 -0.7001
    1SOL    HW3 5655   3.794   2.224   2.304 -1.8393 -0.4275  0.6199
    1SOL    MW4 5656   3.789   2.306   2.335 -0.4840 -0.1535  0.1483
    1SOL     OW 5657   3.583   2.439   2.208 -0.3988  0.4578 -0.3620
    1SOL    HW2 5658   3.506   2.389   2.235  1.9199 -3.4936 -0.7617
    1SOL    HW3 5659   3.586   2.428   2.113  0.9926  0.0327 -0.2814
    1SOL    MW4 5660   3.573   2.431   2.199  0.0906 -0.1197 -0.4044
    1SOL     OW 5661   3.579   2.683   2.322  0.1201  0.4903 -0.3428
    1SOL    HW2 5662   3.582   2.598   2.278 -0.4699  0.0271  0.5016
    1SOL    HW3 5663   3.514   2.734   2.272  0.2134  0.3282 -0.6307
    1SOL    MW4 5664   3.571   2.679   2.309  0.0544  0.4079 -0.2694
    1SOL     OW 5665   3.810   2.823   2.194 -0.1193 -0.4708 -0.2820
    1SOL    HW2 5666   3.802   2.916   2.216 -0.1413 -0.9171  1.6866
    1SOL    HW3 5667   3.736   2.782   2.239  0.3071 -1.5537 -0.5615
    1SOL    MW4 5668   3.799   2.830   2.202 -0.0658 -0.6723 -0.0594
    1SOL     OW 5669   3.802   3.089   2.282  0.0944 -0.2697 -0.2175
    1SOL    HW2 5670   3.789   3.069   2.375 -0.5194  1.9595  0.1884
    1SOL    HW3 5671   3.887   3.133   2.278 -0.6153  1.1110 -0.4714
    1SOL    MW4 5672   3.811   3.092   2.294 -0.0799  0.2067 -0.1974
    1SOL     OW 5673   3.573   3.255   2.182 -0.1220  0.2611 -0.2163
    1SOL    HW2 5674   3.584   3.344   2.215  0.3057  0.0732  0.1494
    1SOL    HW3 5675   3.652   3.209   2.211 -0.7370 -0.4583  0.3144
    1SOL    MW4 5676   3.585   3.261   2.190 -0.1466  0.1414 -0.0982
    1SOL     OW 5677   3.601   3.492   2.310  0.5300  0.0034  0.3951
    1SOL    HW2 5678   3.578   3.479   2.402  0.5876 -1.1968  0.2485
    1SOL    HW3 5679   3.682   3.543   2.313  1.6210 -1.7354  1.0619
    1SOL    MW4 5680   3.609   3.497   2.323  0.6814 -0.3843  0.4635
    1SOL     OW 5681   3.841   3.629   2.279  0.2319 -0.3331 -0.5094
    1SOL    HW2 5682   3.857   3.722   2.294 -0.2560  0.0392 -2.1631
    1SOL    HW3 5683   3.846   3.619   2.184  0.6424 -2.0696 -0.3242
    1SOL    MW4 5684   3.843   3.640   2.269  0.2215 -0.5131 -0.7031
    1SOL     OW 5685   3.832   3.919   2.337 -0.0711  0.2683 -0.4241
    1SOL    HW2 5686   3.858   3.926   2.429 -2.2805  3.0773  0.0673
    1SOL    HW3 5687   3.904   3.959   2.289  0.6923 -0.4042  0.1418
    1SOL    MW4 5688   3.845   3.925   2.343 -0.2615  0.5500 -0.2847
    1SOL     OW 5689   3.567   3.996   2.265 -0.1620 -0.2151 -0.0101
    1SOL    HW2 5690   3.564   4.087   2.294 -0.7441 -0.0051 -0.6886
    1SOL    HW3 5691   3.652   3.963   2.294  0.1959  0.6507 -0.0675
    1SOL    MW4 5692   3.578   4.003   2.272 -0.1917 -0.0734 -0.1073
    1SOL     OW 5693   3.579   4.241   2.376 -0.3212 -0.2697 -0.3256
    1SOL    HW2 5694   3.655   4.291   2.348  1.1402 -1.2868  1.7288
    1SOL    HW3 5695   3.504   4.292   2.344  1.1788  1.3093 -1.4131
    1SOL    MW4 5696   3.579   4.255   2.368  0.0696 -0.1960 -0.1979
    1SOL     OW 5697   3.794   4.372   2.277 -0.1729  0.0044  0.1439
    1SOL    HW2 5698   3.873   4.325   2.305 -0.7931 -0.3898  1.2494
    1SOL    HW3 5699   3.804   4.460   2.315  0.3248  0.3597 -0.7752
    1SOL    MW4 5700   3.806   4.378   2.286 -0.1891 -0.0005  0.1683
    1SOL     OW 5701   4.246   4.628   2.421 -0.3977  0.1784 -0.3206
    1SOL    HW2 5702   4.259   4.640   2.515  1.0508 -0.5231 -0.4168
    1SOL    HW3 5703   4.314   4.682   2.381 -0.3821 -0.3069 -0.9473
    1SOL    MW4 5704   4.257   4.637   2.428 -0.2046  0.0218 -0.4158
    1SOL     OW 5705   4.062   0.104   2.285  0.5320  0.0954 -0.2657
    1SOL    HW2 5706   4.061   0.192   2.323  0.4423 -0.2587  0.5610
    1SOL    HW3 5707   4.120   0.054   2.342 -0.0284 -0.5822 -0.2883
    1SOL    MW4 5708   4.069   0.109   2.297  0.4463 -0.0407 -0.1595
    1SOL     OW 5709   4.040   0.355   2.413  0.3575  0.1313  0.5865
    1SOL    HW2 5710   4.112   0.404   2.373  0.5497 -1.0712 -0.5621
    1SOL    HW3 5711   3.961   0.399   2.382  0.5509  0.6299  0.7822
    1SOL    MW4 5712   4.039   0.368   2.404  0.4082  0.0384  0.4609
    1SOL     OW 5713   4.262   0.496   2.298  0.1934  0.2023  0.3213
    1SOL    HW2 5714   4.263   0.587   2.328 -0.3889  0.1763  0.4308
    1SOL    HW3 5715   4.342   0.458   2.333  1.2210  1.0789 -1.0023
    1SOL    MW4 5716   4.273   0.503   2.306  0.2522  0.3145  0.1612
    1SOL     OW 5717   4.244   0.757   2.381 -0.1354  0.3059  0.3019
    1SOL    HW2 5718   4.169   0.799   2.341  0.1852  0.0454 -0.5853
    1SOL    HW3 5719   4.320   0.795   2.336  0.2618  0.5711  1.1919
    1SOL    MW4 5720   4.244   0.767   2.370 -0.0410  0.3065  0.3026
    1SOL     OW 5721   4.001   0.896   2.277  0.7424  0.1857 -0.0489
    1SOL    HW2 5722   4.015   0.983   2.314  0.6153  0.2849 -0.2392
    1SOL    HW3 5723   4.011   0.908   2.183 -0.8231  0.2829 -0.2023
    1SOL    MW4 5724   4.004   0.909   2.269  0.5193  0.2117 -0.0944
    1SOL     OW 5725   4.032   1.159   2.346 -0.0788 -0.4948 -0.1534
    1SOL    HW2 5726   4.030   1.187   2.437  0.4837  0.5927 -0.4586
    1SOL    HW3 5727   3.953   1.198   2.307 -0.1359 -0.6663 -0.2088
    1SOL    MW4 5728   4.021   1.168   2.353 -0.0124 -0.3740 -0.2012
    1SOL     OW 5729   4.254   1.275   2.230  0.3546 -0.3358 -0.3825
    1SOL    HW2 5730   4.183   1.231   2.277  0.7703 -1.3379 -0.6904
    1SOL    HW3 5731   4.334   1.235   2.263  0.9352  2.1519  1.4320
    1SOL    MW4 5732   4.255   1.264   2.241  0.4859 -0.1397 -0.1838
    1SOL     OW 5733   4.224   1.529   2.331  0.2781  0.4360  0.0728
    1SOL    HW2 5734   4.220   1.437   2.305  0.1782 -0.0931  1.8857
    1SOL    HW3 5735   4.302   1.564   2.287 -0.3011 -0.2080 -1.5103
    1SOL    MW4 5736   4.234   1.522   2.322  0.1884  0.2812  0.1032
    1SOL     OW 5737   4.030   1.654   2.213  0.4373 -0.4209  0.0787
    1SOL    HW2 5738   4.106   1.607   2.247  0.3476  0.9844  2.3460
    1SOL    HW3 5739   3.955   1.601   2.239  0.4474 -0.0328  0.9022
    1SOL    MW4 5740   4.030   1.641   2.221  0.4272 -0.1842  0.4864
    1SOL     OW 5741   4.039   1.909   2.331 -0.1207 -0.1268 -0.0476
    1SOL    HW2 5742   4.043   1.898   2.426  0.6901  0.0309 -0.0650
    1SOL    HW3 5743   4.044   1.819   2.297 -0.6028 -0.1967  0.0647
    1SOL    MW4 5744   4.040   1.896   2.339 -0.0772 -0.1153 -0.0353
    1SOL     OW 5745   4.271   2.018   2.223 -0.0759 -0.2476  0.1631
    1SOL    HW2 5746   4.269   2.105   2.261  0.6183 -0.0480 -0.2450
    1SOL    HW3 5747   4.190   1.976   2.253 -0.6590  0.7096 -0.0588
    1SOL    MW4 5748   4.260   2.024   2.232 -0.0615 -0.0951  0.0801
    1SOL     OW 5749   4.265   2.263   2.341  0.0701 -0.3128 -0.0134
    1SOL    HW2 5750   4.189   2.303   2.299  0.1660  0.7896  0.8307
    1SOL    HW3 5751   4.340   2.313   2.308  0.3899 -1.0975 -0.4917
    1SOL    MW4 5752   4.265   2.275   2.332  0.1249 -0.2708  0.0348
    1SOL     OW 5753   4.049   2.409   2.260  0.2295 -0.3873  0.3793
    1SOL    HW2 5754   4.053   2.501   2.287  1.6190 -1.3030  3.5718
    1SOL    HW3 5755   3.960   2.382   2.281 -0.0655  0.1168 -0.2056
    1SOL    MW4 5756   4.038   2.417   2.266  0.3748 -0.4418  0.7236
    1SOL     OW 5757   4.011   2.666   2.336  0.2614  0.1889  0.0488
    1SOL    HW2 5758   3.991   2.670   2.429 -0.2144 -1.8425  0.0572
    1SOL    HW3 5759   3.945   2.722   2.295  0.0394  0.5386  0.8636
    1SOL    MW4 5760   4.000   2.674   2.343  0.1695 -0.0329  0.1571
    1SOL     OW 5761   4.249   2.802   2.278 -0.5213 -0.1667  0.3289
    1SOL    HW2 5762   4.167   2.759   2.300 -0.0048 -1.0081  0.6560
    1SOL    HW3 5763   4.316   2.748   2.320  0.3135 -0.4262 -1.2924
    1SOL    MW4 5764   4.247   2.789   2.286 -0.3433 -0.3121  0.1581
    1SOL     OW 5765   4.268   3.069   2.390 -0.0182  0.5584  0.2550
    1SOL    HW2 5766   4.251   2.986   2.345  1.5283 -0.1044  0.8381
    1SOL    HW3 5767   4.342   3.107   2.343 -0.1020  1.1518  0.5951
    1SOL    MW4 5768   4.276   3.063   2.377  0.1745  0.5491  0.3767
    1SOL     OW 5769   4.061   3.202   2.259  0.3552 -0.7045  0.3378
    1SOL    HW2 5770   4.052   3.292   2.291  1.3216 -0.0460 -1.1983
    1SOL    HW3 5771   4.142   3.170   2.299  0.7561 -0.4058 -0.2307
    1SOL    MW4 5772   4.070   3.209   2.269  0.5360 -0.5784  0.0603
    1SOL     OW 5773   4.259   3.616   2.291 -0.2603  0.0099  0.1337
    1SOL    HW2 5774   4.253   3.700   2.335 -0.4465  1.0831 -1.8609
    1SOL    HW3 5775   4.184   3.566   2.323 -1.7472  1.6365 -0.7176
    1SOL    MW4 5776   4.248   3.620   2.301 -0.4816  0.3662 -0.2418
    1SOL     OW 5777   4.271   3.611   2.002 -0.3735  0.9255  0.2603
    1SOL    HW2 5778   4.259   3.603   2.097 -0.5818  1.7742  0.3084
    1SOL    HW3 5779   4.334   3.543   1.980 -0.9172  0.2053  0.8910
    1SOL    MW4 5780   4.278   3.601   2.012 -0.4730  0.9427  0.3498
    1SOL     OW 5781   4.251   3.868   2.398  0.3428 -0.0475 -0.3150
    1SOL    HW2 5782   4.232   3.866   2.491  0.6788  0.8174 -0.2227
    1SOL    HW3 5783   4.328   3.924   2.390 -0.9920  1.7222 -1.3179
    1SOL    MW4 5784   4.259   3.875   2.409  0.2112  0.3004 -0.4354
    1SOL     OW 5785   4.053   4.031   2.232 -0.2777 -0.6372 -0.0976
    1SOL    HW2 5786   4.131   3.980   2.254  0.2768  0.3546  0.2533
    1SOL    HW3 5787   4.059   4.044   2.137 -0.3289 -1.0670 -0.1616
    1SOL    MW4 5788   4.064   4.026   2.222 -0.2117 -0.5627 -0.0596
    1SOL     OW 5789   4.029   4.266   2.378  0.1340 -0.2946  0.2589
    1SOL    HW2 5790   4.101   4.328   2.370 -0.5954  0.7450  1.6102
    1SOL    HW3 5791   4.054   4.192   2.322  2.3680 -0.0689  0.9354
    1SOL    MW4 5792   4.042   4.264   2.369  0.3324 -0.1278  0.5267
    1SOL     OW 5793   4.253   4.388   2.284 -0.1048  0.0690 -0.2636
    1SOL    HW2 5794   4.256   4.473   2.329  1.3290 -0.2115  0.1809
    1SOL    HW3 5795   4.311   4.332   2.335  1.0630 -0.4366 -2.0936
    1SOL    MW4 5796   4.261   4.392   2.297  0.2389 -0.0348 -0.4463
    1SOL     OW 5797   0.208   4.646   2.621  0.2497  0.2201  0.2694
    1SOL    HW2 5798   0.222   4.562   2.664 -0.4591  1.1230  2.2803
    1SOL    HW3 5799   0.133   4.684   2.665 -0.3700  1.2663 -1.6406
    1SOL    MW4 5800   0.200   4.640   2.632  0.0744  0.4773  0.2828
    1SOL     OW 5801   4.474   0.127   2.760  0.2974 -0.2799 -0.6136
    1SOL    HW2 5802   4.490   0.115   2.853 -1.0390  1.6161 -0.1060
    1SOL    HW3 5803   4.473   0.222   2.747 -1.0218 -0.4810 -2.2656
    1SOL    MW4 5804   4.476   0.138   2.771 -0.0529 -0.0563 -0.7646
    1SOL     OW 5805   4.464   0.427   2.667  0.0248 -0.4077  0.2039
    1SOL    HW2 5806   4.537   0.486   2.686  0.7521 -1.6435  1.2387
    1SOL    HW3 5807   4.466   0.416   2.572  1.1646 -0.4256  0.2302
    1SOL    MW4 5808   4.474   0.434   2.657  0.2708 -0.5731  0.3438
    1SOL     OW 5809   0.220   0.550   2.733  0.4498  0.2576  0.2457
    1SOL    HW2 5810   0.232   0.529   2.825  0.6310 -0.2842  0.1017
    1SOL    HW3 5811   0.288   0.500   2.688  1.1535  1.4886 -0.0662
    1SOL    MW4 5812   0.230   0.541   2.739  0.5666  0.3485  0.1855
    1SOL     OW 5813   0.210   0.815   2.648  0.2010 -0.1600 -0.3295
    1SOL    HW2 5814   0.287   0.862   2.681  0.5297  0.2165 -1.5904
    1SOL    HW3 5815   0.222   0.725   2.678  0.2825  0.2422  0.9009
    1SOL    MW4 5816   0.222   0.809   2.656  0.2551 -0.0573 -0.3335
    1SOL     OW 5817   4.465   0.926   2.771  0.1941  0.0047 -0.2417
    1SOL    HW2 5818   4.386   0.888   2.731 -0.4568  1.9477 -0.8457
    1SOL    HW3 5819   4.537   0.893   2.718 -0.2077 -1.7051  0.2432
    1SOL    MW4 5820   4.464   0.917   2.759  0.0553  0.0355 -0.2577
    1SOL     OW 5821   4.460   1.173   2.640 -0.7270 -0.3971  0.2155
    1SOL    HW2 5822   4.533   1.221   2.680 -0.4632  0.3437 -1.1314
    1SOL    HW3 5823   4.447   1.098   2.698  0.7520 -0.2551  0.7740
    1SOL    MW4 5824   4.468   1.170   2.653 -0.4969 -0.2806  0.1116
    1SOL     OW 5825   0.205   1.280   2.732 -0.0447  0.4790  0.0212
    1SOL    HW2 5826   0.279   1.244   2.684 -1.4365 -1.1829 -0.9506
    1SOL    HW3 5827   0.209   1.374   2.715  0.1264  0.0652 -2.5089
    1SOL    MW4 5828   0.215   1.288   2.723 -0.2058  0.2052 -0.4408
    1SOL     OW 5829   0.223   1.543   2.662 -0.0802 -0.2452  0.3521
    1SOL    HW2 5830   0.303   1.590   2.684 -0.3825 -0.0139  0.9822
    1SOL    HW3 5831   0.153   1.593   2.705 -0.5752 -0.3711 -0.2945
    1SOL    MW4 5832   0.224   1.556   2.671 -0.1854 -0.2313  0.3500
    1SOL     OW 5833   4.481   1.652   2.763 -0.2270 -0.0333  0.5868
    1SOL    HW2 5834   4.479   1.644   2.858  1.5694  0.9592  0.7241
    1SOL    HW3 5835   4.498   1.745   2.747  1.2302 -0.4951 -0.6728
    1SOL    MW4 5836   4.483   1.664   2.773  0.2023  0.0368  0.4387
    1SOL     OW 5837   4.486   1.913   2.663  0.1784 -0.1475  0.1352
    1SOL    HW2 5838   4.556   1.972   2.690 -1.7688  1.7376  1.1654
    1SOL    HW3 5839   4.492   1.911   2.567 -0.1222  2.1990  0.0435
    1SOL    MW4 5840   4.496   1.920   2.654 -0.1183  0.4107  0.2587
    1SOL     OW 5841   0.198   2.071   2.735 -0.0899 -0.0523  0.2210
    1SOL    HW2 5842   0.280   2.026   2.715  0.6327  0.6156  1.5983
    1SOL    HW3 5843   0.208   2.158   2.696 -0.9087 -0.5707 -1.2018
    1SOL    MW4 5844   0.210   2.077   2.727 -0.1026 -0.0327  0.2151
    1SOL     OW 5845   0.239   2.331   2.609  0.0611  0.0705 -0.1448
    1SOL    HW2 5846   0.317   2.387   2.618 -1.0076  1.6104 -0.1978
    1SOL    HW3 5847   0.167   2.384   2.644 -1.3177 -0.4949 -2.0095
    1SOL    MW4 5848   0.240   2.346   2.615 -0.2618  0.1991 -0.3977
    1SOL     OW 5849   0.022   2.450   2.721 -0.0947  0.2719 -0.2004
    1SOL    HW2 5850   0.018   2.468   2.814  0.5520  1.1365 -0.3382
    1SOL    HW3 5851  -0.058   2.400   2.702 -0.1748  0.0171  0.8214
    1SOL    MW4 5852   0.011   2.445   2.731 -0.0196  0.3524 -0.0834
    1SOL     OW 5853   4.469   2.696   2.619  0.0717  0.2036 -0.6621
    1SOL    HW2 5854   4.396   2.728   2.672  0.8679  0.9926 -0.0172
    1SOL    HW3 5855   4.487   2.609   2.654  0.1078  0.4214 -0.1368
    1SOL    MW4 5856   4.462   2.689   2.631  0.1812  0.3366 -0.5078
    1SOL     OW 5857   0.204   2.860   2.738 -0.0383  0.3558 -0.1832
    1SOL    HW2 5858   0.218   2.946   2.697 -0.0289  0.7702  0.6801
    1SOL    HW3 5859   0.123   2.827   2.697  0.0819  0.6770 -0.6818
    1SOL    MW4 5860   0.195   2.867   2.727 -0.0212  0.4528 -0.1349
    1SOL     OW 5861   0.196   3.135   2.632 -0.0237 -0.1408 -0.2860
    1SOL    HW2 5862   0.274   3.172   2.673 -1.4703  1.3178  1.2498
    1SOL    HW3 5863   0.208   3.151   2.538  1.4643  0.1434 -0.0677
    1SOL    MW4 5864   0.208   3.142   2.625 -0.0182  0.0889 -0.0546
    1SOL     OW 5865   4.456   3.197   2.787  0.0467 -0.4619 -0.0060
    1SOL    HW2 5866   4.379   3.148   2.759 -0.2602 -1.0189  1.7586
    1SOL    HW3 5867   4.527   3.163   2.733 -1.0779  0.7086 -2.2991
    1SOL    MW4 5868   4.455   3.186   2.776 -0.1421 -0.3810 -0.0758
    1SOL     OW 5869   4.443   3.463   2.648 -0.1283  0.0803 -0.0773
    1SOL    HW2 5870   4.518   3.510   2.685  1.1428 -0.4224 -1.9381
    1SOL    HW3 5871   4.446   3.377   2.690 -0.2994  0.4202  0.6371
    1SOL    MW4 5872   4.453   3.458   2.659  0.0172  0.0591 -0.2289
    1SOL     OW 5873   0.177   3.584   2.757 -0.0837  0.0329  0.0557
    1SOL    HW2 5874   0.184   3.572   2.852 -1.4211 -0.3334  0.1103
    1SOL    HW3 5875   0.262   3.555   2.724 -0.2795 -1.6769  0.9801
    1SOL    MW4 5876   0.190   3.578   2.766 -0.2860 -0.2408  0.1845
    1SOL     OW 5877   0.197   3.849   2.708 -0.0904 -0.3179  0.4591
    1SOL    HW2 5878   0.191   3.757   2.735 -0.5114 -0.4959 -0.2486
    1SOL    HW3 5879   0.191   3.847   2.613  1.7778  0.2780  0.3017
    1SOL    MW4 5880   0.196   3.837   2.699  0.1005 -0.2627  0.3448
    1SOL     OW 5881   4.465   3.983   2.776  0.2087 -0.5941 -0.2002
    1SOL    HW2 5882   4.469   4.072   2.743 -1.2761 -0.4745 -0.0676
    1SOL    HW3 5883   4.547   3.943   2.746 -0.0845  0.1699 -2.0939
    1SOL    MW4 5884   4.476   3.989   2.768 -0.0257 -0.4776 -0.4325
    1SOL     OW 5885   0.003   4.246   2.680 -0.1543  0.0280 -0.1831
    1SOL    HW2 5886  -0.075   4.292   2.710 -0.0881  0.1045 -0.1285
    1SOL    HW3 5887   0.075   4.291   2.723  0.1708  1.9806 -2.6085
    1SOL    MW4 5888   0.002   4.258   2.690 -0.1020  0.2956 -0.4959
    1SOL     OW 5889   0.241   4.363   2.755 -0.0937  0.2750  0.0756
    1SOL    HW2 5890   0.272   4.372   2.845 -0.1723  3.0764 -0.1494
    1SOL    HW3 5891   0.308   4.308   2.713 -0.4763 -1.7476  1.9903
    1SOL    MW4 5892   0.254   4.357   2.761 -0.1545  0.3777  0.2990
    1SOL     OW 5893   0.668   4.630   2.654  0.1248 -0.1832  0.2617
    1SOL    HW2 5894   0.748   4.678   2.676  0.4837 -0.0603 -1.2778
    1SOL    HW3 5895   0.597   4.692   2.673  0.5024  0.4203 -0.2790
    1SOL    MW4 5896   0.669   4.644   2.660  0.2220 -0.0873 -0.0126
    1SOL     OW 5897   0.441   0.137   2.709  0.0089  0.0128 -0.0938
    1SOL    HW2 5898   0.442   0.108   2.800  2.1039 -0.9686 -0.3987
    1SOL    HW3 5899   0.370   0.086   2.669  1.1719 -1.9694  0.2712
    1SOL    MW4 5900   0.431   0.126   2.716  0.4388 -0.3783 -0.0858
    1SOL     OW 5901   0.424   0.397   2.639 -0.0158  0.0967 -0.3059
    1SOL    HW2 5902   0.503   0.440   2.673 -1.2422  1.3311  1.0381
    1SOL    HW3 5903   0.420   0.314   2.686 -0.3525  0.7093  0.7605
    1SOL    MW4 5904   0.434   0.392   2.649 -0.2220  0.3404  0.0122
    1SOL     OW 5905   0.684   0.506   2.703 -0.8983 -0.0825 -0.2018
    1SOL    HW2 5906   0.695   0.505   2.798 -0.6952  0.5260 -0.2128
    1SOL    HW3 5907   0.761   0.460   2.669 -0.4320  0.6207 -0.1116
    1SOL    MW4 5908   0.696   0.500   2.711 -0.8099  0.0905 -0.1912
    1SOL     OW 5909   0.643   0.773   2.646 -0.3914 -0.1841  0.1304
    1SOL    HW2 5910   0.725   0.809   2.679 -0.2448  0.2766 -0.7021
    1SOL    HW3 5911   0.653   0.678   2.654  0.0934 -0.1142  0.3396
    1SOL    MW4 5912   0.655   0.765   2.651 -0.3080 -0.1140  0.0484
    1SOL     OW 5913   0.439   0.931   2.732  0.3338 -0.2275  0.0097
    1SOL    HW2 5914   0.444   1.012   2.681 -0.0637  0.4931  1.0854
    1SOL    HW3 5915   0.508   0.875   2.697  0.3830  0.4502 -0.9714
    1SOL    MW4 5916   0.448   0.934   2.721  0.2878 -0.0430  0.0224
    1SOL     OW 5917   0.436   1.170   2.587 -0.0591  0.0266 -0.0245
    1SOL    HW2 5918   0.509   1.213   2.630  0.4438 -0.9189  0.0859
    1SOL    HW3 5919   0.450   1.184   2.494  0.0925  0.1118  0.0123
    1SOL    MW4 5920   0.447   1.177   2.580  0.0273 -0.0869 -0.0052
    1SOL     OW 5921   0.652   1.267   2.730 -0.5561 -0.2231  0.2508
    1SOL    HW2 5922   0.669   1.260   2.824 -1.8880  0.1201  0.5352
    1SOL    HW3 5923   0.734   1.242   2.688  0.3679  0.6370  1.5205
    1SOL    MW4 5924   0.665   1.262   2.737 -0.6099 -0.0644  0.4556
    1SOL     OW 5925   0.694   1.532   2.634 -0.8951  0.9304 -0.0076
    1SOL    HW2 5926   0.615   1.573   2.670 -1.9154 -0.8387 -0.1461
    1SOL    HW3 5927   0.701   1.448   2.680  1.0823  1.2143  0.2091
    1SOL    MW4 5928   0.684   1.526   2.645 -0.7687  0.7346  0.0029
    1SOL     OW 5929   0.469   1.680   2.721  0.5405 -0.4665  0.1470
    1SOL    HW2 5930   0.475   1.687   2.816  1.7401 -0.5290  0.0849
    1SOL    HW3 5931   0.469   1.770   2.689  0.0991 -0.4445  0.2004
    1SOL    MW4 5932   0.469   1.693   2.729  0.6406 -0.4718  0.1454
    1SOL     OW 5933   0.418   1.947   2.650  0.1810  0.2920 -0.5397
    1SOL    HW2 5934   0.479   2.018   2.670 -1.1100  1.8760 -1.9545
    1SOL    HW3 5935   0.422   1.939   2.555  1.8559 -3.0197 -0.2433
    1SOL    MW4 5936   0.427   1.955   2.640  0.2316  0.0640 -0.6874
    1SOL     OW 5937   0.640   2.097   2.710 -0.1851  0.1932 -0.0561
    1SOL    HW2 5938   0.652   2.099   2.805 -0.1901 -1.2970 -0.0252
    1SOL    HW3 5939   0.719   2.055   2.676  0.0700  1.2035 -0.7739
    1SOL    MW4 5940   0.652   2.092   2.718 -0.1521  0.1302 -0.1469
    1SOL     OW 5941   0.628   2.363   2.633 -0.6044 -0.5983 -0.2454
    1SOL    HW2 5942   0.717   2.396   2.643 -0.6918  0.4823 -2.6211
    1SOL    HW3 5943   0.631   2.275   2.669  1.1656 -0.1848  0.6684
    1SOL    MW4 5944   0.640   2.356   2.639 -0.3824 -0.4013 -0.4385
    1SOL     OW 5945   0.435   2.528   2.715 -0.0219 -0.2598  0.4442
    1SOL    HW2 5946   0.436   2.601   2.653 -1.2487 -1.0542 -0.5321
    1SOL    HW3 5947   0.512   2.477   2.694 -0.1297 -0.2191 -0.0496
    1SOL    MW4 5948   0.445   2.531   2.704 -0.1979 -0.3595  0.2501
    1SOL     OW 5949   0.422   2.777   2.580  0.7671 -0.1560 -0.3182
    1SOL    HW2 5950   0.504   2.790   2.628  0.9439  0.5277 -0.8006
    1SOL    HW3 5951   0.354   2.802   2.643  1.0192  1.1551 -0.5665
    1SOL    MW4 5952   0.424   2.782   2.595  0.8237  0.1070 -0.4148
    1SOL     OW 5953   0.639   2.817   2.747  0.2537 -0.5185  0.7876
    1SOL    HW2 5954   0.627   2.801   2.840 -0.5646 -1.3589  0.5476
    1SOL    HW3 5955   0.649   2.912   2.739  0.1607 -0.4355  1.7069
    1SOL    MW4 5956   0.639   2.827   2.758  0.1335 -0.6185  0.8774
    1SOL     OW 5957   0.691   3.085   2.679  0.0195  0.2876 -0.2762
    1SOL    HW2 5958   0.771   3.131   2.705  0.3015 -0.2926 -0.1078
    1SOL    HW3 5959   0.686   3.096   2.584 -0.3483  1.3553 -0.1338
    1SOL    MW4 5960   0.701   3.092   2.670  0.0082  0.3517 -0.2353
    1SOL     OW 5961   0.446   3.237   2.730 -0.1101 -0.3896 -0.3978
    1SOL    HW2 5962   0.446   3.234   2.826 -0.1448  0.5249 -0.3668
    1SOL    HW3 5963   0.526   3.191   2.705  1.0223  1.2188  0.1549
    1SOL    MW4 5964   0.457   3.231   2.740  0.0347 -0.0565 -0.3209
    1SOL     OW 5965   0.417   3.495   2.661  0.6975 -0.0977  0.3059
    1SOL    HW2 5966   0.439   3.404   2.682 -0.3499 -0.0682  1.5746
    1SOL    HW3 5967   0.408   3.496   2.566  1.6159 -1.1198  0.2055
    1SOL    MW4 5968   0.419   3.483   2.651  0.6804 -0.2284  0.4601
    1SOL     OW 5969   0.661   3.607   2.732  0.1496  0.4639 -0.0926
    1SOL    HW2 5970   0.656   3.617   2.827 -0.6993  0.2107 -0.1111
    1SOL    HW3 5971   0.573   3.581   2.705  0.3620  0.6195 -0.9619
    1SOL    MW4 5972   0.649   3.605   2.741  0.0656  0.4511 -0.2096
    1SOL     OW 5973   0.670   3.887   2.645 -0.0366  0.5562  0.3579
    1SOL    HW2 5974   0.600   3.922   2.700  0.4458  1.2085  0.5726
    1SOL    HW3 5975   0.673   3.794   2.665 -1.9235  0.2196 -0.8606
    1SOL    MW4 5976   0.661   3.879   2.655 -0.2218  0.5977  0.2255
    1SOL     OW 5977   0.440   3.969   2.771  0.1474 -0.1759  0.1602
    1SOL    HW2 5978   0.425   4.047   2.719  0.6997 -0.3591 -0.2828
    1SOL    HW3 5979   0.367   3.911   2.749  0.4213 -0.2825 -0.4655
    1SOL    MW4 5980   0.428   3.971   2.762  0.2564 -0.2141  0.0188
    1SOL     OW 5981   0.442   4.221   2.642  0.1523 -0.2693  0.2735
    1SOL    HW2 5982   0.506   4.272   2.691  0.2390  0.7156 -0.8536
    1SOL    HW3 5983   0.447   4.255   2.553  0.3865 -2.4098 -0.5585
    1SOL    MW4 5984   0.451   4.232   2.637  0.1946 -0.4225  0.0150
    1SOL     OW 5985   0.645   4.368   2.777  0.1527  0.4723 -0.0432
    1SOL    HW2 5986   0.733   4.334   2.765  0.3410 -0.0264  2.4051
    1SOL    HW3 5987   0.648   4.456   2.740  1.1467 -0.2122 -1.6223
    1SOL    MW4 5988   0.657   4.375   2.771  0.3087  0.3157  0.0713
    1SOL     OW 5989   1.105   4.602   2.659  0.3509  0.2116  0.4595
    1SOL    HW2 5990   1.172   4.666   2.683  1.8953 -0.6962 -1.2327
    1SOL    HW3 5991   1.135   4.520   2.698  0.3542 -0.2424 -0.4759
    1SOL    MW4 5992   1.118   4.599   2.667  0.5550  0.0319  0.1125
    1SOL     OW 5993   0.893   0.109   2.727 -0.6047  0.6865 -0.2507
    1SOL    HW2 5994   0.879   0.099   2.821  0.7881 -0.2720 -0.1275
    1SOL    HW3 5995   0.966   0.050   2.707  1.0258  2.9959 -1.4253
    1SOL    MW4 5996   0.901   0.100   2.736 -0.2058  0.8647 -0.3896
    1SOL     OW 5997   0.906   0.372   2.621 -0.0316  0.0985 -0.6297
    1SOL    HW2 5998   0.882   0.284   2.649 -0.8474  0.3126 -0.6512
    1SOL    HW3 5999   0.915   0.365   2.526  0.9301 -0.2002 -0.5224
    1SOL    MW4 6000   0.904   0.359   2.612 -0.0125  0.0874 -0.6185
    1SOL     OW 6001   1.138   0.502   2.732 -0.1688  0.2401 -0.1905
    1SOL    HW2 6002   1.122   0.592   2.703  0.4985  0.2275 -0.5983
    1SOL    HW3 6003   1.062   0.454   2.700 -0.2597  0.5517 -0.4522
    1SOL    MW4 6004   1.126   0.508   2.724 -0.0929  0.2795 -0.2789
    1SOL     OW 6005   1.127   0.765   2.625  0.0239 -0.1239 -0.0336
    1SOL    HW2 6006   1.188   0.830   2.659 -0.1568 -0.7251  1.5037
    1SOL    HW3 6007   1.130   0.776   2.530  2.1952  0.1294  0.0382
    1SOL    MW4 6008   1.135   0.775   2.617  0.2866 -0.1698  0.1783
    1SOL     OW 6009   0.891   0.911   2.707 -0.1549 -0.0568  0.5570
    1SOL    HW2 6010   0.905   0.916   2.802 -0.1072 -0.2065  0.5586
    1SOL    HW3 6011   0.977   0.887   2.672  0.6253  3.0808  0.1875
    1SOL    MW4 6012   0.904   0.908   2.715 -0.0457  0.3375  0.5085
    1SOL     OW 6013   0.899   1.183   2.625 -0.3341  0.1252 -0.2907
    1SOL    HW2 6014   0.895   1.089   2.642  3.0862  0.2442  1.6066
    1SOL    HW3 6015   0.923   1.190   2.532 -1.7847 -0.8120 -0.7572
    1SOL    MW4 6016   0.902   1.172   2.615 -0.0742  0.0172 -0.1018
    1SOL     OW 6017   1.137   1.306   2.746  0.3549 -0.2738  0.8924
    1SOL    HW2 6018   1.138   1.394   2.710  0.7176 -0.3489  0.7097
    1SOL    HW3 6019   1.055   1.268   2.715  0.4547 -0.1865  0.5115
    1SOL    MW4 6020   1.127   1.312   2.737  0.4158 -0.2723  0.8183
    1SOL     OW 6021   1.159   1.560   2.632 -0.1021  0.5031 -0.1536
    1SOL    HW2 6022   1.086   1.617   2.659  0.4577  1.4165 -0.5229
    1SOL    HW3 6023   1.159   1.565   2.536 -0.1930 -0.3135 -0.1993
    1SOL    MW4 6024   1.149   1.569   2.623 -0.0401  0.5159 -0.2079
    1SOL     OW 6025   0.924   1.693   2.724 -0.1729 -0.0983 -0.0555
    1SOL    HW2 6026   0.916   1.675   2.818 -0.6320  0.3825 -0.0034
    1SOL    HW3 6027   0.848   1.650   2.685  1.5211 -2.7617 -0.5581
    1SOL    MW4 6028   0.913   1.685   2.731 -0.0100 -0.3864 -0.1147
    1SOL     OW 6029   0.866   1.956   2.632 -0.3492 -0.0660 -0.2075
    1SOL    HW2 6030   0.942   2.005   2.664 -0.7600  0.6270 -0.2976
    1SOL    HW3 6031   0.876   1.869   2.672  0.7346 -0.1279 -0.5785
    1SOL    MW4 6032   0.878   1.951   2.641 -0.2604  0.0174 -0.2685
    1SOL     OW 6033   1.096   2.079   2.752 -0.3555  0.2152 -0.7353
    1SOL    HW2 6034   1.168   2.030   2.713  1.0623 -0.0251  2.0348
    1SOL    HW3 6035   1.112   2.170   2.727  1.4352  0.2864  0.5767
    1SOL    MW4 6036   1.107   2.084   2.744  0.0678  0.1929 -0.1967
    1SOL     OW 6037   1.162   2.347   2.681  0.0741  0.3769  0.5275
    1SOL    HW2 6038   1.239   2.398   2.704  0.1388  0.7545 -0.4760
    1SOL    HW3 6039   1.163   2.344   2.585 -0.2476 -1.0196  0.5582
    1SOL    MW4 6040   1.172   2.354   2.671  0.0402  0.2427  0.3991
    1SOL     OW 6041   0.890   2.459   2.735  0.5091  0.2826  0.0045
    1SOL    HW2 6042   0.887   2.547   2.698  0.2602 -0.5364 -1.9840
    1SOL    HW3 6043   0.974   2.423   2.706 -0.1745 -0.7622 -0.7212
    1SOL    MW4 6044   0.901   2.466   2.726  0.3861  0.0367 -0.3538
    1SOL     OW 6045   0.851   2.708   2.619  0.3207  0.6284  0.1818
    1SOL    HW2 6046   0.924   2.765   2.644 -0.3452  1.9342 -0.7661
    1SOL    HW3 6047   0.776   2.743   2.666  0.3216 -0.8472  1.3267
    1SOL    MW4 6048   0.851   2.720   2.628  0.2329  0.6063  0.2081
    1SOL     OW 6049   1.083   2.832   2.700  0.0000  0.0000  0.6908
    1SOL    HW2 6050   1.106   2.825   2.793  0.0000  0.0000  0.6921
    1SOL    HW3 6051   1.159   2.795   2.654  0.0000  0.0000  0.6957
    1SOL    MW4 6052   1.096   2.826   2.706  0.0000  0.0000  0.6912
    1SOL     OW 6053   1.148   3.096   2.663  0.0000  0.0000 -0.1909
    1SOL    HW2 6054   1.122   3.007   2.685  0.0000  0.0000 -0.1787
    1SOL    HW3 6055   1.136   3.101   2.568  0.0000  0.0000 -0.1911
    1SOL    MW4 6056   1.143   3.085   2.653  0.0000  0.0000 -0.1893
    1SOL     OW 6057   0.919   3.208   2.775  0.0000  0.0000 -0.1263
    1SOL    HW2 6058   0.903   3.287   2.723  0.0000  0.0000 -0.1284
    1SOL    HW3 6059   1.006   3.179   2.748  0.0000  0.0000 -0.1126
    1SOL    MW4 6060   0.928   3.215   2.765  0.0000  0.0000 -0.1249
    1SOL     OW 6061   0.887   3.462   2.643  0.0000  0.0000  0.5491
    1SOL    HW2 6062   0.961   3.509   2.684  0.0000  0.0000  0.5418
    1SOL    HW3 6063   0.810   3.512   2.671  0.0000  0.0000  0.5825
    1SOL    MW4 6064   0.887   3.475   2.652  0.0000  0.0000  0.5524
    1SOL     OW 6065   1.102   3.599   2.788  0.0000  0.0000 -0.1406
    1SOL    HW2 6066   1.101   3.626   2.880  0.0000  0.0000 -0.1412
    1SOL    HW3 6067   1.100   3.681   2.739  0.0000  0.0000 -0.1418
    1SOL    MW4 6068   1.102   3.613   2.793  0.0000  0.0000 -0.1407
    1SOL     OW 6069   1.098   3.851   2.658  0.0000  0.0000 -0.3010
    1SOL    HW2 6070   1.178   3.889   2.695  0.0000  0.0000 -0.3033
    1SOL    HW3 6071   1.110   3.859   2.563  0.0000  0.0000 -0.3012
    1SOL    MW4 6072   1.110   3.857   2.650  0.0000  0.0000 -0.3014
    1SOL     OW 6073   0.893   4.008   2.780  0.0000  0.0000 -0.2202
    1SOL    HW2 6074   0.957   3.963   2.725  0.0000  0.0000 -0.2159
    1SOL    HW3 6075   0.809   3.969   2.754  0.0000  0.0000 -0.2331
    1SOL    MW4 6076   0.890   3.997   2.769  0.0000  0.0000 -0.2215
    1SOL     OW 6077   0.888   4.266   2.691  0.0000  0.0000  0.6104
    1SOL    HW2 6078   0.892   4.173   2.716  0.0000  0.0000  0.6062
    1SOL    HW3 6079   0.884   4.265   2.596  0.0000  0.0000  0.6102
    1SOL    MW4 6080   0.888   4.254   2.682  0.0000  0.0000  0.6096
    1SOL     OW 6081   1.144   4.351   2.782  0.0000  0.0000  0.2957
    1SOL    HW2 6082   1.137   4.378   2.873  0.0000  0.0000  0.2959
    1SOL    HW3 6083   1.055   4.327   2.756  0.0000  0.0000  0.2980
    1SOL    MW4 6084   1.131   4.351   2.790  0.0000  0.0000  0.2959
    1SOL     OW 6085   1.580   4.667   2.676  0.2440  0.0242 -0.1295
    1SOL    HW2 6086   1.599   4.582   2.716  1.4675 -0.0340 -0.8366
    1SOL    HW3 6087   1.585   4.651   2.582 -0.9390  0.5622 -0.2883
    1SOL    MW4 6088   1.583   4.654   2.669  0.2494  0.0877 -0.2439
    1SOL     OW 6089   1.337   0.114   2.744 -0.0504  0.3660  0.0862
    1SOL    HW2 6090   1.370   0.204   2.739 -0.5722  0.4896 -1.3179
    1SOL    HW3 6091   1.413   0.059   2.728 -0.3050  0.6325 -2.2607
    1SOL    MW4 6092   1.351   0.119   2.741 -0.1527  0.4175 -0.4089
    1SOL     OW 6093   1.393   0.373   2.688 -0.5393  0.0741 -0.5605
    1SOL    HW2 6094   1.451   0.444   2.715 -1.6357 -0.0504  2.2005
    1SOL    HW3 6095   1.305   0.408   2.700 -1.0782 -1.5555  0.2838
    1SOL    MW4 6096   1.389   0.387   2.693 -0.7551 -0.1573 -0.0849
    1SOL     OW 6097   1.577   0.567   2.774 -0.1157  0.3365  0.3660
    1SOL    HW2 6098   1.655   0.527   2.736 -0.7677 -0.6156  0.0339
    1SOL    HW3 6099   1.584   0.659   2.750  1.0750  0.3288  0.6158
    1SOL    MW4 6100   1.589   0.574   2.766 -0.0447  0.2100  0.3552
    1SOL     OW 6101   1.567   0.836   2.680 -0.3688 -0.0663  0.2490
    1SOL    HW2 6102   1.477   0.860   2.703 -0.4374 -0.1211  0.0403
    1SOL    HW3 6103   1.563   0.815   2.587 -0.3376 -0.9880  0.4505
    1SOL    MW4 6104   1.554   0.836   2.671 -0.3738 -0.1951  0.2477
    1SOL     OW 6105   1.318   0.926   2.742  0.3586  0.1582 -0.1420
    1SOL    HW2 6106   1.325   0.937   2.837  0.4972 -1.1963  0.0100
    1SOL    HW3 6107   1.313   1.016   2.708  0.3417  0.6532  1.1362
    1SOL    MW4 6108   1.318   0.939   2.750  0.3748  0.0449  0.0467
    1SOL     OW 6109   1.355   1.170   2.639  0.2878 -0.4266  0.1060
    1SOL    HW2 6110   1.439   1.198   2.676 -0.0876  0.7975  0.0373
    1SOL    HW3 6111   1.290   1.218   2.689 -0.3726 -1.2249  0.0226
    1SOL    MW4 6112   1.358   1.180   2.651  0.1512 -0.3704  0.0858
    1SOL     OW 6113   1.596   1.241   2.725  0.1130 -0.1391  0.1511
    1SOL    HW2 6114   1.604   1.253   2.820  0.6094  2.5700 -0.1869
    1SOL    HW3 6115   1.682   1.208   2.698  0.5688  0.7558  0.4497
    1SOL    MW4 6116   1.609   1.238   2.734  0.2387  0.3363  0.1459
    1SOL     OW 6117   1.615   1.528   2.631 -0.2401  0.0396 -0.8357
    1SOL    HW2 6118   1.614   1.436   2.655 -0.9351 -0.2483 -1.9596
    1SOL    HW3 6119   1.602   1.529   2.536 -0.8908  1.3092 -0.7464
    1SOL    MW4 6120   1.613   1.516   2.622 -0.4177  0.1690 -0.9720
    1SOL     OW 6121   1.399   1.688   2.708  0.0416 -0.0160 -0.1826
    1SOL    HW2 6122   1.473   1.632   2.686  0.2587  0.2825 -0.2162
    1SOL    HW3 6123   1.325   1.648   2.662  0.1122 -0.5135  0.1354
    1SOL    MW4 6124   1.399   1.675   2.699  0.0795 -0.0423 -0.1450
    1SOL     OW 6125   1.343   1.961   2.644 -0.4483 -0.2002 -0.3837
    1SOL    HW2 6126   1.355   1.873   2.679  0.5155 -1.1547 -2.9844
    1SOL    HW3 6127   1.406   2.015   2.692  0.5034 -1.3567 -0.3036
    1SOL    MW4 6128   1.353   1.957   2.655 -0.1956 -0.4789 -0.7162
    1SOL     OW 6129   1.615   2.119   2.711 -0.2145 -0.0802  0.2104
    1SOL    HW2 6130   1.667   2.056   2.660 -1.1747 -0.7401  0.0498
    1SOL    HW3 6131   1.640   2.103   2.802  1.3471  0.9560 -0.0121
    1SOL    MW4 6132   1.625   2.108   2.716 -0.1352 -0.0305  0.1600
    1SOL     OW 6133   1.572   2.367   2.610 -0.2968 -0.1729 -0.0910
    1SOL    HW2 6134   1.657   2.409   2.615 -1.4165  2.2753 -0.9723
    1SOL    HW3 6135   1.584   2.283   2.656  1.9896  1.0649  1.6616
    1SOL    MW4 6136   1.585   2.361   2.617 -0.1427  0.3135  0.0241
    1SOL     OW 6137   1.378   2.508   2.752  0.2677  0.2700  0.7087
    1SOL    HW2 6138   1.364   2.592   2.709 -0.8309 -0.7118 -0.8793
    1SOL    HW3 6139   1.442   2.463   2.697 -1.5547 -1.2095 -0.2802
    1SOL    MW4 6140   1.385   2.513   2.739 -0.1177 -0.0551  0.3688
    1SOL     OW 6141   1.324   2.745   2.614 -0.4671  0.1140  0.3942
    1SOL    HW2 6142   1.399   2.802   2.629 -0.0268 -0.8949  2.2181
    1SOL    HW3 6143   1.338   2.709   2.526 -0.5554  2.4766 -0.6071
    1SOL    MW4 6144   1.336   2.748   2.604 -0.4207  0.2928  0.5026
    1SOL     OW 6145   1.548   2.882   2.708  0.1483  0.1979 -0.3164
    1SOL    HW2 6146   1.532   2.880   2.802 -2.3617  1.9312 -0.6513
    1SOL    HW3 6147   1.635   2.844   2.697  0.9867  1.1173  2.8176
    1SOL    MW4 6148   1.557   2.877   2.719 -0.0722  0.5476  0.0529
    1SOL     OW 6149   1.590   3.155   2.618  0.0416 -0.2017 -0.1803
    1SOL    HW2 6150   1.666   3.183   2.668 -0.4376  0.3384  0.2451
    1SOL    HW3 6151   1.574   3.065   2.648  1.0334 -0.6289 -0.9015
    1SOL    MW4 6152   1.598   3.147   2.629  0.1092 -0.1867 -0.2196
    1SOL     OW 6153   1.359   3.220   2.765  0.2937 -0.6607  0.3761
    1SOL    HW2 6154   1.436   3.191   2.716  0.6928 -0.1508  0.6937
    1SOL    HW3 6155   1.288   3.166   2.732  0.4399  0.0794 -1.1834
    1SOL    MW4 6156   1.360   3.209   2.754  0.3657 -0.4957  0.2122
    1SOL     OW 6157   1.340   3.480   2.691 -0.2453  0.3635 -0.0864
    1SOL    HW2 6158   1.338   3.384   2.700  1.2490  0.2598 -0.5603
    1SOL    HW3 6159   1.262   3.510   2.736  0.0532 -0.9922  1.3949
    1SOL    MW4 6160   1.330   3.471   2.698 -0.0087  0.1712  0.0467
    1SOL     OW 6161   1.566   3.624   2.761 -0.1885 -0.4961 -0.4810
    1SOL    HW2 6162   1.641   3.573   2.730 -0.6811 -1.7581  0.3444
    1SOL    HW3 6163   1.490   3.568   2.744 -0.7747  0.1137  0.0898
    1SOL    MW4 6164   1.566   3.610   2.755 -0.3307 -0.5822 -0.2966
    1SOL     OW 6165   1.506   3.877   2.642 -0.2523  0.0682 -0.4595
    1SOL    HW2 6166   1.429   3.924   2.675  0.8249  1.1458  0.5486
    1SOL    HW3 6167   1.506   3.794   2.689  0.4986  1.0275  1.2462
    1SOL    MW4 6168   1.496   3.873   2.652 -0.0111  0.3369 -0.1016
    1SOL     OW 6169   1.305   4.012   2.769  0.1630  0.1563  0.8645
    1SOL    HW2 6170   1.329   4.046   2.856  0.8057  0.4496  0.5785
    1SOL    HW3 6171   1.322   4.086   2.710 -1.2216  0.2880  0.6109
    1SOL    MW4 6172   1.310   4.027   2.773  0.0651  0.2122  0.7935
    1SOL     OW 6173   1.361   4.246   2.643 -0.2618 -0.1217  0.1381
    1SOL    HW2 6174   1.292   4.291   2.692 -0.4827 -0.1510 -0.1428
    1SOL    HW3 6175   1.342   4.266   2.551 -0.0809 -0.3901  0.0424
    1SOL    MW4 6176   1.349   4.254   2.637 -0.2669 -0.1612  0.0882
    1SOL     OW 6177   1.590   4.410   2.768  0.2918  0.3336 -0.2876
    1SOL    HW2 6178   1.596   4.405   2.863  1.6575 -0.1192 -0.3863
    1SOL    HW3 6179   1.519   4.350   2.745  1.7081 -1.6039  0.2536
    1SOL    MW4 6180   1.581   4.402   2.777  0.6590  0.0176 -0.2294
    1SOL     OW 6181   1.983   4.651   2.643  0.0435  0.1923  0.2801
    1SOL    HW2 6182   2.065   4.689   2.675  0.7218 -0.6250 -0.4893
    1SOL    HW3 6183   1.994   4.645   2.548 -0.4088 -1.0776  0.3003
    1SOL    MW4 6184   1.995   4.655   2.635  0.0733 -0.0830  0.1812
    1SOL     OW 6185   1.780   0.155   2.764 -0.3551 -0.1849 -0.2815
    1SOL    HW2 6186   1.860   0.111   2.735  1.2820  1.9124  0.8665
    1SOL    HW3 6187   1.709   0.108   2.721  1.5941 -1.1707 -2.5238
    1SOL    MW4 6188   1.781   0.143   2.754  0.1180 -0.0382 -0.4261
    1SOL     OW 6189   1.793   0.441   2.650 -0.5391  0.2608 -0.0814
    1SOL    HW2 6190   1.878   0.464   2.687 -0.6546  1.0430 -0.3033
    1SOL    HW3 6191   1.783   0.348   2.671  0.9234 -0.1604 -1.1194
    1SOL    MW4 6192   1.803   0.432   2.657 -0.3613  0.3084 -0.2477
    1SOL     OW 6193   2.033   0.515   2.739 -0.1708 -0.2404 -0.1104
    1SOL    HW2 6194   2.101   0.465   2.695  1.6345 -0.0057  2.2586
    1SOL    HW3 6195   2.033   0.600   2.694  1.0800 -0.2666 -0.1967
    1SOL    MW4 6196   2.042   0.520   2.727  0.2327 -0.2129  0.1910
    1SOL     OW 6197   1.998   0.754   2.603  0.1329  0.0396  0.4487
    1SOL    HW2 6198   1.922   0.793   2.648  0.2518 -0.6373  1.2633
    1SOL    HW3 6199   1.968   0.741   2.513  0.4394  2.9244 -0.0994
    1SOL    MW4 6200   1.984   0.757   2.597  0.1891  0.3309  0.4840
    1SOL     OW 6201   1.824   0.894   2.769  0.1022 -0.0822  0.0229
    1SOL    HW2 6202   1.844   0.980   2.733 -1.6873  1.8074  3.3526
    1SOL    HW3 6203   1.737   0.873   2.735  0.2286 -0.2837 -0.1844
    1SOL    MW4 6204   1.815   0.903   2.760 -0.1171  0.1405  0.4346
    1SOL     OW 6205   1.829   1.157   2.607  0.6097  0.1623  0.3404
    1SOL    HW2 6206   1.901   1.204   2.649  1.3405 -0.5179 -0.1314
    1SOL    HW3 6207   1.837   1.179   2.514  1.1363 -1.1143  0.0764
    1SOL    MW4 6208   1.839   1.166   2.601  0.7755 -0.0958  0.2432
    1SOL     OW 6209   2.030   1.311   2.693 -0.3981 -0.1044 -0.0383
    1SOL    HW2 6210   2.053   1.299   2.785  0.5140  0.6122 -0.1713
    1SOL    HW3 6211   2.102   1.271   2.645 -0.9041 -0.5301 -0.4468
    1SOL    MW4 6212   2.042   1.304   2.699 -0.3445 -0.0660 -0.1097
    1SOL     OW 6213   2.046   1.574   2.628  0.3503 -0.5179 -0.0312
    1SOL    HW2 6214   1.963   1.599   2.668 -0.7586 -1.3115 -1.7425
    1SOL    HW3 6215   2.051   1.479   2.641  0.2071 -0.7150 -1.2705
    1SOL    MW4 6216   2.036   1.565   2.635  0.1850 -0.6486 -0.4206
    1SOL     OW 6217   1.828   1.683   2.761 -0.3231 -0.2197  0.1354
    1SOL    HW2 6218   1.823   1.686   2.856 -0.2883 -0.3354  0.1404
    1SOL    HW3 6219   1.753   1.630   2.734 -0.4244 -0.0571  0.0894
    1SOL    MW4 6220   1.817   1.677   2.770 -0.3319 -0.2135  0.1299
    1SOL     OW 6221   1.820   1.928   2.613 -0.2738 -0.4230 -0.6427
    1SOL    HW2 6222   1.895   1.979   2.642 -0.8854 -0.1817  0.5481
    1SOL    HW3 6223   1.830   1.843   2.656  0.1099 -0.9058 -1.6738
    1SOL    MW4 6224   1.831   1.924   2.623 -0.3037 -0.4548 -0.6218
    1SOL     OW 6225   2.031   2.069   2.721  0.4391  0.3686 -0.3961
    1SOL    HW2 6226   2.016   2.051   2.814 -0.0482 -0.1682 -0.5779
    1SOL    HW3 6227   2.025   2.164   2.713 -0.9341  0.3033 -0.1346
    1SOL    MW4 6228   2.028   2.079   2.732  0.1938  0.2890 -0.3853
    1SOL     OW 6229   2.038   2.334   2.629 -0.1563 -0.2663 -0.2244
    1SOL    HW2 6230   2.111   2.393   2.647  2.0659 -2.4128 -1.8788
    1SOL    HW3 6231   2.020   2.346   2.536 -0.9393 -0.8348 -0.1503
    1SOL    MW4 6232   2.045   2.344   2.619  0.0336 -0.6244 -0.4332
    1SOL     OW 6233   1.802   2.460   2.705 -0.2165 -0.6192 -0.7217
    1SOL    HW2 6234   1.806   2.472   2.800 -0.0418  1.4172 -0.9751
    1SOL    HW3 6235   1.888   2.423   2.683  0.3014  0.2966 -0.2741
    1SOL    MW4 6236   1.814   2.457   2.715 -0.1252 -0.2298 -0.6959
    1SOL     OW 6237   1.785   2.729   2.629  0.0666  0.4475  0.2714
    1SOL    HW2 6238   1.798   2.646   2.676 -0.3210 -0.4153 -1.1087
    1SOL    HW3 6239   1.782   2.704   2.537 -1.7479  1.7956 -0.0582
    1SOL    MW4 6240   1.787   2.715   2.623 -0.2239  0.5116  0.0455
    1SOL     OW 6241   2.028   2.855   2.723  0.2559 -0.2432  0.2127
    1SOL    HW2 6242   2.108   2.820   2.683 -0.0811 -1.7918  0.8402
    1SOL    HW3 6243   1.957   2.813   2.675 -0.1546 -0.8896  1.3616
    1SOL    MW4 6244   2.029   2.845   2.711  0.1571 -0.5326  0.4470
    1SOL     OW 6245   2.017   3.131   2.673 -0.0359  0.0193  0.1822
    1SOL    HW2 6246   2.032   3.041   2.701 -2.3958 -0.4063  0.1897
    1SOL    HW3 6247   2.000   3.125   2.579 -3.7533 -0.0405  0.7902
    1SOL    MW4 6248   2.016   3.119   2.664 -0.8378 -0.0446  0.2635
    1SOL     OW 6249   1.795   3.244   2.774 -0.1004 -0.0544  0.3405
    1SOL    HW2 6250   1.804   3.325   2.724 -2.1254  0.0978  0.1855
    1SOL    HW3 6251   1.872   3.193   2.749  0.0877  0.9384 -1.2325
    1SOL    MW4 6252   1.807   3.248   2.764 -0.3427  0.0970  0.1125
    1SOL     OW 6253   1.795   3.499   2.686  0.0058 -0.7392  0.0984
    1SOL    HW2 6254   1.874   3.550   2.704  0.7271 -2.0292  0.6456
    1SOL    HW3 6255   1.796   3.487   2.591 -0.4238  0.6539 -0.0966
    1SOL    MW4 6256   1.806   3.504   2.676  0.0442 -0.7253  0.1450
    1SOL     OW 6257   2.025   3.665   2.733 -0.1233 -0.0193 -0.0254
    1SOL    HW2 6258   2.028   3.628   2.822 -2.3478 -1.8459 -0.6527
    1SOL    HW3 6259   2.081   3.607   2.681 -0.0040  0.1678 -0.1033
    1SOL    MW4 6260   2.033   3.652   2.738 -0.4013 -0.2356 -0.1183
    1SOL     OW 6261   1.996   3.925   2.624 -0.2854 -0.1292  0.5042
    1SOL    HW2 6262   1.915   3.963   2.660 -1.2968 -0.3430 -1.4723
    1SOL    HW3 6263   1.994   3.834   2.653 -1.6422 -0.5842 -0.9228
    1SOL    MW4 6264   1.985   3.918   2.633 -0.5978 -0.2172  0.0551
    1SOL     OW 6265   1.757   4.004   2.737  0.1120  0.3228 -0.3821
    1SOL    HW2 6266   1.758   4.085   2.686  0.3286 -0.1436 -1.1279
    1SOL    HW3 6267   1.675   3.962   2.713  0.0089  0.3104 -0.0102
    1SOL    MW4 6268   1.746   4.009   2.727  0.1271  0.2599 -0.4313
    1SOL     OW 6269   1.756   4.238   2.631 -0.0619  0.0385  0.4214
    1SOL    HW2 6270   1.692   4.295   2.673  0.2730  1.2521 -0.6633
    1SOL    HW3 6271   1.742   4.251   2.537  0.6943 -0.9048  0.1679
    1SOL    MW4 6272   1.746   4.247   2.624  0.0821  0.0744  0.2451
    1SOL     OW 6273   1.967   4.386   2.710 -0.2343 -0.2260 -0.1004
    1SOL    HW2 6274   1.886   4.348   2.679 -1.6603  0.0364  3.1123
    1SOL    HW3 6275   1.964   4.477   2.680 -0.5693 -0.5180 -0.9656
    1SOL    MW4 6276   1.956   4.393   2.702 -0.4667 -0.2298  0.2093
    1SOL     OW 6277   2.437   4.660   2.612 -0.4830  0.2617  0.1434
    1SOL    HW2 6278   2.513   4.708   2.643  0.7524 -1.1509 -0.6198
    1SOL    HW3 6279   2.440   4.668   2.517 -0.4735 -0.9722  0.0289
    1SOL    MW4 6280   2.447   4.667   2.604 -0.3188 -0.0868  0.0272
    1SOL     OW 6281   2.208   0.100   2.723  0.0266 -0.3324  0.1756
    1SOL    HW2 6282   2.212   0.112   2.817  0.4693  0.2023  0.0926
    1SOL    HW3 6283   2.289   0.053   2.702  0.1169 -0.1026  0.0114
    1SOL    MW4 6284   2.220   0.095   2.732  0.0968 -0.2315  0.1431
    1SOL     OW 6285   2.239   0.355   2.606  0.1576 -0.2341 -0.1903
    1SOL    HW2 6286   2.225   0.264   2.633  1.0772 -0.4056 -0.2708
    1SOL    HW3 6287   2.248   0.351   2.511  1.4646 -0.2217 -0.0673
    1SOL    MW4 6288   2.238   0.343   2.597  0.4513 -0.2551 -0.1845
    1SOL     OW 6289   2.448   0.478   2.738 -0.2855  0.0114 -0.2751
    1SOL    HW2 6290   2.442   0.572   2.719 -0.2852 -0.3415 -2.0926
    1SOL    HW3 6291   2.378   0.438   2.685  0.0676 -1.0676  0.0568
    1SOL    MW4 6292   2.438   0.485   2.728 -0.2389 -0.1775 -0.4709
    1SOL     OW 6293   2.448   0.755   2.645  0.4512  0.4171  0.5492
    1SOL    HW2 6294   2.361   0.791   2.662 -0.5713 -1.7791  0.1937
    1SOL    HW3 6295   2.452   0.747   2.550  0.3770 -1.0149  0.6587
    1SOL    MW4 6296   2.437   0.759   2.635  0.3066 -0.0616  0.5169
    1SOL     OW 6297   2.209   0.882   2.707 -0.0529 -0.1578 -0.0536
    1SOL    HW2 6298   2.180   0.895   2.797  1.5869 -0.9437  0.6115
    1SOL    HW3 6299   2.132   0.848   2.662 -0.7479 -0.2331  1.1725
    1SOL    MW4 6300   2.195   0.879   2.713  0.0718 -0.2714  0.1957
    1SOL     OW 6301   2.231   1.146   2.610  0.2370 -0.3266  0.0905
    1SOL    HW2 6302   2.238   1.056   2.643 -0.1530 -0.8523 -1.2522
    1SOL    HW3 6303   2.241   1.138   2.515 -1.1288  0.8919 -0.1706
    1SOL    MW4 6304   2.234   1.133   2.602  0.0057 -0.2352 -0.1211
    1SOL     OW 6305   2.457   1.286   2.738  0.1137 -0.3644  0.5959
    1SOL    HW2 6306   2.527   1.245   2.688  0.4915  0.7296  0.2186
    1SOL    HW3 6307   2.377   1.249   2.701  0.3146  1.5242 -1.8678
    1SOL    MW4 6308   2.455   1.276   2.726  0.1900  0.0290  0.2210
    1SOL     OW 6309   2.461   1.553   2.610 -0.0251 -0.1618  0.1585
    1SOL    HW2 6310   2.392   1.611   2.642  0.3418  0.2777  0.1580
    1SOL    HW3 6311   2.460   1.478   2.669 -0.0332  0.1729  0.5776
    1SOL    MW4 6312   2.452   1.551   2.622  0.0224 -0.0596  0.2139
    1SOL     OW 6313   2.262   1.705   2.733  0.1527 -0.0448  0.0254
    1SOL    HW2 6314   2.249   1.792   2.695  1.2097  0.5425  0.9818
    1SOL    HW3 6315   2.200   1.649   2.686 -0.1046  1.0973 -1.0263
    1SOL    MW4 6316   2.252   1.709   2.722  0.2582  0.1833  0.0129
    1SOL     OW 6317   2.262   1.957   2.597  0.0603 -0.2835 -0.4160
    1SOL    HW2 6318   2.186   1.998   2.639  0.7912 -0.4903  1.1748
    1SOL    HW3 6319   2.330   2.024   2.602  0.4660 -0.7061 -0.3046
    1SOL    MW4 6320   2.261   1.971   2.603  0.2100 -0.3666 -0.1915
    1SOL     OW 6321   2.476   2.103   2.658 -0.0227  0.4249 -0.0951
    1SOL    HW2 6322   2.462   2.088   2.751 -1.0369 -0.3534 -0.3777
    1SOL    HW3 6323   2.471   2.199   2.648  1.6325  0.6350  0.8835
    1SOL    MW4 6324   2.473   2.114   2.669  0.0618  0.3498 -0.0033
    1SOL     OW 6325   2.449   2.378   2.604  0.4118 -0.3198  0.2005
    1SOL    HW2 6326   2.536   2.398   2.639  0.1868  0.8759  0.0992
    1SOL    HW3 6327   2.462   2.376   2.509  0.2729  0.1038  0.1744
    1SOL    MW4 6328   2.462   2.380   2.596  0.3636 -0.1063  0.1836
    1SOL     OW 6329   2.235   2.514   2.723  0.3344  0.8095 -0.2714
    1SOL    HW2 6330   2.217   2.505   2.817  0.8863  0.3540 -0.2100
    1SOL    HW3 6331   2.306   2.452   2.706 -1.7742 -1.3307 -1.5723
    1SOL    MW4 6332   2.242   2.504   2.734  0.1290  0.4671 -0.4351
    1SOL     OW 6333   2.272   2.763   2.595  0.4800 -0.0576 -0.6581
    1SOL    HW2 6334   2.346   2.812   2.631 -0.1545 -0.1315  0.7958
    1SOL    HW3 6335   2.274   2.679   2.641 -0.3438 -0.1575 -0.7978
    1SOL    MW4 6336   2.282   2.759   2.606  0.2878 -0.0806 -0.4847
    1SOL     OW 6337   2.504   2.858   2.689 -0.3270 -0.5166  0.4146
    1SOL    HW2 6338   2.574   2.804   2.652 -0.9638 -0.6921 -0.5461
    1SOL    HW3 6339   2.496   2.829   2.779  0.3643 -0.9836  0.3264
    1SOL    MW4 6340   2.512   2.847   2.696 -0.3200 -0.6013  0.2763
    1SOL     OW 6341   2.432   3.106   2.582 -0.7045  0.0906  0.1797
    1SOL    HW2 6342   2.444   3.019   2.621  0.7511  0.5938  0.8611
    1SOL    HW3 6343   2.376   3.152   2.644  0.1287  0.2886  0.7882
    1SOL    MW4 6344   2.426   3.100   2.595 -0.4027  0.1833  0.3498
    1SOL     OW 6345   2.259   3.247   2.754 -0.2619  0.1856  0.0387
    1SOL    HW2 6346   2.260   3.235   2.849  1.5234  0.6663  0.0956
    1SOL    HW3 6347   2.175   3.209   2.726 -0.5183 -0.5363  1.7231
    1SOL    MW4 6348   2.248   3.240   2.762 -0.0601  0.1540  0.2685
    1SOL     OW 6349   2.213   3.486   2.628 -0.8623  0.3445  0.2058
    1SOL    HW2 6350   2.288   3.543   2.647  0.0867 -0.3992 -1.1403
    1SOL    HW3 6351   2.230   3.406   2.678  0.3090 -0.6024 -1.6199
    1SOL    MW4 6352   2.225   3.483   2.637 -0.5825  0.1214 -0.2127
    1SOL     OW 6353   2.418   3.627   2.705  0.1605 -0.0355  0.0916
    1SOL    HW2 6354   2.432   3.627   2.799  1.0365  0.2201 -0.0288
    1SOL    HW3 6355   2.424   3.719   2.680  0.4856 -0.1559 -0.2867
    1SOL    MW4 6356   2.421   3.639   2.714  0.3190 -0.0174  0.0257
    1SOL     OW 6357   2.441   3.886   2.640  0.0862 -0.1710  0.1818
    1SOL    HW2 6358   2.516   3.937   2.670  0.2602  0.2226 -0.9106
    1SOL    HW3 6359   2.365   3.933   2.675  0.3543 -1.1501  2.1843
    1SOL    MW4 6360   2.441   3.899   2.649  0.1447 -0.2484  0.3018
    1SOL     OW 6361   2.228   4.032   2.740  0.2170  0.1208  0.3279
    1SOL    HW2 6362   2.229   4.015   2.834 -1.0900 -0.4747  0.2457
    1SOL    HW3 6363   2.147   3.993   2.709  0.5634  0.4328 -1.0337
    1SOL    MW4 6364   2.218   4.025   2.748  0.0904  0.0830  0.1371
    1SOL     OW 6365   2.228   4.290   2.641 -0.2280 -0.4225 -0.2298
    1SOL    HW2 6366   2.221   4.205   2.683 -0.5935  0.1298  0.8660
    1SOL    HW3 6367   2.139   4.325   2.643  0.0043  0.1775 -0.2478
    1SOL    MW4 6368   2.215   4.284   2.647 -0.2456 -0.2708 -0.0877
    1SOL     OW 6369   2.450   4.410   2.736  0.0551  0.3764 -0.6999
    1SOL    HW2 6370   2.364   4.371   2.717  0.6438 -0.7010 -1.1996
    1SOL    HW3 6371   2.448   4.495   2.692 -0.1439 -0.3498 -2.1409
    1SOL    MW4 6372   2.438   4.416   2.728  0.1066  0.1383 -0.9558
    1SOL     OW 6373   2.862   4.631   2.648  0.1248  0.4334  0.2977
    1SOL    HW2 6374   2.929   4.685   2.691  2.1476 -0.5747 -1.4991
    1SOL    HW3 6375   2.866   4.656   2.556  0.0068 -1.6513 -0.3047
    1SOL    MW4 6376   2.871   4.641   2.642  0.3760  0.0257 -0.0188
    1SOL     OW 6377   2.641   0.118   2.725  0.2677 -0.0020  0.3122
    1SOL    HW2 6378   2.647   0.141   2.818 -0.8190 -0.5654  0.5343
    1SOL    HW3 6379   2.720   0.067   2.708  0.1485 -0.4629  1.1029
    1SOL    MW4 6380   2.652   0.114   2.735  0.1085 -0.1372  0.4456
    1SOL     OW 6381   2.676   0.369   2.623  0.5624 -0.1223  0.0853
    1SOL    HW2 6382   2.672   0.280   2.660 -0.8124 -0.9575 -2.0025
    1SOL    HW3 6383   2.599   0.413   2.659  0.2040 -0.3677 -0.3874
    1SOL    MW4 6384   2.665   0.363   2.633  0.3338 -0.2649 -0.2527
    1SOL     OW 6385   2.904   0.511   2.713  0.5670 -0.1474 -0.0696
    1SOL    HW2 6386   2.890   0.605   2.698 -1.6837  0.0346  2.7443
    1SOL    HW3 6387   2.824   0.469   2.680  1.4181 -1.0859 -0.9972
    1SOL    MW4 6388   2.892   0.518   2.706  0.3824 -0.2472  0.1793
    1SOL     OW 6389   2.892   0.777   2.666 -0.0399 -0.0474  0.4272
    1SOL    HW2 6390   2.973   0.824   2.683 -0.9962  1.5066  0.7753
    1SOL    HW3 6391   2.823   0.837   2.693 -1.2935 -1.7973  1.2349
    1SOL    MW4 6392   2.893   0.791   2.672 -0.3314 -0.0733  0.5796
    1SOL     OW 6393   2.658   0.913   2.743 -0.1554 -0.0984  0.2039
    1SOL    HW2 6394   2.665   0.884   2.834 -0.3456 -1.1402 -0.1121
    1SOL    HW3 6395   2.580   0.869   2.710 -1.7733  2.5454  0.3802
    1SOL    MW4 6396   2.649   0.904   2.751 -0.3939  0.1130  0.1857
    1SOL     OW 6397   2.683   1.162   2.626 -0.2540  0.0005 -0.2474
    1SOL    HW2 6398   2.768   1.184   2.664 -1.1766  1.6859  0.9394
    1SOL    HW3 6399   2.663   1.076   2.661 -0.6026  1.0810  2.3243
    1SOL    MW4 6400   2.692   1.154   2.635 -0.4218  0.3654  0.2487
    1SOL     OW 6401   2.913   1.305   2.702  0.3035 -0.0585 -0.0727
    1SOL    HW2 6402   2.901   1.307   2.797  0.1577  1.6444 -0.1053
    1SOL    HW3 6403   3.005   1.283   2.689  0.7530  1.3962  0.5236
    1SOL    MW4 6404   2.924   1.302   2.712  0.3438  0.3580  0.0017
    1SOL     OW 6405   2.870   1.539   2.547  0.2074 -0.4441 -0.0976
    1SOL    HW2 6406   2.796   1.576   2.595  1.1309  0.3255  0.7514
    1SOL    HW3 6407   2.880   1.451   2.583  0.9843  0.1788  1.2578
    1SOL    MW4 6408   2.862   1.532   2.558  0.4318 -0.2605  0.1931
    1SOL     OW 6409   2.676   1.692   2.680 -0.4057  0.6043 -0.1116
    1SOL    HW2 6410   2.673   1.698   2.776  0.1628  0.8722 -0.1076
    1SOL    HW3 6411   2.608   1.629   2.658  0.8896 -1.0955  0.6146
    1SOL    MW4 6412   2.666   1.684   2.690 -0.1597  0.4154 -0.0153
    1SOL     OW 6413   2.691   1.951   2.613  0.0512  0.1206  0.4400
    1SOL    HW2 6414   2.682   1.862   2.648 -0.6680  0.5956  1.5032
    1SOL    HW3 6415   2.606   1.992   2.629  0.3603  0.9839 -0.0952
    1SOL    MW4 6416   2.679   1.945   2.620 -0.0031  0.2973  0.5095
    1SOL     OW 6417   2.949   2.034   2.689  0.0482 -0.0414  0.1980
    1SOL    HW2 6418   2.955   2.127   2.665  1.5797 -0.1763 -0.0221
    1SOL    HW3 6419   2.860   2.009   2.666  0.7143  0.4519 -3.1428
    1SOL    MW4 6420   2.938   2.043   2.683  0.3378  0.0060 -0.2716
    1SOL     OW 6421   2.929   2.294   2.585  0.3289 -0.3487  0.0887
    1SOL    HW2 6422   3.007   2.339   2.616  0.5837 -1.2469  0.7648
    1SOL    HW3 6423   2.857   2.340   2.628  0.3827  1.1564 -1.3451
    1SOL    MW4 6424   2.929   2.306   2.595  0.3698 -0.2687 -0.0112
    1SOL     OW 6425   2.713   2.431   2.679  0.2203 -0.4836 -0.0747
    1SOL    HW2 6426   2.683   2.429   2.769  1.7252 -0.8796  0.4380
    1SOL    HW3 6427   2.722   2.525   2.658 -0.4775 -0.3861  0.0560
    1SOL    MW4 6428   2.711   2.443   2.688  0.3269 -0.5231  0.0100
    1SOL     OW 6429   2.710   2.694   2.594  0.1171  0.1754 -0.0074
    1SOL    HW2 6430   2.793   2.727   2.628 -0.4258  1.3013  0.2485
    1SOL    HW3 6431   2.727   2.680   2.500  1.0430 -1.0927  0.3408
    1SOL    MW4 6432   2.724   2.697   2.586  0.1676  0.1566  0.0722
    1SOL     OW 6433   2.943   2.829   2.678 -0.2226 -0.5765  0.3139
    1SOL    HW2 6434   2.946   2.816   2.773 -2.1407 -0.9946  0.3527
    1SOL    HW3 6435   2.915   2.921   2.668  1.7310  0.0141  0.1273
    1SOL    MW4 6436   2.939   2.840   2.689 -0.2184 -0.5538  0.2944
    1SOL     OW 6437   2.906   3.093   2.618 -0.3464  0.4800 -0.2898
    1SOL    HW2 6438   2.821   3.137   2.622 -0.1487  0.8486 -0.0822
    1SOL    HW3 6439   2.922   3.080   2.524 -0.8973 -0.1121 -0.2998
    1SOL    MW4 6440   2.897   3.097   2.606 -0.3929  0.4506 -0.2639
    1SOL     OW 6441   2.668   3.229   2.690 -0.1807  0.1555  0.1847
    1SOL    HW2 6442   2.669   3.320   2.659 -0.8542  0.0275 -0.2288
    1SOL    HW3 6443   2.583   3.195   2.660 -0.5333 -0.1844  1.5382
    1SOL    MW4 6444   2.657   3.237   2.682 -0.3161  0.0939  0.3088
    1SOL     OW 6445   2.649   3.489   2.605  0.3130 -0.0278  0.3179
    1SOL    HW2 6446   2.571   3.540   2.628  0.3912  0.2374 -0.0007
    1SOL    HW3 6447   2.657   3.499   2.510  0.6831 -0.1313  0.3375
    1SOL    MW4 6448   2.640   3.497   2.596  0.3722 -0.0067  0.2785
    1SOL     OW 6449   2.875   3.639   2.709 -0.2239  0.0385 -0.9663
    1SOL    HW2 6450   2.864   3.626   2.803  0.9315 -1.3590 -1.0065
    1SOL    HW3 6451   2.801   3.593   2.670  0.4955 -1.2471 -0.8278
    1SOL    MW4 6452   2.864   3.631   2.716  0.0238 -0.3159 -0.9534
    1SOL     OW 6453   2.889   3.900   2.610  0.2351  0.2774  0.0958
    1SOL    HW2 6454   2.963   3.939   2.658 -0.1011  0.9113  0.1132
    1SOL    HW3 6455   2.884   3.810   2.642 -0.9147  1.0939  2.3857
    1SOL    MW4 6456   2.898   3.894   2.621  0.0391  0.4687  0.4001
    1SOL     OW 6457   2.678   4.022   2.703  0.8276 -0.1884 -0.0468
    1SOL    HW2 6458   2.669   4.110   2.666  0.2010 -0.2007  0.0673
    1SOL    HW3 6459   2.750   3.983   2.654  0.5368  0.0800 -0.7066
    1SOL    MW4 6460   2.686   4.029   2.691  0.7067 -0.1550 -0.1190
    1SOL     OW 6461   2.667   4.264   2.599 -0.0025  0.4073 -0.4619
    1SOL    HW2 6462   2.735   4.296   2.659 -0.3331 -0.8208  0.5807
    1SOL    HW3 6463   2.588   4.313   2.623 -0.4124 -0.8813  0.8719
    1SOL    MW4 6464   2.666   4.275   2.610 -0.1004  0.0749 -0.1485
    1SOL     OW 6465   2.886   4.369   2.736  0.3373  0.0900  0.4422
    1SOL    HW2 6466   2.898   4.386   2.830  0.0961 -1.5237  0.7827
    1SOL    HW3 6467   2.882   4.456   2.696 -0.8141  0.8174  2.0769
    1SOL    MW4 6468   2.887   4.383   2.743  0.1533 -0.0272  0.7026
    1SOL     OW 6469   3.311   4.639   2.651 -0.6635 -0.7785  0.1833
    1SOL    HW2 6470   3.320   4.549   2.683 -1.3363 -0.3552  1.6256
    1SOL    HW3 6471   3.234   4.672   2.697 -0.6018  0.4366 -0.5840
    1SOL    MW4 6472   3.302   4.631   2.661 -0.7441 -0.5623  0.2725
    1SOL     OW 6473   3.091   0.130   2.759  0.5048  0.1261  0.3183
    1SOL    HW2 6474   3.119   0.163   2.844  0.2920 -0.4387  0.6070
    1SOL    HW3 6475   3.084   0.208   2.704 -1.3304  0.7376  1.3705
    1SOL    MW4 6476   3.094   0.144   2.763  0.2348  0.1322  0.4950
    1SOL     OW 6477   3.106   0.374   2.607  0.2264 -0.1847 -0.1907
    1SOL    HW2 6478   3.035   0.437   2.617  1.3600  1.1264 -0.2739
    1SOL    HW3 6479   3.112   0.358   2.513 -0.9283 -1.4512 -0.0656
    1SOL    MW4 6480   3.097   0.380   2.596  0.2239 -0.1788 -0.1853
    1SOL     OW 6481   3.334   0.466   2.728 -0.3100  0.4725 -0.7135
    1SOL    HW2 6482   3.318   0.559   2.712  1.4211  0.6108 -1.7239
    1SOL    HW3 6483   3.273   0.421   2.669 -1.2252  0.9539 -0.1449
    1SOL    MW4 6484   3.324   0.473   2.718 -0.2024  0.5543 -0.7720
    1SOL     OW 6485   3.336   0.741   2.646  0.2318  0.2181  0.6358
    1SOL    HW2 6486   3.413   0.791   2.673  0.5545 -0.4677  0.9807
    1SOL    HW3 6487   3.333   0.751   2.551 -0.1051  1.4724  0.7618
    1SOL    MW4 6488   3.346   0.749   2.637  0.2298  0.2931  0.6979
    1SOL     OW 6489   3.137   0.919   2.733 -0.0556  0.0216  0.2078
    1SOL    HW2 6490   3.144   0.918   2.828 -0.8235  0.8076  0.2785
    1SOL    HW3 6491   3.208   0.863   2.703  0.5618  0.2564  1.2228
    1SOL    MW4 6492   3.147   0.911   2.741 -0.0756  0.1563  0.3512
    1SOL     OW 6493   3.167   1.178   2.637  0.0476 -0.5634  0.5464
    1SOL    HW2 6494   3.150   1.088   2.665 -2.3011 -0.5709 -0.8247
    1SOL    HW3 6495   3.187   1.171   2.543  1.5229  0.1632  0.7942
    1SOL    MW4 6496   3.168   1.165   2.628 -0.0675 -0.4685  0.3984
    1SOL     OW 6497   3.382   1.290   2.752 -0.3189  0.4140  0.0769
    1SOL    HW2 6498   3.370   1.291   2.847 -0.2744  0.9715  0.0744
    1SOL    HW3 6499   3.300   1.254   2.718 -0.5814  0.8063  0.2887
    1SOL    MW4 6500   3.369   1.285   2.760 -0.3476  0.5393  0.1044
    1SOL     OW 6501   3.352   1.532   2.580  0.8997  0.0063 -0.1555
    1SOL    HW2 6502   3.271   1.574   2.608  0.4504  0.0422 -1.4702
    1SOL    HW3 6503   3.363   1.458   2.640  1.0282  1.2213  1.3571
    1SOL    MW4 6504   3.343   1.527   2.591  0.8576  0.1713 -0.1292
    1SOL     OW 6505   3.113   1.633   2.690  0.2860  0.0497  0.0843
    1SOL    HW2 6506   3.135   1.719   2.654 -0.0554  0.7864  1.5928
    1SOL    HW3 6507   3.033   1.607   2.644 -0.1511  0.9826  0.3069
    1SOL    MW4 6508   3.105   1.641   2.680  0.1833  0.2701  0.3128
    1SOL     OW 6509   3.148   1.880   2.577 -0.1230 -0.0585 -0.6353
    1SOL    HW2 6510   3.229   1.911   2.619 -0.5228  0.0531  0.0524
    1SOL    HW3 6511   3.078   1.928   2.621 -0.7013 -1.5046  0.0424
    1SOL    MW4 6512   3.150   1.890   2.588 -0.2520 -0.2346 -0.4551
    1SOL     OW 6513   3.359   2.023   2.675 -0.2125  0.0861  0.4563
    1SOL    HW2 6514   3.345   2.043   2.767  1.5771  0.3003  0.6996
    1SOL    HW3 6515   3.364   2.108   2.631 -1.1403 -0.0147  0.1278
    1SOL    MW4 6516   3.358   2.037   2.681 -0.0989  0.1013  0.4449
    1SOL     OW 6517   3.325   2.293   2.591  0.6818  0.1326 -0.6073
    1SOL    HW2 6518   3.400   2.339   2.628  1.0604 -1.1272  0.2251
    1SOL    HW3 6519   3.337   2.301   2.496  2.0306 -0.2967 -0.4884
    1SOL    MW4 6520   3.337   2.300   2.583  0.9098 -0.0904 -0.4818
    1SOL     OW 6521   3.138   2.437   2.729  0.0616 -0.0336 -0.1427
    1SOL    HW2 6522   3.149   2.521   2.684  1.7170  0.7439  1.6300
    1SOL    HW3 6523   3.208   2.382   2.694 -0.6215 -0.4637 -0.8335
    1SOL    MW4 6524   3.149   2.441   2.718  0.1898  0.0122  0.0000
    1SOL     OW 6525   3.177   2.684   2.605 -0.3696 -0.4389  0.2052
    1SOL    HW2 6526   3.252   2.738   2.630 -0.2867 -0.1491 -0.6412
    1SOL    HW3 6527   3.101   2.740   2.621 -0.1561  0.8425 -2.8830
    1SOL    MW4 6528   3.177   2.699   2.610 -0.3304 -0.2317 -0.3138
    1SOL     OW 6529   3.388   2.870   2.675  0.2026  0.4377  0.1773
    1SOL    HW2 6530   3.393   2.881   2.770 -1.2767  0.0201  0.3154
    1SOL    HW3 6531   3.453   2.802   2.656  1.0161  1.0375  0.7976
    1SOL    MW4 6532   3.397   2.862   2.685  0.1149  0.4618  0.2773
    1SOL     OW 6533   3.355   3.131   2.611  0.7974 -0.0537  0.4100
    1SOL    HW2 6534   3.359   3.042   2.644  0.2127  0.1113  0.9219
    1SOL    HW3 6535   3.365   3.122   2.516  2.0608 -0.5492  0.5863
    1SOL    MW4 6536   3.357   3.118   2.602  0.8872 -0.0970  0.5007
    1SOL     OW 6537   3.126   3.249   2.723 -0.0771  0.2467 -0.2841
    1SOL    HW2 6538   3.208   3.213   2.688 -0.1471  0.9652 -1.1880
    1SOL    HW3 6539   3.057   3.206   2.673 -0.2718 -0.3998  0.5162
    1SOL    MW4 6540   3.128   3.238   2.712 -0.1121  0.2563 -0.2978
    1SOL     OW 6541   3.123   3.515   2.651  0.3622 -0.1378  0.1939
    1SOL    HW2 6542   3.114   3.427   2.689 -1.7311 -0.7022 -1.5259
    1SOL    HW3 6543   3.044   3.561   2.679  1.8397  1.5054  1.7814
    1SOL    MW4 6544   3.112   3.509   2.660  0.2811  0.0045  0.1764
    1SOL     OW 6545   3.374   3.643   2.735 -0.2961 -0.3664 -0.3545
    1SOL    HW2 6546   3.373   3.625   2.829 -1.1450  1.4480 -0.0012
    1SOL    HW3 6547   3.290   3.608   2.703 -0.3361 -0.3119 -0.3094
    1SOL    MW4 6548   3.363   3.636   2.743 -0.4137 -0.1199 -0.3018
    1SOL     OW 6549   3.369   3.913   2.666  0.9394  0.1616 -0.2120
    1SOL    HW2 6550   3.352   3.824   2.697 -0.5838  0.4600 -0.1855
    1SOL    HW3 6551   3.370   3.905   2.571  0.4370  0.1794 -0.2195
    1SOL    MW4 6552   3.367   3.900   2.658  0.6721  0.2031 -0.2096
    1SOL     OW 6553   3.114   4.014   2.739 -0.3078  0.2246 -0.0803
    1SOL    HW2 6554   3.112   4.102   2.700  0.3993 -0.9092 -2.8380
    1SOL    HW3 6555   3.188   3.972   2.697 -1.3822 -2.0995  0.3039
    1SOL    MW4 6556   3.123   4.020   2.728 -0.3562 -0.2317 -0.3934
    1SOL     OW 6557   3.119   4.274   2.645 -0.5657 -0.0090 -0.7190
    1SOL    HW2 6558   3.035   4.313   2.672 -0.5622  0.6094 -1.5929
    1SOL    HW3 6559   3.123   4.288   2.551  1.2223  1.3119 -0.4633
    1SOL    MW4 6560   3.108   4.281   2.636 -0.3295  0.2465 -0.8001
    1SOL     OW 6561   3.351   4.369   2.744  0.0180  0.2398  0.2285
    1SOL    HW2 6562   3.348   4.371   2.839 -0.8269  0.8020  0.1947
    1SOL    HW3 6563   3.268   4.328   2.718  1.0293 -1.6021 -0.2213
    1SOL    MW4 6564   3.340   4.364   2.753  0.0401  0.0706  0.1647
    1SOL     OW 6565   3.799   0.036   2.639  0.0274  0.4760 -0.4360
    1SOL    HW2 6566   3.810  -0.056   2.664 -0.2096  0.1524 -1.5285
    1SOL    HW3 6567   3.711   0.058   2.670  0.4251  0.6009  0.6286
    1SOL    MW4 6568   3.789   0.027   2.647  0.0486  0.4498 -0.4399
    1SOL     OW 6569   3.555   0.110   2.718  0.3833 -0.0589  0.2792
    1SOL    HW2 6570   3.552   0.206   2.711 -0.8671  0.2195  3.4747
    1SOL    HW3 6571   3.465   0.083   2.700  0.4144 -0.4872  0.7677
    1SOL    MW4 6572   3.542   0.119   2.715  0.2222 -0.0787  0.7653
    1SOL     OW 6573   3.572   0.375   2.659 -0.1409 -0.1261  0.0603
    1SOL    HW2 6574   3.636   0.418   2.716  1.2658 -1.5183 -0.4109
    1SOL    HW3 6575   3.487   0.408   2.689  0.7084  0.7917  1.5503
    1SOL    MW4 6576   3.569   0.385   2.671  0.1569 -0.1887  0.1948
    1SOL     OW 6577   3.777   0.521   2.768 -0.2129  0.4810  0.3736
    1SOL    HW2 6578   3.803   0.525   2.860  1.0765  0.0159  0.0350
    1SOL    HW3 6579   3.854   0.487   2.723 -0.9512  0.4041 -0.8372
    1SOL    MW4 6580   3.790   0.517   2.774 -0.1404  0.4094  0.1693
    1SOL     OW 6581   3.804   0.788   2.666  0.0645 -0.2357 -0.0533
    1SOL    HW2 6582   3.712   0.812   2.674  0.3808  0.7667  0.5764
    1SOL    HW3 6583   3.805   0.694   2.684 -0.9558 -0.4379 -0.9896
    1SOL    MW4 6584   3.792   0.779   2.670 -0.0284 -0.1301 -0.0937
    1SOL     OW 6585   3.549   0.913   2.701  0.0074  0.2120 -0.3131
    1SOL    HW2 6586   3.557   0.907   2.796  0.5360 -2.1661 -0.4682
    1SOL    HW3 6587   3.574   1.003   2.680 -2.8440  1.6321  2.0369
    1SOL    MW4 6588   3.553   0.924   2.711 -0.2992  0.0857 -0.0236
    1SOL     OW 6589   3.602   1.175   2.623 -0.2485  0.3230 -0.0640
    1SOL    HW2 6590   3.671   1.224   2.668 -0.1062 -0.0794  0.1514
    1SOL    HW3 6591   3.521   1.204   2.664 -0.0195 -1.0583  1.3892
    1SOL    MW4 6592   3.601   1.185   2.634 -0.1996  0.0876  0.1559
    1SOL     OW 6593   3.809   1.303   2.747 -0.2318 -0.6701 -0.1501
    1SOL    HW2 6594   3.887   1.262   2.710  1.1614  0.9161  0.9349
    1SOL    HW3 6595   3.811   1.393   2.714 -1.1233 -0.3736  0.5768
    1SOL    MW4 6596   3.820   1.309   2.738 -0.1657 -0.4218  0.0887
    1SOL     OW 6597   3.830   1.548   2.640  0.3048 -0.0627  0.0272
    1SOL    HW2 6598   3.906   1.583   2.686 -0.0241 -0.5103  0.9358
    1SOL    HW3 6599   3.755   1.584   2.687 -0.0438 -0.0369 -0.5461
    1SOL    MW4 6600   3.830   1.557   2.652  0.2153 -0.1183  0.0715
    1SOL     OW 6601   3.562   1.663   2.719 -0.0198  0.1034 -0.0611
    1SOL    HW2 6602   3.567   1.755   2.691  0.4752 -0.1305 -0.7513
    1SOL    HW3 6603   3.493   1.625   2.664 -0.6901  0.2215  0.6877
    1SOL    MW4 6604   3.554   1.670   2.708 -0.0429  0.0882 -0.0534
    1SOL     OW 6605   3.608   1.907   2.619  0.4537  0.3871 -0.0227
    1SOL    HW2 6606   3.533   1.964   2.637  1.4579  1.6579  0.2726
    1SOL    HW3 6607   3.625   1.920   2.525  0.3864  0.2149 -0.0576
    1SOL    MW4 6608   3.600   1.916   2.609  0.5774  0.5320  0.0114
    1SOL     OW 6609   3.828   2.044   2.727 -0.3811  0.3602  0.3696
    1SOL    HW2 6610   3.903   1.994   2.696 -0.8359 -0.3531  0.4273
    1SOL    HW3 6611   3.752   2.002   2.687 -0.9024 -0.0375  1.7635
    1SOL    MW4 6612   3.828   2.032   2.718 -0.5097  0.2136  0.5610
    1SOL     OW 6613   3.789   2.312   2.642  0.4315  0.5104 -0.2917
    1SOL    HW2 6614   3.802   2.221   2.667  1.0022  0.6963  0.0958
    1SOL    HW3 6615   3.786   2.310   2.546 -0.8323 -0.0786 -0.2453
    1SOL    MW4 6616   3.791   2.300   2.632  0.3400  0.4573 -0.2346
    1SOL     OW 6617   3.547   2.433   2.710  0.0961 -0.0078  0.3089
    1SOL    HW2 6618   3.552   2.448   2.805  0.8435  0.7431  0.1652
    1SOL    HW3 6619   3.634   2.398   2.687  0.7238  1.9700 -0.4404
    1SOL    MW4 6620   3.559   2.430   2.720  0.2775  0.3521  0.1910
    1SOL     OW 6621   3.589   2.687   2.603 -0.2255  0.0199  0.2819
    1SOL    HW2 6622   3.564   2.598   2.626  1.6035 -0.6613 -0.3165
    1SOL    HW3 6623   3.587   2.689   2.507  2.2450 -0.1575  0.1930
    1SOL    MW4 6624   3.586   2.676   2.593  0.3417 -0.0935  0.1910
    1SOL     OW 6625   3.791   2.809   2.740  0.0206 -0.4289 -0.0513
    1SOL    HW2 6626   3.867   2.764   2.702  0.2345 -0.0397 -0.0840
    1SOL    HW3 6627   3.716   2.777   2.689  0.2364 -0.3558 -0.4175
    1SOL    MW4 6628   3.791   2.799   2.728  0.0772 -0.3679 -0.1035
    1SOL     OW 6629   3.791   3.046   2.564 -0.4932  0.2109 -0.6093
    1SOL    HW2 6630   3.725   3.088   2.619 -2.2872 -2.4124 -0.6711
    1SOL    HW3 6631   3.831   2.980   2.620  1.5587  1.2348 -0.8243
    1SOL    MW4 6632   3.788   3.043   2.579 -0.4590  0.0002 -0.6459
    1SOL     OW 6633   3.625   3.236   2.713  0.1962  0.1405  0.2271
    1SOL    HW2 6634   3.624   3.324   2.674 -0.2485 -0.2955 -0.7644
    1SOL    HW3 6635   3.538   3.201   2.694  0.3724 -0.5134  0.6331
    1SOL    MW4 6636   3.613   3.243   2.705  0.1607 -0.0031  0.1500
    1SOL     OW 6637   3.564   3.479   2.601 -0.4654  0.3645  0.4111
    1SOL    HW2 6638   3.645   3.517   2.634 -0.1970  1.1047 -1.0442
    1SOL    HW3 6639   3.495   3.523   2.651 -0.0601  1.2449  0.1977
    1SOL    MW4 6640   3.565   3.490   2.612 -0.3765  0.5786  0.1910
    1SOL     OW 6641   4.040   3.479   2.632  0.4938 -0.1390 -0.0273
    1SOL    HW2 6642   4.096   3.511   2.703  0.4351 -0.7152  0.2868
    1SOL    HW3 6643   3.964   3.536   2.634  0.3607 -0.3322  0.5690
    1SOL    MW4 6644   4.037   3.490   2.642  0.4687 -0.2403  0.0927
    1SOL     OW 6645   3.848   3.877   2.621  0.0688  0.1375 -0.1529
    1SOL    HW2 6646   3.920   3.922   2.667  0.1735  1.2745 -1.4009
    1SOL    HW3 6647   3.769   3.922   2.650  0.0822  0.4772 -0.6399
    1SOL    MW4 6648   3.847   3.889   2.631  0.0844  0.3324 -0.3819
    1SOL     OW 6649   3.619   4.019   2.716 -0.1422 -0.2449 -0.0492
    1SOL    HW2 6650   3.612   4.110   2.688 -0.0440 -0.2206  0.0044
    1SOL    HW3 6651   3.535   3.980   2.691 -0.8424  0.2642  1.4299
    1SOL    MW4 6652   3.607   4.026   2.709 -0.2215 -0.1740  0.1528
    1SOL     OW 6653   3.588   4.306   2.640  0.1191 -0.1773 -0.1655
    1SOL    HW2 6654   3.504   4.328   2.680  0.1356  0.7479 -0.6181
    1SOL    HW3 6655   3.565   4.279   2.551  0.1555 -1.4657  0.2060
    1SOL    MW4 6656   3.574   4.305   2.633  0.1264 -0.2255 -0.1767
    1SOL     OW 6657   3.824   4.438   2.731 -0.8624 -0.5481 -0.1683
    1SOL    HW2 6658   3.904   4.395   2.700 -1.0497 -2.3296  1.6986
    1SOL    HW3 6659   3.753   4.385   2.694 -1.1502 -0.2831  0.0019
    1SOL    MW4 6660   3.825   4.425   2.722 -0.9248 -0.7486  0.1009
    1SOL     OW 6661   4.236   0.004   2.712 -0.0365 -0.0234 -0.0001
    1SOL    HW2 6662   4.162   0.060   2.733 -0.9918 -0.2151 -2.6797
    1SOL    HW3 6663   4.313   0.055   2.737 -0.9627  1.4513 -0.1236
    1SOL    MW4 6664   4.236   0.018   2.718 -0.2842  0.1459 -0.3695
    1SOL     OW 6665   4.021   0.171   2.767  0.1370 -0.0513  0.3938
    1SOL    HW2 6666   4.019   0.162   2.863  0.3009 -0.7779  0.3294
    1SOL    HW3 6667   3.941   0.129   2.737  0.7414 -1.0273  0.1172
    1SOL    MW4 6668   4.010   0.164   2.776  0.2389 -0.2759  0.3488
    1SOL     OW 6669   4.032   0.444   2.664  0.1045 -0.1386  0.1977
    1SOL    HW2 6670   4.032   0.354   2.698 -2.1109 -0.1778  0.1566
    1SOL    HW3 6671   4.033   0.433   2.569  0.8994 -0.1078  0.2039
    1SOL    MW4 6672   4.032   0.431   2.656 -0.0830 -0.1397  0.1929
    1SOL     OW 6673   4.257   0.560   2.809 -0.3666 -0.0745  0.6168
    1SOL    HW2 6674   4.169   0.536   2.781 -0.6662  0.5510  1.0241
    1SOL    HW3 6675   4.315   0.509   2.751 -0.9712  0.9658 -0.9378
    1SOL    MW4 6676   4.253   0.550   2.797 -0.4859  0.1453  0.4654
    1SOL     OW 6677   4.226   0.807   2.673 -0.1216 -0.2093  0.2235
    1SOL    HW2 6678   4.248   0.730   2.726  3.0082  0.1127 -0.5154
    1SOL    HW3 6679   4.253   0.783   2.584  0.4971  1.5788 -0.0762
    1SOL    MW4 6680   4.232   0.793   2.668  0.3734  0.0691  0.0865
    1SOL     OW 6681   4.005   0.948   2.768  0.0612  0.3305 -0.3314
    1SOL    HW2 6682   4.078   0.892   2.742 -0.1010  0.0278 -0.1399
    1SOL    HW3 6683   3.928   0.910   2.725 -0.0143  0.5382 -0.3833
    1SOL    MW4 6684   4.004   0.936   2.759  0.0296  0.3181 -0.3133
    1SOL     OW 6685   4.026   1.194   2.628  0.3247 -0.3183  0.2603
    1SOL    HW2 6686   4.091   1.243   2.679 -1.3619  0.9480  1.2587
    1SOL    HW3 6687   4.025   1.107   2.667 -0.4280  0.4282  1.9424
    1SOL    MW4 6688   4.035   1.189   2.640  0.0029 -0.0527  0.6142
    1SOL     OW 6689   4.230   1.320   2.749  0.1501 -0.6101 -0.0532
    1SOL    HW2 6690   4.228   1.409   2.715  0.3023 -0.2515  0.8731
    1SOL    HW3 6691   4.306   1.280   2.707  2.5883  0.9782  2.7002
    1SOL    MW4 6692   4.240   1.326   2.739  0.4916 -0.3533  0.4323
    1SOL     OW 6693   4.258   1.574   2.635  0.0160  0.2622 -0.3857
    1SOL    HW2 6694   4.341   1.607   2.669  0.7093 -1.0330 -0.7502
    1SOL    HW3 6695   4.279   1.547   2.545 -0.9566  0.5038 -0.6850
    1SOL    MW4 6696   4.272   1.575   2.628 -0.0215  0.1231 -0.4733
    1SOL     OW 6697   4.044   1.682   2.761  0.0709  0.1349 -0.0883
    1SOL    HW2 6698   4.060   1.681   2.855  0.3043  0.4892 -0.1224
    1SOL    HW3 6699   4.123   1.643   2.722 -0.8500 -1.8233 -0.0277
    1SOL    MW4 6700   4.057   1.677   2.768 -0.0196 -0.0769 -0.0849
    1SOL     OW 6701   4.042   1.923   2.621  0.0267  0.1504  0.1582
    1SOL    HW2 6702   4.097   1.990   2.661  1.0414 -0.4839 -0.1560
    1SOL    HW3 6703   4.076   1.840   2.656 -0.3145 -0.2859 -0.5306
    1SOL    MW4 6704   4.054   1.921   2.631  0.1159  0.0091  0.0260
    1SOL     OW 6705   4.258   2.073   2.742  0.1005  0.4513  0.2803
    1SOL    HW2 6706   4.267   2.156   2.695 -2.5396  0.3367 -0.4705
    1SOL    HW3 6707   4.330   2.019   2.708  2.1710  2.5547  1.1474
    1SOL    MW4 6708   4.269   2.077   2.731  0.0257  0.7141  0.2959
    1SOL     OW 6709   4.279   2.332   2.632 -0.0610  0.1652 -0.1240
    1SOL    HW2 6710   4.194   2.372   2.648  0.9531  2.7487 -0.8951
    1SOL    HW3 6711   4.282   2.320   2.537 -0.1441 -1.2960  0.0508
    1SOL    MW4 6712   4.269   2.335   2.621  0.0620  0.3133 -0.2029
    1SOL     OW 6713   4.033   2.423   2.721 -0.0691 -0.0346  0.2331
    1SOL    HW2 6714   4.037   2.439   2.815  0.7643  0.5129  0.1126
    1SOL    HW3 6715   3.945   2.388   2.706  0.5078 -2.1159  1.5279
    1SOL    MW4 6716   4.022   2.420   2.731  0.1163 -0.2370  0.3879
    1SOL     OW 6717   4.010   2.687   2.617 -0.8659 -0.5958  0.2099
    1SOL    HW2 6718   4.090   2.724   2.654 -1.1493  0.4353 -0.1873
    1SOL    HW3 6719   4.014   2.594   2.640 -0.0639 -0.3581  1.0913
    1SOL    MW4 6720   4.021   2.680   2.625 -0.7973 -0.4284  0.2739
    1SOL     OW 6721   4.241   2.791   2.747  0.0879 -0.0421  0.7977
    1SOL    HW2 6722   4.213   2.802   2.838 -0.0049 -0.8828  0.8774
    1SOL    HW3 6723   4.235   2.878   2.710  0.3712  0.3545  1.6687
    1SOL    MW4 6724   4.236   2.804   2.754  0.1125 -0.1006  0.9232
    1SOL     OW 6725   4.229   3.065   2.676  0.6696 -0.1185 -0.0352
    1SOL    HW2 6726   4.138   3.093   2.668  0.9818  0.9905  0.3104
    1SOL    HW3 6727   4.267   3.083   2.590  1.0105  1.0246  0.3523
    1SOL    MW4 6728   4.222   3.071   2.664  0.7553  0.1786  0.0618
    1SOL     OW 6729   3.988   3.203   2.672 -0.1707 -0.5726  0.3237
    1SOL    HW2 6730   3.985   3.296   2.652 -0.9419 -0.4048  1.1931
    1SOL    HW3 6731   3.905   3.168   2.641 -0.9207 -0.5072  2.1992
    1SOL    MW4 6732   3.977   3.210   2.665 -0.3715 -0.5417  0.6857
    1SOL     OW 6733   4.040   3.464   2.355  0.2692 -0.5814 -0.1018
    1SOL    HW2 6734   4.037   3.468   2.450 -0.8163 -1.6260 -0.0858
    1SOL    HW3 6735   3.961   3.510   2.326  0.9923  0.4167 -0.5288
    1SOL    MW4 6736   4.029   3.471   2.364  0.2213 -0.5875 -0.1557
    1SOL     OW 6737   4.220   3.566   2.805  0.6165  0.1896 -0.1910
    1SOL    HW2 6738   4.255   3.578   2.894  1.2200  0.8726 -0.5141
    1SOL    HW3 6739   4.293   3.527   2.756 -0.3891 -2.2129  0.1201
    1SOL    MW4 6740   4.235   3.562   2.810  0.5636 -0.0370 -0.1926
    1SOL     OW 6741   4.262   3.836   2.677 -0.0976 -0.0911  0.4576
    1SOL    HW2 6742   4.258   3.751   2.722 -2.5026  0.2382  0.9417
    1SOL    HW3 6743   4.344   3.875   2.708  1.2311 -2.3528 -0.0288
    1SOL    MW4 6744   4.272   3.830   2.687 -0.2398 -0.3459  0.4573
    1SOL     OW 6745   4.050   4.009   2.760  0.1812 -0.2948 -0.3151
    1SOL    HW2 6746   4.050   4.004   2.856  1.4596  0.8489 -0.2431
    1SOL    HW3 6747   4.124   3.956   2.733 -0.5208 -1.0816 -0.7082
    1SOL    MW4 6748   4.060   4.002   2.769  0.2565 -0.2484 -0.3572
    1SOL     OW 6749   4.047   4.266   2.664  0.4989 -0.3024  0.0400
    1SOL    HW2 6750   4.045   4.175   2.694  0.9805 -0.5485 -0.6635
    1SOL    HW3 6751   4.042   4.260   2.569 -0.9664  0.4697  0.0505
    1SOL    MW4 6752   4.046   4.253   2.656  0.3695 -0.2327 -0.0515
    1SOL     OW 6753   4.267   4.396   2.772 -0.1631 -0.2631  0.1041
    1SOL    HW2 6754   4.184   4.357   2.744 -0.0018 -0.7698  0.3407
    1SOL    HW3 6755   4.256   4.490   2.755 -0.7860 -0.3303  0.1392
    1SOL    MW4 6756   4.255   4.403   2.766 -0.2241 -0.3386  0.1402
    1SOL     OW 6757   0.239   4.608   3.139  0.2586 -0.0862  0.6760
    1SOL    HW2 6758   0.234   4.619   3.234  0.4734 -0.3773  0.7210
    1SOL    HW3 6759   0.163   4.656   3.106  0.7695  0.9191  0.9210
    1SOL    MW4 6760   0.229   4.616   3.147  0.3544  0.0081  0.7145
    1SOL     OW 6761   0.033   0.099   3.033 -0.0906  0.1525  0.2566
    1SOL    HW2 6762  -0.052   0.064   3.058 -0.6699  0.4556 -1.2566
    1SOL    HW3 6763   0.041   0.180   3.082 -1.3614  0.9110 -0.7584
    1SOL    MW4 6764   0.023   0.105   3.043 -0.3347  0.2926 -0.0770
    1SOL     OW 6765   0.049   0.345   3.162 -0.1182  0.2725 -0.2175
    1SOL    HW2 6766   0.038   0.352   3.257  0.0520  0.8006 -0.2309
    1SOL    HW3 6767  -0.036   0.372   3.127 -0.4577 -0.7766 -0.1913
    1SOL    MW4 6768   0.036   0.350   3.170 -0.1405  0.2038 -0.2160
    1SOL     OW 6769   0.231   0.507   3.019  0.3411 -0.1002  0.0504
    1SOL    HW2 6770   0.307   0.452   3.040  0.1464 -0.2935  0.2403
    1SOL    HW3 6771   0.159   0.469   3.068  0.0265 -0.1712 -0.4636
    1SOL    MW4 6772   0.232   0.495   3.028  0.2739 -0.1351  0.0079
    1SOL     OW 6773   0.277   0.776   3.079  0.5156  0.1985  0.6455
    1SOL    HW2 6774   0.278   0.776   3.174 -0.0438 -0.6765  0.6559
    1SOL    HW3 6775   0.274   0.684   3.055  0.2686  0.4261 -0.2158
    1SOL    MW4 6776   0.277   0.764   3.088  0.4092  0.1130  0.5333
    1SOL     OW 6777   0.025   0.898   3.037 -0.1713  0.1007  0.2893
    1SOL    HW2 6778   0.113   0.862   3.050  0.1435  0.8935  0.3760
    1SOL    HW3 6779   0.019   0.912   2.942  0.3947  1.5180  0.4407
    1SOL    MW4 6780   0.036   0.895   3.026 -0.0553  0.3922  0.3207
    1SOL     OW 6781   0.006   1.160   3.122  0.2044 -0.5358 -0.2434
    1SOL    HW2 6782  -0.075   1.196   3.088  0.7244  0.5021 -0.4017
    1SOL    HW3 6783  -0.002   1.065   3.109 -0.8280 -0.4076 -0.5604
    1SOL    MW4 6784  -0.006   1.152   3.116  0.1368 -0.3819 -0.3061
    1SOL     OW 6785   0.277   1.256   3.017 -0.2484 -0.0696 -0.1250
    1SOL    HW2 6786   0.197   1.213   3.047 -1.4049  1.1427 -1.4248
    1SOL    HW3 6787   0.273   1.251   2.922  0.4455  1.3999 -0.2437
    1SOL    MW4 6788   0.266   1.250   3.008 -0.3094  0.2843 -0.3123
    1SOL     OW 6789   0.263   1.533   3.092  0.0331 -0.0758 -0.6705
    1SOL    HW2 6790   0.181   1.575   3.066 -0.8163 -0.3175  1.5174
    1SOL    HW3 6791   0.255   1.443   3.061 -0.0306  0.1903 -1.4464
    1SOL    MW4 6792   0.251   1.527   3.085 -0.0874 -0.0726 -0.4840
    1SOL     OW 6793   0.030   1.650   3.037  0.1398  0.0773 -0.0613
    1SOL    HW2 6794  -0.050   1.615   3.077  0.7873  0.7791  1.8884
    1SOL    HW3 6795   0.037   1.739   3.072  1.7065  0.0696 -0.3472
    1SOL    MW4 6796   0.020   1.657   3.047  0.4319  0.1688  0.1581
    1SOL     OW 6797   0.011   1.921   3.086 -0.0466 -0.0585 -0.1964
    1SOL    HW2 6798  -0.063   1.970   3.049  0.4464  1.9249  1.3640
    1SOL    HW3 6799   0.086   1.980   3.075  0.5085 -0.3162  1.9426
    1SOL    MW4 6800   0.011   1.935   3.080  0.0916  0.1692  0.2916
    1SOL     OW 6801   0.217   2.083   3.015  0.0882  0.4688  0.1629
    1SOL    HW2 6802   0.207   2.170   3.052  0.2620  0.6092 -0.1192
    1SOL    HW3 6803   0.217   2.097   2.920 -0.0932  0.1412  0.1144
    1SOL    MW4 6804   0.215   2.096   3.007  0.0872  0.4442  0.1192
    1SOL     OW 6805   0.194   2.350   3.101 -0.4348  0.3105  0.3317
    1SOL    HW2 6806   0.200   2.344   3.196 -0.0626  0.4674  0.3209
    1SOL    HW3 6807   0.277   2.390   3.074 -0.0473 -0.7868 -0.1564
    1SOL    MW4 6808   0.206   2.354   3.110 -0.3346  0.1864  0.2658
    1SOL     OW 6809   4.481   2.496   2.988 -0.0241  0.1866  0.2897
    1SOL    HW2 6810   4.479   2.580   3.034 -0.9554  0.6918 -0.6408
    1SOL    HW3 6811   4.554   2.448   3.027 -0.3177  0.9079  1.7389
    1SOL    MW4 6812   4.490   2.501   2.999 -0.1855  0.3483  0.3581
    1SOL     OW 6813   4.435   2.748   3.121 -0.0379 -0.0406 -0.0125
    1SOL    HW2 6814   4.438   2.756   3.216 -2.8208  0.3296  0.0816
    1SOL    HW3 6815   4.504   2.806   3.089  1.4925 -0.8126  1.7706
    1SOL    MW4 6816   4.444   2.757   3.129 -0.2031 -0.0939  0.2353
    1SOL     OW 6817   0.177   2.884   3.020 -0.2367  0.1530  0.4437
    1SOL    HW2 6818   0.250   2.826   3.041 -1.3056 -1.5851 -0.4905
    1SOL    HW3 6819   0.173   2.885   2.924 -0.5723  1.3482  0.4560
    1SOL    MW4 6820   0.186   2.877   3.010 -0.4220  0.0811  0.3221
    1SOL     OW 6821   0.199   3.131   3.167  0.5464 -0.5369 -0.2062
    1SOL    HW2 6822   0.115   3.171   3.145 -1.2878 -2.4735  2.8289
    1SOL    HW3 6823   0.199   3.049   3.118 -0.2496 -1.4319  1.2484
    1SOL    MW4 6824   0.188   3.125   3.158  0.1994 -0.9100  0.3862
    1SOL     OW 6825   4.446   3.207   3.049 -0.2921  0.0338  0.3682
    1SOL    HW2 6826   4.361   3.166   3.063 -0.9914  1.0306 -0.7501
    1SOL    HW3 6827   4.457   3.207   2.954  0.8654  0.1012  0.4944
    1SOL    MW4 6828   4.436   3.202   3.038 -0.2317  0.1745  0.2375
    1SOL     OW 6829   4.411   3.461   3.169  0.9897 -0.2491 -0.0700
    1SOL    HW2 6830   4.321   3.492   3.173  1.2520  0.3477  2.9188
    1SOL    HW3 6831   4.407   3.377   3.125 -0.9949 -0.0726 -0.2352
    1SOL    MW4 6832   4.399   3.454   3.164  0.7625 -0.1469  0.3028
    1SOL     OW 6833   0.192   3.567   3.035 -0.3652 -0.5715  0.3074
    1SOL    HW2 6834   0.182   3.651   3.081  0.3255  0.0282 -0.6342
    1SOL    HW3 6835   0.125   3.511   3.075 -0.2303  0.1431  1.5734
    1SOL    MW4 6836   0.182   3.571   3.046 -0.2563 -0.3979  0.3500
    1SOL     OW 6837   0.187   3.853   3.148  0.2003 -0.1794  0.3131
    1SOL    HW2 6838   0.185   3.865   3.243  1.2507  0.2103  0.2944
    1SOL    HW3 6839   0.275   3.881   3.122  0.0456 -0.6352 -0.7280
    1SOL    MW4 6840   0.198   3.858   3.157  0.3185 -0.1881  0.1736
    1SOL     OW 6841   4.443   3.964   3.059 -0.6549 -0.4540 -0.7561
    1SOL    HW2 6842   4.522   3.922   3.091 -0.0698  1.0799 -0.1337
    1SOL    HW3 6843   4.456   3.972   2.965  0.4260  0.7759 -0.5166
    1SOL    MW4 6844   4.455   3.960   3.051 -0.4349 -0.0892 -0.6421
    1SOL     OW 6845   4.485   4.224   3.131  0.0540 -0.5663  0.3640
    1SOL    HW2 6846   4.475   4.229   3.226 -1.1803 -0.2282  0.2284
    1SOL    HW3 6847   4.473   4.131   3.111 -0.1445 -0.5688  0.4915
    1SOL    MW4 6848   4.482   4.212   3.141 -0.1354 -0.5221  0.3629
    1SOL     OW 6849   0.238   4.344   3.036  0.1405 -0.3724  0.3204
    1SOL    HW2 6850   0.159   4.300   3.066  1.4032 -1.7738  1.6494
    1SOL    HW3 6851   0.236   4.430   3.079 -2.3228  0.9555 -2.2805
    1SOL    MW4 6852   0.227   4.350   3.046 -0.0179 -0.3824  0.1523
    1SOL     OW 6853   0.633   4.614   3.131 -0.0072 -0.5723 -0.5744
    1SOL    HW2 6854   0.653   4.525   3.102  0.5232 -0.3175 -1.0029
    1SOL    HW3 6855   0.553   4.637   3.084 -0.1905 -0.8518 -0.4008
    1SOL    MW4 6856   0.625   4.606   3.121  0.0386 -0.5751 -0.6080
    1SOL     OW 6857   0.441   0.070   2.980  0.1143  0.1013  0.0590
    1SOL    HW2 6858   0.447   0.164   2.997 -0.5260  0.2215 -0.3421
    1SOL    HW3 6859   0.366   0.042   3.032  0.6999 -0.3151  0.6889
    1SOL    MW4 6860   0.432   0.079   2.989  0.1071  0.0622  0.0889
    1SOL     OW 6861   0.470   0.351   3.063  0.5441 -0.2118 -0.2611
    1SOL    HW2 6862   0.454   0.347   3.157 -0.1690 -0.7013 -0.3911
    1SOL    HW3 6863   0.556   0.392   3.054  1.0098 -0.9832  0.6304
    1SOL    MW4 6864   0.479   0.356   3.074  0.5115 -0.3782 -0.1605
    1SOL     OW 6865   0.701   0.502   2.987  0.0032  0.8671  0.2533
    1SOL    HW2 6866   0.770   0.447   3.026  0.5626  0.3165 -1.4445
    1SOL    HW3 6867   0.728   0.592   3.005  1.3839  0.6655 -0.6936
    1SOL    MW4 6868   0.714   0.506   2.994  0.2592  0.7678 -0.0956
    1SOL     OW 6869   0.746   0.764   3.058  0.6434  0.0000 -0.4610
    1SOL    HW2 6870   0.742   0.753   3.153 -0.5981 -1.2692 -0.6538
    1SOL    HW3 6871   0.658   0.792   3.033  1.0022  0.4618 -1.2276
    1SOL    MW4 6872   0.734   0.766   3.067  0.5269 -0.1065 -0.5875
    1SOL     OW 6873   0.503   0.888   2.997  0.4217  0.2525 -0.4005
    1SOL    HW2 6874   0.426   0.850   3.040  0.7281 -0.3113 -0.3396
    1SOL    HW3 6875   0.479   0.892   2.905  0.3785 -0.0761 -0.4055
    1SOL    MW4 6876   0.489   0.883   2.991  0.4564  0.1348 -0.3929
    1SOL     OW 6877   0.507   1.141   3.099 -0.3436  0.2599  0.4814
    1SOL    HW2 6878   0.516   1.055   3.058  0.4513 -0.1031  1.4036
    1SOL    HW3 6879   0.425   1.176   3.064  0.0056 -0.3048 -0.9424
    1SOL    MW4 6880   0.497   1.134   3.089 -0.1926  0.1376  0.4151
    1SOL     OW 6881   0.708   1.295   3.002  0.1185  0.0652 -0.4913
    1SOL    HW2 6882   0.788   1.256   3.039  0.2951  0.0203 -0.9255
    1SOL    HW3 6883   0.638   1.237   3.033  0.2360  0.1943  0.0213
    1SOL    MW4 6884   0.709   1.282   3.011  0.1572  0.0763 -0.4809
    1SOL     OW 6885   0.693   1.550   3.098  0.2918 -0.3630 -0.5569
    1SOL    HW2 6886   0.679   1.545   3.193  1.3956  0.2898 -0.3552
    1SOL    HW3 6887   0.698   1.458   3.070  1.5511 -0.5504  0.2635
    1SOL    MW4 6888   0.692   1.537   3.107  0.6035 -0.3016 -0.4220
    1SOL     OW 6889   0.469   1.673   2.990 -0.5976  0.1874  0.6492
    1SOL    HW2 6890   0.553   1.638   3.021  0.0854  0.4075 -0.9200
    1SOL    HW3 6891   0.405   1.609   3.019  0.2173 -0.4699  1.0386
    1SOL    MW4 6892   0.472   1.660   2.998 -0.3999  0.1297  0.4935
    1SOL     OW 6893   0.441   1.917   3.098 -0.1930 -0.1710 -0.5849
    1SOL    HW2 6894   0.452   1.836   3.048 -1.5668 -1.0712  0.5196
    1SOL    HW3 6895   0.362   1.958   3.061 -0.5760 -0.2828  0.1027
    1SOL    MW4 6896   0.432   1.912   3.086 -0.4248 -0.3045 -0.3486
    1SOL     OW 6897   0.661   2.047   2.973 -0.3544 -0.4989 -0.3100
    1SOL    HW2 6898   0.736   2.007   3.018  0.3056 -0.0845 -1.0154
    1SOL    HW3 6899   0.584   2.011   3.017  0.2499 -1.4630 -0.0228
    1SOL    MW4 6900   0.661   2.037   2.985 -0.1876 -0.5715 -0.3655
    1SOL     OW 6901   0.652   2.297   3.061 -0.0686  0.0896 -0.0326
    1SOL    HW2 6902   0.658   2.279   3.155 -1.0729  0.9415  0.2023
    1SOL    HW3 6903   0.666   2.212   3.020 -1.7848 -0.7003  0.9677
    1SOL    MW4 6904   0.655   2.283   3.068 -0.4275  0.0980  0.1304
    1SOL     OW 6905   0.426   2.478   2.984 -0.0678  0.0192 -0.3706
    1SOL    HW2 6906   0.516   2.445   2.983 -0.2050 -0.3499 -0.7277
    1SOL    HW3 6907   0.409   2.505   2.893 -0.0666  0.7854 -0.1529
    1SOL    MW4 6908   0.436   2.478   2.972 -0.0857  0.0718 -0.3891
    1SOL     OW 6909   0.387   2.705   3.134  0.0362  0.4813 -0.5073
    1SOL    HW2 6910   0.464   2.757   3.114 -0.1980  0.8302 -0.5082
    1SOL    HW3 6911   0.402   2.621   3.091 -0.0456  0.9069 -1.3615
    1SOL    MW4 6912   0.399   2.701   3.126 -0.0055  0.5832 -0.6201
    1SOL     OW 6913   0.654   2.810   3.032 -0.1054  0.4264  0.5859
    1SOL    HW2 6914   0.729   2.757   3.058 -0.7708 -1.4246 -1.1837
    1SOL    HW3 6915   0.673   2.897   3.067  1.9711 -0.4625  1.7491
    1SOL    MW4 6916   0.666   2.815   3.040  0.0807  0.0648  0.5062
    1SOL     OW 6917   0.679   3.080   3.117  0.6570 -0.2263  0.5220
    1SOL    HW2 6918   0.700   3.100   3.208  0.0986 -0.9702  0.8130
    1SOL    HW3 6919   0.601   3.132   3.098  0.8300  0.0038  0.4333
    1SOL    MW4 6920   0.672   3.090   3.126  0.6061 -0.2940  0.5488
    1SOL     OW 6921   0.436   3.189   3.025  0.1581  0.1108  0.1841
    1SOL    HW2 6922   0.453   3.275   3.063 -0.0391  0.1976  0.0799
    1SOL    HW3 6923   0.351   3.164   3.061  0.6728 -0.4906  1.0049
    1SOL    MW4 6924   0.427   3.197   3.035  0.2000  0.0427  0.2787
    1SOL     OW 6925   0.442   3.459   3.137  0.4300 -0.1193 -0.4547
    1SOL    HW2 6926   0.455   3.476   3.231  0.1266 -1.7772 -0.0783
    1SOL    HW3 6927   0.353   3.488   3.120  1.1367  1.9817 -0.6962
    1SOL    MW4 6928   0.432   3.465   3.147  0.4832 -0.0608 -0.4368
    1SOL     OW 6929   0.630   3.639   3.013 -0.1354  0.1915 -0.5145
    1SOL    HW2 6930   0.718   3.616   3.042 -0.4770  1.7400  1.7796
    1SOL    HW3 6931   0.572   3.583   3.065 -0.6646  1.6002  0.4139
    1SOL    MW4 6932   0.634   3.628   3.023 -0.2503  0.5817 -0.0894
    1SOL     OW 6933   0.681   3.877   3.140 -0.0606  0.0384 -0.4280
    1SOL    HW2 6934   0.681   3.870   3.235 -0.8079 -0.0668 -0.4382
    1SOL    HW3 6935   0.656   3.790   3.109  1.0888 -0.1933 -0.7427
    1SOL    MW4 6936   0.678   3.865   3.149 -0.0076 -0.0060 -0.4709
    1SOL     OW 6937   0.435   3.955   3.058  0.1627  0.7371 -0.0247
    1SOL    HW2 6938   0.524   3.932   3.084 -0.1859  0.0561  0.5862
    1SOL    HW3 6939   0.440   3.967   2.963  0.7508 -0.0130 -0.0911
    1SOL    MW4 6940   0.448   3.954   3.049  0.1943  0.5481  0.0470
    1SOL     OW 6941   0.457   4.246   3.145  0.0042 -0.3967  0.1562
    1SOL    HW2 6942   0.470   4.151   3.144  1.1537 -0.2546  0.6269
    1SOL    HW3 6943   0.369   4.259   3.110  0.3007 -1.5624 -1.0246
    1SOL    MW4 6944   0.447   4.235   3.141  0.1950 -0.5322  0.0625
    1SOL     OW 6945   0.676   4.363   3.057 -0.1072  0.0399 -0.1380
    1SOL    HW2 6946   0.607   4.309   3.094  2.3702 -3.1290  0.0318
    1SOL    HW3 6947   0.658   4.363   2.963 -0.6532 -0.2934 -0.0365
    1SOL    MW4 6948   0.664   4.356   3.049  0.1475 -0.4220 -0.1023
    1SOL     OW 6949   1.064   0.010   3.088  0.0020 -0.0753  0.0250
    1SOL    HW2 6950   1.130   0.079   3.085  0.5114 -0.5939 -0.8228
    1SOL    HW3 6951   0.984   0.051   3.054  0.1239  0.2794  0.1636
    1SOL    MW4 6952   1.062   0.024   3.083  0.0854 -0.0969 -0.0684
    1SOL     OW 6953   0.812   0.108   2.993  0.4127  0.4483 -0.0436
    1SOL    HW2 6954   0.802   0.200   3.018  2.7525  0.1494  2.2028
    1SOL    HW3 6955   0.743   0.062   3.039  1.5582  0.6038  1.8765
    1SOL    MW4 6956   0.802   0.114   3.002  0.8725  0.4294  0.5062
    1SOL     OW 6957   0.925   0.337   3.095  0.1293 -0.3931  0.2069
    1SOL    HW2 6958   0.929   0.338   3.190  0.2847 -1.2055  0.2132
    1SOL    HW3 6959   0.982   0.409   3.067  1.1087 -0.9698  0.7004
    1SOL    MW4 6960   0.933   0.346   3.104  0.2790 -0.5764  0.2730
    1SOL     OW 6961   1.119   0.556   3.021 -0.5064  0.1293  0.1899
    1SOL    HW2 6962   1.200   0.520   3.057  0.9265  2.7285 -0.2890
    1SOL    HW3 6963   1.125   0.539   2.927 -0.6216  0.1030  0.1877
    1SOL    MW4 6964   1.131   0.549   3.013 -0.3326  0.4687  0.1264
    1SOL     OW 6965   1.162   0.804   3.108  0.2254  0.1753  0.0223
    1SOL    HW2 6966   1.154   0.790   3.203  0.0784 -1.2660 -0.1853
    1SOL    HW3 6967   1.139   0.719   3.070  0.0393  0.8164 -1.3197
    1SOL    MW4 6968   1.158   0.791   3.116  0.1814  0.0697 -0.1822
    1SOL     OW 6969   0.948   0.923   2.976  0.0050  0.1770  0.1858
    1SOL    HW2 6970   1.023   0.885   3.023 -0.5782 -2.4680 -0.9023
    1SOL    HW3 6971   0.872   0.879   3.014 -0.7961  1.0232 -0.4399
    1SOL    MW4 6972   0.948   0.912   2.987 -0.1776 -0.0603 -0.0401
    1SOL     OW 6973   0.925   1.167   3.096 -0.2266  0.0767 -0.0968
    1SOL    HW2 6974   0.997   1.221   3.063 -1.0512  0.5756 -1.1376
    1SOL    HW3 6975   0.937   1.082   3.054  0.1011 -0.0252  0.2047
    1SOL    MW4 6976   0.936   1.163   3.086 -0.2921  0.1290 -0.1943
    1SOL     OW 6977   1.143   1.317   3.033  0.5558  0.3638  0.0823
    1SOL    HW2 6978   1.231   1.282   3.048 -0.7070 -2.0580  2.1584
    1SOL    HW3 6979   1.133   1.318   2.938  1.9730 -1.5408 -0.1063
    1SOL    MW4 6980   1.153   1.313   3.022  0.5761 -0.2071  0.3312
    1SOL     OW 6981   1.172   1.582   3.127 -0.3137 -0.3351 -0.0641
    1SOL    HW2 6982   1.242   1.627   3.081 -1.8454  0.5645 -1.5590
    1SOL    HW3 6983   1.176   1.492   3.095  0.0180 -0.2371 -0.3034
    1SOL    MW4 6984   1.182   1.576   3.117 -0.4721 -0.2037 -0.2928
    1SOL     OW 6985   0.926   1.663   3.014 -0.2926  0.0969 -0.6760
    1SOL    HW2 6986   1.000   1.626   3.063 -0.6753  0.1722 -0.0378
    1SOL    HW3 6987   0.849   1.618   3.048 -0.7657  1.4278  0.0820
    1SOL    MW4 6988   0.926   1.652   3.025 -0.4055  0.2825 -0.4919
    1SOL     OW 6989   0.912   1.924   3.104  0.2850  0.1228 -0.6465
    1SOL    HW2 6990   0.911   1.917   3.200  1.6777 -0.6046 -0.6706
    1SOL    HW3 6991   0.893   1.836   3.073  0.8174  0.1438 -1.0355
    1SOL    MW4 6992   0.910   1.912   3.113  0.5390  0.0297 -0.7010
    1SOL     OW 6993   1.118   2.089   3.026 -0.1586 -0.8151  0.5428
    1SOL    HW2 6994   1.053   2.024   3.052  0.4479 -2.0471 -0.9664
    1SOL    HW3 6995   1.114   2.091   2.930  0.9954  0.1562  0.4992
    1SOL    MW4 6996   1.109   2.081   3.017  0.0738 -0.8495  0.3378
    1SOL     OW 6997   1.117   2.351   3.095 -0.2238  0.0157  0.3391
    1SOL    HW2 6998   1.047   2.389   3.042 -0.3801 -0.4152  0.2316
    1SOL    HW3 6999   1.112   2.257   3.077  0.4426 -0.0044  0.2594
    1SOL    MW4 7000   1.107   2.344   3.086 -0.1564 -0.0439  0.3145
    1SOL     OW 7001   0.886   2.454   2.996 -0.0571 -0.4622  0.4625
    1SOL    HW2 7002   0.808   2.402   3.009 -0.5735  0.2881  0.4164
    1SOL    HW3 7003   0.897   2.458   2.901  0.0989 -0.6516  0.4715
    1SOL    MW4 7004   0.878   2.448   2.985 -0.1046 -0.3881  0.4575
    1SOL     OW 7005   0.907   2.712   3.106 -0.3095 -0.3898 -0.3953
    1SOL    HW2 7006   0.909   2.723   3.201 -2.0619  0.8625 -0.4780
    1SOL    HW3 7007   0.891   2.619   3.093  1.5555 -0.8396  0.5178
    1SOL    MW4 7008   0.905   2.701   3.116 -0.2947 -0.2837 -0.2856
    1SOL     OW 7009   1.111   2.843   2.967  0.0729  0.4882  0.0568
    1SOL    HW2 7010   1.118   2.934   2.997 -1.5700  0.5067  0.3943
    1SOL    HW3 7011   1.040   2.806   3.019  1.3367 -1.2679  0.5649
    1SOL    MW4 7012   1.103   2.850   2.978  0.0230  0.2589  0.1683
    1SOL     OW 7013   1.119   3.085   3.102  0.1989 -0.3984  0.4606
    1SOL    HW2 7014   1.191   3.146   3.088  0.6723 -1.3341 -1.2904
    1SOL    HW3 7015   1.040   3.136   3.084  0.5386  0.0143  0.1278
    1SOL    MW4 7016   1.118   3.100   3.098  0.3062 -0.4675  0.1855
    1SOL     OW 7017   0.883   3.258   3.043  0.1460 -0.3302  0.0283
    1SOL    HW2 7018   0.810   3.196   3.055  0.4704 -0.6644  0.2933
    1SOL    HW3 7019   0.900   3.256   2.949 -0.3816 -0.0253 -0.0778
    1SOL    MW4 7020   0.875   3.249   3.032  0.1191 -0.3340  0.0491
    1SOL     OW 7021   0.864   3.525   3.130 -0.0723 -0.4728 -0.5604
    1SOL    HW2 7022   0.946   3.569   3.107 -0.5155 -0.7006 -2.6310
    1SOL    HW3 7023   0.870   3.439   3.089 -1.5636 -0.3095 -1.1548
    1SOL    MW4 7024   0.876   3.520   3.122 -0.3276 -0.4814 -0.9120
    1SOL     OW 7025   1.083   3.661   3.045 -0.6302 -0.5217 -0.3457
    1SOL    HW2 7026   1.159   3.618   3.083  0.1229  1.0848  0.0280
    1SOL    HW3 7027   1.089   3.752   3.075 -2.4172 -0.2459 -0.7316
    1SOL    MW4 7028   1.094   3.667   3.054 -0.7666 -0.2732 -0.3471
    1SOL     OW 7029   1.131   3.928   3.160  0.1247  0.4936  0.2820
    1SOL    HW2 7030   1.131   3.916   3.255  0.1155  0.8311  0.3245
    1SOL    HW3 7031   1.045   3.964   3.141  0.4003  1.1177  0.2295
    1SOL    MW4 7032   1.120   3.931   3.170  0.1597  0.6204  0.2806
    1SOL     OW 7033   0.895   4.039   3.078  0.2652 -0.1384  0.4285
    1SOL    HW2 7034   0.810   3.999   3.096 -0.3098 -0.0030 -1.8252
    1SOL    HW3 7035   0.920   4.006   2.992  2.1469  0.4242  0.7345
    1SOL    MW4 7036   0.887   4.030   3.069  0.4376 -0.0463  0.1717
    1SOL     OW 7037   0.932   4.294   3.163 -0.4480 -0.4468 -0.1101
    1SOL    HW2 7038   0.933   4.204   3.129 -2.3892 -1.0191  1.2646
    1SOL    HW3 7039   0.856   4.334   3.122  0.3389  0.5550 -0.6168
    1SOL    MW4 7040   0.922   4.287   3.153 -0.6004 -0.3905  0.0043
    1SOL     OW 7041   1.165   4.428   3.064 -0.1131 -0.0335  0.3121
    1SOL    HW2 7042   1.086   4.378   3.087 -1.2770  2.0049  0.9163
    1SOL    HW3 7043   1.139   4.520   3.075  1.5447  0.7762 -2.0549
    1SOL    MW4 7044   1.151   4.434   3.068 -0.0479  0.3424  0.0796
    1SOL     OW 7045   1.538   0.018   3.098  0.1347 -0.1725 -0.9003
    1SOL    HW2 7046   1.459   0.062   3.066  1.6604  2.6127 -0.9334
    1SOL    HW3 7047   1.537   0.033   3.193  0.0522 -1.1290 -0.7399
    1SOL    MW4 7048   1.527   0.026   3.106  0.3251  0.0687 -0.8838
    1SOL     OW 7049   1.298   0.159   3.029  0.2906 -0.3832 -0.1365
    1SOL    HW2 7050   1.332   0.247   3.045  1.3473 -0.5289 -1.4968
    1SOL    HW3 7051   1.299   0.150   2.934 -0.6068 -1.5593 -0.0454
    1SOL    MW4 7052   1.303   0.169   3.019  0.3116 -0.5576 -0.3037
    1SOL     OW 7053   1.338   0.419   3.121  0.4815 -0.1481 -0.2873
    1SOL    HW2 7054   1.347   0.421   3.216  1.7622  1.6871 -0.4276
    1SOL    HW3 7055   1.421   0.453   3.088  0.3950 -1.5942 -2.0904
    1SOL    MW4 7056   1.350   0.423   3.129  0.6390 -0.0968 -0.5436
    1SOL     OW 7057   1.563   0.540   3.049  0.6021 -0.2892  0.4707
    1SOL    HW2 7058   1.562   0.631   3.077  1.5651 -0.1778  0.1651
    1SOL    HW3 7059   1.564   0.544   2.953 -0.3610 -0.6354  0.4420
    1SOL    MW4 7060   1.563   0.552   3.040  0.6021 -0.3201  0.4265
    1SOL     OW 7061   1.568   0.808   3.111 -0.0362 -0.0359  0.4809
    1SOL    HW2 7062   1.557   0.801   3.206  0.7660 -2.2101  0.4455
    1SOL    HW3 7063   1.493   0.859   3.082 -0.0502  1.0508  2.3375
    1SOL    MW4 7064   1.556   0.814   3.120  0.0677 -0.1794  0.7210
    1SOL     OW 7065   1.362   0.957   3.014  0.3563  0.0519 -0.4909
    1SOL    HW2 7066   1.366   1.048   3.043 -1.0186  0.1541 -0.5915
    1SOL    HW3 7067   1.292   0.918   3.066  0.3785 -0.7229 -1.0323
    1SOL    MW4 7068   1.353   0.964   3.025  0.1777 -0.0368 -0.5758
    1SOL     OW 7069   1.363   1.209   3.132 -0.0001 -0.2486  0.3324
    1SOL    HW2 7070   1.354   1.225   3.225 -2.6229 -1.1324  0.2581
    1SOL    HW3 7071   1.456   1.226   3.114  0.0717  2.1078  2.6394
    1SOL    MW4 7072   1.374   1.213   3.142 -0.3366 -0.0542  0.6273
    1SOL     OW 7073   1.603   1.293   2.986 -0.5384 -0.1429  0.2436
    1SOL    HW2 7074   1.683   1.264   3.029 -0.1458  0.0332 -0.3555
    1SOL    HW3 7075   1.590   1.383   3.017 -0.1454  0.0538 -0.1589
    1SOL    MW4 7076   1.612   1.301   2.996 -0.4348 -0.0937  0.1116
    1SOL     OW 7077   1.582   1.542   3.126 -0.2025  0.4664  0.5440
    1SOL    HW2 7078   1.500   1.588   3.110  0.5837  2.2545  1.4765
    1SOL    HW3 7079   1.583   1.529   3.221  0.4868  0.2537  0.5088
    1SOL    MW4 7080   1.571   1.546   3.137 -0.0077  0.6744  0.6623
    1SOL     OW 7081   1.379   1.697   3.000 -0.9401 -0.1605 -0.0043
    1SOL    HW2 7082   1.376   1.789   3.024 -1.8466 -0.6910  1.9990
    1SOL    HW3 7083   1.392   1.697   2.905  0.1082  2.0099  0.1180
    1SOL    MW4 7084   1.381   1.709   2.990 -0.9215  0.0558  0.2761
    1SOL     OW 7085   1.361   1.971   3.097  0.5830  0.2731  0.4418
    1SOL    HW2 7086   1.347   1.946   3.189  1.4665 -0.0781  0.4905
    1SOL    HW3 7087   1.273   1.990   3.064  0.2448  0.3367  1.3401
    1SOL    MW4 7088   1.348   1.970   3.105  0.6549  0.2352  0.5667
    1SOL     OW 7089   1.610   2.085   2.981  0.2296  0.4799  0.4258
    1SOL    HW2 7090   1.677   2.030   3.023  0.0653  0.6625  0.9397
    1SOL    HW3 7091   1.527   2.050   3.014 -0.0493 -1.1065 -1.8482
    1SOL    MW4 7092   1.608   2.073   2.991  0.1711  0.2947  0.1936
    1SOL     OW 7093   1.583   2.325   3.123  0.2400  0.2353  0.2068
    1SOL    HW2 7094   1.504   2.365   3.087 -0.7645 -0.9358  1.0757
    1SOL    HW3 7095   1.587   2.238   3.081 -0.4400 -0.7750  2.1769
    1SOL    MW4 7096   1.573   2.318   3.112  0.0180 -0.0525  0.5813
    1SOL     OW 7097   1.370   2.459   3.029  0.4939  0.2730  0.2709
    1SOL    HW2 7098   1.288   2.412   3.046  0.2519  1.2727  1.9494
    1SOL    HW3 7099   1.364   2.485   2.937 -0.4155 -0.9251 -0.0205
    1SOL    MW4 7100   1.358   2.456   3.019  0.3420  0.2465  0.4539
    1SOL     OW 7101   1.315   2.705   3.124  0.1365  0.2007  0.3500
    1SOL    HW2 7102   1.320   2.615   3.092  0.8354  0.1361  0.6326
    1SOL    HW3 7103   1.251   2.747   3.067  0.0583 -0.3828  0.0000
    1SOL    MW4 7104   1.307   2.699   3.113  0.2183  0.1152  0.3409
    1SOL     OW 7105   1.531   2.846   2.999  0.1448  0.0238  0.3990
    1SOL    HW2 7106   1.608   2.800   3.035  1.4075  2.4026  0.8290
    1SOL    HW3 7107   1.457   2.792   3.026  1.5099 -1.2800  1.6773
    1SOL    MW4 7108   1.532   2.833   3.007  0.4916  0.1655  0.6244
    1SOL     OW 7109   1.532   3.095   3.096  0.4562 -0.0697 -0.0326
    1SOL    HW2 7110   1.548   3.082   3.189  0.4698 -0.3262 -0.0710
    1SOL    HW3 7111   1.520   3.007   3.061 -1.6574  0.1236  0.1081
    1SOL    MW4 7112   1.532   3.082   3.103  0.1791 -0.0780 -0.0191
    1SOL     OW 7113   1.322   3.261   3.032 -0.0446  0.4264 -0.3603
    1SOL    HW2 7114   1.398   3.210   3.057 -0.0667  0.8749  0.6682
    1SOL    HW3 7115   1.322   3.260   2.936  1.2216  0.3787 -0.3689
    1SOL    MW4 7116   1.332   3.254   3.022  0.1196  0.4790 -0.2258
    1SOL     OW 7117   1.315   3.523   3.127  0.0163 -0.0452 -0.2864
    1SOL    HW2 7118   1.327   3.516   3.222  2.1757  0.0115 -0.5369
    1SOL    HW3 7119   1.319   3.432   3.096 -1.4815 -0.1417 -0.2672
    1SOL    MW4 7120   1.317   3.510   3.135  0.1036 -0.0503 -0.3171
    1SOL     OW 7121   1.559   3.610   3.036  0.0730 -0.7991 -0.0574
    1SOL    HW2 7122   1.472   3.579   3.063 -0.8703  1.6248 -0.1716
    1SOL    HW3 7123   1.559   3.599   2.940 -1.1282  1.5623 -0.3643
    1SOL    MW4 7124   1.547   3.604   3.027 -0.2102 -0.1678 -0.1130
    1SOL     OW 7125   1.554   3.883   3.109 -0.4529  0.4654 -0.0077
    1SOL    HW2 7126   1.649   3.895   3.105 -0.2761 -0.0386  1.8998
    1SOL    HW3 7127   1.541   3.791   3.085 -0.3973  0.4004  0.2032
    1SOL    MW4 7128   1.565   3.872   3.105 -0.4222  0.3903  0.2713
    1SOL     OW 7129   1.356   4.065   3.029 -0.1248  0.2541 -0.9480
    1SOL    HW2 7130   1.423   4.003   3.059  0.5374  0.5460 -1.8057
    1SOL    HW3 7131   1.273   4.023   3.051  0.3325  0.1168  0.5992
    1SOL    MW4 7132   1.354   4.051   3.036  0.0229  0.2742 -0.8574
    1SOL     OW 7133   1.352   4.276   3.192  0.4047  0.1977  0.1611
    1SOL    HW2 7134   1.348   4.195   3.141  1.2803  0.7479 -0.7964
    1SOL    HW3 7135   1.291   4.335   3.149 -0.0744  0.1313  0.7347
    1SOL    MW4 7136   1.344   4.273   3.180  0.4572  0.2613  0.1104
    1SOL     OW 7137   1.544   4.400   3.045  0.0721  0.0093  0.2375
    1SOL    HW2 7138   1.472   4.352   3.087  0.8540 -0.2799  1.2686
    1SOL    HW3 7139   1.535   4.490   3.078  0.3813 -0.1053  0.6461
    1SOL    MW4 7140   1.533   4.406   3.055  0.2160 -0.0439  0.4272
    1SOL     OW 7141   1.979   4.665   3.096 -0.5772 -0.1952  0.1136
    1SOL    HW2 7142   2.009   4.680   3.186 -1.8052 -0.8383  0.6342
    1SOL    HW3 7143   1.892   4.704   3.093 -1.4774 -2.1626 -0.1259
    1SOL    MW4 7144   1.972   4.672   3.108 -0.8579 -0.5398  0.1509
    1SOL     OW 7145   1.756   0.169   3.036 -0.4651 -0.1019 -0.1231
    1SOL    HW2 7146   1.675   0.127   3.064 -0.8292  1.1390  0.7420
    1SOL    HW3 7147   1.753   0.167   2.940 -1.4592 -0.1695 -0.0944
    1SOL    MW4 7148   1.745   0.163   3.027 -0.6443  0.0529 -0.0050
    1SOL     OW 7149   1.804   0.433   3.113 -0.3806 -0.0407 -0.2355
    1SOL    HW2 7150   1.799   0.338   3.100  0.6120 -0.4116  1.9404
    1SOL    HW3 7151   1.715   0.464   3.099 -1.0578 -1.5152  0.7162
    1SOL    MW4 7152   1.792   0.425   3.109 -0.3390 -0.2842  0.1774
    1SOL     OW 7153   2.064   0.515   3.027 -0.5635  0.0031 -0.3885
    1SOL    HW2 7154   1.982   0.472   3.049 -0.5686  0.0770 -0.2588
    1SOL    HW3 7155   2.057   0.534   2.934 -1.1795  1.0272 -0.1543
    1SOL    MW4 7156   2.052   0.512   3.018 -0.6454  0.1479 -0.3405
    1SOL     OW 7157   2.017   0.749   3.187  0.0542 -0.1756  0.1498
    1SOL    HW2 7158   1.930   0.782   3.163  0.3978  0.6491  0.0346
    1SOL    HW3 7159   2.031   0.675   3.129 -0.2003  0.2417 -0.4480
    1SOL    MW4 7160   2.007   0.744   3.176  0.0658 -0.0117  0.0556
    1SOL     OW 7161   1.825   0.887   3.052  0.1353 -0.2691 -0.5347
    1SOL    HW2 7162   1.733   0.859   3.056  0.1863 -0.1674  1.6820
    1SOL    HW3 7163   1.846   0.885   2.958 -2.2444  0.0900 -1.1120
    1SOL    MW4 7164   1.815   0.883   3.040 -0.1719 -0.2084 -0.3183
    1SOL     OW 7165   1.834   1.172   3.102 -0.6606  0.2087  0.3348
    1SOL    HW2 7166   1.854   1.183   3.195  1.5561 -0.8038  0.0138
    1SOL    HW3 7167   1.813   1.079   3.093  0.1533  0.0891 -0.3567
    1SOL    MW4 7168   1.834   1.161   3.113 -0.2609  0.0594  0.2012
    1SOL     OW 7169   2.041   1.305   2.968 -0.1832 -0.1116 -0.0540
    1SOL    HW2 7170   2.120   1.264   3.003  0.2932  0.0307 -0.9464
    1SOL    HW3 7171   1.969   1.252   3.001  0.2407  0.1341  1.3066
    1SOL    MW4 7172   2.042   1.293   2.977 -0.0646 -0.0604  0.0079
    1SOL     OW 7173   2.047   1.561   3.083  0.0187 -0.5112  0.9719
    1SOL    HW2 7174   2.049   1.552   3.178  0.5489 -0.5002  0.9649
    1SOL    HW3 7175   2.064   1.473   3.050  0.4440 -0.3977  0.8893
    1SOL    MW4 7176   2.050   1.548   3.091  0.1447 -0.4948  0.9603
    1SOL     OW 7177   1.803   1.682   3.032 -0.3134 -0.4269  0.0423
    1SOL    HW2 7178   1.884   1.633   3.046 -0.7657 -0.9793  0.7387
    1SOL    HW3 7179   1.736   1.633   3.080 -0.7537  0.9046  0.8299
    1SOL    MW4 7180   1.805   1.669   3.040 -0.4312 -0.3242  0.2382
    1SOL     OW 7181   1.806   1.931   3.138 -0.4141 -0.1218 -0.1309
    1SOL    HW2 7182   1.887   1.962   3.097 -0.4962 -0.6643 -0.7162
    1SOL    HW3 7183   1.792   1.844   3.099 -2.0074  0.5259 -1.0452
    1SOL    MW4 7184   1.815   1.924   3.127 -0.6350 -0.1080 -0.3288
    1SOL     OW 7185   2.041   2.056   3.021  0.2214  0.0403  0.2590
    1SOL    HW2 7186   2.116   2.022   3.068 -1.4001 -1.7299  1.5967
    1SOL    HW3 7187   2.039   2.149   3.044  2.5136  0.3097 -0.5227
    1SOL    MW4 7188   2.051   2.064   3.030  0.3097 -0.1576  0.3324
    1SOL     OW 7189   1.992   2.324   3.068  0.1015 -0.3108 -0.0926
    1SOL    HW2 7190   1.992   2.331   3.163 -1.1218 -1.9526  0.0580
    1SOL    HW3 7191   1.907   2.360   3.041  0.7233  0.7758 -0.6231
    1SOL    MW4 7192   1.981   2.330   3.077  0.0222 -0.3843 -0.1423
    1SOL     OW 7193   1.774   2.471   2.995  0.1158  0.2497 -0.1203
    1SOL    HW2 7194   1.770   2.556   3.039 -0.6462  0.0717  0.1710
    1SOL    HW3 7195   1.706   2.419   3.037  0.3726 -0.4094 -0.5049
    1SOL    MW4 7196   1.764   2.475   3.006  0.0492  0.1395 -0.1326
    1SOL     OW 7197   1.762   2.716   3.104  0.0875  0.1517 -0.1787
    1SOL    HW2 7198   1.787   2.702   3.195 -0.7226 -1.2547 -0.1591
    1SOL    HW3 7199   1.844   2.735   3.059  0.6976 -0.7446  0.5502
    1SOL    MW4 7200   1.776   2.717   3.110  0.0612 -0.1521 -0.0801
    1SOL     OW 7201   2.000   2.821   3.014  0.1561  0.2990 -0.0071
    1SOL    HW2 7202   2.006   2.914   3.036 -1.3466  0.7165 -1.2977
    1SOL    HW3 7203   2.011   2.818   2.919 -0.8007 -0.7376 -0.0925
    1SOL    MW4 7204   2.003   2.833   3.004 -0.1681  0.2174 -0.1888
    1SOL     OW 7205   2.000   3.076   3.115  0.5298 -0.2931  0.4419
    1SOL    HW2 7206   2.022   3.084   3.208 -0.8158 -3.2325  1.0873
    1SOL    HW3 7207   1.915   3.118   3.107  1.0823  0.8232  0.3156
    1SOL    MW4 7208   1.992   3.083   3.126  0.4251 -0.5338  0.5102
    1SOL     OW 7209   1.778   3.247   3.053  0.0748  0.1286  0.3407
    1SOL    HW2 7210   1.700   3.193   3.066 -0.0157  0.2475  0.2950
    1SOL    HW3 7211   1.789   3.250   2.957  0.1940  0.0290  0.3508
    1SOL    MW4 7212   1.769   3.240   3.042  0.0786  0.1309  0.3362
    1SOL     OW 7213   1.809   3.511   3.137 -0.0232  0.2879 -0.5637
    1SOL    HW2 7214   1.782   3.427   3.099 -0.5170  0.8716 -1.5069
    1SOL    HW3 7215   1.732   3.566   3.130  0.0106  0.5602  0.8830
    1SOL    MW4 7216   1.795   3.507   3.131 -0.0839  0.4008 -0.4973
    1SOL     OW 7217   2.036   3.619   3.005  0.1995  0.0801 -0.1693
    1SOL    HW2 7218   2.032   3.706   3.044 -0.3719 -1.3167  3.0901
    1SOL    HW3 7219   1.962   3.572   3.044  0.5121 -1.8612 -1.8492
    1SOL    MW4 7220   2.025   3.624   3.015  0.1655 -0.3603  0.0393
    1SOL     OW 7221   2.038   3.865   3.114  0.4003 -0.1222 -0.3159
    1SOL    HW2 7222   2.032   3.880   3.209  0.1777 -1.3093 -0.1318
    1SOL    HW3 7223   1.957   3.900   3.078 -0.0126 -0.6571  0.0766
    1SOL    MW4 7224   2.027   3.871   3.122  0.3164 -0.3493 -0.2398
    1SOL     OW 7225   1.817   4.003   3.021 -0.1815 -0.2637  0.2305
    1SOL    HW2 7226   1.820   4.093   3.053 -0.6903 -0.5577  1.0852
    1SOL    HW3 7227   1.791   4.012   2.929 -0.0184  0.4683  0.2489
    1SOL    MW4 7228   1.814   4.016   3.013 -0.2271 -0.2060  0.3457
    1SOL     OW 7229   1.779   4.259   3.113  0.3618  0.5631  0.3606
    1SOL    HW2 7230   1.844   4.328   3.107  0.1825  0.7034 -0.0341
    1SOL    HW3 7231   1.696   4.303   3.095  0.1209  0.4453  1.1681
    1SOL    MW4 7232   1.776   4.274   3.110  0.3064  0.5670  0.4153
    1SOL     OW 7233   2.014   4.398   3.002  0.0213  0.4137 -0.1344
    1SOL    HW2 7234   2.008   4.492   3.019  0.2530  0.4075 -0.0084
    1SOL    HW3 7235   1.989   4.388   2.911 -0.1338  0.5833 -0.1111
    1SOL    MW4 7236   2.010   4.409   2.992  0.0312  0.4349 -0.1147
    1SOL     OW 7237   2.463   0.018   3.126 -0.1062  0.1356 -0.1226
    1SOL    HW2 7238   2.464  -0.074   3.101  0.1692 -0.1847  1.0442
    1SOL    HW3 7239   2.380   0.051   3.091 -0.8050 -0.8737  0.5608
    1SOL    MW4 7240   2.452   0.010   3.118 -0.1621 -0.0398  0.1216
    1SOL     OW 7241   2.230   0.105   2.996  0.0671 -0.3670 -0.1207
    1SOL    HW2 7242   2.239   0.195   3.027  0.3908 -0.7763  0.9876
    1SOL    HW3 7243   2.145   0.076   3.027  0.0985 -0.5541 -0.2057
    1SOL    MW4 7244   2.220   0.113   3.004  0.1140 -0.4457  0.0141
    1SOL     OW 7245   2.270   0.345   3.135 -0.2293  0.6278  0.4549
    1SOL    HW2 7246   2.284   0.348   3.230  1.1248  2.4916  0.2171
    1SOL    HW3 7247   2.207   0.415   3.118  0.1079  0.7923 -0.1138
    1SOL    MW4 7248   2.264   0.355   3.145 -0.0064  0.8954  0.3486
    1SOL     OW 7249   2.477   0.466   3.031  0.3776  0.3116 -0.5123
    1SOL    HW2 7250   2.398   0.432   3.072  0.2021  0.0942 -1.0236
    1SOL    HW3 7251   2.456   0.470   2.937  0.9678  0.2488 -0.6511
    1SOL    MW4 7252   2.464   0.462   3.024  0.4323  0.2747 -0.5980
    1SOL     OW 7253   2.433   0.743   3.082 -0.0064  0.3598 -0.0919
    1SOL    HW2 7254   2.517   0.781   3.056  0.5384  0.3745  1.6620
    1SOL    HW3 7255   2.443   0.650   3.065 -0.5032  0.6479 -2.1378
    1SOL    MW4 7256   2.445   0.736   3.076  0.0000  0.3997 -0.1302
    1SOL     OW 7257   2.198   0.884   3.000  0.5845 -0.0161  0.1136
    1SOL    HW2 7258   2.277   0.830   3.007 -0.4561 -1.5945 -0.1537
    1SOL    HW3 7259   2.138   0.847   3.065 -0.5994  0.0194 -0.9519
    1SOL    MW4 7260   2.201   0.872   3.009  0.2911 -0.2196 -0.0622
    1SOL     OW 7261   2.258   1.139   3.093 -0.2302 -0.0404  0.1086
    1SOL    HW2 7262   2.231   1.139   3.184 -1.7071  1.5700 -0.3004
    1SOL    HW3 7263   2.233   1.053   3.060 -0.5123 -0.2869  0.9803
    1SOL    MW4 7264   2.251   1.128   3.100 -0.4621  0.1396  0.1698
    1SOL     OW 7265   2.455   1.313   3.012 -0.0368 -0.4710 -0.3610
    1SOL    HW2 7266   2.384   1.265   3.054 -0.3400  0.2070 -0.0983
    1SOL    HW3 7267   2.447   1.291   2.919  0.0446 -1.2066 -0.1940
    1SOL    MW4 7268   2.445   1.304   3.005 -0.0660 -0.4787 -0.3042
    1SOL     OW 7269   2.491   1.570   3.120  0.3972  0.0657  0.4053
    1SOL    HW2 7270   2.424   1.628   3.085  2.2264  1.5327 -0.7622
    1SOL    HW3 7271   2.475   1.486   3.077 -2.2363 -0.3364  2.0693
    1SOL    MW4 7272   2.480   1.566   3.110  0.2911  0.2062  0.4706
    1SOL     OW 7273   2.274   1.704   3.012  0.0168  0.0730  0.3191
    1SOL    HW2 7274   2.196   1.653   3.035  0.3753 -0.9251 -0.6195
    1SOL    HW3 7275   2.274   1.705   2.917  2.4273 -1.9822  0.2432
    1SOL    MW4 7276   2.263   1.697   3.003  0.3819 -0.3299  0.1853
    1SOL     OW 7277   2.279   1.947   3.115  0.3777  0.1744 -0.5972
    1SOL    HW2 7278   2.341   1.993   3.060 -0.0156 -0.2036 -1.3674
    1SOL    HW3 7279   2.266   1.862   3.072  0.9970 -0.6110  0.7266
    1SOL    MW4 7280   2.285   1.942   3.102  0.4075  0.0210 -0.5240
    1SOL     OW 7281   2.453   2.070   2.927 -0.1413  0.0962  0.1362
    1SOL    HW2 7282   2.510   2.018   2.984 -0.8368 -0.0462  0.7176
    1SOL    HW3 7283   2.446   2.155   2.971 -0.8892 -0.1005  0.3985
    1SOL    MW4 7284   2.460   2.074   2.941 -0.3314  0.0515  0.2477
    1SOL     OW 7285   2.429   2.310   3.059 -0.0179  0.2367  0.1801
    1SOL    HW2 7286   2.422   2.290   3.153 -1.9916 -0.6260 -0.1311
    1SOL    HW3 7287   2.348   2.355   3.038 -0.2295 -0.8644 -1.4244
    1SOL    MW4 7288   2.417   2.313   3.069 -0.3061 -0.0224 -0.0725
    1SOL     OW 7289   2.211   2.454   2.995  0.0367 -0.0312 -0.6312
    1SOL    HW2 7290   2.221   2.532   3.050  2.0350 -0.5846 -0.1660
    1SOL    HW3 7291   2.133   2.411   3.029 -0.1890  0.9585  0.1316
    1SOL    MW4 7292   2.202   2.459   3.007  0.2706  0.0265 -0.4692
    1SOL     OW 7293   2.250   2.721   3.093 -0.1532 -0.5918  0.2118
    1SOL    HW2 7294   2.255   2.720   3.188 -0.9242 -1.6420  0.2511
    1SOL    HW3 7295   2.168   2.767   3.073  1.3604  2.0831 -0.0260
    1SOL    MW4 7296   2.240   2.727   3.103 -0.0551 -0.3777  0.1857
    1SOL     OW 7297   2.468   2.829   2.968 -0.3231  0.3930  0.3425
    1SOL    HW2 7298   2.457   2.922   2.990 -0.2406  0.4973 -0.0465
    1SOL    HW3 7299   2.392   2.786   3.005 -1.1803  0.8563 -0.8620
    1SOL    MW4 7300   2.457   2.836   2.975 -0.4253  0.4675  0.1323
    1SOL     OW 7301   2.493   3.079   3.112 -0.4366  0.1926 -0.4312
    1SOL    HW2 7302   2.556   3.122   3.054 -0.4642 -0.8156 -1.2278
    1SOL    HW3 7303   2.414   3.133   3.105  0.8814  2.5666  2.0670
    1SOL    MW4 7304   2.491   3.092   3.103 -0.2663  0.3726 -0.2067
    1SOL     OW 7305   2.240   3.202   3.047  0.2963  0.1256  0.1476
    1SOL    HW2 7306   2.224   3.294   3.068 -0.5500  0.1557 -0.6086
    1SOL    HW3 7307   2.157   3.159   3.065  0.1781 -0.1998 -1.1214
    1SOL    MW4 7308   2.227   3.209   3.052  0.1693  0.0865 -0.1197
    1SOL     OW 7309   2.240   3.474   3.099 -0.1534  0.0217 -0.0686
    1SOL    HW2 7310   2.317   3.516   3.060 -0.0489  0.7251  0.8581
    1SOL    HW3 7311   2.165   3.524   3.065 -0.1878 -0.5760 -0.8630
    1SOL    MW4 7312   2.240   3.486   3.090 -0.1440  0.0355 -0.0510
    1SOL     OW 7313   2.471   3.612   2.984  0.4583 -0.0277  0.2799
    1SOL    HW2 7314   2.541   3.559   3.022  0.4188 -0.0989  0.2542
    1SOL    HW3 7315   2.486   3.700   3.018  1.8483  0.4340 -1.4378
    1SOL    MW4 7316   2.482   3.616   2.993  0.6363  0.0238  0.0498
    1SOL     OW 7317   2.475   3.886   3.096 -0.1584 -0.1258 -0.1105
    1SOL    HW2 7318   2.496   3.866   3.187  1.0309 -0.2447 -0.4076
    1SOL    HW3 7319   2.553   3.929   3.062 -0.2671 -0.8718 -1.3233
    1SOL    MW4 7320   2.488   3.889   3.103 -0.0160 -0.2398 -0.3097
    1SOL     OW 7321   2.248   4.012   3.015  0.1387 -0.3645  0.0022
    1SOL    HW2 7322   2.320   3.960   3.050 -1.1392 -1.4742  1.0087
    1SOL    HW3 7323   2.169   3.973   3.051 -1.0195  0.5751 -1.4184
    1SOL    MW4 7324   2.248   4.000   3.024 -0.1826 -0.3872 -0.0522
    1SOL     OW 7325   2.253   4.273   3.122 -0.0118  0.4032  0.5575
    1SOL    HW2 7326   2.245   4.187   3.082  0.5436  0.4789  0.2743
    1SOL    HW3 7327   2.173   4.319   3.098 -0.1275  0.1043  0.3734
    1SOL    MW4 7328   2.241   4.268   3.114  0.0463  0.3734  0.4961
    1SOL     OW 7329   2.468   4.407   3.044  0.0268 -0.3224  0.4492
    1SOL    HW2 7330   2.390   4.357   3.068 -1.0702  0.3459 -1.6354
    1SOL    HW3 7331   2.469   4.406   2.948  2.1424  0.3549  0.4438
    1SOL    MW4 7332   2.458   4.401   3.035  0.1614 -0.1450  0.1736
    1SOL     OW 7333   2.920   0.025   3.109 -0.6375  0.5332  0.5528
    1SOL    HW2 7334   2.995   0.069   3.070 -0.9306  1.7426  1.3386
    1SOL    HW3 7335   2.919  -0.061   3.067  1.4114  0.3496  0.7804
    1SOL    MW4 7336   2.930   0.019   3.098 -0.4055  0.6686  0.6862
    1SOL     OW 7337   2.695   0.145   2.998  0.3934 -0.4909  0.5000
    1SOL    HW2 7338   2.772   0.091   3.013 -0.3627 -2.3454 -1.8962
    1SOL    HW3 7339   2.622   0.092   3.030 -0.1877 -0.1154 -0.1794
    1SOL    MW4 7340   2.695   0.131   3.004  0.2170 -0.6860  0.0942
    1SOL     OW 7341   2.733   0.396   3.138 -0.1153 -0.7327  0.0660
    1SOL    HW2 7342   2.744   0.301   3.126 -0.5498 -0.6188 -1.2329
    1SOL    HW3 7343   2.647   0.415   3.099  0.0947  0.2467  0.0831
    1SOL    MW4 7344   2.723   0.386   3.131 -0.1447 -0.5885 -0.1028
    1SOL     OW 7345   2.950   0.505   2.991  0.1915 -0.3972 -0.4260
    1SOL    HW2 7346   2.865   0.468   3.016 -0.2433  0.8091 -0.0751
    1SOL    HW3 7347   2.944   0.515   2.896  0.3385 -1.2697 -0.5338
    1SOL    MW4 7348   2.938   0.501   2.982  0.1535 -0.3531 -0.3941
    1SOL     OW 7349   2.917   0.756   3.102 -0.6063 -0.9617 -0.1466
    1SOL    HW2 7350   2.919   0.747   3.197  1.1633  0.0387 -0.0682
    1SOL    HW3 7351   2.920   0.666   3.069  0.4840 -1.2494  0.7270
    1SOL    MW4 7352   2.918   0.743   3.110 -0.2289 -0.8677 -0.0212
    1SOL     OW 7353   2.672   0.886   3.048  0.2540 -0.5796  0.3145
    1SOL    HW2 7354   2.674   0.977   3.078 -0.9750 -0.9115  1.4355
    1SOL    HW3 7355   2.745   0.844   3.093  0.9867 -0.1070 -0.4042
    1SOL    MW4 7356   2.682   0.892   3.058  0.1886 -0.5610  0.3676
    1SOL     OW 7357   2.665   1.158   3.123  0.5697 -0.0355 -0.1246
    1SOL    HW2 7358   2.744   1.189   3.079 -0.0930 -0.3283 -1.5324
    1SOL    HW3 7359   2.597   1.220   3.096 -0.0890 -0.8929 -0.4559
    1SOL    MW4 7360   2.666   1.171   3.114  0.3953 -0.1874 -0.3538
    1SOL     OW 7361   2.887   1.303   2.973  0.1709 -0.9126  0.2666
    1SOL    HW2 7362   2.965   1.254   3.000  0.3742 -0.9190 -0.3258
    1SOL    HW3 7363   2.902   1.392   3.005  0.6473 -0.7964 -0.2606
    1SOL    MW4 7364   2.899   1.308   2.981  0.2606 -0.8981  0.1187
    1SOL     OW 7365   2.890   1.563   3.049 -0.0161  0.6168 -0.1601
    1SOL    HW2 7366   2.889   1.551   3.144  0.2789 -0.5502 -0.2957
    1SOL    HW3 7367   2.973   1.608   3.032  0.3903 -0.0407  0.0438
    1SOL    MW4 7368   2.901   1.568   3.060  0.0768  0.3760 -0.1512
    1SOL     OW 7369   2.674   1.697   2.957 -0.4342  0.1679  0.1615
    1SOL    HW2 7370   2.761   1.663   2.980 -0.7436  0.5214  1.8708
    1SOL    HW3 7371   2.613   1.641   3.004 -1.2180 -0.7858 -1.9015
    1SOL    MW4 7372   2.677   1.685   2.966 -0.5786  0.0887  0.1147
    1SOL     OW 7373   2.635   1.961   3.087  0.5594 -0.4662 -0.7336
    1SOL    HW2 7374   2.715   2.013   3.076 -0.1483  0.6473 -0.7225
    1SOL    HW3 7375   2.657   1.875   3.050  1.5861 -0.0105 -1.2108
    1SOL    MW4 7376   2.649   1.957   3.081  0.6015 -0.2592 -0.7951
    1SOL     OW 7377   2.899   2.047   2.997  0.0404 -0.1349  0.4158
    1SOL    HW2 7378   2.906   2.142   3.009 -0.6864 -0.1334  0.8898
    1SOL    HW3 7379   2.914   2.033   2.904 -1.0631  0.5706  0.1297
    1SOL    MW4 7380   2.902   2.058   2.986 -0.2012 -0.0415  0.4406
    1SOL     OW 7381   2.896   2.319   3.082  0.1724 -0.2765 -0.3831
    1SOL    HW2 7382   2.958   2.382   3.046 -0.2575  0.0624 -0.5359
    1SOL    HW3 7383   2.815   2.334   3.033  0.2561 -1.3939 -0.8738
    1SOL    MW4 7384   2.893   2.329   3.071  0.1268 -0.3791 -0.4683
    1SOL     OW 7385   2.658   2.411   2.950 -0.0203 -0.3224  0.8609
    1SOL    HW2 7386   2.668   2.502   2.976 -1.8031  0.6507 -1.6034
    1SOL    HW3 7387   2.585   2.379   3.003 -0.5160  0.2021  0.4992
    1SOL    MW4 7388   2.649   2.418   2.960 -0.3207 -0.1245  0.4883
    1SOL     OW 7389   2.698   2.670   3.038 -0.2578  0.3959  0.0748
    1SOL    HW2 7390   2.699   2.668   3.134 -1.0615 -0.7390  0.0698
    1SOL    HW3 7391   2.639   2.742   3.016  0.2165  0.8992  0.4201
    1SOL    MW4 7392   2.690   2.679   3.048 -0.3009  0.3126  0.1197
    1SOL     OW 7393   2.940   2.789   2.958 -0.2227  0.2989  0.0076
    1SOL    HW2 7394   3.006   2.759   3.021 -0.2574 -0.2509 -0.2125
    1SOL    HW3 7395   2.859   2.744   2.985 -0.4671  0.8333  0.1694
    1SOL    MW4 7396   2.938   2.779   2.970 -0.2596  0.2971  0.0002
    1SOL     OW 7397   2.925   3.059   3.058 -0.2955  0.1822 -0.5930
    1SOL    HW2 7398   2.844   3.096   3.021 -0.0206 -0.3159 -1.7367
    1SOL    HW3 7399   2.923   2.967   3.030  0.7027  0.1874 -0.6800
    1SOL    MW4 7400   2.914   3.052   3.049 -0.1276  0.1173 -0.7555
    1SOL     OW 7401   2.684   3.212   2.965 -0.6797 -0.1909  0.1099
    1SOL    HW2 7402   2.670   3.292   3.015 -0.3063 -0.4467  0.6163
    1SOL    HW3 7403   2.665   3.237   2.874 -0.1193  0.5779  0.2087
    1SOL    MW4 7404   2.679   3.226   2.960 -0.5567 -0.1233  0.1898
    1SOL     OW 7405   2.672   3.453   3.110 -0.4097  0.2908  0.4100
    1SOL    HW2 7406   2.658   3.487   3.198  1.4035  0.4242  0.6684
    1SOL    HW3 7407   2.749   3.500   3.078 -0.5426 -0.3672 -0.9188
    1SOL    MW4 7408   2.680   3.463   3.117 -0.1881  0.2217  0.2689
    1SOL     OW 7409   2.885   3.611   2.995 -0.3727  0.2614 -0.0137
    1SOL    HW2 7410   2.963   3.572   3.033 -0.6180 -0.3004 -0.0789
    1SOL    HW3 7411   2.879   3.697   3.035  1.1468  0.9201 -1.1712
    1SOL    MW4 7412   2.894   3.617   3.005 -0.2046  0.2742 -0.1750
    1SOL     OW 7413   2.888   3.872   3.096  0.0384  0.4090  0.4317
    1SOL    HW2 7414   2.892   3.890   3.190 -0.3531 -1.7840  0.9002
    1SOL    HW3 7415   2.823   3.934   3.063 -1.7267 -0.5150  2.0732
    1SOL    MW4 7416   2.880   3.882   3.104 -0.2463 -0.0021  0.7100
    1SOL     OW 7417   2.682   4.024   2.990 -0.0080 -0.2737 -0.1404
    1SOL    HW2 7418   2.672   4.111   3.029  0.4458 -0.3586  0.1674
    1SOL    HW3 7419   2.677   4.039   2.895  2.3222  0.3955 -0.1865
    1SOL    MW4 7420   2.680   4.038   2.982  0.3593 -0.1965 -0.1061
    1SOL     OW 7421   2.705   4.283   3.088 -0.0135  0.1922 -0.2247
    1SOL    HW2 7422   2.714   4.275   3.183  1.4980  0.9136 -0.2955
    1SOL    HW3 7423   2.624   4.333   3.076 -1.7044 -2.2428  0.5753
    1SOL    MW4 7424   2.695   4.288   3.099 -0.0374 -0.0343 -0.1283
    1SOL     OW 7425   2.930   4.425   3.005  0.1027  0.1175  0.2804
    1SOL    HW2 7426   3.007   4.370   3.023 -0.3381 -0.8583 -0.7176
    1SOL    HW3 7427   2.856   4.373   3.036 -0.1122  1.3738  1.9136
    1SOL    MW4 7428   2.930   4.411   3.011  0.0160  0.1545  0.3643
    1SOL     OW 7429   3.384   4.659   3.080  0.0644 -0.0280  0.1535
    1SOL    HW2 7430   3.472   4.692   3.064  0.3768  0.2166  2.2647
    1SOL    HW3 7431   3.389   4.566   3.059  0.4032  0.2914 -1.2442
    1SOL    MW4 7432   3.396   4.651   3.075  0.1504  0.0463  0.2475
    1SOL     OW 7433   3.172   0.163   3.018 -0.2399 -0.0974  0.1700
    1SOL    HW2 7434   3.178   0.240   3.075 -1.1443 -0.0061  0.1556
    1SOL    HW3 7435   3.239   0.103   3.051 -0.1488  0.3241  0.7563
    1SOL    MW4 7436   3.181   0.165   3.030 -0.3471 -0.0297  0.2453
    1SOL     OW 7437   3.157   0.388   3.154 -0.4300  0.4655 -0.0116
    1SOL    HW2 7438   3.229   0.436   3.114 -0.8398  1.4726  0.4499
    1SOL    HW3 7439   3.079   0.420   3.108 -0.5677 -0.7741 -0.6627
    1SOL    MW4 7440   3.156   0.399   3.142 -0.5026  0.4349 -0.0365
    1SOL     OW 7441   3.377   0.505   3.035  0.2520  0.1546 -0.1304
    1SOL    HW2 7442   3.460   0.463   3.058  0.8826  1.3489 -0.2056
    1SOL    HW3 7443   3.356   0.470   2.948  0.6918 -0.1366 -0.1216
    1SOL    MW4 7444   3.385   0.495   3.026  0.3934  0.2737 -0.1392
    1SOL     OW 7445   3.369   0.784   3.111  0.2909 -0.1857  0.4086
    1SOL    HW2 7446   3.354   0.776   3.205  2.7657 -0.9679  0.7913
    1SOL    HW3 7447   3.366   0.694   3.079 -2.4506  0.2403 -0.6158
    1SOL    MW4 7448   3.367   0.771   3.119  0.2558 -0.2327  0.3240
    1SOL     OW 7449   3.145   0.895   3.009 -0.1318 -0.6579  0.5705
    1SOL    HW2 7450   3.218   0.853   3.055 -0.9099 -0.9729  1.5492
    1SOL    HW3 7451   3.067   0.850   3.043 -0.6900 -1.3273 -1.5394
    1SOL    MW4 7452   3.144   0.883   3.020 -0.3078 -0.7878  0.4213
    1SOL     OW 7453   3.082   1.141   3.092 -0.1088  0.0734  0.6832
    1SOL    HW2 7454   3.151   1.198   3.058 -0.8250  0.7370  0.3238
    1SOL    HW3 7455   3.103   1.054   3.058 -1.3154  0.8830 -2.2350
    1SOL    MW4 7456   3.094   1.137   3.083 -0.3622  0.2677  0.2506
    1SOL     OW 7457   3.330   1.293   3.031  0.3480 -0.0595  0.0711
    1SOL    HW2 7458   3.420   1.263   3.042  0.8283  1.4560  0.2554
    1SOL    HW3 7459   3.326   1.377   3.076 -0.7384  0.6545 -1.3004
    1SOL    MW4 7460   3.341   1.300   3.038  0.2680  0.2346 -0.0856
    1SOL     OW 7461   3.337   1.548   3.105 -0.4742  0.0921  0.0762
    1SOL    HW2 7462   3.351   1.539   3.199  0.1587  0.3998  0.0161
    1SOL    HW3 7463   3.419   1.585   3.072 -0.7083  0.0316 -0.5887
    1SOL    MW4 7464   3.350   1.552   3.113 -0.4215  0.1247 -0.0196
    1SOL     OW 7465   3.123   1.677   2.998  0.4070 -0.1200 -0.5875
    1SOL    HW2 7466   3.198   1.625   3.026  0.4562 -0.3661 -1.1724
    1SOL    HW3 7467   3.110   1.653   2.907 -0.5038 -0.2209 -0.4405
    1SOL    MW4 7468   3.131   1.667   2.990  0.2935 -0.1656 -0.6454
    1SOL     OW 7469   3.149   1.953   3.110  0.3212 -0.4803  0.2031
    1SOL    HW2 7470   3.124   1.864   3.083 -0.3916 -0.5824  1.1749
    1SOL    HW3 7471   3.075   2.007   3.084 -0.5339 -0.6372  2.2669
    1SOL    MW4 7472   3.136   1.948   3.103  0.1144 -0.5145  0.6039
    1SOL     OW 7473   3.366   2.066   2.961  0.0729 -0.2914  0.6036
    1SOL    HW2 7474   3.443   2.021   2.994  0.4388 -0.0967  0.0163
    1SOL    HW3 7475   3.292   2.024   3.006  0.4071 -1.4869  0.0498
    1SOL    MW4 7476   3.366   2.054   2.971  0.1655 -0.4234  0.4532
    1SOL     OW 7477   3.361   2.333   3.072  0.6050  0.0637  0.6057
    1SOL    HW2 7478   3.339   2.320   3.165 -2.0019 -0.5927 -0.0607
    1SOL    HW3 7479   3.371   2.244   3.038  1.6321  0.3073  0.2579
    1SOL    MW4 7480   3.359   2.319   3.080  0.3965  0.0093  0.4723
    1SOL     OW 7481   3.119   2.469   2.994 -0.1121 -0.3008  0.1459
    1SOL    HW2 7482   3.190   2.410   3.017  0.7827  0.4598 -0.5966
    1SOL    HW3 7483   3.127   2.480   2.899 -0.2655  0.9956  0.2729
    1SOL    MW4 7484   3.129   2.463   2.985 -0.0143 -0.0293  0.0646
    1SOL     OW 7485   3.178   2.710   3.097  0.5589 -0.2486 -0.0041
    1SOL    HW2 7486   3.167   2.701   3.191 -1.3225  1.0851 -0.0746
    1SOL    HW3 7487   3.156   2.624   3.061 -0.0796 -0.3656  0.6631
    1SOL    MW4 7488   3.174   2.698   3.105  0.2263 -0.0882  0.0746
    1SOL     OW 7489   3.341   2.861   2.953 -0.1438 -0.5852 -0.4909
    1SOL    HW2 7490   3.345   2.945   2.999 -0.0780 -0.6361 -0.4033
    1SOL    HW3 7491   3.278   2.810   3.002 -0.7801 -0.3077 -1.0136
    1SOL    MW4 7492   3.333   2.866   2.965 -0.2193 -0.5550 -0.5486
    1SOL     OW 7493   3.380   3.123   3.069 -0.0828  0.1573  0.0061
    1SOL    HW2 7494   3.368   3.106   3.162 -0.7089 -0.6301 -0.2060
    1SOL    HW3 7495   3.296   3.160   3.040 -0.0642 -0.0671 -0.3458
    1SOL    MW4 7496   3.367   3.126   3.077 -0.1631  0.0238 -0.0684
    1SOL     OW 7497   3.131   3.230   3.005 -0.3227 -0.1278  0.1168
    1SOL    HW2 7498   3.060   3.173   3.034 -0.9808  0.5791 -0.0883
    1SOL    HW3 7499   3.112   3.246   2.912  0.4128 -0.3859 -0.0829
    1SOL    MW4 7500   3.119   3.224   2.996 -0.3128 -0.0687  0.0634
    1SOL     OW 7501   3.132   3.495   3.095  0.1844  0.4322 -0.2519
    1SOL    HW2 7502   3.222   3.529   3.093 -0.1029  1.1662 -1.2824
    1SOL    HW3 7503   3.139   3.406   3.059  0.4743  0.5384 -0.4553
    1SOL    MW4 7504   3.145   3.488   3.090  0.1848  0.5431 -0.4148
    1SOL     OW 7505   3.379   3.621   3.016  0.1218  0.2972 -0.1470
    1SOL    HW2 7506   3.465   3.587   3.041  0.5985  1.0677 -0.7301
    1SOL    HW3 7507   3.380   3.712   3.043 -1.1406 -0.1074  1.3430
    1SOL    MW4 7508   3.391   3.628   3.023  0.0184  0.3457 -0.0274
    1SOL     OW 7509   3.360   3.896   3.107  0.2772 -0.2826  0.2338
    1SOL    HW2 7510   3.360   3.901   3.202 -0.1761  0.5086  0.1925
    1SOL    HW3 7511   3.274   3.929   3.081 -0.2344 -2.0034 -0.3764
    1SOL    MW4 7512   3.348   3.901   3.116  0.1500 -0.4053  0.1481
    1SOL     OW 7513   3.122   4.011   3.011 -0.1171  0.0794  0.1184
    1SOL    HW2 7514   3.037   3.976   3.038  0.1488  0.7782  1.9769
    1SOL    HW3 7515   3.118   4.012   2.916 -0.9084 -3.0431  0.0530
    1SOL    MW4 7516   3.110   4.006   3.002 -0.1862 -0.2398  0.3550
    1SOL     OW 7517   3.128   4.268   3.103 -0.5080 -0.2075  0.1266
    1SOL    HW2 7518   3.137   4.265   3.198  0.1547 -0.2979  0.0620
    1SOL    HW3 7519   3.116   4.177   3.077 -0.9754 -0.1531  0.1501
    1SOL    MW4 7520   3.128   4.256   3.112 -0.4821 -0.2122  0.1214
    1SOL     OW 7521   3.375   4.376   3.016  0.3788  0.5561 -0.0530
    1SOL    HW2 7522   3.457   4.340   3.051  0.8980  0.7830 -1.0164
    1SOL    HW3 7523   3.306   4.336   3.069  1.0747 -0.2177  0.2689
    1SOL    MW4 7524   3.377   4.366   3.028  0.5391  0.4840 -0.1378
    1SOL     OW 7525   3.824   4.633   3.153 -0.0888  0.1820 -0.0941
    1SOL    HW2 7526   3.840   4.540   3.139  2.5163  0.8940 -2.1899
    1SOL    HW3 7527   3.754   4.654   3.092 -1.4435 -0.5768  1.1452
    1SOL    MW4 7528   3.817   4.623   3.143  0.0763  0.1758 -0.2072
    1SOL     OW 7529   3.624   0.117   3.016 -0.4067 -0.6174  0.1296
    1SOL    HW2 7530   3.614   0.208   3.045  0.4210 -0.2579 -0.6650
    1SOL    HW3 7531   3.604   0.119   2.922 -0.0224 -1.1755  0.0299
    1SOL    MW4 7532   3.620   0.129   3.007 -0.2468 -0.6436  0.0117
    1SOL     OW 7533   3.608   0.385   3.117 -0.1336 -0.3952  0.3503
    1SOL    HW2 7534   3.600   0.385   3.212 -0.8593  1.9958  0.3116
    1SOL    HW3 7535   3.674   0.452   3.098 -0.4806 -0.3671 -0.8534
    1SOL    MW4 7536   3.616   0.394   3.127 -0.2751 -0.0760  0.1864
    1SOL     OW 7537   3.818   0.554   3.036  0.3571 -0.2407  0.3910
    1SOL    HW2 7538   3.902   0.516   3.064  0.5178  0.6549  1.1504
    1SOL    HW3 7539   3.822   0.645   3.065 -0.2433  0.2302 -0.9327
    1SOL    MW4 7540   3.830   0.561   3.043  0.2987 -0.0604  0.3164
    1SOL     OW 7541   3.816   0.809   3.127 -0.0932 -0.5905 -0.8937
    1SOL    HW2 7542   3.820   0.802   3.223 -0.2908  0.7157 -0.7823
    1SOL    HW3 7543   3.905   0.834   3.101 -0.0628 -0.8561 -1.0520
    1SOL    MW4 7544   3.828   0.812   3.137 -0.1149 -0.4532 -0.9000
    1SOL     OW 7545   3.599   0.903   3.004  0.5095 -0.0870 -0.3132
    1SOL    HW2 7546   3.681   0.872   3.041  0.5023  0.8709  0.5010
    1SOL    HW3 7547   3.531   0.857   3.054  0.5101  0.7000  0.4010
    1SOL    MW4 7548   3.601   0.893   3.015  0.5088  0.1432 -0.1116
    1SOL     OW 7549   3.590   1.170   3.058  0.1536 -0.0177 -0.4331
    1SOL    HW2 7550   3.675   1.211   3.040 -0.7581  0.8189 -3.0187
    1SOL    HW3 7551   3.600   1.080   3.026  0.6647 -0.5038  1.0431
    1SOL    MW4 7552   3.603   1.163   3.052  0.1009  0.0285 -0.5796
    1SOL     OW 7553   3.831   1.298   3.019  0.3145 -0.2552  0.1517
    1SOL    HW2 7554   3.846   1.385   3.056 -0.7280 -0.4096  0.9590
    1SOL    HW3 7555   3.831   1.313   2.925  1.5374  0.3815  0.2268
    1SOL    MW4 7556   3.833   1.312   3.012  0.3381 -0.1916  0.2680
    1SOL     OW 7557   3.832   1.568   3.077  0.1932  0.1313 -0.4118
    1SOL    HW2 7558   3.836   1.578   3.172  1.3265 -0.8590 -0.3427
    1SOL    HW3 7559   3.740   1.585   3.055 -0.8491 -2.9226  1.2652
    1SOL    MW4 7560   3.820   1.572   3.087  0.2053 -0.4023 -0.1814
    1SOL     OW 7561   3.584   1.651   2.991  0.3628 -0.0803 -0.4913
    1SOL    HW2 7562   3.582   1.743   3.015  0.6939  0.1472 -1.3208
    1SOL    HW3 7563   3.574   1.650   2.896 -0.9598 -0.9746 -0.3574
    1SOL    MW4 7564   3.583   1.663   2.982  0.2317 -0.1683 -0.5832
    1SOL     OW 7565   3.589   1.945   3.073  0.5298  0.1327 -0.0800
    1SOL    HW2 7566   3.594   1.967   3.166 -1.3505  1.3128 -0.2271
    1SOL    HW3 7567   3.671   1.978   3.036  0.9858  0.2638  1.0351
    1SOL    MW4 7568   3.600   1.952   3.080  0.3421  0.3057  0.0474
    1SOL     OW 7569   3.829   2.048   2.999  0.4136  0.3827  0.1401
    1SOL    HW2 7570   3.813   2.140   3.020  0.4707  0.4869 -0.2679
    1SOL    HW3 7571   3.837   2.047   2.904 -0.0515 -0.1193  0.1073
    1SOL    MW4 7572   3.828   2.060   2.990  0.3600  0.3300  0.0820
    1SOL     OW 7573   3.780   2.327   3.067 -0.4529  0.2248 -0.4716
    1SOL    HW2 7574   3.792   2.319   3.162  0.5806 -0.8755 -0.6823
    1SOL    HW3 7575   3.699   2.377   3.058 -0.2938  0.7878  0.9883
    1SOL    MW4 7576   3.771   2.332   3.078 -0.2956  0.1538 -0.3068
    1SOL     OW 7577   3.560   2.477   2.972  0.3424  0.2916 -0.1865
    1SOL    HW2 7578   3.541   2.560   3.016 -0.3357  0.5863 -1.0142
    1SOL    HW3 7579   3.494   2.417   3.005  0.8264  0.0771  0.4047
    1SOL    MW4 7580   3.549   2.480   2.982  0.3166  0.3021 -0.2177
    1SOL     OW 7581   3.527   2.712   3.120 -0.8780 -0.0846  0.2568
    1SOL    HW2 7582   3.599   2.767   3.089 -1.1867  1.5161  2.2578
    1SOL    HW3 7583   3.448   2.753   3.083 -0.9095 -0.6471 -0.2931
    1SOL    MW4 7584   3.526   2.725   3.111 -0.9227  0.0525  0.4485
    1SOL     OW 7585   3.770   2.839   3.028  0.1369 -0.0868 -0.1403
    1SOL    HW2 7586   3.785   2.932   3.044 -1.0122  0.2168 -0.7934
    1SOL    HW3 7587   3.776   2.830   2.933  0.6477 -0.7574 -0.0498
    1SOL    MW4 7588   3.773   2.850   3.018  0.0529 -0.1352 -0.2146
    1SOL     OW 7589   3.810   3.117   3.065  0.3939 -0.3978 -0.1475
    1SOL    HW2 7590   3.884   3.175   3.047  0.8619 -1.0350 -0.2510
    1SOL    HW3 7591   3.733   3.167   3.036  0.9769 -0.6827 -2.2042
    1SOL    MW4 7592   3.810   3.131   3.059  0.5326 -0.5195 -0.4327
    1SOL     OW 7593   3.596   3.280   2.984  0.2695  0.1261  0.2088
    1SOL    HW2 7594   3.541   3.210   3.020  1.0281 -0.7137 -0.2389
    1SOL    HW3 7595   3.595   3.265   2.890 -0.7430  1.6078 -0.0294
    1SOL    MW4 7596   3.588   3.269   2.976  0.2360  0.2108  0.1183
    1SOL     OW 7597   3.643   3.514   3.117  0.2191 -0.0125  0.3422
    1SOL    HW2 7598   3.718   3.552   3.073  0.8808 -0.4265  1.1080
    1SOL    HW3 7599   3.619   3.439   3.062  1.2795 -0.7549  0.8784
    1SOL    MW4 7600   3.649   3.509   3.104  0.4463 -0.1652  0.5138
    1SOL     OW 7601   3.798   3.607   2.699  0.2685  0.3923  0.1348
    1SOL    HW2 7602   3.813   3.695   2.665 -0.3841 -0.0789 -1.3777
    1SOL    HW3 7603   3.826   3.613   2.791  1.3443  1.8532 -0.2597
    1SOL    MW4 7604   3.804   3.620   2.707  0.3240  0.5231 -0.1168
    1SOL     OW 7605   3.783   3.862   3.085 -0.0186 -0.4797 -0.2478
    1SOL    HW2 7606   3.787   3.857   3.181 -0.0702  0.5067 -0.1867
    1SOL    HW3 7607   3.703   3.910   3.067  1.7120  2.3884 -0.6658
    1SOL    MW4 7608   3.773   3.868   3.095  0.2031  0.0286 -0.2947
    1SOL     OW 7609   3.586   4.029   2.997  0.3395 -0.0646 -0.3821
    1SOL    HW2 7610   3.507   3.986   3.029  0.1337  0.2612 -0.4608
    1SOL    HW3 7611   3.578   4.026   2.902  0.3333  0.1426 -0.3869
    1SOL    MW4 7612   3.575   4.023   2.989  0.3119  0.0062 -0.3929
    1SOL     OW 7613   3.599   4.271   3.116 -0.4519  0.4243 -0.2135
    1SOL    HW2 7614   3.674   4.316   3.078 -0.3185 -0.0487 -0.5206
    1SOL    HW3 7615   3.592   4.190   3.065  0.9020 -1.1368  2.0062
    1SOL    MW4 7616   3.608   4.266   3.104 -0.2553  0.1559  0.0389
    1SOL     OW 7617   3.830   4.392   3.024  0.2165 -0.2128 -0.1826
    1SOL    HW2 7618   3.919   4.364   3.045 -0.0163 -0.0851  1.0349
    1SOL    HW3 7619   3.830   4.404   2.929  1.5050 -0.1580 -0.1839
    1SOL    MW4 7620   3.842   4.390   3.015  0.3557 -0.1888 -0.0222
    1SOL     OW 7621   4.245   4.657   3.158 -0.2789  0.0733 -0.0054
    1SOL    HW2 7622   4.239   4.647   3.253  0.4836 -0.1134  0.0314
    1SOL    HW3 7623   4.258   4.568   3.125  1.7021  0.3517 -0.0827
    1SOL    MW4 7624   4.246   4.644   3.166  0.0834  0.0854 -0.0110
    1SOL     OW 7625   4.024   0.149   3.051  0.1147 -0.0694  0.3648
    1SOL    HW2 7626   4.103   0.103   3.078 -0.7572 -2.2974 -0.7204
    1SOL    HW3 7627   3.952   0.092   3.080 -0.9626  0.1910 -1.7148
    1SOL    MW4 7628   4.025   0.135   3.058 -0.1426 -0.3290 -0.0529
    1SOL     OW 7629   4.044   0.413   3.128  0.5507 -0.5339  0.1165
    1SOL    HW2 7630   4.138   0.421   3.114  0.4653  0.4860  0.1010
    1SOL    HW3 7631   4.023   0.325   3.097  1.4103 -0.5846 -0.3456
    1SOL    MW4 7632   4.054   0.402   3.122  0.6523 -0.4060  0.0536
    1SOL     OW 7633   4.306   0.459   3.059  0.7163  0.0344 -0.5007
    1SOL    HW2 7634   4.317   0.548   3.093 -1.4522  0.2846 -0.4010
    1SOL    HW3 7635   4.298   0.470   2.965  0.0345 -0.0172 -0.4484
    1SOL    MW4 7636   4.306   0.472   3.051  0.3400  0.0606 -0.4804
    1SOL     OW 7637   4.309   0.738   3.125 -0.1183  0.4110 -0.4026
    1SOL    HW2 7638   4.231   0.777   3.085 -0.5539 -0.3536 -0.3140
    1SOL    HW3 7639   4.382   0.792   3.093 -0.5392  0.2948 -1.6044
    1SOL    MW4 7640   4.309   0.750   3.115 -0.2308  0.2948 -0.5496
    1SOL     OW 7641   4.073   0.890   3.045 -0.4649 -0.1615 -0.1911
    1SOL    HW2 7642   4.049   0.974   3.082  0.3770 -0.0273  0.0746
    1SOL    HW3 7643   4.070   0.903   2.951  0.8655  0.5314 -0.1538
    1SOL    MW4 7644   4.070   0.902   3.038 -0.1783 -0.0524 -0.1514
    1SOL     OW 7645   4.037   1.145   3.119 -0.2941  0.0395  0.2282
    1SOL    HW2 7646   4.043   1.155   3.214 -2.0543 -1.1473  0.4830
    1SOL    HW3 7647   3.969   1.207   3.093 -0.0329  0.1386 -0.2174
    1SOL    MW4 7648   4.029   1.154   3.128 -0.4921 -0.1041  0.2029
    1SOL     OW 7649   4.256   1.297   3.031  0.1363  0.5244  0.1739
    1SOL    HW2 7650   4.183   1.240   3.055 -0.2377  0.5839 -0.8123
    1SOL    HW3 7651   4.253   1.301   2.935  0.7759  1.3917  0.1867
    1SOL    MW4 7652   4.246   1.290   3.022  0.1712  0.6467  0.0453
    1SOL     OW 7653   4.291   1.547   3.147 -0.0597  0.3675  0.0195
    1SOL    HW2 7654   4.218   1.594   3.107  0.5505  0.1936 -1.3263
    1SOL    HW3 7655   4.286   1.459   3.108  0.5874  0.2102  0.2919
    1SOL    MW4 7656   4.280   1.541   3.137  0.1059  0.3238 -0.1221
    1SOL     OW 7657   4.087   1.688   3.021  0.2822 -0.1925  0.2446
    1SOL    HW2 7658   4.077   1.774   3.063  0.5431  0.5830 -1.2424
    1SOL    HW3 7659   4.006   1.642   3.042  0.4509  0.1250  1.6874
    1SOL    MW4 7660   4.075   1.693   3.030  0.3390 -0.0482  0.2387
    1SOL     OW 7661   4.067   1.933   3.125  0.1413  0.0319  0.0626
    1SOL    HW2 7662   4.145   1.987   3.110  0.0191  0.6019  1.3978
    1SOL    HW3 7663   3.997   1.980   3.079  0.2445  0.4493  0.3257
    1SOL    MW4 7664   4.068   1.947   3.117  0.1388  0.1622  0.2735
    1SOL     OW 7665   4.261   2.091   3.026  0.0264  0.1023  0.1359
    1SOL    HW2 7666   4.256   2.179   3.063 -0.5941 -0.3625  1.1723
    1SOL    HW3 7667   4.269   2.105   2.931 -1.1915  1.2572  0.1933
    1SOL    MW4 7668   4.262   2.104   3.018 -0.2155  0.1934  0.2799
    1SOL     OW 7669   4.263   2.353   3.130 -0.0874  0.0070  0.1509
    1SOL    HW2 7670   4.179   2.385   3.098  0.8874  0.3443 -2.1932
    1SOL    HW3 7671   4.328   2.407   3.085  1.4064 -0.5598  1.5760
    1SOL    MW4 7672   4.260   2.364   3.120  0.2384 -0.0234  0.0296
    1SOL     OW 7673   4.019   2.448   2.991  0.4037 -0.2034  0.0970
    1SOL    HW2 7674   3.990   2.535   3.017  1.8639  0.2226  0.3011
    1SOL    HW3 7675   3.940   2.394   2.999 -0.0902  0.7072  1.7423
    1SOL    MW4 7676   4.004   2.452   2.996  0.5312 -0.0269  0.3409
    1SOL     OW 7677   3.993   2.700   3.078 -0.0891 -0.1420  0.4272
    1SOL    HW2 7678   3.979   2.703   3.172  0.4734 -0.0724  0.5099
    1SOL    HW3 7679   3.921   2.751   3.041 -0.1882  0.0112  0.8327
    1SOL    MW4 7680   3.982   2.707   3.085 -0.0281 -0.1125  0.4914
    1SOL     OW 7681   4.208   2.843   3.013 -0.1845  0.0691  0.0695
    1SOL    HW2 7682   4.141   2.778   3.035  0.5264 -0.3656  0.9982
    1SOL    HW3 7683   4.288   2.811   3.055  0.1068  1.7116  0.8270
    1SOL    MW4 7684   4.210   2.830   3.022 -0.0520  0.2284  0.2921
    1SOL     OW 7685   4.195   3.099   3.135  0.1468 -0.0124  0.3321
    1SOL    HW2 7686   4.142   3.142   3.069 -0.1596 -1.1828 -0.2095
    1SOL    HW3 7687   4.210   3.011   3.099  1.0077 -0.2549  1.2591
    1SOL    MW4 7688   4.190   3.093   3.121  0.2208 -0.1988  0.3829
    1SOL     OW 7689   4.049   3.249   2.945 -0.1318  0.0659 -0.0274
    1SOL    HW2 7690   4.072   3.342   2.947 -1.2290  0.3469 -0.1122
    1SOL    HW3 7691   4.034   3.230   2.852 -0.3124 -0.0904  0.0319
    1SOL    MW4 7692   4.050   3.259   2.933 -0.2999  0.0823 -0.0310
    1SOL     OW 7693   3.884   3.623   2.965 -0.4302 -0.1617 -0.5482
    1SOL    HW2 7694   3.960   3.595   3.015 -1.2883 -1.4977  0.0241
    1SOL    HW3 7695   3.864   3.710   2.999  0.1604 -0.2672  0.0770
    1SOL    MW4 7696   3.891   3.631   2.976 -0.4654 -0.3517 -0.3903
    1SOL     OW 7697   4.138   3.566   3.140  0.4900  0.0771  0.2952
    1SOL    HW2 7698   4.182   3.646   3.170  0.2664 -0.0423  0.9293
    1SOL    HW3 7699   4.100   3.528   3.218 -0.5043  0.0199 -0.2126
    1SOL    MW4 7700   4.139   3.571   3.154  0.3295  0.0541  0.3119
    1SOL     OW 7701   4.209   3.836   3.140 -0.2602 -0.8100 -0.3762
    1SOL    HW2 7702   4.137   3.867   3.086 -0.7538 -0.3695  0.5042
    1SOL    HW3 7703   4.285   3.886   3.109 -1.0333  1.2809  0.9644
    1SOL    MW4 7704   4.210   3.847   3.129 -0.4277 -0.4759 -0.0832
    1SOL     OW 7705   4.020   4.001   3.021  0.0638  0.2560  0.3492
    1SOL    HW2 7706   4.022   4.085   3.066 -2.0021  0.1074  0.7702
    1SOL    HW3 7707   3.937   3.961   3.049  1.1465 -2.0321  0.3779
    1SOL    MW4 7708   4.009   4.007   3.031 -0.0663 -0.0653  0.4086
    1SOL     OW 7709   4.043   4.252   3.131  0.2307 -0.3961  0.0709
    1SOL    HW2 7710   4.039   4.250   3.226  0.5378 -2.8857  0.0611
    1SOL    HW3 7711   4.131   4.282   3.111  0.4817 -0.7857  0.5920
    1SOL    MW4 7712   4.054   4.256   3.141  0.3047 -0.7758  0.1385
    1SOL     OW 7713   4.271   4.387   3.048  0.0347  0.1174  0.1356
    1SOL    HW2 7714   4.351   4.339   3.071  2.5586  3.0867 -1.8922
    1SOL    HW3 7715   4.256   4.365   2.956 -2.3783 -1.5580  0.9075
    1SOL    MW4 7716   4.280   4.378   3.039  0.0491  0.2875 -0.0300
    1SOL     OW 7717   0.240   4.639   3.415  0.4616 -0.3107 -0.0230
    1SOL    HW2 7718   0.322   4.677   3.446 -0.3958  0.0007  1.9627
    1SOL    HW3 7719   0.236   4.554   3.459  0.9148 -1.4556 -2.1015
    1SOL    MW4 7720   0.250   4.633   3.425  0.4083 -0.4206 -0.0355
    1SOL     OW 7721   0.023   0.090   3.530 -0.3072  0.1192 -0.3818
    1SOL    HW2 7722   0.003   0.176   3.493  0.7232  0.3887 -0.3495
    1SOL    HW3 7723   0.099   0.060   3.480 -1.8339 -1.6312 -1.6817
    1SOL    MW4 7724   0.031   0.098   3.519 -0.3727 -0.0762 -0.5493
    1SOL     OW 7725   0.012   0.362   3.435 -0.5105 -0.1123 -0.2271
    1SOL    HW2 7726  -0.065   0.411   3.463  0.4427  0.7359  0.9801
    1SOL    HW3 7727   0.086   0.409   3.475  0.5437 -1.5266 -0.4791
    1SOL    MW4 7728   0.012   0.375   3.444 -0.2457 -0.1870 -0.1009
    1SOL     OW 7729   0.244   0.493   3.491  0.0082 -0.2113  0.1290
    1SOL    HW2 7730   0.301   0.434   3.440 -0.4599 -1.6428  1.2175
    1SOL    HW3 7731   0.254   0.578   3.449  1.0868 -0.9637 -1.1910
    1SOL    MW4 7732   0.253   0.496   3.479  0.0888 -0.4994  0.0987
    1SOL     OW 7733   0.273   0.764   3.367  0.0674  0.8181 -0.0938
    1SOL    HW2 7734   0.346   0.792   3.423  0.6166 -2.4850  0.9499
    1SOL    HW3 7735   0.197   0.809   3.403  0.9357  1.2002  1.3244
    1SOL    MW4 7736   0.273   0.774   3.379  0.2544  0.4327  0.2310
    1SOL     OW 7737   0.040   0.904   3.474 -0.1648 -0.1737 -0.0313
    1SOL    HW2 7738   0.017   0.893   3.566 -0.4356 -0.8376 -0.1765
    1SOL    HW3 7739   0.027   0.998   3.457 -1.0555 -0.2212  0.3504
    1SOL    MW4 7740   0.035   0.915   3.484 -0.3181 -0.2676  0.0000
    1SOL     OW 7741   4.477   1.187   3.397  0.3340  0.3880  0.5861
    1SOL    HW2 7742   4.567   1.209   3.422  1.1692 -0.1077 -1.8940
    1SOL    HW3 7743   4.473   1.202   3.303 -1.8167 -0.8534  0.4389
    1SOL    MW4 7744   4.488   1.192   3.388  0.1602  0.1588  0.2394
    1SOL     OW 7745   0.221   1.279   3.468 -0.5653  0.2331 -0.0278
    1SOL    HW2 7746   0.300   1.232   3.442 -0.9738 -0.5575  0.1563
    1SOL    HW3 7747   0.225   1.362   3.420  0.3324  0.1631 -0.0793
    1SOL    MW4 7748   0.232   1.284   3.458 -0.5007  0.1196 -0.0103
    1SOL     OW 7749   0.224   1.530   3.362 -0.1152 -0.2819  0.1502
    1SOL    HW2 7750   0.302   1.575   3.394 -0.0459  1.0914 -1.8222
    1SOL    HW3 7751   0.231   1.534   3.266 -2.5026 -0.2810 -0.0681
    1SOL    MW4 7752   0.235   1.537   3.353 -0.4211 -0.1006 -0.1392
    1SOL     OW 7753   0.027   1.684   3.498  0.0420 -0.5406 -0.4092
    1SOL    HW2 7754  -0.056   1.641   3.474 -0.0246 -0.6032 -0.0574
    1SOL    HW3 7755   0.093   1.635   3.449 -0.2317  0.1349 -1.4765
    1SOL    MW4 7756   0.025   1.672   3.488 -0.0029 -0.4598 -0.5033
    1SOL     OW 7757   0.014   1.929   3.362  0.2597 -0.1611 -0.4703
    1SOL    HW2 7758   0.027   1.842   3.399 -1.1868  0.0241  0.4967
    1SOL    HW3 7759   0.013   1.915   3.267 -0.7709 -1.3239 -0.2956
    1SOL    MW4 7760   0.015   1.916   3.354 -0.0668 -0.2900 -0.3197
    1SOL     OW 7761   0.253   2.067   3.467  0.2908 -0.2853 -0.0857
    1SOL    HW2 7762   0.262   2.063   3.562  0.3977 -2.7097 -0.1692
    1SOL    HW3 7763   0.173   2.017   3.448  0.2907  0.1393 -1.2726
    1SOL    MW4 7764   0.244   2.060   3.477  0.3049 -0.5493 -0.2532
    1SOL     OW 7765   0.196   2.349   3.385 -0.3687  0.1272  0.0376
    1SOL    HW2 7766   0.120   2.391   3.426 -0.4185  1.1415 -1.0556
    1SOL    HW3 7767   0.180   2.255   3.394 -1.0137  0.3466  1.1573
    1SOL    MW4 7768   0.184   2.342   3.391 -0.4604  0.2902  0.0408
    1SOL     OW 7769   4.471   2.461   3.477 -0.2289  0.2336  0.1090
    1SOL    HW2 7770   4.474   2.462   3.573  0.2106 -1.8146  0.1378
    1SOL    HW3 7771   4.390   2.415   3.456  0.9766 -1.6805 -0.4755
    1SOL    MW4 7772   4.461   2.455   3.487 -0.0119 -0.2894  0.0358
    1SOL     OW 7773   4.461   2.729   3.421 -0.4374  0.3551 -0.4482
    1SOL    HW2 7774   4.542   2.757   3.463 -1.4343  0.3386  1.5308
    1SOL    HW3 7775   4.465   2.634   3.419 -0.3895  0.3569 -0.4039
    1SOL    MW4 7776   4.472   2.720   3.426 -0.5627  0.3533 -0.1812
    1SOL     OW 7777   0.226   2.857   3.526  0.1222 -0.1943  0.0372
    1SOL    HW2 7778   0.301   2.810   3.491  0.5886 -0.6112  1.5462
    1SOL    HW3 7779   0.237   2.947   3.495 -0.5191 -0.9241 -2.4599
    1SOL    MW4 7780   0.237   2.862   3.517  0.0991 -0.3457 -0.0932
    1SOL     OW 7781   0.224   3.114   3.439  0.0546  0.1725  0.1960
    1SOL    HW2 7782   0.155   3.174   3.467 -2.1250 -2.5142  0.7796
    1SOL    HW3 7783   0.217   3.112   3.344 -1.3903 -0.8743  0.3095
    1SOL    MW4 7784   0.214   3.122   3.430 -0.4236 -0.3202  0.2880
    1SOL     OW 7785   4.481   3.264   3.514 -0.0481 -0.1256 -0.0178
    1SOL    HW2 7786   4.408   3.221   3.470  1.3712 -1.2388 -1.3308
    1SOL    HW3 7787   4.463   3.357   3.504 -0.9450 -0.3803 -0.8995
    1SOL    MW4 7788   4.469   3.270   3.507  0.0205 -0.3061 -0.3071
    1SOL     OW 7789   4.490   3.544   3.435 -0.3166 -0.4985 -0.0777
    1SOL    HW2 7790   4.404   3.570   3.465 -0.4789 -1.9839  0.7562
    1SOL    HW3 7791   4.478   3.526   3.341 -0.9792 -1.0037  0.1022
    1SOL    MW4 7792   4.477   3.545   3.426 -0.4249 -0.7608  0.0560
    1SOL     OW 7793   0.243   3.631   3.546 -0.0928  0.4296  0.5305
    1SOL    HW2 7794   0.230   3.634   3.641 -0.5356  1.8240  0.4381
    1SOL    HW3 7795   0.161   3.595   3.512  0.3930 -0.8918  0.7298
    1SOL    MW4 7796   0.230   3.627   3.554 -0.0871  0.4394  0.5445
    1SOL     OW 7797   0.213   3.876   3.421  0.1900 -0.0631 -0.5889
    1SOL    HW2 7798   0.122   3.905   3.434  0.2054 -0.3123  0.0829
    1SOL    HW3 7799   0.212   3.783   3.443  0.5670 -0.1124 -0.7862
    1SOL    MW4 7800   0.201   3.868   3.426  0.2418 -0.1025 -0.5260
    1SOL     OW 7801   4.453   3.969   3.509 -0.0219 -0.4700 -0.7320
    1SOL    HW2 7802   4.463   3.972   3.604  1.2741 -1.5241 -0.8127
    1SOL    HW3 7803   4.470   4.059   3.480  0.4091 -0.3216 -0.0318
    1SOL    MW4 7804   4.457   3.981   3.518  0.2065 -0.5894 -0.6499
    1SOL     OW 7805   4.478   4.228   3.409  0.8943 -0.8305  0.1423
    1SOL    HW2 7806   4.397   4.264   3.445  0.7789 -0.6946 -0.2576
    1SOL    HW3 7807   4.547   4.273   3.458  0.7885  1.0003 -1.3226
    1SOL    MW4 7808   4.477   4.239   3.420  0.8655 -0.5703 -0.1037
    1SOL     OW 7809   0.213   4.362   3.504 -0.0463 -0.3413 -0.2262
    1SOL    HW2 7810   0.230   4.383   3.596  1.2899 -0.3653 -0.4618
    1SOL    HW3 7811   0.295   4.325   3.472 -0.5191 -0.3817 -1.4238
    1SOL    MW4 7812   0.226   4.360   3.512  0.0676 -0.3490 -0.4153
    1SOL     OW 7813   0.673   4.652   3.413 -0.1915 -0.1110 -0.1510
    1SOL    HW2 7814   0.759   4.692   3.426 -0.1669 -0.0849 -0.3949
    1SOL    HW3 7815   0.668   4.636   3.319 -0.1739 -0.7452 -0.0459
    1SOL    MW4 7816   0.684   4.655   3.402 -0.1860 -0.1917 -0.1693
    1SOL     OW 7817   0.469   0.134   3.514 -0.1297  0.0173 -0.2885
    1SOL    HW2 7818   0.470   0.128   3.609 -0.0504  1.8423 -0.1542
    1SOL    HW3 7819   0.549   0.091   3.486 -0.4383 -1.0304  0.4324
    1SOL    MW4 7820   0.480   0.128   3.523 -0.1599  0.1199 -0.1757
    1SOL     OW 7821   0.431   0.355   3.336  0.0801  0.3969  0.1842
    1SOL    HW2 7822   0.500   0.409   3.373  1.5242 -0.1835 -1.5682
    1SOL    HW3 7823   0.422   0.282   3.398 -0.2988  1.4622  1.3933
    1SOL    MW4 7824   0.439   0.352   3.349  0.2206  0.4608  0.1123
    1SOL     OW 7825   0.630   0.504   3.472 -0.2185  1.0003  0.4361
    1SOL    HW2 7826   0.623   0.497   3.567  1.0635  0.5421  0.5044
    1SOL    HW3 7827   0.712   0.461   3.451 -1.7049 -1.1113 -1.1612
    1SOL    MW4 7828   0.640   0.498   3.482 -0.2454  0.6613  0.2346
    1SOL     OW 7829   0.649   0.751   3.321  0.2512 -0.2363  0.1748
    1SOL    HW2 7830   0.603   0.809   3.381  0.3476  0.9492 -0.8589
    1SOL    HW3 7831   0.635   0.663   3.356 -0.7332  0.3245  1.2204
    1SOL    MW4 7832   0.641   0.747   3.333  0.1341 -0.0058  0.1762
    1SOL     OW 7833   0.497   0.895   3.493  0.3632  0.1452  0.1204
    1SOL    HW2 7834   0.497   0.899   3.588  0.5812 -0.0368  0.1309
    1SOL    HW3 7835   0.488   0.985   3.464  0.0086  0.1713  0.3135
    1SOL    MW4 7836   0.496   0.907   3.502  0.3452  0.1246  0.1471
    1SOL     OW 7837   0.449   1.149   3.383 -0.2213  0.3242 -0.3995
    1SOL    HW2 7838   0.532   1.185   3.416 -0.7725  1.8374 -0.6237
    1SOL    HW3 7839   0.460   1.146   3.288 -0.1821 -0.0849 -0.3817
    1SOL    MW4 7840   0.461   1.153   3.375 -0.2888  0.4699 -0.4270
    1SOL     OW 7841   0.697   1.250   3.487 -0.1119  0.0709 -0.4359
    1SOL    HW2 7842   0.779   1.211   3.455  0.4975  1.1153 -0.1872
    1SOL    HW3 7843   0.694   1.336   3.445 -0.1660  0.7693  0.9674
    1SOL    MW4 7844   0.708   1.256   3.477 -0.0386  0.3009 -0.2182
    1SOL     OW 7845   0.642   1.496   3.382 -0.3543 -0.3179  0.4159
    1SOL    HW2 7846   0.710   1.540   3.433 -0.3557 -0.2920  0.3954
    1SOL    HW3 7847   0.567   1.556   3.383 -0.5636 -0.5895  0.8899
    1SOL    MW4 7848   0.641   1.510   3.389 -0.3821 -0.3501  0.4754
    1SOL     OW 7849   0.444   1.661   3.467 -0.1068  0.2743  0.8166
    1SOL    HW2 7850   0.452   1.664   3.562  0.6233  0.5314  0.7495
    1SOL    HW3 7851   0.452   1.753   3.439  1.1684  0.0472  0.3985
    1SOL    MW4 7852   0.446   1.674   3.476  0.1578  0.2782  0.7527
    1SOL     OW 7853   0.470   1.930   3.382 -0.1599 -0.0675  0.4412
    1SOL    HW2 7854   0.391   1.980   3.401  0.6648  1.1346  0.7340
    1SOL    HW3 7855   0.464   1.910   3.289 -1.3811 -1.0172  0.7001
    1SOL    MW4 7856   0.459   1.934   3.373 -0.2122 -0.0342  0.5140
    1SOL     OW 7857   0.696   2.057   3.480  0.0013 -0.6393 -0.1780
    1SOL    HW2 7858   0.698   2.074   3.574 -0.9304  1.7163 -0.5626
    1SOL    HW3 7859   0.605   2.032   3.463 -0.6699  2.1580 -0.9540
    1SOL    MW4 7860   0.684   2.056   3.490 -0.2102  0.0408 -0.3314
    1SOL     OW 7861   0.660   2.284   3.332  0.6104  0.3694  0.2958
    1SOL    HW2 7862   0.726   2.345   3.367  0.2735  0.7629  0.2499
    1SOL    HW3 7863   0.666   2.208   3.389  0.0608  1.0111  1.2277
    1SOL    MW4 7864   0.670   2.282   3.344  0.4935  0.5059  0.4129
    1SOL     OW 7865   0.452   2.434   3.457  0.0705  0.0154  0.2588
    1SOL    HW2 7866   0.499   2.377   3.397 -0.1768 -0.7682  0.7989
    1SOL    HW3 7867   0.359   2.418   3.438  0.0022  0.5736  0.1064
    1SOL    MW4 7868   0.446   2.424   3.447  0.0288 -0.0143  0.3102
    1SOL     OW 7869   0.427   2.704   3.405 -0.4754 -0.2059 -0.2201
    1SOL    HW2 7870   0.456   2.615   3.425  0.9499  0.3711  0.3678
    1SOL    HW3 7871   0.392   2.699   3.316  1.0436 -1.0404 -0.7867
    1SOL    MW4 7872   0.427   2.692   3.396 -0.0869 -0.2398 -0.2172
    1SOL     OW 7873   0.652   2.867   3.435 -0.5451  0.5229 -0.3463
    1SOL    HW2 7874   0.738   2.828   3.422  0.3536  2.3689 -0.0217
    1SOL    HW3 7875   0.591   2.795   3.418  1.0769 -1.1179  0.5865
    1SOL    MW4 7876   0.655   2.852   3.431 -0.2126  0.5500 -0.1802
    1SOL     OW 7877   0.698   3.142   3.392 -0.2190  0.5454 -0.1594
    1SOL    HW2 7878   0.624   3.180   3.439 -0.0611  0.2250  0.3537
    1SOL    HW3 7879   0.680   3.048   3.391 -0.3257  0.5733 -0.9232
    1SOL    MW4 7880   0.686   3.135   3.398 -0.2123  0.5071 -0.1926
    1SOL     OW 7881   0.474   3.221   3.535  0.2827 -0.5609  0.0854
    1SOL    HW2 7882   0.464   3.212   3.630  1.0974 -0.7136  0.1679
    1SOL    HW3 7883   0.395   3.184   3.498  0.6642 -1.9744  0.6582
    1SOL    MW4 7884   0.462   3.215   3.543  0.4405 -0.7677  0.1719
    1SOL     OW 7885   0.444   3.493   3.422 -0.6726 -0.0535 -0.9081
    1SOL    HW2 7886   0.441   3.409   3.467  3.0657 -0.2354 -0.8076
    1SOL    HW3 7887   0.383   3.549   3.470  1.0213 -1.0972  2.5635
    1SOL    MW4 7888   0.436   3.489   3.434  0.0441 -0.2153 -0.4368
    1SOL     OW 7889   0.667   3.598   3.558  0.4114 -0.0885  0.0748
    1SOL    HW2 7890   0.747   3.564   3.516 -0.2874  0.4914 -1.7739
    1SOL    HW3 7891   0.596   3.548   3.518 -0.2142 -0.0185  1.0973
    1SOL    MW4 7892   0.668   3.587   3.547  0.2367 -0.0026 -0.0343
    1SOL     OW 7893   0.686   3.861   3.423  0.1992 -0.2532  0.3592
    1SOL    HW2 7894   0.609   3.907   3.456 -0.2470  0.2264 -1.2952
    1SOL    HW3 7895   0.686   3.778   3.470 -0.3654  0.4412  1.5970
    1SOL    MW4 7896   0.676   3.856   3.433  0.0659 -0.0982  0.3042
    1SOL     OW 7897   0.470   3.993   3.522  0.0873  0.2503  0.5923
    1SOL    HW2 7898   0.474   4.088   3.505  1.2497  0.0665 -0.2406
    1SOL    HW3 7899   0.396   3.963   3.471  2.0122  0.1217 -2.2096
    1SOL    MW4 7900   0.461   4.002   3.513  0.4946  0.2089  0.1128
    1SOL     OW 7901   0.451   4.250   3.415  0.0814  0.4076  0.3545
    1SOL    HW2 7902   0.519   4.309   3.447  1.8196 -1.3313 -0.0600
    1SOL    HW3 7903   0.461   4.252   3.320 -0.3833  0.0661  0.2998
    1SOL    MW4 7904   0.461   4.258   3.407  0.2494  0.1330  0.2925
    1SOL     OW 7905   0.670   4.393   3.535  0.5653 -0.1321 -0.2102
    1SOL    HW2 7906   0.748   4.345   3.507  0.1876 -1.0136  0.2328
    1SOL    HW3 7907   0.679   4.479   3.494  0.7266 -0.9265 -1.9042
    1SOL    MW4 7908   0.681   4.398   3.526  0.5367 -0.3538 -0.3748
    1SOL     OW 7909   1.134   4.637   3.386  0.3145  0.2426  0.1411
    1SOL    HW2 7910   1.215   4.683   3.407  1.1391 -1.1276  0.0425
    1SOL    HW3 7911   1.119   4.656   3.293 -1.0061  2.7727  0.8289
    1SOL    MW4 7912   1.142   4.645   3.376  0.2491  0.3958  0.2191
    1SOL     OW 7913   0.908   0.138   3.485 -0.1998  0.1875 -0.2152
    1SOL    HW2 7914   0.911   0.148   3.580  0.8294  1.3764 -0.3621
    1SOL    HW3 7915   0.983   0.081   3.465 -1.7846 -2.0136 -0.1062
    1SOL    MW4 7916   0.919   0.132   3.495 -0.2730  0.0540 -0.2203
    1SOL     OW 7917   0.904   0.399   3.380  0.5036 -0.3247 -0.1772
    1SOL    HW2 7918   0.970   0.447   3.429  0.2224 -0.7580  0.6409
    1SOL    HW3 7919   0.906   0.310   3.416 -0.0514 -0.5210 -0.6067
    1SOL    MW4 7920   0.913   0.393   3.391  0.3933 -0.4078 -0.1259
    1SOL     OW 7921   1.133   0.491   3.501  0.1327  0.1422 -0.0503
    1SOL    HW2 7922   1.132   0.514   3.594 -0.8322  1.4996 -0.3773
    1SOL    HW3 7923   1.121   0.575   3.456 -2.5659 -0.8561 -1.3031
    1SOL    MW4 7924   1.131   0.506   3.507 -0.3505  0.1895 -0.2587
    1SOL     OW 7925   1.120   0.763   3.384  0.0192 -0.4060 -0.1980
    1SOL    HW2 7926   1.195   0.800   3.431  0.5144 -1.2917 -0.2658
    1SOL    HW3 7927   1.043   0.802   3.426  0.4046 -1.9826  2.0503
    1SOL    MW4 7928   1.120   0.773   3.395  0.1353 -0.7309  0.0894
    1SOL     OW 7929   0.881   0.850   3.481 -0.2876  0.4278 -0.1226
    1SOL    HW2 7930   0.884   0.932   3.432 -0.6629  0.1183 -0.6628
    1SOL    HW3 7931   0.813   0.798   3.438  0.4886 -0.4767 -0.2667
    1SOL    MW4 7932   0.872   0.854   3.469 -0.2347  0.2676 -0.2131
    1SOL     OW 7933   0.918   1.111   3.365 -0.0370  0.0453 -0.5363
    1SOL    HW2 7934   0.987   1.169   3.398  0.4695 -0.3455 -0.8945
    1SOL    HW3 7935   0.925   1.119   3.270 -0.0251 -0.5359 -0.5804
    1SOL    MW4 7936   0.928   1.120   3.357  0.0314 -0.0830 -0.5891
    1SOL     OW 7937   1.108   1.262   3.517  0.2645 -0.5385  0.3455
    1SOL    HW2 7938   1.107   1.259   3.613 -3.3689 -1.1982  0.3469
    1SOL    HW3 7939   1.109   1.355   3.496  2.1472 -0.3885  0.9729
    1SOL    MW4 7940   1.108   1.274   3.527  0.0336 -0.6057  0.4284
    1SOL     OW 7941   1.107   1.552   3.440  0.0680  0.7371  0.1439
    1SOL    HW2 7942   1.187   1.583   3.485  1.3487  0.7062 -2.0561
    1SOL    HW3 7943   1.128   1.558   3.347 -2.4336  0.4540 -0.4667
    1SOL    MW4 7944   1.121   1.557   3.434 -0.0930  0.6956 -0.2270
    1SOL     OW 7945   0.853   1.635   3.494  0.0772  0.0253  0.4439
    1SOL    HW2 7946   0.847   1.728   3.473  0.3806 -0.0039  0.2313
    1SOL    HW3 7947   0.942   1.610   3.471 -0.4311 -0.6465 -0.8232
    1SOL    MW4 7948   0.864   1.644   3.488  0.0501 -0.0672  0.2487
    1SOL     OW 7949   0.915   1.903   3.398  0.1928  0.4750  0.0485
    1SOL    HW2 7950   0.990   1.948   3.438  0.6217 -1.0395  1.0240
    1SOL    HW3 7951   0.839   1.956   3.423  0.7992  1.3126  0.1467
    1SOL    MW4 7952   0.915   1.916   3.407  0.3294  0.3856  0.1903
    1SOL     OW 7953   1.137   2.054   3.502 -0.2273 -0.5638  0.2919
    1SOL    HW2 7954   1.227   2.039   3.475  0.1883  0.1857  1.2157
    1SOL    HW3 7955   1.112   2.136   3.458 -0.0888 -0.2028  0.8757
    1SOL    MW4 7956   1.145   2.063   3.493 -0.1543 -0.4175  0.4907
    1SOL     OW 7957   1.092   2.298   3.368 -0.3705 -0.0138  0.2691
    1SOL    HW2 7958   1.181   2.328   3.386  0.0021 -0.7275 -0.3591
    1SOL    HW3 7959   1.080   2.314   3.274 -1.0863  0.5409  0.4489
    1SOL    MW4 7960   1.102   2.304   3.358 -0.4157 -0.0346  0.2100
    1SOL     OW 7961   0.877   2.445   3.442 -0.4641 -0.7827 -0.0212
    1SOL    HW2 7962   0.862   2.453   3.536  1.6770 -0.3452  0.3041
    1SOL    HW3 7963   0.960   2.398   3.434  0.3905  0.9062 -1.6341
    1SOL    MW4 7964   0.886   2.440   3.453 -0.0689 -0.5023 -0.1912
    1SOL     OW 7965   0.890   2.723   3.383  0.2677  0.4180  0.1745
    1SOL    HW2 7966   0.966   2.761   3.426  1.4982  0.1381 -1.7186
    1SOL    HW3 7967   0.891   2.630   3.409  1.5642  0.0339 -1.2392
    1SOL    MW4 7968   0.900   2.715   3.392  0.6011  0.3302 -0.2618
    1SOL     OW 7969   1.127   2.844   3.477  0.0258 -0.1570 -0.1474
    1SOL    HW2 7970   1.135   2.854   3.571  0.1531  0.2889 -0.2023
    1SOL    HW3 7971   1.214   2.821   3.447 -0.3616 -1.8990  0.0295
    1SOL    MW4 7972   1.139   2.842   3.485 -0.0086 -0.3281 -0.1311
    1SOL     OW 7973   1.139   3.104   3.363 -0.3079 -0.5108  0.1157
    1SOL    HW2 7974   1.109   3.018   3.394 -0.1336 -1.3552 -1.9795
    1SOL    HW3 7975   1.134   3.098   3.268  1.4833  1.1648 -0.1092
    1SOL    MW4 7976   1.134   3.092   3.355 -0.0486 -0.4013 -0.1907
    1SOL     OW 7977   0.918   3.239   3.531  0.2779  0.0115 -0.5870
    1SOL    HW2 7978   0.999   3.196   3.505  0.7241  0.8312 -0.5682
    1SOL    HW3 7979   0.848   3.187   3.490  0.8675  0.0612 -1.6511
    1SOL    MW4 7980   0.919   3.226   3.522  0.4146  0.1264 -0.7250
    1SOL     OW 7981   0.893   3.511   3.422 -0.1254  0.1406 -0.0062
    1SOL    HW2 7982   0.897   3.419   3.448 -1.9322 -0.1034 -0.5245
    1SOL    HW3 7983   0.896   3.509   3.326 -0.6722  0.5876 -0.0343
    1SOL    MW4 7984   0.894   3.499   3.413 -0.4359  0.1674 -0.0784
    1SOL     OW 7985   1.132   3.609   3.555  0.5157 -0.3745 -0.6425
    1SOL    HW2 7986   1.119   3.608   3.650 -1.0414  0.6850 -0.8303
    1SOL    HW3 7987   1.052   3.571   3.519  0.9518 -0.4478 -1.5479
    1SOL    MW4 7988   1.120   3.604   3.563  0.3678 -0.2446 -0.7865
    1SOL     OW 7989   1.161   3.869   3.442 -0.6151  0.2270  0.1086
    1SOL    HW2 7990   1.236   3.918   3.476 -0.7375  1.1721 -0.9406
    1SOL    HW3 7991   1.171   3.781   3.478  1.1602  0.2616 -0.2651
    1SOL    MW4 7992   1.172   3.864   3.451 -0.3970  0.3564 -0.0792
    1SOL     OW 7993   0.918   3.999   3.533  0.0672  0.2275  0.1180
    1SOL    HW2 7994   0.998   3.951   3.509 -0.7505 -2.0781  1.7488
    1SOL    HW3 7995   0.849   3.957   3.481 -0.6054 -0.1739  1.3064
    1SOL    MW4 7996   0.920   3.987   3.523 -0.1295 -0.1297  0.4900
    1SOL     OW 7997   0.908   4.261   3.449  0.1082  0.2704 -0.1016
    1SOL    HW2 7998   0.910   4.166   3.461 -0.2377  0.1110 -1.3047
    1SOL    HW3 7999   0.917   4.274   3.355  0.1464  1.4355  0.0580
    1SOL    MW4 8000   0.909   4.250   3.438  0.0677  0.4034 -0.2396
    1SOL     OW 8001   1.129   4.418   3.550 -0.0420 -0.1545  0.2785
    1SOL    HW2 8002   1.068   4.370   3.496  1.2961 -0.6881 -0.7853
    1SOL    HW3 8003   1.130   4.506   3.513 -0.0363 -0.1952  0.1810
    1SOL    MW4 8004   1.121   4.423   3.538  0.1353 -0.2298  0.1254
    1SOL     OW 8005   1.567   4.660   3.388 -0.2066  0.1608  0.1164
    1SOL    HW2 8006   1.588   4.576   3.429  0.2446  0.3137  0.2087
    1SOL    HW3 8007   1.490   4.691   3.435  0.9440  0.8510  1.6189
    1SOL    MW4 8008   1.560   4.653   3.400  0.0048  0.2713  0.3269
    1SOL     OW 8009   1.336   0.112   3.502  0.0608 -0.2513 -0.7264
    1SOL    HW2 8010   1.337   0.113   3.597 -1.3488 -0.6368 -0.6913
    1SOL    HW3 8011   1.372   0.197   3.476  1.5856 -0.6273  0.1204
    1SOL    MW4 8012   1.341   0.123   3.511  0.0759 -0.3518 -0.6101
    1SOL     OW 8013   1.354   0.368   3.397 -0.3758 -0.1327 -0.0850
    1SOL    HW2 8014   1.430   0.419   3.425  1.2339 -2.4346 -0.2066
    1SOL    HW3 8015   1.280   0.412   3.440  1.0130  1.9466  0.2879
    1SOL    MW4 8016   1.354   0.381   3.407  0.0198 -0.1621 -0.0517
    1SOL     OW 8017   1.561   0.544   3.498  0.1908  0.1040  0.2786
    1SOL    HW2 8018   1.556   0.539   3.594 -1.9368 -0.2593  0.1614
    1SOL    HW3 8019   1.628   0.480   3.475  0.4658 -0.0706  1.4866
    1SOL    MW4 8020   1.569   0.535   3.508 -0.0538  0.0330  0.4227
    1SOL     OW 8021   1.566   0.808   3.408  0.1374  0.2878 -0.3177
    1SOL    HW2 8022   1.564   0.722   3.450 -0.7218  0.4378 -0.0346
    1SOL    HW3 8023   1.643   0.851   3.445 -0.1308  0.1022  0.4768
    1SOL    MW4 8024   1.576   0.802   3.418 -0.0113  0.2831 -0.1757
    1SOL     OW 8025   1.334   0.903   3.491 -0.4067 -0.5972 -0.1711
    1SOL    HW2 8026   1.335   0.906   3.587 -0.3041 -0.5579 -0.1735
    1SOL    HW3 8027   1.421   0.872   3.466  0.5034  1.9850 -0.3287
    1SOL    MW4 8028   1.345   0.899   3.500 -0.2731 -0.2513 -0.1924
    1SOL     OW 8029   1.361   1.179   3.410  0.2403 -0.0323  0.0183
    1SOL    HW2 8030   1.362   1.084   3.421 -0.0498 -0.0499 -0.0788
    1SOL    HW3 8031   1.283   1.208   3.457  1.2769  0.3573  1.5039
    1SOL    MW4 8032   1.351   1.171   3.417  0.3389  0.0167  0.2015
    1SOL     OW 8033   1.615   1.267   3.484  0.1810  0.3782  0.1620
    1SOL    HW2 8034   1.600   1.285   3.577 -0.7226 -0.5942  0.2236
    1SOL    HW3 8035   1.535   1.222   3.456  0.8756 -0.2499 -0.8382
    1SOL    MW4 8036   1.602   1.264   3.492  0.1534  0.1671  0.0381
    1SOL     OW 8037   1.589   1.538   3.414  0.1072  0.2367  0.8000
    1SOL    HW2 8038   1.677   1.572   3.434  0.1540 -0.0949  1.1685
    1SOL    HW3 8039   1.588   1.451   3.452 -0.0975 -0.0897  0.0477
    1SOL    MW4 8040   1.601   1.531   3.422  0.0864  0.1498  0.7496
    1SOL     OW 8041   1.359   1.660   3.501  0.4202  0.1769 -0.8176
    1SOL    HW2 8042   1.365   1.685   3.593  0.2318  2.1135 -1.3104
    1SOL    HW3 8043   1.443   1.617   3.484  0.8172  0.5720  0.0478
    1SOL    MW4 8044   1.371   1.658   3.511  0.4478  0.4845 -0.7687
    1SOL     OW 8045   1.345   1.919   3.363 -0.3513  0.0188 -0.3668
    1SOL    HW2 8046   1.419   1.957   3.409 -0.6324  0.5214 -0.3325
    1SOL    HW3 8047   1.335   1.831   3.401  0.1518 -0.0088 -0.2969
    1SOL    MW4 8048   1.354   1.912   3.374 -0.3219  0.0815 -0.3531
    1SOL     OW 8049   1.573   2.028   3.501 -0.0035  0.9723  0.3337
    1SOL    HW2 8050   1.661   2.007   3.470 -0.7241 -1.1514 -0.4058
    1SOL    HW3 8051   1.562   2.121   3.481  1.3995  0.8364 -1.2021
    1SOL    MW4 8052   1.583   2.037   3.494  0.0864  0.6740  0.0336
    1SOL     OW 8053   1.580   2.294   3.392 -0.0654 -0.1388 -0.0829
    1SOL    HW2 8054   1.516   2.355   3.428 -0.5184 -1.3497  1.2254
    1SOL    HW3 8055   1.580   2.311   3.298 -1.2343  0.8769  0.0954
    1SOL    MW4 8056   1.571   2.304   3.384 -0.2793 -0.1645  0.1130
    1SOL     OW 8057   1.338   2.423   3.472 -0.1845 -0.5159  0.1807
    1SOL    HW2 8058   1.368   2.412   3.562  2.4005 -1.7900 -0.7676
    1SOL    HW3 8059   1.342   2.518   3.457  2.4807 -0.5466  0.4448
    1SOL    MW4 8060   1.342   2.434   3.482  0.5081 -0.6881  0.0904
    1SOL     OW 8061   1.341   2.690   3.409 -0.2430  0.4968 -0.1046
    1SOL    HW2 8062   1.429   2.721   3.430 -0.5609  0.0629  1.9827
    1SOL    HW3 8063   1.338   2.688   3.313  1.6165  1.6214 -0.2003
    1SOL    MW4 8064   1.352   2.694   3.399 -0.0396  0.5879  0.1581
    1SOL     OW 8065   1.588   2.793   3.465  0.0565 -0.3269  0.0022
    1SOL    HW2 8066   1.596   2.885   3.439 -0.6231 -1.0422 -2.9060
    1SOL    HW3 8067   1.667   2.752   3.429 -0.7548 -1.3035 -0.6631
    1SOL    MW4 8068   1.600   2.800   3.457 -0.1402 -0.5500 -0.4690
    1SOL     OW 8069   1.580   3.059   3.368 -0.0725  0.2497 -0.3489
    1SOL    HW2 8070   1.659   3.103   3.399 -0.0810  1.4185 -1.9373
    1SOL    HW3 8071   1.508   3.105   3.411  0.0130  0.4648 -0.4379
    1SOL    MW4 8072   1.581   3.071   3.378 -0.0623  0.4320 -0.5701
    1SOL     OW 8073   1.367   3.240   3.461 -0.1223 -0.0451 -0.2735
    1SOL    HW2 8074   1.349   3.247   3.555 -0.9641  2.6534 -0.5911
    1SOL    HW3 8075   1.290   3.196   3.425  0.6841 -2.0849  0.4109
    1SOL    MW4 8076   1.355   3.235   3.469 -0.1270  0.0417 -0.2251
    1SOL     OW 8077   1.326   3.492   3.386 -0.1728  0.4245 -0.6734
    1SOL    HW2 8078   1.340   3.401   3.412  2.4661  1.2201  0.9015
    1SOL    HW3 8079   1.267   3.527   3.453 -0.0925  0.2197 -0.4949
    1SOL    MW4 8080   1.320   3.485   3.398  0.1861  0.5021 -0.4423
    1SOL     OW 8081   1.578   3.622   3.468 -0.7157 -0.0881  0.0707
    1SOL    HW2 8082   1.570   3.637   3.562  0.6192 -0.5212  0.2642
    1SOL    HW3 8083   1.502   3.568   3.445 -0.9779 -0.0793  0.9096
    1SOL    MW4 8084   1.567   3.617   3.477 -0.5742 -0.1440  0.2069
    1SOL     OW 8085   1.550   3.903   3.399  0.0841 -0.6904  0.1976
    1SOL    HW2 8086   1.556   3.810   3.422 -0.2888 -1.0215 -1.0156
    1SOL    HW3 8087   1.531   3.904   3.305 -0.0862  0.6102  0.2311
    1SOL    MW4 8088   1.548   3.891   3.390  0.0125 -0.5624  0.0422
    1SOL     OW 8089   1.359   4.022   3.572 -0.0397 -0.4156 -0.0847
    1SOL    HW2 8090   1.353   4.112   3.542 -0.4833 -1.0401 -1.9482
    1SOL    HW3 8091   1.429   3.984   3.519  1.1161 -0.7987  1.6742
    1SOL    MW4 8092   1.368   4.029   3.561  0.0541 -0.5488 -0.0982
    1SOL     OW 8093   1.362   4.271   3.475 -0.5682  0.3596 -0.0320
    1SOL    HW2 8094   1.289   4.320   3.513 -0.1479  1.9161 -1.1607
    1SOL    HW3 8095   1.354   4.285   3.380  0.2668 -0.7780 -0.2826
    1SOL    MW4 8096   1.352   4.280   3.467 -0.4026  0.4148 -0.2139
    1SOL     OW 8097   1.610   4.410   3.517  0.2230 -0.2167  0.1753
    1SOL    HW2 8098   1.681   4.357   3.479  0.0033 -0.1026 -0.3997
    1SOL    HW3 8099   1.530   4.360   3.498 -0.1211  0.9237 -1.4914
    1SOL    MW4 8100   1.609   4.396   3.509  0.1485 -0.0515 -0.1204
    1SOL     OW 8101   2.047   4.634   3.379  0.2440 -0.4016  0.1148
    1SOL    HW2 8102   2.124   4.676   3.416 -0.8003  1.9650 -0.2925
    1SOL    HW3 8103   1.973   4.681   3.418 -0.9374 -0.6661 -1.7257
    1SOL    MW4 8104   2.047   4.646   3.389 -0.0496 -0.1245 -0.1819
    1SOL     OW 8105   1.812   0.089   3.470 -0.2960  0.7396  0.0403
    1SOL    HW2 8106   1.792   0.091   3.564  1.9694  0.4951  0.5505
    1SOL    HW3 8107   1.730   0.061   3.429 -0.5641 -1.8192  2.1749
    1SOL    MW4 8108   1.799   0.086   3.477 -0.0323  0.3698  0.3893
    1SOL     OW 8109   1.788   0.378   3.404 -0.1411 -0.1337 -0.1484
    1SOL    HW2 8110   1.780   0.283   3.411 -1.0588 -0.0202  0.4978
    1SOL    HW3 8111   1.811   0.394   3.313 -0.8374 -0.9332 -0.4704
    1SOL    MW4 8112   1.790   0.368   3.393 -0.3541 -0.2242 -0.1059
    1SOL     OW 8113   2.010   0.505   3.554  0.0193  0.1424  0.6004
    1SOL    HW2 8114   2.025   0.592   3.517 -0.0323  0.5896  1.5951
    1SOL    HW3 8115   1.939   0.469   3.503 -0.0205  0.7288  0.2373
    1SOL    MW4 8116   2.003   0.512   3.542  0.0072  0.2788  0.6835
    1SOL     OW 8117   2.041   0.771   3.454 -0.1585 -0.1138 -0.2126
    1SOL    HW2 8118   2.125   0.807   3.482 -0.2611 -0.1391  0.1371
    1SOL    HW3 8119   2.052   0.754   3.360 -0.0628  0.6911 -0.3493
    1SOL    MW4 8120   2.054   0.774   3.445 -0.1595 -0.0109 -0.1845
    1SOL     OW 8121   1.806   0.908   3.511 -0.1695  0.4027  0.0780
    1SOL    HW2 8122   1.886   0.861   3.485 -0.4020  0.3596 -0.5682
    1SOL    HW3 8123   1.818   0.996   3.475 -0.1721  0.5482  0.4400
    1SOL    MW4 8124   1.818   0.913   3.502 -0.2005  0.4162  0.0408
    1SOL     OW 8125   1.829   1.138   3.366 -0.2964 -0.1103  0.0095
    1SOL    HW2 8126   1.896   1.191   3.410 -0.4848  0.7005 -0.6635
    1SOL    HW3 8127   1.746   1.179   3.391 -0.4623 -0.3228 -0.1984
    1SOL    MW4 8128   1.827   1.151   3.375 -0.3431 -0.0315 -0.1066
    1SOL     OW 8129   2.037   1.297   3.485  0.1463  0.0044  0.5614
    1SOL    HW2 8130   2.012   1.308   3.577  2.4577  0.8661  1.1101
    1SOL    HW3 8131   2.039   1.386   3.451  2.3435 -0.0595  0.5073
    1SOL    MW4 8132   2.034   1.310   3.493  0.7410  0.1097  0.6266
    1SOL     OW 8133   2.042   1.542   3.378  0.2851 -0.0686  0.0298
    1SOL    HW2 8134   2.112   1.583   3.429  0.1467 -0.1145  0.2582
    1SOL    HW3 8135   1.962   1.581   3.413  0.1820 -0.2095 -0.0528
    1SOL    MW4 8136   2.041   1.553   3.390  0.2530 -0.0932  0.0491
    1SOL     OW 8137   1.815   1.681   3.512  0.5553 -0.5580 -0.1027
    1SOL    HW2 8138   1.819   1.770   3.475  0.8998 -0.8432 -0.7602
    1SOL    HW3 8139   1.813   1.695   3.606  2.2948  0.1175 -0.1394
    1SOL    MW4 8140   1.816   1.695   3.519  0.8303 -0.5063 -0.1941
    1SOL     OW 8141   1.820   1.951   3.405 -0.2159  0.0967 -0.0597
    1SOL    HW2 8142   1.902   1.997   3.423 -1.0804  1.5711  0.2230
    1SOL    HW3 8143   1.813   1.950   3.310  0.3196 -0.4059 -0.1007
    1SOL    MW4 8144   1.830   1.957   3.395 -0.2593  0.2249 -0.0277
    1SOL     OW 8145   2.065   2.077   3.472  0.1687  0.7834 -0.1423
    1SOL    HW2 8146   2.144   2.026   3.457  0.1267  0.3288  1.1135
    1SOL    HW3 8147   2.067   2.098   3.565 -2.3883 -1.3117  0.4724
    1SOL    MW4 8148   2.076   2.073   3.482 -0.1740  0.4473  0.1044
    1SOL     OW 8149   2.023   2.319   3.353 -0.3459  0.4148 -0.9737
    1SOL    HW2 8150   2.032   2.228   3.379 -0.7332  0.0423 -2.0777
    1SOL    HW3 8151   1.945   2.350   3.400  1.0674  0.8588  1.1479
    1SOL    MW4 8152   2.014   2.311   3.362 -0.2105  0.4241 -0.8395
    1SOL     OW 8153   1.801   2.428   3.475 -0.0765 -0.3305  0.3769
    1SOL    HW2 8154   1.723   2.382   3.445 -1.0364  0.8074  1.0463
    1SOL    HW3 8155   1.793   2.429   3.571 -0.1993  1.3657  0.3812
    1SOL    MW4 8156   1.789   2.422   3.484 -0.2193  0.0434  0.4656
    1SOL     OW 8157   1.844   2.698   3.376  0.6220 -0.8968  0.7288
    1SOL    HW2 8158   1.900   2.754   3.430  2.5147 -2.1172  0.1139
    1SOL    HW3 8159   1.856   2.610   3.413 -0.6104 -1.2403  0.3419
    1SOL    MW4 8160   1.853   2.694   3.388  0.7092 -1.1032  0.5965
    1SOL     OW 8161   2.103   2.857   3.772  0.0541 -0.0352 -0.1648
    1SOL    HW2 8162   2.171   2.809   3.820 -0.0345  0.1086  0.1118
    1SOL    HW3 8163   2.021   2.817   3.802  0.0790 -1.1445 -1.5533
    1SOL    MW4 8164   2.101   2.845   3.783  0.0458 -0.1624 -0.3114
    1SOL     OW 8165   2.062   3.091   3.377  0.0740  0.2537  0.1776
    1SOL    HW2 8166   2.134   3.151   3.396 -0.8294  2.4921 -2.8924
    1SOL    HW3 8167   1.985   3.133   3.417 -0.2231  0.1230 -0.2501
    1SOL    MW4 8168   2.061   3.105   3.385 -0.0844  0.5319 -0.2840
    1SOL     OW 8169   1.804   3.168   3.468 -0.2896  0.0135  0.5388
    1SOL    HW2 8170   1.799   3.166   3.564  0.0199 -0.2652  0.5513
    1SOL    HW3 8171   1.783   3.258   3.444 -3.5877 -0.6812  0.6776
    1SOL    MW4 8172   1.801   3.180   3.477 -0.6840 -0.1149  0.5586
    1SOL     OW 8173   1.796   3.454   3.406 -0.1556 -0.2775  0.1347
    1SOL    HW2 8174   1.727   3.517   3.427  0.4761  0.3686  0.3122
    1SOL    HW3 8175   1.816   3.471   3.314  0.9793  0.7521  0.5499
    1SOL    MW4 8176   1.790   3.465   3.396  0.0775 -0.0563  0.2129
    1SOL     OW 8177   2.000   3.595   3.500 -0.2614  0.0910  0.3764
    1SOL    HW2 8178   2.084   3.560   3.469  0.0525  1.3224 -0.1829
    1SOL    HW3 8179   1.935   3.530   3.473  0.4628 -0.6483  0.4186
    1SOL    MW4 8180   2.002   3.582   3.492 -0.1245  0.1562  0.3083
    1SOL     OW 8181   2.011   3.865   3.396  0.1265  0.0989  0.2752
    1SOL    HW2 8182   1.944   3.915   3.443 -0.0675 -0.4179  0.5475
    1SOL    HW3 8183   2.000   3.775   3.427 -0.4781 -0.3718 -1.2950
    1SOL    MW4 8184   2.001   3.860   3.406  0.0212 -0.0312  0.1042
    1SOL     OW 8185   1.797   3.996   3.504  0.3154  0.2335 -0.0683
    1SOL    HW2 8186   1.769   3.997   3.596  1.8412 -0.9571  0.4279
    1SOL    HW3 8187   1.722   3.961   3.456 -0.4989  0.8757  0.7086
    1SOL    MW4 8188   1.783   3.992   3.510  0.4092  0.1612  0.0999
    1SOL     OW 8189   1.808   4.253   3.400  0.4968  0.0478 -0.2631
    1SOL    HW2 8190   1.803   4.164   3.436 -0.5471  0.7771  1.4150
    1SOL    HW3 8191   1.815   4.239   3.305  0.7264 -1.8317  0.0008
    1SOL    MW4 8192   1.809   4.239   3.392  0.3893 -0.1035 -0.0069
    1SOL     OW 8193   2.029   4.387   3.478 -0.2641  0.3414 -0.0061
    1SOL    HW2 8194   1.946   4.348   3.450 -0.1771 -0.1387  0.4076
    1SOL    HW3 8195   2.028   4.475   3.439 -1.7255  0.9538  1.3726
    1SOL    MW4 8196   2.018   4.393   3.469 -0.4454  0.3586  0.2303
    1SOL     OW 8197   2.515   0.022   3.406  0.2269 -0.0025  0.0116
    1SOL    HW2 8198   2.496  -0.068   3.430  1.3334 -0.4248 -0.6777
    1SOL    HW3 8199   2.507   0.024   3.311  1.0251  0.4269 -0.0538
    1SOL    MW4 8200   2.511   0.011   3.397  0.4780 -0.0015 -0.0877
    1SOL     OW 8201   2.261   0.100   3.496  0.1488  0.0713 -0.0647
    1SOL    HW2 8202   2.251   0.186   3.457  1.0124 -0.3108 -1.1572
    1SOL    HW3 8203   2.353   0.077   3.480 -0.1546 -1.1791 -0.0549
    1SOL    MW4 8204   2.272   0.108   3.489  0.2229 -0.1441 -0.2077
    1SOL     OW 8205   2.223   0.367   3.426 -0.1075 -0.1908 -0.1087
    1SOL    HW2 8206   2.297   0.418   3.459 -0.4805  0.5447 -0.4051
    1SOL    HW3 8207   2.148   0.398   3.477 -0.5989  0.6004 -1.3051
    1SOL    MW4 8208   2.223   0.378   3.437 -0.2213  0.0106 -0.3057
    1SOL     OW 8209   2.439   0.543   3.507  0.2603 -0.2422  0.3458
    1SOL    HW2 8210   2.527   0.521   3.478 -0.1110 -0.6505 -0.5011
    1SOL    HW3 8211   2.416   0.623   3.459  0.4077  0.2373  1.0531
    1SOL    MW4 8212   2.447   0.551   3.497  0.2310 -0.2328  0.3273
    1SOL     OW 8213   2.448   0.794   3.374  0.2206  0.0470 -0.3503
    1SOL    HW2 8214   2.428   0.811   3.282 -1.4550  1.2705  0.2217
    1SOL    HW3 8215   2.543   0.806   3.380  0.1781  1.1910 -1.6686
    1SOL    MW4 8216   2.458   0.798   3.363 -0.0060  0.3594 -0.4487
    1SOL     OW 8217   2.270   0.922   3.549  0.2158 -0.2117  0.2482
    1SOL    HW2 8218   2.257   1.003   3.500  0.8711  0.9218  1.9045
    1SOL    HW3 8219   2.340   0.876   3.501 -0.1311  0.2040 -0.6682
    1SOL    MW4 8220   2.278   0.926   3.536  0.2565 -0.0073  0.3457
    1SOL     OW 8221   2.240   1.152   3.377  0.2664  0.0531 -0.3417
    1SOL    HW2 8222   2.321   1.196   3.404  0.5530 -0.7677  0.1520
    1SOL    HW3 8223   2.170   1.209   3.409  0.6205 -0.5812  1.6184
    1SOL    MW4 8224   2.242   1.165   3.385  0.3510 -0.1388 -0.0181
    1SOL     OW 8225   2.460   1.282   3.438  0.1709 -0.0447  0.5147
    1SOL    HW2 8226   2.465   1.286   3.534  0.1683  0.8200  0.4836
    1SOL    HW3 8227   2.531   1.224   3.412  0.9525  0.7088  0.9626
    1SOL    MW4 8228   2.470   1.275   3.448  0.2737  0.1688  0.5701
    1SOL     OW 8229   2.495   1.557   3.401 -0.3568 -0.4402 -0.1153
    1SOL    HW2 8230   2.492   1.463   3.417 -0.2263 -0.3493  0.4443
    1SOL    HW3 8231   2.492   1.565   3.306 -2.0036 -0.9440 -0.1213
    1SOL    MW4 8232   2.495   1.546   3.391 -0.5569 -0.4947 -0.0422
    1SOL     OW 8233   2.253   1.650   3.490  0.0592 -0.6520  0.5807
    1SOL    HW2 8234   2.256   1.679   3.581  0.3919 -0.0235  0.3697
    1SOL    HW3 8235   2.335   1.601   3.478  0.0079 -0.7483  0.6206
    1SOL    MW4 8236   2.264   1.647   3.501  0.0963 -0.5817  0.5581
    1SOL     OW 8237   2.283   1.923   3.398 -0.2555 -0.1255 -0.3623
    1SOL    HW2 8238   2.276   1.833   3.430 -0.0738 -0.3194 -0.8664
    1SOL    HW3 8239   2.281   1.915   3.303 -1.1353  0.4821 -0.4018
    1SOL    MW4 8240   2.282   1.910   3.390 -0.3474 -0.0709 -0.4342
    1SOL     OW 8241   2.453   2.263   3.363  0.2285  0.0600  0.1086
    1SOL    HW2 8242   2.523   2.325   3.383  0.3192 -0.0784  0.2220
    1SOL    HW3 8243   2.468   2.190   3.423  0.1229 -0.0720 -0.0259
    1SOL    MW4 8244   2.464   2.261   3.374  0.2267  0.0243  0.1059
    1SOL     OW 8245   2.296   2.712   3.369  0.0781 -0.3460  0.8069
    1SOL    HW2 8246   2.290   2.619   3.390  0.7608 -0.5374  0.1823
    1SOL    HW3 8247   2.213   2.749   3.398 -0.9365 -1.4742 -0.5843
    1SOL    MW4 8248   2.284   2.705   3.376  0.0341 -0.5200  0.5410
    1SOL     OW 8249   2.081   3.275   4.587  0.2586  0.2669 -0.2847
    1SOL    HW2 8250   2.104   3.360   4.623  0.7048 -0.6098  1.5680
    1SOL    HW3 8251   1.997   3.289   4.544  0.8299  1.8651 -0.8907
    1SOL    MW4 8252   2.073   3.288   4.586  0.3929  0.3619 -0.1202
    1SOL     OW 8253   2.091   2.839   3.499 -0.1211  0.7670  0.0831
    1SOL    HW2 8254   2.092   2.858   3.592  0.6366  1.4917 -0.0721
    1SOL    HW3 8255   2.097   2.924   3.456  0.2550  0.3933 -0.6237
    1SOL    MW4 8256   2.092   2.853   3.505  0.0286  0.8132 -0.0305
    1SOL     OW 8257   2.501   2.823   3.483 -0.0176  0.5225 -0.3435
    1SOL    HW2 8258   2.484   2.917   3.481 -0.7237  0.5678  3.5405
    1SOL    HW3 8259   2.424   2.783   3.444 -1.0336  1.4533  0.6933
    1SOL    MW4 8260   2.489   2.830   3.478 -0.2449  0.6514  0.3057
    1SOL     OW 8261   2.494   3.080   3.413 -0.1089  0.1573 -0.1788
    1SOL    HW2 8262   2.574   3.133   3.419 -0.1608  0.2479 -0.2663
    1SOL    HW3 8263   2.477   3.075   3.319  0.6000 -1.0833 -0.2544
    1SOL    MW4 8264   2.502   3.086   3.401 -0.0222  0.0055 -0.2005
    1SOL     OW 8265   2.289   3.238   3.479  0.6177 -0.1592  0.2821
    1SOL    HW2 8266   2.261   3.239   3.571  0.2365  0.4208  0.1617
    1SOL    HW3 8267   2.368   3.184   3.479  1.3545  0.8809  1.1717
    1SOL    MW4 8268   2.296   3.231   3.491  0.6645  0.0548  0.3836
    1SOL     OW 8269   2.244   3.496   3.389 -0.2355 -0.4126 -0.0227
    1SOL    HW2 8270   2.242   3.494   3.293  0.8231 -0.1448 -0.0580
    1SOL    HW3 8271   2.270   3.408   3.414 -1.7458 -0.8527  0.0757
    1SOL    MW4 8272   2.247   3.484   3.379 -0.2949 -0.4354 -0.0145
    1SOL     OW 8273   2.473   3.633   3.535  0.2314 -0.3433  0.4300
    1SOL    HW2 8274   2.479   3.721   3.497 -1.2902 -1.0602 -1.6044
    1SOL    HW3 8275   2.392   3.597   3.499  0.9627 -2.6830  1.0059
    1SOL    MW4 8276   2.463   3.640   3.525  0.1271 -0.7465  0.2375
    1SOL     OW 8277   2.504   3.868   3.373 -0.0912  0.1218  0.8915
    1SOL    HW2 8278   2.573   3.929   3.398  0.9181 -0.8884  0.5618
    1SOL    HW3 8279   2.423   3.912   3.400  0.4927  2.3585 -0.8664
    1SOL    MW4 8280   2.502   3.882   3.380  0.1190  0.2835  0.6161
    1SOL     OW 8281   2.264   3.980   3.466 -0.0923 -0.0022 -0.4070
    1SOL    HW2 8282   2.251   4.075   3.471 -1.2461 -0.1017 -1.2062
    1SOL    HW3 8283   2.178   3.946   3.438  0.6843 -1.1519 -1.4477
    1SOL    MW4 8284   2.251   3.988   3.463 -0.1423 -0.1674 -0.6499
    1SOL     OW 8285   2.267   4.264   3.407 -0.4819 -0.2272 -0.2905
    1SOL    HW2 8286   2.184   4.302   3.438 -0.7129 -0.5934 -0.4561
    1SOL    HW3 8287   2.268   4.283   3.314 -0.3657 -0.2000 -0.2830
    1SOL    MW4 8288   2.256   4.271   3.399 -0.4969 -0.2728 -0.3109
    1SOL     OW 8289   2.508   4.405   3.467 -0.0374  0.0861  0.4041
    1SOL    HW2 8290   2.519   4.394   3.561  1.2030 -0.9861  0.1465
    1SOL    HW3 8291   2.428   4.357   3.446  1.0512 -1.8167  0.5295
    1SOL    MW4 8292   2.499   4.397   3.477  0.2699 -0.3061  0.3867
    1SOL     OW 8293   2.980   0.037   3.382  0.1558  0.2609  0.2322
    1SOL    HW2 8294   2.907   0.090   3.415 -0.7711 -0.8929  0.0773
    1SOL    HW3 8295   2.964   0.030   3.288  0.3877 -0.1004  0.2170
    1SOL    MW4 8296   2.968   0.043   3.374  0.0644  0.0610  0.2098
    1SOL     OW 8297   2.735   0.161   3.480  0.0091  0.4495 -0.4974
    1SOL    HW2 8298   2.716   0.247   3.443 -0.8982 -0.1540 -1.4535
    1SOL    HW3 8299   2.655   0.111   3.465  0.5858 -0.5961 -0.0679
    1SOL    MW4 8300   2.722   0.166   3.473 -0.0343  0.2319 -0.5667
    1SOL     OW 8301   2.702   0.437   3.418  0.0305  0.0478 -0.4059
    1SOL    HW2 8302   2.779   0.471   3.463  0.4837 -0.8624 -0.4829
    1SOL    HW3 8303   2.725   0.442   3.325  0.7537 -1.9775 -0.3584
    1SOL    MW4 8304   2.716   0.442   3.412  0.1857 -0.3395 -0.4101
    1SOL     OW 8305   2.932   0.512   3.534  0.3611  0.4172 -0.1000
    1SOL    HW2 8306   2.929   0.531   3.627 -2.0585 -1.3402  0.2166
    1SOL    HW3 8307   2.929   0.598   3.492  0.2834  1.1653  1.3996
    1SOL    MW4 8308   2.931   0.526   3.540  0.0315  0.2841  0.1397
    1SOL     OW 8309   2.965   0.750   3.379  0.1385 -0.1089  0.2584
    1SOL    HW2 8310   3.034   0.800   3.422  0.1751  1.1387 -1.2187
    1SOL    HW3 8311   2.885   0.801   3.394  0.0253 -0.0597 -0.4936
    1SOL    MW4 8312   2.963   0.763   3.387  0.1283  0.0622 -0.0358
    1SOL     OW 8313   2.715   0.839   3.442  0.1323 -0.1891 -0.3917
    1SOL    HW2 8314   2.704   0.934   3.433  1.3148 -0.1575 -1.6182
    1SOL    HW3 8315   2.702   0.823   3.536  0.1323  1.2085 -0.1293
    1SOL    MW4 8316   2.712   0.850   3.453  0.2882 -0.0005 -0.5190
    1SOL     OW 8317   2.691   1.108   3.397 -0.2426  0.0978 -0.1761
    1SOL    HW2 8318   2.757   1.166   3.436  0.9416 -1.4704  0.2431
    1SOL    HW3 8319   2.695   1.126   3.303  0.9529 -0.1230 -0.1765
    1SOL    MW4 8320   2.700   1.118   3.390  0.0713 -0.1382 -0.1209
    1SOL     OW 8321   2.887   1.298   3.461  0.0308 -0.1239  0.1934
    1SOL    HW2 8322   2.892   1.306   3.557  0.2257  1.1797  0.0827
    1SOL    HW3 8323   2.968   1.253   3.437  0.2203 -0.0093  0.6008
    1SOL    MW4 8324   2.898   1.293   3.471  0.0813  0.0633  0.2327
    1SOL     OW 8325   2.901   1.562   3.318 -0.0474 -0.2381  0.3135
    1SOL    HW2 8326   2.831   1.612   3.360  0.5297 -0.0143  1.0123
    1SOL    HW3 8327   2.902   1.479   3.366  0.3273 -0.1441  0.4751
    1SOL    MW4 8328   2.892   1.557   3.330  0.0782 -0.1962  0.4270
    1SOL     OW 8329   2.721   1.709   3.466 -0.4996  0.3652  0.6149
    1SOL    HW2 8330   2.698   1.792   3.423 -0.5050  0.1190  0.1387
    1SOL    HW3 8331   2.644   1.654   3.454 -0.1162 -0.0571  0.0463
    1SOL    MW4 8332   2.708   1.713   3.459 -0.4497  0.2769  0.4771
    1SOL     OW 8333   2.660   1.948   3.354 -0.3640 -0.2585  0.0776
    1SOL    HW2 8334   2.582   1.978   3.399 -0.9953 -0.7615 -0.6697
    1SOL    HW3 8335   2.637   1.950   3.261 -0.2120 -2.3804 -0.0418
    1SOL    MW4 8336   2.647   1.952   3.347 -0.4272 -0.6050 -0.0365
    1SOL     OW 8337   2.894   2.052   3.464  0.0847 -0.5403 -0.1768
    1SOL    HW2 8338   2.872   2.060   3.557  0.5116 -1.8287  0.0547
    1SOL    HW3 8339   2.812   2.024   3.423 -0.1718  0.2929 -0.2258
    1SOL    MW4 8340   2.880   2.049   3.471  0.1075 -0.6003 -0.1528
    1SOL     OW 8341   2.920   2.316   3.370  0.3044 -0.3637  0.2976
    1SOL    HW2 8342   2.910   2.224   3.395  2.7991 -0.8822 -0.5399
    1SOL    HW3 8343   2.905   2.316   3.275  0.5353  0.0516  0.2631
    1SOL    MW4 8344   2.917   2.304   3.361  0.6640 -0.3774  0.1826
    1SOL     OW 8345   2.667   2.439   3.433 -0.1376 -0.1469  0.3716
    1SOL    HW2 8346   2.649   2.450   3.526 -0.6087 -0.7265  0.3499
    1SOL    HW3 8347   2.755   2.399   3.430  0.9019  2.0677  0.4908
    1SOL    MW4 8348   2.676   2.435   3.445 -0.0627  0.0689  0.3843
    1SOL     OW 8349   2.700   2.707   3.307 -0.6082 -0.2158  0.0241
    1SOL    HW2 8350   2.706   2.620   3.348 -1.1578 -0.2352  0.0568
    1SOL    HW3 8351   2.614   2.740   3.332  0.1386  0.9179  1.1438
    1SOL    MW4 8352   2.690   2.700   3.316 -0.5820 -0.0684  0.1764
    1SOL     OW 8353   2.894   2.833   3.437 -0.5796 -0.2514  0.2215
    1SOL    HW2 8354   2.866   2.858   3.526 -0.2997  0.8626  0.0009
    1SOL    HW3 8355   2.815   2.798   3.396 -1.2562  1.3339  0.1624
    1SOL    MW4 8356   2.880   2.831   3.444 -0.6320  0.1049  0.1848
    1SOL     OW 8357   2.909   3.092   3.336 -0.0412  0.4726  0.2036
    1SOL    HW2 8358   2.911   3.003   3.370  0.6900  0.2685 -0.3725
    1SOL    HW3 8359   2.927   3.083   3.242 -0.3978  1.1828  0.0630
    1SOL    MW4 8360   2.912   3.079   3.328  0.0083  0.5393  0.1092
    1SOL     OW 8361   2.713   3.257   3.434  0.1658  0.1629 -0.0244
    1SOL    HW2 8362   2.732   3.251   3.527 -0.7991 -2.8317  0.0389
    1SOL    HW3 8363   2.783   3.206   3.392 -0.9950 -0.9213 -0.6836
    1SOL    MW4 8364   2.725   3.250   3.441 -0.1147 -0.3750 -0.1028
    1SOL     OW 8365   2.678   3.523   3.391 -0.0823  0.1483 -0.6985
    1SOL    HW2 8366   2.695   3.431   3.409  0.0841  0.4625  0.7797
    1SOL    HW3 8367   2.601   3.544   3.444 -0.0840  0.8813 -0.9843
    1SOL    MW4 8368   2.670   3.514   3.400 -0.0608  0.2861 -0.5412
    1SOL     OW 8369   2.880   3.651   3.491  0.1853  0.3512 -0.1354
    1SOL    HW2 8370   2.859   3.737   3.454 -1.6023  1.0034  2.2900
    1SOL    HW3 8371   2.807   3.596   3.465  0.3912  0.0513 -0.0775
    1SOL    MW4 8372   2.868   3.655   3.482 -0.0234  0.3979  0.1924
    1SOL     OW 8373   2.879   3.895   3.366 -0.3522 -0.2021  0.0546
    1SOL    HW2 8374   2.960   3.920   3.410 -0.5964  0.6265  0.0388
    1SOL    HW3 8375   2.812   3.952   3.404 -0.8935 -0.7589 -0.0651
    1SOL    MW4 8376   2.881   3.906   3.377 -0.4561 -0.1664  0.0370
    1SOL     OW 8377   2.686   4.035   3.484 -0.1954  0.1243 -0.5722
    1SOL    HW2 8378   2.660   4.039   3.576 -3.3560  0.5827 -1.4288
    1SOL    HW3 8379   2.695   4.126   3.457  0.4214 -0.0016 -0.7873
    1SOL    MW4 8380   2.684   4.047   3.493 -0.5307  0.1683 -0.7136
    1SOL     OW 8381   2.741   4.285   3.358  0.5756  0.5650 -0.1850
    1SOL    HW2 8382   2.817   4.326   3.400  0.7324 -0.7570  0.8387
    1SOL    HW3 8383   2.666   4.330   3.396  0.7491 -0.0260  0.8906
    1SOL    MW4 8384   2.741   4.296   3.368  0.6192  0.3123  0.0920
    1SOL     OW 8385   2.942   4.443   3.474 -0.7329 -0.4632 -0.1721
    1SOL    HW2 8386   2.948   4.444   3.570 -0.8553 -1.0312 -0.1593
    1SOL    HW3 8387   2.943   4.536   3.449  3.8686 -0.3552  0.0912
    1SOL    MW4 8388   2.943   4.456   3.483 -0.1419 -0.5240 -0.1357
    1SOL     OW 8389   3.441   4.659   3.354 -0.2066  0.1810 -0.0188
    1SOL    HW2 8390   3.366   4.706   3.390  0.0938  0.1654  0.6322
    1SOL    HW3 8391   3.420   4.649   3.261 -0.5638  1.0357 -0.0387
    1SOL    MW4 8392   3.428   4.664   3.347 -0.2143  0.2917  0.0644
    1SOL     OW 8393   3.232   0.110   3.495  0.0752 -0.1333  0.2937
    1SOL    HW2 8394   3.211   0.197   3.461 -0.3470 -0.1451  0.5224
    1SOL    HW3 8395   3.161   0.054   3.465 -0.3613 -0.1245  1.2740
    1SOL    MW4 8396   3.220   0.114   3.487 -0.0384 -0.1337  0.4535
    1SOL     OW 8397   3.169   0.376   3.451 -0.0858  0.2701 -0.8477
    1SOL    HW2 8398   3.088   0.413   3.487  0.2706  0.6042 -0.3881
    1SOL    HW3 8399   3.159   0.383   3.356  0.1595  1.9087 -0.7591
    1SOL    MW4 8400   3.157   0.382   3.444 -0.0064  0.5304 -0.7753
    1SOL     OW 8401   3.393   0.522   3.515  0.2599 -0.1349  0.1417
    1SOL    HW2 8402   3.398   0.526   3.611  0.5890  0.8322  0.0858
    1SOL    HW3 8403   3.310   0.478   3.497 -0.7543  1.4566  0.8559
    1SOL    MW4 8404   3.383   0.517   3.525  0.1695  0.2027  0.2284
    1SOL     OW 8405   3.371   0.785   3.400 -0.0511 -0.1641 -0.5367
    1SOL    HW2 8406   3.454   0.822   3.430  0.3760 -1.2339 -0.3374
    1SOL    HW3 8407   3.376   0.692   3.426 -1.4012 -0.1926 -0.3248
    1SOL    MW4 8408   3.383   0.777   3.408 -0.1729 -0.3090 -0.4828
    1SOL     OW 8409   3.143   0.913   3.511  0.5015  0.1372 -0.3065
    1SOL    HW2 8410   3.125   0.995   3.466 -1.2578 -0.6725 -1.0898
    1SOL    HW3 8411   3.230   0.887   3.479  0.3273  0.8156 -1.3500
    1SOL    MW4 8412   3.152   0.920   3.501  0.2465  0.1199 -0.5474
    1SOL     OW 8413   3.102   1.152   3.370 -0.1455  0.1524 -0.1709
    1SOL    HW2 8414   3.187   1.193   3.385  0.0551 -0.2693 -0.1740
    1SOL    HW3 8415   3.095   1.145   3.275 -0.1854  0.1905 -0.1709
    1SOL    MW4 8416   3.112   1.157   3.359 -0.1245  0.1018 -0.1714
    1SOL     OW 8417   3.340   1.302   3.435  0.3374  0.0397  0.4384
    1SOL    HW2 8418   3.412   1.257   3.391 -0.1287 -1.2149  0.9500
    1SOL    HW3 8419   3.346   1.393   3.404 -0.3415 -0.9441 -2.6735
    1SOL    MW4 8420   3.350   1.308   3.425  0.1864 -0.2557  0.0954
    1SOL     OW 8421   3.358   1.562   3.375  0.4770 -0.0778 -0.1385
    1SOL    HW2 8422   3.441   1.607   3.390 -0.0901  1.1942 -0.7449
    1SOL    HW3 8423   3.294   1.611   3.426 -0.2876  0.3101 -1.4371
    1SOL    MW4 8424   3.361   1.574   3.384  0.3016  0.1411 -0.3901
    1SOL     OW 8425   3.115   1.690   3.468  0.8625 -0.0375 -0.0060
    1SOL    HW2 8426   3.120   1.785   3.453 -1.7506  0.1877  0.3207
    1SOL    HW3 8427   3.042   1.661   3.414 -1.1682 -1.1288  3.1471
    1SOL    MW4 8428   3.106   1.699   3.459  0.2499 -0.1519  0.4532
    1SOL     OW 8429   3.138   1.951   3.386 -0.1581  0.3621 -0.0078
    1SOL    HW2 8430   3.056   1.993   3.412 -1.5764 -1.4737 -1.3134
    1SOL    HW3 8431   3.134   1.948   3.290  0.3576 -1.7582  0.0082
    1SOL    MW4 8432   3.127   1.956   3.377 -0.2773 -0.1599 -0.1779
    1SOL     OW 8433   3.352   2.110   3.481 -0.3777  0.2297 -0.4216
    1SOL    HW2 8434   3.340   2.192   3.435  2.1245  0.4721 -0.7510
    1SOL    HW3 8435   3.278   2.056   3.454 -0.2528  1.1988 -2.8805
    1SOL    MW4 8436   3.341   2.113   3.471 -0.0310  0.3898 -0.7896
    1SOL     OW 8437   3.320   2.334   3.342  0.3778  0.3190  0.3982
    1SOL    HW2 8438   3.403   2.358   3.384  0.2357  1.0737  0.2493
    1SOL    HW3 8439   3.253   2.374   3.398  0.1166 -0.1616  0.4323
    1SOL    MW4 8440   3.323   2.342   3.355  0.3245  0.3550  0.3831
    1SOL     OW 8441   3.133   2.454   3.479 -0.4024 -0.2483  0.6520
    1SOL    HW2 8442   3.128   2.543   3.445 -0.3201 -0.4506  0.1020
    1SOL    HW3 8443   3.052   2.413   3.450 -1.0219  0.0103  1.9688
    1SOL    MW4 8444   3.122   2.460   3.471 -0.4730 -0.2408  0.7529
    1SOL     OW 8445   3.130   2.692   3.359  0.3405  0.3805 -0.1793
    1SOL    HW2 8446   3.192   2.755   3.396  0.3597  0.1439  0.1927
    1SOL    HW3 8447   3.045   2.721   3.390  0.4182 -0.1897  0.5947
    1SOL    MW4 8448   3.127   2.704   3.368  0.3531  0.2742 -0.0279
    1SOL     OW 8449   3.332   2.858   3.500  0.3217 -0.5199  0.0627
    1SOL    HW2 8450   3.386   2.791   3.458  0.7889 -0.2483  0.2354
    1SOL    HW3 8451   3.343   2.935   3.445  2.0813  0.2653  1.4758
    1SOL    MW4 8452   3.340   2.859   3.487  0.6154 -0.3805  0.2718
    1SOL     OW 8453   3.350   3.088   3.336  0.1419 -0.2252 -0.1716
    1SOL    HW2 8454   3.429   3.117   3.381  0.0952  0.1472 -0.3297
    1SOL    HW3 8455   3.279   3.139   3.376  0.2433  0.9491 -1.4577
    1SOL    MW4 8456   3.351   3.099   3.347  0.1490 -0.0212 -0.3622
    1SOL     OW 8457   3.133   3.225   3.458  0.6140  0.5391 -0.6641
    1SOL    HW2 8458   3.113   3.316   3.436  0.5566  0.5120 -0.7258
    1SOL    HW3 8459   3.052   3.178   3.437  0.8688  0.3721 -1.2769
    1SOL    MW4 8460   3.119   3.231   3.452  0.6399  0.5133 -0.7532
    1SOL     OW 8461   3.084   3.508   3.384  0.2927  0.0030 -0.1392
    1SOL    HW2 8462   3.011   3.562   3.415  0.6302  0.6132 -0.3869
    1SOL    HW3 8463   3.078   3.513   3.289 -0.1868 -1.1044 -0.1709
    1SOL    MW4 8464   3.073   3.516   3.376  0.2739 -0.0625 -0.1757
    1SOL     OW 8465   3.319   3.594   3.506  0.0934 -0.2110 -0.3451
    1SOL    HW2 8466   3.342   3.677   3.464 -2.5064  0.3111 -0.7817
    1SOL    HW3 8467   3.240   3.565   3.462  0.0978 -2.1526  0.8617
    1SOL    MW4 8468   3.312   3.601   3.495 -0.2489 -0.3982 -0.2437
    1SOL     OW 8469   3.353   3.849   3.377 -0.1295 -0.0784 -0.5412
    1SOL    HW2 8470   3.427   3.907   3.396 -0.3757  0.5287 -1.4279
    1SOL    HW3 8471   3.278   3.890   3.419  0.3145 -1.5358  1.7585
    1SOL    MW4 8472   3.353   3.862   3.385 -0.1032 -0.1905 -0.3548
    1SOL     OW 8473   3.104   4.029   3.476 -0.2066  0.2260  0.1504
    1SOL    HW2 8474   3.121   4.037   3.570 -0.8760  1.7145  0.1623
    1SOL    HW3 8475   3.126   4.115   3.440  0.7159 -0.5399 -1.1727
    1SOL    MW4 8476   3.109   4.041   3.484 -0.1733  0.3209 -0.0226
    1SOL     OW 8477   3.144   4.283   3.392  0.2282 -0.2546  0.0801
    1SOL    HW2 8478   3.226   4.325   3.415  1.0651 -2.4390  1.2344
    1SOL    HW3 8479   3.076   4.343   3.423  1.3818  0.9322  0.3187
    1SOL    MW4 8480   3.146   4.296   3.399  0.4907 -0.3858  0.2637
    1SOL     OW 8481   3.378   4.409   3.458 -0.5213 -0.0886  0.0898
    1SOL    HW2 8482   3.386   4.434   3.550 -1.1527  0.1585  0.0831
    1SOL    HW3 8483   3.401   4.489   3.410 -1.9105  0.3231  0.0620
    1SOL    MW4 8484   3.382   4.423   3.464 -0.7875 -0.0010  0.0851
    1SOL     OW 8485   3.833   4.663   3.432  0.5667 -0.1922 -0.1502
    1SOL    HW2 8486   3.770   4.730   3.456  1.3492  0.8946 -1.0517
    1SOL    HW3 8487   3.827   4.658   3.336  1.3723 -0.5449 -0.1859
    1SOL    MW4 8488   3.824   4.671   3.423  0.7763 -0.0954 -0.2739
    1SOL     OW 8489   3.638   0.161   3.524  0.1237 -0.1302  0.0000
    1SOL    HW2 8490   3.645   0.253   3.496 -0.3880  0.2881  1.2145
    1SOL    HW3 8491   3.575   0.123   3.462 -0.9877  0.7850  0.5384
    1SOL    MW4 8492   3.630   0.168   3.512 -0.0904  0.0457  0.2313
    1SOL     OW 8493   3.641   0.410   3.419 -0.1054 -0.0012  0.4225
    1SOL    HW2 8494   3.710   0.463   3.460 -0.6989  0.6148  0.6262
    1SOL    HW3 8495   3.559   0.445   3.453 -0.6356  0.7336 -1.4956
    1SOL    MW4 8496   3.640   0.421   3.429 -0.2537  0.1770  0.1962
    1SOL     OW 8497   3.855   0.577   3.510  0.2098 -0.0475 -0.1842
    1SOL    HW2 8498   3.856   0.552   3.603 -1.2062 -0.9011 -0.3875
    1SOL    HW3 8499   3.918   0.518   3.469  0.2714 -0.1861  0.1050
    1SOL    MW4 8500   3.864   0.566   3.517  0.0312 -0.1784 -0.1729
    1SOL     OW 8501   3.851   0.828   3.404  0.5293  0.2118  0.0993
    1SOL    HW2 8502   3.934   0.872   3.423  0.4368  0.5535 -0.2699
    1SOL    HW3 8503   3.860   0.741   3.442  1.0143  0.2867  0.1565
    1SOL    MW4 8504   3.863   0.822   3.412  0.5813  0.2668  0.0579
    1SOL     OW 8505   3.603   0.924   3.466  0.4258 -0.0217 -0.7288
    1SOL    HW2 8506   3.604   0.944   3.560  0.5361  1.3113 -1.0090
    1SOL    HW3 8507   3.691   0.891   3.448  0.5755  0.2379 -0.4744
    1SOL    MW4 8508   3.615   0.923   3.476  0.4601  0.1885 -0.7322
    1SOL     OW 8509   3.579   1.173   3.330  0.3788 -0.2293  0.0219
    1SOL    HW2 8510   3.581   1.085   3.367 -0.1547 -0.3663 -0.2737
    1SOL    HW3 8511   3.576   1.159   3.235 -1.0522  0.0924  0.0153
    1SOL    MW4 8512   3.579   1.160   3.322  0.1197 -0.2049 -0.0181
    1SOL     OW 8513   3.767   1.331   3.449 -0.0243 -0.3018 -0.0805
    1SOL    HW2 8514   3.758   1.315   3.543  1.2356 -2.5457 -0.2978
    1SOL    HW3 8515   3.702   1.273   3.409  0.1487 -0.1108 -0.6378
    1SOL    MW4 8516   3.757   1.321   3.456  0.1645 -0.5727 -0.1826
    1SOL     OW 8517   3.800   1.588   3.366  0.0191  0.2668  0.0912
    1SOL    HW2 8518   3.889   1.609   3.393  0.0184  1.0559 -0.4886
    1SOL    HW3 8519   3.784   1.500   3.400  1.4203 -0.3261 -0.7874
    1SOL    MW4 8520   3.809   1.579   3.374  0.2036  0.2928 -0.1013
    1SOL     OW 8521   3.565   1.712   3.471 -0.1610 -0.2115 -0.1338
    1SOL    HW2 8522   3.544   1.796   3.431 -1.4171 -0.1502  0.6060
    1SOL    HW3 8523   3.650   1.688   3.435  0.6580  1.8340  0.3886
    1SOL    MW4 8524   3.573   1.720   3.461 -0.2186  0.0664  0.0329
    1SOL     OW 8525   3.558   1.965   3.343  0.7937  0.7422 -0.0895
    1SOL    HW2 8526   3.637   1.999   3.385 -0.3560  0.7391  2.1581
    1SOL    HW3 8527   3.486   2.008   3.389 -0.5341  0.1305 -1.5609
    1SOL    MW4 8528   3.559   1.975   3.355  0.4666  0.6610  0.0131
    1SOL     OW 8529   3.777   2.064   3.479  0.0867  0.0565 -0.2314
    1SOL    HW2 8530   3.770   2.060   3.574  0.5381  0.0593 -0.1930
    1SOL    HW3 8531   3.848   2.003   3.458 -1.1511 -1.2433 -0.7259
    1SOL    MW4 8532   3.786   2.056   3.488 -0.0169 -0.1147 -0.2916
    1SOL     OW 8533   3.815   2.318   3.355  0.0122 -0.1225  0.0531
    1SOL    HW2 8534   3.878   2.370   3.405 -0.0100 -1.2857  1.3406
    1SOL    HW3 8535   3.807   2.236   3.405 -1.1966 -0.6887 -1.0335
    1SOL    MW4 8536   3.822   2.314   3.368 -0.1502 -0.3505  0.0799
    1SOL     OW 8537   3.563   2.395   3.463  0.1208 -0.5787  0.1208
    1SOL    HW2 8538   3.543   2.485   3.438 -0.3157 -0.9793 -0.9897
    1SOL    HW3 8539   3.643   2.374   3.414  0.7290 -0.5037  1.0660
    1SOL    MW4 8540   3.571   2.404   3.453  0.1435 -0.6216  0.0989
    1SOL     OW 8541   3.516   2.675   3.398 -0.1592 -0.8789 -0.0068
    1SOL    HW2 8542   3.581   2.739   3.427  0.3427 -1.4469  0.1205
    1SOL    HW3 8543   3.523   2.677   3.302 -0.4532 -0.4190 -0.0178
    1SOL    MW4 8544   3.526   2.684   3.389 -0.1321 -0.8929  0.0083
    1SOL     OW 8545   3.731   2.834   3.461  0.5176 -0.1387  0.0833
    1SOL    HW2 8546   3.738   2.840   3.556 -0.1841  0.0800  0.1201
    1SOL    HW3 8547   3.753   2.921   3.429 -1.0686  0.2924  0.1472
    1SOL    MW4 8548   3.735   2.846   3.469  0.2155 -0.0529  0.0963
    1SOL     OW 8549   3.799   3.087   3.351  0.0593 -0.6140  1.0292
    1SOL    HW2 8550   3.863   3.151   3.382 -0.0498 -1.0646  2.2223
    1SOL    HW3 8551   3.807   3.089   3.256  1.0691  0.1360  1.1210
    1SOL    MW4 8552   3.809   3.096   3.343  0.1781 -0.5746  1.1988
    1SOL     OW 8553   3.585   3.223   3.463  0.2144  0.1769 -0.6971
    1SOL    HW2 8554   3.589   3.313   3.431  1.3155  0.3043 -0.2103
    1SOL    HW3 8555   3.661   3.180   3.426  0.6726 -0.0742  0.5080
    1SOL    MW4 8556   3.595   3.229   3.454  0.4201  0.1607 -0.4740
    1SOL     OW 8557   3.574   3.496   3.402 -0.1221  0.3709 -0.5228
    1SOL    HW2 8558   3.491   3.531   3.434 -0.0524  1.0845 -1.1261
    1SOL    HW3 8559   3.572   3.510   3.308  0.1518 -0.7399 -0.7014
    1SOL    MW4 8560   3.563   3.502   3.394 -0.0770  0.3183 -0.6258
    1SOL     OW 8561   3.803   3.617   3.501 -0.1754  0.1145 -0.3509
    1SOL    HW2 8562   3.810   3.638   3.594 -0.4108 -0.1848 -0.2634
    1SOL    HW3 8563   3.723   3.564   3.495  0.7526 -1.2933 -0.4679
    1SOL    MW4 8564   3.793   3.612   3.512 -0.0842 -0.1104 -0.3548
    1SOL     OW 8565   3.802   3.853   3.369  0.2641  0.3711 -0.1673
    1SOL    HW2 8566   3.720   3.897   3.389 -1.0170 -1.7696 -0.5554
    1SOL    HW3 8567   3.794   3.767   3.410  1.1976 -0.8469 -2.4546
    1SOL    MW4 8568   3.790   3.848   3.377  0.2184 -0.0720 -0.5202
    1SOL     OW 8569   3.586   3.971   3.477  0.0442  0.0223 -0.1844
    1SOL    HW2 8570   3.586   3.965   3.572  1.1090  1.1528 -0.0951
    1SOL    HW3 8571   3.578   4.065   3.459  0.8183 -0.0941 -1.1852
    1SOL    MW4 8572   3.585   3.983   3.487  0.2866  0.1562 -0.3045
    1SOL     OW 8573   3.582   4.249   3.390 -0.3190 -0.3393  0.0446
    1SOL    HW2 8574   3.511   4.312   3.401  0.8787  1.1599 -0.7660
    1SOL    HW3 8575   3.602   4.252   3.296 -0.0474 -1.7183  0.0491
    1SOL    MW4 8576   3.575   4.257   3.379 -0.1252 -0.3228 -0.0615
    1SOL     OW 8577   3.830   4.387   3.500 -0.1571  0.1217 -0.0345
    1SOL    HW2 8578   3.750   4.341   3.474  0.1572 -1.1110  1.0992
    1SOL    HW3 8579   3.816   4.478   3.472 -2.6708  0.2981  1.6147
    1SOL    MW4 8580   3.817   4.393   3.493 -0.4473 -0.0181  0.3326
    1SOL     OW 8581   4.263   4.629   3.443 -0.7584 -0.3973  0.2232
    1SOL    HW2 8582   4.252   4.545   3.487 -0.6811  0.0161  1.0387
    1SOL    HW3 8583   4.356   4.650   3.456 -0.6890 -0.3685 -0.3124
    1SOL    MW4 8584   4.274   4.620   3.450 -0.7381 -0.3395  0.2599
    1SOL     OW 8585   4.059   0.143   3.498 -0.4200 -0.2467 -0.1155
    1SOL    HW2 8586   4.140   0.093   3.486  0.4398  0.8642  1.0031
    1SOL    HW3 8587   3.993   0.092   3.451  1.1904 -0.4188 -2.2970
    1SOL    MW4 8588   4.061   0.130   3.490 -0.0939 -0.1229 -0.2556
    1SOL     OW 8589   4.038   0.409   3.400 -0.0909 -0.2690 -0.2380
    1SOL    HW2 8590   4.035   0.318   3.432 -0.3090  0.2127  1.1591
    1SOL    HW3 8591   4.042   0.401   3.305  2.1732 -1.7846 -0.0527
    1SOL    MW4 8592   4.038   0.396   3.392  0.1798 -0.4054 -0.0291
    1SOL     OW 8593   4.291   0.515   3.493 -0.5658  0.1131  0.3571
    1SOL    HW2 8594   4.307   0.602   3.456  0.3558 -0.2800 -0.1891
    1SOL    HW3 8595   4.211   0.485   3.451 -1.2499  0.9483  1.0203
    1SOL    MW4 8596   4.283   0.523   3.483 -0.5345  0.1714  0.3726
    1SOL     OW 8597   4.299   0.787   3.390  0.1495 -0.5634  0.3976
    1SOL    HW2 8598   4.386   0.826   3.391  0.0345 -0.2270 -1.2533
    1SOL    HW3 8599   4.281   0.769   3.298 -1.6435 -0.3724  0.6814
    1SOL    MW4 8600   4.308   0.790   3.378 -0.1020 -0.4938  0.2172
    1SOL     OW 8601   4.086   0.934   3.502 -0.1088 -0.1357 -0.2783
    1SOL    HW2 8602   4.074   1.021   3.466  0.9045  0.5276  0.9519
    1SOL    HW3 8603   4.168   0.903   3.463  0.1496 -0.0606  0.2051
    1SOL    MW4 8604   4.095   0.941   3.492  0.0587 -0.0382 -0.0522
    1SOL     OW 8605   4.027   1.190   3.405  0.6564 -0.1860  0.8159
    1SOL    HW2 8606   4.103   1.237   3.440  1.3047 -0.9415  0.4597
    1SOL    HW3 8607   3.951   1.236   3.440  1.2759  1.2880  0.2484
    1SOL    MW4 8608   4.027   1.202   3.414  0.8230 -0.0912  0.6940
    1SOL     OW 8609   4.261   1.291   3.509 -0.3260  0.3870 -0.2329
    1SOL    HW2 8610   4.277   1.383   3.486 -0.2077 -0.0791 -2.1487
    1SOL    HW3 8611   4.328   1.242   3.461 -0.7741 -0.7543  0.2788
    1SOL    MW4 8612   4.272   1.297   3.499 -0.3695  0.1749 -0.4182
    1SOL     OW 8613   4.285   1.554   3.407 -0.2294 -0.5741  0.3185
    1SOL    HW2 8614   4.204   1.603   3.418 -0.3072 -0.6456  0.0582
    1SOL    HW3 8615   4.299   1.550   3.312 -0.9145 -2.2001  0.2678
    1SOL    MW4 8616   4.276   1.560   3.396 -0.3309 -0.7981  0.2775
    1SOL     OW 8617   4.033   1.672   3.503 -0.2790 -0.0141  0.3750
    1SOL    HW2 8618   4.034   1.679   3.599 -0.9321  0.8586  0.3219
    1SOL    HW3 8619   4.032   1.763   3.473  0.1332 -0.2860 -0.4672
    1SOL    MW4 8620   4.033   1.685   3.512 -0.3104  0.0651  0.2568
    1SOL     OW 8621   4.015   1.920   3.399  0.1388  0.3999  0.4349
    1SOL    HW2 8622   4.082   1.972   3.444 -0.9791  1.7690  0.5360
    1SOL    HW3 8623   4.033   1.935   3.306 -0.7167  1.6939  0.4642
    1SOL    MW4 8624   4.027   1.929   3.392 -0.1221  0.7513  0.4520
    1SOL     OW 8625   4.268   2.054   3.465 -0.0451  0.1311  0.2199
    1SOL    HW2 8626   4.269   2.147   3.442 -0.5348 -0.0537 -0.5442
    1SOL    HW3 8627   4.347   2.019   3.424  0.7949  0.4520  1.5364
    1SOL    MW4 8628   4.279   2.062   3.457  0.0005  0.1493  0.2930
    1SOL     OW 8629   4.247   2.330   3.402 -0.4582  0.1313  0.4931
    1SOL    HW2 8630   4.162   2.368   3.425 -1.8038 -2.5310  0.1156
    1SOL    HW3 8631   4.245   2.323   3.306 -0.1325 -0.6573  0.5396
    1SOL    MW4 8632   4.236   2.334   3.392 -0.5932 -0.3240  0.4492
    1SOL     OW 8633   4.019   2.497   3.454  0.2385 -0.1173  0.1350
    1SOL    HW2 8634   4.007   2.508   3.548  0.1954  0.6256  0.0439
    1SOL    HW3 8635   4.019   2.586   3.419  1.1602 -0.3476 -0.4579
    1SOL    MW4 8636   4.017   2.510   3.462  0.3548 -0.0498  0.0451
    1SOL     OW 8637   4.000   2.748   3.356  0.1025  0.2972  0.1749
    1SOL    HW2 8638   4.057   2.806   3.406  0.0342  0.4722  0.0513
    1SOL    HW3 8639   3.912   2.768   3.386  0.0871  0.1781  0.2115
    1SOL    MW4 8640   3.996   2.758   3.366  0.0916  0.3045  0.1633
    1SOL     OW 8641   4.232   2.862   3.497 -0.0058 -0.1034  0.2534
    1SOL    HW2 8642   4.216   2.859   3.592  1.2499 -2.3855  0.4284
    1SOL    HW3 8643   4.311   2.809   3.484 -0.0551  0.3339 -2.0531
    1SOL    MW4 8644   4.240   2.855   3.508  0.1540 -0.3467 -0.0279
    1SOL     OW 8645   4.244   3.132   3.394  0.0830 -0.1235 -0.0304
    1SOL    HW2 8646   4.250   3.045   3.433  0.6855  0.1195  0.4303
    1SOL    HW3 8647   4.229   3.116   3.301 -0.9180 -0.7102  0.2284
    1SOL    MW4 8648   4.243   3.119   3.387  0.0305 -0.1688  0.0646
    1SOL     OW 8649   3.989   3.241   3.450  0.2511 -0.0631  0.1322
    1SOL    HW2 8650   3.992   3.329   3.411  0.6277 -1.1908 -2.4849
    1SOL    HW3 8651   4.068   3.198   3.418 -0.8649 -1.9670 -0.1387
    1SOL    MW4 8652   4.000   3.247   3.440  0.1538 -0.4630 -0.2487
    1SOL     OW 8653   4.042   3.496   3.392  0.8872 -0.3235 -0.7430
    1SOL    HW2 8654   4.119   3.514   3.446  0.4972  1.3201 -0.7157
    1SOL    HW3 8655   3.972   3.548   3.432 -0.2824 -1.9242 -0.6674
    1SOL    MW4 8656   4.042   3.505   3.404  0.6809 -0.3181 -0.7293
    1SOL     OW 8657   4.253   3.610   3.519  0.3226 -0.2116 -0.2946
    1SOL    HW2 8658   4.280   3.607   3.611  1.4567 -0.7852 -0.6298
    1SOL    HW3 8659   4.216   3.698   3.507  1.9989  0.5836  0.2195
    1SOL    MW4 8660   4.252   3.621   3.530  0.6938 -0.1824 -0.2706
    1SOL     OW 8661   4.210   3.876   3.421 -0.2026 -0.2220  0.1509
    1SOL    HW2 8662   4.294   3.894   3.462  0.6322 -0.6973 -1.3242
    1SOL    HW3 8663   4.226   3.884   3.327 -2.3546  2.0446 -0.0782
    1SOL    MW4 8664   4.223   3.879   3.414 -0.3762  0.0145 -0.0737
    1SOL     OW 8665   3.987   3.970   3.535 -0.5205  0.3173 -0.0822
    1SOL    HW2 8666   4.071   3.945   3.497 -0.6092  0.7957 -0.6085
    1SOL    HW3 8667   3.922   3.928   3.478 -0.6383 -0.0646  0.3322
    1SOL    MW4 8668   3.989   3.961   3.522 -0.5476  0.3302 -0.0968
    1SOL     OW 8669   4.036   4.202   3.409 -0.1418 -0.2527  0.2998
    1SOL    HW2 8670   4.022   4.119   3.455 -0.1448 -0.4217 -0.0063
    1SOL    HW3 8671   3.972   4.262   3.446  2.3538  0.7085  3.2878
    1SOL    MW4 8672   4.026   4.199   3.420  0.1869 -0.1483  0.6535
    1SOL     OW 8673   4.247   4.358   3.518  0.8363 -0.1528 -0.1905
    1SOL    HW2 8674   4.245   4.345   3.613  1.5216  0.1147 -0.1349
    1SOL    HW3 8675   4.186   4.292   3.484 -1.5611  1.6039  0.6005
    1SOL    MW4 8676   4.239   4.347   3.526  0.6108  0.1140 -0.0789
    1SOL     OW 8677   0.253   4.638   3.917 -0.3500 -0.3240  0.0760
    1SOL    HW2 8678   0.264   4.668   4.007  1.7084  0.3406 -0.3615
    1SOL    HW3 8679   0.170   4.676   3.889  0.4346  1.9648  0.7259
    1SOL    MW4 8680   0.244   4.647   3.925  0.0250  0.0653  0.1037
    1SOL     OW 8681   0.009   0.096   3.815  0.2354  0.1254  0.3218
    1SOL    HW2 8682  -0.005   0.188   3.840  1.0237 -0.1431  1.8006
    1SOL    HW3 8683   0.016   0.099   3.720 -1.9452  1.2976  0.1642
    1SOL    MW4 8684   0.008   0.109   3.806  0.0515  0.2446  0.4959
    1SOL     OW 8685   4.472   0.352   3.888  0.2828 -0.4768 -0.2509
    1SOL    HW2 8686   4.393   0.406   3.879  0.1988 -0.1912  2.0262
    1SOL    HW3 8687   4.537   0.397   3.834 -1.0068 -0.5918 -1.9895
    1SOL    MW4 8688   4.470   0.365   3.879  0.1016 -0.4543 -0.1798
    1SOL     OW 8689   0.197   0.523   3.791 -0.7153  0.3434 -0.2128
    1SOL    HW2 8690   0.224   0.613   3.812 -0.1229  0.0405  0.3440
    1SOL    HW3 8691   0.210   0.516   3.697  2.6892 -0.2677  0.2217
    1SOL    MW4 8692   0.202   0.534   3.782 -0.1879  0.2228 -0.0820
    1SOL     OW 8693   0.247   0.773   3.858 -0.2281 -0.0277 -0.0323
    1SOL    HW2 8694   0.161   0.806   3.832 -0.2401  0.2465  0.3521
    1SOL    HW3 8695   0.237   0.749   3.950  0.1292  0.0870  0.0401
    1SOL    MW4 8696   0.235   0.774   3.867 -0.1825  0.0236  0.0281
    1SOL     OW 8697   4.483   1.148   3.852 -0.0946  0.4069  0.6141
    1SOL    HW2 8698   4.405   1.184   3.811  0.3944  1.1553  0.3350
    1SOL    HW3 8699   4.554   1.205   3.823  0.6013 -0.4375  0.6350
    1SOL    MW4 8700   4.482   1.160   3.843  0.0617  0.3942  0.5803
    1SOL     OW 8701   2.970   4.402   4.213 -0.2373  0.7488 -0.0705
    1SOL    HW2 8702   3.023   4.358   4.148 -0.0671 -0.9140  1.1724
    1SOL    HW3 8703   2.995   4.362   4.297 -1.5233  1.7907  0.8435
    1SOL    MW4 8704   2.980   4.391   4.216 -0.3848  0.6671  0.2136
    1SOL     OW 8705   0.193   1.306   3.745 -0.0500  0.4143 -0.2002
    1SOL    HW2 8706   0.207   1.317   3.651  0.6041  0.2733 -0.1258
    1SOL    HW3 8707   0.182   1.396   3.778 -1.3665  0.3977 -0.5616
    1SOL    MW4 8708   0.194   1.320   3.737 -0.1374  0.3935 -0.2382
    1SOL     OW 8709   0.202   1.572   3.854  0.2455 -0.3436  0.0297
    1SOL    HW2 8710   0.178   1.547   3.943  0.6953 -1.5358 -0.1783
    1SOL    HW3 8711   0.130   1.629   3.826 -0.1017 -0.2857  1.0041
    1SOL    MW4 8712   0.189   1.576   3.862  0.2590 -0.4933  0.1307
    1SOL     OW 8713   4.488   1.729   3.772  0.2541 -0.4309  0.3781
    1SOL    HW2 8714   4.493   1.822   3.792 -1.1915 -0.1865 -0.3177
    1SOL    HW3 8715   4.502   1.724   3.677 -1.0696 -0.7695  0.1863
    1SOL    MW4 8716   4.491   1.741   3.762 -0.1111 -0.4433  0.2611
    1SOL     OW 8717   4.487   2.007   3.880 -0.2261  0.0397  0.5673
    1SOL    HW2 8718   4.482   2.001   3.975 -1.9149 -0.7480  0.4499
    1SOL    HW3 8719   4.400   2.036   3.852  0.1781  0.0591 -0.7409
    1SOL    MW4 8720   4.475   2.010   3.889 -0.3958 -0.0615  0.3793
    1SOL     OW 8721   0.210   2.095   3.744  0.0574  0.4535 -0.3889
    1SOL    HW2 8722   0.203   2.191   3.748 -1.1228  0.4317 -1.3284
    1SOL    HW3 8723   0.124   2.064   3.770 -0.2342 -0.2724 -2.1324
    1SOL    MW4 8724   0.198   2.104   3.748 -0.1368  0.3548 -0.7427
    1SOL     OW 8725   0.231   2.352   3.831 -0.2914 -0.4448  0.0721
    1SOL    HW2 8726   0.240   2.325   3.923 -1.7997 -0.7647  0.1304
    1SOL    HW3 8727   0.143   2.390   3.826 -0.0614 -0.0634 -1.1590
    1SOL    MW4 8728   0.221   2.354   3.843 -0.4600 -0.4365 -0.0827
    1SOL     OW 8729   4.478   2.468   3.766  0.4162  0.5665  0.2876
    1SOL    HW2 8730   4.393   2.425   3.771  0.5519 -0.1638 -2.4953
    1SOL    HW3 8731   4.463   2.556   3.801 -1.3218  0.2446  0.3969
    1SOL    MW4 8732   4.465   2.474   3.771  0.2050  0.4275 -0.0651
    1SOL     OW 8733   4.433   2.747   3.846 -0.0197  0.2787 -0.4744
    1SOL    HW2 8734   4.438   2.723   3.939  0.8204 -2.9494 -1.2807
    1SOL    HW3 8735   4.517   2.791   3.829 -0.0430  0.6014  0.2032
    1SOL    MW4 8736   4.445   2.750   3.856  0.0877 -0.1049 -0.4916
    1SOL     OW 8737   0.177   2.893   3.801  0.0250 -0.5011 -0.0017
    1SOL    HW2 8738   0.258   2.852   3.833  0.1036 -0.7172 -0.4695
    1SOL    HW3 8739   0.180   2.881   3.706 -0.0095  0.4863 -0.1373
    1SOL    MW4 8740   0.188   2.886   3.793  0.0308 -0.3996 -0.0813
    1SOL     OW 8741   0.189   3.145   3.921  0.3486 -0.3891  0.2073
    1SOL    HW2 8742   0.212   3.134   4.013 -0.1775 -1.1956  0.2412
    1SOL    HW3 8743   0.185   3.057   3.885 -1.3098 -0.2010 -0.1312
    1SOL    MW4 8744   0.191   3.132   3.928  0.0604 -0.4706  0.1671
    1SOL     OW 8745   4.453   3.235   3.788  0.2146  0.1139  0.1647
    1SOL    HW2 8746   4.528   3.196   3.833 -0.3174 -1.1433  0.0056
    1SOL    HW3 8747   4.482   3.243   3.697 -0.4100 -1.9756 -0.2500
    1SOL    MW4 8748   4.467   3.231   3.782  0.0620 -0.3276  0.0892
    1SOL     OW 8749   4.486   3.461   3.940 -0.1858  0.2304  0.2337
    1SOL    HW2 8750   4.564   3.506   3.908 -0.2468  0.5331  0.5051
    1SOL    HW3 8751   4.477   3.384   3.884  1.4401 -0.8849  1.4798
    1SOL    MW4 8752   4.495   3.457   3.928  0.0205  0.1235  0.4339
    1SOL     OW 8753   0.191   3.609   3.827  0.1402 -0.4587  0.0723
    1SOL    HW2 8754   0.275   3.578   3.861  1.0649  1.5221 -0.3864
    1SOL    HW3 8755   0.168   3.683   3.882 -0.1307  0.5045 -1.3133
    1SOL    MW4 8756   0.199   3.614   3.838  0.2265 -0.0703 -0.1712
    1SOL     OW 8757   0.196   3.873   3.938  0.1378  0.0041 -0.2845
    1SOL    HW2 8758   0.201   3.871   4.033  1.5543 -0.0953 -0.3575
    1SOL    HW3 8759   0.276   3.917   3.910 -0.4118  0.3117 -1.4231
    1SOL    MW4 8760   0.207   3.879   3.947  0.2522  0.0315 -0.4444
    1SOL     OW 8761   4.466   3.975   3.789  0.3167 -0.0787 -0.4123
    1SOL    HW2 8762   4.389   3.938   3.833  0.4687  0.3419  0.2183
    1SOL    HW3 8763   4.541   3.934   3.833  0.4978  1.2497  0.5732
    1SOL    MW4 8764   4.466   3.965   3.801  0.3605  0.1521 -0.1993
    1SOL     OW 8765   0.032   4.239   3.908  0.6851  0.2402  0.3356
    1SOL    HW2 8766   0.095   4.278   3.848  0.9161 -0.7549 -0.0794
    1SOL    HW3 8767   0.020   4.149   3.876 -0.9311  0.4154  0.4102
    1SOL    MW4 8768   0.039   4.232   3.896  0.5021  0.1326  0.2909
    1SOL     OW 8769   0.247   4.388   3.780  0.0635 -0.0222  0.4775
    1SOL    HW2 8770   0.304   4.326   3.826  1.3266  0.9764  0.2813
    1SOL    HW3 8771   0.253   4.469   3.831 -0.8555  0.2203  0.2167
    1SOL    MW4 8772   0.255   4.391   3.793  0.1089  0.1416  0.4170
    1SOL     OW 8773   0.678   4.648   3.879 -0.2244 -0.0920  0.8303
    1SOL    HW2 8774   0.642   4.565   3.848  0.3864 -0.3809  0.9023
    1SOL    HW3 8775   0.610   4.712   3.857 -0.7229 -0.6118  0.8253
    1SOL    MW4 8776   0.664   4.646   3.872 -0.2096 -0.1984  0.8390
    1SOL     OW 8777   0.446   0.124   3.816  0.1576 -0.3092 -0.3618
    1SOL    HW2 8778   0.425   0.211   3.851  0.0038  0.1055 -1.4786
    1SOL    HW3 8779   0.377   0.067   3.851  1.5131 -0.4445  2.2226
    1SOL    MW4 8780   0.434   0.128   3.826  0.3161 -0.2723 -0.1683
    1SOL     OW 8781   0.406   0.380   3.904 -0.4168 -0.1494 -0.2942
    1SOL    HW2 8782   0.487   0.408   3.861 -0.6373  0.0442 -0.5898
    1SOL    HW3 8783   0.337   0.427   3.857 -0.5569  1.1355  1.1720
    1SOL    MW4 8784   0.407   0.390   3.892 -0.4644  0.0457 -0.1395
    1SOL     OW 8785   0.616   0.496   3.779 -0.2225 -0.5858  0.2817
    1SOL    HW2 8786   0.706   0.468   3.796 -0.0063  0.6060  1.1320
    1SOL    HW3 8787   0.610   0.583   3.818 -1.7483 -0.6547  0.2205
    1SOL    MW4 8788   0.627   0.504   3.786 -0.3954 -0.4377  0.3858
    1SOL     OW 8789   0.636   0.761   3.884  0.1888 -0.2017  0.3187
    1SOL    HW2 8790   0.725   0.791   3.863  0.2336  0.3319  1.2751
    1SOL    HW3 8791   0.579   0.819   3.833  0.3646 -0.1399  0.1894
    1SOL    MW4 8792   0.641   0.773   3.874  0.2179 -0.1232  0.4280
    1SOL     OW 8793   0.451   0.932   3.760 -0.8700  0.2939 -0.1328
    1SOL    HW2 8794   0.444   1.023   3.789  0.9652  0.2255  0.6073
    1SOL    HW3 8795   0.374   0.889   3.797 -1.1312  1.2855  0.5027
    1SOL    MW4 8796   0.440   0.939   3.769 -0.6623  0.4157  0.0489
    1SOL     OW 8797   0.434   1.198   3.860  0.1508 -0.1943  0.5806
    1SOL    HW2 8798   0.508   1.248   3.826  0.3561 -0.4650  0.6320
    1SOL    HW3 8799   0.357   1.242   3.823  0.3291  0.1525  0.6167
    1SOL    MW4 8800   0.434   1.210   3.850  0.2014 -0.1843  0.5922
    1SOL     OW 8801   0.674   1.318   3.763  0.2873  0.0739 -0.1709
    1SOL    HW2 8802   0.745   1.265   3.800  0.4292  0.8685  0.7145
    1SOL    HW3 8803   0.685   1.309   3.668 -0.9273 -3.0948 -0.0684
    1SOL    MW4 8804   0.685   1.310   3.755  0.1458 -0.2393 -0.0405
    1SOL     OW 8805   0.654   1.561   3.855 -0.1180 -0.2356 -0.0576
    1SOL    HW2 8806   0.736   1.597   3.822 -1.2719  1.6028 -1.0352
    1SOL    HW3 8807   0.652   1.471   3.821  1.5154 -0.3170  0.0410
    1SOL    MW4 8808   0.664   1.554   3.846 -0.0548 -0.0037 -0.1738
    1SOL     OW 8809   0.433   1.699   3.743 -0.4930  0.9181 -0.0044
    1SOL    HW2 8810   0.500   1.642   3.782  1.1651  1.3812 -2.1009
    1SOL    HW3 8811   0.351   1.653   3.759  0.6519 -1.2833 -0.2237
    1SOL    MW4 8812   0.431   1.685   3.750 -0.1232  0.6889 -0.3097
    1SOL     OW 8813   0.404   1.953   3.885 -0.1560 -0.1559 -0.3209
    1SOL    HW2 8814   0.417   1.872   3.836  0.5047 -0.9344  1.1180
    1SOL    HW3 8815   0.329   1.995   3.842  0.0773 -1.0603 -1.6614
    1SOL    MW4 8816   0.396   1.948   3.873 -0.0381 -0.3780 -0.3080
    1SOL     OW 8817   0.641   2.056   3.760  0.5478  0.3184  0.4418
    1SOL    HW2 8818   0.644   2.151   3.768  1.9782  0.1973  1.3850
    1SOL    HW3 8819   0.561   2.031   3.806  1.7407  0.8130  2.8279
    1SOL    MW4 8820   0.630   2.065   3.767  0.8938  0.3676  0.8807
    1SOL     OW 8821   0.488   3.498   4.191  0.0793  0.0375  0.3084
    1SOL    HW2 8822   0.427   3.571   4.198  0.8554  0.8909 -1.4244
    1SOL    HW3 8823   0.571   3.534   4.223  0.4359 -0.0892 -0.4503
    1SOL    MW4 8824   0.491   3.513   4.196  0.2288  0.1335 -0.0200
    1SOL     OW 8825   0.458   2.524   3.721 -0.6394  0.6172  0.4798
    1SOL    HW2 8826   0.380   2.479   3.753 -1.9988  2.4616 -0.1403
    1SOL    HW3 8827   0.466   2.497   3.630 -0.7011  0.6083  0.4768
    1SOL    MW4 8828   0.448   2.515   3.713 -0.8269  0.8593  0.3974
    1SOL     OW 8829   0.413   2.754   3.868  0.3707  0.0533 -0.3989
    1SOL    HW2 8830   0.471   2.824   3.838  0.6741 -0.1836 -0.3675
    1SOL    HW3 8831   0.436   2.678   3.813  1.2072 -0.4946  0.6926
    1SOL    MW4 8832   0.424   2.753   3.857  0.5211 -0.0505 -0.2508
    1SOL     OW 8833   0.623   2.863   3.713  0.6128 -0.4064 -0.1530
    1SOL    HW2 8834   0.707   2.822   3.735  1.2151  1.0038  0.2598
    1SOL    HW3 8835   0.624   2.868   3.618  0.2331 -1.9419 -0.2518
    1SOL    MW4 8836   0.634   2.858   3.704  0.6422 -0.4230 -0.1116
    1SOL     OW 8837   0.688   3.109   3.892  0.0582  0.0687 -0.4806
    1SOL    HW2 8838   0.605   3.154   3.879  0.0705  0.5699  1.1193
    1SOL    HW3 8839   0.686   3.036   3.829 -1.3161  0.4262 -0.8646
    1SOL    MW4 8840   0.677   3.105   3.882 -0.1215  0.1822 -0.3202
    1SOL     OW 8841   0.440   3.229   3.813 -0.1483  0.0004  0.3051
    1SOL    HW2 8842   0.438   3.324   3.828 -0.2604 -0.1187  1.0594
    1SOL    HW3 8843   0.359   3.197   3.852  0.4461 -0.5575  1.0862
    1SOL    MW4 8844   0.429   3.237   3.820 -0.0847 -0.0887  0.5078
    1SOL     OW 8845   0.430   3.496   3.922 -0.0261 -0.3035 -0.3287
    1SOL    HW2 8846   0.503   3.554   3.899 -0.8949  1.3730  1.0425
    1SOL    HW3 8847   0.439   3.483   4.017  0.2455 -2.5661 -0.6320
    1SOL    MW4 8848   0.441   3.502   3.931 -0.1049 -0.3810 -0.1879
    1SOL     OW 8849   0.682   3.625   3.853  0.0892 -0.1660 -0.2905
    1SOL    HW2 8850   0.697   3.719   3.867  0.6674 -0.3542  0.3977
    1SOL    HW3 8851   0.667   3.617   3.758 -0.0952  0.6343 -0.3338
    1SOL    MW4 8852   0.682   3.636   3.842  0.1412 -0.0851 -0.2053
    1SOL     OW 8853   0.652   3.892   3.924 -0.4265 -0.4710  0.9070
    1SOL    HW2 8854   0.661   3.895   4.019 -1.6136 -0.3300  1.0219
    1SOL    HW3 8855   0.727   3.942   3.891  0.4524 -1.2477  1.7414
    1SOL    MW4 8856   0.663   3.899   3.932 -0.4671 -0.5550  1.0324
    1SOL     OW 8857   0.411   3.976   3.790  0.5357  0.1780 -0.2868
    1SOL    HW2 8858   0.498   3.953   3.824  0.8240  0.5541 -0.7453
    1SOL    HW3 8859   0.427   3.993   3.697  0.1707  1.3112 -0.1502
    1SOL    MW4 8860   0.425   3.976   3.782  0.5255  0.3772 -0.3293
    1SOL     OW 8861   0.420   4.226   3.911  0.2728  0.2472  0.0949
    1SOL    HW2 8862   0.493   4.266   3.865  0.7633 -0.3719  0.3199
    1SOL    HW3 8863   0.409   4.141   3.869 -1.3037  0.9568 -0.9393
    1SOL    MW4 8864   0.428   4.220   3.900  0.1295  0.2599 -0.0119
    1SOL     OW 8865   0.624   4.366   3.818  0.4847 -0.1496  0.0549
    1SOL    HW2 8866   0.707   4.333   3.854  0.9811  1.2556  0.2300
    1SOL    HW3 8867   0.641   4.377   3.725  0.3048 -0.4345 -0.0115
    1SOL    MW4 8868   0.637   4.363   3.811  0.5265 -0.0024  0.0691
    1SOL     OW 8869   1.104   0.036   3.868  0.1205 -0.3533 -0.3073
    1SOL    HW2 8870   1.196   0.062   3.860  0.4857 -1.8402 -1.0877
    1SOL    HW3 8871   1.102  -0.056   3.840 -0.9243 -1.5443  3.3404
    1SOL    MW4 8872   1.116   0.027   3.864  0.0309 -0.7067  0.0708
    1SOL     OW 8873   0.888   0.140   3.765  0.0062 -0.0156  0.3858
    1SOL    HW2 8874   0.963   0.104   3.811  0.0346 -1.1149 -0.5139
    1SOL    HW3 8875   0.813   0.091   3.798  0.0277 -0.8138 -0.7358
    1SOL    MW4 8876   0.888   0.129   3.775  0.0128 -0.2660  0.1190
    1SOL     OW 8877   0.884   0.413   3.810  0.2838  0.5567 -0.0887
    1SOL    HW2 8878   0.867   0.415   3.904  1.0984  0.1216  0.0685
    1SOL    HW3 8879   0.894   0.320   3.789  0.7061  0.6899 -0.4922
    1SOL    MW4 8880   0.883   0.401   3.819  0.4469  0.5169 -0.1211
    1SOL     OW 8881   1.114   0.540   3.772 -0.1131  0.3132 -0.4474
    1SOL    HW2 8882   1.179   0.471   3.787 -0.2136 -0.2086 -2.2966
    1SOL    HW3 8883   1.030   0.494   3.770 -0.3691  0.7442  0.0794
    1SOL    MW4 8884   1.112   0.525   3.774 -0.1603  0.3012 -0.6220
    1SOL     OW 8885   1.109   0.817   3.834  0.2925  0.0222 -0.2994
    1SOL    HW2 8886   1.118   0.820   3.929  0.7812 -1.2976 -0.3013
    1SOL    HW3 8887   1.099   0.724   3.813 -1.0082  0.3961 -1.4311
    1SOL    MW4 8888   1.109   0.805   3.844  0.1854 -0.1026 -0.4492
    1SOL     OW 8889   0.860   0.893   3.784 -0.1683  0.0142 -0.4250
    1SOL    HW2 8890   0.947   0.867   3.815 -0.5987 -0.7863  0.1326
    1SOL    HW3 8891   0.868   0.892   3.689  0.8645  1.4457 -0.3680
    1SOL    MW4 8892   0.873   0.889   3.776 -0.0889  0.0975 -0.3438
    1SOL     OW 8893   0.884   1.156   3.849 -0.8469  0.8703  0.3288
    1SOL    HW2 8894   0.887   1.148   3.945  0.6280 -0.7398  0.1772
    1SOL    HW3 8895   0.868   1.067   3.819  0.5851  1.0350 -0.9750
    1SOL    MW4 8896   0.883   1.143   3.858 -0.4634  0.6796  0.1366
    1SOL     OW 8897   1.123   1.303   3.786  0.5186 -0.0866 -0.2084
    1SOL    HW2 8898   1.128   1.391   3.822  0.9248 -0.1427 -0.1222
    1SOL    HW3 8899   1.035   1.272   3.810  1.0510 -0.4017  1.4084
    1SOL    MW4 8900   1.112   1.310   3.794  0.6424 -0.1355  0.0165
    1SOL     OW 8901   1.118   1.571   3.858 -0.0392 -0.0773 -0.3262
    1SOL    HW2 8902   1.127   1.587   3.952 -0.2996  0.0222 -0.3189
    1SOL    HW3 8903   1.194   1.614   3.819  0.3201 -0.5151 -0.1171
    1SOL    MW4 8904   1.129   1.579   3.865 -0.0261 -0.1220 -0.2975
    1SOL     OW 8905   0.891   1.675   3.774  0.1653  0.0058  0.1910
    1SOL    HW2 8906   0.966   1.637   3.819  0.9810 -1.4174 -2.2840
    1SOL    HW3 8907   0.900   1.646   3.683 -2.7105  0.8240 -0.4107
    1SOL    MW4 8908   0.902   1.666   3.768 -0.1065 -0.0740 -0.2148
    1SOL     OW 8909   0.837   1.933   3.882 -0.6869  0.3412  0.6673
    1SOL    HW2 8910   0.766   1.984   3.844 -2.1737 -1.4099  1.0054
    1SOL    HW3 8911   0.844   1.856   3.826  1.3919  0.7999  0.2645
    1SOL    MW4 8912   0.828   1.929   3.870 -0.6087  0.1706  0.6590
    1SOL     OW 8913   1.090   2.039   3.786 -0.5041 -0.3511  0.0733
    1SOL    HW2 8914   1.011   1.992   3.814  0.3069 -1.9315 -0.2201
    1SOL    HW3 8915   1.083   2.042   3.690 -0.1891 -0.5346  0.0448
    1SOL    MW4 8916   1.079   2.033   3.777 -0.3556 -0.5839  0.0310
    1SOL     OW 8917   1.120   2.363   3.869  0.2702  0.1150 -0.3282
    1SOL    HW2 8918   1.101   2.360   3.963 -0.6823  1.3826 -0.4583
    1SOL    HW3 8919   1.114   2.272   3.840 -1.1747 -0.0715  0.5187
    1SOL    MW4 8920   1.117   2.351   3.877 -0.0460  0.2577 -0.2337
    1SOL     OW 8921   0.892   2.460   3.732 -0.0968  0.1527  0.7428
    1SOL    HW2 8922   0.875   2.541   3.780 -0.7628 -0.1027  0.9505
    1SOL    HW3 8923   0.967   2.421   3.778 -0.4037  0.1616  1.2589
    1SOL    MW4 8924   0.900   2.466   3.745 -0.2252  0.1199  0.8383
    1SOL     OW 8925   0.875   2.737   3.814 -0.2080  0.2676 -0.1709
    1SOL    HW2 8926   0.869   2.767   3.905 -0.2683 -0.8627  0.1990
    1SOL    HW3 8927   0.963   2.762   3.786 -0.0078  0.1589  0.3616
    1SOL    MW4 8928   0.886   2.745   3.822 -0.1895  0.1042 -0.0517
    1SOL     OW 8929   1.159   2.863   3.752 -0.1710 -0.1410  0.1316
    1SOL    HW2 8930   1.217   2.800   3.795 -0.7776 -0.8180 -0.0410
    1SOL    HW3 8931   1.150   2.935   3.815 -1.6193 -1.4422  1.4402
    1SOL    MW4 8932   1.166   2.864   3.766 -0.4421 -0.4022  0.2816
    1SOL     OW 8933   1.158   3.103   3.888 -0.0286  0.1613 -0.0232
    1SOL    HW2 8934   1.219   3.144   3.826  0.3155 -0.3134 -0.0026
    1SOL    HW3 8935   1.073   3.142   3.867  0.3831  1.3025  0.3628
    1SOL    MW4 8936   1.155   3.113   3.877  0.0709  0.2494  0.0303
    1SOL     OW 8937   0.923   3.231   3.850 -0.0603 -0.3076 -0.1603
    1SOL    HW2 8938   0.841   3.184   3.862 -0.9414  0.7235 -1.8798
    1SOL    HW3 8939   0.931   3.242   3.755  0.8917  1.6265  0.1003
    1SOL    MW4 8940   0.913   3.226   3.839 -0.0510  0.0837 -0.3529
    1SOL     OW 8941   0.898   3.487   3.955  0.0080  0.1111  0.6447
    1SOL    HW2 8942   0.909   3.395   3.935  0.8105  0.6077 -1.2746
    1SOL    HW3 8943   0.810   3.509   3.923  0.7013  0.5385 -1.0231
    1SOL    MW4 8944   0.888   3.478   3.948  0.2053  0.2327  0.1714
    1SOL     OW 8945   1.091   3.623   3.824 -0.4034  0.4658 -0.4813
    1SOL    HW2 8946   1.083   3.715   3.846 -1.0534  0.0621  1.0671
    1SOL    HW3 8947   1.018   3.581   3.869  0.6127 -0.9749 -0.1400
    1SOL    MW4 8948   1.080   3.629   3.833 -0.3551  0.2224 -0.2317
    1SOL     OW 8949   1.087   3.887   3.894 -0.1392 -0.4403  0.0123
    1SOL    HW2 8950   1.087   3.854   3.984  0.2982 -0.4015  0.0252
    1SOL    HW3 8951   1.161   3.948   3.891 -0.0191 -0.6129 -0.4404
    1SOL    MW4 8952   1.097   3.891   3.906 -0.0657 -0.4580 -0.0460
    1SOL     OW 8953   0.872   4.030   3.804 -0.0284 -0.2546  0.0796
    1SOL    HW2 8954   0.954   3.987   3.828  0.1943  0.6635  1.0019
    1SOL    HW3 8955   0.875   4.036   3.708  0.4972 -1.1681  0.0368
    1SOL    MW4 8956   0.884   4.025   3.794  0.0703 -0.2542  0.1957
    1SOL     OW 8957   0.875   4.286   3.897 -0.2673 -0.3536  0.0701
    1SOL    HW2 8958   0.892   4.275   3.990 -0.9902 -0.7737  0.1538
    1SOL    HW3 8959   0.877   4.196   3.862  0.1989 -0.1854 -0.3570
    1SOL    MW4 8960   0.878   4.273   3.904 -0.3012 -0.3867  0.0246
    1SOL     OW 8961   1.118   4.431   3.818  0.0753 -0.2956  0.2200
    1SOL    HW2 8962   1.041   4.389   3.854  0.1942 -0.1169  0.6854
    1SOL    HW3 8963   1.110   4.418   3.723  0.2837 -1.6547  0.3726
    1SOL    MW4 8964   1.107   4.424   3.810  0.1185 -0.4516  0.3016
    1SOL     OW 8965   1.573   0.003   3.906 -0.0675  0.0534 -0.2192
    1SOL    HW2 8966   1.592  -0.001   3.999 -0.7144 -0.8369 -0.1149
    1SOL    HW3 8967   1.578  -0.088   3.877 -0.3894  0.2631 -0.9464
    1SOL    MW4 8968   1.576  -0.010   3.914 -0.1954 -0.0362 -0.3011
    1SOL     OW 8969   1.343   0.096   3.781 -0.3094 -0.1601  0.6166
    1SOL    HW2 8970   1.348   0.188   3.806  1.1696 -0.6091  2.0177
    1SOL    HW3 8971   1.411   0.053   3.832 -0.8936 -2.0230 -0.1266
    1SOL    MW4 8972   1.353   0.102   3.791 -0.1915 -0.4651  0.7033
    1SOL     OW 8973   1.332   0.362   3.841 -0.6741  0.1540  0.1806
    1SOL    HW2 8974   1.330   0.371   3.936 -0.6658  0.7718  0.1239
    1SOL    HW3 8975   1.402   0.422   3.813 -0.1266 -0.6329 -0.1420
    1SOL    MW4 8976   1.341   0.371   3.850 -0.6008  0.1317  0.1307
    1SOL     OW 8977   1.562   0.552   3.785 -0.1380 -0.5192 -0.2876
    1SOL    HW2 8978   1.639   0.514   3.828 -0.3217  0.0441  0.5688
    1SOL    HW3 8979   1.545   0.633   3.834 -0.2468  0.2445 -1.5586
    1SOL    MW4 8980   1.570   0.558   3.797 -0.1765 -0.3442 -0.3421
    1SOL     OW 8981   1.540   0.816   3.924 -0.4384  0.2396  0.0020
    1SOL    HW2 8982   1.467   0.848   3.871 -0.0201 -0.3809 -0.9508
    1SOL    HW3 8983   1.618   0.845   3.878 -0.0614 -1.2674 -0.3311
    1SOL    MW4 8984   1.541   0.824   3.911 -0.3335 -0.0411 -0.1676
    1SOL     OW 8985   1.346   0.933   3.766  0.2685  0.0570 -0.0201
    1SOL    HW2 8986   1.344   1.023   3.798 -2.1094  0.6587 -1.7938
    1SOL    HW3 8987   1.262   0.896   3.794  0.7251 -1.2514 -0.3642
    1SOL    MW4 8988   1.335   0.940   3.774  0.0149 -0.0362 -0.2995
    1SOL     OW 8989   1.343   1.164   3.884 -0.0141 -0.5429  0.0378
    1SOL    HW2 8990   1.271   1.208   3.838  1.3230  1.9845  0.2878
    1SOL    HW3 8991   1.422   1.193   3.839  1.1040 -0.6092  1.9041
    1SOL    MW4 8992   1.344   1.173   3.872  0.3099 -0.2183  0.3171
    1SOL     OW 8993   1.566   1.296   3.781  0.7905 -0.3595 -0.3301
    1SOL    HW2 8994   1.632   1.263   3.842 -0.0337 -0.4810  0.5014
    1SOL    HW3 8995   1.548   1.385   3.812  1.0975 -0.0673 -0.9936
    1SOL    MW4 8996   1.572   1.304   3.793  0.7223 -0.3370 -0.3078
    1SOL     OW 8997   1.561   1.545   3.861  0.1788 -0.0000 -0.6134
    1SOL    HW2 8998   1.570   1.558   3.955  0.1628 -0.7058 -0.5142
    1SOL    HW3 8999   1.649   1.564   3.826  0.0598  0.7511 -0.5186
    1SOL    MW4 9000   1.574   1.549   3.868  0.1609  0.0058 -0.5879
    1SOL     OW 9001   1.352   1.713   3.768  0.1221 -0.1044 -0.2292
    1SOL    HW2 9002   1.335   1.794   3.816 -0.2398  0.1404 -0.7580
    1SOL    HW3 9003   1.426   1.673   3.813 -2.1175 -1.4229  2.4391
    1SOL    MW4 9004   1.360   1.718   3.780 -0.2210 -0.2460  0.0532
    1SOL     OW 9005   1.324   1.970   3.878  0.0252  0.1981 -0.3949
    1SOL    HW2 9006   1.315   1.971   3.973 -0.1212 -1.0314 -0.3917
    1SOL    HW3 9007   1.237   1.995   3.846  0.2097  1.1016 -0.2075
    1SOL    MW4 9008   1.311   1.973   3.886  0.0302  0.1550 -0.3698
    1SOL     OW 9009   1.839   1.941   3.846  0.3287  0.2864 -0.2328
    1SOL    HW2 9010   1.848   1.947   3.941  0.8050 -0.3511 -0.2351
    1SOL    HW3 9011   1.760   1.991   3.826  0.1428  0.2938  0.5146
    1SOL    MW4 9012   1.830   1.948   3.856  0.3669  0.2033 -0.1347
    1SOL     OW 9013   1.572   2.044   3.783 -0.2549  0.3559  0.3232
    1SOL    HW2 9014   1.490   2.018   3.824  0.3035 -0.2390  1.0907
    1SOL    HW3 9015   1.562   2.018   3.691 -0.5179 -0.6990  0.6394
    1SOL    MW4 9016   1.560   2.037   3.776 -0.2159  0.1380  0.4661
    1SOL     OW 9017   1.371   2.403   3.741 -0.1195 -0.1080 -0.2526
    1SOL    HW2 9018   1.425   2.369   3.812  1.4411 -0.2350 -1.4960
    1SOL    HW3 9019   1.281   2.385   3.770  0.5695 -2.6450  0.4640
    1SOL    MW4 9020   1.366   2.396   3.755  0.1773 -0.4594 -0.3223
    1SOL     OW 9021   1.381   2.679   3.830  0.8122  0.1730 -0.0976
    1SOL    HW2 9022   1.367   2.676   3.925 -2.5700 -1.2562 -0.5879
    1SOL    HW3 9023   1.388   2.588   3.803 -0.0617  0.4939 -1.4723
    1SOL    MW4 9024   1.380   2.667   3.839  0.2506  0.0267 -0.3438
    1SOL     OW 9025   1.620   2.813   3.740  0.1063  0.3295 -0.1666
    1SOL    HW2 9026   1.610   2.781   3.650 -0.5398 -0.0583  0.0387
    1SOL    HW3 9027   1.551   2.768   3.789  0.2996  0.7280  0.4748
    1SOL    MW4 9028   1.610   2.803   3.735  0.0465  0.3307 -0.0548
    1SOL     OW 9029   1.562   3.107   3.782 -0.2152 -0.0699 -0.0761
    1SOL    HW2 9030   1.557   3.094   3.877  0.5663 -0.6663 -0.1070
    1SOL    HW3 9031   1.590   3.022   3.747  0.1812  0.3327 -0.7687
    1SOL    MW4 9032   1.565   3.094   3.790 -0.0597 -0.0954 -0.1717
    1SOL     OW 9033   1.338   3.269   3.742  0.4767 -0.1153 -0.3170
    1SOL    HW2 9034   1.360   3.359   3.768  0.6724  0.0385 -1.0087
    1SOL    HW3 9035   1.413   3.217   3.772  0.2326 -0.0913  0.3383
    1SOL    MW4 9036   1.351   3.274   3.749  0.4703 -0.0920 -0.3216
    1SOL     OW 9037   1.358   3.525   3.873 -0.3866  0.1128 -0.1292
    1SOL    HW2 9038   1.422   3.579   3.827  1.0204 -2.7043 -1.5973
    1SOL    HW3 9039   1.273   3.559   3.842  0.4296  1.6337 -0.7924
    1SOL    MW4 9040   1.355   3.537   3.863 -0.0932 -0.0582 -0.4103
    1SOL     OW 9041   1.576   3.641   3.734  0.4728 -0.2870  0.0787
    1SOL    HW2 9042   1.642   3.578   3.762  1.6863  0.6352 -0.6416
    1SOL    HW3 9043   1.599   3.722   3.780 -0.9030 -0.2805  0.7836
    1SOL    MW4 9044   1.588   3.643   3.744  0.4513 -0.1645  0.0768
    1SOL     OW 9045   1.553   3.871   3.903 -0.2115 -0.1612 -0.0753
    1SOL    HW2 9046   1.571   3.888   3.995  1.4462  1.2711 -0.6379
    1SOL    HW3 9047   1.469   3.913   3.886 -0.4259 -0.2650  0.7235
    1SOL    MW4 9048   1.544   3.879   3.913 -0.0211  0.0143 -0.0441
    1SOL     OW 9049   1.326   4.029   3.844  0.2503  0.7917 -0.0225
    1SOL    HW2 9050   1.325   4.121   3.872 -0.2882  0.9864 -0.6470
    1SOL    HW3 9051   1.340   4.033   3.749  1.0482  0.1908  0.0692
    1SOL    MW4 9052   1.328   4.042   3.835  0.2844  0.7377 -0.0930
    1SOL     OW 9053   1.339   4.294   3.914  0.0854 -0.0273 -0.4756
    1SOL    HW2 9054   1.422   4.329   3.883 -0.0609 -1.2628 -2.3393
    1SOL    HW3 9055   1.274   4.362   3.892  0.2881  0.0211 -0.9094
    1SOL    MW4 9056   1.341   4.308   3.907  0.0929 -0.1836 -0.7787
    1SOL     OW 9057   1.584   4.400   3.787  0.2702  0.2048 -0.4684
    1SOL    HW2 9058   1.667   4.375   3.825 -0.8224 -1.9572  0.5816
    1SOL    HW3 9059   1.602   4.407   3.693  1.6990  0.0950 -0.2108
    1SOL    MW4 9060   1.597   4.398   3.779  0.3145 -0.0944 -0.2959
    1SOL     OW 9061   2.012   0.020   3.878 -0.1907  0.4884  0.0918
    1SOL    HW2 9062   2.096   0.057   3.852 -0.6026  0.4094 -1.4417
    1SOL    HW3 9063   2.008  -0.064   3.832 -0.8642  0.2396  0.5959
    1SOL    MW4 9064   2.022   0.014   3.868 -0.3340  0.4452 -0.0441
    1SOL     OW 9065   1.768   0.115   3.749 -0.0563 -0.1026 -0.0956
    1SOL    HW2 9066   1.849   0.082   3.787 -0.0363  0.2581  0.1855
    1SOL    HW3 9067   1.700   0.085   3.809  0.0512  1.1374  0.6735
    1SOL    MW4 9068   1.769   0.107   3.762 -0.0395  0.1086  0.0432
    1SOL     OW 9069   1.753   0.379   3.882 -0.3663 -0.4106  0.1802
    1SOL    HW2 9070   1.762   0.356   3.975 -2.0054 -1.7865  0.0413
    1SOL    HW3 9071   1.765   0.296   3.836  0.4501  0.2733 -0.8448
    1SOL    MW4 9072   1.756   0.365   3.888 -0.4747 -0.5019  0.0265
    1SOL     OW 9073   2.005   0.510   3.835 -0.0394 -0.1819  0.2226
    1SOL    HW2 9074   1.927   0.458   3.855  0.1596 -0.5359  0.0953
    1SOL    HW3 9075   2.006   0.515   3.739 -1.4033  2.1367  0.2794
    1SOL    MW4 9076   1.994   0.504   3.825 -0.1930  0.0773  0.2134
    1SOL     OW 9077   2.010   0.791   3.868 -0.1665 -0.3068  0.0829
    1SOL    HW2 9078   2.019   0.799   3.963 -1.2645 -0.6722  0.2168
    1SOL    HW3 9079   1.996   0.697   3.853  0.9011 -0.3804 -0.5171
    1SOL    MW4 9080   2.010   0.780   3.878 -0.1702 -0.3647  0.0212
    1SOL     OW 9081   1.764   0.914   3.790 -0.1734 -0.7514 -0.0228
    1SOL    HW2 9082   1.840   0.867   3.825  1.1999  1.5247  0.1392
    1SOL    HW3 9083   1.780   0.919   3.696 -0.0285 -0.1282  0.0320
    1SOL    MW4 9084   1.776   0.908   3.783  0.0269 -0.3689  0.0060
    1SOL     OW 9085   1.779   1.168   3.910 -0.7291 -0.6502  0.5036
    1SOL    HW2 9086   1.779   1.152   4.005 -0.2532 -0.4513  0.5376
    1SOL    HW3 9087   1.767   1.082   3.871 -1.8605 -0.6212  0.7661
    1SOL    MW4 9088   1.777   1.155   3.917 -0.8159 -0.6201  0.5426
    1SOL     OW 9089   2.004   1.291   3.768  0.4219 -0.3219  0.1773
    1SOL    HW2 9090   2.075   1.235   3.798 -0.1479 -1.0015  0.2553
    1SOL    HW3 9091   1.927   1.262   3.816 -0.2783 -0.7355 -1.1581
    1SOL    MW4 9092   2.004   1.280   3.778  0.2544 -0.4661  0.0114
    1SOL     OW 9093   2.052   1.564   3.832 -0.0202  0.8412  0.5593
    1SOL    HW2 9094   2.042   1.570   3.927  0.2814  0.0400  0.6471
    1SOL    HW3 9095   2.038   1.471   3.812 -0.7382  1.1216 -0.2596
    1SOL    MW4 9096   2.049   1.553   3.842 -0.0749  0.7724  0.4628
    1SOL     OW 9097   1.799   1.682   3.793  0.0403 -0.1806  0.2955
    1SOL    HW2 9098   1.816   1.774   3.809  0.5713 -0.2248 -0.0051
    1SOL    HW3 9099   1.883   1.639   3.805 -0.3723 -0.7457  1.2535
    1SOL    MW4 9100   1.812   1.688   3.796  0.0560 -0.2611  0.3824
    1SOL     OW 9101   2.218   1.920   3.951  0.0127  0.4105 -0.1466
    1SOL    HW2 9102   2.304   1.956   3.928  0.3543 -0.5751 -0.4653
    1SOL    HW3 9103   2.214   1.925   4.047  0.0612  1.2640 -0.1884
    1SOL    MW4 9104   2.229   1.925   3.961  0.0641  0.3932 -0.1941
    1SOL     OW 9105   1.125   4.430   4.567  0.1640 -0.0679 -0.2993
    1SOL    HW2 9106   1.127   4.413   4.473  1.1258  0.9345 -0.4650
    1SOL    HW3 9107   1.179   4.508   4.579 -0.2860  0.0551  1.0370
    1SOL    MW4 9108   1.133   4.438   4.556  0.2316  0.0806 -0.1445
    1SOL     OW 9109   1.807   2.462   3.780 -0.0109 -0.4650  0.0112
    1SOL    HW2 9110   1.822   2.556   3.781 -0.7592 -0.3463  0.0302
    1SOL    HW3 9111   1.890   2.424   3.810  0.4482  0.1601 -0.4501
    1SOL    MW4 9112   1.820   2.469   3.784 -0.0490 -0.3667 -0.0470
    1SOL     OW 9113   1.259   3.703   4.526 -0.1896 -0.0614  0.1113
    1SOL    HW2 9114   1.238   3.691   4.433 -1.3862 -0.6053  0.4378
    1SOL    HW3 9115   1.340   3.655   4.540 -0.2721 -0.3939 -0.5532
    1SOL    MW4 9116   1.267   3.695   4.516 -0.3583 -0.1769  0.0668
    1SOL     OW 9117   1.317   1.734   4.238  0.0657  0.0502 -0.3337
    1SOL    HW2 9118   1.388   1.680   4.205 -0.1081  0.4242 -1.3287
    1SOL    HW3 9119   1.239   1.700   4.196  0.2792  2.8017 -3.2201
    1SOL    MW4 9120   1.316   1.723   4.228  0.0709  0.4624 -0.8459
    1SOL     OW 9121   2.262   2.908   4.236  0.1945  0.0235  0.1848
    1SOL    HW2 9122   2.298   2.974   4.176 -1.0916 -0.7499 -1.4449
    1SOL    HW3 9123   2.306   2.827   4.211 -0.7095 -0.3966 -0.0316
    1SOL    MW4 9124   2.273   2.906   4.225 -0.0944 -0.1340 -0.0587
    1SOL     OW 9125   1.152   0.228   4.518 -0.6036 -0.0500 -0.0486
    1SOL    HW2 9126   1.155   0.322   4.536  0.5291  0.2249 -1.5582
    1SOL    HW3 9127   1.059   0.208   4.510 -0.9017  0.7427  1.2043
    1SOL    MW4 9128   1.140   0.238   4.520 -0.4935  0.0909 -0.0830
    1SOL     OW 9129   1.819   3.208   3.741 -0.0012  0.6424 -0.0834
    1SOL    HW2 9130   1.880   3.151   3.787 -0.0034 -0.7912 -1.7813
    1SOL    HW3 9131   1.733   3.176   3.766 -0.0026 -0.2810 -1.1798
    1SOL    MW4 9132   1.816   3.196   3.750 -0.0018  0.3314 -0.4520
    1SOL     OW 9133   1.780   3.479   3.821  0.1311  0.4880  0.4186
    1SOL    HW2 9134   1.807   3.395   3.785  1.6184 -0.0816  2.7701
    1SOL    HW3 9135   1.857   3.536   3.808  0.0297  0.7744  1.0477
    1SOL    MW4 9136   1.794   3.476   3.814  0.3141  0.4508  0.8118
    1SOL     OW 9137   1.986   3.641   3.785 -0.2506  0.0417  0.5497
    1SOL    HW2 9138   1.997   3.641   3.690  0.3507  2.4850  0.5874
    1SOL    HW3 9139   2.063   3.594   3.818  0.6052  0.9704 -0.0898
    1SOL    MW4 9140   1.998   3.635   3.777 -0.0583  0.4866  0.4699
    1SOL     OW 9141   1.977   3.914   3.865 -0.4944  0.5506  0.2562
    1SOL    HW2 9142   2.050   3.948   3.814 -0.2666  1.2835  1.0391
    1SOL    HW3 9143   1.975   3.820   3.847 -0.7074  0.8745 -1.4320
    1SOL    MW4 9144   1.986   3.906   3.856 -0.4923  0.6897  0.1369
    1SOL     OW 9145   1.746   4.022   3.775  0.6605 -0.5893  0.1724
    1SOL    HW2 9146   1.827   3.979   3.801  0.2717 -0.3981  1.7601
    1SOL    HW3 9147   1.677   3.973   3.821 -0.0059  0.0428 -0.1417
    1SOL    MW4 9148   1.747   4.010   3.785  0.5212 -0.4811  0.3407
    1SOL     OW 9149   1.801   4.278   3.879 -0.1403 -0.1536  0.3972
    1SOL    HW2 9150   1.889   4.276   3.842 -0.8588 -1.7696 -1.3182
    1SOL    HW3 9151   1.761   4.195   3.851 -2.6341  1.1076  0.0126
    1SOL    MW4 9152   1.807   4.267   3.870 -0.5641 -0.2003  0.1204
    1SOL     OW 9153   2.040   4.394   3.744 -0.1819 -0.3269 -0.4308
    1SOL    HW2 9154   2.118   4.339   3.748  0.4661  0.6225  0.2460
    1SOL    HW3 9155   2.032   4.420   3.652  0.4019 -0.2851 -0.4661
    1SOL    MW4 9156   2.049   4.390   3.733 -0.0191 -0.1965 -0.3462
    1SOL     OW 9157   2.475   0.044   3.863  0.3194 -0.3600  0.4819
    1SOL    HW2 9158   2.491   0.050   3.958  1.2304  0.4243  0.2927
    1SOL    HW3 9159   2.560   0.063   3.824 -0.0540 -0.7066 -0.4974
    1SOL    MW4 9160   2.488   0.047   3.871  0.3905 -0.3023  0.3276
    1SOL     OW 9161   2.247   0.180   3.778 -0.2626 -0.1566 -0.5399
    1SOL    HW2 9162   2.327   0.136   3.805  1.5759  2.3294 -1.7590
    1SOL    HW3 9163   2.231   0.148   3.689 -0.7128 -0.7432 -0.2530
    1SOL    MW4 9164   2.255   0.170   3.770 -0.0794  0.0940 -0.6626
    1SOL     OW 9165   2.259   0.426   3.894 -0.0165  0.0124  0.5588
    1SOL    HW2 9166   2.258   0.338   3.856  1.5656  0.3335 -0.2515
    1SOL    HW3 9167   2.172   0.461   3.874  0.1986 -0.4502 -1.3179
    1SOL    MW4 9168   2.247   0.419   3.886  0.2205 -0.0063  0.2041
    1SOL     OW 9169   2.468   0.562   3.789  0.0855  0.0434 -0.1592
    1SOL    HW2 9170   2.388   0.528   3.829  0.1888  0.5454  0.4971
    1SOL    HW3 9171   2.454   0.553   3.695 -0.1953 -1.0887 -0.0080
    1SOL    MW4 9172   2.455   0.556   3.782  0.0622 -0.0398 -0.0525
    1SOL     OW 9173   2.493   0.816   3.892 -0.7962  0.1324 -0.2147
    1SOL    HW2 9174   2.402   0.836   3.871 -0.5125  0.2913 -1.2848
    1SOL    HW3 9175   2.502   0.723   3.873 -1.0301 -0.1477  0.9705
    1SOL    MW4 9176   2.482   0.806   3.887 -0.7899  0.1163 -0.1993
    1SOL     OW 9177   2.254   0.905   3.815 -0.3447 -0.1114 -0.0507
    1SOL    HW2 9178   2.164   0.883   3.841 -0.2344  0.3016  0.6602
    1SOL    HW3 9179   2.255   0.888   3.721 -1.4340  0.7556 -0.2381
    1SOL    MW4 9180   2.242   0.900   3.806 -0.4737  0.0575  0.0184
    1SOL     OW 9181   2.233   1.170   3.854  0.1151  0.0098 -0.3943
    1SOL    HW2 9182   2.281   1.198   3.932 -0.9644  0.2110  0.2101
    1SOL    HW3 9183   2.252   1.076   3.847 -0.3748 -0.1708  0.5514
    1SOL    MW4 9184   2.242   1.161   3.863 -0.0920  0.0124 -0.1898
    1SOL     OW 9185   2.467   1.268   3.719  0.1301  0.1461 -0.2143
    1SOL    HW2 9186   2.481   1.359   3.746  0.9489  0.0413 -0.2761
    1SOL    HW3 9187   2.383   1.245   3.757 -0.2771  1.0612 -0.5375
    1SOL    MW4 9188   2.458   1.277   3.728  0.1843  0.2530 -0.2646
    1SOL     OW 9189   2.477   1.539   3.784 -0.0690 -0.1869  0.3583
    1SOL    HW2 9190   2.397   1.591   3.784  0.3812  0.5850  2.3384
    1SOL    HW3 9191   2.547   1.602   3.764  0.1793 -0.5985 -0.0832
    1SOL    MW4 9192   2.476   1.554   3.782  0.0231 -0.1395  0.5612
    1SOL     OW 9193   2.249   1.726   3.747  0.3431 -0.3496 -0.0752
    1SOL    HW2 9194   2.246   1.805   3.802 -1.2313  0.1526 -0.8591
    1SOL    HW3 9195   2.172   1.676   3.772 -0.1142 -0.3594 -1.4867
    1SOL    MW4 9196   2.239   1.730   3.758  0.0749 -0.2846 -0.3650
    1SOL     OW 9197   0.908   4.258   4.622  0.3826  0.1114  0.4776
    1SOL    HW2 9198   0.986   4.310   4.601  0.5150 -0.2349  0.1068
    1SOL    HW3 9199   0.922   4.175   4.576 -1.9219  1.3583 -2.7018
    1SOL    MW4 9200   0.920   4.254   4.613  0.0961  0.2303  0.0091
    1SOL     OW 9201   2.742   1.931   3.941 -0.2133  0.0705  0.2797
    1SOL    HW2 9202   2.735   1.900   4.031  2.0002 -1.6683 -0.0962
    1SOL    HW3 9203   2.720   1.855   3.887  0.2633  0.5861 -0.6563
    1SOL    MW4 9204   2.738   1.917   3.946  0.1414 -0.0908  0.1066
    1SOL     OW 9205   2.586   2.451   3.698  0.1326 -0.0572  0.5395
    1SOL    HW2 9206   2.589   2.510   3.773 -0.3693 -0.3607  0.7999
    1SOL    HW3 9207   2.528   2.380   3.725  0.0826 -0.2568 -0.0732
    1SOL    MW4 9208   2.579   2.450   3.711  0.0601 -0.1237  0.4928
    1SOL     OW 9209   2.508   4.372   4.206  0.1608 -0.2561  0.8889
    1SOL    HW2 9210   2.506   4.465   4.187 -0.0932 -0.3565  0.4250
    1SOL    HW3 9211   2.590   4.341   4.169 -0.3831 -0.4715 -0.1483
    1SOL    MW4 9212   2.519   4.380   4.199  0.0553 -0.2980  0.6905
    1SOL     OW 9213   3.084   0.751   4.545  0.4977  0.0455 -0.0269
    1SOL    HW2 9214   3.072   0.845   4.558  1.8635  0.2643 -0.3051
    1SOL    HW3 9215   3.001   0.712   4.573  0.6241  1.1515  1.9619
    1SOL    MW4 9216   3.071   0.758   4.550  0.6945  0.2202  0.1988
    1SOL     OW 9217   3.709   0.981   4.719  0.2518  0.4034  0.1848
    1SOL    HW2 9218   3.740   0.904   4.672  0.6970  0.3148  0.6125
    1SOL    HW3 9219   3.772   0.992   4.791 -0.4382  0.5083  0.7798
    1SOL    MW4 9220   3.722   0.972   4.722  0.2196  0.4056  0.3200
    1SOL     OW 9221   4.011   4.020   4.219 -0.3271 -0.1867 -0.1608
    1SOL    HW2 9222   4.094   3.975   4.206  0.3158  1.0238 -0.2901
    1SOL    HW3 9223   3.947   3.950   4.229  1.1252 -1.1627  2.7693
    1SOL    MW4 9224   4.013   4.005   4.219 -0.0510 -0.1554  0.2089
    1SOL     OW 9225   2.214   3.234   3.750  0.3435  0.1504  0.2668
    1SOL    HW2 9226   2.221   3.326   3.775  0.9993  0.1479  0.1095
    1SOL    HW3 9227   2.298   3.195   3.778  0.4861 -0.1685 -0.5972
    1SOL    MW4 9228   2.226   3.241   3.757  0.4487  0.1080  0.1321
    1SOL     OW 9229   2.211   3.519   3.878  0.2416 -0.2180  0.0232
    1SOL    HW2 9230   2.218   3.498   3.972  0.0436 -0.6453 -0.0537
    1SOL    HW3 9231   2.299   3.545   3.852  0.0684  0.9466  0.5743
    1SOL    MW4 9232   2.223   3.520   3.887  0.1929 -0.1206  0.0858
    1SOL     OW 9233   2.488   3.597   3.819 -0.0388  0.2170 -0.0081
    1SOL    HW2 9234   2.570   3.550   3.833 -0.5575 -1.1464 -1.4222
    1SOL    HW3 9235   2.486   3.614   3.724 -1.3919  0.2184  0.0140
    1SOL    MW4 9236   2.498   3.593   3.808 -0.2856  0.0372 -0.1915
    1SOL     OW 9237   2.492   3.897   3.880  0.2738  0.8310 -0.2045
    1SOL    HW2 9238   2.506   3.922   3.971  0.2254 -0.1039  0.0638
    1SOL    HW3 9239   2.526   3.808   3.874 -0.6292  0.5221 -0.8564
    1SOL    MW4 9240   2.498   3.888   3.891  0.1483  0.6671 -0.2551
    1SOL     OW 9241   2.234   3.983   3.731 -0.6614 -0.1594  0.1783
    1SOL    HW2 9242   2.303   3.933   3.775 -0.8870  0.6609  1.4869
    1SOL    HW3 9243   2.250   3.968   3.638  0.2081 -1.4067  0.5063
    1SOL    MW4 9244   2.245   3.974   3.724 -0.5763 -0.2155  0.3941
    1SOL     OW 9245   2.282   4.249   3.792  0.7141  0.0198  0.0885
    1SOL    HW2 9246   2.303   4.233   3.884  0.5965  0.0074  0.1134
    1SOL    HW3 9247   2.263   4.162   3.757  0.8653  0.0118  0.0268
    1SOL    MW4 9248   2.282   4.235   3.800  0.7184  0.0176  0.0837
    1SOL     OW 9249   2.481   4.430   3.763  0.5560 -0.3179  0.2099
    1SOL    HW2 9250   2.403   4.376   3.776  1.5397 -1.7644  0.1934
    1SOL    HW3 9251   2.458   4.515   3.801 -0.5504 -1.1372  1.4172
    1SOL    MW4 9252   2.468   4.434   3.770  0.5403 -0.6170  0.3669
    1SOL     OW 9253   2.936   0.012   3.866  0.1400 -0.9176 -0.3488
    1SOL    HW2 9254   2.941  -0.000   3.960 -1.3715  0.9523 -0.0121
    1SOL    HW3 9255   3.018   0.055   3.843 -0.6097  0.9918  0.5054
    1SOL    MW4 9256   2.947   0.016   3.875 -0.1583 -0.4190 -0.1919
    1SOL     OW 9257   2.706   0.170   3.773 -0.6815 -0.3083 -0.3040
    1SOL    HW2 9258   2.772   0.129   3.829 -0.9230 -1.1021 -0.5977
    1SOL    HW3 9259   2.749   0.182   3.689  0.2921  2.6117  0.5721
    1SOL    MW4 9260   2.720   0.166   3.770 -0.5848 -0.0278 -0.2272
    1SOL     OW 9261   2.673   0.410   3.901  0.4431  0.1429  0.1873
    1SOL    HW2 9262   2.665   0.335   3.842  1.0072 -0.7144  1.2015
    1SOL    HW3 9263   2.603   0.469   3.873  0.7438 -0.2189 -1.3946
    1SOL    MW4 9264   2.662   0.408   3.889  0.5569 -0.0180  0.1125
    1SOL     OW 9265   2.900   0.535   3.800 -0.0988 -0.5175  0.4322
    1SOL    HW2 9266   2.982   0.498   3.830 -0.3781 -0.6524  1.0326
    1SOL    HW3 9267   2.833   0.494   3.855 -0.3231  1.6017  1.7848
    1SOL    MW4 9268   2.902   0.525   3.811 -0.1652 -0.2557  0.6902
    1SOL     OW 9269   2.920   0.798   3.872 -0.3211  0.4185 -0.3229
    1SOL    HW2 9270   2.997   0.838   3.832  0.8942 -0.8784  0.6724
    1SOL    HW3 9271   2.918   0.709   3.835 -1.5493  0.5596 -0.6147
    1SOL    MW4 9272   2.930   0.792   3.862 -0.3228  0.2660 -0.2303
    1SOL     OW 9273   2.691   0.881   3.730 -0.1969 -0.5849 -0.1732
    1SOL    HW2 9274   2.761   0.848   3.787  0.4143  0.8083 -0.1121
    1SOL    HW3 9275   2.610   0.856   3.775  0.2761  0.9011  1.5583
    1SOL    MW4 9276   2.690   0.873   3.743 -0.0536 -0.2051  0.0634
    1SOL     OW 9277   2.683   1.141   3.840 -0.0028  0.0515  0.3781
    1SOL    HW2 9278   2.694   1.051   3.808  0.5817  0.5594 -0.8779
    1SOL    HW3 9279   2.608   1.174   3.791  0.8914  0.8333 -0.4698
    1SOL    MW4 9280   2.674   1.133   3.829  0.1922  0.2217  0.1004
    1SOL     OW 9281   2.891   1.270   3.728 -0.0005 -0.1449 -0.3354
    1SOL    HW2 9282   2.876   1.355   3.770 -0.0282 -0.2717 -0.0876
    1SOL    HW3 9283   2.824   1.212   3.766  0.7369 -0.5670  0.3375
    1SOL    MW4 9284   2.880   1.273   3.738  0.0935 -0.2174 -0.2141
    1SOL     OW 9285   3.101   1.642   3.735 -0.1155  0.4931  0.2113
    1SOL    HW2 9286   3.093   1.730   3.770  2.1385  0.5597  0.6943
    1SOL    HW3 9287   3.100   1.653   3.640 -0.3546  0.9771  0.2698
    1SOL    MW4 9288   3.100   1.655   3.727  0.1504  0.5658  0.2830
    1SOL     OW 9289   2.669   1.728   3.744 -0.2598  0.4518 -0.3143
    1SOL    HW2 9290   2.723   1.654   3.772 -1.1900  0.9124  2.9119
    1SOL    HW3 9291   2.682   1.733   3.650  2.7618 -1.4766 -0.0673
    1SOL    MW4 9292   2.678   1.719   3.736  0.0160  0.2583  0.1442
    1SOL     OW 9293   2.470   2.047   3.546 -0.0768 -0.3383  0.3968
    1SOL    HW2 9294   2.402   1.998   3.500 -0.5577  0.2688  0.4557
    1SOL    HW3 9295   2.444   2.043   3.638 -0.9881  1.3617  0.2406
    1SOL    MW4 9296   2.458   2.040   3.552 -0.2606 -0.0339  0.3843
    1SOL     OW 9297   1.093   2.228   4.621  0.0808 -0.0091  0.2107
    1SOL    HW2 9298   1.139   2.310   4.603 -1.3900  1.3415  2.4701
    1SOL    HW3 9299   1.002   2.246   4.600 -0.3300 -0.9290  1.1402
    1SOL    MW4 9300   1.087   2.241   4.616 -0.1675  0.0477  0.6313
    1SOL     OW 9301   2.425   2.276   3.868 -0.0285  0.2293  0.4385
    1SOL    HW2 9302   2.442   2.282   3.962 -0.7561 -0.7932  0.6435
    1SOL    HW3 9303   2.364   2.347   3.850  1.6478  1.6805  0.3582
    1SOL    MW4 9304   2.419   2.286   3.878  0.0966  0.2856  0.4549
    1SOL     OW 9305   2.645   2.563   3.947 -0.5243 -0.4134  0.3027
    1SOL    HW2 9306   2.613   2.506   4.017  1.0682 -0.5393  0.9651
    1SOL    HW3 9307   2.640   2.651   3.984 -0.5659 -0.3858  0.2306
    1SOL    MW4 9308   2.640   2.567   3.961 -0.3197 -0.4263  0.3805
    1SOL     OW 9309   3.343   3.095   4.153  0.0364 -0.0804 -0.2061
    1SOL    HW2 9310   3.340   3.107   4.058 -1.4045  2.3986  0.1124
    1SOL    HW3 9311   3.436   3.096   4.174  0.3665 -0.6221 -1.5874
    1SOL    MW4 9312   3.355   3.097   4.143 -0.1101  0.1750 -0.3462
    1SOL     OW 9313   2.834   2.890   3.705  0.1569  0.1885  0.3821
    1SOL    HW2 9314   2.892   2.828   3.748  0.5762  1.3180  1.4881
    1SOL    HW3 9315   2.746   2.864   3.733  0.2751 -0.3157  0.2896
    1SOL    MW4 9316   2.830   2.879   3.714  0.2279  0.2711  0.5157
    1SOL     OW 9317   2.862   3.122   3.858 -0.1273  0.4528  0.0639
    1SOL    HW2 9318   2.844   3.032   3.831 -0.7742 -0.3824  3.0287
    1SOL    HW3 9319   2.949   3.141   3.824  0.4203 -1.6519  0.2440
    1SOL    MW4 9320   2.871   3.113   3.850 -0.1404  0.0651  0.4787
    1SOL     OW 9321   2.686   3.248   3.720 -0.5425 -0.2640  0.1261
    1SOL    HW2 9322   2.690   3.339   3.747 -0.4882  0.1877 -1.3392
    1SOL    HW3 9323   2.757   3.205   3.768  0.7221  0.8762 -0.6948
    1SOL    MW4 9324   2.695   3.254   3.730 -0.3684 -0.0541 -0.1757
    1SOL     OW 9325   2.733   3.478   3.844 -0.3368  0.0353  0.0343
    1SOL    HW2 9326   2.756   3.459   3.935 -2.2139 -0.3664  0.4378
    1SOL    HW3 9327   2.791   3.550   3.819 -0.7503  1.0712  1.9841
    1SOL    MW4 9328   2.744   3.485   3.853 -0.6392  0.1192  0.3445
    1SOL     OW 9329   2.925   3.672   3.763  0.0112  0.2522 -0.0815
    1SOL    HW2 9330   2.999   3.616   3.786  0.3995  0.4733 -0.7673
    1SOL    HW3 9331   2.921   3.667   3.667 -0.1058  1.2071 -0.1306
    1SOL    MW4 9332   2.934   3.664   3.753  0.0472  0.4072 -0.1786
    1SOL     OW 9333   2.923   3.935   3.853 -0.4508 -0.1328 -0.4338
    1SOL    HW2 9334   3.009   3.951   3.814 -0.8419 -0.4487 -1.4437
    1SOL    HW3 9335   2.910   3.841   3.845 -0.9140 -0.0798 -0.3102
    1SOL    MW4 9336   2.933   3.925   3.847 -0.5636 -0.1674 -0.5507
    1SOL     OW 9337   2.694   4.055   3.761  0.1553 -0.5050 -0.1483
    1SOL    HW2 9338   2.777   4.017   3.788  0.8087  0.7120 -0.4044
    1SOL    HW3 9339   2.627   3.999   3.801  1.0819 -0.2514  1.8083
    1SOL    MW4 9340   2.696   4.042   3.769  0.3638 -0.3104  0.0761
    1SOL     OW 9341   2.713   4.309   3.864 -0.3695 -0.3936 -0.2005
    1SOL    HW2 9342   2.632   4.358   3.854  0.8815  1.2969 -2.9111
    1SOL    HW3 9343   2.692   4.221   3.832 -1.6075 -0.5072  0.9089
    1SOL    MW4 9344   2.700   4.304   3.858 -0.3679 -0.1850 -0.4120
    1SOL     OW 9345   2.949   4.424   3.740  0.0846 -0.1618 -0.3117
    1SOL    HW2 9346   2.882   4.372   3.785  1.6381 -0.7584  1.3509
    1SOL    HW3 9347   2.942   4.511   3.779  0.2120 -0.1935 -0.2197
    1SOL    MW4 9348   2.939   4.429   3.751  0.3061 -0.2446 -0.0801
    1SOL     OW 9349   3.404   4.622   3.914 -0.5734  0.3450 -0.0915
    1SOL    HW2 9350   3.401   4.642   4.008 -1.6299 -0.9450  0.1548
    1SOL    HW3 9351   3.469   4.683   3.879 -0.6675  1.3040  1.3634
    1SOL    MW4 9352   3.412   4.633   3.922 -0.7253  0.3009  0.1330
    1SOL     OW 9353   3.187   0.123   3.773 -0.1525 -0.4903  0.6282
    1SOL    HW2 9354   3.262   0.087   3.821  1.0229 -0.4894 -1.1343
    1SOL    HW3 9355   3.213   0.116   3.681 -1.9500  0.3746  0.0419
    1SOL    MW4 9356   3.201   0.118   3.767 -0.2348 -0.3761  0.3181
    1SOL     OW 9357   3.175   0.404   3.872 -0.5128 -0.4105 -0.5600
    1SOL    HW2 9358   3.155   0.402   3.966 -2.7143  0.4930 -0.9681
    1SOL    HW3 9359   3.195   0.313   3.850 -1.4810 -0.8894  0.4922
    1SOL    MW4 9360   3.175   0.392   3.881 -0.9310 -0.3544 -0.4749
    1SOL     OW 9361   3.407   0.534   3.805  0.2096 -0.0904 -0.3912
    1SOL    HW2 9362   3.475   0.471   3.832  0.9206  0.6989 -0.3149
    1SOL    HW3 9363   3.326   0.496   3.837  0.5422 -1.3470 -0.9937
    1SOL    MW4 9364   3.406   0.521   3.813  0.3474 -0.1520 -0.4611
    1SOL     OW 9365   3.385   0.812   3.860 -0.1328 -0.1712  0.0749
    1SOL    HW2 9366   3.369   0.814   3.954  0.8917  0.0670  0.2533
    1SOL    HW3 9367   3.391   0.719   3.839 -2.3310 -0.2758 -0.1094
    1SOL    MW4 9368   3.384   0.800   3.870 -0.2875 -0.1535  0.0739
    1SOL     OW 9369   3.135   0.922   3.790 -0.2778  0.4546 -0.5448
    1SOL    HW2 9370   3.214   0.876   3.819  0.1645  1.0055 -0.8518
    1SOL    HW3 9371   3.141   0.922   3.694 -0.0275  1.5449 -0.5402
    1SOL    MW4 9372   3.146   0.916   3.781 -0.1867  0.6711 -0.5848
    1SOL     OW 9373   3.144   1.196   3.843 -0.8518  0.3364  0.4520
    1SOL    HW2 9374   3.132   1.101   3.851 -1.7529  0.5853  2.2612
    1SOL    HW3 9375   3.065   1.226   3.798 -0.8128  0.2953  0.3564
    1SOL    MW4 9376   3.132   1.187   3.838 -0.9658  0.3639  0.6781
    1SOL     OW 9377   3.355   1.283   3.714  0.7517  0.1307  0.3087
    1SOL    HW2 9378   3.275   1.243   3.748  1.7295 -1.3448  0.9108
    1SOL    HW3 9379   3.344   1.280   3.619 -1.1210  2.4845  0.4180
    1SOL    MW4 9380   3.343   1.277   3.706  0.6337  0.2466  0.4027
    1SOL     OW 9381   3.950   2.966   4.561 -0.1890 -0.4656  0.3544
    1SOL    HW2 9382   3.972   2.875   4.580 -0.3095 -0.5943 -0.1246
    1SOL    HW3 9383   3.856   2.964   4.541 -0.6044  0.0397  2.1437
    1SOL    MW4 9384   3.941   2.954   4.561 -0.2596 -0.4160  0.5274
    1SOL     OW 9385   3.326   1.523   3.848 -0.5761  0.0886  0.3819
    1SOL    HW2 9386   3.252   1.563   3.803 -0.1059  0.9922  0.3951
    1SOL    HW3 9387   3.334   1.436   3.808 -1.5082  0.0643  0.2381
    1SOL    MW4 9388   3.318   1.517   3.837 -0.6371  0.2047  0.3648
    1SOL     OW 9389   3.093   1.930   3.799 -0.0711 -0.3332  0.1988
    1SOL    HW2 9390   3.168   1.986   3.777 -0.2988 -0.2865 -0.4916
    1SOL    HW3 9391   3.017   1.985   3.782 -0.2485 -0.0510  1.8445
    1SOL    MW4 9392   3.093   1.945   3.794 -0.1245 -0.2897  0.3245
    1SOL     OW 9393   3.317   2.121   3.763  0.0054  0.3185 -0.3888
    1SOL    HW2 9394   3.388   2.063   3.791 -0.3293  0.5514  0.9901
    1SOL    HW3 9395   3.319   2.118   3.667  0.6857 -1.1236 -0.3410
    1SOL    MW4 9396   3.326   2.113   3.754  0.0510  0.1590 -0.2007
    1SOL     OW 9397   3.331   2.391   3.854 -0.6052 -0.0382 -0.2042
    1SOL    HW2 9398   3.319   2.298   3.835  0.9102 -0.4582  0.8222
    1SOL    HW3 9399   3.246   2.431   3.836 -0.4304 -1.0897 -3.7547
    1SOL    MW4 9400   3.318   2.384   3.849 -0.3822 -0.2322 -0.5374
    1SOL     OW 9401   2.009   2.115   4.299  0.2862  0.5387  0.2350
    1SOL    HW2 9402   1.992   2.146   4.388 -1.9352  0.9782 -0.3008
    1SOL    HW3 9403   1.989   2.190   4.243  1.5075  0.2184 -0.6645
    1SOL    MW4 9404   2.004   2.129   4.303  0.1545  0.5543  0.0458
    1SOL     OW 9405   4.161   3.665   4.531 -0.2150 -0.5237  0.0316
    1SOL    HW2 9406   4.172   3.673   4.436  1.0659  0.1083  0.2248
    1SOL    HW3 9407   4.121   3.748   4.557  2.0825  0.4953  0.4176
    1SOL    MW4 9408   4.157   3.677   4.522  0.2565 -0.3059  0.1082
    1SOL     OW 9409   1.080   2.750   4.505  0.2629  0.2996  0.0230
    1SOL    HW2 9410   1.127   2.812   4.560 -1.2256  2.8757 -1.5250
    1SOL    HW3 9411   0.988   2.762   4.529 -0.0523 -1.3654 -0.2717
    1SOL    MW4 9412   1.074   2.760   4.515  0.0250  0.4196 -0.2203
    1SOL     OW 9413   3.290   2.862   3.774 -0.5650  0.5121 -0.0753
    1SOL    HW2 9414   3.203   2.835   3.806 -1.1799  1.7114 -0.7200
    1SOL    HW3 9415   3.288   2.843   3.680  0.0344  0.1548 -0.0208
    1SOL    MW4 9416   3.278   2.856   3.766 -0.5672  0.6232 -0.1531
    1SOL     OW 9417   3.103   3.207   3.751  0.0118  0.0610 -0.0938
    1SOL    HW2 9418   3.177   3.162   3.792  0.2491  0.2874 -0.2761
    1SOL    HW3 9419   3.128   3.217   3.659 -0.2422  0.1441 -0.1552
    1SOL    MW4 9420   3.116   3.202   3.744  0.0098  0.1016 -0.1261
    1SOL     OW 9421   2.454   3.641   4.257  0.4556  0.0047  0.2522
    1SOL    HW2 9422   2.481   3.714   4.200  0.6245  0.0805  0.4303
    1SOL    HW3 9423   2.425   3.684   4.338 -1.4820  0.0284 -0.4223
    1SOL    MW4 9424   2.454   3.657   4.260  0.2222  0.0176  0.1869
    1SOL     OW 9425   3.413   3.587   3.774 -0.2804 -0.1408 -0.1087
    1SOL    HW2 9426   3.395   3.679   3.792 -0.2202 -0.4047  1.3880
    1SOL    HW3 9427   3.379   3.572   3.686 -0.8011  1.1705 -0.1375
    1SOL    MW4 9428   3.406   3.597   3.765 -0.3412 -0.0026  0.0849
    1SOL     OW 9429   3.370   3.842   3.867 -0.3217 -0.7598 -0.2070
    1SOL    HW2 9430   3.458   3.875   3.849 -0.8769  1.0437  0.3612
    1SOL    HW3 9431   3.367   3.832   3.962 -0.7355 -0.8018 -0.2240
    1SOL    MW4 9432   3.381   3.845   3.877 -0.4497 -0.5271 -0.1345
    1SOL     OW 9433   3.163   4.024   3.755  0.5844 -0.2836 -0.1840
    1SOL    HW2 9434   3.177   4.114   3.782  1.4682 -0.8391  1.2769
    1SOL    HW3 9435   3.232   3.974   3.800 -0.5698 -1.8276 -0.0673
    1SOL    MW4 9436   3.174   4.029   3.765  0.5486 -0.5608  0.0241
    1SOL     OW 9437   3.191   4.296   3.827 -0.0860  0.1454 -0.0773
    1SOL    HW2 9438   3.119   4.350   3.795  0.0691  0.4588  0.1069
    1SOL    HW3 9439   3.270   4.347   3.807  0.0302  0.1974  0.5300
    1SOL    MW4 9440   3.192   4.310   3.820 -0.0503  0.1931  0.0272
    1SOL     OW 9441   3.417   4.427   3.721 -0.0024 -0.4563  0.3477
    1SOL    HW2 9442   3.490   4.371   3.745  0.7333  0.2663 -0.1667
    1SOL    HW3 9443   3.405   4.485   3.796  0.6178  0.0961  0.0244
    1SOL    MW4 9444   3.425   4.427   3.734  0.1764 -0.2885  0.2372
    1SOL     OW 9445   3.802   4.643   3.877  0.1728  0.2003  0.5882
    1SOL    HW2 9446   3.888   4.680   3.858 -0.0455  0.5092  0.2137
    1SOL    HW3 9447   3.801   4.559   3.830  0.2591  0.2044  0.5792
    1SOL    MW4 9448   3.814   4.637   3.869  0.1557  0.2418  0.5374
    1SOL     OW 9449   3.584   0.098   3.788 -0.2980 -0.1462 -0.5480
    1SOL    HW2 9450   3.669   0.068   3.821 -0.6546  0.0788  0.5681
    1SOL    HW3 9451   3.598   0.108   3.693  1.1536  0.7035 -0.2553
    1SOL    MW4 9452   3.597   0.095   3.780 -0.1533 -0.0044 -0.3622
    1SOL     OW 9453   3.602   0.347   3.881  0.0305 -0.2221  0.7198
    1SOL    HW2 9454   3.570   0.344   3.971  0.3854 -0.0592  0.8524
    1SOL    HW3 9455   3.594   0.256   3.850  0.8058 -0.4789  1.2336
    1SOL    MW4 9456   3.597   0.334   3.889  0.1795 -0.2345  0.8051
    1SOL     OW 9457   3.816   0.508   3.778  0.1918 -0.0861 -0.2413
    1SOL    HW2 9458   3.798   0.596   3.812 -0.0092  0.0560 -0.7127
    1SOL    HW3 9459   3.745   0.454   3.814 -0.1329  0.1032 -0.5998
    1SOL    MW4 9460   3.804   0.513   3.787  0.1223 -0.0424 -0.3510
    1SOL     OW 9461   3.797   0.781   3.871 -0.6957 -0.4086 -0.2894
    1SOL    HW2 9462   3.881   0.816   3.840 -0.2454 -0.7091  0.5553
    1SOL    HW3 9463   3.731   0.831   3.823 -0.0744  1.6157  0.8598
    1SOL    MW4 9464   3.800   0.793   3.861 -0.5541 -0.1811 -0.0260
    1SOL     OW 9465   3.609   0.925   3.737 -0.4588  0.6558 -0.5717
    1SOL    HW2 9466   3.617   1.011   3.778 -1.2692  0.7912 -0.6857
    1SOL    HW3 9467   3.531   0.886   3.777  0.5856 -0.5125  0.3339
    1SOL    MW4 9468   3.599   0.931   3.747 -0.4282  0.5195 -0.4673
    1SOL     OW 9469   3.559   1.187   3.866 -0.0171 -0.3196  0.1637
    1SOL    HW2 9470   3.484   1.210   3.810  0.0368 -1.4865 -0.3878
    1SOL    HW3 9471   3.629   1.244   3.835 -0.7316  0.9523  0.8399
    1SOL    MW4 9472   3.558   1.198   3.854 -0.1040 -0.3058  0.1800
    1SOL     OW 9473   3.772   1.311   3.732  0.0291  0.3343 -0.3319
    1SOL    HW2 9474   3.846   1.266   3.771 -0.1715  0.3809  0.1019
    1SOL    HW3 9475   3.765   1.393   3.781  0.5682  0.9739 -1.2978
    1SOL    MW4 9476   3.781   1.316   3.744  0.0739  0.4249 -0.4022
    1SOL     OW 9477   3.797   1.549   3.856  0.1417 -0.1850 -0.0377
    1SOL    HW2 9478   3.786   1.554   3.951  0.8921 -0.7688  0.0866
    1SOL    HW3 9479   3.722   1.598   3.820 -1.7417 -2.3443  0.8027
    1SOL    MW4 9480   3.785   1.556   3.864 -0.0076 -0.5471  0.0896
    1SOL     OW 9481   3.555   1.683   3.745  0.1066  0.7549 -0.5460
    1SOL    HW2 9482   3.479   1.626   3.760  0.7061 -0.4043 -1.7914
    1SOL    HW3 9483   3.559   1.692   3.650  1.1716  1.3216 -0.4489
    1SOL    MW4 9484   3.545   1.677   3.734  0.3262  0.6769 -0.6976
    1SOL     OW 9485   3.507   1.942   3.833  0.0351 -0.7212 -0.1750
    1SOL    HW2 9486   3.513   1.848   3.819  3.0872 -0.8027  1.2786
    1SOL    HW3 9487   3.591   1.976   3.803 -0.0268  1.1790  1.6744
    1SOL    MW4 9488   3.519   1.934   3.827  0.4294 -0.4812  0.2608
    1SOL     OW 9489   3.763   2.053   3.757 -0.5712  0.2433  0.2898
    1SOL    HW2 9490   3.764   2.141   3.795 -2.7551 -0.2205  1.5445
    1SOL    HW3 9491   3.841   2.011   3.792 -0.0167  1.3720  0.4394
    1SOL    MW4 9492   3.774   2.059   3.767 -0.7861  0.3312  0.4749
    1SOL     OW 9493   3.798   2.309   3.824  0.0721  0.4328 -0.4495
    1SOL    HW2 9494   3.801   2.288   3.918 -0.5754  0.8974 -0.3226
    1SOL    HW3 9495   3.717   2.358   3.813 -0.2993 -0.3933 -1.4226
    1SOL    MW4 9496   3.788   2.313   3.835 -0.0622  0.3853 -0.5610
    1SOL     OW 9497   3.561   2.471   3.738  0.3243  0.3488  0.0853
    1SOL    HW2 9498   3.552   2.451   3.645 -0.5767  1.0572  0.0143
    1SOL    HW3 9499   3.486   2.429   3.779  0.6772  0.1044  0.4863
    1SOL    MW4 9500   3.550   2.463   3.731  0.2520  0.4098  0.1290
    1SOL     OW 9501   3.536   2.732   3.836 -0.0245  0.4547  0.7111
    1SOL    HW2 9502   3.540   2.646   3.793  0.4699  0.6242  0.4120
    1SOL    HW3 9503   3.448   2.764   3.819  0.0721  0.3885  0.0760
    1SOL    MW4 9504   3.525   2.725   3.828  0.0539  0.4687  0.5879
    1SOL     OW 9505   3.798   3.086   3.857 -0.2813  0.2186 -0.2550
    1SOL    HW2 9506   3.722   3.135   3.825 -0.2413 -0.1002 -0.8489
    1SOL    HW3 9507   3.790   3.000   3.816 -0.2034 -0.1898  0.5693
    1SOL    MW4 9508   3.787   3.081   3.847 -0.2658  0.1228 -0.2248
    1SOL     OW 9509   3.760   2.836   3.758  0.0053  0.0466  0.0646
    1SOL    HW2 9510   3.683   2.802   3.804  0.1286  0.9400  0.9597
    1SOL    HW3 9511   3.834   2.803   3.809  0.1789  0.0327 -0.1994
    1SOL    MW4 9512   3.759   2.827   3.771  0.0446  0.1626  0.1478
    1SOL     OW 9513   3.580   3.214   3.743  0.1565 -0.2813 -0.2680
    1SOL    HW2 9514   3.586   3.306   3.767 -3.2028 -0.0567  0.0270
    1SOL    HW3 9515   3.584   3.214   3.647 -0.9065  0.3269 -0.3273
    1SOL    MW4 9516   3.581   3.226   3.733 -0.4270 -0.1714 -0.2367
    1SOL     OW 9517   3.640   3.470   3.862 -0.2734 -0.0018  0.2065
    1SOL    HW2 9518   3.631   3.472   3.958 -0.4497  1.8901  0.1714
    1SOL    HW3 9519   3.558   3.508   3.830  0.6287  1.2844 -0.6229
    1SOL    MW4 9520   3.628   3.476   3.871 -0.1774  0.4175  0.0923
    1SOL     OW 9521   3.831   3.645   3.774 -0.4177 -0.5837 -0.0667
    1SOL    HW2 9522   3.822   3.729   3.819  2.1307 -0.4405  0.2572
    1SOL    HW3 9523   3.758   3.592   3.807  0.0074  0.3213  2.4326
    1SOL    MW4 9524   3.820   3.649   3.785 -0.0255 -0.4454  0.3059
    1SOL     OW 9525   3.805   3.871   3.916 -0.0869 -0.5594 -0.3668
    1SOL    HW2 9526   3.826   3.864   4.009 -1.1514 -0.4043 -0.1005
    1SOL    HW3 9527   3.888   3.893   3.874  0.6906 -1.9982  0.3671
    1SOL    MW4 9528   3.819   3.873   3.923 -0.1247 -0.7288 -0.2348
    1SOL     OW 9529   3.587   3.972   3.771  0.4858 -0.6807  0.4973
    1SOL    HW2 9530   3.569   4.063   3.795 -1.0307 -1.4060  2.2403
    1SOL    HW3 9531   3.665   3.949   3.821  2.0654  0.2302 -1.4659
    1SOL    MW4 9532   3.595   3.981   3.781  0.4940 -0.6561  0.4683
    1SOL     OW 9533   3.570   4.255   3.881 -0.5985  0.2859 -0.1216
    1SOL    HW2 9534   3.551   4.249   3.974 -0.2037 -0.7518 -0.0994
    1SOL    HW3 9535   3.658   4.292   3.876 -0.8285  0.8495 -0.1071
    1SOL    MW4 9536   3.579   4.259   3.893 -0.5765  0.2236 -0.1168
    1SOL     OW 9537   3.810   4.381   3.772 -0.2550  0.6538 -0.2766
    1SOL    HW2 9538   3.890   4.337   3.801  0.3921  1.3596 -0.9919
    1SOL    HW3 9539   3.816   4.382   3.677 -1.6893 -0.3510 -0.4094
    1SOL    MW4 9540   3.821   4.375   3.764 -0.3588  0.6146 -0.3884
    1SOL     OW 9541   4.249   4.624   3.842 -0.2427 -0.1760 -0.1743
    1SOL    HW2 9542   4.241   4.636   3.937 -0.8560  0.2450 -0.2800
    1SOL    HW3 9543   4.335   4.660   3.820  0.2513 -1.0176  0.3431
    1SOL    MW4 9544   4.259   4.630   3.852 -0.2584 -0.2317 -0.1204
    1SOL     OW 9545   4.015   0.101   3.782  0.0696  0.0463 -0.0041
    1SOL    HW2 9546   4.099   0.055   3.790  0.5980  1.0658  0.5705
    1SOL    HW3 9547   4.012   0.130   3.691 -0.0576 -0.7389 -0.2483
    1SOL    MW4 9548   4.026   0.099   3.771  0.1225  0.0772  0.0393
    1SOL     OW 9549   4.048   0.375   3.873  0.7280  0.3541 -0.2837
    1SOL    HW2 9550   4.036   0.282   3.853 -1.5761 -0.0241  2.4156
    1SOL    HW3 9551   3.966   0.416   3.845 -0.5588  0.5770  3.4892
    1SOL    MW4 9552   4.036   0.368   3.867  0.2546  0.3336  0.5703
    1SOL     OW 9553   4.270   0.513   3.764 -0.2767 -0.3377 -0.2180
    1SOL    HW2 9554   4.198   0.457   3.792  0.4854 -0.8351  0.7553
    1SOL    HW3 9555   4.263   0.515   3.669 -3.3660  1.9794 -0.0306
    1SOL    MW4 9556   4.259   0.506   3.755 -0.5841 -0.0977 -0.0648
    1SOL     OW 9557   0.019   0.884   3.748  0.8413  0.0342 -0.2394
    1SOL    HW2 9558  -0.062   0.847   3.783  0.2321 -0.2984 -1.9531
    1SOL    HW3 9559   0.022   0.973   3.784 -0.5472  0.2273 -0.5763
    1SOL    MW4 9560   0.009   0.891   3.758  0.5779  0.0158 -0.5100
    1SOL     OW 9561   4.053   0.897   3.772 -0.3911  0.0186  0.2388
    1SOL    HW2 9562   4.033   0.988   3.792  4.5209  1.3121 -0.2440
    1SOL    HW3 9563   4.055   0.893   3.676 -1.6366 -0.8960  0.2323
    1SOL    MW4 9564   4.050   0.908   3.762  0.0920  0.0685  0.1745
    1SOL     OW 9565   3.997   1.171   3.853 -0.6967  0.2886  0.6454
    1SOL    HW2 9566   3.995   1.169   3.949  0.6334 -0.3030  0.6683
    1SOL    HW3 9567   4.088   1.195   3.832 -1.1135  0.9243 -0.4614
    1SOL    MW4 9568   4.009   1.174   3.863 -0.5760  0.2944  0.5021
    1SOL     OW 9569   4.241   1.264   3.782 -0.1168  0.2809 -0.5765
    1SOL    HW2 9570   4.246   1.268   3.687 -0.4266  0.3878 -0.5895
    1SOL    HW3 9571   4.239   1.355   3.810  0.1629  0.2497 -0.4584
    1SOL    MW4 9572   4.241   1.277   3.773 -0.1202  0.2910 -0.5624
    1SOL     OW 9573   4.266   1.554   3.844 -0.2129 -0.5201 -0.0496
    1SOL    HW2 9574   4.190   1.598   3.807  0.6438 -0.2959 -1.5777
    1SOL    HW3 9575   4.341   1.608   3.818  0.3635  0.0801  2.6881
    1SOL    MW4 9576   4.266   1.567   3.836 -0.0243 -0.4114  0.1101
    1SOL     OW 9577   4.022   1.694   3.784 -0.1916  0.6411 -0.0702
    1SOL    HW2 9578   4.017   1.786   3.810 -0.7334  0.3326  0.9235
    1SOL    HW3 9579   3.934   1.660   3.799 -0.0713  0.0357 -0.7306
    1SOL    MW4 9580   4.010   1.702   3.790 -0.2465  0.5205 -0.0262
    1SOL     OW 9581   4.013   1.963   3.844  0.5964  0.0535  0.1552
    1SOL    HW2 9582   4.025   1.940   3.936  0.4324 -0.2929  0.0908
    1SOL    HW3 9583   4.100   1.989   3.814  0.6670  0.0808  0.3822
    1SOL    MW4 9584   4.026   1.964   3.852  0.5846  0.0114  0.1769
    1SOL     OW 9585   4.265   2.073   3.754  0.5233  0.7607 -0.2214
    1SOL    HW2 9586   4.250   2.167   3.763  0.9249  0.9141 -1.1784
    1SOL    HW3 9587   4.270   2.058   3.660  0.8667 -0.1597 -0.0610
    1SOL    MW4 9588   4.264   2.083   3.743  0.6218  0.6595 -0.3266
    1SOL     OW 9589   4.239   2.330   3.824 -0.2621  0.0755 -0.4313
    1SOL    HW2 9590   4.224   2.338   3.918  1.3354 -2.8392  0.1242
    1SOL    HW3 9591   4.168   2.381   3.784 -2.1987 -0.3686  2.2883
    1SOL    MW4 9592   4.228   2.338   3.831 -0.3066 -0.3676  0.0007
    1SOL     OW 9593   4.020   2.491   3.724  0.0028  0.7784 -0.0913
    1SOL    HW2 9594   4.006   2.572   3.773 -1.6744 -0.2081  1.1173
    1SOL    HW3 9595   3.938   2.444   3.733  1.1046 -1.2433 -0.4534
    1SOL    MW4 9596   4.007   2.496   3.731 -0.0734  0.3815  0.0205
    1SOL     OW 9597   3.986   2.722   3.895 -0.1823  0.2602  0.1649
    1SOL    HW2 9598   3.990   2.727   3.991  1.7984  1.9845  0.0189
    1SOL    HW3 9599   4.068   2.762   3.865 -0.6998 -0.4096 -2.2538
    1SOL    MW4 9600   3.998   2.728   3.904  0.0105  0.3994 -0.1736
    1SOL     OW 9601   4.202   2.868   3.775  0.0142 -0.5135 -0.1513
    1SOL    HW2 9602   4.184   2.952   3.818 -0.7402 -1.3120  1.1043
    1SOL    HW3 9603   4.295   2.853   3.791  0.3524  0.4881 -1.1099
    1SOL    MW4 9604   4.212   2.877   3.783 -0.0405 -0.4866 -0.1121
    1SOL     OW 9605   4.206   3.117   3.866  0.2553 -0.2389 -0.0426
    1SOL    HW2 9606   4.137   3.165   3.821  0.0853 -0.5059 -0.0710
    1SOL    HW3 9607   4.287   3.164   3.844  0.0521  0.2279  0.2127
    1SOL    MW4 9608   4.208   3.129   3.857  0.2060 -0.2122 -0.0126
    1SOL     OW 9609   3.990   3.228   3.725  0.2692 -0.4393  0.0458
    1SOL    HW2 9610   3.923   3.170   3.760 -0.7412  0.3889 -0.4709
    1SOL    HW3 9611   3.986   3.215   3.630  1.1701 -0.7450  0.0525
    1SOL    MW4 9612   3.980   3.219   3.717  0.2549 -0.3703 -0.0215
    1SOL     OW 9613   4.021   3.461   3.860  0.3406 -0.0571  0.0307
    1SOL    HW2 9614   4.008   3.386   3.802 -0.1863 -1.3075  1.7060
    1SOL    HW3 9615   3.955   3.524   3.834  0.2187 -0.5277 -0.8220
    1SOL    MW4 9616   4.011   3.459   3.849  0.2546 -0.2842  0.1392
    1SOL     OW 9617   4.285   3.575   3.788 -0.0438  0.4462 -0.1832
    1SOL    HW2 9618   4.204   3.533   3.816 -0.1094  0.1021 -0.9028
    1SOL    HW3 9619   4.354   3.528   3.835 -0.2798  1.0430  0.7972
    1SOL    MW4 9620   4.284   3.564   3.798 -0.0834  0.4795 -0.1485
    1SOL     OW 9621   4.258   3.821   3.903 -0.1653 -0.6542  0.2795
    1SOL    HW2 9622   4.184   3.862   3.859 -0.4662 -0.8928  0.5560
    1SOL    HW3 9623   4.263   3.733   3.865 -0.0375 -0.6442  0.2732
    1SOL    MW4 9624   4.249   3.814   3.892 -0.1884 -0.6843  0.3150
    1SOL     OW 9625   4.042   3.969   3.802 -0.1300 -0.3416 -0.0296
    1SOL    HW2 9626   4.029   4.058   3.833 -0.8106  0.1063 -1.5312
    1SOL    HW3 9627   4.003   3.968   3.714  0.7502 -1.8419 -0.4295
    1SOL    MW4 9628   4.035   3.980   3.794 -0.1040 -0.4807 -0.2804
    1SOL     OW 9629   4.020   4.233   3.874 -0.1848  0.3065 -0.2991
    1SOL    HW2 9630   4.011   4.254   3.966 -0.1218  0.3256 -0.2969
    1SOL    HW3 9631   4.102   4.277   3.848  0.1834 -0.3022 -0.1861
    1SOL    MW4 9632   4.030   4.241   3.882 -0.1278  0.2289 -0.2840
    1SOL     OW 9633   4.267   4.344   3.802  0.1681  0.2363  0.5388
    1SOL    HW2 9634   4.266   4.439   3.807  0.0465  0.2788 -0.2551
    1SOL    HW3 9635   4.353   4.319   3.836  0.2997  0.6452  0.5070
    1SOL    MW4 9636   4.278   4.353   3.807  0.1698  0.2961  0.4301
    1SOL     OW 9637   1.589   4.624   4.179 -0.4513  0.2149 -0.2867
    1SOL    HW2 9638   1.538   4.644   4.258  0.3337 -0.8625  0.5248
    1SOL    HW3 9639   1.676   4.661   4.197  0.7135 -2.8398  0.8076
    1SOL    MW4 9640   1.594   4.631   4.192 -0.1940 -0.3304 -0.0358
    1SOL     OW 9641   3.826   0.781   4.564 -0.1094 -0.0579  0.6382
    1SOL    HW2 9642   3.922   0.787   4.561 -0.0695 -0.2350  1.5924
    1SOL    HW3 9643   3.807   0.692   4.535  0.0529 -0.2921  1.2588
    1SOL    MW4 9644   3.836   0.770   4.559 -0.0830 -0.1122  0.8459
    1SOL     OW 9645   0.013   0.343   4.160  0.3365  0.3829 -0.5055
    1SOL    HW2 9646   0.025   0.352   4.065 -0.3813  1.2501 -0.5234
    1SOL    HW3 9647  -0.080   0.361   4.174  0.7831  1.9847  0.5583
    1SOL    MW4 9648   0.002   0.346   4.149  0.3004  0.7087 -0.3672
    1SOL     OW 9649   4.441   1.097   4.133 -0.4699  0.4791 -0.2512
    1SOL    HW2 9650   4.451   1.007   4.164 -2.4016  0.3519  0.0332
    1SOL    HW3 9651   4.450   1.090   4.038 -0.1233  0.0604 -0.1925
    1SOL    MW4 9652   4.444   1.084   4.125 -0.6790  0.4071 -0.2055
    1SOL     OW 9653   2.879   1.214   4.231  0.2695  0.4559 -0.0916
    1SOL    HW2 9654   2.968   1.201   4.198 -0.0649 -1.1873 -0.3789
    1SOL    HW3 9655   2.884   1.185   4.322  0.0536  0.5163 -0.0617
    1SOL    MW4 9656   2.892   1.208   4.239  0.1969  0.2470 -0.1254
    1SOL     OW 9657   3.532   0.842   4.463  0.3694 -0.5174  0.0294
    1SOL    HW2 9658   3.481   0.923   4.458  0.4097 -0.5750 -1.4847
    1SOL    HW3 9659   3.590   0.856   4.538  0.5522  0.9695 -0.3600
    1SOL    MW4 9660   3.533   0.855   4.472  0.3989 -0.3288 -0.2213
    1SOL     OW 9661   0.200   0.506   4.293  0.2541 -0.3481  0.0376
    1SOL    HW2 9662   0.144   0.439   4.253 -0.9689  0.5960  0.1480
    1SOL    HW3 9663   0.288   0.485   4.261  0.0828 -2.6744  0.9667
    1SOL    MW4 9664   0.204   0.494   4.283  0.0701 -0.5305  0.1750
    1SOL     OW 9665   0.900   0.901   4.501 -0.6006  0.4735  0.0301
    1SOL    HW2 9666   0.958   0.955   4.555 -1.6495  1.5668  0.0876
    1SOL    HW3 9667   0.878   0.826   4.556  0.3497  0.3086  0.1912
    1SOL    MW4 9668   0.905   0.898   4.516 -0.6137  0.5960  0.0587
    1SOL     OW 9669   0.195   2.063   4.256  0.0289 -0.1624  0.1778
    1SOL    HW2 9670   0.202   2.090   4.348 -1.7772 -3.3627  1.3438
    1SOL    HW3 9671   0.275   2.013   4.239 -0.0731 -0.3818  0.3326
    1SOL    MW4 9672   0.207   2.060   4.266 -0.2229 -0.6137  0.3519
    1SOL     OW 9673   1.483   0.776   4.190 -0.1721  0.1394 -0.2540
    1SOL    HW2 9674   1.487   0.794   4.096 -0.2759 -1.8340 -0.6603
    1SOL    HW3 9675   1.505   0.683   4.198  0.0945  0.3448  1.7039
    1SOL    MW4 9676   1.486   0.766   4.179 -0.1507 -0.0939 -0.0491
    1SOL     OW 9677   0.614   3.028   4.429 -0.2467 -0.0695 -0.3826
    1SOL    HW2 9678   0.636   3.024   4.336 -1.0188  0.9236 -0.6197
    1SOL    HW3 9679   0.624   3.120   4.452  0.5466 -0.4092  0.6761
    1SOL    MW4 9680   0.618   3.039   4.420 -0.2438  0.0169 -0.2747
    1SOL     OW 9681   2.333   4.100   4.715 -0.4496 -0.1638  0.1039
    1SOL    HW2 9682   2.427   4.113   4.723 -0.6244  1.2132  0.1930
    1SOL    HW3 9683   2.319   4.009   4.738  1.1019 -0.9748 -2.0072
    1SOL    MW4 9684   2.343   4.090   4.719 -0.2680 -0.0896 -0.1621
    1SOL     OW 9685   2.513   3.896   4.472  0.2812 -0.1128 -0.0818
    1SOL    HW2 9686   2.441   3.850   4.514  1.3322  0.8684  2.8949
    1SOL    HW3 9687   2.584   3.831   4.468  0.3087 -0.0920  0.0519
    1SOL    MW4 9688   2.513   3.881   4.477  0.4237  0.0193  0.3290
    1SOL     OW 9689   4.110   2.458   4.755 -0.4008 -0.3444 -0.4342
    1SOL    HW2 9690   4.090   2.375   4.712  1.4771 -1.7138  1.2365
    1SOL    HW3 9691   4.154   2.433   4.836  1.6484  2.3102 -0.6518
    1SOL    MW4 9692   4.113   2.444   4.760  0.1173 -0.1748 -0.2422
    1SOL     OW 9693   2.936   2.310   4.412 -0.3612  1.1598  0.2681
    1SOL    HW2 9694   2.870   2.375   4.386  0.5110  1.8897 -0.1281
    1SOL    HW3 9695   2.929   2.241   4.346 -1.2966  0.8404  0.6956
    1SOL    MW4 9696   2.926   2.310   4.400 -0.3695  1.2138  0.2718
    1SOL     OW 9697   3.640   4.389   4.746 -0.2894  0.0574  0.1379
    1SOL    HW2 9698   3.642   4.360   4.837  0.9336  0.0743  0.1188
    1SOL    HW3 9699   3.585   4.324   4.701  0.2077 -0.7011  0.6198
    1SOL    MW4 9700   3.633   4.377   4.752 -0.0625 -0.0396  0.1988
    1SOL     OW 9701   0.424   1.928   4.579 -0.0940  0.2558 -0.5268
    1SOL    HW2 9702   0.436   1.838   4.549 -0.2141  0.0936 -0.0930
    1SOL    HW3 9703   0.508   1.971   4.561  0.1021 -0.0532 -0.3494
    1SOL    MW4 9704   0.437   1.922   4.573 -0.0839  0.1935 -0.4458
    1SOL     OW 9705   4.473   0.089   4.253 -0.9250  0.2784 -0.0795
    1SOL    HW2 9706   4.472   0.181   4.227 -0.3677  0.5042  0.6632
    1SOL    HW3 9707   4.559   0.057   4.226 -0.8389  0.1719  0.3151
    1SOL    MW4 9708   4.484   0.096   4.246 -0.8401  0.2941  0.0706
    1SOL     OW 9709   0.408   1.908   4.161 -0.0361  0.2571 -0.3716
    1SOL    HW2 9710   0.397   1.925   4.067  0.3296  1.7324 -0.1495
    1SOL    HW3 9711   0.480   1.965   4.188  0.7126 -1.1093  0.5463
    1SOL    MW4 9712   0.416   1.918   4.152  0.1110  0.2714 -0.2213
    1SOL     OW 9713   0.200   3.883   4.218 -0.2234 -0.2295  0.7221
    1SOL    HW2 9714   0.133   3.950   4.223 -0.9681 -1.0769  2.6433
    1SOL    HW3 9715   0.279   3.924   4.254  0.0026  0.3720 -0.4123
    1SOL    MW4 9716   0.202   3.897   4.223 -0.2918 -0.2620  0.8254
    1SOL     OW 9717   1.595   1.334   4.243  0.0142  0.0968  0.3652
    1SOL    HW2 9718   1.671   1.281   4.218  0.9664  1.7072 -0.2599
    1SOL    HW3 9719   1.590   1.326   4.338 -0.8983 -2.4524  0.1490
    1SOL    MW4 9720   1.604   1.326   4.252  0.0194 -0.0272  0.2542
    1SOL     OW 9721   2.033   3.085   3.897  0.2127  0.2064 -0.3282
    1SOL    HW2 9722   2.099   3.142   3.858 -0.3514  0.7556 -0.4915
    1SOL    HW3 9723   2.066   2.996   3.883  1.8763  0.5287  1.3408
    1SOL    MW4 9724   2.046   3.081   3.890  0.3579  0.3214 -0.1297
    1SOL     OW 9725   2.895   2.961   4.761  0.5695  0.3027  0.1422
    1SOL    HW2 9726   2.810   2.964   4.717  0.1867  2.8735  0.9819
    1SOL    HW3 9727   2.873   2.946   4.853  1.2447 -2.6540 -0.1308
    1SOL    MW4 9728   2.881   2.959   4.768  0.6082  0.2518  0.2165
    1SOL     OW 9729   4.293   4.184   4.634  0.2779  0.0990  0.0666
    1SOL    HW2 9730   4.216   4.157   4.584  0.0868 -1.1759  1.0198
    1SOL    HW3 9731   4.363   4.127   4.603  0.2456 -0.4427  0.9602
    1SOL    MW4 9732   4.292   4.173   4.623  0.2484 -0.1407  0.3104
    1SOL     OW 9733   0.049   4.284   4.190  0.0146 -0.1502  0.3100
    1SOL    HW2 9734   0.062   4.275   4.096  0.0599  1.4219  0.1574
    1SOL    HW3 9735   0.007   4.202   4.217 -0.0964 -0.5543 -1.0884
    1SOL    MW4 9736   0.045   4.272   4.181  0.0060  0.0043  0.1054
    1SOL     OW 9737   2.697   0.112   4.279 -0.0725  0.0832 -0.1486
    1SOL    HW2 9738   2.699   0.206   4.261 -0.4199  0.2018  0.3948
    1SOL    HW3 9739   2.684   0.107   4.374  0.4327 -0.5102 -0.1110
    1SOL    MW4 9740   2.695   0.124   4.289 -0.0515  0.0206 -0.0715
    1SOL     OW 9741   0.262   3.111   4.185 -0.0590 -0.2945  0.4693
    1SOL    HW2 9742   0.344   3.126   4.231  1.2167 -1.1040 -1.4847
    1SOL    HW3 9743   0.238   3.021   4.206  0.5388 -0.6737 -0.4508
    1SOL    MW4 9744   0.269   3.101   4.194  0.1882 -0.4513  0.0896
    1SOL     OW 9745   2.114   0.255   4.599  0.3489  0.7989  0.1815
    1SOL    HW2 9746   2.077   0.221   4.681 -1.8428 -0.9085 -1.4626
    1SOL    HW3 9747   2.194   0.205   4.587  0.6661  1.0254  1.2337
    1SOL    MW4 9748   2.120   0.244   4.609  0.1016  0.6035  0.1035
    1SOL     OW 9749   0.669   0.522   4.265 -0.0211  0.2152 -0.6633
    1SOL    HW2 9750   0.582   0.488   4.246 -0.4466  0.9057  0.0476
    1SOL    HW3 9751   0.666   0.613   4.238  0.5990  0.1439 -0.9880
    1SOL    MW4 9752   0.657   0.529   4.259  0.0045  0.2970 -0.6127
    1SOL     OW 9753   1.270   3.177   4.135 -0.3909  0.0011  0.1510
    1SOL    HW2 9754   1.214   3.146   4.064 -0.7581  0.4022  0.2715
    1SOL    HW3 9755   1.222   3.154   4.215  0.2604 -0.9261  0.2883
    1SOL    MW4 9756   1.256   3.170   4.137 -0.3533 -0.0682  0.1845
    1SOL     OW 9757   0.382   1.643   4.231 -0.1975  0.3525  0.0446
    1SOL    HW2 9758   0.385   1.737   4.210 -1.5474  0.3047 -0.3859
    1SOL    HW3 9759   0.411   1.638   4.322 -0.0659  1.1784  0.0578
    1SOL    MW4 9760   0.386   1.655   4.240 -0.3583  0.4553 -0.0105
    1SOL     OW 9761   4.253   4.616   4.111 -0.3276  0.3347 -0.4210
    1SOL    HW2 9762   4.170   4.653   4.144 -0.3879  0.8907 -1.1747
    1SOL    HW3 9763   4.320   4.662   4.161 -0.4744 -0.1720  0.2481
    1SOL    MW4 9764   4.251   4.627   4.122 -0.3548  0.3414 -0.4325
    1SOL     OW 9765   0.162   1.496   4.133 -0.2398  0.6132  0.3892
    1SOL    HW2 9766   0.245   1.535   4.161 -0.3427  1.6411 -0.7176
    1SOL    HW3 9767   0.156   1.415   4.183  1.6753  0.2826  0.1382
    1SOL    MW4 9768   0.172   1.490   4.143 -0.0007  0.7051  0.2103
    1SOL     OW 9769   0.875   1.984   4.314 -0.3238  0.1424  0.1775
    1SOL    HW2 9770   0.793   2.029   4.293  0.0510  0.7883  0.0978
    1SOL    HW3 9771   0.879   1.911   4.252 -1.0711 -0.1697  0.4957
    1SOL    MW4 9772   0.865   1.980   4.303 -0.3730  0.1864  0.2089
    1SOL     OW 9773   4.456   0.827   4.260  0.9438  0.1514  0.1049
    1SOL    HW2 9774   4.376   0.776   4.247  0.4268  0.9750  0.0025
    1SOL    HW3 9775   4.524   0.776   4.217  0.2309  0.0999 -0.9885
    1SOL    MW4 9776   4.454   0.813   4.252  0.7820  0.2533 -0.0529
    1SOL     OW 9777   0.624   1.277   4.200 -0.0589  0.3187  0.1506
    1SOL    HW2 9778   0.639   1.278   4.295 -2.7970  1.7371  0.6455
    1SOL    HW3 9779   0.627   1.370   4.175  0.2314 -0.0152 -1.0619
    1SOL    MW4 9780   0.626   1.290   4.209 -0.3818  0.4619  0.0553
    1SOL     OW 9781   0.636   2.320   3.802  0.1527 -0.5367  0.0284
    1SOL    HW2 9782   0.727   2.347   3.790 -0.3497  0.6900 -1.1601
    1SOL    HW3 9783   0.585   2.396   3.774 -1.2314 -0.9211  1.4528
    1SOL    MW4 9784   0.642   2.333   3.797 -0.0961 -0.4256  0.0596
    1SOL     OW 9785   2.880   3.236   4.487 -0.3961  0.2320  0.0501
    1SOL    HW2 9786   2.848   3.176   4.420  0.2022  1.1296 -1.0613
    1SOL    HW3 9787   2.801   3.275   4.525 -0.7596 -0.7751  0.3336
    1SOL    MW4 9788   2.866   3.233   4.483 -0.3653  0.2177 -0.0591
    1SOL     OW 9789   1.409   1.532   4.483  0.0573  0.5895  0.1510
    1SOL    HW2 9790   1.450   1.454   4.521  0.0316  0.3870 -0.2320
    1SOL    HW3 9791   1.341   1.497   4.425 -1.0202  0.9376  1.1962
    1SOL    MW4 9792   1.405   1.517   4.480 -0.0883  0.6087  0.2389
    1SOL     OW 9793   3.360   3.813   4.136  0.2208  0.5220 -0.1851
    1SOL    HW2 9794   3.293   3.876   4.163  0.2753  0.6053 -0.2439
    1SOL    HW3 9795   3.353   3.741   4.199  1.0926  1.2179  0.7269
    1SOL    MW4 9796   3.350   3.812   4.148  0.3431  0.6247 -0.0730
    1SOL     OW 9797   3.144   3.485   4.719 -0.0992  0.0153  0.3901
    1SOL    HW2 9798   3.106   3.446   4.640  0.6986  0.7981 -0.3822
    1SOL    HW3 9799   3.167   3.409   4.774 -1.3542 -0.5065  0.2083
    1SOL    MW4 9800   3.142   3.470   4.716 -0.1597  0.0498  0.2646
    1SOL     OW 9801   3.890   2.448   4.453 -0.1120 -0.1500  0.1165
    1SOL    HW2 9802   3.796   2.466   4.452 -0.1068 -0.0987  0.8102
    1SOL    HW3 9803   3.898   2.367   4.503  0.3755  0.7426  1.5010
    1SOL    MW4 9804   3.879   2.439   4.459 -0.0472 -0.0253  0.3910
    1SOL     OW 9805   0.586   1.421   4.516 -0.0909 -0.0732  0.4349
    1SOL    HW2 9806   0.665   1.450   4.470 -0.1341 -0.1819  0.2949
    1SOL    HW3 9807   0.589   1.326   4.511  0.0989 -0.0987  0.9786
    1SOL    MW4 9808   0.597   1.412   4.509 -0.0716 -0.0910  0.4878
    1SOL     OW 9809   1.279   0.957   4.270 -0.3815 -0.4245  0.0725
    1SOL    HW2 9810   1.354   0.900   4.250 -0.8131 -0.5731 -1.1491
    1SOL    HW3 9811   1.308   1.045   4.244 -0.1136 -0.2496  0.9426
    1SOL    MW4 9812   1.293   0.961   4.264 -0.4032 -0.4211  0.0262
    1SOL     OW 9813   0.665   3.878   4.202 -0.0431 -0.5442 -0.0029
    1SOL    HW2 9814   0.659   3.793   4.246 -1.1705  0.2190  1.3371
    1SOL    HW3 9815   0.747   3.916   4.234  0.5349 -1.1707 -0.7116
    1SOL    MW4 9816   0.675   3.872   4.212 -0.1156 -0.5257  0.0806
    1SOL     OW 9817   4.222   3.936   4.838 -0.2101  0.1704  0.0087
    1SOL    HW2 9818   4.153   3.900   4.782  0.8755 -0.2568 -1.0614
    1SOL    HW3 9819   4.246   4.019   4.796 -0.3223  0.4999  0.5871
    1SOL    MW4 9820   4.216   3.943   4.825 -0.0820  0.1574 -0.0558
    1SOL     OW 9821   1.345   4.229   4.618  0.3579 -0.2349  0.4287
    1SOL    HW2 9822   1.326   4.152   4.564 -0.6601  0.6485 -0.5168
    1SOL    HW3 9823   1.259   4.267   4.636  0.9209  1.3514 -0.1309
    1SOL    MW4 9824   1.331   4.224   4.613  0.2979  0.0906  0.2303
    1SOL     OW 9825   1.590   4.379   4.580  0.7178  0.1786 -0.0880
    1SOL    HW2 9826   1.586   4.410   4.489 -0.2840  1.0635  0.2525
    1SOL    HW3 9827   1.505   4.338   4.595  0.9325 -0.0760  0.4108
    1SOL    MW4 9828   1.578   4.377   4.570  0.6139  0.2618  0.0234
    1SOL     OW 9829   2.005   1.333   4.273  0.2688 -0.2912 -0.0994
    1SOL    HW2 9830   1.974   1.348   4.362 -0.3670 -2.0038 -0.0156
    1SOL    HW3 9831   2.078   1.272   4.283  0.6091  0.0092 -0.7010
    1SOL    MW4 9832   2.011   1.327   4.286  0.2296 -0.4776 -0.1674
    1SOL     OW 9833   0.675   0.008   4.151 -0.0854 -0.0962  0.2685
    1SOL    HW2 9834   0.683  -0.076   4.197  0.6086  0.1838  0.6607
    1SOL    HW3 9835   0.667  -0.016   4.059 -0.0988 -0.6030  0.3963
    1SOL    MW4 9836   0.675  -0.007   4.145  0.0045 -0.1264  0.3376
    1SOL     OW 9837   3.130   2.493   4.306  0.3871  0.1200 -0.2076
    1SOL    HW2 9838   3.177   2.448   4.235  0.8729 -0.6823  0.6109
    1SOL    HW3 9839   3.078   2.424   4.347  1.4423  0.2146  1.3093
    1SOL    MW4 9840   3.130   2.478   4.302  0.5903  0.0265  0.1006
    1SOL     OW 9841   2.291   3.999   4.220  0.6420 -0.2193  0.1593
    1SOL    HW2 9842   2.284   4.035   4.308 -0.8265  0.7185 -0.3133
    1SOL    HW3 9843   2.304   4.076   4.164  0.4328 -0.7034 -0.5621
    1SOL    MW4 9844   2.292   4.014   4.224  0.4206 -0.1597  0.0024
    1SOL     OW 9845   0.842   0.433   4.074  0.0118  0.1215  0.0070
    1SOL    HW2 9846   0.788   0.491   4.128 -0.3349  0.0300 -0.2341
    1SOL    HW3 9847   0.854   0.355   4.127 -1.1676 -0.3758 -0.4284
    1SOL    MW4 9848   0.836   0.430   4.088 -0.1895  0.0438 -0.0820
    1SOL     OW 9849   0.431   0.438   4.168 -0.0244  0.1966  0.6371
    1SOL    HW2 9850   0.421   0.438   4.073  3.9697  0.7448  0.0902
    1SOL    HW3 9851   0.436   0.345   4.192  1.5227  0.0788 -0.0763
    1SOL    MW4 9852   0.431   0.426   4.159  0.7067  0.2534  0.4711
    1SOL     OW 9853   3.963   1.803   4.470  0.4252  0.2614  0.0890
    1SOL    HW2 9854   4.036   1.866   4.475  1.3966 -0.7530 -1.0226
    1SOL    HW3 9855   3.978   1.756   4.388 -1.2141 -0.3060  0.1093
    1SOL    MW4 9856   3.975   1.805   4.460  0.3371  0.0527 -0.0548
    1SOL     OW 9857   4.209   1.250   4.463  0.2003 -0.3709 -0.3598
    1SOL    HW2 9858   4.247   1.318   4.519  2.0670 -0.4613 -1.4740
    1SOL    HW3 9859   4.116   1.252   4.483 -0.1991  4.1676 -2.0376
    1SOL    MW4 9860   4.202   1.259   4.473  0.3943  0.2160 -0.7277
    1SOL     OW 9861   1.750   2.468   4.215  0.2532  0.0974 -0.0258
    1SOL    HW2 9862   1.668   2.430   4.183  0.1547 -0.9833  1.4444
    1SOL    HW3 9863   1.819   2.414   4.176  0.1672 -0.6344  0.8296
    1SOL    MW4 9864   1.748   2.456   4.206  0.2289 -0.1419  0.2813
    1SOL     OW 9865   0.621   2.313   4.089 -0.4730 -0.4836  0.0245
    1SOL    HW2 9866   0.597   2.321   3.997 -1.2495 -0.3375  0.2396
    1SOL    HW3 9867   0.556   2.365   4.136  0.0883 -0.3201  0.6355
    1SOL    MW4 9868   0.609   2.321   4.083 -0.5015 -0.4427  0.1330
    1SOL     OW 9869   0.386   1.154   4.128 -0.3965 -0.2127 -0.2322
    1SOL    HW2 9870   0.409   1.167   4.036  1.1340 -1.0127  0.0234
    1SOL    HW3 9871   0.463   1.185   4.177 -1.1765  0.1744  0.7765
    1SOL    MW4 9872   0.399   1.160   4.123 -0.2975 -0.2670 -0.0653
    1SOL     OW 9873   4.251   0.555   4.504 -0.0283 -0.4544 -0.1490
    1SOL    HW2 9874   4.346   0.552   4.521 -0.1232 -1.4697  0.2226
    1SOL    HW3 9875   4.241   0.518   4.417 -0.2255 -1.7897  0.4288
    1SOL    MW4 9876   4.263   0.550   4.495 -0.0668 -0.7645 -0.0238
    1SOL     OW 9877   1.958   2.213   4.545  0.3705  0.2955  0.4342
    1SOL    HW2 9878   1.879   2.198   4.596 -1.5085  2.1069 -1.8980
    1SOL    HW3 9879   2.006   2.281   4.593  0.4851 -0.6879  1.7497
    1SOL    MW4 9880   1.954   2.220   4.558  0.1378  0.4046  0.3004
    1SOL     OW 9881   3.770   2.023   4.248 -0.3521  0.3680 -0.6081
    1SOL    HW2 9882   3.751   2.005   4.340 -0.3345  1.3030 -0.4194
    1SOL    HW3 9883   3.689   2.000   4.202 -0.6451  0.7053 -0.2615
    1SOL    MW4 9884   3.757   2.017   4.254 -0.3884  0.5357 -0.5374
    1SOL     OW 9885   0.886   0.671   4.643 -0.2733  0.3195 -0.0734
    1SOL    HW2 9886   0.885   0.638   4.732  0.5635  0.6407  0.0568
    1SOL    HW3 9887   0.964   0.632   4.604 -0.5406  0.3162 -0.6153
    1SOL    MW4 9888   0.896   0.661   4.649 -0.1982  0.3614 -0.1283
    1SOL     OW 9889   1.831   4.588   4.731  0.3573  0.3850 -0.1148
    1SOL    HW2 9890   1.737   4.597   4.749  0.0167 -1.9033 -0.6700
    1SOL    HW3 9891   1.847   4.494   4.731  2.5949  0.7354 -0.4319
    1SOL    MW4 9892   1.821   4.577   4.733  0.6075  0.1287 -0.2303
    1SOL     OW 9893   3.634   3.655   4.602 -0.1219  0.9556  0.3079
    1SOL    HW2 9894   3.674   3.569   4.588  0.8341  0.7754  3.6761
    1SOL    HW3 9895   3.541   3.636   4.613 -0.1071  0.5158 -0.2775
    1SOL    MW4 9896   3.627   3.641   4.602  0.0060  0.8738  0.6747
    1SOL     OW 9897   1.668   2.456   4.730  0.0542 -0.1628  0.2876
    1SOL    HW2 9898   1.641   2.369   4.759  0.7197  0.0442  1.5973
    1SOL    HW3 9899   1.705   2.443   4.643 -0.4195 -1.0931  0.2257
    1SOL    MW4 9900   1.670   2.443   4.722  0.0795 -0.2582  0.4520
    1SOL     OW 9901   1.372   3.451   4.147  0.0588  0.2053 -0.6450
    1SOL    HW2 9902   1.378   3.462   4.052  0.3621 -2.0760 -0.9124
    1SOL    HW3 9903   1.347   3.359   4.159  2.2090 -0.1221  1.5425
    1SOL    MW4 9904   1.369   3.440   4.136  0.3827 -0.1392 -0.3915
    1SOL     OW 9905   3.555   4.248   4.155 -0.0254  0.2069  0.5907
    1SOL    HW2 9906   3.562   4.154   4.170 -0.4038  0.0638 -0.1084
    1SOL    HW3 9907   3.633   4.285   4.197  0.8088 -0.5543 -0.2477
    1SOL    MW4 9908   3.566   4.240   4.162  0.0348  0.0882  0.3881
    1SOL     OW 9909   1.105   3.831   4.163 -0.8795 -0.1601  0.2262
    1SOL    HW2 9910   1.122   3.744   4.197 -0.1449 -0.6783 -1.4250
    1SOL    HW3 9911   1.186   3.879   4.178 -0.7617 -0.2109 -0.2600
    1SOL    MW4 9912   1.118   3.826   4.170 -0.7671 -0.2353 -0.0558
    1SOL     OW 9913   4.357   2.965   4.542 -0.3857 -0.3682 -0.1715
    1SOL    HW2 9914   4.338   3.054   4.572 -1.5237 -0.9664  0.9033
    1SOL    HW3 9915   4.295   2.949   4.471 -0.1937 -0.3131 -0.3523
    1SOL    MW4 9916   4.347   2.974   4.537 -0.5107 -0.4399 -0.0534
    1SOL     OW 9917   0.932   4.259   4.149  0.0444  0.7487 -0.3037
    1SOL    HW2 9918   0.929   4.176   4.196  0.3173 -0.2703 -2.0070
    1SOL    HW3 9919   1.006   4.306   4.187  1.1006 -0.6222 -0.6036
    1SOL    MW4 9920   0.941   4.254   4.160  0.2198  0.4334 -0.5679
    1SOL     OW 9921   2.746   3.090   4.314 -0.2674 -0.8327  0.2429
    1SOL    HW2 9922   2.663   3.135   4.329 -0.5598 -1.4383  0.4458
    1SOL    HW3 9923   2.730   2.999   4.340  0.3291 -1.0533 -0.1367
    1SOL    MW4 9924   2.733   3.084   4.319 -0.2275 -0.9418  0.2193
    1SOL     OW 9925   1.288   2.482   4.235 -0.1222 -0.4251 -0.3481
    1SOL    HW2 9926   1.206   2.434   4.221  0.3080 -1.3210  0.1095
    1SOL    HW3 9927   1.355   2.424   4.199  0.4364 -0.3180  0.5062
    1SOL    MW4 9928   1.286   2.468   4.228  0.0082 -0.5291 -0.1745
    1SOL     OW 9929   3.553   0.350   4.182 -0.1102 -0.0612  0.0077
    1SOL    HW2 9930   3.633   0.402   4.197  0.0770  0.9108 -3.8603
    1SOL    HW3 9931   3.483   0.403   4.219  0.3961  1.8010 -1.6231
    1SOL    MW4 9932   3.555   0.364   4.189 -0.0186  0.3128 -0.7176
    1SOL     OW 9933   4.247   2.331   4.101 -0.5607 -0.0315  0.2434
    1SOL    HW2 9934   4.179   2.375   4.152 -0.2260  1.3391 -0.4646
    1SOL    HW3 9935   4.329   2.359   4.141 -0.3935 -1.2750  0.7722
    1SOL    MW4 9936   4.249   2.341   4.113 -0.4950 -0.0145  0.2198
    1SOL     OW 9937   0.497   4.363   4.677  0.3818 -0.0233 -0.0837
    1SOL    HW2 9938   0.484   4.268   4.675 -0.1414  0.0551 -1.2192
    1SOL    HW3 9939   0.419   4.398   4.634  0.3093  0.9524  0.8433
    1SOL    MW4 9940   0.485   4.355   4.671  0.3031  0.1159 -0.1116
    1SOL     OW 9941   3.392   2.329   4.608  0.5661 -0.5786 -0.2604
    1SOL    HW2 9942   3.302   2.339   4.640  0.6765  1.0566 -0.4201
    1SOL    HW3 9943   3.436   2.278   4.675 -0.0025  0.2269  0.7328
    1SOL    MW4 9944   3.386   2.323   4.621  0.5057 -0.2568 -0.1502
    1SOL     OW 9945   0.279   4.422   4.279  0.0675  0.1555 -0.0744
    1SOL    HW2 9946   0.192   4.385   4.263 -0.3165  0.6961  0.7204
    1SOL    HW3 9947   0.340   4.357   4.243 -0.6718 -0.0137 -1.0617
    1SOL    MW4 9948   0.275   4.409   4.272 -0.0807  0.2046 -0.1006
    1SOL     OW 9949   1.336   1.241   4.157 -0.2954 -0.1398 -0.5463
    1SOL    HW2 9950   1.430   1.256   4.166  0.0015 -2.4882  0.4276
    1SOL    HW3 9951   1.325   1.215   4.065  0.0183 -0.1018 -0.5961
    1SOL    MW4 9952   1.347   1.240   4.146 -0.2149 -0.4448 -0.4244
    1SOL     OW 9953   0.694   0.025   4.660 -0.0622  0.4323  0.3940
    1SOL    HW2 9954   0.717  -0.059   4.620 -0.0397  0.1775  0.9380
    1SOL    HW3 9955   0.724   0.017   4.750  0.6578  1.3192  0.2444
    1SOL    MW4 9956   0.701   0.013   4.666  0.0358  0.5155  0.4468
    1SOL     OW 9957   0.130   2.838   4.512 -0.5201 -0.1417 -0.1594
    1SOL    HW2 9958   0.203   2.888   4.549  0.2708 -2.6596  1.8633
    1SOL    HW3 9959   0.052   2.889   4.536  0.3737  0.9880  0.3904
    1SOL    MW4 9960   0.129   2.851   4.520 -0.2978 -0.3247  0.1802
    1SOL     OW 9961   2.256   1.688   4.241  0.1082  0.1704 -0.2292
    1SOL    HW2 9962   2.296   1.645   4.166  0.2849  0.0497 -0.0677
    1SOL    HW3 9963   2.287   1.637   4.317 -0.2610  0.1447 -0.0958
    1SOL    MW4 9964   2.266   1.676   4.241  0.0827  0.1510 -0.1903
    1SOL     OW 9965   0.482   4.247   4.188  0.4105  0.1938 -0.7253
    1SOL    HW2 9966   0.459   4.237   4.096 -0.5518  1.5161 -0.6438
    1SOL    HW3 9967   0.552   4.312   4.189  0.3845  0.2194 -0.5127
    1SOL    MW4 9968   0.488   4.254   4.176  0.2801  0.3719 -0.6862
    1SOL     OW 9969   1.816   1.154   4.197 -0.0748 -0.6629  0.2156
    1SOL    HW2 9970   1.885   1.217   4.216 -0.3052 -0.0729 -0.8949
    1SOL    HW3 9971   1.817   1.094   4.272  0.7246  0.1385  0.8510
    1SOL    MW4 9972   1.825   1.154   4.210  0.0002 -0.4793  0.1526
    1SOL     OW 9973   0.647   1.556   4.147  0.1317 -1.2568 -0.3771
    1SOL    HW2 9974   0.558   1.580   4.172  0.6267  0.1597  0.0296
    1SOL    HW3 9975   0.644   1.553   4.051  0.2228  1.1080 -0.4775
    1SOL    MW4 9976   0.635   1.559   4.137  0.2090 -0.7579 -0.3366
    1SOL     OW 9977   2.082   1.248   4.591 -0.5653  0.1976 -0.0695
    1SOL    HW2 9978   2.062   1.160   4.621 -0.4976 -0.9403 -3.2500
    1SOL    HW3 9979   2.176   1.247   4.572  0.0655  1.8598  2.7307
    1SOL    MW4 9980   2.092   1.237   4.592 -0.4733  0.2667 -0.1197
    1SOL     OW 9981   2.959   3.660   4.829  0.0575 -0.1520  0.1783
    1SOL    HW2 9982   3.030   3.600   4.805 -0.0197 -0.7059  1.3124
    1SOL    HW3 9983   2.978   3.740   4.781  1.9083 -0.0218  1.0984
    1SOL    MW4 9984   2.971   3.662   4.819  0.2916 -0.2079  0.4497
    1SOL     OW 9985   4.241   3.613   4.277  0.2828  0.0515  0.4354
    1SOL    HW2 9986   4.184   3.581   4.207  0.2497  1.4489 -0.1909
    1SOL    HW3 9987   4.327   3.576   4.257  0.3315  0.6438 -0.4953
    1SOL    MW4 9988   4.244   3.604   4.265  0.2847  0.3140  0.2298
    1SOL     OW 9989   1.966   4.338   4.704 -0.1860  0.2729 -0.0245
    1SOL    HW2 9990   1.905   4.278   4.661 -0.6937  0.4951  0.3738
    1SOL    HW3 9991   2.038   4.348   4.642  0.4237 -1.5778  0.3335
    1SOL    MW4 9992   1.967   4.331   4.690 -0.1724  0.0582  0.0758
    1SOL     OW 9993   0.731   2.541   4.654 -0.5794  0.3094 -0.0642
    1SOL    HW2 9994   0.715   2.541   4.748 -1.9180  0.6973 -0.2904
    1SOL    HW3 9995   0.752   2.632   4.633 -1.2763  0.4167 -0.3050
    1SOL    MW4 9996   0.732   2.553   4.663 -0.8480  0.3750 -0.1264
    1SOL     OW 9997   1.256   2.468   4.514 -0.0131  0.3610 -0.1190
    1SOL    HW2 9998   1.203   2.544   4.536  0.2802  0.3836  0.5285
    1SOL    HW3 9999   1.264   2.471   4.418 -1.5032  0.1287 -0.2556
    1SOL    MW410000   1.250   2.479   4.504 -0.1709  0.3335 -0.0515
    1SOL     OW10001   0.871   0.183   4.210 -0.2266  0.0268 -0.2756
    1SOL    HW210002   0.803   0.128   4.171 -1.2995  0.0730  1.4809
    1SOL    HW310003   0.864   0.168   4.304  1.3936  0.9736  0.0248
    1SOL    MW410004   0.861   0.174   4.217 -0.1544  0.1578 -0.0043
    1SOL     OW10005   2.712   2.836   4.402  0.2836 -0.0396  0.1879
    1SOL    HW210006   2.675   2.774   4.339 -1.0131  2.5591 -1.7286
    1SOL    HW310007   2.803   2.810   4.410  0.2087 -1.1081 -1.9668
    1SOL    MW410008   2.719   2.824   4.395  0.1023  0.1626 -0.3490
    1SOL     OW10009   4.233   2.831   4.286  0.0119 -0.2496 -0.1962
    1SOL    HW210010   4.246   2.765   4.354  0.5385  0.1008  0.0445
    1SOL    HW310011   4.162   2.796   4.233  0.7527 -1.3395 -0.4816
    1SOL    MW410012   4.225   2.818   4.288  0.1783 -0.3471 -0.2022
    1SOL     OW10013   1.119   4.430   4.287 -0.0059  0.0946  0.0741
    1SOL    HW210014   1.195   4.392   4.243 -0.5063 -0.1254 -0.6017
    1SOL    HW310015   1.104   4.513   4.242  0.2361  0.4531  0.6437
    1SOL    MW410016   1.127   4.436   4.275 -0.0399  0.1125  0.0601
    1SOL     OW10017   3.811   3.836   4.187  0.5148 -0.3775  0.2221
    1SOL    HW210018   3.736   3.890   4.212  1.1944 -0.3256  2.3274
    1SOL    HW310019   3.791   3.749   4.222  1.6277 -0.2385  1.2674
    1SOL    MW410020   3.799   3.832   4.195  0.7513 -0.3524  0.6375
    1SOL     OW10021   2.584   0.924   4.526 -0.0901  0.0827  0.0411
    1SOL    HW210022   2.622   0.852   4.575  1.6003  1.0911  0.2573
    1SOL    HW310023   2.605   0.906   4.435 -0.6048 -0.2429 -0.0148
    1SOL    MW410024   2.592   0.912   4.520  0.0651  0.1728  0.0625
    1SOL     OW10025   1.289   2.051   4.539  0.0005  0.4395  0.1425
    1SOL    HW210026   1.263   1.962   4.564  1.3311 -0.4605 -1.6133
    1SOL    HW310027   1.221   2.107   4.576 -0.7244 -1.2898  1.4683
    1SOL    MW410028   1.276   2.047   4.547  0.0805  0.0925  0.0858
    1SOL     OW10029   1.076   0.558   4.191 -0.2079  0.4766  0.2543
    1SOL    HW210030   1.008   0.510   4.143  0.0157  0.4730 -0.0650
    1SOL    HW310031   1.079   0.644   4.149  0.1171  0.4106  0.1391
    1SOL    MW410032   1.067   0.563   4.179 -0.1354  0.4674  0.1969
    1SOL     OW10033   1.610   1.738   4.430 -0.4968 -0.1874  0.1853
    1SOL    HW210034   1.562   1.655   4.421  0.6248 -0.8535  0.1557
    1SOL    HW310035   1.674   1.736   4.359  0.9043 -0.2620  1.4136
    1SOL    MW410036   1.612   1.727   4.419 -0.1639 -0.2851  0.3428
    1SOL     OW10037   3.498   2.744   4.475 -0.0548  0.5139 -0.4883
    1SOL    HW210038   3.453   2.736   4.391 -1.0866  0.8319  0.0300
    1SOL    HW310039   3.432   2.723   4.540  0.9138 -0.3898  0.2280
    1SOL    MW410040   3.483   2.740   4.472 -0.0629  0.4365 -0.3257
    1SOL     OW10041   1.602   1.301   4.521 -0.4321 -0.0950 -0.4450
    1SOL    HW210042   1.593   1.215   4.562  0.1217  0.2684  0.4655
    1SOL    HW310043   1.696   1.314   4.512 -0.4874  0.6922  0.0447
    1SOL    MW410044   1.613   1.292   4.525 -0.3663  0.0569 -0.2604
    1SOL     OW10045   1.810   2.440   4.476  0.2456 -0.0215  0.0780
    1SOL    HW210046   1.780   2.456   4.387  1.4376 -1.1935 -0.5435
    1SOL    HW310047   1.854   2.355   4.472  1.1518  0.3564  1.5715
    1SOL    MW410048   1.812   2.431   4.464  0.5224 -0.1264  0.1931
    1SOL     OW10049   0.076   0.599   4.528 -0.1815  0.0441 -0.5342
    1SOL    HW210050   0.110   0.567   4.445  0.0087 -0.3638 -0.3057
    1SOL    HW310051   0.110   0.536   4.593 -1.3633 -0.3643 -0.2997
    1SOL    MW410052   0.085   0.586   4.526 -0.3123 -0.0636 -0.4725
    1SOL     OW10053   3.792   0.469   4.229  0.2378 -0.0274  0.2288
    1SOL    HW210054   3.856   0.410   4.188 -1.4241 -1.2306 -0.6787
    1SOL    HW310055   3.811   0.554   4.190  1.0443 -0.4418 -0.3210
    1SOL    MW410056   3.803   0.472   4.219  0.1249 -0.2408  0.0367
    1SOL     OW10057   2.376   1.249   4.089  0.4502 -0.1702 -0.6998
    1SOL    HW210058   2.391   1.342   4.102 -0.3616 -0.2254  0.7381
    1SOL    HW310059   2.462   1.208   4.102  0.8504  0.3987 -1.5648
    1SOL    MW410060   2.389   1.256   4.093  0.3958 -0.1025 -0.6247
    1SOL     OW10061   3.571   1.213   4.584 -0.4035 -0.2594 -0.1467
    1SOL    HW210062   3.504   1.160   4.541 -0.5140 -0.7107  0.5915
    1SOL    HW310063   3.611   1.155   4.649 -0.3014  0.4546  0.4349
    1SOL    MW410064   3.568   1.198   4.587 -0.4046 -0.2247  0.0272
    1SOL     OW10065   3.562   2.675   4.107 -0.3320  0.1977  0.2945
    1SOL    HW210066   3.546   2.712   4.020 -0.8749 -0.7656 -0.0255
    1SOL    HW310067   3.477   2.681   4.151  0.2871  2.0800  1.3185
    1SOL    MW410068   3.548   2.681   4.101 -0.3223  0.3188  0.3872
    1SOL     OW10069   0.775   2.794   4.515 -0.6454 -0.3778 -0.1546
    1SOL    HW210070   0.769   2.783   4.420  1.4744 -0.0516 -0.3660
    1SOL    HW310071   0.713   2.863   4.536  0.0654  0.7269 -1.5668
    1SOL    MW410072   0.766   2.802   4.505 -0.2720 -0.1891 -0.3691
    1SOL     OW10073   2.030   0.972   4.655  0.1903  0.8423 -0.0971
    1SOL    HW210074   1.987   0.929   4.728 -0.2779  0.2560 -0.7123
    1SOL    HW310075   2.122   0.946   4.661 -0.0786 -0.1885 -0.4266
    1SOL    MW410076   2.037   0.963   4.665  0.0930  0.6289 -0.2222
    1SOL     OW10077   1.629   0.167   4.575 -0.6036  0.3454  0.2865
    1SOL    HW210078   1.593   0.096   4.628 -0.4580  1.1249  1.4191
    1SOL    HW310079   1.723   0.150   4.573 -0.5493  0.5958  0.6917
    1SOL    MW410080   1.637   0.155   4.581 -0.5772  0.4813  0.4888
    1SOL     OW10081   3.581   0.917   4.195 -0.3466 -0.3761  0.5037
    1SOL    HW210082   3.554   1.008   4.189  0.0959 -0.2034  1.0623
    1SOL    HW310083   3.578   0.897   4.289  0.7589 -0.5622  0.5052
    1SOL    MW410084   3.577   0.926   4.207 -0.1423 -0.3778  0.5774
    1SOL     OW10085   2.178   2.443   4.243  0.3320  0.3175 -0.0305
    1SOL    HW210086   2.253   2.387   4.224  0.3989  0.5487 -0.4434
    1SOL    HW310087   2.180   2.453   4.338  0.0335 -0.7774  0.1026
    1SOL    MW410088   2.189   2.437   4.253  0.3016  0.2036 -0.0672
    1SOL     OW10089   3.092   0.927   4.206 -0.1579  0.7239  0.3448
    1SOL    HW210090   3.110   1.013   4.168 -0.7067  0.1707 -1.1913
    1SOL    HW310091   3.172   0.877   4.191 -0.3076  0.5639  0.0736
    1SOL    MW410092   3.105   0.932   4.199 -0.2501  0.6298  0.1059
    1SOL     OW10093   2.190   0.901   4.302  0.2413  0.3194  0.5293
    1SOL    HW210094   2.271   0.874   4.259 -0.0871  1.5547 -0.9192
    1SOL    HW310095   2.207   0.887   4.396  1.5576 -0.8824  0.1362
    1SOL    MW410096   2.203   0.896   4.309  0.3715  0.3238  0.2861
    1SOL     OW10097   2.468   3.103   3.826 -0.2372  0.1014  0.1156
    1SOL    HW210098   2.551   3.147   3.807 -1.4142  2.3996  0.2053
    1SOL    HW310099   2.468   3.093   3.922 -0.0889  0.1247  0.1180
    1SOL    MW410100   2.479   3.107   3.836 -0.3729  0.4077  0.1278
    1SOL     OW10101   2.057   4.627   4.151 -0.3731 -0.2293  0.1951
    1SOL    HW210102   1.975   4.651   4.193  0.3464  2.2460  0.2928
    1SOL    HW310103   2.049   4.659   4.061  0.5228  0.1621  0.2433
    1SOL    MW410104   2.045   4.634   4.144 -0.1600  0.1488  0.2141
    1SOL     OW10105   0.723   4.452   4.536 -0.1702  0.4946 -0.2380
    1SOL    HW210106   0.645   4.415   4.578  0.1474 -2.4178 -2.0658
    1SOL    HW310107   0.796   4.402   4.573  0.5896  1.4088 -0.4821
    1SOL    MW410108   0.722   4.440   4.547 -0.0281  0.2308 -0.5112
    1SOL     OW10109   2.969   1.656   4.526 -0.3431 -0.0721  0.1108
    1SOL    HW210110   3.015   1.728   4.569  1.5747 -0.7178 -0.8422
    1SOL    HW310111   2.994   1.663   4.434 -1.3876 -1.0417 -0.2611
    1SOL    MW410112   2.978   1.667   4.519 -0.2282 -0.2853 -0.0634
    1SOL     OW10113   1.103   0.828   4.105 -0.0389  0.2578 -0.5796
    1SOL    HW210114   1.164   0.882   4.155  1.1716 -3.1603  1.7213
    1SOL    HW310115   1.018   0.845   4.146  0.3093  0.5097  0.0499
    1SOL    MW410116   1.100   0.838   4.117  0.1668 -0.1600 -0.1931
    1SOL     OW10117   3.351   4.394   4.250  0.0048 -0.4741 -0.1163
    1SOL    HW210118   3.338   4.389   4.345 -0.8454 -0.3197 -0.2216
    1SOL    HW310119   3.433   4.347   4.235  0.4909  0.0779  0.7683
    1SOL    MW410120   3.360   4.387   4.260 -0.0432 -0.3810 -0.0138
    1SOL     OW10121   2.183   3.036   4.715  0.0216 -0.1333  0.4112
    1SOL    HW210122   2.229   3.003   4.638 -0.4588 -0.6665  0.3450
    1SOL    HW310123   2.125   3.104   4.682  1.6275  1.3851  0.6684
    1SOL    MW410124   2.181   3.041   4.701  0.1702 -0.0033  0.4368
    1SOL     OW10125   2.871   0.762   4.159  0.4125 -0.2623 -0.0998
    1SOL    HW210126   2.928   0.824   4.206  0.7149 -0.2923 -0.4314
    1SOL    HW310127   2.907   0.758   4.071 -0.7197  0.5228 -0.6167
    1SOL    MW410128   2.883   0.770   4.154  0.3030 -0.1627 -0.2117
    1SOL     OW10129   3.141   3.498   3.863  0.1303  0.2465  0.0957
    1SOL    HW210130   3.233   3.524   3.860  1.1356 -2.9995  0.9865
    1SOL    HW310131   3.142   3.403   3.852 -2.9911 -0.0523  1.7367
    1SOL    MW410132   3.153   3.489   3.861 -0.1490 -0.2210  0.4299
    1SOL     OW10133   3.050   1.662   4.259  0.2098  0.5909 -0.2327
    1SOL    HW210134   3.021   1.753   4.255 -0.7290  0.3189  0.1546
    1SOL    HW310135   3.135   1.661   4.215 -0.4210  1.4046 -1.4959
    1SOL    MW410136   3.057   1.674   4.253  0.0031  0.6623 -0.3486
    1SOL     OW10137   2.820   2.512   4.628  0.4480  0.3552 -0.0340
    1SOL    HW210138   2.811   2.520   4.533  0.3224  1.3412  0.0573
    1SOL    HW310139   2.746   2.561   4.663 -0.1356 -0.9415  0.5658
    1SOL    MW410140   2.809   2.520   4.620  0.3545  0.3145  0.0567
    1SOL     OW10141   2.347   1.271   4.515  0.0602 -0.3397 -0.0044
    1SOL    HW210142   2.316   1.239   4.431 -1.0341 -1.0146  0.6480
    1SOL    HW310143   2.351   1.366   4.504 -0.0171 -0.4273 -0.8274
    1SOL    MW410144   2.344   1.279   4.503 -0.0944 -0.4402 -0.0267
    1SOL     OW10145   1.868   1.379   4.505 -0.4122 -0.0164 -0.4763
    1SOL    HW210146   1.894   1.471   4.497  0.3123 -0.1209  0.5617
    1SOL    HW310147   1.939   1.339   4.556 -0.8315 -1.1036 -0.7425
    1SOL    MW410148   1.881   1.386   4.510 -0.3719 -0.1737 -0.3743
    1SOL     OW10149   4.290   1.499   4.601 -0.1588 -0.0031 -0.1844
    1SOL    HW210150   4.290   1.509   4.696 -0.2377 -0.3815 -0.1411
    1SOL    HW310151   4.363   1.552   4.570 -1.9436  2.5422 -0.1921
    1SOL    MW410152   4.299   1.507   4.609 -0.4048  0.2829 -0.1802
    1SOL     OW10153   0.369   0.905   4.232  0.2759 -0.1353  0.0018
    1SOL    HW210154   0.401   0.925   4.320  2.1408 -1.1082 -0.4285
    1SOL    HW310155   0.358   0.991   4.191 -1.4569  0.3616  1.4486
    1SOL    MW410156   0.372   0.919   4.238  0.2933 -0.1980  0.1359
    1SOL     OW10157   3.143   0.114   4.240 -0.1694  0.0939 -0.0247
    1SOL    HW210158   3.221   0.069   4.209  0.0227  0.6389 -0.3314
    1SOL    HW310159   3.070   0.067   4.201  0.0035 -0.4055  0.2492
    1SOL    MW410160   3.144   0.102   4.231 -0.1214  0.0999 -0.0286
    1SOL     OW10161   2.654   0.672   4.634 -0.1176  0.2658 -0.4922
    1SOL    HW210162   2.735   0.634   4.600  0.0556 -0.6623  0.9004
    1SOL    HW310163   2.585   0.616   4.598  0.0671 -0.7214  0.6341
    1SOL    MW410164   2.656   0.659   4.625 -0.0703  0.0131 -0.1597
    1SOL     OW10165   3.744   1.977   4.507  0.3551 -0.3338 -0.3265
    1SOL    HW210166   3.665   1.942   4.549  0.7101  0.0790  0.7046
    1SOL    HW310167   3.801   1.901   4.496  0.0538 -0.5304 -0.5226
    1SOL    MW410168   3.741   1.962   4.511  0.3622 -0.3052 -0.2160
    1SOL     OW10169   3.340   3.106   3.874 -0.1134 -0.2011  0.2783
    1SOL    HW210170   3.419   3.149   3.842  0.3306 -0.7117  0.6736
    1SOL    HW310171   3.343   3.018   3.837 -0.7735 -0.0458 -0.1436
    1SOL    MW410172   3.351   3.100   3.865 -0.1421 -0.2480  0.2744
    1SOL     OW10173   3.684   2.945   4.472  0.2828  0.3131  0.6003
    1SOL    HW210174   3.609   2.887   4.487  1.2203 -0.8161  0.9716
    1SOL    HW310175   3.646   3.033   4.472 -0.8158 -0.1377  2.3738
    1SOL    MW410176   3.669   2.949   4.474  0.2613  0.1047  0.8831
    1SOL     OW10177   4.167   1.984   4.480  0.3689 -0.0625  0.4665
    1SOL    HW210178   4.183   2.022   4.394 -1.2215 -0.0293  0.1761
    1SOL    HW310179   4.251   1.947   4.506  0.3464 -2.0051 -2.0355
    1SOL    MW410180   4.180   1.984   4.472  0.1559 -0.3144  0.0978
    1SOL     OW10181   2.081   2.080   3.758 -0.2110 -0.0872 -0.2248
    1SOL    HW210182   2.004   2.025   3.771 -0.6258  0.3202 -0.9070
    1SOL    HW310183   2.139   2.058   3.831 -0.3704 -1.4267 -0.4817
    1SOL    MW410184   2.078   2.070   3.769 -0.2868 -0.2100 -0.3486
    1SOL     OW10185   2.777   4.025   4.288  0.1900  0.1571  0.3918
    1SOL    HW210186   2.821   3.962   4.232  1.6294  0.6943  0.8918
    1SOL    HW310187   2.767   4.103   4.234 -0.6477 -0.1329  0.1114
    1SOL    MW410188   2.781   4.027   4.274  0.2697  0.1898  0.4206
    1SOL     OW10189   0.305   3.409   4.780 -0.0213 -0.4106 -0.0592
    1SOL    HW210190   0.386   3.460   4.776 -0.4541  0.3439  0.5372
    1SOL    HW310191   0.236   3.473   4.764 -0.5779 -0.8165  0.7121
    1SOL    MW410192   0.307   3.424   4.777 -0.1518 -0.3645  0.1216
    1SOL     OW10193   0.616   2.154   4.535  0.8525 -0.2186 -0.0370
    1SOL    HW210194   0.562   2.232   4.544 -0.5924 -1.2120  0.0813
    1SOL    HW310195   0.706   2.186   4.538  0.2823  1.2666  1.6001
    1SOL    MW410196   0.621   2.168   4.537  0.5867 -0.1538  0.1945
    1SOL     OW10197   4.005   3.480   4.132 -0.2016 -0.4985 -0.1996
    1SOL    HW210198   4.003   3.388   4.158  0.2445 -0.4742 -0.0840
    1SOL    HW310199   4.009   3.478   4.036  1.1925 -0.6183 -0.1527
    1SOL    MW410200   4.005   3.467   4.123  0.0405 -0.5109 -0.1783
    1SOL     OW10201   4.010   0.140   4.493 -0.1768 -0.7348  0.0886
    1SOL    HW210202   4.074   0.193   4.541  0.3395  0.6243 -2.0156
    1SOL    HW310203   3.926   0.184   4.509  0.0262 -0.1550 -0.4286
    1SOL    MW410204   4.007   0.153   4.502 -0.0820 -0.4790 -0.2570
    1SOL     OW10205   2.646   2.898   4.657  0.1828  0.0685  0.1037
    1SOL    HW210206   2.666   2.884   4.564  0.9990 -0.1061  0.3043
    1SOL    HW310207   2.640   2.810   4.694 -0.7560  0.1269  0.0867
    1SOL    MW410208   2.648   2.885   4.650  0.1667  0.0534  0.1283
    1SOL     OW10209   2.789   4.524   4.491  0.5795  0.3967 -0.1910
    1SOL    HW210210   2.720   4.583   4.522  0.6623  1.2504 -1.5752
    1SOL    HW310211   2.869   4.577   4.493  1.0581 -0.3453  0.6520
    1SOL    MW410212   2.791   4.539   4.495  0.6533  0.4115 -0.2627
    1SOL     OW10213   4.243   0.680   4.131  0.1773  0.4218 -0.4003
    1SOL    HW210214   4.172   0.740   4.155 -0.6487 -0.5269 -0.4400
    1SOL    HW310215   4.283   0.721   4.054 -0.1389  1.1239 -0.1961
    1SOL    MW410216   4.239   0.693   4.124  0.0267  0.3893 -0.3781
    1SOL     OW10217   3.290   4.347   4.516 -0.1234  0.6652  0.0927
    1SOL    HW210218   3.197   4.326   4.513 -0.0899 -0.0602  2.7103
    1SOL    HW310219   3.294   4.433   4.558  0.4788 -0.4559  2.4208
    1SOL    MW410220   3.278   4.356   4.521 -0.0393  0.4215  0.7458
    1SOL     OW10221   1.974   2.840   4.723  0.1269  0.0885  0.2031
    1SOL    HW210222   1.970   2.782   4.647 -1.0072 -0.1663  0.4485
    1SOL    HW310223   2.059   2.883   4.716  0.2188 -0.2699 -0.9674
    1SOL    MW410224   1.985   2.838   4.712 -0.0107  0.0079  0.0811
    1SOL     OW10225   2.708   0.376   4.173  0.3372 -0.1455 -0.6416
    1SOL    HW210226   2.700   0.384   4.078  0.4060  1.4897 -0.5209
    1SOL    HW310227   2.637   0.429   4.208  0.4335 -0.5767  0.2243
    1SOL    MW410228   2.698   0.384   4.166  0.3588  0.0134 -0.5116
    1SOL     OW10229   0.840   1.773   4.114  0.1974  0.5844 -0.1891
    1SOL    HW210230   0.825   1.827   4.037  0.2729  1.8706  0.6896
    1SOL    HW310231   0.758   1.726   4.127  0.8540 -1.1921 -2.2469
    1SOL    MW410232   0.827   1.774   4.106  0.2940  0.5196 -0.3443
    1SOL     OW10233   3.749   2.818   4.231 -0.1561 -0.1636  0.2572
    1SOL    HW210234   3.682   2.770   4.183 -0.4778 -0.1923  0.7350
    1SOL    HW310235   3.720   2.816   4.322  0.4198 -0.0565  0.4458
    1SOL    MW410236   3.737   2.812   4.237 -0.1225 -0.1533  0.3452
    1SOL     OW10237   1.456   0.044   4.393 -0.2294  0.5801 -0.1534
    1SOL    HW210238   1.516   0.097   4.446  0.8912 -0.1762 -0.6331
    1SOL    HW310239   1.405   0.108   4.344 -1.8570  1.3252  2.4110
    1SOL    MW410240   1.457   0.059   4.393 -0.2961  0.5786  0.1221
    1SOL     OW10241   4.288   0.774   3.868 -0.5364  0.0340 -0.4908
    1SOL    HW210242   4.203   0.815   3.850 -0.3837  0.3419 -0.5102
    1SOL    HW310243   4.283   0.688   3.826 -1.2127 -0.3496  0.3352
    1SOL    MW410244   4.276   0.768   3.860 -0.6051  0.0241 -0.3843
    1SOL     OW10245   1.071   2.349   4.162  0.6430  0.0398 -0.1368
    1SOL    HW210246   1.090   2.269   4.211  1.8437 -0.0340 -0.7141
    1SOL    HW310247   0.983   2.374   4.191  1.0497 -0.3808  1.5627
    1SOL    MW410248   1.062   2.342   4.172  0.8550 -0.0255  0.0114
    1SOL     OW10249   2.639   0.084   4.563  0.2142 -0.3695  0.3098
    1SOL    HW210250   2.544   0.085   4.571  0.2121 -0.5782  0.3129
    1SOL    HW310251   2.669   0.158   4.617  0.0384 -0.1379  0.0874
    1SOL    MW410252   2.631   0.094   4.571  0.1910 -0.3664  0.2809
    1SOL     OW10253   4.257   0.994   4.584  0.2327 -0.2475  0.0435
    1SOL    HW210254   4.240   1.078   4.542 -0.0643 -0.0121  0.6202
    1SOL    HW310255   4.350   0.978   4.569  0.3748  0.3668  0.2384
    1SOL    MW410256   4.267   1.003   4.577  0.2122 -0.1354  0.1454
    1SOL     OW10257   4.467   1.959   4.142  0.3417  0.0611 -0.1270
    1SOL    HW210258   4.466   1.865   4.158  1.1716  0.1874  0.6707
    1SOL    HW310259   4.536   1.993   4.199 -0.1824  1.1976 -0.1536
    1SOL    MW410260   4.476   1.951   4.152  0.3819  0.2277 -0.0253
    1SOL     OW10261   4.462   2.726   4.131 -0.4593 -0.1022 -0.3109
    1SOL    HW210262   4.467   2.635   4.158  0.5228 -0.4116 -1.5171
    1SOL    HW310263   4.379   2.758   4.168 -0.2563 -1.1490  1.0758
    1SOL    MW410264   4.452   2.718   4.140 -0.3023 -0.2809 -0.2871
    1SOL     OW10265   1.344   2.719   4.109 -0.0278 -0.4244  0.2474
    1SOL    HW210266   1.421   2.763   4.146  0.5607 -2.0218  0.9665
    1SOL    HW310267   1.338   2.637   4.157 -1.5156 -0.8309 -0.6090
    1SOL    MW410268   1.353   2.714   4.120 -0.1465 -0.6890  0.2298
    1SOL     OW10269   2.541   3.905   4.159 -0.2590 -0.1112  0.2665
    1SOL    HW210270   2.613   3.948   4.206 -0.1888 -0.1554  0.1997
    1SOL    HW310271   2.462   3.941   4.199 -0.2060  1.2085 -0.8087
    1SOL    MW410272   2.540   3.916   4.171 -0.2429  0.0572  0.1163
    1SOL     OW10273   2.748   2.187   4.205 -0.0864 -0.1252  0.1971
    1SOL    HW210274   2.696   2.267   4.195 -1.2731 -0.7314  1.3757
    1SOL    HW310275   2.686   2.122   4.237  1.1493 -1.1959  0.4562
    1SOL    MW410276   2.733   2.189   4.208 -0.0799 -0.3467  0.3872
    1SOL     OW10277   2.017   3.924   4.145 -0.2692 -0.2882  0.1521
    1SOL    HW210278   2.014   3.925   4.050  0.4414  0.4247  0.1308
    1SOL    HW310279   2.109   3.942   4.167 -0.6901  0.9921  0.9748
    1SOL    MW410280   2.029   3.927   4.136 -0.2308 -0.0253  0.2580
    1SOL     OW10281   3.141   2.906   4.224  0.2515  0.1464  0.3789
    1SOL    HW210282   3.208   2.968   4.196  1.3006 -0.5625  1.2824
    1SOL    HW310283   3.114   2.936   4.311 -0.3467  0.2104  0.1799
    1SOL    MW410284   3.146   2.918   4.231  0.3109  0.0615  0.4721
    1SOL     OW10285   1.303   4.018   4.193  0.2103 -0.0648 -0.3608
    1SOL    HW210286   1.306   4.113   4.180  0.9069 -0.0376 -0.0218
    1SOL    HW310287   1.395   3.991   4.193  0.1235 -0.4312  1.7351
    1SOL    MW410288   1.315   4.027   4.191  0.2909 -0.1092 -0.0396
    1SOL     OW10289   3.034   3.628   4.099 -0.0347 -0.5286  0.4193
    1SOL    HW210290   2.960   3.570   4.116 -1.0293  0.3941 -0.6405
    1SOL    HW310291   3.080   3.587   4.026 -0.5216 -0.2030 -0.0805
    1SOL    MW410292   3.030   3.615   4.091 -0.2301 -0.3638  0.2131
    1SOL     OW10293   3.183   4.233   4.092 -0.1145  0.2211 -0.1518
    1SOL    HW210294   3.192   4.258   4.000 -1.1265  1.1141 -0.0259
    1SOL    HW310295   3.254   4.280   4.136  0.4178 -0.2686 -0.4920
    1SOL    MW410296   3.194   4.243   4.086 -0.1779  0.2747 -0.1802
    1SOL     OW10297   4.485   3.489   4.217 -0.2587  0.2887  0.4775
    1SOL    HW210298   4.488   3.399   4.248  1.6094  0.3026  0.3861
    1SOL    HW310299   4.490   3.483   4.122 -0.5760  0.4759  0.4468
    1SOL    MW410300   4.486   3.476   4.209 -0.0544  0.3154  0.4606
    1SOL     OW10301   3.273   4.582   4.651 -0.4675 -0.4139  0.4699
    1SOL    HW210302   3.329   4.658   4.635 -1.2832  0.2688  0.8604
    1SOL    HW310303   3.301   4.549   4.736  1.4679 -1.9552 -0.7001
    1SOL    MW410304   3.284   4.588   4.660 -0.3197 -0.5274  0.3672
    1SOL     OW10305   2.264   0.361   4.167 -0.0618  0.0971 -0.2257
    1SOL    HW210306   2.177   0.379   4.202  0.4329  0.4319  0.8643
    1SOL    HW310307   2.260   0.390   4.076 -1.2652 -0.4670 -0.3543
    1SOL    MW410308   2.252   0.367   4.160 -0.1554  0.0668 -0.0987
    1SOL     OW10309   2.828   2.296   4.801  0.3984  0.1434 -0.5794
    1SOL    HW210310   2.845   2.219   4.747 -1.3949  0.0568 -1.0372
    1SOL    HW310311   2.833   2.370   4.740  1.8404  0.3773 -0.1938
    1SOL    MW410312   2.831   2.296   4.786  0.3521  0.1628 -0.5894
    1SOL     OW10313   3.798   1.614   4.585  0.2885  0.1579 -1.3603
    1SOL    HW210314   3.816   1.540   4.527 -1.2873 -0.5032 -1.0507
    1SOL    HW310315   3.870   1.675   4.571  1.0689 -0.9891 -2.3737
    1SOL    MW410316   3.810   1.613   4.576  0.1836 -0.0806 -1.4524
    1SOL     OW10317   2.923   4.651   4.141  0.3459  0.0293  0.1494
    1SOL    HW210318   2.947   4.567   4.178  2.0183  0.9283  1.1451
    1SOL    HW310319   2.843   4.676   4.189 -0.9891 -1.6332 -1.1672
    1SOL    MW410320   2.915   4.643   4.153  0.3903 -0.0715  0.1068
    1SOL     OW10321   4.483   3.359   4.510 -0.3807  0.3051  0.0484
    1SOL    HW210322   4.392   3.369   4.538 -1.2614  2.8698 -3.4016
    1SOL    HW310323   4.477   3.309   4.428  1.3821  0.0786  0.0442
    1SOL    MW410324   4.470   3.354   4.503 -0.2642  0.6137 -0.4072
    1SOL     OW10325   0.912   4.001   4.271  0.2083 -0.3160  0.0293
    1SOL    HW210326   0.971   3.943   4.221  1.0801  0.2814  0.3475
    1SOL    HW310327   0.939   3.989   4.362  0.5014  0.7075  0.0784
    1SOL    MW410328   0.924   3.991   4.276  0.3620 -0.1018  0.0777
    1SOL     OW10329   2.398   2.283   4.144 -0.2017 -0.6788 -0.1891
    1SOL    HW210330   2.408   2.207   4.201 -0.5189 -0.3958  0.2464
    1SOL    HW310331   2.475   2.338   4.162 -0.5896 -0.3207  0.3788
    1SOL    MW410332   2.410   2.280   4.154 -0.2944 -0.5944 -0.0563
    1SOL     OW10333   3.815   0.737   4.126 -0.2086  0.0405  0.1247
    1SOL    HW210334   3.740   0.777   4.170 -1.4376 -1.6701 -0.3807
    1SOL    HW310335   3.807   0.763   4.034  1.0126  1.5945  0.4287
    1SOL    MW410336   3.804   0.746   4.120 -0.2096  0.0198  0.0987
    1SOL     OW10337   3.555   2.156   4.759  0.2564  0.3652  0.0519
    1SOL    HW210338   3.529   2.067   4.736 -0.4757  1.1117 -2.0965
    1SOL    HW310339   3.531   2.165   4.851 -2.5304 -0.6332 -0.5217
    1SOL    MW410340   3.549   2.145   4.768 -0.2079  0.3319 -0.3071
    1SOL     OW10341   3.026   4.309   4.474  0.2336  0.1269  0.2557
    1SOL    HW210342   2.980   4.393   4.485  0.5645  0.2058  1.1031
    1SOL    HW310343   2.963   4.244   4.506  0.3759  0.1533  0.5929
    1SOL    MW410344   3.011   4.312   4.480  0.2961  0.1411  0.4125
    1SOL     OW10345   2.458   3.042   4.081 -0.1605 -0.0946 -0.0099
    1SOL    HW210346   2.471   3.094   4.161  0.5584  0.5534 -0.5393
    1SOL    HW310347   2.506   2.961   4.097  1.4496  0.7491 -0.4615
    1SOL    MW410348   2.466   3.038   4.094  0.1466  0.1023 -0.1392
    1SOL     OW10349   2.417   1.542   4.059  0.2117 -0.7789 -0.7854
    1SOL    HW210350   2.501   1.534   4.105 -0.0988  1.4549  0.2351
    1SOL    HW310351   2.442   1.553   3.967  1.1185  1.1818 -0.3313
    1SOL    MW410352   2.432   1.543   4.053  0.2904 -0.2254 -0.5913
    1SOL     OW10353   3.389   4.653   4.188  0.6196  0.1784 -0.2051
    1SOL    HW210354   3.459   4.675   4.249  0.1921 -0.8511  0.6771
    1SOL    HW310355   3.379   4.558   4.197  1.1625 -0.1223 -2.5448
    1SOL    MW410356   3.397   4.643   4.198  0.6349  0.0029 -0.3977
    1SOL     OW10357   2.253   1.975   4.250 -0.4076  0.4722 -0.0864
    1SOL    HW210358   2.170   2.022   4.255  0.5558  2.2774 -0.3389
    1SOL    HW310359   2.232   1.885   4.275 -2.2829  1.0781  0.6008
    1SOL    MW410360   2.240   1.970   4.254 -0.5281  0.7904 -0.0291
    1SOL     OW10361   3.185   3.989   4.238 -0.0350  0.1074  0.4635
    1SOL    HW210362   3.182   4.074   4.195  0.6759  0.3427  0.8605
    1SOL    HW310363   3.105   3.945   4.211 -0.4588  0.9473  0.3471
    1SOL    MW410364   3.174   3.995   4.229  0.0029  0.2496  0.5007
    1SOL     OW10365   1.820   1.008   4.437 -0.0851 -0.2069  0.4272
    1SOL    HW210366   1.747   1.037   4.492  0.9755  2.0145  0.7018
    1SOL    HW310367   1.897   1.014   4.492  0.7021  0.0132 -0.6730
    1SOL    MW410368   1.820   1.012   4.451  0.1587  0.1153  0.3185
    1SOL     OW10369   3.971   3.240   4.486 -0.6406  0.2366  0.4586
    1SOL    HW210370   3.978   3.152   4.524 -0.5611  0.6533  1.4343
    1SOL    HW310371   3.998   3.229   4.395 -1.1364 -0.8480  0.4320
    1SOL    MW410372   3.975   3.227   4.479 -0.6955  0.1485  0.5836
    1SOL     OW10373   3.482   1.924   4.619 -0.1164  0.7884  0.4119
    1SOL    HW210374   3.404   1.967   4.585  1.4027  1.7902 -1.9362
    1SOL    HW310375   3.479   1.836   4.583 -0.2332  0.7979  0.4000
    1SOL    MW410376   3.472   1.918   4.610  0.0687  0.9218  0.1006
    1SOL     OW10377   4.437   1.933   4.536 -0.2055  0.4272 -0.4601
    1SOL    HW210378   4.450   1.839   4.550 -1.8006  0.6046  2.6551
    1SOL    HW310379   4.525   1.969   4.531  0.4204 -1.0343 -0.2998
    1SOL    MW410380   4.450   1.925   4.537 -0.3333  0.2577 -0.0272
    1SOL     OW10381   1.833   3.284   4.476 -0.5599 -0.0744  0.2996
    1SOL    HW210382   1.797   3.210   4.525 -0.8932 -0.3691 -0.3857
    1SOL    HW310383   1.794   3.277   4.389  1.2159 -0.4634 -0.4966
    1SOL    MW410384   1.823   3.273   4.471 -0.3695 -0.1645  0.1044
    1SOL     OW10385   3.335   2.401   4.123 -0.2200 -0.3111 -0.5800
    1SOL    HW210386   3.424   2.430   4.141 -0.8242  1.2906 -0.0758
    1SOL    HW310387   3.318   2.430   4.034 -0.1806 -0.7736 -0.7387
    1SOL    MW410388   3.344   2.409   4.114 -0.2947 -0.1609 -0.5345
    1SOL     OW10389   1.725   2.167   4.671 -0.0057 -0.0358 -0.2062
    1SOL    HW210390   1.679   2.108   4.613 -3.1083  0.7788  1.3471
    1SOL    HW310391   1.743   2.116   4.750  1.3165 -0.1929 -0.5942
    1SOL    MW410392   1.722   2.153   4.674 -0.2407  0.0508 -0.0525
    1SOL     OW10393   1.834   0.084   4.251  0.1511  0.2202  0.4805
    1SOL    HW210394   1.835   0.178   4.234 -1.4727  0.2785  0.6338
    1SOL    HW310395   1.850   0.076   4.345 -0.2909  0.3831  0.5713
    1SOL    MW410396   1.836   0.095   4.261 -0.1215  0.2494  0.5126
    1SOL     OW10397   3.526   1.716   4.232  0.0380 -0.2004 -0.9199
    1SOL    HW210398   3.604   1.677   4.194 -0.4126 -1.3904 -0.6270
    1SOL    HW310399   3.533   1.809   4.211  2.3699 -0.0207  0.5866
    1SOL    MW410400   3.537   1.723   4.224  0.2863 -0.3337 -0.6828
    1SOL     OW10401   4.451   4.027   4.284  0.3226  0.0810  0.3158
    1SOL    HW210402   4.389   3.964   4.248 -1.3962  1.3514  0.9680
    1SOL    HW310403   4.442   4.018   4.379  1.7290 -0.2829  0.4218
    1SOL    MW410404   4.441   4.018   4.292  0.2813  0.2012  0.4158
    1SOL     OW10405   3.601   2.416   4.200  0.1148 -0.6083  0.1442
    1SOL    HW210406   3.630   2.436   4.289 -0.5796  0.3544  0.1594
    1SOL    HW310407   3.599   2.502   4.156  1.5133 -1.1888 -1.1188
    1SOL    MW410408   3.605   2.430   4.206  0.2077 -0.5579 -0.0210
    1SOL     OW10409   3.732   1.388   4.432  0.0093  0.0084 -0.1817
    1SOL    HW210410   3.674   1.331   4.483 -1.4067  0.4850 -1.2046
    1SOL    HW310411   3.709   1.369   4.341  1.1320  0.5700 -0.5939
    1SOL    MW410412   3.721   1.378   4.427 -0.0296  0.1454 -0.3710
    1SOL     OW10413   4.008   0.334   4.148  0.1020 -0.0756 -0.3601
    1SOL    HW210414   4.015   0.356   4.055 -1.8547 -0.8604 -0.7196
    1SOL    HW310415   4.020   0.239   4.151 -0.8282 -0.1903  0.0526
    1SOL    MW410416   4.010   0.324   4.136 -0.2789 -0.1943 -0.3538
    1SOL     OW10417   0.173   1.246   4.284  0.6401 -0.1081  0.3792
    1SOL    HW210418   0.238   1.221   4.219  0.0571  0.4817 -0.4468
    1SOL    HW310419   0.094   1.199   4.258  0.4199  0.0796  0.7022
    1SOL    MW410420   0.171   1.236   4.272  0.5341 -0.0056  0.3123
    1SOL     OW10421   1.569   2.000   4.517  0.1990 -0.1331  0.0665
    1SOL    HW210422   1.582   1.906   4.501 -0.3636 -0.2513  0.2988
    1SOL    HW310423   1.475   2.009   4.533  0.2795  0.4448  0.2212
    1SOL    MW410424   1.558   1.989   4.517  0.1354 -0.0726  0.1178
    1SOL     OW10425   2.485   0.512   4.246 -0.4149  0.2924  0.1892
    1SOL    HW210426   2.404   0.467   4.220 -0.9323  1.3331 -0.0269
    1SOL    HW310427   2.470   0.604   4.222  0.9313  0.4474 -0.0932
    1SOL    MW410428   2.473   0.518   4.239 -0.3057  0.4502  0.1230
    1SOL     OW10429   3.489   1.187   4.134  0.9080  0.4045  0.4247
    1SOL    HW210430   3.460   1.279   4.132 -1.6936 -0.4126 -0.6548
    1SOL    HW310431   3.511   1.166   4.044  0.3179 -0.3805  0.4553
    1SOL    MW410432   3.488   1.197   4.122  0.4873  0.1931  0.2861
    1SOL     OW10433   1.990   3.722   4.477 -0.1162 -0.5221 -0.4418
    1SOL    HW210434   1.915   3.673   4.512  0.1699 -0.4474  0.2807
    1SOL    HW310435   1.993   3.698   4.384 -1.4208 -0.0287 -0.6121
    1SOL    MW410436   1.981   3.712   4.469 -0.2506 -0.4473 -0.3686
    1SOL     OW10437   4.291   4.436   4.527 -0.0770  0.3705 -0.4326
    1SOL    HW210438   4.299   4.350   4.569  0.4835 -0.3241 -1.9413
    1SOL    HW310439   4.270   4.416   4.436  1.2904  1.8073 -1.0723
    1SOL    MW410440   4.289   4.422   4.521  0.1774  0.4683 -0.7162
    1SOL     OW10441   2.862   1.520   3.832  0.0695 -0.6566  0.1964
    1SOL    HW210442   2.889   1.496   3.920  0.0713 -0.6581  0.1956
    1SOL    HW310443   2.931   1.578   3.800 -0.0591 -0.4472  0.2940
    1SOL    MW410444   2.875   1.525   3.839  0.0527 -0.6292  0.2091
    1SOL     OW10445   4.051   3.896   4.615  0.4977 -0.3457  0.0177
    1SOL    HW210446   3.968   3.859   4.643  0.6377  0.1921  1.1887
    1SOL    HW310447   4.031   3.985   4.588  1.0439  0.5904  2.5559
    1SOL    MW410448   4.038   3.903   4.615  0.5879 -0.1512  0.5078
    1SOL     OW10449   1.562   0.502   4.210 -0.0435 -0.9290 -0.1880
    1SOL    HW210450   1.539   0.493   4.302  0.6156 -0.2277  0.0480
    1SOL    HW310451   1.480   0.483   4.163 -0.0706 -2.4856  0.4817
    1SOL    MW410452   1.548   0.498   4.216  0.0398 -1.0419 -0.0687
    1SOL     OW10453   3.994   1.149   4.138  0.1639  0.1679  0.1432
    1SOL    HW210454   4.029   1.068   4.175 -0.7897 -0.4868 -0.3613
    1SOL    HW310455   4.071   1.204   4.123  0.9756 -1.1936 -0.8343
    1SOL    MW410456   4.009   1.146   4.141  0.1454 -0.0981 -0.0525
    1SOL     OW10457   2.690   1.822   4.200 -0.2488 -0.2073  0.3770
    1SOL    HW210458   2.621   1.863   4.252 -1.1547  0.4378 -1.3168
    1SOL    HW310459   2.670   1.729   4.202 -0.6732 -0.1100  0.6161
    1SOL    MW410460   2.678   1.815   4.207 -0.4244 -0.1094  0.1845
    1SOL     OW10461   3.329   2.120   4.200  0.1845 -0.2376 -0.2176
    1SOL    HW210462   3.351   2.208   4.169  0.8454  0.1161  1.1990
    1SOL    HW310463   3.241   2.104   4.166  0.2620  0.7629 -0.9212
    1SOL    MW410464   3.320   2.129   4.191  0.2820 -0.0587 -0.1240
    1SOL     OW10465   2.715   0.348   4.625 -0.6031  0.1719  0.4821
    1SOL    HW210466   2.724   0.375   4.716  0.0842 -1.3081  0.8754
    1SOL    HW310467   2.782   0.398   4.579 -0.7128  0.6627  0.8501
    1SOL    MW410468   2.725   0.358   4.631 -0.5267  0.0414  0.5822
    1SOL     OW10469   1.776   3.486   4.113 -0.4695  0.5533 -0.0267
    1SOL    HW210470   1.773   3.500   4.019 -1.8533  0.0748 -0.0630
    1SOL    HW310471   1.839   3.551   4.145 -0.5355  1.1992 -1.1885
    1SOL    MW410472   1.784   3.496   4.105 -0.6607  0.5753 -0.1850
    1SOL     OW10473   3.800   3.581   4.280  0.2062  0.1898  0.6106
    1SOL    HW210474   3.803   3.536   4.365 -0.3424 -0.8682  0.0804
    1SOL    HW310475   3.866   3.536   4.227 -0.7191 -0.3450 -0.0968
    1SOL    MW410476   3.809   3.569   4.284  0.0117 -0.0203  0.4468
    1SOL     OW10477   3.553   3.978   4.227  0.3559 -0.2121 -0.1910
    1SOL    HW210478   3.541   3.971   4.322  0.7606  0.4621 -0.0924
    1SOL    HW310479   3.495   3.910   4.192 -2.5300  1.8549  0.3612
    1SOL    MW410480   3.544   3.968   4.235  0.0286  0.1497 -0.1049
    1SOL     OW10481   1.519   3.081   4.054  0.3075  0.3954  0.2109
    1SOL    HW210482   1.571   3.146   4.102 -0.0567  1.1981 -0.4801
    1SOL    HW310483   1.429   3.096   4.083  0.1456  0.5904 -0.3851
    1SOL    MW410484   1.514   3.092   4.065  0.2382  0.5271  0.0410
    1SOL     OW10485   3.584   3.493   4.140 -0.2918 -0.2648  0.1871
    1SOL    HW210486   3.509   3.534   4.183  0.5190  1.3652  0.0787
    1SOL    HW310487   3.660   3.522   4.191  0.4164 -0.6879 -0.6023
    1SOL    MW410488   3.584   3.502   4.153 -0.0913 -0.1056  0.0687
    1SOL     OW10489   0.416   2.448   4.223 -0.0141 -0.1422 -0.5613
    1SOL    HW210490   0.455   2.531   4.193 -0.5022  0.3538  0.1545
    1SOL    HW310491   0.439   2.443   4.315 -1.1828 -0.1146 -0.2634
    1SOL    MW410492   0.424   2.459   4.231 -0.2327 -0.0732 -0.4272
    1SOL     OW10493   3.066   1.396   4.612  0.3215 -0.0596  0.2395
    1SOL    HW210494   3.024   1.481   4.600 -0.3026 -0.4054 -0.0912
    1SOL    HW310495   3.160   1.414   4.612  0.1873  0.6257  0.1839
    1SOL    MW410496   3.073   1.409   4.611  0.2213 -0.0148  0.1888
    1SOL     OW10497   3.353   3.630   4.559  0.5581  0.3401  0.0054
    1SOL    HW210498   3.311   3.712   4.536 -1.5689 -0.0822  2.2056
    1SOL    HW310499   3.291   3.586   4.617  1.8545 -2.6097 -0.7278
    1SOL    MW410500   3.339   3.635   4.563  0.4485 -0.1051  0.1988
    1SOL     OW10501   4.026   4.286   4.153 -0.2667 -0.2748  0.1065
    1SOL    HW210502   4.118   4.304   4.174  0.4039 -1.1068 -1.9439
    1SOL    HW310503   4.018   4.191   4.161 -0.4158 -0.4256 -1.6143
    1SOL    MW410504   4.037   4.276   4.157 -0.1979 -0.4044 -0.3905
    1SOL     OW10505   3.776   4.631   4.171 -0.0154  0.3151 -0.4483
    1SOL    HW210506   3.768   4.541   4.201 -0.1910  0.5004  0.0626
    1SOL    HW310507   3.782   4.624   4.075 -1.7035 -0.1409 -0.5385
    1SOL    MW410508   3.776   4.618   4.162 -0.2613  0.2794 -0.3929
    1SOL     OW10509   0.612   0.781   4.168 -0.1123 -0.2183  0.1632
    1SOL    HW210510   0.619   0.773   4.073 -0.0024 -0.8441  0.2221
    1SOL    HW310511   0.520   0.806   4.183  0.0017  0.3767 -0.1361
    1SOL    MW410512   0.601   0.783   4.158 -0.0827 -0.2223  0.1311
    1SOL     OW10513   4.065   0.875   4.208  0.1963 -0.6966 -0.2222
    1SOL    HW210514   4.084   0.853   4.299 -0.2321  0.8672  0.2611
    1SOL    HW310515   3.978   0.840   4.192 -0.3196  0.2647  0.4202
    1SOL    MW410516   4.056   0.867   4.217  0.0725 -0.3634 -0.0739
    1SOL     OW10517   3.818   2.261   4.102  0.5720 -0.4511 -0.4874
    1SOL    HW210518   3.815   2.176   4.147  2.1643 -0.8285 -1.0415
    1SOL    HW310519   3.746   2.311   4.141 -0.1274 -1.8988  0.1533
    1SOL    MW410520   3.808   2.256   4.113  0.6900 -0.6919 -0.4759
    1SOL     OW10521   2.252   0.611   4.644 -0.3168 -0.0838 -0.6944
    1SOL    HW210522   2.318   0.549   4.611 -0.2605  0.0845 -0.8974
    1SOL    HW310523   2.244   0.590   4.737 -0.6970 -0.7628 -0.8746
    1SOL    MW410524   2.260   0.600   4.652 -0.3600 -0.1512 -0.7448
    1SOL     OW10525   4.279   4.378   4.257  0.1267  0.4161  0.2358
    1SOL    HW210526   4.272   4.461   4.211  1.6591  0.9735  0.9799
    1SOL    HW310527   4.365   4.344   4.233  0.0681 -0.2909  1.0029
    1SOL    MW410528   4.289   4.385   4.248  0.3209  0.3958  0.4349
    1SOL     OW10529   3.540   1.978   4.117  0.5498  0.2979  0.2854
    1SOL    HW210530   3.470   2.032   4.154 -0.3471 -0.8813  0.3324
    1SOL    HW310531   3.513   1.963   4.026  1.0014  0.2712  0.1547
    1SOL    MW410532   3.527   1.983   4.110  0.4911  0.1389  0.2742
    1SOL     OW10533   3.041   2.753   3.829 -0.3973 -0.3008 -0.0751
    1SOL    HW210534   3.053   2.659   3.818 -0.0142 -0.2526 -0.0788
    1SOL    HW310535   2.988   2.761   3.909  0.1151 -0.4967  0.2909
    1SOL    MW410536   3.035   2.742   3.838 -0.2792 -0.3202 -0.0272
    1SOL     OW10537   1.805   4.156   4.583 -0.1086  0.3679 -0.0132
    1SOL    HW210538   1.738   4.223   4.599 -1.9333 -1.4830  0.2925
    1SOL    HW310539   1.796   4.135   4.491  0.3073  0.3801 -0.0561
    1SOL    MW410540   1.795   4.162   4.573 -0.2944  0.1245  0.0219
    1SOL     OW10541   0.458   0.981   4.478 -0.2642 -0.0398  0.1220
    1SOL    HW210542   0.380   1.036   4.476 -0.5162 -0.3785  0.4982
    1SOL    HW310543   0.428   0.898   4.516  0.1569 -0.3613 -0.2284
    1SOL    MW410544   0.444   0.977   4.483 -0.2419 -0.1269  0.1254
    1SOL     OW10545   1.926   1.648   4.504  0.2355 -0.0746 -0.1731
    1SOL    HW210546   1.855   1.710   4.521  0.3481  0.9633 -3.2548
    1SOL    HW310547   2.006   1.700   4.516  0.4395 -0.6040  0.8439
    1SOL    MW410548   1.927   1.663   4.508  0.2773 -0.0076 -0.4454
    1SOL     OW10549   0.353   0.700   4.544 -0.5261 -0.0633 -0.1868
    1SOL    HW210550   0.259   0.684   4.555 -0.1115 -0.5647  3.3242
    1SOL    HW310551   0.392   0.613   4.545  0.0853  0.2081 -0.3832
    1SOL    MW410552   0.345   0.687   4.546 -0.3907 -0.0936  0.2503
    1SOL     OW10553   0.700   3.964   4.693  0.1528 -0.2985 -0.3694
    1SOL    HW210554   0.740   4.018   4.761  1.0119  0.4263 -1.4326
    1SOL    HW310555   0.630   4.019   4.657  0.5231 -0.1883 -0.9267
    1SOL    MW410556   0.696   3.978   4.697  0.3150 -0.1884 -0.5832
    1SOL     OW10557   2.546   2.827   3.757 -0.6725 -0.1207 -0.4641
    1SOL    HW210558   2.501   2.911   3.766 -1.0847 -0.3864 -0.0349
    1SOL    HW310559   2.525   2.798   3.668 -1.5962 -0.3884 -0.1618
    1SOL    MW410560   2.537   2.834   3.746 -0.8488 -0.1912 -0.3676
    1SOL     OW10561   3.305   2.082   4.484  0.1410 -1.0139 -0.0573
    1SOL    HW210562   3.337   2.164   4.521  2.2795 -1.6833 -0.3338
    1SOL    HW310563   3.305   2.097   4.389 -0.5222 -0.9725 -0.0528
    1SOL    MW410564   3.309   2.094   4.476  0.3357 -1.0970 -0.0930
    1SOL     OW10565   0.545   3.519   4.672 -0.4767  0.0859  0.2366
    1SOL    HW210566   0.613   3.587   4.673  0.7255 -1.1209  1.7707
    1SOL    HW310567   0.473   3.560   4.624  1.7725  0.9401 -2.6041
    1SOL    MW410568   0.545   3.534   4.666 -0.0213  0.0396  0.0644
    1SOL     OW10569   0.000   1.669   4.510 -0.2677  0.2481 -0.3270
    1SOL    HW210570   0.065   1.600   4.526 -0.1893  0.7877  1.9033
    1SOL    HW310571  -0.016   1.666   4.416  1.3215 -1.3922 -0.5720
    1SOL    MW410572   0.007   1.659   4.500 -0.0482  0.1029 -0.0648
    1SOL     OW10573   2.354   0.111   4.545 -0.2589  0.0923  0.1004
    1SOL    HW210574   2.360   0.114   4.450  0.6371 -0.9162  0.1215
    1SOL    HW310575   2.330   0.021   4.566 -2.2052  0.7277  0.7594
    1SOL    MW410576   2.352   0.100   4.535 -0.3974  0.0431  0.1903
    1SOL     OW10577   0.689   3.622   4.331  0.2186 -0.8259 -0.0989
    1SOL    HW210578   0.699   3.621   4.426  0.7494 -0.7356 -0.1487
    1SOL    HW310579   0.770   3.582   4.299  0.0395 -0.8556 -0.5096
    1SOL    MW410580   0.701   3.617   4.339  0.2650 -0.8178 -0.1597
    1SOL     OW10581   0.251   3.621   4.270  0.0569  0.1696 -0.5800
    1SOL    HW210582   0.221   3.710   4.252 -0.5736 -0.1012 -0.8930
    1SOL    HW310583   0.177   3.565   4.244 -0.0335 -0.3720  0.7932
    1SOL    MW410584   0.237   3.625   4.264 -0.0382  0.0625 -0.4401
    1SOL     OW10585   2.688   3.695   4.513  0.2784  0.4995 -0.0672
    1SOL    HW210586   2.722   3.661   4.596  0.6766 -0.6575 -0.6871
    1SOL    HW310587   2.765   3.697   4.455 -0.5626 -1.5431 -1.2879
    1SOL    MW410588   2.703   3.691   4.516  0.2201  0.0775 -0.3104
    1SOL     OW10589   2.028   0.478   4.261  0.0551  0.6752  0.3331
    1SOL    HW210590   2.037   0.564   4.220 -0.9931  0.6371  0.0159
    1SOL    HW310591   2.018   0.497   4.355 -1.2775  0.9612  0.1383
    1SOL    MW410592   2.028   0.492   4.268 -0.2592  0.7079  0.2656
    1SOL     OW10593   2.904   1.458   4.099 -0.1424  0.1045  0.4019
    1SOL    HW210594   2.941   1.514   4.167 -0.9217 -0.2560  1.1333
    1SOL    HW310595   2.914   1.369   4.133 -1.6646  0.0030  0.6068
    1SOL    MW410596   2.910   1.454   4.112 -0.4461  0.0435  0.5255
    1SOL     OW10597   1.312   0.435   4.097 -0.1246 -0.2560 -0.2937
    1SOL    HW210598   1.306   0.355   4.151  0.4631 -0.4923 -0.5800
    1SOL    HW310599   1.242   0.491   4.131 -0.2954 -0.7374  0.1676
    1SOL    MW410600   1.302   0.432   4.109 -0.0696 -0.3507 -0.2704
    1SOL     OW10601   2.928   0.512   4.271  0.0644 -0.5243 -0.0663
    1SOL    HW210602   2.851   0.459   4.250 -0.9640  0.5985  0.7450
    1SOL    HW310603   2.917   0.591   4.217 -0.0838  0.2365  1.0493
    1SOL    MW410604   2.916   0.516   4.261 -0.0908 -0.2759  0.1879
    1SOL     OW10605   3.471   4.203   4.662 -0.1553 -0.0050 -0.0033
    1SOL    HW210606   3.407   4.246   4.605  0.2535  1.8213  0.8884
    1SOL    HW310607   3.496   4.124   4.614 -2.2240 -0.1784 -0.8832
    1SOL    MW410608   3.466   4.198   4.648 -0.3741  0.2136 -0.0014
    1SOL     OW10609   1.593   2.868   4.224  0.7056 -0.3960 -0.4889
    1SOL    HW210610   1.563   2.937   4.165  0.9295  0.4062  0.3237
    1SOL    HW310611   1.663   2.824   4.177  0.4734 -0.1584 -1.0618
    1SOL    MW410612   1.598   2.871   4.210  0.7045 -0.2589 -0.4578
    1SOL     OW10613   3.250   3.890   4.504  0.5839  0.2660 -0.0393
    1SOL    HW210614   3.172   3.912   4.555  1.3354 -0.3683  1.3992
    1SOL    HW310615   3.235   3.931   4.419 -1.0401  0.6711  0.4272
    1SOL    MW410616   3.238   3.898   4.499  0.4687  0.2358  0.2122
    1SOL     OW10617   3.360   3.578   4.285 -0.4866  0.2603 -0.0709
    1SOL    HW210618   3.356   3.587   4.381  1.0155 -0.0947  0.0388
    1SOL    HW310619   3.282   3.527   4.263  1.0951 -2.9907  1.4062
    1SOL    MW410620   3.349   3.572   4.295 -0.0794 -0.2155  0.1388
    1SOL     OW10621   2.655   0.910   4.251  0.2949 -0.0658  0.2856
    1SOL    HW210622   2.725   0.857   4.214 -0.9336 -0.9307 -0.8278
    1SOL    HW310623   2.658   0.992   4.201  0.7944  0.0643  0.5309
    1SOL    MW410624   2.664   0.914   4.240  0.1986 -0.1627  0.1712
    1SOL     OW10625   2.237   4.341   4.811  0.2671 -0.3058 -0.1212
    1SOL    HW210626   2.276   4.257   4.788 -0.3728 -0.6782  0.1450
    1SOL    HW310627   2.142   4.326   4.807  0.1318  0.8816 -1.8080
    1SOL    MW410628   2.229   4.328   4.808  0.1647 -0.1984 -0.3080
    1SOL     OW10629   3.606   2.492   4.467  0.2181  0.1087  0.0417
    1SOL    HW210630   3.568   2.579   4.463 -1.3862 -0.5417  0.5511
    1SOL    HW310631   3.536   2.437   4.503  0.9068 -1.5461 -1.0679
    1SOL    MW410632   3.592   2.496   4.471  0.0975 -0.1955 -0.0372
    1SOL     OW10633   2.502   3.152   4.669  0.5437 -0.3056  0.0348
    1SOL    HW210634   2.419   3.169   4.713  0.5790 -1.9472  0.7572
    1SOL    HW310635   2.523   3.061   4.691  1.9768 -0.2531 -1.0502
    1SOL    MW410636   2.494   3.142   4.678  0.7374 -0.5152 -0.0129
    1SOL     OW10637   4.228   1.276   4.174 -0.1907 -0.1830  0.2899
    1SOL    HW210638   4.231   1.264   4.269  0.2024  0.2541  0.3347
    1SOL    HW310639   4.291   1.214   4.140  0.4490  0.4015  0.3911
    1SOL    MW410640   4.237   1.266   4.182 -0.0544 -0.0483  0.3090
    1SOL     OW10641   2.217   3.505   4.151 -0.1542 -0.7190  0.0396
    1SOL    HW210642   2.293   3.544   4.193 -1.3198  0.6286  0.9276
    1SOL    HW310643   2.210   3.417   4.189  1.2400 -1.0637 -0.4434
    1SOL    MW410644   2.226   3.498   4.161 -0.1240 -0.5867  0.0930
    1SOL     OW10645   0.869   0.888   4.221 -0.2840  0.5563  0.3993
    1SOL    HW210646   0.782   0.849   4.211  0.5798 -1.4843  0.5844
    1SOL    HW310647   0.884   0.889   4.316  0.9890 -1.6140  0.2357
    1SOL    MW410648   0.859   0.883   4.233 -0.0021  0.0007  0.4015
    1SOL     OW10649   1.962   2.683   4.474 -0.4812  0.3822  0.2437
    1SOL    HW210650   2.048   2.642   4.480  0.3384  1.8316 -1.0729
    1SOL    HW310651   1.900   2.612   4.490  0.9440 -0.8520  0.3896
    1SOL    MW410652   1.965   2.668   4.477 -0.1850  0.4108  0.0896
    1SOL     OW10653   2.556   4.365   4.494  0.1573 -0.1251 -0.2169
    1SOL    HW210654   2.537   4.377   4.401  1.3325 -1.2668 -0.6150
    1SOL    HW310655   2.643   4.402   4.506  1.0995 -2.2622 -0.1311
    1SOL    MW410656   2.565   4.371   4.483  0.4370 -0.5584 -0.2580
    1SOL     OW10657   2.661   3.366   4.572  0.4272  0.3083  0.1936
    1SOL    HW210658   2.598   3.298   4.596  0.7679 -0.2204 -0.3811
    1SOL    HW310659   2.661   3.426   4.646 -0.4733  0.1104  0.3592
    1SOL    MW410660   2.652   3.365   4.585  0.3531  0.2127  0.1392
    1SOL     OW10661   3.108   2.497   3.755 -0.0712  0.2340 -0.2895
    1SOL    HW210662   3.024   2.453   3.766 -0.5629  1.4923  1.0221
    1SOL    HW310663   3.127   2.488   3.662 -0.5556 -2.0308 -0.2000
    1SOL    MW410664   3.100   2.490   3.744 -0.2000  0.1013 -0.1049
    1SOL     OW10665   4.252   0.433   4.245 -0.0732 -0.2784 -0.5694
    1SOL    HW210666   4.166   0.395   4.232 -0.6599  0.0726  2.0808
    1SOL    HW310667   4.249   0.516   4.198 -1.7468  0.4943  0.8819
    1SOL    MW410668   4.240   0.439   4.237 -0.3719 -0.1301 -0.0277
    1SOL     OW10669   0.904   3.489   4.233  0.2338  0.0231 -0.5756
    1SOL    HW210670   0.911   3.477   4.138 -0.3867  0.3887 -0.6680
    1SOL    HW310671   0.899   3.400   4.268 -0.3393 -0.0949 -0.9527
    1SOL    MW410672   0.904   3.475   4.225  0.0764  0.0560 -0.6380
    1SOL     OW10673   3.607   0.097   4.326 -0.0693 -0.1520 -0.1830
    1SOL    HW210674   3.580   0.181   4.288 -0.2367 -0.2373 -0.2540
    1SOL    HW310675   3.677   0.066   4.269 -0.2137 -0.2052 -0.3323
    1SOL    MW410676   3.613   0.104   4.313 -0.1104 -0.1703 -0.2117
    1SOL     OW10677   3.124   0.389   4.144  0.0664 -0.0561  0.1060
    1SOL    HW210678   3.128   0.300   4.177 -0.4914 -0.4871 -0.9880
    1SOL    HW310679   3.053   0.430   4.194 -0.5548 -0.6061 -0.3355
    1SOL    MW410680   3.115   0.383   4.155 -0.0892 -0.1855 -0.0963
    1SOL     OW10681   3.011   3.875   4.639  0.2487 -0.8234  0.4039
    1SOL    HW210682   2.948   3.946   4.622 -0.4330 -1.3382  0.7422
    1SOL    HW310683   2.986   3.806   4.578  1.0414 -0.6957 -0.0660
    1SOL    MW410684   2.999   3.876   4.629  0.2635 -0.8743  0.3867
    1SOL     OW10685   4.216   0.278   4.624 -0.4802  0.3101  0.0262
    1SOL    HW210686   4.305   0.244   4.630 -0.3643  0.7570  0.9578
    1SOL    HW310687   4.228   0.372   4.609 -0.7913  0.5078  0.9996
    1SOL    MW410688   4.229   0.286   4.623 -0.5054  0.3951  0.2780
    1SOL     OW10689   0.683   1.166   4.467  0.2984  0.6666  0.2009
    1SOL    HW210690   0.768   1.122   4.470  0.7881  1.3860 -2.1310
    1SOL    HW310691   0.619   1.094   4.471  1.0718 -0.1218 -1.3638
    1SOL    MW410692   0.686   1.150   4.468  0.4651  0.6576 -0.3133
    1SOL     OW10693   1.114   2.111   4.288 -0.3977  0.7851 -0.0208
    1SOL    HW210694   1.162   2.120   4.370  1.1251 -1.0422 -0.6752
    1SOL    HW310695   1.029   2.076   4.314 -0.8181  2.4900  0.9892
    1SOL    MW410696   1.109   2.107   4.302 -0.2522  0.7687  0.0267
    1SOL     OW10697   1.572   2.077   4.232 -0.3811  0.0271  0.0592
    1SOL    HW210698   1.571   2.079   4.327 -0.9380 -0.5857  0.0682
    1SOL    HW310699   1.490   2.033   4.208  0.7645 -1.7559 -0.6482
    1SOL    MW410700   1.561   2.072   4.241 -0.3034 -0.2890 -0.0329
    1SOL     OW10701   3.811   3.099   4.151 -0.4868 -0.0652 -0.4493
    1SOL    HW210702   3.810   3.095   4.056 -2.0704  0.4740 -0.4661
    1SOL    HW310703   3.801   3.007   4.179  2.6661 -0.5656 -0.7637
    1SOL    MW410704   3.809   3.086   4.142 -0.2799 -0.0601 -0.4926
    1SOL     OW10705   4.464   2.469   4.212 -0.3080 -0.1080 -0.2085
    1SOL    HW210706   4.467   2.468   4.307 -1.2134  1.2525 -0.1514
    1SOL    HW310707   4.539   2.416   4.185  0.5764  0.3681  1.2420
    1SOL    MW410708   4.474   2.462   4.221 -0.3108  0.1342 -0.0100
    1SOL     OW10709   1.587   4.359   4.290 -0.4764  0.0254  0.3361
    1SOL    HW210710   1.593   4.441   4.240 -0.7056 -0.0537  0.1743
    1SOL    HW310711   1.663   4.309   4.262  0.4661  0.7663  1.5158
    1SOL    MW410712   1.598   4.363   4.279 -0.3822  0.1125  0.4706
    1SOL     OW10713   0.448   4.005   4.312  0.6660 -0.2986  0.3766
    1SOL    HW210714   0.533   3.968   4.289  0.5151 -0.5665  0.2493
    1SOL    HW310715   0.450   4.094   4.277  2.2239  0.9106  3.3523
    1SOL    MW410716   0.460   4.012   4.305  0.8516 -0.1740  0.7524
    1SOL     OW10717   1.679   0.732   4.784  0.1312  0.3913  0.0917
    1SOL    HW210718   1.701   0.696   4.699  1.0614 -0.8808  0.8577
    1SOL    HW310719   1.599   0.687   4.810  0.1171  0.4191  0.0963
    1SOL    MW410720   1.672   0.722   4.776  0.2521  0.2272  0.1936
    1SOL     OW10721   2.936   3.192   4.128 -0.4091  0.0370  0.5307
    1SOL    HW210722   2.875   3.135   4.174 -1.7637  1.2174  0.2433
    1SOL    HW310723   2.937   3.158   4.038 -1.1422  0.4125  0.3809
    1SOL    MW410724   2.928   3.180   4.122 -0.6847  0.2425  0.4725
    1SOL     OW10725   2.321   4.513   4.586 -0.1386 -0.0779  0.3328
    1SOL    HW210726   2.402   4.463   4.575 -0.7358 -0.8184 -0.8619
    1SOL    HW310727   2.294   4.495   4.676 -0.3615 -1.9582 -0.0838
    1SOL    MW410728   2.328   4.504   4.597 -0.2465 -0.4234  0.1202
    1SOL     OW10729   4.489   0.176   4.664 -0.2557  0.2288 -0.1768
    1SOL    HW210730   4.454   0.157   4.751 -0.2634  1.0437 -0.0012
    1SOL    HW310731   4.493   0.090   4.621  0.2997 -0.2628  0.8272
    1SOL    MW410732   4.485   0.162   4.670 -0.1834  0.2714 -0.0210
    1SOL     OW10733   3.113   0.334   4.607 -0.1075  0.2925 -0.3148
    1SOL    HW210734   3.121   0.249   4.563  1.1240  0.7353 -0.9481
    1SOL    HW310735   3.201   0.353   4.639 -0.3475  1.3950 -0.2945
    1SOL    MW410736   3.126   0.325   4.605  0.0234  0.4964 -0.3953
    1SOL     OW10737   1.265   0.207   4.258  0.2903  0.1713  0.0691
    1SOL    HW210738   1.217   0.132   4.223  0.2013  1.4945 -2.9092
    1SOL    HW310739   1.217   0.232   4.337  0.4510 -2.9691  1.2131
    1SOL    MW410740   1.252   0.201   4.263  0.2998 -0.0685 -0.1736
    1SOL     OW10741   0.695   4.397   4.259 -0.4136  0.3718  0.3471
    1SOL    HW210742   0.708   4.397   4.353  0.0667  2.4960  0.3221
    1SOL    HW310743   0.776   4.361   4.223  1.3944  3.8677  0.6153
    1SOL    MW410744   0.708   4.392   4.266 -0.1118  1.1129  0.3796
    1SOL     OW10745   0.244   0.029   4.185  0.3849  0.1553 -0.3050
    1SOL    HW210746   0.257  -0.056   4.226 -0.3802  0.3182  0.2773
    1SOL    HW310747   0.324   0.078   4.207  0.7121 -0.3204 -0.4289
    1SOL    MW410748   0.256   0.025   4.194  0.3271  0.1135 -0.2441
    1SOL     OW10749   2.683   3.574   4.765 -0.4554  1.0082  0.1685
    1SOL    HW210750   2.619   3.635   4.802  0.3475  2.0163 -0.0808
    1SOL    HW310751   2.767   3.604   4.800  0.0286  0.4852 -0.5360
    1SOL    MW410752   2.686   3.586   4.774 -0.2854  1.0722  0.0424
    1SOL     OW10753   0.474   4.113   4.586 -0.4041  0.2605 -0.4727
    1SOL    HW210754   0.493   4.099   4.493 -1.7877  0.1993 -0.7519
    1SOL    HW310755   0.403   4.053   4.606 -2.1316  2.3734 -0.1066
    1SOL    MW410756   0.467   4.103   4.577 -0.8145  0.5312 -0.4611
    1SOL     OW10757   0.453   0.071   4.543  0.6386 -0.1088 -0.0291
    1SOL    HW210758   0.529   0.055   4.600 -0.5249 -0.9340  1.3433
    1SOL    HW310759   0.409  -0.014   4.539 -0.4734  0.4803 -0.4186
    1SOL    MW410760   0.457   0.058   4.550  0.3384 -0.1399  0.1006
    1SOL     OW10761   4.226   2.080   4.201  0.6030 -0.2344 -0.1467
    1SOL    HW210762   4.311   2.038   4.184  0.1020 -0.7522 -1.4168
    1SOL    HW310763   4.242   2.173   4.187  1.2902 -0.1728  0.9676
    1SOL    MW410764   4.240   2.087   4.197  0.6275 -0.2947 -0.1678
    1SOL     OW10765   4.463   2.465   4.485 -0.1750  0.5669 -0.3720
    1SOL    HW210766   4.434   2.384   4.526  1.0577  0.1757 -0.2554
    1SOL    HW310767   4.402   2.531   4.517  0.6377  0.2329  1.9651
    1SOL    MW410768   4.451   2.463   4.494  0.0948  0.4714 -0.0477
    1SOL     OW10769   0.354   3.002   4.549  0.1022 -0.0654  0.5451
    1SOL    HW210770   0.444   3.004   4.517 -0.4666 -0.8809 -1.1299
    1SOL    HW310771   0.327   3.094   4.550  0.9327  0.1808  1.0281
    1SOL    MW410772   0.362   3.015   4.545  0.1367 -0.1407  0.3881
    1SOL     OW10773   2.607   1.208   4.584  0.6223  0.3065 -0.5399
    1SOL    HW210774   2.518   1.241   4.579  0.7641  0.6673 -0.7747
    1SOL    HW310775   2.600   1.114   4.571  0.2191  0.2613  0.0207
    1SOL    MW410776   2.595   1.200   4.581  0.5877  0.3483 -0.4969
    1SOL     OW10777   3.056   4.615   4.491  0.1770  0.1541 -0.0026
    1SOL    HW210778   3.101   4.651   4.415  0.0860  0.7043  0.2040
    1SOL    HW310779   3.123   4.609   4.558 -0.1215  1.2439  0.3952
    1SOL    MW410780   3.070   4.619   4.490  0.1256  0.3710  0.0772
    1SOL     OW10781   4.298   2.672   4.521 -0.7875  0.1016 -0.4666
    1SOL    HW210782   4.332   2.753   4.559 -2.5104  0.4839  0.2867
    1SOL    HW310783   4.207   2.668   4.550 -0.9579 -1.6795 -1.2023
    1SOL    MW410784   4.291   2.682   4.530 -1.0376 -0.0825 -0.4644
    1SOL     OW10785   2.281   0.099   4.250  0.1770 -0.0107 -0.0897
    1SOL    HW210786   2.199   0.053   4.235 -0.1538  0.4586  0.2537
    1SOL    HW310787   2.269   0.184   4.208  0.2408  0.3036  0.5171
    1SOL    MW410788   2.269   0.104   4.243  0.1421  0.0927  0.0358
    1SOL     OW10789   0.652   3.310   4.517  0.2381 -0.4856 -0.2154
    1SOL    HW210790   0.597   3.328   4.440  1.1666  0.6167 -0.6464
    1SOL    HW310791   0.614   3.363   4.587  0.1209 -0.5490 -0.2314
    1SOL    MW410792   0.639   3.319   4.516  0.3451 -0.3483 -0.2747
    1SOL     OW10793   1.803   3.543   4.565 -0.2115  0.0634  0.0775
    1SOL    HW210794   1.720   3.536   4.612  0.2517  0.7336  1.0118
    1SOL    HW310795   1.814   3.458   4.523 -1.3057 -0.0698  0.0551
    1SOL    MW410796   1.793   3.531   4.566 -0.2948  0.1340  0.1984
    1SOL     OW10797   0.019   4.619   4.506  0.8800  0.0984  0.0086
    1SOL    HW210798  -0.048   4.554   4.529 -0.7597  2.2127  1.3922
    1SOL    HW310799  -0.013   4.657   4.424  0.7235  0.6345  0.3166
    1SOL    MW410800   0.006   4.615   4.498  0.6428  0.4482  0.2317
    1SOL     OW10801   4.390   3.742   4.702  0.2931 -0.0480  0.1894
    1SOL    HW210802   4.314   3.708   4.655  0.0727  0.0514  0.4757
    1SOL    HW310803   4.354   3.799   4.769  0.6150 -0.1053  0.4128
    1SOL    MW410804   4.375   3.745   4.704  0.3061 -0.0422  0.2565
    1SOL     OW10805   2.955   2.699   4.365 -0.0335 -0.4820 -0.5080
    1SOL    HW210806   2.888   2.630   4.365 -1.4341  0.8688 -1.1319
    1SOL    HW310807   3.035   2.654   4.338 -0.6777 -2.1057  0.1990
    1SOL    MW410808   2.957   2.684   4.362 -0.3035 -0.5181 -0.4969
    1SOL     OW10809   2.692   1.460   4.485 -0.0714  0.0112  0.2522
    1SOL    HW210810   2.667   1.373   4.516 -0.2836 -0.3969 -1.0232
    1SOL    HW310811   2.788   1.456   4.478 -0.1361 -0.4244 -0.6104
    1SOL    MW410812   2.701   1.448   4.488 -0.1080 -0.1001 -0.0305
    1SOL     OW10813   4.487   3.222   4.290 -0.6077  0.1286 -0.1361
    1SOL    HW210814   4.566   3.167   4.285 -1.2646 -1.0831  2.2453
    1SOL    HW310815   4.424   3.179   4.232 -0.5353 -0.6571  0.3588
    1SOL    MW410816   4.489   3.209   4.281 -0.6847 -0.1349  0.2432
    1SOL     OW10817   3.584   3.236   4.229  0.4698  0.3273 -0.0280
    1SOL    HW210818   3.671   3.203   4.208 -0.2586 -0.6204 -1.6011
    1SOL    HW310819   3.589   3.330   4.210  1.5464  0.5614  1.2798
    1SOL    MW410820   3.596   3.244   4.224  0.5157  0.2332 -0.0629
    1SOL     OW10821   0.753   3.696   4.621  0.1465  0.1356  0.6426
    1SOL    HW210822   0.747   3.790   4.641  1.8579  0.5529 -0.7028
    1SOL    HW310823   0.847   3.678   4.620 -0.1446 -1.4030  0.0268
    1SOL    MW410824   0.765   3.706   4.623  0.3339 -0.0122  0.3843
    1SOL     OW10825   1.969   2.308   4.124  0.1999 -0.0545 -0.2693
    1SOL    HW210826   2.039   2.357   4.166 -0.3628  0.2537  0.3289
    1SOL    HW310827   1.989   2.312   4.031  0.8644  0.1994 -0.1176
    1SOL    MW410828   1.981   2.315   4.117  0.2133  0.0193 -0.1702
    1SOL     OW10829   1.292   0.013   4.612  0.4167  0.2326 -0.2594
    1SOL    HW210830   1.335  -0.012   4.530 -0.6127 -1.2750 -0.3652
    1SOL    HW310831   1.236   0.087   4.589 -0.2008 -0.4690 -1.0171
    1SOL    MW410832   1.291   0.020   4.598  0.1996 -0.0587 -0.3734
    1SOL     OW10833   0.994   4.001   4.529 -0.1536 -0.0923 -0.1075
    1SOL    HW210834   0.998   3.931   4.594 -0.3079  0.2634  0.2912
    1SOL    HW310835   1.084   4.011   4.498  0.1013  0.3763  0.7446
    1SOL    MW410836   1.006   3.993   4.534 -0.1404  0.0162  0.0582
    1SOL     OW10837   0.180   2.311   4.133 -0.0877  0.2353 -0.0771
    1SOL    HW210838   0.180   2.225   4.175 -2.6034  0.8502  1.3390
    1SOL    HW310839   0.253   2.357   4.174  0.1296 -0.6174  0.5261
    1SOL    MW410840   0.189   2.306   4.144 -0.3910  0.2038  0.1893
    1SOL     OW10841   2.254   2.434   3.460  0.1380  0.0166  0.1631
    1SOL    HW210842   2.317   2.379   3.414  0.2169  0.0579  0.2204
    1SOL    HW310843   2.168   2.402   3.432  0.1814 -0.3826  0.4844
    1SOL    MW410844   2.251   2.422   3.450  0.1540 -0.0308  0.2129
    1SOL     OW10845   2.452   2.003   3.848  0.1299  0.1043  0.3781
    1SOL    HW210846   2.453   2.098   3.863 -0.7863  0.2109 -0.1940
    1SOL    HW310847   2.537   1.973   3.880  0.3710  1.0997  0.6968
    1SOL    MW410848   2.463   2.012   3.854  0.0410  0.2496  0.3445
    1SOL     OW10849   2.899   1.195   4.527 -0.2236  0.0741  0.1708
    1SOL    HW210850   2.963   1.248   4.574  0.3260  0.8268 -1.3712
    1SOL    HW310851   2.820   1.200   4.581  0.4409  0.7366  1.1040
    1SOL    MW410852   2.897   1.203   4.540 -0.0632  0.2608  0.0901
    1SOL     OW10853   4.009   1.918   4.141 -0.2441  0.3396 -0.0134
    1SOL    HW210854   3.934   1.960   4.182  0.4863  0.7739  0.9042
    1SOL    HW310855   4.083   1.977   4.160  0.2673  0.0897 -1.1853
    1SOL    MW410856   4.009   1.931   4.149 -0.0806  0.3641 -0.0472
    1SOL     OW10857   3.543   1.675   4.517  0.2006  0.2788  0.4572
    1SOL    HW210858   3.622   1.632   4.548 -0.4447 -2.0188 -0.9245
    1SOL    HW310859   3.554   1.678   4.422 -0.9763  0.7223  0.3287
    1SOL    MW410860   3.555   1.670   4.508 -0.0398  0.0342  0.2584
    1SOL     OW10861   1.908   2.557   4.881  0.1104 -0.1293  0.0150
    1SOL    HW210862   1.901   2.651   4.861 -0.7126 -0.3078 -0.5627
    1SOL    HW310863   1.823   2.521   4.857  0.8619 -1.2664 -1.0186
    1SOL    MW410864   1.896   2.565   4.875  0.1009 -0.3030 -0.1979
    1SOL     OW10865   1.608   2.294   3.884  0.3204 -0.3271 -0.1197
    1SOL    HW210866   1.614   2.214   3.832  1.8542 -0.6750  0.5708
    1SOL    HW310867   1.678   2.350   3.849 -0.7795  0.7425 -0.6403
    1SOL    MW410868   1.618   2.291   3.872  0.3775 -0.2320 -0.0970
    1SOL     OW10869   0.991   1.263   4.395 -0.2315  0.1335  0.0375
    1SOL    HW210870   0.931   1.337   4.399  0.7341  0.9001  0.4939
    1SOL    HW310871   0.968   1.218   4.314 -0.7313  1.0105 -0.3171
    1SOL    MW410872   0.980   1.267   4.385 -0.1699  0.3504  0.0505
    1SOL     OW10873   0.445   3.272   4.328  0.2759 -0.1584 -0.0309
    1SOL    HW210874   0.454   3.346   4.269  0.0105  0.1408  0.3057
    1SOL    HW310875   0.392   3.305   4.401 -2.6547 -1.5889 -1.4621
    1SOL    MW410876   0.439   3.286   4.330 -0.1458 -0.3078 -0.1750
    1SOL     OW10877   0.058   0.927   4.516  0.0039 -0.0511 -0.0840
    1SOL    HW210878   0.074   0.849   4.569  0.4829  0.4193  0.4812
    1SOL    HW310879   0.041   0.894   4.428 -0.6086 -0.8373  0.3193
    1SOL    MW410880   0.058   0.913   4.512 -0.0137 -0.0927  0.0443
    1SOL     OW10881   1.859   2.738   3.824  0.3110 -0.0292 -0.2199
    1SOL    HW210882   1.843   2.717   3.916 -0.1710  0.4059 -0.1997
    1SOL    HW310883   1.779   2.783   3.795  0.1376 -0.8728 -1.0790
    1SOL    MW410884   1.846   2.741   3.832  0.2246 -0.0830 -0.3307
    1SOL     OW10885   3.384   1.073   4.435 -0.6143 -0.3104  0.2298
    1SOL    HW210886   3.389   1.127   4.357 -0.4361 -1.1582 -0.3543
    1SOL    HW310887   3.290   1.063   4.451 -0.6437  0.2954  0.4246
    1SOL    MW410888   3.372   1.079   4.427 -0.5949 -0.3424  0.1783
    1SOL     OW10889   3.107   1.026   4.469  0.7127  0.0893 -0.0182
    1SOL    HW210890   3.091   0.997   4.379  2.2088 -1.8406  0.3027
    1SOL    HW310891   3.038   1.090   4.487  0.3143  0.3899 -2.4799
    1SOL    MW410892   3.096   1.031   4.460  0.8571 -0.1256 -0.3009
    1SOL     OW10893   1.092   0.013   4.147 -0.0777 -0.1947  0.0612
    1SOL    HW210894   1.028   0.081   4.168  0.6583  0.7782 -0.8065
    1SOL    HW310895   1.094   0.011   4.051  0.0345 -1.3187  0.0830
    1SOL    MW410896   1.084   0.022   4.137  0.0343 -0.2146 -0.0505
    1SOL     OW10897   1.480   2.893   4.483  0.4594  0.1481 -0.0917
    1SOL    HW210898   1.530   2.888   4.401  2.5621  1.2132  1.0705
    1SOL    HW310899   1.494   2.807   4.524 -0.9411 -0.5406 -1.0077
    1SOL    MW410900   1.489   2.881   4.478  0.5521  0.1981 -0.0596
    1SOL     OW10901   1.194   1.422   4.299  0.0539 -0.4485 -0.1468
    1SOL    HW210902   1.256   1.375   4.244  1.5873  0.5527  0.6878
    1SOL    HW310903   1.132   1.355   4.328  1.8984 -1.8794  0.6179
    1SOL    MW410904   1.194   1.407   4.296  0.4995 -0.5052  0.0644
    1SOL     OW10905   2.955   1.914   4.248 -0.0142 -0.2793  0.6005
    1SOL    HW210906   2.859   1.911   4.239  0.0936 -1.0409 -0.3865
    1SOL    HW310907   2.983   1.971   4.177  0.3290 -0.7628  0.3461
    1SOL    MW410908   2.946   1.921   4.238  0.0455 -0.4436  0.4373
    1SOL     OW10909   3.443   0.420   4.645 -0.4145  0.3778  0.0786
    1SOL    HW210910   3.398   0.490   4.599 -1.4770  0.4002  1.1188
    1SOL    HW310911   3.535   0.445   4.644 -0.7870  1.8179  0.4911
    1SOL    MW410912   3.449   0.432   4.639 -0.6039  0.5708  0.2699
    1SOL     OW10913   1.827   1.965   4.131 -0.1306 -0.0615  0.0630
    1SOL    HW210914   1.883   2.011   4.193 -0.3202 -0.2215  0.3535
    1SOL    HW310915   1.742   2.009   4.138  0.1220  0.5783 -0.8193
    1SOL    MW410916   1.823   1.977   4.140 -0.1223  0.0018 -0.0148
    1SOL     OW10917   0.307   3.674   4.544  0.1868  0.0593  0.3124
    1SOL    HW210918   0.227   3.648   4.591 -0.1522  3.2810  1.7027
    1SOL    HW310919   0.286   3.661   4.452 -1.5561 -0.2327  0.7315
    1SOL    MW410920   0.293   3.669   4.538 -0.0879  0.4458  0.5517
    1SOL     OW10921   1.819   4.028   4.311  0.2915  0.1740 -0.0927
    1SOL    HW210922   1.900   3.988   4.279  0.1788  0.2044 -0.4077
    1SOL    HW310923   1.801   4.099   4.250 -0.0732  0.0537 -0.1212
    1SOL    MW410924   1.827   4.032   4.299  0.2284  0.1616 -0.1378
    1SOL     OW10925   3.075   3.026   4.486  0.4671  0.2414  0.1378
    1SOL    HW210926   3.003   3.074   4.524 -0.4243 -1.4883  0.6947
    1SOL    HW310927   3.082   2.947   4.539  1.8094 -0.3036 -0.8162
    1SOL    MW410928   3.067   3.022   4.498  0.5264 -0.0587  0.0854
    1SOL     OW10929   4.026   4.138   4.496  0.3951 -0.1011  0.1949
    1SOL    HW210930   3.973   4.214   4.518 -0.3917 -0.6951  0.3535
    1SOL    HW310931   4.023   4.133   4.401  2.7023  1.6753 -0.0212
    1SOL    MW410932   4.019   4.147   4.486  0.5956  0.0553  0.1869
    1SOL     OW10933   3.812   3.831   4.736 -0.6183  0.2298 -0.1570
    1SOL    HW210934   3.758   3.765   4.694  0.3635 -1.0613  0.5738
    1SOL    HW310935   3.751   3.899   4.764 -1.7897 -0.9631  0.1997
    1SOL    MW410936   3.797   3.832   4.734 -0.6433 -0.0978 -0.0134
    1SOL     OW10937   0.862   0.200   4.479  0.1785  0.0342 -0.0648
    1SOL    HW210938   0.837   0.291   4.493 -0.0984 -0.0268 -0.1525
    1SOL    HW310939   0.814   0.151   4.546  0.2950 -0.0507 -0.0434
    1SOL    MW410940   0.852   0.206   4.490  0.1574  0.0150 -0.0734
    1SOL     OW10941   0.723   2.672   4.249 -0.4852  0.3411  0.3376
    1SOL    HW210942   0.781   2.714   4.186 -0.3080 -1.0603 -0.4754
    1SOL    HW310943   0.635   2.686   4.214 -0.6029  1.9053  1.2270
    1SOL    MW410944   0.719   2.679   4.236 -0.4774  0.3626  0.3476
    1SOL     OW10945   3.727   0.500   4.491 -0.3649  0.2167 -0.2359
    1SOL    HW210946   3.761   0.490   4.402  0.9252  1.4358  0.1001
    1SOL    HW310947   3.748   0.417   4.534  0.1766  0.1086 -0.7002
    1SOL    MW410948   3.735   0.488   4.485 -0.1235  0.3633 -0.2527
    1SOL     OW10949   0.736   3.068   4.168 -0.0842  0.1835  0.2013
    1SOL    HW210950   0.716   3.111   4.085 -2.4733  0.0007  0.6500
    1SOL    HW310951   0.789   3.131   4.216  1.0042  0.4386 -1.2759
    1SOL    MW410952   0.740   3.082   4.163 -0.2558  0.1929  0.0658
    1SOL     OW10953   0.489   0.200   4.290  0.5063 -0.2157  0.2165
    1SOL    HW210954   0.485   0.153   4.373 -0.6380 -0.6702 -0.0828
    1SOL    HW310955   0.557   0.155   4.240 -0.3151 -1.3207  0.0787
    1SOL    MW410956   0.497   0.188   4.294  0.2470 -0.4214  0.1588
    1SOL     OW10957   1.246   1.747   4.513 -0.0138 -0.6035  0.2529
    1SOL    HW210958   1.278   1.767   4.425  0.3549  0.6710  0.6700
    1SOL    HW310959   1.296   1.670   4.540  1.1432  0.0576  0.0320
    1SOL    MW410960   1.256   1.740   4.505  0.1875 -0.3482  0.2780
    1SOL     OW10961   2.628   3.448   4.294 -0.0371 -0.2368 -0.3753
    1SOL    HW210962   2.572   3.523   4.274 -2.4029 -1.7922  0.2198
    1SOL    HW310963   2.641   3.452   4.388  0.3246 -0.2308 -0.4254
    1SOL    MW410964   2.622   3.458   4.303 -0.3014 -0.4411 -0.3033
    1SOL     OW10965   3.285   2.637   4.645  0.1721 -0.1181  0.2629
    1SOL    HW210966   3.210   2.696   4.634  0.0726 -0.5807 -1.6888
    1SOL    HW310967   3.257   2.556   4.604  1.6354 -0.4027 -0.1747
    1SOL    MW410968   3.271   2.634   4.638  0.3521 -0.2170 -0.0520
    1SOL     OW10969   1.761   0.784   4.282 -0.2025  0.1877 -0.4556
    1SOL    HW210970   1.773   0.870   4.322 -0.0948  0.4411 -1.0443
    1SOL    HW310971   1.672   0.785   4.248 -0.5750 -0.3153  0.4727
    1SOL    MW410972   1.751   0.795   4.283 -0.2376  0.1548 -0.4110
    1SOL     OW10973   1.274   4.003   4.474 -0.2493  0.3942  0.5445
    1SOL    HW210974   1.285   3.909   4.489  1.1853  0.6623  1.3093
    1SOL    HW310975   1.287   4.013   4.379 -0.8908 -0.2412  0.3872
    1SOL    MW410976   1.277   3.992   4.463 -0.1447  0.3457  0.6242
    1SOL     OW10977   1.880   0.892   4.869  0.1060 -0.2335 -0.2544
    1SOL    HW210978   1.860   0.936   4.951 -0.1727 -0.1214 -0.3823
    1SOL    HW310979   1.803   0.838   4.851  0.3497 -0.5916 -0.2180
    1SOL    MW410980   1.867   0.891   4.877  0.1014 -0.2659 -0.2666
    1SOL     OW10981   3.945   1.207   4.517  0.3905 -0.2757  0.0282
    1SOL    HW210982   3.899   1.125   4.535  0.9837 -0.7659 -0.6614
    1SOL    HW310983   3.884   1.259   4.465 -0.0456 -0.2174  0.5995
    1SOL    MW410984   3.931   1.203   4.513  0.4113 -0.3327  0.0124
    1SOL     OW10985   2.016   0.510   4.545  0.5642  0.5415  0.3525
    1SOL    HW210986   2.091   0.558   4.578  0.8907  0.8793 -0.8504
    1SOL    HW310987   2.035   0.418   4.565  1.3469  0.6183 -0.0416
    1SOL    MW410988   2.028   0.504   4.552  0.7105  0.5963  0.1421
    1SOL     OW10989   1.801   0.353   4.152  0.0951  0.0706 -0.6526
    1SOL    HW210990   1.732   0.417   4.170 -0.7950 -0.9303 -0.4231
    1SOL    HW310991   1.882   0.396   4.179 -0.4524  1.2069 -0.7806
    1SOL    MW410992   1.803   0.367   4.158 -0.0947  0.0885 -0.6394
    1SOL     OW10993   1.792   4.229   4.147  0.4598  0.3352 -0.1801
    1SOL    HW210994   1.879   4.268   4.157 -0.2389  2.0686 -0.7602
    1SOL    HW310995   1.771   4.241   4.055 -0.4860  0.0965  0.0031
    1SOL    MW410996   1.801   4.236   4.137  0.2427  0.5322 -0.2322
    1SOL     OW10997   3.329   0.791   4.156 -0.1888  0.0242 -0.1034
    1SOL    HW210998   3.333   0.700   4.184 -1.7299 -0.5908 -1.7671
    1SOL    HW310999   3.418   0.824   4.169 -0.0116 -1.2339  2.0290
    1SOL    MW411000   3.342   0.783   4.161 -0.3688 -0.2229 -0.0415
    1SOL     OW11001   2.632   2.821   4.068  0.3350 -0.2822  0.3912
    1SOL    HW211002   2.627   2.760   4.142  0.7235 -2.5637 -1.3855
    1SOL    HW311003   2.721   2.856   4.073  0.1265  0.1324  1.4129
    1SOL    MW411004   2.643   2.817   4.079  0.3586 -0.5286  0.2918
    1SOL     OW11005   0.464   2.706   4.141 -0.1200 -0.1157 -0.1628
    1SOL    HW211006   0.399   2.756   4.190 -0.6090  0.1709 -1.1050
    1SOL    HW311007   0.442   2.720   4.049  1.3672  0.1063 -0.5004
    1SOL    MW411008   0.453   2.714   4.136  0.0117 -0.0484 -0.3319
    1SOL     OW11009   3.271   3.235   4.518  0.2346  0.3672 -0.0918
    1SOL    HW211010   3.208   3.304   4.497  1.2273  1.8850  1.7099
    1SOL    HW311011   3.221   3.154   4.514 -1.5114  1.4308  0.0010
    1SOL    MW411012   3.256   3.233   4.515  0.1354  0.7076  0.1583
    1SOL     OW11013   4.403   2.225   4.634  0.0167 -0.2808  0.1726
    1SOL    HW211014   4.315   2.202   4.662  0.5281  0.6150  2.7023
    1SOL    HW311015   4.446   2.141   4.619 -0.5063 -0.8068  1.5016
    1SOL    MW411016   4.397   2.211   4.636  0.0148 -0.2320  0.6819
    1SOL     OW11017   4.095   2.194   4.642  0.1179  0.5521  0.1399
    1SOL    HW211018   4.000   2.190   4.644  0.0631  1.2490 -0.5535
    1SOL    HW311019   4.122   2.114   4.598 -0.2368  1.1068 -1.1163
    1SOL    MW411020   4.086   2.183   4.636  0.0639  0.7169 -0.1178
    1SOL     OW11021   2.504   4.632   4.133 -0.2005 -0.4384 -0.0041
    1SOL    HW211022   2.576   4.673   4.181 -0.0674 -0.8860  0.1778
    1SOL    HW311023   2.425   4.669   4.172 -0.0658  0.1668 -0.3040
    1SOL    MW411024   2.503   4.642   4.144 -0.1647 -0.4176 -0.0196
    1SOL     OW11025   3.996   1.667   4.216  0.5915  0.1586  0.2656
    1SOL    HW211026   4.004   1.755   4.179  0.9962  0.8741  2.0069
    1SOL    HW311027   4.072   1.619   4.182  0.3646  0.4829 -0.6934
    1SOL    MW411028   4.007   1.672   4.207  0.6151  0.2959  0.3691
    1SOL     OW11029   3.563   3.209   4.497  0.1431 -0.4061  0.4534
    1SOL    HW211030   3.560   3.229   4.403  2.8886  1.8532  0.7671
    1SOL    HW311031   3.471   3.208   4.524 -0.5993  1.4497 -1.7817
    1SOL    MW411032   3.551   3.211   4.488  0.4075  0.1369  0.2007
    1SOL     OW11033   4.459   1.673   4.237 -0.0942  0.1113  0.4376
    1SOL    HW211034   4.370   1.641   4.219  0.6326 -1.0371 -1.2692
    1SOL    HW311035   4.516   1.609   4.195  1.5044  1.7180  0.1142
    1SOL    MW411036   4.455   1.660   4.229  0.2127  0.1718  0.1702
    1SOL     OW11037   1.971   3.657   4.192 -0.0417  0.1242  0.4636
    1SOL    HW211038   1.987   3.750   4.179  0.1516 -0.1099 -1.0598
    1SOL    HW311039   2.056   3.616   4.174 -0.9329 -0.6319 -2.1873
    1SOL    MW411040   1.985   3.664   4.188 -0.1338 -0.0064 -0.0873
    1SOL     OW11041   2.303   0.890   4.569  0.0667 -0.2290  0.1420
    1SOL    HW211042   2.398   0.902   4.562  0.0393 -1.1077 -2.1098
    1SOL    HW311043   2.292   0.800   4.600 -0.0374 -0.2248  0.1191
    1SOL    MW411044   2.314   0.880   4.572  0.0491 -0.3444 -0.1578
    1SOL     OW11045   1.123   0.523   4.483 -0.0464  0.2576  0.0565
    1SOL    HW211046   1.199   0.576   4.506  0.2407  0.3893 -1.1739
    1SOL    HW311047   1.098   0.553   4.395 -0.1313 -1.3691 -0.4861
    1SOL    MW411048   1.129   0.534   4.475 -0.0198  0.0603 -0.1779
    1SOL     OW11049   1.079   2.821   4.236  0.2537 -0.3714  0.0230
    1SOL    HW211050   1.167   2.791   4.215 -0.4081 -2.3761 -0.0089
    1SOL    HW311051   1.065   2.791   4.326  0.0959  1.1355  0.5148
    1SOL    MW411052   1.089   2.813   4.245  0.1454 -0.4373  0.0834
    1SOL     OW11053   1.788   2.711   4.093  0.2285  0.2842  0.3338
    1SOL    HW211054   1.759   2.630   4.136 -2.1669  1.8455  1.7578
    1SOL    HW311055   1.871   2.731   4.135  0.7553 -1.3261  0.1141
    1SOL    MW411056   1.795   2.703   4.104 -0.0180  0.2778  0.4926
    1SOL     OW11057   3.414   0.151   4.563  0.2369  0.2357 -0.0872
    1SOL    HW211058   3.484   0.136   4.499  0.9371  2.8978 -0.0299
    1SOL    HW311059   3.419   0.245   4.581  0.2807 -0.5066  4.1652
    1SOL    MW411060   3.424   0.162   4.557  0.3350  0.4890  0.4811
    1SOL     OW11061   3.519   3.916   4.491  0.0729 -0.1425  0.0634
    1SOL    HW211062   3.428   3.917   4.522  0.1100 -0.4091  0.1814
    1SOL    HW311063   3.550   3.828   4.510  0.1324 -0.2715 -0.6314
    1SOL    MW411064   3.511   3.905   4.498  0.0856 -0.1948 -0.0124
    1SOL     OW11065   0.255   3.261   4.551 -0.1050  0.1886 -0.0803
    1SOL    HW211066   0.277   3.311   4.629  0.0109  2.2116 -1.3586
    1SOL    HW311067   0.160   3.274   4.541 -0.3088 -0.9537  0.3164
    1SOL    MW411068   0.245   3.270   4.560 -0.1166  0.3049 -0.1969
    1SOL     OW11069   2.951   3.882   4.144 -0.0993  0.2018  0.2855
    1SOL    HW211070   2.972   3.790   4.127  2.4046  0.5912  1.0308
    1SOL    HW311071   2.953   3.924   4.057 -0.0869 -0.2364  0.0765
    1SOL    MW411072   2.954   3.876   4.130  0.2327  0.1953  0.3567
    1SOL     OW11073   1.324   4.294   4.196  0.0333  0.5459 -0.3942
    1SOL    HW211074   1.405   4.314   4.243  0.0838  1.1329 -0.7339
    1SOL    HW311075   1.348   4.297   4.104  0.0173 -0.9531 -0.4565
    1SOL    MW411076   1.338   4.297   4.190  0.0380  0.4253 -0.4468
    1SOL     OW11077   2.480   0.481   4.526 -0.1218 -0.3831 -0.3538
    1SOL    HW211078   2.481   0.496   4.432 -0.8456 -1.0961 -0.4780
    1SOL    HW311079   2.522   0.396   4.538  2.9890  1.1273  0.2647
    1SOL    MW411080   2.486   0.472   4.515  0.1931 -0.2779 -0.2890
    1SOL     OW11081   1.252   2.965   4.613  0.3404 -0.3298 -0.0761
    1SOL    HW211082   1.331   2.941   4.566  1.0601  2.6492 -0.4530
    1SOL    HW311083   1.281   2.981   4.703  0.2697  1.2260 -0.3203
    1SOL    MW411084   1.266   2.964   4.619  0.4259  0.2685 -0.1578
    1SOL     OW11085   2.881   2.552   4.078 -0.3810  0.1391  0.3967
    1SOL    HW211086   2.859   2.531   4.169 -0.0064 -0.7912  0.2774
    1SOL    HW311087   2.796   2.551   4.033 -0.3362 -1.5286  0.3193
    1SOL    MW411088   2.867   2.549   4.084 -0.3259 -0.2036  0.3710
    1SOL     OW11089   3.066   2.784   4.618 -0.6553 -0.1371  0.3220
    1SOL    HW211090   2.999   2.829   4.671 -0.7934 -0.4773  0.4373
    1SOL    HW311091   3.016   2.738   4.550 -0.6678 -1.5684  1.2672
    1SOL    MW411092   3.050   2.784   4.616 -0.6752 -0.3710  0.4621
    1SOL     OW11093   0.214   1.138   4.522 -0.0086 -0.5610  0.0391
    1SOL    HW211094   0.185   1.183   4.443 -0.6127 -0.5663  0.2536
    1SOL    HW311095   0.159   1.060   4.527  0.6036 -0.9968  0.0110
    1SOL    MW411096   0.203   1.133   4.513 -0.0075 -0.6192  0.0634
    1SOL     OW11097   1.472   2.635   4.614  0.6653  0.1243 -0.2742
    1SOL    HW211098   1.425   2.565   4.569  0.6920 -0.4775  0.6176
    1SOL    HW311099   1.535   2.590   4.670 -0.1353  0.8110  1.2208
    1SOL    MW411100   1.474   2.620   4.615  0.5631  0.1354  0.0405
    1SOL     OW11101   1.752   0.612   4.522 -0.0483 -0.1472  0.4358
    1SOL    HW211102   1.774   0.673   4.451 -0.3661 -0.1563  0.3297
    1SOL    HW311103   1.837   0.583   4.555  0.1033 -0.0384  0.1483
    1SOL    MW411104   1.767   0.616   4.517 -0.0701 -0.1341  0.3834
    1SOL     OW11105   2.316   2.731   3.888 -0.6964  0.2686 -0.1720
    1SOL    HW211106   2.404   2.751   3.856 -0.2177 -1.9425 -0.3203
    1SOL    HW311107   2.326   2.722   3.983 -1.1410  1.8886  0.0343
    1SOL    MW411108   2.329   2.732   3.896 -0.6919  0.1905 -0.1645
    1SOL     OW11109   3.141   1.208   4.136 -0.1060 -0.6354  0.0066
    1SOL    HW211110   3.146   1.228   4.043  0.3120 -1.4645 -0.1506
    1SOL    HW311111   3.219   1.248   4.174 -0.1242 -0.5487 -0.0488
    1SOL    MW411112   3.152   1.216   4.129 -0.0532 -0.7334 -0.0210
    1SOL     OW11113   2.178   2.527   4.493  0.0583  0.0942 -0.6398
    1SOL    HW211114   2.253   2.584   4.511 -0.1104  0.3381 -0.7169
    1SOL    HW311115   2.152   2.493   4.578 -0.9555  1.5074 -0.3821
    1SOL    MW411116   2.185   2.530   4.507 -0.0975  0.3128 -0.6156
    1SOL     OW11117   1.491   3.564   4.520  1.0816 -0.1007  0.4570
    1SOL    HW211118   1.526   3.576   4.432  1.6170 -1.4596  0.4724
    1SOL    HW311119   1.483   3.469   4.530 -1.3595  0.1095  0.9361
    1SOL    MW411120   1.494   3.553   4.510  0.8301 -0.2522  0.5217
    1SOL     OW11121   3.339   0.523   4.233  0.0704 -0.1848 -0.0916
    1SOL    HW211122   3.266   0.464   4.218 -0.3172  0.5848 -1.3026
    1SOL    HW311123   3.329   0.552   4.324 -2.6132  1.8977 -0.9884
    1SOL    MW411124   3.328   0.519   4.243 -0.3350  0.1915 -0.3695
    1SOL     OW11125   1.351   0.652   4.622 -0.2076  0.0700  0.3423
    1SOL    HW211126   1.342   0.743   4.594 -1.1437 -0.5275 -1.3393
    1SOL    HW311127   1.402   0.610   4.553  0.9742 -0.4880  1.5408
    1SOL    MW411128   1.357   0.659   4.609 -0.1752 -0.0824  0.2789
    1SOL     OW11129   2.280   2.468   3.747  0.0365 -0.0455  0.7786
    1SOL    HW211130   2.290   2.559   3.774 -1.7772 -0.3693  2.6828
    1SOL    HW311131   2.271   2.471   3.652 -0.2061  1.7736  0.8502
    1SOL    MW411132   2.280   2.480   3.738 -0.2346  0.1516  1.0393
    1SOL     OW11133   3.755   4.651   4.690  0.3077 -0.0682 -0.3511
    1SOL    HW211134   3.848   4.645   4.714  0.4771  0.5359 -0.8552
    1SOL    HW311135   3.716   4.571   4.726  0.7347  0.3763  1.1277
    1SOL    MW411136   3.762   4.639   4.698  0.3865  0.0701 -0.2227
    1SOL     OW11137   3.098   2.051   4.053  0.0801  0.3471 -0.3639
    1SOL    HW211138   3.045   2.130   4.051 -0.0669  0.2625  0.0784
    1SOL    HW311139   3.083   2.009   3.968 -1.6717 -0.3964  0.2816
    1SOL    MW411140   3.089   2.056   4.042 -0.1705  0.2377 -0.2208
    1SOL     OW11141   0.881   3.231   4.367 -0.2754  0.2251  0.2142
    1SOL    HW211142   0.813   3.241   4.434 -0.0358  0.3441  0.4429
    1SOL    HW311143   0.945   3.172   4.407 -1.4908 -1.9593 -0.9878
    1SOL    MW411144   0.881   3.225   4.381 -0.4042 -0.0474  0.0863
    1SOL     OW11145   3.739   0.221   4.565  0.0323 -0.1759 -0.0763
    1SOL    HW211146   3.698   0.189   4.484  0.5089 -0.0740 -0.3635
    1SOL    HW311147   3.730   0.149   4.627  0.8468 -0.7654 -0.6326
    1SOL    MW411148   3.732   0.207   4.562  0.2029 -0.2402 -0.1879
    1SOL     OW11149   1.563   3.626   4.269  0.1913  0.3970  0.2443
    1SOL    HW211150   1.642   3.593   4.226 -0.5133 -0.2408 -0.5704
    1SOL    HW311151   1.493   3.570   4.236 -0.2670 -0.5854  2.8065
    1SOL    MW411152   1.564   3.614   4.259  0.0378  0.1833  0.4754
    1SOL     OW11153   0.234   2.546   4.572 -0.3595  0.0511  0.1249
    1SOL    HW211154   0.194   2.632   4.565 -0.9257 -0.0826  1.5570
    1SOL    HW311155   0.162   2.484   4.557 -0.4468 -0.1774  1.4039
    1SOL    MW411156   0.219   2.549   4.569 -0.4457  0.0036  0.4830
    1SOL     OW11157   3.392   1.432   4.511 -0.0563  0.5528  0.8964
    1SOL    HW211158   3.462   1.371   4.535  0.1615  0.2156 -0.5483
    1SOL    HW311159   3.429   1.519   4.527  0.6395  0.3733  0.2651
    1SOL    MW411160   3.406   1.435   4.517  0.0641  0.4846  0.6223
    1SOL     OW11161   2.298   4.248   4.102 -0.4790  0.0393 -0.3995
    1SOL    HW211162   2.218   4.290   4.134 -0.5670 -1.0833  0.8921
    1SOL    HW311163   2.368   4.288   4.154 -0.4224 -0.4316 -0.1110
    1SOL    MW411164   2.297   4.259   4.113 -0.4830 -0.1707 -0.1912
    1SOL     OW11165   0.487   2.412   4.541  0.1216 -0.0757 -0.0341
    1SOL    HW211166   0.407   2.455   4.571 -0.6744 -2.3172  1.1913
    1SOL    HW311167   0.558   2.462   4.581 -0.7676  0.3315  1.0359
    1SOL    MW411168   0.486   2.424   4.550 -0.1008 -0.3178  0.2685
    1SOL     OW11169   4.222   3.398   4.558 -0.0040  0.3562  0.1308
    1SOL    HW211170   4.202   3.491   4.550  0.6640  0.5066  0.2514
    1SOL    HW311171   4.139   3.355   4.537  0.0975  0.9270 -1.5071
    1SOL    MW411172   4.208   3.405   4.554  0.0973  0.4513 -0.0696
    1SOL     OW11173   2.017   0.097   4.839  0.4205  0.1616  0.4215
    1SOL    HW211174   1.949   0.034   4.819  0.3423  0.2051  0.5559
    1SOL    HW311175   2.074   0.053   4.902  1.5421 -0.5636 -1.0463
    1SOL    MW411176   2.016   0.083   4.844  0.5584  0.0716  0.2456
    1SOL     OW11177   0.449   0.368   4.570 -0.3589 -0.3438  0.1350
    1SOL    HW211178   0.440   0.275   4.551 -0.6465 -0.2122 -0.4033
    1SOL    HW311179   0.537   0.391   4.538 -0.5795 -0.2720 -0.4391
    1SOL    MW411180   0.460   0.359   4.563 -0.4260 -0.3169 -0.0114
    1SOL     OW11181   1.036   3.768   4.688  0.1016 -0.4805  0.5011
    1SOL    HW211182   1.048   3.740   4.779 -1.0320 -0.7455  0.5816
    1SOL    HW311183   1.118   3.745   4.644  0.3013 -1.2098  1.2434
    1SOL    MW411184   1.048   3.761   4.694 -0.0215 -0.6115  0.6094
    1SOL     OW11185   3.740   1.299   4.157 -0.4322  0.3653 -0.0474
    1SOL    HW211186   3.805   1.228   4.156  0.6811  1.3458  0.6887
    1SOL    HW311187   3.660   1.259   4.123  0.0815 -1.3343  0.6841
    1SOL    MW411188   3.738   1.284   4.153 -0.2172  0.2705  0.1459
    1SOL     OW11189   1.570   3.918   4.214  0.0758 -0.2509 -0.0464
    1SOL    HW211190   1.646   3.947   4.265 -0.0584 -0.2159  0.1354
    1SOL    HW311191   1.555   3.828   4.242  0.7219 -0.6262 -0.8847
    1SOL    MW411192   1.578   3.910   4.224  0.1433 -0.2954 -0.1326
    1SOL     OW11193   2.407   2.682   4.538 -0.4966  0.1572  0.7281
    1SOL    HW211194   2.385   2.775   4.545 -0.1287  0.1731  1.7054
    1SOL    HW311195   2.467   2.678   4.463 -1.5120  0.5193 -0.1226
    1SOL    MW411196   2.412   2.694   4.529 -0.5822  0.2069  0.7448
    1SOL     OW11197   0.965   1.729   4.431 -0.0105  0.0105 -0.3972
    1SOL    HW211198   0.933   1.819   4.437 -0.4050 -0.0792 -1.0956
    1SOL    HW311199   1.056   1.734   4.462 -0.3116  0.4823  0.4108
    1SOL    MW411200   0.973   1.742   4.436 -0.1023  0.0610 -0.3829
    1SOL     OW11201   0.426   1.635   4.509 -0.1640  0.2039  0.5745
    1SOL    HW211202   0.481   1.562   4.538 -1.0836 -0.3395  0.9995
    1SOL    HW311203   0.337   1.599   4.510 -0.6392  1.3696  0.9047
    1SOL    MW411204   0.422   1.620   4.513 -0.3481  0.2859  0.6738
    1SOL     OW11205   2.091   2.418   4.730 -0.1270  0.4581  0.1893
    1SOL    HW211206   2.028   2.470   4.779  0.0060  1.4825 -0.7087
    1SOL    HW311207   2.145   2.376   4.796 -0.4823  1.1537  0.9221
    1SOL    MW411208   2.089   2.419   4.745 -0.1564  0.6850  0.1678
    1SOL     OW11209   4.035   0.061   4.222 -0.1209 -0.0823  0.0858
    1SOL    HW211210   3.949   0.019   4.213 -0.5959  0.9373 -0.2325
    1SOL    HW311211   4.041   0.082   4.316 -0.7189  0.8595 -0.0748
    1SOL    MW411212   4.024   0.058   4.233 -0.2623  0.1765  0.0229
    1SOL     OW11213   4.034   4.546   4.554 -0.1940  0.5542 -0.2483
    1SOL    HW211214   4.126   4.519   4.555 -0.4415 -0.2934 -0.0607
    1SOL    HW311215   4.035   4.634   4.516  0.7458  0.7438  0.2078
    1SOL    MW411216   4.046   4.555   4.549 -0.1030  0.4673 -0.1631
    1SOL     OW11217   2.045   2.337   3.868  0.1743 -0.2416  0.3823
    1SOL    HW211218   2.108   2.392   3.822 -2.2760  0.2697 -2.5266
    1SOL    HW311219   2.056   2.250   3.829  0.6188 -0.6648  1.4467
    1SOL    MW411220   2.054   2.333   3.857 -0.0904 -0.2301  0.1390
    1SOL     OW11221   0.214   2.084   4.538  0.6107 -0.0073 -0.1840
    1SOL    HW211222   0.282   2.021   4.561 -0.4038 -0.9784  0.1960
    1SOL    HW311223   0.240   2.165   4.582  2.4903  0.1643 -1.5417
    1SOL    MW411224   0.227   2.087   4.547  0.7248 -0.1130 -0.3128
    1SOL     OW11225   3.754   3.417   4.499  0.0443 -0.0609 -0.3895
    1SOL    HW211226   3.824   3.351   4.500  0.6607  0.5921 -0.4110
    1SOL    HW311227   3.675   3.367   4.518  0.3183 -1.0411 -1.7449
    1SOL    MW411228   3.753   3.402   4.502  0.1619 -0.1040 -0.5713
    1SOL     OW11229   4.270   3.855   4.174  0.3036 -0.0706  0.2174
    1SOL    HW211230   4.263   3.827   4.082  1.4589  1.8115 -0.4667
    1SOL    HW311231   4.261   3.774   4.224 -1.9484 -0.9039 -1.4789
    1SOL    MW411232   4.268   3.840   4.168  0.1593  0.0682 -0.0973
    1SOL     OW11233   2.922   2.832   4.068 -0.4876  1.1703  0.1637
    1SOL    HW211234   2.908   2.740   4.091 -2.0284  1.4174  0.2840
    1SOL    HW311235   2.992   2.860   4.126 -0.5527  0.2822  0.6973
    1SOL    MW411236   2.929   2.823   4.079 -0.6990  1.0858  0.2499
    1SOL     OW11237   3.778   4.349   4.271  0.3635 -0.1198 -0.7253
    1SOL    HW211238   3.796   4.366   4.363  0.2251  0.9525 -0.8852
    1SOL    HW311239   3.863   4.324   4.234  0.5280 -0.0158 -0.4180
    1SOL    MW411240   3.792   4.348   4.278  0.3674  0.0353 -0.7062
    1SOL     OW11241   0.859   2.319   4.531 -0.3851  0.2210  0.0763
    1SOL    HW211242   0.852   2.353   4.442 -1.0866 -0.9390 -0.3322
    1SOL    HW311243   0.830   2.391   4.587  0.5831  1.1393 -0.6016
    1SOL    MW411244   0.854   2.333   4.526 -0.3499  0.1891 -0.0668
    1SOL     OW11245   2.004   0.745   4.149  0.1238  0.1579 -0.8053
    1SOL    HW211246   2.057   0.798   4.209 -0.5513 -1.5589  1.3739
    1SOL    HW311247   1.914   0.755   4.181 -0.3910  0.0829 -2.2062
    1SOL    MW411248   1.999   0.753   4.161 -0.0334 -0.0784 -0.7019
    1SOL     OW11249   4.290   3.073   4.147  0.3170  0.1952  0.5815
    1SOL    HW211250   4.278   2.986   4.185 -1.0758  0.5636  0.9936
    1SOL    HW311251   4.269   3.061   4.054 -0.9278  0.3082  0.8365
    1SOL    MW411252   4.286   3.060   4.140 -0.0315  0.2587  0.6700
    1SOL     OW11253   2.752   4.260   4.130  0.1058  1.1152 -0.2211
    1SOL    HW211254   2.749   4.284   4.038  0.2038  0.2925 -0.4388
    1SOL    HW311255   2.825   4.312   4.166  0.9714  0.3835 -0.9082
    1SOL    MW411256   2.762   4.270   4.123  0.2329  0.9108 -0.3405
    1SOL     OW11257   2.055   4.358   4.207 -0.4146  0.5541 -0.1632
    1SOL    HW211258   2.069   4.361   4.302 -3.3937  0.0384  0.3594
    1SOL    HW311259   2.056   4.449   4.179  0.2843  0.7193  0.3854
    1SOL    MW411260   2.057   4.370   4.216 -0.7153  0.5083 -0.0219
    1SOL     OW11261   3.328   0.643   4.486 -0.5131 -0.3023  0.2013
    1SOL    HW211262   3.247   0.693   4.497  0.0893  0.5100  1.0242
    1SOL    HW311263   3.397   0.709   4.481  0.1478 -1.0027 -0.0737
    1SOL    MW411264   3.326   0.658   4.487 -0.3462 -0.2875  0.2732
    1SOL     OW11265   0.176   0.404   4.697  0.1991  0.0433 -0.2690
    1SOL    HW211266   0.261   0.367   4.675 -0.0298 -0.5404 -0.1705
    1SOL    HW311267   0.112   0.338   4.668 -0.1810  0.0667  0.5054
    1SOL    MW411268   0.179   0.391   4.690  0.1188 -0.0306 -0.1540
    1SOL     OW11269   3.800   2.222   4.608  0.1232  0.4563  0.1871
    1SOL    HW211270   3.792   2.138   4.564  1.4513 -0.0405  0.8742
    1SOL    HW311271   3.721   2.229   4.662  1.0404 -1.3514  1.8033
    1SOL    MW411272   3.788   2.212   4.609  0.4196  0.1523  0.4911
    1SOL     OW11273   0.099   3.557   4.679 -0.1583 -0.5938  0.4640
    1SOL    HW211274   0.022   3.612   4.686  1.6977  1.9689  1.2827
    1SOL    HW311275   0.076   3.492   4.612 -2.8502  0.3444  0.4245
    1SOL    MW411276   0.086   3.555   4.671 -0.2686 -0.1318  0.5670
    1SOL     OW11277   4.105   0.799   4.476 -0.1553 -0.5402 -0.0691
    1SOL    HW211278   4.160   0.723   4.494 -0.2887 -0.2481  1.6455
    1SOL    HW311279   4.153   0.873   4.513 -0.9238 -0.0630 -0.0175
    1SOL    MW411280   4.118   0.799   4.483 -0.2747 -0.4387  0.1645
    1SOL     OW11281   0.857   1.156   4.129  0.1238  0.1723  0.0445
    1SOL    HW211282   0.774   1.194   4.159  1.1169  2.0669  0.5014
    1SOL    HW311283   0.850   1.063   4.151 -1.8140  0.3333  0.2041
    1SOL    MW411284   0.845   1.149   4.136 -0.0009  0.4433  0.1254
    1SOL     OW11285   1.708   3.240   4.208  0.7479  0.0686  0.1843
    1SOL    HW211286   1.789   3.190   4.196  0.4395 -0.3474 -0.1804
    1SOL    HW311287   1.727   3.326   4.171  1.3437  0.2901  0.9918
    1SOL    MW411288   1.721   3.245   4.202  0.7857  0.0432  0.2432
    1SOL     OW11289   3.288   1.650   4.115  0.0032 -0.2271 -0.2419
    1SOL    HW211290   3.303   1.607   4.030  0.5680 -0.5099 -0.0068
    1SOL    HW311291   3.376   1.675   4.144 -0.1974 -0.0861  0.2337
    1SOL    MW411292   3.302   1.647   4.107  0.0513 -0.2458 -0.1483
    1SOL     OW11293   1.555   4.611   4.718  0.4208 -0.0899 -0.1860
    1SOL    HW211294   1.561   4.523   4.680 -0.6351 -0.6855  0.9648
    1SOL    HW311295   1.462   4.633   4.712  0.5257  0.5411  0.4488
    1SOL    MW411296   1.543   4.602   4.712  0.2954 -0.0858  0.0496
    1SOL     OW11297   0.206   0.710   4.128  0.5519 -0.5210  0.1938
    1SOL    HW211298   0.256   0.777   4.173  1.8704 -1.1280 -0.3471
    1SOL    HW311299   0.207   0.635   4.187 -0.0785 -0.3966  0.3651
    1SOL    MW411300   0.212   0.709   4.142  0.6427 -0.5847  0.1450
    1SOL     OW11301   2.476   3.198   4.314 -0.3834 -0.2700 -0.1376
    1SOL    HW211302   2.380   3.202   4.313 -0.3593  0.0885 -2.3997
    1SOL    HW311303   2.504   3.288   4.303  0.2672 -0.0839  2.5804
    1SOL    MW411304   2.467   3.210   4.313 -0.2944 -0.1981 -0.0777
    1SOL     OW11305   2.824   3.444   4.108 -0.1570  0.1525 -0.0613
    1SOL    HW211306   2.855   3.353   4.111  1.1665  0.5758 -0.3695
    1SOL    HW311307   2.756   3.449   4.175 -0.8543 -1.2901 -0.6469
    1SOL    MW411308   2.819   3.433   4.117 -0.0744  0.0181 -0.1793
    1SOL     OW11309   2.188   3.240   4.317  0.0635 -0.2496 -0.3221
    1SOL    HW211310   2.152   3.249   4.405 -0.0505  0.8917 -0.4814
    1SOL    HW311311   2.116   3.208   4.263 -0.0216 -0.3876 -0.1239
    1SOL    MW411312   2.174   3.237   4.321  0.0372 -0.1173 -0.3176
    1SOL     OW11313   3.186   3.326   4.210  0.3857  0.2906 -0.2109
    1SOL    HW211314   3.254   3.259   4.202  0.6630  0.7406 -1.9378
    1SOL    HW311315   3.108   3.285   4.173 -0.0768  0.0587  1.0228
    1SOL    MW411316   3.185   3.312   4.204  0.3612  0.3195 -0.2756
    1SOL     OW11317   0.309   4.508   4.530 -0.0557  0.3414 -0.1880
    1SOL    HW211318   0.230   4.561   4.543 -0.4479 -0.0405 -0.9467
    1SOL    HW311319   0.291   4.459   4.449  0.3404 -0.8864  0.4627
    1SOL    MW411320   0.296   4.509   4.521 -0.0552  0.1292 -0.2027
    1SOL     OW11321   3.089   1.904   4.497  0.3520  0.2076  0.1717
    1SOL    HW211322   3.042   1.901   4.413 -0.2101 -0.6797  0.5181
    1SOL    HW311323   3.160   1.967   4.481  0.3071 -0.0169 -1.0000
    1SOL    MW411324   3.092   1.912   4.484  0.2718  0.0608  0.0629
    1SOL     OW11325   2.948   3.680   4.415  0.4954  0.2660 -0.1412
    1SOL    HW211326   2.969   3.587   4.417 -2.1034 -0.3708 -0.3035
    1SOL    HW311327   2.957   3.705   4.323 -3.6254 -1.0794 -1.0069
    1SOL    MW411328   2.952   3.671   4.403 -0.3910  0.0043 -0.2766
    1SOL     OW11329   2.877   2.097   4.591 -0.1294  0.4377 -0.4758
    1SOL    HW211330   2.900   2.170   4.533  0.7747  0.8800  0.4195
    1SOL    HW311331   2.939   2.028   4.569 -0.3906  0.2693 -0.6847
    1SOL    MW411332   2.888   2.098   4.581 -0.0448  0.4737 -0.3853
    1SOL     OW11333   2.353   2.960   4.492  0.1711  0.4987 -0.2129
    1SOL    HW211334   2.415   3.033   4.497  0.5804  0.1627 -0.3797
    1SOL    HW311335   2.325   2.959   4.401 -0.1762  0.7319 -0.1078
    1SOL    MW411336   2.358   2.970   4.481  0.1793  0.4849 -0.2213
    1SOL     OW11337   2.653   1.544   4.207 -0.1143 -0.3877  0.4063
    1SOL    HW211338   2.737   1.507   4.178 -0.8604 -0.7219 -1.3649
    1SOL    HW311339   2.637   1.502   4.292  1.4909 -0.3392  0.7574
    1SOL    MW411340   2.662   1.534   4.214 -0.0012 -0.4253  0.2189
    1SOL     OW11341   0.284   3.929   4.642 -0.2029 -0.1825 -0.2864
    1SOL    HW211342   0.341   3.913   4.718  0.3536 -0.2846 -0.7256
    1SOL    HW311343   0.268   3.842   4.605 -1.1751 -0.2225  0.2161
    1SOL    MW411344   0.290   3.915   4.647 -0.2577 -0.2015 -0.2780
    1SOL     OW11345   2.643   1.146   4.105 -0.1775  0.3274  0.0828
    1SOL    HW211346   2.724   1.183   4.141 -0.2020 -0.4772  0.9738
    1SOL    HW311347   2.656   1.148   4.010  1.2203 -0.5249  0.2427
    1SOL    MW411348   2.656   1.151   4.097  0.0036  0.1086  0.2213
    1SOL     OW11349   0.826   1.488   4.373  0.2972  0.1013  0.2183
    1SOL    HW211350   0.780   1.518   4.295 -0.0549  0.3690  0.5253
    1SOL    HW311351   0.870   1.566   4.407  0.0466  0.0982  0.5601
    1SOL    MW411352   0.826   1.502   4.367  0.2177  0.1361  0.3033
    1SOL     OW11353   2.862   2.072   3.730  0.5217 -0.0942  0.2177
    1SOL    HW211354   2.841   2.166   3.734  0.6323 -0.0956  0.7735
    1SOL    HW311355   2.803   2.032   3.794  0.7221 -0.3653  0.2294
    1SOL    MW411356   2.851   2.079   3.739  0.5629 -0.1302  0.2928
    1SOL     OW11357   2.589   2.635   4.743  0.6569 -0.5473 -0.5747
    1SOL    HW211358   2.521   2.646   4.677 -0.3080  1.1774  0.6555
    1SOL    HW311359   2.571   2.549   4.782 -0.9071 -0.0584 -0.1887
    1SOL    MW411360   2.577   2.625   4.740  0.3235 -0.2553 -0.3619
    1SOL     OW11361   2.256   3.803   4.672 -0.1197 -0.1261  0.3130
    1SOL    HW211362   2.235   3.710   4.667 -1.1894  0.1894 -1.2537
    1SOL    HW311363   2.173   3.848   4.657  0.0553  1.0996  2.7038
    1SOL    MW411364   2.242   3.797   4.670 -0.2379  0.0772  0.4220
    1SOL     OW11365   1.330   1.985   4.152  0.6276 -0.1065 -0.3929
    1SOL    HW211366   1.251   2.022   4.191  1.1157  0.2927  0.2093
    1SOL    HW311367   1.333   1.895   4.184  1.4550  0.4531  1.1376
    1SOL    MW411368   1.320   1.978   4.161  0.8013  0.0199 -0.1116
    1SOL     OW11369   2.214   4.075   4.468 -0.1942 -0.3588 -0.1585
    1SOL    HW211370   2.135   4.037   4.506 -0.0067 -0.3187  0.2768
    1SOL    HW311371   2.272   4.091   4.543  0.7045 -1.5116 -0.5798
    1SOL    MW411372   2.211   4.072   4.483 -0.0508 -0.5059 -0.1564
    1SOL     OW11373   1.119   3.080   4.387 -0.3295  0.0986 -0.2574
    1SOL    HW211374   1.104   3.002   4.333 -0.1470  0.6332 -1.0831
    1SOL    HW311375   1.160   3.046   4.466  0.8582 -0.5196 -1.1245
    1SOL    MW411376   1.122   3.065   4.390 -0.1488  0.0877 -0.4811
    1SOL     OW11377   2.002   2.836   4.222 -0.0291 -0.3812 -0.8140
    1SOL    HW211378   2.096   2.849   4.227 -0.3179  1.5944  0.0309
    1SOL    HW311379   1.978   2.801   4.308 -0.2360  0.4387 -0.5288
    1SOL    MW411380   2.011   2.833   4.234 -0.0947 -0.0124 -0.6647
    1SOL     OW11381   2.521   2.032   4.294 -0.5898  0.4894  0.2296
    1SOL    HW211382   2.530   2.041   4.389 -1.0603 -0.3620  0.3618
    1SOL    HW311383   2.434   1.995   4.282  0.1784 -1.1409 -0.4283
    1SOL    MW411384   2.511   2.028   4.305 -0.5505  0.1621  0.1602
    1SOL     OW11385   2.595   4.103   4.622  0.1932  0.1483 -0.1041
    1SOL    HW211386   2.559   4.045   4.555 -0.6275  0.2489  0.2329
    1SOL    HW311387   2.571   4.191   4.592  0.6632  0.2523 -0.1691
    1SOL    MW411388   2.587   4.107   4.609  0.1469  0.1755 -0.0677
    1SOL     OW11389   2.860   4.098   4.545  0.1717 -0.2557 -0.2965
    1SOL    HW211390   2.840   4.080   4.453  0.7596  0.0934 -0.5000
    1SOL    HW311391   2.777   4.088   4.591 -0.3713  0.7033 -1.0494
    1SOL    MW411392   2.847   4.095   4.539  0.1776 -0.0834 -0.4225
    1SOL     OW11393   4.039   2.663   4.596 -0.7151 -0.5781 -0.0355
    1SOL    HW211394   3.982   2.614   4.537 -1.1852  1.0990 -0.9835
    1SOL    HW311395   4.063   2.599   4.663 -2.4022 -1.7462 -0.4999
    1SOL    MW411396   4.035   2.648   4.597 -0.9995 -0.5109 -0.2222
    1SOL     OW11397   0.625   2.075   4.253  0.5390 -0.0129  0.2924
    1SOL    HW211398   0.620   2.148   4.191 -1.3141  0.3599  0.8684
    1SOL    HW311399   0.602   2.114   4.338  0.1910 -1.1448  0.7181
    1SOL    MW411400   0.622   2.090   4.256  0.2486 -0.1132  0.4244
    1SOL     OW11401   0.191   1.430   4.487  0.3997  0.3099 -0.2234
    1SOL    HW211402   0.228   1.358   4.539 -0.4728  1.3700  1.9531
    1SOL    HW311403   0.164   1.389   4.405  1.2603 -1.5581  0.3862
    1SOL    MW411404   0.193   1.415   4.483  0.3981  0.2033  0.1440
    1SOL     OW11405   2.925   2.289   4.027  0.0539  0.3563 -0.8365
    1SOL    HW211406   2.856   2.243   4.075  2.4651 -1.7052  0.7927
    1SOL    HW311407   2.922   2.379   4.061 -1.0058 -0.0325  0.1280
    1SOL    MW411408   2.916   2.295   4.038  0.2322  0.0329 -0.4940
    1SOL     OW11409   1.064   1.105   4.644 -0.0788 -0.3158 -0.0664
    1SOL    HW211410   1.069   1.158   4.724  0.0419  0.1827 -0.4042
    1SOL    HW311411   1.042   1.167   4.575  0.6042 -0.6204 -0.5612
    1SOL    MW411412   1.061   1.120   4.645  0.0272 -0.2902 -0.1764
    1SOL     OW11413   1.538   1.585   4.137 -0.5680  0.0536  0.5895
    1SOL    HW211414   1.620   1.633   4.153  0.0845 -0.7763 -0.1757
    1SOL    HW311415   1.555   1.498   4.174 -0.4073 -0.7105 -1.2243
    1SOL    MW411416   1.551   1.579   4.144 -0.4606 -0.1568  0.2489
    1SOL     OW11417   1.097   1.630   4.134 -0.0899  0.1477  0.0368
    1SOL    HW211418   1.026   1.688   4.159  0.4626  0.6194  0.5364
    1SOL    HW311419   1.105   1.569   4.207 -0.3845 -0.2881 -0.2936
    1SOL    MW411420   1.089   1.629   4.147 -0.0558  0.1525  0.0587
    1SOL     OW11421   2.326   2.654   4.158  0.0436 -0.0967 -0.3678
    1SOL    HW211422   2.267   2.582   4.179 -0.3750  0.5317  0.6880
    1SOL    HW311423   2.410   2.627   4.195  0.0971 -0.4125 -0.7172
    1SOL    MW411424   2.329   2.641   4.166 -0.0048 -0.0553 -0.2742
    1SOL     OW11425   1.502   3.265   4.552 -0.4808  0.4880  0.5211
    1SOL    HW211426   1.547   3.245   4.471 -0.6873  0.2064  0.4772
    1SOL    HW311427   1.537   3.204   4.616 -0.7656  0.2977  0.4978
    1SOL    MW411428   1.512   3.255   4.550 -0.5457  0.4256  0.5116
    1SOL     OW11429   0.752   0.463   4.520 -0.1370  0.5423 -0.0298
    1SOL    HW211430   0.729   0.498   4.433 -2.3163  0.3591  0.4475
    1SOL    HW311431   0.783   0.540   4.568 -0.8764  1.0478 -0.3371
    1SOL    MW411432   0.753   0.478   4.515 -0.5221  0.5848 -0.0076
    1SOL     OW11433   2.002   3.973   4.606 -0.3041  0.0692  0.1009
    1SOL    HW211434   1.969   3.896   4.561 -0.2358 -0.5287  1.0583
    1SOL    HW311435   1.931   4.037   4.601 -0.4452 -0.1376 -0.4931
    1SOL    MW411436   1.988   3.971   4.600 -0.3138 -0.0372  0.1488
    1SOL     OW11437   4.007   2.444   4.184  0.0027  0.1993 -0.1180
    1SOL    HW211438   3.985   2.446   4.277  1.6708 -1.1211  0.3443
    1SOL    HW311439   3.956   2.372   4.148 -0.4839  0.5773 -0.1889
    1SOL    MW411440   3.998   2.435   4.192  0.1588  0.0749 -0.0663
    1SOL     OW11441   3.323   2.703   4.247  0.2355  0.0157 -0.1328
    1SOL    HW211442   3.272   2.622   4.254  1.0870 -0.3740  2.2021
    1SOL    HW311443   3.259   2.771   4.231 -0.7350 -0.8179  0.1652
    1SOL    MW411444   3.308   2.701   4.246  0.2198 -0.1454  0.2141
    1SOL     OW11445   3.755   1.564   4.147  0.0396  0.3423  0.2618
    1SOL    HW211446   3.754   1.469   4.140  0.7144  0.4081 -0.7912
    1SOL    HW311447   3.833   1.583   4.199 -0.4692  0.2935  1.0572
    1SOL    MW411448   3.765   1.554   4.153  0.0615  0.3445  0.2284
    1SOL     OW11449   4.487   3.986   4.586  0.1551 -0.2650  0.2627
    1SOL    HW211450   4.459   3.907   4.633  0.9145 -0.4197  0.4486
    1SOL    HW311451   4.582   3.980   4.584  0.2795  1.2549  1.3193
    1SOL    MW411452   4.496   3.975   4.592  0.2723 -0.0851  0.4268
    1SOL     OW11453   1.588   1.020   4.625 -0.0031 -0.1481  0.0547
    1SOL    HW211454   1.630   0.954   4.680  1.0646  1.9910  1.8888
    1SOL    HW311455   1.498   0.988   4.614  0.2114 -1.4129  1.6974
    1SOL    MW411456   1.581   1.007   4.631  0.1661 -0.0327  0.5131
    1SOL     OW11457   2.208   1.160   4.297 -0.2401 -0.9010  0.1372
    1SOL    HW211458   2.256   1.183   4.217 -0.2106 -2.1893 -0.2276
    1SOL    HW311459   2.198   1.065   4.292 -0.9392 -0.8917  1.2803
    1SOL    MW411460   2.213   1.150   4.285 -0.3283 -1.0698  0.2403
    1SOL     OW11461   2.136   4.348   4.482  0.1601  0.3372 -0.1680
    1SOL    HW211462   2.165   4.257   4.480  0.1554  0.3252  0.3430
    1SOL    HW311463   2.208   4.396   4.523  0.0619  0.5247 -0.2122
    1SOL    MW411464   2.149   4.342   4.487  0.1464  0.3605 -0.1063
    1SOL     OW11465   4.244   1.555   4.128  0.0117 -0.0670 -0.1080
    1SOL    HW211466   4.242   1.568   4.033  1.1226 -1.1438 -0.2871
    1SOL    HW311467   4.234   1.460   4.139  1.8224 -0.1820  0.7464
    1SOL    MW411468   4.243   1.544   4.117  0.3977 -0.2242 -0.0196
    1SOL     OW11469   2.419   0.772   4.178  0.0473  0.3171  0.7761
    1SOL    HW211470   2.426   0.790   4.084 -2.9107  2.4817  0.8982
    1SOL    HW311471   2.494   0.818   4.216 -0.2985  1.8054 -0.2659
    1SOL    MW411472   2.430   0.780   4.170 -0.3886  0.7991  0.6552
    1SOL     OW11473   1.187   3.588   4.281 -0.4901  0.7200  0.3022
    1SOL    HW211474   1.255   3.538   4.236  0.1154  0.5998  1.3388
    1SOL    HW311475   1.107   3.538   4.266 -0.0913  0.0588  0.3391
    1SOL    MW411476   1.186   3.575   4.273 -0.3575  0.6168  0.4439
    1SOL     OW11477   1.898   0.083   4.526 -0.5793 -0.2627 -0.2977
    1SOL    HW211478   1.899   0.029   4.605 -0.8171 -0.0297 -0.1378
    1SOL    HW311479   1.975   0.139   4.535 -0.7269 -0.0878 -0.1321
    1SOL    MW411480   1.909   0.083   4.538 -0.6300 -0.2089 -0.2546
    1SOL     OW11481   2.895   0.535   4.548  0.2260 -0.1901  0.3699
    1SOL    HW211482   2.911   0.535   4.454  1.4632 -0.3342  0.5611
    1SOL    HW311483   2.959   0.472   4.582  0.0393  0.1417  1.3422
    1SOL    MW411484   2.906   0.526   4.540  0.3643 -0.1653  0.5236
    1SOL     OW11485   1.310   0.929   4.554 -0.6093  0.4103  0.1255
    1SOL    HW211486   1.240   0.983   4.591 -0.1264  1.4709 -0.4751
    1SOL    HW311487   1.309   0.950   4.461  0.7484  0.7155  0.1718
    1SOL    MW411488   1.301   0.939   4.547 -0.3664  0.5904  0.0525
    1SOL     OW11489   0.209   2.831   4.238  0.2986 -0.0855  0.0762
    1SOL    HW211490   0.192   2.832   4.332  0.0083  0.7186  0.0126
    1SOL    HW311491   0.136   2.780   4.202 -0.1854  0.5424  0.1652
    1SOL    MW411492   0.197   2.824   4.246  0.1965  0.1032  0.0792
    1SOL     OW11493   3.070   3.424   4.442 -0.3557 -0.0814  0.1698
    1SOL    HW211494   3.114   3.395   4.362  2.4912 -2.0188  2.3036
    1SOL    HW311495   2.993   3.368   4.449  0.8132 -1.7498  0.0877
    1SOL    MW411496   3.066   3.412   4.432  0.1740 -0.5572  0.4411
    1SOL     OW11497   1.693   3.041   4.596 -0.5384 -0.1636  0.1911
    1SOL    HW211498   1.625   2.985   4.558 -0.0978 -0.1739 -0.5804
    1SOL    HW311499   1.744   2.982   4.651  0.5373 -0.7510 -1.4012
    1SOL    MW411500   1.691   3.026   4.598 -0.3383 -0.2425 -0.1211
    1SOL     OW11501   3.843   4.344   4.548  0.5393 -0.4402 -0.0721
    1SOL    HW211502   3.906   4.416   4.556  0.1377 -0.2611  1.6770
    1SOL    HW311503   3.777   4.362   4.615 -0.1051 -1.8966 -0.2900
    1SOL    MW411504   3.842   4.356   4.558  0.4013 -0.6080  0.1297
    1SOL     OW11505   0.820   2.424   4.257  0.0888  0.3667  0.3774
    1SOL    HW211506   0.764   2.378   4.195  0.4422 -1.0917  1.1003
    1SOL    HW311507   0.792   2.515   4.253 -1.7194 -0.1925  0.0914
    1SOL    MW411508   0.809   2.430   4.248 -0.1031  0.1006  0.4349
    1SOL     OW11509   2.857   2.345   3.767  0.1865 -0.4257 -0.1948
    1SOL    HW211510   2.769   2.382   3.758  0.9620  1.0811 -1.8918
    1SOL    HW311511   2.864   2.321   3.860 -2.3629 -1.5294 -0.2506
    1SOL    MW411512   2.846   2.346   3.778 -0.0474 -0.3726 -0.4261
    1SOL     OW11513   1.534   0.429   4.484 -0.0330  0.2355  0.1334
    1SOL    HW211514   1.612   0.483   4.501  0.3592 -0.0281 -0.7770
    1SOL    HW311515   1.557   0.343   4.518 -0.2760  0.3908  0.6888
    1SOL    MW411516   1.548   0.425   4.491 -0.0134  0.2212  0.0868
    1SOL     OW11517   1.966   3.142   4.189 -0.0087 -0.1670 -0.3143
    1SOL    HW211518   1.955   3.052   4.220  3.2538 -0.4962 -0.0080
    1SOL    HW311519   1.970   3.134   4.093  0.2706 -0.3444 -0.2880
    1SOL    MW411520   1.965   3.129   4.180  0.4586 -0.2339 -0.2704
    1SOL     OW11521   4.047   3.215   4.220  0.2577 -0.4050  0.1079
    1SOL    HW211522   4.124   3.168   4.190  0.3184  0.1093 -0.5645
    1SOL    HW311523   3.975   3.153   4.207  0.4405 -0.5881 -0.0421
    1SOL    MW411524   4.048   3.201   4.214  0.2899 -0.3612 -0.0010
    1SOL     OW11525   2.007   1.576   4.126  0.2482  0.1706  0.0771
    1SOL    HW211526   2.009   1.490   4.168  1.0722 -0.2543 -0.8232
    1SOL    HW311527   2.079   1.624   4.166  2.0397 -0.7703 -1.9599
    1SOL    MW411528   2.016   1.571   4.137  0.5932 -0.0097 -0.3104
    1SOL     OW11529   3.116   2.401   4.649 -0.1774  0.0699  0.1736
    1SOL    HW211530   3.063   2.444   4.716 -1.2329 -0.5902 -0.2275
    1SOL    HW311531   3.054   2.378   4.580  0.6642 -0.5153 -0.3986
    1SOL    MW411532   3.101   2.404   4.649 -0.2058 -0.0942  0.0448
    1SOL     OW11533   3.995   2.722   4.173  0.1971 -0.0284  0.0169
    1SOL    HW211534   3.913   2.764   4.197 -0.1276 -0.3960 -0.4263
    1SOL    HW311535   3.976   2.628   4.178  0.4702 -0.1130 -0.4896
    1SOL    MW411536   3.982   2.715   4.177  0.1903 -0.0882 -0.1087
    1SOL     OW11537   1.521   2.339   4.131  0.1966 -0.1708 -0.1321
    1SOL    HW211538   1.528   2.317   4.038 -0.0451  0.3410 -0.2676
    1SOL    HW311539   1.541   2.256   4.176  0.2791 -0.4280 -0.6355
    1SOL    MW411540   1.525   2.325   4.125  0.1755 -0.1371 -0.2155
    1SOL     OW11541   3.328   1.380   4.249  0.0849  0.1701 -0.3919
    1SOL    HW211542   3.347   1.391   4.342  0.3131  0.7617 -0.5103
    1SOL    HW311543   3.303   1.467   4.219 -0.8646 -0.2011 -0.6848
    1SOL    MW411544   3.327   1.393   4.258 -0.0103  0.1992 -0.4458
    1SOL     OW11545   2.133   3.549   4.666 -0.3016 -0.0218  0.3243
    1SOL    HW211546   2.079   3.550   4.745  0.8316  0.8908  1.1038
    1SOL    HW311547   2.081   3.596   4.601 -1.4452 -1.1878  0.3770
    1SOL    MW411548   2.119   3.556   4.668 -0.3030 -0.0551  0.4339
    1SOL     OW11549   0.855   2.831   4.083 -0.1775 -0.2146  0.0638
    1SOL    HW211550   0.935   2.834   4.137  0.2342 -1.5323 -0.4579
    1SOL    HW311551   0.801   2.902   4.118  2.2612  2.4212 -1.2409
    1SOL    MW411552   0.858   2.841   4.095  0.1985 -0.0408 -0.1774
    1SOL     OW11553   1.779   1.699   4.210  0.2226 -0.6942 -0.0801
    1SOL    HW211554   1.801   1.786   4.176 -0.0065 -0.2274  0.9416
    1SOL    HW311555   1.857   1.646   4.191  0.5753 -0.1284 -0.2352
    1SOL    MW411556   1.792   1.704   4.203  0.2389 -0.5580  0.0348
    1NA      NA11557   2.814   0.599   0.690 -0.0537  0.3137  0.2511
    1NA      NA11558   3.888   2.066   0.457 -0.3995  0.4841  0.3930
   4.49070   4.66690  10.00000
