Gromacs Runs On Most of All Computer Systems in water
11585
    1C      O5'    1   2.451   1.999   4.675 -0.3474  0.1788  0.6950
    1C      H5T    2   2.481   2.086   4.702  0.9249 -0.2440  0.6929
    1C      C5'    3   2.351   1.953   4.766  0.0763  0.6497  0.5192
    1C     H5'1    4   2.392   1.943   4.866 -0.5862 -0.4477  0.6932
    1C     H5'2    5   2.317   1.854   4.734  1.3130  0.0066  1.1783
    1C      C4'    6   2.227   2.041   4.773  0.0917 -0.3708 -0.0687
    1C      H4'    7   2.148   1.992   4.829  0.3919 -0.0518  0.6427
    1C      O4'    8   2.254   2.165   4.839  0.0876 -0.1813 -0.7877
    1C      C1'    9   2.197   2.264   4.764 -0.0993 -0.1902  0.5793
    1C      H1'   10   2.091   2.274   4.790 -0.0903 -1.8748  1.3991
    1C       N1   11   2.261   2.393   4.791 -0.4626 -0.2314 -0.3545
    1C       C6   12   2.390   2.400   4.837 -0.2152 -0.2382  0.1863
    1C       H6   13   2.452   2.312   4.841 -0.1255 -0.2421 -1.0662
    1C       C5   14   2.446   2.522   4.847 -0.6225 -0.2523  0.3934
    1C       H5   15   2.551   2.527   4.872 -0.9804 -0.7519  2.0767
    1C       C4   16   2.360   2.637   4.824 -0.1597  0.1121 -0.0441
    1C       N4   17   2.408   2.758   4.840  0.2960  0.2866  0.1027
    1C      H41   18   2.507   2.768   4.860  0.5138 -1.4855 -0.0453
    1C      H42   19   2.355   2.839   4.811  0.4098  0.1794 -0.4199
    1C       N3   20   2.238   2.629   4.778 -0.3391 -0.1302 -0.0135
    1C       C2   21   2.185   2.509   4.764  0.2011  0.4421 -0.5742
    1C       O2   22   2.071   2.509   4.723 -0.2049 -0.1258  0.4072
    1C      C3'   23   2.170   2.067   4.630  0.0607  0.3754  0.5476
    1C      H3'   24   2.228   2.016   4.553 -1.8820 -1.4127  0.2489
    1C      C2'   25   2.212   2.217   4.621 -0.2141  0.5688 -0.2216
    1C     H2'1   26   2.321   2.217   4.607 -0.1957  1.4998 -0.1203
    1C      O2'   27   2.143   2.298   4.532 -0.0717 -0.2639  0.0257
    1C     HO'2   28   2.101   2.239   4.469 -2.6879  0.9578  0.5319
    1C      O3'   29   2.025   2.048   4.628 -0.0601 -0.4558 -0.4319
    2G        P   30   1.954   2.034   4.483 -0.5902  0.1818 -0.0067
    2G      O1P   31   1.964   1.893   4.450  0.4049  0.5031 -0.0310
    2G      O2P   32   2.007   2.126   4.378  0.1233 -0.2783 -0.3285
    2G      O5'   33   1.805   2.073   4.513 -1.0464  0.0515 -0.1563
    2G      C5'   34   1.772   2.211   4.524 -0.1618 -0.9417  0.3846
    2G     H5'1   35   1.802   2.257   4.429  0.5053  0.1928  1.1266
    2G     H5'2   36   1.835   2.253   4.602  1.2642 -0.5905 -0.9194
    2G      C4'   37   1.628   2.248   4.559  0.2395 -0.1254 -0.4736
    2G      H4'   38   1.620   2.355   4.574 -0.3244 -0.1503 -0.5852
    2G      O4'   39   1.531   2.214   4.461  0.1358  0.0459 -0.1495
    2G      C1'   40   1.409   2.196   4.527 -0.0731  0.4757  0.5759
    2G      H1'   41   1.333   2.261   4.482  0.6608 -0.6421 -2.4273
    2G       N9   42   1.371   2.056   4.502 -0.0738 -0.1438 -0.5138
    2G       C8   43   1.448   1.940   4.484  0.3867 -0.0610 -0.4354
    2G       H8   44   1.555   1.941   4.467  0.2515 -1.3651 -1.5236
    2G       N7   45   1.372   1.830   4.495 -0.0189  0.3904 -0.4271
    2G       C5   46   1.241   1.877   4.509  0.0341 -0.5088  0.7027
    2G       C6   47   1.111   1.816   4.511 -0.4701 -0.3049  0.5487
    2G       O6   48   1.086   1.696   4.496  0.6054  0.1158  0.3263
    2G       N1   49   1.007   1.903   4.520 -0.7834  0.4440 -0.6086
    2G       H1   50   0.916   1.860   4.518 -1.8097  2.5049 -0.2706
    2G       C2   51   1.021   2.033   4.532 -0.5804 -0.2702  0.3759
    2G       N2   52   0.920   2.107   4.511 -0.2469 -0.1468 -0.0911
    2G      H21   53   0.830   2.062   4.501 -0.3449 -0.1424  0.6827
    2G      H22   54   0.937   2.205   4.497 -1.4732  0.0892 -0.0393
    2G       N3   55   1.135   2.097   4.517  0.0814 -0.1472 -0.0807
    2G       C4   56   1.243   2.015   4.516 -0.0228  0.0017 -0.3338
    2G      C3'   57   1.582   2.180   4.689 -0.4399  0.0528 -0.2234
    2G      H3'   58   1.601   2.073   4.684  3.6887  0.6856 -0.2223
    2G      C2'   59   1.435   2.218   4.675 -0.2047  0.9492  0.4672
    2G     H2'1   60   1.370   2.152   4.732 -0.1709  1.1064  0.6880
    2G      O2'   61   1.406   2.348   4.719 -0.1811 -0.6802  0.4648
    2G     HO'2   62   1.437   2.363   4.808  0.2242  0.3701  0.1584
    2G      O3'   63   1.636   2.245   4.809  0.5962 -0.1352  0.1718
    2G      H3T   64   1.647   2.339   4.794 -1.6078  0.2930  0.9667
    5SOL     OW   65   4.070   0.927   0.387  0.2382  0.3120 -0.1833
    5SOL    HW2   66   4.112   1.000   0.433  0.0578  0.8704 -0.9149
    5SOL    HW3   67   3.986   0.916   0.431 -1.0313  2.4845 -1.9833
    5SOL    MW4   68   4.064   0.935   0.399  0.0467  0.6723 -0.5173
    6SOL     OW   69   2.700   1.181   1.159 -0.0431  0.2838  0.7211
    6SOL    HW2   70   2.777   1.222   1.199  1.9713 -1.3207 -1.3718
    6SOL    HW3   71   2.698   1.214   1.070  0.2473 -2.2517 -0.2830
    6SOL    MW4   72   2.710   1.191   1.152  0.2613 -0.2624  0.3127
    7SOL     OW   73   4.347   2.999   0.616  0.8529  0.1640 -0.3635
    7SOL    HW2   74   4.390   3.031   0.537 -1.6433  0.4713 -1.6237
    7SOL    HW3   75   4.281   2.938   0.584  0.7238 -0.7443  1.5852
    7SOL    MW4   76   4.344   2.995   0.601  0.5059  0.0846 -0.2726
    8SOL     OW   77   2.413   2.194   0.710 -0.6401  0.0038  0.1839
    8SOL    HW2   78   2.460   2.169   0.631 -0.0824  1.1588  0.1364
    8SOL    HW3   79   2.344   2.253   0.678 -1.3535 -0.6988  0.3962
    8SOL    MW4   80   2.410   2.199   0.696 -0.6604  0.0637  0.2056
    9SOL     OW   81   3.345   3.603   0.325  0.7634 -0.0613  0.3491
    9SOL    HW2   82   3.287   3.615   0.249 -1.6126  0.7754  2.2352
    9SOL    HW3   83   3.339   3.510   0.345 -0.3909  0.1075  0.8564
    9SOL    MW4   84   3.336   3.593   0.317  0.2975  0.0713  0.6649
   10SOL     OW   85   2.218   4.246   0.821 -0.5142 -0.7632  0.0560
   10SOL    HW2   86   2.297   4.271   0.870 -0.0412 -0.9598 -0.5858
   10SOL    HW3   87   2.169   4.190   0.880  0.3008 -1.4170  0.1289
   10SOL    MW4   88   2.222   4.242   0.835 -0.3440 -0.8750 -0.0190
   11SOL     OW   89   0.922   2.839   0.508  0.0050  0.4672  0.2344
   11SOL    HW2   90   0.882   2.852   0.594  0.7133  0.5973  0.5429
   11SOL    HW3   91   0.927   2.743   0.498  0.5672  0.4551  0.6372
   11SOL    MW4   92   0.917   2.828   0.518  0.1726  0.4826  0.3282
   12SOL     OW   93   3.705   3.486   0.542  0.0812  0.1322 -0.6541
   12SOL    HW2   94   3.721   3.442   0.625 -2.3482  0.0413 -0.1837
   12SOL    HW3   95   3.676   3.417   0.482 -2.2955  0.7741 -0.3296
   12SOL    MW4   96   3.703   3.471   0.545 -0.5529  0.2050 -0.5493
   13SOL     OW   97   0.920   3.576   0.566  0.1608 -0.2047  0.5411
   13SOL    HW2   98   0.834   3.553   0.530 -0.1237  1.5371  0.0658
   13SOL    HW3   99   0.919   3.541   0.655 -1.2128  0.1965  0.6958
   13SOL    MW4  100   0.908   3.568   0.573 -0.0579  0.0780  0.4988
   14SOL     OW  101   1.344   4.099   0.746  0.3810 -0.2528 -0.0990
   14SOL    HW2  102   1.369   4.190   0.763  0.8479 -0.3875 -0.0576
   14SOL    HW3  103   1.386   4.078   0.662  0.6877 -0.5880  0.1381
   14SOL    MW4  104   1.352   4.108   0.737  0.4830 -0.3147 -0.0622
   15SOL     OW  105   2.130   3.438   0.502 -0.9629  0.5091 -0.0310
   15SOL    HW2  106   2.099   3.365   0.449 -1.1041  0.8864 -0.4706
   15SOL    HW3  107   2.226   3.429   0.501 -1.0493 -1.1115  1.9794
   15SOL    MW4  108   2.139   3.427   0.495 -0.9930  0.3450  0.1763
   16SOL     OW  109   0.442   4.042   0.896 -0.2090  0.0276  0.0794
   16SOL    HW2  110   0.531   4.055   0.863 -0.1935 -1.8358 -0.6547
   16SOL    HW3  111   0.454   4.015   0.987  0.0633 -1.3717 -0.3496
   16SOL    MW4  112   0.455   4.040   0.904 -0.1710 -0.4025 -0.0741
   17SOL     OW  113   2.963   4.293   0.575 -0.2737  0.3895  0.3103
   17SOL    HW2  114   2.960   4.248   0.490 -0.6050  1.3925 -0.2210
   17SOL    HW3  115   3.031   4.360   0.564 -0.2199  0.4333  0.8890
   17SOL    MW4  116   2.972   4.296   0.562 -0.3104  0.5274  0.3166
   18SOL     OW  117   2.413   3.472   0.536 -0.3388  0.4534  0.1315
   18SOL    HW2  118   2.489   3.431   0.495 -0.9422 -1.7553  1.1808
   18SOL    HW3  119   2.424   3.566   0.517  1.6689 -0.0326 -1.2892
   18SOL    MW4  120   2.425   3.479   0.528 -0.1535  0.0978  0.0824
   19SOL     OW  121   3.426   1.324   0.380 -0.1367 -0.2853 -0.5504
   19SOL    HW2  122   3.433   1.375   0.461 -1.2002  0.6171 -1.0164
   19SOL    HW3  123   3.439   1.388   0.310  1.5245 -1.1919 -1.0982
   19SOL    MW4  124   3.429   1.339   0.382 -0.0577 -0.2857 -0.6842
   20SOL     OW  125   1.289   0.835   0.578  0.0721  0.2753  0.0637
   20SOL    HW2  126   1.234   0.775   0.528 -0.0597 -0.6983  1.3755
   20SOL    HW3  127   1.378   0.805   0.561  0.0312 -0.0167  0.3721
   20SOL    MW4  128   1.293   0.823   0.569  0.0494  0.1084  0.2775
   21SOL     OW  129   4.170   1.146   0.537  0.1461  0.1440 -0.3050
   21SOL    HW2  130   4.221   1.155   0.617  0.9054  0.1259 -0.7723
   21SOL    HW3  131   4.110   1.220   0.537  0.0882  0.0993  0.3128
   21SOL    MW4  132   4.169   1.157   0.547  0.2384  0.1357 -0.2851
   22SOL     OW  133   1.375   2.218   0.298 -0.1980 -0.2537  0.0627
   22SOL    HW2  134   1.369   2.122   0.294 -1.9487 -0.2359  1.6078
   22SOL    HW3  135   1.297   2.245   0.346  0.7387  1.9038  0.4431
   22SOL    MW4  136   1.364   2.209   0.304 -0.3053  0.0336  0.3167
   23SOL     OW  137   3.750   1.585   0.618  0.3898  0.1526 -0.7259
   23SOL    HW2  138   3.739   1.673   0.582  0.9081  0.1421 -0.9084
   23SOL    HW3  139   3.791   1.599   0.703  0.6627  0.0759 -0.8446
   23SOL    MW4  140   3.754   1.599   0.624  0.4945  0.1410 -0.7657
   24SOL     OW  141   1.142   2.268   0.431  0.0533  0.4982  0.2163
   24SOL    HW2  142   1.063   2.290   0.382 -0.6980 -2.3358  0.1035
   24SOL    HW3  143   1.133   2.175   0.451  1.7280  0.9208  3.2259
   24SOL    MW4  144   1.130   2.259   0.428  0.1752  0.1800  0.5986
   25SOL     OW  145   2.758   2.432   0.804  0.7689 -0.2332  0.1666
   25SOL    HW2  146   2.732   2.522   0.823 -1.5760 -0.6640 -0.8574
   25SOL    HW3  147   2.687   2.378   0.841  0.6703 -1.5009 -1.8127
   25SOL    MW4  148   2.745   2.436   0.812  0.4468 -0.4570 -0.2297
   26SOL     OW  149   0.158   1.608   0.916  0.4124  0.0378 -0.5538
   26SOL    HW2  150   0.129   1.521   0.888 -0.6695  0.5198 -0.9619
   26SOL    HW3  151   0.166   1.602   1.011  1.5493 -0.8657 -0.7063
   26SOL    MW4  152   0.155   1.596   0.924  0.4196 -0.0179 -0.6278
   27SOL     OW  153   2.535   2.103   0.464 -0.7303  0.2010  0.1731
   27SOL    HW2  154   2.626   2.093   0.489 -0.7258 -0.0003  0.0759
   27SOL    HW3  155   2.503   2.014   0.454 -1.1906  0.2479  1.1341
   27SOL    MW4  156   2.542   2.090   0.466 -0.7906  0.1807  0.2871
   28SOL     OW  157   2.463   3.946   0.869  0.4704 -0.0571 -0.4327
   28SOL    HW2  158   2.471   4.017   0.806  0.1157 -0.2821 -0.7291
   28SOL    HW3  159   2.376   3.909   0.854  1.0004 -1.1444 -0.8932
   28SOL    MW4  160   2.452   3.951   0.859  0.4935 -0.2301 -0.5326
   29SOL     OW  161   2.683   0.334   0.869  0.6897  0.1749  0.1334
   29SOL    HW2  162   2.696   0.353   0.961  1.2693  1.2532 -0.1672
   29SOL    HW3  163   2.651   0.244   0.867 -0.5559  0.5682  1.4670
   29SOL    MW4  164   2.680   0.325   0.881  0.6018  0.3690  0.2696
   30SOL     OW  165   0.079   2.503   1.126  0.4378  0.4545  0.1197
   30SOL    HW2  166  -0.000   2.497   1.179 -0.9342  1.9286 -1.7311
   30SOL    HW3  167   0.113   2.590   1.144  0.3073  0.7276 -0.9619
   30SOL    MW4  168   0.073   2.513   1.136  0.2395  0.6847 -0.2671
   31SOL     OW  169   1.281   1.706   0.705 -0.2800  0.2533  0.0988
   31SOL    HW2  170   1.316   1.778   0.758 -0.8640 -0.9972  2.2021
   31SOL    HW3  171   1.359   1.657   0.677  0.0008  0.7089  0.0733
   31SOL    MW4  172   1.296   1.709   0.708 -0.3200  0.1484  0.3729
   32SOL     OW  173   3.487   0.684   0.524  0.1535 -0.7077  0.1559
   32SOL    HW2  174   3.450   0.615   0.579 -1.1030 -0.4509 -0.3625
   32SOL    HW3  175   3.489   0.646   0.436 -0.7778  0.0039 -0.1746
   32SOL    MW4  176   3.483   0.670   0.520 -0.1349 -0.5799  0.0439
   33SOL     OW  177   3.777   4.076   0.783  0.2480 -0.1132  0.0219
   33SOL    HW2  178   3.687   4.082   0.814  0.5327  3.5871  0.4123
   33SOL    HW3  179   3.774   4.106   0.692  1.3014  1.7632  0.5762
   33SOL    MW4  180   3.765   4.081   0.775  0.4246  0.6227  0.1466
   34SOL     OW  181   3.489   0.469   0.334  0.1114 -0.4767 -0.5741
   34SOL    HW2  182   3.573   0.448   0.374 -0.1660  0.0134  0.2843
   34SOL    HW3  183   3.504   0.461   0.240  1.6534  1.6029 -0.5292
   34SOL    MW4  184   3.502   0.465   0.327  0.2785 -0.1377 -0.4549
   35SOL     OW  185   2.190   2.961   0.824  0.2157  0.5570 -0.0803
   35SOL    HW2  186   2.263   3.004   0.869  0.4208  1.1302 -0.9662
   35SOL    HW3  187   2.113   3.012   0.849  0.5527  1.9084 -1.7123
   35SOL    MW4  188   2.190   2.973   0.833  0.2873  0.8111 -0.4125
   36SOL     OW  189   1.344   4.031   1.248 -0.1787 -0.2580 -0.0849
   36SOL    HW2  190   1.324   4.119   1.215 -0.4983 -0.8570 -1.5063
   36SOL    HW3  191   1.266   3.979   1.227  0.1449 -0.9721  0.4462
   36SOL    MW4  192   1.331   4.036   1.241 -0.1782 -0.4315 -0.2023
   37SOL     OW  193   2.459   0.982   0.730  0.3934  0.5457 -0.3659
   37SOL    HW2  194   2.531   1.017   0.678 -0.2600  1.1677 -0.8694
   37SOL    HW3  195   2.417   0.918   0.674  0.8693 -0.2017  0.1238
   37SOL    MW4  196   2.463   0.978   0.716  0.3700  0.5291 -0.3677
   38SOL     OW  197   2.432   1.846   0.424 -0.5052 -0.2234 -0.4768
   38SOL    HW2  198   2.348   1.843   0.469 -0.2884  1.3459  0.0606
   38SOL    HW3  199   2.468   1.757   0.434 -0.3591  0.1276  2.6464
   38SOL    MW4  200   2.426   1.834   0.431 -0.4573  0.0299  0.0061
   39SOL     OW  201   1.507   4.422   0.608 -0.3017 -0.3713 -0.0424
   39SOL    HW2  202   1.493   4.455   0.697 -0.4499 -1.0123  0.1708
   39SOL    HW3  203   1.420   4.423   0.568 -0.4304 -1.2439  0.2170
   39SOL    MW4  204   1.494   4.427   0.614 -0.3382 -0.5708  0.0200
   40SOL     OW  205   3.751   0.663   0.618  0.0158 -0.0815  0.4649
   40SOL    HW2  206   3.657   0.681   0.621  0.1889  0.8788  0.3769
   40SOL    HW3  207   3.783   0.688   0.705  0.5605  1.7915 -0.2566
   40SOL    MW4  208   3.743   0.669   0.630  0.1106  0.2924  0.3582
   41SOL     OW  209   1.652   4.632   0.520  0.2647  0.2536 -0.1630
   41SOL    HW2  210   1.687   4.649   0.608  0.6521  1.2891 -0.5139
   41SOL    HW3  211   1.588   4.562   0.533 -1.3445  1.9592  1.3106
   41SOL    MW4  212   1.648   4.625   0.533  0.1034  0.6151 -0.0149
   42SOL     OW  213   1.928   3.927   0.359  0.0433  0.1277  0.0116
   42SOL    HW2  214   1.941   3.840   0.395  3.0319  1.2829  1.9708
   42SOL    HW3  215   1.855   3.964   0.410  1.4297  0.1829  2.0291
   42SOL    MW4  216   1.920   3.921   0.371  0.6205  0.2875  0.5363
   43SOL     OW  217   0.483   2.232   0.411  0.2159  0.2024 -0.3312
   43SOL    HW2  218   0.517   2.191   0.490  1.3422 -1.9911 -1.9096
   43SOL    HW3  219   0.389   2.212   0.412 -0.1516  1.8542  1.3989
   43SOL    MW4  220   0.475   2.224   0.422  0.3160  0.1307 -0.3112
   44SOL     OW  221   1.642   2.272   0.904  0.2452  0.5367  0.0199
   44SOL    HW2  222   1.632   2.273   0.999  1.5239  1.2459  0.1536
   44SOL    HW3  223   1.563   2.314   0.871 -0.1144  0.4602  0.7690
   44SOL    MW4  224   1.630   2.277   0.912  0.3663  0.6204  0.1364
   45SOL     OW  225   1.776   1.249   0.426  0.1340  0.5422 -0.2102
   45SOL    HW2  226   1.812   1.335   0.403  1.6866 -0.4181 -1.4666
   45SOL    HW3  227   1.813   1.230   0.512  0.9993  0.4740 -0.5925
   45SOL    MW4  228   1.786   1.258   0.434  0.4530  0.4065 -0.4264
   46SOL     OW  229   2.573   3.077   0.648  0.0845  0.6149  1.1265
   46SOL    HW2  230   2.512   3.110   0.714 -1.6058 -1.5754  0.7159
   46SOL    HW3  231   2.638   3.028   0.698  0.2638  1.1209  1.3887
   46SOL    MW4  232   2.573   3.075   0.664 -0.1149  0.3927  1.1069
   47SOL     OW  233   3.629   1.185   0.732  0.1457  0.0662  0.1261
   47SOL    HW2  234   3.611   1.171   0.639  0.6943 -1.3696  0.2150
   47SOL    HW3  235   3.721   1.211   0.736  0.7807 -2.1247  0.4259
   47SOL    MW4  236   3.639   1.186   0.721  0.3018 -0.4122  0.1774
   48SOL     OW  237   2.623   3.305   0.433  0.3793 -0.3004  0.2102
   48SOL    HW2  238   2.616   3.243   0.505  0.0593  0.8462  1.1855
   48SOL    HW3  239   2.658   3.254   0.360  3.1043 -0.9159  1.8763
   48SOL    MW4  240   2.627   3.290   0.433  0.6969 -0.2306  0.5587
   49SOL     OW  241   0.394   1.123   1.229 -0.1941  0.2928  0.7494
   49SOL    HW2  242   0.394   1.038   1.273  0.6835 -0.7287 -1.1734
   49SOL    HW3  243   0.477   1.163   1.255 -1.5020  1.4679  3.2834
   49SOL    MW4  244   0.405   1.117   1.238 -0.2509  0.3132  0.8299
   50SOL     OW  245   1.363   3.358   0.492 -0.0019  0.3041  0.2215
   50SOL    HW2  246   1.270   3.337   0.488  0.1465 -0.5748  0.9772
   50SOL    HW3  247   1.403   3.278   0.526  1.0197  0.6936 -0.0564
   50SOL    MW4  248   1.356   3.344   0.496  0.1526  0.2396  0.2846
   51SOL     OW  249   3.956   0.971   0.775  0.3435 -0.1831 -0.0169
   51SOL    HW2  250   3.929   0.969   0.683  0.5204 -3.0271 -0.0316
   51SOL    HW3  251   3.893   0.914   0.820  0.8595  0.3980  1.4881
   51SOL    MW4  252   3.944   0.963   0.769  0.4346 -0.4817  0.1797
   52SOL     OW  253   2.521   3.083   1.114  0.0943  0.4346  0.2320
   52SOL    HW2  254   2.588   3.139   1.154 -1.0643  0.0901  2.7435
   52SOL    HW3  255   2.510   3.011   1.177 -1.5836 -0.2669 -0.8527
   52SOL    MW4  256   2.528   3.081   1.128 -0.2799  0.2968  0.4202
   53SOL     OW  257   4.224   4.010   0.709  0.1774 -0.4219 -0.3745
   53SOL    HW2  258   4.228   4.106   0.706  0.9640 -0.4779 -1.5587
   53SOL    HW3  259   4.138   3.989   0.673 -0.3721 -0.1356  0.7525
   53SOL    MW4  260   4.213   4.020   0.704  0.2084 -0.3910 -0.3821
   54SOL     OW  261   0.329   4.267   0.458 -0.0138 -0.0857 -0.3561
   54SOL    HW2  262   0.281   4.187   0.435 -1.6669  0.5935  0.6987
   54SOL    HW3  263   0.385   4.241   0.531 -0.2183 -0.3969 -0.3083
   54SOL    MW4  264   0.330   4.253   0.465 -0.2589 -0.0367 -0.2106
   55SOL     OW  265   0.173   0.119   0.908  0.0605  0.1984 -0.2619
   55SOL    HW2  266   0.255   0.126   0.860 -1.7453  0.2163 -3.5049
   55SOL    HW3  267   0.142   0.031   0.889 -0.6448  0.1738  0.9703
   55SOL    MW4  268   0.180   0.108   0.899 -0.2708  0.1975 -0.5273
   56SOL     OW  269   1.574   0.746   1.160 -0.4814  0.3064  0.1328
   56SOL    HW2  270   1.553   0.742   1.067  0.8311  0.9676 -0.2067
   56SOL    HW3  271   1.595   0.656   1.184  0.1894  0.2917 -0.4711
   56SOL    MW4  272   1.574   0.734   1.151 -0.2198  0.3917  0.0083
   57SOL     OW  273   0.629   2.640   0.452 -0.4892 -0.3156  0.5286
   57SOL    HW2  274   0.617   2.573   0.384 -0.6733 -0.1816  0.4299
   57SOL    HW3  275   0.720   2.629   0.480 -0.3179 -0.1517  0.0278
   57SOL    MW4  276   0.640   2.629   0.447 -0.4909 -0.2761  0.4494
   58SOL     OW  277   0.646   0.758   1.158  0.1176  0.0162  0.3095
   58SOL    HW2  278   0.632   0.782   1.066 -0.7722 -0.5980  0.2637
   58SOL    HW3  279   0.579   0.806   1.206 -1.5093 -2.0789  0.2425
   58SOL    MW4  280   0.635   0.767   1.152 -0.2145 -0.3412  0.2946
   59SOL     OW  281   0.854   1.085   0.963  0.0505  0.4666  0.3567
   59SOL    HW2  282   0.888   0.998   0.943  0.6892  0.6411  0.6656
   59SOL    HW3  283   0.912   1.145   0.914  0.0373  0.7514  0.6905
   59SOL    MW4  284   0.866   1.082   0.954  0.1330  0.5273  0.4414
   60SOL     OW  285   3.391   0.950   0.551  0.0045 -0.6232 -0.4477
   60SOL    HW2  286   3.361   0.949   0.642  0.2763  0.2436 -0.3429
   60SOL    HW3  287   3.417   0.859   0.533 -2.0401 -1.2429 -0.3362
   60SOL    MW4  288   3.391   0.938   0.561 -0.2294 -0.5906 -0.4193
   61SOL     OW  289   4.179   2.842   0.461 -0.0991 -0.2890  0.0587
   61SOL    HW2  290   4.096   2.870   0.422  0.8856  0.7723 -1.2640
   61SOL    HW3  291   4.152   2.781   0.531 -1.9823 -0.0492 -0.4264
   61SOL    MW4  292   4.164   2.837   0.465 -0.2174 -0.1173 -0.1799
   62SOL     OW  293   0.222   0.537   1.237 -0.0464  0.2010  0.0785
   62SOL    HW2  294   0.216   0.623   1.195  0.7083 -1.1769 -2.9646
   62SOL    HW3  295   0.142   0.492   1.210 -0.2629 -0.1997  1.3731
   62SOL    MW4  296   0.211   0.543   1.228  0.0246 -0.0337 -0.1522
   63SOL     OW  297   2.208   3.864   0.542 -0.2360  0.4285  0.4156
   63SOL    HW2  298   2.200   3.958   0.529 -0.5072  0.5144  1.1803
   63SOL    HW3  299   2.118   3.831   0.538 -0.2414  0.3491  1.2685
   63SOL    MW4  300   2.196   3.872   0.539 -0.2725  0.4296  0.6290
   64SOL     OW  301   3.283   3.094   0.830 -0.2955  0.1129  0.2408
   64SOL    HW2  302   3.348   3.151   0.788 -0.9351  0.2275 -0.5944
   64SOL    HW3  303   3.310   3.091   0.922  1.9343 -1.2491 -0.4228
   64SOL    MW4  304   3.295   3.101   0.837 -0.0856 -0.0517  0.0430
   65SOL     OW  305   2.408   4.644   1.029  0.6654 -0.0067  0.2379
   65SOL    HW2  306   2.447   4.641   1.116  1.0102  0.1858  0.0929
   65SOL    HW3  307   2.476   4.684   0.974  0.6314 -0.5686 -0.2132
   65SOL    MW4  308   2.422   4.649   1.033  0.7067 -0.0558  0.1593
   66SOL     OW  309   2.112   0.569   0.525  0.0236  0.0523 -0.3997
   66SOL    HW2  310   2.115   0.658   0.490  1.9619 -0.2484 -1.0777
   66SOL    HW3  311   2.131   0.580   0.618  0.6772  0.3278 -0.5577
   66SOL    MW4  312   2.115   0.582   0.533  0.3653  0.0490 -0.5100
   67SOL     OW  313   4.400   1.132   0.217  0.2834 -0.0243  0.0584
   67SOL    HW2  314   4.326   1.098   0.168 -0.4641 -1.1148  1.9001
   67SOL    HW3  315   4.363   1.200   0.274  0.6398 -0.7602  1.1793
   67SOL    MW4  316   4.386   1.137   0.218  0.2317 -0.2654  0.4493
   68SOL     OW  317   2.587   0.796   0.917 -0.0947  0.1558 -0.4629
   68SOL    HW2  318   2.546   0.850   0.849  1.7847 -1.2781 -2.8264
   68SOL    HW3  319   2.679   0.790   0.890  0.1589 -2.4777  0.8545
   68SOL    MW4  320   2.594   0.802   0.904  0.1867 -0.3809 -0.6009
   69SOL     OW  321   4.392   0.142   0.479 -0.0016  0.0690 -0.4523
   69SOL    HW2  322   4.460   0.200   0.444  0.4210 -0.7807 -1.0597
   69SOL    HW3  323   4.423   0.054   0.458 -1.4795 -0.3199 -1.0724
   69SOL    MW4  324   4.405   0.138   0.472 -0.1407 -0.0944 -0.6143
   70SOL     OW  325   0.182   4.503   0.567  0.4818  0.3959  0.3674
   70SOL    HW2  326   0.217   4.414   0.558  0.4324  0.5016 -0.9689
   70SOL    HW3  327   0.161   4.511   0.660  1.2047 -0.7203  0.6394
   70SOL    MW4  328   0.184   4.492   0.578  0.5707  0.2618  0.2270
   71SOL     OW  329   3.033   0.641   0.860  0.3968  0.0757 -0.3112
   71SOL    HW2  330   3.045   0.564   0.804 -0.5377  0.8511 -1.6073
   71SOL    HW3  331   3.016   0.605   0.947  2.2251 -1.1488 -0.4354
   71SOL    MW4  332   3.032   0.626   0.864  0.5145  0.0164 -0.4987
   72SOL     OW  333   3.224   4.080   0.541 -0.1905  0.0617  0.3371
   72SOL    HW2  334   3.316   4.056   0.537  0.1039  1.0031  1.4649
   72SOL    HW3  335   3.182   4.007   0.587 -0.2780 -1.0751 -1.4601
   72SOL    MW4  336   3.230   4.067   0.546 -0.1633  0.0358  0.2487
   73SOL     OW  337   1.695   3.967   0.532 -0.1474  0.0752  0.2246
   73SOL    HW2  338   1.599   3.963   0.530 -0.1105 -1.0766  0.0483
   73SOL    HW3  339   1.719   3.912   0.607  0.4021 -0.3795 -0.2821
   73SOL    MW4  340   1.686   3.959   0.542 -0.0700 -0.1369  0.1345
   74SOL     OW  341   1.628   2.334   0.421  0.0428 -0.2960  0.5543
   74SOL    HW2  342   1.571   2.292   0.356 -2.4732  0.8301  1.9249
   74SOL    HW3  343   1.681   2.395   0.371 -0.8447 -0.4830 -0.6361
   74SOL    MW4  344   1.627   2.337   0.406 -0.4063 -0.1721  0.5781
   75SOL     OW  345   1.993   2.785   0.346  0.3062 -0.3915 -0.4065
   75SOL    HW2  346   1.924   2.806   0.283  0.9515 -0.1245 -1.0281
   75SOL    HW3  347   1.960   2.818   0.430  0.2958  0.9897 -0.9475
   75SOL    MW4  348   1.979   2.792   0.349  0.3901 -0.1740 -0.5599
   76SOL     OW  349   4.122   3.783   1.109  0.0470  0.3389 -0.2350
   76SOL    HW2  350   4.188   3.843   1.077  0.2347 -0.0489 -0.5804
   76SOL    HW3  351   4.065   3.837   1.164  0.8182  0.6036  0.2983
   76SOL    MW4  352   4.123   3.798   1.112  0.1731  0.3231 -0.2102
   77SOL     OW  353   2.008   4.656   1.188 -0.2305 -0.1382 -0.2307
   77SOL    HW2  354   2.012   4.561   1.198 -0.1229 -0.0296  0.8595
   77SOL    HW3  355   2.053   4.674   1.105  1.3399 -0.8846  0.4418
   77SOL    MW4  356   2.014   4.646   1.178 -0.0091 -0.2217  0.0017
   78SOL     OW  357   0.270   1.656   0.414 -0.1795  0.1099  0.1319
   78SOL    HW2  358   0.306   1.572   0.443 -1.2925  0.1463  1.6304
   78SOL    HW3  359   0.176   1.649   0.429 -0.2152  1.8522  0.8173
   78SOL    MW4  360   0.263   1.644   0.420 -0.3311  0.3444  0.4200
   79SOL     OW  361   0.425   1.638   1.309  0.1538 -0.4440  0.1740
   79SOL    HW2  362   0.423   1.730   1.281  1.7190 -0.5904 -0.4720
   79SOL    HW3  363   0.431   1.642   1.404  0.2269  0.1183  0.1495
   79SOL    MW4  364   0.425   1.651   1.318  0.3700 -0.3890  0.0856
   80SOL     OW  365   2.041   4.050   0.933 -0.3548 -0.3926 -0.4632
   80SOL    HW2  366   1.961   4.099   0.918 -0.3791  0.2732  1.7484
   80SOL    HW3  367   2.015   3.977   0.989  0.8198  0.5992  1.4166
   80SOL    MW4  368   2.027   4.047   0.938 -0.2031 -0.1736  0.0767
   81SOL     OW  369   0.486   0.577   0.608  0.3971  0.3035  0.3963
   81SOL    HW2  370   0.429   0.579   0.530  0.4490  0.1140  0.3542
   81SOL    HW3  371   0.527   0.664   0.610 -0.7335  0.8335  1.0461
   81SOL    MW4  372   0.484   0.589   0.598  0.2548  0.3485  0.4765
   82SOL     OW  373   2.094   0.086   0.678  0.4123 -0.0139  0.1510
   82SOL    HW2  374   2.050   0.171   0.682  0.9712  0.2949 -0.1437
   82SOL    HW3  375   2.186   0.108   0.659  0.5367 -0.6863 -0.0223
   82SOL    MW4  376   2.100   0.100   0.676  0.5023 -0.0619  0.0892
   83SOL     OW  377   4.288   0.231   0.744 -0.0859 -0.2227 -0.3233
   83SOL    HW2  378   4.215   0.288   0.722 -1.1370 -1.9237 -1.3386
   83SOL    HW3  379   4.336   0.219   0.662  0.7827  0.1185  0.1287
   83SOL    MW4  380   4.285   0.237   0.731 -0.1101 -0.4021 -0.3977
   84SOL     OW  381   1.860   2.692   1.126  0.1541 -0.2197 -0.2876
   84SOL    HW2  382   1.878   2.673   1.034 -0.9144  0.6894 -0.6985
   84SOL    HW3  383   1.944   2.722   1.162  0.7369 -1.2304 -0.7838
   84SOL    MW4  384   1.873   2.693   1.119  0.0900 -0.2332 -0.4071
   85SOL     OW  385   0.241   1.901   0.554  0.7004 -0.2490 -0.3486
   85SOL    HW2  386   0.267   1.845   0.480 -2.0005  0.5145 -1.9312
   85SOL    HW3  387   0.186   1.844   0.609  0.0661  0.1102 -0.6120
   85SOL    MW4  388   0.237   1.886   0.551  0.2604 -0.1009 -0.5922
   86SOL     OW  389   0.262   2.287   1.127 -0.3124  0.0080 -0.2293
   86SOL    HW2  390   0.339   2.328   1.168 -0.3389 -0.0097 -0.1636
   86SOL    HW3  391   0.197   2.357   1.123 -0.4880 -0.1341  0.2248
   86SOL    MW4  392   0.264   2.302   1.132 -0.3390 -0.0131 -0.1606
   87SOL     OW  393   1.787   3.166   0.313  0.0739  0.0209  0.8737
   87SOL    HW2  394   1.879   3.164   0.339 -0.2429  0.7494  2.0872
   87SOL    HW3  395   1.753   3.247   0.351 -1.2110 -0.5394  0.9403
   87SOL    MW4  396   1.795   3.176   0.322 -0.1374  0.0432  1.0426
   88SOL     OW  397   0.610   1.516   0.877 -0.2887  0.0262 -0.0024
   88SOL    HW2  398   0.601   1.423   0.855 -0.8060  0.1719 -0.3865
   88SOL    HW3  399   0.538   1.559   0.832  0.3542  0.7129 -0.3677
   88SOL    MW4  400   0.599   1.509   0.868 -0.2721  0.1360 -0.1013
   89SOL     OW  401   2.585   4.058   0.460 -0.0174  0.1504 -0.3435
   89SOL    HW2  402   2.664   4.017   0.424 -1.3104 -2.0785 -0.7886
   89SOL    HW3  403   2.580   4.143   0.417  1.0200 -0.5519 -1.9121
   89SOL    MW4  404   2.595   4.064   0.450 -0.0510 -0.2360 -0.6092
   90SOL     OW  405   0.790   4.446   0.773 -0.1771  0.9723  0.5693
   90SOL    HW2  406   0.825   4.357   0.766 -0.6484  0.6879  1.7505
   90SOL    HW3  407   0.776   4.473   0.682 -0.6925 -0.4305  0.2109
   90SOL    MW4  408   0.793   4.438   0.760 -0.3073  0.7491  0.6779
   91SOL     OW  409   0.020   3.187   0.470  0.1849 -0.4289 -0.3300
   91SOL    HW2  410   0.103   3.139   0.462  0.2992 -0.1528 -0.7836
   91SOL    HW3  411   0.024   3.224   0.558 -0.1549 -1.7098  0.2416
   91SOL    MW4  412   0.032   3.185   0.481  0.1550 -0.5615 -0.3144
   92SOL     OW  413   1.978   2.343   1.138  0.2308 -0.0414 -0.0637
   92SOL    HW2  414   2.060   2.389   1.159  0.6219 -0.6181 -0.3196
   92SOL    HW3  415   1.913   2.385   1.194  1.1057 -0.9907  1.7236
   92SOL    MW4  416   1.981   2.355   1.149  0.3979 -0.2429  0.1384
   93SOL     OW  417   4.261   4.286   0.711 -0.0952 -0.1223 -0.5171
   93SOL    HW2  418   4.329   4.297   0.777  0.5704  0.3225 -1.2674
   93SOL    HW3  419   4.189   4.340   0.741 -0.1355 -0.6178  0.3004
   93SOL    MW4  420   4.261   4.294   0.724 -0.0129 -0.1287 -0.5083
   94SOL     OW  421   0.180   2.180   0.458 -0.0895  0.0221 -0.1631
   94SOL    HW2  422   0.197   2.088   0.478 -0.6731  0.3081  1.7306
   94SOL    HW3  423   0.088   2.183   0.433 -0.8530  0.4984  2.5592
   94SOL    MW4  424   0.170   2.168   0.457 -0.2672  0.1225  0.4459
   95SOL     OW  425   2.135   4.591   0.265  0.0205 -0.6125 -0.6718
   95SOL    HW2  426   2.087   4.596   0.183 -0.7472  0.8828 -0.1506
   95SOL    HW3  427   2.070   4.610   0.332  0.9073 -0.6211  0.1992
   95SOL    MW4  428   2.120   4.594   0.263  0.0362 -0.4168 -0.4881
   96SOL     OW  429   2.209   3.570   0.904 -0.5089  0.3375  0.1005
   96SOL    HW2  430   2.130   3.556   0.852 -0.3834 -0.3089  0.0787
   96SOL    HW3  431   2.214   3.665   0.915  0.1929  0.6172 -2.2156
   96SOL    MW4  432   2.200   3.581   0.899 -0.3998  0.2887 -0.2080
   97SOL     OW  433   4.194   4.376   1.196  0.1427  0.3129 -0.2592
   97SOL    HW2  434   4.106   4.348   1.170 -0.7523  1.3815  1.5280
   97SOL    HW3  435   4.201   4.466   1.165 -0.4045  1.1158  1.8364
   97SOL    MW4  436   4.183   4.384   1.189 -0.0472  0.5593  0.2530
   98SOL     OW  437   1.549   0.043   1.177  0.0019  0.2060  0.1393
   98SOL    HW2  438   1.627   0.069   1.224  0.1285  0.7674 -0.3740
   98SOL    HW3  439   1.576   0.038   1.085 -0.7366  1.1158 -0.1371
   98SOL    MW4  440   1.563   0.045   1.171 -0.0789  0.4001  0.0352
   99SOL     OW  441   0.203   0.910   0.688  0.6026 -0.2167 -0.0994
   99SOL    HW2  442   0.280   0.946   0.643  0.4082  0.2353 -0.0790
   99SOL    HW3  443   0.133   0.972   0.669  0.6168  0.2141  1.1546
   99SOL    MW4  444   0.204   0.923   0.680  0.5789 -0.1002  0.0687
  100SOL     OW  445   3.772   0.758   0.914 -0.0501 -0.1368  0.3468
  100SOL    HW2  446   3.711   0.832   0.908  1.4485  1.0140 -1.2985
  100SOL    HW3  447   3.794   0.753   1.007 -1.1093  0.7017  0.6548
  100SOL    MW4  448   3.767   0.767   0.926  0.0081  0.1257  0.1703
  101SOL     OW  449   3.623   0.193   0.567  0.4716 -0.4128 -0.0656
  101SOL    HW2  450   3.632   0.108   0.523  1.9734 -1.0262  1.3528
  101SOL    HW3  451   3.530   0.213   0.561  0.4766 -0.9599 -2.5751
  101SOL    MW4  452   3.612   0.184   0.561  0.6704 -0.5659 -0.2096
  102SOL     OW  453   3.840   1.544   0.879  0.2121  0.2710  0.2156
  102SOL    HW2  454   3.834   1.456   0.842 -1.5894  1.2852 -2.0007
  102SOL    HW3  455   3.928   1.574   0.855 -0.2733  0.2113 -1.7411
  102SOL    MW4  456   3.851   1.537   0.871 -0.0896  0.3968 -0.3350
  103SOL     OW  457   1.090   3.338   0.544 -0.1119 -0.0897 -0.0379
  103SOL    HW2  458   1.033   3.414   0.528 -1.1066 -0.8733 -0.2563
  103SOL    HW3  459   1.040   3.263   0.513  0.7749 -0.8746  0.3881
  103SOL    MW4  460   1.076   3.338   0.538 -0.1260 -0.2966 -0.0105
  104SOL     OW  461   4.042   1.139   1.140 -0.1117  0.1253 -0.2084
  104SOL    HW2  462   3.964   1.174   1.182  0.7289  0.5848  0.9614
  104SOL    HW3  463   4.051   1.050   1.176 -0.9609 -0.4964 -1.4929
  104SOL    MW4  464   4.033   1.132   1.150 -0.1130  0.1040 -0.2234
  105SOL     OW  465   1.550   0.707   0.880  0.0134  0.2469  0.1103
  105SOL    HW2  466   1.460   0.683   0.857  0.1364 -1.6666  1.4724
  105SOL    HW3  467   1.603   0.634   0.848  1.0534  1.1733 -0.3265
  105SOL    MW4  468   1.545   0.694   0.872  0.1668  0.1166  0.2324
  106SOL     OW  469   3.785   4.652   1.181  0.0304 -0.1673 -0.1221
  106SOL    HW2  470   3.731   4.722   1.216  0.7080 -0.8481  2.4615
  106SOL    HW3  471   3.764   4.576   1.236  0.7251 -1.4715 -1.6066
  106SOL    MW4  472   3.775   4.651   1.193  0.2117 -0.4292  0.0230
  107SOL     OW  473   3.711   0.490   0.903 -0.1888 -0.0446 -0.2207
  107SOL    HW2  474   3.750   0.577   0.891 -0.0037 -0.0696  0.1727
  107SOL    HW3  475   3.664   0.496   0.986  0.6318 -0.6008  0.2984
  107SOL    MW4  476   3.710   0.502   0.912 -0.0565 -0.1213 -0.1003
  108SOL     OW  477   1.930   2.320   0.855  0.5157  0.0818 -0.2618
  108SOL    HW2  478   1.835   2.320   0.857  0.5048  1.3837 -0.2951
  108SOL    HW3  479   1.956   2.319   0.947  0.4697 -0.7148 -0.2598
  108SOL    MW4  480   1.921   2.320   0.867  0.5081  0.1485 -0.2660
  109SOL     OW  481   1.733   0.882   0.797  0.3743  0.1353 -0.2480
  109SOL    HW2  482   1.813   0.832   0.818  0.8269 -0.1189 -2.4804
  109SOL    HW3  483   1.662   0.822   0.817  0.8548 -0.7134 -1.0315
  109SOL    MW4  484   1.734   0.867   0.803  0.4975 -0.0102 -0.6459
  110SOL     OW  485   0.231   3.583   1.259 -0.7894 -0.3709  0.0593
  110SOL    HW2  486   0.136   3.572   1.255 -1.1314  1.9509  1.1019
  110SOL    HW3  487   0.248   3.609   1.349  0.8679 -0.8038 -0.1137
  110SOL    MW4  488   0.220   3.585   1.270 -0.6159 -0.1218  0.1739
  111SOL     OW  489   0.364   1.389   0.551  0.1181  0.2639  0.3751
  111SOL    HW2  490   0.448   1.347   0.535 -0.1091 -0.1548  0.2717
  111SOL    HW3  491   0.380   1.447   0.626 -0.3953 -2.5615  2.7680
  111SOL    MW4  492   0.377   1.391   0.559  0.0204 -0.1640  0.6771
  112SOL     OW  493   2.136   0.002   0.935 -0.4613  0.5156 -0.1084
  112SOL    HW2  494   2.226   0.014   0.965  0.2691 -3.1145 -0.7340
  112SOL    HW3  495   2.129   0.057   0.857  0.8422  1.6775  0.5669
  112SOL    MW4  496   2.147   0.011   0.929 -0.1934  0.1899 -0.1017
  113SOL     OW  497   3.139   2.697   1.171  0.0329 -0.0064  0.1072
  113SOL    HW2  498   3.052   2.734   1.189 -0.4436 -0.6449 -0.8735
  113SOL    HW3  499   3.139   2.680   1.077  1.9817  1.9042 -0.2791
  113SOL    MW4  500   3.127   2.700   1.161  0.2272  0.1614 -0.0732
  114SOL     OW  501   4.480   1.986   1.171 -0.5563 -0.1331 -0.0798
  114SOL    HW2  502   4.411   2.035   1.216 -1.4170  0.6509 -2.1927
  114SOL    HW3  503   4.467   1.895   1.200 -1.4245  0.2642  0.8121
  114SOL    MW4  504   4.469   1.980   1.181 -0.7844  0.0226 -0.2409
  115SOL     OW  505   1.109   2.274   0.875 -0.1994  0.0915 -0.1402
  115SOL    HW2  506   1.190   2.324   0.868 -1.5937  2.2203 -1.5207
  115SOL    HW3  507   1.095   2.263   0.969  0.1425  2.2948  0.1882
  115SOL    MW4  508   1.118   2.279   0.886 -0.3382  0.6633 -0.2790
  116SOL     OW  509   0.458   3.987   1.181 -0.0387  0.6458  0.1664
  116SOL    HW2  510   0.538   3.935   1.193 -0.1180  0.8439  1.6702
  116SOL    HW3  511   0.477   4.071   1.223 -0.4248  1.3306 -1.0003
  116SOL    MW4  512   0.471   3.991   1.188 -0.1001  0.7622  0.2108
  117SOL     OW  513   0.835   1.326   0.498  0.2461  0.2294  0.0266
  117SOL    HW2  514   0.850   1.420   0.506 -1.4142  0.5508 -0.4744
  117SOL    HW3  515   0.912   1.293   0.453  0.0719  1.6210 -1.3122
  117SOL    MW4  516   0.847   1.334   0.493  0.0041  0.4554 -0.2161
  118SOL     OW  517   3.031   4.108   0.355  0.0947 -0.2099 -0.4268
  118SOL    HW2  518   2.967   4.037   0.368  0.4209 -0.2690  0.9111
  118SOL    HW3  519   3.109   4.080   0.403  0.8086  0.2988 -1.2705
  118SOL    MW4  520   3.033   4.095   0.363  0.2320 -0.1502 -0.3616
  119SOL     OW  521   1.173   0.049   0.852 -0.2297 -0.1810  0.6455
  119SOL    HW2  522   1.152   0.024   0.942  0.1361  0.8275  1.0234
  119SOL    HW3  523   1.093   0.089   0.818 -0.2595 -0.2422  0.6448
  119SOL    MW4  524   1.160   0.051   0.859 -0.1853 -0.0560  0.6952
  120SOL     OW  525   2.076   3.182   0.394 -0.1990  0.5578  0.6561
  120SOL    HW2  526   2.159   3.147   0.364 -1.0435 -0.9316  0.0122
  120SOL    HW3  527   2.060   3.140   0.478 -0.3408  0.8007  0.7535
  120SOL    MW4  528   2.085   3.172   0.401 -0.3290  0.3934  0.5839
  121SOL     OW  529   4.245   2.071   0.772  0.1334 -0.0321 -0.3464
  121SOL    HW2  530   4.340   2.064   0.777  0.4517  1.4304 -3.1817
  121SOL    HW3  531   4.223   2.151   0.818  0.0568 -1.2390  1.7862
  121SOL    MW4  532   4.255   2.080   0.779  0.1655  0.0014 -0.4391
  122SOL     OW  533   3.346   0.310   0.530 -0.7119  0.0446  0.0561
  122SOL    HW2  534   3.398   0.374   0.481 -0.6760  0.9247  1.2155
  122SOL    HW3  535   3.330   0.239   0.468  1.6973 -0.1588 -0.3738
  122SOL    MW4  536   3.351   0.309   0.516 -0.3893  0.1339  0.1523
  123SOL     OW  537   0.977   4.423   0.350  0.3756  0.0746 -0.7184
  123SOL    HW2  538   1.054   4.396   0.399 -0.9069 -2.0035  0.2292
  123SOL    HW3  539   0.942   4.343   0.312 -0.4161  1.2174 -2.4805
  123SOL    MW4  540   0.982   4.409   0.352  0.1019 -0.0491 -0.8259
  124SOL     OW  541   3.312   0.720   0.888 -0.0214  0.1267 -0.0846
  124SOL    HW2  542   3.220   0.699   0.876  0.0089  0.5936 -1.1955
  124SOL    HW3  543   3.359   0.649   0.846  0.1323 -0.2587  0.7323
  124SOL    MW4  544   3.306   0.708   0.881  0.0029  0.1375 -0.1233
  125SOL     OW  545   3.194   2.937   0.515 -0.3433  0.1621  0.0773
  125SOL    HW2  546   3.213   2.931   0.609  1.1288 -0.1813 -0.2208
  125SOL    HW3  547   3.099   2.935   0.509 -0.4141 -1.3946  1.4631
  125SOL    MW4  548   3.184   2.936   0.526 -0.1585 -0.0885  0.2210
  126SOL     OW  549   3.319   1.888   0.717 -0.4723  0.0845 -0.6594
  126SOL    HW2  550   3.409   1.903   0.747 -0.6677 -1.0376  0.5690
  126SOL    HW3  551   3.269   1.874   0.797 -1.6273  0.0741 -1.3668
  126SOL    MW4  552   3.324   1.888   0.731 -0.6504 -0.0650 -0.5907
  127SOL     OW  553   1.095   3.980   0.733  0.5151 -0.1726  0.1208
  127SOL    HW2  554   1.175   4.024   0.762  0.0475  0.0151  1.1388
  127SOL    HW3  555   1.087   3.905   0.792 -0.2440 -0.0014  0.2386
  127SOL    MW4  556   1.104   3.976   0.744  0.3533 -0.1252  0.2706
  128SOL     OW  557   0.387   3.194   0.936 -0.1786  0.1743 -0.1365
  128SOL    HW2  558   0.466   3.139   0.938 -0.2992 -0.1019 -1.9369
  128SOL    HW3  559   0.339   3.169   1.015  1.2150 -0.1289  0.6440
  128SOL    MW4  560   0.391   3.183   0.947 -0.0106  0.0978 -0.2710
  129SOL     OW  561   2.140   1.900   0.297 -0.4592  0.3400  0.0475
  129SOL    HW2  562   2.226   1.911   0.257 -0.3190  0.6988  0.4475
  129SOL    HW3  563   2.134   1.970   0.361 -0.8109 -0.0541  0.4487
  129SOL    MW4  564   2.150   1.911   0.300 -0.4869  0.3353  0.1532
  130SOL     OW  565   0.490   1.827   0.640 -0.3413  0.3175  0.2007
  130SOL    HW2  566   0.421   1.872   0.592 -0.3588 -1.1986 -1.2625
  130SOL    HW3  567   0.487   1.864   0.728 -1.7424  1.6290 -0.3862
  130SOL    MW4  568   0.481   1.838   0.645 -0.5284  0.2905 -0.0698
  131SOL     OW  569   4.272   1.477   0.882  0.0391 -0.0925 -0.3144
  131SOL    HW2  570   4.234   1.390   0.892  1.4838 -0.8133 -0.9890
  131SOL    HW3  571   4.358   1.462   0.844  0.4514  1.6114 -0.1115
  131SOL    MW4  572   4.278   1.464   0.878  0.2847  0.0371 -0.3766
  132SOL     OW  573   4.314   3.918   0.956  0.1145 -0.3192  0.4551
  132SOL    HW2  574   4.273   3.944   0.874  0.1472 -2.8566 -0.4127
  132SOL    HW3  575   4.323   4.000   1.006 -0.0586  1.2314 -1.9746
  132SOL    MW4  576   4.310   3.932   0.952  0.0958 -0.4494  0.0200
  133SOL     OW  577   2.590   2.214   0.919  0.2897 -0.0326 -0.3490
  133SOL    HW2  578   2.532   2.215   0.843  0.4954  0.8493 -0.5072
  133SOL    HW3  579   2.645   2.137   0.906  0.2772  0.0720 -1.0725
  133SOL    MW4  580   2.590   2.204   0.907  0.3150  0.0975 -0.4653
  134SOL     OW  581   1.882   1.496   0.369  0.1752  0.1016 -0.1497
  134SOL    HW2  582   1.904   1.551   0.294  0.8240  0.2958  0.1762
  134SOL    HW3  583   1.842   1.555   0.432 -0.7627 -0.1429 -0.5092
  134SOL    MW4  584   1.880   1.511   0.367  0.1371  0.0950 -0.1542
  135SOL     OW  585   1.383   2.693   0.913  0.5199  0.2113 -0.0006
  135SOL    HW2  586   1.361   2.675   1.005  1.0235 -0.1600  0.0523
  135SOL    HW3  587   1.299   2.703   0.869  0.2788  0.5083  0.5294
  135SOL    MW4  588   1.369   2.692   0.919  0.5546  0.2015  0.0763
  136SOL     OW  589   2.807   2.137   0.526 -0.0612  0.0158 -0.2472
  136SOL    HW2  590   2.885   2.087   0.501  0.1039  1.5542 -3.0416
  136SOL    HW3  591   2.842   2.217   0.567 -0.2120  0.0533 -0.1911
  136SOL    MW4  592   2.822   2.141   0.528 -0.0591  0.2239 -0.6085
  137SOL     OW  593   1.546   2.755   0.687  0.2356 -0.1323 -0.3548
  137SOL    HW2  594   1.509   2.724   0.770  0.7329 -1.9016 -0.7741
  137SOL    HW3  595   1.475   2.744   0.623  0.2683  0.0440 -0.4227
  137SOL    MW4  596   1.532   2.750   0.689  0.3054 -0.3426 -0.4191
  138SOL     OW  597   1.085   4.471   0.802 -0.4311  0.0334 -0.2749
  138SOL    HW2  598   0.993   4.490   0.785 -0.2676  0.1887 -0.9879
  138SOL    HW3  599   1.125   4.556   0.823 -0.4798 -0.0558  0.2030
  138SOL    MW4  600   1.078   4.485   0.803 -0.4160  0.0420 -0.3058
  139SOL     OW  601   0.704   3.836   1.146  0.1163  0.3408  0.1776
  139SOL    HW2  602   0.685   3.756   1.194 -0.2540 -0.0825 -0.6698
  139SOL    HW3  603   0.734   3.807   1.060  0.6181  1.0957  0.0868
  139SOL    MW4  604   0.706   3.822   1.141  0.1337  0.3846  0.0538
  140SOL     OW  605   2.205   2.672   0.818  0.0993 -0.1007  0.2123
  140SOL    HW2  606   2.200   2.768   0.820 -1.4115 -0.1353 -0.8795
  140SOL    HW3  607   2.190   2.649   0.727 -0.0621 -1.4131  0.5548
  140SOL    MW4  608   2.203   2.682   0.807 -0.1214 -0.2780  0.1134
  141SOL     OW  609   4.057   1.929   1.160  0.6189  0.3337  0.3986
  141SOL    HW2  610   3.966   1.950   1.179  0.6930  0.5684  0.5007
  141SOL    HW3  611   4.066   1.836   1.184  0.0206 -0.1126 -1.0478
  141SOL    MW4  612   4.047   1.919   1.166  0.5503  0.3059  0.2211
  142SOL     OW  613   4.272   3.080   0.899 -0.3491 -0.3964  0.0544
  142SOL    HW2  614   4.364   3.096   0.918 -0.3455 -0.3258 -0.0259
  142SOL    HW3  615   4.261   3.103   0.807 -0.3501 -0.8183 -0.0550
  142SOL    MW4  616   4.283   3.085   0.889 -0.3490 -0.4425  0.0294
  143SOL     OW  617   2.790   3.527   0.485 -0.4816  0.2817  0.1605
  143SOL    HW2  618   2.794   3.546   0.579  0.8862 -1.1953  0.4338
  143SOL    HW3  619   2.727   3.456   0.477 -0.0676 -0.0726  0.0447
  143SOL    MW4  620   2.782   3.520   0.496 -0.2465  0.0401  0.1813
  144SOL     OW  621   1.559   0.753   0.527  0.0082  0.5279 -0.3301
  144SOL    HW2  622   1.625   0.822   0.514  0.0682  0.4465 -0.4604
  144SOL    HW3  623   1.596   0.677   0.484 -0.8379  0.8707 -1.6733
  144SOL    MW4  624   1.573   0.752   0.520 -0.0956  0.5624 -0.5245
  145SOL     OW  625   4.010   1.626   0.501 -0.2525  0.0517  0.2407
  145SOL    HW2  626   4.046   1.631   0.590  0.1194 -0.9992  0.1497
  145SOL    HW3  627   3.915   1.620   0.513 -0.4433  2.7935  0.4876
  145SOL    MW4  628   4.002   1.626   0.514 -0.2289  0.2748  0.2612
  146SOL     OW  629   2.642   0.009   0.274 -0.2781  0.2419  0.0783
  146SOL    HW2  630   2.697   0.064   0.330  1.5136 -0.9388 -0.4627
  146SOL    HW3  631   2.552   0.038   0.291  0.5271  2.3255  0.8663
  146SOL    MW4  632   2.637   0.020   0.284  0.0644  0.3610  0.1109
  147SOL     OW  633   2.132   0.839   0.426  0.0626 -0.2076  0.5276
  147SOL    HW2  634   2.098   0.896   0.357 -0.2599 -0.9473  0.0755
  147SOL    HW3  635   2.098   0.877   0.507  0.7620  0.8911  0.3246
  147SOL    MW4  636   2.123   0.852   0.428  0.1121 -0.1603  0.4412
  148SOL     OW  637   2.729   4.467   0.609  0.3330 -0.4842 -0.2155
  148SOL    HW2  638   2.804   4.411   0.590  1.3556  0.8279 -0.0783
  148SOL    HW3  639   2.665   4.445   0.542  1.0306 -1.2596 -0.6307
  148SOL    MW4  640   2.730   4.457   0.598  0.5600 -0.4139 -0.2521
  149SOL     OW  641   1.545   4.611   0.887  0.2014 -0.7859 -0.3812
  149SOL    HW2  642   1.476   4.551   0.915 -0.3460 -0.0851 -0.2392
  149SOL    HW3  643   1.506   4.698   0.893  1.5471 -0.2612  1.0926
  149SOL    MW4  644   1.531   4.615   0.891  0.3067 -0.6237 -0.1681
  150SOL     OW  645   0.673   2.206   0.608 -0.2138  0.3344  0.4110
  150SOL    HW2  646   0.669   2.165   0.694  1.6120  0.3458  0.5210
  150SOL    HW3  647   0.631   2.292   0.620  1.0589  0.8080  1.5717
  150SOL    MW4  648   0.667   2.212   0.621  0.1950  0.3984  0.5786
  151SOL     OW  649   2.575   4.311   0.374 -0.1006  0.2741  0.3243
  151SOL    HW2  650   2.630   4.334   0.299 -0.1647 -2.0011 -0.4468
  151SOL    HW3  651   2.487   4.302   0.337 -0.3396  0.2770  0.8911
  151SOL    MW4  652   2.571   4.313   0.359 -0.1407 -0.0257  0.2974
  152SOL     OW  653   0.008   1.638   0.536 -0.1029 -0.6509 -0.1806
  152SOL    HW2  654   0.008   1.681   0.622  1.3221  1.3922 -1.1573
  152SOL    HW3  655  -0.069   1.674   0.492  0.4013  0.0016 -0.5459
  152SOL    MW4  656  -0.002   1.648   0.542  0.1516 -0.2953 -0.3577
  153SOL     OW  657   1.799   0.010   0.786  0.2530  0.0638 -0.1697
  153SOL    HW2  658   1.723  -0.012   0.841  2.1322  0.4775  2.7319
  153SOL    HW3  659   1.860  -0.063   0.799  1.1816  0.7011 -0.8551
  153SOL    MW4  660   1.797  -0.002   0.795  0.6233  0.2022  0.1228
  154SOL     OW  661   2.828   3.943   0.405 -0.2793 -0.4815  0.0714
  154SOL    HW2  662   2.819   3.933   0.500  0.5700  0.5127  0.2638
  154SOL    HW3  663   2.865   3.859   0.376  0.8569 -0.2395  0.8151
  154SOL    MW4  664   2.832   3.930   0.413 -0.0172 -0.3185  0.1949
  155SOL     OW  665   1.330   2.678   0.496  0.2391 -0.9336  0.4864
  155SOL    HW2  666   1.325   2.582   0.501 -2.6742 -0.8835 -0.5164
  155SOL    HW3  667   1.394   2.695   0.427  0.4327 -2.1670  0.3414
  155SOL    MW4  668   1.338   2.667   0.488 -0.1198 -1.0893  0.3350
  156SOL     OW  669   1.121   1.501   0.847 -0.2476 -0.3368 -0.3234
  156SOL    HW2  670   1.188   1.553   0.801 -0.4380  1.1808  1.0588
  156SOL    HW3  671   1.039   1.545   0.826 -0.5281 -0.6649  0.0940
  156SOL    MW4  672   1.119   1.514   0.838 -0.3096 -0.1798 -0.0859
  157SOL     OW  673   3.501   2.280   0.523 -0.3953  0.2132 -0.8112
  157SOL    HW2  674   3.427   2.222   0.505  0.1666 -1.0118  0.6486
  157SOL    HW3  675   3.461   2.362   0.551 -1.1981  0.5566 -2.8876
  157SOL    MW4  676   3.486   2.283   0.525 -0.4270  0.0970 -0.8926
  158SOL     OW  677   0.241   2.341   0.659  0.2658 -0.0032 -0.4996
  158SOL    HW2  678   0.222   2.272   0.596 -0.7709  1.1184 -1.4331
  158SOL    HW3  679   0.170   2.404   0.649  0.0391  0.1821  1.8433
  158SOL    MW4  680   0.229   2.340   0.649  0.0991  0.1690 -0.3136
  159SOL     OW  681   0.900   3.129   0.473  0.2472  0.1004 -0.1212
  159SOL    HW2  682   0.896   3.039   0.505  0.6132  0.8488  2.1036
  159SOL    HW3  683   0.820   3.140   0.422 -1.3722 -0.5439  2.1716
  159SOL    MW4  684   0.889   3.119   0.471  0.0818  0.1142  0.4749
  160SOL     OW  685   1.083   3.799   0.531 -0.1208 -0.3374 -0.7385
  160SOL    HW2  686   1.033   3.723   0.562 -1.0155  0.5106 -0.0727
  160SOL    HW3  687   1.069   3.865   0.598 -1.1411  1.1548 -2.3844
  160SOL    MW4  688   1.074   3.797   0.544 -0.3735 -0.0288 -0.8678
  161SOL     OW  689   1.974   3.717   0.523  0.4779  0.2781  0.4102
  161SOL    HW2  690   1.891   3.693   0.564  0.0908 -0.8416 -0.9774
  161SOL    HW3  691   2.013   3.634   0.497  1.7927  0.8311  0.5672
  161SOL    MW4  692   1.968   3.703   0.525  0.6005  0.2034  0.2479
  162SOL     OW  693   4.056   3.676   0.863  0.9446 -0.2695 -0.0642
  162SOL    HW2  694   4.135   3.635   0.827  1.5138  0.8937 -0.1753
  162SOL    HW3  695   4.086   3.719   0.943  0.7684  1.4448 -0.8895
  162SOL    MW4  696   4.071   3.676   0.869  0.9966  0.1101 -0.1877
  163SOL     OW  697   3.075   1.536   0.640  0.0167  0.4011 -0.2469
  163SOL    HW2  698   3.144   1.599   0.619 -0.4842  1.2844  0.7171
  163SOL    HW3  699   2.996   1.573   0.601  0.1066 -0.7239 -1.5531
  163SOL    MW4  700   3.074   1.549   0.632 -0.0377  0.3693 -0.2921
  164SOL     OW  701   4.472   3.477   0.928  0.3218 -0.2571  0.5399
  164SOL    HW2  702   4.402   3.517   0.875 -0.9137 -3.3937 -0.3000
  164SOL    HW3  703   4.551   3.525   0.904 -0.7970  0.5101 -1.7205
  164SOL    MW4  704   4.473   3.489   0.918  0.0114 -0.5698  0.1308
  165SOL     OW  705   2.253   1.714   1.233 -0.2148  0.6560  0.0951
  165SOL    HW2  706   2.174   1.661   1.225 -0.2259  0.5230  0.9814
  165SOL    HW3  707   2.230   1.798   1.195 -0.9386  0.7697  0.7616
  165SOL    MW4  708   2.240   1.718   1.227 -0.3119  0.6535  0.2999
  166SOL     OW  709   4.313   0.463   0.374  0.2540 -0.2934 -0.3095
  166SOL    HW2  710   4.301   0.557   0.365 -1.1536 -0.6517 -2.6139
  166SOL    HW3  711   4.240   0.434   0.429 -1.1103 -0.4371 -2.1528
  166SOL    MW4  712   4.302   0.471   0.380 -0.1116 -0.3597 -0.8567
  167SOL     OW  713   4.346   2.936   1.296  0.2602 -0.2441  0.4101
  167SOL    HW2  714   4.278   2.903   1.237  1.6797  0.2140 -1.5406
  167SOL    HW3  715   4.327   3.029   1.307  0.2967 -0.2170  0.2413
  167SOL    MW4  716   4.335   2.944   1.290  0.4525 -0.1802  0.1305
  168SOL     OW  717   1.360   1.915   0.868 -0.3371 -0.2319  0.1810
  168SOL    HW2  718   1.443   1.957   0.846 -0.3784 -0.2031  0.0798
  168SOL    HW3  719   1.349   1.932   0.961 -1.2646  1.5912 -0.2305
  168SOL    MW4  720   1.369   1.923   0.877 -0.4648  0.0124  0.1134
  169SOL     OW  721   4.055   4.480   0.454  0.0998  0.0881  0.0923
  169SOL    HW2  722   4.132   4.423   0.443  0.4969  0.7001 -0.3006
  169SOL    HW3  723   4.090   4.569   0.448 -0.7425  0.3663 -0.8027
  169SOL    MW4  724   4.070   4.484   0.451  0.0410  0.2055 -0.0775
  170SOL     OW  725   0.397   0.851   1.267  0.2902  0.0122 -0.3970
  170SOL    HW2  726   0.384   0.847   1.362  2.2622  1.5207 -0.0257
  170SOL    HW3  727   0.309   0.841   1.231 -0.5835  0.0958  1.6097
  170SOL    MW4  728   0.384   0.849   1.275  0.4351  0.2223 -0.0832
  171SOL     OW  729   2.839   1.519   0.848 -0.0372 -0.7979 -0.4367
  171SOL    HW2  730   2.884   1.525   0.933 -0.1821  1.3719 -0.4907
  171SOL    HW3  731   2.909   1.501   0.785  0.3419 -0.3668 -0.1362
  171SOL    MW4  732   2.854   1.517   0.851 -0.0062 -0.4548 -0.4041
  172SOL     OW  733   0.578   1.231   0.543  0.1470 -0.3180 -0.5615
  172SOL    HW2  734   0.663   1.262   0.514 -0.0959  0.9014  0.0257
  172SOL    HW3  735   0.590   1.211   0.636 -0.0285 -0.8244 -0.6433
  172SOL    MW4  736   0.591   1.232   0.552  0.0918 -0.2240 -0.4947
  173SOL     OW  737   1.904   3.012   0.607  0.6416 -0.6433  0.1779
  173SOL    HW2  738   1.894   3.001   0.701 -0.1079  0.6927  0.2676
  173SOL    HW3  739   1.818   2.992   0.571  1.1932 -2.1475 -0.3281
  173SOL    MW4  740   1.891   3.008   0.615  0.6155 -0.6652  0.1229
  174SOL     OW  741   4.305   0.663   0.717 -0.4270 -0.7573 -0.0305
  174SOL    HW2  742   4.285   0.696   0.629 -0.6000 -0.4596  0.1235
  174SOL    HW3  743   4.238   0.597   0.733  0.3361 -1.7011 -0.6276
  174SOL    MW4  744   4.294   0.658   0.707 -0.3486 -0.8426 -0.0890
  175SOL     OW  745   2.024   3.024   1.161 -0.1407  0.6761  0.0525
  175SOL    HW2  746   2.103   3.078   1.158 -0.1211  0.6304 -0.2862
  175SOL    HW3  747   1.960   3.077   1.208 -0.2993  1.2238 -0.7854
  175SOL    MW4  748   2.026   3.038   1.167 -0.1593  0.7422 -0.1026
  176SOL     OW  749   3.362   2.211   0.856 -0.4091  0.2925  0.4189
  176SOL    HW2  750   3.285   2.208   0.800 -0.3053 -1.5162  0.3430
  176SOL    HW3  751   3.329   2.203   0.945 -0.4148  1.0177  0.4844
  176SOL    MW4  752   3.348   2.210   0.860 -0.3963  0.1495  0.4176
  177SOL     OW  753   2.702   2.696   0.874 -0.2770  0.5388 -0.1517
  177SOL    HW2  754   2.620   2.706   0.826 -0.2286  3.1491  0.2607
  177SOL    HW3  755   2.679   2.714   0.965  0.6253  0.6558  0.0600
  177SOL    MW4  756   2.688   2.699   0.880 -0.1516  0.8988 -0.0694
  178SOL     OW  757   3.791   2.029   1.192 -0.4187  0.1183  0.5218
  178SOL    HW2  758   3.748   2.112   1.175 -0.2007  0.2353  0.5383
  178SOL    HW3  759   3.801   2.026   1.287 -1.0834 -0.2567  0.5861
  178SOL    MW4  760   3.787   2.039   1.202 -0.4780  0.0839  0.5325
  179SOL     OW  761   2.896   1.536   1.133 -0.3573 -0.2055 -0.3856
  179SOL    HW2  762   2.966   1.578   1.183 -2.9747  0.5173  2.8045
  179SOL    HW3  763   2.887   1.449   1.172  0.8500 -1.4828 -2.8732
  179SOL    MW4  764   2.904   1.530   1.145 -0.5436 -0.2788 -0.2929
  180SOL     OW  765   4.388   2.534   0.887 -0.1345 -0.1021  0.0272
  180SOL    HW2  766   4.367   2.625   0.908  2.1995  0.3925  0.3644
  180SOL    HW3  767   4.432   2.501   0.966  0.1200 -1.1523 -0.5434
  180SOL    MW4  768   4.391   2.541   0.900  0.2069 -0.1755 -0.0036
  181SOL     OW  769   4.332   1.350   0.402  0.5225 -0.0336 -0.2887
  181SOL    HW2  770   4.282   1.295   0.463  0.5642  0.4527  0.1874
  181SOL    HW3  771   4.418   1.358   0.443  0.8204 -0.4202 -0.8395
  181SOL    MW4  772   4.337   1.344   0.416  0.5670 -0.0205 -0.2986
  182SOL     OW  773   3.253   2.073   0.531  0.0942  0.3949  0.5060
  182SOL    HW2  774   3.194   2.126   0.584  1.2146 -0.0279  2.1917
  182SOL    HW3  775   3.298   2.016   0.593  0.8339 -0.6920 -0.9833
  182SOL    MW4  776   3.251   2.072   0.546  0.3395  0.1957  0.5320
  183SOL     OW  777   3.528   1.750   0.338  0.3696 -0.1733 -0.3114
  183SOL    HW2  778   3.453   1.762   0.395 -0.2185 -1.5794 -0.7552
  183SOL    HW3  779   3.604   1.761   0.395 -0.2123 -1.8426  0.8344
  183SOL    MW4  780   3.528   1.753   0.353  0.2148 -0.5790 -0.2188
  184SOL     OW  781   0.190   4.085   0.785  0.0603 -0.2168  0.2522
  184SOL    HW2  782   0.282   4.091   0.810  0.3579 -0.7029 -0.6734
  184SOL    HW3  783   0.153   4.019   0.844  0.4499 -0.4395  0.2515
  184SOL    MW4  784   0.198   4.077   0.796  0.1509 -0.3104  0.1301
  185SOL     OW  785   0.268   2.150   0.877 -0.2004 -0.4215  0.0395
  185SOL    HW2  786   0.259   2.209   0.802  2.2307 -0.5656 -0.4208
  185SOL    HW3  787   0.267   2.207   0.953 -0.9888 -0.0942 -0.2196
  185SOL    MW4  788   0.267   2.165   0.877  0.0164 -0.3972 -0.0554
  186SOL     OW  789   2.597   1.580   0.396  0.0406 -0.1836 -0.3484
  186SOL    HW2  790   2.672   1.595   0.453  0.6266  1.0107 -1.4046
  186SOL    HW3  791   2.635   1.566   0.309 -0.9426  0.5955 -0.9224
  186SOL    MW4  792   2.612   1.580   0.392 -0.0117  0.0769 -0.5635
  187SOL     OW  793   2.058   4.386   1.213  0.3948 -0.2369 -0.2767
  187SOL    HW2  794   1.984   4.333   1.185  0.6388 -0.4379 -0.5460
  187SOL    HW3  795   2.059   4.377   1.308 -0.4625  0.4894 -0.1993
  187SOL    MW4  796   2.048   4.378   1.222  0.3140 -0.1674 -0.3021
  188SOL     OW  797   1.978   4.353   0.564 -0.7160  0.1086  0.0288
  188SOL    HW2  798   1.890   4.327   0.591 -0.9640  1.9930  1.1237
  188SOL    HW3  799   1.965   4.435   0.516  0.3461 -0.1347 -0.6925
  188SOL    MW4  800   1.965   4.360   0.561 -0.6086  0.3247  0.0781
  189SOL     OW  801   4.152   1.223   0.901  0.3993 -0.5890  0.3970
  189SOL    HW2  802   4.232   1.174   0.883  0.4816 -1.0346  1.8815
  189SOL    HW3  803   4.102   1.167   0.960 -1.8762 -1.1104 -1.9464
  189SOL    MW4  804   4.156   1.210   0.906  0.1101 -0.7166  0.2837
  190SOL     OW  805   1.789   0.905   0.518  0.2096 -0.1212  0.4999
  190SOL    HW2  806   1.753   0.986   0.483  0.9554  0.2637  0.6304
  190SOL    HW3  807   1.768   0.908   0.611  1.1174  0.4006  0.6965
  190SOL    MW4  808   1.781   0.916   0.526  0.4280 -0.0016  0.5431
  191SOL     OW  809   3.322   1.685   0.548  0.2911  0.4399 -0.7718
  191SOL    HW2  810   3.346   1.762   0.600 -0.0733 -0.0312  0.1080
  191SOL    HW3  811   3.380   1.616   0.579  1.5759  0.6973 -2.5415
  191SOL    MW4  812   3.333   1.686   0.559  0.4127  0.4117 -0.8892
  192SOL     OW  813   3.473   1.459   0.622 -0.5134 -0.0317  0.0098
  192SOL    HW2  814   3.567   1.444   0.631 -0.4693 -0.5147 -1.1320
  192SOL    HW3  815   3.432   1.398   0.683 -0.1739 -1.7953 -1.5018
  192SOL    MW4  816   3.480   1.449   0.631 -0.4630 -0.3279 -0.3403
  193SOL     OW  817   3.959   3.413   0.992 -0.0787  0.0474  0.1964
  193SOL    HW2  818   3.973   3.476   0.921  1.2112 -1.6783 -1.1188
  193SOL    HW3  819   3.922   3.466   1.063  0.7475  2.2451 -0.9407
  193SOL    MW4  820   3.956   3.429   0.992  0.2005  0.1097 -0.1271
  194SOL     OW  821   4.076   1.882   0.885 -0.2185  0.5361 -0.2738
  194SOL    HW2  822   4.128   1.954   0.849  0.5327  0.1623  0.0434
  194SOL    HW3  823   4.083   1.893   0.980 -0.7900  0.5292 -0.2307
  194SOL    MW4  824   4.084   1.893   0.893 -0.1945  0.4859 -0.2263
  195SOL     OW  825   3.701   3.353   0.770  0.1674  0.2073  0.5352
  195SOL    HW2  826   3.742   3.271   0.796  1.4124 -0.0939 -2.2711
  195SOL    HW3  827   3.712   3.410   0.847  1.3864 -1.4594  1.6406
  195SOL    MW4  828   3.708   3.350   0.784  0.4926 -0.0522  0.3108
  196SOL     OW  829   2.257   2.025   0.889 -0.0111 -0.6146  0.0939
  196SOL    HW2  830   2.255   1.936   0.853 -1.8685 -1.1108  1.3507
  196SOL    HW3  831   2.316   2.073   0.832 -2.1323 -1.6145 -3.0499
  196SOL    MW4  832   2.264   2.020   0.877 -0.5362 -0.8118 -0.1552
  197SOL     OW  833   1.381   3.386   0.903  0.1506  0.1471  0.3064
  197SOL    HW2  834   1.368   3.471   0.860 -0.4648 -0.4070 -0.6219
  197SOL    HW3  835   1.448   3.343   0.850  0.3667  0.0013  0.7011
  197SOL    MW4  836   1.388   3.392   0.890  0.0980  0.0546  0.2360
  198SOL     OW  837   3.360   0.972   0.827 -0.1717  0.3757 -0.4259
  198SOL    HW2  838   3.452   0.992   0.845 -0.8362  1.8153  1.5248
  198SOL    HW3  839   3.350   0.881   0.852  1.0527 -0.2568 -2.0818
  198SOL    MW4  840   3.371   0.963   0.832 -0.0980  0.4821 -0.3870
  199SOL     OW  841   4.339   4.180   1.066 -0.4991  0.0562 -0.3860
  199SOL    HW2  842   4.394   4.150   1.139  1.2408  0.6560 -1.4403
  199SOL    HW3  843   4.276   4.239   1.108 -1.4267 -1.9106  1.0857
  199SOL    MW4  844   4.338   4.183   1.081 -0.3915 -0.1245 -0.3309
  200SOL     OW  845   0.646   3.963   0.504 -0.5640 -0.2853  0.2174
  200SOL    HW2  846   0.704   3.935   0.433 -2.7695  1.3267 -2.3089
  200SOL    HW3  847   0.559   3.934   0.476 -1.9288  3.1912  0.6492
  200SOL    MW4  848   0.642   3.955   0.491 -1.0351  0.3858 -0.0589
  201SOL     OW  849   1.606   2.032   1.270 -0.1621  0.6945 -0.2940
  201SOL    HW2  850   1.682   1.984   1.238  0.0993 -0.4904  1.9904
  201SOL    HW3  851   1.532   1.996   1.222  0.2776 -0.7034  0.0557
  201SOL    MW4  852   1.607   2.021   1.260 -0.0695  0.3536  0.0535
  202SOL     OW  853   1.189   2.893   0.554 -0.5869  0.0770  0.2234
  202SOL    HW2  854   1.104   2.874   0.514 -0.7863 -0.5011  0.8983
  202SOL    HW3  855   1.244   2.818   0.530 -0.2988  0.4015 -0.1267
  202SOL    MW4  856   1.185   2.880   0.546 -0.5752  0.0436  0.2663
  203SOL     OW  857   4.116   0.453   0.734  0.0337 -0.0727  0.0641
  203SOL    HW2  858   4.060   0.422   0.805  0.7877  0.3034  0.8322
  203SOL    HW3  859   4.069   0.429   0.654 -2.4731  2.4622  0.6858
  203SOL    MW4  860   4.103   0.446   0.733 -0.1974  0.3113  0.2475
  204SOL     OW  861   1.143   2.746   0.795 -0.0500  0.1643 -0.0934
  204SOL    HW2  862   1.104   2.659   0.789  0.0037  0.0719  0.7577
  204SOL    HW3  863   1.147   2.777   0.705 -1.5556 -0.0557 -0.2469
  204SOL    MW4  864   1.139   2.739   0.782 -0.2414  0.1233 -0.0013
  205SOL     OW  865   3.638   2.672   0.936  0.6568 -0.0539  0.5658
  205SOL    HW2  866   3.631   2.689   1.030 -0.1987 -2.0417  0.8656
  205SOL    HW3  867   3.584   2.595   0.920  1.5855 -0.3431 -1.3956
  205SOL    MW4  868   3.630   2.664   0.946  0.6666 -0.3543  0.3465
  206SOL     OW  869   0.908   1.904   1.156 -0.2508 -0.3181 -0.3261
  206SOL    HW2  870   0.990   1.940   1.190 -0.8931  0.3923  0.4764
  206SOL    HW3  871   0.911   1.923   1.062 -0.2995  1.3078 -0.0133
  206SOL    MW4  872   0.919   1.911   1.148 -0.3420 -0.0098 -0.1789
  207SOL     OW  873   0.111   3.867   0.920  0.0239  0.6552 -0.3388
  207SOL    HW2  874   0.017   3.877   0.937  0.2966  0.7710  1.2169
  207SOL    HW3  875   0.148   3.839   1.004  0.9186 -2.6832 -1.7459
  207SOL    MW4  876   0.104   3.864   0.933  0.1779  0.2303 -0.3192
  208SOL     OW  877   0.136   0.687   0.862 -0.2222 -0.4112 -0.5326
  208SOL    HW2  878   0.164   0.770   0.823 -0.5998 -0.1129 -0.1662
  208SOL    HW3  879   0.079   0.648   0.796 -0.4376 -0.1517 -0.4990
  208SOL    MW4  880   0.132   0.693   0.848 -0.3005 -0.3376 -0.4798
  209SOL     OW  881   3.601   4.384   0.942 -0.3860  0.0296 -0.1020
  209SOL    HW2  882   3.694   4.362   0.932 -0.0975  0.6637  1.1652
  209SOL    HW3  883   3.600   4.479   0.953 -1.1393 -0.0454  0.5108
  209SOL    MW4  884   3.613   4.394   0.942 -0.4473  0.1035  0.1460
  210SOL     OW  885   2.647   1.932   1.177 -0.5822  0.2968  0.3173
  210SOL    HW2  886   2.733   1.969   1.200 -0.0363  0.3541 -1.7044
  210SOL    HW3  887   2.649   1.843   1.213 -0.9144  1.3325  2.9977
  210SOL    MW4  888   2.659   1.925   1.185 -0.5541  0.4408  0.4041
  211SOL     OW  889   3.232   2.672   0.491  0.3668 -0.1844 -0.0654
  211SOL    HW2  890   3.149   2.654   0.447 -0.1505  1.0027  0.4005
  211SOL    HW3  891   3.237   2.767   0.493  0.3403 -0.2098  2.4732
  211SOL    MW4  892   3.221   2.682   0.486  0.2952 -0.0312  0.3310
  212SOL     OW  893   3.239   4.466   0.938  0.0335 -0.4214 -0.1148
  212SOL    HW2  894   3.247   4.390   0.881  0.9557  0.4160 -1.1161
  212SOL    HW3  895   3.154   4.505   0.916  0.4436 -0.0282 -1.0122
  212SOL    MW4  896   3.229   4.461   0.928  0.2093 -0.2589 -0.3653
  213SOL     OW  897   2.675   3.347   0.877 -0.5241 -0.3399  0.0639
  213SOL    HW2  898   2.591   3.371   0.838  0.2001  0.9499 -0.7592
  213SOL    HW3  899   2.738   3.407   0.837  0.4523  0.1780  2.2911
  213SOL    MW4  900   2.672   3.358   0.867 -0.2997 -0.1013  0.2491
  214SOL     OW  901   0.260   3.028   0.479 -0.5923  0.2497  0.1050
  214SOL    HW2  902   0.200   2.954   0.491 -0.9316  0.2690 -1.3507
  214SOL    HW3  903   0.346   2.988   0.468 -0.8853  0.0069 -1.4434
  214SOL    MW4  904   0.263   3.013   0.479 -0.6757  0.2201 -0.2913
  215SOL     OW  905   3.736   1.317   0.288 -0.0702 -0.0543 -0.6840
  215SOL    HW2  906   3.676   1.243   0.285  0.2117 -0.2690 -1.3582
  215SOL    HW3  907   3.685   1.391   0.256  0.1047 -0.2987 -1.5418
  215SOL    MW4  908   3.722   1.317   0.283 -0.0098 -0.1149 -0.8861
  216SOL     OW  909   1.106   4.649   1.107  0.3755  0.4422 -0.2999
  216SOL    HW2  910   1.037   4.708   1.138  1.5915  0.7527  1.8596
  216SOL    HW3  911   1.086   4.565   1.147  0.9311  0.3973 -0.1116
  216SOL    MW4  912   1.094   4.646   1.116  0.6093  0.4773  0.0099
  217SOL     OW  913   1.084   2.006   0.514  0.1030 -0.0387  0.1312
  217SOL    HW2  914   1.103   2.016   0.608 -0.8662  1.1528  0.2225
  217SOL    HW3  915   0.989   2.020   0.508  0.1417 -0.2634 -1.0121
  217SOL    MW4  916   1.074   2.009   0.526 -0.0197  0.0887 -0.0076
  218SOL     OW  917   3.628   4.623   0.411 -0.4784  0.0117 -0.1606
  218SOL    HW2  918   3.579   4.645   0.331 -1.7317  0.0719  0.6014
  218SOL    HW3  919   3.562   4.582   0.468  0.6213 -0.8709  0.4840
  218SOL    MW4  920   3.613   4.621   0.408 -0.4988 -0.0963  0.0249
  219SOL     OW  921   3.639   4.654   0.945  0.4571 -0.1821  0.3533
  219SOL    HW2  922   3.706   4.675   0.880  1.0534 -1.5014  0.5418
  219SOL    HW3  923   3.682   4.668   1.030 -0.3579  1.6658  0.4843
  219SOL    MW4  924   3.654   4.659   0.948  0.4282 -0.1125  0.3954
  220SOL     OW  925   0.897   0.883   0.569  0.2241  0.0415  0.2681
  220SOL    HW2  926   0.910   0.976   0.552  0.3181  0.1280  0.8015
  220SOL    HW3  927   0.929   0.870   0.658 -2.1102  0.0051  1.1577
  220SOL    MW4  928   0.903   0.894   0.579 -0.0715  0.0482  0.4559
  221SOL     OW  929   3.986   3.991   1.289  0.1349 -0.1763 -0.3045
  221SOL    HW2  930   3.969   4.063   1.229 -1.3977 -1.3309 -1.2729
  221SOL    HW3  931   3.918   3.927   1.270  0.8092 -1.4054  1.3170
  221SOL    MW4  932   3.975   3.992   1.279  0.0215 -0.4907 -0.2184
  222SOL     OW  933   2.603   1.098   0.527 -0.3583  0.0818  0.5874
  222SOL    HW2  934   2.622   1.028   0.464 -1.9187 -0.4507  0.6919
  222SOL    HW3  935   2.565   1.168   0.474 -0.1261  0.2913  0.6971
  222SOL    MW4  936   2.601   1.098   0.512 -0.5336  0.0390  0.6157
  223SOL     OW  937   1.512   1.283   0.513  0.6972  0.2524  0.3705
  223SOL    HW2  938   1.452   1.276   0.438  0.2718  0.4439  0.6930
  223SOL    HW3  939   1.598   1.294   0.473  0.6041 -0.6422 -0.1061
  223SOL    MW4  940   1.515   1.283   0.498  0.6287  0.1596  0.3501
  224SOL     OW  941   2.697   1.741   0.772  0.3369 -0.1898  0.2629
  224SOL    HW2  942   2.608   1.707   0.777  0.3273 -0.1138  0.5707
  224SOL    HW3  943   2.753   1.671   0.806  0.4239 -0.3594 -0.2232
  224SOL    MW4  944   2.693   1.727   0.777  0.3471 -0.2023  0.2394
  225SOL     OW  945   0.638   1.539   1.158  0.2718  0.2380 -0.0983
  225SOL    HW2  946   0.607   1.532   1.068 -0.1095 -1.9118  0.1649
  225SOL    HW3  947   0.564   1.573   1.207 -0.2929 -0.8326 -0.2022
  225SOL    MW4  948   0.624   1.542   1.153  0.1470 -0.1868 -0.0772
  226SOL     OW  949   1.072   2.988   0.924 -0.2662  0.4974 -0.2990
  226SOL    HW2  950   1.103   2.908   0.882  2.0843  0.7022  0.9800
  226SOL    HW3  951   1.099   3.058   0.864  1.1619  0.6228  0.4818
  226SOL    MW4  952   1.079   2.987   0.910  0.2323  0.5410 -0.0272
  227SOL     OW  953   3.314   0.291   0.832 -0.2568 -0.0994 -0.1124
  227SOL    HW2  954   3.347   0.201   0.833 -1.1471 -0.4814 -2.3161
  227SOL    HW3  955   3.278   0.304   0.920  0.9026 -1.4955  0.5898
  227SOL    MW4  956   3.314   0.281   0.844 -0.2215 -0.3340 -0.3104
  228SOL     OW  957   3.560   2.897   0.770  0.2970  0.0563  0.2870
  228SOL    HW2  958   3.590   2.827   0.827  0.7411 -0.8557 -1.0483
  228SOL    HW3  959   3.465   2.885   0.765  0.2137  0.3730  1.1381
  228SOL    MW4  960   3.551   2.887   0.777  0.3448 -0.0222  0.2230
  229SOL     OW  961   1.758   1.651   0.567  0.1626 -0.0924 -0.3204
  229SOL    HW2  962   1.789   1.658   0.658 -0.1365  0.3218 -0.2494
  229SOL    HW3  963   1.669   1.617   0.575  0.6719 -1.4851 -0.5331
  229SOL    MW4  964   1.750   1.648   0.580  0.1905 -0.2216 -0.3391
  230SOL     OW  965   2.005   2.057   0.787  0.2881 -0.3009 -0.5531
  230SOL    HW2  966   1.983   2.147   0.812 -0.1540 -0.0044 -1.9545
  230SOL    HW3  967   2.095   2.046   0.817  0.1026  0.3606  0.2753
  230SOL    MW4  968   2.014   2.067   0.794  0.2053 -0.1745 -0.6287
  231SOL     OW  969   0.053   3.117   0.951  0.2113  0.2635 -0.1843
  231SOL    HW2  970   0.074   3.175   0.878 -1.1314  1.0332  0.0314
  231SOL    HW3  971   0.081   3.165   1.029  1.2147 -0.3638 -0.1363
  231SOL    MW4  972   0.060   3.131   0.952  0.1665  0.2823 -0.1495
  232SOL     OW  973   4.059   2.844   0.744  0.1061 -0.0954  0.0561
  232SOL    HW2  974   4.052   2.935   0.716  1.0457 -0.6439 -2.0707
  232SOL    HW3  975   4.146   2.837   0.782 -0.0424 -0.0490  0.4020
  232SOL    MW4  976   4.069   2.855   0.745  0.2108 -0.1614 -0.1789
  233SOL     OW  977   2.478   0.548   0.850  0.1121 -0.0230 -0.3544
  233SOL    HW2  978   2.535   0.480   0.885  0.8527  0.1701 -1.1684
  233SOL    HW3  979   2.520   0.630   0.874 -0.1334  0.1286 -0.4369
  233SOL    MW4  980   2.491   0.550   0.857  0.1774  0.0224 -0.4727
  234SOL     OW  981   0.929   3.497   0.850  0.0230 -0.4474 -0.0904
  234SOL    HW2  982   1.014   3.452   0.858 -0.6799 -1.8103 -0.1167
  234SOL    HW3  983   0.867   3.427   0.833 -1.2275  0.4701  0.6472
  234SOL    MW4  984   0.932   3.482   0.849 -0.2347 -0.5064  0.0035
  235SOL     OW  985   2.621   0.070   0.837  0.0082 -0.9928  0.0804
  235SOL    HW2  986   2.684   0.015   0.883 -1.0054 -3.5857 -1.5603
  235SOL    HW3  987   2.606   0.027   0.753 -0.7520  1.8445 -1.3261
  235SOL    MW4  988   2.627   0.057   0.832 -0.2258 -0.9606 -0.3216
  236SOL     OW  989   1.726   4.232   0.638 -0.4236 -0.4691  0.4648
  236SOL    HW2  990   1.704   4.148   0.597 -1.5219 -0.3067  0.7256
  236SOL    HW3  991   1.659   4.292   0.608  1.6585  0.9200 -1.5894
  236SOL    MW4  992   1.714   4.229   0.628 -0.2936 -0.2646  0.2281
  237SOL     OW  993   3.573   3.106   0.489 -0.5507  0.0442  0.3920
  237SOL    HW2  994   3.628   3.028   0.495  0.5982  0.8500  0.4359
  237SOL    HW3  995   3.510   3.086   0.420 -0.2295 -0.8930  0.3649
  237SOL    MW4  996   3.572   3.093   0.481 -0.3572  0.0272  0.3942
  238SOL     OW  997   0.533   0.303   0.599 -0.0302  0.0590 -0.9399
  238SOL    HW2  998   0.463   0.279   0.539 -1.7912  1.8429  0.3421
  238SOL    HW3  999   0.529   0.399   0.605  0.0674 -0.0592  2.0088
  238SOL    MW4 1000   0.524   0.313   0.592 -0.2496  0.2788 -0.3818
  239SOL     OW 1001   3.013   1.909   0.486  0.3682  0.1404  0.5136
  239SOL    HW2 1002   3.104   1.931   0.466  1.4437 -2.9318  1.6498
  239SOL    HW3 1003   3.010   1.908   0.582 -0.5225 -0.9918  0.4838
  239SOL    MW4 1004   3.025   1.912   0.496  0.3924 -0.4144  0.6596
  240SOL     OW 1005   0.934   3.481   1.138  0.0060 -0.0656 -0.2985
  240SOL    HW2 1006   0.857   3.522   1.176  0.0613 -0.8710  0.6897
  240SOL    HW3 1007   0.925   3.496   1.044 -1.5285 -0.4275 -0.2252
  240SOL    MW4 1008   0.922   3.488   1.130 -0.1892 -0.2196 -0.1583
  241SOL     OW 1009   0.336   0.219   0.394  0.5973  0.4029 -0.1130
  241SOL    HW2 1010   0.254   0.267   0.402  0.8401  1.0557 -1.3967
  241SOL    HW3 1011   0.369   0.241   0.307  0.4564 -2.4928 -0.9577
  241SOL    MW4 1012   0.330   0.228   0.384  0.6107  0.1070 -0.3938
  242SOL     OW 1013   0.435   3.471   0.868 -0.0678  0.0088 -0.0495
  242SOL    HW2 1014   0.360   3.491   0.812  0.8075  1.5972 -0.6817
  242SOL    HW3 1015   0.437   3.375   0.872 -1.3969 -0.0721 -0.9923
  242SOL    MW4 1016   0.425   3.461   0.861 -0.1276  0.2077 -0.2573
  243SOL     OW 1017   4.421   3.915   0.511  0.7060  0.3267  0.5311
  243SOL    HW2 1018   4.438   3.823   0.530 -0.0307  0.0417 -0.1774
  243SOL    HW3 1019   4.352   3.940   0.573 -0.6479 -0.2011 -0.7440
  243SOL    MW4 1020   4.414   3.906   0.522  0.4301  0.2196  0.2694
  244SOL     OW 1021   2.204   1.759   0.821 -0.1796  0.0303  0.4443
  244SOL    HW2 1022   2.294   1.729   0.804  0.9947  3.8025 -0.5538
  244SOL    HW3 1023   2.165   1.768   0.734 -0.4830  1.2566  0.6943
  244SOL    MW4 1024   2.211   1.756   0.807 -0.0646  0.6899  0.3456
  245SOL     OW 1025   1.949   4.613   0.465  0.4609 -0.4388 -0.1499
  245SOL    HW2 1026   1.999   4.637   0.543  0.5786 -0.7082 -0.1391
  245SOL    HW3 1027   1.857   4.626   0.490  0.5492  0.4486 -0.3073
  245SOL    MW4 1028   1.943   4.618   0.479  0.4880 -0.3572 -0.1692
  246SOL     OW 1029   1.793   2.907   0.196  0.2655 -0.0242  0.5570
  246SOL    HW2 1030   1.793   3.000   0.216 -0.3100 -0.2375  1.5635
  246SOL    HW3 1031   1.711   2.893   0.149  1.4090  0.3934 -1.6289
  246SOL    MW4 1032   1.782   2.917   0.192  0.3403  0.0029  0.4014
  247SOL     OW 1033   3.920   2.957   0.390 -0.0665 -0.3022 -0.5277
  247SOL    HW2 1034   3.888   2.950   0.300  2.4745 -1.3657 -1.3892
  247SOL    HW3 1035   3.857   2.907   0.442 -1.3977  0.0939 -1.7203
  247SOL    MW4 1036   3.908   2.950   0.385  0.0932 -0.3905 -0.7987
  248SOL     OW 1037   1.089   3.754   0.884  0.3321 -0.0979  0.0643
  248SOL    HW2 1038   1.117   3.774   0.973  1.1990  0.5880 -0.3493
  248SOL    HW3 1039   1.159   3.700   0.848 -0.2209 -0.7398 -0.0626
  248SOL    MW4 1040   1.102   3.750   0.891  0.3735 -0.0920 -0.0070
  249SOL     OW 1041   0.203   0.001   1.149  0.1024  0.0004 -0.0182
  249SOL    HW2 1042   0.193   0.051   1.068 -2.0490 -0.7904 -0.2479
  249SOL    HW3 1043   0.218  -0.089   1.121  0.2440 -0.1249  0.4479
  249SOL    MW4 1044   0.204  -0.004   1.135 -0.1628 -0.1204  0.0130
  250SOL     OW 1045   1.841   0.616   0.511 -0.1279 -0.0914  0.3735
  250SOL    HW2 1046   1.929   0.585   0.531 -0.1334  0.0691  0.6399
  250SOL    HW3 1047   1.848   0.711   0.507  0.0318 -0.1579 -1.1319
  250SOL    MW4 1048   1.853   0.624   0.513 -0.1078 -0.0790  0.2099
  251SOL     OW 1049   3.612   1.114   1.157 -0.1147 -0.2487 -0.3015
  251SOL    HW2 1050   3.539   1.170   1.182 -0.1937 -0.2420 -0.5461
  251SOL    HW3 1051   3.690   1.161   1.187  0.0515  1.5684 -3.3381
  251SOL    MW4 1052   3.613   1.127   1.164 -0.1030 -0.0080 -0.7346
  252SOL     OW 1053   0.224   3.165   1.172  0.3125 -0.1213 -0.1800
  252SOL    HW2 1054   0.165   3.234   1.201  0.7403 -0.0009  0.4160
  252SOL    HW3 1055   0.197   3.087   1.220  1.3548  0.2005  0.9687
  252SOL    MW4 1056   0.213   3.164   1.182  0.5065 -0.0632  0.0499
  253SOL     OW 1057   1.548   1.257   0.814 -0.0955 -0.1606 -0.1084
  253SOL    HW2 1058   1.554   1.254   0.719 -1.1897  0.1193 -0.1988
  253SOL    HW3 1059   1.470   1.205   0.835 -0.6086  0.8504  0.5350
  253SOL    MW4 1060   1.538   1.250   0.804 -0.3074  0.0098 -0.0354
  254SOL     OW 1061   3.602   1.704   0.927 -0.1144  0.5416 -0.8106
  254SOL    HW2 1062   3.680   1.654   0.905 -1.1748 -0.5499 -2.1195
  254SOL    HW3 1063   3.611   1.722   1.021  1.0826 -0.6550 -0.6838
  254SOL    MW4 1064   3.614   1.700   0.937 -0.0966  0.2397 -0.9664
  255SOL     OW 1065   2.171   1.733   0.547  0.1352 -0.6453 -0.6058
  255SOL    HW2 1066   2.206   1.652   0.510  0.4362 -0.4817 -0.6803
  255SOL    HW3 1067   2.126   1.776   0.473  1.6912  0.2230 -1.0771
  255SOL    MW4 1068   2.169   1.728   0.532  0.3803 -0.5091 -0.6778
  256SOL     OW 1069   3.086   1.252   0.680  0.0326  0.2040  0.0011
  256SOL    HW2 1070   3.115   1.209   0.599 -2.2356  0.8773 -1.2303
  256SOL    HW3 1071   3.101   1.345   0.663 -0.5203  0.3492  0.3318
  256SOL    MW4 1072   3.092   1.259   0.667 -0.3395  0.3121 -0.1177
  257SOL     OW 1073   3.508   3.706   0.529  0.2865  0.0585  0.4572
  257SOL    HW2 1074   3.464   3.681   0.448 -1.4019  0.6699  1.1632
  257SOL    HW3 1075   3.575   3.639   0.541  0.2853 -0.2700 -1.2229
  257SOL    MW4 1076   3.511   3.693   0.520  0.0639  0.0958  0.3287
  258SOL     OW 1077   0.889   3.865   0.332 -0.2784 -0.4092  0.1479
  258SOL    HW2 1078   0.943   3.827   0.402 -0.5557 -0.3510  0.3966
  258SOL    HW3 1079   0.888   3.798   0.264 -2.2045 -1.6166  1.3082
  258SOL    MW4 1080   0.896   3.851   0.332 -0.5690 -0.5608  0.3338
  259SOL     OW 1081   2.215   2.318   0.525 -0.0582  0.1413 -0.0874
  259SOL    HW2 1082   2.160   2.395   0.531  0.9489  0.9225 -0.7098
  259SOL    HW3 1083   2.295   2.349   0.483  0.4833 -1.1698 -0.0464
  259SOL    MW4 1084   2.219   2.332   0.521  0.1462  0.0715 -0.1640
  260SOL     OW 1085   3.111   4.038   0.956  0.3313  0.1044  0.5101
  260SOL    HW2 1086   3.167   3.962   0.941 -0.5208 -0.1083 -1.8051
  260SOL    HW3 1087   3.033   4.021   0.903 -0.3991  2.0190  0.9217
  260SOL    MW4 1088   3.108   4.026   0.947  0.1223  0.3290  0.2589
  261SOL     OW 1089   0.702   2.095   0.886  0.1028 -0.6780  0.2475
  261SOL    HW2 1090   0.625   2.046   0.916 -2.0971  1.7839 -1.1768
  261SOL    HW3 1091   0.720   2.157   0.957 -1.1474  0.8162 -0.7209
  261SOL    MW4 1092   0.694   2.097   0.900 -0.3524 -0.1559 -0.0682
  262SOL     OW 1093   1.777   4.274   1.165  0.1151 -0.6055 -0.3520
  262SOL    HW2 1094   1.779   4.267   1.069  0.3356 -0.8681 -0.3274
  262SOL    HW3 1095   1.696   4.322   1.183  0.3286 -0.1049 -0.6980
  262SOL    MW4 1096   1.767   4.280   1.154  0.1724 -0.5741 -0.3943
  263SOL     OW 1097   1.938   2.604   0.861 -0.1172  0.6575  0.0647
  263SOL    HW2 1098   2.027   2.636   0.845  0.1412 -0.0912  0.0121
  263SOL    HW3 1099   1.941   2.511   0.838 -0.8523  0.5759  0.2888
  263SOL    MW4 1100   1.950   2.596   0.856 -0.1800  0.5479  0.0873
  264SOL     OW 1101   3.177   2.605   0.921  0.0407 -0.2283  0.2736
  264SOL    HW2 1102   3.257   2.553   0.928 -0.5355 -1.1803 -0.0831
  264SOL    HW3 1103   3.107   2.540   0.909 -0.8581  0.5522  1.1250
  264SOL    MW4 1104   3.178   2.590   0.921 -0.1540 -0.2511  0.3389
  265SOL     OW 1105   2.092   4.128   0.445  0.3368 -0.2552 -0.5222
  265SOL    HW2 1106   2.037   4.070   0.393 -0.2463 -0.5902  0.4385
  265SOL    HW3 1107   2.032   4.195   0.477  0.9924  0.8299 -1.5512
  265SOL    MW4 1108   2.077   4.129   0.443  0.3462 -0.1564 -0.5312
  266SOL     OW 1109   1.203   4.359   0.558  0.6322 -0.0931  0.2381
  266SOL    HW2 1110   1.151   4.375   0.637  0.1935  0.5619 -0.1770
  266SOL    HW3 1111   1.189   4.267   0.539 -0.2035  0.0228  0.2642
  266SOL    MW4 1112   1.194   4.349   0.566  0.4640  0.0086  0.1868
  267SOL     OW 1113   1.595   3.056   1.119  0.3331  0.3066 -0.3080
  267SOL    HW2 1114   1.526   3.117   1.145  0.1356 -0.2038  0.3794
  267SOL    HW3 1115   1.675   3.094   1.155  0.4516  1.0003 -1.2707
  267SOL    MW4 1116   1.596   3.069   1.127  0.3228  0.3307 -0.3443
  268SOL     OW 1117   2.829   3.561   0.765 -0.1397  0.2613  0.1093
  268SOL    HW2 1118   2.900   3.597   0.819 -1.4879 -1.6722  3.2716
  268SOL    HW3 1119   2.758   3.625   0.774 -0.3179  0.0063  0.5085
  268SOL    MW4 1120   2.829   3.575   0.773 -0.3409 -0.0274  0.5791
  269SOL     OW 1121   2.395   0.778   0.517 -0.1307  0.2680 -0.3320
  269SOL    HW2 1122   2.303   0.789   0.492 -0.1923  0.2095 -0.1333
  269SOL    HW3 1123   2.444   0.804   0.439 -0.3084  0.5977 -0.3360
  269SOL    MW4 1124   2.389   0.783   0.503 -0.1624  0.3038 -0.3063
  270SOL     OW 1125   4.256   4.637   0.849  0.0807  0.4137  0.3396
  270SOL    HW2 1126   4.251   4.726   0.813  1.6959  0.6861  0.7446
  270SOL    HW3 1127   4.248   4.649   0.943 -0.9921 -0.0049  0.3101
  270SOL    MW4 1128   4.254   4.651   0.857  0.1521  0.3939  0.3891
  271SOL     OW 1129   3.004   2.382   0.929  0.0077 -0.1200 -0.0397
  271SOL    HW2 1130   2.923   2.385   0.878  0.2630  0.5502 -0.4262
  271SOL    HW3 1131   2.976   2.377   1.020 -0.4548 -1.2845 -0.2429
  271SOL    MW4 1132   2.990   2.382   0.934 -0.0196 -0.1853 -0.1175
  272SOL     OW 1133   3.632   2.145   0.850  0.1164 -0.1311 -0.1036
  272SOL    HW2 1134   3.677   2.197   0.784  1.3192 -0.6552  0.2893
  272SOL    HW3 1135   3.543   2.181   0.853  0.4117  0.6954 -1.1220
  272SOL    MW4 1136   3.626   2.157   0.842  0.3142 -0.0913 -0.1861
  273SOL     OW 1137   3.879   3.017   1.142 -0.4423  0.0077  0.1429
  273SOL    HW2 1138   3.903   2.927   1.164 -1.0543 -0.0950  0.3743
  273SOL    HW3 1139   3.964   3.061   1.130 -0.1545 -0.9058 -1.2671
  273SOL    MW4 1140   3.894   3.011   1.143 -0.4852 -0.1261 -0.0126
  274SOL     OW 1141   2.516   4.162   0.708 -0.5904 -0.2367  0.5839
  274SOL    HW2 1142   2.436   4.204   0.678 -2.0237 -1.9535  1.8570
  274SOL    HW3 1143   2.555   4.125   0.629  0.2460  2.6365 -0.4155
  274SOL    MW4 1144   2.511   4.163   0.694 -0.6690 -0.0844  0.6201
  275SOL     OW 1145   2.465   1.380   0.741 -0.4895  0.1800  0.0941
  275SOL    HW2 1146   2.543   1.354   0.789 -0.5213 -0.0856  0.0033
  275SOL    HW3 1147   2.488   1.367   0.649 -0.6685  0.0222  0.0712
  275SOL    MW4 1148   2.478   1.375   0.735 -0.5171  0.1242  0.0791
  276SOL     OW 1149   0.754   3.281   0.780  0.0204 -0.2021  0.2038
  276SOL    HW2 1150   0.753   3.259   0.686 -0.7801  1.1955 -0.1253
  276SOL    HW3 1151   0.718   3.204   0.823  0.6482 -0.9666 -0.6079
  276SOL    MW4 1152   0.749   3.268   0.773 -0.0023 -0.1187  0.0533
  277SOL     OW 1153   3.108   2.205   0.752  0.1319  0.1795  0.1375
  277SOL    HW2 1154   3.078   2.269   0.817  0.9681 -0.7808  1.5033
  277SOL    HW3 1155   3.052   2.129   0.766  0.0376  0.1202 -0.5612
  277SOL    MW4 1156   3.097   2.204   0.762  0.2301  0.0451  0.2255
  278SOL     OW 1157   0.331   3.225   0.652  0.0053 -0.2297  0.1613
  278SOL    HW2 1158   0.344   3.190   0.740  1.3838 -1.4350 -0.4927
  278SOL    HW3 1159   0.290   3.153   0.604  2.7164 -0.9619 -1.1562
  278SOL    MW4 1160   0.327   3.211   0.657  0.5449 -0.4854 -0.0989
  279SOL     OW 1161   1.655   3.379   0.503 -0.0471 -0.0070 -0.3417
  279SOL    HW2 1162   1.577   3.427   0.475 -0.2239  0.6896  1.3215
  279SOL    HW3 1163   1.709   3.444   0.548  1.0108 -0.7319 -0.5407
  279SOL    MW4 1164   1.652   3.394   0.505  0.0693 -0.0107 -0.1485
  280SOL     OW 1165   3.921   2.122   0.862 -0.2730  0.3234 -0.3487
  280SOL    HW2 1166   3.826   2.107   0.870 -0.2846  0.3363 -0.4726
  280SOL    HW3 1167   3.960   2.039   0.889 -0.2791  0.7787  1.1287
  280SOL    MW4 1168   3.913   2.109   0.867 -0.2751  0.3850 -0.1702
  281SOL     OW 1169   1.077   0.717   0.439  0.1713 -0.4124  0.0444
  281SOL    HW2 1170   1.007   0.776   0.465 -0.1697 -0.9424  0.3380
  281SOL    HW3 1171   1.053   0.632   0.478  0.7969 -0.6752 -0.1342
  281SOL    MW4 1172   1.065   0.713   0.447  0.2087 -0.5170  0.0596
  282SOL     OW 1173   3.756   3.084   0.870 -0.1236  0.5222  0.3243
  282SOL    HW2 1174   3.672   3.040   0.856 -0.0369  0.8788 -1.4563
  282SOL    HW3 1175   3.781   3.061   0.959 -1.9963  0.2056  0.7852
  282SOL    MW4 1176   3.748   3.075   0.880 -0.3593  0.5276  0.1501
  283SOL     OW 1177   1.551   2.750   0.331 -0.4471 -0.0405 -0.2651
  283SOL    HW2 1178   1.618   2.686   0.309 -1.6170 -0.7716 -1.8579
  283SOL    HW3 1179   1.598   2.823   0.371  1.0157 -1.4849  0.6681
  283SOL    MW4 1180   1.566   2.751   0.333 -0.4084 -0.3271 -0.3521
  284SOL     OW 1181   1.333   3.635   0.503 -0.0896 -0.2977 -0.1997
  284SOL    HW2 1182   1.239   3.655   0.497 -0.6629 -2.1257  2.0568
  284SOL    HW3 1183   1.339   3.542   0.479  1.0290 -0.4075  0.4984
  284SOL    MW4 1184   1.321   3.625   0.499 -0.0176 -0.5534  0.1901
  285SOL     OW 1185   1.827   3.302   0.879  0.4382 -0.1501  0.1216
  285SOL    HW2 1186   1.746   3.294   0.829  0.7548 -0.4545 -0.3396
  285SOL    HW3 1187   1.800   3.343   0.961 -0.2877 -0.8592  0.2413
  285SOL    MW4 1188   1.812   3.307   0.883  0.3840 -0.2840  0.0765
  286SOL     OW 1189   0.629   3.613   0.735 -0.0393 -0.3143  0.0325
  286SOL    HW2 1190   0.582   3.542   0.779  0.2146  0.0667  0.9367
  286SOL    HW3 1191   0.565   3.685   0.731 -0.2943 -0.5873 -0.8749
  286SOL    MW4 1192   0.614   3.613   0.740 -0.0395 -0.3002  0.0321
  287SOL     OW 1193   0.053   4.088   1.256  0.1441  0.2423  0.6072
  287SOL    HW2 1194   0.009   4.082   1.340  0.4773  0.8187  0.8283
  287SOL    HW3 1195   0.081   3.998   1.237 -0.1704  0.0644  0.9779
  287SOL    MW4 1196   0.051   4.075   1.265  0.1466  0.2942  0.6853
  288SOL     OW 1197   1.128   1.514   0.409 -0.4531 -0.1902 -0.0039
  288SOL    HW2 1198   1.192   1.586   0.403 -1.3750  0.5440 -1.5774
  288SOL    HW3 1199   1.049   1.555   0.444  0.1033 -1.2221  2.4935
  288SOL    MW4 1200   1.126   1.529   0.413 -0.5016 -0.2295  0.1180
  289SOL     OW 1201   0.909   2.554   0.492  0.2116 -0.3087 -0.5135
  289SOL    HW2 1202   0.943   2.511   0.570  2.1490  1.1509 -0.5362
  289SOL    HW3 1203   0.929   2.494   0.420 -1.8399 -1.7914  0.1221
  289SOL    MW4 1204   0.916   2.541   0.493  0.1966 -0.3116 -0.4327
  290SOL     OW 1205   1.199   4.109   0.475 -0.3446 -0.0239 -0.0450
  290SOL    HW2 1206   1.174   4.063   0.555 -2.4871  0.2128 -0.5515
  290SOL    HW3 1207   1.118   4.116   0.425  1.4696 -2.6654 -3.5398
  290SOL    MW4 1208   1.185   4.104   0.479 -0.3880 -0.3414 -0.5729
  291SOL     OW 1209   4.021   2.410   0.690  0.6406  0.2751  0.4052
  291SOL    HW2 1210   3.944   2.354   0.692  0.1172  0.8574 -1.9654
  291SOL    HW3 1211   3.991   2.495   0.720  0.5934  0.2391  0.4582
  291SOL    MW4 1212   4.007   2.414   0.694  0.5651  0.3469  0.0995
  292SOL     OW 1213   4.061   4.467   0.733 -0.4983 -0.4357 -0.0288
  292SOL    HW2 1214   4.124   4.534   0.761 -0.2943 -0.0323 -1.4109
  292SOL    HW3 1215   4.060   4.474   0.638  0.3792 -3.1991 -0.2649
  292SOL    MW4 1216   4.069   4.477   0.724 -0.3552 -0.7467 -0.2424
  293SOL     OW 1217   0.419   0.044   0.767  0.4812 -0.6981 -0.5239
  293SOL    HW2 1218   0.411  -0.038   0.816 -2.6906 -0.5727 -0.7690
  293SOL    HW3 1219   0.422   0.018   0.675 -1.9458 -0.4984 -0.6823
  293SOL    MW4 1220   0.419   0.030   0.761 -0.2575 -0.6552 -0.5771
  294SOL     OW 1221   2.004   0.808   0.830 -0.1552  0.2955  0.0008
  294SOL    HW2 1222   2.034   0.874   0.767  0.4485 -0.7494 -0.8067
  294SOL    HW3 1223   2.061   0.733   0.817 -0.4820 -0.2081  1.3040
  294SOL    MW4 1224   2.015   0.807   0.820 -0.1187  0.0911  0.0662
  295SOL     OW 1225   4.485   0.320   0.935  0.5734 -0.5839  0.1040
  295SOL    HW2 1226   4.415   0.290   0.876 -0.1984  0.5087  0.4511
  295SOL    HW3 1227   4.554   0.254   0.926 -0.5255 -1.7105 -0.2005
  295SOL    MW4 1228   4.485   0.308   0.926  0.3266 -0.5884  0.1096
  296SOL     OW 1229   1.397   3.071   0.579  0.1599  0.4961  0.0501
  296SOL    HW2 1230   1.421   3.046   0.668  0.3125 -1.5981 -0.5585
  296SOL    HW3 1231   1.311   3.031   0.565 -0.2634  1.5667 -0.4326
  296SOL    MW4 1232   1.389   3.062   0.589  0.1241  0.3610 -0.0939
  297SOL     OW 1233   2.508   2.658   0.413  0.4816  0.0982  0.1367
  297SOL    HW2 1234   2.504   2.564   0.396  0.3455  0.4670 -2.0148
  297SOL    HW3 1235   2.417   2.687   0.413  0.5815  0.4370 -0.5328
  297SOL    MW4 1236   2.496   2.650   0.411  0.4766  0.1915 -0.2355
  298SOL     OW 1237   4.278   3.540   0.748  0.5898 -0.0822  0.3939
  298SOL    HW2 1238   4.257   3.459   0.702 -0.3294 -0.0683  0.7877
  298SOL    HW3 1239   4.323   3.594   0.683 -0.5340 -0.1370 -0.4320
  298SOL    MW4 1240   4.281   3.537   0.733  0.3195 -0.0875  0.3369
  299SOL     OW 1241   2.973   1.948   0.781 -0.8606  0.0788 -0.5687
  299SOL    HW2 1242   2.903   1.969   0.843 -0.3749  0.1582 -0.0383
  299SOL    HW3 1243   3.034   1.895   0.833 -1.1399 -1.0497 -1.3635
  299SOL    MW4 1244   2.972   1.943   0.796 -0.8333 -0.0596 -0.6035
  300SOL     OW 1245   0.958   4.133   0.368  0.4075 -0.5147 -0.0648
  300SOL    HW2 1246   0.931   4.042   0.360 -0.9068 -0.1236 -0.1026
  300SOL    HW3 1247   0.891   4.174   0.422  2.2619 -0.1115  2.0225
  300SOL    MW4 1248   0.946   4.126   0.374  0.4787 -0.4101  0.2056
  301SOL     OW 1249   1.735   3.840   0.788  0.0418 -0.2771  0.3536
  301SOL    HW2 1250   1.784   3.879   0.860  1.3107 -0.6010 -0.3375
  301SOL    HW3 1251   1.644   3.867   0.804  0.6395  1.5447  0.8121
  301SOL    MW4 1252   1.729   3.849   0.800  0.2880 -0.0794  0.3229
  302SOL     OW 1253   2.481   3.761   0.494 -0.0100 -0.3792  0.5359
  302SOL    HW2 1254   2.407   3.805   0.537  0.1450 -0.7814  1.2180
  302SOL    HW3 1255   2.529   3.831   0.450 -0.5488 -0.0563  0.4578
  302SOL    MW4 1256   2.477   3.776   0.494 -0.0606 -0.3896  0.6156
  303SOL     OW 1257   2.796   4.564   0.948 -0.6116 -0.1888  0.1730
  303SOL    HW2 1258   2.765   4.474   0.935  0.9686 -0.4574 -2.1845
  303SOL    HW3 1259   2.872   4.571   0.890  0.5284  2.0465  1.8685
  303SOL    MW4 1260   2.802   4.553   0.939 -0.2527  0.0706  0.0856
  304SOL     OW 1261   1.416   0.187   0.905  0.2300  0.2686 -0.2057
  304SOL    HW2 1262   1.324   0.166   0.889  0.1339  0.4698  0.0726
  304SOL    HW3 1263   1.442   0.237   0.828  0.2075 -0.1009 -0.4527
  304SOL    MW4 1264   1.407   0.191   0.893  0.2143  0.2464 -0.2016
  305SOL     OW 1265   3.157   1.151   1.202  0.1678 -0.1777  0.5079
  305SOL    HW2 1266   3.157   1.143   1.106 -0.8611 -1.0439  0.5698
  305SOL    HW3 1267   3.242   1.189   1.223  1.2487 -1.9406 -0.5972
  305SOL    MW4 1268   3.168   1.155   1.192  0.1745 -0.5245  0.3701
  306SOL     OW 1269   0.390   3.810   0.743  0.2044  0.2554 -0.0477
  306SOL    HW2 1270   0.424   3.831   0.656  1.6756  0.5153  0.5808
  306SOL    HW3 1271   0.381   3.895   0.787 -0.0964  0.0891  0.2141
  306SOL    MW4 1272   0.393   3.824   0.738  0.3588  0.2677  0.0699
  307SOL     OW 1273   2.975   2.605   0.432  0.1317  0.0026  0.2172
  307SOL    HW2 1274   2.955   2.534   0.494 -0.6563  0.2984  0.3036
  307SOL    HW3 1275   2.921   2.586   0.356  0.0550  0.4100  0.1684
  307SOL    MW4 1276   2.966   2.593   0.430  0.0174  0.0954  0.2222
  308SOL     OW 1277   0.043   1.806   0.756 -0.5115  0.4123 -0.2101
  308SOL    HW2 1278   0.043   1.893   0.796  0.6326  1.2174 -1.8750
  308SOL    HW3 1279   0.061   1.746   0.828  0.9360  1.7731  0.5944
  308SOL    MW4 1280   0.046   1.810   0.771 -0.1696  0.6980 -0.3236
  309SOL     OW 1281   4.407   2.218   0.415 -0.3020  0.0489  0.3016
  309SOL    HW2 1282   4.377   2.306   0.441 -0.6183 -0.0567  0.2963
  309SOL    HW3 1283   4.329   2.163   0.424 -1.1192  0.4900 -3.2979
  309SOL    MW4 1284   4.392   2.223   0.420 -0.4511  0.0932 -0.1741
  310SOL     OW 1285   3.457   0.527   0.745  0.3024  0.0135 -0.4572
  310SOL    HW2 1286   3.402   0.452   0.767  0.9000 -0.0580  0.8339
  310SOL    HW3 1287   3.546   0.495   0.757  0.5752  0.7597 -0.4948
  310SOL    MW4 1288   3.461   0.513   0.749  0.4170  0.1026 -0.2919
  311SOL     OW 1289   0.875   1.888   0.870  0.6368  0.0211 -0.0416
  311SOL    HW2 1290   0.953   1.929   0.833  0.2715  0.5381 -0.2451
  311SOL    HW3 1291   0.808   1.956   0.866  0.8970  0.4953  2.7338
  311SOL    MW4 1292   0.876   1.902   0.865  0.6229  0.1519  0.2978
  312SOL     OW 1293   0.879   2.302   0.342 -0.0722  0.6861  0.2745
  312SOL    HW2 1294   0.858   2.223   0.391 -0.1981  0.8464  0.4745
  312SOL    HW3 1295   0.795   2.342   0.323 -0.0479  0.4500 -0.3634
  312SOL    MW4 1296   0.865   2.297   0.346 -0.0856  0.6764  0.2167
  313SOL     OW 1297   3.332   3.352   0.433 -0.4798  0.6501  0.3909
  313SOL    HW2 1298   3.237   3.363   0.439 -0.5186  0.2125  0.6585
  313SOL    HW3 1299   3.360   3.338   0.524 -0.2503  0.0943  0.2389
  313SOL    MW4 1300   3.323   3.351   0.446 -0.4544  0.5188  0.4061
  314SOL     OW 1301   2.098   0.990   0.668  0.2922 -0.0443  0.0597
  314SOL    HW2 1302   2.029   1.056   0.661 -0.6091 -1.2057 -2.8013
  314SOL    HW3 1303   2.170   1.035   0.713 -0.6670  2.5937 -0.9474
  314SOL    MW4 1304   2.099   1.005   0.673  0.0467  0.1504 -0.4507
  315SOL     OW 1305   3.981   3.116   0.652 -0.2958 -0.7484  0.2287
  315SOL    HW2 1306   3.919   3.092   0.721 -0.5807  1.1465  0.6784
  315SOL    HW3 1307   3.950   3.070   0.574 -2.7592  0.7726  0.2631
  315SOL    MW4 1308   3.969   3.107   0.651 -0.6585 -0.2975  0.2927
  316SOL     OW 1309   3.369   3.068   0.320 -0.0377 -0.2348 -0.4157
  316SOL    HW2 1310   3.298   3.021   0.365 -0.3198  0.0799 -0.5304
  316SOL    HW3 1311   3.339   3.158   0.316  0.6350  0.0152  0.0602
  316SOL    MW4 1312   3.356   3.073   0.325  0.0141 -0.1600 -0.3680
  317SOL     OW 1313   0.427   1.001   0.537 -0.5962 -0.0451 -0.1733
  317SOL    HW2 1314   0.473   1.084   0.544 -2.0792  0.6560  1.3883
  317SOL    HW3 1315   0.491   0.936   0.568  0.1068  0.6538 -0.1467
  317SOL    MW4 1316   0.442   1.003   0.542 -0.6991  0.1397  0.0363
  318SOL     OW 1317   1.082   0.471   0.629  0.6757  0.1453 -0.0977
  318SOL    HW2 1318   1.022   0.510   0.693  0.0490 -0.5580 -0.2539
  318SOL    HW3 1319   1.169   0.499   0.657  0.4206 -0.3422  1.1893
  318SOL    MW4 1320   1.085   0.480   0.641  0.5593 -0.0118  0.0515
  319SOL     OW 1321   1.228   1.763   0.438  0.3928 -0.4845 -0.4475
  319SOL    HW2 1322   1.157   1.827   0.437 -0.0624 -1.0037 -1.0719
  319SOL    HW3 1323   1.244   1.746   0.531  0.6316  0.6577 -0.2675
  319SOL    MW4 1324   1.221   1.769   0.450  0.3643 -0.4025 -0.5061
  320SOL     OW 1325   1.645   2.960   0.461 -0.0816 -0.0806 -0.0912
  320SOL    HW2 1326   1.571   2.989   0.515 -1.3252 -0.5866 -1.4989
  320SOL    HW3 1327   1.662   3.034   0.402 -1.1389 -0.9370 -1.4864
  320SOL    MW4 1328   1.638   2.974   0.461 -0.3852 -0.2604 -0.4610
  321SOL     OW 1329   2.114   2.575   0.564  0.5828  0.2041 -0.2235
  321SOL    HW2 1330   2.141   2.643   0.502 -0.1902 -0.6260 -1.5048
  321SOL    HW3 1331   2.020   2.586   0.572  0.7314  0.5193  1.0751
  321SOL    MW4 1332   2.105   2.585   0.557  0.5002  0.1361 -0.2213
  322SOL     OW 1333   1.764   1.123   0.915 -0.3893  0.0301  0.4394
  322SOL    HW2 1334   1.678   1.160   0.898 -0.1606  0.2990 -0.1519
  322SOL    HW3 1335   1.765   1.040   0.866 -0.4356 -0.1399  0.7241
  322SOL    MW4 1336   1.753   1.117   0.906 -0.3653  0.0433  0.3989
  323SOL     OW 1337   3.750   4.147   0.509 -0.3812  0.5040 -0.3783
  323SOL    HW2 1338   3.700   4.079   0.463  1.5172 -0.6230 -0.8460
  323SOL    HW3 1339   3.757   4.218   0.446 -0.9411  0.4585 -0.4977
  323SOL    MW4 1340   3.744   4.147   0.495 -0.2048  0.3490 -0.4558
  324SOL     OW 1341   4.190   0.862   0.870 -0.3312 -0.0058 -0.1089
  324SOL    HW2 1342   4.099   0.877   0.841  0.5514  0.8823 -2.5665
  324SOL    HW3 1343   4.219   0.787   0.818  0.6761  0.4016 -0.1398
  324SOL    MW4 1344   4.182   0.854   0.859 -0.0820  0.1652 -0.4371
  325SOL     OW 1345   2.907   2.866   0.491 -0.0692  0.4034  0.5907
  325SOL    HW2 1346   2.932   2.775   0.470 -0.6099 -0.2655  2.6960
  325SOL    HW3 1347   2.823   2.878   0.448  0.8271  0.5148 -1.1820
  325SOL    MW4 1348   2.899   2.855   0.483 -0.0222  0.3300  0.6346
  326SOL     OW 1349   3.289   2.821   0.774 -0.2491  0.0209  0.2232
  326SOL    HW2 1350   3.241   2.764   0.833  0.5982 -0.8687  0.0758
  326SOL    HW3 1351   3.265   2.909   0.801 -1.1174 -0.3937  0.8414
  326SOL    MW4 1352   3.280   2.825   0.785 -0.2518 -0.1512  0.2853
  327SOL     OW 1353   3.123   1.899   1.194 -0.3013  0.3362  0.1698
  327SOL    HW2 1354   3.110   1.823   1.250 -0.0428  0.5611  0.5401
  327SOL    HW3 1355   3.040   1.946   1.197 -0.2590  0.3954  0.4427
  327SOL    MW4 1356   3.110   1.896   1.202 -0.2618  0.3737  0.2546
  328SOL     OW 1357   1.916   3.038   0.895 -0.1739  0.1483 -0.0857
  328SOL    HW2 1358   1.948   3.030   0.985  1.1783  0.1349 -0.5706
  328SOL    HW3 1359   1.892   3.131   0.887 -0.6733  0.0691  0.3998
  328SOL    MW4 1360   1.917   3.049   0.906 -0.0614  0.1361 -0.0856
  329SOL     OW 1361   3.156   3.643   0.535 -0.1870  0.4567 -0.0263
  329SOL    HW2 1362   3.216   3.643   0.460 -1.3586  0.8110 -1.0012
  329SOL    HW3 1363   3.125   3.553   0.541 -2.1587  0.9623 -1.7288
  329SOL    MW4 1364   3.160   3.631   0.526 -0.6015  0.5701 -0.3795
  330SOL     OW 1365   0.131   1.262   1.260 -0.3608 -0.5981  0.5526
  330SOL    HW2 1366   0.212   1.221   1.230 -0.5228 -0.6784  0.2208
  330SOL    HW3 1367   0.069   1.190   1.264 -0.7559 -0.3249 -0.4152
  330SOL    MW4 1368   0.134   1.247   1.256 -0.4343 -0.5726  0.3810
  331SOL     OW 1369   3.396   0.011   0.829  0.0173  0.1252 -0.3711
  331SOL    HW2 1370   3.478   0.017   0.878 -0.7715  1.0744  0.8714
  331SOL    HW3 1371   3.348  -0.060   0.871  0.3464 -0.7147 -1.3673
  331SOL    MW4 1372   3.401   0.002   0.841 -0.0434  0.1392 -0.3386
  332SOL     OW 1373   0.020   2.044   0.890  0.5472  0.3256 -0.0933
  332SOL    HW2 1374   0.108   2.079   0.874  0.4823  0.3940 -0.3027
  332SOL    HW3 1375   0.017   2.029   0.984  1.1642 -0.6843 -0.2243
  332SOL    MW4 1376   0.031   2.047   0.900  0.6200  0.2015 -0.1382
  333SOL     OW 1377   0.496   2.378   1.262  0.0335  0.2604  0.2540
  333SOL    HW2 1378   0.495   2.469   1.231 -0.4459  0.1488 -0.0709
  333SOL    HW3 1379   0.444   2.380   1.342  0.1995  0.3144  0.3595
  333SOL    MW4 1380   0.489   2.390   1.268 -0.0079  0.2530  0.2252
  334SOL     OW 1381   2.741   1.985   0.918  0.2507  0.3045 -0.0424
  334SOL    HW2 1382   2.705   1.921   0.856  0.4004  1.3192 -1.1787
  334SOL    HW3 1383   2.714   1.952   1.004 -0.7356 -0.6200 -0.6968
  334SOL    MW4 1384   2.733   1.972   0.921  0.1404  0.3164 -0.2787
  335SOL     OW 1385   0.905   4.194   0.812 -0.0674 -0.0193  0.2531
  335SOL    HW2 1386   0.972   4.135   0.777 -1.0447 -1.2987  0.5120
  335SOL    HW3 1387   0.823   4.145   0.804 -0.5860  0.4570  2.4886
  335SOL    MW4 1388   0.903   4.180   0.806 -0.2648 -0.1254  0.5823
  336SOL     OW 1389   1.992   3.492   0.744  0.5192 -0.0062  0.0854
  336SOL    HW2 1390   1.944   3.414   0.772  0.4240  0.6853  1.8958
  336SOL    HW3 1391   2.042   3.463   0.668 -1.5395 -1.1480 -0.8736
  336SOL    MW4 1392   1.992   3.478   0.738  0.2350 -0.0658  0.1978
  337SOL     OW 1393   4.223   3.287   0.645  0.3528  0.1810 -0.0958
  337SOL    HW2 1394   4.261   3.235   0.575  0.9448 -0.4499  0.6811
  337SOL    HW3 1395   4.128   3.274   0.636  0.3819  0.7518 -1.2603
  337SOL    MW4 1396   4.215   3.278   0.635  0.4349  0.1731 -0.1470
  338SOL     OW 1397   3.929   0.319   0.901  0.1050  0.4406 -0.0851
  338SOL    HW2 1398   3.886   0.246   0.856  0.2087  0.7419 -0.6804
  338SOL    HW3 1399   3.858   0.381   0.919  0.3905  1.3194 -1.8158
  338SOL    MW4 1400   3.914   0.318   0.897  0.1562  0.5963 -0.3920
  339SOL     OW 1401   0.910   4.014   1.239 -0.0098 -0.0000 -0.1001
  339SOL    HW2 1402   0.846   3.943   1.236 -0.2233  0.2332 -1.1381
  339SOL    HW3 1403   0.922   4.032   1.332 -0.1585 -1.2167  0.1602
  339SOL    MW4 1404   0.903   4.007   1.251 -0.0577 -0.1302 -0.2027
  340SOL     OW 1405   1.389   0.331   1.148 -0.0740 -0.1208  0.7177
  340SOL    HW2 1406   1.400   0.290   1.063 -2.1292  2.6330 -0.9887
  340SOL    HW3 1407   1.335   0.270   1.198  0.2311 -1.2733 -0.3500
  340SOL    MW4 1408   1.383   0.318   1.143 -0.3051  0.0905  0.3518
  341SOL     OW 1409   0.004   2.526   0.638 -0.3447 -0.3071 -0.5903
  341SOL    HW2 1410  -0.032   2.533   0.727  0.6880  0.3204 -0.2212
  341SOL    HW3 1411  -0.069   2.493   0.586 -0.3408 -2.7108  0.8893
  341SOL    MW4 1412  -0.011   2.523   0.643 -0.2079 -0.5414 -0.3464
  342SOL     OW 1413   2.716   4.434   0.168  0.0983 -0.0565  0.2788
  342SOL    HW2 1414   2.706   4.513   0.220  2.6733  0.0524  0.6983
  342SOL    HW3 1415   2.720   4.465   0.077  0.7025  0.2541  0.4127
  342SOL    MW4 1416   2.715   4.449   0.163  0.5178 -0.0010  0.3518
  343SOL     OW 1417   2.209   3.856   0.817 -0.4027  0.1710 -0.6723
  343SOL    HW2 1418   2.211   3.860   0.721  0.2232 -0.7357 -0.7116
  343SOL    HW3 1419   2.149   3.925   0.843  0.1468  1.0503 -1.6851
  343SOL    MW4 1420   2.202   3.865   0.808 -0.2475  0.1674 -0.8112
  344SOL     OW 1421   3.762   0.431   0.460  0.0225  0.5789  0.1689
  344SOL    HW2 1422   3.775   0.503   0.521  2.6752  0.2042  0.1411
  344SOL    HW3 1423   3.727   0.360   0.513  0.2231  0.9623  0.8142
  344SOL    MW4 1424   3.759   0.431   0.475  0.3991  0.5801  0.2504
  345SOL     OW 1425   3.088   4.609   0.327 -0.3042 -0.5460 -0.1399
  345SOL    HW2 1426   3.011   4.653   0.364  0.4544  0.7446 -0.0539
  345SOL    HW3 1427   3.057   4.522   0.303 -1.5715 -0.3403  0.7051
  345SOL    MW4 1428   3.074   4.604   0.329 -0.3712 -0.3490 -0.0170
  346SOL     OW 1429   2.536   0.549   0.568 -0.1570  0.4718 -0.3954
  346SOL    HW2 1430   2.535   0.531   0.662 -0.7305 -1.6440 -0.7882
  346SOL    HW3 1431   2.495   0.636   0.560 -0.9638  0.2567  1.2158
  346SOL    MW4 1432   2.531   0.558   0.579 -0.3388  0.1642 -0.2347
  347SOL     OW 1433   0.199   1.524   1.176  0.5549  0.3949  0.2591
  347SOL    HW2 1434   0.269   1.538   1.239  3.2328  1.0670 -2.7489
  347SOL    HW3 1435   0.170   1.434   1.193  1.1158  0.5841  2.4665
  347SOL    MW4 1436   0.204   1.514   1.187  0.9822  0.5085  0.1534
  348SOL     OW 1437   0.373   1.582   0.749  0.3361  0.0265  0.2237
  348SOL    HW2 1438   0.312   1.597   0.821 -0.7863 -0.1436 -0.6802
  348SOL    HW3 1439   0.403   1.669   0.724 -0.5353  0.2069 -0.1885
  348SOL    MW4 1440   0.369   1.595   0.755  0.0730  0.0279  0.0501
  349SOL     OW 1441   3.809   4.371   0.350 -0.0188  0.1015  0.4615
  349SOL    HW2 1442   3.901   4.396   0.361  0.5905 -0.3175 -3.0327
  349SOL    HW3 1443   3.760   4.453   0.359  1.0441  0.9246 -1.1186
  349SOL    MW4 1444   3.815   4.385   0.353  0.2017  0.1550 -0.2080
  350SOL     OW 1445   0.654   3.122   0.371 -0.4852 -0.1444 -0.5617
  350SOL    HW2 1446   0.589   3.056   0.396  0.7023 -0.9662  0.4343
  350SOL    HW3 1447   0.666   3.110   0.276 -0.5599 -1.1095 -0.4505
  350SOL    MW4 1448   0.647   3.112   0.361 -0.3383 -0.3800 -0.4156
  351SOL     OW 1449   1.529   1.535   0.906 -0.0814  0.0738  0.2321
  351SOL    HW2 1450   1.611   1.583   0.896  0.4590 -0.6203  1.2988
  351SOL    HW3 1451   1.553   1.443   0.899 -1.1065 -0.0736 -1.6742
  351SOL    MW4 1452   1.543   1.530   0.904 -0.1453 -0.0373  0.1214
  352SOL     OW 1453   2.456   1.652   0.829  0.1053  0.0874 -0.3422
  352SOL    HW2 1454   2.454   1.572   0.776 -1.3062 -0.0648 -0.0846
  352SOL    HW3 1455   2.461   1.621   0.919  0.0053  0.2979 -0.2637
  352SOL    MW4 1456   2.456   1.637   0.834 -0.0939  0.0951 -0.2979
  353SOL     OW 1457   1.111   2.063   1.258  0.2923  0.6006 -0.1780
  353SOL    HW2 1458   1.087   2.075   1.350  1.6893  0.9966  0.1435
  353SOL    HW3 1459   1.128   2.152   1.226  2.1536  0.2592 -0.1602
  353SOL    MW4 1460   1.110   2.077   1.266  0.7222  0.6077 -0.1333
  354SOL     OW 1461   1.331   1.119   0.914  0.3627  0.2485 -0.3368
  354SOL    HW2 1462   1.321   1.130   1.009  1.8096  0.3372 -0.1859
  354SOL    HW3 1463   1.250   1.155   0.878 -0.5314 -0.4744  0.9027
  354SOL    MW4 1464   1.319   1.125   0.922  0.4355  0.1647 -0.1533
  355SOL     OW 1465   1.921   1.723   0.196 -0.0606  0.0393 -0.1191
  355SOL    HW2 1466   1.848   1.781   0.218 -0.2575  0.0307 -0.7475
  355SOL    HW3 1467   1.998   1.781   0.196  0.0309 -0.0556  1.0951
  355SOL    MW4 1468   1.922   1.738   0.199 -0.0745  0.0255 -0.0418
  356SOL     OW 1469   2.275   4.330   0.311  0.4167 -0.3392  0.3429
  356SOL    HW2 1470   2.220   4.251   0.315 -1.5591  0.8525 -1.8194
  356SOL    HW3 1471   2.213   4.402   0.307  2.1812  1.2194  0.4303
  356SOL    MW4 1472   2.260   4.329   0.311  0.3889  0.0234  0.0691
  357SOL     OW 1473   3.259   4.227   0.792  0.0109  0.0873  0.2961
  357SOL    HW2 1474   3.234   4.200   0.704  1.3942 -0.7918  0.1478
  357SOL    HW3 1475   3.205   4.173   0.850  0.4938 -0.7370 -0.0140
  357SOL    MW4 1476   3.249   4.216   0.788  0.2573 -0.1373  0.2356
  358SOL     OW 1477   4.157   2.771   1.178  0.4553  0.2570  0.2413
  358SOL    HW2 1478   4.068   2.760   1.212  0.3193  0.6732  0.0179
  358SOL    HW3 1479   4.208   2.704   1.224  0.2339  0.6685  1.1088
  358SOL    MW4 1480   4.152   2.761   1.189  0.4082  0.3664  0.3263
  359SOL     OW 1481   2.820   3.898   0.677  0.1759 -0.1201  0.1667
  359SOL    HW2 1482   2.742   3.849   0.702 -0.3138  0.4444 -0.2798
  359SOL    HW3 1483   2.810   3.983   0.720  0.9065 -0.3160  0.7339
  359SOL    MW4 1484   2.809   3.903   0.686  0.2079 -0.0710  0.1826
  360SOL     OW 1485   1.339   2.667   1.178 -0.0770 -0.0591  0.0215
  360SOL    HW2 1486   1.415   2.720   1.203 -0.6838  0.5202  0.6731
  360SOL    HW3 1487   1.264   2.718   1.208 -0.7125 -0.7576 -0.3752
  360SOL    MW4 1488   1.339   2.681   1.185 -0.2409 -0.0746  0.0552
  361SOL     OW 1489   0.613   1.191   0.842  0.3306  0.3920 -0.0416
  361SOL    HW2 1490   0.546   1.133   0.879  0.5884  0.2012  0.1246
  361SOL    HW3 1491   0.696   1.154   0.872  0.5241  0.4627 -0.4849
  361SOL    MW4 1492   0.615   1.178   0.851  0.3902  0.3761 -0.0782
  362SOL     OW 1493   2.948   0.215   0.750 -0.4518 -0.2394 -0.3259
  362SOL    HW2 1494   2.990   0.297   0.724 -0.6066 -0.4457 -1.2166
  362SOL    HW3 1495   2.865   0.243   0.790  0.0910  0.1089  0.5937
  362SOL    MW4 1496   2.942   0.229   0.752 -0.4008 -0.2207 -0.3220
  363SOL     OW 1497   2.477   4.617   0.625 -0.5567 -0.0368 -0.2457
  363SOL    HW2 1498   2.436   4.661   0.551 -0.0084  0.3887 -0.3056
  363SOL    HW3 1499   2.437   4.530   0.627  1.3981 -1.0659 -2.7647
  363SOL    MW4 1500   2.467   4.611   0.615 -0.2263 -0.1163 -0.5860
  364SOL     OW 1501   2.957   3.707   0.361 -0.1580  0.1182  0.0684
  364SOL    HW2 1502   2.885   3.645   0.376  0.1745 -0.3930 -0.4204
  364SOL    HW3 1503   3.028   3.677   0.417  0.6969 -1.1400 -1.6214
  364SOL    MW4 1504   2.957   3.695   0.370 -0.0014 -0.1152 -0.2190
  365SOL     OW 1505   0.813   2.655   0.893 -0.7454  0.3656  0.2886
  365SOL    HW2 1506   0.718   2.643   0.891 -0.4670 -2.4041  1.4431
  365SOL    HW3 1507   0.833   2.676   0.984 -0.1251 -0.4844  0.3595
  365SOL    MW4 1508   0.803   2.656   0.905 -0.6269 -0.1118  0.4503
  366SOL     OW 1509   1.830   2.689   0.599  0.5093 -0.0519  0.5851
  366SOL    HW2 1510   1.738   2.715   0.601  0.5479  0.0448  1.3766
  366SOL    HW3 1511   1.851   2.665   0.690  1.2839  0.0031  0.4317
  366SOL    MW4 1512   1.821   2.689   0.611  0.6166 -0.0317  0.6693
  367SOL     OW 1513   2.442   2.383   0.374 -0.2253  0.7533 -0.3875
  367SOL    HW2 1514   2.424   2.366   0.282  2.3492  3.3102 -1.4516
  367SOL    HW3 1515   2.503   2.314   0.401 -0.0048  0.7173 -0.9829
  367SOL    MW4 1516   2.448   2.372   0.366  0.1435  1.0860 -0.6065
  368SOL     OW 1517   1.334   3.635   0.792 -0.3316  0.4185 -0.5218
  368SOL    HW2 1518   1.363   3.633   0.700  0.9245 -2.2547 -0.1247
  368SOL    HW3 1519   1.390   3.701   0.833  1.0519 -0.3930 -1.0816
  368SOL    MW4 1520   1.345   3.644   0.785  0.0167 -0.0415 -0.5433
  369SOL     OW 1521   1.131   3.072   1.178 -0.1851  0.0162 -0.3089
  369SOL    HW2 1522   1.108   3.044   1.089  1.2183  0.1721 -0.7502
  369SOL    HW3 1523   1.153   2.991   1.224  0.4197  0.0519 -0.5250
  369SOL    MW4 1524   1.131   3.058   1.172  0.0799  0.0415 -0.3955
  370SOL     OW 1525   0.892   1.610   0.503  0.2913  0.4474  0.5594
  370SOL    HW2 1526   0.880   1.620   0.597  1.0148  1.0114  0.5987
  370SOL    HW3 1527   0.843   1.683   0.465  0.5028  0.5771  0.5334
  370SOL    MW4 1528   0.884   1.621   0.510  0.4146  0.5388  0.5611
  371SOL     OW 1529   2.298   2.998   0.576  0.1825  0.2846 -0.0116
  371SOL    HW2 1530   2.245   2.969   0.650  0.6865 -1.1411 -0.2075
  371SOL    HW3 1531   2.386   3.005   0.612  0.3584 -0.0287 -0.3918
  371SOL    MW4 1532   2.302   2.995   0.591  0.2723  0.0551 -0.0876
  372SOL     OW 1533   3.957   4.248   1.156 -0.4262 -0.2862 -0.1841
  372SOL    HW2 1534   3.891   4.303   1.199  0.0576  0.5376 -0.4681
  372SOL    HW3 1535   3.947   4.267   1.063  0.4700  0.1733 -0.2051
  372SOL    MW4 1536   3.947   4.258   1.150 -0.2439 -0.1168 -0.2244
  373SOL     OW 1537   3.979   1.355   0.472 -0.3276 -0.1027  0.4744
  373SOL    HW2 1538   3.985   1.450   0.482 -0.4537 -0.2048  1.6029
  373SOL    HW3 1539   3.912   1.342   0.404 -0.4277  0.6130  0.4326
  373SOL    MW4 1540   3.971   1.366   0.465 -0.3572 -0.0218  0.6178
  374SOL     OW 1541   1.053   1.219   0.824 -0.5790 -0.5329 -0.2528
  374SOL    HW2 1542   1.062   1.194   0.732 -0.0436 -0.4843 -0.2137
  374SOL    HW3 1543   1.051   1.315   0.822 -0.6704 -0.5342 -0.2230
  374SOL    MW4 1544   1.054   1.229   0.812 -0.5203 -0.5265 -0.2437
  375SOL     OW 1545   4.270   4.324   0.445 -0.1445  0.3313 -0.0702
  375SOL    HW2 1546   4.277   4.299   0.537  3.5786  0.6241 -0.2232
  375SOL    HW3 1547   4.257   4.241   0.399 -0.7764  0.0620  0.5803
  375SOL    MW4 1548   4.269   4.310   0.451  0.2632  0.3347 -0.0046
  376SOL     OW 1549   2.334   4.362   0.596  0.4046 -0.0130  0.2608
  376SOL    HW2 1550   2.267   4.319   0.649 -0.7209  1.0853 -0.2451
  376SOL    HW3 1551   2.313   4.337   0.506  1.3516 -0.5672  0.1862
  376SOL    MW4 1552   2.322   4.353   0.591  0.3812  0.0591  0.1842
  377SOL     OW 1553   2.988   4.364   0.278  0.2015 -0.0598  0.0214
  377SOL    HW2 1554   3.025   4.276   0.288  0.4557 -0.0362 -0.6759
  377SOL    HW3 1555   2.918   4.354   0.213 -0.2730  0.1103  0.5010
  377SOL    MW4 1556   2.984   4.351   0.271  0.1729 -0.0343 -0.0073
  378SOL     OW 1557   1.802   1.666   0.832 -0.6000  0.4689  0.6130
  378SOL    HW2 1558   1.798   1.756   0.865 -1.0647  0.9526 -0.7478
  378SOL    HW3 1559   1.879   1.629   0.875 -0.8559  1.2663  1.7859
  378SOL    MW4 1560   1.812   1.673   0.842 -0.6951  0.6379  0.5881
  379SOL     OW 1561   3.458   3.269   0.679 -0.3816 -0.5126 -0.2605
  379SOL    HW2 1562   3.489   3.201   0.619 -0.4102  1.0478 -2.1018
  379SOL    HW3 1563   3.537   3.304   0.719 -0.3774 -1.6998  0.8039
  379SOL    MW4 1564   3.472   3.265   0.676 -0.3848 -0.4635 -0.3630
  380SOL     OW 1565   0.512   2.897   0.450  0.6586  0.2650 -0.0896
  380SOL    HW2 1566   0.565   2.822   0.426  1.1194  0.3796  0.5875
  380SOL    HW3 1567   0.519   2.903   0.545  0.7484  1.2491 -0.1532
  380SOL    MW4 1568   0.520   2.888   0.459  0.7312  0.4101 -0.0087
  381SOL     OW 1569   1.427   1.956   0.386  0.1851  0.2211  0.1517
  381SOL    HW2 1570   1.490   1.921   0.323 -0.4114  1.4399 -1.1202
  381SOL    HW3 1571   1.374   1.880   0.411  0.6136 -0.3157 -0.5704
  381SOL    MW4 1572   1.428   1.941   0.381  0.1631  0.3111 -0.1114
  382SOL     OW 1573   2.672   4.327   0.847  0.3730  0.8007  0.3565
  382SOL    HW2 1574   2.604   4.263   0.821  0.4294  0.5416  0.8490
  382SOL    HW3 1575   2.674   4.390   0.775  0.1120  0.4042 -0.0005
  382SOL    MW4 1576   2.663   4.327   0.834  0.3462  0.7143  0.3744
  383SOL     OW 1577   0.556   4.428   0.401 -0.0687 -0.1640  0.1482
  383SOL    HW2 1578   0.483   4.367   0.400 -0.7405  0.5749  1.8942
  383SOL    HW3 1579   0.521   4.507   0.442  0.8600  1.3141 -1.8415
  383SOL    MW4 1580   0.542   4.430   0.406 -0.0347  0.1292  0.1161
  384SOL     OW 1581   0.433   4.632   0.503  0.5060 -0.7002 -0.2844
  384SOL    HW2 1582   0.419   4.715   0.457  0.8939 -1.2205 -1.3524
  384SOL    HW3 1583   0.347   4.590   0.504  0.4925 -0.6751 -0.4989
  384SOL    MW4 1584   0.420   4.638   0.497  0.5554 -0.7655 -0.4537
  385SOL     OW 1585   0.414   0.107   1.304 -0.8287 -0.2936  0.2844
  385SOL    HW2 1586   0.419   0.202   1.305  0.4856 -0.3559  0.1290
  385SOL    HW3 1587   0.331   0.088   1.260 -1.4334  0.7796  0.9470
  385SOL    MW4 1588   0.403   0.117   1.298 -0.7351 -0.1603  0.3513
  386SOL     OW 1589   0.592   2.435   0.270  0.2308  0.2842  0.6634
  386SOL    HW2 1590   0.534   2.484   0.213 -0.2729 -0.0049  0.9291
  386SOL    HW3 1591   0.537   2.369   0.311  1.0239 -0.9145 -0.1658
  386SOL    MW4 1592   0.577   2.433   0.268  0.2690  0.0877  0.5890
  387SOL     OW 1593   0.430   0.311   0.950  0.2934  0.1500 -0.2391
  387SOL    HW2 1594   0.450   0.312   1.043 -1.5180 -0.6406  0.1667
  387SOL    HW3 1595   0.393   0.398   0.932  0.8819  0.3948 -0.2913
  387SOL    MW4 1596   0.428   0.323   0.960  0.1321  0.0780 -0.1925
  388SOL     OW 1597   2.675   1.297   0.910  0.1121  0.6426  0.1019
  388SOL    HW2 1598   2.726   1.372   0.876 -0.1068  0.8493  0.2282
  388SOL    HW3 1599   2.710   1.222   0.862  0.1123  0.8684 -0.2605
  388SOL    MW4 1600   2.687   1.297   0.899  0.0832  0.6998  0.0708
  389SOL     OW 1601   0.787   4.572   0.479  0.0371  0.4453 -0.1953
  389SOL    HW2 1602   0.861   4.540   0.428 -1.1161 -1.8863 -0.4808
  389SOL    HW3 1603   0.711   4.530   0.438 -1.4057  2.5019  0.3229
  389SOL    MW4 1604   0.787   4.562   0.467 -0.3054  0.4091 -0.1646
  390SOL     OW 1605   3.061   3.285   0.768  0.0488 -0.4647 -0.1029
  390SOL    HW2 1606   3.139   3.231   0.784  0.2450  0.0006  0.5356
  390SOL    HW3 1607   2.990   3.237   0.812  0.1438 -0.4221  0.0968
  390SOL    MW4 1608   3.062   3.271   0.776  0.0870 -0.3977  0.0077
  391SOL     OW 1609   3.419   4.558   0.592 -0.1690  0.1862  0.2829
  391SOL    HW2 1610   3.478   4.487   0.618 -0.6115  0.2221  1.3869
  391SOL    HW3 1611   3.411   4.614   0.669 -0.8254  0.7464 -0.1800
  391SOL    MW4 1612   3.426   4.556   0.605 -0.3140  0.2646  0.3675
  392SOL     OW 1613   2.169   1.424   0.433  0.1011  0.1312 -0.1828
  392SOL    HW2 1614   2.140   1.422   0.524 -0.4760 -0.5982 -0.3743
  392SOL    HW3 1615   2.091   1.449   0.383  0.3226  0.1853 -0.5046
  392SOL    MW4 1616   2.155   1.427   0.438  0.0546  0.0420 -0.2505
  393SOL     OW 1617   0.760   0.145   0.623 -0.1006  0.3419  0.0344
  393SOL    HW2 1618   0.779   0.069   0.568  0.4002  0.1776  0.4356
  393SOL    HW3 1619   0.700   0.198   0.570  0.1511  0.0417 -0.5547
  393SOL    MW4 1620   0.755   0.142   0.608 -0.0013  0.2806  0.0096
  394SOL     OW 1621   3.041   4.613   0.824 -0.1142  0.8012  0.0370
  394SOL    HW2 1622   3.085   4.578   0.746  1.1551  0.9311  0.6745
  394SOL    HW3 1623   3.016   4.702   0.800  0.0360  0.7475 -0.3207
  394SOL    MW4 1624   3.044   4.620   0.811  0.0730  0.8111  0.0739
  395SOL     OW 1625   1.500   2.995   0.824 -0.0434  0.8460  0.0979
  395SOL    HW2 1626   1.515   2.979   0.917  2.3158  1.0451 -0.2346
  395SOL    HW3 1627   1.515   2.910   0.783 -2.1111  0.4986 -0.0310
  395SOL    MW4 1628   1.504   2.981   0.831 -0.0049  0.8266  0.0370
  396SOL     OW 1629   2.933   2.382   0.580  0.0064  0.4874  0.2885
  396SOL    HW2 1630   3.013   2.365   0.630 -0.4593 -0.2417  0.7973
  396SOL    HW3 1631   2.867   2.402   0.646 -0.2757  0.9373 -0.1245
  396SOL    MW4 1632   2.935   2.382   0.595 -0.0923  0.4504  0.3012
  397SOL     OW 1633   3.629   0.976   0.905 -0.0312  0.4712  0.1123
  397SOL    HW2 1634   3.635   1.047   0.841 -0.4549  0.9019  0.5438
  397SOL    HW3 1635   3.634   1.020   0.990 -2.5630  0.2277  0.4169
  397SOL    MW4 1636   3.630   0.991   0.908 -0.4210  0.4959  0.2093
  398SOL     OW 1637   0.412   1.024   0.945  0.2215  0.2001  0.2716
  398SOL    HW2 1638   0.415   1.027   1.040 -2.0825 -1.5824  0.4435
  398SOL    HW3 1639   0.331   1.070   0.922  1.4400  1.8425 -0.9442
  398SOL    MW4 1640   0.402   1.031   0.954  0.0783  0.1816  0.1338
  399SOL     OW 1641   2.813   0.827   0.768 -0.1306  0.5378  0.2320
  399SOL    HW2 1642   2.887   0.795   0.820  0.9770  0.5387 -1.2980
  399SOL    HW3 1643   2.823   0.922   0.767 -2.1193  0.8061  2.8686
  399SOL    MW4 1644   2.824   0.835   0.774 -0.2470  0.5733  0.3780
  400SOL     OW 1645   0.901   0.401   1.150 -0.2311 -0.3769 -0.0142
  400SOL    HW2 1646   0.900   0.307   1.169 -0.2918 -0.8036 -2.0276
  400SOL    HW3 1647   0.993   0.419   1.129  0.1290  0.4016  2.1047
  400SOL    MW4 1648   0.913   0.391   1.150 -0.1916 -0.3305 -0.0002
  401SOL     OW 1649   4.195   2.323   0.896  0.2770  0.2095 -0.0086
  401SOL    HW2 1650   4.129   2.353   0.834  0.8916 -0.8732 -1.1883
  401SOL    HW3 1651   4.273   2.374   0.875  0.8414 -1.0091 -0.9443
  401SOL    MW4 1652   4.196   2.334   0.885  0.4325 -0.0942 -0.2877
  402SOL     OW 1653   2.872   4.141   0.801  0.1362 -0.2128  0.4418
  402SOL    HW2 1654   2.809   4.202   0.841  1.4867  0.7396  1.1578
  402SOL    HW3 1655   2.913   4.192   0.731  1.5178 -0.1765  1.2633
  402SOL    MW4 1656   2.869   4.156   0.797  0.4971 -0.0825  0.6446
  403SOL     OW 1657   1.423   3.929   0.489 -0.8233 -0.8213 -0.3573
  403SOL    HW2 1658   1.387   3.840   0.490 -1.2792 -0.6457  1.5027
  403SOL    HW3 1659   1.355   3.982   0.448 -0.1669 -1.4659 -2.3203
  403SOL    MW4 1660   1.409   3.924   0.484 -0.7969 -0.8831 -0.3709
  404SOL     OW 1661   3.545   1.525   0.204 -0.0741 -0.7694  0.1787
  404SOL    HW2 1662   3.544   1.596   0.269  1.4450 -2.8791  2.6148
  404SOL    HW3 1663   3.572   1.567   0.123  0.2074  1.5492  1.4259
  404SOL    MW4 1664   3.548   1.540   0.202  0.1636 -0.7418  0.6647
  405SOL     OW 1665   0.384   0.572   0.875 -0.0053  0.1712 -0.4313
  405SOL    HW2 1666   0.414   0.574   0.785  0.9936 -0.5127 -0.1137
  405SOL    HW3 1667   0.297   0.611   0.872  0.1089  0.3379 -1.6540
  405SOL    MW4 1668   0.376   0.578   0.863  0.1416  0.1029 -0.5506
  406SOL     OW 1669   0.039   1.355   0.832 -0.3205  0.1460  0.0668
  406SOL    HW2 1670   0.080   1.277   0.869  0.0020 -0.6394 -1.9111
  406SOL    HW3 1671   0.047   1.344   0.737 -0.6199  2.3971 -0.2454
  406SOL    MW4 1672   0.045   1.343   0.825 -0.3174  0.3393 -0.2354
  407SOL     OW 1673   0.295   3.575   0.463  0.1135 -0.2097  0.0072
  407SOL    HW2 1674   0.362   3.510   0.440 -0.0230 -0.5173  0.4760
  407SOL    HW3 1675   0.215   3.542   0.423  0.2813  0.2732 -0.7426
  407SOL    MW4 1676   0.294   3.562   0.455  0.1176 -0.1867 -0.0299
  408SOL     OW 1677   0.447   1.934   0.895  0.2448 -0.2069  0.0681
  408SOL    HW2 1678   0.384   2.005   0.880  0.5619  0.0758  0.0914
  408SOL    HW3 1679   0.431   1.907   0.985  0.6463  0.3483  0.3116
  408SOL    MW4 1680   0.436   1.940   0.905  0.3396 -0.0963  0.1034
  409SOL     OW 1681   2.258   2.776   0.428 -0.3873  0.1587 -0.0326
  409SOL    HW2 1682   2.195   2.811   0.366  0.8874  2.1482 -0.2159
  409SOL    HW3 1683   2.282   2.850   0.484  2.8304 -0.1842 -0.8312
  409SOL    MW4 1684   2.253   2.790   0.428  0.2053  0.3757 -0.1622
  410SOL     OW 1685   3.438   2.535   0.592  0.5333 -0.1304 -0.4942
  410SOL    HW2 1686   3.509   2.600   0.588 -0.2218  0.8955  1.7624
  410SOL    HW3 1687   3.364   2.577   0.549  0.3454  0.1007  0.0523
  410SOL    MW4 1688   3.438   2.549   0.586  0.4091  0.0355 -0.1243
  411SOL     OW 1689   2.374   0.073   0.397  0.9289 -0.1830  0.1575
  411SOL    HW2 1690   2.314   0.029   0.337  0.3676  0.4423  0.2542
  411SOL    HW3 1691   2.343   0.164   0.400  1.0527 -0.1683  1.2572
  411SOL    MW4 1692   2.362   0.080   0.390  0.8714 -0.0986  0.3154
  412SOL     OW 1693   3.487   4.049   0.830  0.0521 -0.6449 -0.8315
  412SOL    HW2 1694   3.414   4.109   0.812 -0.9848 -1.3911  0.8753
  412SOL    HW3 1695   3.451   3.983   0.888  2.0608 -1.1231 -0.0913
  412SOL    MW4 1696   3.473   4.048   0.835  0.1800 -0.8063 -0.5086
  413SOL     OW 1697   1.830   4.232   0.894 -0.4621 -0.6824  0.0665
  413SOL    HW2 1698   1.885   4.311   0.893  0.0167 -1.0037  0.3394
  413SOL    HW3 1699   1.790   4.229   0.807 -0.3589 -0.2247  0.0014
  413SOL    MW4 1700   1.832   4.242   0.882 -0.3853 -0.6642  0.0939
  414SOL     OW 1701   0.670   3.530   0.477 -0.0930 -0.3042 -0.3316
  414SOL    HW2 1702   0.652   3.560   0.566 -0.8179 -0.9624 -0.2538
  414SOL    HW3 1703   0.605   3.461   0.461  1.5051 -1.7978 -0.5320
  414SOL    MW4 1704   0.659   3.525   0.486  0.0222 -0.5882 -0.3478
  415SOL     OW 1705   0.043   3.461   0.373  0.1959 -0.2933  0.1252
  415SOL    HW2 1706  -0.003   3.487   0.293 -1.6962  0.4574  1.4269
  415SOL    HW3 1707   0.028   3.367   0.380  1.2836 -0.5576 -0.9660
  415SOL    MW4 1708   0.035   3.452   0.363  0.0898 -0.2291  0.1529
  416SOL     OW 1709   1.679   2.053   0.516  0.4924  0.1096  0.3556
  416SOL    HW2 1710   1.679   2.146   0.493 -1.0707 -0.1197 -0.6548
  416SOL    HW3 1711   1.591   2.023   0.494  0.9127 -1.5617  0.8917
  416SOL    MW4 1712   1.668   2.062   0.510  0.3415 -0.1411  0.2930
  417SOL     OW 1713   2.159   0.346   0.899  0.1812  0.5724  0.5865
  417SOL    HW2 1714   2.212   0.302   0.832 -1.0774  1.5400 -1.0927
  417SOL    HW3 1715   2.070   0.315   0.882  0.0395 -0.2448  2.7296
  417SOL    MW4 1716   2.155   0.336   0.888 -0.0038  0.5923  0.6477
  418SOL     OW 1717   2.412   3.144   0.863 -0.1751 -0.2256 -0.4442
  418SOL    HW2 1718   2.456   3.129   0.947 -2.4775 -1.4831  0.5907
  418SOL    HW3 1719   2.399   3.239   0.859  2.3373  0.1458 -0.6680
  418SOL    MW4 1720   2.416   3.155   0.873 -0.1473 -0.3426 -0.3372
  419SOL     OW 1721   1.917   0.258   0.847  0.5210  0.2984  0.4140
  419SOL    HW2 1722   1.880   0.171   0.839  0.4150  0.4417 -0.6992
  419SOL    HW3 1723   1.859   0.315   0.796  0.9018  0.9254  0.6629
  419SOL    MW4 1724   1.905   0.254   0.840  0.5573  0.4000  0.3000
  420SOL     OW 1725   0.206   3.857   1.180  0.5950  0.3467 -0.4083
  420SOL    HW2 1726   0.292   3.899   1.187  1.1395 -0.4602 -2.1646
  420SOL    HW3 1727   0.219   3.769   1.214  0.5809  0.0766 -1.0925
  420SOL    MW4 1728   0.219   3.851   1.185  0.6650  0.2043 -0.7303
  421SOL     OW 1729   0.078   1.361   0.566 -0.3747 -0.5899 -0.0589
  421SOL    HW2 1730   0.172   1.345   0.557 -0.2702  0.5865 -1.1940
  421SOL    HW3 1731   0.068   1.454   0.548 -1.7741 -0.7403 -0.0891
  421SOL    MW4 1732   0.089   1.371   0.562 -0.5456 -0.4545 -0.2126
  422SOL     OW 1733   4.328   2.570   1.272  0.1634  0.5319  0.2531
  422SOL    HW2 1734   4.270   2.495   1.263  0.7548  0.0590  0.3028
  422SOL    HW3 1735   4.379   2.551   1.351  1.0115  0.4921 -0.2887
  422SOL    MW4 1736   4.327   2.557   1.281  0.3529  0.4640  0.1881
  423SOL     OW 1737   3.217   1.125   0.434  0.2611 -0.0004 -0.4912
  423SOL    HW2 1738   3.269   1.203   0.416 -0.1338 -0.0484 -1.8370
  423SOL    HW3 1739   3.280   1.062   0.470  0.7204  0.6658 -0.1188
  423SOL    MW4 1740   3.232   1.127   0.437  0.2697  0.0812 -0.6196
  424SOL     OW 1741   0.699   3.999   0.783 -0.2763 -0.0822 -0.2646
  424SOL    HW2 1742   0.691   3.976   0.690  0.9819 -0.0731 -0.3891
  424SOL    HW3 1743   0.724   3.917   0.826 -0.3095  0.0343 -0.0229
  424SOL    MW4 1744   0.701   3.985   0.776 -0.1147 -0.0653 -0.2491
  425SOL     OW 1745   0.088   0.379   0.426 -0.0991 -0.5966 -0.0156
  425SOL    HW2 1746   0.082   0.417   0.514 -1.5774 -0.2664 -0.2509
  425SOL    HW3 1747   0.006   0.403   0.383  1.4310  0.9510 -2.1841
  425SOL    MW4 1748   0.076   0.387   0.432 -0.0923 -0.3488 -0.3327
  426SOL     OW 1749   1.114   2.006   0.791 -0.2792 -0.3140 -0.0870
  426SOL    HW2 1750   1.118   2.098   0.814  2.3732 -0.3009 -0.3879
  426SOL    HW3 1751   1.204   1.974   0.804 -1.0202 -2.7109 -0.5111
  426SOL    MW4 1752   1.126   2.014   0.796 -0.0269 -0.6287 -0.1826
  427SOL     OW 1753   3.668   3.583   0.930 -0.0774 -0.3347 -0.6568
  427SOL    HW2 1754   3.730   3.656   0.932 -0.6500  0.1345  0.0249
  427SOL    HW3 1755   3.591   3.619   0.887  0.1910 -0.9791 -1.6973
  427SOL    MW4 1756   3.666   3.597   0.924 -0.1175 -0.3576 -0.7041
  428SOL     OW 1757   2.861   0.061   0.497  0.3330 -0.1819  0.0251
  428SOL    HW2 1758   2.883   0.097   0.583  0.3174  0.6667 -0.3249
  428SOL    HW3 1759   2.822  -0.024   0.516  0.5741 -0.1117  0.8446
  428SOL    MW4 1760   2.858   0.054   0.511  0.3631 -0.0606  0.0870
  429SOL     OW 1761   2.874   3.129   0.907  0.3398 -0.7267 -0.1744
  429SOL    HW2 1762   2.848   3.053   0.855  0.4374  0.1127 -1.4602
  429SOL    HW3 1763   2.796   3.184   0.909  1.1565  0.5299 -1.7704
  429SOL    MW4 1764   2.860   3.126   0.901  0.4604 -0.4499 -0.5546
  430SOL     OW 1765   0.198   4.023   0.520  0.5033  0.3970  0.2423
  430SOL    HW2 1766   0.197   4.044   0.614 -1.4589  0.0873  0.3113
  430SOL    HW3 1767   0.106   4.015   0.496  1.0281 -4.2120 -0.6744
  430SOL    MW4 1768   0.186   4.025   0.529  0.3136 -0.2522  0.1305
  431SOL     OW 1769   1.492   1.552   0.594 -0.0683 -0.0079  0.4697
  431SOL    HW2 1770   1.507   1.530   0.686 -0.4594 -1.4015  0.1994
  431SOL    HW3 1771   1.495   1.468   0.548 -1.7259  0.4835 -0.5486
  431SOL    MW4 1772   1.495   1.538   0.600 -0.3388 -0.1270  0.2997
  432SOL     OW 1773   0.294   0.869   0.297  0.4408 -0.0709 -0.1915
  432SOL    HW2 1774   0.338   0.920   0.229  1.1777  0.1116  0.4253
  432SOL    HW3 1775   0.309   0.918   0.378  0.3666 -0.7828  0.2534
  432SOL    MW4 1776   0.301   0.882   0.298  0.5282 -0.1408 -0.0514
  433SOL     OW 1777   3.931   3.727   0.600  0.0108 -0.0894 -0.3803
  433SOL    HW2 1778   3.846   3.683   0.594  0.0648 -0.2350 -0.0937
  433SOL    HW3 1779   3.979   3.678   0.667 -0.0662  0.6125  0.2039
  433SOL    MW4 1780   3.926   3.715   0.608  0.0076 -0.0162 -0.2654
  434SOL     OW 1781   1.476   3.874   0.856  0.3837 -0.5062 -0.1294
  434SOL    HW2 1782   1.488   3.879   0.950 -0.8265 -2.3116  0.1526
  434SOL    HW3 1783   1.424   3.950   0.833  0.3382 -0.2823  0.7215
  434SOL    MW4 1784   1.471   3.884   0.865  0.2179 -0.7153  0.0201
  435SOL     OW 1785   3.324   3.858   0.946  0.0543 -0.1139 -0.3868
  435SOL    HW2 1786   3.324   3.830   1.038 -1.5138 -0.3814 -0.4594
  435SOL    HW3 1787   3.370   3.788   0.900  0.2996 -0.2775  0.0994
  435SOL    MW4 1788   3.330   3.845   0.952 -0.1202 -0.1707 -0.3322
  436SOL     OW 1789   2.414   3.430   0.805 -0.1910 -0.0234 -0.1407
  436SOL    HW2 1790   2.336   3.482   0.821  0.7799  1.7221 -1.0226
  436SOL    HW3 1791   2.426   3.431   0.710  1.4214  0.5434  0.0422
  436SOL    MW4 1792   2.405   3.437   0.795  0.1497  0.2818 -0.2329
  437SOL     OW 1793   1.329   1.675   1.220  0.0763  0.1511 -0.4575
  437SOL    HW2 1794   1.258   1.628   1.175 -0.4179  1.1983 -0.7786
  437SOL    HW3 1795   1.403   1.615   1.216 -0.4924 -0.5261 -1.0469
  437SOL    MW4 1796   1.329   1.661   1.213 -0.0640  0.1998 -0.5776
  438SOL     OW 1797   0.046   4.554   0.835  0.1860  0.2623  0.2730
  438SOL    HW2 1798  -0.043   4.588   0.829  0.6441  1.0081 -2.7049
  438SOL    HW3 1799   0.035   4.461   0.855 -1.3227 -0.0301 -1.8000
  438SOL    MW4 1800   0.033   4.546   0.837  0.0474  0.3223 -0.3934
  439SOL     OW 1801   3.803   3.827   1.186 -0.1833 -0.1098  0.3077
  439SOL    HW2 1802   3.793   3.829   1.091 -1.1003 -0.0200  0.4020
  439SOL    HW3 1803   3.730   3.879   1.219 -0.7248 -1.3764  1.1269
  439SOL    MW4 1804   3.792   3.834   1.178 -0.3755 -0.2649  0.4283
  440SOL     OW 1805   1.810   1.145   1.188  0.1154  0.5175  0.5845
  440SOL    HW2 1806   1.790   1.055   1.212 -0.2050  1.0543  2.3705
  440SOL    HW3 1807   1.809   1.145   1.092 -2.0727 -0.8835  0.5741
  440SOL    MW4 1808   1.807   1.133   1.178 -0.2155  0.4035  0.8187
  441SOL     OW 1809   3.159   1.803   0.926 -0.2588 -0.5389  0.1884
  441SOL    HW2 1810   3.178   1.710   0.926  2.0373 -0.0975  1.2632
  441SOL    HW3 1811   3.150   1.826   1.019 -1.7686  0.1331 -0.1117
  441SOL    MW4 1812   3.160   1.794   0.938 -0.1550 -0.3920  0.2906
  442SOL     OW 1813   2.843   1.644   0.519 -0.0150  0.3542 -0.2826
  442SOL    HW2 1814   2.889   1.718   0.480  1.4288  0.4503  1.5274
  442SOL    HW3 1815   2.803   1.680   0.598  0.4939 -0.7238  0.4839
  442SOL    MW4 1816   2.844   1.658   0.524  0.2427  0.2247  0.0573
  443SOL     OW 1817   0.213   4.394   1.066 -0.1689 -0.3550 -0.1671
  443SOL    HW2 1818   0.161   4.335   1.011 -0.5750  0.0264 -0.1987
  443SOL    HW3 1819   0.225   4.346   1.148  0.4175 -0.9170 -0.5777
  443SOL    MW4 1820   0.208   4.380   1.069 -0.1451 -0.3786 -0.2255
  444SOL     OW 1821   2.201   1.952   1.153  0.1851  0.1036  0.1666
  444SOL    HW2 1822   2.127   2.002   1.187  0.7046  1.0829 -0.1194
  444SOL    HW3 1823   2.212   1.983   1.064 -0.5867 -1.7937 -0.6138
  444SOL    MW4 1824   2.193   1.963   1.146  0.1521 -0.0175  0.0259
  445SOL     OW 1825   2.111   2.050   0.511  0.0247 -0.0173 -0.6270
  445SOL    HW2 1826   2.146   2.138   0.524  0.2036  0.0080 -1.2609
  445SOL    HW3 1827   2.065   2.030   0.592  1.1365  0.1309  0.0561
  445SOL    MW4 1828   2.110   2.059   0.523  0.1950  0.0057 -0.6205
  446SOL     OW 1829   3.742   1.829   0.503 -0.1491 -0.3877 -0.2103
  446SOL    HW2 1830   3.688   1.865   0.574  0.1187 -1.3785  0.5148
  446SOL    HW3 1831   3.827   1.872   0.514 -0.5129  0.4725 -0.7697
  446SOL    MW4 1832   3.746   1.839   0.514 -0.1619 -0.4048 -0.1884
  447SOL     OW 1833   3.427   2.479   0.872  0.1194  0.0486 -0.1258
  447SOL    HW2 1834   3.432   2.506   0.780 -1.0111  0.1997 -0.1396
  447SOL    HW3 1835   3.415   2.384   0.868 -0.4275  0.1166 -0.1468
  447SOL    MW4 1836   3.426   2.470   0.859 -0.1020  0.0777 -0.1304
  448SOL     OW 1837   1.728   0.455   0.722 -0.1784 -0.3098 -0.3277
  448SOL    HW2 1838   1.769   0.493   0.644 -0.3203  1.2473  0.3282
  448SOL    HW3 1839   1.643   0.424   0.691  0.1946 -0.6618 -1.0135
  448SOL    MW4 1840   1.722   0.456   0.708 -0.1478 -0.1507 -0.3316
  449SOL     OW 1841   0.426   2.895   0.774 -0.1886  1.0228  0.3074
  449SOL    HW2 1842   0.495   2.933   0.829  0.3178 -1.3586  1.3998
  449SOL    HW3 1843   0.347   2.900   0.828 -0.0475  0.2496  0.5964
  449SOL    MW4 1844   0.424   2.901   0.788 -0.1031  0.6065  0.4897
  450SOL     OW 1845   3.217   3.499   0.901  0.3668  0.3163 -0.2766
  450SOL    HW2 1846   3.154   3.439   0.861  1.7070 -1.0820 -0.3335
  450SOL    HW3 1847   3.205   3.487   0.995  0.2718  0.3253 -0.2878
  450SOL    MW4 1848   3.207   3.489   0.908  0.5312  0.1330 -0.2855
  451SOL     OW 1849   0.520   2.440   0.635 -0.8303 -0.0836  0.2959
  451SOL    HW2 1850   0.430   2.408   0.629 -0.9497  0.5907 -2.0095
  451SOL    HW3 1851   0.525   2.510   0.570  1.9132 -1.4228 -1.0188
  451SOL    MW4 1852   0.509   2.445   0.626 -0.4841 -0.1712 -0.1818
  452SOL     OW 1853   0.492   2.651   1.145 -0.0267  0.0751  0.3941
  452SOL    HW2 1854   0.518   2.659   1.053  1.3886 -1.5042  0.6324
  452SOL    HW3 1855   0.400   2.677   1.147  0.0233  0.4267 -1.4189
  452SOL    MW4 1856   0.483   2.656   1.133  0.1667 -0.0868  0.1864
  453SOL     OW 1857   0.544   2.628   0.850 -0.3176 -0.0709 -0.0697
  453SOL    HW2 1858   0.536   2.549   0.796  0.4422  0.0439 -0.3600
  453SOL    HW3 1859   0.477   2.687   0.814 -0.4219 -0.3263 -0.3035
  453SOL    MW4 1860   0.534   2.625   0.838 -0.2311 -0.0894 -0.1388
  454SOL     OW 1861   0.040   0.487   0.678  0.2831  0.0606  0.0630
  454SOL    HW2 1862   0.035   0.441   0.762  1.9032 -0.0532  0.1304
  454SOL    HW3 1863  -0.030   0.552   0.681 -1.4144 -1.7378  0.3702
  454SOL    MW4 1864   0.030   0.490   0.690  0.2729 -0.1917  0.1125
  455SOL     OW 1865   1.722   1.848   0.360  0.0147 -0.0267  0.0239
  455SOL    HW2 1866   1.750   1.772   0.411  0.5897  1.0778  1.3949
  455SOL    HW3 1867   1.731   1.922   0.420 -0.6202  1.1228 -1.2580
  455SOL    MW4 1868   1.727   1.847   0.375  0.0068  0.2706  0.0357
  456SOL     OW 1869   1.366   2.406   0.851 -0.2456  0.0592 -0.2152
  456SOL    HW2 1870   1.379   2.498   0.872  0.2753  0.3428 -1.7148
  456SOL    HW3 1871   1.375   2.401   0.756 -1.9228 -1.2698 -0.3361
  456SOL    MW4 1872   1.368   2.417   0.841 -0.3980 -0.0784 -0.4290
  457SOL     OW 1873   3.882   2.647   0.789  0.0403 -0.2501 -0.1826
  457SOL    HW2 1874   3.930   2.729   0.784  0.3425 -0.4533 -0.6048
  457SOL    HW3 1875   3.810   2.665   0.849  0.1243  0.3147 -0.2503
  457SOL    MW4 1876   3.879   2.660   0.796  0.0911 -0.2024 -0.2472
  458SOL     OW 1877   4.273   1.719   0.382 -0.6828  0.0186 -0.2699
  458SOL    HW2 1878   4.314   1.709   0.296 -0.1908  0.8577 -0.1432
  458SOL    HW3 1879   4.189   1.674   0.374 -0.1466 -0.9016 -0.8321
  458SOL    MW4 1880   4.267   1.712   0.369 -0.5474  0.0080 -0.3274
  459SOL     OW 1881   3.590   3.987   1.261 -0.1907  0.1823 -0.3498
  459SOL    HW2 1882   3.585   3.999   1.356 -0.2602  1.4443 -0.5040
  459SOL    HW3 1883   3.510   3.938   1.239  1.3932 -3.0148  0.6373
  459SOL    MW4 1884   3.579   3.982   1.271  0.0091 -0.0730 -0.2400
  460SOL     OW 1885   4.080   3.192   1.083  0.2100  0.1419  0.3343
  460SOL    HW2 1886   4.136   3.168   1.009  1.0989  0.5069  0.8813
  460SOL    HW3 1887   4.028   3.265   1.050 -0.4000 -0.6096 -0.3844
  460SOL    MW4 1888   4.081   3.198   1.069  0.2465  0.0908  0.3115
  461SOL     OW 1889   3.431   3.656   0.797  0.0565 -0.0390  0.1727
  461SOL    HW2 1890   3.435   3.672   0.703 -2.4427  0.8142  0.1840
  461SOL    HW3 1891   3.365   3.588   0.808  0.6361 -0.4369  1.2759
  461SOL    MW4 1892   3.423   3.649   0.786 -0.1969  0.0210  0.3198
  462SOL     OW 1893   1.757   2.572   0.319  0.1481  0.3144  0.0817
  462SOL    HW2 1894   1.776   2.607   0.406  0.0032  0.0737  0.2132
  462SOL    HW3 1895   1.843   2.563   0.277  0.2254  0.3544  0.2304
  462SOL    MW4 1896   1.771   2.575   0.325  0.1391  0.2875  0.1186
  463SOL     OW 1897   4.482   3.637   0.573  0.5022 -0.1633 -0.5170
  463SOL    HW2 1898   4.543   3.616   0.643 -0.4135 -0.5340  0.1722
  463SOL    HW3 1899   4.501   3.572   0.505 -0.6498 -1.6949  0.6082
  463SOL    MW4 1900   4.493   3.626   0.573  0.2298 -0.4144 -0.2777
  464SOL     OW 1901   3.923   2.028   0.591 -0.1751 -0.0534 -0.0192
  464SOL    HW2 1902   4.010   2.016   0.552 -0.4318  0.8815 -0.9038
  464SOL    HW3 1903   3.940   2.043   0.684  0.7108  1.5718 -0.4241
  464SOL    MW4 1904   3.937   2.028   0.598 -0.0923  0.2844 -0.1894
  465SOL     OW 1905   2.335   0.206   0.718 -0.3323  0.0687 -0.1288
  465SOL    HW2 1906   2.369   0.264   0.650  1.6983 -0.8528  0.0612
  465SOL    HW3 1907   2.403   0.140   0.730 -1.4945 -0.8966  1.4566
  465SOL    MW4 1908   2.348   0.205   0.710 -0.2177 -0.1803  0.1055
  466SOL     OW 1909   4.045   0.352   0.477  0.1414 -0.3931  0.3057
  466SOL    HW2 1910   4.062   0.267   0.436 -0.1059 -0.4943  0.4098
  466SOL    HW3 1911   3.957   0.376   0.448 -1.2604 -1.8425  3.0695
  466SOL    MW4 1912   4.035   0.344   0.468 -0.0763 -0.5977  0.6841
  467SOL     OW 1913   0.680   1.796   0.426 -0.6743  0.4265 -0.6180
  467SOL    HW2 1914   0.647   1.745   0.352  0.2914 -0.0555 -0.7369
  467SOL    HW3 1915   0.613   1.787   0.493  0.0718 -2.2055 -0.1289
  467SOL    MW4 1916   0.667   1.788   0.425 -0.4485  0.0155 -0.5691
  468SOL     OW 1917   3.906   1.284   0.759  0.0056 -0.0175  0.1277
  468SOL    HW2 1918   3.925   1.296   0.666  0.5797  2.1363  0.4931
  468SOL    HW3 1919   3.991   1.265   0.799 -0.0627  0.1703  0.3638
  468SOL    MW4 1920   3.920   1.283   0.752  0.0722  0.2915  0.2071
  469SOL     OW 1921   1.606   2.023   0.777  0.3837  0.0472  0.4751
  469SOL    HW2 1922   1.649   2.020   0.691  0.2403 -0.2062  0.4105
  469SOL    HW3 1923   1.622   2.111   0.809 -1.2546  0.7978 -0.6761
  469SOL    MW4 1924   1.614   2.034   0.770  0.1487  0.1128  0.3147
  470SOL     OW 1925   0.838   1.629   0.776  0.1684 -0.1706  0.1204
  470SOL    HW2 1926   0.847   1.713   0.821 -0.3784  0.1585 -0.3794
  470SOL    HW3 1927   0.764   1.586   0.820  0.1325 -0.1780  0.0538
  470SOL    MW4 1928   0.829   1.634   0.788  0.0915 -0.1281  0.0456
  471SOL     OW 1929   0.179   0.795   1.128  0.2478  0.0261  0.3669
  471SOL    HW2 1930   0.108   0.858   1.141  0.2739 -0.2728  1.9645
  471SOL    HW3 1931   0.163   0.759   1.040 -0.2567  1.6188 -0.2147
  471SOL    MW4 1932   0.167   0.798   1.118  0.1847  0.1968  0.5008
  472SOL     OW 1933   2.476   2.754   0.703 -0.3162  0.0347  0.1073
  472SOL    HW2 1934   2.387   2.725   0.723  0.5051 -2.4118  0.4436
  472SOL    HW3 1935   2.501   2.703   0.626  0.4099  1.5268 -0.6589
  472SOL    MW4 1936   2.468   2.743   0.696 -0.1121 -0.0913  0.0506
  473SOL     OW 1937   3.589   1.895   0.736 -0.2280  0.5534 -0.3410
  473SOL    HW2 1938   3.588   1.966   0.801 -2.7461  0.8973 -0.7182
  473SOL    HW3 1939   3.591   1.815   0.789  1.1815  0.8531  0.0967
  473SOL    MW4 1940   3.589   1.894   0.752 -0.3741  0.6384 -0.3330
  474SOL     OW 1941   1.312   0.106   1.284 -0.0469  0.4222 -0.2570
  474SOL    HW2 1942   1.275   0.044   1.221 -1.2714 -0.1168  0.9719
  474SOL    HW3 1943   1.407   0.096   1.274 -0.2285 -0.5319 -1.1527
  474SOL    MW4 1944   1.320   0.097   1.274 -0.2323  0.2252 -0.2131
  475SOL     OW 1945   2.076   2.794   1.301 -0.0451  0.0469 -0.1932
  475SOL    HW2 1946   2.075   2.886   1.274 -1.9168 -0.0078 -0.3701
  475SOL    HW3 1947   2.151   2.756   1.255  0.2261  1.2833 -0.7778
  475SOL    MW4 1948   2.086   2.801   1.291 -0.2563  0.2027 -0.2936
  476SOL     OW 1949   2.809   0.685   0.510 -0.1120  0.2411  0.4760
  476SOL    HW2 1950   2.831   0.732   0.590 -1.3903  1.2218  0.2539
  476SOL    HW3 1951   2.739   0.625   0.535 -0.6076  0.6444  0.0578
  476SOL    MW4 1952   2.803   0.683   0.524 -0.3462  0.4236  0.3915
  477SOL     OW 1953   2.823   2.922   0.751  0.1246  0.2024  0.0325
  477SOL    HW2 1954   2.875   2.883   0.680 -0.8886  0.3647 -0.8122
  477SOL    HW3 1955   2.783   2.847   0.795  1.0477  0.0787  0.6681
  477SOL    MW4 1956   2.824   2.907   0.747  0.1128  0.2077  0.0049
  478SOL     OW 1957   4.271   2.452   0.498 -0.0944 -0.2890 -0.0381
  478SOL    HW2 1958   4.238   2.501   0.423 -1.6291  1.1292  1.5340
  478SOL    HW3 1959   4.193   2.432   0.550  0.7066 -2.9094  0.2541
  478SOL    MW4 1960   4.256   2.456   0.495 -0.1917 -0.4475  0.2078
  479SOL     OW 1961   3.144   4.511   0.583  0.4660 -0.1494 -0.5336
  479SOL    HW2 1962   3.239   4.504   0.580  0.7245  2.8668 -0.7831
  479SOL    HW3 1963   3.118   4.526   0.492 -0.1576  0.0595 -0.3257
  479SOL    MW4 1964   3.153   4.512   0.570  0.4179  0.2761 -0.5391
  480SOL     OW 1965   2.823   1.121   0.737 -0.0891  0.3020 -0.0443
  480SOL    HW2 1966   2.793   1.135   0.647 -1.1725 -0.7705  0.1357
  480SOL    HW3 1967   2.917   1.138   0.733 -0.1601  0.4546 -1.3458
  480SOL    MW4 1968   2.832   1.125   0.724 -0.2415  0.1806 -0.1922
  481SOL     OW 1969   1.357   4.371   0.872  0.0857  0.2711 -0.0144
  481SOL    HW2 1970   1.267   4.388   0.846 -0.4157  0.5498  1.8491
  481SOL    HW3 1971   1.350   4.327   0.957  1.6365 -1.5784 -0.7973
  481SOL    MW4 1972   1.344   4.367   0.880  0.2241  0.0634  0.1282
  482SOL     OW 1973   1.012   2.495   0.754  0.2192 -0.5952 -0.0049
  482SOL    HW2 1974   1.034   2.412   0.797  1.6915  0.3085  1.0688
  482SOL    HW3 1975   0.946   2.535   0.811 -0.5523 -1.0631 -0.5672
  482SOL    MW4 1976   1.006   2.490   0.767  0.3117 -0.5376  0.0626
  483SOL     OW 1977   3.704   2.846   0.519 -0.0644 -0.4300 -0.0522
  483SOL    HW2 1978   3.691   2.754   0.495  0.2239 -0.5029  0.0725
  483SOL    HW3 1979   3.659   2.856   0.603  0.2023 -0.5424  0.1039
  483SOL    MW4 1980   3.696   2.835   0.527  0.0088 -0.4544 -0.0151
  484SOL     OW 1981   1.759   3.588   0.663 -0.0216  0.5341 -0.1002
  484SOL    HW2 1982   1.738   3.666   0.715 -2.0615 -0.5528  0.7410
  484SOL    HW3 1983   1.841   3.555   0.702  1.3095  2.6610 -0.9785
  484SOL    MW4 1984   1.767   3.594   0.675 -0.1153  0.6714 -0.1051
  485SOL     OW 1985   0.659   0.011   1.177  0.4025  0.1066  0.3430
  485SOL    HW2 1986   0.655  -0.084   1.189 -3.3609 -0.1503 -2.1269
  485SOL    HW3 1987   0.571   0.042   1.198  1.1860  2.8887 -0.2573
  485SOL    MW4 1988   0.647   0.003   1.181  0.0094  0.4401 -0.0619
  486SOL     OW 1989   4.148   0.058   0.392  0.1263 -0.4535  0.0958
  486SOL    HW2 1990   4.148   0.059   0.296 -1.0931 -0.9999  0.0797
  486SOL    HW3 1991   4.236   0.087   0.416  0.8571 -1.5350 -1.1994
  486SOL    MW4 1992   4.159   0.062   0.383  0.0620 -0.6683 -0.0772
  487SOL     OW 1993   2.648   0.873   0.361 -0.4499 -0.3460 -0.3884
  487SOL    HW2 1994   2.678   0.849   0.274  0.6262 -1.7548  0.3611
  487SOL    HW3 1995   2.705   0.825   0.421 -0.7130  1.1462  1.1055
  487SOL    MW4 1996   2.660   0.864   0.357 -0.3426 -0.3350 -0.0924
  488SOL     OW 1997   4.480   0.413   1.190 -0.2675 -0.1948  0.0345
  488SOL    HW2 1998   4.393   0.450   1.200 -0.8603 -1.6570  0.4308
  488SOL    HW3 1999   4.487   0.391   1.097 -0.7219 -1.0071  0.1837
  488SOL    MW4 2000   4.470   0.415   1.179 -0.4053 -0.4949  0.1066
  489SOL     OW 2001   0.943   0.585   0.853 -0.1123  0.0778  0.0220
  489SOL    HW2 2002   1.005   0.552   0.919 -0.3334 -1.1650 -0.3810
  489SOL    HW3 2003   0.867   0.527   0.861 -0.8179  0.9706 -0.1860
  489SOL    MW4 2004   0.941   0.573   0.863 -0.2345  0.0317 -0.0587
  490SOL     OW 2005   4.331   0.817   1.112 -0.1333 -0.3544 -0.0242
  490SOL    HW2 2006   4.290   0.828   1.026 -1.8620  0.3694  0.8506
  490SOL    HW3 2007   4.317   0.725   1.134 -0.0379 -0.4464 -0.3567
  490SOL    MW4 2008   4.324   0.807   1.104 -0.3486 -0.2710  0.0473
  491SOL     OW 2009   4.279   1.528   1.152 -0.0605 -0.0933  0.0031
  491SOL    HW2 2010   4.293   1.444   1.194  0.5833 -0.7202 -1.4059
  491SOL    HW3 2011   4.269   1.507   1.059 -0.9787  1.2839 -0.2345
  491SOL    MW4 2012   4.279   1.514   1.145 -0.0968  0.0056 -0.2141
  492SOL     OW 2013   0.019   1.007   1.232 -0.4053 -0.1651 -0.1327
  492SOL    HW2 2014  -0.053   0.956   1.196  0.2834 -1.4822  0.3277
  492SOL    HW3 2015   0.029   0.974   1.321 -0.0788  0.9143  0.2298
  492SOL    MW4 2016   0.011   0.996   1.239 -0.2713 -0.1964 -0.0242
  493SOL     OW 2017   0.725   0.032   0.912  0.1143 -0.0549  0.7439
  493SOL    HW2 2018   0.704   0.018   1.004 -0.3485  1.0265  0.8028
  493SOL    HW3 2019   0.736  -0.057   0.876  0.3563 -0.4758  1.8418
  493SOL    MW4 2020   0.724   0.018   0.919  0.0852  0.0329  0.8965
  494SOL     OW 2021   4.477   4.578   0.385 -0.2177  0.4133 -0.5358
  494SOL    HW2 2022   4.417   4.504   0.394 -0.2986  0.5901  0.3992
  494SOL    HW3 2023   4.554   4.554   0.437  0.1634  0.5622 -1.0273
  494SOL    MW4 2024   4.479   4.565   0.393 -0.1779  0.4568 -0.4773
  495SOL     OW 2025   3.723   2.554   0.548 -0.4653 -0.2843 -0.3844
  495SOL    HW2 2026   3.790   2.586   0.609 -0.0768 -0.5604 -0.6576
  495SOL    HW3 2027   3.725   2.459   0.558 -1.5807 -0.2225  0.3855
  495SOL    MW4 2028   3.732   2.546   0.557 -0.5612 -0.3128 -0.3188
  496SOL     OW 2029   0.211   2.060   1.560  0.0700 -0.3116  0.4244
  496SOL    HW2 2030   0.215   2.051   1.465 -0.3017 -2.0639  0.5623
  496SOL    HW3 2031   0.132   2.011   1.585 -0.3067  0.8568  1.5536
  496SOL    MW4 2032   0.201   2.052   1.551 -0.0287 -0.3886  0.5915
  497SOL     OW 2033   0.425   1.874   1.169  0.0905 -0.3122  0.2293
  497SOL    HW2 2034   0.504   1.918   1.199  0.4896 -1.1461  0.4049
  497SOL    HW3 2035   0.353   1.923   1.211  0.5330  0.0429  0.5785
  497SOL    MW4 2036   0.426   1.886   1.178  0.2015 -0.3754  0.2985
  498SOL     OW 2037   0.013   3.284   1.278 -0.0360  0.4026  0.5526
  498SOL    HW2 2038  -0.076   3.247   1.280  0.7168 -1.6960 -2.1440
  498SOL    HW3 2039   0.001   3.373   1.243 -0.8802 -0.5768 -1.7084
  498SOL    MW4 2040  -0.001   3.291   1.274 -0.0486 -0.0036 -0.1014
  499SOL     OW 2041   0.231   2.729   1.150  0.4970  0.3795 -0.3207
  499SOL    HW2 2042   0.229   2.768   1.063  1.4788  0.3169 -0.3803
  499SOL    HW3 2043   0.194   2.795   1.208 -0.7361  0.1789 -0.8793
  499SOL    MW4 2044   0.226   2.743   1.147  0.4639  0.3445 -0.4022
  500SOL     OW 2045   0.133   2.924   1.322  0.0549  0.2256  1.0510
  500SOL    HW2 2046   0.163   2.900   1.409  0.2186 -2.0669  0.4008
  500SOL    HW3 2047   0.037   2.921   1.328  0.0696 -0.1208  1.0924
  500SOL    MW4 2048   0.124   2.921   1.334  0.0785 -0.1225  0.9707
  501SOL     OW 2049   0.631   3.050   0.883  0.1583  0.2099  0.2735
  501SOL    HW2 2050   0.708   3.001   0.856  0.2980 -0.7155  2.2878
  501SOL    HW3 2051   0.650   3.076   0.973 -0.2588  3.2844 -0.4680
  501SOL    MW4 2052   0.644   3.047   0.891  0.1217  0.4935  0.4414
  502SOL     OW 2053   4.444   3.539   1.192  0.0372 -0.1877  0.0196
  502SOL    HW2 2054   4.351   3.529   1.215  0.3046 -2.1038  0.3616
  502SOL    HW3 2055   4.448   3.515   1.099 -0.0579  1.5593 -0.4600
  502SOL    MW4 2056   4.432   3.534   1.183  0.0601 -0.2098  0.0014
  503SOL     OW 2057   3.808   3.815   0.901  0.0538  0.4851  0.8232
  503SOL    HW2 2058   3.900   3.788   0.896 -0.1542 -0.1506  0.3862
  503SOL    HW3 2059   3.805   3.899   0.854 -0.0752 -0.7896 -1.5601
  503SOL    MW4 2060   3.820   3.823   0.894  0.0095  0.2329  0.4511
  504SOL     OW 2061   0.460   3.475   1.141  0.1720  0.1366  0.0641
  504SOL    HW2 2062   0.460   3.485   1.045 -0.2515 -0.0737  0.0436
  504SOL    HW3 2063   0.380   3.519   1.170 -0.6772 -1.4338  0.1497
  504SOL    MW4 2064   0.450   3.482   1.132  0.0041 -0.0982  0.0726
  505SOL     OW 2065   1.218   1.265   0.343  0.4012  0.0716  0.2931
  505SOL    HW2 2066   1.190   1.353   0.369  0.1011 -0.2047  0.9253
  505SOL    HW3 2067   1.164   1.243   0.268 -0.2993 -0.0098  0.8170
  505SOL    MW4 2068   1.208   1.273   0.336  0.2692  0.0246  0.4456
  506SOL     OW 2069   0.501   4.238   1.306  0.1161 -0.5010 -0.5071
  506SOL    HW2 2070   0.556   4.271   1.377 -0.3506  0.5193 -0.6120
  506SOL    HW3 2071   0.413   4.268   1.328  0.2588  1.5476 -2.5152
  506SOL    MW4 2072   0.497   4.246   1.319  0.0734 -0.0958 -0.7859
  507SOL     OW 2073   0.221   4.295   1.321  0.7307  0.4770  0.1554
  507SOL    HW2 2074   0.179   4.347   1.390  0.4985 -0.3333  0.6260
  507SOL    HW3 2075   0.156   4.228   1.299  0.9946  0.4371 -0.5182
  507SOL    MW4 2076   0.207   4.293   1.327  0.7349  0.3653  0.1285
  508SOL     OW 2077   2.349   0.355   0.492 -0.2700  0.4561  0.2401
  508SOL    HW2 2078   2.424   0.409   0.514  0.1100  0.5478 -1.2313
  508SOL    HW3 2079   2.282   0.418   0.465 -1.0677  0.4109  2.0290
  508SOL    MW4 2080   2.350   0.371   0.492 -0.3247  0.4622  0.2820
  509SOL     OW 2081   1.283   0.569   0.808  0.4032 -0.3462  0.2412
  509SOL    HW2 2082   1.237   0.652   0.797 -0.4065 -0.8299 -0.0197
  509SOL    HW3 2083   1.254   0.537   0.894  1.1317 -0.0990  0.5829
  509SOL    MW4 2084   1.273   0.576   0.818  0.3924 -0.3774  0.2518
  510SOL     OW 2085   0.459   3.354   0.428  0.6284 -0.0149 -0.5663
  510SOL    HW2 2086   0.522   3.293   0.389 -1.2466 -2.1888 -0.2983
  510SOL    HW3 2087   0.415   3.303   0.497 -1.3272  1.4771 -0.6553
  510SOL    MW4 2088   0.461   3.339   0.432  0.1230 -0.1051 -0.5427
  511SOL     OW 2089   0.449   4.464   0.923  0.2279  0.0214  0.6756
  511SOL    HW2 2090   0.539   4.444   0.951 -0.4890 -1.7050  1.8302
  511SOL    HW3 2091   0.394   4.430   0.994 -1.3872  0.1568 -0.4933
  511SOL    MW4 2092   0.454   4.457   0.936 -0.0798 -0.1893  0.6738
  512SOL     OW 2093   3.826   0.097   0.719  0.1375  0.0834 -0.3231
  512SOL    HW2 2094   3.852   0.020   0.667 -0.9159 -0.0497 -0.6584
  512SOL    HW3 2095   3.761   0.142   0.665 -0.2123  0.4983  0.4379
  512SOL    MW4 2096   3.821   0.092   0.705 -0.0477  0.1206 -0.2669
  513SOL     OW 2097   2.191   0.599   0.801  0.2437 -0.2282  0.4846
  513SOL    HW2 2098   2.169   0.513   0.837  0.8218 -0.6750 -0.2325
  513SOL    HW3 2099   2.279   0.617   0.833 -0.1213  0.4064  1.1799
  513SOL    MW4 2100   2.200   0.590   0.810  0.2718 -0.2034  0.4818
  514SOL     OW 2101   0.498   4.278   0.698  0.2502 -0.5237 -0.8789
  514SOL    HW2 2102   0.592   4.294   0.683 -0.3653  0.1474 -4.4581
  514SOL    HW3 2103   0.469   4.353   0.748  1.3387 -0.0239 -0.9711
  514SOL    MW4 2104   0.507   4.290   0.702  0.3126 -0.3695 -1.3633
  515SOL     OW 2105   0.625   1.285   1.285  0.1068  0.3508 -0.0775
  515SOL    HW2 2106   0.627   1.369   1.239  1.8764  0.8334  0.8367
  515SOL    HW3 2107   0.713   1.249   1.272  0.6377  0.4604  2.8184
  515SOL    MW4 2108   0.637   1.291   1.277  0.4103  0.4289  0.4252
  516SOL     OW 2109   1.113   1.268   1.298  0.0857 -0.1646 -0.0856
  516SOL    HW2 2110   1.126   1.352   1.255  0.4654 -0.8269 -1.2720
  516SOL    HW3 2111   1.092   1.291   1.389 -0.2051  1.2177 -0.4904
  516SOL    MW4 2112   1.112   1.282   1.304  0.0975 -0.0696 -0.2955
  517SOL     OW 2113   1.593   2.291   1.189 -0.0708 -0.3625  0.1045
  517SOL    HW2 2114   1.595   2.205   1.231 -2.2129 -0.6343 -0.2806
  517SOL    HW3 2115   1.511   2.330   1.219  0.2523  1.0253 -0.7679
  517SOL    MW4 2116   1.582   2.285   1.199 -0.3109 -0.2153 -0.0613
  518SOL     OW 2117   2.093   1.390   0.691 -0.0586 -0.3194  0.4261
  518SOL    HW2 2118   2.162   1.331   0.723  0.8959  0.0933 -0.8102
  518SOL    HW3 2119   2.067   1.440   0.769  0.7452 -0.7761  1.0060
  518SOL    MW4 2120   2.099   1.389   0.706  0.1733 -0.3251  0.3394
  519SOL     OW 2121   0.714   2.244   1.137 -0.1550  0.1587  0.3044
  519SOL    HW2 2122   0.686   2.162   1.175  0.1563  0.0396  0.2815
  519SOL    HW3 2123   0.645   2.306   1.158 -0.1558  0.0057  0.7432
  519SOL    MW4 2124   0.701   2.242   1.145 -0.1141  0.1225  0.3593
  520SOL     OW 2125   0.660   2.001   1.234 -0.6282 -0.0864 -0.1752
  520SOL    HW2 2126   0.735   1.950   1.204 -2.9951 -3.1350 -1.1202
  520SOL    HW3 2127   0.671   2.005   1.329  1.1660  0.2887 -0.3748
  520SOL    MW4 2128   0.671   1.995   1.243 -0.7037 -0.4389 -0.3263
  521SOL     OW 2129   1.359   2.404   0.570  0.3249  0.1671  0.3948
  521SOL    HW2 2130   1.299   2.332   0.551  1.1304 -0.4050 -0.0631
  521SOL    HW3 2131   1.435   2.386   0.514  1.2786  0.3962  1.6052
  521SOL    MW4 2132   1.361   2.392   0.560  0.5572  0.1223  0.4940
  522SOL     OW 2133   4.196   2.035   0.501  0.3088 -0.3977 -0.0630
  522SOL    HW2 2134   4.212   2.038   0.595 -0.9350  1.9179  0.0960
  522SOL    HW3 2135   4.216   1.944   0.476 -1.4180 -1.6165  2.7905
  522SOL    MW4 2136   4.201   2.023   0.510 -0.0830 -0.2532  0.3345
  523SOL     OW 2137   1.590   3.287   0.745 -0.1209 -0.1786 -0.0100
  523SOL    HW2 2138   1.613   3.309   0.656 -0.1696  1.1222  0.2942
  523SOL    HW3 2139   1.583   3.191   0.745  0.6054 -0.2404 -1.2070
  523SOL    MW4 2140   1.592   3.277   0.734 -0.0315 -0.0153 -0.1278
  524SOL     OW 2141   0.670   2.823   1.289 -0.2396 -0.3734 -0.1449
  524SOL    HW2 2142   0.607   2.761   1.251  0.4013 -1.2083  0.1449
  524SOL    HW3 2143   0.633   2.909   1.269 -0.4963 -0.8210 -1.6491
  524SOL    MW4 2144   0.657   2.826   1.282 -0.1889 -0.5426 -0.3052
  525SOL     OW 2145   0.657   3.097   1.150 -0.0069  0.0861  0.5380
  525SOL    HW2 2146   0.736   3.145   1.176 -0.1239  0.1156  0.8433
  525SOL    HW3 2147   0.588   3.134   1.205 -0.4230  0.7473 -0.4240
  525SOL    MW4 2148   0.658   3.108   1.161 -0.0772  0.1771  0.4513
  526SOL     OW 2149   0.462   3.235   1.280 -0.0383 -0.1994  0.0451
  526SOL    HW2 2150   0.477   3.321   1.240 -0.1377 -0.7694 -1.2412
  526SOL    HW3 2151   0.379   3.205   1.242  0.7134 -1.4841 -0.6261
  526SOL    MW4 2152   0.453   3.243   1.270  0.0478 -0.4442 -0.2130
  527SOL     OW 2153   1.150   3.219   0.782  0.1560 -0.0722  0.1573
  527SOL    HW2 2154   1.232   3.263   0.805 -0.3748  0.9682  0.1238
  527SOL    HW3 2155   1.130   3.250   0.694  0.2052 -1.0494 -0.1975
  527SOL    MW4 2156   1.158   3.229   0.773  0.0925 -0.0639  0.1061
  528SOL     OW 2157   0.684   3.568   1.255  0.0616 -0.0313 -0.5020
  528SOL    HW2 2158   0.673   3.579   1.349 -0.2763 -0.7375 -0.4557
  528SOL    HW3 2159   0.604   3.525   1.226  0.3392 -0.1900 -1.0417
  528SOL    MW4 2160   0.672   3.564   1.264  0.0537 -0.1454 -0.5673
  529SOL     OW 2161   0.982   0.233   0.766 -0.4282  0.3071  0.1811
  529SOL    HW2 2162   0.904   0.200   0.721  0.1846 -1.0655  0.0850
  529SOL    HW3 2163   1.028   0.285   0.699  0.6815 -2.0596 -0.9514
  529SOL    MW4 2164   0.978   0.236   0.751 -0.2010 -0.1863  0.0190
  530SOL     OW 2165   0.335   0.598   0.373 -0.4350  0.2494 -0.2311
  530SOL    HW2 2166   0.308   0.688   0.355 -1.9510  0.0153  0.8025
  530SOL    HW3 2167   0.260   0.545   0.346 -0.3796 -0.5420  1.1158
  530SOL    MW4 2168   0.322   0.602   0.367 -0.6277  0.1141  0.0830
  531SOL     OW 2169   0.656   4.414   1.153  0.6897  0.1160  0.2938
  531SOL    HW2 2170   0.743   4.375   1.147  1.0192  1.0329 -1.2390
  531SOL    HW3 2171   0.605   4.352   1.205  1.7660 -1.2948 -0.3094
  531SOL    MW4 2172   0.661   4.401   1.159  0.8751  0.0510  0.0119
  532SOL     OW 2173   3.101   3.867   0.687  0.3075  0.2408  0.0155
  532SOL    HW2 2174   3.132   3.792   0.638  0.1088 -0.5659  1.1146
  532SOL    HW3 2175   3.006   3.869   0.670  0.1648 -0.3234  0.7594
  532SOL    MW4 2176   3.092   3.858   0.678  0.2625  0.0601  0.2587
  533SOL     OW 2177   0.401   3.829   0.460 -0.4222 -0.4704  0.6254
  533SOL    HW2 2178   0.328   3.887   0.483 -0.2716  0.7090 -1.7567
  533SOL    HW3 2179   0.361   3.742   0.452 -1.3652 -0.0136  0.3237
  533SOL    MW4 2180   0.386   3.825   0.462 -0.5268 -0.2544  0.2713
  534SOL     OW 2181   1.463   0.331   0.676  0.3620  0.1981  0.4972
  534SOL    HW2 2182   1.392   0.393   0.689 -0.9035 -1.6537  2.9368
  534SOL    HW3 2183   1.435   0.276   0.603 -0.3915 -0.0277  0.9484
  534SOL    MW4 2184   1.450   0.332   0.668  0.0956 -0.0760  0.8786
  535SOL     OW 2185   0.688   0.531   1.304 -0.5795 -0.1665  0.5713
  535SOL    HW2 2186   0.771   0.495   1.272 -1.2055 -0.8823 -0.2421
  535SOL    HW3 2187   0.678   0.614   1.257  0.2336  0.4827  1.5147
  535SOL    MW4 2188   0.698   0.537   1.294 -0.5548 -0.1753  0.5887
  536SOL     OW 2189   1.173   0.502   1.051 -0.4042 -0.1613  0.0876
  536SOL    HW2 2190   1.234   0.435   1.083  1.3955  0.8116 -1.1836
  536SOL    HW3 2191   1.175   0.570   1.118  0.1025 -0.0351 -0.0500
  536SOL    MW4 2192   1.182   0.502   1.064 -0.0998 -0.0163 -0.0983
  537SOL     OW 2193   1.347   0.884   1.297  1.2356 -0.1068  0.5006
  537SOL    HW2 2194   1.274   0.833   1.261  0.6851 -1.7111  3.6766
  537SOL    HW3 2195   1.425   0.841   1.263  0.7590 -2.6367  2.3745
  537SOL    MW4 2196   1.347   0.871   1.288  1.1001 -0.6522  1.1668
  538SOL     OW 2197   1.128   0.704   1.261  0.6167  0.1024 -0.0999
  538SOL    HW2 2198   1.109   0.653   1.340  1.6066  0.5261  0.4141
  538SOL    HW3 2199   1.051   0.759   1.250  0.0502 -0.6498  0.0121
  538SOL    MW4 2200   1.115   0.704   1.270  0.6725  0.0590 -0.0173
  539SOL     OW 2201   0.907   0.884   1.237  0.5194  0.3704 -0.0033
  539SOL    HW2 2202   0.815   0.858   1.237  0.6268  0.0001  0.6820
  539SOL    HW3 2203   0.905   0.980   1.236  0.1124  0.4011  2.0135
  539SOL    MW4 2204   0.895   0.893   1.237  0.4798  0.3255  0.3532
  540SOL     OW 2205   1.138   1.484   1.121 -0.0877  0.0793  0.1275
  540SOL    HW2 2206   1.056   1.527   1.143  0.7980  1.3104  1.0972
  540SOL    HW3 2207   1.138   1.479   1.025 -0.7466  1.1543  0.0697
  540SOL    MW4 2208   1.127   1.489   1.111 -0.0577  0.3835  0.2477
  541SOL     OW 2209   0.985   0.858   0.843  0.0350 -0.1558 -0.3159
  541SOL    HW2 2210   0.975   0.763   0.849 -0.2746 -0.2054 -1.6001
  541SOL    HW3 2211   1.077   0.874   0.866 -0.2018 -0.6486  1.0427
  541SOL    MW4 2212   0.996   0.847   0.847 -0.0371 -0.2273 -0.3061
  542SOL     OW 2213   0.910   1.621   1.186  0.0245 -0.2837  0.4479
  542SOL    HW2 2214   0.918   1.715   1.172 -0.5058 -0.2456  0.3681
  542SOL    HW3 2215   0.818   1.602   1.165 -0.3947 -0.4800  2.3213
  542SOL    MW4 2216   0.899   1.631   1.181 -0.1007 -0.3047  0.6846
  543SOL     OW 2217   1.809   1.938   0.924 -0.1340 -0.0115 -0.6947
  543SOL    HW2 2218   1.881   1.977   0.874  0.9975 -0.6832  0.3562
  543SOL    HW3 2219   1.730   1.971   0.883  0.7770  2.7237 -0.3775
  543SOL    MW4 2220   1.808   1.948   0.912  0.1354  0.2607 -0.5142
  544SOL     OW 2221   1.091   2.334   1.147  0.3642 -0.0713 -0.1165
  544SOL    HW2 2222   1.172   2.382   1.166 -0.2017  0.3401  1.3353
  544SOL    HW3 2223   1.022   2.388   1.185 -0.3147 -1.8042  1.1938
  544SOL    MW4 2224   1.093   2.347   1.155  0.2000 -0.2456  0.2480
  545SOL     OW 2225   1.347   2.408   1.263 -0.0377  0.3484 -0.2709
  545SOL    HW2 2226   1.340   2.500   1.237  0.2661 -0.0048 -1.6643
  545SOL    HW3 2227   1.345   2.409   1.359  0.9767  1.9004 -0.2508
  545SOL    MW4 2228   1.346   2.420   1.272  0.1361  0.5066 -0.4520
  546SOL     OW 2229   0.875   2.446   1.249 -0.7384  0.7735  0.2186
  546SOL    HW2 2230   0.872   2.453   1.344  1.3081  0.0270  0.3711
  546SOL    HW3 2231   0.819   2.372   1.227  0.9967 -0.8187  1.0892
  546SOL    MW4 2232   0.867   2.437   1.259 -0.2394  0.4649  0.3536
  547SOL     OW 2233   0.802   3.765   0.898 -0.1696 -0.4523 -0.0940
  547SOL    HW2 2234   0.897   3.751   0.891 -0.0552 -1.1824  2.5091
  547SOL    HW3 2235   0.764   3.690   0.851  0.5424 -1.5957  1.1264
  547SOL    MW4 2236   0.810   3.753   0.891 -0.0605 -0.6993  0.4104
  548SOL     OW 2237   0.893   2.704   1.156 -0.0056 -0.4513  0.8792
  548SOL    HW2 2238   0.887   2.611   1.180 -3.2286 -0.2703  1.0598
  548SOL    HW3 2239   0.831   2.748   1.214  2.2310  1.9991  1.5028
  548SOL    MW4 2240   0.884   2.698   1.167 -0.1358 -0.1042  0.9854
  549SOL     OW 2241   1.133   2.798   1.273  0.5427 -0.0713 -0.1699
  549SOL    HW2 2242   1.051   2.773   1.230  0.0847  1.0796  0.0277
  549SOL    HW3 2243   1.112   2.800   1.366  1.0739 -0.7973 -0.0299
  549SOL    MW4 2244   1.120   2.795   1.279  0.5525 -0.0153 -0.1254
  550SOL     OW 2245   0.890   3.212   1.220 -0.1497 -0.2487 -0.5364
  550SOL    HW2 2246   0.920   3.300   1.197  0.5793  0.0557  1.5219
  550SOL    HW3 2247   0.967   3.156   1.204 -0.5183 -0.4666 -1.5514
  550SOL    MW4 2248   0.904   3.216   1.215 -0.1022 -0.2377 -0.3985
  551SOL     OW 2249   1.147   3.600   1.283  0.0355 -0.6801 -0.1886
  551SOL    HW2 2250   1.224   3.560   1.242 -0.5308 -0.6138 -1.3482
  551SOL    HW3 2251   1.073   3.557   1.241 -0.5677 -0.9399  1.1170
  551SOL    MW4 2252   1.147   3.589   1.272 -0.1189 -0.7057 -0.1694
  552SOL     OW 2253   1.132   3.836   1.137  0.2590  0.6043 -0.2147
  552SOL    HW2 2254   1.058   3.884   1.173 -0.1550 -0.9115  1.0190
  552SOL    HW3 2255   1.144   3.762   1.197  1.9331  0.1019 -1.1327
  552SOL    MW4 2256   1.124   3.832   1.150  0.4252  0.3381 -0.1731
  553SOL     OW 2257   1.076   4.411   1.241 -0.2041  0.1572 -0.3684
  553SOL    HW2 2258   1.016   4.349   1.200 -0.5619 -0.3492  0.8812
  553SOL    HW3 2259   1.058   4.403   1.335  0.9960  0.8599 -0.0662
  553SOL    MW4 2260   1.066   4.402   1.248 -0.0931  0.1831 -0.1637
  554SOL     OW 2261   0.049   2.805   0.675  0.2229  0.1315  0.1095
  554SOL    HW2 2262   0.026   2.714   0.654  0.3990 -0.3774  1.9960
  554SOL    HW3 2263  -0.033   2.853   0.665 -0.1834 -0.4858  0.3738
  554SOL    MW4 2264   0.035   2.799   0.671  0.1925 -0.0172  0.3933
  555SOL     OW 2265   0.772   0.339   0.898  0.1509 -0.3070 -0.3077
  555SOL    HW2 2266   0.795   0.381   0.981 -0.9243 -1.7318  0.7364
  555SOL    HW3 2267   0.855   0.312   0.859  0.4952 -2.5978  1.9025
  555SOL    MW4 2268   0.786   0.341   0.904  0.0545 -0.7972  0.1217
  556SOL     OW 2269   1.430   0.153   0.468  0.0672  0.3922  0.1220
  556SOL    HW2 2270   1.368   0.101   0.417 -0.7473 -0.0891  1.5880
  556SOL    HW3 2271   1.507   0.096   0.475  0.0541  0.3226 -0.2831
  556SOL    MW4 2272   1.432   0.138   0.462 -0.0420  0.3196  0.2620
  557SOL     OW 2273   1.316   4.293   1.129 -0.2480 -0.9705  0.2716
  557SOL    HW2 2274   1.394   4.330   1.171 -0.1470 -0.2414 -0.5495
  557SOL    HW3 2275   1.243   4.343   1.165 -0.1201 -0.0195 -0.7629
  557SOL    MW4 2276   1.317   4.304   1.140 -0.2178 -0.7496  0.0267
  558SOL     OW 2277   0.457   0.377   1.239  0.0349  0.2188 -0.3859
  558SOL    HW2 2278   0.528   0.433   1.272 -0.1757 -0.8531  1.9357
  558SOL    HW3 2279   0.383   0.436   1.230  0.4855  0.8098 -0.2839
  558SOL    MW4 2280   0.457   0.392   1.242  0.0665  0.1554 -0.0659
  559SOL     OW 2281   0.896   4.254   1.085 -0.1887  0.1114  0.0149
  559SOL    HW2 2282   0.894   4.166   1.121  4.2287  0.0324  0.3671
  559SOL    HW3 2283   0.923   4.242   0.993 -3.2999  0.8944 -1.0666
  559SOL    MW4 2284   0.900   4.241   1.077 -0.0163  0.2046 -0.0814
  560SOL     OW 2285   1.598   0.492   1.223  0.2371 -0.3896 -0.3481
  560SOL    HW2 2286   1.528   0.433   1.196  0.0311 -0.6309  0.6942
  560SOL    HW3 2287   1.678   0.453   1.188 -0.0218 -0.6871 -0.6063
  560SOL    MW4 2288   1.600   0.479   1.215  0.1757 -0.4607 -0.2446
  561SOL     OW 2289   1.828   0.865   1.276 -0.1490 -0.0856  0.2230
  561SOL    HW2 2290   1.813   0.878   1.370  0.5980 -1.4913  0.5557
  561SOL    HW3 2291   1.743   0.836   1.242 -0.6753  1.3770  0.2797
  561SOL    MW4 2292   1.815   0.863   1.284 -0.1199 -0.0781  0.2744
  562SOL     OW 2293   1.353   1.132   1.196 -0.3349 -0.0195 -0.5471
  562SOL    HW2 2294   1.367   1.052   1.247 -0.2579  1.6062  2.0824
  562SOL    HW3 2295   1.265   1.160   1.220  0.0043  1.1935 -0.7126
  562SOL    MW4 2296   1.343   1.125   1.206 -0.2799  0.3550 -0.2221
  563SOL     OW 2297   0.871   1.160   1.231  0.3478 -0.1100  0.2722
  563SOL    HW2 2298   0.955   1.205   1.247  1.2133 -2.0739  1.4219
  563SOL    HW3 2299   0.871   1.143   1.137  1.0820  0.2199  0.2073
  563SOL    MW4 2300   0.882   1.164   1.221  0.5589 -0.3257  0.4154
  564SOL     OW 2301   1.589   1.261   1.279 -0.4054  0.1687 -0.0040
  564SOL    HW2 2302   1.666   1.214   1.247 -0.4771 -0.1393  0.2809
  564SOL    HW3 2303   1.515   1.208   1.250 -0.4763 -0.0331  0.5398
  564SOL    MW4 2304   1.590   1.248   1.271 -0.4243  0.1013  0.1053
  565SOL     OW 2305   1.539   1.512   1.190  0.1398 -0.5192 -0.3788
  565SOL    HW2 2306   1.528   1.501   1.095 -0.1699 -0.1187 -0.3905
  565SOL    HW3 2307   1.547   1.423   1.224 -1.8023 -0.7758 -0.5265
  565SOL    MW4 2308   1.539   1.499   1.182 -0.1574 -0.5002 -0.3998
  566SOL     OW 2309   0.549   0.790   0.893 -0.0696 -0.1051 -0.2387
  566SOL    HW2 2310   0.481   0.857   0.903  0.5451  0.7472 -1.7348
  566SOL    HW3 2311   0.502   0.708   0.907 -0.9420  0.5829  1.0747
  566SOL    MW4 2312   0.534   0.788   0.897 -0.1037  0.0982 -0.2627
  567SOL     OW 2313   1.334   1.929   1.143 -0.3046  0.1613  0.5660
  567SOL    HW2 2314   1.264   1.976   1.187 -1.4935  0.1787 -1.2781
  567SOL    HW3 2315   1.329   1.840   1.177  0.2271  0.6980  2.0825
  567SOL    MW4 2316   1.324   1.924   1.153 -0.3914  0.2344  0.5229
  568SOL     OW 2317   0.615   0.813   0.632 -0.0169 -0.1775 -0.0395
  568SOL    HW2 2318   0.616   0.804   0.727 -0.6508  1.1341  0.0908
  568SOL    HW3 2319   0.704   0.841   0.610 -0.8626  3.2206  0.5576
  568SOL    MW4 2320   0.627   0.815   0.641 -0.2121  0.4439  0.0564
  569SOL     OW 2321   1.832   1.865   1.176  0.2489 -0.2713 -0.6066
  569SOL    HW2 2322   1.831   1.895   1.085 -0.3329 -0.5931 -0.7107
  569SOL    HW3 2323   1.901   1.916   1.217  0.8401 -0.4634 -1.3422
  569SOL    MW4 2324   1.841   1.876   1.169  0.2500 -0.3392 -0.7174
  570SOL     OW 2325   1.790   2.481   1.267  0.1181 -0.1967 -0.2906
  570SOL    HW2 2326   1.803   2.547   1.200  0.8639 -0.6967 -0.6435
  570SOL    HW3 2327   1.722   2.424   1.232  1.3078 -1.1229 -1.1420
  570SOL    MW4 2328   1.783   2.482   1.254  0.3736 -0.3850 -0.4494
  571SOL     OW 2329   1.610   2.794   1.229  0.1601 -0.0769 -0.4801
  571SOL    HW2 2330   1.695   2.753   1.217  0.5366  1.0203 -1.6788
  571SOL    HW3 2331   1.623   2.885   1.201 -0.9205  0.6019  1.1190
  571SOL    MW4 2332   1.623   2.801   1.224  0.0671  0.1576 -0.4274
  572SOL     OW 2333   1.271   0.853   0.854 -0.4880  0.0259  0.0913
  572SOL    HW2 2334   1.309   0.934   0.888 -1.1422 -0.2811  1.5707
  572SOL    HW3 2335   1.282   0.860   0.759  1.5821  0.7842  0.3624
  572SOL    MW4 2336   1.278   0.864   0.846 -0.3012  0.0855  0.3223
  573SOL     OW 2337   3.827   0.946   0.529  0.4227 -0.1059  0.2843
  573SOL    HW2 2338   3.772   1.003   0.474  0.3208  0.5294  1.0392
  573SOL    HW3 2339   3.774   0.867   0.542  0.3941 -0.2056 -0.4233
  573SOL    MW4 2340   3.813   0.943   0.523  0.4055 -0.0352  0.2905
  574SOL     OW 2341   1.369   3.198   1.279 -0.2793  0.5778 -0.3256
  574SOL    HW2 2342   1.365   3.179   1.372 -1.7248 -0.7455 -0.6398
  574SOL    HW3 2343   1.294   3.152   1.241  1.7415 -1.0627 -2.5099
  574SOL    MW4 2344   1.358   3.189   1.286 -0.2034  0.1867 -0.6553
  575SOL     OW 2345   1.361   3.454   1.166 -0.3019 -0.2022  0.1801
  575SOL    HW2 2346   1.366   3.433   1.073  1.9900  0.5257  0.1036
  575SOL    HW3 2347   1.367   3.369   1.210 -0.5939 -0.4844 -0.3155
  575SOL    MW4 2348   1.362   3.440   1.160 -0.0380 -0.1435  0.1047
  576SOL     OW 2349   1.597   3.578   1.207  0.0671  0.2316  0.4016
  576SOL    HW2 2350   1.581   3.666   1.172 -0.1479  0.6287  1.4702
  576SOL    HW3 2351   1.515   3.532   1.193 -0.2900  0.6396  1.0882
  576SOL    MW4 2352   1.584   3.584   1.201 -0.0083  0.3376  0.6331
  577SOL     OW 2353   2.425   4.380   0.978 -0.2721  0.3182 -0.2801
  577SOL    HW2 2354   2.517   4.364   0.959 -0.0744 -0.6248  1.3877
  577SOL    HW3 2355   2.416   4.475   0.978  0.5373  0.4014 -1.1224
  577SOL    MW4 2356   2.436   4.390   0.975 -0.1395  0.2046 -0.1713
  578SOL     OW 2357   1.547   3.859   1.160 -0.2796 -0.1746 -0.1810
  578SOL    HW2 2358   1.473   3.900   1.203 -0.2064  0.0635 -0.2787
  578SOL    HW3 2359   1.620   3.920   1.174 -0.0883 -0.4354 -0.0320
  578SOL    MW4 2360   1.547   3.872   1.167 -0.2446 -0.1776 -0.1743
  579SOL     OW 2361   4.455   0.105   1.245  0.2887 -0.0377  0.4978
  579SOL    HW2 2362   4.440   0.196   1.221  1.5007  0.2638  0.9029
  579SOL    HW3 2363   4.545   0.087   1.218  0.5318 -0.6963  1.7192
  579SOL    MW4 2364   4.465   0.114   1.238  0.4807 -0.0848  0.7124
  580SOL     OW 2365   0.903   0.133   1.217 -0.0085 -0.3221  0.5856
  580SOL    HW2 2366   0.824   0.086   1.190  0.0145 -0.9069  1.5109
  580SOL    HW3 2367   0.908   0.120   1.312  0.1719  1.2954  0.8118
  580SOL    MW4 2368   0.894   0.125   1.226  0.0184 -0.1858  0.7377
  581SOL     OW 2369   1.898   1.210   0.684 -0.0427  0.0022  0.2169
  581SOL    HW2 2370   1.861   1.193   0.771 -0.0829 -2.7136 -0.3055
  581SOL    HW3 2371   1.967   1.274   0.700 -0.5156  0.0740  2.1480
  581SOL    MW4 2372   1.902   1.217   0.697 -0.1103 -0.3467  0.4027
  582SOL     OW 2373   1.791   0.132   1.263 -0.1920 -0.0261 -0.2578
  582SOL    HW2 2374   1.869   0.077   1.250  1.1081  1.7700 -0.2522
  582SOL    HW3 2375   1.807   0.210   1.210 -1.5584  0.7946  0.4931
  582SOL    MW4 2376   1.804   0.135   1.254 -0.2007  0.3192 -0.1581
  583SOL     OW 2377   1.812   0.353   1.088 -0.2721 -0.0219 -0.5953
  583SOL    HW2 2378   1.857   0.326   1.008  0.1331  0.9361 -0.6999
  583SOL    HW3 2379   1.881   0.388   1.144 -0.4355 -1.4238  0.5035
  583SOL    MW4 2380   1.827   0.354   1.085 -0.2401 -0.0805 -0.4641
  584SOL     OW 2381   2.448   1.343   0.457  0.0102 -0.0231 -0.0582
  584SOL    HW2 2382   2.508   1.409   0.421  0.2117 -0.8630 -1.3005
  584SOL    HW3 2383   2.362   1.369   0.426 -0.0850  0.3782  0.5338
  584SOL    MW4 2384   2.445   1.355   0.448  0.0241 -0.0809 -0.1440
  585SOL     OW 2385   2.009   0.475   1.225 -0.4153 -0.3368  0.0079
  585SOL    HW2 2386   1.997   0.486   1.319  3.0079  0.3475  0.4386
  585SOL    HW3 2387   2.003   0.563   1.190 -0.5967 -0.4541 -0.2537
  585SOL    MW4 2388   2.007   0.488   1.233  0.0124 -0.2620  0.0300
  586SOL     OW 2389   2.004   0.741   1.103  0.0684  0.5412 -0.4391
  586SOL    HW2 2390   1.949   0.792   1.162 -0.4834 -0.6370  0.0729
  586SOL    HW3 2391   1.990   0.780   1.017 -0.3884  1.2152 -0.0651
  586SOL    MW4 2392   1.995   0.753   1.100 -0.0647  0.4746 -0.3222
  587SOL     OW 2393   2.282   1.173   0.803  0.7659 -0.3005  0.0173
  587SOL    HW2 2394   2.347   1.103   0.790  1.3476 -0.0262  1.3907
  587SOL    HW3 2395   2.330   1.254   0.788  0.8963 -0.0710  1.6168
  587SOL    MW4 2396   2.297   1.174   0.799  0.8597 -0.2341  0.4095
  588SOL     OW 2397   2.042   1.275   1.252  0.0770 -0.4633  0.1744
  588SOL    HW2 2398   2.103   1.257   1.181 -0.4377 -0.9364 -0.1524
  588SOL    HW3 2399   1.967   1.219   1.234 -0.5828  0.3349  0.4007
  588SOL    MW4 2400   2.040   1.266   1.240 -0.0780 -0.4203  0.1611
  589SOL     OW 2401   2.042   1.547   1.181 -0.3511 -0.2327  0.1423
  589SOL    HW2 2402   2.050   1.457   1.212 -1.1275 -0.7852 -1.2176
  589SOL    HW3 2403   1.954   1.574   1.208 -0.7677 -0.4815 -0.9313
  589SOL    MW4 2404   2.032   1.538   1.188 -0.5085 -0.3386 -0.1788
  590SOL     OW 2405   1.785   1.605   1.247  0.2750  0.0603 -0.0334
  590SOL    HW2 2406   1.782   1.692   1.207  0.6220  0.4498  0.7728
  590SOL    HW3 2407   1.698   1.567   1.229  0.2319  0.4432 -0.6562
  590SOL    MW4 2408   1.773   1.611   1.239  0.3153  0.1621 -0.0092
  591SOL     OW 2409   2.026   1.555   0.913 -0.2314 -0.1101  0.0588
  591SOL    HW2 2410   2.025   1.542   1.008 -1.4845 -1.2699 -0.0923
  591SOL    HW3 2411   2.086   1.628   0.900  0.2767 -0.1945  1.7087
  591SOL    MW4 2412   2.034   1.563   0.924 -0.3297 -0.2742  0.2565
  592SOL     OW 2413   1.985   2.080   1.251 -0.0759  0.0424  0.4850
  592SOL    HW2 2414   2.004   2.165   1.212 -1.6330 -0.2966 -1.0716
  592SOL    HW3 2415   1.965   2.100   1.342  1.4404  1.0993  0.6128
  592SOL    MW4 2416   1.985   2.094   1.258 -0.0814  0.1373  0.2965
  593SOL     OW 2417   4.214   4.076   0.359  0.3001  0.0422 -0.0817
  593SOL    HW2 2418   4.279   4.012   0.387  0.2342 -0.3769 -0.8873
  593SOL    HW3 2419   4.132   4.045   0.397  0.3626 -0.0628 -0.0329
  593SOL    MW4 2420   4.212   4.064   0.368  0.2995 -0.0272 -0.1816
  594SOL     OW 2421   2.626   2.918   0.398  0.1250 -0.0758  0.0335
  594SOL    HW2 2422   2.579   2.835   0.403  1.2433 -0.6150  1.9464
  594SOL    HW3 2423   2.585   2.973   0.465 -0.2380  0.7385 -0.8405
  594SOL    MW4 2424   2.614   2.914   0.407  0.2246 -0.0398  0.1706
  595SOL     OW 2425   3.593   4.324   0.658  0.4094  0.0041  0.5957
  595SOL    HW2 2426   3.582   4.313   0.752 -0.8354 -2.3938  0.2096
  595SOL    HW3 2427   3.643   4.247   0.630  1.6619  1.2076 -0.5642
  595SOL    MW4 2428   3.598   4.312   0.667  0.4106 -0.1535  0.3918
  596SOL     OW 2429   1.751   2.676   1.672  0.5284  0.0967 -0.6105
  596SOL    HW2 2430   1.841   2.709   1.674  0.4280  0.3765 -0.6177
  596SOL    HW3 2431   1.754   2.603   1.611  1.1231 -1.0167  0.7349
  596SOL    MW4 2432   1.763   2.671   1.664  0.5935 -0.0131 -0.4339
  597SOL     OW 2433   3.338   0.060   0.380  0.2441 -0.0344  0.0506
  597SOL    HW2 2434   3.366   0.010   0.456 -0.6490 -0.3260  0.2037
  597SOL    HW3 2435   3.254   0.020   0.355 -0.3955  1.2595  0.0659
  597SOL    MW4 2436   3.330   0.048   0.387  0.0417  0.0978  0.0728
  598SOL     OW 2437   1.823   3.179   1.261 -0.0930 -0.2318 -0.6448
  598SOL    HW2 2438   1.814   3.193   1.355 -0.6956  0.7631 -0.8464
  598SOL    HW3 2439   1.829   3.267   1.224 -0.0777 -0.6152 -1.5608
  598SOL    MW4 2440   1.823   3.193   1.268 -0.1705 -0.1512 -0.7923
  599SOL     OW 2441   1.830   3.440   1.134  0.1190  0.0347 -0.3079
  599SOL    HW2 2442   1.908   3.491   1.155  0.3992 -0.0500 -1.1176
  599SOL    HW3 2443   1.757   3.496   1.162  0.4504  0.3610 -0.0820
  599SOL    MW4 2444   1.831   3.454   1.141  0.1996  0.0665 -0.3849
  600SOL     OW 2445   2.054   3.578   1.224 -0.2352  0.3218 -0.6167
  600SOL    HW2 2446   2.052   3.587   1.319  0.9351  1.6354 -0.6898
  600SOL    HW3 2447   2.134   3.528   1.206 -0.1290  0.6065 -0.9384
  600SOL    MW4 2448   2.065   3.573   1.234 -0.0668  0.5326 -0.6689
  601SOL     OW 2449   2.000   3.846   1.159 -0.2826  0.2029  0.0435
  601SOL    HW2 2450   1.929   3.880   1.212  0.1983  1.2138  0.0395
  601SOL    HW3 2451   2.003   3.752   1.181 -0.1073  0.5955  1.7818
  601SOL    MW4 2452   1.991   3.838   1.169 -0.1960  0.3881  0.2724
  602SOL     OW 2453   1.781   3.998   1.236  0.0392  0.2748  0.6714
  602SOL    HW2 2454   1.773   4.093   1.223 -0.8836  0.1448  0.1725
  602SOL    HW3 2455   1.784   3.987   1.331  2.7360  0.9756  0.7018
  602SOL    MW4 2456   1.780   4.009   1.247  0.2733  0.3500  0.6096
  603SOL     OW 2457   1.541   4.435   1.217  0.6349  0.2262 -0.1079
  603SOL    HW2 2458   1.554   4.528   1.195 -1.3955  0.3881 -0.7541
  603SOL    HW3 2459   1.554   4.431   1.312 -0.7987  1.4892  0.1745
  603SOL    MW4 2460   1.544   4.447   1.227  0.1780  0.4139 -0.1558
  604SOL     OW 2461   2.266   4.211   1.160  0.2967 -0.1573 -0.0753
  604SOL    HW2 2462   2.194   4.269   1.183 -0.2632 -0.8498 -0.0551
  604SOL    HW3 2463   2.319   4.261   1.098  0.4721  0.8077  0.8324
  604SOL    MW4 2464   2.263   4.225   1.155  0.2460 -0.1211  0.0471
  605SOL     OW 2465   2.495   0.000   1.291  0.3040 -0.0877 -0.0624
  605SOL    HW2 2466   2.406   0.026   1.315  0.2515  0.8134 -1.2030
  605SOL    HW3 2467   2.551   0.051   1.350  0.1022  0.2484 -0.1619
  605SOL    MW4 2468   2.490   0.010   1.302  0.2706  0.0753 -0.2259
  606SOL     OW 2469   2.237   0.091   1.302 -0.3938  0.6976  0.5514
  606SOL    HW2 2470   2.239   0.163   1.240 -2.5363  1.4170  1.2870
  606SOL    HW3 2471   2.174   0.029   1.266  1.7504 -1.0534 -0.2998
  606SOL    MW4 2472   2.229   0.092   1.289 -0.3936  0.5614  0.5362
  607SOL     OW 2473   2.241   0.327   1.174 -0.2688  0.8720  0.2554
  607SOL    HW2 2474   2.164   0.373   1.208 -0.0594  1.7197 -0.3891
  607SOL    HW3 2475   2.233   0.336   1.079 -0.3554 -0.6540  0.1114
  607SOL    MW4 2476   2.230   0.334   1.166 -0.2527  0.7825  0.1514
  608SOL     OW 2477   2.467   0.787   1.187 -0.2078 -0.0256 -0.6729
  608SOL    HW2 2478   2.469   0.692   1.191 -1.3504 -0.1865 -3.0626
  608SOL    HW3 2479   2.515   0.809   1.107 -0.1807  1.3860 -0.2844
  608SOL    MW4 2480   2.474   0.777   1.177 -0.3548  0.1394 -0.9369
  609SOL     OW 2481   2.469   0.479   1.223  0.2994 -0.1143 -0.1549
  609SOL    HW2 2482   2.465   0.495   1.317  0.8559 -2.1366  0.2410
  609SOL    HW3 2483   2.389   0.429   1.204  0.1882  0.2876 -0.7434
  609SOL    MW4 2484   2.458   0.474   1.233  0.3581 -0.3280 -0.1804
  610SOL     OW 2485   2.221   0.921   1.177  0.1578 -0.1891 -0.6061
  610SOL    HW2 2486   2.299   0.867   1.186  0.8679  0.7427 -1.1732
  610SOL    HW3 2487   2.153   0.860   1.147  1.1385 -0.6236 -1.9552
  610SOL    MW4 2488   2.222   0.906   1.175  0.3808 -0.1235 -0.8589
  611SOL     OW 2489   2.248   1.178   1.069  0.1060  0.2148 -0.3625
  611SOL    HW2 2490   2.258   1.170   0.974 -2.7334 -0.9211 -0.6147
  611SOL    HW3 2491   2.238   1.088   1.100 -2.1760  0.7512  0.5817
  611SOL    MW4 2492   2.248   1.165   1.061 -0.5698  0.1357 -0.2712
  612SOL     OW 2493   2.455   1.313   1.212 -0.1154 -0.4021 -0.1896
  612SOL    HW2 2494   2.536   1.267   1.190  0.4519  0.5564 -0.1729
  612SOL    HW3 2495   2.387   1.267   1.163  0.3978 -1.3914  0.0172
  612SOL    MW4 2496   2.457   1.301   1.202  0.0274 -0.4061 -0.1602
  613SOL     OW 2497   3.350   1.579   0.960 -0.3070  0.5570  0.3452
  613SOL    HW2 2498   3.434   1.625   0.954  0.2272 -0.1970  1.8778
  613SOL    HW3 2499   3.370   1.489   0.933 -0.6960  0.4662  0.3627
  613SOL    MW4 2500   3.364   1.573   0.955 -0.2880  0.4455  0.5497
  614SOL     OW 2501   2.452   1.575   1.089 -0.0794  0.2358 -0.3463
  614SOL    HW2 2502   2.446   1.483   1.116  0.6441  0.1271 -0.5655
  614SOL    HW3 2503   2.386   1.620   1.143  2.0746  0.2135  2.4106
  614SOL    MW4 2504   2.442   1.569   1.100  0.3004  0.2186 -0.0114
  615SOL     OW 2505   3.433   1.329   0.870  0.1525 -0.2959  0.2500
  615SOL    HW2 2506   3.371   1.269   0.911  0.9610 -2.2521 -1.3142
  615SOL    HW3 2507   3.513   1.277   0.858  0.5938  0.8250 -1.9098
  615SOL    MW4 2508   3.436   1.314   0.874  0.3171 -0.4061 -0.2413
  616SOL     OW 2509   2.416   2.082   1.283  0.0607  0.0442  0.3043
  616SOL    HW2 2510   2.483   2.031   1.239  1.0162  0.0948  1.6756
  616SOL    HW3 2511   2.333   2.044   1.253  0.7122 -0.7534 -0.5110
  616SOL    MW4 2512   2.414   2.070   1.273  0.2725 -0.0546  0.3777
  617SOL     OW 2513   2.475   2.302   1.140  0.2374  0.5908 -0.2161
  617SOL    HW2 2514   2.465   2.224   1.194  0.7379  0.9254  0.3749
  617SOL    HW3 2515   2.514   2.271   1.058 -0.3947  0.0993 -0.3331
  617SOL    MW4 2516   2.479   2.288   1.136  0.2201  0.5703 -0.1534
  618SOL     OW 2517   2.237   2.412   1.234  0.2062  0.8148  0.2050
  618SOL    HW2 2518   2.259   2.418   1.327  0.9949  3.7611 -0.1302
  618SOL    HW3 2519   2.313   2.370   1.194  0.3280  0.5367  0.7249
  618SOL    MW4 2520   2.250   2.407   1.241  0.3266  1.1666  0.2294
  619SOL     OW 2521   0.827   2.038   0.453  0.2326  0.1079 -0.2236
  619SOL    HW2 2522   0.791   1.950   0.446  0.2866  0.1215 -0.6464
  619SOL    HW3 2523   0.771   2.081   0.517 -0.9658  0.3631 -1.4284
  619SOL    MW4 2524   0.815   2.032   0.461  0.0816  0.1433 -0.4383
  620SOL     OW 2525   2.263   2.684   1.142 -0.4158  0.1059  0.4341
  620SOL    HW2 2526   2.260   2.593   1.172 -0.8773  0.1834  0.6309
  620SOL    HW3 2527   2.256   2.678   1.047 -0.4755 -0.0642  0.4483
  620SOL    MW4 2528   2.261   2.671   1.134 -0.4847  0.0939  0.4618
  621SOL     OW 2529   2.454   2.844   1.270 -0.1197 -0.1579 -0.1543
  621SOL    HW2 2530   2.392   2.781   1.233  0.7396 -1.0661 -0.0730
  621SOL    HW3 2531   2.439   2.839   1.364 -0.4274  0.1649 -0.1843
  621SOL    MW4 2532   2.444   2.835   1.277 -0.0467 -0.2351 -0.1476
  622SOL     OW 2533   3.039   3.715   0.909 -0.1006 -0.0035  0.3632
  622SOL    HW2 2534   3.105   3.646   0.917 -0.6718 -0.7561 -1.0641
  622SOL    HW3 2535   3.070   3.770   0.837 -0.3074  0.4679  0.6322
  622SOL    MW4 2536   3.052   3.713   0.900 -0.2031 -0.0405  0.2103
  623SOL     OW 2537   2.280   3.431   1.123  0.9477 -0.6427  0.4048
  623SOL    HW2 2538   2.358   3.461   1.171  0.4582  1.6423 -0.1737
  623SOL    HW3 2539   2.292   3.464   1.034 -0.0791 -1.3921 -0.0204
  623SOL    MW4 2540   2.292   3.439   1.118  0.7477 -0.4404  0.2724
  624SOL     OW 2541   2.496   3.590   1.201  0.4280 -0.1506  0.5697
  624SOL    HW2 2542   2.474   3.611   1.292 -0.8364 -0.9263  0.4512
  624SOL    HW3 2543   2.505   3.675   1.159  0.6219  0.2092  1.3197
  624SOL    MW4 2544   2.495   3.604   1.208  0.2866 -0.2055  0.6531
  625SOL     OW 2545   2.515   3.869   1.152 -0.3406 -0.3750  0.4596
  625SOL    HW2 2546   2.437   3.898   1.200 -1.3265 -1.1542 -0.6375
  625SOL    HW3 2547   2.497   3.892   1.061  1.0825  0.1953  0.3170
  625SOL    MW4 2548   2.502   3.876   1.147 -0.2830 -0.4027  0.2960
  626SOL     OW 2549   2.266   3.943   1.270  0.1213  0.5625  0.1037
  626SOL    HW2 2550   2.266   4.034   1.240  1.2556  0.1335 -1.2660
  626SOL    HW3 2551   2.205   3.899   1.210 -0.8508  0.5222  1.1107
  626SOL    MW4 2552   2.258   3.949   1.258  0.1426  0.5007  0.0558
  627SOL     OW 2553   0.011   0.919   0.335 -0.3985  0.4385 -0.0192
  627SOL    HW2 2554  -0.025   0.992   0.284  0.1943  0.7198 -0.0415
  627SOL    HW3 2555   0.097   0.902   0.296 -0.2116  0.2318  0.4735
  627SOL    MW4 2556   0.018   0.926   0.323 -0.2957  0.4483  0.0429
  628SOL     OW 2557   2.488   4.381   1.317 -0.0312  0.4300  0.4063
  628SOL    HW2 2558   2.410   4.372   1.262 -0.4095  1.4142  0.7851
  628SOL    HW3 2559   2.509   4.474   1.315  1.1914  0.1676  0.2404
  628SOL    MW4 2560   2.480   4.392   1.309  0.0803  0.5250  0.4343
  629SOL     OW 2561   2.901   4.642   1.233  0.1469 -0.1069  0.1905
  629SOL    HW2 2562   2.894   4.563   1.287  0.2653 -0.4556 -0.3096
  629SOL    HW3 2563   2.863   4.618   1.149 -0.4754  0.5857  0.2674
  629SOL    MW4 2564   2.895   4.629   1.229  0.0806 -0.0615  0.1347
  630SOL     OW 2565   2.806   0.231   1.314 -0.3466 -0.0001 -0.2628
  630SOL    HW2 2566   2.759   0.197   1.389 -1.6834 -0.6385 -1.3678
  630SOL    HW3 2567   2.844   0.154   1.272  2.3837  0.5702  1.0489
  630SOL    MW4 2568   2.805   0.216   1.318 -0.1628 -0.0091 -0.2353
  631SOL     OW 2569   2.725   0.402   1.130  0.2580 -0.1072  0.0676
  631SOL    HW2 2570   2.765   0.338   1.190 -2.9675 -2.7467 -0.4366
  631SOL    HW3 2571   2.649   0.436   1.178 -0.2244  0.5240 -1.1330
  631SOL    MW4 2572   2.720   0.398   1.144 -0.2315 -0.3722 -0.1575
  632SOL     OW 2573   2.978   0.517   1.098 -0.0275 -0.1041 -0.1148
  632SOL    HW2 2574   2.980   0.586   1.165 -0.5174 -0.0401 -0.1629
  632SOL    HW3 2575   2.891   0.477   1.108  1.5625 -3.1407  2.3682
  632SOL    MW4 2576   2.967   0.521   1.109  0.1178 -0.4963  0.2062
  633SOL     OW 2577   2.986   0.735   1.257  0.2977  0.1079 -0.0753
  633SOL    HW2 2578   3.056   0.801   1.253  0.1986  0.4361  2.6447
  633SOL    HW3 2579   2.905   0.785   1.243  0.1369  0.7902  3.0240
  633SOL    MW4 2580   2.984   0.751   1.255  0.2635  0.2411  0.6925
  634SOL     OW 2581   2.718   0.896   1.250  0.0663 -0.3495 -0.4350
  634SOL    HW2 2582   2.721   0.990   1.232 -0.4441  0.2965  2.5736
  634SOL    HW3 2583   2.625   0.875   1.252  0.1388 -0.5735  0.5440
  634SOL    MW4 2584   2.706   0.906   1.248  0.0086 -0.2939  0.0913
  635SOL     OW 2585   4.476   1.088   0.605  0.3067 -0.3336  0.7548
  635SOL    HW2 2586   4.510   1.169   0.565 -1.3620  0.2849  0.5454
  635SOL    HW3 2587   4.472   1.026   0.532  0.0528 -0.1162  0.5848
  635SOL    MW4 2588   4.480   1.091   0.590  0.0530 -0.2234  0.7047
  636SOL     OW 2589   2.919   1.299   1.256 -0.1797  0.1529 -0.3102
  636SOL    HW2 2590   3.009   1.268   1.249  0.0830  0.7669  0.1917
  636SOL    HW3 2591   2.895   1.281   1.347 -0.2460  0.8012 -0.1930
  636SOL    MW4 2592   2.927   1.293   1.267 -0.1538  0.3195 -0.2285
  637SOL     OW 2593   4.385   1.045   0.868 -0.0575 -0.7282  0.3665
  637SOL    HW2 2594   4.429   1.049   0.783 -0.7706 -0.2878  0.0134
  637SOL    HW3 2595   4.331   0.966   0.863 -2.3063  0.8204 -0.6897
  637SOL    MW4 2596   4.384   1.035   0.856 -0.4478 -0.4659  0.1806
  638SOL     OW 2597   2.659   1.663   1.247 -0.2004 -0.1673  0.3213
  638SOL    HW2 2598   2.735   1.634   1.197 -0.5195  0.5900 -0.6366
  638SOL    HW3 2599   2.584   1.633   1.195 -0.5382  0.3693  0.4944
  638SOL    MW4 2600   2.659   1.656   1.234 -0.2871  0.0035  0.2178
  639SOL     OW 2601   3.113   0.418   0.701 -0.5423  0.2098  0.1356
  639SOL    HW2 2602   3.159   0.435   0.619 -0.6733  1.0404  0.2339
  639SOL    HW3 2603   3.174   0.366   0.752  0.4645  1.6373  0.4227
  639SOL    MW4 2604   3.127   0.413   0.697 -0.4265  0.5077  0.1864
  640SOL     OW 2605   2.892   2.047   1.238  0.0219  0.0008 -0.0786
  640SOL    HW2 2606   2.878   2.140   1.226  0.4247  0.0086 -0.5089
  640SOL    HW3 2607   2.889   2.034   1.333  0.4728  0.5352  0.0116
  640SOL    MW4 2608   2.890   2.057   1.249  0.1347  0.0725 -0.1234
  641SOL     OW 2609   2.883   2.314   1.193 -0.5807  0.1908 -0.0016
  641SOL    HW2 2610   2.958   2.348   1.241  0.0670 -0.1777 -0.7342
  641SOL    HW3 2611   2.812   2.375   1.211  0.1048  0.9660  0.0778
  641SOL    MW4 2612   2.884   2.326   1.201 -0.4048  0.2446 -0.0879
  642SOL     OW 2613   2.663   2.451   1.267  0.0154  0.3033 -0.0313
  642SOL    HW2 2614   2.661   2.436   1.362  0.7757  1.6670  0.2079
  642SOL    HW3 2615   2.608   2.382   1.231  0.7944 -1.0564  1.3089
  642SOL    MW4 2616   2.656   2.440   1.275  0.2186  0.3040  0.1771
  643SOL     OW 2617   2.666   2.711   1.150  0.0021  0.0308 -0.0251
  643SOL    HW2 2618   2.667   2.626   1.194  0.1686  0.0535  0.0153
  643SOL    HW3 2619   2.594   2.759   1.190 -1.0610 -0.6402 -1.0813
  643SOL    MW4 2620   2.657   2.706   1.161 -0.1163 -0.0551 -0.1593
  644SOL     OW 2621   2.908   2.793   1.277 -0.1674  0.6936  0.0656
  644SOL    HW2 2622   2.889   2.784   1.371 -0.0372  1.2207  0.1457
  644SOL    HW3 2623   2.843   2.738   1.234  0.2839 -0.2050  0.5019
  644SOL    MW4 2624   2.897   2.784   1.284 -0.0908  0.6447  0.1338
  645SOL     OW 2625   2.933   3.053   1.168 -0.1100 -0.5388  0.3306
  645SOL    HW2 2626   2.927   2.962   1.195 -1.1023 -0.3238  0.8591
  645SOL    HW3 2627   2.925   3.050   1.072 -0.6020 -0.9654  0.3849
  645SOL    MW4 2628   2.931   3.041   1.159 -0.3059 -0.5670  0.4076
  646SOL     OW 2629   2.730   3.458   1.125  0.0143 -0.4284  0.2391
  646SOL    HW2 2630   2.651   3.506   1.148  0.5286 -0.1533  1.4463
  646SOL    HW3 2631   2.713   3.426   1.036 -1.2347  0.0681  0.2855
  646SOL    MW4 2632   2.717   3.460   1.116 -0.0825 -0.3266  0.4046
  647SOL     OW 2633   2.737   3.222   1.273 -0.1752  0.2905 -0.0811
  647SOL    HW2 2634   2.751   3.306   1.229 -1.1983  0.2399 -0.5121
  647SOL    HW3 2635   2.803   3.164   1.234  0.6531  0.9379  0.3490
  647SOL    MW4 2636   2.747   3.226   1.262 -0.2012  0.3693 -0.0812
  648SOL     OW 2637   2.935   3.591   1.239  0.8361  0.1664  0.6789
  648SOL    HW2 2638   2.921   3.682   1.211 -0.4870 -0.0192  0.6804
  648SOL    HW3 2639   2.869   3.541   1.191  1.0136 -0.6798  1.2986
  648SOL    MW4 2640   2.924   3.597   1.229  0.6847  0.0303  0.7608
  649SOL     OW 2641   2.911   3.842   1.152  0.1426 -0.2269  0.1578
  649SOL    HW2 2642   2.984   3.866   1.208  0.5482  1.6791 -1.1328
  649SOL    HW3 2643   2.952   3.810   1.072 -0.4339 -1.7718  0.4742
  649SOL    MW4 2644   2.926   3.841   1.149  0.1199 -0.1793  0.0292
  650SOL     OW 2645   2.713   4.015   1.287  0.2634 -0.2602  0.1139
  650SOL    HW2 2646   2.640   3.977   1.237  1.0971  0.2381 -1.5166
  650SOL    HW3 2647   2.791   3.979   1.245  1.0746  2.9830 -1.2875
  650SOL    MW4 2648   2.714   4.005   1.275  0.4804  0.2337 -0.2862
  651SOL     OW 2649   2.679   4.254   1.161  0.3776  0.3145 -0.0415
  651SOL    HW2 2650   2.699   4.170   1.204  0.6483  0.0319 -0.7072
  651SOL    HW3 2651   2.616   4.296   1.219  2.0553  0.7309  1.5478
  651SOL    MW4 2652   2.673   4.248   1.175  0.6347  0.3319  0.0802
  652SOL     OW 2653   2.892   4.327   1.328 -0.0042  0.0726  0.1133
  652SOL    HW2 2654   2.960   4.274   1.287 -0.3557 -1.0651  0.9769
  652SOL    HW3 2655   2.815   4.315   1.273  0.0469  0.0559  0.0466
  652SOL    MW4 2656   2.891   4.318   1.316 -0.0439 -0.0796  0.2186
  653SOL     OW 2657   3.387   0.027   1.216  0.4565 -0.2846  0.3569
  653SOL    HW2 2658   3.383  -0.066   1.239 -0.4271 -0.3085  0.1251
  653SOL    HW3 2659   3.301   0.061   1.241  0.4902  0.2965 -0.3075
  653SOL    MW4 2660   3.375   0.019   1.223  0.3448 -0.2111  0.2388
  654SOL     OW 2661   3.130   0.133   1.294 -0.3461  0.7335  0.1586
  654SOL    HW2 2662   3.128   0.132   1.390 -3.2638  1.0600  0.1362
  654SOL    HW3 2663   3.053   0.084   1.268 -0.1094  1.4834 -2.0422
  654SOL    MW4 2664   3.120   0.126   1.303 -0.6998  0.8755 -0.1345
  655SOL     OW 2665   3.186   0.348   1.106 -0.1020  0.6177  0.2295
  655SOL    HW2 2666   3.168   0.263   1.146 -0.2964  1.5678  2.1876
  655SOL    HW3 2667   3.101   0.393   1.107  0.4388  1.6185  1.0816
  655SOL    MW4 2668   3.172   0.343   1.111 -0.0565  0.8751  0.6002
  656SOL     OW 2669   3.342   0.511   1.263 -0.2749  0.3619  0.6334
  656SOL    HW2 2670   3.349   0.593   1.216 -1.3640  0.1385  0.0817
  656SOL    HW3 2671   3.295   0.453   1.204  0.7223 -0.7536  0.9016
  656SOL    MW4 2672   3.337   0.514   1.249 -0.2866  0.1852  0.5960
  657SOL     OW 2673   3.395   0.758   1.140 -0.1631 -0.2757  0.5117
  657SOL    HW2 2674   3.362   0.732   1.055 -0.0064  2.0651 -0.3103
  657SOL    HW3 2675   3.335   0.828   1.168  2.7183  2.4956 -0.0065
  657SOL    MW4 2676   3.383   0.764   1.133  0.2377  0.3988  0.3347
  658SOL     OW 2677   3.187   0.900   1.280 -0.2457  0.3079  0.1715
  658SOL    HW2 2678   3.207   0.900   1.374  1.7530  1.5083 -0.2203
  658SOL    HW3 2679   3.181   0.992   1.257 -1.7760  0.0011 -0.6897
  658SOL    MW4 2680   3.189   0.912   1.290 -0.1838  0.4258  0.0062
  659SOL     OW 2681   3.358   1.549   1.238 -0.2969  0.1175  0.0639
  659SOL    HW2 2682   3.358   1.581   1.148 -0.9548  2.6507  0.9018
  659SOL    HW3 2683   3.443   1.576   1.273 -0.7044  0.6477  0.6717
  659SOL    MW4 2684   3.369   1.557   1.231 -0.4375  0.5217  0.2546
  660SOL     OW 2685   3.752   2.251   0.620 -0.1457 -0.5962  0.2461
  660SOL    HW2 2686   3.799   2.173   0.590  1.1708 -0.2401  1.3595
  660SOL    HW3 2687   3.668   2.247   0.574  2.1429  0.4146 -4.2480
  660SOL    MW4 2688   3.747   2.240   0.610  0.3300 -0.4158 -0.2000
  661SOL     OW 2689   3.850   0.485   1.282 -0.5997  0.6323 -0.1993
  661SOL    HW2 2690   3.921   0.431   1.246 -0.0809  0.0987  1.5664
  661SOL    HW3 2691   3.862   0.570   1.241  0.8506  0.4382 -0.2036
  661SOL    MW4 2692   3.861   0.489   1.272 -0.3400  0.5363  0.0330
  662SOL     OW 2693   3.108   1.632   1.304 -0.0343  0.4031 -0.3869
  662SOL    HW2 2694   3.099   1.626   1.399 -0.0392  1.7768 -0.2924
  662SOL    HW3 2695   3.202   1.618   1.289 -0.0905 -0.1797 -0.2147
  662SOL    MW4 2696   3.120   1.630   1.315 -0.0422  0.5074 -0.3517
  663SOL     OW 2697   3.356   2.028   1.232  0.2191  0.7474  0.3808
  663SOL    HW2 2698   3.271   1.995   1.203  0.2933  0.4981  0.4465
  663SOL    HW3 2699   3.357   2.120   1.205  0.8694  0.1499 -1.6715
  663SOL    MW4 2700   3.345   2.036   1.225  0.3147  0.6356  0.1189
  664SOL     OW 2701   3.562   1.849   1.187  0.4025  0.1555 -0.1732
  664SOL    HW2 2702   3.485   1.900   1.211  0.6539 -1.0884  3.5912
  664SOL    HW3 2703   3.636   1.907   1.205  0.5775 -0.6501  1.7796
  664SOL    MW4 2704   3.562   1.863   1.193  0.4587 -0.1149  0.5811
  665SOL     OW 2705   3.302   2.279   1.127 -0.3226  0.0960  0.6383
  665SOL    HW2 2706   3.366   2.351   1.128  0.6330 -0.7546  2.0540
  665SOL    HW3 2707   3.228   2.311   1.178  0.0843  0.1159  1.2277
  665SOL    MW4 2708   3.301   2.293   1.134 -0.1431 -0.0136  0.9029
  666SOL     OW 2709   3.104   2.422   1.278 -0.5512 -0.0417 -0.2165
  666SOL    HW2 2710   3.128   2.513   1.259 -2.3927  0.9788  2.0063
  666SOL    HW3 2711   3.139   2.406   1.365  0.1512 -1.6505 -0.7747
  666SOL    MW4 2712   3.112   2.432   1.287 -0.7014 -0.1197  0.0032
  667SOL     OW 2713   3.581   1.122   0.464 -0.0035  0.2307  0.2012
  667SOL    HW2 2714   3.516   1.053   0.481 -0.2858 -0.1016 -2.0460
  667SOL    HW3 2715   3.530   1.196   0.432  0.7366 -0.2170 -2.1143
  667SOL    MW4 2716   3.566   1.123   0.462  0.0570  0.1279 -0.4008
  668SOL     OW 2717   3.384   2.823   1.234  0.2894 -0.1663  0.6732
  668SOL    HW2 2718   3.385   2.906   1.186 -0.6259  0.4829  1.7498
  668SOL    HW3 2719   3.297   2.786   1.216  0.3742 -0.4737  0.8948
  668SOL    MW4 2720   3.372   2.829   1.225  0.1798 -0.1211  0.8444
  669SOL     OW 2721   3.394   3.066   1.107  0.0504 -0.2578  0.3317
  669SOL    HW2 2722   3.479   3.085   1.145  0.6765 -0.7893 -0.7943
  669SOL    HW3 2723   3.332   3.110   1.165  1.1349  0.7668  0.7291
  669SOL    MW4 2724   3.397   3.074   1.120  0.2761 -0.1926  0.2356
  670SOL     OW 2725   3.175   3.165   1.269  0.2636  0.0589 -0.7134
  670SOL    HW2 2726   3.168   3.255   1.239  0.0167  0.4664  0.5203
  670SOL    HW3 2727   3.091   3.125   1.245  0.4463  0.1029 -1.4263
  670SOL    MW4 2728   3.163   3.172   1.262  0.2551  0.1185 -0.6447
  671SOL     OW 2729   3.151   3.433   1.173 -0.1062  0.0269 -0.1680
  671SOL    HW2 2730   3.210   3.472   1.237  0.1162 -0.5262 -0.0343
  671SOL    HW3 2731   3.065   3.470   1.194  0.1718  0.7721 -0.3110
  671SOL    MW4 2732   3.148   3.443   1.184 -0.0401  0.0525 -0.1693
  672SOL     OW 2733   3.384   3.563   1.314 -0.0753 -0.2833  0.9532
  672SOL    HW2 2734   3.377   3.581   1.408  0.1588 -1.0851  1.1308
  672SOL    HW3 2735   3.475   3.536   1.302 -0.5190 -1.7862  0.7899
  672SOL    MW4 2736   3.395   3.562   1.325 -0.1025 -0.5875  0.9551
  673SOL     OW 2737   3.369   3.825   1.235 -0.1898  0.1719  0.4196
  673SOL    HW2 2738   3.286   3.842   1.279 -0.5080 -0.2130 -0.0384
  673SOL    HW3 2739   3.394   3.737   1.264 -0.1377  0.1310  0.2519
  673SOL    MW4 2740   3.361   3.816   1.245 -0.2251  0.1156  0.3371
  674SOL     OW 2741   3.119   3.931   1.306  0.3541 -0.2223 -0.5925
  674SOL    HW2 2742   3.124   3.949   1.400  0.9117 -1.2259 -0.4229
  674SOL    HW3 2743   3.117   4.018   1.266  2.0905  0.2314  0.2442
  674SOL    MW4 2744   3.119   3.945   1.313  0.6568 -0.2952 -0.4597
  675SOL     OW 2745   3.099   4.194   1.198  0.4333 -0.2844  0.2479
  675SOL    HW2 2746   3.159   4.268   1.196 -0.1170  0.1912  1.1405
  675SOL    HW3 2747   3.082   4.174   1.105  1.0606  0.3087  0.0062
  675SOL    MW4 2748   3.105   4.201   1.185  0.4437 -0.1431  0.3337
  676SOL     OW 2749   3.278   4.404   1.209  0.6481  0.4142 -0.5373
  676SOL    HW2 2750   3.359   4.354   1.200 -0.3820 -1.1911 -1.1858
  676SOL    HW3 2751   3.256   4.429   1.120  0.4595  0.8978 -0.3531
  676SOL    MW4 2752   3.286   4.401   1.196  0.4873  0.2661 -0.5985
  677SOL     OW 2753   3.729   4.396   1.282 -0.1490  0.3385  0.0273
  677SOL    HW2 2754   3.760   4.382   1.371  1.2005 -0.3186 -0.5153
  677SOL    HW3 2755   3.665   4.326   1.267  0.4320 -0.2316  0.1338
  677SOL    MW4 2756   3.725   4.385   1.292  0.1056  0.1764 -0.0304
  678SOL     OW 2757   3.623   0.215   1.255 -0.1567 -0.3428 -0.6045
  678SOL    HW2 2758   3.543   0.165   1.241 -0.6353 -0.1773  1.3733
  678SOL    HW3 2759   3.609   0.297   1.209 -0.4973 -0.9012 -1.5144
  678SOL    MW4 2760   3.611   0.219   1.247 -0.2646 -0.3946 -0.4636
  679SOL     OW 2761   1.978   4.468   0.836  0.0008 -0.0007 -0.4505
  679SOL    HW2 2762   2.039   4.526   0.882  0.1384 -1.0388  0.7073
  679SOL    HW3 2763   2.031   4.424   0.770 -0.0159  0.8663 -1.0530
  679SOL    MW4 2764   1.993   4.470   0.834  0.0168 -0.0238 -0.3772
  680SOL     OW 2765   3.594   0.470   1.145 -0.2868  0.0667 -0.4402
  680SOL    HW2 2766   3.524   0.493   1.206 -0.7937  1.6473 -1.5795
  680SOL    HW3 2767   3.674   0.496   1.190 -0.4818 -1.0539  0.5593
  680SOL    MW4 2768   3.595   0.477   1.159 -0.3793  0.1274 -0.4587
  681SOL     OW 2769   3.831   0.747   1.187  0.4314  0.9276 -0.5179
  681SOL    HW2 2770   3.902   0.808   1.208  0.4124  0.9624 -0.5546
  681SOL    HW3 2771   3.752   0.790   1.221  0.2368  1.5385 -1.7035
  681SOL    MW4 2772   3.830   0.761   1.194  0.4032  1.0128 -0.6791
  682SOL     OW 2773   3.613   0.863   1.266  0.0559  0.2779  0.3080
  682SOL    HW2 2774   3.619   0.955   1.242  0.2094  0.0373 -0.5881
  682SOL    HW3 2775   3.543   0.828   1.211  0.5995 -0.3455  0.0159
  682SOL    MW4 2776   3.604   0.870   1.256  0.1481  0.1639  0.1512
  683SOL     OW 2777   3.398   1.266   1.263 -0.1626  0.1792 -0.5318
  683SOL    HW2 2778   3.376   1.358   1.246  0.3120  0.5389  0.7034
  683SOL    HW3 2779   3.409   1.262   1.358  1.4989 -0.8003 -0.7521
  683SOL    MW4 2780   3.396   1.278   1.273  0.1192  0.0974 -0.3977
  684SOL     OW 2781   3.833   1.232   1.271  0.0436  0.0127 -0.2285
  684SOL    HW2 2782   3.820   1.234   1.366 -2.0437 -0.7054 -0.4672
  684SOL    HW3 2783   3.835   1.324   1.245 -0.6862  0.2001  0.3570
  684SOL    MW4 2784   3.831   1.245   1.280 -0.3281 -0.0573 -0.1827
  685SOL     OW 2785   3.844   1.530   1.171 -0.6346  0.6274 -0.4955
  685SOL    HW2 2786   3.920   1.587   1.181 -0.7924  1.1235 -1.9373
  685SOL    HW3 2787   3.827   1.529   1.076 -1.8753 -0.1864 -0.2803
  685SOL    MW4 2788   3.852   1.537   1.159 -0.8190  0.5856 -0.6573
  686SOL     OW 2789   3.592   1.615   1.321 -0.1879 -0.4453  0.2409
  686SOL    HW2 2790   3.571   1.702   1.286 -2.5962 -1.6160 -1.3801
  686SOL    HW3 2791   3.671   1.588   1.274  0.1440  0.5384  0.2239
  686SOL    MW4 2792   3.600   1.623   1.310 -0.4621 -0.4700  0.0248
  687SOL     OW 2793   3.217   1.177   0.918 -0.6097 -0.1155 -0.0293
  687SOL    HW2 2794   3.167   1.196   0.839  2.0869  2.2808 -1.2304
  687SOL    HW3 2795   3.256   1.091   0.901 -1.5603 -0.4613 -0.5031
  687SOL    MW4 2796   3.216   1.168   0.905 -0.3793  0.1551 -0.2503
  688SOL     OW 2797   4.237   2.109   1.289  0.0177  0.0134 -0.7760
  688SOL    HW2 2798   4.212   2.194   1.252 -2.8078 -0.4836 -0.1627
  688SOL    HW3 2799   4.190   2.045   1.235  0.1161 -1.0127  0.3380
  688SOL    MW4 2800   4.227   2.112   1.277 -0.3424 -0.1874 -0.5481
  689SOL     OW 2801   3.574   2.439   1.530 -0.5141 -0.2784  0.4104
  689SOL    HW2 2802   3.587   2.533   1.537 -0.4784 -0.2551  0.0697
  689SOL    HW3 2803   3.662   2.401   1.535 -0.4209 -0.2125 -0.5608
  689SOL    MW4 2804   3.587   2.446   1.531 -0.4969 -0.2666  0.2373
  690SOL     OW 2805   2.610   3.731   0.734 -0.3926  0.2351 -0.2811
  690SOL    HW2 2806   2.568   3.735   0.648 -0.0116 -0.6513 -0.5165
  690SOL    HW3 2807   2.567   3.799   0.785 -1.3789  0.0398 -0.8414
  690SOL    MW4 2808   2.599   3.740   0.729 -0.4723  0.0925 -0.3861
  691SOL     OW 2809   3.534   2.401   1.262  0.0274 -0.5628  0.4207
  691SOL    HW2 2810   3.607   2.358   1.218  0.5823  0.0433  0.7435
  691SOL    HW3 2811   3.561   2.408   1.353 -1.2139 -2.0091  0.9274
  691SOL    MW4 2812   3.547   2.396   1.268 -0.0634 -0.6735  0.5300
  692SOL     OW 2813   3.610   2.674   1.199  0.1107 -0.4692  0.2440
  692SOL    HW2 2814   3.528   2.723   1.200  0.7168  0.5709 -0.3659
  692SOL    HW3 2815   3.585   2.585   1.227 -1.4305 -0.5011 -1.1721
  692SOL    MW4 2816   3.596   2.669   1.203 -0.0129 -0.3362 -0.0232
  693SOL     OW 2817   3.893   2.756   1.256  0.0031 -0.0039  0.2915
  693SOL    HW2 2818   3.887   2.779   1.349  0.5383 -0.6283  0.4832
  693SOL    HW3 2819   3.803   2.735   1.231  0.2321 -2.2807  1.2999
  693SOL    MW4 2820   3.880   2.757   1.265  0.1040 -0.3867  0.4499
  694SOL     OW 2821   3.630   3.457   1.224 -0.4378 -0.0148  0.1637
  694SOL    HW2 2822   3.720   3.477   1.248 -1.2490  2.6311  1.2314
  694SOL    HW3 2823   3.615   3.504   1.143 -0.7712 -0.6799 -0.1649
  694SOL    MW4 2824   3.640   3.466   1.217 -0.5889  0.2468  0.2611
  695SOL     OW 2825   3.873   3.582   1.282  0.1847  0.0257 -0.0364
  695SOL    HW2 2826   3.879   3.581   1.378  1.0351 -1.3344 -0.0835
  695SOL    HW3 2827   3.840   3.669   1.261 -0.5749  0.1439  1.5280
  695SOL    MW4 2828   3.869   3.593   1.292  0.1967 -0.1383  0.1638
  696SOL     OW 2829   3.491   3.982   0.550  0.3339 -0.0118  0.4589
  696SOL    HW2 2830   3.493   3.996   0.644  2.3831  0.0159  0.4343
  696SOL    HW3 2831   3.495   3.887   0.539 -0.7707 -0.0543  0.4131
  696SOL    MW4 2832   3.492   3.972   0.561  0.4585 -0.0138  0.4495
  697SOL     OW 2833   3.993   3.986   0.541  0.2933  0.0149 -0.1099
  697SOL    HW2 2834   3.974   3.892   0.539  0.6993 -0.0517 -1.1959
  697SOL    HW3 2835   3.909   4.027   0.524 -0.0344 -0.1235  1.1091
  697SOL    MW4 2836   3.980   3.979   0.539  0.3040 -0.0124 -0.0923
  698SOL     OW 2837   0.059   3.288   0.734 -0.3881  0.3436  0.3043
  698SOL    HW2 2838   0.152   3.300   0.714 -0.0946 -1.5884  0.4380
  698SOL    HW3 2839   0.040   3.355   0.800  1.2252 -0.0995  1.2485
  698SOL    MW4 2840   0.069   3.299   0.740 -0.1365  0.0300  0.4464
  699SOL     OW 2841   4.072   1.633   0.780 -0.5078  0.0074 -0.3533
  699SOL    HW2 2842   4.089   1.716   0.824  0.8655 -1.0445  1.2022
  699SOL    HW3 2843   4.147   1.578   0.804 -1.8723 -1.9792 -0.5549
  699SOL    MW4 2844   4.084   1.636   0.789 -0.5069 -0.3935 -0.1747
  700SOL     OW 2845   3.511   4.261   1.173 -0.0211 -0.0157 -0.5933
  700SOL    HW2 2846   3.542   4.278   1.084  0.1543 -1.4274 -0.8145
  700SOL    HW3 2847   3.509   4.166   1.180  3.1833  0.0117  2.0224
  700SOL    MW4 2848   3.515   4.251   1.162  0.4249 -0.1979 -0.2773
  701SOL     OW 2849   4.241   4.644   1.128  0.0304 -0.1333 -0.0329
  701SOL    HW2 2850   4.174   4.690   1.178 -0.7980  1.6668 -2.7255
  701SOL    HW3 2851   4.324   4.673   1.167 -0.6194  0.5708  0.8498
  701SOL    MW4 2852   4.243   4.654   1.140 -0.1650  0.1974 -0.2718
  702SOL     OW 2853   4.041   0.100   1.289 -0.0433  0.3606  0.5120
  702SOL    HW2 2854   4.040   0.117   1.384  0.5194 -2.1084  0.9860
  702SOL    HW3 2855   3.967   0.042   1.274  0.7297 -0.4094 -0.3410
  702SOL    MW4 2856   4.031   0.095   1.300  0.1330 -0.0667  0.4621
  703SOL     OW 2857   4.069   0.360   1.175 -0.3435 -0.1750 -0.2125
  703SOL    HW2 2858   4.045   0.342   1.085  0.3195  0.4585 -0.5218
  703SOL    HW3 2859   4.066   0.275   1.218  0.2125 -0.6189 -1.0416
  703SOL    MW4 2860   4.066   0.346   1.169 -0.1826 -0.1499 -0.3629
  704SOL     OW 2861   4.255   0.566   1.201  0.6464  0.0354 -0.1083
  704SOL    HW2 2862   4.269   0.567   1.296  2.8442 -3.1695 -0.3172
  704SOL    HW3 2863   4.188   0.499   1.187  1.7702 -0.9429 -0.9436
  704SOL    MW4 2864   4.248   0.557   1.212  1.0843 -0.5165 -0.2460
  705SOL     OW 2865   0.835   2.899   0.783 -0.5051 -0.2745 -0.5042
  705SOL    HW2 2866   0.911   2.940   0.825  0.5837 -1.9431 -0.7669
  705SOL    HW3 2867   0.839   2.807   0.811 -0.5098 -1.1324 -3.1150
  705SOL    MW4 2868   0.846   2.892   0.792 -0.3620 -0.6077 -0.8833
  706SOL     OW 2869   4.089   0.872   1.229 -0.2581  0.1789 -0.5480
  706SOL    HW2 2870   4.117   0.854   1.319 -0.1729 -0.4374 -0.6942
  706SOL    HW3 2871   4.168   0.862   1.177 -0.2815  0.6626 -0.6734
  706SOL    MW4 2872   4.103   0.868   1.234 -0.2494  0.1613 -0.5839
  707SOL     OW 2873   0.147   1.123   0.943  0.2221  0.2670  0.1578
  707SOL    HW2 2874   0.066   1.084   0.909  0.3480  0.1637 -0.0218
  707SOL    HW3 2875   0.134   1.126   1.038  0.2773 -0.3474  0.1868
  707SOL    MW4 2876   0.134   1.119   0.951  0.2460  0.1724  0.1380
  708SOL     OW 2877   4.278   1.273   1.234 -0.1942 -0.6936 -0.0402
  708SOL    HW2 2878   4.271   1.271   1.329 -1.5224  1.8735 -0.0499
  708SOL    HW3 2879   4.201   1.225   1.203 -2.0133  1.9707  0.1843
  708SOL    MW4 2880   4.267   1.266   1.242 -0.6089 -0.0035 -0.0118
  709SOL     OW 2881   0.011   4.278   0.868 -0.1969  0.5022  0.2487
  709SOL    HW2 2882  -0.037   4.224   0.931 -1.0938  0.7726 -0.2042
  709SOL    HW3 2883   0.080   4.220   0.835 -0.7405 -0.1620  0.2637
  709SOL    MW4 2884   0.014   4.263   0.872 -0.3869  0.4501  0.1909
  710SOL     OW 2885   1.099   1.102   0.564 -0.3816 -0.1747  0.0503
  710SOL    HW2 2886   1.157   1.026   0.571  0.0362  0.1240 -0.0739
  710SOL    HW3 2887   1.140   1.156   0.496 -0.4709  0.3360  0.3967
  710SOL    MW4 2888   1.112   1.099   0.556 -0.3384 -0.0679  0.0797
  711SOL     OW 2889   4.077   1.683   1.265 -0.4795 -0.0901 -0.5090
  711SOL    HW2 2890   4.144   1.623   1.231  1.9852  1.9633  0.5073
  711SOL    HW3 2891   4.055   1.648   1.351  0.0606 -0.2157 -0.4174
  711SOL    MW4 2892   4.083   1.670   1.272 -0.0830  0.1643 -0.3630
  712SOL     OW 2893   0.231   2.037   1.277  0.4126 -0.2810  0.3924
  712SOL    HW2 2894   0.249   2.118   1.230  0.1374 -1.0401 -1.0475
  712SOL    HW3 2895   0.142   2.013   1.251  1.2344 -2.1161 -0.8142
  712SOL    MW4 2896   0.221   2.044   1.268  0.4847 -0.6235  0.0432
  713SOL     OW 2897   4.169   2.366   1.178  0.0797  0.3060  0.6254
  713SOL    HW2 2898   4.173   2.364   1.082 -0.4983 -0.3743  0.6079
  713SOL    HW3 2899   4.094   2.423   1.197  0.0665  0.2718  0.6724
  713SOL    MW4 2900   4.160   2.373   1.168  0.0014  0.2117  0.6292
  714SOL     OW 2901   3.752   2.300   1.142 -0.2781  0.2966 -0.3630
  714SOL    HW2 2902   3.823   2.361   1.162  0.5411 -0.6794 -0.2774
  714SOL    HW3 2903   3.750   2.296   1.046  1.6484 -1.8079 -0.3598
  714SOL    MW4 2904   3.761   2.308   1.132  0.0842 -0.1099 -0.3513
  715SOL     OW 2905   3.060   3.376   0.519  0.8343  0.0687  0.3807
  715SOL    HW2 2906   2.978   3.414   0.487 -0.5880 -2.9996  0.1230
  715SOL    HW3 2907   3.042   3.358   0.612  2.1081  1.6021  0.9424
  715SOL    MW4 2908   3.047   3.379   0.527  0.8149 -0.1338  0.4209
  716SOL     OW 2909   4.272   2.822   0.931 -0.1078  0.1992 -0.2212
  716SOL    HW2 2910   4.281   2.916   0.917  0.2019  0.4092  1.2934
  716SOL    HW3 2911   4.244   2.814   1.022  2.7759 -1.2844  0.6020
  716SOL    MW4 2912   4.270   2.833   0.941  0.3133  0.0312  0.0873
  717SOL     OW 2913   0.191   2.886   0.922 -0.2007 -0.2561  0.4616
  717SOL    HW2 2914   0.145   2.847   0.847  0.6850 -0.6056  0.0925
  717SOL    HW3 2915   0.153   2.974   0.930 -0.6290 -0.3812 -0.1049
  717SOL    MW4 2916   0.180   2.892   0.913 -0.1404 -0.3188  0.3381
  718SOL     OW 2917   3.633   3.162   1.240 -0.0643 -0.0653 -0.8959
  718SOL    HW2 2918   3.644   3.253   1.212 -0.2660  0.6454  1.2557
  718SOL    HW3 2919   3.717   3.120   1.219  1.1191  1.3705  0.8435
  718SOL    MW4 2920   3.646   3.168   1.234  0.0651  0.2177 -0.3824
  719SOL     OW 2921   4.236   3.187   1.319  0.0563  0.1194  0.1635
  719SOL    HW2 2922   4.179   3.221   1.249  1.2470 -0.0063 -0.8820
  719SOL    HW3 2923   4.179   3.184   1.396 -1.4255 -0.1799 -0.9059
  719SOL    MW4 2924   4.221   3.191   1.320  0.0181  0.0634 -0.1155
  720SOL     OW 2925   4.189   3.559   1.276 -0.0066 -0.0807 -0.1210
  720SOL    HW2 2926   4.173   3.641   1.228 -1.2326 -0.4618 -0.3771
  720SOL    HW3 2927   4.107   3.511   1.270 -0.0811 -0.2775  2.1134
  720SOL    MW4 2928   4.176   3.564   1.269 -0.1779 -0.1569  0.1400
  721SOL     OW 2929   4.295   0.759   0.435 -0.2580  0.4472  0.0564
  721SOL    HW2 2930   4.373   0.806   0.404  0.1855 -0.2703  0.0735
  721SOL    HW3 2931   4.221   0.815   0.409  0.3486  2.0168  1.5628
  721SOL    MW4 2932   4.296   0.773   0.428 -0.1192  0.5596  0.2574
  722SOL     OW 2933   0.748   4.221   0.507  0.1822 -0.3874  0.0236
  722SOL    HW2 2934   0.706   4.136   0.498  0.4188 -0.5524  0.4692
  722SOL    HW3 2935   0.687   4.282   0.465 -0.8743 -0.5177  1.3254
  722SOL    MW4 2936   0.734   4.218   0.500  0.0739 -0.4263  0.2542
  723SOL     OW 2937   0.222   3.577   0.728  0.3956 -0.0424 -0.1768
  723SOL    HW2 2938   0.256   3.578   0.639 -0.7730  1.4408 -0.6189
  723SOL    HW3 2939   0.243   3.663   0.764 -1.3616  0.2802  0.1194
  723SOL    MW4 2940   0.229   3.588   0.721  0.0096  0.1957 -0.1960
  724SOL     OW 2941   3.854   4.307   0.904 -0.0993 -0.3750  0.6665
  724SOL    HW2 2942   3.917   4.366   0.863 -1.8673  0.7597 -0.4709
  724SOL    HW3 2943   3.852   4.230   0.847 -0.3230 -0.0852  0.2857
  724SOL    MW4 2944   3.862   4.305   0.891 -0.3622 -0.1869  0.4662
  725SOL     OW 2945   0.223   0.042   1.676  0.0020  0.1560 -0.3339
  725SOL    HW2 2946   0.307   0.064   1.635  0.2209  0.8347  0.4704
  725SOL    HW3 2947   0.158   0.070   1.611  0.4040 -1.0470 -1.2741
  725SOL    MW4 2948   0.226   0.049   1.662  0.0839  0.0868 -0.3519
  726SOL     OW 2949   4.484   0.105   1.545 -0.0851 -0.2876  0.3053
  726SOL    HW2 2950   4.400   0.069   1.575 -1.2432  1.2405 -1.0032
  726SOL    HW3 2951   4.484   0.090   1.450  0.8640  0.2270  0.2131
  726SOL    MW4 2952   4.473   0.098   1.536 -0.1125 -0.0181  0.1204
  727SOL     OW 2953   4.472   0.366   1.588  0.0913  0.2593  0.0732
  727SOL    HW2 2954   4.475   0.377   1.683  2.8204  0.7911 -0.0530
  727SOL    HW3 2955   4.494   0.274   1.573 -0.2231  0.2034 -0.0703
  727SOL    MW4 2956   4.475   0.355   1.598  0.4096  0.3221  0.0377
  728SOL     OW 2957   0.205   0.513   1.517  0.6598 -0.4432 -0.1084
  728SOL    HW2 2958   0.139   0.446   1.533 -1.6087  2.0476  1.3726
  728SOL    HW3 2959   0.211   0.519   1.422 -3.0365  0.9437 -0.3113
  728SOL    MW4 2960   0.197   0.505   1.506 -0.1272  0.0684  0.0601
  729SOL     OW 2961   0.183   0.748   1.637  0.4217 -0.7343 -0.1273
  729SOL    HW2 2962   0.265   0.784   1.605  0.8466 -2.2126 -0.7402
  729SOL    HW3 2963   0.178   0.660   1.599 -2.2839 -0.0242 -1.5453
  729SOL    MW4 2964   0.193   0.741   1.628  0.1208 -0.8357 -0.3953
  730SOL     OW 2965   0.029   0.938   1.491 -0.1622 -0.7950  0.2655
  730SOL    HW2 2966   0.031   1.017   1.545  1.3261 -0.9028  0.3724
  730SOL    HW3 2967   0.091   0.878   1.533 -0.4680 -1.6197 -0.4421
  730SOL    MW4 2968   0.037   0.940   1.504 -0.0062 -0.9180  0.1863
  731SOL     OW 2969   0.006   1.170   1.632  0.3562 -0.0561  0.4792
  731SOL    HW2 2970   0.014   1.161   1.727  1.7834 -1.8565  0.2083
  731SOL    HW3 2971   0.076   1.230   1.608 -0.3087  0.7819  0.6072
  731SOL    MW4 2972   0.016   1.177   1.642  0.4563 -0.1831  0.4604
  732SOL     OW 2973   0.218   1.296   1.526  0.3471  0.1807 -0.0694
  732SOL    HW2 2974   0.211   1.389   1.545  0.2306 -0.1052  1.3100
  732SOL    HW3 2975   0.190   1.288   1.435 -1.0438  1.3019  0.2503
  732SOL    MW4 2976   0.214   1.307   1.516  0.1482  0.2909  0.1546
  733SOL     OW 2977   0.011   1.710   1.223 -0.0348 -0.1650 -0.1082
  733SOL    HW2 2978   0.085   1.650   1.228 -0.5943 -0.7397  1.4839
  733SOL    HW3 2979  -0.062   1.656   1.192 -0.2620 -0.0448  0.2171
  733SOL    MW4 2980   0.011   1.695   1.219 -0.1388 -0.2248  0.1447
  734SOL     OW 2981   0.188   1.561   1.637  0.5041  0.2995  0.1576
  734SOL    HW2 2982   0.187   1.567   1.733 -0.9604 -1.0460  0.2447
  734SOL    HW3 2983   0.114   1.615   1.609  0.9095  0.6641 -0.2245
  734SOL    MW4 2984   0.178   1.569   1.646  0.3643  0.1701  0.1185
  735SOL     OW 2985   4.481   1.696   1.507  0.6298  0.0172 -0.1993
  735SOL    HW2 2986   4.469   1.784   1.541  1.6947  0.5262 -1.1019
  735SOL    HW3 2987   4.483   1.707   1.412  1.1974 -0.9159 -0.3055
  735SOL    MW4 2988   4.480   1.709   1.499  0.8454 -0.0387 -0.3324
  736SOL     OW 2989   4.481   1.926   1.632 -0.2541 -0.0406 -0.0835
  736SOL    HW2 2990   4.482   1.920   1.728 -0.3030 -1.6066 -0.1630
  736SOL    HW3 2991   4.406   1.981   1.612  0.1407  0.8352  0.8017
  736SOL    MW4 2992   4.471   1.933   1.642 -0.2084 -0.1315  0.0229
  737SOL     OW 2993   0.177   2.337   1.623  0.0597 -0.2239 -0.7903
  737SOL    HW2 2994   0.158   2.344   1.717  1.4753  0.6695 -0.5688
  737SOL    HW3 2995   0.191   2.243   1.609  0.8591 -0.2400  0.0908
  737SOL    MW4 2996   0.176   2.325   1.634  0.3519 -0.1082 -0.6448
  738SOL     OW 2997   4.446   2.432   1.475  0.1537  0.4325 -0.0966
  738SOL    HW2 2998   4.380   2.371   1.508  0.4846 -0.4135 -0.9730
  738SOL    HW3 2999   4.529   2.400   1.511  0.4451 -0.1781 -1.2789
  738SOL    MW4 3000   4.449   2.420   1.484  0.2356  0.2403 -0.3684
  739SOL     OW 3001   4.473   2.674   1.626  0.1811 -0.2899 -0.7357
  739SOL    HW2 3002   4.393   2.723   1.604 -0.3245 -0.9841 -0.4768
  739SOL    HW3 3003   4.463   2.591   1.580  0.9584 -0.2177 -1.0388
  739SOL    MW4 3004   4.461   2.670   1.617  0.2170 -0.3719 -0.7415
  740SOL     OW 3005   0.172   2.862   1.584 -0.0499  0.2396  0.6317
  740SOL    HW2 3006   0.118   2.786   1.605 -0.2261  0.1102 -0.2744
  740SOL    HW3 3007   0.261   2.835   1.606 -0.2647  0.1945  1.4410
  740SOL    MW4 3008   0.177   2.849   1.590 -0.1015  0.2165  0.6188
  741SOL     OW 3009   0.233   3.113   1.676 -0.6365 -0.0805 -0.2932
  741SOL    HW2 3010   0.225   3.022   1.649 -0.1594 -0.3046  0.3039
  741SOL    HW3 3011   0.164   3.159   1.628 -1.2777 -0.8550 -0.1210
  741SOL    MW4 3012   0.223   3.107   1.666 -0.6582 -0.2122 -0.1918
  742SOL     OW 3013   0.012   3.240   1.558 -0.0329  0.2221  0.2527
  742SOL    HW2 3014   0.012   3.334   1.577 -1.4679  0.1474  0.7065
  742SOL    HW3 3015   0.009   3.235   1.462 -2.2809  0.6678  0.2730
  742SOL    MW4 3016   0.012   3.252   1.548 -0.5189  0.2708  0.3153
  743SOL     OW 3017   0.033   3.521   1.615 -0.0169 -0.4162  0.0906
  743SOL    HW2 3018   0.008   3.511   1.706  0.1551  2.3555  0.4943
  743SOL    HW3 3019  -0.041   3.567   1.575  0.6007 -0.1770 -0.7921
  743SOL    MW4 3020   0.020   3.526   1.621  0.0872 -0.0191  0.0274
  744SOL     OW 3021   0.251   3.658   1.516  0.2753  0.0757  0.3231
  744SOL    HW2 3022   0.180   3.609   1.557 -0.0310 -1.1053 -1.5822
  744SOL    HW3 3023   0.330   3.612   1.541  0.1415 -0.2508  0.1475
  744SOL    MW4 3024   0.252   3.646   1.525  0.2172 -0.1233  0.0486
  745SOL     OW 3025   0.188   3.920   1.619 -0.1378  0.1834 -0.1038
  745SOL    HW2 3026   0.205   3.904   1.712 -1.1480  1.1280  0.2520
  745SOL    HW3 3027   0.193   3.834   1.578  0.2124 -0.2496  0.8366
  745SOL    MW4 3028   0.191   3.906   1.626 -0.2249  0.2508  0.0672
  746SOL     OW 3029   4.470   4.063   1.533  0.0784 -0.0721 -0.2768
  746SOL    HW2 3030   4.483   4.152   1.563  1.4814  0.1122 -1.3761
  746SOL    HW3 3031   4.542   4.013   1.572 -1.1005 -0.8941  0.9214
  746SOL    MW4 3032   4.481   4.068   1.542  0.1078 -0.1564 -0.2638
  747SOL     OW 3033   0.024   4.322   1.643 -0.2178 -0.2093 -0.1049
  747SOL    HW2 3034   0.020   4.331   1.738 -0.6855  0.9025 -0.2145
  747SOL    HW3 3035  -0.057   4.363   1.612 -2.6679 -5.0895 -0.7352
  747SOL    MW4 3036   0.013   4.329   1.651 -0.6028 -0.7067 -0.2024
  748SOL     OW 3037   0.262   4.446   1.626  0.1506 -0.4222 -0.0564
  748SOL    HW2 3038   0.234   4.536   1.639  2.4123  0.4289 -0.8283
  748SOL    HW3 3039   0.182   4.394   1.635 -1.3324  1.7255 -0.5107
  748SOL    MW4 3040   0.248   4.451   1.629  0.2533 -0.0267 -0.2182
  749SOL     OW 3041   0.739   4.634   1.562  0.2431 -0.2891 -0.0906
  749SOL    HW2 3042   0.808   4.700   1.569 -1.4746  1.3522  2.2976
  749SOL    HW3 3043   0.661   4.684   1.537 -0.2342 -2.0397 -2.2626
  749SOL    MW4 3044   0.738   4.649   1.560 -0.0465 -0.3042 -0.0621
  750SOL     OW 3045   0.479   0.113   1.564  0.3977 -0.3150  0.1530
  750SOL    HW2 3046   0.475   0.205   1.588  1.8277 -0.1791 -0.0591
  750SOL    HW3 3047   0.451   0.109   1.473 -0.8441 -0.2608  0.5234
  750SOL    MW4 3048   0.475   0.124   1.555  0.4226 -0.2899  0.1739
  751SOL     OW 3049   0.439   0.376   1.666 -0.4771 -0.4812  0.2482
  751SOL    HW2 3050   0.514   0.418   1.624 -0.8856  0.0150  0.0082
  751SOL    HW3 3051   0.363   0.413   1.622 -0.8963 -0.3581  1.0593
  751SOL    MW4 3052   0.439   0.387   1.655 -0.5863 -0.3995  0.3237
  752SOL     OW 3053   0.663   0.525   1.583  0.2263 -0.1154 -0.5656
  752SOL    HW2 3054   0.653   0.616   1.610  1.5551  0.3219 -1.4879
  752SOL    HW3 3055   0.684   0.530   1.490 -0.5241 -1.4138 -0.8265
  752SOL    MW4 3056   0.664   0.538   1.574  0.3026 -0.2291 -0.7217
  753SOL     OW 3057   0.630   0.805   1.649  0.0632 -0.1399 -0.0717
  753SOL    HW2 3058   0.641   0.795   1.743  0.1539 -0.8315 -0.1485
  753SOL    HW3 3059   0.712   0.843   1.619  0.2108 -0.3522  0.0642
  753SOL    MW4 3060   0.642   0.809   1.657  0.0946 -0.2592 -0.0640
  754SOL     OW 3061   0.386   0.924   1.552  0.0392 -0.0590 -0.2627
  754SOL    HW2 3062   0.390   1.014   1.584  0.5200  0.0455 -0.6231
  754SOL    HW3 3063   0.469   0.885   1.580 -0.7734 -0.8184  1.1761
  754SOL    MW4 3064   0.397   0.930   1.560 -0.0045 -0.1454 -0.1203
  755SOL     OW 3065   0.413   1.167   1.672 -0.7586 -0.2258 -0.1833
  755SOL    HW2 3066   0.493   1.207   1.640 -0.8681 -0.9802 -1.4416
  755SOL    HW3 3067   0.343   1.226   1.643 -0.8728 -1.0035 -1.5291
  755SOL    MW4 3068   0.414   1.180   1.664 -0.7881 -0.4278 -0.5269
  756SOL     OW 3069   0.655   1.294   1.567 -0.5488 -0.2759  0.0777
  756SOL    HW2 3070   0.664   1.387   1.586 -0.8151 -0.0163 -1.0474
  756SOL    HW3 3071   0.642   1.290   1.472 -0.5080 -1.4585  0.1184
  756SOL    MW4 3072   0.654   1.306   1.557 -0.5786 -0.3978 -0.0652
  757SOL     OW 3073   0.682   1.545   1.664  0.1814 -0.3034 -0.4202
  757SOL    HW2 3074   0.729   1.592   1.596  0.1474 -0.0343 -0.2574
  757SOL    HW3 3075   0.590   1.560   1.644  0.1781  0.4045  0.1247
  757SOL    MW4 3076   0.676   1.553   1.652  0.1764 -0.1746 -0.3268
  758SOL     OW 3077   0.436   1.647   1.580 -0.2889  0.1527 -0.0400
  758SOL    HW2 3078   0.444   1.740   1.598  0.5371 -0.0364  0.5883
  758SOL    HW3 3079   0.347   1.624   1.606 -0.1949  0.5744  0.6418
  758SOL    MW4 3080   0.426   1.656   1.586 -0.1675  0.1833  0.1329
  759SOL     OW 3081   0.441   1.914   1.635 -0.0615 -0.2420 -0.0622
  759SOL    HW2 3082   0.446   1.927   1.730 -0.3035 -0.1987 -0.0567
  759SOL    HW3 3083   0.358   1.953   1.609  0.7230  1.1678 -0.5292
  759SOL    MW4 3084   0.431   1.921   1.644  0.0101 -0.0503 -0.1231
  760SOL     OW 3085   0.672   2.042   1.512  0.2263 -0.1008  0.2573
  760SOL    HW2 3086   0.736   1.989   1.560  0.0798 -0.7011 -0.2103
  760SOL    HW3 3087   0.587   2.011   1.543  0.1613  1.0518  1.2625
  760SOL    MW4 3088   0.669   2.031   1.522  0.1984 -0.0281  0.3283
  761SOL     OW 3089   0.669   2.301   1.640 -0.1395  0.2479  0.1004
  761SOL    HW2 3090   0.599   2.340   1.587  0.8070 -0.7246 -1.9077
  761SOL    HW3 3091   0.676   2.211   1.609  1.8565  0.2709  0.4069
  761SOL    MW4 3092   0.661   2.295   1.629  0.2487  0.1228 -0.1241
  762SOL     OW 3093   0.421   2.455   1.515 -0.2760  0.8495  0.2821
  762SOL    HW2 3094   0.401   2.540   1.555 -1.1052  0.5280  0.5570
  762SOL    HW3 3095   0.354   2.396   1.550  0.8112 -0.1174  0.7874
  762SOL    MW4 3096   0.410   2.458   1.525 -0.2419  0.6795  0.3850
  763SOL     OW 3097   0.397   2.715   1.651  0.3745 -0.4933 -0.1715
  763SOL    HW2 3098   0.429   2.698   1.739  1.8820 -0.8366 -0.7632
  763SOL    HW3 3099   0.475   2.746   1.603 -0.2976 -0.8316 -1.5107
  763SOL    MW4 3100   0.412   2.717   1.656  0.4847 -0.5832 -0.4263
  764SOL     OW 3101   0.644   2.849   1.582 -0.0939  0.5840 -0.6138
  764SOL    HW2 3102   0.638   2.930   1.632 -0.2873  0.7892 -0.9596
  764SOL    HW3 3103   0.652   2.878   1.491 -0.2093  0.2165 -0.7429
  764SOL    MW4 3104   0.644   2.863   1.576 -0.1346  0.5627 -0.6764
  765SOL     OW 3105   0.684   3.105   1.661  0.8554  0.0456 -0.1585
  765SOL    HW2 3106   0.768   3.123   1.618  0.3000  0.8576 -0.9299
  765SOL    HW3 3107   0.626   3.175   1.630  0.0490 -0.1846  0.8118
  765SOL    MW4 3108   0.687   3.117   1.651  0.6757  0.1223 -0.1322
  766SOL     OW 3109   0.467   3.245   1.569 -0.2788 -0.0226 -0.2231
  766SOL    HW2 3110   0.464   3.234   1.474  1.8610 -3.0531 -0.0382
  766SOL    HW3 3111   0.394   3.192   1.601 -0.9606  0.9470 -0.1604
  766SOL    MW4 3112   0.457   3.236   1.561 -0.0865 -0.2942 -0.1905
  767SOL     OW 3113   0.477   3.511   1.642 -0.1482  0.3115  0.3363
  767SOL    HW2 3114   0.482   3.525   1.736 -2.5253 -0.6286  0.6335
  767SOL    HW3 3115   0.468   3.416   1.632 -0.1401  0.4159 -0.8221
  767SOL    MW4 3116   0.476   3.500   1.653 -0.4607  0.2010  0.2227
  768SOL     OW 3117   0.690   3.625   1.525  0.3621  0.3192 -0.7633
  768SOL    HW2 3118   0.761   3.585   1.575 -0.7185  0.5293  0.9922
  768SOL    HW3 3119   0.611   3.579   1.554 -0.6226  2.2530 -0.3080
  768SOL    MW4 3120   0.689   3.614   1.535  0.0896  0.6020 -0.4716
  769SOL     OW 3121   0.657   3.873   1.658  0.1868  0.7381 -0.1518
  769SOL    HW2 3122   0.713   3.925   1.600 -0.1325  0.6466 -0.5421
  769SOL    HW3 3123   0.650   3.788   1.614 -0.5880  0.8785 -0.3061
  769SOL    MW4 3124   0.664   3.868   1.645  0.0425  0.7448 -0.2238
  770SOL     OW 3125   0.450   4.058   1.580  0.4450 -0.2703  0.1357
  770SOL    HW2 3126   0.523   3.996   1.588  0.4166 -0.6008 -1.9292
  770SOL    HW3 3127   0.371   4.003   1.583  0.4192 -0.3321 -1.6611
  770SOL    MW4 3128   0.449   4.042   1.582  0.4379 -0.3223 -0.3738
  771SOL     OW 3129   0.490   4.309   1.700  0.4279 -0.2346  0.6371
  771SOL    HW2 3130   0.470   4.221   1.667 -0.1227  0.2839 -0.4475
  771SOL    HW3 3131   0.415   4.363   1.674  0.8143  0.5835  1.1880
  771SOL    MW4 3132   0.478   4.305   1.692  0.4062 -0.0587  0.5668
  772SOL     OW 3133   0.668   4.359   1.500  0.2010  0.0647 -0.1469
  772SOL    HW2 3134   0.613   4.347   1.578 -0.0272 -0.3328 -0.3676
  772SOL    HW3 3135   0.694   4.451   1.503  0.6310 -0.0746  0.6883
  772SOL    MW4 3136   0.664   4.369   1.511  0.2276 -0.0057 -0.0658
  773SOL     OW 3137   1.117   4.620   1.619  0.2172  0.0686 -0.3288
  773SOL    HW2 3138   1.105   4.620   1.714  1.3455  0.4447 -0.1820
  773SOL    HW3 3139   1.202   4.662   1.605  0.0928 -0.0457 -1.5017
  773SOL    MW4 3140   1.127   4.625   1.630  0.3496  0.1030 -0.4642
  774SOL     OW 3141   0.941   0.135   1.502  0.3236  0.0939 -0.0482
  774SOL    HW2 3142   1.002   0.077   1.548 -0.5826  0.2718  1.3999
  774SOL    HW3 3143   0.950   0.220   1.545  0.2561  0.5533 -0.9206
  774SOL    MW4 3144   0.950   0.138   1.514  0.1951  0.1780  0.0277
  775SOL     OW 3145   0.911   0.386   1.627  0.2671  0.3669 -0.1107
  775SOL    HW2 3146   0.915   0.362   1.720 -1.2140 -0.6996 -0.3135
  775SOL    HW3 3147   0.835   0.444   1.621 -0.4442 -0.6317 -0.8823
  775SOL    MW4 3148   0.902   0.391   1.639 -0.0222  0.0945 -0.2393
  776SOL     OW 3149   1.109   0.561   1.507  0.1714 -0.6756  0.1367
  776SOL    HW2 3150   1.099   0.632   1.571  0.7346  0.0743 -0.5932
  776SOL    HW3 3151   1.050   0.492   1.538 -0.4021  0.1206  0.8412
  776SOL    MW4 3152   1.100   0.561   1.520  0.1700 -0.4717  0.1334
  777SOL     OW 3153   1.093   0.811   1.675  0.2322  0.8001  0.7423
  777SOL    HW2 3154   1.095   0.785   1.767  1.0920 -0.8140  0.2796
  777SOL    HW3 3155   1.183   0.835   1.654  0.1090  0.8298  0.2381
  777SOL    MW4 3156   1.105   0.810   1.684  0.3294  0.5911  0.6148
  778SOL     OW 3157   0.878   0.895   1.523 -0.4055  0.4999 -0.1453
  778SOL    HW2 3158   0.952   0.859   1.572 -0.8058 -1.4605 -0.9276
  778SOL    HW3 3159   0.896   0.872   1.432 -0.9710  1.8249 -0.6038
  778SOL    MW4 3160   0.890   0.887   1.517 -0.5329  0.4160 -0.3091
  779SOL     OW 3161   0.847   1.128   1.664 -0.4195  0.2715 -0.1562
  779SOL    HW2 3162   0.865   1.054   1.606  1.0275  0.5675 -0.0823
  779SOL    HW3 3163   0.776   1.175   1.621  0.0698  0.0158 -1.2478
  779SOL    MW4 3164   0.840   1.124   1.651 -0.1640  0.2769 -0.2904
  780SOL     OW 3165   1.063   1.260   1.573 -0.3908  0.0021  0.3439
  780SOL    HW2 3166   1.137   1.207   1.602 -0.5536 -0.9217 -0.8928
  780SOL    HW3 3167   0.986   1.215   1.607 -0.3329  2.4161  3.9604
  780SOL    MW4 3168   1.062   1.247   1.581 -0.4047  0.1988  0.6578
  781SOL     OW 3169   1.090   1.522   1.618  1.0114  0.6645  0.3802
  781SOL    HW2 3170   1.161   1.559   1.566  1.2971 -1.3127 -0.6648
  781SOL    HW3 3171   1.094   1.428   1.603 -1.2318  0.4112  1.0619
  781SOL    MW4 3172   1.100   1.514   1.609  0.7530  0.3703  0.3322
  782SOL     OW 3173   0.907   1.669   1.487  0.3040  0.1026  0.0746
  782SOL    HW2 3174   0.975   1.608   1.515  0.4033  0.3995  0.4823
  782SOL    HW3 3175   0.898   1.653   1.393  1.0808  0.2006 -0.0210
  782SOL    MW4 3176   0.915   1.659   1.478  0.4196  0.1546  0.1159
  783SOL     OW 3177   0.860   1.895   1.644 -0.5175  0.1915  0.3201
  783SOL    HW2 3178   0.923   1.946   1.595 -0.2364 -0.2128  0.2538
  783SOL    HW3 3179   0.865   1.807   1.605 -0.3471 -0.1111  1.0209
  783SOL    MW4 3180   0.869   1.890   1.632 -0.4579  0.0983  0.4040
  784SOL     OW 3181   1.042   2.064   1.523 -0.2152  0.0465  0.3738
  784SOL    HW2 3182   1.114   2.002   1.541 -0.6183 -0.6815 -0.4862
  784SOL    HW3 3183   1.057   2.136   1.584  0.3331 -0.8508  1.3226
  784SOL    MW4 3184   1.054   2.065   1.533 -0.1960 -0.1678  0.3854
  785SOL     OW 3185   1.078   2.323   1.666  0.0600 -0.0273  0.3657
  785SOL    HW2 3186   1.161   2.361   1.637 -0.1100  0.1766  0.1355
  785SOL    HW3 3187   1.012   2.364   1.609 -0.2729  0.3224  0.9871
  785SOL    MW4 3188   1.080   2.334   1.655 -0.0063  0.0460  0.4174
  786SOL     OW 3189   0.890   2.458   1.525 -0.2232 -0.4928 -0.0678
  786SOL    HW2 3190   0.887   2.542   1.572 -1.0223 -0.1195 -0.7877
  786SOL    HW3 3191   0.822   2.405   1.567  0.5441 -0.9285  0.6481
  786SOL    MW4 3192   0.881   2.462   1.537 -0.2274 -0.5012 -0.0683
  787SOL     OW 3193   0.866   2.711   1.660  0.2912  0.1474 -0.1177
  787SOL    HW2 3194   0.878   2.714   1.755  0.2543 -1.3320 -0.0627
  787SOL    HW3 3195   0.773   2.727   1.647 -0.2125 -2.2686  0.2687
  787SOL    MW4 3196   0.855   2.714   1.671  0.2198 -0.3662 -0.0596
  788SOL     OW 3197   1.095   2.811   1.547 -0.1661 -0.1307  0.0933
  788SOL    HW2 3198   1.106   2.900   1.580  1.6771 -0.9851  1.9382
  788SOL    HW3 3199   1.014   2.780   1.589 -0.0584  0.2023  0.5525
  788SOL    MW4 3200   1.086   2.819   1.557  0.0913 -0.1996  0.3973
  789SOL     OW 3201   1.113   3.077   1.630  0.2023  0.5866  0.3803
  789SOL    HW2 3202   1.114   3.095   1.724  1.2709  2.8051 -0.0330
  789SOL    HW3 3203   1.199   3.106   1.599  0.6020 -1.8845 -0.9767
  789SOL    MW4 3204   1.125   3.083   1.638  0.3960  0.5531  0.1467
  790SOL     OW 3205   0.889   3.192   1.491 -0.1557  0.1489 -0.1774
  790SOL    HW2 3206   0.970   3.142   1.496 -0.1005  0.0238 -1.8279
  790SOL    HW3 3207   0.874   3.203   1.397 -1.9087  0.3924  0.1124
  790SOL    MW4 3208   0.898   3.187   1.479 -0.3796  0.1643 -0.3568
  791SOL     OW 3209   0.916   3.481   1.605 -0.3155 -0.0657  0.6349
  791SOL    HW2 3210   1.003   3.516   1.587 -0.4350 -0.4548 -0.6919
  791SOL    HW3 3211   0.923   3.388   1.585 -0.9114 -0.1947  1.0100
  791SOL    MW4 3212   0.928   3.473   1.600 -0.4099 -0.1340  0.5093
  792SOL     OW 3213   1.175   3.579   1.560 -0.2821  0.2939 -0.8006
  792SOL    HW2 3214   1.240   3.512   1.582  0.2422  0.9031 -0.4301
  792SOL    HW3 3215   1.178   3.586   1.465 -0.7715 -0.6343 -0.8780
  792SOL    MW4 3216   1.184   3.571   1.551 -0.2776  0.2515 -0.7619
  793SOL     OW 3217   1.127   3.859   1.598 -0.1210  0.0758 -0.2548
  793SOL    HW2 3218   1.209   3.901   1.572 -0.1080  0.1151 -0.1492
  793SOL    HW3 3219   1.144   3.765   1.589 -0.2607  0.1001 -0.8263
  793SOL    MW4 3220   1.140   3.852   1.593 -0.1378  0.0842 -0.3163
  794SOL     OW 3221   0.879   4.001   1.554 -0.2297  0.0712 -0.2093
  794SOL    HW2 3222   0.886   4.092   1.581  0.2662 -0.0191 -0.0162
  794SOL    HW3 3223   0.968   3.966   1.565 -0.5962 -0.6632  0.5366
  794SOL    MW4 3224   0.892   4.008   1.559 -0.2126 -0.0377 -0.0856
  795SOL     OW 3225   0.908   4.272   1.631  0.0043 -0.5700  0.3120
  795SOL    HW2 3226   0.909   4.289   1.725  0.9758  0.0263  0.1936
  795SOL    HW3 3227   0.823   4.308   1.602  0.3610  0.6237  0.7101
  795SOL    MW4 3228   0.897   4.279   1.639  0.1795 -0.3338  0.3490
  796SOL     OW 3229   1.134   4.371   1.523 -0.2610  0.3804 -0.0210
  796SOL    HW2 3230   1.058   4.321   1.553 -0.4857  0.4877 -0.4157
  796SOL    HW3 3231   1.125   4.456   1.566  0.5123 -0.1543  1.2389
  796SOL    MW4 3232   1.123   4.376   1.533 -0.1887  0.3242  0.0932
  797SOL     OW 3233   1.565   4.655   1.628  0.0541  0.2167 -0.0718
  797SOL    HW2 3234   1.545   4.655   1.722 -0.8514 -2.5021 -0.2375
  797SOL    HW3 3235   1.489   4.697   1.588  0.1301  0.7468  0.3176
  797SOL    MW4 3236   1.553   4.661   1.635 -0.0554 -0.0715 -0.0423
  798SOL     OW 3237   1.325   0.123   1.557 -0.1214 -0.6670  0.6193
  798SOL    HW2 3238   1.307   0.212   1.588  0.9272 -0.5754  0.9856
  798SOL    HW3 3239   1.315   0.128   1.462 -2.9771 -0.8619  0.8730
  798SOL    MW4 3240   1.321   0.135   1.549 -0.3598 -0.6806  0.7011
  799SOL     OW 3241   1.318   0.406   1.607  0.2032  0.0793  0.1111
  799SOL    HW2 3242   1.386   0.423   1.542 -1.5146  0.1509 -1.7169
  799SOL    HW3 3243   1.239   0.446   1.570 -1.4748 -2.4552  0.8241
  799SOL    MW4 3244   1.316   0.414   1.593 -0.2449 -0.2457 -0.0360
  800SOL     OW 3245   1.549   0.482   1.507  0.1724 -0.3704 -0.1956
  800SOL    HW2 3246   1.630   0.459   1.552  0.9390  0.2764 -1.2282
  800SOL    HW3 3247   1.575   0.495   1.416 -1.1412 -0.4261 -0.5894
  800SOL    MW4 3248   1.563   0.481   1.501  0.1003 -0.2924 -0.3837
  801SOL     OW 3249   1.573   0.734   1.630  0.5699  0.0043  0.3324
  801SOL    HW2 3250   1.570   0.746   1.725  0.0897  2.2909  0.0563
  801SOL    HW3 3251   1.554   0.641   1.618 -0.1827 -0.1636  2.4442
  801SOL    MW4 3252   1.570   0.723   1.641  0.4072  0.2838  0.5747
  802SOL     OW 3253   1.338   0.880   1.567 -0.4683 -0.3507 -0.3140
  802SOL    HW2 3254   1.421   0.835   1.581 -0.2090  0.3947  0.6180
  802SOL    HW3 3255   1.319   0.867   1.474  1.1339  0.2190 -0.7365
  802SOL    MW4 3256   1.347   0.872   1.557 -0.2224 -0.1772 -0.2466
  803SOL     OW 3257   1.319   1.162   1.645 -0.3533 -0.1159 -0.1585
  803SOL    HW2 3258   1.315   1.156   1.741  0.2518 -0.4145 -0.1451
  803SOL    HW3 3259   1.338   1.073   1.616  0.1351  0.1008 -0.5113
  803SOL    MW4 3260   1.321   1.150   1.654 -0.2090 -0.1267 -0.2034
  804SOL     OW 3261   1.545   1.265   1.553  0.2805 -0.2905  0.0489
  804SOL    HW2 3262   1.464   1.228   1.590  0.4911 -1.3443 -0.5286
  804SOL    HW3 3263   1.529   1.268   1.459  0.2155  1.2466  0.0923
  804SOL    MW4 3264   1.532   1.260   1.545  0.2997 -0.2266 -0.0215
  805SOL     OW 3265   1.518   1.538   1.617 -0.7670 -0.1027 -0.3606
  805SOL    HW2 3266   1.521   1.535   1.713  0.2816 -0.8607 -0.4044
  805SOL    HW3 3267   1.546   1.450   1.589  1.7418  0.9472 -1.3724
  805SOL    MW4 3268   1.522   1.526   1.626 -0.2977 -0.0643 -0.5001
  806SOL     OW 3269   1.298   1.675   1.501  0.0958  0.5840 -0.3194
  806SOL    HW2 3270   1.380   1.635   1.534  0.1620  0.9100 -0.0881
  806SOL    HW3 3271   1.303   1.663   1.406  0.4022  0.5817 -0.3062
  806SOL    MW4 3272   1.310   1.668   1.493  0.1448  0.6267 -0.2872
  807SOL     OW 3273   1.273   1.926   1.595  0.0881 -0.3332 -0.1073
  807SOL    HW2 3274   1.274   1.918   1.691  1.1544  0.6466 -0.0238
  807SOL    HW3 3275   1.280   1.836   1.564 -0.3647 -0.6655  0.7388
  807SOL    MW4 3276   1.274   1.913   1.604  0.1692 -0.2477  0.0155
  808SOL     OW 3277   1.545   2.019   1.555 -0.3413 -0.3142 -0.3242
  808SOL    HW2 3278   1.460   1.975   1.564  0.3794 -1.8024 -0.6346
  808SOL    HW3 3279   1.564   2.015   1.461 -0.1715  0.5044 -0.3295
  808SOL    MW4 3280   1.536   2.013   1.544 -0.2239 -0.4025 -0.3660
  809SOL     OW 3281   1.527   2.279   1.661  0.7884 -0.3564 -0.5867
  809SOL    HW2 3282   1.590   2.334   1.615 -0.1307 -0.4049 -1.9123
  809SOL    HW3 3283   1.536   2.192   1.620  0.4232 -0.5597 -0.2447
  809SOL    MW4 3284   1.537   2.275   1.650  0.6189 -0.3896 -0.7164
  810SOL     OW 3285   1.324   2.411   1.562  0.2574  0.1164  0.1901
  810SOL    HW2 3286   1.330   2.503   1.588  1.7110 -0.1006  0.6541
  810SOL    HW3 3287   1.396   2.368   1.608 -0.8845 -1.4121  0.5893
  810SOL    MW4 3288   1.335   2.418   1.571  0.2985 -0.1140  0.3040
  811SOL     OW 3289   1.341   2.683   1.609 -0.1191  0.0621  0.0188
  811SOL    HW2 3290   1.409   2.719   1.552 -0.3810  0.6154  0.0511
  811SOL    HW3 3291   1.260   2.721   1.577 -0.3414 -0.1111  0.3728
  811SOL    MW4 3292   1.339   2.693   1.598 -0.1830  0.1121  0.0697
  812SOL     OW 3293   1.570   2.812   1.513  0.9439 -0.0615 -0.5160
  812SOL    HW2 3294   1.635   2.772   1.571  0.8098 -1.9883 -1.6197
  812SOL    HW3 3295   1.604   2.795   1.425 -0.8670 -0.7877 -1.0956
  812SOL    MW4 3296   1.583   2.804   1.509  0.6870 -0.4117 -0.7380
  813SOL     OW 3297   1.606   3.054   1.657 -0.1414 -0.3699 -0.2552
  813SOL    HW2 3298   1.682   3.102   1.626 -0.5193  1.4914  1.5323
  813SOL    HW3 3299   1.611   2.969   1.614  1.1910  0.8563 -2.6140
  813SOL    MW4 3300   1.616   3.049   1.647 -0.0154  0.0372 -0.3306
  814SOL     OW 3301   1.364   3.160   1.558 -0.5463 -0.3864 -0.4121
  814SOL    HW2 3302   1.367   3.253   1.582 -1.9491 -0.4581  0.0428
  814SOL    HW3 3303   1.448   3.125   1.589 -0.5762  0.4325  0.6275
  814SOL    MW4 3304   1.376   3.168   1.565 -0.7353 -0.2875 -0.2149
  815SOL     OW 3305   1.399   3.432   1.612 -0.2209 -0.2853 -0.0865
  815SOL    HW2 3306   1.382   3.447   1.705 -1.8355 -1.5250 -0.1575
  815SOL    HW3 3307   1.468   3.494   1.590  0.6261 -0.3992  2.0902
  815SOL    MW4 3308   1.406   3.442   1.621 -0.3222 -0.4637  0.1912
  816SOL     OW 3309   1.637   3.564   1.521  0.6913 -0.0136 -0.4509
  816SOL    HW2 3310   1.616   3.656   1.537 -0.5420 -0.3519 -0.1215
  816SOL    HW3 3311   1.646   3.557   1.426 -0.3954  0.1903 -0.5656
  816SOL    MW4 3312   1.636   3.575   1.511  0.3852 -0.0312 -0.4226
  817SOL     OW 3313   1.597   3.828   1.603  0.4603 -0.1625 -0.8520
  817SOL    HW2 3314   1.595   3.840   1.698  0.8426  0.7820 -0.9553
  817SOL    HW3 3315   1.512   3.858   1.573 -0.4222 -2.3257 -0.6190
  817SOL    MW4 3316   1.586   3.834   1.612  0.3942 -0.3233 -0.8352
  818SOL     OW 3317   1.375   3.964   1.507 -0.4417 -0.5611  0.4654
  818SOL    HW2 3318   1.388   4.049   1.549  0.5712 -0.1567 -0.6391
  818SOL    HW3 3319   1.369   3.984   1.414  1.4748 -1.8713  0.0370
  818SOL    MW4 3320   1.376   3.978   1.500 -0.0552 -0.6809  0.2631
  819SOL     OW 3321   1.363   4.236   1.603  0.2307 -0.0356 -0.2686
  819SOL    HW2 3322   1.424   4.291   1.554 -0.7784  0.6700 -0.7406
  819SOL    HW3 3323   1.279   4.279   1.594 -0.4045 -1.1653  0.1378
  819SOL    MW4 3324   1.360   4.249   1.596  0.0139 -0.0911 -0.2772
  820SOL     OW 3325   1.608   4.400   1.490  0.5908  0.1639 -0.1412
  820SOL    HW2 3326   1.693   4.368   1.521  0.3279  0.1811  0.6042
  820SOL    HW3 3327   1.595   4.482   1.537 -0.2496 -0.2845  0.4268
  820SOL    MW4 3328   1.617   4.406   1.500  0.4451  0.1068  0.0321
  821SOL     OW 3329   2.011   4.618   1.653  0.1629 -0.1628 -0.3454
  821SOL    HW2 3330   2.016   4.623   1.749  1.6968  1.2602 -0.4853
  821SOL    HW3 3331   1.941   4.678   1.630 -1.6390 -2.0768  0.0022
  821SOL    MW4 3332   2.003   4.627   1.663  0.1276 -0.2279 -0.3178
  822SOL     OW 3333   1.832   0.124   1.544 -0.2254 -0.3739  0.1918
  822SOL    HW2 3334   1.751   0.076   1.560 -0.1171 -0.2943  0.9946
  822SOL    HW3 3335   1.838   0.129   1.449 -0.6228 -1.2838  0.1141
  822SOL    MW4 3336   1.822   0.119   1.534 -0.2636 -0.4835  0.2875
  823SOL     OW 3337   1.777   0.390   1.653  0.4297 -0.2398  0.2886
  823SOL    HW2 3338   1.837   0.425   1.587  0.8980 -0.4837  0.5757
  823SOL    HW3 3339   1.783   0.295   1.642  1.1533 -0.3108  1.2389
  823SOL    MW4 3340   1.786   0.382   1.643  0.5870 -0.2813  0.4518
  824SOL     OW 3341   1.985   0.485   1.508  0.6987 -0.0216 -0.4233
  824SOL    HW2 3342   2.070   0.456   1.542  0.7629  0.4024 -0.2294
  824SOL    HW3 3343   1.987   0.580   1.516  0.1559 -0.0223 -0.3047
  824SOL    MW4 3344   1.997   0.493   1.514  0.6355  0.0342 -0.3821
  825SOL     OW 3345   2.030   0.752   1.572 -0.3874 -0.5346 -0.5505
  825SOL    HW2 3346   2.100   0.814   1.557 -0.7468 -0.5767 -2.4498
  825SOL    HW3 3347   1.950   0.804   1.568 -0.5134 -0.5881  1.0101
  825SOL    MW4 3348   2.028   0.767   1.570 -0.4516 -0.5472 -0.5951
  826SOL     OW 3349   1.774   0.885   1.562  0.0276 -0.1150  0.3358
  826SOL    HW2 3350   1.748   0.973   1.591 -2.0605 -1.2436  2.0534
  826SOL    HW3 3351   1.697   0.831   1.578  1.5480 -2.4424  0.0414
  826SOL    MW4 3352   1.760   0.890   1.568 -0.0473 -0.5710  0.5234
  827SOL     OW 3353   1.766   1.136   1.655  0.3093 -0.3392 -0.5804
  827SOL    HW2 3354   1.839   1.179   1.611  0.0582  0.0261 -0.6502
  827SOL    HW3 3355   1.688   1.177   1.616  0.0967  1.8008  1.9317
  827SOL    MW4 3356   1.765   1.147   1.644  0.2481 -0.0088 -0.2580
  828SOL     OW 3357   1.995   1.263   1.564  0.1326  0.0737  0.1126
  828SOL    HW2 3358   1.983   1.356   1.582  0.0206 -0.0187  0.5055
  828SOL    HW3 3359   1.979   1.254   1.470  0.0751  0.4392  0.0897
  828SOL    MW4 3360   1.991   1.274   1.554  0.1101  0.1098  0.1615
  829SOL     OW 3361   1.996   1.552   1.650 -0.2290 -0.0084 -0.2010
  829SOL    HW2 3362   2.064   1.593   1.598 -0.1049  1.9677  1.4490
  829SOL    HW3 3363   1.915   1.594   1.621 -0.5218 -1.0085 -0.8476
  829SOL    MW4 3364   1.994   1.563   1.639 -0.2513  0.1203 -0.0684
  830SOL     OW 3365   1.763   1.648   1.529 -0.0850 -0.3468  0.4699
  830SOL    HW2 3366   1.675   1.612   1.542  0.3120 -1.4661  0.1097
  830SOL    HW3 3367   1.780   1.636   1.435  0.6794 -0.6593  0.6459
  830SOL    MW4 3368   1.754   1.642   1.518  0.0683 -0.5356  0.4456
  831SOL     OW 3369   1.792   1.926   1.659  0.3264  0.0685  0.5296
  831SOL    HW2 3370   1.797   1.835   1.630  0.2017  0.1730  0.1717
  831SOL    HW3 3371   1.713   1.960   1.618 -0.3890 -0.0500  1.7813
  831SOL    MW4 3372   1.782   1.918   1.650  0.2156  0.0668  0.6474
  832SOL     OW 3373   1.955   2.104   1.522  0.3855 -0.0326  0.4150
  832SOL    HW2 3374   1.882   2.061   1.566 -0.3541 -1.4152 -2.0152
  832SOL    HW3 3375   2.030   2.048   1.542 -0.1466 -1.2449 -0.8960
  832SOL    MW4 3376   1.955   2.091   1.530  0.2178 -0.3748 -0.0787
  833SOL     OW 3377   2.016   2.344   1.615  0.3507  0.0168 -0.0689
  833SOL    HW2 3378   2.027   2.332   1.709 -0.5109 -0.4958 -0.0270
  833SOL    HW3 3379   2.002   2.255   1.581 -0.2592  0.2907 -0.5476
  833SOL    MW4 3380   2.016   2.330   1.623  0.1566 -0.0148 -0.1266
  834SOL     OW 3381   1.755   2.422   1.544  0.5484  0.4298  0.1966
  834SOL    HW2 3382   1.845   2.396   1.566  0.2279 -0.1904  0.7978
  834SOL    HW3 3383   1.761   2.456   1.455  1.1953 -0.5881 -0.1550
  834SOL    MW4 3384   1.768   2.423   1.535  0.5915  0.2134  0.2295
  835SOL     OW 3385   1.991   2.766   1.561 -0.0780  0.5675 -0.1830
  835SOL    HW2 3386   2.011   2.855   1.591  0.7473  0.4319 -0.3394
  835SOL    HW3 3387   2.013   2.766   1.468 -0.4182  0.3009 -0.2650
  835SOL    MW4 3388   1.996   2.778   1.553 -0.0138  0.5143 -0.2143
  836SOL     OW 3389   2.033   3.019   1.648 -0.9761 -0.0492 -0.3215
  836SOL    HW2 3390   2.026   3.046   1.740 -1.1065  1.6726 -0.8063
  836SOL    HW3 3391   2.113   3.062   1.617 -1.8860  0.8442 -1.4823
  836SOL    MW4 3392   2.043   3.029   1.656 -1.1132  0.2956 -0.5386
  837SOL     OW 3393   2.250   3.168   1.546  0.5483  0.0708 -0.1588
  837SOL    HW2 3394   2.240   3.257   1.579  1.5314  0.3994 -0.7210
  837SOL    HW3 3395   2.255   3.177   1.451 -1.6955 -0.8172 -0.3799
  837SOL    MW4 3396   2.250   3.181   1.538  0.3819 -0.0029 -0.2623
  838SOL     OW 3397   1.813   3.175   1.538  0.1885 -0.4410  0.4810
  838SOL    HW2 3398   1.818   3.254   1.592  0.4887 -0.4600  0.4807
  838SOL    HW3 3399   1.895   3.128   1.556  2.0507  1.3729 -2.7798
  838SOL    MW4 3400   1.825   3.179   1.548  0.4739 -0.2041  0.0508
  839SOL     OW 3401   1.835   3.426   1.659  0.1130 -0.3282  0.5749
  839SOL    HW2 3402   1.839   3.438   1.754  0.3823  0.1511  0.5059
  839SOL    HW3 3403   1.764   3.483   1.630  0.0591 -0.4411  0.4829
  839SOL    MW4 3404   1.826   3.435   1.668  0.1415 -0.2801  0.5537
  840SOL     OW 3405   2.042   3.547   1.497  0.2208 -0.8082  0.1720
  840SOL    HW2 3406   2.121   3.499   1.523  1.0270  1.0791  1.3150
  840SOL    HW3 3407   1.975   3.517   1.559  0.3403 -1.4883 -0.0167
  840SOL    MW4 3408   2.044   3.537   1.509  0.3428 -0.6487  0.2979
  841SOL     OW 3409   2.047   3.812   1.626  0.3058  0.5427  0.6597
  841SOL    HW2 3410   2.119   3.872   1.605 -0.6115  0.8632 -1.6919
  841SOL    HW3 3411   2.064   3.735   1.571 -0.7739  0.3439  0.5917
  841SOL    MW4 3412   2.059   3.810   1.616  0.0424  0.5589  0.3405
  842SOL     OW 3413   1.797   4.016   1.522  0.6860  0.1190 -0.2703
  842SOL    HW2 3414   1.862   3.959   1.562  0.4637  0.8360  1.1384
  842SOL    HW3 3415   1.713   3.974   1.541  0.4873  1.1114  1.1598
  842SOL    MW4 3416   1.794   4.003   1.530  0.6305  0.3448  0.1042
  843SOL     OW 3417   1.837   4.296   1.601  0.1458  0.1798 -0.1328
  843SOL    HW2 3418   1.921   4.330   1.572  1.0670  0.4855  2.7578
  843SOL    HW3 3419   1.841   4.202   1.581 -0.2355  0.7423 -3.1170
  843SOL    MW4 3420   1.848   4.288   1.594  0.2171  0.2942 -0.1452
  844SOL     OW 3421   2.073   4.402   1.500 -0.7230  0.2746  0.1236
  844SOL    HW2 3422   2.133   4.348   1.552  0.0938  1.2295  0.1768
  844SOL    HW3 3423   2.047   4.473   1.558  0.2250  1.3677 -0.7670
  844SOL    MW4 3424   2.078   4.404   1.514 -0.4904  0.5450  0.0131
  845SOL     OW 3425   2.438   4.627   1.646  0.2088 -0.4379 -0.2108
  845SOL    HW2 3426   2.439   4.631   1.742 -0.6898 -1.1763 -0.1704
  845SOL    HW3 3427   2.375   4.694   1.620 -0.3658 -0.9973 -0.2489
  845SOL    MW4 3428   2.430   4.637   1.656  0.0145 -0.6089 -0.2105
  846SOL     OW 3429   2.214   0.141   1.580  0.3947  0.4951 -0.6871
  846SOL    HW2 3430   2.163   0.067   1.612  1.4012  0.8833  2.0039
  846SOL    HW3 3431   2.213   0.133   1.485 -0.5353 -2.2706 -0.4737
  846SOL    MW4 3432   2.207   0.130   1.572  0.4048  0.1814 -0.3040
  847SOL     OW 3433   2.229   0.406   1.617  0.4371  0.5769 -0.2140
  847SOL    HW2 3434   2.262   0.417   1.706 -0.5025  0.0914  0.2039
  847SOL    HW3 3435   2.219   0.312   1.606 -2.3802  0.7744  0.2806
  847SOL    MW4 3436   2.232   0.395   1.627 -0.0582  0.5389 -0.0936
  848SOL     OW 3437   2.465   0.506   1.493 -0.4196 -0.1311  0.3521
  848SOL    HW2 3438   2.533   0.456   1.537  0.3694  0.5682 -0.0620
  848SOL    HW3 3439   2.383   0.471   1.529  0.1539 -0.7834  1.0556
  848SOL    MW4 3440   2.463   0.495   1.503 -0.2398 -0.1249  0.3903
  849SOL     OW 3441   2.468   0.765   1.599 -0.6277  0.2573  0.0978
  849SOL    HW2 3442   2.400   0.809   1.549 -0.8905  0.9179  1.0373
  849SOL    HW3 3443   2.477   0.679   1.557  0.6174  1.5768 -2.3932
  849SOL    MW4 3444   2.460   0.759   1.587 -0.4981  0.5186 -0.1069
  850SOL     OW 3445   2.242   0.910   1.489  0.2671  0.2578 -0.3474
  850SOL    HW2 3446   2.239   0.993   1.537  0.6019 -0.2777  0.6069
  850SOL    HW3 3447   2.231   0.935   1.397  1.1720  1.4363 -0.1449
  850SOL    MW4 3448   2.240   0.924   1.483  0.4303  0.3426 -0.1948
  851SOL     OW 3449   2.268   1.167   1.616  0.3647  0.5783  0.4029
  851SOL    HW2 3450   2.252   1.160   1.711 -2.3161 -0.4548 -0.0576
  851SOL    HW3 3451   2.186   1.204   1.581 -0.2610 -2.7852 -1.9366
  851SOL    MW4 3452   2.255   1.171   1.624 -0.0713 -0.0018  0.0336
  852SOL     OW 3453   2.476   1.305   1.504  0.1466  0.1311  0.5294
  852SOL    HW2 3454   2.401   1.253   1.534 -0.3040 -0.1107 -0.9771
  852SOL    HW3 3455   2.466   1.309   1.409  1.8648  0.3943  0.3437
  852SOL    MW4 3456   2.465   1.299   1.495  0.3138  0.1339  0.3061
  853SOL     OW 3457   2.445   1.564   1.610 -0.7302 -0.3860  0.2873
  853SOL    HW2 3458   2.520   1.611   1.574 -0.4065  0.7904  2.4411
  853SOL    HW3 3459   2.455   1.474   1.578 -0.2186  0.5009 -2.1291
  853SOL    MW4 3460   2.456   1.558   1.601 -0.6201 -0.1137  0.2526
  854SOL     OW 3461   2.224   1.706   1.524 -0.4902 -0.2344  0.2623
  854SOL    HW2 3462   2.306   1.664   1.550  0.2397  0.8748 -0.1872
  854SOL    HW3 3463   2.233   1.721   1.430 -1.2365 -0.1658  0.1973
  854SOL    MW4 3464   2.236   1.703   1.515 -0.4926 -0.0789  0.1944
  855SOL     OW 3465   2.180   1.955   1.638  0.1490  0.2958  0.0948
  855SOL    HW2 3466   2.182   1.936   1.732 -0.0245 -0.9596 -0.1489
  855SOL    HW3 3467   2.192   1.870   1.596 -2.0640  0.5045 -1.0379
  855SOL    MW4 3468   2.182   1.941   1.645 -0.1659  0.1577 -0.0867
  856SOL     OW 3469   2.432   2.042   1.557 -0.3304  0.1178  0.5343
  856SOL    HW2 3470   2.341   2.023   1.582 -0.7080  1.0758 -0.0765
  856SOL    HW3 3471   2.426   2.068   1.465  0.5258  0.4386  0.5692
  856SOL    MW4 3472   2.419   2.043   1.548 -0.2668  0.2863  0.4582
  857SOL     OW 3473   2.474   2.295   1.646  0.4486 -0.1617  0.3754
  857SOL    HW2 3474   2.473   2.301   1.742 -1.8396  0.0402  0.3638
  857SOL    HW3 3475   2.483   2.201   1.628  1.2745 -0.1654  0.7718
  857SOL    MW4 3476   2.475   2.283   1.656  0.2558 -0.1354  0.4263
  858SOL     OW 3477   2.265   2.427   1.508  0.5630 -0.4145  0.0730
  858SOL    HW2 3478   2.319   2.367   1.559 -0.6674 -1.0313  0.6663
  858SOL    HW3 3479   2.175   2.409   1.536  0.0374  0.5815 -0.9133
  858SOL    MW4 3480   2.260   2.417   1.519  0.3312 -0.3643  0.0212
  859SOL     OW 3481   2.241   2.674   1.630  0.2094  0.3461  0.3444
  859SOL    HW2 3482   2.244   2.591   1.584  0.6677  1.0344 -0.8901
  859SOL    HW3 3483   2.154   2.709   1.612 -0.0558  0.0467  1.0297
  859SOL    MW4 3484   2.230   2.668   1.622  0.2348  0.3972  0.2722
  860SOL     OW 3485   2.454   2.839   1.531  0.5135  0.3386  0.2819
  860SOL    HW2 3486   2.453   2.920   1.582 -2.2193  1.7644 -1.8721
  860SOL    HW3 3487   2.392   2.782   1.576  1.5500 -0.1438  1.1227
  860SOL    MW4 3488   2.445   2.842   1.544  0.2897  0.4628  0.1086
  861SOL     OW 3489   2.481   3.077   1.654 -0.2582  0.0827  0.1177
  861SOL    HW2 3490   2.553   3.105   1.598 -0.7077 -0.3232 -0.6644
  861SOL    HW3 3491   2.403   3.117   1.615 -0.6341 -0.5915  0.1654
  861SOL    MW4 3492   2.480   3.086   1.642 -0.3672 -0.0598  0.0209
  862SOL     OW 3493   2.250   3.162   1.252 -0.1230  0.2377  0.0633
  862SOL    HW2 3494   2.220   3.238   1.202  0.5879  0.3426 -0.2029
  862SOL    HW3 3495   2.324   3.128   1.201  0.6204  0.3616  1.0514
  862SOL    MW4 3496   2.256   3.168   1.238  0.0687  0.2680  0.1587
  863SOL     OW 3497   2.260   3.447   1.621  0.2433 -0.1692 -0.2018
  863SOL    HW2 3498   2.259   3.460   1.716  1.4456 -2.0113  0.0982
  863SOL    HW3 3499   2.340   3.490   1.592  0.9753 -1.4104 -0.0674
  863SOL    MW4 3500   2.271   3.454   1.630  0.4983 -0.5758 -0.1444
  864SOL     OW 3501   2.457   3.606   1.481  0.0627  0.1047  0.7097
  864SOL    HW2 3502   2.531   3.558   1.517 -0.3943 -0.5587  0.7666
  864SOL    HW3 3503   2.457   3.690   1.528 -0.3188 -0.6117  1.9838
  864SOL    MW4 3504   2.467   3.611   1.492 -0.0479 -0.0772  0.8852
  865SOL     OW 3505   2.504   3.808   1.670 -0.3206 -0.0991  0.0790
  865SOL    HW2 3506   2.487   3.836   1.760 -1.9937  1.5261 -0.7212
  865SOL    HW3 3507   2.572   3.868   1.639  0.0036 -0.4349  0.1357
  865SOL    MW4 3508   2.511   3.820   1.678 -0.4985  0.0708 -0.0192
  866SOL     OW 3509   2.254   3.961   1.549 -0.3717 -0.4371  0.0473
  866SOL    HW2 3510   2.316   3.905   1.596  0.0814 -0.6923 -0.8390
  866SOL    HW3 3511   2.264   3.936   1.457  0.5966  1.7975 -0.5072
  866SOL    MW4 3512   2.264   3.951   1.543 -0.1838 -0.1760 -0.1428
  867SOL     OW 3513   2.212   4.222   1.675 -0.2919 -0.1414 -0.1841
  867SOL    HW2 3514   2.297   4.259   1.654 -0.5310  1.0020  0.8182
  867SOL    HW3 3515   2.215   4.133   1.640  0.9761  0.1931 -0.9456
  867SOL    MW4 3516   2.223   4.215   1.667 -0.1562  0.0534 -0.1525
  868SOL     OW 3517   2.440   4.355   1.624 -0.0616  0.0715 -0.2006
  868SOL    HW2 3518   2.445   4.445   1.656 -1.8279  0.1224 -0.0460
  868SOL    HW3 3519   2.449   4.363   1.529 -1.7907  0.5717 -0.3341
  868SOL    MW4 3520   2.442   4.368   1.615 -0.5226  0.1440 -0.1979
  869SOL     OW 3521   2.898   4.644   1.608  0.0510 -0.4952  0.0463
  869SOL    HW2 3522   2.893   4.649   1.704 -1.0616 -0.1985 -0.0184
  869SOL    HW3 3523   2.811   4.672   1.579  0.3179 -0.8140 -1.0442
  869SOL    MW4 3524   2.886   4.649   1.617 -0.0606 -0.4978 -0.1061
  870SOL     OW 3525   2.648   0.104   1.517 -0.0792  0.6171  0.0813
  870SOL    HW2 3526   2.639   0.193   1.551 -0.3816  0.3179  0.7890
  870SOL    HW3 3527   2.584   0.053   1.566 -0.6410  0.2053 -1.0535
  870SOL    MW4 3528   2.639   0.109   1.528 -0.1929  0.5233  0.0250
  871SOL     OW 3529   2.698   0.368   1.583  0.3084 -0.2821 -0.4904
  871SOL    HW2 3530   2.700   0.382   1.677  1.0106  1.3153 -0.7378
  871SOL    HW3 3531   2.766   0.426   1.548 -0.5557 -0.1915 -2.0656
  871SOL    MW4 3532   2.707   0.377   1.591  0.2871 -0.0593 -0.7308
  872SOL     OW 3533   2.918   0.498   1.495  0.2285  0.0548 -0.0786
  872SOL    HW2 3534   2.950   0.587   1.510  0.7440 -0.0543 -0.4983
  872SOL    HW3 3535   2.917   0.489   1.400 -0.5450 -0.1311 -0.0517
  872SOL    MW4 3536   2.922   0.509   1.485  0.1943  0.0159 -0.1305
  873SOL     OW 3537   2.947   0.801   1.604  0.0227 -0.3055  0.6314
  873SOL    HW2 3538   2.927   0.776   1.694  1.6197 -0.1045  1.0702
  873SOL    HW3 3539   2.869   0.847   1.573 -0.2607  0.2910  2.1863
  873SOL    MW4 3540   2.934   0.804   1.612  0.1960 -0.2003  0.8943
  874SOL     OW 3541   2.699   0.908   1.537  0.3522 -0.0029  0.1895
  874SOL    HW2 3542   2.630   0.845   1.559  0.6332 -0.1612  0.6298
  874SOL    HW3 3543   2.706   0.903   1.441 -0.2598  0.0339  0.1407
  874SOL    MW4 3544   2.691   0.899   1.527  0.3083 -0.0189  0.2412
  875SOL     OW 3545   2.668   1.152   1.646  0.4080 -0.4061 -0.3913
  875SOL    HW2 3546   2.650   1.061   1.620 -1.3471 -0.3464  0.5280
  875SOL    HW3 3547   2.607   1.204   1.593  1.9092  0.3292 -1.4510
  875SOL    MW4 3548   2.658   1.147   1.635  0.3743 -0.3012 -0.4097
  876SOL     OW 3549   2.901   1.267   1.535 -0.0252  0.0420 -0.0499
  876SOL    HW2 3550   2.974   1.231   1.584 -1.2155 -0.7431  1.1542
  876SOL    HW3 3551   2.824   1.220   1.567 -0.9988  0.4792 -1.6805
  876SOL    MW4 3552   2.900   1.256   1.546 -0.3109 -0.0041 -0.1062
  877SOL     OW 3553   2.878   1.501   1.689 -0.8688  0.2952  0.0520
  877SOL    HW2 3554   2.810   1.558   1.654 -0.6367  0.4020 -0.2250
  877SOL    HW3 3555   2.877   1.424   1.631 -0.9198  0.1879  0.1939
  877SOL    MW4 3556   2.869   1.498   1.676 -0.8447  0.2952  0.0342
  878SOL     OW 3557   2.713   1.662   1.528  0.2510  0.5159  0.1775
  878SOL    HW2 3558   2.684   1.745   1.566 -0.4765  0.1531  0.4191
  878SOL    HW3 3559   2.714   1.677   1.434 -1.5384  0.2759  0.1064
  878SOL    MW4 3560   2.709   1.675   1.521 -0.0811  0.4363  0.2000
  879SOL     OW 3561   2.677   1.922   1.645 -0.2389 -0.1046 -0.2142
  879SOL    HW2 3562   2.682   1.927   1.741  0.9203 -0.9324 -0.2210
  879SOL    HW3 3563   2.602   1.977   1.622  0.7021  1.7467  1.0123
  879SOL    MW4 3564   2.668   1.930   1.655  0.0381  0.0304 -0.0532
  880SOL     OW 3565   2.887   2.045   1.503 -0.0611  0.1785 -0.1952
  880SOL    HW2 3566   2.890   2.137   1.528  0.4706  0.4405 -1.1748
  880SOL    HW3 3567   2.806   2.012   1.540 -0.6329  1.2411 -0.4857
  880SOL    MW4 3568   2.877   2.053   1.511 -0.0660  0.3531 -0.3628
  881SOL     OW 3569   2.925   2.279   1.639  0.1547  0.4488  0.5444
  881SOL    HW2 3570   2.927   2.299   1.733 -2.5607 -1.0600  0.9662
  881SOL    HW3 3571   2.849   2.327   1.606  0.0701 -0.4230 -0.5496
  881SOL    MW4 3572   2.915   2.288   1.647 -0.2148  0.1349  0.4557
  882SOL     OW 3573   2.701   2.403   1.535  0.2526 -0.3160  0.0619
  882SOL    HW2 3574   2.705   2.494   1.563 -0.5262 -0.5618  0.9955
  882SOL    HW3 3575   2.616   2.372   1.564  1.2801 -1.9010  1.4999
  882SOL    MW4 3576   2.691   2.411   1.543  0.2854 -0.5574  0.3747
  883SOL     OW 3577   2.664   2.681   1.588 -0.6005  0.0425 -0.4074
  883SOL    HW2 3578   2.748   2.728   1.594  0.1134 -0.9715 -2.1286
  883SOL    HW3 3579   2.600   2.749   1.565 -0.0653  0.6483 -0.1318
  883SOL    MW4 3580   2.667   2.697   1.586 -0.4358 -0.0112 -0.5982
  884SOL     OW 3581   2.946   2.786   1.577  0.0367  0.3554  0.0208
  884SOL    HW2 3582   3.030   2.758   1.613  0.2394  2.0306  0.8938
  884SOL    HW3 3583   2.944   2.881   1.590 -1.3750  0.5340 -1.2986
  884SOL    MW4 3584   2.957   2.795   1.584 -0.1230  0.5999 -0.0381
  885SOL     OW 3585   2.942   3.069   1.631  0.1254 -0.4818 -0.0736
  885SOL    HW2 3586   2.924   3.087   1.723 -1.6247  1.2862 -0.7251
  885SOL    HW3 3587   3.027   3.110   1.615 -0.5697  1.1086  0.2272
  885SOL    MW4 3588   2.951   3.077   1.641 -0.1974 -0.0386 -0.1198
  886SOL     OW 3589   2.698   3.213   1.552  0.3811  0.4669 -0.3009
  886SOL    HW2 3590   2.781   3.180   1.587 -0.3019  0.2109  1.1141
  886SOL    HW3 3591   2.716   3.227   1.459  2.0809  0.6458  0.0252
  886SOL    MW4 3592   2.711   3.211   1.544  0.5155  0.4568 -0.0712
  887SOL     OW 3593   2.671   3.490   1.615 -0.1399 -0.1020  0.3873
  887SOL    HW2 3594   2.645   3.511   1.705 -0.6535  1.5131 -0.1192
  887SOL    HW3 3595   2.668   3.395   1.611 -2.1667 -0.1074  1.4833
  887SOL    MW4 3596   2.667   3.481   1.627 -0.4749  0.1104  0.4650
  888SOL     OW 3597   2.939   3.564   1.523  0.2786  0.2581  0.1291
  888SOL    HW2 3598   2.854   3.529   1.549 -0.0045  0.6840 -0.2132
  888SOL    HW3 3599   2.932   3.577   1.428  1.2214 -1.0657 -0.1310
  888SOL    MW4 3600   2.927   3.561   1.514  0.3657  0.1400  0.0496
  889SOL     OW 3601   2.910   3.807   1.669 -0.3781 -0.1065 -0.3085
  889SOL    HW2 3602   2.826   3.839   1.636 -1.6586 -0.7554  2.1248
  889SOL    HW3 3603   2.921   3.721   1.629 -2.1304 -1.0886  1.2336
  889SOL    MW4 3604   2.900   3.800   1.660 -0.7784 -0.3216  0.2160
  890SOL     OW 3605   2.701   3.964   1.563 -0.0303  0.7233 -0.4498
  890SOL    HW2 3606   2.697   4.047   1.609  0.2872  0.5914 -0.1741
  890SOL    HW3 3607   2.711   3.987   1.471  1.2677  0.9912 -0.2507
  890SOL    MW4 3608   2.702   3.978   1.557  0.1826  0.7412 -0.3872
  891SOL     OW 3609   2.675   4.220   1.687  0.5409 -0.1206 -0.4063
  891SOL    HW2 3610   2.592   4.263   1.666  0.6692  0.7332  0.7898
  891SOL    HW3 3611   2.742   4.276   1.647  0.7817  1.4652  2.0651
  891SOL    MW4 3612   2.673   4.233   1.679  0.5894  0.2012  0.0775
  892SOL     OW 3613   2.884   4.366   1.591  0.2156 -0.1745 -0.0001
  892SOL    HW2 3614   2.884   4.461   1.601 -1.1534  0.1496 -2.7591
  892SOL    HW3 3615   2.889   4.351   1.497  0.3782 -2.8469  0.3852
  892SOL    MW4 3616   2.884   4.376   1.580  0.0565 -0.4840 -0.3133
  893SOL     OW 3617   3.404   4.646   1.648  0.3759 -0.2397  0.4252
  893SOL    HW2 3618   3.461   4.696   1.590  0.0975 -1.8479 -1.2948
  893SOL    HW3 3619   3.378   4.570   1.596 -1.0307 -0.9981  2.1824
  893SOL    MW4 3620   3.408   4.642   1.633  0.1535 -0.5517  0.4301
  894SOL     OW 3621   3.147   0.093   1.592  0.1192  0.1491 -0.1731
  894SOL    HW2 3622   3.228   0.047   1.614  0.0123 -1.1492 -2.3820
  894SOL    HW3 3623   3.079   0.026   1.600 -0.3975  0.6018 -0.7549
  894SOL    MW4 3624   3.149   0.078   1.596  0.0367  0.0375 -0.5413
  895SOL     OW 3625   3.108   0.370   1.663 -0.2851  0.0713  0.1059
  895SOL    HW2 3626   3.112   0.275   1.654  1.0943  0.1032  0.3008
  895SOL    HW3 3627   3.048   0.399   1.594  0.4318 -0.8040 -0.8937
  895SOL    MW4 3628   3.100   0.361   1.653 -0.0088 -0.0400 -0.0004
  896SOL     OW 3629   3.343   0.482   1.555  0.4948  0.2454 -0.0771
  896SOL    HW2 3630   3.263   0.440   1.587  0.5509  0.6324  0.5787
  896SOL    HW3 3631   3.328   0.494   1.461  0.2912 -0.8173 -0.1871
  896SOL    MW4 3632   3.330   0.478   1.547  0.4754  0.1563 -0.0051
  897SOL     OW 3633   3.410   0.731   1.658  0.0422  0.2794 -0.2401
  897SOL    HW2 3634   3.416   0.730   1.753 -0.1124  0.3896 -0.2293
  897SOL    HW3 3635   3.380   0.643   1.635 -3.4512  1.3086  0.0599
  897SOL    MW4 3636   3.407   0.719   1.667 -0.4392  0.4297 -0.1991
  898SOL     OW 3637   3.187   0.909   1.581 -0.1079 -0.2608  0.2883
  898SOL    HW2 3638   3.244   0.846   1.625 -0.5552 -1.5334 -0.9037
  898SOL    HW3 3639   3.101   0.868   1.580 -0.4711  0.4883 -0.2725
  898SOL    MW4 3640   3.183   0.896   1.586 -0.2146 -0.3299  0.0570
  899SOL     OW 3641   3.120   1.160   1.669  0.1051 -0.1983 -0.0283
  899SOL    HW2 3642   3.134   1.149   1.763  0.0769 -0.8535 -0.1023
  899SOL    HW3 3643   3.146   1.076   1.631 -1.3339 -0.4587 -0.4574
  899SOL    MW4 3644   3.125   1.147   1.676 -0.0885 -0.3192 -0.0947
  900SOL     OW 3645   3.373   1.267   1.533 -0.5463  0.7288 -0.1702
  900SOL    HW2 3646   3.425   1.215   1.594  1.3919  3.4289  0.5714
  900SOL    HW3 3647   3.282   1.252   1.559  0.0360 -1.4504  0.6665
  900SOL    MW4 3648   3.368   1.258   1.544 -0.2141  0.7975  0.0380
  901SOL     OW 3649   3.347   1.534   1.623  0.1132  0.2476  0.5213
  901SOL    HW2 3650   3.346   1.509   1.716 -0.9452 -0.6488  0.2659
  901SOL    HW3 3651   3.382   1.457   1.578  1.4704  0.9982  0.2566
  901SOL    MW4 3652   3.352   1.521   1.630  0.1528  0.2284  0.4528
  902SOL     OW 3653   3.095   1.659   1.573  0.6342  0.1727  0.1696
  902SOL    HW2 3654   3.182   1.622   1.590  0.3465 -1.2903 -1.4476
  902SOL    HW3 3655   3.037   1.611   1.631  0.3635 -1.4881 -1.4384
  902SOL    MW4 3656   3.099   1.648   1.583  0.5608 -0.2395 -0.2559
  903SOL     OW 3657   3.129   1.928   1.646  0.5814  0.6815 -0.1568
  903SOL    HW2 3658   3.105   1.838   1.625  0.8434  0.8667 -1.2545
  903SOL    HW3 3659   3.047   1.978   1.635  0.0522  0.3504  1.9564
  903SOL    MW4 3660   3.115   1.923   1.642  0.5462  0.6623 -0.0228
  904SOL     OW 3661   3.351   2.034   1.500  0.2769  0.8740 -0.2169
  904SOL    HW2 3662   3.269   1.993   1.527  0.0585  1.2879 -0.2424
  904SOL    HW3 3663   3.348   2.034   1.404  0.0377  1.4110 -0.2150
  904SOL    MW4 3664   3.340   2.029   1.491  0.2165  0.9995 -0.2199
  905SOL     OW 3665   3.389   2.266   1.661 -0.1410 -0.4141 -0.2802
  905SOL    HW2 3666   3.446   2.328   1.616  0.9637 -0.7814  0.5806
  905SOL    HW3 3667   3.380   2.193   1.601  0.0352 -0.2181 -0.5449
  905SOL    MW4 3668   3.395   2.265   1.647  0.0279 -0.4370 -0.2015
  906SOL     OW 3669   3.170   2.409   1.578  0.0348  0.5532 -0.3484
  906SOL    HW2 3670   3.232   2.354   1.626 -0.2208  0.7767  0.2486
  906SOL    HW3 3671   3.084   2.376   1.605 -0.1141  1.0309 -0.2325
  906SOL    MW4 3672   3.167   2.398   1.588 -0.0188  0.6456 -0.2543
  907SOL     OW 3673   3.181   2.667   1.676  0.1956  0.0050 -0.2887
  907SOL    HW2 3674   3.246   2.708   1.619  0.1028 -1.0362 -1.1645
  907SOL    HW3 3675   3.184   2.574   1.653 -1.1290 -0.1516  0.1267
  907SOL    MW4 3676   3.190   2.660   1.665  0.0086 -0.1531 -0.3494
  908SOL     OW 3677   3.349   2.803   1.506 -0.5732  0.2252 -0.8613
  908SOL    HW2 3678   3.369   2.893   1.533  0.0183  0.1140 -0.9230
  908SOL    HW3 3679   3.353   2.805   1.410  0.3125 -0.0704 -0.8282
  908SOL    MW4 3680   3.352   2.815   1.497 -0.3784  0.1714 -0.8651
  909SOL     OW 3681   3.405   3.066   1.591 -0.5378  0.0017  0.2185
  909SOL    HW2 3682   3.429   3.056   1.683 -0.5707  0.2364  0.2529
  909SOL    HW3 3683   3.477   3.117   1.553  0.1857 -1.2951 -0.2053
  909SOL    MW4 3684   3.418   3.071   1.598 -0.4468 -0.1385  0.1670
  910SOL     OW 3685   3.178   3.200   1.545  0.0250 -0.6146 -0.6374
  910SOL    HW2 3686   3.255   3.146   1.561 -1.0598 -2.2353 -0.7932
  910SOL    HW3 3687   3.164   3.194   1.450  0.9140  1.3792 -0.9250
  910SOL    MW4 3688   3.187   3.192   1.535 -0.0007 -0.5655 -0.6958
  911SOL     OW 3689   3.153   3.430   1.668 -0.1608 -0.4399  0.2196
  911SOL    HW2 3690   3.180   3.348   1.626  0.4218 -0.1680  0.0611
  911SOL    HW3 3691   3.083   3.463   1.612  0.1784 -0.4051 -0.1906
  911SOL    MW4 3692   3.147   3.424   1.655 -0.0393 -0.3991  0.1446
  912SOL     OW 3693   3.364   3.639   1.580 -0.2007 -0.1848  0.4773
  912SOL    HW2 3694   3.436   3.584   1.611 -0.8250 -0.9017  0.6922
  912SOL    HW3 3695   3.286   3.587   1.597 -0.7447  0.4443 -0.0674
  912SOL    MW4 3696   3.363   3.625   1.587 -0.3548 -0.1962  0.4338
  913SOL     OW 3697   3.335   3.886   1.676 -0.6620  0.3258 -0.1829
  913SOL    HW2 3698   3.250   3.924   1.653 -0.9407  0.1637  0.5443
  913SOL    HW3 3699   3.329   3.795   1.647 -1.6096 -0.3120  1.9141
  913SOL    MW4 3700   3.323   3.879   1.669 -0.8237  0.2203  0.1898
  914SOL     OW 3701   3.105   3.990   1.583  0.4262 -0.1857 -0.1367
  914SOL    HW2 3702   3.092   4.084   1.588 -0.5539 -0.1979 -2.0055
  914SOL    HW3 3703   3.023   3.953   1.617  0.7003 -0.3816  0.3274
  914SOL    MW4 3704   3.092   3.997   1.588  0.3333 -0.2134 -0.3221
  915SOL     OW 3705   3.130   4.251   1.640  0.2233 -0.2118 -0.1665
  915SOL    HW2 3706   3.137   4.239   1.735 -0.1541  0.0906 -0.0967
  915SOL    HW3 3707   3.042   4.288   1.627  0.7894  1.0394 -0.5101
  915SOL    MW4 3708   3.119   4.254   1.651  0.2482 -0.0067 -0.2027
  916SOL     OW 3709   3.311   4.406   1.500 -0.5736  0.0353 -0.5487
  916SOL    HW2 3710   3.253   4.354   1.556 -1.0528  0.6217 -0.4968
  916SOL    HW3 3711   3.268   4.405   1.414 -1.3524  1.5558 -0.1965
  916SOL    MW4 3712   3.297   4.399   1.496 -0.7396  0.3128 -0.4956
  917SOL     OW 3713   3.804   4.641   1.643 -0.3780  0.2320  0.3412
  917SOL    HW2 3714   3.790   4.631   1.737 -0.6531  1.7843  0.4856
  917SOL    HW3 3715   3.888   4.687   1.637 -0.6153  0.6004 -0.1451
  917SOL    MW4 3716   3.813   4.646   1.655 -0.4456  0.4854  0.2960
  918SOL     OW 3717   3.593   0.141   1.524  0.3048 -0.2373  0.1661
  918SOL    HW2 3718   3.677   0.111   1.559  0.0652 -0.6515  0.3857
  918SOL    HW3 3719   3.617   0.202   1.454  0.7850  0.6880  1.1230
  918SOL    MW4 3720   3.608   0.145   1.519  0.3366 -0.1699  0.3213
  919SOL     OW 3721   3.570   0.393   1.660 -0.5351  0.5879  0.0160
  919SOL    HW2 3722   3.573   0.305   1.621 -0.7382  0.8030 -0.4886
  919SOL    HW3 3723   3.486   0.429   1.630 -0.0424  1.2985 -0.5310
  919SOL    MW4 3724   3.559   0.386   1.651 -0.4973  0.7100 -0.1227
  920SOL     OW 3725   3.838   0.491   1.569  0.4092  0.0392  0.4055
  920SOL    HW2 3726   3.752   0.459   1.595  0.6819 -1.0197 -0.0033
  920SOL    HW3 3727   3.840   0.482   1.474  0.5819  1.0504  0.3027
  920SOL    MW4 3728   3.827   0.486   1.560  0.4683  0.0329  0.3381
  921SOL     OW 3729   3.852   0.771   1.617  0.5904 -0.5543 -0.6173
  921SOL    HW2 3730   3.766   0.807   1.597  1.5069  1.2441 -1.4089
  921SOL    HW3 3731   3.844   0.677   1.599 -1.0834 -0.3442 -1.0341
  921SOL    MW4 3732   3.839   0.763   1.612  0.4907 -0.2893 -0.7768
  922SOL     OW 3733   3.609   0.867   1.547 -0.6525 -0.1496  0.1299
  922SOL    HW2 3734   3.538   0.810   1.577 -0.2930  0.4116  2.0785
  922SOL    HW3 3735   3.603   0.863   1.451 -4.1622  0.9427  0.2210
  922SOL    MW4 3736   3.598   0.859   1.538 -1.0679  0.0685  0.3991
  923SOL     OW 3737   3.564   1.112   1.661  0.1371 -0.5680  0.4721
  923SOL    HW2 3738   3.640   1.154   1.620 -1.2236  0.2474 -1.3019
  923SOL    HW3 3739   3.561   1.024   1.624 -0.3203 -0.2707 -0.2285
  923SOL    MW4 3740   3.573   1.106   1.650 -0.1028 -0.4212  0.1456
  924SOL     OW 3741   3.794   1.244   1.547  0.6989  0.1666 -0.0085
  924SOL    HW2 3742   3.885   1.219   1.566  0.9585  2.1896  1.5368
  924SOL    HW3 3743   3.788   1.335   1.575 -1.5624  0.3483 -1.0013
  924SOL    MW4 3744   3.805   1.252   1.553  0.4351  0.4575  0.0644
  925SOL     OW 3745   3.794   1.499   1.641  0.0547  0.1408  0.1341
  925SOL    HW2 3746   3.813   1.497   1.735  0.6144 -0.0804  0.0200
  925SOL    HW3 3747   3.708   1.541   1.635  0.7377  1.6443  0.6249
  925SOL    MW4 3748   3.785   1.504   1.653  0.2186  0.3099  0.1837
  926SOL     OW 3749   3.581   1.668   1.592 -0.2662  0.0945  0.6664
  926SOL    HW2 3750   3.491   1.643   1.612  0.1679 -0.0812  2.5539
  926SOL    HW3 3751   3.593   1.646   1.500 -2.0935 -0.0460  0.4477
  926SOL    MW4 3752   3.571   1.662   1.583 -0.4501  0.0528  0.8866
  927SOL     OW 3753   3.591   1.953   1.633 -0.3495  0.3520 -0.0745
  927SOL    HW2 3754   3.591   1.857   1.627 -0.0229  0.4117 -1.0797
  927SOL    HW3 3755   3.509   1.980   1.592 -1.0567  0.4556  1.3433
  927SOL    MW4 3756   3.580   1.944   1.627 -0.3998  0.3736 -0.0200
  928SOL     OW 3757   3.813   2.053   1.479  0.0011 -0.2786  0.1169
  928SOL    HW2 3758   3.821   2.142   1.513 -0.7353  0.5134 -1.7273
  928SOL    HW3 3759   3.745   2.013   1.532  0.3714  0.2267  0.9877
  928SOL    MW4 3760   3.805   2.059   1.491 -0.0470 -0.1075 -0.0116
  929SOL     OW 3761   4.036   2.449   1.486  0.2443 -0.1869 -0.3821
  929SOL    HW2 3762   4.116   2.402   1.506  0.8750  0.8292 -0.4658
  929SOL    HW3 3763   4.042   2.529   1.539 -1.4110 -0.7792  0.7653
  929SOL    MW4 3764   4.047   2.454   1.496  0.1082 -0.1311 -0.2418
  930SOL     OW 3765   3.831   2.292   1.590 -0.1415  0.0369  0.1479
  930SOL    HW2 3766   3.822   2.307   1.684 -0.9483 -0.4163  0.1431
  930SOL    HW3 3767   3.907   2.345   1.565 -0.1213  0.4187  0.9918
  930SOL    MW4 3768   3.840   2.301   1.599 -0.2451  0.0274  0.2586
  931SOL     OW 3769   3.596   2.719   1.586  0.1426  0.1943  0.7289
  931SOL    HW2 3770   3.595   2.726   1.681 -0.9651  1.8817  0.6004
  931SOL    HW3 3771   3.507   2.738   1.559  0.6737  0.7116 -0.7317
  931SOL    MW4 3772   3.584   2.722   1.595  0.0665  0.4852  0.5192
  932SOL     OW 3773   3.846   2.858   1.517  0.2203 -0.3040 -0.3046
  932SOL    HW2 3774   3.918   2.816   1.566 -0.1923 -0.2714  0.3319
  932SOL    HW3 3775   3.768   2.809   1.543 -0.2156  0.6297  0.1767
  932SOL    MW4 3776   3.845   2.846   1.527  0.1080 -0.1769 -0.1571
  933SOL     OW 3777   3.814   3.114   1.615  0.2227 -0.3201 -0.1196
  933SOL    HW2 3778   3.901   3.149   1.596  0.2927 -0.5360 -0.2006
  933SOL    HW3 3779   3.810   3.033   1.565 -0.5152  0.3439 -1.1632
  933SOL    MW4 3780   3.825   3.108   1.606  0.1345 -0.2608 -0.2679
  934SOL     OW 3781   3.601   3.230   1.504  0.0874  0.2095 -0.2491
  934SOL    HW2 3782   3.683   3.191   1.536 -0.7678 -1.8643 -0.4764
  934SOL    HW3 3783   3.597   3.203   1.412 -0.9204  0.1788 -0.2006
  934SOL    MW4 3784   3.612   3.221   1.496 -0.1583 -0.0679 -0.2728
  935SOL     OW 3785   3.594   3.465   1.621 -0.4837  0.0116 -0.4243
  935SOL    HW2 3786   3.679   3.500   1.594 -0.6159 -0.2733 -1.2092
  935SOL    HW3 3787   3.583   3.386   1.569 -1.7286  0.6359 -1.1177
  935SOL    MW4 3788   3.604   3.460   1.611 -0.6652  0.0565 -0.6195
  936SOL     OW 3789   3.835   3.610   1.559  0.2212 -0.2875 -0.1853
  936SOL    HW2 3790   3.912   3.574   1.602  0.0952 -1.3627 -0.8451
  936SOL    HW3 3791   3.829   3.700   1.592  0.8602 -0.6833  1.0444
  936SOL    MW4 3792   3.844   3.617   1.569  0.2890 -0.4816 -0.1101
  937SOL     OW 3793   3.803   3.877   1.658 -0.1109 -0.1628 -0.5241
  937SOL    HW2 3794   3.874   3.942   1.650 -0.7413  0.7681  1.1879
  937SOL    HW3 3795   3.726   3.922   1.623 -0.7086  0.2910  1.3533
  937SOL    MW4 3796   3.802   3.892   1.652 -0.2728  0.0200 -0.0507
  938SOL     OW 3797   3.575   3.988   1.539  0.0021 -0.1138  0.0490
  938SOL    HW2 3798   3.562   4.078   1.567 -1.4804  0.2184 -1.6105
  938SOL    HW3 3799   3.515   3.936   1.592  1.7566 -0.3198  1.8950
  938SOL    MW4 3800   3.566   3.993   1.549  0.0379 -0.0973  0.0737
  939SOL     OW 3801   3.546   4.262   1.590 -0.0486  0.2329  0.4036
  939SOL    HW2 3802   3.520   4.247   1.681 -0.3721 -1.6015  0.0218
  939SOL    HW3 3803   3.466   4.295   1.548 -0.3597 -0.4862  0.4198
  939SOL    MW4 3804   3.532   4.265   1.596 -0.1323 -0.1040  0.3554
  940SOL     OW 3805   3.805   4.382   1.545  0.0125 -0.0595  0.2138
  940SOL    HW2 3806   3.721   4.343   1.568 -0.5203  1.0542  0.2231
  940SOL    HW3 3807   3.801   4.470   1.582  1.1925 -0.0087  0.2309
  940SOL    MW4 3808   3.794   4.389   1.553  0.0978  0.0935  0.2174
  941SOL     OW 3809   4.256   4.645   1.601 -0.0501 -0.0616 -0.3979
  941SOL    HW2 3810   4.269   4.619   1.692 -0.0431 -0.0709 -0.4015
  941SOL    HW3 3811   4.256   4.562   1.553 -2.8044 -0.2744 -0.0822
  941SOL    MW4 3812   4.258   4.630   1.607 -0.4125 -0.0911 -0.3567
  942SOL     OW 3813   4.027   0.129   1.579  0.7570 -0.3985  0.1140
  942SOL    HW2 3814   4.061   0.215   1.604  0.6711 -0.3685  0.1246
  942SOL    HW3 3815   4.103   0.071   1.587  0.2482 -0.7792  2.3679
  942SOL    MW4 3816   4.042   0.133   1.583  0.6781 -0.4448  0.4128
  943SOL     OW 3817   4.095   0.405   1.642 -0.1485  0.1128  0.0950
  943SOL    HW2 3818   4.110   0.421   1.735 -0.3691 -2.0925  0.5232
  943SOL    HW3 3819   4.008   0.441   1.625  0.0188  0.7942  0.6594
  943SOL    MW4 3820   4.086   0.412   1.652 -0.1554 -0.0882  0.2260
  944SOL     OW 3821   4.281   0.550   1.498  0.6601  0.1536  0.5746
  944SOL    HW2 3822   4.199   0.512   1.528 -0.0829  1.5408  0.3368
  944SOL    HW3 3823   4.347   0.485   1.521 -0.2742 -0.1892  2.3383
  944SOL    MW4 3824   4.279   0.536   1.505  0.4387  0.2914  0.7759
  945SOL     OW 3825   4.312   0.824   1.652  0.5112  0.1650 -0.1372
  945SOL    HW2 3826   4.315   0.737   1.613 -1.3996  0.2916 -0.6491
  945SOL    HW3 3827   4.387   0.870   1.615 -0.1260 -0.3547 -2.1109
  945SOL    MW4 3828   4.322   0.819   1.642  0.1755  0.1131 -0.4652
  946SOL     OW 3829   4.092   0.894   1.519  0.2535 -0.3467  0.0559
  946SOL    HW2 3830   4.158   0.850   1.574 -0.0812 -0.2835  0.5118
  946SOL    HW3 3831   4.009   0.853   1.544  0.2905 -1.4728 -1.5824
  946SOL    MW4 3832   4.090   0.883   1.530  0.2146 -0.4869 -0.1000
  947SOL     OW 3833   4.038   1.148   1.612 -0.0093 -0.1905  0.2743
  947SOL    HW2 3834   4.051   1.134   1.706  1.5505  1.3050  0.3053
  947SOL    HW3 3835   4.046   1.061   1.573 -0.3682 -0.7754  1.5025
  947SOL    MW4 3836   4.041   1.135   1.619  0.1493 -0.0702  0.4404
  948SOL     OW 3837   4.263   1.283   1.533 -0.0010 -0.2496 -0.1593
  948SOL    HW2 3838   4.186   1.229   1.551 -0.8047  0.7087 -0.6751
  948SOL    HW3 3839   4.336   1.235   1.571 -0.6341 -1.9529 -1.0640
  948SOL    MW4 3840   4.263   1.270   1.540 -0.1907 -0.3480 -0.3468
  949SOL     OW 3841   4.246   1.552   1.577 -0.7051 -0.4920 -0.0599
  949SOL    HW2 3842   4.246   1.458   1.555 -0.1222 -0.3807 -0.5573
  949SOL    HW3 3843   4.317   1.588   1.524 -1.5531  0.4073 -0.5833
  949SOL    MW4 3844   4.256   1.544   1.567 -0.7401 -0.3586 -0.1945
  950SOL     OW 3845   3.987   1.669   1.531 -0.5880 -0.7353  0.2755
  950SOL    HW2 3846   4.073   1.635   1.556 -0.2739  1.1404  1.8140
  950SOL    HW3 3847   3.925   1.605   1.565  0.0711 -0.6948  1.5803
  950SOL    MW4 3848   3.990   1.656   1.539 -0.4597 -0.4824  0.6508
  951SOL     OW 3849   3.997   1.917   1.637 -0.1549  0.0878 -0.1080
  951SOL    HW2 3850   3.994   1.828   1.603 -0.7873 -0.3527  1.0915
  951SOL    HW3 3851   3.929   1.963   1.587 -0.9707 -0.5169  0.4239
  951SOL    MW4 3852   3.988   1.911   1.626 -0.3459 -0.0502  0.1205
  952SOL     OW 3853   4.239   2.035   1.582 -0.1553 -0.2694 -0.2902
  952SOL    HW2 3854   4.159   1.987   1.600 -1.3407  1.5083 -0.6583
  952SOL    HW3 3855   4.236   2.053   1.488  0.3841  0.3231 -0.1998
  952SOL    MW4 3856   4.228   2.031   1.572 -0.2408  0.0432 -0.3269
  953SOL     OW 3857   4.231   2.310   1.612  0.1295 -0.2672  0.2762
  953SOL    HW2 3858   4.225   2.324   1.706 -1.6979 -0.9392  0.2743
  953SOL    HW3 3859   4.230   2.215   1.601 -0.4125 -0.1862 -0.4540
  953SOL    MW4 3860   4.230   2.299   1.623 -0.1826 -0.3450  0.1795
  954SOL     OW 3861   3.939   2.492   1.230 -0.5858 -0.0831  0.3233
  954SOL    HW2 3862   3.925   2.586   1.235  1.2226  0.2054  0.3362
  954SOL    HW3 3863   3.961   2.467   1.320 -0.2910 -0.3975  0.1621
  954SOL    MW4 3864   3.940   2.501   1.243 -0.3080 -0.0863  0.3037
  955SOL     OW 3865   4.055   2.683   1.622  0.5113 -0.3232 -0.3790
  955SOL    HW2 3866   4.047   2.697   1.716  4.4693 -0.0298  0.0038
  955SOL    HW3 3867   4.137   2.725   1.598 -0.1606 -0.8385 -3.9033
  955SOL    MW4 3868   4.065   2.690   1.631  0.9446 -0.3526 -0.7936
  956SOL     OW 3869   4.258   2.841   1.556 -0.6539 -0.1207  0.4932
  956SOL    HW2 3870   4.271   2.922   1.606  0.9931  0.8609 -1.4476
  956SOL    HW3 3871   4.278   2.866   1.466 -2.3495 -2.1671 -0.4808
  956SOL    MW4 3872   4.262   2.855   1.551 -0.6604 -0.2611  0.1086
  957SOL     OW 3873   4.281   3.103   1.679 -0.4467 -0.4236  0.2759
  957SOL    HW2 3874   4.291   3.080   1.771  1.0970 -0.7784  0.0389
  957SOL    HW3 3875   4.368   3.133   1.652 -0.8274 -0.5169 -1.1145
  957SOL    MW4 3876   4.294   3.104   1.688 -0.2928 -0.4826  0.0613
  958SOL     OW 3877   4.053   3.211   1.542  0.0063  0.0857  0.0360
  958SOL    HW2 3878   4.047   3.301   1.574  1.1004  0.4840 -0.8292
  958SOL    HW3 3879   4.113   3.168   1.603  0.6784  0.3625 -0.4191
  958SOL    MW4 3880   4.060   3.217   1.554  0.2394  0.1750 -0.1382
  959SOL     OW 3881   4.050   3.471   1.667 -0.7752  0.5652  0.0899
  959SOL    HW2 3882   4.022   3.472   1.759  2.1792  1.9721  1.0047
  959SOL    HW3 3883   4.141   3.501   1.669 -0.1222 -1.0293 -3.1225
  959SOL    MW4 3884   4.058   3.475   1.679 -0.2990  0.5405 -0.2133
  960SOL     OW 3885   4.274   3.619   1.538  0.3444  0.0681 -0.2687
  960SOL    HW2 3886   4.282   3.713   1.554  0.6660  0.1943 -1.1454
  960SOL    HW3 3887   4.237   3.613   1.449 -1.8674 -0.5938  0.6500
  960SOL    MW4 3888   4.270   3.631   1.528  0.0949 -0.0026 -0.2632
  961SOL     OW 3889   4.271   3.899   1.610 -0.3631 -0.4597  0.3159
  961SOL    HW2 3890   4.189   3.944   1.591 -0.9514 -1.2220  1.0224
  961SOL    HW3 3891   4.339   3.956   1.574 -1.2562 -0.2906 -1.1318
  961SOL    MW4 3892   4.269   3.912   1.603 -0.5579 -0.5376  0.2182
  962SOL     OW 3893   4.027   4.026   1.561 -0.2212  1.0680  0.1742
  962SOL    HW2 3894   4.042   4.118   1.584 -0.0625  1.6458 -2.1421
  962SOL    HW3 3895   4.004   4.028   1.468 -0.8631 -1.1823  0.2585
  962SOL    MW4 3896   4.026   4.039   1.552 -0.2847  0.8473 -0.1203
  963SOL     OW 3897   4.073   4.295   1.624 -0.6459  0.3863 -0.3385
  963SOL    HW2 3898   4.074   4.292   1.720  0.6032  0.6546 -0.3347
  963SOL    HW3 3899   3.981   4.311   1.602 -0.7936  1.2693  0.8451
  963SOL    MW4 3900   4.061   4.297   1.634 -0.5012  0.5379 -0.1818
  964SOL     OW 3901   4.293   4.405   1.482 -0.2118 -0.0799 -0.0786
  964SOL    HW2 3902   4.230   4.345   1.523 -0.9704  1.0511  0.4130
  964SOL    HW3 3903   4.269   4.406   1.390  0.6808 -1.6108 -0.3589
  964SOL    MW4 3904   4.281   4.397   1.476 -0.1945 -0.1330 -0.0508
  965SOL     OW 3905   0.218   0.027   1.958  0.0905  0.3969 -0.0346
  965SOL    HW2 3906   0.305   0.060   1.979  0.8764 -0.2720 -2.1667
  965SOL    HW3 3907   0.214   0.026   1.863 -1.5920 -1.3126  0.0171
  965SOL    MW4 3908   0.229   0.032   1.948 -0.0278  0.0831 -0.3090
  966SOL     OW 3909   4.454   0.140   1.996 -0.2393 -0.1686 -0.3087
  966SOL    HW2 3910   4.455   0.216   1.939 -0.8535 -0.7027 -1.0425
  966SOL    HW3 3911   4.539   0.098   1.983  0.6366  1.1282  1.1132
  966SOL    MW4 3912   4.465   0.145   1.987 -0.2046 -0.0680 -0.2179
  967SOL     OW 3913   4.472   0.390   1.861  0.0491  0.1983  0.3746
  967SOL    HW2 3914   4.415   0.419   1.932  1.1901 -0.0833  1.4228
  967SOL    HW3 3915   4.560   0.416   1.889  0.3676  1.3264 -1.5768
  967SOL    MW4 3916   4.476   0.398   1.874  0.2413  0.3099  0.2555
  968SOL     OW 3917   0.201   0.480   2.022  0.0378 -0.2165 -0.2704
  968SOL    HW2 3918   0.291   0.447   2.023  0.1607  0.1033  2.0831
  968SOL    HW3 3919   0.210   0.572   1.998  0.5696  0.3444  1.9716
  968SOL    MW4 3920   0.214   0.488   2.019  0.1242 -0.1003  0.3359
  969SOL     OW 3921   0.240   0.748   1.913 -0.1393 -0.4336  0.4012
  969SOL    HW2 3922   0.310   0.811   1.934  0.9214 -1.1140 -1.0088
  969SOL    HW3 3923   0.230   0.755   1.818 -2.5322  0.1845  0.6801
  969SOL    MW4 3924   0.248   0.757   1.903 -0.3151 -0.4418  0.2519
  970SOL     OW 3925   0.031   0.904   1.985  0.3186 -0.3760  0.0995
  970SOL    HW2 3926  -0.040   0.843   1.965 -0.4120  0.2978  0.6377
  970SOL    HW3 3927   0.111   0.855   1.964 -0.2918 -1.2085 -0.3028
  970SOL    MW4 3928   0.032   0.889   1.980  0.1417 -0.3969  0.1173
  971SOL     OW 3929   0.022   1.179   1.919  0.3981 -0.1379  0.4463
  971SOL    HW2 3930  -0.068   1.202   1.943 -0.3955 -1.0846 -1.4705
  971SOL    HW3 3931   0.022   1.083   1.921  1.1745 -0.1488 -0.2235
  971SOL    MW4 3932   0.010   1.169   1.922  0.3958 -0.2644  0.1050
  972SOL     OW 3933   0.243   1.308   2.046  0.3579 -0.1656  0.2513
  972SOL    HW2 3934   0.247   1.389   1.996  0.0220 -0.1132  0.3124
  972SOL    HW3 3935   0.170   1.259   2.007  0.3903 -0.3249  0.3880
  972SOL    MW4 3936   0.234   1.312   2.034  0.3178 -0.1796  0.2773
  973SOL     OW 3937   0.225   1.558   1.902 -0.2826 -0.5740 -0.1342
  973SOL    HW2 3938   0.305   1.597   1.936 -0.6272  0.0238  0.0031
  973SOL    HW3 3939   0.155   1.598   1.953 -0.7661 -0.0285 -1.2020
  973SOL    MW4 3940   0.226   1.568   1.913 -0.3919 -0.4232 -0.2570
  974SOL     OW 3941   4.484   1.671   2.038 -0.1902 -0.0107  0.3295
  974SOL    HW2 3942   4.473   1.640   2.128 -0.9425  0.7249  0.4933
  974SOL    HW3 3943   4.417   1.624   1.988 -1.0141  0.9776  0.4924
  974SOL    MW4 3944   4.474   1.660   2.043 -0.3982  0.2167  0.3726
  975SOL     OW 3945   4.480   1.922   1.902 -0.4203 -0.4185  0.3812
  975SOL    HW2 3946   4.398   1.965   1.923 -0.1327  0.0380  0.5854
  975SOL    HW3 3947   4.477   1.839   1.950 -1.3668 -1.0458 -0.7273
  975SOL    MW4 3948   4.469   1.917   1.911 -0.5069 -0.4410  0.2618
  976SOL     OW 3949   0.217   2.073   1.983  0.4777  0.3004  0.2276
  976SOL    HW2 3950   0.206   2.155   1.935  1.7646 -0.2373 -1.0280
  976SOL    HW3 3951   0.145   2.017   1.953 -1.4125  1.5275  2.3533
  976SOL    MW4 3952   0.206   2.076   1.973  0.3981  0.3915  0.3426
  977SOL     OW 3953   0.184   2.338   1.889  0.2619  0.3957 -0.5531
  977SOL    HW2 3954   0.264   2.367   1.934  0.7227  0.2650 -1.2773
  977SOL    HW3 3955   0.113   2.369   1.945  0.7657  2.0906 -0.7993
  977SOL    MW4 3956   0.185   2.346   1.902  0.3892  0.6020 -0.6813
  978SOL     OW 3957   4.468   2.460   2.026  0.6610 -0.0748  0.3114
  978SOL    HW2 3958   4.465   2.437   2.119 -1.3794  0.0960  0.3254
  978SOL    HW3 3959   4.475   2.555   2.025  1.5894 -0.1404  0.2807
  978SOL    MW4 3960   4.468   2.469   2.038  0.5145 -0.0610  0.3095
  979SOL     OW 3961   0.023   2.745   1.901 -0.2042  0.0989 -0.7497
  979SOL    HW2 3962  -0.062   2.761   1.942 -0.7677 -0.5533 -1.6340
  979SOL    HW3 3963   0.002   2.702   1.818  1.0105 -0.4166 -0.8050
  979SOL    MW4 3964   0.009   2.742   1.895 -0.1183 -0.0551 -0.8737
  980SOL     OW 3965   0.249   2.824   2.037  0.3542 -0.1444  0.1989
  980SOL    HW2 3966   0.258   2.913   2.003 -1.6642  0.5761  1.4685
  980SOL    HW3 3967   0.173   2.789   1.990  0.1257 -0.6069  0.9146
  980SOL    MW4 3968   0.240   2.831   2.026  0.0578 -0.1104  0.4606
  981SOL     OW 3969   0.251   3.098   1.955 -0.2578  0.4393  0.2641
  981SOL    HW2 3970   0.311   3.158   1.999  0.9079 -0.1012 -0.5537
  981SOL    HW3 3971   0.246   3.131   1.865  0.8590 -1.0166 -0.3457
  981SOL    MW4 3972   0.258   3.110   1.949  0.0434  0.1762  0.0757
  982SOL     OW 3973   0.020   3.246   2.012  0.1379 -0.5455 -0.3922
  982SOL    HW2 3974  -0.047   3.181   1.990  1.0335 -1.2237 -1.1576
  982SOL    HW3 3975   0.103   3.206   1.983  0.9913 -0.1246  1.3585
  982SOL    MW4 3976   0.022   3.232   2.005  0.3686 -0.5794 -0.2623
  983SOL     OW 3977   4.483   3.471   1.877 -0.4790 -0.0475  0.0556
  983SOL    HW2 3978   4.403   3.515   1.905 -0.5654 -0.5884  0.6746
  983SOL    HW3 3979   4.482   3.388   1.924 -0.1621 -0.5800 -0.8738
  983SOL    MW4 3980   4.472   3.466   1.887 -0.4485 -0.1891  0.0147
  984SOL     OW 3981   0.220   3.626   1.974 -0.0299 -0.3608 -0.0069
  984SOL    HW2 3982   0.205   3.617   2.069  0.9330  0.3184  0.2134
  984SOL    HW3 3983   0.144   3.583   1.934 -2.2320  2.4178  1.0597
  984SOL    MW4 3984   0.208   3.619   1.982 -0.1934  0.0958  0.1628
  985SOL     OW 3985   0.221   3.899   1.886  0.0765 -0.1289  0.2100
  985SOL    HW2 3986   0.304   3.920   1.929 -0.2323 -0.8223  1.1909
  985SOL    HW3 3987   0.208   3.806   1.905 -1.1951  0.1038  0.5648
  985SOL    MW4 3988   0.230   3.889   1.894 -0.1320 -0.1898  0.3861
  986SOL     OW 3989   0.018   4.068   1.962 -0.0278 -0.1757 -0.0788
  986SOL    HW2 3990   0.030   4.162   1.945  0.2538 -0.5092 -1.8101
  986SOL    HW3 3991   0.100   4.028   1.932  0.6699 -0.7677  2.5363
  986SOL    MW4 3992   0.031   4.075   1.956  0.1014 -0.2980  0.0377
  987SOL     OW 3993   0.036   4.338   1.930  0.1903 -0.3536  0.4916
  987SOL    HW2 3994  -0.046   4.345   1.978 -0.4129 -0.7085 -0.4731
  987SOL    HW3 3995   0.092   4.406   1.967 -0.8637  0.5161  0.4961
  987SOL    MW4 3996   0.033   4.348   1.941 -0.0283 -0.2856  0.3650
  988SOL     OW 3997   0.271   4.445   2.061  0.0480 -0.6433 -0.1453
  988SOL    HW2 3998   0.257   4.451   2.155  1.1348 -1.8160  0.0959
  988SOL    HW3 3999   0.274   4.537   2.031 -0.2273 -0.2740  0.9574
  988SOL    MW4 4000   0.270   4.458   2.069  0.1551 -0.7491  0.0319
  989SOL     OW 4001   0.688   4.652   1.857  0.7320 -0.1728 -0.0755
  989SOL    HW2 4002   0.686   4.562   1.892  0.8444 -0.2367 -0.2327
  989SOL    HW3 4003   0.662   4.642   1.765 -1.9647  0.2862  0.5942
  989SOL    MW4 4004   0.684   4.639   1.850  0.3911 -0.1211 -0.0079
  990SOL     OW 4005   0.474   0.076   2.036 -0.2450 -0.3431  0.0320
  990SOL    HW2 4006   0.469   0.170   2.019  0.5819 -0.1583  0.7846
  990SOL    HW3 4007   0.546   0.045   1.980  0.5642 -0.2340  0.9926
  990SOL    MW4 4008   0.483   0.084   2.026 -0.0291 -0.3043  0.2577
  991SOL     OW 4009   0.453   0.329   1.951 -0.0837 -0.1995  0.1827
  991SOL    HW2 4010   0.520   0.396   1.963  0.0556 -0.1795 -0.6807
  991SOL    HW3 4011   0.435   0.330   1.857 -1.2428 -0.2529  0.3961
  991SOL    MW4 4012   0.460   0.338   1.940 -0.2183 -0.2038  0.0968
  992SOL     OW 4013   0.671   0.515   1.973 -0.3988 -0.4249 -0.2576
  992SOL    HW2 4014   0.655   0.519   2.067  0.6418  1.2030 -0.1230
  992SOL    HW3 4015   0.752   0.465   1.965  0.1785  0.4828 -0.1869
  992SOL    MW4 4016   0.680   0.509   1.984 -0.1853 -0.0904 -0.2306
  993SOL     OW 4017   0.704   0.782   1.929 -0.0805 -0.2807 -0.1968
  993SOL    HW2 4018   0.776   0.815   1.983  0.6598 -0.1291 -1.2569
  993SOL    HW3 4019   0.707   0.687   1.941 -1.7055 -0.0711  2.2201
  993SOL    MW4 4020   0.714   0.774   1.938 -0.1972 -0.2331 -0.0179
  994SOL     OW 4021   0.466   0.898   2.012 -0.1999  0.2405  0.2814
  994SOL    HW2 4022   0.469   0.985   1.973  0.5536 -0.1923 -0.6410
  994SOL    HW3 4023   0.555   0.864   2.003 -0.8138 -1.1707 -0.6342
  994SOL    MW4 4024   0.478   0.905   2.006 -0.1815 -0.0028  0.0393
  995SOL     OW 4025   0.442   1.172   1.941  0.4173  0.7076  0.5364
  995SOL    HW2 4026   0.365   1.217   1.976  0.1801  0.6135  0.1382
  995SOL    HW3 4027   0.430   1.174   1.847 -0.3776 -1.5435  0.5571
  995SOL    MW4 4028   0.430   1.178   1.934  0.2812  0.3980  0.4866
  996SOL     OW 4029   0.672   1.279   2.017  0.5145 -0.0325 -0.3275
  996SOL    HW2 4030   0.678   1.271   2.112 -0.0050 -0.8214 -0.3598
  996SOL    HW3 4031   0.603   1.218   1.992 -0.5866  1.4530 -1.0251
  996SOL    MW4 4032   0.663   1.270   2.026  0.3007  0.0594 -0.4239
  997SOL     OW 4033   0.653   1.548   1.948 -0.3962  0.1560 -0.5407
  997SOL    HW2 4034   0.660   1.454   1.966  0.9596  0.0737 -1.4374
  997SOL    HW3 4035   0.666   1.555   1.853  0.3315  1.3246 -0.3687
  997SOL    MW4 4036   0.656   1.536   1.938 -0.1212  0.2995 -0.6365
  998SOL     OW 4037   0.429   1.682   2.012 -0.0189  0.0805 -0.0021
  998SOL    HW2 4038   0.437   1.680   2.108 -0.6231  1.9518  0.1213
  998SOL    HW3 4039   0.511   1.647   1.980  0.0772 -0.8304  1.2135
  998SOL    MW4 4040   0.441   1.677   2.021 -0.0859  0.2072  0.1748
  999SOL     OW 4041   0.447   1.945   1.901 -0.4065  0.1338 -0.6367
  999SOL    HW2 4042   0.444   1.870   1.959  0.9588 -0.6972 -1.6194
  999SOL    HW3 4043   0.362   1.988   1.912 -0.6885 -0.8066  0.8950
  999SOL    MW4 4044   0.435   1.941   1.910 -0.2636 -0.0999 -0.5643
 1000SOL     OW 4045   0.673   2.054   2.003  0.4515 -0.1102  0.2752
 1000SOL    HW2 4046   0.667   2.055   2.098  0.7608 -0.2735  0.2946
 1000SOL    HW3 4047   0.584   2.033   1.974  0.3245  0.0769  0.5232
 1000SOL    MW4 4048   0.660   2.052   2.012  0.4755 -0.1068  0.3104
 1001SOL     OW 4049   0.652   2.320   1.915  0.1214  0.2333  0.1422
 1001SOL    HW2 4050   0.643   2.228   1.940  0.7021  0.1414  0.0182
 1001SOL    HW3 4051   0.653   2.318   1.819  0.0272  0.3794  0.1387
 1001SOL    MW4 4052   0.651   2.307   1.906  0.1856  0.2406  0.1253
 1002SOL     OW 4053   0.423   2.422   2.005 -0.2679  0.4617  0.0447
 1002SOL    HW2 4054   0.417   2.420   2.100  0.5424 -0.5936  0.0885
 1002SOL    HW3 4055   0.505   2.377   1.985  0.4821  2.2717 -1.0730
 1002SOL    MW4 4056   0.433   2.416   2.015 -0.0620  0.5615 -0.0970
 1003SOL     OW 4057   0.471   2.680   1.912  0.2358 -0.3393 -0.0983
 1003SOL    HW2 4058   0.478   2.587   1.933  0.1167 -0.2578  0.3072
 1003SOL    HW3 4059   0.395   2.711   1.962  0.3268 -0.0048 -0.1617
 1003SOL    MW4 4060   0.462   2.672   1.921  0.2321 -0.2844 -0.0532
 1004SOL     OW 4061   0.689   2.833   2.034 -0.3869 -0.2866 -0.3564
 1004SOL    HW2 4062   0.690   2.845   2.129 -0.3701 -0.3544 -0.3485
 1004SOL    HW3 4063   0.617   2.772   2.018  0.3430 -1.1815 -0.2881
 1004SOL    MW4 4064   0.679   2.827   2.044 -0.2885 -0.4139 -0.3464
 1005SOL     OW 4065   0.629   3.088   1.949  0.8617  0.2551 -0.3160
 1005SOL    HW2 4066   0.630   2.993   1.958  0.6582  0.1519 -1.3378
 1005SOL    HW3 4067   0.650   3.104   1.857  0.0947  1.1615 -0.3397
 1005SOL    MW4 4068   0.632   3.078   1.938  0.7336  0.3610 -0.4539
 1006SOL     OW 4069   0.442   3.274   2.073  0.0918  0.3914 -0.1343
 1006SOL    HW2 4070   0.460   3.352   2.019 -1.0826  1.7519  1.3777
 1006SOL    HW3 4071   0.503   3.208   2.042  1.5520  2.1361 -1.0245
 1006SOL    MW4 4072   0.452   3.276   2.062  0.1295  0.8008 -0.0525
 1007SOL     OW 4073   0.477   3.508   1.931  0.1979  0.3634 -0.5962
 1007SOL    HW2 4074   0.551   3.558   1.966 -0.6118  0.7297  0.6004
 1007SOL    HW3 4075   0.400   3.557   1.956 -0.5402 -0.8299 -0.4873
 1007SOL    MW4 4076   0.477   3.521   1.939 -0.0063  0.2544 -0.4239
 1008SOL     OW 4077   0.698   3.630   2.027  0.0569 -0.2100  0.0198
 1008SOL    HW2 4078   0.767   3.597   1.969  0.2485 -0.3017  0.3006
 1008SOL    HW3 4079   0.691   3.723   2.005  0.6673 -0.0763  0.3917
 1008SOL    MW4 4080   0.706   3.638   2.016  0.1627 -0.2046  0.1056
 1009SOL     OW 4081   0.673   3.888   1.946 -0.2168  0.0407 -0.5582
 1009SOL    HW2 4082   0.743   3.946   1.977  0.8953 -1.9860  0.8658
 1009SOL    HW3 4083   0.684   3.886   1.851  0.8252  0.7728 -0.4624
 1009SOL    MW4 4084   0.684   3.896   1.937  0.0674 -0.1299 -0.3577
 1010SOL     OW 4085   0.432   3.989   2.039 -0.0373 -0.3636  0.2319
 1010SOL    HW2 4086   0.435   4.076   1.999 -1.0747 -0.7492 -0.7106
 1010SOL    HW3 4087   0.508   3.944   2.003 -0.1466 -0.2267 -0.1729
 1010SOL    MW4 4088   0.442   3.994   2.029 -0.1886 -0.3963  0.0544
 1011SOL     OW 4089   0.472   4.261   1.973  0.0202 -0.1928 -0.0800
 1011SOL    HW2 4090   0.404   4.325   1.992  1.3103  1.3265 -0.4536
 1011SOL    HW3 4091   0.478   4.259   1.877  1.6993  0.9992 -0.0203
 1011SOL    MW4 4092   0.464   4.269   1.963  0.4120  0.1645 -0.1215
 1012SOL     OW 4093   0.686   4.426   1.994 -0.3495  0.0548  0.1025
 1012SOL    HW2 4094   0.766   4.376   1.974 -1.2384 -0.9034 -1.1187
 1012SOL    HW3 4095   0.615   4.363   1.982 -1.3193  0.9934  0.8685
 1012SOL    MW4 4096   0.687   4.411   1.990 -0.5948  0.0515  0.0426
 1013SOL     OW 4097   1.134   4.658   1.891  0.4417 -0.0420 -0.5738
 1013SOL    HW2 4098   1.209   4.717   1.904  0.3685  0.4887 -2.4386
 1013SOL    HW3 4099   1.164   4.574   1.926  1.9305  0.1665 -1.2877
 1013SOL    MW4 4100   1.148   4.655   1.897  0.6284  0.0555 -0.9140
 1014SOL     OW 4101   0.893   0.098   2.014 -0.2804 -0.1220 -0.2097
 1014SOL    HW2 4102   0.974   0.060   1.980 -0.1333  0.9342 -1.0724
 1014SOL    HW3 4103   0.823   0.047   1.974 -0.0493 -1.6413  1.2593
 1014SOL    MW4 4104   0.894   0.086   2.004 -0.2306 -0.1831 -0.1297
 1015SOL     OW 4105   0.890   0.348   1.919 -0.0535 -0.1747  0.5339
 1015SOL    HW2 4106   0.980   0.373   1.940  1.0143 -2.1973 -1.4048
 1015SOL    HW3 4107   0.882   0.258   1.951 -1.1702 -0.2282  0.1303
 1015SOL    MW4 4108   0.901   0.339   1.926 -0.0599 -0.4486  0.2248
 1016SOL     OW 4109   1.145   0.444   1.960 -0.0612  0.4215 -0.1428
 1016SOL    HW2 4110   1.238   0.437   1.938  0.2412  1.5180  0.7700
 1016SOL    HW3 4111   1.116   0.525   1.919 -0.6664 -0.0296 -0.6081
 1016SOL    MW4 4112   1.154   0.454   1.952 -0.1011  0.5066 -0.0838
 1017SOL     OW 4113   1.110   0.733   1.937 -0.4014 -0.1002 -0.6775
 1017SOL    HW2 4114   1.194   0.774   1.958 -0.1418 -0.4742 -0.9982
 1017SOL    HW3 4115   1.047   0.779   1.993  0.2972 -1.1440  1.0207
 1017SOL    MW4 4116   1.113   0.745   1.947 -0.2751 -0.2873 -0.4957
 1018SOL     OW 4117   0.918   0.873   2.077 -0.2418 -0.1224  0.1247
 1018SOL    HW2 4118   0.925   0.880   2.172  0.9596  0.6022  0.0026
 1018SOL    HW3 4119   0.897   0.962   2.049  1.1227  0.0511 -0.4040
 1018SOL    MW4 4120   0.916   0.886   2.086  0.0967 -0.0039  0.0389
 1019SOL     OW 4121   0.865   1.106   1.950  0.1729  0.2531 -0.2852
 1019SOL    HW2 4122   0.794   1.167   1.969 -0.5909  0.2281 -2.8664
 1019SOL    HW3 4123   0.857   1.088   1.856 -0.0488 -4.2758  0.4630
 1019SOL    MW4 4124   0.854   1.112   1.940  0.0428 -0.3477 -0.5271
 1020SOL     OW 4125   1.110   1.260   2.038 -0.1227 -0.2296 -0.3883
 1020SOL    HW2 4126   1.102   1.331   1.975 -3.5064  0.2165  0.4201
 1020SOL    HW3 4127   1.034   1.204   2.020 -1.3041  0.0377  3.3493
 1020SOL    MW4 4128   1.099   1.262   2.027 -0.7248 -0.1355  0.2115
 1021SOL     OW 4129   1.073   1.505   1.905  0.1145 -0.1010 -0.1039
 1021SOL    HW2 4130   1.007   1.560   1.945 -0.4894 -0.4382 -0.6245
 1021SOL    HW3 4131   1.073   1.531   1.813  1.1278  0.3132  0.0024
 1021SOL    MW4 4132   1.064   1.516   1.898  0.1686 -0.0908 -0.1585
 1022SOL     OW 4133   0.891   1.671   2.063 -0.2780  0.3405  0.3525
 1022SOL    HW2 4134   0.897   1.751   2.011  0.6127 -0.0618 -0.1828
 1022SOL    HW3 4135   0.809   1.630   2.035  1.1667 -0.8895 -2.2485
 1022SOL    MW4 4136   0.881   1.676   2.053  0.0300  0.1249 -0.0613
 1023SOL     OW 4137   0.915   1.913   1.912  0.3073  0.0654 -0.3201
 1023SOL    HW2 4138   0.831   1.950   1.940 -1.0237 -3.3513  0.3835
 1023SOL    HW3 4139   0.910   1.911   1.816 -0.6911 -0.8012 -0.2444
 1023SOL    MW4 4140   0.903   1.918   1.903  0.0001 -0.4996 -0.2172
 1024SOL     OW 4141   1.080   2.072   2.081 -0.0925  0.6778  0.2642
 1024SOL    HW2 4142   1.072   2.159   2.044  0.4706  0.3146 -0.7351
 1024SOL    HW3 4143   1.026   2.017   2.024 -2.0136  0.6911  2.0272
 1024SOL    MW4 4144   1.072   2.076   2.069 -0.2718  0.6313  0.3648
 1025SOL     OW 4145   1.050   2.315   1.952  0.0603 -0.1912 -0.2778
 1025SOL    HW2 4146   1.129   2.369   1.956  1.2395 -1.9066  0.1600
 1025SOL    HW3 4147   1.035   2.303   1.858  0.4374 -0.0099 -0.3636
 1025SOL    MW4 4148   1.059   2.320   1.940  0.2655 -0.3939 -0.2315
 1026SOL     OW 4149   0.847   2.449   2.071 -0.1731 -0.0281  0.1855
 1026SOL    HW2 4150   0.920   2.405   2.027 -1.3214 -2.7719  0.9037
 1026SOL    HW3 4151   0.769   2.418   2.024 -1.0631  0.6787  1.1848
 1026SOL    MW4 4152   0.846   2.439   2.059 -0.4420 -0.2968  0.4122
 1027SOL     OW 4153   0.904   2.687   1.929  0.0745 -0.1399  0.4461
 1027SOL    HW2 4154   0.904   2.603   1.976  1.7625 -0.7441 -0.6175
 1027SOL    HW3 4155   0.830   2.735   1.967 -0.5764 -1.8875  1.4500
 1027SOL    MW4 4156   0.894   2.682   1.940  0.2114 -0.4501  0.4382
 1028SOL     OW 4157   1.108   2.876   1.980  0.1597 -0.0774  0.0437
 1028SOL    HW2 4158   1.147   2.854   2.065 -0.5865  0.5968  0.5691
 1028SOL    HW3 4159   1.056   2.799   1.957  0.9684 -0.5743 -0.1835
 1028SOL    MW4 4160   1.107   2.863   1.988  0.1680 -0.0541  0.0830
 1029SOL     OW 4161   1.145   3.135   1.924 -0.1788 -0.2669  0.3100
 1029SOL    HW2 4162   1.061   3.181   1.936  0.7456  1.3864  0.6234
 1029SOL    HW3 4163   1.129   3.047   1.957 -1.9240 -0.1005 -0.0338
 1029SOL    MW4 4164   1.132   3.130   1.930 -0.2869 -0.0267  0.3061
 1030SOL     OW 4165   0.890   3.249   1.993 -0.2306  0.0486 -0.4485
 1030SOL    HW2 4166   0.898   3.267   2.087 -1.1267 -0.3368 -0.2878
 1030SOL    HW3 4167   0.813   3.192   1.987  0.9497 -1.4855 -1.2188
 1030SOL    MW4 4168   0.881   3.244   2.005 -0.1931 -0.2048 -0.5288
 1031SOL     OW 4169   0.918   3.521   1.894  0.0467 -0.1180  0.3762
 1031SOL    HW2 4170   0.899   3.435   1.932 -0.4238 -0.2820 -0.2311
 1031SOL    HW3 4171   0.927   3.505   1.800 -1.2543  0.6955  0.1107
 1031SOL    MW4 4172   0.917   3.507   1.887 -0.1870 -0.0322  0.2611
 1032SOL     OW 4173   1.158   3.650   1.983  0.2768 -0.7744 -0.0348
 1032SOL    HW2 4174   1.157   3.629   2.077 -0.9023  0.6258  0.2704
 1032SOL    HW3 4175   1.083   3.601   1.947  1.2740 -2.0487 -0.4293
 1032SOL    MW4 4176   1.148   3.641   1.991  0.2527 -0.7577 -0.0466
 1033SOL     OW 4177   1.101   3.899   1.884  0.3054  0.0571 -0.4316
 1033SOL    HW2 4178   1.119   3.807   1.903 -2.2658 -0.5814 -0.9150
 1033SOL    HW3 4179   1.090   3.902   1.789 -1.4446  0.5052 -0.2297
 1033SOL    MW4 4180   1.102   3.887   1.874 -0.2648  0.0317 -0.4689
 1034SOL     OW 4181   0.899   4.035   2.018  0.6579  0.4830 -0.2082
 1034SOL    HW2 4182   0.909   4.030   2.113  0.5782 -1.2867 -0.2749
 1034SOL    HW3 4183   0.974   3.988   1.983 -0.9941 -1.6884 -0.9396
 1034SOL    MW4 4184   0.910   4.028   2.026  0.4295 -0.0372 -0.3135
 1035SOL     OW 4185   0.906   4.289   1.892  0.4157 -0.1458 -0.2683
 1035SOL    HW2 4186   0.984   4.328   1.932 -0.1958  0.2291  0.5788
 1035SOL    HW3 4187   0.890   4.209   1.943 -0.7476  0.6718  0.6945
 1035SOL    MW4 4188   0.914   4.284   1.904  0.1816  0.0114 -0.0294
 1036SOL     OW 4189   1.133   4.402   1.982  0.2102 -0.3097 -0.6594
 1036SOL    HW2 4190   1.123   4.387   2.076  2.0518  0.8222 -0.2618
 1036SOL    HW3 4191   1.207   4.346   1.956 -0.2644 -0.5884 -1.4225
 1036SOL    MW4 4192   1.142   4.392   1.991  0.3905 -0.1969 -0.7076
 1037SOL     OW 4193   1.566   4.665   1.910 -0.5153  0.5846  0.2073
 1037SOL    HW2 4194   1.645   4.706   1.943  0.1152 -0.3086 -0.1733
 1037SOL    HW3 4195   1.578   4.572   1.928 -0.7982  0.2571 -1.2046
 1037SOL    MW4 4196   1.578   4.658   1.916 -0.4693  0.4244 -0.0292
 1038SOL     OW 4197   1.342   0.131   1.975 -0.7970 -0.0497  0.1558
 1038SOL    HW2 4198   1.334   0.135   2.070 -0.6468 -1.1875  0.2166
 1038SOL    HW3 4199   1.422   0.081   1.959 -0.5948  0.4878 -0.5720
 1038SOL    MW4 4200   1.352   0.125   1.986 -0.7508 -0.1289  0.0678
 1039SOL     OW 4201   1.403   0.400   1.867  0.1428 -0.4492  0.5287
 1039SOL    HW2 4202   1.395   0.306   1.881  0.8701 -0.7909 -1.2719
 1039SOL    HW3 4203   1.375   0.414   1.777  1.9778  0.7701  0.1133
 1039SOL    MW4 4204   1.398   0.390   1.857  0.4809 -0.3334  0.2364
 1040SOL     OW 4205   1.628   0.518   2.002  0.4344 -0.0346 -0.1649
 1040SOL    HW2 4206   1.704   0.464   1.979  0.9476  0.4994  0.2965
 1040SOL    HW3 4207   1.553   0.468   1.969  0.9634 -0.6810 -0.3949
 1040SOL    MW4 4208   1.628   0.504   1.994  0.5717 -0.0494 -0.1341
 1041SOL     OW 4209   1.594   0.773   1.891 -0.2236 -0.0905 -0.6449
 1041SOL    HW2 4210   1.669   0.817   1.929 -1.4965  1.6135 -0.0319
 1041SOL    HW3 4211   1.598   0.684   1.925 -0.2323  0.8622  1.9498
 1041SOL    MW4 4212   1.604   0.767   1.901 -0.3927  0.2600 -0.2217
 1042SOL     OW 4213   1.347   0.851   2.018 -0.2062 -0.0959 -0.1611
 1042SOL    HW2 4214   1.360   0.842   2.112 -0.3169 -1.1787 -0.2439
 1042SOL    HW3 4215   1.430   0.824   1.979 -0.1480  0.3868 -0.3771
 1042SOL    MW4 4216   1.360   0.846   2.025 -0.2131 -0.1751 -0.2007
 1043SOL     OW 4217   1.324   1.107   1.929  0.8569 -0.0944  0.3446
 1043SOL    HW2 4218   1.334   1.018   1.961  0.6317 -0.0114  0.6537
 1043SOL    HW3 4219   1.255   1.145   1.984 -0.4931 -0.3659 -1.1545
 1043SOL    MW4 4220   1.317   1.100   1.941  0.6491 -0.1193  0.1876
 1044SOL     OW 4221   1.532   1.275   2.037 -0.8532  0.2593  0.4048
 1044SOL    HW2 4222   1.526   1.357   1.989  0.8463 -0.4888 -1.1690
 1044SOL    HW3 4223   1.465   1.219   1.997 -1.5017  0.6216  0.9731
 1044SOL    MW4 4224   1.522   1.278   2.025 -0.7145  0.2084  0.2720
 1045SOL     OW 4225   1.545   1.522   1.907  0.0459  0.0289  0.5045
 1045SOL    HW2 4226   1.636   1.550   1.917  0.6898 -1.7300 -0.2311
 1045SOL    HW3 4227   1.494   1.587   1.955  1.6034  1.6302  0.0409
 1045SOL    MW4 4228   1.550   1.534   1.914  0.3363  0.0080  0.3463
 1046SOL     OW 4229   1.338   1.679   2.003  0.0904  0.7875  0.0980
 1046SOL    HW2 4230   1.367   1.660   2.092  1.9815  0.9119 -0.4704
 1046SOL    HW3 4231   1.274   1.611   1.983  1.0188 -0.3418  0.8972
 1046SOL    MW4 4232   1.333   1.668   2.012  0.4624  0.6548  0.1283
 1047SOL     OW 4233   1.259   1.933   1.896 -0.4767  0.4180  0.3438
 1047SOL    HW2 4234   1.279   1.848   1.936 -0.4719 -0.3230 -1.1906
 1047SOL    HW3 4235   1.212   1.981   1.964 -2.5756 -1.6947  0.4502
 1047SOL    MW4 4236   1.255   1.928   1.910 -0.7532  0.0415  0.1554
 1048SOL     OW 4237   1.497   2.029   2.000  0.2796 -0.0050  0.2985
 1048SOL    HW2 4238   1.501   2.124   1.988 -0.1472  0.0966  0.8963
 1048SOL    HW3 4239   1.411   2.004   1.966  0.9568 -0.3803 -1.1413
 1048SOL    MW4 4240   1.486   2.038   1.994  0.3127 -0.0410  0.1874
 1049SOL     OW 4241   1.529   2.300   1.932 -0.0843 -0.2598  0.0501
 1049SOL    HW2 4242   1.611   2.334   1.967  0.2256 -2.0109  1.0759
 1049SOL    HW3 4243   1.544   2.292   1.838  0.3353  1.0020 -0.0045
 1049SOL    MW4 4244   1.542   2.303   1.924  0.0119 -0.3242  0.1783
 1050SOL     OW 4245   1.293   2.447   1.997 -0.2183  0.4201 -0.3309
 1050SOL    HW2 4246   1.331   2.528   1.964  0.5571 -0.1870 -0.9432
 1050SOL    HW3 4247   1.354   2.378   1.969 -1.2534 -0.4580 -0.4701
 1050SOL    MW4 4248   1.306   2.448   1.989 -0.2526  0.2241 -0.4300
 1051SOL     OW 4249   1.325   2.715   1.896  0.6088 -0.3453 -0.3259
 1051SOL    HW2 4250   1.242   2.762   1.908  0.4466 -0.7230  0.0530
 1051SOL    HW3 4251   1.325   2.690   1.804  0.4846  0.0093 -0.4220
 1051SOL    MW4 4252   1.314   2.718   1.885  0.5710 -0.3481 -0.2887
 1052SOL     OW 4253   1.550   2.854   2.026  0.1391  0.0247  0.0100
 1052SOL    HW2 4254   1.627   2.804   1.998 -0.1536 -0.9071  0.8627
 1052SOL    HW3 4255   1.480   2.824   1.967 -0.2372 -1.1982  1.0679
 1052SOL    MW4 4256   1.551   2.843   2.014  0.0509 -0.2596  0.2620
 1053SOL     OW 4257   1.550   3.109   1.927  0.5562  0.1661  0.2479
 1053SOL    HW2 4258   1.555   3.020   1.961 -0.5346 -0.0458 -0.1310
 1053SOL    HW3 4259   1.565   3.100   1.833  1.9166  0.5596  0.4203
 1053SOL    MW4 4260   1.553   3.096   1.919  0.5918  0.1900  0.2208
 1054SOL     OW 4261   1.356   3.286   2.018 -0.0679  0.3016  0.2417
 1054SOL    HW2 4262   1.428   3.230   1.991  0.2798 -0.0059  1.7675
 1054SOL    HW3 4263   1.277   3.237   1.994  0.2297 -0.6055  1.1091
 1054SOL    MW4 4264   1.355   3.272   2.011  0.0173  0.1414  0.5574
 1055SOL     OW 4265   1.365   3.518   1.868  0.8507  0.0772  0.4706
 1055SOL    HW2 4266   1.362   3.435   1.916 -0.2225 -0.3473 -0.2952
 1055SOL    HW3 4267   1.293   3.569   1.903  0.3545 -0.0511 -0.3446
 1055SOL    MW4 4268   1.355   3.514   1.879  0.6437  0.0045  0.2621
 1056SOL     OW 4269   1.610   3.596   1.990  0.0652  0.2917 -0.0944
 1056SOL    HW2 4270   1.578   3.590   2.080  1.0269 -0.1864  0.2196
 1056SOL    HW3 4271   1.535   3.567   1.937 -0.9563  1.8721  0.4468
 1056SOL    MW4 4272   1.596   3.591   1.995  0.0573  0.4370  0.0185
 1057SOL     OW 4273   1.550   3.856   1.887  0.2015  0.0693 -0.0338
 1057SOL    HW2 4274   1.629   3.907   1.901 -0.8023  1.3361  1.2601
 1057SOL    HW3 4275   1.567   3.772   1.929  1.2182 -0.0526 -0.6651
 1057SOL    MW4 4276   1.562   3.851   1.894  0.2031  0.2203  0.0538
 1058SOL     OW 4277   1.345   3.992   1.976  0.1315  0.3867  0.0987
 1058SOL    HW2 4278   1.421   3.939   1.953  0.9284  2.3879 -2.1034
 1058SOL    HW3 4279   1.270   3.934   1.961  1.0504 -0.6295 -0.6742
 1058SOL    MW4 4280   1.345   3.977   1.971  0.3579  0.5169 -0.2939
 1059SOL     OW 4281   1.351   4.254   1.892 -0.3349  0.2546  0.0249
 1059SOL    HW2 4282   1.376   4.163   1.911  0.1631  0.4735  0.4400
 1059SOL    HW3 4283   1.365   4.264   1.798  0.6486  0.2221  0.1660
 1059SOL    MW4 4284   1.356   4.243   1.882 -0.1394  0.2794  0.0982
 1060SOL     OW 4285   1.589   4.375   1.976  0.2804 -0.2687  0.1056
 1060SOL    HW2 4286   1.588   4.367   2.071 -0.9817  0.9713  0.2151
 1060SOL    HW3 4287   1.507   4.336   1.947 -0.0544  0.7463 -0.3356
 1060SOL    MW4 4288   1.578   4.369   1.985  0.0696  0.0286  0.0619
 1061SOL     OW 4289   2.035   4.632   1.920 -0.0994  0.1113  0.2302
 1061SOL    HW2 4290   2.113   4.684   1.938  0.1026 -0.0258 -0.2283
 1061SOL    HW3 4291   2.036   4.563   1.985  0.3307 -0.0737  0.0266
 1061SOL    MW4 4292   2.045   4.630   1.931 -0.0160  0.0687  0.1428
 1062SOL     OW 4293   1.790   0.111   2.013  0.3994  0.1072 -0.4440
 1062SOL    HW2 4294   1.799   0.096   2.107  0.9759  0.0491 -0.5102
 1062SOL    HW3 4295   1.872   0.080   1.975  0.6564  1.2185 -0.8334
 1062SOL    MW4 4296   1.802   0.105   2.021  0.5094  0.2462 -0.5040
 1063SOL     OW 4297   1.854   0.386   1.942  0.2752 -0.5911 -0.1757
 1063SOL    HW2 4298   1.845   0.294   1.963  0.0733 -0.3976  0.5895
 1063SOL    HW3 4299   1.841   0.391   1.847  0.8388 -1.4171 -0.2965
 1063SOL    MW4 4300   1.851   0.375   1.932  0.3229 -0.6745 -0.0905
 1064SOL     OW 4301   2.071   0.550   2.027 -0.3462  0.2008  0.3565
 1064SOL    HW2 4302   2.054   0.631   1.979 -0.1748  0.2547  0.3881
 1064SOL    HW3 4303   2.002   0.490   1.998  0.5884 -0.2300 -1.0277
 1064SOL    MW4 4304   2.060   0.553   2.016 -0.2003  0.1510  0.1781
 1065SOL     OW 4305   2.042   0.781   1.877  0.0546  0.8157 -0.2093
 1065SOL    HW2 4306   2.122   0.829   1.901  1.4564 -0.9569 -1.1597
 1065SOL    HW3 4307   2.053   0.763   1.783 -0.7093 -0.8405  0.0163
 1065SOL    MW4 4308   2.054   0.785   1.868  0.1390  0.3633 -0.3049
 1066SOL     OW 4309   1.813   0.902   1.984 -0.1338  0.1666  0.0749
 1066SOL    HW2 4310   1.811   0.996   1.965 -0.2398  0.4088  1.2232
 1066SOL    HW3 4311   1.892   0.871   1.940  0.4443  0.9905  0.5122
 1066SOL    MW4 4312   1.823   0.910   1.976 -0.0714  0.3073  0.2841
 1067SOL     OW 4313   1.788   1.165   1.930  0.4381 -0.9501 -0.0340
 1067SOL    HW2 4314   1.701   1.194   1.959  0.3380 -0.3401 -0.9436
 1067SOL    HW3 4315   1.786   1.173   1.835  1.9932  0.4770  0.0292
 1067SOL    MW4 4316   1.776   1.170   1.922  0.6300 -0.6813 -0.1457
 1068SOL     OW 4317   2.035   1.259   2.035  0.3640 -0.0743  0.4613
 1068SOL    HW2 4318   2.110   1.216   1.994 -0.0980 -0.7641  0.3398
 1068SOL    HW3 4319   1.959   1.215   1.999 -0.0798 -0.0158  1.3032
 1068SOL    MW4 4320   2.035   1.248   2.025  0.2446 -0.1576  0.5562
 1069SOL     OW 4321   2.027   1.528   1.926  0.1734 -0.5038 -0.1454
 1069SOL    HW2 4322   2.011   1.434   1.936 -2.4374 -0.2014 -1.0422
 1069SOL    HW3 4323   2.020   1.544   1.832 -1.0628  0.8540  0.1578
 1069SOL    MW4 4324   2.024   1.518   1.915 -0.3340 -0.2847 -0.2236
 1070SOL     OW 4325   1.775   1.657   1.984  0.6602 -0.0053 -0.0524
 1070SOL    HW2 4326   1.779   1.750   1.960  3.5545 -0.2074 -0.5417
 1070SOL    HW3 4327   1.858   1.621   1.952 -0.6419 -2.8731 -0.3078
 1070SOL    MW4 4328   1.787   1.665   1.977  0.8702 -0.4103 -0.1507
 1071SOL     OW 4329   1.758   1.938   1.924  0.1528  0.2044 -0.0919
 1071SOL    HW2 4330   1.668   1.965   1.945  0.3083  0.6257  0.0285
 1071SOL    HW3 4331   1.763   1.945   1.829 -0.8262 -2.5437 -0.3822
 1071SOL    MW4 4332   1.747   1.943   1.914  0.0441 -0.1025 -0.1143
 1072SOL     OW 4333   2.006   2.068   2.011  0.0860  0.2839 -0.6411
 1072SOL    HW2 4334   2.081   2.016   1.979  0.7016  0.9596 -0.3077
 1072SOL    HW3 4335   1.931   2.010   2.000  0.6984 -0.5104 -0.7194
 1072SOL    MW4 4336   2.006   2.053   2.005  0.2480  0.2685 -0.6070
 1073SOL     OW 4337   2.039   2.325   1.886 -0.3087  0.3453 -0.2728
 1073SOL    HW2 4338   2.109   2.367   1.935 -1.6313 -0.0296  2.0054
 1073SOL    HW3 4339   2.036   2.235   1.920 -2.0072  0.4121 -0.2119
 1073SOL    MW4 4340   2.048   2.318   1.897 -0.7074  0.3045  0.0359
 1074SOL     OW 4341   1.767   2.407   2.000 -0.3177 -0.1978 -0.5152
 1074SOL    HW2 4342   1.795   2.400   2.091 -0.5832  0.1196 -0.4081
 1074SOL    HW3 4343   1.837   2.365   1.950 -0.7020 -1.3496 -0.0865
 1074SOL    MW4 4344   1.780   2.401   2.005 -0.4035 -0.3080 -0.4444
 1075SOL     OW 4345   1.761   2.695   1.971  0.0325  0.0138  0.5619
 1075SOL    HW2 4346   1.741   2.701   1.877 -1.3981  1.0768  0.9126
 1075SOL    HW3 4347   1.783   2.603   1.985  1.5546  0.1065 -1.0542
 1075SOL    MW4 4348   1.761   2.683   1.960  0.0446  0.1659  0.3951
 1076SOL     OW 4349   1.995   2.836   2.033 -0.0033  0.1809 -0.0934
 1076SOL    HW2 4350   1.988   2.839   2.128  0.7281  0.9460 -0.0560
 1076SOL    HW3 4351   1.922   2.780   2.005 -0.0836 -0.2331  0.9227
 1076SOL    MW4 4352   1.984   2.829   2.042  0.0826  0.2272  0.0455
 1077SOL     OW 4353   2.013   3.112   1.919 -0.0316  0.0656 -0.3405
 1077SOL    HW2 4354   1.925   3.137   1.949  0.0084 -0.8206  0.5561
 1077SOL    HW3 4355   2.024   3.022   1.950  1.7072  0.6088  0.7227
 1077SOL    MW4 4356   2.003   3.103   1.927  0.2034  0.0203 -0.0820
 1078SOL     OW 4357   1.799   3.201   2.059  0.2263  0.1256  0.2323
 1078SOL    HW2 4358   1.790   3.199   2.154  0.2581 -1.4478  0.2111
 1078SOL    HW3 4359   1.719   3.160   2.027  0.7033 -0.3314 -0.3801
 1078SOL    MW4 4360   1.787   3.195   2.067  0.2934 -0.1421  0.1485
 1079SOL     OW 4361   1.831   3.457   1.943 -0.2735 -0.5902 -0.4911
 1079SOL    HW2 4362   1.817   3.376   1.992 -0.5747 -1.2364 -1.6209
 1079SOL    HW3 4363   1.753   3.509   1.960  0.2566 -0.2231  0.8383
 1079SOL    MW4 4364   1.819   3.453   1.951 -0.2433 -0.6270 -0.4649
 1080SOL     OW 4365   2.045   3.616   2.035  0.1696 -0.4848 -0.0070
 1080SOL    HW2 4366   2.038   3.697   1.984 -0.9552 -0.8895 -0.4934
 1080SOL    HW3 4367   1.986   3.554   1.992 -0.8654 -0.8109  1.8329
 1080SOL    MW4 4368   2.037   3.618   2.023 -0.1154 -0.5808  0.1714
 1081SOL     OW 4369   2.015   3.845   1.894 -0.3385 -0.5084  0.4212
 1081SOL    HW2 4370   2.097   3.888   1.919 -0.2733 -0.1341 -0.4336
 1081SOL    HW3 4371   2.026   3.824   1.802 -1.4431  0.0714  0.1486
 1081SOL    MW4 4372   2.027   3.848   1.885 -0.4756 -0.3824  0.2725
 1082SOL     OW 4373   1.783   3.985   1.937  0.0203 -0.0893 -0.2992
 1082SOL    HW2 4374   1.800   4.078   1.924  0.2401 -0.1513 -0.4455
 1082SOL    HW3 4375   1.865   3.942   1.915 -0.3986 -0.4057 -1.2412
 1082SOL    MW4 4376   1.796   3.991   1.932 -0.0058 -0.1392 -0.4429
 1083SOL     OW 4377   1.825   4.262   1.893  0.1716  0.2786  0.3827
 1083SOL    HW2 4378   1.744   4.297   1.930 -0.3127 -0.8254  0.3787
 1083SOL    HW3 4379   1.822   4.286   1.801  0.2161  0.9105  0.5439
 1083SOL    MW4 4380   1.814   4.270   1.886  0.1137  0.2165  0.4034
 1084SOL     OW 4381   2.026   4.392   2.069 -0.5052 -0.4711 -0.1116
 1084SOL    HW2 4382   2.088   4.346   2.013 -1.1611 -0.0287 -1.2277
 1084SOL    HW3 4383   1.944   4.390   2.019 -0.4289  2.3580 -0.4465
 1084SOL    MW4 4384   2.023   4.386   2.055 -0.5815 -0.0396 -0.3035
 1085SOL     OW 4385   2.460   4.633   1.921 -0.1250 -0.5468  0.0473
 1085SOL    HW2 4386   2.533   4.690   1.945  0.4744 -1.1881 -0.2383
 1085SOL    HW3 4387   2.476   4.551   1.969 -0.6542 -0.6872 -0.0092
 1085SOL    MW4 4388   2.472   4.629   1.931 -0.1161 -0.6495  0.0021
 1086SOL     OW 4389   2.243   0.121   1.997  0.0520 -0.5291 -0.1837
 1086SOL    HW2 4390   2.243   0.143   2.090  0.4678 -0.1375 -0.2738
 1086SOL    HW3 4391   2.326   0.074   1.983  0.4084  0.1973 -0.5362
 1086SOL    MW4 4392   2.254   0.118   2.007  0.1538 -0.3816 -0.2420
 1087SOL     OW 4393   2.302   0.387   1.931 -0.1391 -0.0085 -0.4224
 1087SOL    HW2 4394   2.277   0.295   1.943  2.0816 -0.3760  1.9784
 1087SOL    HW3 4395   2.232   0.437   1.971 -1.6626 -0.5988 -2.2758
 1087SOL    MW4 4396   2.290   0.381   1.938 -0.0470 -0.1349 -0.3501
 1088SOL     OW 4397   2.517   0.537   2.013 -0.2612 -0.0472  0.0180
 1088SOL    HW2 4398   2.588   0.482   1.981  0.0077  1.3093 -1.7882
 1088SOL    HW3 4399   2.437   0.493   1.982 -0.1761 -0.7510  0.7564
 1088SOL    MW4 4400   2.516   0.524   2.005 -0.2146  0.0389 -0.1230
 1089SOL     OW 4401   2.499   0.798   1.862  0.3528 -0.1276  0.6491
 1089SOL    HW2 4402   2.498   0.708   1.893  0.8296 -0.8561 -1.3922
 1089SOL    HW3 4403   2.469   0.793   1.771 -0.8963  1.9357  0.9048
 1089SOL    MW4 4404   2.495   0.785   1.854  0.2511  0.0485  0.4135
 1090SOL     OW 4405   2.280   0.904   1.996  0.2193  0.1546 -0.0948
 1090SOL    HW2 4406   2.266   0.884   2.089 -4.0600  1.3436 -0.3350
 1090SOL    HW3 4407   2.355   0.852   1.971 -0.5835 -2.8218  3.2349
 1090SOL    MW4 4408   2.288   0.895   2.005 -0.4513 -0.0812  0.3128
 1091SOL     OW 4409   2.262   1.164   1.881 -0.2881 -0.2309  0.5351
 1091SOL    HW2 4410   2.319   1.221   1.933  0.9744  0.5488 -1.6121
 1091SOL    HW3 4411   2.273   1.077   1.920  0.2076  0.4264  1.8989
 1091SOL    MW4 4412   2.271   1.160   1.893 -0.0565 -0.0414  0.4318
 1092SOL     OW 4413   2.450   1.303   2.014  0.1743  0.3432 -0.6408
 1092SOL    HW2 4414   2.470   1.312   2.108 -0.7225  1.2951 -0.5299
 1092SOL    HW3 4415   2.469   1.390   1.978 -0.6945  0.3406 -1.1092
 1092SOL    MW4 4416   2.455   1.316   2.022 -0.0589  0.4684 -0.6878
 1093SOL     OW 4417   2.482   1.576   1.915  0.0271 -0.6051  0.0949
 1093SOL    HW2 4418   2.396   1.596   1.951  0.1662 -0.5046  0.3737
 1093SOL    HW3 4419   2.470   1.581   1.820 -0.3261 -0.8134  0.1264
 1093SOL    MW4 4420   2.469   1.579   1.907 -0.0012 -0.6193  0.1359
 1094SOL     OW 4421   2.245   1.666   2.044 -0.1291  0.0324  0.2543
 1094SOL    HW2 4422   2.243   1.665   2.140 -1.4973 -0.1018  0.2366
 1094SOL    HW3 4423   2.176   1.605   2.018 -1.3202  1.8076 -0.8110
 1094SOL    MW4 4424   2.236   1.658   2.053 -0.4668  0.2489  0.1116
 1095SOL     OW 4425   2.206   1.912   1.923 -0.2373  0.0003  0.2353
 1095SOL    HW2 4426   2.293   1.941   1.951 -1.8139  1.8795  3.4287
 1095SOL    HW3 4427   2.197   1.825   1.960  0.3645 -0.2985 -0.3090
 1095SOL    MW4 4428   2.216   1.905   1.932 -0.3660  0.2089  0.5848
 1096SOL     OW 4429   2.433   2.062   2.024 -0.0649  0.0249 -0.2136
 1096SOL    HW2 4430   2.515   2.026   1.991 -0.7285 -0.4359 -1.3878
 1096SOL    HW3 4431   2.439   2.156   2.004  0.4953  0.1387  0.4228
 1096SOL    MW4 4432   2.445   2.070   2.017 -0.0787 -0.0207 -0.2849
 1097SOL     OW 4433   2.465   2.342   1.936  0.4149 -0.1551  0.2652
 1097SOL    HW2 4434   2.542   2.381   1.979  0.1136 -0.3172  0.9597
 1097SOL    HW3 4435   2.392   2.395   1.967  0.2573  0.0521 -0.4653
 1097SOL    MW4 4436   2.466   2.355   1.946  0.3545 -0.1488  0.2605
 1098SOL     OW 4437   2.248   2.472   2.029  0.2700 -0.0119 -0.3607
 1098SOL    HW2 4438   2.244   2.461   2.124  0.2046  1.0091 -0.2458
 1098SOL    HW3 4439   2.247   2.566   2.015  0.2678 -0.1546 -1.3803
 1098SOL    MW4 4440   2.247   2.483   2.040  0.2611  0.1042 -0.4799
 1099SOL     OW 4441   2.239   2.724   1.929 -0.3023 -0.5285  0.5068
 1099SOL    HW2 4442   2.152   2.757   1.951  0.9148  2.2736  1.1749
 1099SOL    HW3 4443   2.231   2.698   1.837 -1.2585  1.7975 -0.1040
 1099SOL    MW4 4444   2.226   2.725   1.919 -0.2680  0.1481  0.5143
 1100SOL     OW 4445   2.493   2.812   2.034 -0.4559  0.4027 -0.0445
 1100SOL    HW2 4446   2.484   2.906   2.019  0.1037  0.2135 -1.6305
 1100SOL    HW3 4447   2.406   2.776   2.015 -0.5627  0.5491  0.1723
 1100SOL    MW4 4448   2.480   2.819   2.030 -0.3960  0.3972 -0.2253
 1101SOL     OW 4449   2.489   3.070   1.964  0.5958 -0.1160  0.0532
 1101SOL    HW2 4450   2.424   3.132   1.998  0.4353 -0.8513  1.1271
 1101SOL    HW3 4451   2.466   3.059   1.872 -1.2114 -0.8537  0.5732
 1101SOL    MW4 4452   2.477   3.077   1.956  0.3362 -0.3102  0.2635
 1102SOL     OW 4453   2.244   3.251   1.998 -0.1570 -0.1199 -0.2534
 1102SOL    HW2 4454   2.233   3.240   2.093  1.4696 -2.1482 -0.2608
 1102SOL    HW3 4455   2.177   3.194   1.960 -0.6207  0.4759 -0.3436
 1102SOL    MW4 4456   2.233   3.242   2.006 -0.0033 -0.3090 -0.2663
 1103SOL     OW 4457   2.273   3.523   1.888 -0.4366  0.3241 -0.6665
 1103SOL    HW2 4458   2.276   3.431   1.914 -0.4385 -0.1062 -2.1370
 1103SOL    HW3 4459   2.215   3.564   1.952  1.0460 -0.3067  1.1296
 1103SOL    MW4 4460   2.266   3.516   1.900 -0.2410  0.1841 -0.6235
 1104SOL     OW 4461   2.475   3.634   2.038  0.2497 -0.5895  0.2734
 1104SOL    HW2 4462   2.475   3.588   2.121 -0.7394  2.0167  1.8049
 1104SOL    HW3 4463   2.402   3.596   1.988 -1.0149 -0.2194  1.8024
 1104SOL    MW4 4464   2.465   3.623   2.042 -0.0477 -0.1967  0.6771
 1105SOL     OW 4465   2.511   3.895   1.934  0.1704  0.2360  0.6288
 1105SOL    HW2 4466   2.432   3.938   1.967  0.3803  1.1521 -0.0455
 1105SOL    HW3 4467   2.500   3.803   1.958 -1.3838  0.2480  0.0346
 1105SOL    MW4 4468   2.499   3.889   1.942 -0.0072  0.3586  0.4613
 1106SOL     OW 4469   2.258   3.975   1.991 -0.0734  0.7067  0.0893
 1106SOL    HW2 4470   2.254   3.962   2.086  0.7082  1.0568  0.1748
 1106SOL    HW3 4471   2.244   4.069   1.979  0.1064  0.7081 -0.1196
 1106SOL    MW4 4472   2.256   3.986   2.002  0.0534  0.7529  0.0730
 1107SOL     OW 4473   2.228   4.245   1.950 -0.1128 -0.0478 -0.0461
 1107SOL    HW2 4474   2.314   4.278   1.977 -0.3223 -0.6462  1.4080
 1107SOL    HW3 4475   2.231   4.246   1.854  1.8511 -0.8940 -0.0169
 1107SOL    MW4 4476   2.240   4.250   1.941  0.1187 -0.2384  0.1496
 1108SOL     OW 4477   2.460   4.350   2.011 -0.2923  0.3339  0.1903
 1108SOL    HW2 4478   2.446   4.361   2.105 -1.4663  0.1345  0.0362
 1108SOL    HW3 4479   2.549   4.313   2.004 -0.7973 -1.1165  1.3036
 1108SOL    MW4 4480   2.470   4.347   2.022 -0.5140  0.1163  0.3169
 1109SOL     OW 4481   2.929   4.636   1.885 -0.3750  0.0365 -0.0074
 1109SOL    HW2 4482   2.999   4.682   1.931 -1.5085 -0.0447  1.8690
 1109SOL    HW3 4483   2.933   4.547   1.918  0.0984 -0.5567 -1.6241
 1109SOL    MW4 4484   2.939   4.631   1.895 -0.4623 -0.0529  0.0268
 1110SOL     OW 4485   2.704   0.113   1.974  0.6598 -0.4362 -0.0615
 1110SOL    HW2 4486   2.707   0.119   2.070  2.8200  0.3464 -0.1551
 1110SOL    HW3 4487   2.782   0.063   1.951  0.8929  0.5708 -1.4970
 1110SOL    MW4 4488   2.714   0.107   1.984  0.9754 -0.2001 -0.2632
 1111SOL     OW 4489   2.704   0.389   1.888 -0.3533 -0.0938  0.0218
 1111SOL    HW2 4490   2.772   0.425   1.945  0.5618 -0.6474 -0.7048
 1111SOL    HW3 4491   2.704   0.295   1.906 -1.7695  0.0588  0.8992
 1111SOL    MW4 4492   2.713   0.381   1.898 -0.4194 -0.1467  0.0416
 1112SOL     OW 4493   2.910   0.492   2.021  0.2655 -0.1353 -0.0219
 1112SOL    HW2 4494   2.998   0.459   2.006  0.7922 -0.1485  2.7275
 1112SOL    HW3 4495   2.908   0.576   1.975  1.9872  0.1968  0.4439
 1112SOL    MW4 4496   2.921   0.499   2.013  0.5622 -0.0933  0.4025
 1113SOL     OW 4497   2.915   0.740   1.886  0.1048 -0.2388  0.5549
 1113SOL    HW2 4498   3.002   0.758   1.922 -0.0954  0.7026  0.5557
 1113SOL    HW3 4499   2.854   0.786   1.943 -0.1171  2.4197 -1.7516
 1113SOL    MW4 4500   2.919   0.748   1.898  0.0491  0.2362  0.2507
 1114SOL     OW 4501   2.706   0.914   2.010  0.3307  0.2697 -0.4729
 1114SOL    HW2 4502   2.699   1.004   1.979 -2.4828  0.2821  0.0940
 1114SOL    HW3 4503   2.643   0.865   1.958  0.2550 -0.9419  0.7354
 1114SOL    MW4 4504   2.697   0.920   1.999 -0.0505  0.1115 -0.2387
 1115SOL     OW 4505   2.684   1.170   1.925  0.6135  0.5639 -0.2200
 1115SOL    HW2 4506   2.612   1.222   1.960  1.1258  1.0881  0.0604
 1115SOL    HW3 4507   2.674   1.177   1.830 -0.4370 -0.3882 -0.1728
 1115SOL    MW4 4508   2.673   1.178   1.917  0.5422  0.5075 -0.1768
 1116SOL     OW 4509   2.929   1.256   2.053 -0.1492 -0.0370 -0.1333
 1116SOL    HW2 4510   2.916   1.350   2.047  0.0994 -0.0153 -0.3542
 1116SOL    HW3 4511   2.848   1.218   2.019 -0.2523  0.0966 -0.0365
 1116SOL    MW4 4512   2.917   1.263   2.048 -0.1299 -0.0165 -0.1497
 1117SOL     OW 4513   2.896   1.514   1.974  0.4315 -0.3142 -0.0923
 1117SOL    HW2 4514   2.976   1.567   1.985 -0.4506  1.0502 -0.1294
 1117SOL    HW3 4515   2.890   1.501   1.879  0.5657 -0.3626 -0.0954
 1117SOL    MW4 4516   2.906   1.519   1.963  0.3328 -0.1407 -0.0976
 1118SOL     OW 4517   2.701   1.708   2.022  0.1670  0.9396 -0.2726
 1118SOL    HW2 4518   2.765   1.641   1.996  1.2031  1.9225 -0.3131
 1118SOL    HW3 4519   2.617   1.673   1.992  0.5478 -0.8008  0.6055
 1118SOL    MW4 4520   2.699   1.694   2.014  0.3541  0.8398 -0.1621
 1119SOL     OW 4521   2.697   1.956   1.915  0.2274 -0.1164 -0.0056
 1119SOL    HW2 4522   2.770   2.008   1.950  0.3816 -0.4649  0.1903
 1119SOL    HW3 4523   2.712   1.868   1.949  0.1020 -0.3469 -0.5483
 1119SOL    MW4 4524   2.709   1.951   1.924  0.2313 -0.1928 -0.0514
 1120SOL     OW 4525   2.943   2.083   2.015 -0.1958 -0.0185  0.1934
 1120SOL    HW2 4526   2.940   2.060   2.108  0.9310  1.4406  0.6117
 1120SOL    HW3 4527   3.008   2.024   1.977 -0.6305 -0.5907  0.3218
 1120SOL    MW4 4528   2.951   2.072   2.022 -0.1044  0.0985  0.2656
 1121SOL     OW 4529   2.952   2.342   1.937 -0.1313  0.0884 -0.9151
 1121SOL    HW2 4530   3.038   2.372   1.966 -1.4575  1.8429  1.3047
 1121SOL    HW3 4531   2.946   2.252   1.968  0.0322  0.6751  0.8378
 1121SOL    MW4 4532   2.963   2.334   1.945 -0.2844  0.3974 -0.3910
 1122SOL     OW 4533   2.716   2.451   2.026 -0.7738  0.0947  0.2994
 1122SOL    HW2 4534   2.733   2.538   1.990 -0.3527 -0.8070 -1.7649
 1122SOL    HW3 4535   2.794   2.400   2.003 -2.1950 -1.5592 -1.0292
 1122SOL    MW4 4536   2.728   2.456   2.018 -0.9058 -0.2425 -0.1478
 1123SOL     OW 4537   2.695   2.705   1.886 -0.1468 -0.8561 -0.2609
 1123SOL    HW2 4538   2.617   2.748   1.919  0.0900 -0.4132 -0.2837
 1123SOL    HW3 4539   2.669   2.671   1.800 -1.3633 -3.7155  1.1761
 1123SOL    MW4 4540   2.681   2.706   1.879 -0.2761 -1.1752 -0.0745
 1124SOL     OW 4541   2.936   2.844   1.974 -0.5665  0.3372  0.1594
 1124SOL    HW2 4542   2.875   2.788   1.926  0.8546 -0.1092 -1.1608
 1124SOL    HW3 4543   2.912   2.934   1.948 -1.9631  0.2727  1.2191
 1124SOL    MW4 4544   2.925   2.849   1.964 -0.5631  0.2701  0.1251
 1125SOL     OW 4545   2.920   3.122   1.904 -0.0369 -0.0121  0.5075
 1125SOL    HW2 4546   3.006   3.130   1.944  0.4513  0.5914 -0.6551
 1125SOL    HW3 4547   2.861   3.164   1.967  1.1052  3.4946 -0.6729
 1125SOL    MW4 4548   2.923   3.128   1.918  0.1783  0.5298  0.1984
 1126SOL     OW 4549   2.718   3.232   2.054  0.1599  0.4998  0.0587
 1126SOL    HW2 4550   2.714   3.322   2.020 -1.0261  0.6940  0.6963
 1126SOL    HW3 4551   2.641   3.189   2.017  1.2918 -0.5802 -1.1153
 1126SOL    MW4 4552   2.708   3.238   2.044  0.1528  0.3831 -0.0122
 1127SOL     OW 4553   2.699   3.488   1.932 -0.3058  0.2574  0.6843
 1127SOL    HW2 4554   2.774   3.548   1.939 -0.2445  0.5581 -2.1224
 1127SOL    HW3 4555   2.627   3.535   1.973 -0.0465  1.9278 -0.7063
 1127SOL    MW4 4556   2.700   3.502   1.939 -0.2635  0.5176  0.1305
 1128SOL     OW 4557   2.947   3.599   2.006 -0.0884  0.0299  0.5677
 1128SOL    HW2 4558   2.950   3.577   2.099 -0.1351  0.7071  0.7313
 1128SOL    HW3 4559   3.011   3.540   1.966  0.2778  0.0640  1.0965
 1128SOL    MW4 4560   2.956   3.588   2.013 -0.0463  0.1237  0.6590
 1129SOL     OW 4561   2.939   3.859   1.931 -0.3320  0.0602  0.1086
 1129SOL    HW2 4562   2.942   3.774   1.976  0.7530  0.9339  1.7707
 1129SOL    HW3 4563   2.922   3.838   1.840 -1.1121 -1.8827  0.6886
 1129SOL    MW4 4564   2.937   3.845   1.925 -0.2916 -0.0811  0.4042
 1130SOL     OW 4565   2.722   3.982   2.058 -0.0418 -0.3482  0.4905
 1130SOL    HW2 4566   2.789   3.930   2.014  0.1418 -0.4704  0.9064
 1130SOL    HW3 4567   2.639   3.951   2.021  0.0456 -1.1499  0.9470
 1130SOL    MW4 4568   2.720   3.971   2.047 -0.0062 -0.4702  0.6058
 1131SOL     OW 4569   2.704   4.235   1.959  0.4937  0.2681 -0.2252
 1131SOL    HW2 4570   2.730   4.147   1.988 -1.1820  0.5377  2.3158
 1131SOL    HW3 4571   2.681   4.224   1.867 -0.7365 -2.2327  0.3355
 1131SOL    MW4 4572   2.704   4.222   1.951  0.1104 -0.0262  0.1841
 1132SOL     OW 4573   2.925   4.394   2.019 -0.5123  0.3950  0.3114
 1132SOL    HW2 4574   2.930   4.364   2.110  0.6257 -2.0945 -0.5197
 1132SOL    HW3 4575   2.844   4.356   1.986  0.1222 -0.4442 -0.2936
 1132SOL    MW4 4576   2.915   4.385   2.027 -0.2782 -0.0443  0.1218
 1133SOL     OW 4577   3.342   4.653   1.937  0.1165 -0.4244  0.7577
 1133SOL    HW2 4578   3.339   4.557   1.940  0.0928 -0.3884  1.8633
 1133SOL    HW3 4579   3.350   4.673   1.844 -0.1749 -1.4927  0.4954
 1133SOL    MW4 4580   3.343   4.643   1.925  0.0751 -0.5603  0.8690
 1134SOL     OW 4581   3.112   0.117   2.027 -0.6240 -0.4458  0.1702
 1134SOL    HW2 4582   3.101   0.134   2.120  0.0992 -0.7626  0.3186
 1134SOL    HW3 4583   3.196   0.070   2.021  0.3261  1.3253 -0.8250
 1134SOL    MW4 4584   3.122   0.113   2.038 -0.4029 -0.2539  0.0584
 1135SOL     OW 4585   3.136   0.359   1.942  0.1672  0.0362  0.4309
 1135SOL    HW2 4586   3.120   0.269   1.970 -0.0120 -0.3006 -0.7148
 1135SOL    HW3 4587   3.125   0.356   1.846  0.3634  1.2269  0.3701
 1135SOL    MW4 4588   3.132   0.346   1.933  0.1695  0.1489  0.2717
 1136SOL     OW 4589   3.353   0.489   2.046 -0.0990 -0.2665 -0.0477
 1136SOL    HW2 4590   3.436   0.446   2.025 -1.1623 -3.0373  1.2684
 1136SOL    HW3 4591   3.287   0.435   2.004 -1.2589  2.2886 -1.6367
 1136SOL    MW4 4592   3.356   0.476   2.037 -0.3924 -0.2950 -0.0837
 1137SOL     OW 4593   3.383   0.730   1.927  0.0024  0.0630  0.6522
 1137SOL    HW2 4594   3.308   0.780   1.960 -0.5466 -1.1847  1.2897
 1137SOL    HW3 4595   3.368   0.640   1.956  0.4094 -0.7146 -1.4518
 1137SOL    MW4 4596   3.371   0.725   1.935 -0.0165 -0.2043  0.4587
 1138SOL     OW 4597   3.123   0.854   2.008 -0.0291 -0.0350 -0.4260
 1138SOL    HW2 4598   3.123   0.857   2.103  0.5383 -2.2595 -0.3341
 1138SOL    HW3 4599   3.104   0.944   1.981 -0.9356  0.4602  1.7804
 1138SOL    MW4 4600   3.120   0.866   2.017 -0.0737 -0.2632 -0.1228
 1139SOL     OW 4601   3.140   1.127   1.941 -0.3147  0.3243 -0.0885
 1139SOL    HW2 4602   3.220   1.158   1.984  1.1038 -0.2477 -2.2894
 1139SOL    HW3 4603   3.071   1.186   1.974  1.1925  1.5399  0.9378
 1139SOL    MW4 4604   3.141   1.139   1.951  0.0715  0.4092 -0.2435
 1140SOL     OW 4605   3.372   1.254   2.031  0.3671  0.4137 -0.1697
 1140SOL    HW2 4606   3.376   1.265   2.126 -0.0672  0.7763 -0.1909
 1140SOL    HW3 4607   3.388   1.342   1.996 -0.5604  0.4875 -0.4041
 1140SOL    MW4 4608   3.375   1.267   2.039  0.1876  0.4714 -0.2036
 1141SOL     OW 4609   3.394   1.526   1.916 -0.1582  0.2738 -0.4384
 1141SOL    HW2 4610   3.462   1.578   1.958  0.4557 -0.1703 -0.8836
 1141SOL    HW3 4611   3.312   1.562   1.950  0.3380 -0.2563  1.3562
 1141SOL    MW4 4612   3.392   1.537   1.926 -0.0119  0.1453 -0.2605
 1142SOL     OW 4613   3.160   1.642   1.993 -0.2058 -0.1585 -0.5049
 1142SOL    HW2 4614   3.158   1.632   2.088 -1.8446 -0.8189 -0.5860
 1142SOL    HW3 4615   3.166   1.737   1.979  1.0216 -0.1144  0.2460
 1142SOL    MW4 4616   3.160   1.653   2.004 -0.2601 -0.2398 -0.4163
 1143SOL     OW 4617   3.142   1.913   1.927 -0.1972 -0.4009 -0.0974
 1143SOL    HW2 4618   3.226   1.939   1.964 -0.1783 -1.9372  1.0058
 1143SOL    HW3 4619   3.153   1.924   1.833  0.9365  0.2479  0.0948
 1143SOL    MW4 4620   3.155   1.918   1.920 -0.0451 -0.5180  0.0734
 1144SOL     OW 4621   3.357   2.023   2.049  0.3504 -0.4254  0.2557
 1144SOL    HW2 4622   3.435   1.974   2.024  0.6769  0.4522 -0.4608
 1144SOL    HW3 4623   3.371   2.111   2.013 -0.4209  0.0808  1.1554
 1144SOL    MW4 4624   3.369   2.028   2.041  0.2916 -0.2425  0.2801
 1145SOL     OW 4625   3.399   2.278   1.932  0.3289  1.0903 -0.4507
 1145SOL    HW2 4626   3.326   2.334   1.959  0.0268  1.0789 -1.2414
 1145SOL    HW3 4627   3.397   2.280   1.836 -0.2495 -1.0195 -0.4961
 1145SOL    MW4 4628   3.389   2.286   1.923  0.2127  0.8101 -0.5610
 1146SOL     OW 4629   3.201   2.432   2.021  0.3143  0.2056  0.5096
 1146SOL    HW2 4630   3.200   2.439   2.117  0.2705  0.9950  0.4566
 1146SOL    HW3 4631   3.205   2.523   1.991  2.0942 -0.0972 -0.2132
 1146SOL    MW4 4632   3.202   2.445   2.030  0.5431  0.2699  0.4072
 1147SOL     OW 4633   3.174   2.703   1.945 -0.0997  0.0443 -0.4014
 1147SOL    HW2 4634   3.089   2.744   1.962 -1.4051 -2.4536 -0.5961
 1147SOL    HW3 4635   3.176   2.691   1.850  0.3667 -0.0816 -0.3751
 1147SOL    MW4 4636   3.163   2.707   1.934 -0.2105 -0.3018 -0.4237
 1148SOL     OW 4637   3.408   2.827   2.030  1.0375 -0.0634  0.3548
 1148SOL    HW2 4638   3.406   2.853   2.122 -0.2691  0.8799  0.0752
 1148SOL    HW3 4639   3.324   2.781   2.016 -0.2610  2.6301 -1.1505
 1148SOL    MW4 4640   3.397   2.824   2.040  0.6938  0.4163  0.1192
 1149SOL     OW 4641   3.379   3.061   1.881  0.2369  0.0756 -0.0109
 1149SOL    HW2 4642   3.457   3.101   1.919 -0.1744 -0.2870  1.2420
 1149SOL    HW3 4643   3.364   2.982   1.933 -0.8609  0.0457 -0.3462
 1149SOL    MW4 4644   3.387   3.056   1.893  0.0379  0.0238  0.1101
 1150SOL     OW 4645   3.169   3.175   2.024 -0.5379  0.1097  0.0109
 1150SOL    HW2 4646   3.157   3.260   1.981 -2.0542 -0.3948 -0.5839
 1150SOL    HW3 4647   3.228   3.127   1.967 -1.7360 -0.1756 -1.0095
 1150SOL    MW4 4648   3.175   3.180   2.011 -0.8962  0.0057 -0.2022
 1151SOL     OW 4649   3.145   3.422   1.922  0.3540  0.5494 -0.5671
 1151SOL    HW2 4650   3.231   3.458   1.943  0.6234  0.0466 -0.8034
 1151SOL    HW3 4651   3.143   3.420   1.826 -0.2543  1.3547 -0.5794
 1151SOL    MW4 4652   3.156   3.426   1.912  0.3092  0.5896 -0.6000
 1152SOL     OW 4653   3.588   3.461   1.885 -0.7207  0.5517 -0.0570
 1152SOL    HW2 4654   3.600   3.460   1.790 -0.1489 -0.5971  0.0133
 1152SOL    HW3 4655   3.660   3.514   1.918 -0.0634 -0.2393 -0.1757
 1152SOL    MW4 4656   3.599   3.468   1.877 -0.5586  0.2956 -0.0633
 1153SOL     OW 4657   3.376   3.842   1.954 -0.0745  0.5169 -0.4061
 1153SOL    HW2 4658   3.301   3.882   1.998 -0.3330  0.0443 -0.4100
 1153SOL    HW3 4659   3.367   3.869   1.863 -0.9986 -0.6414 -0.6686
 1153SOL    MW4 4660   3.365   3.851   1.948 -0.2303  0.3018 -0.4413
 1154SOL     OW 4661   3.169   4.015   2.032  0.2134  0.8893  0.2629
 1154SOL    HW2 4662   3.157   4.020   2.127 -1.7908  2.7529 -0.0536
 1154SOL    HW3 4663   3.098   3.957   2.002  0.4152  0.8693 -0.1726
 1154SOL    MW4 4664   3.158   4.008   2.040 -0.0241  1.1325  0.1638
 1155SOL     OW 4665   3.138   4.252   1.914  0.0572  0.4144 -0.6758
 1155SOL    HW2 4666   3.137   4.167   1.957  2.1436  0.3459 -0.6999
 1155SOL    HW3 4667   3.058   4.295   1.943 -0.0337 -0.8027  0.9174
 1155SOL    MW4 4668   3.128   4.247   1.924  0.3207  0.2446 -0.4689
 1156SOL     OW 4669   3.368   4.370   2.019  0.1759 -0.4768  0.1517
 1156SOL    HW2 4670   3.438   4.317   1.982  0.0434 -1.0411  0.7037
 1156SOL    HW3 4671   3.287   4.328   1.989  0.0453  0.7479 -1.3244
 1156SOL    MW4 4672   3.366   4.358   2.010  0.1411 -0.3896  0.0298
 1157SOL     OW 4673   3.794   4.638   1.915  0.8349 -0.2938  0.1522
 1157SOL    HW2 4674   3.777   4.544   1.926  0.1825 -0.1854  0.1338
 1157SOL    HW3 4675   3.717   4.680   1.954  1.1149  0.2332  0.1372
 1157SOL    MW4 4676   3.781   4.631   1.922  0.7858 -0.2103  0.1477
 1158SOL     OW 4677   3.581   0.093   2.045 -0.4930 -0.3622 -0.1661
 1158SOL    HW2 4678   3.571   0.083   2.139  0.8049 -0.5397 -0.0300
 1158SOL    HW3 4679   3.499   0.059   2.008 -0.8279 -0.7009  0.8725
 1158SOL    MW4 4680   3.569   0.087   2.052 -0.3660 -0.4303 -0.0110
 1159SOL     OW 4681   3.586   0.370   1.930  0.3911 -0.1745 -0.0562
 1159SOL    HW2 4682   3.596   0.278   1.954  1.2155 -0.2327 -0.5842
 1159SOL    HW3 4683   3.601   0.371   1.835  1.9162  0.7130  0.1678
 1159SOL    MW4 4684   3.589   0.358   1.920  0.7010 -0.0650 -0.0963
 1160SOL     OW 4685   3.814   0.494   2.036  0.1580  0.1872  0.4514
 1160SOL    HW2 4686   3.825   0.574   1.985 -1.1290 -0.2678 -0.5744
 1160SOL    HW3 4687   3.739   0.451   1.996 -0.1683 -0.7366  2.0216
 1160SOL    MW4 4688   3.805   0.499   2.024 -0.0548  0.0052  0.5231
 1161SOL     OW 4689   3.842   0.750   1.906  0.1372  0.2622  0.3928
 1161SOL    HW2 4690   3.767   0.793   1.947  0.2415  0.6247  0.2017
 1161SOL    HW3 4691   3.840   0.778   1.815  0.6033  0.4148  0.4263
 1161SOL    MW4 4692   3.832   0.760   1.900  0.2122  0.3302  0.3719
 1162SOL     OW 4693   3.620   0.844   2.032  0.6298  0.1442 -0.2717
 1162SOL    HW2 4694   3.606   0.937   2.012 -0.7567  0.7697  3.3456
 1162SOL    HW3 4695   3.538   0.802   2.007  1.2947 -0.1740 -2.0071
 1162SOL    MW4 4696   3.607   0.851   2.026  0.5348  0.1848 -0.0231
 1163SOL     OW 4697   3.607   1.116   1.946  0.0114 -0.0436  0.1692
 1163SOL    HW2 4698   3.524   1.159   1.968 -0.7506 -0.9866 -0.7611
 1163SOL    HW3 4699   3.614   1.126   1.851  0.0218 -1.6049 -0.0024
 1163SOL    MW4 4700   3.597   1.123   1.936 -0.0877 -0.3738  0.0238
 1164SOL     OW 4701   3.826   1.285   1.970 -0.0917  0.9362  0.5221
 1164SOL    HW2 4702   3.847   1.301   2.062 -0.3648 -0.4188  0.8330
 1164SOL    HW3 4703   3.749   1.227   1.973  0.8173 -0.3532 -0.5242
 1164SOL    MW4 4704   3.818   1.279   1.983 -0.0076  0.5873  0.4252
 1165SOL     OW 4705   3.851   1.558   1.918  0.4963 -0.1662  0.8939
 1165SOL    HW2 4706   3.941   1.580   1.897 -0.1320 -0.7714 -2.8738
 1165SOL    HW3 4707   3.854   1.467   1.948  1.2355  0.1652  1.8480
 1165SOL    MW4 4708   3.863   1.549   1.919  0.5109 -0.2023  0.5227
 1166SOL     OW 4709   3.616   1.664   2.011 -0.3017  0.3830  0.0253
 1166SOL    HW2 4710   3.629   1.757   1.990  1.1000  0.2353  0.1645
 1166SOL    HW3 4711   3.701   1.624   1.993 -0.4065 -0.5776  1.6164
 1166SOL    MW4 4712   3.629   1.671   2.006 -0.1307  0.2369  0.2537
 1167SOL     OW 4713   3.588   1.925   1.929 -0.1302  0.2031  0.5380
 1167SOL    HW2 4714   3.663   1.976   1.957  0.2658 -0.5488  0.8517
 1167SOL    HW3 4715   3.580   1.943   1.836  1.9653 -1.6465 -0.0421
 1167SOL    MW4 4716   3.597   1.934   1.921  0.1984 -0.1401  0.5028
 1168SOL     OW 4717   3.820   2.047   2.009  0.2085  0.4063 -0.4426
 1168SOL    HW2 4718   3.898   2.003   1.974  0.6318  0.4229  0.4857
 1168SOL    HW3 4719   3.817   2.131   1.962  0.3808  0.1319 -0.9506
 1168SOL    MW4 4720   3.830   2.052   1.998  0.2871  0.3722 -0.3874
 1169SOL     OW 4721   3.825   2.285   1.864 -0.3331  0.1802  0.1333
 1169SOL    HW2 4722   3.895   2.344   1.894 -0.2355 -0.6601  1.5984
 1169SOL    HW3 4723   3.749   2.309   1.916 -0.6119 -0.1801 -0.1054
 1169SOL    MW4 4724   3.824   2.296   1.875 -0.3569  0.0222  0.2949
 1170SOL     OW 4725   3.622   2.424   2.017  0.4260 -0.6173  0.1084
 1170SOL    HW2 4726   3.614   2.509   1.973  1.1321 -0.7128 -0.2006
 1170SOL    HW3 4727   3.543   2.376   1.992 -0.0553  0.0065  0.4099
 1170SOL    MW4 4728   3.610   2.429   2.008  0.4556 -0.5474  0.1075
 1171SOL     OW 4729   3.607   2.707   1.869  0.0402  0.5236  0.5341
 1171SOL    HW2 4730   3.683   2.759   1.895  1.5921 -1.8598  0.9912
 1171SOL    HW3 4731   3.533   2.745   1.917  1.1427  2.1625  0.9652
 1171SOL    MW4 4732   3.607   2.719   1.879  0.3908  0.4256  0.6514
 1172SOL     OW 4733   3.844   2.872   1.995  0.1209  0.2682  0.1846
 1172SOL    HW2 4734   3.842   2.872   2.090  0.5257  2.3953  0.2198
 1172SOL    HW3 4735   3.837   2.965   1.971  2.0866 -0.0551 -1.8083
 1172SOL    MW4 4736   3.842   2.884   2.004  0.4334  0.5062 -0.0737
 1173SOL     OW 4737   3.843   3.133   1.897 -0.0431 -0.3030  0.2385
 1173SOL    HW2 4738   3.762   3.160   1.938 -0.6303 -1.1006 -0.3679
 1173SOL    HW3 4739   3.824   3.134   1.803  0.5980 -0.6184  0.1002
 1173SOL    MW4 4740   3.830   3.137   1.890 -0.0358 -0.4499  0.1403
 1174SOL     OW 4741   3.607   3.199   1.998 -0.0083  0.6631 -0.2280
 1174SOL    HW2 4742   3.591   3.202   2.093 -0.5382  0.0152 -0.2905
 1174SOL    HW3 4743   3.569   3.280   1.965 -0.3686  0.6042  0.0375
 1174SOL    MW4 4744   3.600   3.210   2.006 -0.1254  0.5696 -0.2012
 1175SOL     OW 4745   3.783   3.616   2.003 -0.0610  0.0407 -0.2005
 1175SOL    HW2 4746   3.865   3.576   1.973  0.2972  1.0467 -0.5834
 1175SOL    HW3 4747   3.791   3.708   1.979 -1.4253  0.1014 -0.5023
 1175SOL    MW4 4748   3.795   3.623   1.996 -0.1936  0.1814 -0.2908
 1176SOL     OW 4749   3.364   3.578   2.007 -0.1733  0.2651 -0.1299
 1176SOL    HW2 4750   3.443   3.538   1.970 -0.4426  1.0477 -1.6289
 1176SOL    HW3 4751   3.364   3.667   1.972 -0.9119  0.7678  1.1141
 1176SOL    MW4 4752   3.374   3.585   1.997 -0.3064  0.4346 -0.1637
 1177SOL     OW 4753   3.849   3.892   1.918 -0.0005  1.1824  0.3683
 1177SOL    HW2 4754   3.764   3.914   1.956 -0.7867 -0.3268 -0.4916
 1177SOL    HW3 4755   3.834   3.887   1.824  1.0269  0.8778  0.2056
 1177SOL    MW4 4756   3.836   3.894   1.911  0.0312  0.9432  0.2333
 1178SOL     OW 4757   3.607   3.954   2.047 -0.5454  0.3400  0.4189
 1178SOL    HW2 4758   3.593   3.977   2.139 -0.5123  1.9518  0.0395
 1178SOL    HW3 4759   3.532   3.898   2.025 -0.5877 -0.0057  1.4099
 1178SOL    MW4 4760   3.595   3.950   2.056 -0.5465  0.5069  0.5000
 1179SOL     OW 4761   3.552   4.188   1.930  0.0227 -0.0786  0.3188
 1179SOL    HW2 4762   3.640   4.222   1.948  0.2186 -0.6945  0.5484
 1179SOL    HW3 4763   3.555   4.098   1.961 -0.3511 -0.4502 -0.7210
 1179SOL    MW4 4764   3.564   4.181   1.937 -0.0010 -0.2089  0.2118
 1180SOL     OW 4765   3.778   4.354   1.969 -0.0806  0.1254 -0.1381
 1180SOL    HW2 4766   3.784   4.367   2.064 -0.5714 -2.2146  0.2654
 1180SOL    HW3 4767   3.862   4.316   1.945  0.9772  2.9437 -1.1006
 1180SOL    MW4 4768   3.790   4.351   1.979 -0.0057  0.1884 -0.2117
 1181SOL     OW 4769   4.260   4.644   1.927 -0.5567  0.2107  0.0455
 1181SOL    HW2 4770   4.186   4.696   1.958 -0.8629  0.0535 -0.4235
 1181SOL    HW3 4771   4.337   4.690   1.961 -0.8883 -0.0262  1.1529
 1181SOL    MW4 4772   4.260   4.657   1.936 -0.6404  0.1588  0.1297
 1182SOL     OW 4773   4.028   0.108   2.020 -0.0200 -0.2458  0.4276
 1182SOL    HW2 4774   4.005   0.101   2.112 -0.4939 -0.1637  0.3169
 1182SOL    HW3 4775   3.962   0.055   1.975 -0.5305  0.7351  0.0245
 1182SOL    MW4 4776   4.017   0.100   2.026 -0.1497 -0.1055  0.3600
 1183SOL     OW 4777   4.083   0.387   1.946 -0.3203  0.6641  0.0969
 1183SOL    HW2 4778   4.088   0.297   1.977 -1.0288  0.5108 -0.2228
 1183SOL    HW3 4779   4.023   0.430   2.007  1.0528  1.2648  1.0475
 1183SOL    MW4 4780   4.076   0.381   1.958 -0.2327  0.7231  0.1802
 1184SOL     OW 4781   4.297   0.517   2.047  0.4570  0.0511 -0.0639
 1184SOL    HW2 4782   4.284   0.519   2.142  0.4404 -2.0180  0.0106
 1184SOL    HW3 4783   4.220   0.471   2.013  2.5187 -3.1839 -0.6148
 1184SOL    MW4 4784   4.286   0.511   2.055  0.7262 -0.6487 -0.1266
 1185SOL     OW 4785   4.294   0.764   1.950  0.0448  0.0324  0.1045
 1185SOL    HW2 4786   4.287   0.677   1.990  2.8705 -0.2206  0.1142
 1185SOL    HW3 4787   4.289   0.749   1.856 -1.1132  0.0514  0.1563
 1185SOL    MW4 4788   4.292   0.751   1.943  0.2651  0.0016  0.1125
 1186SOL     OW 4789   4.047   0.883   2.021  0.4288 -0.1674  0.3859
 1186SOL    HW2 4790   4.129   0.849   1.985 -0.0808 -0.6995 -0.2926
 1186SOL    HW3 4791   3.982   0.818   1.995 -0.3284  0.6336  0.2734
 1186SOL    MW4 4792   4.049   0.870   2.013  0.2618 -0.1319  0.2816
 1187SOL     OW 4793   4.055   1.116   1.883 -0.0238  0.4622 -0.3523
 1187SOL    HW2 4794   4.052   1.028   1.920 -0.3403  0.3072 -0.7373
 1187SOL    HW3 4795   3.972   1.155   1.908  0.3942  0.8944  0.3927
 1187SOL    MW4 4796   4.044   1.109   1.891 -0.0100  0.4989 -0.3047
 1188SOL     OW 4797   4.258   1.271   1.993 -0.0456 -0.1967  0.4294
 1188SOL    HW2 4798   4.256   1.296   2.085  0.2528 -0.4971  0.5192
 1188SOL    HW3 4799   4.175   1.224   1.979 -0.0866 -0.1579  0.5483
 1188SOL    MW4 4800   4.247   1.268   2.003 -0.0119 -0.2313  0.4568
 1189SOL     OW 4801   4.340   1.528   1.860 -0.0931  0.1649  0.5886
 1189SOL    HW2 4802   4.345   1.439   1.893  1.5258 -0.4683 -1.2899
 1189SOL    HW3 4803   4.292   1.521   1.777  0.8345  0.8705 -0.0327
 1189SOL    MW4 4804   4.334   1.515   1.853  0.2432  0.1744  0.2588
 1190SOL     OW 4805   4.115   1.662   1.967  0.4852  0.5077  0.5439
 1190SOL    HW2 4806   4.106   1.661   2.062 -0.1494  0.0664  0.4827
 1190SOL    HW3 4807   4.194   1.610   1.950 -0.2471 -0.6904  0.7498
 1190SOL    MW4 4808   4.125   1.655   1.977  0.3047  0.2913  0.5629
 1191SOL     OW 4809   4.039   1.921   1.910 -0.2009  0.1540 -0.7743
 1191SOL    HW2 4810   4.060   1.833   1.940 -1.2942 -0.4850 -1.8306
 1191SOL    HW3 4811   4.031   1.913   1.815  2.3115  1.9472 -1.1834
 1191SOL    MW4 4812   4.041   1.909   1.902 -0.0134  0.3064 -0.9676
 1192SOL     OW 4813   4.245   2.089   1.999  0.1527  0.1860  0.1004
 1192SOL    HW2 4814   4.246   2.063   2.091  2.9091  0.2264  0.1464
 1192SOL    HW3 4815   4.177   2.036   1.959  0.2729 -1.2663  1.7679
 1192SOL    MW4 4816   4.236   2.079   2.006  0.5322 -0.0005  0.3264
 1193SOL     OW 4817   4.255   2.351   1.884 -0.1658  0.4693 -0.0659
 1193SOL    HW2 4818   4.248   2.265   1.925 -2.3875  0.2737 -0.7648
 1193SOL    HW3 4819   4.322   2.396   1.934  0.8463 -1.5749  0.4800
 1193SOL    MW4 4820   4.263   2.346   1.896 -0.3257  0.1738 -0.0862
 1194SOL     OW 4821   4.023   2.437   1.985 -0.3240  0.5177  0.3499
 1194SOL    HW2 4822   4.031   2.442   2.080  0.3119  1.7396  0.2480
 1194SOL    HW3 4823   4.103   2.393   1.957 -1.0199 -0.8211  0.4609
 1194SOL    MW4 4824   4.035   2.432   1.994 -0.3319  0.5023  0.3512
 1195SOL     OW 4825   4.059   2.707   1.918  0.3025  0.6501 -0.1637
 1195SOL    HW2 4826   4.044   2.613   1.923 -0.0990  0.6342 -1.5205
 1195SOL    HW3 4827   3.975   2.747   1.938  0.8241  0.7815  1.9521
 1195SOL    MW4 4828   4.046   2.700   1.922  0.3185  0.6652 -0.0637
 1196SOL     OW 4829   4.278   2.802   2.037 -0.0456  0.0151  0.2016
 1196SOL    HW2 4830   4.276   2.796   2.133  0.0268  0.6270  0.2414
 1196SOL    HW3 4831   4.191   2.772   2.010  0.0927 -0.6094  0.4287
 1196SOL    MW4 4832   4.266   2.797   2.046 -0.0176  0.0134  0.2365
 1197SOL     OW 4833   4.304   3.069   1.957  0.2636  0.4562  0.0637
 1197SOL    HW2 4834   4.219   3.098   1.989  0.4447  0.5747  0.4415
 1197SOL    HW3 4835   4.308   2.977   1.980  0.0691  0.3507 -0.3180
 1197SOL    MW4 4836   4.293   3.061   1.965  0.2618  0.4575  0.0633
 1198SOL     OW 4837   4.065   3.207   2.025  0.0253 -0.9934 -0.3730
 1198SOL    HW2 4838   4.052   3.223   2.119  0.1433 -0.4836 -0.4407
 1198SOL    HW3 4839   3.981   3.175   1.994 -0.8607  1.4950 -0.6542
 1198SOL    MW4 4840   4.052   3.205   2.034 -0.0763 -0.5977 -0.4191
 1199SOL     OW 4841   4.014   3.475   1.940 -0.4911  0.3635  0.2681
 1199SOL    HW2 4842   4.103   3.507   1.954 -0.6461  1.3771 -1.0544
 1199SOL    HW3 4843   4.011   3.393   1.990  1.7932 -0.7098 -1.2223
 1199SOL    MW4 4844   4.026   3.468   1.949 -0.2103  0.3557 -0.1030
 1200SOL     OW 4845   4.262   3.609   1.969  0.1387  0.6501 -0.5730
 1200SOL    HW2 4846   4.275   3.703   1.957 -1.5956  0.9852  0.0063
 1200SOL    HW3 4847   4.272   3.594   2.063  1.3055  0.0961 -0.7752
 1200SOL    MW4 4848   4.265   3.619   1.979  0.0639  0.6211 -0.5232
 1201SOL     OW 4849   4.281   3.879   1.887 -0.1072 -0.3420  0.1061
 1201SOL    HW2 4850   4.349   3.934   1.926  0.0892 -0.2024 -0.4305
 1201SOL    HW3 4851   4.281   3.902   1.794  0.1337 -1.3925 -0.1650
 1201SOL    MW4 4852   4.290   3.889   1.880 -0.0496 -0.4623 -0.0006
 1202SOL     OW 4853   4.070   4.008   2.006  0.1778 -0.1825  0.4476
 1202SOL    HW2 4854   4.133   3.952   1.962  0.1694  0.3566 -0.2649
 1202SOL    HW3 4855   3.985   3.975   1.977  0.1561 -0.3134  0.6621
 1202SOL    MW4 4856   4.067   3.996   1.996  0.1736 -0.1290  0.3817
 1203SOL     OW 4857   4.054   4.259   1.905  0.0292  0.1664  0.3112
 1203SOL    HW2 4858   4.134   4.305   1.933  0.0392  1.1249 -1.2607
 1203SOL    HW3 4859   4.064   4.171   1.941  1.7790  0.2959  0.1933
 1203SOL    MW4 4860   4.066   4.254   1.914  0.2613  0.3099  0.0883
 1204SOL     OW 4861   4.270   4.362   2.027 -0.1962 -0.1616 -0.2838
 1204SOL    HW2 4862   4.247   4.343   2.118  0.6461 -1.3989 -0.3135
 1204SOL    HW3 4863   4.272   4.457   2.022  0.4010 -0.0909  1.1657
 1204SOL    MW4 4864   4.267   4.372   2.038 -0.0067 -0.3161 -0.0966
 1205SOL     OW 4865   0.241   0.032   2.391 -0.2352  0.1353 -0.3692
 1205SOL    HW2 4866   0.238   0.048   2.485  0.8163 -2.4955  0.1545
 1205SOL    HW3 4867   0.327   0.065   2.364 -0.2825  0.3290 -0.2793
 1205SOL    MW4 4868   0.252   0.038   2.400 -0.1027 -0.1862 -0.2882
 1206SOL     OW 4869   4.473   0.155   2.283 -0.2883  0.1381  0.0109
 1206SOL    HW2 4870   4.566   0.136   2.292 -0.1499  0.4868 -0.6947
 1206SOL    HW3 4871   4.460   0.169   2.190 -0.8612  1.0452  0.2145
 1206SOL    MW4 4872   4.484   0.155   2.272 -0.3457  0.3038 -0.0551
 1207SOL     OW 4873   4.466   0.373   2.459  0.0981 -0.1248 -0.4574
 1207SOL    HW2 4874   4.538   0.431   2.434  1.1695 -1.2429 -0.0086
 1207SOL    HW3 4875   4.470   0.301   2.395 -2.0372  0.9264 -1.8213
 1207SOL    MW4 4876   4.476   0.371   2.447 -0.0420 -0.1336 -0.5779
 1208SOL     OW 4877   0.200   0.507   2.309  0.1735 -0.2891 -0.7680
 1208SOL    HW2 4878   0.286   0.472   2.333 -0.1936 -1.1318 -0.6580
 1208SOL    HW3 4879   0.192   0.488   2.216 -0.1557 -0.7832 -0.6415
 1208SOL    MW4 4880   0.210   0.500   2.300  0.0816 -0.4656 -0.7370
 1209SOL     OW 4881   0.244   0.785   2.342  0.0774  0.1601 -0.1869
 1209SOL    HW2 4882   0.215   0.797   2.433 -0.2093  0.4464 -0.3151
 1209SOL    HW3 4883   0.248   0.690   2.331 -0.5790  0.1142 -0.0864
 1209SOL    MW4 4884   0.241   0.774   2.353 -0.0470  0.1918 -0.1907
 1210SOL     OW 4885   0.006   0.913   2.270  0.4019  0.3074  0.1539
 1210SOL    HW2 4886   0.094   0.878   2.283  0.3494  0.5936  1.3275
 1210SOL    HW3 4887  -0.005   0.916   2.175  0.9309 -1.5578  0.0088
 1210SOL    MW4 4888   0.016   0.908   2.259  0.4649  0.0990  0.2892
 1211SOL     OW 4889   4.459   1.176   2.421  0.2584 -0.1329 -0.1115
 1211SOL    HW2 4890   4.451   1.171   2.516 -0.2926  0.0746 -0.1423
 1211SOL    HW3 4891   4.464   1.085   2.393  2.0001 -0.1606  0.2312
 1211SOL    MW4 4892   4.458   1.163   2.430  0.4158 -0.1092 -0.0703
 1212SOL     OW 4893   0.209   1.321   2.337  0.6778  0.2389 -0.1219
 1212SOL    HW2 4894   0.127   1.279   2.365  0.1394  1.2863 -0.0805
 1212SOL    HW3 4895   0.214   1.304   2.243  0.4571  0.0916 -0.1072
 1212SOL    MW4 4896   0.199   1.314   2.328  0.5776  0.3577 -0.1144
 1213SOL     OW 4897   0.255   1.587   2.407  0.4433  0.3665 -0.0141
 1213SOL    HW2 4898   0.231   1.591   2.500 -2.5961  2.6671 -0.8190
 1213SOL    HW3 4899   0.243   1.495   2.384  3.0330 -0.6250  2.2452
 1213SOL    MW4 4900   0.250   1.575   2.417  0.3840  0.5392  0.1781
 1214SOL     OW 4901   4.483   1.643   2.304 -0.2849  0.0611  0.6655
 1214SOL    HW2 4902   4.478   1.738   2.315 -0.3177  0.1153  0.2051
 1214SOL    HW3 4903   4.568   1.619   2.341 -0.0416  0.3428  0.2893
 1214SOL    MW4 4904   4.494   1.652   2.310 -0.2571  0.1055  0.5550
 1215SOL     OW 4905   4.469   1.910   2.371 -0.0448  0.2487 -0.0195
 1215SOL    HW2 4906   4.394   1.965   2.349  0.7368  1.0002 -0.8778
 1215SOL    HW3 4907   4.545   1.966   2.355  0.6914 -0.4412  1.0213
 1215SOL    MW4 4908   4.469   1.924   2.366  0.1554  0.2567  0.0048
 1216SOL     OW 4909   0.220   2.052   2.297  0.0129 -0.0659 -0.4251
 1216SOL    HW2 4910   0.301   2.002   2.311  0.4973  0.8948  0.2324
 1216SOL    HW3 4911   0.219   2.069   2.203 -0.5418 -1.9574 -0.7826
 1216SOL    MW4 4912   0.231   2.047   2.287  0.0036 -0.1888 -0.3855
 1217SOL     OW 4913   0.240   2.306   2.380  0.1147  0.4389 -0.1808
 1217SOL    HW2 4914   0.236   2.295   2.475 -0.7238  1.9187 -0.0281
 1217SOL    HW3 4915   0.249   2.217   2.346  0.3871 -0.1071  1.2822
 1217SOL    MW4 4916   0.241   2.293   2.389  0.0400  0.5622  0.0324
 1218SOL     OW 4917   0.002   2.425   2.300  0.1494 -0.2497  0.1116
 1218SOL    HW2 4918   0.011   2.516   2.328  0.7439 -0.4049  0.4502
 1218SOL    HW3 4919   0.090   2.389   2.308 -0.0410 -0.7945 -0.2279
 1218SOL    MW4 4920   0.015   2.432   2.305  0.2027 -0.3421  0.1113
 1219SOL     OW 4921   0.014   2.703   2.389 -0.0430  0.2172 -0.1050
 1219SOL    HW2 4922   0.010   2.714   2.484 -1.2215  2.6673 -0.3945
 1219SOL    HW3 4923   0.097   2.743   2.363 -0.3497  0.7575 -0.2533
 1219SOL    MW4 4924   0.025   2.710   2.398 -0.2389  0.6118 -0.1628
 1220SOL     OW 4925   0.238   2.891   2.321  0.4896 -0.1397 -0.0456
 1220SOL    HW2 4926   0.312   2.839   2.349  1.5527  1.7967  0.8265
 1220SOL    HW3 4927   0.238   2.883   2.225  0.3067 -2.1133  0.0959
 1220SOL    MW4 4928   0.248   2.883   2.312  0.6057 -0.1447  0.0877
 1221SOL     OW 4929   0.200   3.130   2.453  0.4561 -0.0622  0.2294
 1221SOL    HW2 4930   0.115   3.167   2.427  0.6233 -0.2684 -0.6267
 1221SOL    HW3 4931   0.211   3.054   2.397  1.1090 -0.1693  0.4983
 1221SOL    MW4 4932   0.190   3.125   2.442  0.5643 -0.1040  0.1519
 1222SOL     OW 4933   4.477   3.254   2.328 -0.3257 -0.2525 -0.4043
 1222SOL    HW2 4934   4.500   3.345   2.343  0.2585 -0.5780  0.7505
 1222SOL    HW3 4935   4.478   3.244   2.233 -0.4446  0.9487 -0.5387
 1222SOL    MW4 4936   4.480   3.265   2.318 -0.2642 -0.1369 -0.2694
 1223SOL     OW 4937   0.021   3.518   2.394 -0.3397 -0.2131  0.0906
 1223SOL    HW2 4938  -0.000   3.515   2.487 -0.5880 -0.9779  0.0083
 1223SOL    HW3 4939  -0.062   3.538   2.351 -0.1009  0.7891  0.0778
 1223SOL    MW4 4940   0.007   3.521   2.400 -0.3410 -0.1819  0.0780
 1224SOL     OW 4941   0.241   3.630   2.254 -0.1849 -0.3392  0.0909
 1224SOL    HW2 4942   0.314   3.628   2.316 -0.5939 -2.6300  0.5377
 1224SOL    HW3 4943   0.169   3.587   2.300 -0.9711 -0.6472 -1.3995
 1224SOL    MW4 4944   0.241   3.624   2.268 -0.3426 -0.6821 -0.0465
 1225SOL     OW 4945   0.169   3.870   2.362 -0.3217 -0.3383 -0.1233
 1225SOL    HW2 4946   0.101   3.916   2.313 -1.0101 -0.2443  0.9130
 1225SOL    HW3 4947   0.205   3.807   2.300 -2.0000 -1.0517 -0.3868
 1225SOL    MW4 4948   0.165   3.868   2.348 -0.6340 -0.4199 -0.0212
 1226SOL     OW 4949   4.459   3.996   2.245 -0.0829 -0.3608  0.1052
 1226SOL    HW2 4950   4.455   4.078   2.295  2.5098 -0.2112  0.1685
 1226SOL    HW3 4951   4.478   4.023   2.155 -1.8953 -0.7824 -0.4254
 1226SOL    MW4 4952   4.461   4.010   2.240  0.0205 -0.3972  0.0434
 1227SOL     OW 4953   4.486   4.264   2.397 -0.6369  0.0030  0.2469
 1227SOL    HW2 4954   4.506   4.266   2.490  0.2638 -0.8324  0.0834
 1227SOL    HW3 4955   4.556   4.315   2.356 -0.7841 -0.0039 -0.0128
 1227SOL    MW4 4956   4.498   4.271   2.404 -0.5379 -0.1082  0.1912
 1228SOL     OW 4957   0.229   4.431   2.319  0.4220  0.1659 -0.0948
 1228SOL    HW2 4958   0.299   4.379   2.360  0.5312 -0.2862 -0.8299
 1228SOL    HW3 4959   0.228   4.512   2.368 -0.0679 -0.7198  1.3745
 1228SOL    MW4 4960   0.238   4.435   2.331  0.3718 -0.0105  0.0021
 1229SOL     OW 4961   0.686   4.635   2.394  0.9270 -0.0203 -0.4935
 1229SOL    HW2 4962   0.691   4.615   2.488  1.3347  0.3389 -0.4392
 1229SOL    HW3 4963   0.768   4.679   2.374  0.7234  0.1518 -0.9645
 1229SOL    MW4 4964   0.697   4.638   2.404  0.9539  0.0498 -0.5484
 1230SOL     OW 4965   0.485   0.132   2.304  0.6236 -0.4674  0.1903
 1230SOL    HW2 4966   0.562   0.085   2.335  0.9612 -0.2877 -0.3703
 1230SOL    HW3 4967   0.473   0.103   2.214  1.0440  0.7724 -0.2822
 1230SOL    MW4 4968   0.493   0.122   2.296  0.7236 -0.2801  0.0539
 1231SOL     OW 4969   0.434   0.390   2.390 -0.1998  0.0264  0.2279
 1231SOL    HW2 4970   0.435   0.391   2.485  2.5794 -0.8459  0.2727
 1231SOL    HW3 4971   0.453   0.298   2.367  2.5367  0.8581 -1.0913
 1231SOL    MW4 4972   0.437   0.378   2.399  0.5279  0.0210  0.0598
 1232SOL     OW 4973   0.653   0.507   2.256  0.4078 -0.1700 -0.1405
 1232SOL    HW2 4974   0.676   0.581   2.312  1.2315 -0.0576 -0.6152
 1232SOL    HW3 4975   0.573   0.471   2.294 -0.4496  1.4629 -0.3776
 1232SOL    MW4 4976   0.645   0.512   2.268  0.4033  0.0603 -0.2341
 1233SOL     OW 4977   0.660   0.747   2.389  0.2147 -0.0259  0.0532
 1233SOL    HW2 4978   0.661   0.779   2.479  0.2381 -0.5390  0.2370
 1233SOL    HW3 4979   0.593   0.799   2.345 -0.1766 -0.1483  0.5042
 1233SOL    MW4 4980   0.652   0.758   2.395  0.1662 -0.1097  0.1369
 1234SOL     OW 4981   0.479   0.926   2.284 -0.1957 -0.0757 -0.1975
 1234SOL    HW2 4982   0.392   0.889   2.300  0.0589 -0.0426  1.3273
 1234SOL    HW3 4983   0.489   0.922   2.189 -1.1960 -1.6091 -0.2625
 1234SOL    MW4 4984   0.469   0.920   2.273 -0.2941 -0.2736 -0.0050
 1235SOL     OW 4985   0.432   1.195   2.416 -0.1608 -0.7191 -0.0170
 1235SOL    HW2 4986   0.428   1.117   2.360 -1.4619  0.3639 -1.4444
 1235SOL    HW3 4987   0.355   1.246   2.393  0.3745  0.7387  1.3241
 1235SOL    MW4 4988   0.422   1.191   2.406 -0.2618 -0.3840 -0.0284
 1236SOL     OW 4989   0.687   1.290   2.282  0.0037  0.4308  0.0341
 1236SOL    HW2 4990   0.698   1.383   2.303  1.6336 -0.1183  1.7590
 1236SOL    HW3 4991   0.615   1.262   2.339  0.4650  0.3203  0.5703
 1236SOL    MW4 4992   0.679   1.299   2.293  0.2796  0.3438  0.3319
 1237SOL     OW 4993   0.713   1.572   2.382  0.0865  0.2481  0.6119
 1237SOL    HW2 4994   0.703   1.557   2.476  1.2280 -0.9622  0.5529
 1237SOL    HW3 4995   0.788   1.631   2.375  0.0291  0.3031  0.4592
 1237SOL    MW4 4996   0.721   1.578   2.393  0.2296  0.0957  0.5836
 1238SOL     OW 4997   0.484   1.672   2.278 -0.9366  0.1601 -0.1654
 1238SOL    HW2 4998   0.571   1.640   2.303 -0.9653  0.2562  0.0605
 1238SOL    HW3 4999   0.426   1.638   2.347 -1.2622 -0.8853 -0.9337
 1238SOL    MW4 5000   0.488   1.663   2.291 -0.9833  0.0348 -0.2370
 1239SOL     OW 5001   0.465   1.948   2.338  0.0123 -0.2116 -0.3658
 1239SOL    HW2 5002   0.546   1.990   2.310  0.3042  0.4489  1.3831
 1239SOL    HW3 5003   0.474   1.857   2.308  2.1182 -0.5489  1.1664
 1239SOL    MW4 5004   0.477   1.942   2.330  0.3286 -0.1689  0.0672
 1240SOL     OW 5005   0.685   2.103   2.284  0.4800 -0.3351  0.2148
 1240SOL    HW2 5006   0.755   2.056   2.331  1.5004  1.3939  0.4735
 1240SOL    HW3 5007   0.668   2.180   2.337 -3.8794 -2.2577  1.8151
 1240SOL    MW4 5008   0.692   2.107   2.297  0.0396 -0.3607  0.4601
 1241SOL     OW 5009   0.669   2.330   2.430 -0.3518 -0.2445  0.6944
 1241SOL    HW2 5010   0.684   2.327   2.525 -0.8747  0.2904  0.8021
 1241SOL    HW3 5011   0.745   2.374   2.395  1.3100 -3.1223  0.5088
 1241SOL    MW4 5012   0.681   2.335   2.438 -0.2015 -0.5534  0.6843
 1242SOL     OW 5013   0.456   2.461   2.291  0.1199 -0.3277 -0.5308
 1242SOL    HW2 5014   0.536   2.432   2.336  0.1602  0.0247 -0.3771
 1242SOL    HW3 5015   0.386   2.414   2.335  0.1129  0.3751  0.2186
 1242SOL    MW4 5016   0.458   2.451   2.303  0.1243 -0.1884 -0.4115
 1243SOL     OW 5017   0.480   2.726   2.404  0.2361  0.3965  0.3089
 1243SOL    HW2 5018   0.492   2.713   2.498 -0.1136 -1.2058  0.1501
 1243SOL    HW3 5019   0.474   2.637   2.368 -1.3464  1.0083 -1.0088
 1243SOL    MW4 5020   0.481   2.712   2.411 -0.0188  0.2661  0.1142
 1244SOL     OW 5021   0.693   2.876   2.317 -0.6101 -0.5360  0.0465
 1244SOL    HW2 5022   0.771   2.823   2.334 -0.4400 -0.6428 -1.0716
 1244SOL    HW3 5023   0.620   2.817   2.337 -0.4228 -1.2109 -1.2280
 1244SOL    MW4 5024   0.693   2.861   2.322 -0.5630 -0.6390 -0.2689
 1245SOL     OW 5025   0.702   3.142   2.397  0.0822 -0.1806  0.1662
 1245SOL    HW2 5026   0.611   3.174   2.394  0.3281  0.6375  0.9954
 1245SOL    HW3 5027   0.697   3.053   2.363 -1.4063 -0.9357  2.2204
 1245SOL    MW4 5028   0.689   3.134   2.392 -0.0818 -0.1721  0.5469
 1246SOL     OW 5029   0.429   3.268   2.365  1.0353  0.0367  0.3567
 1246SOL    HW2 5030   0.349   3.232   2.403  0.5161  2.0718  1.2710
 1246SOL    HW3 5031   0.416   3.262   2.271  1.0213 -2.2284  0.4784
 1246SOL    MW4 5032   0.417   3.262   2.358  0.9649  0.0062  0.4933
 1247SOL     OW 5033   0.428   3.537   2.437 -0.4520  0.0459 -0.1188
 1247SOL    HW2 5034   0.507   3.566   2.393 -1.1675 -0.6206 -1.9008
 1247SOL    HW3 5035   0.422   3.444   2.417 -2.0503  0.2346 -0.5972
 1247SOL    MW4 5036   0.437   3.528   2.429 -0.7573 -0.0169 -0.4170
 1248SOL     OW 5037   0.675   3.616   2.313  0.5072  0.2978  0.4315
 1248SOL    HW2 5038   0.670   3.709   2.333  0.9991  0.3565  0.2940
 1248SOL    HW3 5039   0.663   3.610   2.218  0.3333  0.2067  0.4580
 1248SOL    MW4 5040   0.673   3.627   2.303  0.5491  0.2935  0.4168
 1249SOL     OW 5041   0.635   3.905   2.398  0.0521  0.0454  0.0350
 1249SOL    HW2 5042   0.634   3.891   2.492  1.0040 -2.5005 -0.2990
 1249SOL    HW3 5043   0.547   3.935   2.377  0.0504  1.3675  1.8104
 1249SOL    MW4 5044   0.624   3.907   2.407  0.1774 -0.1159  0.2253
 1250SOL     OW 5045   0.406   4.032   2.319  0.0720 -0.3685 -0.2271
 1250SOL    HW2 5046   0.316   4.001   2.328 -0.5887  1.2592 -1.0770
 1250SOL    HW3 5047   0.429   4.015   2.227  0.3101  0.0484 -0.2492
 1250SOL    MW4 5048   0.397   4.026   2.308  0.0162 -0.0982 -0.3421
 1251SOL     OW 5049   0.444   4.286   2.433 -0.1418  0.1215  0.3560
 1251SOL    HW2 5050   0.518   4.311   2.378 -0.5612  0.8483  0.1154
 1251SOL    HW3 5051   0.434   4.191   2.419 -0.6667  0.4138 -1.3409
 1251SOL    MW4 5052   0.452   4.277   2.424 -0.2664  0.2561  0.1001
 1252SOL     OW 5053   0.658   4.376   2.277  0.0498 -0.6771 -0.0585
 1252SOL    HW2 5054   0.655   4.462   2.319  1.2450 -0.6427 -0.0382
 1252SOL    HW3 5055   0.661   4.396   2.183 -1.2466 -0.7328 -0.1220
 1252SOL    MW4 5056   0.658   4.390   2.270  0.0364 -0.6800 -0.0641
 1253SOL     OW 5057   1.125   4.622   2.379 -0.6066 -0.1441 -0.0896
 1253SOL    HW2 5058   1.106   4.603   2.471 -1.4064  0.1901 -0.1793
 1253SOL    HW3 5059   1.049   4.672   2.348 -1.1460 -1.7415 -1.4064
 1253SOL    MW4 5060   1.112   4.626   2.387 -0.7833 -0.3114 -0.2751
 1254SOL     OW 5061   0.900   0.100   2.293 -0.0159  0.0882 -0.2172
 1254SOL    HW2 5062   0.883   0.188   2.327  0.4087  0.8449 -1.8947
 1254SOL    HW3 5063   0.871   0.104   2.202  0.7829 -1.2567 -0.5363
 1254SOL    MW4 5064   0.894   0.112   2.285  0.1455  0.0106 -0.4807
 1255SOL     OW 5065   0.880   0.364   2.367 -0.2098  0.0066  0.3156
 1255SOL    HW2 5066   0.953   0.390   2.310  0.3347 -0.5659  0.7520
 1255SOL    HW3 5067   0.802   0.399   2.323  0.2047 -0.4312 -0.7910
 1255SOL    MW4 5068   0.879   0.372   2.353 -0.0832 -0.1267  0.2267
 1256SOL     OW 5069   1.106   0.468   2.237  0.1004 -0.2487  0.1161
 1256SOL    HW2 5070   1.190   0.428   2.257  0.8133  0.8186 -0.7380
 1256SOL    HW3 5071   1.109   0.485   2.143 -1.1631 -0.4067  0.0358
 1256SOL    MW4 5072   1.117   0.465   2.228  0.0277 -0.1287 -0.0072
 1257SOL     OW 5073   1.128   0.702   2.394 -0.5732 -0.2274  0.6530
 1257SOL    HW2 5074   1.048   0.753   2.379 -0.4597 -0.1989  0.1303
 1257SOL    HW3 5075   1.113   0.620   2.348 -0.0543  0.0238  0.0238
 1257SOL    MW4 5076   1.115   0.698   2.386 -0.4898 -0.1904  0.5009
 1258SOL     OW 5077   0.916   0.867   2.359  0.1536  0.1898 -0.5939
 1258SOL    HW2 5078   0.919   0.962   2.373 -0.4140  0.2536 -0.8775
 1258SOL    HW3 5079   0.823   0.845   2.367  0.4381 -0.5495  0.7874
 1258SOL    MW4 5080   0.904   0.876   2.362  0.1163  0.1006 -0.4489
 1259SOL     OW 5081   0.922   1.141   2.397 -0.2139 -0.3732 -0.3049
 1259SOL    HW2 5082   0.994   1.195   2.364  0.5226 -0.7074  0.7188
 1259SOL    HW3 5083   0.845   1.195   2.387  0.3237  0.3557 -0.5407
 1259SOL    MW4 5084   0.922   1.155   2.391 -0.0458 -0.3213 -0.2012
 1260SOL     OW 5085   1.129   1.287   2.311 -0.6088  0.1096  0.2182
 1260SOL    HW2 5086   1.206   1.243   2.348 -1.4360 -0.1107  1.7344
 1260SOL    HW3 5087   1.135   1.272   2.217  0.0623 -1.7323  0.5401
 1260SOL    MW4 5088   1.140   1.279   2.304 -0.6294 -0.1625  0.4609
 1261SOL     OW 5089   1.149   1.570   2.419 -0.6795  0.0695 -0.2933
 1261SOL    HW2 5090   1.071   1.621   2.396 -0.7514 -0.4397 -1.1918
 1261SOL    HW3 5091   1.126   1.480   2.395  0.1473 -0.0989 -0.4500
 1261SOL    MW4 5092   1.136   1.564   2.413 -0.5800 -0.0200 -0.4325
 1262SOL     OW 5093   0.941   1.723   2.333  0.2837  0.6695  0.2349
 1262SOL    HW2 5094   0.915   1.815   2.346 -2.8973 -0.1955  0.4164
 1262SOL    HW3 5095   0.919   1.705   2.242 -2.6620 -0.9262  1.1858
 1262SOL    MW4 5096   0.935   1.733   2.323 -0.5246  0.3449  0.3843
 1263SOL     OW 5097   0.873   1.971   2.421 -0.0707 -0.0696  0.6095
 1263SOL    HW2 5098   0.891   1.941   2.511  0.9485  0.0508  0.4490
 1263SOL    HW3 5099   0.951   2.021   2.397 -0.6052  0.4011 -0.1296
 1263SOL    MW4 5100   0.886   1.973   2.430 -0.0068  0.0085  0.4907
 1264SOL     OW 5101   1.122   2.040   2.343 -0.1124 -0.1511 -0.1511
 1264SOL    HW2 5102   1.205   1.993   2.337  1.0872  2.0301 -1.0453
 1264SOL    HW3 5103   1.098   2.058   2.252 -0.9420  0.3015  0.1514
 1264SOL    MW4 5104   1.130   2.036   2.330 -0.0637  0.1967 -0.2294
 1265SOL     OW 5105   1.108   2.301   2.400 -0.1337 -0.1412  0.0008
 1265SOL    HW2 5106   1.179   2.338   2.347  0.3535 -1.5228 -0.3476
 1265SOL    HW3 5107   1.112   2.207   2.382 -0.8959 -0.4487  1.3876
 1265SOL    MW4 5108   1.118   2.293   2.390 -0.1699 -0.3643  0.1380
 1266SOL     OW 5109   0.887   2.466   2.343 -0.6827 -0.1942 -0.0205
 1266SOL    HW2 5110   0.962   2.407   2.355 -0.8737 -0.4697 -0.1700
 1266SOL    HW3 5111   0.868   2.462   2.249 -0.3425  0.5412 -0.1183
 1266SOL    MW4 5112   0.894   2.458   2.332 -0.6629 -0.1333 -0.0534
 1267SOL     OW 5113   0.934   2.749   2.371  0.2747 -0.0549 -0.1229
 1267SOL    HW2 5114   0.907   2.761   2.462 -0.7491 -2.8024 -0.0079
 1267SOL    HW3 5115   0.945   2.654   2.362  1.2181  0.2571 -2.6222
 1267SOL    MW4 5116   0.932   2.738   2.382  0.2640 -0.3765 -0.4377
 1268SOL     OW 5117   1.159   2.878   2.253  0.0895  0.3362  0.2346
 1268SOL    HW2 5118   1.227   2.819   2.287  0.1362  0.3275  0.1266
 1268SOL    HW3 5119   1.077   2.837   2.279  0.1267  0.4146  0.4801
 1268SOL    MW4 5120   1.157   2.865   2.261  0.1006  0.3452  0.2527
 1269SOL     OW 5121   1.097   3.122   2.379 -0.1460 -0.2358 -0.4572
 1269SOL    HW2 5122   1.032   3.167   2.325  1.1066 -0.0785 -1.8536
 1269SOL    HW3 5123   1.128   3.050   2.325  2.2436  0.8455 -0.5861
 1269SOL    MW4 5124   1.093   3.119   2.365  0.3346 -0.0725 -0.6585
 1270SOL     OW 5125   0.911   3.282   2.266  0.0668 -0.4116 -0.2161
 1270SOL    HW2 5126   0.914   3.361   2.319  0.4312 -1.1740  0.9111
 1270SOL    HW3 5127   0.835   3.234   2.300 -0.2821 -0.4510 -1.0378
 1270SOL    MW4 5128   0.901   3.286   2.277  0.0688 -0.5174 -0.1757
 1271SOL     OW 5129   0.917   3.533   2.395  0.0130 -0.1187  0.3843
 1271SOL    HW2 5130   0.903   3.514   2.488  1.4920 -1.9308  0.2700
 1271SOL    HW3 5131   0.831   3.559   2.363 -0.7339 -0.4562  2.0554
 1271SOL    MW4 5132   0.904   3.534   2.403  0.1096 -0.4025  0.5898
 1272SOL     OW 5133   1.145   3.624   2.256  0.3939 -0.0808 -0.0010
 1272SOL    HW2 5134   1.221   3.591   2.304  1.0934  2.3263  0.6445
 1272SOL    HW3 5135   1.069   3.586   2.301  1.1618 -0.8754  0.6280
 1272SOL    MW4 5136   1.145   3.615   2.269  0.5876  0.1318  0.1671
 1273SOL     OW 5137   1.103   3.865   2.364 -0.4149 -0.3618 -0.6466
 1273SOL    HW2 5138   1.178   3.922   2.345 -1.3076  1.5292  1.2843
 1273SOL    HW3 5139   1.124   3.782   2.321  1.6249  0.9326 -2.2463
 1273SOL    MW4 5140   1.116   3.862   2.355 -0.2637  0.0582 -0.6032
 1274SOL     OW 5141   0.893   4.023   2.299 -0.2857  0.0145 -0.0966
 1274SOL    HW2 5142   0.965   3.963   2.317  0.6392  0.6734 -1.5196
 1274SOL    HW3 5143   0.819   3.987   2.350  0.6127 -1.5292  0.1669
 1274SOL    MW4 5144   0.892   4.010   2.308 -0.0451 -0.1025 -0.2494
 1275SOL     OW 5145   0.861   4.266   2.408  0.1729 -0.4729 -0.0723
 1275SOL    HW2 5146   0.862   4.185   2.357 -0.6632 -0.3431 -0.2931
 1275SOL    HW3 5147   0.806   4.326   2.358 -2.1786 -0.9394  1.8781
 1275SOL    MW4 5148   0.854   4.263   2.395 -0.2477 -0.5174  0.1559
 1276SOL     OW 5149   1.069   4.388   2.245  0.0245  0.0603  0.2809
 1276SOL    HW2 5150   0.987   4.361   2.286 -0.2704  0.6546  0.0918
 1276SOL    HW3 5151   1.087   4.475   2.282  0.1012  0.3157 -0.3473
 1276SOL    MW4 5152   1.060   4.396   2.256 -0.0043  0.1726  0.1733
 1277SOL     OW 5153   1.560   4.634   2.369 -0.0501  0.5755  0.1506
 1277SOL    HW2 5154   1.639   4.675   2.333 -0.1785  1.2247  0.6282
 1277SOL    HW3 5155   1.488   4.687   2.336 -0.3595 -0.4505 -0.9114
 1277SOL    MW4 5156   1.561   4.646   2.360 -0.1080  0.5260  0.0737
 1278SOL     OW 5157   1.356   0.111   2.256 -0.3111  0.2084 -0.0113
 1278SOL    HW2 5158   1.370   0.199   2.289  1.7173 -0.0957 -0.0488
 1278SOL    HW3 5159   1.291   0.073   2.317  0.0761  1.1422  0.9976
 1278SOL    MW4 5160   1.349   0.118   2.269  0.0074  0.2915  0.1166
 1279SOL     OW 5161   1.361   0.374   2.334  0.1447  0.2014  0.1323
 1279SOL    HW2 5162   1.365   0.375   2.430  2.2402 -2.5668  0.1275
 1279SOL    HW3 5163   1.441   0.418   2.306  0.7712 -1.1849 -0.3046
 1279SOL    MW4 5164   1.372   0.380   2.343  0.5038 -0.3468  0.0744
 1280SOL     OW 5165   1.599   0.506   2.290 -0.2818 -0.1490  0.0417
 1280SOL    HW2 5166   1.677   0.464   2.326  0.6817  1.4665 -0.1491
 1280SOL    HW3 5167   1.623   0.530   2.200 -1.3809 -0.6456 -0.4065
 1280SOL    MW4 5168   1.612   0.503   2.283 -0.2997 -0.0014 -0.0429
 1281SOL     OW 5169   1.597   0.766   2.383 -0.0426  0.4899  0.0055
 1281SOL    HW2 5170   1.677   0.801   2.344 -0.4733  0.6155 -0.7777
 1281SOL    HW3 5171   1.600   0.672   2.365  0.0751  0.4465  0.2461
 1281SOL    MW4 5172   1.608   0.759   2.375 -0.0839  0.5008 -0.0658
 1282SOL     OW 5173   1.350   0.851   2.293  0.4510 -0.0814 -0.3163
 1282SOL    HW2 5174   1.428   0.805   2.325 -0.2377 -0.3275  1.0786
 1282SOL    HW3 5175   1.278   0.790   2.311 -0.3161  1.0193  0.3873
 1282SOL    MW4 5176   1.351   0.837   2.300  0.2590  0.0313 -0.0393
 1283SOL     OW 5177   1.316   1.109   2.376  0.2511 -0.0193 -0.5313
 1283SOL    HW2 5178   1.317   1.105   2.471 -1.5689 -0.7393 -0.5160
 1283SOL    HW3 5179   1.331   1.019   2.348 -0.8687 -0.1063 -0.8821
 1283SOL    MW4 5180   1.318   1.097   2.385 -0.1369 -0.1256 -0.5753
 1284SOL     OW 5181   1.572   1.250   2.302 -0.1571 -0.3520 -0.0794
 1284SOL    HW2 5182   1.493   1.204   2.331 -0.6293  1.0951  1.0114
 1284SOL    HW3 5183   1.561   1.260   2.208 -2.0855  1.2756  0.2775
 1284SOL    MW4 5184   1.560   1.245   2.294 -0.4739  0.0536  0.1118
 1285SOL     OW 5185   1.600   1.515   2.401  0.0757 -0.3580 -0.0084
 1285SOL    HW2 5186   1.673   1.558   2.356 -2.0569  2.4177 -1.0199
 1285SOL    HW3 5187   1.583   1.436   2.350  0.8557  0.2161 -1.1972
 1285SOL    MW4 5188   1.608   1.511   2.388 -0.1026  0.0839 -0.2983
 1286SOL     OW 5189   1.388   1.637   2.282  0.1759 -0.3031 -0.1514
 1286SOL    HW2 5190   1.468   1.603   2.322 -0.0457 -0.3606  0.2373
 1286SOL    HW3 5191   1.318   1.610   2.340 -0.1120 -0.1061 -0.4047
 1286SOL    MW4 5192   1.389   1.629   2.295  0.1087 -0.2847 -0.1333
 1287SOL     OW 5193   1.356   1.917   2.388 -0.3548 -0.5423 -0.2619
 1287SOL    HW2 5194   1.426   1.977   2.361 -1.7870  0.3782 -2.0501
 1287SOL    HW3 5195   1.379   1.834   2.346 -0.5033 -0.1597 -1.1055
 1287SOL    MW4 5196   1.368   1.914   2.379 -0.5633 -0.3704 -0.6094
 1288SOL     OW 5197   1.580   2.027   2.292  0.2188 -0.1460 -0.2939
 1288SOL    HW2 5198   1.665   1.983   2.303 -0.4088 -1.3462 -0.1113
 1288SOL    HW3 5199   1.558   2.013   2.200 -1.0760 -2.2677  0.3155
 1288SOL    MW4 5200   1.589   2.019   2.281 -0.0349 -0.5844 -0.1893
 1289SOL     OW 5201   1.566   2.302   2.398  0.5560 -0.3881  0.7589
 1289SOL    HW2 5202   1.565   2.309   2.493  0.3897  0.5216  0.6922
 1289SOL    HW3 5203   1.557   2.208   2.381  1.1831 -0.6236  1.6482
 1289SOL    MW4 5204   1.565   2.290   2.408  0.6167 -0.2990  0.8676
 1290SOL     OW 5205   1.321   2.428   2.273 -0.4746  0.3086 -0.0351
 1290SOL    HW2 5206   1.404   2.388   2.296  2.2601  4.1390 -2.5554
 1290SOL    HW3 5207   1.320   2.429   2.177 -1.4439  3.9952 -0.0720
 1290SOL    MW4 5208   1.332   2.423   2.264 -0.2416  1.3003 -0.3724
 1291SOL     OW 5209   1.319   2.678   2.382  0.2287  0.8605  0.4446
 1291SOL    HW2 5210   1.404   2.713   2.355  0.0318  2.2183  1.5818
 1291SOL    HW3 5211   1.313   2.595   2.335  3.2831 -0.4748  2.2170
 1291SOL    MW4 5212   1.330   2.672   2.372  0.6058  0.8633  0.8287
 1292SOL     OW 5213   1.561   2.835   2.296  0.2761  0.5334 -0.7395
 1292SOL    HW2 5214   1.578   2.922   2.330  1.7550  0.7585 -1.9998
 1292SOL    HW3 5215   1.566   2.844   2.200  1.7304 -1.1351 -0.8710
 1292SOL    MW4 5216   1.564   2.847   2.288  0.6632  0.3428 -0.9229
 1293SOL     OW 5217   1.580   3.084   2.391 -0.7404 -0.4596 -0.1022
 1293SOL    HW2 5218   1.573   3.105   2.484 -0.2504 -1.6938  0.2211
 1293SOL    HW3 5219   1.515   3.140   2.349  0.6323  1.7891  0.7049
 1293SOL    MW4 5220   1.570   3.094   2.398 -0.4947 -0.3257  0.0470
 1294SOL     OW 5221   1.369   3.235   2.297 -0.5607 -0.1971 -0.0627
 1294SOL    HW2 5222   1.283   3.209   2.330 -0.9737  0.8971 -0.2532
 1294SOL    HW3 5223   1.357   3.243   2.202  0.2579 -1.9322 -0.3450
 1294SOL    MW4 5224   1.356   3.233   2.289 -0.5072 -0.2816 -0.1252
 1295SOL     OW 5225   1.363   3.525   2.412  0.4794 -0.2557 -0.2932
 1295SOL    HW2 5226   1.353   3.518   2.507 -1.1670 -0.3939 -0.4516
 1295SOL    HW3 5227   1.363   3.434   2.382  0.7524 -0.2055 -0.4354
 1295SOL    MW4 5228   1.362   3.512   2.421  0.2981 -0.2673 -0.3328
 1296SOL     OW 5229   1.576   3.618   2.284 -0.4093 -0.3931  0.4270
 1296SOL    HW2 5230   1.572   3.709   2.316 -0.0238  0.2498 -1.3067
 1296SOL    HW3 5231   1.498   3.577   2.323 -1.6852  1.2145 -0.3461
 1296SOL    MW4 5232   1.565   3.625   2.294 -0.5268 -0.0963  0.0961
 1297SOL     OW 5233   1.558   3.886   2.352 -0.3370 -0.0986  0.4402
 1297SOL    HW2 5234   1.575   3.884   2.446 -0.3827 -0.9249  0.4326
 1297SOL    HW3 5235   1.642   3.910   2.313 -0.4458  0.7578  0.7193
 1297SOL    MW4 5236   1.572   3.889   2.359 -0.3573 -0.0947  0.4761
 1298SOL     OW 5237   1.315   4.012   2.271 -0.1494  0.0518 -0.8919
 1298SOL    HW2 5238   1.384   3.957   2.306  0.6955  1.4526 -0.3019
 1298SOL    HW3 5239   1.328   4.010   2.176  0.6354  0.2128 -0.7908
 1298SOL    MW4 5240   1.326   4.005   2.263  0.0657  0.2580 -0.8006
 1299SOL     OW 5241   1.298   4.276   2.369  0.2380 -0.6685  0.0520
 1299SOL    HW2 5242   1.294   4.196   2.317 -0.0430  0.2924 -1.4391
 1299SOL    HW3 5243   1.223   4.328   2.340 -0.5911 -0.5881  2.2555
 1299SOL    MW4 5244   1.288   4.273   2.358  0.0916 -0.5307  0.1459
 1300SOL     OW 5245   1.548   4.373   2.258 -0.0892  0.1254  0.1588
 1300SOL    HW2 5246   1.468   4.329   2.286 -0.4238  0.7675  0.2290
 1300SOL    HW3 5247   1.551   4.453   2.311  0.0602  0.6028 -0.5683
 1300SOL    MW4 5248   1.538   4.378   2.269 -0.1136  0.2732  0.0720
 1301SOL     OW 5249   2.049   4.610   2.413  0.1726  0.0301  0.0715
 1301SOL    HW2 5250   2.120   4.653   2.365  0.4810 -1.5407 -0.9206
 1301SOL    HW3 5251   2.042   4.523   2.373 -1.1411 -0.4666  1.3288
 1301SOL    MW4 5252   2.057   4.604   2.401  0.0401 -0.2422  0.1066
 1302SOL     OW 5253   1.808   0.071   2.279  0.0921 -0.6925  0.4932
 1302SOL    HW2 5254   1.815   0.164   2.299 -0.3499 -0.7383  0.8791
 1302SOL    HW3 5255   1.876   0.030   2.332 -0.3209 -0.6897  1.0235
 1302SOL    MW4 5256   1.818   0.078   2.289 -0.0207 -0.6982  0.6144
 1303SOL     OW 5257   1.829   0.349   2.379 -0.0392 -0.5829  0.0626
 1303SOL    HW2 5258   1.823   0.351   2.475  1.3480 -1.3407  0.1620
 1303SOL    HW3 5259   1.888   0.421   2.358 -3.9349  2.6719 -0.5572
 1303SOL    MW4 5260   1.836   0.359   2.389 -0.3701 -0.2535 -0.0062
 1304SOL     OW 5261   2.027   0.546   2.293 -0.0734  0.2197 -0.3524
 1304SOL    HW2 5262   2.023   0.636   2.323 -0.7941  0.9522 -2.5204
 1304SOL    HW3 5263   2.056   0.553   2.202  1.1635 -1.8250 -0.1429
 1304SOL    MW4 5264   2.030   0.559   2.285 -0.0055  0.0466 -0.6106
 1305SOL     OW 5265   2.036   0.786   2.401 -0.0655 -1.0063  0.0821
 1305SOL    HW2 5266   2.113   0.822   2.357 -0.3025  0.3572  0.7434
 1305SOL    HW3 5267   1.962   0.823   2.353 -0.3397  1.1699  2.0869
 1305SOL    MW4 5268   2.036   0.796   2.389 -0.1330 -0.5392  0.4337
 1306SOL     OW 5269   1.814   0.875   2.271  0.1476 -0.0785 -0.0190
 1306SOL    HW2 5270   1.807   0.961   2.313 -2.2611 -0.6773  0.9166
 1306SOL    HW3 5271   1.821   0.895   2.178  0.8670  1.1617  0.2799
 1306SOL    MW4 5272   1.814   0.889   2.264 -0.0753  0.0061  0.1440
 1307SOL     OW 5273   1.806   1.125   2.402 -0.4381  0.5236  0.0650
 1307SOL    HW2 5274   1.876   1.172   2.358 -0.6583 -0.1706 -1.0292
 1307SOL    HW3 5275   1.725   1.166   2.371 -0.5581  0.6975  0.5965
 1307SOL    MW4 5276   1.804   1.136   2.392 -0.4832  0.4550 -0.0093
 1308SOL     OW 5277   2.017   1.260   2.308  0.2766 -0.2299  0.6028
 1308SOL    HW2 5278   2.011   1.347   2.346  2.0784 -0.3204  1.0912
 1308SOL    HW3 5279   2.020   1.275   2.214  0.2868  0.2126  0.6737
 1308SOL    MW4 5280   2.016   1.273   2.301  0.5157 -0.1835  0.6766
 1309SOL     OW 5281   2.004   1.522   2.405 -0.4449  0.0850 -0.1609
 1309SOL    HW2 5282   2.002   1.551   2.496 -0.4156 -0.3127 -0.0328
 1309SOL    HW3 5283   1.932   1.569   2.363  0.0080  0.8420 -0.1066
 1309SOL    MW4 5284   1.995   1.532   2.412 -0.3814  0.1324 -0.1369
 1310SOL     OW 5285   1.801   1.647   2.254  0.1745 -0.4234  0.1702
 1310SOL    HW2 5286   1.813   1.733   2.293  0.2438 -0.1812 -0.3896
 1310SOL    HW3 5287   1.808   1.661   2.160  2.4193 -1.3974  0.1584
 1310SOL    MW4 5288   1.803   1.660   2.247  0.4798 -0.5199  0.0947
 1311SOL     OW 5289   1.836   1.919   2.347 -0.0560 -0.3443 -0.5881
 1311SOL    HW2 5290   1.845   1.910   2.442 -0.1494 -0.1485 -0.5616
 1311SOL    HW3 5291   1.882   2.000   2.325  0.2058 -0.5343 -0.7457
 1311SOL    MW4 5292   1.843   1.928   2.356 -0.0337 -0.3434 -0.6051
 1312SOL     OW 5293   2.017   2.124   2.309  0.4035 -0.1054 -0.2645
 1312SOL    HW2 5294   2.087   2.060   2.318  0.0395 -0.6050 -0.9214
 1312SOL    HW3 5295   2.012   2.142   2.215 -0.2280  0.0532 -0.2086
 1312SOL    MW4 5296   2.025   2.118   2.297  0.2723 -0.1507 -0.3436
 1313SOL     OW 5297   2.014   2.377   2.452 -0.3334 -0.2699 -0.2792
 1313SOL    HW2 5298   2.097   2.398   2.409 -0.5470  0.3130 -0.3992
 1313SOL    HW3 5299   2.010   2.281   2.451 -2.0218 -0.2529 -4.7225
 1313SOL    MW4 5300   2.025   2.367   2.446 -0.5844 -0.1910 -0.8812
 1314SOL     OW 5301   1.795   2.413   2.282 -0.4383  0.2918 -0.1617
 1314SOL    HW2 5302   1.873   2.398   2.335 -0.6969 -0.1140  0.1041
 1314SOL    HW3 5303   1.723   2.377   2.334 -0.3677 -2.4990 -1.9337
 1314SOL    MW4 5304   1.795   2.406   2.296 -0.4631 -0.1299 -0.3603
 1315SOL     OW 5305   1.782   2.667   2.392 -0.0978 -0.0909  0.0839
 1315SOL    HW2 5306   1.778   2.593   2.332  0.4275 -1.1856  1.3718
 1315SOL    HW3 5307   1.710   2.725   2.364  1.0377  0.1508 -2.4878
 1315SOL    MW4 5308   1.772   2.665   2.380  0.1215 -0.2036 -0.0856
 1316SOL     OW 5309   1.980   2.831   2.311 -0.0921 -0.3951 -0.5554
 1316SOL    HW2 5310   2.058   2.801   2.359 -1.1485 -1.4528  0.5275
 1316SOL    HW3 5311   1.910   2.773   2.341 -1.4481  0.9773 -1.0304
 1316SOL    MW4 5312   1.981   2.819   2.321 -0.4104 -0.3536 -0.4752
 1317SOL     OW 5313   2.015   3.075   2.439 -0.1661 -0.6966 -0.6129
 1317SOL    HW2 5314   2.093   3.112   2.397  0.4866 -0.4972  0.7501
 1317SOL    HW3 5315   2.008   2.987   2.403  1.0993 -0.9664 -0.2275
 1317SOL    MW4 5316   2.025   3.068   2.428  0.0870 -0.7062 -0.3824
 1318SOL     OW 5317   1.793   3.221   2.337 -0.0335 -0.1370  0.1764
 1318SOL    HW2 5318   1.875   3.186   2.371  0.6236  1.7956  0.6629
 1318SOL    HW3 5319   1.726   3.159   2.366  1.0519 -0.8824  1.1491
 1318SOL    MW4 5320   1.795   3.208   2.345  0.1962  0.0193  0.3688
 1319SOL     OW 5321   1.795   3.484   2.407  0.3805  0.1487 -0.0676
 1319SOL    HW2 5322   1.800   3.392   2.379  0.0454 -0.2744  1.2324
 1319SOL    HW3 5323   1.710   3.514   2.374  0.5389  0.0273 -0.5901
 1319SOL    MW4 5324   1.784   3.475   2.399  0.3573  0.0770  0.0348
 1320SOL     OW 5325   2.000   3.627   2.318  0.2756 -0.0302 -0.1941
 1320SOL    HW2 5326   1.921   3.580   2.344  1.1902 -0.6178  1.5767
 1320SOL    HW3 5327   2.002   3.620   2.223 -1.8339  0.0425 -0.2600
 1320SOL    MW4 5328   1.990   3.620   2.309  0.1183 -0.0980  0.0310
 1321SOL     OW 5329   2.038   3.885   2.387  0.5607  0.1961 -0.0614
 1321SOL    HW2 5330   2.024   3.892   2.482  0.2569  1.9339 -0.2172
 1321SOL    HW3 5331   2.010   3.796   2.365  0.6958 -0.2430  1.4917
 1321SOL    MW4 5332   2.032   3.874   2.397  0.5386  0.3674  0.1228
 1322SOL     OW 5333   1.789   3.977   2.225 -0.1453  0.6334  0.2897
 1322SOL    HW2 5334   1.879   3.957   2.252 -0.3914 -0.5283  0.2685
 1322SOL    HW3 5335   1.789   3.959   2.131 -0.5540  0.0382  0.3990
 1322SOL    MW4 5336   1.801   3.972   2.216 -0.2316  0.4013  0.3014
 1323SOL     OW 5337   1.757   4.206   2.385 -0.3004 -0.1244  0.7127
 1323SOL    HW2 5338   1.763   4.127   2.330  0.3957 -0.3844  1.1606
 1323SOL    HW3 5339   1.683   4.254   2.348 -0.5340 -0.8327  0.2335
 1323SOL    MW4 5340   1.748   4.202   2.373 -0.2394 -0.2518  0.7086
 1324SOL     OW 5341   1.984   4.347   2.343 -0.0941  0.2231 -0.1503
 1324SOL    HW2 5342   1.907   4.292   2.357 -0.0593  0.2137  0.0104
 1324SOL    HW3 5343   1.993   4.352   2.248 -0.2110  0.1105 -0.1678
 1324SOL    MW4 5344   1.975   4.341   2.333 -0.1050  0.2069 -0.1314
 1325SOL     OW 5345   2.440   4.627   2.369 -0.1051 -0.1291  0.1417
 1325SOL    HW2 5346   2.520   4.680   2.363 -1.4443  1.9308 -0.0062
 1325SOL    HW3 5347   2.470   4.538   2.353  2.0836  0.6835 -0.5774
 1325SOL    MW4 5348   2.454   4.622   2.366  0.0072  0.2499  0.0272
 1326SOL     OW 5349   2.232   0.128   2.265  0.2905  0.2252 -0.0617
 1326SOL    HW2 5350   2.241   0.211   2.311 -0.1918  0.3445 -0.1822
 1326SOL    HW3 5351   2.310   0.078   2.290  0.1523  0.3823  0.6880
 1326SOL    MW4 5352   2.244   0.132   2.274  0.2089  0.2617  0.0212
 1327SOL     OW 5353   2.235   0.383   2.365 -0.2440 -0.0984 -0.0938
 1327SOL    HW2 5354   2.306   0.429   2.319 -0.7955  1.5053  0.5977
 1327SOL    HW3 5355   2.155   0.429   2.338 -0.7040  0.0440  1.4448
 1327SOL    MW4 5356   2.234   0.395   2.355 -0.3774  0.1320  0.2007
 1328SOL     OW 5357   2.474   0.501   2.287 -0.3004  0.4314 -0.1724
 1328SOL    HW2 5358   2.558   0.479   2.327 -0.8944 -1.4096  0.0734
 1328SOL    HW3 5359   2.490   0.496   2.193 -0.4441 -1.1101 -0.1187
 1328SOL    MW4 5360   2.487   0.498   2.280 -0.3977 -0.0149 -0.1328
 1329SOL     OW 5361   2.467   0.754   2.394 -0.0099  0.8072  0.3856
 1329SOL    HW2 5362   2.540   0.801   2.354 -0.6403  0.8846 -0.6925
 1329SOL    HW3 5363   2.461   0.673   2.345 -0.4956  0.6868  0.6430
 1329SOL    MW4 5364   2.476   0.750   2.383 -0.1571  0.8015  0.2770
 1330SOL     OW 5365   2.257   0.896   2.281  0.0343  0.4971 -0.1744
 1330SOL    HW2 5366   2.253   0.987   2.311 -1.5448  0.0969  0.8894
 1330SOL    HW3 5367   2.320   0.853   2.338  0.9762  0.9650 -0.8427
 1330SOL    MW4 5368   2.265   0.902   2.292 -0.0496  0.5060 -0.1223
 1331SOL     OW 5369   2.261   1.154   2.380  0.0089  0.2822  0.2986
 1331SOL    HW2 5370   2.340   1.198   2.349 -0.6259  2.0621  1.1288
 1331SOL    HW3 5371   2.189   1.203   2.340 -0.7050 -0.6553  0.4123
 1331SOL    MW4 5372   2.262   1.166   2.371 -0.1690  0.3934  0.4234
 1332SOL     OW 5373   2.488   1.307   2.285  0.5897  0.4757  0.1239
 1332SOL    HW2 5374   2.563   1.251   2.306 -0.1110 -0.4243  0.2165
 1332SOL    HW3 5375   2.500   1.384   2.340  2.2726  1.0281 -0.9656
 1332SOL    MW4 5376   2.500   1.310   2.295  0.7193  0.4297 -0.0076
 1333SOL     OW 5377   2.463   1.543   2.412 -0.4033 -0.5591 -0.4189
 1333SOL    HW2 5378   2.469   1.555   2.506  1.5745  0.4610 -0.6503
 1333SOL    HW3 5379   2.537   1.591   2.376 -0.4982 -1.8134 -2.4264
 1333SOL    MW4 5380   2.473   1.551   2.420 -0.1547 -0.5900 -0.7145
 1334SOL     OW 5381   2.228   1.673   2.320 -0.9510 -0.4826 -0.1885
 1334SOL    HW2 5382   2.311   1.631   2.344 -1.2612 -2.1478 -1.9280
 1334SOL    HW3 5383   2.161   1.611   2.349 -1.5043 -0.0540 -0.5466
 1334SOL    MW4 5384   2.230   1.659   2.327 -1.0650 -0.6458 -0.4654
 1335SOL     OW 5385   2.235   1.934   2.426 -0.0514  0.3318  0.2029
 1335SOL    HW2 5386   2.312   1.962   2.376 -0.1466  1.0491  0.4611
 1335SOL    HW3 5387   2.217   1.846   2.393  0.6806  0.2878 -0.0958
 1335SOL    MW4 5388   2.243   1.926   2.415  0.0329  0.4206  0.1974
 1336SOL     OW 5389   2.468   2.045   2.297 -0.2164  0.9930  0.4894
 1336SOL    HW2 5390   2.550   1.998   2.308 -0.6622  0.0352 -0.2404
 1336SOL    HW3 5391   2.451   2.043   2.203 -1.9228 -0.2750  0.8019
 1336SOL    MW4 5392   2.476   2.039   2.286 -0.5002  0.6993  0.4342
 1337SOL     OW 5393   2.483   2.309   2.382  0.8352  0.2992 -0.5320
 1337SOL    HW2 5394   2.569   2.345   2.361  1.1470  0.4764  0.9868
 1337SOL    HW3 5395   2.488   2.217   2.355  1.3105  0.4481 -0.9527
 1337SOL    MW4 5396   2.495   2.301   2.376  0.9391  0.3421 -0.3870
 1338SOL     OW 5397   2.251   2.452   2.309 -0.1230 -0.3262 -0.1324
 1338SOL    HW2 5398   2.250   2.533   2.360 -0.8167 -0.5553  0.2361
 1338SOL    HW3 5399   2.327   2.404   2.341 -0.7762 -0.6408  0.9722
 1338SOL    MW4 5400   2.261   2.457   2.320 -0.3009 -0.3979  0.0620
 1339SOL     OW 5401   2.224   2.725   2.421  0.0108 -0.7121  0.0240
 1339SOL    HW2 5402   2.225   2.728   2.517  0.7249 -1.1873  0.0380
 1339SOL    HW3 5403   2.297   2.782   2.394  0.1857 -1.0476 -0.2180
 1339SOL    MW4 5404   2.234   2.733   2.430  0.1283 -0.8192 -0.0064
 1340SOL     OW 5405   2.469   2.831   2.305  1.1813  0.3053 -0.2074
 1340SOL    HW2 5406   2.534   2.777   2.349  0.8492 -0.2069 -0.3383
 1340SOL    HW3 5407   2.481   2.811   2.212  0.3960 -0.3008 -0.1879
 1340SOL    MW4 5408   2.479   2.821   2.298  1.0340  0.1578 -0.2222
 1341SOL     OW 5409   2.453   3.090   2.358 -0.0471  0.2820 -0.3101
 1341SOL    HW2 5410   2.542   3.122   2.349  0.0481  0.7165  2.0541
 1341SOL    HW3 5411   2.459   2.996   2.338  1.0147  0.2277  0.2320
 1341SOL    MW4 5412   2.465   3.082   2.354  0.1056  0.3324  0.0734
 1342SOL     OW 5413   2.225   3.244   2.276 -0.1605 -0.0456  0.5751
 1342SOL    HW2 5414   2.223   3.322   2.330  1.6088  0.6108 -0.2594
 1342SOL    HW3 5415   2.312   3.206   2.292  0.8006  0.7222 -2.5297
 1342SOL    MW4 5416   2.236   3.249   2.285  0.2000  0.1426  0.0556
 1343SOL     OW 5417   2.237   3.474   2.415  0.5340  0.0197 -0.2095
 1343SOL    HW2 5418   2.239   3.478   2.511  0.8209  1.0540 -0.2501
 1343SOL    HW3 5419   2.157   3.521   2.391  0.1096 -0.8231 -0.4546
 1343SOL    MW4 5420   2.227   3.481   2.425  0.5157  0.0451 -0.2472
 1344SOL     OW 5421   2.484   3.547   2.311 -0.7573  0.0017  0.7115
 1344SOL    HW2 5422   2.495   3.642   2.324  0.2626 -0.2260  1.5520
 1344SOL    HW3 5423   2.397   3.528   2.346 -0.6222  0.4961  1.3395
 1344SOL    MW4 5424   2.474   3.557   2.317 -0.6046  0.0367  0.9053
 1345SOL     OW 5425   2.472   3.808   2.371 -0.1064 -0.0602 -0.0543
 1345SOL    HW2 5426   2.446   3.802   2.463  1.0430 -0.5070  0.2581
 1345SOL    HW3 5427   2.397   3.847   2.327 -0.3342  0.9785  1.2264
 1345SOL    MW4 5428   2.459   3.812   2.378  0.0153  0.0179  0.1559
 1346SOL     OW 5429   2.271   3.959   2.262 -0.2525 -0.3250  0.1162
 1346SOL    HW2 5430   2.280   4.049   2.291  0.5249 -0.3704  0.0202
 1346SOL    HW3 5431   2.188   3.930   2.299 -1.1082  0.8192 -0.8753
 1346SOL    MW4 5432   2.261   3.967   2.271 -0.2630 -0.1800 -0.0272
 1347SOL     OW 5433   2.262   4.219   2.402 -0.1388 -0.3335 -1.1009
 1347SOL    HW2 5434   2.270   4.221   2.497  1.1425 -0.1376 -1.2068
 1347SOL    HW3 5435   2.170   4.241   2.385  0.0221  1.3064  0.0223
 1347SOL    MW4 5436   2.251   4.222   2.412  0.0515 -0.0911 -0.9663
 1348SOL     OW 5437   2.496   4.357   2.299  0.1201  0.1566 -0.3283
 1348SOL    HW2 5438   2.561   4.307   2.348  0.4053  0.3075 -0.5475
 1348SOL    HW3 5439   2.412   4.326   2.332  0.3041 -0.0109 -0.0136
 1348SOL    MW4 5440   2.494   4.346   2.310  0.1819  0.1545 -0.3159
 1349SOL     OW 5441   2.886   4.619   2.394 -0.3320 -0.0214 -0.2060
 1349SOL    HW2 5442   2.959   4.674   2.367 -1.0241  0.3712 -1.3336
 1349SOL    HW3 5443   2.911   4.530   2.367 -0.6292  0.2368 -1.3882
 1349SOL    MW4 5444   2.899   4.614   2.387 -0.4623  0.0639 -0.5105
 1350SOL     OW 5445   2.685   0.095   2.253  0.5159 -0.0248 -0.1297
 1350SOL    HW2 5446   2.683   0.181   2.297 -0.2955  0.5416 -1.2553
 1350SOL    HW3 5447   2.743   0.042   2.308 -0.0631  0.8251  1.3416
 1350SOL    MW4 5448   2.692   0.100   2.266  0.3326  0.1621 -0.0842
 1351SOL     OW 5449   2.688   0.334   2.372  0.0263  0.0595 -0.3418
 1351SOL    HW2 5450   2.701   0.341   2.467  0.4883  0.2317 -0.4161
 1351SOL    HW3 5451   2.751   0.396   2.335 -0.8967  0.7711 -0.7268
 1351SOL    MW4 5452   2.698   0.343   2.380 -0.0346  0.1761 -0.4022
 1352SOL     OW 5453   2.911   0.485   2.301  0.0122 -0.2002  0.1354
 1352SOL    HW2 5454   2.925   0.572   2.339  1.6528 -0.1661 -0.4718
 1352SOL    HW3 5455   2.925   0.497   2.207 -0.7514 -0.9241 -0.0779
 1352SOL    MW4 5456   2.915   0.498   2.293  0.1278 -0.2912  0.0269
 1353SOL     OW 5457   2.922   0.754   2.376 -0.0166  0.2711 -0.7674
 1353SOL    HW2 5458   2.908   0.750   2.471  0.8597  0.9289 -0.6011
 1353SOL    HW3 5459   2.841   0.790   2.341 -0.3279  0.0710 -0.2639
 1353SOL    MW4 5460   2.909   0.758   2.384  0.0582  0.3315 -0.6793
 1354SOL     OW 5461   2.698   0.878   2.276  0.1757  0.1935 -0.2496
 1354SOL    HW2 5462   2.689   0.970   2.301  0.7662  0.2382 -0.1944
 1354SOL    HW3 5463   2.686   0.878   2.181 -0.4512  0.2409 -0.1744
 1354SOL    MW4 5464   2.695   0.890   2.267  0.1709  0.2056 -0.2322
 1355SOL     OW 5465   2.682   1.125   2.380 -0.2687  0.5179  0.1066
 1355SOL    HW2 5466   2.664   1.117   2.473  0.5166 -3.5739  0.0099
 1355SOL    HW3 5467   2.770   1.163   2.376 -0.4822  1.1204  1.0019
 1355SOL    MW4 5468   2.691   1.129   2.392 -0.1934  0.0576  0.2122
 1356SOL     OW 5469   2.945   1.212   2.317  0.1495  0.3872  0.3046
 1356SOL    HW2 5470   3.029   1.175   2.343  0.7624  1.3654 -0.2733
 1356SOL    HW3 5471   2.945   1.208   2.222 -1.0893 -0.9877  0.3487
 1356SOL    MW4 5472   2.956   1.207   2.308  0.0670  0.3349  0.2341
 1357SOL     OW 5473   2.944   1.503   2.376  0.0736  0.1580 -0.0483
 1357SOL    HW2 5474   2.936   1.522   2.469  2.2118 -0.0393  0.2106
 1357SOL    HW3 5475   2.943   1.408   2.370  2.4525  0.0858  0.0828
 1357SOL    MW4 5476   2.943   1.493   2.387  0.6695  0.1224  0.0031
 1358SOL     OW 5477   2.690   1.674   2.312 -0.4163  0.2577 -0.1013
 1358SOL    HW2 5478   2.762   1.612   2.321 -0.8311 -0.1751  0.2082
 1358SOL    HW3 5479   2.681   1.687   2.218 -0.1291  0.0892 -0.1514
 1358SOL    MW4 5480   2.698   1.668   2.301 -0.4330  0.1783 -0.0670
 1359SOL     OW 5481   2.713   1.945   2.364  0.0369 -0.3720 -0.0626
 1359SOL    HW2 5482   2.687   1.949   2.455 -0.8379 -1.4896 -0.2556
 1359SOL    HW3 5483   2.716   1.851   2.344  0.2368 -0.1378 -1.1702
 1359SOL    MW4 5484   2.710   1.933   2.373 -0.0525 -0.4885 -0.2341
 1360SOL     OW 5485   2.953   2.074   2.302  0.1569  0.1567  0.1776
 1360SOL    HW2 5486   3.013   2.010   2.340 -0.1399  0.9464  2.0302
 1360SOL    HW3 5487   2.865   2.041   2.323 -0.0023  0.8741  0.6696
 1360SOL    MW4 5488   2.949   2.061   2.310  0.0968  0.3555  0.4871
 1361SOL     OW 5489   2.962   2.324   2.399  0.2321  0.0046 -0.6873
 1361SOL    HW2 5490   2.973   2.322   2.494  1.3875  0.7781 -0.8002
 1361SOL    HW3 5491   2.974   2.233   2.372 -0.7116 -0.3182 -0.0268
 1361SOL    MW4 5492   2.965   2.312   2.408  0.2601  0.0641 -0.6146
 1362SOL     OW 5493   2.722   2.435   2.308 -0.6021 -0.2491  0.3089
 1362SOL    HW2 5494   2.810   2.400   2.320 -1.4381 -2.0723  1.3146
 1362SOL    HW3 5495   2.713   2.446   2.213  0.2447 -1.2659  0.1030
 1362SOL    MW4 5496   2.733   2.432   2.297 -0.6008 -0.6237  0.4146
 1363SOL     OW 5497   2.687   2.703   2.424 -0.2089  0.3509 -0.3032
 1363SOL    HW2 5498   2.759   2.744   2.375  1.1517 -1.7305 -0.0833
 1363SOL    HW3 5499   2.690   2.611   2.399 -0.9152 -0.3130  2.0125
 1363SOL    MW4 5500   2.697   2.696   2.414 -0.1228 -0.0117  0.0315
 1364SOL     OW 5501   2.905   2.827   2.269  0.1344 -0.1345 -0.0088
 1364SOL    HW2 5502   2.899   2.914   2.309 -1.3835 -0.6192  0.8507
 1364SOL    HW3 5503   2.926   2.845   2.177  1.2767  1.0780  0.4710
 1364SOL    MW4 5504   2.907   2.841   2.262  0.0849 -0.0384  0.1676
 1365SOL     OW 5505   2.939   3.073   2.420  0.0918  0.3032 -0.1971
 1365SOL    HW2 5506   3.021   3.107   2.385 -0.5929  0.1564 -2.0134
 1365SOL    HW3 5507   2.871   3.124   2.377 -0.7685  1.4782  2.4281
 1365SOL    MW4 5508   2.941   3.084   2.410 -0.1121  0.4385 -0.0904
 1366SOL     OW 5509   2.702   3.188   2.330 -0.1091 -0.1122  0.0355
 1366SOL    HW2 5510   2.717   3.270   2.378  0.5794 -0.0797 -0.2312
 1366SOL    HW3 5511   2.701   3.214   2.238 -0.4746 -0.3201 -0.0194
 1366SOL    MW4 5512   2.704   3.202   2.324 -0.0665 -0.1354 -0.0067
 1367SOL     OW 5513   2.730   3.461   2.425  0.2836  0.4685 -0.0521
 1367SOL    HW2 5514   2.776   3.509   2.356  0.7017 -0.4091 -0.3887
 1367SOL    HW3 5515   2.639   3.488   2.416  0.3111  0.2241 -1.0542
 1367SOL    MW4 5516   2.724   3.471   2.415  0.3424  0.3209 -0.2284
 1368SOL     OW 5517   2.928   3.575   2.275  0.0294 -0.0084 -0.3909
 1368SOL    HW2 5518   3.011   3.530   2.289 -0.2654 -0.1559  0.9351
 1368SOL    HW3 5519   2.937   3.657   2.322 -0.8519 -0.3461  0.3700
 1368SOL    MW4 5520   2.940   3.580   2.283 -0.1256 -0.0722 -0.1154
 1369SOL     OW 5521   2.943   3.819   2.434  0.1366 -0.1381 -0.0855
 1369SOL    HW2 5522   2.958   3.852   2.522 -0.0242 -0.3383  0.0209
 1369SOL    HW3 5523   2.867   3.868   2.402  0.5162  0.3003 -0.3106
 1369SOL    MW4 5524   2.935   3.830   2.441  0.1657 -0.1068 -0.1011
 1370SOL     OW 5525   2.720   3.951   2.333 -0.1842  0.5234  0.9737
 1370SOL    HW2 5526   2.646   3.895   2.357  0.2289 -0.4853 -0.0614
 1370SOL    HW3 5527   2.707   3.971   2.241  0.6473  0.6103  0.8705
 1370SOL    MW4 5528   2.709   3.946   2.324 -0.0200  0.4017  0.8235
 1371SOL     OW 5529   2.719   4.235   2.423  0.3783 -0.1474  0.0014
 1371SOL    HW2 5530   2.712   4.235   2.519  0.5630 -1.1628  0.0177
 1371SOL    HW3 5531   2.720   4.142   2.399 -2.0911  0.0753 -1.1519
 1371SOL    MW4 5532   2.718   4.223   2.433  0.0768 -0.2518 -0.1485
 1372SOL     OW 5533   2.942   4.343   2.293  0.1887 -0.0582  0.1865
 1372SOL    HW2 5534   3.015   4.290   2.324  0.1798  0.0368  0.3679
 1372SOL    HW3 5535   2.865   4.306   2.337  0.2458  0.4143  0.6889
 1372SOL    MW4 5536   2.941   4.331   2.303  0.1950  0.0172  0.2766
 1373SOL     OW 5537   3.309   4.639   2.423  0.4426 -0.3327 -0.0779
 1373SOL    HW2 5538   3.317   4.647   2.519 -1.2434 -1.0083  0.1361
 1373SOL    HW3 5539   3.390   4.678   2.389  0.8879  0.2647  1.6095
 1373SOL    MW4 5540   3.321   4.645   2.432  0.2789 -0.3428  0.1731
 1374SOL     OW 5541   3.102   0.127   2.301  0.0443  0.3806 -0.1005
 1374SOL    HW2 5542   3.103   0.216   2.338  0.6265  0.6484 -0.7431
 1374SOL    HW3 5543   3.176   0.083   2.343  0.4206  0.5417 -0.5806
 1374SOL    MW4 5544   3.112   0.133   2.311  0.1709  0.4372 -0.2487
 1375SOL     OW 5545   3.110   0.363   2.438 -0.1824 -0.1330 -0.6507
 1375SOL    HW2 5546   3.180   0.420   2.406 -1.2399  2.1354  0.9744
 1375SOL    HW3 5547   3.032   0.391   2.390 -0.7337 -0.1568  0.2213
 1375SOL    MW4 5548   3.109   0.374   2.428 -0.3948  0.1631 -0.3209
 1376SOL     OW 5549   3.345   0.469   2.324 -0.3708 -0.1989  0.4715
 1376SOL    HW2 5550   3.419   0.412   2.349 -1.3337 -1.3404  0.7768
 1376SOL    HW3 5551   3.354   0.478   2.229 -0.1933 -0.8648  0.4172
 1376SOL    MW4 5552   3.356   0.462   2.314 -0.4745 -0.4374  0.5045
 1377SOL     OW 5553   3.375   0.741   2.404  0.0472  0.1961  0.1826
 1377SOL    HW2 5554   3.449   0.781   2.360 -0.0516 -0.3393 -0.4907
 1377SOL    HW3 5555   3.373   0.651   2.370 -1.5869  0.5416 -0.6741
 1377SOL    MW4 5556   3.384   0.734   2.394 -0.1814  0.1711 -0.0193
 1378SOL     OW 5557   3.156   0.885   2.289  0.1094  0.1070  0.3388
 1378SOL    HW2 5558   3.228   0.829   2.318  1.1189  1.4960  0.5818
 1378SOL    HW3 5559   3.078   0.847   2.330  0.5294 -2.0535 -0.8103
 1378SOL    MW4 5560   3.156   0.873   2.298  0.2978  0.0052  0.2193
 1379SOL     OW 5561   3.184   1.113   2.429 -0.0392 -0.0165 -0.3585
 1379SOL    HW2 5562   3.255   1.172   2.401  0.3001  0.2651  1.0357
 1379SOL    HW3 5563   3.199   1.032   2.380  0.6819  0.3701 -0.7892
 1379SOL    MW4 5564   3.196   1.110   2.419  0.1006  0.0716 -0.2313
 1380SOL     OW 5565   3.385   1.254   2.301 -0.1670 -0.5174  0.1504
 1380SOL    HW2 5566   3.476   1.231   2.320 -0.4022 -0.6463  1.1839
 1380SOL    HW3 5567   3.373   1.340   2.341  0.0103  0.3121 -1.5667
 1380SOL    MW4 5568   3.396   1.262   2.309 -0.1748 -0.4250  0.0601
 1381SOL     OW 5569   3.382   1.517   2.388  0.3786 -0.4334 -0.2636
 1381SOL    HW2 5570   3.381   1.514   2.484  2.3722  0.0010 -0.2120
 1381SOL    HW3 5571   3.307   1.572   2.365  0.3489  0.1131  1.0796
 1381SOL    MW4 5572   3.372   1.524   2.398  0.6378 -0.3039 -0.0796
 1382SOL     OW 5573   3.155   1.644   2.286 -0.1719  0.0048  0.2106
 1382SOL    HW2 5574   3.148   1.730   2.325 -0.6110 -0.4098  1.0400
 1382SOL    HW3 5575   3.080   1.595   2.319  0.5083 -0.9423  0.3736
 1382SOL    MW4 5576   3.144   1.649   2.295 -0.1402 -0.1748  0.3412
 1383SOL     OW 5577   3.139   1.895   2.398  0.2470  0.1633 -0.1153
 1383SOL    HW2 5578   3.142   1.906   2.493  1.1221 -0.1184 -0.1088
 1383SOL    HW3 5579   3.215   1.943   2.365 -1.2283  2.0519 -0.8537
 1383SOL    MW4 5580   3.150   1.903   2.406  0.1678  0.3754 -0.2120
 1384SOL     OW 5581   3.353   2.052   2.323  0.3038 -0.2339  0.3811
 1384SOL    HW2 5582   3.424   1.992   2.349 -0.9558 -1.1748  1.7334
 1384SOL    HW3 5583   3.352   2.047   2.227  1.8177 -0.4946  0.3610
 1384SOL    MW4 5584   3.362   2.043   2.314  0.3374 -0.3924  0.5567
 1385SOL     OW 5585   3.376   2.330   2.375 -0.1314  0.7516 -0.3267
 1385SOL    HW2 5586   3.309   2.384   2.333 -1.5326  0.5090  1.5624
 1385SOL    HW3 5587   3.356   2.240   2.347  0.0247  0.7969 -0.5846
 1385SOL    MW4 5588   3.364   2.325   2.365 -0.2959  0.7253 -0.1113
 1386SOL     OW 5589   3.161   2.457   2.280  0.1169 -0.3205 -0.1157
 1386SOL    HW2 5590   3.147   2.542   2.323  0.1869  0.3397 -1.3709
 1386SOL    HW3 5591   3.089   2.402   2.311 -1.3907  0.9703 -1.2248
 1386SOL    MW4 5592   3.150   2.461   2.290 -0.0730 -0.0634 -0.4275
 1387SOL     OW 5593   3.129   2.702   2.394  0.0601 -0.1445 -0.1012
 1387SOL    HW2 5594   3.134   2.708   2.489 -1.1607 -3.5377  0.2605
 1387SOL    HW3 5595   3.063   2.767   2.369 -1.1007 -0.6253  1.5975
 1387SOL    MW4 5596   3.121   2.711   2.403 -0.2537 -0.6557  0.1705
 1388SOL     OW 5597   3.372   2.831   2.308 -0.1256  0.2185  0.2612
 1388SOL    HW2 5598   3.388   2.915   2.352  0.3464  0.9726 -1.3069
 1388SOL    HW3 5599   3.293   2.796   2.349  0.3161  0.9033  1.6961
 1388SOL    MW4 5600   3.364   2.837   2.319 -0.0052  0.4082  0.2434
 1389SOL     OW 5601   3.411   3.073   2.417 -0.4272  0.0117  0.2505
 1389SOL    HW2 5602   3.473   3.119   2.361  0.4242 -2.4130 -0.8440
 1389SOL    HW3 5603   3.327   3.115   2.399 -0.0477 -0.2725 -2.3430
 1389SOL    MW4 5604   3.408   3.085   2.407 -0.2651 -0.3457 -0.2363
 1390SOL     OW 5605   3.163   3.205   2.328 -0.0462  0.1783 -0.7900
 1390SOL    HW2 5606   3.169   3.299   2.347  1.8176  0.3654 -2.1348
 1390SOL    HW3 5607   3.161   3.200   2.232 -0.3688 -1.1505 -0.7198
 1390SOL    MW4 5608   3.163   3.217   2.318  0.1569  0.0277 -0.9582
 1391SOL     OW 5609   3.156   3.472   2.386 -0.1724  0.4830  0.1156
 1391SOL    HW2 5610   3.163   3.481   2.481  0.7170 -1.2911  0.2399
 1391SOL    HW3 5611   3.228   3.525   2.352 -0.3270  0.9022  0.4407
 1391SOL    MW4 5612   3.167   3.480   2.394 -0.0756  0.3045  0.1750
 1392SOL     OW 5613   3.369   3.616   2.285 -0.0643 -0.0030  0.3092
 1392SOL    HW2 5614   3.446   3.572   2.322 -1.0385 -0.4154  1.9012
 1392SOL    HW3 5615   3.373   3.596   2.191  1.7352 -0.0546  0.3801
 1392SOL    MW4 5616   3.380   3.607   2.277  0.0448 -0.0641  0.5286
 1393SOL     OW 5617   3.354   3.872   2.422  0.2250 -0.1323 -0.0473
 1393SOL    HW2 5618   3.433   3.919   2.396 -0.5868  1.8949  1.0173
 1393SOL    HW3 5619   3.359   3.788   2.375  1.9533  0.8080 -1.6061
 1393SOL    MW4 5620   3.365   3.867   2.412  0.3459  0.2592 -0.1123
 1394SOL     OW 5621   3.137   3.978   2.299  0.1893 -0.2573 -0.4449
 1394SOL    HW2 5622   3.213   3.940   2.344  0.2958  1.7826  1.2134
 1394SOL    HW3 5623   3.063   3.924   2.326  0.5222 -0.0895  0.8444
 1394SOL    MW4 5624   3.137   3.966   2.309  0.2472  0.0341 -0.0560
 1395SOL     OW 5625   3.154   4.231   2.426  0.4478  0.3954  0.1004
 1395SOL    HW2 5626   3.225   4.279   2.382  0.2754  0.5395 -0.0206
 1395SOL    HW3 5627   3.158   4.144   2.388  0.3146  0.5120 -0.1847
 1395SOL    MW4 5628   3.164   4.226   2.415  0.4075  0.4296  0.0465
 1396SOL     OW 5629   3.344   4.394   2.299  0.1946 -0.1178 -0.3428
 1396SOL    HW2 5630   3.341   4.483   2.335  0.5335 -0.7867  1.3807
 1396SOL    HW3 5631   3.335   4.406   2.205  0.7503  1.7831 -0.1692
 1396SOL    MW4 5632   3.342   4.407   2.291  0.3128  0.0443 -0.0927
 1397SOL     OW 5633   3.779   4.619   2.407 -0.6989 -0.4352  0.2440
 1397SOL    HW2 5634   3.809   4.625   2.498 -0.0785  0.2204 -0.0042
 1397SOL    HW3 5635   3.840   4.674   2.358 -0.9904 -0.8483 -0.5822
 1397SOL    MW4 5636   3.791   4.627   2.412 -0.6552 -0.4034  0.1023
 1398SOL     OW 5637   3.549   0.055   2.316  0.1263 -0.0707 -0.5182
 1398SOL    HW2 5638   3.553   0.141   2.357 -0.7532 -0.2331 -0.0898
 1398SOL    HW3 5639   3.621   0.006   2.356 -0.4307 -0.0786  0.4873
 1398SOL    MW4 5640   3.559   0.060   2.327 -0.0632 -0.0932 -0.3293
 1399SOL     OW 5641   3.537   0.304   2.432  0.1697 -0.0059  0.7759
 1399SOL    HW2 5642   3.533   0.304   2.528  0.7935 -0.8590  0.8051
 1399SOL    HW3 5643   3.614   0.357   2.412 -0.3297  0.7065  0.7249
 1399SOL    MW4 5644   3.547   0.311   2.442  0.1864 -0.0245  0.7730
 1400SOL     OW 5645   3.753   0.487   2.315 -0.5023 -0.0386 -0.2507
 1400SOL    HW2 5646   3.785   0.571   2.348  0.9458 -0.8769  0.5502
 1400SOL    HW3 5647   3.764   0.492   2.220  0.2508  0.4059 -0.1432
 1400SOL    MW4 5648   3.759   0.499   2.307 -0.2120 -0.0905 -0.1307
 1401SOL     OW 5649   3.832   0.724   2.398 -1.1131 -0.2937  0.9523
 1401SOL    HW2 5650   3.830   0.734   2.493 -0.8488  1.8532  0.7577
 1401SOL    HW3 5651   3.909   0.773   2.370 -1.1750 -0.9165 -0.3870
 1401SOL    MW4 5652   3.842   0.731   2.407 -1.0865 -0.0926  0.7496
 1402SOL     OW 5653   3.615   0.882   2.306  0.2495  0.1416  0.3452
 1402SOL    HW2 5654   3.682   0.821   2.337 -0.0349 -0.3904 -0.0777
 1402SOL    HW3 5655   3.616   0.873   2.211 -3.4101 -3.1472  0.4925
 1402SOL    MW4 5656   3.624   0.872   2.298 -0.2708 -0.3625  0.3090
 1403SOL     OW 5657   3.645   1.166   2.340  0.0618 -0.1917  0.5397
 1403SOL    HW2 5658   3.627   1.163   2.435 -0.8033 -0.1976  0.3845
 1403SOL    HW3 5659   3.645   1.074   2.314  0.8448 -0.2156  0.6331
 1403SOL    MW4 5660   3.642   1.153   2.349  0.0513 -0.1956  0.5314
 1404SOL     OW 5661   3.855   1.314   2.250  0.1027  0.5646  0.1981
 1404SOL    HW2 5662   3.861   1.394   2.302 -1.5054 -0.4576  2.0541
 1404SOL    HW3 5663   3.776   1.270   2.283  0.7986 -1.6469 -0.9510
 1404SOL    MW4 5664   3.845   1.319   2.262 -0.0176  0.1380  0.2913
 1405SOL     OW 5665   3.845   1.548   2.388  0.1120  0.1030 -0.2645
 1405SOL    HW2 5666   3.840   1.547   2.483  0.7944 -0.2005 -0.2295
 1405SOL    HW3 5667   3.759   1.580   2.360  0.3286  1.3629  0.4841
 1405SOL    MW4 5668   3.833   1.552   2.397  0.2310  0.2291 -0.1612
 1406SOL     OW 5669   3.610   1.643   2.278  0.0666  0.2752  0.0986
 1406SOL    HW2 5670   3.531   1.593   2.299  0.6638 -0.8325 -0.2706
 1406SOL    HW3 5671   3.609   1.649   2.182  0.1322  0.7574  0.1267
 1406SOL    MW4 5672   3.599   1.637   2.268  0.1540  0.1928  0.0536
 1407SOL     OW 5673   3.591   1.921   2.380 -0.0658  0.8207 -0.0058
 1407SOL    HW2 5674   3.653   1.974   2.329  2.4051 -0.0398  1.9525
 1407SOL    HW3 5675   3.595   1.835   2.340 -0.6998  0.9964 -0.4467
 1407SOL    MW4 5676   3.600   1.917   2.368  0.1764  0.7302  0.1943
 1408SOL     OW 5677   3.806   2.075   2.294  0.5036  0.3558 -0.1586
 1408SOL    HW2 5678   3.865   2.012   2.336  1.6017  2.1108  1.0043
 1408SOL    HW3 5679   3.809   2.054   2.201  1.3409 -0.9044  0.1563
 1408SOL    MW4 5680   3.814   2.064   2.287  0.7591  0.4208  0.0362
 1409SOL     OW 5681   3.859   2.314   2.384 -0.3547  0.2868 -0.1234
 1409SOL    HW2 5682   3.785   2.368   2.355 -0.7952 -0.8501 -1.1391
 1409SOL    HW3 5683   3.841   2.227   2.347  0.5280 -0.4679  1.2050
 1409SOL    MW4 5684   3.847   2.310   2.375 -0.2964  0.0372 -0.0820
 1410SOL     OW 5685   3.624   2.450   2.298 -0.3338 -0.0944 -0.2386
 1410SOL    HW2 5686   3.554   2.396   2.336 -0.9182  0.7470 -0.1024
 1410SOL    HW3 5687   3.625   2.426   2.206 -0.8335 -0.0750 -0.2512
 1410SOL    MW4 5688   3.615   2.439   2.291 -0.4771  0.0193 -0.2224
 1411SOL     OW 5689   3.628   2.719   2.373  0.1372  0.3317  0.0849
 1411SOL    HW2 5690   3.631   2.629   2.340  1.2895  0.9983 -1.6690
 1411SOL    HW3 5691   3.539   2.748   2.353  0.1039 -0.0474 -0.3267
 1411SOL    MW4 5692   3.616   2.711   2.366  0.2847  0.3695 -0.2007
 1412SOL     OW 5693   3.832   2.839   2.258 -0.5950 -0.4640  0.2003
 1412SOL    HW2 5694   3.833   2.919   2.311  1.3060 -0.1695 -0.2728
 1412SOL    HW3 5695   3.755   2.791   2.290 -0.6690  0.6609  1.8041
 1412SOL    MW4 5696   3.822   2.843   2.270 -0.3538 -0.2766  0.3495
 1413SOL     OW 5697   3.794   3.097   2.382  0.4690 -0.1958  0.3258
 1413SOL    HW2 5698   3.793   3.105   2.477 -1.1524 -1.7385  0.4674
 1413SOL    HW3 5699   3.871   3.146   2.354  0.7214  0.6164  2.3974
 1413SOL    MW4 5700   3.804   3.105   2.391  0.2885 -0.2925  0.6180
 1414SOL     OW 5701   3.575   3.231   2.276 -0.2057 -0.3438  0.5983
 1414SOL    HW2 5702   3.567   3.318   2.316  1.3206 -0.4297  1.1026
 1414SOL    HW3 5703   3.648   3.190   2.321 -0.9042 -1.8976  0.3340
 1414SOL    MW4 5704   3.584   3.237   2.287 -0.0968 -0.5603  0.6301
 1415SOL     OW 5705   3.585   3.493   2.412 -0.2153  0.4214 -0.1144
 1415SOL    HW2 5706   3.594   3.498   2.507 -0.2833 -0.0826 -0.0800
 1415SOL    HW3 5707   3.670   3.522   2.378  0.3994 -1.0171  0.1402
 1415SOL    MW4 5708   3.597   3.498   2.420 -0.1431  0.1652 -0.0763
 1416SOL     OW 5709   3.777   3.627   2.293  0.2710  0.0848  0.2011
 1416SOL    HW2 5710   3.770   3.716   2.328  1.1587 -0.1653  1.0535
 1416SOL    HW3 5711   3.783   3.638   2.199  0.1983  0.9250  0.2925
 1416SOL    MW4 5712   3.777   3.640   2.286  0.3781  0.1626  0.3257
 1417SOL     OW 5713   3.814   3.877   2.421 -0.4628 -0.1908 -0.0339
 1417SOL    HW2 5714   3.832   3.853   2.512  0.5830  1.4419  0.2088
 1417SOL    HW3 5715   3.891   3.927   2.394 -0.8100 -0.5809 -1.7980
 1417SOL    MW4 5716   3.826   3.880   2.430 -0.3705 -0.0272 -0.2348
 1418SOL     OW 5717   3.592   4.018   2.331  0.0291  0.2791  0.4217
 1418SOL    HW2 5718   3.606   4.105   2.368 -0.8622  0.0000  1.4299
 1418SOL    HW3 5719   3.665   3.966   2.363  1.5584  1.0913 -1.6440
 1418SOL    MW4 5720   3.603   4.023   2.340  0.1132  0.3486  0.2823
 1419SOL     OW 5721   3.593   4.296   2.407 -0.0854 -0.2413  0.0479
 1419SOL    HW2 5722   3.678   4.324   2.371 -0.1463 -0.2744 -0.1254
 1419SOL    HW3 5723   3.529   4.330   2.345 -0.1866 -0.3786  0.0773
 1419SOL    MW4 5724   3.596   4.304   2.394 -0.1068 -0.2637  0.0291
 1420SOL     OW 5725   3.810   4.403   2.258 -0.0911  0.5141 -0.5024
 1420SOL    HW2 5726   3.885   4.357   2.296  0.4412  0.9631 -0.9897
 1420SOL    HW3 5727   3.805   4.485   2.307 -0.4710  0.3406 -0.2488
 1420SOL    MW4 5728   3.819   4.408   2.269 -0.0710  0.5507 -0.5331
 1421SOL     OW 5729   4.244   0.021   2.405 -0.1576  0.2762  0.1071
 1421SOL    HW2 5730   4.260   0.002   2.498  0.2662 -2.1734 -0.4277
 1421SOL    HW3 5731   4.320   0.071   2.377  0.3052 -0.0541  0.7689
 1421SOL    MW4 5732   4.256   0.025   2.414 -0.0405 -0.0906  0.1240
 1422SOL     OW 5733   3.987   0.116   2.297 -0.7503  0.3900  0.0250
 1422SOL    HW2 5734   3.984   0.194   2.352 -1.3833 -1.0866  2.1776
 1422SOL    HW3 5735   4.068   0.072   2.323 -0.7021  0.0291 -0.7334
 1422SOL    MW4 5736   3.997   0.120   2.308 -0.8273  0.1476  0.2089
 1423SOL     OW 5737   3.976   0.363   2.429  0.3169  0.1620  0.0426
 1423SOL    HW2 5738   4.060   0.396   2.397  0.8985  0.1735  1.5369
 1423SOL    HW3 5739   3.910   0.417   2.384  1.0830  0.0377 -1.2735
 1423SOL    MW4 5740   3.978   0.374   2.419  0.4947  0.1471  0.0660
 1424SOL     OW 5741   4.219   0.481   2.342 -0.2067  0.1493 -0.3375
 1424SOL    HW2 5742   4.231   0.571   2.370 -0.1749 -0.4849  1.7349
 1424SOL    HW3 5743   4.303   0.438   2.360 -0.2842 -0.3579 -1.1260
 1424SOL    MW4 5744   4.231   0.487   2.348 -0.2131 -0.0013 -0.1678
 1425SOL     OW 5745   4.270   0.749   2.375 -0.1306  0.0688 -0.1313
 1425SOL    HW2 5746   4.191   0.786   2.335  0.7471 -0.0227 -2.0034
 1425SOL    HW3 5747   4.341   0.803   2.341  0.6701 -0.0891  1.2553
 1425SOL    MW4 5748   4.269   0.761   2.365  0.0911  0.0359 -0.1950
 1426SOL     OW 5749   4.039   0.868   2.301  0.6578  0.0641  0.5697
 1426SOL    HW2 5750   4.037   0.961   2.327  1.8681  0.1853  0.2291
 1426SOL    HW3 5751   4.032   0.870   2.205  2.5600 -0.1132  0.4189
 1426SOL    MW4 5752   4.038   0.881   2.292  1.0681  0.0567  0.5050
 1427SOL     OW 5753   4.034   1.154   2.380  0.2323 -0.3368  0.3134
 1427SOL    HW2 5754   4.050   1.159   2.474 -1.0881  0.1117  0.5215
 1427SOL    HW3 5755   3.959   1.211   2.365 -0.0882 -1.0570 -0.8907
 1427SOL    MW4 5756   4.026   1.162   2.390  0.0162 -0.3726  0.1819
 1428SOL     OW 5757   4.244   1.299   2.267  0.5676  0.0805  0.2452
 1428SOL    HW2 5758   4.170   1.250   2.302 -0.8339  1.2453 -1.0446
 1428SOL    HW3 5759   4.321   1.258   2.307 -0.8285 -0.3322  2.5747
 1428SOL    MW4 5760   4.244   1.287   2.277  0.1988  0.1799  0.3824
 1429SOL     OW 5761   4.248   1.546   2.396 -0.0365 -0.3754 -0.1826
 1429SOL    HW2 5762   4.230   1.459   2.360 -0.5650 -0.0321 -0.7596
 1429SOL    HW3 5763   4.338   1.566   2.368  0.1952 -0.8560  0.2088
 1429SOL    MW4 5764   4.258   1.537   2.388 -0.0758 -0.3934 -0.2072
 1430SOL     OW 5765   4.046   1.666   2.252 -0.0157  0.4432  0.9244
 1430SOL    HW2 5766   4.112   1.621   2.304  0.1013  0.0917  0.4752
 1430SOL    HW3 5767   3.962   1.634   2.286  0.0773 -1.4336 -0.5301
 1430SOL    MW4 5768   4.044   1.656   2.263  0.0119  0.1491  0.6735
 1431SOL     OW 5769   4.029   1.922   2.371 -0.8356  0.1949 -0.2466
 1431SOL    HW2 5770   4.059   1.914   2.462 -1.4026  0.1945 -0.0569
 1431SOL    HW3 5771   4.044   1.835   2.334  1.7573  0.8670 -0.8932
 1431SOL    MW4 5772   4.035   1.909   2.378 -0.5684  0.2835 -0.3071
 1432SOL     OW 5773   4.255   2.053   2.287  0.3836  0.1876 -0.1469
 1432SOL    HW2 5774   4.264   2.137   2.333 -0.1462 -0.2255  0.7127
 1432SOL    HW3 5775   4.176   2.014   2.323  2.0548 -1.8886  1.3706
 1432SOL    MW4 5776   4.246   2.059   2.297  0.5345 -0.1407  0.1669
 1433SOL     OW 5777   4.261   2.307   2.409  0.3834 -0.5334 -0.3234
 1433SOL    HW2 5778   4.201   2.370   2.369  0.6982  0.5246  0.8144
 1433SOL    HW3 5779   4.348   2.332   2.377  0.5164 -0.3215  0.1811
 1433SOL    MW4 5780   4.265   2.319   2.400  0.4425 -0.3655 -0.1070
 1434SOL     OW 5781   4.055   2.447   2.264  0.1107  0.0238 -0.5922
 1434SOL    HW2 5782   4.046   2.528   2.314  0.1556 -0.4424  0.1727
 1434SOL    HW3 5783   3.992   2.387   2.304  0.1149 -0.3436 -1.1239
 1434SOL    MW4 5784   4.045   2.449   2.276  0.1173 -0.0861 -0.5615
 1435SOL     OW 5785   4.051   2.689   2.385 -0.1179  0.0155 -0.2019
 1435SOL    HW2 5786   4.045   2.704   2.479 -0.3253 -0.4034 -0.1511
 1435SOL    HW3 5787   3.976   2.736   2.349  0.5762  1.1094 -0.2669
 1435SOL    MW4 5788   4.040   2.697   2.393 -0.0534  0.1047 -0.2038
 1436SOL     OW 5789   4.260   2.847   2.331  0.1066  0.2249  0.3099
 1436SOL    HW2 5790   4.183   2.793   2.350 -0.0713  0.3435 -0.0668
 1436SOL    HW3 5791   4.334   2.788   2.344 -0.0806 -0.0753  0.0298
 1436SOL    MW4 5792   4.260   2.832   2.335  0.0582  0.2010  0.2229
 1437SOL     OW 5793   4.246   3.108   2.429 -0.5057 -0.3027 -0.3965
 1437SOL    HW2 5794   4.253   3.020   2.392  0.1465  0.2951 -1.7255
 1437SOL    HW3 5795   4.321   3.156   2.392  0.0645  0.3664  1.5703
 1437SOL    MW4 5796   4.257   3.103   2.419 -0.3438 -0.1359 -0.3123
 1438SOL     OW 5797   4.022   3.269   2.298  0.3067  0.2499  0.0388
 1438SOL    HW2 5798   4.013   3.357   2.335 -1.2371 -0.3707  1.1775
 1438SOL    HW3 5799   4.092   3.229   2.349  0.8184  0.7070 -0.2922
 1438SOL    MW4 5800   4.030   3.275   2.310  0.1707  0.2284  0.1454
 1439SOL     OW 5801   4.010   3.519   2.365  0.1076  0.0033 -0.1970
 1439SOL    HW2 5802   3.930   3.567   2.346  0.5652  0.8821  0.0794
 1439SOL    HW3 5803   4.017   3.522   2.461  0.7059  0.3022 -0.2524
 1439SOL    MW4 5804   4.000   3.526   2.375  0.2465  0.1585 -0.1678
 1440SOL     OW 5805   4.272   3.578   2.251  0.6187  0.1219  0.3316
 1440SOL    HW2 5806   4.263   3.669   2.281 -0.1458 -0.1220  0.8558
 1440SOL    HW3 5807   4.192   3.535   2.281  1.0737 -0.7802  0.2619
 1440SOL    MW4 5808   4.260   3.585   2.259  0.5774 -0.0291  0.3917
 1441SOL     OW 5809   4.240   3.833   2.344 -0.2454 -0.1943 -0.3419
 1441SOL    HW2 5810   4.251   3.829   2.439 -0.7383 -0.4774 -0.2929
 1441SOL    HW3 5811   4.315   3.883   2.313 -2.0604  3.2115  0.5394
 1441SOL    MW4 5812   4.251   3.839   2.352 -0.5503  0.2177 -0.2191
 1442SOL     OW 5813   4.036   4.001   2.293 -0.8585  0.3205  0.2315
 1442SOL    HW2 5814   4.114   3.949   2.314 -0.1721  1.7354  1.3069
 1442SOL    HW3 5815   4.039   4.011   2.198 -0.6372 -1.0351  0.0851
 1442SOL    MW4 5816   4.047   3.996   2.283 -0.7391  0.3283  0.3543
 1443SOL     OW 5817   3.988   4.249   2.406 -0.6958  0.8335 -0.3908
 1443SOL    HW2 5818   4.074   4.281   2.379  0.6503 -0.1414  2.4989
 1443SOL    HW3 5819   3.980   4.163   2.364  0.6058  0.0972  0.7915
 1443SOL    MW4 5820   3.999   4.242   2.397 -0.3467  0.6080  0.1466
 1444SOL     OW 5821   4.242   4.359   2.316  0.2431 -0.3515 -0.2969
 1444SOL    HW2 5822   4.250   4.452   2.334 -0.6657 -0.4562  0.7114
 1444SOL    HW3 5823   4.324   4.321   2.346  0.6916  0.1395 -0.8817
 1444SOL    MW4 5824   4.254   4.366   2.322  0.1822 -0.3009 -0.2408
 1445SOL     OW 5825   0.205   0.044   2.691 -0.6609 -0.5718  0.2228
 1445SOL    HW2 5826   0.230  -0.039   2.731  0.8582 -0.2306 -0.0126
 1445SOL    HW3 5827   0.130   0.074   2.743 -0.1190 -1.2391  1.4021
 1445SOL    MW4 5828   0.198   0.037   2.703 -0.3890 -0.6148  0.3474
 1446SOL     OW 5829   4.485   0.127   2.825 -0.6671 -0.1437 -0.0832
 1446SOL    HW2 5830   4.498   0.115   2.919  1.3015 -0.7749 -0.4063
 1446SOL    HW3 5831   4.487   0.222   2.812 -1.2148 -0.0436  0.5351
 1446SOL    MW4 5832   4.487   0.138   2.836 -0.4797 -0.2137 -0.0443
 1447SOL     OW 5833   4.481   0.387   2.746  0.2905  0.5078  0.5136
 1447SOL    HW2 5834   4.561   0.438   2.753  0.3420  0.2552  1.8911
 1447SOL    HW3 5835   4.466   0.378   2.652  1.1584  1.6728  0.2579
 1447SOL    MW4 5836   4.489   0.392   2.735  0.4115  0.6282  0.6611
 1448SOL     OW 5837   0.226   0.522   2.759  0.5352 -0.5435  0.1475
 1448SOL    HW2 5838   0.241   0.526   2.854 -0.5568 -0.7130  0.3347
 1448SOL    HW3 5839   0.292   0.461   2.727  1.3103 -0.0113  0.7101
 1448SOL    MW4 5840   0.237   0.515   2.768  0.4934 -0.4957  0.2468
 1449SOL     OW 5841   0.208   0.772   2.627 -0.1903  0.4810  0.0897
 1449SOL    HW2 5842   0.276   0.820   2.675 -1.2402  0.1922  1.9066
 1449SOL    HW3 5843   0.211   0.684   2.664 -0.3687 -0.0209 -1.0719
 1449SOL    MW4 5844   0.217   0.767   2.638 -0.3523  0.3768  0.1762
 1450SOL     OW 5845   0.004   0.898   2.764 -0.0531  0.0845  0.2245
 1450SOL    HW2 5846  -0.080   0.859   2.740  0.3384  0.3262 -1.5462
 1450SOL    HW3 5847   0.069   0.848   2.715  0.7514  0.6971  0.6468
 1450SOL    MW4 5848   0.001   0.886   2.755  0.1048  0.1972  0.0465
 1451SOL     OW 5849   0.013   1.174   2.689  0.0103  0.2665  0.3854
 1451SOL    HW2 5850   0.100   1.198   2.720  0.2856  0.3567 -0.4413
 1451SOL    HW3 5851   0.000   1.085   2.722  0.4261  0.2425  0.4874
 1451SOL    MW4 5852   0.023   1.165   2.697  0.1016  0.2754  0.2899
 1452SOL     OW 5853   0.241   1.290   2.776 -0.1226  0.7360 -0.1418
 1452SOL    HW2 5854   0.321   1.253   2.739 -0.1976  1.1595 -0.7257
 1452SOL    HW3 5855   0.231   1.374   2.733 -1.6830  0.0416 -1.1633
 1452SOL    MW4 5856   0.250   1.296   2.765 -0.3384  0.7002 -0.3533
 1453SOL     OW 5857   0.201   1.543   2.680 -0.1297  0.1954 -0.1952
 1453SOL    HW2 5858   0.281   1.576   2.721 -1.0041  1.4533  0.5297
 1453SOL    HW3 5859   0.131   1.596   2.718 -0.8917  2.0117 -3.9226
 1453SOL    MW4 5860   0.202   1.554   2.690 -0.3456  0.6009 -0.5913
 1454SOL     OW 5861   4.455   1.660   2.778 -0.2504  0.4168  0.3881
 1454SOL    HW2 5862   4.445   1.663   2.873  1.4618  1.1898  0.5516
 1454SOL    HW3 5863   4.458   1.752   2.751  0.9143  0.2013 -0.2347
 1454SOL    MW4 5864   4.454   1.673   2.787  0.1292  0.4903  0.3273
 1455SOL     OW 5865   4.476   1.910   2.657  0.2794 -0.4261  0.2821
 1455SOL    HW2 5866   4.546   1.974   2.667  2.8222 -3.0800  0.1726
 1455SOL    HW3 5867   4.477   1.887   2.564 -1.6226  0.4180  0.0203
 1455SOL    MW4 5868   4.485   1.915   2.646  0.3648 -0.6649  0.2329
 1456SOL     OW 5869   0.206   2.043   2.741 -0.2486 -0.1136  0.3331
 1456SOL    HW2 5870   0.284   1.999   2.707  0.1253  0.3421  0.5945
 1456SOL    HW3 5871   0.216   2.135   2.715 -0.6306 -0.0258  0.4828
 1456SOL    MW4 5872   0.217   2.050   2.733 -0.2497 -0.0420  0.3872
 1457SOL     OW 5873   0.218   2.308   2.664 -0.1580  0.2764 -0.0386
 1457SOL    HW2 5874   0.298   2.356   2.683 -0.4286  0.1894  1.3847
 1457SOL    HW3 5875   0.147   2.364   2.697 -0.4814 -0.9806  1.5111
 1457SOL    MW4 5876   0.219   2.322   2.671 -0.2363  0.0989  0.3538
 1458SOL     OW 5877   0.007   2.465   2.769 -0.2791 -0.0457 -0.0427
 1458SOL    HW2 5878   0.001   2.468   2.864 -1.1238  0.1283 -0.0970
 1458SOL    HW3 5879  -0.070   2.417   2.742  0.8438 -1.6028 -0.5523
 1458SOL    MW4 5880  -0.004   2.459   2.778 -0.2427 -0.2279 -0.1171
 1459SOL     OW 5881   0.017   2.718   2.651  0.2216  0.3976  0.0244
 1459SOL    HW2 5882  -0.069   2.756   2.671  0.3916  0.8227 -0.0403
 1459SOL    HW3 5883   0.023   2.641   2.707  0.8344  1.7618  1.8735
 1459SOL    MW4 5884   0.006   2.713   2.661  0.3247  0.6337  0.2601
 1460SOL     OW 5885   0.226   2.832   2.793  0.0475  0.1608  0.3430
 1460SOL    HW2 5886   0.215   2.925   2.773  0.3773  0.9376  3.5552
 1460SOL    HW3 5887   0.151   2.790   2.750 -1.0761  2.1243  0.3193
 1460SOL    MW4 5888   0.214   2.839   2.785 -0.0572  0.5224  0.7639
 1461SOL     OW 5889   0.203   3.097   2.742  0.3187  0.2441 -0.3847
 1461SOL    HW2 5890   0.292   3.125   2.762  0.6481  0.1464 -1.6866
 1461SOL    HW3 5891   0.195   3.109   2.648 -0.9615 -0.0054 -0.3158
 1461SOL    MW4 5892   0.213   3.102   2.732  0.1932  0.1981 -0.5474
 1462SOL     OW 5893   4.465   3.255   2.781 -0.0853  0.0803  0.3552
 1462SOL    HW2 5894   4.388   3.206   2.750  0.6494 -1.1158  0.4050
 1462SOL    HW3 5895   4.537   3.193   2.777  0.9741  1.3065 -0.0280
 1462SOL    MW4 5896   4.464   3.241   2.777  0.1512  0.0842  0.3114
 1463SOL     OW 5897   4.487   3.523   2.677 -0.4628  0.0876 -0.2496
 1463SOL    HW2 5898   4.550   3.571   2.731  0.8920 -0.5217 -1.2637
 1463SOL    HW3 5899   4.494   3.433   2.706 -1.0500  0.0534 -0.2073
 1463SOL    MW4 5900   4.496   3.518   2.688 -0.3615  0.0026 -0.3779
 1464SOL     OW 5901   0.183   3.669   2.825 -0.0551  0.1021  0.1900
 1464SOL    HW2 5902   0.213   3.695   2.912  0.1905  1.0223 -0.1569
 1464SOL    HW3 5903   0.252   3.612   2.791  2.3922  3.8188 -1.4118
 1464SOL    MW4 5904   0.196   3.665   2.832  0.3002  0.7138 -0.0672
 1465SOL     OW 5905   0.231   3.900   2.658 -0.6620 -0.1154  1.0940
 1465SOL    HW2 5906   0.214   3.815   2.699  0.9340 -0.6226  0.7334
 1465SOL    HW3 5907   0.216   3.884   2.564 -0.0476 -0.0910  0.9897
 1465SOL    MW4 5908   0.227   3.886   2.651 -0.3704 -0.1788  1.0326
 1466SOL     OW 5909   0.036   4.026   2.803  0.6227  0.1366  0.6628
 1466SOL    HW2 5910   0.005   4.105   2.759  0.9089  0.9704  1.9300
 1466SOL    HW3 5911   0.104   3.991   2.746 -1.1366 -0.5412 -1.0986
 1466SOL    MW4 5912   0.041   4.031   2.790  0.4284  0.1569  0.5972
 1467SOL     OW 5913   4.455   4.262   2.694  0.1677 -0.0304 -0.3770
 1467SOL    HW2 5914   4.381   4.320   2.710  1.0713  1.1521 -0.4080
 1467SOL    HW3 5915   4.532   4.314   2.720  0.8878 -1.7373  1.0038
 1467SOL    MW4 5916   4.456   4.277   2.700  0.3819 -0.1001 -0.1988
 1468SOL     OW 5917   0.171   4.438   2.758  0.1984 -0.2057 -0.4758
 1468SOL    HW2 5918   0.147   4.446   2.851  0.3052 -0.4338 -0.4270
 1468SOL    HW3 5919   0.251   4.385   2.759  0.8516  0.7573 -0.6192
 1468SOL    MW4 5920   0.178   4.432   2.771  0.2987 -0.1087 -0.4883
 1469SOL     OW 5921   0.650   4.632   2.670  0.1504 -0.2147 -0.0665
 1469SOL    HW2 5922   0.723   4.662   2.725 -0.0460  0.2955 -0.0756
 1469SOL    HW3 5923   0.573   4.674   2.708 -0.3171 -1.7496  0.7088
 1469SOL    MW4 5924   0.649   4.642   2.682  0.0628 -0.3500  0.0346
 1470SOL     OW 5925   0.459   0.113   2.786 -0.6627 -0.2616 -0.0356
 1470SOL    HW2 5926   0.455   0.096   2.881 -2.4420 -2.2506 -0.4346
 1470SOL    HW3 5927   0.368   0.104   2.756 -0.3240  1.6111 -1.7553
 1470SOL    MW4 5928   0.446   0.110   2.795 -0.8528 -0.2770 -0.3152
 1471SOL     OW 5929   0.461   0.377   2.669 -0.2877  0.0781 -0.0578
 1471SOL    HW2 5930   0.534   0.436   2.689  0.6481 -0.8582 -0.6548
 1471SOL    HW3 5931   0.473   0.303   2.729  0.3181 -0.9373 -1.4236
 1471SOL    MW4 5932   0.472   0.375   2.680 -0.0843 -0.1794 -0.3164
 1472SOL     OW 5933   0.672   0.529   2.725  0.3921 -0.0206 -0.4558
 1472SOL    HW2 5934   0.675   0.524   2.820  1.2802  0.1728 -0.4629
 1472SOL    HW3 5935   0.731   0.460   2.695 -0.6727 -0.7586 -0.8972
 1472SOL    MW4 5936   0.680   0.520   2.733  0.3688 -0.0924 -0.5150
 1473SOL     OW 5937   0.659   0.797   2.663  0.3640  0.1062 -0.4039
 1473SOL    HW2 5938   0.742   0.834   2.693 -0.7004  0.5816  2.0740
 1473SOL    HW3 5939   0.663   0.705   2.689  0.9303 -0.3682 -2.1004
 1473SOL    MW4 5940   0.670   0.790   2.670  0.2983  0.1064 -0.3009
 1474SOL     OW 5941   0.407   0.897   2.773 -0.1655  0.1990 -0.1489
 1474SOL    HW2 5942   0.427   0.983   2.737 -0.2672 -0.2909 -1.4141
 1474SOL    HW3 5943   0.488   0.848   2.765 -0.5340 -0.3013 -0.8543
 1474SOL    MW4 5944   0.420   0.902   2.767 -0.2275  0.0683 -0.4089
 1475SOL     OW 5945   0.460   1.149   2.678  0.4740 -0.3573  0.0821
 1475SOL    HW2 5946   0.537   1.201   2.702  0.2386 -0.4516  1.0517
 1475SOL    HW3 5947   0.457   1.153   2.583  1.5632 -0.1776  0.0533
 1475SOL    MW4 5948   0.470   1.157   2.669  0.5867 -0.3459  0.2062
 1476SOL     OW 5949   0.676   1.288   2.780  0.1918 -0.3920  0.0604
 1476SOL    HW2 5950   0.675   1.255   2.870  1.1199  0.4123  0.3745
 1476SOL    HW3 5951   0.761   1.260   2.745  0.1038 -0.1437 -0.3588
 1476SOL    MW4 5952   0.687   1.280   2.787  0.3026 -0.2531  0.0465
 1477SOL     OW 5953   0.660   1.538   2.655  0.6694 -0.3813 -0.5407
 1477SOL    HW2 5954   0.588   1.583   2.700  1.6932 -1.4379  2.2343
 1477SOL    HW3 5955   0.669   1.455   2.700  2.2197 -1.2086 -2.2852
 1477SOL    MW4 5956   0.652   1.533   2.667  1.0091 -0.6299 -0.4048
 1478SOL     OW 5957   0.429   1.667   2.766 -0.0211 -0.1029  0.1085
 1478SOL    HW2 5958   0.456   1.671   2.858  2.1328  0.3001 -0.5160
 1478SOL    HW3 5959   0.449   1.753   2.731 -0.1767 -0.4793 -0.9214
 1478SOL    MW4 5960   0.435   1.679   2.773  0.2426 -0.0994 -0.1097
 1479SOL     OW 5961   0.459   1.918   2.655 -0.3184 -0.1098  0.6137
 1479SOL    HW2 5962   0.526   1.971   2.699  0.5831  0.0024 -0.8715
 1479SOL    HW3 5963   0.484   1.919   2.563 -1.6715 -1.1136  0.2189
 1479SOL    MW4 5964   0.471   1.925   2.649 -0.3780 -0.2273  0.3657
 1480SOL     OW 5965   0.678   2.044   2.761  0.8028 -0.1100 -0.2221
 1480SOL    HW2 5966   0.693   2.036   2.855 -1.3014 -1.8355  0.0063
 1480SOL    HW3 5967   0.749   1.995   2.721  0.1866 -1.6816  0.5706
 1480SOL    MW4 5968   0.689   2.037   2.768  0.4439 -0.5453 -0.0870
 1481SOL     OW 5969   0.693   2.323   2.697  0.5216 -0.1577  0.3910
 1481SOL    HW2 5970   0.775   2.363   2.726  1.8776 -2.6654  0.1148
 1481SOL    HW3 5971   0.696   2.234   2.731 -2.3267 -0.1682  0.7807
 1481SOL    MW4 5972   0.704   2.316   2.705  0.3247 -0.4900  0.4063
 1482SOL     OW 5973   0.442   2.441   2.722  0.3000 -0.9580  0.2337
 1482SOL    HW2 5974   0.443   2.532   2.692  0.0906 -0.8732  0.4803
 1482SOL    HW3 5975   0.533   2.413   2.716  0.2265 -1.0006 -0.6571
 1482SOL    MW4 5976   0.454   2.449   2.718  0.2626 -0.9522  0.1490
 1483SOL     OW 5977   0.444   2.706   2.683  0.5581  0.3668  0.1584
 1483SOL    HW2 5978   0.528   2.742   2.712  0.4757  0.1484  0.6680
 1483SOL    HW3 5979   0.378   2.765   2.718  0.5205  0.8153 -0.6581
 1483SOL    MW4 5980   0.446   2.718   2.692  0.5423  0.3972  0.1178
 1484SOL     OW 5981   0.678   2.808   2.758 -0.0164 -0.7402 -0.5302
 1484SOL    HW2 5982   0.694   2.821   2.852 -1.6903  0.0147 -0.3322
 1484SOL    HW3 5983   0.657   2.896   2.725 -1.5198 -1.3299 -1.1887
 1484SOL    MW4 5984   0.677   2.822   2.766 -0.4356 -0.7186 -0.5910
 1485SOL     OW 5985   0.687   3.081   2.668  0.5222  0.0274  0.2089
 1485SOL    HW2 5986   0.747   3.129   2.725 -0.4621  1.2530  0.2305
 1485SOL    HW3 5987   0.709   3.110   2.580 -0.2457  0.7241  0.2416
 1485SOL    MW4 5988   0.698   3.091   2.664  0.2910  0.2809  0.2160
 1486SOL     OW 5989   0.452   3.212   2.771  0.0916 -0.0677  0.0467
 1486SOL    HW2 5990   0.474   3.233   2.862  1.3333 -0.9813 -0.0340
 1486SOL    HW3 5991   0.521   3.151   2.743 -0.7585 -0.4517 -1.2375
 1486SOL    MW4 5992   0.464   3.207   2.779  0.1433 -0.2391 -0.1335
 1487SOL     OW 5993   0.400   3.509   2.705  0.1763 -0.0838  0.0638
 1487SOL    HW2 5994   0.428   3.419   2.689  0.2518  0.0675 -0.6869
 1487SOL    HW3 5995   0.412   3.553   2.621 -0.2755  0.5189  0.3106
 1487SOL    MW4 5996   0.405   3.503   2.692  0.1267  0.0157 -0.0029
 1488SOL     OW 5997   0.662   3.639   2.744 -0.5246  0.2879 -0.3701
 1488SOL    HW2 5998   0.690   3.645   2.836  0.1100 -2.2918 -0.3746
 1488SOL    HW3 5999   0.575   3.600   2.749 -0.6217  0.4379 -0.8804
 1488SOL    MW4 6000   0.654   3.635   2.757 -0.4537 -0.0329 -0.4380
 1489SOL     OW 6001   0.656   3.901   2.672  0.0225  0.3296  0.0248
 1489SOL    HW2 6002   0.584   3.950   2.713 -0.4223 -0.4248  0.1771
 1489SOL    HW3 6003   0.647   3.813   2.709 -0.6681 -0.4899 -2.0359
 1489SOL    MW4 6004   0.645   3.896   2.682 -0.1274  0.1218 -0.2270
 1490SOL     OW 6005   0.448   4.027   2.788 -0.1862  0.8063  0.5294
 1490SOL    HW2 6006   0.440   4.118   2.759  1.9315 -0.2421 -3.7306
 1490SOL    HW3 6007   0.368   3.986   2.756  0.1357  0.6057 -0.0337
 1490SOL    MW4 6008   0.436   4.034   2.780  0.1357  0.6413 -0.1070
 1491SOL     OW 6009   0.407   4.291   2.716 -0.1216 -0.2231 -0.1527
 1491SOL    HW2 6010   0.489   4.324   2.753 -0.2884  0.5329 -0.4447
 1491SOL    HW3 6011   0.424   4.285   2.622 -1.0535  1.9336 -0.4919
 1491SOL    MW4 6012   0.420   4.295   2.709 -0.2666  0.1607 -0.2358
 1492SOL     OW 6013   0.654   4.381   2.786 -0.3315 -0.0352 -0.2084
 1492SOL    HW2 6014   0.722   4.325   2.747  0.1807  1.0312 -0.8851
 1492SOL    HW3 6015   0.666   4.465   2.743 -2.3291  0.0712 -0.5911
 1492SOL    MW4 6016   0.665   4.385   2.775 -0.5275  0.1197 -0.3481
 1493SOL     OW 6017   1.120   4.595   2.649 -0.2157 -0.0315 -0.0049
 1493SOL    HW2 6018   1.199   4.644   2.672 -0.5088  0.7124 -0.5501
 1493SOL    HW3 6019   1.130   4.511   2.694  0.1796  0.6143  1.1570
 1493SOL    MW4 6020   1.132   4.591   2.658 -0.2024  0.1516  0.0768
 1494SOL     OW 6021   0.882   0.047   2.795 -0.2084 -0.0953 -0.3648
 1494SOL    HW2 6022   0.920   0.095   2.868  0.9391 -0.4904 -0.6898
 1494SOL    HW3 6023   0.958   0.009   2.749 -1.1161 -2.9836  0.4215
 1494SOL    MW4 6024   0.897   0.048   2.798 -0.1768 -0.5285 -0.3040
 1495SOL     OW 6025   0.850   0.354   2.637 -0.6171  0.6202 -0.0169
 1495SOL    HW2 6026   0.815   0.266   2.643  0.0664  0.2663 -1.0151
 1495SOL    HW3 6027   0.863   0.369   2.543  2.7710  0.3471  0.3273
 1495SOL    MW4 6028   0.847   0.345   2.625 -0.0799  0.5375 -0.1032
 1496SOL     OW 6029   1.106   0.455   2.741  0.2823  0.2539  0.4950
 1496SOL    HW2 6030   1.105   0.547   2.714  1.2771 -0.3169 -1.5689
 1496SOL    HW3 6031   1.028   0.418   2.699  1.5843 -0.5373 -1.2627
 1496SOL    MW4 6032   1.095   0.463   2.732  0.5853  0.0742 -0.0093
 1497SOL     OW 6033   1.092   0.752   2.680  0.1208  0.0015  0.2166
 1497SOL    HW2 6034   1.179   0.780   2.708  1.1492 -1.9872 -0.8881
 1497SOL    HW3 6035   1.102   0.731   2.587 -1.7902  0.7325 -0.1716
 1497SOL    MW4 6036   1.105   0.753   2.671  0.0044 -0.1644  0.0196
 1498SOL     OW 6037   0.899   0.926   2.783  0.1367  0.0133  0.0077
 1498SOL    HW2 6038   0.894   0.910   2.877  0.0206  0.0786  0.0135
 1498SOL    HW3 6039   0.970   0.869   2.752 -0.4901 -0.7756 -0.0216
 1498SOL    MW4 6040   0.907   0.916   2.791  0.0387 -0.0822  0.0045
 1499SOL     OW 6041   0.899   1.164   2.662  0.3093  0.6350 -0.0912
 1499SOL    HW2 6042   0.893   1.080   2.707  1.2854  0.7598  0.2798
 1499SOL    HW3 6043   0.907   1.141   2.569 -0.4893  0.3541 -0.0965
 1499SOL    MW4 6044   0.899   1.150   2.655  0.3328  0.6144 -0.0429
 1500SOL     OW 6045   1.153   1.243   2.743  0.1454 -0.2182 -0.2958
 1500SOL    HW2 6046   1.185   1.333   2.736  1.4209 -0.6474 -0.0954
 1500SOL    HW3 6047   1.062   1.248   2.715 -0.0551  1.2898  0.5426
 1500SOL    MW4 6048   1.145   1.256   2.739  0.2873 -0.0758 -0.1585
 1501SOL     OW 6049   1.165   1.520   2.687 -0.3361 -0.4764  0.2586
 1501SOL    HW2 6050   1.076   1.531   2.721 -1.2194 -1.8927 -1.4896
 1501SOL    HW3 6051   1.158   1.539   2.594  0.7336 -2.6436 -0.3019
 1501SOL    MW4 6052   1.152   1.524   2.679 -0.3115 -0.9493 -0.0458
 1502SOL     OW 6053   0.910   1.638   2.738 -0.4875 -0.0815 -0.5428
 1502SOL    HW2 6054   0.912   1.663   2.830 -0.4063  0.7536 -0.7656
 1502SOL    HW3 6055   0.827   1.592   2.727 -0.0669 -1.0265  0.1590
 1502SOL    MW4 6056   0.899   1.635   2.749 -0.4213 -0.0961 -0.4795
 1503SOL     OW 6057   0.909   1.896   2.679 -0.1340 -0.0088 -0.3728
 1503SOL    HW2 6058   0.972   1.924   2.745 -0.8066  0.5888  0.0261
 1503SOL    HW3 6059   0.907   1.801   2.686  0.8513 -0.0462 -0.5120
 1503SOL    MW4 6060   0.917   1.887   2.689 -0.0927  0.0652 -0.3383
 1504SOL     OW 6061   1.140   2.030   2.802 -0.1036  0.1766  0.1771
 1504SOL    HW2 6062   1.219   1.990   2.766 -0.8940 -0.8412 -0.4827
 1504SOL    HW3 6063   1.126   2.108   2.748  1.2714  1.1900  1.2644
 1504SOL    MW4 6064   1.148   2.035   2.790 -0.0266  0.1757  0.2337
 1505SOL     OW 6065   1.115   2.284   2.689  0.1221 -0.0402  0.0236
 1505SOL    HW2 6066   1.193   2.328   2.722 -1.2532  1.8739  0.7668
 1505SOL    HW3 6067   1.121   2.292   2.594  0.4094  0.8480  0.1132
 1505SOL    MW4 6068   1.126   2.291   2.681 -0.0215  0.3297  0.1335
 1506SOL     OW 6069   0.936   2.481   2.771  0.1917  0.2887  0.2835
 1506SOL    HW2 6070   0.929   2.556   2.711 -2.2920 -1.1099 -1.3010
 1506SOL    HW3 6071   0.998   2.422   2.728 -2.2623 -1.1193 -1.4955
 1506SOL    MW4 6072   0.943   2.483   2.757 -0.4598 -0.0818 -0.1605
 1507SOL     OW 6073   0.905   2.738   2.642  0.0697 -0.3660 -0.3664
 1507SOL    HW2 6074   0.968   2.775   2.703 -0.5814  2.6283 -1.4381
 1507SOL    HW3 6075   0.819   2.758   2.680 -0.3155 -2.1656 -0.2092
 1507SOL    MW4 6076   0.902   2.746   2.655 -0.0671 -0.2084 -0.4871
 1508SOL     OW 6077   1.094   2.855   2.804  0.0286  0.1949 -0.0204
 1508SOL    HW2 6078   1.120   2.871   2.895  1.9954  1.9692 -0.8514
 1508SOL    HW3 6079   1.161   2.798   2.769 -0.5764 -0.2645 -0.4425
 1508SOL    MW4 6080   1.106   2.850   2.811  0.2083  0.3684 -0.1860
 1509SOL     OW 6081   1.148   3.096   2.673  0.0000  0.0000 -0.2042
 1509SOL    HW2 6082   1.122   3.007   2.697  0.0000  0.0000 -0.2037
 1509SOL    HW3 6083   1.136   3.101   2.578  0.0000  0.0000 -0.2044
 1509SOL    MW4 6084   1.143   3.085   2.664  0.0000  0.0000 -0.2043
 1510SOL     OW 6085   0.919   3.208   2.779  0.0000  0.0000  0.0854
 1510SOL    HW2 6086   0.902   3.287   2.727  0.0000  0.0000  0.1056
 1510SOL    HW3 6087   1.006   3.179   2.750  0.0000  0.0000  0.0641
 1510SOL    MW4 6088   0.928   3.215   2.769  0.0000  0.0000  0.0851
 1511SOL     OW 6089   0.887   3.462   2.651  0.0000  0.0000  0.2853
 1511SOL    HW2 6090   0.961   3.508   2.693  0.0000  0.0000  0.3502
 1511SOL    HW3 6091   0.810   3.512   2.680  0.0000  0.0000  0.1829
 1511SOL    MW4 6092   0.887   3.475   2.661  0.0000  0.0000  0.2804
 1512SOL     OW 6093   1.102   3.599   2.762  0.0000  0.0000 -0.0958
 1512SOL    HW2 6094   1.101   3.626   2.854  0.0000  0.0000 -0.0949
 1512SOL    HW3 6095   1.100   3.681   2.713  0.0000  0.0000 -0.0925
 1512SOL    MW4 6096   1.102   3.613   2.767  0.0000  0.0000 -0.0951
 1513SOL     OW 6097   1.098   3.851   2.634  0.0000  0.0000  0.0627
 1513SOL    HW2 6098   1.178   3.889   2.672  0.0000  0.0000  0.0593
 1513SOL    HW3 6099   1.110   3.859   2.539  0.0000  0.0000  0.0623
 1513SOL    MW4 6100   1.110   3.857   2.626  0.0000  0.0000  0.0625
 1514SOL     OW 6101   0.893   4.008   2.768  0.0000  0.0000  0.2153
 1514SOL    HW2 6102   0.957   3.963   2.713  0.0000  0.0000  0.2123
 1514SOL    HW3 6103   0.809   3.969   2.741  0.0000  0.0000  0.2193
 1514SOL    MW4 6104   0.890   3.997   2.757  0.0000  0.0000  0.2153
 1515SOL     OW 6105   0.888   4.266   2.682  0.0000  0.0000 -0.0827
 1515SOL    HW2 6106   0.892   4.174   2.707  0.0000  0.0000 -0.0833
 1515SOL    HW3 6107   0.884   4.265   2.587  0.0000  0.0000 -0.0827
 1515SOL    MW4 6108   0.888   4.254   2.673  0.0000  0.0000 -0.0827
 1516SOL     OW 6109   1.144   4.351   2.780  0.0000  0.0000 -0.4806
 1516SOL    HW2 6110   1.137   4.378   2.872  0.0000  0.0000 -0.4817
 1516SOL    HW3 6111   1.055   4.327   2.755  0.0000  0.0000 -0.4905
 1516SOL    MW4 6112   1.131   4.351   2.789  0.0000  0.0000 -0.4821
 1517SOL     OW 6113   1.593   4.643   2.660  0.0000  0.0000 -0.3448
 1517SOL    HW2 6114   1.588   4.549   2.677  0.0000  0.0000 -0.3578
 1517SOL    HW3 6115   1.581   4.652   2.566  0.0000  0.0000 -0.3436
 1517SOL    MW4 6116   1.591   4.632   2.650  0.0000  0.0000 -0.3459
 1518SOL     OW 6117   1.348   0.096   2.757  0.2904 -0.2351 -0.4698
 1518SOL    HW2 6118   1.333   0.180   2.713  1.1087 -0.3693 -0.9928
 1518SOL    HW3 6119   1.428   0.062   2.719  0.6045 -0.7099  0.5810
 1518SOL    MW4 6120   1.356   0.103   2.746  0.4399 -0.3154 -0.4003
 1519SOL     OW 6121   1.346   0.358   2.641 -0.0855 -0.3935  0.5250
 1519SOL    HW2 6122   1.419   0.415   2.664  0.0805 -0.5946  0.5072
 1519SOL    HW3 6123   1.268   0.404   2.670 -0.1704  1.0776 -1.9217
 1519SOL    MW4 6124   1.345   0.371   2.648 -0.0747 -0.2260  0.1998
 1520SOL     OW 6125   1.558   0.514   2.742  0.0433 -0.1850  0.2760
 1520SOL    HW2 6126   1.642   0.470   2.725 -0.2632 -0.3130 -0.9203
 1520SOL    HW3 6127   1.580   0.607   2.744  0.1404 -0.1845 -0.5329
 1520SOL    MW4 6128   1.572   0.520   2.740  0.0156 -0.2018  0.0114
 1521SOL     OW 6129   1.628   0.798   2.676  0.3399 -0.1079  0.3638
 1521SOL    HW2 6130   1.540   0.828   2.697  0.9407  1.3566  0.9140
 1521SOL    HW3 6131   1.632   0.797   2.580  0.2382  1.4175  0.3376
 1521SOL    MW4 6132   1.617   0.802   2.666  0.4058  0.2866  0.4327
 1522SOL     OW 6133   1.364   0.835   2.756 -0.0225  0.0647  0.1629
 1522SOL    HW2 6134   1.362   0.839   2.851 -1.4677 -0.7638  0.1750
 1522SOL    HW3 6135   1.351   0.926   2.728  0.1233  0.2661  0.7590
 1522SOL    MW4 6136   1.362   0.848   2.765 -0.1938 -0.0180  0.2432
 1523SOL     OW 6137   1.348   1.084   2.660 -0.6919 -0.2777 -0.1118
 1523SOL    HW2 6138   1.429   1.125   2.691 -0.2150  1.0783 -2.9939
 1523SOL    HW3 6139   1.278   1.134   2.701 -0.0694  1.1285 -0.7320
 1523SOL    MW4 6140   1.349   1.096   2.669 -0.5468  0.0867 -0.5741
 1524SOL     OW 6141   1.576   1.237   2.753 -0.4362  0.3959  0.0997
 1524SOL    HW2 6142   1.569   1.228   2.848 -0.2917  0.6097  0.1309
 1524SOL    HW3 6143   1.663   1.205   2.732 -0.7249 -0.3008 -0.0435
 1524SOL    MW4 6144   1.586   1.232   2.763 -0.4553  0.3324  0.0851
 1525SOL     OW 6145   1.567   1.486   2.682 -0.0281 -1.1863  0.3814
 1525SOL    HW2 6146   1.581   1.392   2.697  1.5980 -1.0821 -0.4220
 1525SOL    HW3 6147   1.570   1.495   2.587  0.3950 -0.2228  0.4873
 1525SOL    MW4 6148   1.569   1.475   2.671  0.2424 -1.0455  0.2897
 1526SOL     OW 6149   1.377   1.653   2.803 -0.1234  0.1159  0.5904
 1526SOL    HW2 6150   1.449   1.605   2.762  0.1256 -0.2301  1.4158
 1526SOL    HW3 6151   1.298   1.608   2.774 -0.0630  1.0495 -1.0470
 1526SOL    MW4 6152   1.376   1.641   2.794 -0.0825  0.1935  0.4833
 1527SOL     OW 6153   1.343   1.899   2.669 -0.5262  0.2475 -0.7207
 1527SOL    HW2 6154   1.340   1.808   2.699 -0.6117  0.4403 -0.1379
 1527SOL    HW3 6155   1.348   1.893   2.574  0.4627 -0.3830 -0.6373
 1527SOL    MW4 6156   1.343   1.886   2.661 -0.4070  0.1897 -0.6328
 1528SOL     OW 6157   1.560   2.053   2.762 -0.1627 -0.0471  0.4183
 1528SOL    HW2 6158   1.638   2.013   2.723 -0.2087 -1.3518  1.6141
 1528SOL    HW3 6159   1.488   1.994   2.738 -0.6436  0.6751  0.0717
 1528SOL    MW4 6160   1.561   2.040   2.754 -0.2322 -0.1240  0.5302
 1529SOL     OW 6161   1.562   2.304   2.673 -0.2752  0.2435 -0.7843
 1529SOL    HW2 6162   1.639   2.350   2.708 -0.9728  0.4232  0.5596
 1529SOL    HW3 6163   1.564   2.218   2.715 -0.2694 -0.1170 -1.5109
 1529SOL    MW4 6164   1.572   2.299   2.683 -0.3664  0.2196 -0.7029
 1530SOL     OW 6165   1.345   2.425   2.791 -0.2371  0.1943  0.3776
 1530SOL    HW2 6166   1.335   2.513   2.754 -1.4543  0.5601  1.4934
 1530SOL    HW3 6167   1.412   2.384   2.738  0.6388  1.9468  0.0817
 1530SOL    MW4 6168   1.352   2.431   2.779 -0.2824  0.4735  0.4859
 1531SOL     OW 6169   1.299   2.691   2.674  0.2729 -0.3745  0.6938
 1531SOL    HW2 6170   1.372   2.752   2.678  0.6128 -0.7093 -0.1718
 1531SOL    HW3 6171   1.282   2.680   2.580 -0.3146 -0.9781  0.8626
 1531SOL    MW4 6172   1.306   2.697   2.662  0.2403 -0.4983  0.6020
 1532SOL     OW 6173   1.561   2.825   2.728 -0.6091 -0.1067 -0.6489
 1532SOL    HW2 6174   1.557   2.836   2.823  0.3599 -1.5458 -0.4318
 1532SOL    HW3 6175   1.636   2.769   2.713 -1.0049 -0.2432 -2.2489
 1532SOL    MW4 6176   1.570   2.819   2.738 -0.5333 -0.3147 -0.8311
 1533SOL     OW 6177   1.548   3.100   2.657  0.7930 -0.3190 -0.4928
 1533SOL    HW2 6178   1.617   3.149   2.702  1.8132 -1.1846 -1.0844
 1533SOL    HW3 6179   1.564   3.009   2.681 -1.7170 -0.3192  1.4468
 1533SOL    MW4 6180   1.559   3.095   2.666  0.5964 -0.4332 -0.3150
 1534SOL     OW 6181   1.366   3.236   2.797 -0.4432 -0.0502 -0.5802
 1534SOL    HW2 6182   1.432   3.181   2.755  0.1211  0.6004 -0.5591
 1534SOL    HW3 6183   1.282   3.195   2.775 -0.2728  1.1275 -3.6746
 1534SOL    MW4 6184   1.363   3.224   2.788 -0.3462  0.1912 -0.9856
 1535SOL     OW 6185   1.350   3.494   2.675  0.5986  0.3523  0.3893
 1535SOL    HW2 6186   1.343   3.410   2.721 -0.4756  0.3272  0.2004
 1535SOL    HW3 6187   1.270   3.540   2.700 -0.9569 -0.4078 -2.9495
 1535SOL    MW4 6188   1.338   3.489   2.684  0.2515  0.2489 -0.0761
 1536SOL     OW 6189   1.569   3.604   2.781 -0.4706 -0.3354  0.1225
 1536SOL    HW2 6190   1.642   3.559   2.739  0.0296  0.0390  0.5840
 1536SOL    HW3 6191   1.491   3.564   2.743 -0.0248 -0.4433 -0.6891
 1536SOL    MW4 6192   1.568   3.593   2.770 -0.3458 -0.3002  0.0763
 1537SOL     OW 6193   1.567   3.854   2.663 -0.2258 -0.1538  0.0506
 1537SOL    HW2 6194   1.491   3.894   2.704  0.4643 -0.0632  1.2841
 1537SOL    HW3 6195   1.568   3.764   2.697  0.9128  0.2170  1.0350
 1537SOL    MW4 6196   1.557   3.847   2.673  0.0155 -0.0930  0.3433
 1538SOL     OW 6197   1.327   3.979   2.767  0.6431  0.4248 -0.6344
 1538SOL    HW2 6198   1.329   3.984   2.862 -1.3273 -0.8795 -0.5000
 1538SOL    HW3 6199   1.335   4.070   2.738 -0.5545  1.0140  0.8191
 1538SOL    MW4 6200   1.328   3.992   2.775  0.2252  0.3304 -0.4249
 1539SOL     OW 6201   1.352   4.229   2.660  0.2891  0.2735  0.1583
 1539SOL    HW2 6202   1.273   4.257   2.706  0.7254  1.5324  0.1498
 1539SOL    HW3 6203   1.325   4.220   2.568  0.1256  0.5420  0.1817
 1539SOL    MW4 6204   1.338   4.231   2.654  0.3252  0.4749  0.1602
 1540SOL     OW 6205   1.558   4.395   2.765 -0.0485 -0.0499 -0.2840
 1540SOL    HW2 6206   1.550   4.413   2.859 -0.8946  2.1605 -0.7747
 1540SOL    HW3 6207   1.486   4.335   2.746 -0.0476 -0.2744  0.3973
 1540SOL    MW4 6208   1.548   4.389   2.775 -0.1600  0.2117 -0.2589
 1541SOL     OW 6209   2.047   4.613   2.706  0.4093  0.2533 -0.3668
 1541SOL    HW2 6210   2.118   4.671   2.733 -0.2370  1.2254 -0.7321
 1541SOL    HW3 6211   2.047   4.617   2.611 -0.9391  1.2572 -0.3428
 1541SOL    MW4 6212   2.056   4.621   2.697  0.1462  0.5140 -0.4120
 1542SOL     OW 6213   1.823   0.112   2.757 -0.7559 -0.1371  0.0008
 1542SOL    HW2 6214   1.895   0.049   2.755 -0.4548  0.2076 -0.0737
 1542SOL    HW3 6215   1.748   0.063   2.723 -0.5255 -0.4595 -0.0487
 1542SOL    MW4 6216   1.822   0.097   2.752 -0.6857 -0.1342 -0.0155
 1543SOL     OW 6217   1.810   0.362   2.658  0.3360 -0.0906  0.5021
 1543SOL    HW2 6218   1.875   0.416   2.703  0.4689  0.0717  0.1113
 1543SOL    HW3 6219   1.814   0.278   2.703  0.6463 -0.0062  0.6336
 1543SOL    MW4 6220   1.819   0.358   2.670  0.3946 -0.0581  0.4680
 1544SOL     OW 6221   1.989   0.509   2.808  0.9193 -0.1739  0.1276
 1544SOL    HW2 6222   2.061   0.454   2.777 -0.6550 -1.0629 -2.0855
 1544SOL    HW3 6223   2.001   0.592   2.761  0.5098 -0.3241 -0.2475
 1544SOL    MW4 6224   2.000   0.513   2.797  0.6574 -0.3110 -0.2139
 1545SOL     OW 6225   2.045   0.754   2.673  0.1465 -0.2276  0.0145
 1545SOL    HW2 6226   1.983   0.821   2.700  0.2746 -0.2531  0.3714
 1545SOL    HW3 6227   2.057   0.768   2.579 -0.6365 -0.4161 -0.1171
 1545SOL    MW4 6228   2.038   0.764   2.664  0.0601 -0.2559  0.0443
 1546SOL     OW 6229   1.836   0.914   2.799 -0.0884  0.1225  0.2897
 1546SOL    HW2 6230   1.828   0.997   2.753 -2.4120  0.7284  1.7027
 1546SOL    HW3 6231   1.768   0.858   2.760 -1.2669  0.2510  2.0819
 1546SOL    MW4 6232   1.826   0.917   2.788 -0.5504  0.2195  0.7126
 1547SOL     OW 6233   1.825   1.159   2.681 -0.1970  0.0529 -0.6452
 1547SOL    HW2 6234   1.903   1.203   2.715  0.1584 -0.1812 -1.1558
 1547SOL    HW3 6235   1.838   1.157   2.586 -0.1649 -1.2524 -0.6147
 1547SOL    MW4 6236   1.837   1.164   2.673 -0.1458 -0.1503 -0.7083
 1548SOL     OW 6237   2.042   1.308   2.774  0.1872 -0.5066  0.3057
 1548SOL    HW2 6238   2.042   1.288   2.868 -0.6310 -0.9261  0.2155
 1548SOL    HW3 6239   2.110   1.252   2.737  1.2987  0.4788  0.8175
 1548SOL    MW4 6240   2.051   1.298   2.782  0.2260 -0.4318  0.3614
 1549SOL     OW 6241   2.000   1.586   2.677 -0.2471 -0.1316 -0.0097
 1549SOL    HW2 6242   1.916   1.624   2.701 -0.0574  0.3747 -0.1365
 1549SOL    HW3 6243   1.999   1.498   2.716 -0.9441 -0.2371 -0.2560
 1549SOL    MW4 6244   1.989   1.579   2.685 -0.3139 -0.0788 -0.0589
 1550SOL     OW 6245   1.744   1.679   2.781 -0.1935  0.1126  0.3169
 1550SOL    HW2 6246   1.744   1.682   2.876 -1.2840  1.1155  0.2933
 1550SOL    HW3 6247   1.667   1.626   2.759 -1.6433  2.2832 -0.0414
 1550SOL    MW4 6248   1.734   1.672   2.791 -0.5286  0.5313  0.2666
 1551SOL     OW 6249   1.768   1.918   2.646 -0.3429 -0.5230 -0.1730
 1551SOL    HW2 6250   1.837   1.969   2.688  0.2243 -0.0830 -1.6108
 1551SOL    HW3 6251   1.758   1.841   2.702  1.9133 -1.0121 -0.4027
 1551SOL    MW4 6252   1.776   1.915   2.659  0.0297 -0.5295 -0.3929
 1552SOL     OW 6253   1.969   2.047   2.759  0.1980  0.9507  0.4377
 1552SOL    HW2 6254   1.973   2.034   2.854 -1.2477 -0.0629  0.3782
 1552SOL    HW3 6255   1.988   2.140   2.747  1.4205  0.8680  1.6346
 1552SOL    MW4 6256   1.972   2.058   2.770  0.1686  0.8059  0.5875
 1553SOL     OW 6257   2.046   2.320   2.723  0.1875 -0.1100  0.2668
 1553SOL    HW2 6258   2.101   2.386   2.766 -0.4788 -0.0430  1.0341
 1553SOL    HW3 6259   2.039   2.350   2.632 -0.4394  1.1126  0.7015
 1553SOL    MW4 6260   2.052   2.333   2.717  0.0167  0.0603  0.4251
 1554SOL     OW 6261   1.787   2.424   2.792 -0.2284  0.5100 -0.1052
 1554SOL    HW2 6262   1.809   2.443   2.884  0.8590 -0.9623 -0.0358
 1554SOL    HW3 6263   1.866   2.382   2.757 -0.6941  0.9104 -1.6724
 1554SOL    MW4 6264   1.801   2.421   2.800 -0.1464  0.3688 -0.3026
 1555SOL     OW 6265   1.801   2.690   2.670 -0.3626  0.0947  0.1271
 1555SOL    HW2 6266   1.791   2.599   2.696  0.4325  0.0516  0.2892
 1555SOL    HW3 6267   1.796   2.689   2.574  0.5324 -0.2346  0.0809
 1555SOL    MW4 6268   1.799   2.678   2.660 -0.1397  0.0458  0.1423
 1556SOL     OW 6269   1.991   2.848   2.799  0.0834 -0.2349 -0.2368
 1556SOL    HW2 6270   2.074   2.809   2.771 -0.2842 -0.1546 -1.5085
 1556SOL    HW3 6271   1.924   2.792   2.757 -0.4619  0.9120 -0.9122
 1556SOL    MW4 6272   1.993   2.835   2.790 -0.0372 -0.0730 -0.4938
 1557SOL     OW 6273   2.039   3.102   2.703 -0.4224 -0.1672 -0.1149
 1557SOL    HW2 6274   2.029   3.016   2.744  0.6592  0.0439  0.6270
 1557SOL    HW3 6275   2.021   3.088   2.610 -0.5150 -1.1290  0.0500
 1557SOL    MW4 6276   2.035   3.089   2.697 -0.2921 -0.2661  0.0045
 1558SOL     OW 6277   1.785   3.192   2.788  0.2163 -0.2428  0.4187
 1558SOL    HW2 6278   1.792   3.285   2.766 -1.0668 -0.3584 -0.5261
 1558SOL    HW3 6279   1.864   3.152   2.752 -0.2413  0.1356 -1.0331
 1558SOL    MW4 6280   1.796   3.199   2.780 -0.0132 -0.2084  0.1023
 1559SOL     OW 6281   1.788   3.440   2.687  0.1269 -0.2609 -0.0592
 1559SOL    HW2 6282   1.859   3.495   2.721  0.3968 -1.0248  0.6447
 1559SOL    HW3 6283   1.789   3.455   2.593  1.7426 -0.8452 -0.1588
 1559SOL    MW4 6284   1.798   3.449   2.679  0.3756 -0.4387  0.0210
 1560SOL     OW 6285   2.017   3.601   2.776  0.2134  0.1753  0.0584
 1560SOL    HW2 6286   2.008   3.606   2.871  0.3382  1.7999 -0.0021
 1560SOL    HW3 6287   2.100   3.556   2.762  0.3971  0.3047  0.7216
 1560SOL    MW4 6288   2.027   3.596   2.786  0.2539  0.4067  0.1376
 1561SOL     OW 6289   2.030   3.877   2.671 -0.2767 -0.1851 -0.3772
 1561SOL    HW2 6290   1.948   3.907   2.710  0.3994 -0.2165  1.0866
 1561SOL    HW3 6291   2.048   3.793   2.715  0.0200 -0.6764 -1.4159
 1561SOL    MW4 6292   2.022   3.870   2.682 -0.1483 -0.2539 -0.3214
 1562SOL     OW 6293   1.772   3.973   2.801  0.4117  0.2403  0.1297
 1562SOL    HW2 6294   1.769   4.068   2.792  1.3159  0.2295 -0.3601
 1562SOL    HW3 6295   1.697   3.942   2.751  0.6723  0.6441 -0.5218
 1562SOL    MW4 6296   1.762   3.982   2.793  0.5654  0.2921 -0.0207
 1563SOL     OW 6297   1.768   4.240   2.668 -0.0219  0.3048 -0.1824
 1563SOL    HW2 6298   1.702   4.303   2.699 -0.5183 -0.2298 -0.1527
 1563SOL    HW3 6299   1.761   4.243   2.572  1.2406  1.6651 -0.2535
 1563SOL    MW4 6300   1.758   4.249   2.659  0.0793  0.4134 -0.1879
 1564SOL     OW 6301   2.018   4.322   2.740 -0.1316 -0.4473  0.7650
 1564SOL    HW2 6302   2.006   4.417   2.737  0.0830 -0.4283  0.5304
 1564SOL    HW3 6303   1.937   4.287   2.703 -0.0149 -0.3444  0.4092
 1564SOL    MW4 6304   2.006   4.330   2.735 -0.0877 -0.4311  0.6874
 1565SOL     OW 6305   2.448   0.007   2.665 -0.4394 -0.1000  0.0521
 1565SOL    HW2 6306   2.525   0.053   2.698 -0.9447  0.0565  1.0597
 1565SOL    HW3 6307   2.438   0.037   2.575  0.0679  0.6836  0.2527
 1565SOL    MW4 6308   2.457   0.017   2.658 -0.4392  0.0241  0.2115
 1566SOL     OW 6309   2.236   0.132   2.783 -0.4378  0.1418 -0.4290
 1566SOL    HW2 6310   2.242   0.142   2.878 -1.4666  0.2436 -0.3774
 1566SOL    HW3 6311   2.321   0.096   2.758  0.1556  0.9147  0.4225
 1566SOL    MW4 6312   2.248   0.129   2.792 -0.4952  0.2571 -0.3099
 1567SOL     OW 6313   2.209   0.390   2.681 -0.0553 -0.0730  0.4148
 1567SOL    HW2 6314   2.207   0.298   2.708 -0.2616  0.0884  0.9500
 1567SOL    HW3 6315   2.218   0.386   2.586  0.4188 -0.6442  0.4807
 1567SOL    MW4 6316   2.210   0.377   2.672 -0.0198 -0.1270  0.4940
 1568SOL     OW 6317   2.457   0.461   2.797  0.3079  0.0048 -0.2015
 1568SOL    HW2 6318   2.465   0.555   2.778 -1.1204  0.6392  1.9767
 1568SOL    HW3 6319   2.370   0.438   2.764 -0.6509  0.2512  2.0084
 1568SOL    MW4 6320   2.446   0.471   2.790 -0.0072  0.1210  0.3774
 1569SOL     OW 6321   2.475   0.738   2.678 -0.0096 -0.1978  0.0796
 1569SOL    HW2 6322   2.407   0.798   2.709  0.5586 -0.4360  1.8765
 1569SOL    HW3 6323   2.460   0.731   2.584 -0.5805  2.1300 -0.0337
 1569SOL    MW4 6324   2.464   0.745   2.670 -0.0098  0.0779  0.3016
 1570SOL     OW 6325   2.271   0.892   2.784  0.1803  0.2627  0.1160
 1570SOL    HW2 6326   2.266   0.891   2.880 -0.9923  2.8336  0.1057
 1570SOL    HW3 6327   2.188   0.856   2.755  0.1462  0.4062  0.0393
 1570SOL    MW4 6328   2.260   0.887   2.793  0.0210  0.6208  0.1047
 1571SOL     OW 6329   2.250   1.158   2.661 -0.7521  0.0315  0.4893
 1571SOL    HW2 6330   2.233   1.068   2.688 -0.5047  0.1997  1.2257
 1571SOL    HW3 6331   2.262   1.154   2.566 -0.7387 -0.7102  0.5254
 1571SOL    MW4 6332   2.250   1.146   2.652 -0.7176 -0.0442  0.5913
 1572SOL     OW 6333   2.472   1.317   2.787 -0.3237  0.0053 -0.7021
 1572SOL    HW2 6334   2.545   1.261   2.762  0.5938  1.1644 -0.6895
 1572SOL    HW3 6335   2.394   1.267   2.765  0.4670 -1.7505  0.4105
 1572SOL    MW4 6336   2.471   1.303   2.781 -0.0985 -0.0736 -0.5534
 1573SOL     OW 6337   2.496   1.579   2.702 -0.2380 -0.6690  0.2092
 1573SOL    HW2 6338   2.412   1.614   2.733  0.0406 -0.1661  0.3897
 1573SOL    HW3 6339   2.489   1.484   2.718 -0.8708 -0.6631 -0.0114
 1573SOL    MW4 6340   2.484   1.571   2.708 -0.2849 -0.6019  0.2041
 1574SOL     OW 6341   2.255   1.684   2.777 -0.2060 -0.2571 -0.3404
 1574SOL    HW2 6342   2.245   1.775   2.748  1.1379 -0.4698 -1.5715
 1574SOL    HW3 6343   2.172   1.643   2.756 -0.6360  0.5724 -0.2726
 1574SOL    MW4 6344   2.243   1.691   2.770 -0.0854 -0.1757 -0.4940
 1575SOL     OW 6345   2.225   1.949   2.705 -0.2110 -0.7789  0.1052
 1575SOL    HW2 6346   2.137   1.986   2.715 -0.4353 -1.3247  0.1559
 1575SOL    HW3 6347   2.236   1.941   2.610  0.2703  0.4432  0.0451
 1575SOL    MW4 6348   2.215   1.953   2.693 -0.1771 -0.6895  0.1042
 1576SOL     OW 6349   2.451   2.070   2.744  0.7089 -0.2976 -0.2588
 1576SOL    HW2 6350   2.428   2.163   2.735 -0.7090 -0.5897  0.2384
 1576SOL    HW3 6351   2.370   2.023   2.725  0.6596 -1.3306  2.3381
 1576SOL    MW4 6352   2.437   2.076   2.740  0.5152 -0.4725  0.1495
 1577SOL     OW 6353   2.471   2.375   2.663  0.1295 -0.0137  0.3132
 1577SOL    HW2 6354   2.564   2.395   2.674 -0.0639  1.6526 -0.9204
 1577SOL    HW3 6355   2.460   2.357   2.570 -1.1687  2.0329  0.0323
 1577SOL    MW4 6356   2.482   2.375   2.652 -0.0675  0.4759  0.1132
 1578SOL     OW 6357   2.261   2.500   2.785  0.1553  0.0469 -0.1038
 1578SOL    HW2 6358   2.270   2.487   2.880 -0.0807  0.4401 -0.0276
 1578SOL    HW3 6359   2.348   2.483   2.751  0.6882  1.6954  0.3888
 1578SOL    MW4 6360   2.273   2.496   2.793  0.1945  0.3159 -0.0288
 1579SOL     OW 6361   2.232   2.744   2.696  0.0980  0.1739  0.3253
 1579SOL    HW2 6362   2.313   2.790   2.719  0.1646  0.4340 -0.4247
 1579SOL    HW3 6363   2.238   2.661   2.742  1.1067 -0.0822 -0.2623
 1579SOL    MW4 6364   2.244   2.739   2.705  0.2398  0.1743  0.1490
 1580SOL     OW 6365   2.477   2.865   2.751 -0.1533  0.1692  0.2176
 1580SOL    HW2 6366   2.555   2.811   2.737  1.3053  2.0654  0.8146
 1580SOL    HW3 6367   2.501   2.951   2.716 -2.1680  0.6343 -0.0379
 1580SOL    MW4 6368   2.491   2.869   2.745 -0.2267  0.4809  0.2625
 1581SOL     OW 6369   2.505   3.126   2.637 -0.4544  0.0217  0.1816
 1581SOL    HW2 6370   2.419   3.153   2.670  0.1557  0.4484  1.4455
 1581SOL    HW3 6371   2.488   3.096   2.548 -1.6764  1.4914 -0.0997
 1581SOL    MW4 6372   2.491   3.125   2.630 -0.5352  0.2720  0.3114
 1582SOL     OW 6373   2.286   3.204   2.760  0.0024 -0.1526 -0.2197
 1582SOL    HW2 6374   2.287   3.212   2.856  0.6819  0.9502 -0.3073
 1582SOL    HW3 6375   2.204   3.159   2.741 -0.6858  0.6265  0.8254
 1582SOL    MW4 6376   2.275   3.199   2.770  0.0014  0.0956 -0.0935
 1583SOL     OW 6377   2.250   3.482   2.705  0.1975 -0.2908  0.1547
 1583SOL    HW2 6378   2.339   3.501   2.732 -0.3462 -1.1258  2.6637
 1583SOL    HW3 6379   2.239   3.388   2.722 -1.9273  0.2833  2.3660
 1583SOL    MW4 6380   2.260   3.472   2.711 -0.1545 -0.3254  0.7775
 1584SOL     OW 6381   2.495   3.585   2.765 -0.6277 -0.2769 -0.2216
 1584SOL    HW2 6382   2.487   3.589   2.861  1.8112 -0.3515  0.0076
 1584SOL    HW3 6383   2.471   3.672   2.735 -2.4138 -0.5509  0.3664
 1584SOL    MW4 6384   2.491   3.597   2.774 -0.5414 -0.3228 -0.1137
 1585SOL     OW 6385   2.475   3.849   2.661  0.0685 -0.4022  0.0548
 1585SOL    HW2 6386   2.554   3.893   2.692  0.1459  0.0642 -0.7833
 1585SOL    HW3 6387   2.403   3.901   2.697  0.1531 -0.1392 -0.1545
 1585SOL    MW4 6388   2.476   3.861   2.670  0.0899 -0.3061 -0.0834
 1586SOL     OW 6389   2.276   3.988   2.777 -0.0062 -0.4114 -0.3261
 1586SOL    HW2 6390   2.249   3.990   2.869  0.3046  2.0878 -0.2620
 1586SOL    HW3 6391   2.200   3.953   2.730 -0.6983 -0.3082  0.7007
 1586SOL    MW4 6392   2.263   3.984   2.783 -0.0565 -0.0679 -0.1822
 1587SOL     OW 6393   2.273   4.254   2.668  0.1226 -0.0175 -0.5939
 1587SOL    HW2 6394   2.265   4.166   2.706 -1.3747  0.2986 -0.1688
 1587SOL    HW3 6395   2.193   4.299   2.694  0.0912  0.9213 -2.2539
 1587SOL    MW4 6396   2.261   4.248   2.676 -0.0789  0.1478 -0.7567
 1588SOL     OW 6397   2.486   4.401   2.771  0.3695  0.0396 -0.3222
 1588SOL    HW2 6398   2.396   4.370   2.762 -0.0270  1.0100  0.2630
 1588SOL    HW3 6399   2.485   4.489   2.734  1.5283 -0.6619 -2.1096
 1588SOL    MW4 6400   2.474   4.409   2.765  0.4699  0.0749 -0.4807
 1589SOL     OW 6401   2.911   4.643   2.691  0.1015  0.0854  0.1910
 1589SOL    HW2 6402   2.994   4.674   2.725  0.7157 -0.9921 -0.2850
 1589SOL    HW3 6403   2.913   4.665   2.597 -0.5426  0.8724  0.3552
 1589SOL    MW4 6404   2.922   4.650   2.683  0.0978  0.0472  0.1497
 1590SOL     OW 6405   2.693   0.128   2.779 -0.1291 -0.2341  0.3761
 1590SOL    HW2 6406   2.679   0.108   2.872  1.8780  1.5067  1.1001
 1590SOL    HW3 6407   2.748   0.057   2.746 -0.1984 -0.4442  0.7148
 1590SOL    MW4 6408   2.698   0.116   2.787  0.1266 -0.0322  0.5162
 1591SOL     OW 6409   2.682   0.363   2.650  0.0719 -0.9386  1.1890
 1591SOL    HW2 6410   2.695   0.278   2.691 -3.6048 -2.0312  0.2072
 1591SOL    HW3 6411   2.604   0.399   2.692 -1.2733 -0.2112 -1.8114
 1591SOL    MW4 6412   2.673   0.357   2.661 -0.5908 -0.9868  0.6638
 1592SOL     OW 6413   2.902   0.531   2.772 -0.3860  0.4152 -0.0341
 1592SOL    HW2 6414   2.886   0.615   2.727  0.0872  0.3032 -0.4132
 1592SOL    HW3 6415   2.852   0.467   2.722 -1.2789  0.5762  0.6468
 1592SOL    MW4 6416   2.893   0.534   2.760 -0.4413  0.4217  0.0057
 1593SOL     OW 6417   2.888   0.774   2.642  0.5575 -0.3098 -0.3730
 1593SOL    HW2 6418   2.970   0.810   2.676  0.0982  0.3435  0.0574
 1593SOL    HW3 6419   2.820   0.812   2.697 -0.0096 -1.1747 -0.4622
 1593SOL    MW4 6420   2.890   0.784   2.653  0.4220 -0.3377 -0.3281
 1594SOL     OW 6421   2.689   0.892   2.772  0.3031  0.4481  0.0631
 1594SOL    HW2 6422   2.702   0.865   2.863  1.6628 -0.1622 -0.2966
 1594SOL    HW3 6423   2.620   0.833   2.740  0.9874 -0.4589  0.2217
 1594SOL    MW4 6424   2.682   0.880   2.780  0.5727  0.2479  0.0365
 1595SOL     OW 6425   2.656   1.150   2.672 -0.0798 -0.7057 -0.5915
 1595SOL    HW2 6426   2.740   1.194   2.678  0.2251 -1.2202 -1.0278
 1595SOL    HW3 6427   2.670   1.065   2.714 -0.4689 -0.6571 -0.3635
 1595SOL    MW4 6428   2.669   1.144   2.678 -0.0908 -0.7671 -0.6189
 1596SOL     OW 6429   2.871   1.281   2.781 -0.2448 -0.7849  0.0466
 1596SOL    HW2 6430   2.851   1.278   2.875 -1.3207  0.4147 -0.1355
 1596SOL    HW3 6431   2.959   1.245   2.775  0.2318  0.0463  1.6386
 1596SOL    MW4 6432   2.880   1.276   2.793 -0.3240 -0.5170  0.2325
 1597SOL     OW 6433   2.908   1.523   2.650 -0.1728  0.8387  0.3950
 1597SOL    HW2 6434   2.845   1.593   2.670 -0.5945  0.6054 -0.1088
 1597SOL    HW3 6435   2.879   1.449   2.703  0.3220  1.0671  0.9907
 1597SOL    MW4 6436   2.896   1.523   2.660 -0.1631  0.8380  0.4075
 1598SOL     OW 6437   2.738   1.714   2.758  0.3395  0.0670  0.0210
 1598SOL    HW2 6438   2.738   1.727   2.853  0.3851  1.4412 -0.1572
 1598SOL    HW3 6439   2.654   1.672   2.739  1.2676 -2.2922  0.9222
 1598SOL    MW4 6440   2.727   1.710   2.768  0.4678 -0.0629  0.1166
 1599SOL     OW 6441   2.693   1.956   2.627 -0.6361  0.3539 -0.1584
 1599SOL    HW2 6442   2.705   1.880   2.684 -0.5172  0.8847  0.5398
 1599SOL    HW3 6443   2.609   1.993   2.655 -0.8433  0.3036 -0.7069
 1599SOL    MW4 6444   2.683   1.951   2.639 -0.6480  0.4172 -0.1388
 1600SOL     OW 6445   2.932   2.059   2.755  0.1158  0.4599  0.1798
 1600SOL    HW2 6446   2.943   2.151   2.733 -0.5542  0.5716  0.3031
 1600SOL    HW3 6447   2.842   2.038   2.730 -0.3833  0.3646  1.9708
 1600SOL    MW4 6448   2.922   2.068   2.749 -0.0386  0.4621  0.4320
 1601SOL     OW 6449   2.966   2.321   2.692  0.1669  0.1935 -0.1881
 1601SOL    HW2 6450   3.028   2.390   2.718  0.3510 -0.1259  0.2285
 1601SOL    HW3 6451   2.881   2.365   2.688  0.2022  0.3297  0.5731
 1601SOL    MW4 6452   2.963   2.336   2.695  0.1957  0.1693 -0.0327
 1602SOL     OW 6453   2.739   2.453   2.703  0.5592 -0.2180  0.1607
 1602SOL    HW2 6454   2.744   2.459   2.799 -2.6052  0.0681  0.3387
 1602SOL    HW3 6455   2.720   2.542   2.674 -1.3168 -0.8367 -0.5296
 1602SOL    MW4 6456   2.737   2.466   2.712 -0.1059 -0.2618  0.0935
 1603SOL     OW 6457   2.717   2.734   2.696 -0.0568 -0.3767  0.0051
 1603SOL    HW2 6458   2.790   2.791   2.721 -1.5932  1.4206  0.4775
 1603SOL    HW3 6459   2.713   2.741   2.600  1.0859 -1.3910 -0.1377
 1603SOL    MW4 6460   2.726   2.742   2.687 -0.1090 -0.2735  0.0486
 1604SOL     OW 6461   2.957   2.845   2.777  0.0743  0.3929 -0.0234
 1604SOL    HW2 6462   2.956   2.860   2.872  0.5070 -0.0684  0.0607
 1604SOL    HW3 6463   2.948   2.932   2.739 -1.1172  0.4813  0.4434
 1604SOL    MW4 6464   2.956   2.858   2.785 -0.0260  0.3438  0.0491
 1605SOL     OW 6465   2.928   3.104   2.703 -0.3467  0.0646  0.0213
 1605SOL    HW2 6466   2.850   3.143   2.744 -0.5350  1.5066 -1.6713
 1605SOL    HW3 6467   2.913   3.113   2.609  0.9947 -1.4346 -0.3612
 1605SOL    MW4 6468   2.916   3.110   2.696 -0.1945  0.0570 -0.2522
 1606SOL     OW 6469   2.706   3.256   2.795  0.1211 -0.0679 -0.4592
 1606SOL    HW2 6470   2.729   3.340   2.756 -0.3584  0.6370  0.7564
 1606SOL    HW3 6471   2.625   3.230   2.752 -0.9502  1.1874  0.7359
 1606SOL    MW4 6472   2.699   3.264   2.784 -0.0834  0.1907 -0.1409
 1607SOL     OW 6473   2.760   3.499   2.697 -0.1436  0.5110  0.3944
 1607SOL    HW2 6474   2.673   3.537   2.711 -0.3891  0.3730 -0.7061
 1607SOL    HW3 6475   2.761   3.474   2.605  1.0622  0.4955  0.4001
 1607SOL    MW4 6476   2.749   3.501   2.687 -0.0167  0.4907  0.2503
 1608SOL     OW 6477   2.952   3.683   2.822  0.9483  0.1790  0.3263
 1608SOL    HW2 6478   2.971   3.643   2.907  0.1893  2.3650  1.5507
 1608SOL    HW3 6479   2.881   3.629   2.786  1.2512 -0.7359  1.0701
 1608SOL    MW4 6480   2.945   3.670   2.828  0.8881  0.3464  0.5860
 1609SOL     OW 6481   2.967   3.942   2.697 -0.1296  0.1775  0.1431
 1609SOL    HW2 6482   3.036   3.991   2.741 -0.3025 -0.1819  0.8149
 1609SOL    HW3 6483   2.962   3.858   2.744 -0.3687 -0.1764 -0.5019
 1609SOL    MW4 6484   2.975   3.937   2.709 -0.1843  0.0837  0.1466
 1610SOL     OW 6485   2.697   3.977   2.746  0.1996 -0.2861 -0.2722
 1610SOL    HW2 6486   2.675   4.067   2.724  0.1049 -0.1876  0.2156
 1610SOL    HW3 6487   2.790   3.970   2.728 -0.1444 -0.6076 -2.0304
 1610SOL    MW4 6488   2.706   3.988   2.741  0.1416 -0.3157 -0.4399
 1611SOL     OW 6489   2.680   4.238   2.701 -0.3392 -0.1289  0.1981
 1611SOL    HW2 6490   2.759   4.282   2.732 -0.1941  0.7333 -1.3076
 1611SOL    HW3 6491   2.608   4.292   2.733 -0.1939  0.6858 -0.8011
 1611SOL    MW4 6492   2.681   4.251   2.709 -0.3009  0.0925 -0.1323
 1612SOL     OW 6493   2.908   4.369   2.759  0.0395  0.2356  0.3801
 1612SOL    HW2 6494   2.914   4.374   2.855  2.7080  1.8765  0.1522
 1612SOL    HW3 6495   2.891   4.458   2.731 -0.1221 -0.1376 -0.7309
 1612SOL    MW4 6496   2.907   4.381   2.768  0.3705  0.4025  0.2036
 1613SOL     OW 6497   3.329   0.032   2.692  0.1643 -0.2002 -0.1784
 1613SOL    HW2 6498   3.332  -0.056   2.730 -0.7252 -0.1668 -0.0294
 1613SOL    HW3 6499   3.271   0.082   2.749 -1.7072 -0.3313 -1.9188
 1613SOL    MW4 6500   3.322   0.027   2.704 -0.2003 -0.2131 -0.3884
 1614SOL     OW 6501   3.099   0.147   2.843 -0.2440  0.1330 -0.6877
 1614SOL    HW2 6502   3.100   0.150   2.939  1.6683  1.1320 -0.7239
 1614SOL    HW3 6503   3.111   0.238   2.816  1.1194 -0.3946 -1.8765
 1614SOL    MW4 6504   3.101   0.159   2.852  0.1884  0.1952 -0.8492
 1615SOL     OW 6505   3.126   0.385   2.712  0.2257 -0.0738 -0.4564
 1615SOL    HW2 6506   3.064   0.456   2.722 -0.7497 -1.0826  0.7746
 1615SOL    HW3 6507   3.120   0.361   2.619  1.3831  2.1435 -1.1484
 1615SOL    MW4 6508   3.117   0.391   2.701  0.2494  0.0857 -0.3853
 1616SOL     OW 6509   3.361   0.529   2.781  0.1623 -0.0885  0.3706
 1616SOL    HW2 6510   3.358   0.612   2.733  1.0665  0.6549  1.5782
 1616SOL    HW3 6511   3.281   0.483   2.754 -2.2127  2.6665  2.2883
 1616SOL    MW4 6512   3.350   0.534   2.771 -0.0317  0.3731  0.7830
 1617SOL     OW 6513   3.364   0.782   2.671  0.0710 -0.3672  0.3186
 1617SOL    HW2 6514   3.445   0.822   2.702 -1.0524  1.3371  1.1289
 1617SOL    HW3 6515   3.372   0.782   2.575  1.7383 -1.7910  0.4393
 1617SOL    MW4 6516   3.375   0.787   2.662  0.1428 -0.3302  0.4413
 1618SOL     OW 6517   3.119   0.855   2.778 -0.0749 -0.0469 -0.2541
 1618SOL    HW2 6518   3.119   0.850   2.873 -0.6598 -1.0771 -0.3024
 1618SOL    HW3 6519   3.206   0.825   2.751  0.3474  0.9574 -0.0129
 1618SOL    MW4 6520   3.130   0.851   2.787 -0.0966 -0.0503 -0.2289
 1619SOL     OW 6521   3.117   1.130   2.717 -0.2023  0.0002  0.0380
 1619SOL    HW2 6522   3.115   1.038   2.744  0.9267  0.0684  0.3679
 1619SOL    HW3 6523   3.142   1.127   2.625 -0.3512 -0.0324 -0.0014
 1619SOL    MW4 6524   3.120   1.117   2.709 -0.0730  0.0049  0.0763
 1620SOL     OW 6525   3.368   1.260   2.756 -0.2150  0.1144 -0.6790
 1620SOL    HW2 6526   3.382   1.267   2.850  0.9873  0.4225 -0.8705
 1620SOL    HW3 6527   3.285   1.214   2.747  0.6974 -1.8063  0.5151
 1620SOL    MW4 6528   3.359   1.255   2.767  0.0639 -0.0983 -0.5467
 1621SOL     OW 6529   3.393   1.512   2.662 -0.2052 -0.2487 -0.2321
 1621SOL    HW2 6530   3.315   1.559   2.690 -1.4186 -2.0473 -0.5332
 1621SOL    HW3 6531   3.389   1.428   2.708  1.1124 -0.6985 -0.8925
 1621SOL    MW4 6532   3.382   1.507   2.672 -0.1915 -0.5453 -0.3593
 1622SOL     OW 6533   3.140   1.609   2.759 -0.6029  0.7676 -0.0199
 1622SOL    HW2 6534   3.113   1.700   2.756 -2.0725  0.3803  0.9208
 1622SOL    HW3 6535   3.064   1.561   2.725  0.3065 -0.0839 -0.9047
 1622SOL    MW4 6536   3.126   1.614   2.754 -0.6769  0.6042 -0.0129
 1623SOL     OW 6537   3.128   1.879   2.680 -0.4005  0.1898  0.9300
 1623SOL    HW2 6538   3.207   1.925   2.706  0.8039 -0.0417 -2.0692
 1623SOL    HW3 6539   3.058   1.943   2.692  0.8767  1.9047 -0.4794
 1623SOL    MW4 6540   3.129   1.893   2.685 -0.0732  0.3856  0.3483
 1624SOL     OW 6541   3.339   2.049   2.761  0.4674  0.5765 -0.5487
 1624SOL    HW2 6542   3.375   2.060   2.849 -0.3103  0.9608 -0.2718
 1624SOL    HW3 6543   3.343   2.135   2.721  2.8075 -0.0318 -1.6796
 1624SOL    MW4 6544   3.344   2.062   2.767  0.6733  0.5472 -0.6614
 1625SOL     OW 6545   3.378   2.307   2.647 -0.4185 -0.0115 -0.0490
 1625SOL    HW2 6546   3.457   2.351   2.679 -0.1848 -0.5482  0.1157
 1625SOL    HW3 6547   3.379   2.319   2.553 -0.3497  0.3275 -0.0048
 1625SOL    MW4 6548   3.388   2.315   2.639 -0.3788 -0.0377 -0.0212
 1626SOL     OW 6549   3.181   2.466   2.755  0.0708  0.0188 -0.0080
 1626SOL    HW2 6550   3.199   2.551   2.714 -0.8385 -0.1039 -0.6802
 1626SOL    HW3 6551   3.252   2.409   2.725  0.2038  0.3082 -0.2469
 1626SOL    MW4 6552   3.193   2.470   2.746 -0.0317  0.0408 -0.1285
 1627SOL     OW 6553   3.175   2.718   2.657 -0.6685  0.3345  0.2174
 1627SOL    HW2 6554   3.249   2.758   2.702 -1.1018 -0.5984  1.7990
 1627SOL    HW3 6555   3.098   2.758   2.697 -1.0418  0.5385 -0.6950
 1627SOL    MW4 6556   3.174   2.728   2.668 -0.7749  0.2384  0.3059
 1628SOL     OW 6557   3.401   2.850   2.778  0.0548  0.2241 -0.3291
 1628SOL    HW2 6558   3.410   2.846   2.874 -1.7141 -1.7530 -0.2030
 1628SOL    HW3 6559   3.475   2.799   2.745 -1.0036 -1.6786  0.1224
 1628SOL    MW4 6560   3.412   2.843   2.787 -0.3181 -0.2880 -0.2527
 1629SOL     OW 6561   3.379   3.110   2.701 -0.5533  0.1769 -0.0147
 1629SOL    HW2 6562   3.386   3.026   2.747  0.8220  0.5876  0.5513
 1629SOL    HW3 6563   3.393   3.088   2.609 -0.4427 -0.2525  0.1026
 1629SOL    MW4 6564   3.382   3.096   2.695 -0.3574  0.1743  0.0753
 1630SOL     OW 6565   3.126   3.249   2.797 -0.4171  0.0204  0.4105
 1630SOL    HW2 6566   3.211   3.210   2.775  0.1375  1.4097  0.0969
 1630SOL    HW3 6567   3.062   3.188   2.759  0.4359 -0.8975  0.4212
 1630SOL    MW4 6568   3.129   3.235   2.789 -0.2313  0.0827  0.3705
 1631SOL     OW 6569   3.117   3.491   2.666 -0.1596 -0.4278  0.1977
 1631SOL    HW2 6570   3.117   3.406   2.711  0.5991 -0.5494 -0.0173
 1631SOL    HW3 6571   3.057   3.545   2.716  0.9280 -0.4546  1.5768
 1631SOL    MW4 6572   3.109   3.487   2.679  0.0839 -0.4473  0.3514
 1632SOL     OW 6573   3.369   3.637   2.791  0.0150  0.2529 -0.2235
 1632SOL    HW2 6574   3.359   3.621   2.885 -0.1927 -0.5332 -0.3736
 1632SOL    HW3 6575   3.284   3.613   2.754 -0.3497  1.8486 -0.4537
 1632SOL    MW4 6576   3.356   3.632   2.799 -0.0608  0.3595 -0.2737
 1633SOL     OW 6577   3.341   3.906   2.703 -0.2851 -0.0050  0.8417
 1633SOL    HW2 6578   3.347   3.822   2.749 -0.6615  0.2519  1.3567
 1633SOL    HW3 6579   3.357   3.883   2.611  0.0629 -0.5757  1.0378
 1633SOL    MW4 6580   3.344   3.892   2.697 -0.2892 -0.0465  0.9353
 1634SOL     OW 6581   3.162   4.080   2.827 -0.3637 -0.2272 -0.4123
 1634SOL    HW2 6582   3.153   4.164   2.781 -1.1281  0.1414  0.4066
 1634SOL    HW3 6583   3.224   4.030   2.773 -1.9163 -0.1392 -2.3416
 1634SOL    MW4 6584   3.169   4.085   2.814 -0.6692 -0.1669 -0.5591
 1635SOL     OW 6585   3.160   4.301   2.683  0.1903 -0.1233  0.6022
 1635SOL    HW2 6586   3.069   4.321   2.704 -0.1447 -1.1249  0.1361
 1635SOL    HW3 6587   3.158   4.271   2.592  1.0136  0.0370  0.5268
 1635SOL    MW4 6588   3.148   4.300   2.674  0.2549 -0.2341  0.5307
 1636SOL     OW 6589   3.389   4.443   2.766 -0.3162  0.0419 -0.4249
 1636SOL    HW2 6590   3.386   4.416   2.858  2.9451 -0.4847 -0.4080
 1636SOL    HW3 6591   3.319   4.393   2.724 -1.5617 -0.0307  1.6691
 1636SOL    MW4 6592   3.380   4.433   2.773 -0.0501 -0.0372 -0.1459
 1637SOL     OW 6593   3.832   4.608   2.704  0.1963  0.0034  0.1746
 1637SOL    HW2 6594   3.838   4.526   2.753  0.1186  0.1077  0.3605
 1637SOL    HW3 6595   3.750   4.647   2.733 -0.2583 -0.3209 -0.6482
 1637SOL    MW4 6596   3.822   4.602   2.714  0.1259 -0.0257  0.0906
 1638SOL     OW 6597   3.600   0.077   2.770 -0.0884 -0.7010 -0.0954
 1638SOL    HW2 6598   3.627   0.166   2.747 -1.0784 -0.1045  0.9439
 1638SOL    HW3 6599   3.508   0.073   2.745 -0.2592 -1.1569  0.5841
 1638SOL    MW4 6600   3.592   0.088   2.764 -0.2415 -0.6824  0.1316
 1639SOL     OW 6601   3.599   0.369   2.721  0.1212 -0.0090  0.3356
 1639SOL    HW2 6602   3.681   0.411   2.746  0.2222  0.4087 -0.6741
 1639SOL    HW3 6603   3.531   0.429   2.752  0.2622  0.8821 -1.0082
 1639SOL    MW4 6604   3.601   0.382   2.728  0.1533  0.1637  0.0250
 1640SOL     OW 6605   3.827   0.512   2.810  0.2178 -0.0906  0.1978
 1640SOL    HW2 6606   3.821   0.514   2.906  1.4778 -0.4745  0.2968
 1640SOL    HW3 6607   3.896   0.449   2.792 -0.3846 -0.4190 -0.9905
 1640SOL    MW4 6608   3.836   0.504   2.820  0.3047 -0.1846  0.0539
 1641SOL     OW 6609   3.824   0.754   2.664  0.6252 -0.2877  0.3339
 1641SOL    HW2 6610   3.750   0.810   2.689  1.6982  0.8506  1.0128
 1641SOL    HW3 6611   3.809   0.672   2.710 -0.4647 -0.2453  0.0847
 1641SOL    MW4 6612   3.812   0.751   2.673  0.6230 -0.1320  0.3908
 1642SOL     OW 6613   3.607   0.897   2.741 -0.2080  0.4935  0.2665
 1642SOL    HW2 6614   3.613   0.909   2.836  0.7794 -0.6386  0.3570
 1642SOL    HW3 6615   3.618   0.985   2.705 -0.7610  0.9575  1.1994
 1642SOL    MW4 6616   3.609   0.910   2.749 -0.1507  0.4053  0.4015
 1643SOL     OW 6617   3.601   1.161   2.622 -0.4850 -0.4443 -0.5948
 1643SOL    HW2 6618   3.676   1.195   2.670 -0.3792  0.5996 -1.4798
 1643SOL    HW3 6619   3.525   1.193   2.669 -0.3799  0.0335 -0.7461
 1643SOL    MW4 6620   3.601   1.169   2.634 -0.4573 -0.2434 -0.7315
 1644SOL     OW 6621   3.818   1.264   2.789 -0.2740 -0.4084 -0.2047
 1644SOL    HW2 6622   3.899   1.219   2.768 -0.4087 -0.5275 -0.4703
 1644SOL    HW3 6623   3.829   1.352   2.752 -0.7526 -0.8055 -1.3186
 1644SOL    MW4 6624   3.830   1.270   2.781 -0.3550 -0.4767 -0.3867
 1645SOL     OW 6625   3.830   1.532   2.678 -0.7077  0.0911  0.0154
 1645SOL    HW2 6626   3.907   1.580   2.708 -1.0603  0.5457  0.2150
 1645SOL    HW3 6627   3.756   1.582   2.714 -1.0784 -0.7604  0.4540
 1645SOL    MW4 6628   3.830   1.545   2.687 -0.8032  0.0387  0.0994
 1646SOL     OW 6629   3.609   1.668   2.763  0.0588 -0.1958  0.1391
 1646SOL    HW2 6630   3.603   1.759   2.732 -1.0559 -0.0930  0.6428
 1646SOL    HW3 6631   3.548   1.619   2.708  0.8607 -0.7007 -0.3138
 1646SOL    MW4 6632   3.600   1.674   2.752  0.0174 -0.2488  0.1454
 1647SOL     OW 6633   3.586   1.936   2.675 -0.1173 -0.1906 -0.2975
 1647SOL    HW2 6634   3.506   1.975   2.710  0.4209  1.9848 -1.4364
 1647SOL    HW3 6635   3.570   1.928   2.581  0.7868 -0.2747 -0.4510
 1647SOL    MW4 6636   3.574   1.940   2.668  0.0730  0.0854 -0.4680
 1648SOL     OW 6637   3.841   2.027   2.779  0.8940 -0.0411  0.1099
 1648SOL    HW2 6638   3.902   1.982   2.720 -0.4786 -1.4968 -0.2362
 1648SOL    HW3 6639   3.755   1.999   2.749  0.0625  1.6910  0.8363
 1648SOL    MW4 6640   3.838   2.017   2.767  0.6032 -0.0048  0.1602
 1649SOL     OW 6641   3.817   2.286   2.672  0.0641 -0.0683 -0.4943
 1649SOL    HW2 6642   3.825   2.194   2.699 -0.5160 -0.3173 -1.1431
 1649SOL    HW3 6643   3.847   2.286   2.581 -0.5426  0.2644 -0.6959
 1649SOL    MW4 6644   3.822   2.274   2.664 -0.0925 -0.0572 -0.6068
 1650SOL     OW 6645   3.593   2.439   2.744  0.2110  0.3010 -0.6494
 1650SOL    HW2 6646   3.597   2.451   2.839  0.2279 -1.0481 -0.4648
 1650SOL    HW3 6647   3.665   2.378   2.725 -0.2396  0.0081 -1.4306
 1650SOL    MW4 6648   3.603   2.433   2.754  0.1535  0.0844 -0.7281
 1651SOL     OW 6649   3.617   2.709   2.681  0.1059  0.0914  0.0931
 1651SOL    HW2 6650   3.615   2.614   2.694 -1.2410  0.3946  2.3500
 1651SOL    HW3 6651   3.621   2.720   2.586  1.4261 -2.2185 -0.1705
 1651SOL    MW4 6652   3.618   2.698   2.670  0.1023 -0.1731  0.3560
 1652SOL     OW 6653   3.799   2.863   2.798 -0.0389  0.4593  0.0943
 1652SOL    HW2 6654   3.872   2.817   2.757 -0.0651 -0.0901  0.6537
 1652SOL    HW3 6655   3.721   2.815   2.770 -0.0987  0.3936  0.3704
 1652SOL    MW4 6656   3.798   2.851   2.789 -0.0503  0.3784  0.2046
 1653SOL     OW 6657   3.768   3.106   2.657 -0.5419 -0.0577 -0.0092
 1653SOL    HW2 6658   3.709   3.162   2.709  0.0132  0.0805  0.4797
 1653SOL    HW3 6659   3.793   3.035   2.716 -0.0930 -0.0307 -0.1606
 1653SOL    MW4 6660   3.764   3.104   2.672 -0.4094 -0.0362  0.0355
 1654SOL     OW 6661   3.591   3.259   2.798 -0.1064 -0.3897  0.8672
 1654SOL    HW2 6662   3.578   3.333   2.739  2.3059 -0.3913  0.2979
 1654SOL    HW3 6663   3.523   3.196   2.773  1.4549 -0.7990 -2.6040
 1654SOL    MW4 6664   3.580   3.261   2.787  0.4175 -0.4439  0.3340
 1655SOL     OW 6665   3.570   3.490   2.682 -0.0934 -0.4732  0.2501
 1655SOL    HW2 6666   3.640   3.532   2.731 -0.0766 -1.2212  0.8736
 1655SOL    HW3 6667   3.493   3.545   2.696  0.3385  0.2848 -0.3410
 1655SOL    MW4 6668   3.569   3.503   2.690 -0.0343 -0.4718  0.2544
 1656SOL     OW 6669   3.795   3.590   2.804 -0.1179  0.3009 -0.1086
 1656SOL    HW2 6670   3.783   3.589   2.899  0.3901  0.5983 -0.0394
 1656SOL    HW3 6671   3.789   3.682   2.780 -1.3132  0.1316 -0.5112
 1656SOL    MW4 6672   3.792   3.602   2.813 -0.2084  0.3178 -0.1526
 1657SOL     OW 6673   3.816   3.846   2.700 -0.1840  0.1201 -0.8922
 1657SOL    HW2 6674   3.898   3.879   2.736 -0.8738 -0.0130  0.8555
 1657SOL    HW3 6675   3.749   3.906   2.734 -1.1565 -1.5562  0.2042
 1657SOL    MW4 6676   3.818   3.858   2.709 -0.4036 -0.1190 -0.5171
 1658SOL     OW 6677   3.594   4.019   2.788 -0.3589  0.7004  0.0437
 1658SOL    HW2 6678   3.613   4.110   2.764 -1.8083  0.6356 -1.4040
 1658SOL    HW3 6679   3.513   3.998   2.742  0.6377 -1.7439 -0.6918
 1658SOL    MW4 6680   3.586   4.028   2.779 -0.4182  0.3691 -0.2446
 1659SOL     OW 6681   3.619   4.306   2.673  0.2730  0.4721 -0.0017
 1659SOL    HW2 6682   3.554   4.371   2.702 -1.7594 -2.1751  1.5680
 1659SOL    HW3 6683   3.602   4.295   2.580  1.1270  2.6790 -0.4639
 1659SOL    MW4 6684   3.608   4.313   2.665  0.1173  0.4139  0.1442
 1660SOL     OW 6685   3.849   4.371   2.823  0.6582  0.0156 -0.3354
 1660SOL    HW2 6686   3.919   4.325   2.777 -0.2596 -0.5545 -1.1873
 1660SOL    HW3 6687   3.773   4.364   2.765  0.2579  1.8490 -0.0703
 1660SOL    MW4 6688   3.848   4.364   2.809  0.4842  0.1826 -0.4127
 1661SOL     OW 6689   4.283   4.667   2.689  0.2127  0.1408 -0.0165
 1661SOL    HW2 6690   4.206   4.707   2.730  0.1744  1.6635 -1.5059
 1661SOL    HW3 6691   4.357   4.715   2.726  0.3068  0.1281 -0.1917
 1661SOL    MW4 6692   4.283   4.678   2.699  0.2203  0.3395 -0.2363
 1662SOL     OW 6693   4.034   0.106   2.782  0.4254  0.2454  0.3480
 1662SOL    HW2 6694   4.033   0.113   2.877  0.6875  0.0503  0.3667
 1662SOL    HW3 6695   3.965   0.043   2.760 -1.1234  1.9317  0.2599
 1662SOL    MW4 6696   4.025   0.099   2.791  0.2561  0.4421  0.3388
 1663SOL     OW 6697   4.039   0.366   2.712  0.5200 -0.1434 -0.3341
 1663SOL    HW2 6698   4.031   0.280   2.754 -0.9102 -0.3413 -0.9696
 1663SOL    HW3 6699   4.015   0.350   2.620  0.4723  0.8829 -0.5041
 1663SOL    MW4 6700   4.034   0.352   2.705  0.3247 -0.0341 -0.4404
 1664SOL     OW 6701   4.250   0.538   2.785 -0.7845 -0.3541  0.0241
 1664SOL    HW2 6702   4.179   0.485   2.750 -0.6477 -1.2469  1.0834
 1664SOL    HW3 6703   4.330   0.492   2.760 -0.6312 -0.1712  0.1709
 1664SOL    MW4 6704   4.251   0.525   2.777 -0.7458 -0.4478  0.1831
 1665SOL     OW 6705   4.229   0.790   2.647  0.1027  0.7246 -0.7355
 1665SOL    HW2 6706   4.234   0.704   2.688 -0.9688  1.0682  0.1418
 1665SOL    HW3 6707   4.251   0.774   2.555 -1.0881 -0.6521 -0.7942
 1665SOL    MW4 6708   4.232   0.777   2.640 -0.1955  0.5883 -0.6278
 1666SOL     OW 6709   4.042   0.894   2.809 -0.0664  0.2976 -0.2448
 1666SOL    HW2 6710   4.116   0.870   2.753 -0.8836  0.5896 -1.4725
 1666SOL    HW3 6711   3.968   0.843   2.775 -0.2228 -0.7137  1.5735
 1666SOL    MW4 6712   4.042   0.884   2.797 -0.1945  0.2027 -0.1667
 1667SOL     OW 6713   4.052   1.172   2.658  0.1619 -0.2447  0.2531
 1667SOL    HW2 6714   4.132   1.207   2.699  1.5480 -0.5325 -2.1005
 1667SOL    HW3 6715   4.050   1.081   2.685  0.7953 -0.3111  0.0885
 1667SOL    MW4 6716   4.063   1.165   2.667  0.4277 -0.2913 -0.0792
 1668SOL     OW 6717   4.241   1.298   2.806 -0.4102 -0.0935  0.4210
 1668SOL    HW2 6718   4.219   1.386   2.772 -0.4940 -0.7203 -1.2131
 1668SOL    HW3 6719   4.335   1.289   2.789 -0.3236 -0.1746  0.9400
 1668SOL    MW4 6720   4.250   1.309   2.799 -0.4096 -0.1868  0.2739
 1669SOL     OW 6721   4.230   1.561   2.672  0.4965  0.3603 -0.3077
 1669SOL    HW2 6722   4.313   1.595   2.706  0.2410 -0.8270  1.5722
 1669SOL    HW3 6723   4.237   1.571   2.577  2.2451  1.4911 -0.0832
 1669SOL    MW4 6724   4.242   1.567   2.664  0.6933  0.3527 -0.0303
 1670SOL     OW 6725   4.014   1.671   2.797 -0.0510  0.1311 -0.5188
 1670SOL    HW2 6726   3.995   1.655   2.889 -1.0539  1.5733 -0.4451
 1670SOL    HW3 6727   4.089   1.616   2.777 -1.5397 -2.3067  0.4269
 1670SOL    MW4 6728   4.021   1.662   2.807 -0.3796 -0.0004 -0.3843
 1671SOL     OW 6729   4.049   1.903   2.653 -0.2028  0.1408  0.2395
 1671SOL    HW2 6730   4.114   1.956   2.701  1.1097 -1.0030 -0.2329
 1671SOL    HW3 6731   4.047   1.820   2.700 -0.7760 -0.1017 -0.2067
 1671SOL    MW4 6732   4.058   1.899   2.666 -0.1054 -0.0421  0.1183
 1672SOL     OW 6733   4.262   2.050   2.751 -0.1915  0.0454 -0.2282
 1672SOL    HW2 6734   4.279   2.142   2.730 -0.8251 -0.1291 -1.5256
 1672SOL    HW3 6735   4.335   2.002   2.710 -0.2462 -0.0954 -0.1605
 1672SOL    MW4 6736   4.274   2.056   2.743 -0.2828  0.0038 -0.3908
 1673SOL     OW 6737   4.267   2.329   2.684  0.1658 -0.2335  0.1479
 1673SOL    HW2 6738   4.185   2.367   2.714 -0.4924 -1.9606  0.5990
 1673SOL    HW3 6739   4.262   2.330   2.589  0.1297  0.7174  0.1559
 1673SOL    MW4 6740   4.256   2.334   2.676  0.0744 -0.3359  0.2086
 1674SOL     OW 6741   4.014   2.455   2.759 -0.0572  0.1239 -0.1569
 1674SOL    HW2 6742   4.007   2.458   2.854  0.6767 -0.9667 -0.0644
 1674SOL    HW3 6743   3.945   2.395   2.731  0.5212 -0.5086 -0.2224
 1674SOL    MW4 6744   4.004   2.448   2.768  0.1159 -0.1032 -0.1531
 1675SOL     OW 6745   3.998   2.719   2.663  0.1956  0.3604 -0.0724
 1675SOL    HW2 6746   4.074   2.757   2.707 -0.1445 -0.1194  0.9401
 1675SOL    HW3 6747   3.989   2.632   2.701  0.6811 -0.5651 -2.0429
 1675SOL    MW4 6748   4.007   2.713   2.674  0.2141  0.1750 -0.1986
 1676SOL     OW 6749   4.254   2.827   2.745  0.7976 -0.8106 -0.3713
 1676SOL    HW2 6750   4.285   2.807   2.833  0.3630 -0.2667 -0.0958
 1676SOL    HW3 6751   4.250   2.923   2.742 -0.5726 -0.8704 -0.5145
 1676SOL    MW4 6752   4.258   2.837   2.756  0.5598 -0.7470 -0.3536
 1677SOL     OW 6753   4.235   3.144   2.704 -0.0401  0.0470 -0.6383
 1677SOL    HW2 6754   4.153   3.183   2.734 -1.2754 -2.3219 -0.7434
 1677SOL    HW3 6755   4.221   3.127   2.611  1.1937  1.1229 -1.0290
 1677SOL    MW4 6756   4.222   3.147   2.696 -0.0405 -0.1235 -0.7038
 1678SOL     OW 6757   3.983   3.236   2.766  0.0621 -0.2945  0.2966
 1678SOL    HW2 6758   3.987   3.325   2.731  0.6982 -0.1341  0.7686
 1678SOL    HW3 6759   3.920   3.191   2.710 -0.6790  0.6027  0.3988
 1678SOL    MW4 6760   3.975   3.242   2.754  0.0482 -0.1547  0.3724
 1679SOL     OW 6761   4.017   3.472   2.642  0.3693 -0.1312 -0.1412
 1679SOL    HW2 6762   4.098   3.515   2.670  1.6722 -3.2153  1.0279
 1679SOL    HW3 6763   3.952   3.501   2.706  1.4246 -0.5553  1.1630
 1679SOL    MW4 6764   4.019   3.481   2.654  0.6804 -0.5944  0.1853
 1680SOL     OW 6765   4.241   3.612   2.722 -0.2988 -0.4451  0.0956
 1680SOL    HW2 6766   4.226   3.630   2.814 -1.7835 -1.4437  0.0736
 1680SOL    HW3 6767   4.332   3.580   2.718 -0.2747 -0.5374  1.2280
 1680SOL    MW4 6768   4.251   3.610   2.734 -0.4916 -0.5891  0.2420
 1681SOL     OW 6769   4.290   3.867   2.625  0.2958 -0.3496 -0.0110
 1681SOL    HW2 6770   4.281   3.776   2.652 -0.3052 -0.0200  0.9071
 1681SOL    HW3 6771   4.369   3.898   2.669 -0.9408  0.3226  1.7727
 1681SOL    MW4 6772   4.299   3.859   2.634  0.0539 -0.2174  0.3455
 1682SOL     OW 6773   4.047   3.968   2.767 -0.1343  0.2413  0.0139
 1682SOL    HW2 6774   4.063   4.004   2.854 -0.6020 -3.2956  1.6639
 1682SOL    HW3 6775   4.128   3.922   2.745 -0.5496 -0.1101 -0.7940
 1682SOL    MW4 6776   4.060   3.967   2.775 -0.2508 -0.2718  0.1249
 1683SOL     OW 6777   4.052   4.235   2.686 -0.1231 -0.0794 -0.4833
 1683SOL    HW2 6778   4.049   4.145   2.718 -0.4563  0.2268  0.3676
 1683SOL    HW3 6779   4.042   4.227   2.592 -1.5546 -0.8480 -0.2801
 1683SOL    MW4 6780   4.050   4.222   2.678 -0.3562 -0.1407 -0.3443
 1684SOL     OW 6781   4.254   4.409   2.796  0.1917  0.4404 -0.4071
 1684SOL    HW2 6782   4.182   4.361   2.755 -0.2510  0.7891 -0.0544
 1684SOL    HW3 6783   4.246   4.498   2.762 -0.1147  0.7070  0.3402
 1684SOL    MW4 6784   4.243   4.414   2.786  0.0925  0.5217 -0.2620
 1685SOL     OW 6785   0.225   4.647   3.166 -0.1630 -0.4739 -0.6405
 1685SOL    HW2 6786   0.231   4.655   3.261  0.1501  0.4774 -0.7260
 1685SOL    HW3 6787   0.141   4.688   3.144  0.3218  0.4306 -0.8720
 1685SOL    MW4 6788   0.215   4.654   3.175 -0.0577 -0.2291 -0.6824
 1686SOL     OW 6789   4.489   0.101   3.091  0.4002 -0.0427  0.0081
 1686SOL    HW2 6790   4.406   0.070   3.128 -0.4575  0.4634 -1.4498
 1686SOL    HW3 6791   4.492   0.194   3.115  0.7972 -0.1812  0.5000
 1686SOL    MW4 6792   4.479   0.109   3.099  0.3390  0.0058 -0.1192
 1687SOL     OW 6793   4.476   0.375   3.202  0.1019 -0.3450  0.1468
 1687SOL    HW2 6794   4.450   0.388   3.293 -0.1998 -0.1193  0.0297
 1687SOL    HW3 6795   4.401   0.405   3.151 -0.1067 -1.3469 -0.1599
 1687SOL    MW4 6796   4.463   0.380   3.207  0.0348 -0.4474  0.0911
 1688SOL     OW 6797   0.195   0.501   3.046 -0.3239 -0.2287 -0.1971
 1688SOL    HW2 6798   0.277   0.475   3.087 -0.5688 -1.2134 -0.3352
 1688SOL    HW3 6799   0.131   0.436   3.074 -0.6731 -0.4516 -1.4728
 1688SOL    MW4 6800   0.198   0.489   3.055 -0.4023 -0.3880 -0.3834
 1689SOL     OW 6801   0.186   0.754   3.151 -0.5823  0.0079 -0.9039
 1689SOL    HW2 6802   0.176   0.764   3.246 -0.9810  0.5904 -1.0017
 1689SOL    HW3 6803   0.180   0.660   3.136  0.1179 -0.1382 -0.2817
 1689SOL    MW4 6804   0.184   0.743   3.162 -0.5425  0.0654 -0.8347
 1690SOL     OW 6805   4.475   0.910   3.038 -0.0355  0.1139 -0.3235
 1690SOL    HW2 6806   4.553   0.859   3.059 -0.8437 -0.9256  0.1772
 1690SOL    HW3 6807   4.472   0.910   2.942  0.0483 -0.6547 -0.3291
 1690SOL    MW4 6808   4.485   0.904   3.028 -0.1311 -0.1247 -0.2582
 1691SOL     OW 6809   0.021   1.169   3.175  0.3457  0.0499 -0.3609
 1691SOL    HW2 6810  -0.067   1.207   3.169  0.5000  0.2653 -1.4572
 1691SOL    HW3 6811   0.011   1.082   3.136  0.4487 -0.2174  0.2162
 1691SOL    MW4 6812   0.008   1.163   3.169  0.3800  0.0430 -0.4294
 1692SOL     OW 6813   0.231   1.308   3.056  0.4642 -0.1827  0.4563
 1692SOL    HW2 6814   0.155   1.259   3.087 -1.4348  3.2964  1.5409
 1692SOL    HW3 6815   0.213   1.323   2.963  0.0118  0.2868  0.6174
 1692SOL    MW4 6816   0.219   1.303   3.047  0.1540  0.3383  0.6206
 1693SOL     OW 6817   0.243   1.564   3.143  0.1035  0.1518 -0.1099
 1693SOL    HW2 6818   0.161   1.608   3.120 -0.8037 -0.5511  1.7117
 1693SOL    HW3 6819   0.231   1.474   3.112 -0.7460 -0.5481  2.1245
 1693SOL    MW4 6820   0.230   1.558   3.136 -0.1283 -0.0333  0.4251
 1694SOL     OW 6821   4.474   1.632   3.048  0.0064 -0.3908  0.4946
 1694SOL    HW2 6822   4.389   1.594   3.068  0.3263 -0.9408  0.8190
 1694SOL    HW3 6823   4.471   1.720   3.086  0.0152 -0.8352  1.5267
 1694SOL    MW4 6824   4.462   1.639   3.056  0.0496 -0.5220  0.6735
 1695SOL     OW 6825   4.457   1.905   3.141 -0.4875  0.7588  0.0691
 1695SOL    HW2 6826   4.391   1.946   3.084 -0.2969  1.5330  0.3901
 1695SOL    HW3 6827   4.539   1.948   3.116 -0.1466 -0.0180 -0.1464
 1695SOL    MW4 6828   4.459   1.916   3.130 -0.4174  0.7584  0.0832
 1696SOL     OW 6829   0.199   2.036   3.022 -0.1396 -0.1929 -0.1765
 1696SOL    HW2 6830   0.196   2.132   3.025  2.7184  0.0049 -1.7441
 1696SOL    HW3 6831   0.174   2.013   2.933  2.0844 -0.7127 -0.6898
 1696SOL    MW4 6832   0.195   2.046   3.011  0.5309 -0.2351 -0.4513
 1697SOL     OW 6833   0.237   2.339   3.125  0.0304 -0.3835 -0.3607
 1697SOL    HW2 6834   0.248   2.360   3.218 -1.4894 -2.0618  0.2097
 1697SOL    HW3 6835   0.313   2.381   3.083  1.6839 -1.0561  1.8358
 1697SOL    MW4 6836   0.249   2.347   3.132  0.0481 -0.6938  0.0043
 1698SOL     OW 6837   0.017   2.483   3.045 -0.2418  0.2693 -0.1026
 1698SOL    HW2 6838   0.023   2.556   3.107 -1.7894  0.6162 -0.3547
 1698SOL    HW3 6839   0.085   2.422   3.073 -0.7952  0.5152  1.8190
 1698SOL    MW4 6840   0.027   2.485   3.057 -0.5188  0.3476  0.1178
 1699SOL     OW 6841   0.019   2.730   3.167 -0.2901 -0.2248  0.4821
 1699SOL    HW2 6842   0.001   2.737   3.261  1.1770  2.3607  0.6187
 1699SOL    HW3 6843   0.097   2.783   3.154 -0.5515 -0.4485 -2.2537
 1699SOL    MW4 6844   0.027   2.738   3.178 -0.1310  0.0870  0.1388
 1700SOL     OW 6845   0.237   2.888   3.080 -0.0963  0.7256  0.1392
 1700SOL    HW2 6846   0.315   2.837   3.103 -0.8453 -0.2071  0.6124
 1700SOL    HW3 6847   0.229   2.880   2.985  1.0270  1.7577 -0.0597
 1700SOL    MW4 6848   0.246   2.880   3.071 -0.0469  0.7389  0.1755
 1701SOL     OW 6849   0.251   3.149   3.149  0.3532 -0.5002  0.3848
 1701SOL    HW2 6850   0.184   3.200   3.103  0.9753 -0.7469 -0.8297
 1701SOL    HW3 6851   0.239   3.059   3.117  0.0466 -0.9039  1.5989
 1701SOL    MW4 6852   0.241   3.144   3.138  0.3949 -0.5860  0.3848
 1702SOL     OW 6853   0.019   3.299   3.060 -0.1036  0.0631 -0.1562
 1702SOL    HW2 6854  -0.050   3.244   3.098 -0.0042  0.0527  0.0088
 1702SOL    HW3 6855  -0.003   3.303   2.967 -0.5297  0.3543 -0.0427
 1702SOL    MW4 6856   0.007   3.292   3.053 -0.1473  0.1004 -0.1194
 1703SOL     OW 6857   0.016   3.576   3.158  0.0645  0.3756  0.1467
 1703SOL    HW2 6858  -0.067   3.624   3.160 -0.2870 -0.2368  0.6254
 1703SOL    HW3 6859  -0.009   3.486   3.138  0.6013  0.1632  0.4106
 1703SOL    MW4 6860   0.002   3.570   3.156  0.0890  0.2668  0.2446
 1704SOL     OW 6861   0.495   3.503   3.137  0.5076 -0.1455 -0.1776
 1704SOL    HW2 6862   0.491   3.505   3.233 -0.6645 -2.6098 -0.1374
 1704SOL    HW3 6863   0.415   3.547   3.109 -0.1925 -1.2655  0.0235
 1704SOL    MW4 6864   0.484   3.509   3.146  0.2606 -0.6185 -0.1454
 1705SOL     OW 6865   0.274   3.690   3.095 -0.4081  0.0400  0.7184
 1705SOL    HW2 6866   0.189   3.650   3.114 -1.2793  1.3223 -0.4143
 1705SOL    HW3 6867   0.265   3.780   3.125  0.1069  0.5318 -0.5724
 1705SOL    MW4 6868   0.262   3.697   3.101 -0.4551  0.2742  0.3989
 1706SOL     OW 6869   4.486   3.963   3.090 -0.5344 -0.1715  0.2169
 1706SOL    HW2 6870   4.577   3.953   3.118 -0.6630 -1.6354  0.1753
 1706SOL    HW3 6871   4.491   3.980   2.996 -0.3289 -1.4540 -0.0218
 1706SOL    MW4 6872   4.499   3.964   3.081 -0.5240 -0.5341  0.1800
 1707SOL     OW 6873   0.020   4.245   3.155  0.4923  0.3954  0.1975
 1707SOL    HW2 6874   0.012   4.238   3.250 -0.3702  2.0721  0.2615
 1707SOL    HW3 6875   0.015   4.155   3.124 -0.7335 -0.0457  1.6241
 1707SOL    MW4 6876   0.019   4.232   3.164  0.2165  0.5589  0.3941
 1708SOL     OW 6877   0.218   4.411   3.035  0.0511 -0.2372 -0.1262
 1708SOL    HW2 6878   0.156   4.347   3.069 -0.3960 -0.3074 -1.0666
 1708SOL    HW3 6879   0.208   4.487   3.093 -1.6716  0.1486 -0.8963
 1708SOL    MW4 6880   0.208   4.412   3.047 -0.2352 -0.1955 -0.3519
 1709SOL     OW 6881   0.698   0.042   3.139 -0.6101 -0.4909 -0.1052
 1709SOL    HW2 6882   0.684  -0.045   3.101 -0.1406  0.2059 -1.8884
 1709SOL    HW3 6883   0.618   0.090   3.119  0.6770  0.7029 -2.5687
 1709SOL    MW4 6884   0.686   0.037   3.132 -0.3784 -0.2415 -0.6654
 1710SOL     OW 6885   0.442   0.132   3.075  0.1861 -0.0316 -0.5679
 1710SOL    HW2 6886   0.419   0.215   3.116  0.0880 -0.8737  1.1749
 1710SOL    HW3 6887   0.362   0.080   3.079  0.3875 -0.3924 -1.1574
 1710SOL    MW4 6888   0.428   0.136   3.081  0.1997 -0.1903 -0.4158
 1711SOL     OW 6889   0.427   0.388   3.163 -0.5822 -0.6926  0.2038
 1711SOL    HW2 6890   0.422   0.379   3.259 -0.4890 -2.0471  0.0776
 1711SOL    HW3 6891   0.510   0.434   3.148 -1.5106  1.2597  0.8847
 1711SOL    MW4 6892   0.437   0.393   3.174 -0.6924 -0.6138  0.2773
 1712SOL     OW 6893   0.651   0.511   3.000  0.1226 -0.1906 -0.1345
 1712SOL    HW2 6894   0.736   0.477   3.029 -0.3250 -0.9056  0.3416
 1712SOL    HW3 6895   0.639   0.591   3.050 -0.9375 -1.7431  2.1777
 1712SOL    MW4 6896   0.661   0.517   3.010 -0.0764 -0.4898  0.2334
 1713SOL     OW 6897   0.639   0.745   3.146 -0.1014  0.4587  0.1804
 1713SOL    HW2 6898   0.653   0.741   3.240 -1.3591 -0.8621  0.3283
 1713SOL    HW3 6899   0.550   0.780   3.137 -0.5869 -0.9439 -0.4771
 1713SOL    MW4 6900   0.629   0.749   3.157 -0.3314  0.0994  0.1132
 1714SOL     OW 6901   0.397   0.905   3.058 -0.6808 -0.0508  0.4856
 1714SOL    HW2 6902   0.334   0.835   3.077  1.0213 -1.9358 -0.5595
 1714SOL    HW3 6903   0.390   0.918   2.963 -0.3320  0.5376  0.5402
 1714SOL    MW4 6904   0.388   0.897   3.048 -0.4102 -0.2218  0.3548
 1715SOL     OW 6905   0.439   1.158   3.198  0.4499 -0.4473 -0.4939
 1715SOL    HW2 6906   0.430   1.068   3.165 -0.6305 -0.3256 -0.5651
 1715SOL    HW3 6907   0.381   1.209   3.141  0.7333  0.2241 -0.1734
 1715SOL    MW4 6908   0.430   1.153   3.186  0.3448 -0.3427 -0.4606
 1716SOL     OW 6909   0.648   1.248   3.054 -0.2306 -0.2680 -0.0282
 1716SOL    HW2 6910   0.724   1.203   3.093 -0.4441 -0.9673 -0.4079
 1716SOL    HW3 6911   0.573   1.214   3.104 -0.2299  1.0050  0.8682
 1716SOL    MW4 6912   0.648   1.237   3.066 -0.2587 -0.1923  0.0401
 1717SOL     OW 6913   0.689   1.518   3.142  0.0645  0.1075 -0.1962
 1717SOL    HW2 6914   0.688   1.523   3.238 -1.1013  0.1982 -0.2070
 1717SOL    HW3 6915   0.687   1.425   3.122  0.4320  0.0849 -0.1371
 1717SOL    MW4 6916   0.689   1.507   3.152 -0.0408  0.1163 -0.1898
 1718SOL     OW 6917   0.477   1.680   3.039 -0.1165 -0.4771 -0.9322
 1718SOL    HW2 6918   0.549   1.624   3.069  0.3959  0.1795 -0.8975
 1718SOL    HW3 6919   0.398   1.636   3.069  0.3479 -0.1717  0.8366
 1718SOL    MW4 6920   0.476   1.667   3.047  0.0124 -0.3501 -0.6940
 1719SOL     OW 6921   0.465   1.961   3.109  0.0789 -0.2585  0.1918
 1719SOL    HW2 6922   0.468   1.874   3.068  1.2302 -0.7375  1.2675
 1719SOL    HW3 6923   0.378   1.995   3.087  0.5991 -0.5523 -2.5226
 1719SOL    MW4 6924   0.454   1.954   3.100  0.2994 -0.3604 -0.0243
 1720SOL     OW 6925   0.710   2.071   3.042 -0.1464  0.1516 -0.1279
 1720SOL    HW2 6926   0.775   2.010   3.077  0.1776 -1.7248 -3.7365
 1720SOL    HW3 6927   0.626   2.039   3.074  0.0694 -2.0224 -1.6378
 1720SOL    MW4 6928   0.708   2.059   3.051 -0.0752 -0.3827 -0.8032
 1721SOL     OW 6929   0.657   2.339   3.095 -0.2118 -0.0539  0.1800
 1721SOL    HW2 6930   0.649   2.326   3.189  0.1944 -1.1657  0.0704
 1721SOL    HW3 6931   0.682   2.253   3.061 -0.9721  0.1806 -1.0179
 1721SOL    MW4 6932   0.659   2.326   3.103 -0.2585 -0.1695  0.0074
 1722SOL     OW 6933   0.458   2.483   3.002  0.2310 -0.1960 -0.4974
 1722SOL    HW2 6934   0.531   2.429   3.033 -0.4276 -0.6845  0.2225
 1722SOL    HW3 6935   0.455   2.468   2.907  1.5211  0.4023 -0.6467
 1722SOL    MW4 6936   0.467   2.474   2.993  0.3143 -0.1814 -0.4222
 1723SOL     OW 6937   0.459   2.737   3.112 -0.3501 -0.3910  0.4683
 1723SOL    HW2 6938   0.547   2.769   3.097 -0.5844  0.3803  0.7344
 1723SOL    HW3 6939   0.454   2.656   3.060  0.5344 -0.4916  0.5303
 1723SOL    MW4 6940   0.470   2.730   3.103 -0.2643 -0.3023  0.5114
 1724SOL     OW 6941   0.710   2.853   3.044 -0.0808 -0.5283  0.5273
 1724SOL    HW2 6942   0.787   2.805   3.075  0.6109 -0.1574 -0.5730
 1724SOL    HW3 6943   0.712   2.936   3.092  0.6598 -0.1935 -0.0678
 1724SOL    MW4 6944   0.720   2.858   3.054  0.1081 -0.4354  0.3037
 1725SOL     OW 6945   0.689   3.102   3.185  0.3547 -0.4118  0.5572
 1725SOL    HW2 6946   0.684   3.118   3.279  0.8477  0.5976  0.4226
 1725SOL    HW3 6947   0.615   3.151   3.149 -0.0301 -1.0642  0.4417
 1725SOL    MW4 6948   0.678   3.111   3.193  0.3690 -0.3645  0.5240
 1726SOL     OW 6949   0.487   3.234   3.054  0.3172  0.0133 -0.9836
 1726SOL    HW2 6950   0.489   3.324   3.088 -2.0702 -0.4065  0.3663
 1726SOL    HW3 6951   0.407   3.197   3.090  0.9443 -2.4702 -2.0748
 1726SOL    MW4 6952   0.477   3.241   3.063  0.0849 -0.3700 -0.9496
 1727SOL     OW 6953   0.703   3.636   3.036 -0.3900 -0.0774 -0.4184
 1727SOL    HW2 6954   0.777   3.583   3.069  0.2176  0.2328 -1.2776
 1727SOL    HW3 6955   0.626   3.595   3.076  0.0197 -1.9499 -1.4486
 1727SOL    MW4 6956   0.703   3.623   3.046 -0.2558 -0.2837 -0.6678
 1728SOL     OW 6957   0.904   3.481   3.159  0.0895 -0.2775  0.0575
 1728SOL    HW2 6958   0.987   3.522   3.134 -0.2221  0.0186 -0.4983
 1728SOL    HW3 6959   0.910   3.392   3.126 -0.0784 -0.0647 -0.5395
 1728SOL    MW4 6960   0.916   3.475   3.152  0.0262 -0.2103 -0.0947
 1729SOL     OW 6961   0.466   4.086   3.073  0.2005  0.0122 -0.2294
 1729SOL    HW2 6962   0.536   4.031   3.106  0.0476 -0.0870 -0.0706
 1729SOL    HW3 6963   0.456   4.060   2.981  1.3791  1.0639 -0.6712
 1729SOL    MW4 6964   0.474   4.075   3.065  0.3358  0.1378 -0.2670
 1730SOL     OW 6965   0.249   3.961   3.191  0.3718 -0.1970 -0.1449
 1730SOL    HW2 6966   0.268   3.963   3.285 -1.4561  1.6270  0.2151
 1730SOL    HW3 6967   0.317   4.017   3.153 -0.3042  1.0255  0.3926
 1730SOL    MW4 6968   0.261   3.969   3.199  0.0415  0.2048 -0.0265
 1731SOL     OW 6969   0.467   4.328   3.175  0.7797  0.0829 -0.8701
 1731SOL    HW2 6970   0.462   4.237   3.144  0.3843 -0.3672  0.4684
 1731SOL    HW3 6971   0.390   4.370   3.137 -0.3453 -0.7608  0.4113
 1731SOL    MW4 6972   0.456   4.321   3.166  0.5791 -0.0877 -0.5245
 1732SOL     OW 6973   0.699   4.434   3.075 -0.4222  0.1829 -0.0253
 1732SOL    HW2 6974   0.620   4.397   3.113 -0.8065  0.4054 -0.5906
 1732SOL    HW3 6975   0.693   4.413   2.982  0.7420 -0.7741  0.1116
 1732SOL    MW4 6976   0.687   4.426   3.067 -0.3193  0.0863 -0.0818
 1733SOL     OW 6977   1.180   4.637   3.142  0.1491 -0.3153  0.1074
 1733SOL    HW2 6978   1.270   4.664   3.128 -0.6785  1.2387 -2.6841
 1733SOL    HW3 6979   1.128   4.715   3.119 -2.0228 -2.1786 -1.5510
 1733SOL    MW4 6980   1.185   4.651   3.137 -0.2466 -0.3561 -0.4797
 1734SOL     OW 6981   0.972   0.143   3.068  0.3430 -0.2715 -0.5031
 1734SOL    HW2 6982   0.943   0.224   3.110 -0.3694 -1.3458  1.1359
 1734SOL    HW3 6983   0.905   0.079   3.092  1.0485 -1.4107 -1.5547
 1734SOL    MW4 6984   0.959   0.145   3.077  0.3421 -0.5635 -0.4256
 1735SOL     OW 6985   0.881   0.398   3.128 -0.1723 -0.2150 -0.0233
 1735SOL    HW2 6986   0.877   0.400   3.223 -0.9050  0.7196 -0.0668
 1735SOL    HW3 6987   0.962   0.446   3.106  0.9028 -1.8994  0.1723
 1735SOL    MW4 6988   0.891   0.404   3.137 -0.1272 -0.3140 -0.0033
 1736SOL     OW 6989   1.120   0.505   3.022  0.0430  0.0250 -0.0083
 1736SOL    HW2 6990   1.194   0.450   3.051  0.4481  0.0552 -0.9761
 1736SOL    HW3 6991   1.102   0.476   2.933 -0.0262  1.1541 -0.3748
 1736SOL    MW4 6992   1.128   0.494   3.014  0.0873  0.1779 -0.1843
 1737SOL     OW 6993   1.105   0.752   3.140 -0.4549 -0.1335  0.1696
 1737SOL    HW2 6994   1.112   0.751   3.236  0.4327  1.0231  0.1212
 1737SOL    HW3 6995   1.101   0.659   3.116  2.2197 -0.5542  1.1328
 1737SOL    MW4 6996   1.105   0.740   3.150  0.0151 -0.0364  0.2902
 1738SOL     OW 6997   0.861   0.878   3.053 -0.2086  0.0653 -0.2852
 1738SOL    HW2 6998   0.788   0.824   3.081  0.2662 -0.1794  0.4769
 1738SOL    HW3 6999   0.939   0.834   3.088  0.2912  0.4081 -0.9526
 1738SOL    MW4 7000   0.862   0.865   3.061 -0.0800  0.0783 -0.2728
 1739SOL     OW 7001   0.893   1.138   3.156  0.2085  0.1152 -0.1301
 1739SOL    HW2 7002   0.970   1.188   3.130 -0.6270  1.1308 -0.6819
 1739SOL    HW3 7003   0.911   1.049   3.126  0.7053  0.5716 -1.1847
 1739SOL    MW4 7004   0.905   1.133   3.149  0.1638  0.3096 -0.3421
 1740SOL     OW 7005   1.136   1.253   3.020  0.3942  0.3942  0.2179
 1740SOL    HW2 7006   1.198   1.191   3.058 -0.3002 -0.4344  0.0088
 1740SOL    HW3 7007   1.133   1.230   2.927 -0.3539  0.3294  0.2569
 1740SOL    MW4 7008   1.144   1.242   3.013  0.2037  0.2763  0.1955
 1741SOL     OW 7009   0.909   1.655   3.016 -0.4085  0.0638 -0.0811
 1741SOL    HW2 7010   0.974   1.606   3.067 -0.0424 -1.1119 -1.6254
 1741SOL    HW3 7011   0.825   1.623   3.046 -0.2336  0.3915  0.7669
 1741SOL    MW4 7012   0.907   1.644   3.027 -0.3370 -0.0480 -0.1729
 1742SOL     OW 7013   1.113   1.511   3.133 -0.1026  0.2477 -0.3034
 1742SOL    HW2 7014   1.193   1.562   3.122 -0.2942  0.5085 -0.5102
 1742SOL    HW3 7015   1.130   1.428   3.089 -0.5598  0.9605 -1.8577
 1742SOL    MW4 7016   1.126   1.507   3.126 -0.1884  0.3761 -0.5357
 1743SOL     OW 7017   0.905   1.902   3.139 -0.0101  0.3869  0.1793
 1743SOL    HW2 7018   0.899   1.879   3.232  0.1508  0.3591  0.1817
 1743SOL    HW3 7019   0.932   1.821   3.096  0.9853  0.6850  0.2401
 1743SOL    MW4 7020   0.907   1.888   3.146  0.1425  0.4226  0.1876
 1744SOL     OW 7021   1.120   2.062   3.090  0.0117  0.0064  0.0262
 1744SOL    HW2 7022   1.046   2.004   3.109 -0.5116  0.5251 -0.4066
 1744SOL    HW3 7023   1.125   2.064   2.995  0.6285 -0.0795  0.0548
 1744SOL    MW4 7024   1.111   2.055   3.080  0.0241  0.0637 -0.0269
 1745SOL     OW 7025   1.105   2.321   3.181 -0.1628  0.2441 -0.3100
 1745SOL    HW2 7026   1.040   2.372   3.133  0.9536  0.7433 -1.3352
 1745SOL    HW3 7027   1.100   2.233   3.142 -0.9215  0.0030  0.3146
 1745SOL    MW4 7028   1.096   2.316   3.169 -0.1158  0.2780 -0.3629
 1746SOL     OW 7029   0.910   2.475   3.041 -0.2552 -0.2832  0.0188
 1746SOL    HW2 7030   0.821   2.439   3.041  0.8114 -3.2176 -2.8090
 1746SOL    HW3 7031   0.932   2.485   2.948  1.5050  2.7982  0.6750
 1746SOL    MW4 7032   0.901   2.472   3.029  0.1177 -0.2637 -0.2677
 1747SOL     OW 7033   0.926   2.724   3.142  0.4776 -0.5624 -0.1465
 1747SOL    HW2 7034   0.920   2.722   3.237  1.1857 -0.9752 -0.1090
 1747SOL    HW3 7035   0.917   2.633   3.116  0.2933 -0.4501 -0.4757
 1747SOL    MW4 7036   0.924   2.712   3.151  0.5466 -0.6018 -0.1850
 1748SOL     OW 7037   1.151   2.877   3.060  0.1940  0.0570 -0.0080
 1748SOL    HW2 7038   1.137   2.966   3.095  1.4475 -0.2524  1.3131
 1748SOL    HW3 7039   1.078   2.826   3.096 -0.6139  0.5620 -0.8860
 1748SOL    MW4 7040   1.139   2.882   3.069  0.2527  0.0827  0.0505
 1749SOL     OW 7041   1.138   3.135   3.191  0.0241  0.0027 -0.4472
 1749SOL    HW2 7042   1.201   3.180   3.135  2.3485 -0.7235  1.4667
 1749SOL    HW3 7043   1.055   3.179   3.174  1.8278  3.8181 -0.0341
 1749SOL    MW4 7044   1.135   3.147   3.182  0.5686  0.4101 -0.1400
 1750SOL     OW 7045   0.918   3.237   3.068  0.0761 -0.0018 -0.2965
 1750SOL    HW2 7046   0.833   3.199   3.091 -0.1266  0.6515  0.0223
 1750SOL    HW3 7047   0.920   3.232   2.972  0.9418 -2.7525 -0.1732
 1750SOL    MW4 7048   0.907   3.231   3.058  0.1636 -0.2785 -0.2384
 1751SOL     OW 7049   0.919   3.518   3.434  0.3129  0.0341  0.4104
 1751SOL    HW2 7050   0.903   3.514   3.339  0.7600  0.6650  0.3004
 1751SOL    HW3 7051   0.933   3.427   3.460  0.1484 -0.1464 -0.1253
 1751SOL    MW4 7052   0.919   3.505   3.425  0.3502  0.0935  0.3252
 1752SOL     OW 7053   1.122   3.640   3.039  0.3948  0.3082 -0.1548
 1752SOL    HW2 7054   1.199   3.604   3.082 -0.2819  0.3250  1.1094
 1752SOL    HW3 7055   1.107   3.724   3.082  0.2186  0.7292 -1.0284
 1752SOL    MW4 7056   1.130   3.646   3.050  0.2823  0.3657 -0.1030
 1753SOL     OW 7057   1.120   3.899   3.142 -0.2592 -0.4609  0.1061
 1753SOL    HW2 7058   1.130   3.920   3.235  0.8914  1.7886 -0.4937
 1753SOL    HW3 7059   1.034   3.936   3.119 -0.6693 -1.2639  0.3254
 1753SOL    MW4 7060   1.110   3.907   3.152 -0.1614 -0.2701  0.0560
 1754SOL     OW 7061   0.892   4.055   3.059  0.1782 -0.3590 -0.1975
 1754SOL    HW2 7062   0.812   4.007   3.081  1.0538 -1.8331 -0.1494
 1754SOL    HW3 7063   0.893   4.056   2.963 -0.3713  0.4887 -0.2009
 1754SOL    MW4 7064   0.881   4.049   3.049  0.2212 -0.4420 -0.1917
 1755SOL     OW 7065   0.905   4.282   3.206 -0.0708  0.1517 -0.0790
 1755SOL    HW2 7066   0.904   4.200   3.158 -0.9224  0.0748  0.0683
 1755SOL    HW3 7067   0.838   4.336   3.164  0.1891  0.6168  0.0947
 1755SOL    MW4 7068   0.896   4.278   3.194 -0.1488  0.2027 -0.0365
 1756SOL     OW 7069   1.119   4.392   3.055 -0.7034 -0.4706  0.5174
 1756SOL    HW2 7070   1.049   4.351   3.107 -1.2612  0.0821  0.2055
 1756SOL    HW3 7071   1.124   4.481   3.088 -2.2354  0.4133 -1.5040
 1756SOL    MW4 7072   1.110   4.398   3.067 -0.9791 -0.2809  0.2093
 1757SOL     OW 7073   1.607   4.658   3.126 -0.1140 -0.3344  0.1135
 1757SOL    HW2 7074   1.606   4.670   3.221 -0.6697 -1.2509  0.2262
 1757SOL    HW3 7075   1.528   4.702   3.096  0.3705  0.4688  0.0116
 1757SOL    MW4 7076   1.596   4.665   3.135 -0.1235 -0.3495  0.1149
 1758SOL     OW 7077   1.392   0.126   3.035  0.0995  0.6733 -0.2822
 1758SOL    HW2 7078   1.384   0.217   3.063 -1.5786  0.5167 -0.1718
 1758SOL    HW3 7079   1.370   0.128   2.941  1.9450  0.6491 -0.7278
 1758SOL    MW4 7080   1.388   0.138   3.026  0.1216  0.6495 -0.3264
 1759SOL     OW 7081   1.359   0.376   3.119  0.0127  0.4746 -0.3353
 1759SOL    HW2 7082   1.340   0.399   3.210 -1.8789  1.3514 -0.9223
 1759SOL    HW3 7083   1.436   0.427   3.097  0.4945  0.2416  0.7873
 1759SOL    MW4 7084   1.366   0.386   3.128 -0.1732  0.5595 -0.2646
 1760SOL     OW 7085   1.589   0.483   3.027  0.2044 -0.0094  0.5718
 1760SOL    HW2 7086   1.618   0.570   3.055 -0.1952  0.6826 -1.1275
 1760SOL    HW3 7087   1.579   0.490   2.932  0.7473 -2.0870  0.3253
 1760SOL    MW4 7088   1.592   0.495   3.018  0.2234 -0.1922  0.3152
 1761SOL     OW 7089   1.572   0.753   3.131  0.3080  0.5494  0.1086
 1761SOL    HW2 7090   1.561   0.748   3.226  1.4344  0.2148  0.2325
 1761SOL    HW3 7091   1.489   0.789   3.098 -0.2139  0.3250  1.1810
 1761SOL    MW4 7092   1.560   0.757   3.139  0.3878  0.4756  0.2666
 1762SOL     OW 7093   1.327   0.876   3.023 -0.3430 -0.3982  0.3497
 1762SOL    HW2 7094   1.335   0.959   3.069  0.9391 -0.5030  0.3342
 1762SOL    HW3 7095   1.247   0.836   3.059 -0.8310  0.7287  0.5217
 1762SOL    MW4 7096   1.317   0.881   3.034 -0.2383 -0.2633  0.3705
 1763SOL     OW 7097   1.338   1.114   3.156  0.2867 -0.2340  0.0475
 1763SOL    HW2 7098   1.342   1.116   3.251 -0.1304  0.9047  0.0385
 1763SOL    HW3 7099   1.415   1.163   3.127  0.2918 -0.3869 -0.2096
 1763SOL    MW4 7100   1.349   1.121   3.164  0.2323 -0.1038  0.0122
 1764SOL     OW 7101   1.571   1.233   3.074  0.4408 -0.2852 -0.2627
 1764SOL    HW2 7102   1.666   1.224   3.086  0.0153 -0.6539  3.0529
 1764SOL    HW3 7103   1.553   1.324   3.098 -0.2892 -0.7429  0.9556
 1764SOL    MW4 7104   1.581   1.244   3.079  0.2884 -0.3942  0.3352
 1765SOL     OW 7105   1.574   1.501   3.147  0.4085  0.1986  0.0073
 1765SOL    HW2 7106   1.652   1.540   3.107  0.1968  0.0645 -0.5485
 1765SOL    HW3 7107   1.506   1.567   3.135 -0.4005 -1.0494 -2.5542
 1765SOL    MW4 7108   1.576   1.515   3.140  0.2738  0.0163 -0.4041
 1766SOL     OW 7109   1.335   1.660   3.070  0.1259  0.1752 -0.3168
 1766SOL    HW2 7110   1.345   1.754   3.086 -0.8516  0.6037 -2.1360
 1766SOL    HW3 7111   1.349   1.650   2.976  3.0673 -1.9113  0.2779
 1766SOL    MW4 7112   1.338   1.671   3.060  0.3849 -0.0436 -0.4783
 1767SOL     OW 7113   1.378   1.934   3.137  0.2600  0.8994  0.2583
 1767SOL    HW2 7114   1.391   1.922   3.231  2.0722  1.0425  0.0432
 1767SOL    HW3 7115   1.290   1.970   3.129  0.2352  1.2457  1.9257
 1767SOL    MW4 7116   1.368   1.937   3.148  0.4958  0.9640  0.4501
 1768SOL     OW 7117   1.613   2.023   3.025  0.5627 -0.1064 -0.6611
 1768SOL    HW2 7118   1.536   1.983   3.065  2.0954 -1.2464  1.2343
 1768SOL    HW3 7119   1.591   2.028   2.932 -1.6503 -0.7160 -0.2174
 1768SOL    MW4 7120   1.600   2.018   3.018  0.4729 -0.3374 -0.3524
 1769SOL     OW 7121   1.577   2.297   3.099  0.3293  0.0332  0.0176
 1769SOL    HW2 7122   1.484   2.319   3.091  0.1991 -0.4285  0.2117
 1769SOL    HW3 7123   1.582   2.205   3.071  0.8350  0.2594 -0.6525
 1769SOL    MW4 7124   1.565   2.288   3.094  0.3788  0.0021 -0.0455
 1770SOL     OW 7125   1.314   2.439   3.054 -0.0209  0.1608 -0.0537
 1770SOL    HW2 7126   1.224   2.413   3.075  0.0008  0.5301  0.5088
 1770SOL    HW3 7127   1.317   2.440   2.958 -0.3233 -0.8492 -0.0800
 1770SOL    MW4 7128   1.303   2.436   3.044 -0.0579  0.0763  0.0169
 1771SOL     OW 7129   1.376   2.702   3.137  0.6092 -0.1487  0.0254
 1771SOL    HW2 7130   1.371   2.606   3.129  1.4950 -0.4136  2.3358
 1771SOL    HW3 7131   1.290   2.732   3.106  0.3825 -1.6519 -0.9143
 1771SOL    MW4 7132   1.364   2.693   3.132  0.6962 -0.3822  0.2062
 1772SOL     OW 7133   1.592   2.851   3.031 -0.5281 -0.3089 -0.2914
 1772SOL    HW2 7134   1.668   2.808   3.070  0.3072  1.2959 -0.0998
 1772SOL    HW3 7135   1.517   2.801   3.063  0.3398 -0.8093  1.0160
 1772SOL    MW4 7136   1.592   2.839   3.040 -0.3033 -0.1633 -0.0937
 1773SOL     OW 7137   1.562   3.103   3.148  0.2917  0.0146 -0.5874
 1773SOL    HW2 7138   1.587   3.086   3.238  0.6517  0.4746 -0.6006
 1773SOL    HW3 7139   1.543   3.016   3.112 -2.5377  0.0284  0.6948
 1773SOL    MW4 7140   1.563   3.089   3.155 -0.0342  0.0770 -0.4201
 1774SOL     OW 7141   1.359   3.265   3.069  0.4636  0.2836 -0.1487
 1774SOL    HW2 7142   1.439   3.224   3.104  0.7289 -0.8032 -1.9562
 1774SOL    HW3 7143   1.363   3.249   2.975 -1.5595  0.8119 -0.3526
 1774SOL    MW4 7144   1.370   3.257   3.061  0.2319  0.2098 -0.4144
 1775SOL     OW 7145   1.340   3.521   3.179 -0.1871 -0.1862  0.5785
 1775SOL    HW2 7146   1.342   3.499   3.272  2.0714  0.5767  0.7408
 1775SOL    HW3 7147   1.362   3.439   3.135 -0.2567 -0.3070  0.7651
 1775SOL    MW4 7148   1.343   3.507   3.186  0.1018 -0.1016  0.6249
 1776SOL     OW 7149   1.578   3.629   3.076 -0.1546  0.4723  0.1098
 1776SOL    HW2 7150   1.500   3.587   3.112  0.2307 -0.9369 -0.6731
 1776SOL    HW3 7151   1.570   3.619   2.982  0.6585  0.8797 -0.0076
 1776SOL    MW4 7152   1.567   3.622   3.069  0.0036  0.3400 -0.0088
 1777SOL     OW 7153   1.542   3.875   3.202 -0.1054 -0.0012  0.0634
 1777SOL    HW2 7154   1.478   3.919   3.146 -0.0529  0.0120  0.0134
 1777SOL    HW3 7155   1.549   3.787   3.166 -0.8805 -0.3350  0.7148
 1777SOL    MW4 7156   1.535   3.869   3.190 -0.2006 -0.0432  0.1431
 1778SOL     OW 7157   1.335   4.021   3.025 -0.3909  0.1994 -0.4482
 1778SOL    HW2 7158   1.265   3.971   3.067 -0.3464  0.1068 -0.4844
 1778SOL    HW3 7159   1.341   4.102   3.075  0.6083 -0.5050  0.5927
 1778SOL    MW4 7160   1.327   4.025   3.037 -0.2533  0.0944 -0.3159
 1779SOL     OW 7161   1.359   4.267   3.142  0.2700 -0.0916  0.0821
 1779SOL    HW2 7162   1.435   4.304   3.096 -0.4859  1.2793 -0.0950
 1779SOL    HW3 7163   1.283   4.311   3.103 -0.3730  1.5515  2.9906
 1779SOL    MW4 7164   1.359   4.278   3.131  0.0855  0.3061  0.4427
 1780SOL     OW 7165   1.578   4.399   3.043 -0.2303  0.1112 -0.3658
 1780SOL    HW2 7166   1.588   4.491   3.067  0.0541  0.3447 -1.3384
 1780SOL    HW3 7167   1.644   4.353   3.094 -0.0894  0.5046 -0.1980
 1780SOL    MW4 7168   1.588   4.405   3.053 -0.1742  0.1936 -0.4721
 1781SOL     OW 7169   2.053   4.576   3.102  0.1536  0.3697 -0.1611
 1781SOL    HW2 7170   2.057   4.579   3.197  1.5724  0.5027 -0.2076
 1781SOL    HW3 7171   1.974   4.625   3.080  0.4830  1.4084  0.9020
 1781SOL    MW4 7172   2.043   4.583   3.111  0.3846  0.5245 -0.0272
 1782SOL     OW 7173   1.851   0.094   3.057  0.0412  0.2189 -0.3330
 1782SOL    HW2 7174   1.768   0.057   3.086  0.8763 -1.3969  0.0540
 1782SOL    HW3 7175   1.845   0.095   2.962 -0.5202  0.3652 -0.2983
 1782SOL    MW4 7176   1.839   0.089   3.049  0.0772  0.0250 -0.2773
 1783SOL     OW 7177   1.780   0.342   3.186 -0.3677 -0.0301  0.1740
 1783SOL    HW2 7178   1.816   0.254   3.172 -0.0319  0.0144  0.7481
 1783SOL    HW3 7179   1.703   0.345   3.129 -0.1882 -0.5759 -0.1050
 1783SOL    MW4 7180   1.774   0.331   3.177 -0.2998 -0.0963  0.2127
 1784SOL     OW 7181   2.002   0.488   3.093 -0.3609  0.2035 -0.4951
 1784SOL    HW2 7182   1.917   0.451   3.114 -0.3315 -0.2150 -1.1018
 1784SOL    HW3 7183   2.004   0.492   2.998  1.0880 -1.6518 -0.5619
 1784SOL    MW4 7184   1.991   0.484   3.083 -0.1659 -0.0965 -0.5839
 1785SOL     OW 7185   2.008   0.753   3.208 -0.0180  0.2978 -0.0111
 1785SOL    HW2 7186   1.931   0.793   3.167 -1.4674 -0.7302  1.6423
 1785SOL    HW3 7187   2.008   0.663   3.174 -0.6490 -0.2610  1.4406
 1785SOL    MW4 7188   1.998   0.746   3.198 -0.2925  0.0884  0.3986
 1786SOL     OW 7189   1.803   0.900   3.068 -0.5904 -0.0024 -0.2204
 1786SOL    HW2 7190   1.727   0.852   3.100 -1.0031  1.3127  0.8146
 1786SOL    HW3 7191   1.801   0.888   2.973 -2.4996  0.6113 -0.2694
 1786SOL    MW4 7192   1.793   0.892   3.060 -0.8967  0.2521 -0.0906
 1787SOL     OW 7193   1.821   1.158   3.187 -0.0613  0.7179  0.1185
 1787SOL    HW2 7194   1.794   1.128   3.274  1.7877  0.9980  0.8099
 1787SOL    HW3 7195   1.835   1.078   3.137 -0.4876  0.5440  0.2788
 1787SOL    MW4 7196   1.819   1.144   3.192  0.1265  0.7319  0.2306
 1788SOL     OW 7197   2.041   1.258   3.043  0.3707  0.0578 -0.7143
 1788SOL    HW2 7198   2.111   1.205   3.081 -0.0483 -0.1985 -0.2952
 1788SOL    HW3 7199   1.960   1.222   3.080  0.0645  0.8432 -0.6062
 1788SOL    MW4 7200   2.039   1.246   3.053  0.2754  0.1276 -0.6447
 1789SOL     OW 7201   2.048   1.519   3.116 -0.6161  0.1199  0.0110
 1789SOL    HW2 7202   2.040   1.533   3.211  0.2884 -1.5761  0.3595
 1789SOL    HW3 7203   2.044   1.424   3.106  2.8521  0.0356 -1.2667
 1789SOL    MW4 7204   2.047   1.508   3.127 -0.0393 -0.1150 -0.1116
 1790SOL     OW 7205   1.798   1.656   3.050  0.3950 -0.0544 -0.3440
 1790SOL    HW2 7206   1.802   1.740   3.095  0.1377 -0.7470  0.9883
 1790SOL    HW3 7207   1.882   1.614   3.068  0.1627 -0.4750 -0.2177
 1790SOL    MW4 7208   1.810   1.662   3.058  0.3303 -0.2015 -0.1516
 1791SOL     OW 7209   1.835   1.912   3.146 -0.4137 -0.2727 -0.1031
 1791SOL    HW2 7210   1.922   1.940   3.117 -0.3232  0.1715  0.6026
 1791SOL    HW3 7211   1.775   1.973   3.104 -0.2873  0.3128  0.5516
 1791SOL    MW4 7212   1.838   1.924   3.137 -0.3850 -0.1370  0.0761
 1792SOL     OW 7213   2.058   2.046   3.022 -0.0641  0.1080 -0.3152
 1792SOL    HW2 7214   2.128   1.992   3.060  0.7685  1.3602 -0.0461
 1792SOL    HW3 7215   2.069   2.131   3.064 -1.7682  0.3130 -0.2683
 1792SOL    MW4 7216   2.069   2.050   3.033 -0.1791  0.3004 -0.2735
 1793SOL     OW 7217   2.057   2.287   3.145  0.3251 -0.0844 -0.1568
 1793SOL    HW2 7218   2.128   2.337   3.105 -0.1580  3.1121  2.7311
 1793SOL    HW3 7219   1.977   2.334   3.121 -0.6161 -2.0300 -1.0179
 1793SOL    MW4 7220   2.055   2.300   3.136  0.1373  0.0806  0.1106
 1794SOL     OW 7221   1.826   2.429   3.073  0.3596 -0.3096  0.5403
 1794SOL    HW2 7222   1.795   2.515   3.103 -0.9887 -0.9536  1.0351
 1794SOL    HW3 7223   1.750   2.372   3.081  0.4910 -0.9369 -2.3619
 1794SOL    MW4 7224   1.812   2.433   3.078  0.1990 -0.4778  0.2227
 1795SOL     OW 7225   1.787   2.707   3.153  0.3953  0.0073 -0.4319
 1795SOL    HW2 7226   1.789   2.687   3.247  0.3679 -0.7091 -0.5773
 1795SOL    HW3 7227   1.869   2.753   3.136  1.2079 -1.3983 -0.3836
 1795SOL    MW4 7228   1.798   2.710   3.163  0.4990 -0.2725 -0.4447
 1796SOL     OW 7229   2.021   2.846   3.075 -0.6114 -0.1927 -0.0631
 1796SOL    HW2 7230   2.030   2.940   3.089 -0.4649 -0.2070 -0.0688
 1796SOL    HW3 7231   2.015   2.836   2.980 -1.2616 -0.1298 -0.0354
 1796SOL    MW4 7232   2.021   2.857   3.064 -0.6778 -0.1864 -0.0603
 1797SOL     OW 7233   2.031   3.118   3.134  0.1155  0.3733 -0.1917
 1797SOL    HW2 7234   2.032   3.105   3.229  0.5373 -0.8750 -0.3579
 1797SOL    HW3 7235   1.947   3.161   3.117  0.6680  1.9370  0.8975
 1797SOL    MW4 7236   2.020   3.122   3.144  0.2444  0.4148 -0.0699
 1798SOL     OW 7237   1.773   3.233   3.057 -0.0003 -0.7591 -0.1816
 1798SOL    HW2 7238   1.695   3.189   3.090 -0.6309  0.7253  0.3628
 1798SOL    HW3 7239   1.767   3.224   2.962 -0.1406 -1.8141 -0.0718
 1798SOL    MW4 7240   1.762   3.226   3.049 -0.1019 -0.7024 -0.0951
 1799SOL     OW 7241   1.809   3.480   3.194 -0.5078  0.3770  0.1915
 1799SOL    HW2 7242   1.798   3.394   3.155 -0.1107  0.2959  0.2574
 1799SOL    HW3 7243   1.729   3.527   3.171 -0.3047  0.3148 -0.6594
 1799SOL    MW4 7244   1.797   3.475   3.186 -0.4286  0.3581  0.0877
 1800SOL     OW 7245   2.034   3.604   3.042 -0.1692  0.5108  0.8377
 1800SOL    HW2 7246   2.031   3.693   3.078 -0.7811  0.5456  0.7052
 1800SOL    HW3 7247   1.965   3.557   3.089  0.8473 -0.1802  1.6694
 1800SOL    MW4 7248   2.024   3.609   3.053 -0.1159  0.4244  0.9301
 1801SOL     OW 7249   2.006   3.839   3.153 -0.1944  0.3573 -0.1116
 1801SOL    HW2 7250   2.013   3.842   3.249  0.5672  1.5656 -0.1910
 1801SOL    HW3 7251   1.921   3.879   3.134 -0.9443 -1.1089  0.1231
 1801SOL    MW4 7252   1.996   3.845   3.164 -0.1930  0.3235 -0.0911
 1802SOL     OW 7253   1.747   3.983   3.071 -0.1824  0.0289 -0.5424
 1802SOL    HW2 7254   1.665   3.946   3.105 -0.1404  0.9721  0.6065
 1802SOL    HW3 7255   1.739   3.974   2.976 -1.2596 -0.6430 -0.4010
 1802SOL    MW4 7256   1.735   3.977   3.063 -0.3190  0.0648 -0.3722
 1803SOL     OW 7257   1.765   4.237   3.178 -0.1135 -0.2667  0.2180
 1803SOL    HW2 7258   1.837   4.274   3.126  0.1215 -0.9354  0.0689
 1803SOL    HW3 7259   1.760   4.146   3.151 -1.2334 -0.1488 -0.0047
 1803SOL    MW4 7260   1.774   4.230   3.167 -0.2303 -0.3390  0.1690
 1804SOL     OW 7261   1.970   4.322   3.015  0.3480 -0.2096  0.0231
 1804SOL    HW2 7262   1.982   4.317   2.920 -0.3186 -0.4886 -0.0480
 1804SOL    HW3 7263   1.992   4.413   3.037 -1.6874  0.5042 -0.7170
 1804SOL    MW4 7264   1.975   4.334   3.005 -0.0083 -0.1521 -0.0839
 1805SOL     OW 7265   2.469   4.628   3.163  0.0489 -0.1020 -0.5462
 1805SOL    HW2 7266   2.470   4.536   3.138  0.3195  0.1675 -1.5473
 1805SOL    HW3 7267   2.390   4.663   3.123 -0.8687 -0.2299  1.0947
 1805SOL    MW4 7268   2.459   4.621   3.155 -0.0367 -0.0830 -0.4618
 1806SOL     OW 7269   2.259   0.095   3.060 -0.0481  0.4588 -0.0346
 1806SOL    HW2 7270   2.236   0.171   3.114 -1.8016 -0.2476  0.2431
 1806SOL    HW3 7271   2.188   0.033   3.074  1.8482 -1.6426  0.4684
 1806SOL    MW4 7272   2.247   0.097   3.069 -0.0291  0.0884  0.0684
 1807SOL     OW 7273   2.228   0.339   3.189 -0.2457  0.0525  0.4665
 1807SOL    HW2 7274   2.223   0.341   3.284 -2.0178 -2.5549  0.4711
 1807SOL    HW3 7275   2.151   0.389   3.159 -0.3180 -0.0971  0.4017
 1807SOL    MW4 7276   2.217   0.346   3.197 -0.4892 -0.3113  0.4585
 1808SOL     OW 7277   2.485   0.467   3.071 -0.4919 -0.1802  0.0051
 1808SOL    HW2 7278   2.390   0.457   3.079 -0.5034 -0.6002 -0.6612
 1808SOL    HW3 7279   2.502   0.468   2.977  0.1956 -0.3543  0.1195
 1808SOL    MW4 7280   2.475   0.466   3.060 -0.4027 -0.2586 -0.0677
 1809SOL     OW 7281   2.499   0.735   3.167  0.0078  0.0587 -0.0501
 1809SOL    HW2 7282   2.574   0.772   3.121 -0.4632 -0.0457 -0.9115
 1809SOL    HW3 7283   2.511   0.640   3.161 -0.1193  0.0435 -0.0731
 1809SOL    MW4 7284   2.510   0.727   3.160 -0.0715  0.0429 -0.1667
 1810SOL     OW 7285   2.278   0.830   3.053  0.3233 -0.2548  0.2070
 1810SOL    HW2 7286   2.357   0.791   3.090  0.1861 -2.5800 -1.8291
 1810SOL    HW3 7287   2.206   0.792   3.103  0.3151 -0.7096 -0.1531
 1810SOL    MW4 7288   2.279   0.820   3.064  0.3040 -0.6216 -0.1092
 1811SOL     OW 7289   2.250   1.108   3.126 -0.4062  0.2975 -0.4979
 1811SOL    HW2 7290   2.245   1.106   3.222  0.4869 -0.6090 -0.4614
 1811SOL    HW3 7291   2.248   1.016   3.100 -0.8056  0.5526 -1.3636
 1811SOL    MW4 7292   2.249   1.096   3.135 -0.3409  0.2115 -0.6073
 1812SOL     OW 7293   2.466   1.272   3.067  0.7276 -0.0979 -0.1115
 1812SOL    HW2 7294   2.390   1.215   3.079  1.0782 -0.8212 -1.2587
 1812SOL    HW3 7295   2.458   1.304   2.977  1.6928 -0.0555 -0.1857
 1812SOL    MW4 7296   2.455   1.269   3.057  0.9010 -0.1876 -0.2725
 1813SOL     OW 7297   2.511   1.518   3.191  0.8120 -0.1044 -0.3508
 1813SOL    HW2 7298   2.438   1.559   3.146  1.5748 -0.0540 -1.5720
 1813SOL    HW3 7299   2.510   1.427   3.161  1.6347  0.0567 -0.8770
 1813SOL    MW4 7300   2.501   1.512   3.182  1.0211 -0.0765 -0.5813
 1814SOL     OW 7301   2.298   1.633   3.071  0.6559  0.1672  0.3038
 1814SOL    HW2 7302   2.216   1.587   3.088  0.2088  1.0992  0.7101
 1814SOL    HW3 7303   2.299   1.645   2.976  0.5692 -0.2943  0.2438
 1814SOL    MW4 7304   2.288   1.629   3.060  0.5856  0.2292  0.3498
 1815SOL     OW 7305   2.271   1.900   3.165 -0.5112  0.5907 -0.1011
 1815SOL    HW2 7306   2.322   1.973   3.130 -1.3475  1.4405  0.3960
 1815SOL    HW3 7307   2.313   1.822   3.130 -0.8013  1.3691 -2.3113
 1815SOL    MW4 7308   2.283   1.900   3.156 -0.6599  0.8055 -0.3273
 1816SOL     OW 7309   2.447   2.113   3.057  0.5320 -0.0079  0.6547
 1816SOL    HW2 7310   2.531   2.072   3.076  0.6366  0.0186  0.2346
 1816SOL    HW3 7311   2.440   2.112   2.962 -0.1245 -0.3789  0.7016
 1816SOL    MW4 7312   2.457   2.107   3.047  0.4592 -0.0532  0.6053
 1817SOL     OW 7313   2.530   2.363   3.158  0.4684  0.2008 -0.6962
 1817SOL    HW2 7314   2.518   2.371   3.252 -1.0090  0.3550 -0.8811
 1817SOL    HW3 7315   2.510   2.271   3.139  1.0360  0.1024 -0.8162
 1817SOL    MW4 7316   2.526   2.352   3.168  0.3486  0.2081 -0.7362
 1818SOL     OW 7317   2.271   2.442   3.052 -0.5979 -0.5695 -0.1928
 1818SOL    HW2 7318   2.249   2.525   3.094  0.3702 -0.4048  0.0082
 1818SOL    HW3 7319   2.362   2.425   3.078  0.1998 -0.2181 -2.6418
 1818SOL    MW4 7320   2.280   2.450   3.061 -0.3648 -0.5014 -0.4892
 1819SOL     OW 7321   2.257   2.696   3.136  0.0516  0.3819 -0.1102
 1819SOL    HW2 7322   2.342   2.730   3.110  0.4230  0.3840  1.0600
 1819SOL    HW3 7323   2.196   2.768   3.118  0.2626  0.2906 -1.1739
 1819SOL    MW4 7324   2.260   2.710   3.130  0.1287  0.3703 -0.0961
 1820SOL     OW 7325   2.484   2.839   3.040  0.0759  0.3686  0.3627
 1820SOL    HW2 7326   2.468   2.931   3.062 -2.7580 -0.1841  0.8077
 1820SOL    HW3 7327   2.485   2.836   2.945  2.7668  1.2350  0.3223
 1820SOL    MW4 7328   2.482   2.851   3.030  0.0570  0.4101  0.4165
 1821SOL     OW 7329   2.466   3.107   3.170  0.0693  0.3285  0.0223
 1821SOL    HW2 7330   2.546   3.152   3.143  0.5397 -0.0283  0.7826
 1821SOL    HW3 7331   2.395   3.154   3.127  0.5304  1.9445  1.0011
 1821SOL    MW4 7332   2.467   3.119   3.161  0.1924  0.4947  0.2518
 1822SOL     OW 7333   2.265   3.229   3.033 -0.0849  0.0509  0.5649
 1822SOL    HW2 7334   2.264   3.312   3.081 -0.3602  0.3227  0.0985
 1822SOL    HW3 7335   2.184   3.185   3.059 -1.0525  0.9331 -0.9056
 1822SOL    MW4 7336   2.254   3.234   3.043 -0.2489  0.2034  0.3092
 1823SOL     OW 7337   2.258   3.479   3.159  0.3034  0.0040 -0.3768
 1823SOL    HW2 7338   2.342   3.523   3.144  0.9865 -1.1682 -0.0637
 1823SOL    HW3 7339   2.193   3.539   3.123  1.2898  0.8582 -0.7704
 1823SOL    MW4 7340   2.261   3.493   3.152  0.5238 -0.0379 -0.3874
 1824SOL     OW 7341   2.497   3.620   3.032  0.2572  0.0234 -0.3619
 1824SOL    HW2 7342   2.573   3.584   3.077 -1.4702 -1.6743  1.3098
 1824SOL    HW3 7343   2.491   3.710   3.065 -0.0773 -0.7161  1.6912
 1824SOL    MW4 7344   2.506   3.627   3.043 -0.0148 -0.2980  0.1295
 1825SOL     OW 7345   2.476   3.878   3.126 -0.0686  0.2062 -0.4596
 1825SOL    HW2 7346   2.496   3.845   3.214  0.7474  0.8628 -0.3944
 1825SOL    HW3 7347   2.560   3.910   3.093 -0.2707 -0.4773 -1.6679
 1825SOL    MW4 7348   2.490   3.878   3.134  0.0126  0.2027 -0.6106
 1826SOL     OW 7349   2.234   3.988   3.042  0.3697  0.0741  0.2606
 1826SOL    HW2 7350   2.317   3.958   3.080  0.1828 -2.6553 -1.3163
 1826SOL    HW3 7351   2.168   3.927   3.076 -0.7534  1.3314  0.3693
 1826SOL    MW4 7352   2.236   3.976   3.051  0.1969 -0.1202  0.0670
 1827SOL     OW 7353   2.238   4.244   3.106  0.1115  0.4113  0.1439
 1827SOL    HW2 7354   2.226   4.153   3.078 -0.3808  0.9302 -1.3452
 1827SOL    HW3 7355   2.154   4.286   3.089  0.5023  1.2812  0.3401
 1827SOL    MW4 7356   2.225   4.237   3.100  0.0980  0.5951 -0.0269
 1828SOL     OW 7357   2.473   4.370   3.045  0.5040  0.6136  0.3016
 1828SOL    HW2 7358   2.384   4.342   3.067  0.5040  1.1264  0.9651
 1828SOL    HW3 7359   2.473   4.378   2.949 -0.5026  1.7196  0.3856
 1828SOL    MW4 7360   2.461   4.367   3.035  0.3712  0.8268  0.4001
 1829SOL     OW 7361   2.919   4.663   3.163 -0.0340  0.0597 -0.4947
 1829SOL    HW2 7362   2.983   4.717   3.116 -1.4272  0.6845 -1.7243
 1829SOL    HW3 7363   2.921   4.579   3.118 -0.2925  0.1827 -0.7417
 1829SOL    MW4 7364   2.928   4.659   3.151 -0.2520  0.1583 -0.6897
 1830SOL     OW 7365   2.698   0.088   3.048 -0.3729  0.0353  0.0763
 1830SOL    HW2 7366   2.769   0.048   3.099  0.2762  1.6439  0.4815
 1830SOL    HW3 7367   2.619   0.043   3.077  0.4476 -1.6083 -0.1953
 1830SOL    MW4 7368   2.697   0.077   3.059 -0.1791  0.0307  0.0939
 1831SOL     OW 7369   2.709   0.331   3.144  0.4063 -0.0720 -0.3361
 1831SOL    HW2 7370   2.706   0.249   3.097 -0.4029 -0.1701 -0.1263
 1831SOL    HW3 7371   2.625   0.373   3.125 -0.7501 -0.9576  2.4861
 1831SOL    MW4 7372   2.698   0.326   3.135  0.1469 -0.2018  0.0641
 1832SOL     OW 7373   2.941   0.486   3.065  0.1327 -0.4794 -0.0458
 1832SOL    HW2 7374   2.866   0.428   3.078 -0.1630 -0.1315 -0.1848
 1832SOL    HW3 7375   2.939   0.508   2.972 -1.3065  1.8293  0.5043
 1832SOL    MW4 7376   2.931   0.481   3.055 -0.0961 -0.1289  0.0086
 1833SOL     OW 7377   2.958   0.748   3.188 -0.0483 -0.4227 -0.2360
 1833SOL    HW2 7378   2.952   0.742   3.283 -1.7755 -0.1570 -0.3223
 1833SOL    HW3 7379   2.959   0.657   3.158  0.2220 -0.5019  0.0066
 1833SOL    MW4 7380   2.957   0.735   3.196 -0.2406 -0.3982 -0.2153
 1834SOL     OW 7381   2.730   0.834   3.052 -0.1117 -0.0249 -0.0284
 1834SOL    HW2 7382   2.719   0.926   3.080 -0.6073 -0.0800 -0.0299
 1834SOL    HW3 7383   2.800   0.801   3.107  0.2799  0.4436 -0.2354
 1834SOL    MW4 7384   2.738   0.842   3.063 -0.1254  0.0296 -0.0558
 1835SOL     OW 7385   2.697   1.133   3.172 -0.2088 -0.3196  0.4529
 1835SOL    HW2 7386   2.765   1.182   3.125 -0.3126 -0.5086  0.1015
 1835SOL    HW3 7387   2.615   1.160   3.130 -0.4414  0.6098  1.4849
 1835SOL    MW4 7388   2.695   1.143   3.160 -0.2534 -0.2218  0.5424
 1836SOL     OW 7389   2.886   1.296   3.054 -0.5661  0.3020  0.1247
 1836SOL    HW2 7390   2.966   1.256   3.086 -0.9046 -0.0952  0.4720
 1836SOL    HW3 7391   2.886   1.384   3.093 -0.9017 -0.1228  1.1146
 1836SOL    MW4 7392   2.896   1.303   3.063 -0.6552  0.1936  0.3009
 1837SOL     OW 7393   2.915   1.567   3.141 -0.0173  0.3566  0.1364
 1837SOL    HW2 7394   2.914   1.556   3.236  0.0475 -0.1503  0.0795
 1837SOL    HW3 7395   3.004   1.595   3.121  0.2319 -0.4370  0.1270
 1837SOL    MW4 7396   2.926   1.569   3.151  0.0243  0.1850  0.1280
 1838SOL     OW 7397   2.689   1.704   3.059  0.1212 -0.1028  0.0100
 1838SOL    HW2 7398   2.776   1.691   3.096  0.7540  0.7905 -1.1207
 1838SOL    HW3 7399   2.643   1.622   3.075  1.6057 -1.0544 -0.5154
 1838SOL    MW4 7400   2.695   1.692   3.066  0.4005 -0.1105 -0.2086
 1839SOL     OW 7401   2.659   1.981   3.143 -0.0836  0.8291  0.1863
 1839SOL    HW2 7402   2.751   1.996   3.125  0.2059 -0.1983  0.7593
 1839SOL    HW3 7403   2.644   1.889   3.120 -1.0257  1.0612 -0.1680
 1839SOL    MW4 7404   2.669   1.971   3.138 -0.1698  0.7242  0.2151
 1840SOL     OW 7405   2.927   2.008   3.050  0.1751 -0.2383  0.3524
 1840SOL    HW2 7406   2.928   2.102   3.070  0.9590 -0.2465  0.3589
 1840SOL    HW3 7407   2.942   2.004   2.956  0.4357 -0.3714  0.4011
 1840SOL    MW4 7408   2.929   2.020   3.041  0.3128 -0.2570  0.3598
 1841SOL     OW 7409   2.941   2.289   3.113  0.1529 -0.3238 -0.1383
 1841SOL    HW2 7410   3.022   2.335   3.090 -0.2968 -1.4108 -4.3108
 1841SOL    HW3 7411   2.871   2.348   3.083 -0.5545 -0.5528  1.0422
 1841SOL    MW4 7412   2.943   2.303   3.106  0.0000 -0.4976 -0.5331
 1842SOL     OW 7413   2.744   2.478   3.016 -0.1032  0.0155 -0.1792
 1842SOL    HW2 7414   2.776   2.560   3.053  2.1972 -2.6249  4.0332
 1842SOL    HW3 7415   2.665   2.458   3.066 -0.2317 -0.7522 -0.6813
 1842SOL    MW4 7416   2.738   2.486   3.027  0.1833 -0.4342  0.3102
 1843SOL     OW 7417   2.738   2.733   3.122  0.1783  0.3028  0.4048
 1843SOL    HW2 7418   2.738   2.724   3.218  0.1572  2.3236  0.6035
 1843SOL    HW3 7419   2.649   2.758   3.101  0.5591  1.3089 -0.0047
 1843SOL    MW4 7420   2.727   2.735   3.132  0.2258  0.7021  0.3769
 1844SOL     OW 7421   2.949   2.875   3.048 -0.0750  0.3082 -0.0169
 1844SOL    HW2 7422   3.026   2.831   3.084 -0.6090 -0.1169  0.6083
 1844SOL    HW3 7423   2.875   2.827   3.084 -0.6208 -0.1450 -1.6935
 1844SOL    MW4 7424   2.950   2.863   3.057 -0.2177  0.1924 -0.1557
 1845SOL     OW 7425   2.920   3.116   3.194 -0.7592 -0.0400  0.0224
 1845SOL    HW2 7426   2.844   3.166   3.164 -0.8495 -0.1885  0.0052
 1845SOL    HW3 7427   2.910   3.030   3.154 -0.3559  0.0738 -0.3294
 1845SOL    MW4 7428   2.909   3.111   3.185 -0.7179 -0.0446 -0.0265
 1846SOL     OW 7429   2.686   3.261   3.076  0.5957 -0.1792  0.0362
 1846SOL    HW2 7430   2.683   3.352   3.105 -0.6416 -0.6534  1.4643
 1846SOL    HW3 7431   2.698   3.266   2.981  1.8025  1.4404  0.2625
 1846SOL    MW4 7432   2.687   3.274   3.067  0.5918 -0.0284  0.2544
 1847SOL     OW 7433   2.711   3.539   3.191  0.0449  0.7784 -0.0683
 1847SOL    HW2 7434   2.730   3.531   3.284  1.2877 -0.0166 -0.3827
 1847SOL    HW3 7435   2.792   3.574   3.153  0.3575 -1.1099 -1.1961
 1847SOL    MW4 7436   2.724   3.543   3.198  0.2501  0.4244 -0.2589
 1848SOL     OW 7437   2.955   3.611   3.090 -0.2819 -0.3074  0.0244
 1848SOL    HW2 7438   3.039   3.585   3.128 -0.6940  0.0746  1.2348
 1848SOL    HW3 7439   2.959   3.707   3.089 -0.5991 -0.2976 -0.1551
 1848SOL    MW4 7440   2.967   3.620   3.095 -0.3779 -0.2561  0.1605
 1849SOL     OW 7441   2.970   3.884   3.118 -0.0766  0.3675 -0.0863
 1849SOL    HW2 7442   2.956   3.877   3.212  1.0032 -0.5321  0.0233
 1849SOL    HW3 7443   2.884   3.904   3.082 -0.6606 -0.1517  1.0080
 1849SOL    MW4 7444   2.957   3.886   3.125 -0.0112  0.1802  0.0727
 1850SOL     OW 7445   2.713   3.950   3.031 -0.3172  0.4877  0.5735
 1850SOL    HW2 7446   2.725   4.042   3.054 -1.2047  1.0445 -1.1086
 1850SOL    HW3 7447   2.713   3.949   2.936  0.8363 -1.4266  0.5673
 1850SOL    MW4 7448   2.715   3.962   3.022 -0.2823  0.3083  0.3507
 1851SOL     OW 7449   2.708   4.219   3.117  0.0342 -0.3299  0.2786
 1851SOL    HW2 7450   2.707   4.234   3.212  1.5808  2.0916 -0.0600
 1851SOL    HW3 7451   2.617   4.228   3.090 -0.2402  0.2114  1.3604
 1851SOL    MW4 7452   2.696   4.222   3.126  0.2022  0.0610  0.3767
 1852SOL     OW 7453   2.904   4.398   3.047  0.2326 -0.6460 -0.8052
 1852SOL    HW2 7454   2.974   4.340   3.077 -0.2831  0.5911  2.9941
 1852SOL    HW3 7455   2.824   4.345   3.055  0.3723 -1.1737 -2.6114
 1852SOL    MW4 7456   2.903   4.383   3.052  0.1833 -0.5527 -0.5424
 1853SOL     OW 7457   3.371   4.649   3.187 -0.1396  0.0410 -0.0152
 1853SOL    HW2 7458   3.450   4.686   3.148 -0.2075 -0.3068 -0.4792
 1853SOL    HW3 7459   3.366   4.560   3.152 -0.7614  0.0740 -0.0183
 1853SOL    MW4 7460   3.381   4.642   3.178 -0.2306 -0.0005 -0.0768
 1854SOL     OW 7461   3.145   0.127   3.120  0.0579 -0.2857 -0.0728
 1854SOL    HW2 7462   3.166   0.213   3.155 -0.6276 -1.0342  2.2210
 1854SOL    HW3 7463   3.221   0.073   3.140  0.2127 -0.3948 -0.9259
 1854SOL    MW4 7464   3.158   0.131   3.127 -0.0122 -0.3989  0.1175
 1855SOL     OW 7465   3.178   0.397   3.186 -0.3678  0.6363 -0.6391
 1855SOL    HW2 7466   3.243   0.448   3.138 -1.1296  1.4070 -0.8829
 1855SOL    HW3 7467   3.094   0.424   3.147 -1.0279  1.4872  1.3279
 1855SOL    MW4 7468   3.175   0.407   3.174 -0.5553  0.8503 -0.4117
 1856SOL     OW 7469   3.386   0.548   3.068 -0.0528 -0.0736  0.1974
 1856SOL    HW2 7470   3.445   0.484   3.108  1.1185  0.8244 -0.0901
 1856SOL    HW3 7471   3.396   0.535   2.974 -0.9134 -0.4448  0.1432
 1856SOL    MW4 7472   3.395   0.537   3.061 -0.0117 -0.0041  0.1523
 1857SOL     OW 7473   3.375   0.792   3.148  0.0069  0.3365  0.2820
 1857SOL    HW2 7474   3.356   0.783   3.242 -0.1773 -1.9875  0.0732
 1857SOL    HW3 7475   3.375   0.701   3.116 -0.7080  1.1615 -2.1176
 1857SOL    MW4 7476   3.373   0.779   3.156 -0.1121  0.1387 -0.0620
 1858SOL     OW 7477   3.138   0.903   3.052 -0.0536  0.4403  0.5113
 1858SOL    HW2 7478   3.218   0.868   3.091 -1.2838 -2.3585  0.6491
 1858SOL    HW3 7479   3.068   0.871   3.109 -1.3881  1.6412 -0.4188
 1858SOL    MW4 7480   3.139   0.894   3.065 -0.3920  0.2295  0.4067
 1859SOL     OW 7481   3.124   1.170   3.131 -0.3728 -0.0453 -0.2327
 1859SOL    HW2 7482   3.128   1.163   3.227 -0.9190 -0.5911 -0.2463
 1859SOL    HW3 7483   3.128   1.079   3.101 -0.4732  0.1118 -0.7191
 1859SOL    MW4 7484   3.125   1.157   3.140 -0.4580 -0.0966 -0.2985
 1860SOL     OW 7485   3.364   1.267   3.036  0.5973  0.5987  0.7288
 1860SOL    HW2 7486   3.430   1.212   3.079  0.2775  0.8910  1.6114
 1860SOL    HW3 7487   3.280   1.229   3.061  0.4092  0.7442  0.3201
 1860SOL    MW4 7488   3.362   1.255   3.045  0.5302  0.6564  0.7913
 1861SOL     OW 7489   3.389   1.543   3.127 -0.0161 -0.1498  0.4851
 1861SOL    HW2 7490   3.415   1.540   3.219  1.4192  0.2637  0.1056
 1861SOL    HW3 7491   3.379   1.452   3.101  1.6718 -0.3471  0.4819
 1861SOL    MW4 7492   3.391   1.531   3.136  0.3958 -0.1214  0.4344
 1862SOL     OW 7493   3.169   1.654   3.015 -0.4763  0.7514  0.0362
 1862SOL    HW2 7494   3.252   1.620   3.048 -0.7553  0.9390  0.9283
 1862SOL    HW3 7495   3.171   1.634   2.921  0.2558  0.1106  0.1847
 1862SOL    MW4 7496   3.180   1.647   3.007 -0.4165  0.6917  0.1731
 1863SOL     OW 7497   3.190   1.918   3.097 -0.2412 -0.4471  0.5839
 1863SOL    HW2 7498   3.186   1.831   3.056 -0.0230 -0.2233  0.0799
 1863SOL    HW3 7499   3.101   1.951   3.091 -0.1347 -0.2675 -0.0437
 1863SOL    MW4 7500   3.178   1.911   3.091 -0.1984 -0.3937  0.4349
 1864SOL     OW 7501   3.415   2.032   3.017 -0.4152 -0.1797 -0.1911
 1864SOL    HW2 7502   3.478   1.996   3.078 -1.1167 -0.3093  0.4656
 1864SOL    HW3 7503   3.333   1.988   3.039 -1.0791  1.1281  0.0039
 1864SOL    MW4 7504   3.412   2.021   3.028 -0.5951 -0.0241 -0.0787
 1865SOL     OW 7505   3.356   2.282   3.126 -0.4735 -0.3303 -0.0531
 1865SOL    HW2 7506   3.354   2.277   3.221  2.2393 -1.7714 -0.0106
 1865SOL    HW3 7507   3.386   2.196   3.097  0.0039  0.4813 -2.1291
 1865SOL    MW4 7508   3.360   2.270   3.134 -0.0529 -0.4132 -0.3216
 1866SOL     OW 7509   3.158   2.448   3.053  0.2533 -0.6673  0.2480
 1866SOL    HW2 7510   3.236   2.396   3.073  0.5461  0.2253  1.5015
 1866SOL    HW3 7511   3.172   2.476   2.962  0.1001 -2.7183 -0.4208
 1866SOL    MW4 7512   3.170   2.445   3.043  0.2718 -0.8204  0.3250
 1867SOL     OW 7513   3.154   2.724   3.145 -0.3824  0.5381  0.4971
 1867SOL    HW2 7514   3.163   2.728   3.241 -0.3175 -1.0100  0.5731
 1867SOL    HW3 7515   3.136   2.632   3.127 -1.0234  0.9356 -0.9427
 1867SOL    MW4 7516   3.153   2.712   3.156 -0.4582  0.3860  0.3173
 1868SOL     OW 7517   3.396   2.826   3.063 -0.0556 -0.1655  0.0918
 1868SOL    HW2 7518   3.403   2.917   3.092 -0.4952 -0.3955  0.9442
 1868SOL    HW3 7519   3.313   2.795   3.100  0.7227 -1.3032  0.9227
 1868SOL    MW4 7520   3.386   2.834   3.072 -0.0112 -0.3459  0.3140
 1869SOL     OW 7521   3.408   3.106   3.150 -0.4623  0.6371  0.0629
 1869SOL    HW2 7522   3.413   3.129   3.243 -2.0683  0.0196  0.3222
 1869SOL    HW3 7523   3.322   3.136   3.122 -0.2241  0.2841 -1.0710
 1869SOL    MW4 7524   3.397   3.113   3.158 -0.6428  0.5088 -0.0522
 1870SOL     OW 7525   3.151   3.200   3.071 -0.0909  0.0154  0.3274
 1870SOL    HW2 7526   3.082   3.149   3.112 -0.4748 -1.2905 -1.8672
 1870SOL    HW3 7527   3.116   3.223   2.984  2.1575 -0.5351 -0.7616
 1870SOL    MW4 7528   3.137   3.197   3.065  0.1552 -0.2296 -0.1059
 1871SOL     OW 7529   3.159   3.474   3.216 -0.1750  0.1519  0.1333
 1871SOL    HW2 7530   3.230   3.488   3.154  0.9616  0.7767  1.5577
 1871SOL    HW3 7531   3.138   3.381   3.207  1.7267 -0.3455  0.6535
 1871SOL    MW4 7532   3.165   3.464   3.207  0.2260  0.1686  0.3898
 1872SOL     OW 7533   3.388   3.564   3.065 -0.1237  0.1801 -0.2198
 1872SOL    HW2 7534   3.467   3.516   3.089  1.4634  1.7152 -2.1356
 1872SOL    HW3 7535   3.395   3.647   3.113 -0.5425  0.3206 -0.3992
 1872SOL    MW4 7536   3.399   3.569   3.075  0.0303  0.4013 -0.4961
 1873SOL     OW 7537   3.415   3.811   3.177  0.2633 -0.1559 -0.0785
 1873SOL    HW2 7538   3.386   3.819   3.268  2.3723  0.2195  0.5738
 1873SOL    HW3 7539   3.356   3.869   3.128 -0.4945  0.0861  1.1074
 1873SOL    MW4 7540   3.403   3.820   3.182  0.4418 -0.0744  0.1640
 1874SOL     OW 7541   3.218   3.977   3.076  0.1796  0.3909 -0.1872
 1874SOL    HW2 7542   3.140   3.921   3.076  1.5063 -1.5309  0.4417
 1874SOL    HW3 7543   3.212   4.025   2.993 -0.6845 -1.1916 -1.0843
 1874SOL    MW4 7544   3.207   3.976   3.065  0.2406 -0.0715 -0.2224
 1875SOL     OW 7545   3.150   4.234   3.150 -0.6632 -0.4869 -0.1930
 1875SOL    HW2 7546   3.158   4.238   3.245 -0.7690 -1.0589 -0.1573
 1875SOL    HW3 7547   3.156   4.141   3.129  2.6956 -0.1338 -1.0652
 1875SOL    MW4 7548   3.152   4.222   3.160 -0.2341 -0.5159 -0.3033
 1876SOL     OW 7549   3.359   4.385   3.038  0.0921 -0.2768  0.1193
 1876SOL    HW2 7550   3.443   4.344   3.059  1.2196  1.1399 -1.5377
 1876SOL    HW3 7551   3.294   4.329   3.081  1.8534 -1.5134  1.2402
 1876SOL    MW4 7552   3.361   4.372   3.046  0.4733 -0.2537  0.0484
 1877SOL     OW 7553   3.819   4.645   3.169 -0.0002  0.0206  0.2570
 1877SOL    HW2 7554   3.818   4.553   3.143 -0.5317  0.2080 -0.4145
 1877SOL    HW3 7555   3.753   4.686   3.113  1.4842  1.1458 -0.6926
 1877SOL    MW4 7556   3.810   4.638   3.158  0.1254  0.1936  0.0432
 1878SOL     OW 7557   3.600   0.098   3.031 -0.4203  0.3276 -0.7531
 1878SOL    HW2 7558   3.593   0.187   3.067 -1.1435  0.3865 -1.0363
 1878SOL    HW3 7559   3.599   0.110   2.936 -1.0414 -0.0208 -0.7932
 1878SOL    MW4 7560   3.599   0.112   3.023 -0.5977  0.2894 -0.7956
 1879SOL     OW 7561   3.557   0.355   3.146  0.1022  0.0633  0.3080
 1879SOL    HW2 7562   3.535   0.340   3.238 -1.9188  1.1051  0.0378
 1879SOL    HW3 7563   3.637   0.407   3.149  1.3452 -1.8789  1.4155
 1879SOL    MW4 7564   3.565   0.360   3.159 -0.0005 -0.0555  0.4189
 1880SOL     OW 7565   3.783   0.521   3.100 -0.4547 -0.0881  0.5630
 1880SOL    HW2 7566   3.869   0.501   3.139  0.6435  0.0155 -1.7371
 1880SOL    HW3 7567   3.771   0.615   3.115 -0.8260 -0.3629  2.1123
 1880SOL    MW4 7568   3.793   0.531   3.107 -0.3586 -0.1108  0.4640
 1881SOL     OW 7569   3.800   0.795   3.177 -0.2888  0.1467  0.3339
 1881SOL    HW2 7570   3.792   0.760   3.265 -0.8578  0.5096  0.4273
 1881SOL    HW3 7571   3.894   0.795   3.159 -0.3308 -2.3277 -0.0388
 1881SOL    MW4 7572   3.812   0.791   3.186 -0.3693 -0.1319  0.2971
 1882SOL     OW 7573   3.596   0.888   3.016 -0.1072 -0.1318 -0.3966
 1882SOL    HW2 7574   3.668   0.852   3.067  0.2805 -0.6526 -1.3028
 1882SOL    HW3 7575   3.518   0.868   3.068  0.2695 -0.7779 -0.0679
 1882SOL    MW4 7576   3.595   0.881   3.029 -0.0062 -0.2858 -0.4725
 1883SOL     OW 7577   3.582   1.104   3.170 -0.3252 -0.2487 -0.1078
 1883SOL    HW2 7578   3.644   1.173   3.148  0.4455 -1.1471 -0.7513
 1883SOL    HW3 7579   3.598   1.035   3.106 -1.2131 -0.9597  0.4203
 1883SOL    MW4 7580   3.592   1.104   3.159 -0.3409 -0.4611 -0.1230
 1884SOL     OW 7581   3.768   1.264   3.073  0.0501 -0.1599  0.1196
 1884SOL    HW2 7582   3.801   1.347   3.108 -2.3395  0.9260 -0.0428
 1884SOL    HW3 7583   3.785   1.269   2.979  1.2801 -0.5222  0.3251
 1884SOL    MW4 7584   3.774   1.276   3.065 -0.1030 -0.0644  0.1254
 1885SOL     OW 7585   3.811   1.518   3.150  0.1985 -0.5579 -0.1426
 1885SOL    HW2 7586   3.805   1.532   3.244  1.3080 -1.9180  0.1401
 1885SOL    HW3 7587   3.739   1.570   3.113  1.0661  1.7048  1.2500
 1885SOL    MW4 7588   3.800   1.527   3.157  0.4594 -0.4390  0.0784
 1886SOL     OW 7589   3.612   1.675   3.036  0.3602 -0.2280 -0.1566
 1886SOL    HW2 7590   3.530   1.632   3.058  0.6642 -1.0815 -0.6772
 1886SOL    HW3 7591   3.619   1.666   2.941  1.1055 -0.2646 -0.1035
 1886SOL    MW4 7592   3.602   1.668   3.026  0.4990 -0.3456 -0.2184
 1887SOL     OW 7593   3.626   1.924   3.168  0.4411  0.1720  0.1101
 1887SOL    HW2 7594   3.594   1.907   3.257 -2.3257  1.0089 -0.6612
 1887SOL    HW3 7595   3.618   1.840   3.123  1.2979 -0.1159  0.4945
 1887SOL    MW4 7596   3.620   1.911   3.174  0.1891  0.2445  0.0591
 1888SOL     OW 7597   3.833   2.055   3.046 -0.4619 -0.2377  0.0807
 1888SOL    HW2 7598   3.753   2.007   3.069 -0.2089 -0.4729  0.4785
 1888SOL    HW3 7599   3.848   2.035   2.954  0.4280 -2.0866  0.5855
 1888SOL    MW4 7600   3.825   2.046   3.037 -0.3111 -0.5128  0.1996
 1889SOL     OW 7601   3.818   2.307   3.137  0.0265  0.4023  0.2363
 1889SOL    HW2 7602   3.816   2.302   3.232  0.7371 -1.0625  0.2012
 1889SOL    HW3 7603   3.839   2.217   3.109 -0.2778  0.7891 -1.2939
 1889SOL    MW4 7604   3.820   2.294   3.146  0.0801  0.2601  0.0298
 1890SOL     OW 7605   3.606   2.425   3.009 -0.5531  0.0857  0.9547
 1890SOL    HW2 7606   3.672   2.366   3.045 -0.1385  1.0377  1.7774
 1890SOL    HW3 7607   3.522   2.383   3.029 -0.2110 -1.0033  0.1210
 1890SOL    MW4 7608   3.603   2.412   3.017 -0.4535  0.0675  0.9532
 1891SOL     OW 7609   3.627   2.690   3.150 -0.1665 -0.0627  0.1829
 1891SOL    HW2 7610   3.624   2.598   3.123  0.0453 -0.2070  0.6426
 1891SOL    HW3 7611   3.545   2.727   3.119 -0.5347 -0.5648  0.5538
 1891SOL    MW4 7612   3.616   2.683   3.142 -0.1872 -0.1478  0.2925
 1892SOL     OW 7613   3.859   2.834   3.067 -0.6703  0.1400  0.6459
 1892SOL    HW2 7614   3.794   2.769   3.094 -1.0763  0.8804  1.4593
 1892SOL    HW3 7615   3.837   2.852   2.975 -0.0345 -1.4827  0.1557
 1892SOL    MW4 7616   3.847   2.828   3.058 -0.6399  0.0236  0.6886
 1893SOL     OW 7617   3.876   3.084   3.187 -0.1893  0.1466 -0.1023
 1893SOL    HW2 7618   3.882   2.999   3.145  0.2992  0.3726 -0.5084
 1893SOL    HW3 7619   3.813   3.133   3.134  1.0640  0.7197 -1.1132
 1893SOL    MW4 7620   3.869   3.080   3.175  0.0405  0.2522 -0.2894
 1894SOL     OW 7621   3.664   3.216   3.053 -0.0744 -0.1103 -0.3587
 1894SOL    HW2 7622   3.580   3.183   3.084  0.7211 -2.7012 -0.8813
 1894SOL    HW3 7623   3.648   3.244   2.963 -0.7570  1.0433  0.1065
 1894SOL    MW4 7624   3.651   3.216   3.045 -0.0596 -0.2997 -0.3662
 1895SOL     OW 7625   3.625   3.460   3.198 -0.0440 -0.0970  0.4201
 1895SOL    HW2 7626   3.679   3.532   3.165 -0.4605 -0.4308 -1.0289
 1895SOL    HW3 7627   3.657   3.382   3.153 -2.1564 -0.1947 -1.0003
 1895SOL    MW4 7628   3.636   3.459   3.188 -0.3777 -0.1538  0.0417
 1896SOL     OW 7629   3.793   3.637   3.083 -0.0956  0.4126  0.0891
 1896SOL    HW2 7630   3.875   3.591   3.098 -0.0567  0.3608 -0.2819
 1896SOL    HW3 7631   3.816   3.730   3.092 -0.4282  0.3279  2.0904
 1896SOL    MW4 7632   3.807   3.643   3.086 -0.1342  0.3946  0.3042
 1897SOL     OW 7633   3.848   3.911   3.144 -0.5241  0.3791 -0.1341
 1897SOL    HW2 7634   3.844   3.892   3.238  0.8058  0.3559 -0.0773
 1897SOL    HW3 7635   3.761   3.945   3.123 -1.1722 -0.6304  0.8841
 1897SOL    MW4 7636   3.836   3.913   3.154 -0.4339  0.2427  0.0081
 1898SOL     OW 7637   3.587   3.990   3.080 -0.0871  0.4170 -0.4190
 1898SOL    HW2 7638   3.532   3.919   3.113  2.0849 -0.7990  0.6801
 1898SOL    HW3 7639   3.551   4.010   2.994 -1.6823 -0.9446 -0.0954
 1898SOL    MW4 7640   3.575   3.983   3.073 -0.0110  0.0772 -0.2315
 1899SOL     OW 7641   3.572   4.254   3.163  0.1649 -0.0395 -0.2649
 1899SOL    HW2 7642   3.658   4.286   3.137  0.0197 -0.0266 -0.7323
 1899SOL    HW3 7643   3.572   4.162   3.137 -0.7159  0.4660 -2.1724
 1899SOL    MW4 7644   3.583   4.246   3.156  0.0293  0.0286 -0.5784
 1900SOL     OW 7645   3.838   4.360   3.107 -0.2871 -0.1801 -0.0997
 1900SOL    HW2 7646   3.915   4.328   3.154  0.5717  0.7165 -0.8636
 1900SOL    HW3 7647   3.859   4.348   3.015 -0.7187  0.8179 -0.3412
 1900SOL    MW4 7648   3.851   4.354   3.101 -0.2308  0.0696 -0.2322
 1901SOL     OW 7649   4.276   4.657   3.181  0.6582 -0.0767 -0.0543
 1901SOL    HW2 7650   4.266   4.643   3.276  0.0638  0.4953 -0.0272
 1901SOL    HW3 7651   4.275   4.569   3.144  0.0742 -0.2657  0.3990
 1901SOL    MW4 7652   4.275   4.644   3.189  0.5031 -0.0262  0.0093
 1902SOL     OW 7653   4.047   0.132   3.080 -0.6317  0.1464 -0.3741
 1902SOL    HW2 7654   4.131   0.095   3.108 -0.5089  0.2736 -0.5685
 1902SOL    HW3 7655   3.982   0.091   3.136 -0.4145  0.2048 -0.0819
 1902SOL    MW4 7656   4.050   0.122   3.091 -0.5865  0.1709 -0.3614
 1903SOL     OW 7657   4.036   0.398   3.161  0.5268 -0.0514  0.5921
 1903SOL    HW2 7658   4.111   0.443   3.124  0.8656 -1.2511 -0.1864
 1903SOL    HW3 7659   4.032   0.315   3.115 -2.3737  0.7371 -0.7137
 1903SOL    MW4 7660   4.045   0.393   3.150  0.1893 -0.1056  0.3171
 1904SOL     OW 7661   4.259   0.523   3.081  0.1698  0.3264  0.1084
 1904SOL    HW2 7662   4.288   0.608   3.115  0.4970  0.3048 -0.1160
 1904SOL    HW3 7663   4.255   0.535   2.986 -1.8997  0.7446  0.2247
 1904SOL    MW4 7664   4.263   0.536   3.073 -0.0601  0.3788  0.0942
 1905SOL     OW 7665   4.299   0.772   3.188 -0.0439 -0.0227 -0.2588
 1905SOL    HW2 7666   4.213   0.805   3.160 -0.9168 -1.9609  0.0284
 1905SOL    HW3 7667   4.362   0.828   3.144 -1.4603  0.5296 -1.6281
 1905SOL    MW4 7668   4.296   0.784   3.179 -0.3462 -0.2056 -0.4015
 1906SOL     OW 7669   4.054   0.888   3.076  0.4538  0.2053  0.3225
 1906SOL    HW2 7670   4.046   0.975   3.115 -1.1891  0.5455 -0.6975
 1906SOL    HW3 7671   4.046   0.903   2.981 -0.3511 -1.0941  0.1667
 1906SOL    MW4 7672   4.052   0.901   3.068  0.1307  0.0788  0.1669
 1907SOL     OW 7673   4.018   1.140   3.180  0.0432  0.1392 -0.5621
 1907SOL    HW2 7674   4.022   1.166   3.272 -1.2164 -3.5088  0.6300
 1907SOL    HW3 7675   3.927   1.154   3.155  0.2289  0.4802 -1.0392
 1907SOL    MW4 7676   4.006   1.145   3.189 -0.0982 -0.2972 -0.4678
 1908SOL     OW 7677   4.270   1.272   3.084  0.3444  0.3480 -0.3318
 1908SOL    HW2 7678   4.192   1.224   3.113  1.4329 -1.0601  0.2852
 1908SOL    HW3 7679   4.257   1.283   2.989 -0.5676  0.0616 -0.2482
 1908SOL    MW4 7680   4.258   1.267   3.075  0.3676  0.1245 -0.2394
 1909SOL     OW 7681   4.261   1.539   3.201  0.0160 -0.2264  0.2222
 1909SOL    HW2 7682   4.181   1.572   3.161  0.9588  1.3145 -0.4431
 1909SOL    HW3 7683   4.264   1.446   3.178 -0.8801  0.0255 -0.9114
 1909SOL    MW4 7684   4.251   1.531   3.193  0.0224  0.0101 -0.0150
 1910SOL     OW 7685   4.034   1.643   3.070  0.4452  0.2440  0.3532
 1910SOL    HW2 7686   4.029   1.734   3.097 -0.9748 -0.0650  1.1305
 1910SOL    HW3 7687   3.948   1.606   3.089  1.0761 -1.3296  0.3030
 1910SOL    MW4 7688   4.022   1.650   3.076  0.3414 -0.0044  0.4489
 1911SOL     OW 7689   4.043   1.945   3.193 -0.0689  0.1885  0.0074
 1911SOL    HW2 7690   4.112   1.975   3.133 -0.8844  1.2226 -0.4193
 1911SOL    HW3 7691   3.964   1.989   3.163 -0.5445  0.4938  1.6685
 1911SOL    MW4 7692   4.042   1.955   3.182 -0.2394  0.3651  0.1702
 1912SOL     OW 7693   4.256   2.041   3.033 -0.1473  0.8405 -0.1390
 1912SOL    HW2 7694   4.235   2.131   3.056 -1.3359  0.9587 -1.5421
 1912SOL    HW3 7695   4.256   2.040   2.937 -1.3597 -0.8885 -0.1639
 1912SOL    MW4 7696   4.253   2.052   3.023 -0.4640  0.6280 -0.3271
 1913SOL     OW 7697   4.272   2.315   3.086  0.8144 -0.4130 -0.1046
 1913SOL    HW2 7698   4.199   2.371   3.063 -0.4534 -2.3344 -0.8624
 1913SOL    HW3 7699   4.349   2.360   3.052 -0.3260  0.1644 -1.9689
 1913SOL    MW4 7700   4.273   2.328   3.079  0.4969 -0.5901 -0.4506
 1914SOL     OW 7701   4.036   2.455   3.026 -0.5350  0.0213  0.2711
 1914SOL    HW2 7702   4.056   2.534   3.075  1.8252 -0.0200 -0.5917
 1914SOL    HW3 7703   3.966   2.413   3.076 -1.1041  2.1155  1.2840
 1914SOL    MW4 7704   4.029   2.460   3.039 -0.2980  0.2921  0.2909
 1915SOL     OW 7705   4.081   2.719   3.153 -0.0581  0.1051 -0.1315
 1915SOL    HW2 7706   4.073   2.742   3.246 -1.0825 -1.2013  0.1256
 1915SOL    HW3 7707   4.005   2.760   3.112 -0.7889 -1.1078 -0.0119
 1915SOL    MW4 7708   4.070   2.728   3.160 -0.2899 -0.2272 -0.0815
 1916SOL     OW 7709   4.305   2.853   3.035 -0.1622  0.0198  0.0224
 1916SOL    HW2 7710   4.235   2.803   3.077  0.6764 -0.9625  0.2861
 1916SOL    HW3 7711   4.385   2.806   3.059  0.5265  0.7457 -0.8252
 1916SOL    MW4 7712   4.307   2.840   3.044  0.0396 -0.0143 -0.0546
 1917SOL     OW 7713   4.291   3.124   3.134 -0.1472  0.6833 -0.1972
 1917SOL    HW2 7714   4.209   3.152   3.095 -0.2155  1.5184  0.5397
 1917SOL    HW3 7715   4.306   3.037   3.098 -1.6670  0.2666  0.1343
 1917SOL    MW4 7716   4.282   3.116   3.124 -0.3572  0.7384 -0.0563
 1918SOL     OW 7717   4.048   3.234   3.034  0.1581 -0.6724 -0.1127
 1918SOL    HW2 7718   3.984   3.187   3.086 -0.9818 -0.2722 -1.1289
 1918SOL    HW3 7719   4.019   3.223   2.943  1.0970  0.1434 -0.5308
 1918SOL    MW4 7720   4.036   3.226   3.029  0.1316 -0.5119 -0.3021
 1919SOL     OW 7721   4.059   3.511   3.150 -0.5633  0.7602 -0.0002
 1919SOL    HW2 7722   4.086   3.437   3.096 -0.8336  0.1475  0.7063
 1919SOL    HW3 7723   4.082   3.487   3.239 -0.6984  1.5066  0.2440
 1919SOL    MW4 7724   4.066   3.498   3.154 -0.6170  0.7780  0.1254
 1920SOL     OW 7725   4.251   3.684   3.034  0.0141  0.1313  0.5367
 1920SOL    HW2 7726   4.228   3.764   3.082  1.2782  0.4134  0.6776
 1920SOL    HW3 7727   4.187   3.620   3.064 -0.5458  0.8815  0.9832
 1920SOL    MW4 7728   4.239   3.686   3.044  0.1063  0.2673  0.6144
 1921SOL     OW 7729   4.228   3.912   3.220 -0.4334 -0.5311 -0.8773
 1921SOL    HW2 7730   4.171   3.972   3.173  0.8526  1.8011  0.4355
 1921SOL    HW3 7731   4.315   3.925   3.180  0.4010  0.5423  1.1854
 1921SOL    MW4 7732   4.232   3.922   3.209 -0.1535 -0.0818 -0.4320
 1922SOL     OW 7733   4.081   4.056   3.029 -0.2348  0.1335  0.0361
 1922SOL    HW2 7734   4.096   4.140   3.071  0.9192 -0.6030  1.1438
 1922SOL    HW3 7735   3.992   4.031   3.055 -0.2813  0.6448  0.3608
 1922SOL    MW4 7736   4.072   4.064   3.038 -0.0887  0.1040  0.2253
 1923SOL     OW 7737   4.083   4.266   3.207 -0.3980  0.0452 -0.3286
 1923SOL    HW2 7738   4.081   4.263   3.302 -0.3066 -0.7013 -0.3456
 1923SOL    HW3 7739   4.162   4.314   3.185  0.0304 -0.5226 -0.0334
 1923SOL    MW4 7740   4.093   4.272   3.216 -0.3290 -0.1283 -0.2921
 1924SOL     OW 7741   4.300   4.414   3.081  0.3449 -0.8301  0.1329
 1924SOL    HW2 7742   4.378   4.363   3.101 -0.3875 -2.0388 -0.0073
 1924SOL    HW3 7743   4.301   4.424   2.986  2.4750  2.7047  0.4713
 1924SOL    MW4 7744   4.310   4.408   3.071  0.5293 -0.5231  0.1588
 1925SOL     OW 7745   0.177   0.012   3.443  0.2084 -0.1025 -0.0897
 1925SOL    HW2 7746   0.245   0.072   3.472  0.6184  0.1783 -1.6205
 1925SOL    HW3 7747   0.192  -0.069   3.493 -0.0078  0.8649  1.5633
 1925SOL    MW4 7748   0.188   0.009   3.453  0.2339  0.0622 -0.0737
 1926SOL     OW 7749   4.461   0.158   3.578 -0.2123  0.4605  0.0625
 1926SOL    HW2 7750   4.453   0.244   3.537 -1.0264  0.4632  0.2161
 1926SOL    HW3 7751   4.525   0.112   3.524  0.1171  1.1073 -0.1104
 1926SOL    MW4 7752   4.469   0.163   3.565 -0.2761  0.5462  0.0601
 1927SOL     OW 7753   4.415   0.405   3.460 -0.0567  0.2517  0.0568
 1927SOL    HW2 7754   4.345   0.436   3.518 -0.2533 -1.0282  0.5317
 1927SOL    HW3 7755   4.494   0.448   3.492 -0.1812 -0.3549  1.2255
 1927SOL    MW4 7756   4.416   0.415   3.472 -0.0997  0.0028  0.2737
 1928SOL     OW 7757   0.159   0.514   3.540 -0.5386 -0.5626 -0.0037
 1928SOL    HW2 7758   0.237   0.474   3.501 -0.6958 -1.2409  0.3676
 1928SOL    HW3 7759   0.153   0.601   3.499 -0.7655 -1.3029 -1.5890
 1928SOL    MW4 7760   0.168   0.520   3.529 -0.5893 -0.7497 -0.1638
 1929SOL     OW 7761   0.168   0.784   3.429 -0.2771 -0.0602 -0.0641
 1929SOL    HW2 7762   0.243   0.832   3.466 -0.3303  0.4089 -0.5591
 1929SOL    HW3 7763   0.092   0.833   3.458 -0.3852 -0.4258  0.2731
 1929SOL    MW4 7764   0.168   0.797   3.438 -0.2984 -0.0466 -0.0846
 1930SOL     OW 7765   4.449   0.924   3.559  0.1389 -0.5920  0.4434
 1930SOL    HW2 7766   4.450   0.919   3.654 -0.1854 -0.5172  0.4538
 1930SOL    HW3 7767   4.472   1.015   3.540  2.7133 -1.2316  0.3646
 1930SOL    MW4 7768   4.452   0.935   3.569  0.4354 -0.6664  0.4344
 1931SOL     OW 7769   4.471   1.172   3.449  0.1146  0.2216 -0.5062
 1931SOL    HW2 7770   4.536   1.229   3.489  0.3613  0.1511 -0.8003
 1931SOL    HW3 7771   4.491   1.174   3.355  1.1365 -1.6077 -0.3522
 1931SOL    MW4 7772   4.482   1.180   3.442  0.2813 -0.0290 -0.5243
 1932SOL     OW 7773   0.161   1.334   3.584 -0.0189 -0.3727  0.5446
 1932SOL    HW2 7774   0.235   1.276   3.563  0.2164 -0.3599  1.3177
 1932SOL    HW3 7775   0.173   1.409   3.527  0.0458 -0.7864  0.0036
 1932SOL    MW4 7776   0.172   1.336   3.574  0.0207 -0.4257  0.5753
 1933SOL     OW 7777   0.192   1.561   3.423  0.2131 -0.0990  0.6134
 1933SOL    HW2 7778   0.268   1.611   3.452  0.0204 -1.0656  2.8798
 1933SOL    HW3 7779   0.202   1.555   3.328  1.9127  1.4716  0.6677
 1933SOL    MW4 7780   0.203   1.567   3.414  0.4119 -0.0194  0.9196
 1934SOL     OW 7781   4.479   1.709   3.540  0.1814 -0.4988 -0.0148
 1934SOL    HW2 7782   4.402   1.653   3.544  1.1105 -1.7958  0.1498
 1934SOL    HW3 7783   4.546   1.654   3.498  0.8858  0.7516 -0.5535
 1934SOL    MW4 7784   4.478   1.694   3.535  0.3967 -0.5050 -0.0641
 1935SOL     OW 7785   4.480   1.952   3.420 -0.2464 -0.2305 -0.3217
 1935SOL    HW2 7786   4.472   1.866   3.462  0.6657 -0.0557  0.2312
 1935SOL    HW3 7787   4.473   1.934   3.326  1.2400 -1.0888 -0.2979
 1935SOL    MW4 7788   4.478   1.938   3.413  0.0700 -0.3206 -0.2458
 1936SOL     OW 7789   0.181   2.130   3.541 -0.2101  0.3204 -0.2887
 1936SOL    HW2 7790   0.144   2.127   3.629  0.1544  1.2039 -0.0949
 1936SOL    HW3 7791   0.111   2.098   3.484 -0.1465 -1.0859  0.4069
 1936SOL    MW4 7792   0.167   2.125   3.545 -0.1536  0.2513 -0.1714
 1937SOL     OW 7793   0.232   2.373   3.429  0.2478  0.0800  0.1509
 1937SOL    HW2 7794   0.159   2.428   3.459  0.6067  0.4563  0.3482
 1937SOL    HW3 7795   0.223   2.292   3.479  1.4703  1.1029  2.1376
 1937SOL    MW4 7796   0.221   2.370   3.440  0.4565  0.2646  0.4394
 1938SOL     OW 7797   4.485   2.477   3.493 -0.3855  0.0769  0.4566
 1938SOL    HW2 7798   4.502   2.473   3.587 -1.2886  2.1418  0.7313
 1938SOL    HW3 7799   4.407   2.423   3.480 -1.3300  1.2412  1.1875
 1938SOL    MW4 7800   4.477   2.470   3.503 -0.6293  0.5033  0.5894
 1939SOL     OW 7801   4.467   2.738   3.438 -0.3277 -0.1141  0.0478
 1939SOL    HW2 7802   4.547   2.774   3.475  0.7813 -0.5857 -1.8106
 1939SOL    HW3 7803   4.470   2.645   3.457 -0.5238 -0.1017  0.1433
 1939SOL    MW4 7804   4.478   2.731   3.445 -0.2074 -0.1748 -0.1845
 1940SOL     OW 7805   0.237   2.822   3.537  0.4348 -0.2493  0.1128
 1940SOL    HW2 7806   0.310   2.783   3.489  0.2418  0.2424 -0.5865
 1940SOL    HW3 7807   0.238   2.914   3.512 -1.0587 -0.4424 -0.7110
 1940SOL    MW4 7808   0.246   2.829   3.527  0.2123 -0.2100 -0.0880
 1941SOL     OW 7809   4.470   4.399   4.186  0.2944  0.0904  0.0928
 1941SOL    HW2 7810   4.427   4.320   4.219  1.7675 -0.5657  0.4984
 1941SOL    HW3 7811   4.557   4.398   4.227  0.5371  1.6244 -0.3396
 1941SOL    MW4 7812   4.476   4.388   4.196  0.5212  0.2060  0.0892
 1942SOL     OW 7813   4.244   2.858   3.560 -0.0168  0.4810 -0.4921
 1942SOL    HW2 7814   4.304   2.793   3.522  1.3579  0.3996  1.7499
 1942SOL    HW3 7815   4.274   2.942   3.525 -0.3741  0.1681 -1.5829
 1942SOL    MW4 7816   4.256   2.861   3.550  0.1173  0.4289 -0.3405
 1943SOL     OW 7817   0.037   3.490   3.430 -0.0869  0.2324 -0.2546
 1943SOL    HW2 7818  -0.049   3.522   3.456  0.4845  2.3532 -0.8672
 1943SOL    HW3 7819   0.044   3.512   3.337  0.8257 -0.5480 -0.3761
 1943SOL    MW4 7820   0.027   3.497   3.421  0.1088  0.4091 -0.3517
 1944SOL     OW 7821   0.287   3.627   3.496 -0.2528 -0.5518 -0.2468
 1944SOL    HW2 7822   0.296   3.621   3.591  0.4733  0.5112 -0.2512
 1944SOL    HW3 7823   0.200   3.590   3.478  0.2390 -2.1826  0.6726
 1944SOL    MW4 7824   0.277   3.621   3.506 -0.0921 -0.6266 -0.1259
 1945SOL     OW 7825   0.272   3.883   3.452  0.0635 -0.4728  0.0242
 1945SOL    HW2 7826   0.186   3.902   3.489  0.2336 -3.6826  2.2995
 1945SOL    HW3 7827   0.277   3.788   3.450  2.6178 -0.3620 -2.4515
 1945SOL    MW4 7828   0.262   3.873   3.457  0.4229 -0.8814 -0.0021
 1946SOL     OW 7829   0.028   3.980   3.546 -0.0714 -0.4416  0.1837
 1946SOL    HW2 7830   0.034   4.012   3.637  1.7693  0.0857 -0.0971
 1946SOL    HW3 7831   0.023   4.060   3.493 -0.5983 -0.7398 -0.2218
 1946SOL    MW4 7832   0.028   3.995   3.551  0.1016 -0.4113  0.0927
 1947SOL     OW 7833   0.001   4.241   3.432 -0.3574 -1.0482  0.2066
 1947SOL    HW2 7834  -0.079   4.278   3.470  0.2849  1.5940 -0.8680
 1947SOL    HW3 7835   0.072   4.288   3.475  0.5155 -1.4720 -0.7487
 1947SOL    MW4 7836  -0.001   4.252   3.442 -0.1575 -0.7553 -0.0613
 1948SOL     OW 7837   0.199   4.420   3.541 -0.4188  0.0059  0.7133
 1948SOL    HW2 7838   0.188   4.421   3.636  0.0892  0.6835  0.7719
 1948SOL    HW3 7839   0.277   4.366   3.526 -0.5069 -0.1118  0.6755
 1948SOL    MW4 7840   0.208   4.413   3.551 -0.3634  0.0801  0.7160
 1949SOL     OW 7841   0.631   0.017   3.432 -0.5225 -0.5917 -0.2947
 1949SOL    HW2 7842   0.708   0.069   3.455 -0.8017 -0.6593  0.8369
 1949SOL    HW3 7843   0.633   0.012   3.337  0.0107  0.7417 -0.3713
 1949SOL    MW4 7844   0.641   0.023   3.422 -0.4890 -0.4247 -0.1554
 1950SOL     OW 7845   0.411   0.142   3.519  0.2852 -0.1094 -0.2031
 1950SOL    HW2 7846   0.403   0.131   3.614 -0.7699 -1.3905 -0.4151
 1950SOL    HW3 7847   0.491   0.095   3.496  0.4743  0.0959  0.0339
 1950SOL    MW4 7848   0.421   0.134   3.529  0.1709 -0.2513 -0.1998
 1951SOL     OW 7849   0.397   0.404   3.435  0.1473 -0.3063 -0.3694
 1951SOL    HW2 7850   0.472   0.446   3.477 -1.0218 -0.0103  1.4816
 1951SOL    HW3 7851   0.408   0.310   3.452 -0.0887 -0.2275  0.2326
 1951SOL    MW4 7852   0.408   0.397   3.443 -0.0381 -0.2568 -0.0458
 1952SOL     OW 7853   0.653   0.497   3.523 -0.1528 -0.1568 -0.2163
 1952SOL    HW2 7854   0.674   0.521   3.613 -1.8312  1.0000 -0.1245
 1952SOL    HW3 7855   0.737   0.468   3.486  0.6495 -0.1301  1.5403
 1952SOL    MW4 7856   0.667   0.496   3.530 -0.2684 -0.0007  0.0277
 1953SOL     OW 7857   0.632   0.746   3.418 -0.3746 -0.2150 -0.4439
 1953SOL    HW2 7858   0.551   0.781   3.454  0.5128  0.0812  1.3440
 1953SOL    HW3 7859   0.651   0.669   3.472  0.2220 -0.6285 -1.2300
 1953SOL    MW4 7860   0.624   0.741   3.430 -0.1788 -0.2305 -0.3116
 1954SOL     OW 7861   0.427   0.910   3.503  0.3602  0.1720  0.0681
 1954SOL    HW2 7862   0.436   0.914   3.598  1.8545  0.2306 -0.0661
 1954SOL    HW3 7863   0.421   1.001   3.475  0.4060  0.1732  0.0623
 1954SOL    MW4 7864   0.427   0.923   3.511  0.5634  0.1799  0.0498
 1955SOL     OW 7865   0.412   1.214   3.487 -0.0364 -0.4646  0.2654
 1955SOL    HW2 7866   0.472   1.279   3.524  0.2002 -1.4436  1.6196
 1955SOL    HW3 7867   0.424   1.222   3.392 -0.5556  1.9789  0.3700
 1955SOL    MW4 7868   0.422   1.224   3.479 -0.0737 -0.2716  0.4582
 1956SOL     OW 7869   0.664   1.326   3.594 -0.2583 -0.1769  0.2371
 1956SOL    HW2 7870   0.706   1.251   3.552 -1.3256 -0.5830 -0.1168
 1956SOL    HW3 7871   0.677   1.398   3.532  1.4335  0.1213  0.9273
 1956SOL    MW4 7872   0.671   1.326   3.580 -0.1760 -0.1911  0.2813
 1957SOL     OW 7873   0.674   1.529   3.416 -0.1949 -0.0719  0.2092
 1957SOL    HW2 7874   0.752   1.564   3.458 -0.8621 -0.6924  2.0176
 1957SOL    HW3 7875   0.603   1.587   3.445 -0.8381 -1.1678  0.8602
 1957SOL    MW4 7876   0.675   1.541   3.425 -0.3677 -0.2985  0.5338
 1958SOL     OW 7877   0.428   1.675   3.529  0.4740  0.1448  0.0485
 1958SOL    HW2 7878   0.439   1.666   3.624 -0.3367 -1.6281 -0.0184
 1958SOL    HW3 7879   0.428   1.770   3.515  0.2293  0.4445  1.8622
 1958SOL    MW4 7880   0.430   1.686   3.540  0.3347 -0.0496  0.2792
 1959SOL     OW 7881   0.408   1.924   3.416 -0.3355 -0.4908 -0.1378
 1959SOL    HW2 7882   0.328   1.970   3.441 -1.2882 -2.5477  0.7132
 1959SOL    HW3 7883   0.407   1.924   3.320 -0.3678  1.1320 -0.1529
 1959SOL    MW4 7884   0.397   1.930   3.407 -0.4655 -0.5481 -0.0277
 1960SOL     OW 7885   0.670   1.998   3.512 -0.6244 -0.3388  0.4105
 1960SOL    HW2 7886   0.689   2.086   3.479 -0.1711 -0.4660  0.3356
 1960SOL    HW3 7887   0.581   1.980   3.481  0.3725 -1.0842 -2.0990
 1960SOL    MW4 7888   0.661   2.007   3.503 -0.4330 -0.4542  0.0699
 1961SOL     OW 7889   0.660   2.292   3.414  0.2866  0.2230  0.7226
 1961SOL    HW2 7890   0.590   2.353   3.437 -0.3154 -0.3768  0.4908
 1961SOL    HW3 7891   0.739   2.346   3.413 -0.6159  1.6468 -2.2949
 1961SOL    MW4 7892   0.661   2.308   3.417  0.0881  0.3319  0.2940
 1962SOL     OW 7893   0.458   2.467   3.506  0.0882 -0.2934 -0.0669
 1962SOL    HW2 7894   0.454   2.461   3.601  1.1436  1.7339  0.1360
 1962SOL    HW3 7895   0.372   2.438   3.477 -1.5289  2.4437  1.7266
 1962SOL    MW4 7896   0.446   2.463   3.515  0.0141  0.3355  0.1967
 1963SOL     OW 7897   0.433   2.716   3.393  0.2598 -0.1796  0.3265
 1963SOL    HW2 7898   0.432   2.623   3.417  0.3727 -0.2250  0.1569
 1963SOL    HW3 7899   0.454   2.716   3.300  0.7973  0.0402  0.4485
 1963SOL    MW4 7900   0.435   2.704   3.384  0.3456 -0.1566  0.3204
 1964SOL     OW 7901   0.718   3.142   3.450  0.1172 -0.3863 -0.1907
 1964SOL    HW2 7902   0.712   3.048   3.470 -1.8009  0.2290  2.3546
 1964SOL    HW3 7903   0.629   3.174   3.459  0.8134  1.7533 -0.7526
 1964SOL    MW4 7904   0.705   3.134   3.454 -0.0440 -0.0226  0.0710
 1965SOL     OW 7905   0.487   3.246   3.512  0.3165  0.0273  0.0301
 1965SOL    HW2 7906   0.418   3.183   3.492 -0.1106  1.0275 -1.8109
 1965SOL    HW3 7907   0.482   3.258   3.607 -2.1247  0.1286 -0.0661
 1965SOL    MW4 7908   0.477   3.239   3.522 -0.0620  0.1726 -0.2255
 1966SOL     OW 7909   0.255   3.094   3.430  0.8368 -0.3209 -0.0428
 1966SOL    HW2 7910   0.270   3.126   3.340  1.2516  1.5714  0.6625
 1966SOL    HW3 7911   0.185   3.150   3.463 -0.3928 -2.0394  0.3108
 1966SOL    MW4 7912   0.248   3.106   3.422  0.7294 -0.2983  0.0970
 1967SOL     OW 7913   0.515   3.519   3.412  0.3665  0.5495  0.6063
 1967SOL    HW2 7914   0.501   3.429   3.441 -0.1515 -0.0568 -1.4832
 1967SOL    HW3 7915   0.433   3.564   3.431  0.1360  0.2334  0.3463
 1967SOL    MW4 7916   0.503   3.513   3.419  0.2678  0.4280  0.2964
 1968SOL     OW 7917   0.711   3.649   3.549  0.3988 -0.4675 -0.1976
 1968SOL    HW2 7918   0.788   3.599   3.521  0.4138 -0.7807  0.3979
 1968SOL    HW3 7919   0.639   3.613   3.497  0.6097 -0.3426 -0.5782
 1968SOL    MW4 7920   0.712   3.637   3.538  0.4287 -0.4923 -0.1695
 1969SOL     OW 7921   0.670   3.902   3.125 -0.3184  0.4394  0.6132
 1969SOL    HW2 7922   0.678   3.885   3.219  1.2810 -1.5448  0.1687
 1969SOL    HW3 7923   0.667   3.814   3.086  0.5782  1.2349 -1.2961
 1969SOL    MW4 7924   0.671   3.888   3.132  0.0109  0.2825  0.3028
 1970SOL     OW 7925   0.496   4.041   3.548  0.5004  0.5459 -0.5496
 1970SOL    HW2 7926   0.482   4.126   3.507  0.3316  0.0084 -1.6287
 1970SOL    HW3 7927   0.418   3.990   3.526  0.7842 -0.0237 -0.2663
 1970SOL    MW4 7928   0.484   4.045   3.540  0.5156  0.4001 -0.6547
 1971SOL     OW 7929   0.434   4.309   3.451 -0.0126  0.3083 -0.2048
 1971SOL    HW2 7930   0.510   4.355   3.487  1.0700 -1.2455 -0.4241
 1971SOL    HW3 7931   0.449   4.309   3.356 -0.8058  0.8772 -0.3333
 1971SOL    MW4 7932   0.446   4.315   3.443  0.0256  0.1783 -0.2508
 1972SOL     OW 7933   0.662   4.440   3.548  0.9423  0.6688  0.1699
 1972SOL    HW2 7934   0.747   4.399   3.533 -0.0305 -0.9812 -1.0298
 1972SOL    HW3 7935   0.669   4.526   3.507  1.9051  0.3940 -0.2437
 1972SOL    MW4 7936   0.674   4.446   3.541  0.9409  0.4148 -0.0429
 1973SOL     OW 7937   1.128   4.646   3.425  0.3014  0.0700 -0.1693
 1973SOL    HW2 7938   1.198   4.703   3.457  0.1092 -0.3771  1.0919
 1973SOL    HW3 7939   1.138   4.647   3.330  1.0417  1.2548 -0.0935
 1973SOL    MW4 7940   1.139   4.654   3.417  0.3737  0.1674  0.0072
 1974SOL     OW 7941   0.889   0.149   3.476 -0.3365 -0.2684  0.0250
 1974SOL    HW2 7942   0.897   0.156   3.571 -0.2978 -1.5091  0.1322
 1974SOL    HW3 7943   0.963   0.093   3.450  0.0217  0.5874 -0.8108
 1974SOL    MW4 7944   0.900   0.142   3.485 -0.2842 -0.3192 -0.0710
 1975SOL     OW 7945   0.894   0.430   3.406  0.5535 -0.4466 -0.5480
 1975SOL    HW2 7946   0.968   0.462   3.458  0.4628  0.2523 -0.8491
 1975SOL    HW3 7947   0.891   0.336   3.425 -0.9029  0.1392  2.5476
 1975SOL    MW4 7948   0.903   0.421   3.416  0.3495 -0.2772 -0.1795
 1976SOL     OW 7949   1.106   0.546   3.552  0.2713  0.1310 -0.2515
 1976SOL    HW2 7950   1.143   0.575   3.636  1.5977 -1.4019 -0.2725
 1976SOL    HW3 7951   1.107   0.623   3.496  1.0701  0.7211  0.5814
 1976SOL    MW4 7952   1.111   0.560   3.556  0.5517  0.0066 -0.1445
 1977SOL     OW 7953   1.116   0.778   3.408  0.5994 -0.0005  0.3236
 1977SOL    HW2 7954   1.203   0.809   3.434  0.5697  0.8162 -0.5230
 1977SOL    HW3 7955   1.055   0.838   3.452  0.5487  1.3759 -1.5547
 1977SOL    MW4 7956   1.119   0.790   3.417  0.5888  0.2888 -0.0360
 1978SOL     OW 7957   0.858   0.886   3.500 -0.1717  0.3324 -0.3194
 1978SOL    HW2 7958   0.840   0.980   3.500  0.4705  0.4687 -1.4360
 1978SOL    HW3 7959   0.781   0.846   3.459 -0.4878  0.3650  0.2477
 1978SOL    MW4 7960   0.846   0.893   3.495 -0.1286  0.3547 -0.3922
 1979SOL     OW 7961   0.805   1.147   3.433  0.0615 -0.0907  0.2943
 1979SOL    HW2 7962   0.887   1.184   3.465  0.2807 -1.1186  0.9593
 1979SOL    HW3 7963   0.819   1.134   3.339  0.2164  0.8690  0.1776
 1979SOL    MW4 7964   0.817   1.150   3.425  0.1109 -0.0998  0.3667
 1980SOL     OW 7965   1.062   1.246   3.498  0.9678  0.4946 -0.6393
 1980SOL    HW2 7966   1.061   1.259   3.593  2.7698  1.3885 -0.7195
 1980SOL    HW3 7967   1.074   1.334   3.462 -1.3859  0.3964 -1.7938
 1980SOL    MW4 7968   1.063   1.259   3.506  0.8951  0.5996 -0.8023
 1981SOL     OW 7969   1.101   1.511   3.419 -0.3453 -0.0890 -0.5117
 1981SOL    HW2 7970   1.188   1.548   3.431 -0.7217  1.5419 -2.5426
 1981SOL    HW3 7971   1.086   1.515   3.324 -2.4256 -0.8015 -0.2478
 1981SOL    MW4 7972   1.110   1.516   3.408 -0.6694  0.0321 -0.7448
 1982SOL     OW 7973   0.895   1.640   3.533 -0.2942 -0.1049 -0.0873
 1982SOL    HW2 7974   0.905   1.730   3.500 -2.3788 -0.6315 -2.2944
 1982SOL    HW3 7975   0.975   1.596   3.503 -0.6611  0.2638 -1.6805
 1982SOL    MW4 7976   0.907   1.646   3.525 -0.6176 -0.1258 -0.5887
 1983SOL     OW 7977   0.893   1.877   3.418  0.5651  0.4265 -0.2251
 1983SOL    HW2 7978   0.967   1.929   3.450  1.3574 -0.4191 -0.6718
 1983SOL    HW3 7979   0.817   1.912   3.465  1.5242  0.0670  1.6268
 1983SOL    MW4 7980   0.893   1.889   3.429  0.7961  0.2675 -0.0398
 1984SOL     OW 7981   1.107   2.025   3.507 -0.4330 -0.6449 -0.3497
 1984SOL    HW2 7982   1.185   1.971   3.491 -0.1782 -0.9780  1.9523
 1984SOL    HW3 7983   1.127   2.108   3.463 -0.0219 -1.7270 -2.2721
 1984SOL    MW4 7984   1.120   2.029   3.499 -0.3451 -0.8316 -0.2995
 1985SOL     OW 7985   1.127   2.307   3.463  0.2242  0.4850  0.2700
 1985SOL    HW2 7986   1.200   2.359   3.495  0.7037  0.1559 -0.2715
 1985SOL    HW3 7987   1.132   2.314   3.367  0.2284 -0.4527  0.1884
 1985SOL    MW4 7988   1.137   2.315   3.454  0.2880  0.3178  0.1876
 1986SOL     OW 7989   0.893   2.462   3.495 -0.3407  0.2093 -0.0920
 1986SOL    HW2 7990   0.897   2.471   3.590  1.1219  1.4733 -0.2542
 1986SOL    HW3 7991   0.977   2.423   3.471 -0.5234  0.3046 -0.9111
 1986SOL    MW4 7992   0.905   2.458   3.505 -0.1718  0.3886 -0.2213
 1987SOL     OW 7993   1.151   2.848   3.541  0.4818 -0.2074 -0.7702
 1987SOL    HW2 7994   1.226   2.817   3.490 -0.1034 -0.8876 -1.2378
 1987SOL    HW3 7995   1.149   2.942   3.527  3.2452  0.3326  1.9496
 1987SOL    MW4 7996   1.161   2.856   3.532  0.7693 -0.2258 -0.4730
 1988SOL     OW 7997   0.899   2.722   3.416  0.5255 -0.8031 -0.1788
 1988SOL    HW2 7998   0.976   2.755   3.463 -0.5732  0.9403  0.4289
 1988SOL    HW3 7999   0.892   2.630   3.444  1.8724 -0.7332  0.4233
 1988SOL    MW4 8000   0.908   2.714   3.426  0.5583 -0.5639 -0.0193
 1989SOL     OW 8001   1.172   3.101   3.468  0.3282  0.0061 -0.2914
 1989SOL    HW2 8002   1.256   3.142   3.487  0.4330  0.4663 -1.6446
 1989SOL    HW3 8003   1.166   3.102   3.372 -1.8936  1.4299 -0.1981
 1989SOL    MW4 8004   1.182   3.107   3.458  0.0490  0.2549 -0.4578
 1990SOL     OW 8005   0.953   3.269   3.520 -0.3070  0.3849  0.2171
 1990SOL    HW2 8006   1.019   3.202   3.501 -0.3862  0.0227  1.2205
 1990SOL    HW3 8007   0.870   3.231   3.491 -0.2772  0.2678  0.2866
 1990SOL    MW4 8008   0.951   3.255   3.514 -0.3135  0.3216  0.3586
 1991SOL     OW 8009   0.640   3.126   4.135  0.2290 -0.2016  0.5855
 1991SOL    HW2 8010   0.664   3.083   4.218 -0.0664  1.2734  1.4506
 1991SOL    HW3 8011   0.544   3.119   4.132  0.2983 -0.9165 -0.0046
 1991SOL    MW4 8012   0.630   3.119   4.146  0.1993 -0.1013  0.6218
 1992SOL     OW 8013   2.995   2.519   4.646 -0.0661  0.3268  0.2444
 1992SOL    HW2 8014   2.965   2.449   4.589  2.1178 -0.9305  0.5736
 1992SOL    HW3 8015   3.050   2.574   4.590  1.0569 -0.2025  0.8123
 1992SOL    MW4 8016   2.999   2.517   4.631  0.3700  0.0913  0.3629
 1993SOL     OW 8017   0.924   4.020   3.498  0.5873 -0.0773  0.2038
 1993SOL    HW2 8018   1.009   3.988   3.468  0.6333 -0.5919  0.8747
 1993SOL    HW3 8019   0.860   3.967   3.450  0.6041  1.7423 -1.8931
 1993SOL    MW4 8020   0.927   4.009   3.488  0.5956  0.0954  0.0155
 1994SOL     OW 8021   0.695   3.882   3.409  0.2977  0.5161  0.3324
 1994SOL    HW2 8022   0.696   3.790   3.436 -1.7308  0.2658 -0.3269
 1994SOL    HW3 8023   0.640   3.926   3.474 -1.6815  0.5623 -1.2950
 1994SOL    MW4 8024   0.688   3.876   3.421 -0.2311  0.4892  0.0308
 1995SOL     OW 8025   0.898   4.303   3.467 -0.6191 -0.3129  0.2273
 1995SOL    HW2 8026   0.899   4.207   3.475  2.5094 -0.4364 -0.7376
 1995SOL    HW3 8027   0.904   4.319   3.373 -2.3467  0.8660  0.3002
 1995SOL    MW4 8028   0.899   4.292   3.456 -0.4342 -0.1731  0.1097
 1996SOL     OW 8029   1.141   4.393   3.546  0.1412 -0.0494 -0.1251
 1996SOL    HW2 8030   1.133   4.484   3.517  1.4144 -0.2743 -1.2531
 1996SOL    HW3 8031   1.061   4.351   3.515  0.4480  0.2473 -1.3883
 1996SOL    MW4 8032   1.129   4.400   3.538  0.3496 -0.0396 -0.4406
 1997SOL     OW 8033   1.567   4.643   3.405 -0.1726  0.3626 -0.0957
 1997SOL    HW2 8034   1.577   4.571   3.467 -0.3484 -0.5007 -1.0520
 1997SOL    HW3 8035   1.494   4.694   3.440  0.0028  0.1264  0.6304
 1997SOL    MW4 8036   1.559   4.641   3.418 -0.1726  0.2174 -0.1259
 1998SOL     OW 8037   1.335   0.151   3.503 -0.1176  0.3730  0.0574
 1998SOL    HW2 8038   1.325   0.163   3.598 -0.9322 -0.5014  0.0973
 1998SOL    HW3 8039   1.343   0.239   3.468  1.2040  0.6557  1.0427
 1998SOL    MW4 8040   1.335   0.164   3.511 -0.0507  0.2950  0.1926
 1999SOL     OW 8041   1.334   0.417   3.435  0.3701  0.0265 -0.1771
 1999SOL    HW2 8042   1.411   0.446   3.483 -0.3049 -0.2822  1.0893
 1999SOL    HW3 8043   1.260   0.446   3.487 -0.3605 -0.8369 -0.7140
 1999SOL    MW4 8044   1.334   0.425   3.448  0.1847 -0.1281 -0.0806
 2000SOL     OW 8045   1.597   0.480   3.577 -0.0567 -0.0621  0.6208
 2000SOL    HW2 8046   1.615   0.486   3.671  0.4072  1.3910  0.4539
 2000SOL    HW3 8047   1.676   0.441   3.540  0.1336  0.2246  0.7217
 2000SOL    MW4 8048   1.610   0.476   3.585  0.0294  0.1674  0.6120
 2001SOL     OW 8049   1.595   0.730   3.410 -0.1718  0.2324  0.4083
 2001SOL    HW2 8050   1.513   0.770   3.436 -0.6314 -0.2640 -0.2546
 2001SOL    HW3 8051   1.590   0.640   3.442 -0.0916  0.0626 -0.0469
 2001SOL    MW4 8052   1.584   0.723   3.418 -0.2220  0.1445  0.2606
 2002SOL     OW 8053   1.359   0.857   3.510 -0.5537  0.1407  0.1059
 2002SOL    HW2 8054   1.374   0.852   3.604 -2.5415  0.4745  0.4590
 2002SOL    HW3 8055   1.348   0.950   3.492  0.4769  0.1410 -0.5743
 2002SOL    MW4 8056   1.360   0.869   3.520 -0.6800  0.1848  0.0627
 2003SOL     OW 8057   1.316   1.112   3.442 -0.5404  0.0160  0.1519
 2003SOL    HW2 8058   1.382   1.174   3.471 -0.8738 -0.3777  1.8329
 2003SOL    HW3 8059   1.233   1.150   3.470 -0.8302 -0.6437  0.2155
 2003SOL    MW4 8060   1.314   1.125   3.450 -0.6227 -0.1229  0.3817
 2004SOL     OW 8061   1.543   1.267   3.483  0.4724  0.2104 -0.4589
 2004SOL    HW2 8062   1.537   1.289   3.576 -0.3412 -0.9458 -0.2273
 2004SOL    HW3 8063   1.617   1.208   3.477  0.3556  0.0667 -0.4962
 2004SOL    MW4 8064   1.552   1.262   3.495  0.3495  0.0389 -0.4332
 2005SOL     OW 8065   1.576   1.534   3.414 -0.1993  0.2358 -0.9532
 2005SOL    HW2 8066   1.564   1.445   3.448 -0.3008  0.0205 -1.5406
 2005SOL    HW3 8067   1.587   1.522   3.319 -0.0025  0.8313 -1.0064
 2005SOL    MW4 8068   1.576   1.521   3.406 -0.1868  0.2859 -1.0378
 2006SOL     OW 8069   1.336   1.628   3.493 -0.0700 -0.1681 -0.2275
 2006SOL    HW2 8070   1.342   1.638   3.588 -0.3123 -0.4200 -0.1879
 2006SOL    HW3 8071   1.421   1.592   3.467 -0.3324 -0.9561 -0.0015
 2006SOL    MW4 8072   1.348   1.625   3.502 -0.1366 -0.3054 -0.1924
 2007SOL     OW 8073   1.335   1.892   3.395 -0.2729  0.0083 -0.3496
 2007SOL    HW2 8074   1.413   1.937   3.427 -0.5324  0.7955 -0.8082
 2007SOL    HW3 8075   1.339   1.805   3.435  0.5249  0.2486  0.0988
 2007SOL    MW4 8076   1.346   1.886   3.404 -0.2019  0.1438 -0.3510
 2008SOL     OW 8077   1.542   2.070   3.500  0.1838 -0.1629 -0.1949
 2008SOL    HW2 8078   1.625   2.025   3.485  1.0290  1.4869 -0.6245
 2008SOL    HW3 8079   1.540   2.084   3.595  0.4947 -0.0246 -0.2079
 2008SOL    MW4 8080   1.553   2.066   3.511  0.3363  0.0732 -0.2530
 2009SOL     OW 8081   1.371   2.458   3.516 -0.6687 -0.1570  0.4469
 2009SOL    HW2 8082   1.367   2.550   3.488 -0.7138  0.0741  1.1956
 2009SOL    HW3 8083   1.453   2.426   3.481 -1.6512 -0.4443 -1.6455
 2009SOL    MW4 8084   1.381   2.466   3.508 -0.8043 -0.1645  0.2699
 2010SOL     OW 8085   3.974   1.407   4.806 -0.1843  0.1537 -0.0144
 2010SOL    HW2 8086   3.898   1.458   4.776 -0.3644  0.9553  1.6821
 2010SOL    HW3 8087   3.937   1.324   4.836 -0.7339  1.3678  2.8376
 2010SOL    MW4 8088   3.959   1.403   4.806 -0.2804  0.4199  0.5860
 2011SOL     OW 8089   1.379   2.709   3.423  0.0703  0.2515 -0.3745
 2011SOL    HW2 8090   1.429   2.780   3.464  1.0962 -0.7459  0.1510
 2011SOL    HW3 8091   1.398   2.718   3.329  0.5570  0.3940 -0.2652
 2011SOL    MW4 8092   1.388   2.720   3.416  0.2700  0.1385 -0.2906
 2012SOL     OW 8093   1.555   2.882   3.531  0.5231 -0.5855 -0.7457
 2012SOL    HW2 8094   1.612   2.810   3.504  0.9771  0.2326 -2.0121
 2012SOL    HW3 8095   1.598   2.961   3.497 -0.1165  0.2573  0.3812
 2012SOL    MW4 8096   1.568   2.883   3.523  0.4987 -0.3662 -0.7639
 2013SOL     OW 8097   1.628   3.123   3.410 -0.1959 -0.4385 -0.0543
 2013SOL    HW2 8098   1.710   3.164   3.439  1.0455 -2.8155 -0.0802
 2013SOL    HW3 8099   1.561   3.161   3.467  1.3166 -0.4658  1.7939
 2013SOL    MW4 8100   1.630   3.134   3.421  0.1674 -0.7558  0.1862
 2014SOL     OW 8101   1.422   3.216   3.554  0.2754  0.4483 -0.1337
 2014SOL    HW2 8102   1.417   3.232   3.648  0.9924  1.3166 -0.2389
 2014SOL    HW3 8103   1.405   3.301   3.514 -1.1703 -0.1477 -0.8211
 2014SOL    MW4 8104   1.419   3.229   3.561  0.1792  0.4845 -0.2382
 2015SOL     OW 8105   1.357   3.461   3.455 -0.0649  0.4326 -0.2488
 2015SOL    HW2 8106   1.432   3.517   3.475  2.5931 -2.8155 -0.6650
 2015SOL    HW3 8107   1.284   3.502   3.501  1.8877  3.8233 -0.0009
 2015SOL    MW4 8108   1.358   3.474   3.464  0.5435  0.4516 -0.2711
 2016SOL     OW 8109   1.596   3.613   3.524 -0.7154  0.3549 -0.1401
 2016SOL    HW2 8110   1.573   3.623   3.616 -1.1715  0.9664 -0.3189
 2016SOL    HW3 8111   1.605   3.703   3.491 -0.8959  0.1444 -0.7791
 2016SOL    MW4 8112   1.594   3.626   3.532 -0.7993  0.4077 -0.2480
 2017SOL     OW 8113   1.591   3.884   3.474 -0.0060 -0.2509 -0.0786
 2017SOL    HW2 8114   1.674   3.923   3.500 -1.2602  1.0998  2.0961
 2017SOL    HW3 8115   1.585   3.900   3.380  1.4798  1.0141  0.0212
 2017SOL    MW4 8116   1.601   3.891   3.465  0.0247  0.0942  0.2217
 2018SOL     OW 8117   1.363   4.035   3.580  0.0373  0.0549  0.3045
 2018SOL    HW2 8118   1.361   4.116   3.529 -0.1283 -1.0810 -1.5390
 2018SOL    HW3 8119   1.436   3.986   3.543 -0.1964 -0.8696  1.0646
 2018SOL    MW4 8120   1.372   4.039   3.568 -0.0155 -0.2165  0.1616
 2019SOL     OW 8121   1.367   4.269   3.436  0.2142 -0.1900  0.3399
 2019SOL    HW2 8122   1.281   4.311   3.437 -0.3161 -1.2663  0.6754
 2019SOL    HW3 8123   1.392   4.269   3.344 -0.9017 -1.3716  0.0182
 2019SOL    MW4 8124   1.359   4.274   3.424 -0.0031 -0.4883  0.3419
 2020SOL     OW 8125   1.548   4.405   3.591 -0.0482 -0.0883  0.1165
 2020SOL    HW2 8126   1.626   4.350   3.592 -0.1244 -0.2622 -1.7068
 2020SOL    HW3 8127   1.484   4.354   3.540 -0.8037  0.7803  0.1862
 2020SOL    MW4 8128   1.550   4.391   3.584 -0.1580  0.0033 -0.1144
 2021SOL     OW 8129   2.048   4.610   3.394  0.2928 -0.1243  0.1164
 2021SOL    HW2 8130   2.113   4.674   3.423 -0.5350  1.2359 -0.9612
 2021SOL    HW3 8131   1.966   4.641   3.431 -0.0510 -0.7816 -0.0876
 2021SOL    MW4 8132   2.046   4.623   3.402  0.1383 -0.0319 -0.0525
 2022SOL     OW 8133   1.817   0.095   3.475 -0.0601  0.6759 -0.4878
 2022SOL    HW2 8134   1.815   0.072   3.568 -1.4681  1.8356 -0.2136
 2022SOL    HW3 8135   1.740   0.052   3.438 -0.2210  1.2856 -0.8605
 2022SOL    MW4 8136   1.806   0.086   3.483 -0.2671  0.9094 -0.5007
 2023SOL     OW 8137   1.822   0.365   3.469  0.6577 -0.4143  0.0329
 2023SOL    HW2 8138   1.807   0.271   3.484  0.5713 -0.5746 -0.9910
 2023SOL    HW3 8139   1.815   0.375   3.374 -1.1206  0.9351  0.2872
 2023SOL    MW4 8140   1.819   0.354   3.458  0.4116 -0.2574 -0.0684
 2024SOL     OW 8141   2.030   0.511   3.621  0.1991 -0.5452 -0.2496
 2024SOL    HW2 8142   2.023   0.590   3.567  0.5231 -1.0877 -1.1029
 2024SOL    HW3 8143   1.966   0.451   3.583  0.4154 -0.9218 -0.0213
 2024SOL    MW4 8144   2.021   0.514   3.609  0.2704 -0.6664 -0.3321
 2025SOL     OW 8145   2.009   0.768   3.478 -0.0527  0.3809 -0.0255
 2025SOL    HW2 8146   2.089   0.816   3.503 -0.7233  2.3459 -1.5266
 2025SOL    HW3 8147   2.004   0.779   3.383 -2.1786  0.3671  0.0735
 2025SOL    MW4 8148   2.019   0.776   3.469 -0.4218  0.6383 -0.2103
 2026SOL     OW 8149   1.769   0.844   3.583 -0.0118  0.3702  0.0239
 2026SOL    HW2 8150   1.849   0.821   3.535 -0.6968 -2.0124 -0.0351
 2026SOL    HW3 8151   1.698   0.813   3.527 -0.9843  2.0876  0.2826
 2026SOL    MW4 8152   1.770   0.837   3.569 -0.2304  0.2825  0.0501
 2027SOL     OW 8153   1.770   1.106   3.469 -0.5803  0.1280 -0.5182
 2027SOL    HW2 8154   1.849   1.156   3.488 -0.8863  1.3770 -2.4009
 2027SOL    HW3 8155   1.773   1.033   3.531  0.3879  1.8818  1.5898
 2027SOL    MW4 8156   1.781   1.103   3.480 -0.4932  0.5242 -0.4888
 2028SOL     OW 8157   2.003   1.284   3.502  0.4329 -0.2998 -0.2995
 2028SOL    HW2 8158   2.019   1.289   3.596  2.0804  1.9675 -0.6624
 2028SOL    HW3 8159   2.034   1.368   3.467  0.2148 -1.2454 -2.9135
 2028SOL    MW4 8160   2.009   1.296   3.509  0.6218 -0.1253 -0.6919
 2029SOL     OW 8161   2.019   1.570   3.395 -0.7296 -0.2955 -0.1540
 2029SOL    HW2 8162   2.089   1.605   3.450  0.0012 -1.8493 -0.0754
 2029SOL    HW3 8163   1.940   1.579   3.448 -0.2804 -0.2981  0.5215
 2029SOL    MW4 8164   2.018   1.576   3.409 -0.5741 -0.5009 -0.0544
 2030SOL     OW 8165   2.649   1.532   4.095 -0.2274  0.3529 -0.2760
 2030SOL    HW2 8166   2.585   1.576   4.151 -0.1459 -0.3442  0.3742
 2030SOL    HW3 8167   2.636   1.570   4.008 -1.5716  0.1654 -0.1623
 2030SOL    MW4 8168   2.639   1.543   4.091 -0.3941  0.2360 -0.1750
 2031SOL     OW 8169   1.774   1.929   3.421 -0.0597 -0.1950 -0.1846
 2031SOL    HW2 8170   1.855   1.963   3.459  1.0862 -2.7813 -0.1832
 2031SOL    HW3 8171   1.794   1.918   3.328 -1.1000  1.0753 -0.5742
 2031SOL    MW4 8172   1.787   1.932   3.414 -0.0458 -0.3687 -0.2358
 2032SOL     OW 8173   2.017   2.030   3.539 -0.0574  0.3026 -0.1744
 2032SOL    HW2 8174   2.089   1.990   3.490  0.5758  0.5238  0.5572
 2032SOL    HW3 8175   2.017   2.121   3.510  1.0775  0.7163  1.0887
 2032SOL    MW4 8176   2.027   2.037   3.529  0.1760  0.3862  0.0887
 2033SOL     OW 8177   2.061   2.276   3.414  0.4241 -0.2466 -0.4024
 2033SOL    HW2 8178   2.117   2.345   3.450 -1.3958  1.3484 -0.5637
 2033SOL    HW3 8179   2.075   2.281   3.319  0.7052 -0.4715 -0.3740
 2033SOL    MW4 8180   2.070   2.286   3.406  0.2210 -0.0656 -0.4201
 2034SOL     OW 8181   1.580   2.320   3.404 -0.8186 -0.6566  0.0747
 2034SOL    HW2 8182   1.545   2.233   3.421  0.2468 -0.9150  0.9851
 2034SOL    HW3 8183   1.587   2.325   3.309  0.4615 -2.1040  0.0800
 2034SOL    MW4 8184   1.576   2.309   3.394 -0.5091 -0.8817  0.1955
 2035SOL     OW 8185   1.734   2.688   3.436  0.1263 -0.0588  0.1824
 2035SOL    HW2 8186   1.811   2.740   3.461 -0.8193  1.4551  0.0433
 2035SOL    HW3 8187   1.748   2.603   3.478  3.1764 -0.7621 -2.0498
 2035SOL    MW4 8188   1.746   2.684   3.445  0.4040  0.0482 -0.1307
 2036SOL     OW 8189   1.978   2.821   3.491  0.4849 -0.0719  0.0705
 2036SOL    HW2 8190   1.981   2.840   3.585 -2.3588 -0.5370  0.3104
 2036SOL    HW3 8191   1.991   2.907   3.449 -2.5480  0.9251  1.0081
 2036SOL    MW4 8192   1.980   2.835   3.498 -0.2905 -0.0019  0.2260
 2037SOL     OW 8193   2.061   3.097   3.403  0.6245 -0.2688 -0.4516
 2037SOL    HW2 8194   2.139   3.131   3.448  0.1653 -0.5057  0.5364
 2037SOL    HW3 8195   1.988   3.145   3.441  0.3600  0.6372 -2.0613
 2037SOL    MW4 8196   2.062   3.108   3.414  0.5291 -0.1805 -0.5338
 2038SOL     OW 8197   1.861   3.242   3.545 -0.3392  0.3571 -0.1659
 2038SOL    HW2 8198   1.828   3.243   3.635 -2.1540  1.5975 -0.8090
 2038SOL    HW3 8199   1.860   3.334   3.518 -1.3089 -0.1469 -1.9442
 2038SOL    MW4 8200   1.856   3.254   3.554 -0.7067  0.4542 -0.4857
 2039SOL     OW 8201   1.831   3.493   3.463  0.1697  0.2083 -0.3567
 2039SOL    HW2 8202   1.752   3.540   3.488  0.8238  1.6258 -0.8843
 2039SOL    HW3 8203   1.829   3.493   3.367  0.4691 -0.3723 -0.3689
 2039SOL    MW4 8204   1.820   3.499   3.454  0.2956  0.3185 -0.4280
 2040SOL     OW 8205   2.048   3.590   3.582  0.1769  0.0994 -0.3927
 2040SOL    HW2 8206   2.115   3.550   3.527 -0.4200  0.5970 -1.4964
 2040SOL    HW3 8207   1.966   3.549   3.554 -0.1747  0.5960 -0.0980
 2040SOL    MW4 8208   2.046   3.579   3.571  0.0515  0.2308 -0.4992
 2041SOL     OW 8209   2.054   3.834   3.433 -0.5111  0.0252  0.4257
 2041SOL    HW2 8210   1.982   3.892   3.459  0.1877  1.2001 -0.2306
 2041SOL    HW3 8211   2.048   3.760   3.494  0.5964  2.3173  3.4286
 2041SOL    MW4 8212   2.044   3.832   3.445 -0.2725  0.4826  0.7355
 2042SOL     OW 8213   1.847   3.997   3.526  0.8521  0.7351 -0.2137
 2042SOL    HW2 8214   1.842   3.993   3.622 -0.2495 -2.7584 -0.3409
 2042SOL    HW3 8215   1.837   4.090   3.505 -1.7711  1.2452  2.9205
 2042SOL    MW4 8216   1.845   4.009   3.536  0.3607  0.3414  0.1826
 2043SOL     OW 8217   1.811   4.273   3.457  0.2773 -0.3844 -0.3319
 2043SOL    HW2 8218   1.797   4.277   3.363 -2.0700  2.2982  0.0389
 2043SOL    HW3 8219   1.882   4.335   3.474 -0.7491  0.7861 -0.1676
 2043SOL    MW4 8220   1.818   4.282   3.447 -0.1680  0.1240 -0.2613
 2044SOL     OW 8221   2.056   4.392   3.543  0.0418 -0.3657  0.0818
 2044SOL    HW2 8222   2.116   4.325   3.512 -1.5898 -1.6125 -0.4779
 2044SOL    HW3 8223   2.062   4.462   3.478 -0.1839 -1.1135 -0.7506
 2044SOL    MW4 8224   2.064   4.392   3.530 -0.2034 -0.6289 -0.1020
 2045SOL     OW 8225   2.500   4.643   3.436 -0.1409  0.3763  0.2275
 2045SOL    HW2 8226   2.492   4.552   3.465 -1.0604  0.4907  0.3462
 2045SOL    HW3 8227   2.497   4.638   3.341 -0.0962  0.2725  0.2311
 2045SOL    MW4 8228   2.498   4.630   3.427 -0.2565  0.3777  0.2437
 2046SOL     OW 8229   2.251   0.110   3.492  0.4605 -0.5636 -0.1726
 2046SOL    HW2 8230   2.267   0.202   3.468 -0.4059 -0.8626 -2.0281
 2046SOL    HW3 8231   2.337   0.068   3.483  0.8388  0.0462  0.5772
 2046SOL    MW4 8232   2.265   0.117   3.487  0.3963 -0.5226 -0.3185
 2047SOL     OW 8233   2.244   0.380   3.460  0.0297 -0.2633 -0.2141
 2047SOL    HW2 8234   2.324   0.431   3.470  1.1648 -2.4369  2.3040
 2047SOL    HW3 8235   2.182   0.419   3.521  0.5117 -1.0673  0.8178
 2047SOL    MW4 8236   2.246   0.392   3.469  0.2429 -0.6562  0.2544
 2048SOL     OW 8237   2.479   0.520   3.531 -0.5765 -0.2045 -0.0605
 2048SOL    HW2 8238   2.498   0.521   3.625 -0.9551 -0.7403  0.0209
 2048SOL    HW3 8239   2.558   0.484   3.490 -0.7783 -0.8549  0.1306
 2048SOL    MW4 8240   2.492   0.516   3.538 -0.6530 -0.3610 -0.0243
 2049SOL     OW 8241   2.472   0.771   3.454  0.1877 -0.4001 -0.0093
 2049SOL    HW2 8242   2.467   0.685   3.495 -0.9132 -1.3797 -2.1622
 2049SOL    HW3 8243   2.495   0.754   3.363 -0.5904  1.5322 -0.6030
 2049SOL    MW4 8244   2.474   0.757   3.448 -0.0601 -0.2745 -0.3717
 2050SOL     OW 8245   2.260   0.886   3.592 -0.2892 -0.3748 -0.1008
 2050SOL    HW2 8246   2.236   0.963   3.541 -1.2076 -0.0991  0.7324
 2050SOL    HW3 8247   2.324   0.840   3.538 -0.9477  0.1217 -1.3091
 2050SOL    MW4 8248   2.265   0.890   3.578 -0.4971 -0.2730 -0.1500
 2051SOL     OW 8249   2.216   1.117   3.400  0.0765  0.3189 -0.3059
 2051SOL    HW2 8250   2.300   1.157   3.422 -0.9531  1.9763  0.6945
 2051SOL    HW3 8251   2.151   1.175   3.438 -1.5446 -0.8587 -1.2175
 2051SOL    MW4 8252   2.219   1.130   3.408 -0.2728  0.3822 -0.2944
 2052SOL     OW 8253   2.467   1.240   3.500  0.4581 -0.3481  0.0385
 2052SOL    HW2 8254   2.469   1.242   3.596  2.6406 -1.4403  0.0398
 2052SOL    HW3 8255   2.552   1.203   3.475 -0.6826 -1.4802 -2.2800
 2052SOL    MW4 8256   2.479   1.236   3.509  0.5958 -0.6416 -0.2673
 2053SOL     OW 8257   2.442   1.521   3.465  0.3091 -0.2010  0.4890
 2053SOL    HW2 8258   2.464   1.435   3.501  0.7586 -0.2208  0.1681
 2053SOL    HW3 8259   2.462   1.513   3.372  1.3946  0.6043  0.6487
 2053SOL    MW4 8260   2.448   1.509   3.458  0.5114 -0.0973  0.4678
 2054SOL     OW 8261   2.244   1.667   3.557  0.0220 -0.5405  0.3436
 2054SOL    HW2 8262   2.275   1.654   3.647  0.8985 -0.7593  0.0220
 2054SOL    HW3 8263   2.303   1.613   3.504 -0.1393  0.0232 -0.4181
 2054SOL    MW4 8264   2.256   1.658   3.562  0.1163 -0.4950  0.2007
 2055SOL     OW 8265   2.273   1.916   3.447 -0.0872 -0.1223 -0.7165
 2055SOL    HW2 8266   2.265   1.825   3.475  0.9298 -0.0407 -0.1198
 2055SOL    HW3 8267   2.256   1.914   3.353  0.9161 -1.0843 -0.8895
 2055SOL    MW4 8268   2.270   1.904   3.438  0.1793 -0.2385 -0.6607
 2056SOL     OW 8269   2.501   2.077   3.522  0.2039  0.3290  0.0836
 2056SOL    HW2 8270   2.482   2.094   3.614 -0.3522  0.0154  0.0324
 2056SOL    HW3 8271   2.432   2.016   3.495  0.1794  0.6649 -0.6175
 2056SOL    MW4 8272   2.489   2.071   3.530  0.1273  0.3321 -0.0157
 2057SOL     OW 8273   2.500   2.343   3.438  0.4109 -0.0164  0.1773
 2057SOL    HW2 8274   2.581   2.389   3.461  1.1206 -0.5263 -1.2910
 2057SOL    HW3 8275   2.523   2.250   3.444  0.3272 -0.1590 -1.5836
 2057SOL    MW4 8276   2.514   2.337   3.442  0.4935 -0.1023 -0.2487
 2058SOL     OW 8277   2.252   2.435   3.524  0.1008 -0.2534 -0.3437
 2058SOL    HW2 8278   2.343   2.407   3.511  0.2608  0.3796 -0.6030
 2058SOL    HW3 8279   2.249   2.523   3.488 -0.3970  0.0813  0.5119
 2058SOL    MW4 8280   2.263   2.443   3.517  0.0563 -0.1259 -0.2649
 2059SOL     OW 8281   2.214   2.691   3.403 -0.7517 -0.2549 -0.1776
 2059SOL    HW2 8282   2.214   2.671   3.310  0.3481  0.3672 -0.3093
 2059SOL    HW3 8283   2.125   2.722   3.421 -0.9384 -0.2976 -1.0233
 2059SOL    MW4 8284   2.202   2.692   3.393 -0.6311 -0.1786 -0.3066
 2060SOL     OW 8285   2.480   2.783   3.437 -0.4789 -0.2247 -0.3223
 2060SOL    HW2 8286   2.391   2.757   3.412  0.0347 -2.0070 -0.2927
 2060SOL    HW3 8287   2.479   2.785   3.532 -0.1301 -1.5183 -0.2877
 2060SOL    MW4 8288   2.468   2.780   3.446 -0.3650 -0.6306 -0.3140
 2061SOL     OW 8289   2.516   3.076   3.434 -0.6920  0.2011 -0.0279
 2061SOL    HW2 8290   2.500   2.983   3.447 -2.0793  0.3139 -0.8454
 2061SOL    HW3 8291   2.493   3.093   3.343 -1.4829  1.5410  0.3917
 2061SOL    MW4 8292   2.511   3.066   3.424 -0.9797  0.3927 -0.0803
 2062SOL     OW 8293   2.283   3.187   3.532 -0.1146 -0.4119 -0.1462
 2062SOL    HW2 8294   2.289   3.183   3.627  0.4260  0.3935 -0.1405
 2062SOL    HW3 8295   2.368   3.158   3.500  0.1174  0.4901 -0.3510
 2062SOL    MW4 8296   2.295   3.183   3.540 -0.0129 -0.1869 -0.1724
 2063SOL     OW 8297   2.230   3.428   3.432 -0.3654  0.2274  0.5452
 2063SOL    HW2 8298   2.248   3.339   3.463  2.8015  0.4516 -0.5301
 2063SOL    HW3 8299   2.251   3.425   3.339 -1.3919  1.8188  0.2584
 2063SOL    MW4 8300   2.235   3.416   3.424 -0.0832  0.4671  0.3655
 2064SOL     OW 8301   2.441   3.546   3.530 -0.0042  0.1546 -0.2981
 2064SOL    HW2 8302   2.430   3.633   3.492 -0.2756 -0.3059 -1.2826
 2064SOL    HW3 8303   2.365   3.497   3.500  0.3911 -0.5628 -0.1328
 2064SOL    MW4 8304   2.430   3.551   3.521  0.0122 -0.0010 -0.4060
 2065SOL     OW 8305   2.483   3.803   3.396  0.3415 -0.1609 -0.4190
 2065SOL    HW2 8306   2.565   3.840   3.431  1.3696 -1.1927 -1.6783
 2065SOL    HW3 8307   2.416   3.867   3.420  1.5872  0.9394  0.2280
 2065SOL    MW4 8308   2.485   3.816   3.404  0.6416 -0.1516 -0.4997
 2066SOL     OW 8309   2.290   3.983   3.506  0.0301  0.1394 -0.3510
 2066SOL    HW2 8310   2.290   3.984   3.602  0.3414 -0.5128 -0.3398
 2066SOL    HW3 8311   2.211   3.934   3.483  0.5469 -0.6902 -0.4038
 2066SOL    MW4 8312   2.279   3.976   3.516  0.1395 -0.0560 -0.3562
 2067SOL     OW 8313   2.254   4.248   3.407  0.1900  0.5247 -0.0286
 2067SOL    HW2 8314   2.267   4.157   3.434  0.6950  0.1366 -1.5404
 2067SOL    HW3 8315   2.245   4.244   3.312 -1.9752  1.8275  0.0892
 2067SOL    MW4 8316   2.255   4.235   3.398 -0.0288  0.6456 -0.2122
 2068SOL     OW 8317   2.496   4.381   3.495 -0.0686 -0.3113 -0.0306
 2068SOL    HW2 8318   2.501   4.381   3.591 -1.8135  0.1431  0.0866
 2068SOL    HW3 8319   2.409   4.347   3.476  0.1127 -0.0069 -1.4459
 2068SOL    MW4 8320   2.485   4.376   3.505 -0.2747 -0.2117 -0.2017
 2069SOL     OW 8321   2.946   4.617   3.430  0.3091 -0.4003  0.0447
 2069SOL    HW2 8322   2.868   4.667   3.454  1.2518  0.3643  1.6317
 2069SOL    HW3 8323   2.947   4.619   3.335 -2.5008 -1.8292 -0.0736
 2069SOL    MW4 8324   2.936   4.624   3.421  0.0627 -0.4883  0.2384
 2070SOL     OW 8325   2.722   0.099   3.521  0.2361 -0.1877 -0.5114
 2070SOL    HW2 8326   2.717   0.193   3.502  1.1194  0.1010  0.6058
 2070SOL    HW3 8327   2.648   0.061   3.473 -0.5692  1.1681 -0.3865
 2070SOL    MW4 8328   2.712   0.107   3.512  0.2463  0.0293 -0.3476
 2071SOL     OW 8329   2.691   0.359   3.425  0.1031 -0.3569 -0.0075
 2071SOL    HW2 8330   2.773   0.402   3.450 -1.3028  2.0209  0.7734
 2071SOL    HW3 8331   2.689   0.365   3.330 -0.2321  1.7503  0.0967
 2071SOL    MW4 8332   2.702   0.366   3.416 -0.1268  0.2349  0.1094
 2072SOL     OW 8333   2.913   0.491   3.541 -0.2603  0.2655  0.3577
 2072SOL    HW2 8334   2.915   0.484   3.636  2.2729  0.2663  0.3427
 2072SOL    HW3 8335   2.911   0.585   3.523  0.6288  0.2970  0.4114
 2072SOL    MW4 8336   2.913   0.502   3.551  0.1912  0.2697  0.3629
 2073SOL     OW 8337   2.924   0.754   3.457 -1.1843  0.1379  0.1680
 2073SOL    HW2 8338   2.993   0.804   3.500 -0.9283 -0.8946  0.9913
 2073SOL    HW3 8339   2.843   0.798   3.481 -0.7828  1.7250 -1.3077
 2073SOL    MW4 8340   2.922   0.766   3.466 -1.0974  0.2111  0.0818
 2074SOL     OW 8341   2.707   0.876   3.550 -0.0336  0.7960  0.0730
 2074SOL    HW2 8342   2.631   0.842   3.504 -1.5577  2.0450  1.6001
 2074SOL    HW3 8343   2.705   0.970   3.533 -0.0454  1.1258  1.8378
 2074SOL    MW4 8344   2.697   0.884   3.542 -0.2360  1.0043  0.5076
 2075SOL     OW 8345   2.717   1.129   3.461 -0.5426  0.4287 -0.5451
 2075SOL    HW2 8346   2.794   1.169   3.500  0.4232 -0.2415 -1.7052
 2075SOL    HW3 8347   2.733   1.134   3.366 -1.7775  0.0094 -0.7840
 2075SOL    MW4 8348   2.729   1.135   3.453 -0.5784  0.2849 -0.7298
 2076SOL     OW 8349   2.930   1.285   3.541 -0.4676 -0.0532 -0.2216
 2076SOL    HW2 8350   2.951   1.283   3.635  0.5483  2.4079 -0.3642
 2076SOL    HW3 8351   3.007   1.246   3.499  0.0766  0.9557 -0.1728
 2076SOL    MW4 8352   2.943   1.279   3.548 -0.2618  0.4046 -0.2341
 2077SOL     OW 8353   2.914   1.562   3.420 -0.7081  0.5130  0.3963
 2077SOL    HW2 8354   2.842   1.616   3.453  0.4310  0.5606  2.9932
 2077SOL    HW3 8355   2.899   1.476   3.460  0.6001  0.4946  0.8604
 2077SOL    MW4 8356   2.903   1.557   3.430 -0.3853  0.5169  0.8001
 2078SOL     OW 8357   2.654   1.675   3.543 -0.4411 -0.1277  0.0103
 2078SOL    HW2 8358   2.664   1.757   3.494  0.6488  0.3891  1.0464
 2078SOL    HW3 8359   2.578   1.632   3.504 -0.6439  1.0856 -0.9628
 2078SOL    MW4 8360   2.645   1.680   3.531 -0.3240  0.1006  0.0188
 2079SOL     OW 8361   2.710   1.917   3.417 -0.1335  0.1649  0.3284
 2079SOL    HW2 8362   2.650   1.976   3.463 -1.0574  0.2668 -0.9636
 2079SOL    HW3 8363   2.691   1.933   3.324  0.6901 -1.0583 -0.0526
 2079SOL    MW4 8364   2.699   1.927   3.411 -0.1469  0.0169  0.1078
 2080SOL     OW 8365   2.952   2.017   3.489  0.0816 -0.9193  0.2305
 2080SOL    HW2 8366   2.959   2.005   3.584 -0.7946  0.8028  0.5302
 2080SOL    HW3 8367   2.865   1.985   3.466 -0.0398 -0.5340  0.1452
 2080SOL    MW4 8368   2.942   2.011   3.498 -0.0498 -0.6413  0.2584
 2081SOL     OW 8369   2.943   2.296   3.402 -0.7089  0.0384 -0.2597
 2081SOL    HW2 8370   2.962   2.215   3.448  0.5212  0.4190 -0.0844
 2081SOL    HW3 8371   2.940   2.271   3.309  1.3617  0.0779 -0.3637
 2081SOL    MW4 8372   2.945   2.282   3.396 -0.2735  0.0937 -0.2503
 2082SOL     OW 8373   2.736   2.450   3.518  0.1740  0.1415  0.1113
 2082SOL    HW2 8374   2.741   2.442   3.613  1.4827  1.0840  0.1311
 2082SOL    HW3 8375   2.809   2.396   3.486  1.2040  1.7165 -0.2519
 2082SOL    MW4 8376   2.746   2.442   3.526  0.4828  0.4735  0.0658
 2083SOL     OW 8377   2.733   2.714   3.396 -0.4487 -0.4255 -0.3013
 2083SOL    HW2 8378   2.739   2.622   3.422 -0.0859 -0.4477 -0.4654
 2083SOL    HW3 8379   2.640   2.736   3.407 -0.1253 -0.1348  2.0869
 2083SOL    MW4 8380   2.721   2.705   3.401 -0.3581 -0.3903 -0.0076
 2084SOL     OW 8381   2.899   2.875   3.537  0.3287  0.7775  0.6094
 2084SOL    HW2 8382   2.982   2.831   3.516  0.7483  1.7535  0.2009
 2084SOL    HW3 8383   2.833   2.821   3.494  0.6707 -0.4352  1.5654
 2084SOL    MW4 8384   2.901   2.862   3.528  0.4289  0.7463  0.6816
 2085SOL     OW 8385   2.943   3.142   3.470 -0.8109  0.5546 -0.0202
 2085SOL    HW2 8386   2.959   3.049   3.482  3.6046  1.3710  1.3942
 2085SOL    HW3 8387   2.932   3.154   3.376 -0.1527 -1.2141 -0.3239
 2085SOL    MW4 8388   2.944   3.131   3.459 -0.1411  0.4287  0.1261
 2086SOL     OW 8389   2.699   3.238   3.553  0.6615 -0.3186 -0.6505
 2086SOL    HW2 8390   2.641   3.187   3.498  1.2264 -1.1888 -0.4511
 2086SOL    HW3 8391   2.780   3.187   3.558  1.2446  0.5916 -0.4562
 2086SOL    MW4 8392   2.702   3.225   3.547  0.8130 -0.3130 -0.5984
 2087SOL     OW 8393   2.726   3.494   3.468 -0.1767 -0.1522  0.0132
 2087SOL    HW2 8394   2.744   3.403   3.491  1.4231  0.4841  1.4115
 2087SOL    HW3 8395   2.635   3.508   3.491  0.1597 -0.8244  1.7721
 2087SOL    MW4 8396   2.717   3.484   3.474  0.0787 -0.1571  0.4299
 2088SOL     OW 8397   2.907   3.659   3.586  0.0183 -0.0048 -0.7437
 2088SOL    HW2 8398   2.913   3.733   3.527 -0.1293  0.8973  0.3521
 2088SOL    HW3 8399   2.844   3.600   3.545 -1.7817  1.6445 -0.3847
 2088SOL    MW4 8400   2.900   3.661   3.573 -0.2387  0.3319 -0.5519
 2089SOL     OW 8401   2.915   3.865   3.385 -0.3949 -0.0518 -0.0072
 2089SOL    HW2 8402   2.984   3.913   3.431  0.5644 -0.6267 -0.7941
 2089SOL    HW3 8403   2.835   3.884   3.433  0.0847  1.7669  0.0855
 2089SOL    MW4 8404   2.914   3.874   3.397 -0.2050  0.1123 -0.0987
 2090SOL     OW 8405   2.688   3.966   3.486 -0.0975  0.2259 -0.7278
 2090SOL    HW2 8406   2.659   3.950   3.576 -0.7395 -0.1294 -0.9937
 2090SOL    HW3 8407   2.676   4.059   3.473 -0.1545  0.2515 -0.5011
 2090SOL    MW4 8408   2.683   3.976   3.497 -0.1898  0.1822 -0.7329
 2091SOL     OW 8409   2.698   4.236   3.387  0.0682 -0.2126  0.3609
 2091SOL    HW2 8410   2.773   4.256   3.442 -0.3537 -0.4761  1.0347
 2091SOL    HW3 8411   2.628   4.293   3.420 -0.1656 -0.3163  0.0486
 2091SOL    MW4 8412   2.698   4.246   3.399 -0.0184 -0.2613  0.4089
 2092SOL     OW 8413   2.922   4.352   3.519 -0.1797 -0.1243  0.0791
 2092SOL    HW2 8414   2.943   4.367   3.612  1.1358 -0.1108 -0.2221
 2092SOL    HW3 8415   2.929   4.439   3.479 -0.4898 -0.1753 -0.0861
 2092SOL    MW4 8416   2.925   4.366   3.526 -0.0470 -0.1292  0.0179
 2093SOL     OW 8417   3.332   4.630   3.473 -0.4356 -0.1653 -0.0041
 2093SOL    HW2 8418   3.252   4.674   3.502  0.3926  1.1834  0.2585
 2093SOL    HW3 8419   3.337   4.649   3.379 -0.3776 -0.1644 -0.0011
 2093SOL    MW4 8420   3.322   4.638   3.464 -0.3188  0.0129  0.0310
 2094SOL     OW 8421   3.124   0.103   3.564  0.4712 -0.0745 -0.4287
 2094SOL    HW2 8422   3.121   0.182   3.510  1.7719 -0.3178 -0.8743
 2094SOL    HW3 8423   3.046   0.054   3.538  2.0335 -1.0782 -3.5110
 2094SOL    MW4 8424   3.113   0.107   3.553  0.8490 -0.2390 -0.8945
 2095SOL     OW 8425   3.121   0.350   3.453  0.7471  0.4583  0.1420
 2095SOL    HW2 8426   3.039   0.398   3.465  1.1576  1.2919 -0.3594
 2095SOL    HW3 8427   3.145   0.366   3.362  1.4359  0.1697  0.2672
 2095SOL    MW4 8428   3.113   0.358   3.442  0.8922  0.5302  0.0923
 2096SOL     OW 8429   3.346   0.520   3.516  0.4541 -0.6989 -0.1381
 2096SOL    HW2 8430   3.368   0.514   3.609  1.3320  0.1324 -0.2844
 2096SOL    HW3 8431   3.274   0.458   3.504  0.2961 -0.7647  1.1072
 2096SOL    MW4 8432   3.339   0.511   3.527  0.5491 -0.5978  0.0069
 2097SOL     OW 8433   3.317   0.798   3.433  0.0226  0.3072 -0.0365
 2097SOL    HW2 8434   3.396   0.834   3.474  0.2071 -0.0214 -0.1026
 2097SOL    HW3 8435   3.327   0.703   3.442 -0.0984  0.2449 -0.5461
 2097SOL    MW4 8436   3.329   0.790   3.440  0.0312  0.2556 -0.1125
 2098SOL     OW 8437   3.115   0.905   3.557 -0.4475 -0.2516 -0.1875
 2098SOL    HW2 8438   3.139   0.897   3.649  1.6088  0.1707 -0.6584
 2098SOL    HW3 8439   3.187   0.865   3.509 -1.6533 -0.7765 -1.6160
 2098SOL    MW4 8440   3.127   0.899   3.563 -0.3352 -0.2652 -0.4382
 2099SOL     OW 8441   3.136   1.146   3.420  0.2086  0.6519 -0.2670
 2099SOL    HW2 8442   3.123   1.073   3.480 -0.1009  0.3753 -0.6645
 2099SOL    HW3 8443   3.215   1.190   3.452 -1.3146  1.9558  1.7613
 2099SOL    MW4 8444   3.145   1.142   3.432 -0.0331  0.7876 -0.0520
 2100SOL     OW 8445   3.353   1.272   3.529  0.6122 -0.3015  0.2804
 2100SOL    HW2 8446   3.437   1.226   3.529  0.5007 -0.5339 -1.1116
 2100SOL    HW3 8447   3.371   1.356   3.487  0.3022 -0.0580  0.6289
 2100SOL    MW4 8448   3.366   1.277   3.524  0.5565 -0.3002  0.1428
 2101SOL     OW 8449   3.413   1.529   3.423 -0.0468  0.1928  0.2934
 2101SOL    HW2 8450   3.486   1.568   3.470  0.1076 -0.2972  0.4613
 2101SOL    HW3 8451   3.338   1.583   3.447 -0.4585 -1.5190  3.0939
 2101SOL    MW4 8452   3.413   1.541   3.433 -0.0808 -0.0976  0.6850
 2102SOL     OW 8453   3.170   1.641   3.493 -0.1170 -0.0802  0.2612
 2102SOL    HW2 8454   3.163   1.732   3.466  0.1862 -0.6509 -1.8039
 2102SOL    HW3 8455   3.081   1.606   3.482  0.0050 -0.3188  0.0501
 2102SOL    MW4 8456   3.157   1.648   3.488 -0.0608 -0.1870 -0.0391
 2103SOL     OW 8457   3.197   1.909   3.391  0.1977  0.2763  0.0612
 2103SOL    HW2 8458   3.112   1.952   3.401 -0.1814 -0.6226  0.8178
 2103SOL    HW3 8459   3.214   1.912   3.297 -2.0592 -2.0557 -0.4928
 2103SOL    MW4 8460   3.188   1.915   3.380 -0.1500 -0.1500  0.0880
 2104SOL     OW 8461   3.339   2.062   3.568  0.1020 -0.2389 -0.4667
 2104SOL    HW2 8462   3.350   2.145   3.522 -0.4482  0.5157  0.7517
 2104SOL    HW3 8463   3.304   2.003   3.501  0.1816  0.5941 -1.2590
 2104SOL    MW4 8464   3.336   2.065   3.553  0.0401 -0.0293 -0.4106
 2105SOL     OW 8465   3.341   2.306   3.417  0.7542  0.5852 -0.2152
 2105SOL    HW2 8466   3.421   2.349   3.447  0.7246  0.8522 -0.5043
 2105SOL    HW3 8467   3.271   2.365   3.443  0.3881 -0.9758  2.5176
 2105SOL    MW4 8468   3.342   2.320   3.424  0.7019  0.4146  0.1070
 2106SOL     OW 8469   3.129   2.474   3.511 -0.1724 -0.2273 -0.3070
 2106SOL    HW2 8470   3.091   2.464   3.598 -0.4997  1.2485 -0.2680
 2106SOL    HW3 8471   3.074   2.421   3.454  0.3726 -1.6415  0.4697
 2106SOL    MW4 8472   3.117   2.466   3.515 -0.1435 -0.2191 -0.1993
 2107SOL     OW 8473   3.140   2.744   3.431 -0.4230  0.0460  0.6362
 2107SOL    HW2 8474   3.221   2.780   3.469 -1.3258  1.1302  1.5706
 2107SOL    HW3 8475   3.137   2.654   3.463  1.3196 -0.5591 -0.8579
 2107SOL    MW4 8476   3.150   2.737   3.440 -0.3123  0.1092  0.5622
 2108SOL     OW 8477   3.380   2.874   3.530 -0.1202 -0.3473  0.3402
 2108SOL    HW2 8478   3.451   2.818   3.498 -0.0283  0.2301 -0.4770
 2108SOL    HW3 8479   3.391   2.957   3.483 -2.0659 -0.6585 -0.7323
 2108SOL    MW4 8480   3.391   2.878   3.519 -0.3648 -0.3123  0.0908
 2109SOL     OW 8481   3.395   3.145   3.421  0.2747 -0.3313 -0.0413
 2109SOL    HW2 8482   3.475   3.161   3.471 -0.0385 -1.5685  0.8601
 2109SOL    HW3 8483   3.325   3.181   3.476  0.2361  1.1513 -1.0274
 2109SOL    MW4 8484   3.397   3.152   3.435  0.2284 -0.2990 -0.0525
 2110SOL     OW 8485   3.167   3.233   3.583  0.1053 -0.3265  0.0960
 2110SOL    HW2 8486   3.165   3.329   3.576  2.1816 -0.3084 -0.5407
 2110SOL    HW3 8487   3.086   3.204   3.541  0.2112  1.0828 -1.1370
 2110SOL    MW4 8488   3.157   3.242   3.577  0.3932 -0.1383 -0.1509
 2111SOL     OW 8489   3.136   3.504   3.509  0.2017  0.3906  0.6032
 2111SOL    HW2 8490   3.070   3.563   3.545  0.9926  0.7193  1.5560
 2111SOL    HW3 8491   3.135   3.521   3.415  1.0681  2.6245  0.9604
 2111SOL    MW4 8492   3.127   3.514   3.502  0.4206  0.7286  0.7761
 2112SOL     OW 8493   3.392   3.575   3.617  0.3204 -0.3495 -0.5124
 2112SOL    HW2 8494   3.404   3.662   3.577 -0.2437 -0.7696 -1.6135
 2112SOL    HW3 8495   3.311   3.542   3.578  0.1292 -1.0674  0.4707
 2112SOL    MW4 8496   3.383   3.582   3.606  0.2208 -0.4997 -0.5279
 2113SOL     OW 8497   3.359   3.812   3.452  0.4019  0.0326 -0.5890
 2113SOL    HW2 8498   3.435   3.867   3.469  0.0401  0.0665  0.9508
 2113SOL    HW3 8499   3.284   3.869   3.470  0.0243 -0.9126  0.8642
 2113SOL    MW4 8500   3.359   3.827   3.456  0.3045 -0.0880 -0.1941
 2114SOL     OW 8501   3.135   3.977   3.505 -0.1875  0.0164  0.0273
 2114SOL    HW2 8502   3.135   3.969   3.600 -1.1634  1.8073  0.1911
 2114SOL    HW3 8503   3.146   4.071   3.488  1.3153 -0.4285 -1.6459
 2114SOL    MW4 8504   3.137   3.989   3.515 -0.1183  0.1938 -0.1719
 2115SOL     OW 8505   3.193   4.264   3.445 -0.1598  0.0513 -0.0456
 2115SOL    HW2 8506   3.261   4.299   3.502  0.1401 -0.9138  0.2021
 2115SOL    HW3 8507   3.111   4.295   3.484  0.0796  0.0545  0.4623
 2115SOL    MW4 8508   3.191   4.272   3.458 -0.0885 -0.0753  0.0541
 2116SOL     OW 8509   3.409   4.382   3.572 -0.5251  0.1186  0.0093
 2116SOL    HW2 8510   3.392   4.392   3.666 -0.0414 -0.1135  0.1239
 2116SOL    HW3 8511   3.390   4.468   3.535 -1.3863  0.0270  0.2129
 2116SOL    MW4 8512   3.404   4.395   3.579 -0.5751  0.0758  0.0515
 2117SOL     OW 8513   3.807   4.628   3.449  0.1186  0.0169 -0.5494
 2117SOL    HW2 8514   3.724   4.653   3.490 -0.4631 -1.1779 -0.9635
 2117SOL    HW3 8515   3.794   4.648   3.356 -0.1301 -1.1983 -0.7889
 2117SOL    MW4 8516   3.794   4.634   3.442  0.0093 -0.3009 -0.6359
 2118SOL     OW 8517   3.575   0.086   3.546  0.2690 -0.5352 -0.0082
 2118SOL    HW2 8518   3.560   0.176   3.518  0.7541 -0.4420  0.0314
 2118SOL    HW3 8519   3.492   0.041   3.526 -0.2182  0.0752  0.6168
 2118SOL    MW4 8520   3.562   0.092   3.540  0.2689 -0.4423  0.0796
 2119SOL     OW 8521   3.526   0.345   3.413 -0.3421 -0.2064 -0.0916
 2119SOL    HW2 8522   3.606   0.368   3.460 -0.2269 -0.4813 -0.1469
 2119SOL    HW3 8523   3.458   0.399   3.452 -0.1163  0.0782 -0.0888
 2119SOL    MW4 8524   3.528   0.355   3.424 -0.2971 -0.2051 -0.0985
 2120SOL     OW 8525   3.774   0.431   3.535 -0.0762 -0.1580 -0.3666
 2120SOL    HW2 8526   3.752   0.396   3.621 -1.7083  0.7556 -0.3874
 2120SOL    HW3 8527   3.863   0.400   3.518  0.5381  0.2432  1.9509
 2120SOL    MW4 8528   3.783   0.422   3.544 -0.2108  0.0154 -0.0634
 2121SOL     OW 8529   3.757   0.707   3.440  0.3128  0.4211 -0.1524
 2121SOL    HW2 8530   3.843   0.746   3.455  0.2736  0.0973  0.9120
 2121SOL    HW3 8531   3.764   0.618   3.474 -0.0816  0.0066 -1.1453
 2121SOL    MW4 8532   3.769   0.700   3.446  0.2556  0.3237 -0.1428
 2122SOL     OW 8533   3.543   0.887   3.535 -0.1382  0.2651  0.4364
 2122SOL    HW2 8534   3.571   0.878   3.627  0.0515  0.8993  0.4459
 2122SOL    HW3 8535   3.607   0.836   3.486 -0.0998  0.1168  0.6399
 2122SOL    MW4 8536   3.555   0.879   3.541 -0.1080  0.3292  0.4642
 2123SOL     OW 8537   3.597   1.149   3.475 -0.1588  0.0054 -0.5622
 2123SOL    HW2 8538   3.595   1.059   3.510  3.6023  0.3895  0.8623
 2123SOL    HW3 8539   3.600   1.138   3.380 -0.6465 -1.3350 -0.4370
 2123SOL    MW4 8540   3.597   1.136   3.467  0.2728 -0.1209 -0.3579
 2124SOL     OW 8541   3.797   1.314   3.584 -0.0000  0.1313 -0.1474
 2124SOL    HW2 8542   3.798   1.301   3.679 -0.1295 -0.0211 -0.1674
 2124SOL    HW3 8543   3.719   1.269   3.554 -0.4989  1.0293 -0.2123
 2124SOL    MW4 8544   3.787   1.307   3.592 -0.0827  0.2297 -0.1585
 2125SOL     OW 8545   3.810   1.554   3.423 -0.5018  0.9328  0.0346
 2125SOL    HW2 8546   3.882   1.613   3.448 -0.1563  0.0712  1.0879
 2125SOL    HW3 8547   3.815   1.482   3.485 -0.8702 -0.2688 -1.2980
 2125SOL    MW4 8548   3.820   1.553   3.434 -0.5047  0.6605 -0.0026
 2126SOL     OW 8549   3.608   1.660   3.567  0.2379 -0.2789 -0.1282
 2126SOL    HW2 8550   3.597   1.742   3.519 -1.6560 -0.9835 -0.9465
 2126SOL    HW3 8551   3.685   1.619   3.528  1.3158  1.1656  0.4115
 2126SOL    MW4 8552   3.617   1.666   3.556  0.1299 -0.1812 -0.1652
 2127SOL     OW 8553   3.575   1.917   3.451  0.0213 -0.3871  0.4178
 2127SOL    HW2 8554   3.662   1.948   3.478 -0.3163  0.7586  0.2091
 2127SOL    HW3 8555   3.514   1.968   3.504 -0.5420 -0.9539  0.3194
 2127SOL    MW4 8556   3.579   1.928   3.461 -0.0975 -0.3108  0.3774
 2128SOL     OW 8557   3.813   2.052   3.528  0.2928 -0.1315 -0.3355
 2128SOL    HW2 8558   3.810   2.064   3.622  0.5633 -1.0596 -0.2034
 2128SOL    HW3 8559   3.899   2.013   3.511  0.8837  1.4759 -1.1410
 2128SOL    MW4 8560   3.824   2.049   3.538  0.4065 -0.0422 -0.4244
 2129SOL     OW 8561   3.802   2.330   3.431 -0.2289  0.5615 -0.6712
 2129SOL    HW2 8562   3.888   2.363   3.459 -0.3530  1.1407 -0.9672
 2129SOL    HW3 8563   3.798   2.242   3.467  0.5724  0.4586 -0.8183
 2129SOL    MW4 8564   3.813   2.323   3.440 -0.1395  0.6244 -0.7298
 2130SOL     OW 8565   3.560   2.441   3.532 -0.2257 -0.0183  0.2892
 2130SOL    HW2 8566   3.551   2.536   3.521 -0.0069 -0.0387 -0.0613
 2130SOL    HW3 8567   3.644   2.420   3.493 -0.8337 -0.5406 -0.7535
 2130SOL    MW4 8568   3.570   2.451   3.526 -0.2768 -0.0896  0.1054
 2131SOL     OW 8569   3.578   2.708   3.419 -0.0195  0.2731 -0.2477
 2131SOL    HW2 8570   3.662   2.737   3.455  0.8920 -1.1592 -1.1493
 2131SOL    HW3 8571   3.596   2.695   3.326 -1.0169 -0.9259 -0.2778
 2131SOL    MW4 8572   3.591   2.710   3.411 -0.0310 -0.0741 -0.3707
 2132SOL     OW 8573   3.805   2.848   3.535 -0.2217 -0.2050 -0.4204
 2132SOL    HW2 8574   3.796   2.851   3.630 -1.8118 -0.2762 -0.5502
 2132SOL    HW3 8575   3.789   2.937   3.506 -0.4797 -0.3298 -0.6690
 2132SOL    MW4 8576   3.802   2.860   3.543 -0.4654 -0.2308 -0.4702
 2133SOL     OW 8577   3.801   3.106   3.451  0.0352  0.0284 -0.1392
 2133SOL    HW2 8578   3.878   3.159   3.474  0.5489 -1.3203  1.3196
 2133SOL    HW3 8579   3.804   3.100   3.356  0.9965  1.0957 -0.1954
 2133SOL    MW4 8580   3.812   3.112   3.442  0.2296 -0.0091  0.0458
 2134SOL     OW 8581   3.610   3.202   3.601  0.8132  0.0223  0.2261
 2134SOL    HW2 8582   3.609   3.291   3.567  2.2344  0.4557  1.2812
 2134SOL    HW3 8583   3.676   3.157   3.547 -1.0852 -0.8623 -1.4168
 2134SOL    MW4 8584   3.619   3.207   3.589  0.7501 -0.0374  0.1483
 2135SOL     OW 8585   3.620   3.469   3.496  0.5058  0.2444  0.0072
 2135SOL    HW2 8586   3.533   3.496   3.524  0.3701 -0.6286  0.4670
 2135SOL    HW3 8587   3.612   3.455   3.402 -0.4286 -1.9190  0.3758
 2135SOL    MW4 8588   3.608   3.470   3.488  0.3645 -0.1559  0.1163
 2136SOL     OW 8589   3.876   3.579   3.558  0.0736 -0.0856 -0.0552
 2136SOL    HW2 8590   3.859   3.601   3.650 -0.8206  2.0348 -0.6997
 2136SOL    HW3 8591   3.795   3.537   3.528 -0.0241  0.1975 -0.1813
 2136SOL    MW4 8592   3.863   3.576   3.566 -0.0572  0.2317 -0.1571
 2137SOL     OW 8593   3.824   3.850   3.412 -0.2265 -0.8035  0.3489
 2137SOL    HW2 8594   3.749   3.895   3.451  0.0023 -1.1766  1.2400
 2137SOL    HW3 8595   3.820   3.762   3.449 -0.3569 -1.3631 -0.9517
 2137SOL    MW4 8596   3.813   3.844   3.422 -0.2134 -0.9263  0.2949
 2138SOL     OW 8597   3.595   3.969   3.495  0.3195 -0.0411  0.1190
 2138SOL    HW2 8598   3.585   3.973   3.590  1.9684 -0.1665  0.3205
 2138SOL    HW3 8599   3.628   4.055   3.471 -1.0138  0.3087 -0.4685
 2138SOL    MW4 8600   3.598   3.981   3.505  0.3607 -0.0117  0.0682
 2139SOL     OW 8601   3.621   4.237   3.445  0.0905 -0.2718  0.5317
 2139SOL    HW2 8602   3.531   4.255   3.473  0.0190 -0.5540  0.4841
 2139SOL    HW3 8603   3.622   4.259   3.351 -0.0389 -0.6766  0.4367
 2139SOL    MW4 8604   3.609   4.242   3.436  0.0639 -0.3624  0.5128
 2140SOL     OW 8605   3.813   4.375   3.591 -0.7517  0.1708 -0.3069
 2140SOL    HW2 8606   3.746   4.327   3.542 -0.5832  0.4558 -0.8189
 2140SOL    HW3 8607   3.810   4.464   3.555 -0.4918  0.3300  0.0645
 2140SOL    MW4 8608   3.804   4.381   3.580 -0.6952  0.2294 -0.3252
 2141SOL     OW 8609   4.248   4.647   3.474  0.3016  0.3158 -0.0130
 2141SOL    HW2 8610   4.257   4.559   3.511  0.3749  0.5424  0.5072
 2141SOL    HW3 8611   4.324   4.694   3.507 -0.8656  1.1993  1.4661
 2141SOL    MW4 8612   4.259   4.641   3.483  0.1574  0.4625  0.2506
 2142SOL     OW 8613   4.026   0.105   3.581 -0.5054 -0.1849  0.2390
 2142SOL    HW2 8614   4.100   0.052   3.550  1.1691  1.7730  0.7022
 2142SOL    HW3 8615   3.948   0.061   3.547  0.9649 -1.4261 -1.6402
 2142SOL    MW4 8616   4.026   0.092   3.572 -0.0906 -0.0904  0.0522
 2143SOL     OW 8617   4.050   0.381   3.456  0.1502 -0.2803 -0.1556
 2143SOL    HW2 8618   4.070   0.292   3.485 -2.1681 -0.7372  0.0629
 2143SOL    HW3 8619   4.065   0.379   3.361  0.1255 -0.8965 -0.1505
 2143SOL    MW4 8620   4.055   0.369   3.447 -0.1588 -0.4219 -0.1261
 2144SOL     OW 8621   4.211   0.550   3.604 -0.1634  0.6384 -0.3098
 2144SOL    HW2 8622   4.234   0.622   3.546  3.3323 -1.1060 -1.1967
 2144SOL    HW3 8623   4.140   0.504   3.559 -1.8841  2.9803 -0.0956
 2144SOL    MW4 8624   4.205   0.553   3.590  0.0706  0.7172 -0.3984
 2145SOL     OW 8625   4.252   0.770   3.463 -0.0835  0.1864 -0.0357
 2145SOL    HW2 8626   4.328   0.817   3.498  0.5790 -1.0760  0.2567
 2145SOL    HW3 8627   4.272   0.759   3.370 -0.2517  0.4984 -0.1105
 2145SOL    MW4 8628   4.265   0.775   3.455 -0.0186  0.0609 -0.0069
 2146SOL     OW 8629   3.997   0.875   3.507 -0.0861 -0.4939 -0.8383
 2146SOL    HW2 8630   4.020   0.961   3.471 -1.4643 -0.3335 -1.3656
 2146SOL    HW3 8631   4.079   0.826   3.503  1.6146  1.8214  2.6361
 2146SOL    MW4 8632   4.011   0.880   3.501 -0.0429 -0.1673 -0.4497
 2147SOL     OW 8633   3.992   1.173   3.441 -0.0862 -0.1746 -0.4488
 2147SOL    HW2 8634   4.059   1.211   3.498 -0.3052  1.3366 -1.1717
 2147SOL    HW3 8635   3.909   1.200   3.480 -0.2936 -1.7626  0.2553
 2147SOL    MW4 8636   3.990   1.181   3.454 -0.1423 -0.1848 -0.4511
 2148SOL     OW 8637   4.221   1.265   3.559 -0.0880  0.0112  0.0736
 2148SOL    HW2 8638   4.234   1.359   3.573  0.7475 -0.2072  0.8751
 2148SOL    HW3 8639   4.300   1.237   3.513 -0.3834 -0.2857 -0.2584
 2148SOL    MW4 8640   4.233   1.274   3.555 -0.0167 -0.0567  0.1354
 2149SOL     OW 8641   4.254   1.548   3.511 -0.3997 -0.6055  0.3062
 2149SOL    HW2 8642   4.172   1.597   3.526  0.9750  1.8374  0.1353
 2149SOL    HW3 8643   4.266   1.550   3.416  0.8857  0.8721  0.4674
 2149SOL    MW4 8644   4.245   1.555   3.501 -0.0486 -0.0882  0.3047
 2150SOL     OW 8645   4.014   1.673   3.572 -0.4473 -0.0005  0.4632
 2150SOL    HW2 8646   4.017   1.680   3.668 -1.5733  1.9587  0.3849
 2150SOL    HW3 8647   4.035   1.761   3.541 -1.1636 -0.3541 -1.0690
 2150SOL    MW4 8648   4.017   1.685   3.581 -0.6900  0.2112  0.2508
 2151SOL     OW 8649   4.079   1.914   3.455  0.2365  0.2224  0.4048
 2151SOL    HW2 8650   4.135   1.987   3.482 -2.2963  1.9915  0.9885
 2151SOL    HW3 8651   4.092   1.906   3.361  1.0920  0.9281  0.4633
 2151SOL    MW4 8652   4.088   1.922   3.446  0.0153  0.5488  0.4897
 2152SOL     OW 8653   4.275   2.103   3.529 -0.2991  0.0083 -0.1171
 2152SOL    HW2 8654   4.255   2.192   3.500 -2.0084 -0.1406  0.5617
 2152SOL    HW3 8655   4.348   2.076   3.473 -1.2435  1.0024 -1.8814
 2152SOL    MW4 8656   4.282   2.111   3.518 -0.6495  0.1194 -0.2606
 2153SOL     OW 8657   4.264   2.337   3.387 -0.6069 -0.0411 -0.2173
 2153SOL    HW2 8658   4.183   2.387   3.396 -0.9560 -0.4253 -1.2075
 2153SOL    HW3 8659   4.270   2.316   3.294 -0.1898 -1.4053  0.0995
 2153SOL    MW4 8660   4.254   2.341   3.376 -0.5975 -0.2720 -0.3061
 2154SOL     OW 8661   4.027   2.465   3.484  0.3867 -0.5561  0.0951
 2154SOL    HW2 8662   4.033   2.465   3.579  1.6213  0.1358  0.0335
 2154SOL    HW3 8663   4.009   2.556   3.461  0.1355 -0.7129 -0.3297
 2154SOL    MW4 8664   4.025   2.477   3.493  0.5159 -0.4857  0.0308
 2155SOL     OW 8665   4.030   2.743   3.421 -0.3469 -0.3816  0.0469
 2155SOL    HW2 8666   4.110   2.785   3.453  0.0291 -1.3786  0.4258
 2155SOL    HW3 8667   3.959   2.790   3.465  0.0291  0.4735 -0.2539
 2155SOL    MW4 8668   4.031   2.755   3.431 -0.2475 -0.4003  0.0575
 2156SOL     OW 8669   0.035   3.494   3.894 -0.3623 -0.1708  0.1374
 2156SOL    HW2 8670   0.113   3.545   3.871 -0.8680  0.7225  0.3482
 2156SOL    HW3 8671   0.043   3.480   3.989 -0.3559 -0.2567  0.1239
 2156SOL    MW4 8672   0.047   3.499   3.904 -0.4282 -0.0646  0.1633
 2157SOL     OW 8673   4.289   3.122   3.428 -0.6154  0.5607  0.1818
 2157SOL    HW2 8674   4.204   3.154   3.459 -0.4964  0.2302  0.8529
 2157SOL    HW3 8675   4.279   3.116   3.333 -2.5994 -3.0266  0.5158
 2157SOL    MW4 8676   4.276   3.126   3.419 -0.8612  0.0439  0.3145
 2158SOL     OW 8677   4.047   3.198   3.534 -0.2905 -0.3163  0.0112
 2158SOL    HW2 8678   4.046   3.284   3.493  0.7719 -0.4395 -0.2751
 2158SOL    HW3 8679   4.015   3.214   3.623 -0.1030  0.3726 -0.0437
 2158SOL    MW4 8680   4.043   3.212   3.541 -0.1259 -0.2418 -0.0339
 2159SOL     OW 8681   4.081   3.458   3.431  0.1769 -0.0135 -0.4942
 2159SOL    HW2 8682   4.165   3.484   3.469  0.0329 -0.8615  0.4513
 2159SOL    HW3 8683   4.017   3.518   3.470 -0.1119 -1.4962  1.4486
 2159SOL    MW4 8684   4.083   3.469   3.441  0.1197 -0.3211 -0.1132
 2160SOL     OW 8685   4.291   3.588   3.559  0.1310  0.3069  0.1128
 2160SOL    HW2 8686   4.288   3.594   3.655  0.0082  0.3828  0.1048
 2160SOL    HW3 8687   4.260   3.674   3.529 -1.7536 -0.3957 -0.0190
 2160SOL    MW4 8688   4.287   3.600   3.568 -0.1340  0.2241  0.0942
 2161SOL     OW 8689   4.273   3.862   3.497 -0.2557  0.0913 -0.4402
 2161SOL    HW2 8690   4.361   3.894   3.514  0.3909 -1.5604 -0.5982
 2161SOL    HW3 8691   4.261   3.871   3.402 -0.2251  0.2388 -0.4293
 2161SOL    MW4 8692   4.283   3.867   3.486 -0.1664 -0.1073 -0.4597
 2162SOL     OW 8693   4.017   3.967   3.558 -0.1777  0.2559 -0.6799
 2162SOL    HW2 8694   4.100   3.921   3.547  0.4958  1.1756  0.4032
 2162SOL    HW3 8695   3.955   3.918   3.504  0.4761 -2.0094  0.5841
 2162SOL    MW4 8696   4.020   3.954   3.549 -0.0024  0.0784 -0.3698
 2163SOL     OW 8697   4.049   4.277   3.489  0.0725 -0.2568 -0.3018
 2163SOL    HW2 8698   4.034   4.188   3.521  1.6098  0.0986  1.4682
 2163SOL    HW3 8699   3.965   4.321   3.498 -0.5809 -1.3976 -0.7563
 2163SOL    MW4 8700   4.036   4.271   3.494  0.1888 -0.3605 -0.1283
 2164SOL     OW 8701   4.275   4.389   3.559 -0.2254 -0.2198 -0.6492
 2164SOL    HW2 8702   4.284   4.380   3.654 -2.1327  0.9883 -0.3358
 2164SOL    HW3 8703   4.188   4.356   3.540  0.0530 -0.2311 -1.9739
 2164SOL    MW4 8704   4.265   4.383   3.569 -0.4401 -0.0620 -0.7825
 2165SOL     OW 8705   4.295   4.622   4.218  0.4596  0.0339 -0.5863
 2165SOL    HW2 8706   4.216   4.571   4.233 -0.5515  1.6251 -0.4131
 2165SOL    HW3 8707   4.363   4.557   4.198 -0.2165 -1.5337  2.0786
 2165SOL    MW4 8708   4.294   4.607   4.217  0.2370  0.0367 -0.2122
 2166SOL     OW 8709   4.436   0.127   3.845 -0.0754 -0.0087  0.3931
 2166SOL    HW2 8710   4.476   0.204   3.886  0.7771 -0.5883  0.6589
 2166SOL    HW3 8711   4.464   0.130   3.754  0.1081 -0.0996  0.4458
 2166SOL    MW4 8712   4.445   0.138   3.839  0.0610 -0.0971  0.4354
 2167SOL     OW 8713   0.007   0.366   3.958 -0.3085 -0.4005  0.1584
 2167SOL    HW2 8714   0.014   0.370   4.054  1.0071 -0.7236  0.0847
 2167SOL    HW3 8715   0.073   0.428   3.927  0.2342 -1.3258 -0.5514
 2167SOL    MW4 8716   0.017   0.374   3.967 -0.0633 -0.5652  0.0551
 2168SOL     OW 8717   0.198   0.492   3.817 -0.0766 -0.3333 -0.3363
 2168SOL    HW2 8718   0.213   0.584   3.837  2.4106 -0.7889  0.0096
 2168SOL    HW3 8719   0.172   0.491   3.725 -2.0900  0.8603  0.1712
 2168SOL    MW4 8720   0.196   0.504   3.808 -0.0141 -0.2359 -0.2239
 2169SOL     OW 8721   1.506   0.844   4.506  0.3223 -0.1455 -0.1446
 2169SOL    HW2 8722   1.478   0.758   4.536 -0.5219 -0.5123 -1.9322
 2169SOL    HW3 8723   1.429   0.900   4.517 -0.0303 -0.3034 -1.6373
 2169SOL    MW4 8724   1.492   0.840   4.511  0.1643 -0.2148 -0.5770
 2170SOL     OW 8725   0.012   0.903   3.829  0.2982  0.0366  0.2432
 2170SOL    HW2 8726  -0.061   0.858   3.871 -1.1519 -0.4048 -2.6566
 2170SOL    HW3 8727   0.021   0.984   3.878 -0.8387 -0.7876  1.8721
 2170SOL    MW4 8728   0.004   0.908   3.841 -0.0429 -0.1304  0.0756
 2171SOL     OW 8729   4.489   1.186   4.003  0.1598  0.0807  0.2233
 2171SOL    HW2 8730   4.572   1.221   3.971 -0.9861  1.5117 -1.2158
 2171SOL    HW3 8731   4.423   1.217   3.941 -1.5032 -0.8250  1.4819
 2171SOL    MW4 8732   4.491   1.195   3.991 -0.2108  0.1500  0.1996
 2172SOL     OW 8733   0.211   1.333   3.866 -0.2472  0.0294  0.3577
 2172SOL    HW2 8734   0.212   1.420   3.906 -1.5641  0.1659  0.1006
 2172SOL    HW3 8735   0.174   1.347   3.779 -0.0325 -0.7244  0.1410
 2172SOL    MW4 8736   0.206   1.346   3.860 -0.3926 -0.0521  0.2952
 2173SOL     OW 8737   0.217   1.599   3.936  0.2282 -0.6434 -0.1226
 2173SOL    HW2 8738   0.148   1.633   3.879  0.4564 -0.5591 -0.3465
 2173SOL    HW3 8739   0.298   1.634   3.899  0.2059  1.2390  1.5164
 2173SOL    MW4 8740   0.218   1.608   3.924  0.2554 -0.3840  0.0641
 2174SOL     OW 8741   4.462   1.685   3.823  0.3748  0.1896  0.0980
 2174SOL    HW2 8742   4.441   1.761   3.878 -0.5508 -0.6693  0.9717
 2174SOL    HW3 8743   4.453   1.717   3.733  1.2941  1.4510  0.4416
 2174SOL    MW4 8744   4.458   1.699   3.819  0.3738  0.2428  0.2589
 2175SOL     OW 8745   3.564   1.172   4.805 -0.1111  0.2605  0.7585
 2175SOL    HW2 8746   3.527   1.088   4.779 -1.2875  1.0749 -0.2313
 2175SOL    HW3 8747   3.650   1.150   4.840  0.5896 -1.1164 -1.7089
 2175SOL    MW4 8748   3.570   1.158   4.806 -0.1738  0.1864  0.3023
 2176SOL     OW 8749   4.437   1.924   3.982  0.5720  0.1422  0.2077
 2176SOL    HW2 8750   4.374   1.972   3.928  0.4411  0.0536  0.2839
 2176SOL    HW3 8751   4.386   1.889   4.054  0.5891 -0.4875 -0.0845
 2176SOL    MW4 8752   4.422   1.926   3.984  0.5565  0.0474  0.1791
 2177SOL     OW 8753   0.219   2.337   3.867  0.3066  0.1899 -0.5859
 2177SOL    HW2 8754   0.148   2.398   3.845  0.2242 -0.4459 -2.1615
 2177SOL    HW3 8755   0.188   2.252   3.836  1.4136 -0.2449 -0.5261
 2177SOL    MW4 8756   0.205   2.334   3.860  0.4418  0.0489 -0.7858
 2178SOL     OW 8757   0.016   2.476   3.773  0.1063  0.3813  0.3002
 2178SOL    HW2 8758   0.024   2.542   3.841  1.5458  0.7724 -0.2159
 2178SOL    HW3 8759  -0.067   2.433   3.790 -1.1389  2.7046  0.3141
 2178SOL    MW4 8760   0.006   2.479   3.784  0.1316  0.7398  0.2339
 2179SOL     OW 8761   0.277   3.082   3.867  0.3787 -0.0989 -0.1045
 2179SOL    HW2 8762   0.341   3.138   3.823  1.2437 -0.8839  0.1341
 2179SOL    HW3 8763   0.193   3.125   3.852  1.2444  2.4631  1.9381
 2179SOL    MW4 8764   0.274   3.095   3.859  0.6070  0.1354  0.1962
 2180SOL     OW 8765   3.771   0.065   4.689 -0.6662  0.3453  0.7901
 2180SOL    HW2 8766   3.797   0.112   4.769 -0.5512  0.2765  0.7939
 2180SOL    HW3 8767   3.799   0.121   4.618 -0.9997  0.5270  0.8023
 2180SOL    MW4 8768   3.778   0.078   4.690 -0.6950  0.3602  0.7920
 2181SOL     OW 8769   1.404   3.232   3.825  0.0376 -0.1727  0.1677
 2181SOL    HW2 8770   1.328   3.193   3.868  0.2256 -1.2315 -0.4397
 2181SOL    HW3 8771   1.479   3.183   3.858  0.2141 -0.7526 -1.0780
 2181SOL    MW4 8772   1.404   3.220   3.835  0.0857 -0.3889 -0.0765
 2182SOL     OW 8773   0.907   3.515   3.864  0.0684 -0.0605  0.1959
 2182SOL    HW2 8774   0.893   3.421   3.854  0.8819 -0.1471 -0.1974
 2182SOL    HW3 8775   0.901   3.531   3.958  0.1972 -0.5530  0.2880
 2182SOL    MW4 8776   0.904   3.505   3.875  0.1928 -0.1369  0.1562
 2183SOL     OW 8777   1.247   3.605   4.369 -0.4483  0.4410  0.0947
 2183SOL    HW2 8778   1.242   3.566   4.457  0.4653  0.7974  0.3111
 2183SOL    HW3 8779   1.326   3.567   4.331 -0.3394  0.9975 -0.2262
 2183SOL    MW4 8780   1.256   3.595   4.376 -0.3133  0.5612  0.0815
 2184SOL     OW 8781   0.036   3.230   3.828 -0.1990 -0.4340 -0.1700
 2184SOL    HW2 8782   0.024   3.318   3.863 -0.9319 -0.2022 -0.9850
 2184SOL    HW3 8783   0.051   3.244   3.734 -1.3486 -1.2373 -0.4847
 2184SOL    MW4 8784   0.036   3.243   3.820 -0.4473 -0.5095 -0.3190
 2185SOL     OW 8785   0.433   4.291   3.939 -0.1726 -0.1060 -0.5143
 2185SOL    HW2 8786   0.440   4.304   4.034  1.7626 -0.5469 -0.5865
 2185SOL    HW3 8787   0.504   4.344   3.902 -0.5557 -0.3953 -1.6831
 2185SOL    MW4 8788   0.443   4.300   3.947  0.0322 -0.2022 -0.6778
 2186SOL     OW 8789   0.419   3.849   4.715  0.0387 -0.1244 -0.0115
 2186SOL    HW2 8790   0.495   3.792   4.716 -0.2975 -0.5704  0.2597
 2186SOL    HW3 8791   0.454   3.936   4.696  0.8777  0.0464  2.2267
 2186SOL    MW4 8792   0.434   3.853   4.713  0.1051 -0.1605  0.3195
 2187SOL     OW 8793   1.676   3.124   4.635  0.3364 -0.3826  0.1294
 2187SOL    HW2 8794   1.627   3.100   4.556  0.2225  0.4763 -0.0662
 2187SOL    HW3 8795   1.765   3.142   4.603  0.4256 -0.5609  0.2774
 2187SOL    MW4 8796   1.681   3.123   4.620  0.3332 -0.2930  0.1235
 2188SOL     OW 8797   0.181   0.011   3.944 -0.1038 -0.4139  0.1575
 2188SOL    HW2 8798   0.102   0.049   3.905  0.9339  0.1742 -1.4160
 2188SOL    HW3 8799   0.195   0.063   4.024 -0.1228  0.8770 -0.6648
 2188SOL    MW4 8800   0.172   0.023   3.950  0.0306 -0.1660 -0.1585
 2189SOL     OW 8801   3.439   1.860   4.725  0.5348 -0.1017  0.4301
 2189SOL    HW2 8802   3.499   1.933   4.708  0.8635 -0.3448  0.5474
 2189SOL    HW3 8803   3.452   1.800   4.651  0.2243 -0.0180  0.3058
 2189SOL    MW4 8804   3.448   1.862   4.713  0.5372 -0.1228  0.4292
 2190SOL     OW 8805   0.417   0.103   3.799 -0.0899  0.3031 -0.3517
 2190SOL    HW2 8806   0.429   0.192   3.830 -1.5760  0.9258 -1.4822
 2190SOL    HW3 8807   0.347   0.068   3.855  0.5418 -0.1841  0.1386
 2190SOL    MW4 8808   0.409   0.110   3.811 -0.2027  0.3210 -0.4363
 2191SOL     OW 8809   0.455   0.350   3.931  0.2403 -0.9030 -0.3190
 2191SOL    HW2 8810   0.372   0.398   3.923  1.2191  0.7714 -0.5997
 2191SOL    HW3 8811   0.483   0.366   4.021  0.5174 -1.0389 -0.3810
 2191SOL    MW4 8812   0.448   0.359   3.942  0.4060 -0.7001 -0.3641
 2192SOL     OW 8813   0.660   0.516   3.796 -0.6316  0.4583 -0.2308
 2192SOL    HW2 8814   0.643   0.590   3.855 -1.5841  0.5126 -0.5736
 2192SOL    HW3 8815   0.594   0.451   3.820  1.0409 -0.8334  0.9833
 2192SOL    MW4 8816   0.649   0.517   3.807 -0.5366  0.2950 -0.1161
 2193SOL     OW 8817   0.666   0.765   3.938  0.7108 -0.5143 -0.3250
 2193SOL    HW2 8818   0.607   0.811   3.879  0.4708  0.6870  0.8228
 2193SOL    HW3 8819   0.753   0.781   3.901  0.6391  0.9947  0.1483
 2193SOL    MW4 8820   0.670   0.773   3.925  0.6697 -0.1566 -0.1109
 2194SOL     OW 8821   0.481   0.909   3.779  0.1883  0.0507 -0.8036
 2194SOL    HW2 8822   0.480   0.994   3.822  0.2632  0.3033 -1.2943
 2194SOL    HW3 8823   0.404   0.863   3.812  0.9495 -0.2422  0.5667
 2194SOL    MW4 8824   0.471   0.914   3.789  0.2986  0.0454 -0.6876
 2195SOL     OW 8825   0.447   1.160   3.892 -0.5397  0.0308 -0.5651
 2195SOL    HW2 8826   0.529   1.208   3.900 -0.7378  0.0648  1.7730
 2195SOL    HW3 8827   0.383   1.226   3.865 -0.4881  0.7741  1.0641
 2195SOL    MW4 8828   0.449   1.175   3.890 -0.5590  0.1333 -0.0415
 2196SOL     OW 8829   0.900   1.114   3.927  0.1474 -0.6595  0.5042
 2196SOL    HW2 8830   0.900   1.099   4.022 -1.9519 -0.9745  0.4979
 2196SOL    HW3 8831   0.833   1.180   3.914  2.6829  1.7831 -0.4811
 2196SOL    MW4 8832   0.891   1.120   3.938  0.2050 -0.3787  0.3734
 2197SOL     OW 8833   4.194   4.069   4.375  0.2179 -0.1382 -1.2400
 2197SOL    HW2 8834   4.282   4.103   4.356 -0.5141  2.6172 -0.0780
 2197SOL    HW3 8835   4.138   4.108   4.307 -0.8468  2.1354  0.8439
 2197SOL    MW4 8836   4.198   4.079   4.364 -0.0191  0.5255 -0.8116
 2198SOL     OW 8837   0.443   1.698   3.827 -0.3262  0.0430  0.2039
 2198SOL    HW2 8838   0.499   1.666   3.898  2.1001  0.5001 -1.4346
 2198SOL    HW3 8839   0.454   1.793   3.830 -2.0150  0.2364  0.6326
 2198SOL    MW4 8840   0.452   1.706   3.837 -0.2289  0.1289  0.0441
 2199SOL     OW 8841   0.848   1.929   3.899 -0.2712  0.1287 -0.1939
 2199SOL    HW2 8842   0.921   1.990   3.887 -0.1478 -0.4569 -2.6944
 2199SOL    HW3 8843   0.777   1.966   3.846 -0.4413 -1.4796 -1.1118
 2199SOL    MW4 8844   0.848   1.942   3.890 -0.2773 -0.1607 -0.6447
 2200SOL     OW 8845   0.698   2.310   3.870 -0.5299 -0.1120  0.2199
 2200SOL    HW2 8846   0.619   2.354   3.837 -0.0392  2.6025  2.5138
 2200SOL    HW3 8847   0.771   2.357   3.828 -0.0476 -1.6641 -0.7458
 2200SOL    MW4 8848   0.697   2.322   3.860 -0.4016  0.0412  0.3948
 2201SOL     OW 8849   0.355   2.445   4.263 -0.1428  0.4817 -0.0734
 2201SOL    HW2 8850   0.291   2.441   4.334 -0.5638 -0.6259 -0.4958
 2201SOL    HW3 8851   0.432   2.400   4.299  0.0335  0.9017  0.0726
 2201SOL    MW4 8852   0.357   2.438   4.278 -0.1751  0.3910 -0.1101
 2202SOL     OW 8853   0.456   2.444   3.777 -0.3193 -0.6412 -0.2324
 2202SOL    HW2 8854   0.456   2.532   3.815 -0.5410 -0.8108  0.1567
 2202SOL    HW3 8855   0.380   2.401   3.815 -0.2514 -0.9833 -0.4760
 2202SOL    MW4 8856   0.446   2.450   3.787 -0.3397 -0.7088 -0.2127
 2203SOL     OW 8857   2.140   0.089   4.137  0.1203 -0.2569  0.1006
 2203SOL    HW2 8858   2.071   0.091   4.204  1.3329 -0.4280  1.3724
 2203SOL    HW3 8859   2.094   0.067   4.056 -1.2496 -0.8405  1.0180
 2203SOL    MW4 8860   2.124   0.087   4.135  0.0997 -0.3565  0.3886
 2204SOL     OW 8861   4.081   1.444   4.553 -0.0374  0.2325 -0.0368
 2204SOL    HW2 8862   4.050   1.435   4.643  0.1314  0.4720  0.0460
 2204SOL    HW3 8863   4.137   1.367   4.540  1.2465  1.0296  0.6110
 2204SOL    MW4 8864   4.085   1.432   4.563  0.1535  0.3693  0.0596
 2205SOL     OW 8865   0.555   2.613   4.483 -0.0233  0.2798  0.2154
 2205SOL    HW2 8866   0.605   2.670   4.425 -0.9605  1.4477  0.5258
 2205SOL    HW3 8867   0.551   2.529   4.438 -0.3258  1.0354 -1.1920
 2205SOL    MW4 8868   0.561   2.609   4.469 -0.1868  0.5338  0.0701
 2206SOL     OW 8869   0.881   3.556   4.128  0.2466 -0.7546 -0.5186
 2206SOL    HW2 8870   0.944   3.507   4.181  0.5882 -0.2599 -0.4610
 2206SOL    HW3 8871   0.797   3.513   4.145  0.2192 -0.1497  1.0153
 2206SOL    MW4 8872   0.878   3.544   4.138  0.2881 -0.6094 -0.3080
 2207SOL     OW 8873   4.434   1.290   4.738 -0.4339 -0.3021  0.1329
 2207SOL    HW2 8874   4.514   1.342   4.725 -0.0397 -0.6126  1.2777
 2207SOL    HW3 8875   4.380   1.344   4.797 -1.0199 -0.1534 -0.5317
 2207SOL    MW4 8876   4.437   1.304   4.744 -0.4592 -0.3235  0.1965
 2208SOL     OW 8877   1.360   3.490   3.930  0.4454  0.4953  0.0428
 2208SOL    HW2 8878   1.293   3.542   3.885  0.3661 -0.1538 -0.6002
 2208SOL    HW3 8879   1.357   3.405   3.886  2.2960  0.7308 -0.5792
 2208SOL    MW4 8880   1.351   3.486   3.918  0.6791  0.4406 -0.1240
 2209SOL     OW 8881   3.345   3.626   4.571 -0.0807  0.4553 -0.3544
 2209SOL    HW2 8882   3.439   3.611   4.574 -0.0228  0.9055 -0.0119
 2209SOL    HW3 8883   3.332   3.709   4.617 -0.7576 -0.1524  0.5574
 2209SOL    MW4 8884   3.356   3.635   4.577 -0.1621  0.4344 -0.1888
 2210SOL     OW 8885   0.894   3.775   4.304 -0.3651  0.6057  0.2151
 2210SOL    HW2 8886   0.961   3.835   4.271  1.3425 -1.0359  0.6655
 2210SOL    HW3 8887   0.899   3.699   4.246 -1.3070  0.1507  0.7212
 2210SOL    MW4 8888   0.903   3.773   4.292 -0.2642  0.3290  0.3419
 2211SOL     OW 8889   1.581   3.833   3.893 -0.6152  0.1624  0.3064
 2211SOL    HW2 8890   1.581   3.745   3.855 -0.9063  0.2418  0.1224
 2211SOL    HW3 8891   1.612   3.820   3.983 -1.8312 -0.3015  0.6758
 2211SOL    MW4 8892   1.585   3.820   3.900 -0.8141  0.1116  0.3307
 2212SOL     OW 8893   0.882   4.277   3.914  0.0171 -0.2757 -0.4783
 2212SOL    HW2 8894   0.967   4.321   3.913  1.0304 -2.1957 -1.3919
 2212SOL    HW3 8895   0.897   4.195   3.867 -2.0489 -1.1818  0.3935
 2212SOL    MW4 8896   0.895   4.272   3.908 -0.1218 -0.6485 -0.4838
 2213SOL     OW 8897   0.923   0.157   3.752  0.5532 -0.3457  0.2245
 2213SOL    HW2 8898   0.907   0.238   3.799 -0.3967  0.2157 -1.0104
 2213SOL    HW3 8899   0.846   0.103   3.769  1.4578 -1.2564  1.5446
 2213SOL    MW4 8900   0.911   0.161   3.760  0.5472 -0.3918  0.2356
 2214SOL     OW 8901   0.652   4.411   3.822 -0.1278 -0.5645 -0.0451
 2214SOL    HW2 8902   0.657   4.415   3.727  0.3404  1.4833  0.0474
 2214SOL    HW3 8903   0.734   4.368   3.848  0.8217  0.9302 -0.4744
 2214SOL    MW4 8904   0.664   4.406   3.813  0.0592 -0.0968 -0.0896
 2215SOL     OW 8905   1.143   3.920   3.921  0.4390 -0.2271  0.4762
 2215SOL    HW2 8906   1.219   3.978   3.916  0.7999 -0.6074  1.3622
 2215SOL    HW3 8907   1.077   3.962   3.866  1.0923  0.4103  0.1688
 2215SOL    MW4 8908   1.145   3.933   3.913  0.5727 -0.1931  0.5524
 2216SOL     OW 8909   1.614   0.657   4.174 -0.0313  0.5013 -0.7538
 2216SOL    HW2 8910   1.695   0.630   4.217  0.2392  1.9150 -0.3432
 2216SOL    HW3 8911   1.558   0.580   4.177  1.3176 -0.4978 -1.0835
 2216SOL    MW4 8912   1.617   0.644   4.180  0.1825  0.5559 -0.7434
 2217SOL     OW 8913   0.893   0.398   3.891  0.7436  0.5635  0.3773
 2217SOL    HW2 8914   0.819   0.447   3.856  1.0479  0.4120 -0.4803
 2217SOL    HW3 8915   0.946   0.465   3.935  0.7415  0.8740 -0.0839
 2217SOL    MW4 8916   0.890   0.414   3.892  0.7834  0.5845  0.2036
 2218SOL     OW 8917   0.897   0.859   3.804 -0.2874 -0.0692  0.1008
 2218SOL    HW2 8918   0.889   0.877   3.710  0.1008 -1.4621 -0.2142
 2218SOL    HW3 8919   0.924   0.942   3.842 -0.7220  0.5788 -0.9883
 2218SOL    MW4 8920   0.900   0.872   3.797 -0.2936 -0.1675 -0.0844
 2219SOL     OW 8921   4.450   4.113   4.273  0.0474  0.4625 -0.5623
 2219SOL    HW2 8922   4.503   4.095   4.350 -0.3294  0.7659 -0.2256
 2219SOL    HW3 8923   4.438   4.029   4.230 -2.2491 -0.2420  1.3376
 2219SOL    MW4 8924   4.455   4.100   4.278 -0.3052  0.4096 -0.2670
 2220SOL     OW 8925   3.024   1.613   4.135  0.0436 -0.3039  0.0559
 2220SOL    HW2 8926   2.971   1.684   4.171  0.3760  1.6051 -2.9833
 2220SOL    HW3 8927   3.113   1.649   4.133  0.1255 -0.5661 -1.9917
 2220SOL    MW4 8928   3.029   1.627   4.139  0.0982 -0.0867 -0.6151
 2221SOL     OW 8929   1.105   1.247   3.789 -0.1240  0.0421  0.0606
 2221SOL    HW2 8930   1.045   1.192   3.841  0.5933 -0.2916  0.5444
 2221SOL    HW3 8931   1.090   1.336   3.822  0.3029 -0.1616  0.8224
 2221SOL    MW4 8932   1.095   1.251   3.800  0.0271 -0.0288  0.2251
 2222SOL     OW 8933   0.871   1.632   3.810 -0.1039 -0.1596  0.3862
 2222SOL    HW2 8934   0.883   1.725   3.824 -1.7166 -0.0747  1.2639
 2222SOL    HW3 8935   0.864   1.623   3.715  1.2532  0.4373  0.2131
 2222SOL    MW4 8936   0.872   1.643   3.799 -0.1376 -0.0695  0.4792
 2223SOL     OW 8937   1.320   2.486   4.248  0.0215 -0.4534 -0.0014
 2223SOL    HW2 8938   1.305   2.481   4.342 -1.0806 -0.3172 -0.1636
 2223SOL    HW3 8939   1.335   2.579   4.231  0.8837 -0.5610  0.1267
 2223SOL    MW4 8940   1.320   2.498   4.258 -0.0101 -0.4497 -0.0062
 2224SOL     OW 8941   1.079   2.076   3.782  0.2323  0.0184 -0.0092
 2224SOL    HW2 8942   1.155   2.025   3.809 -1.4928 -2.5060  0.2759
 2224SOL    HW3 8943   1.075   2.064   3.687  0.0103 -0.1604  0.0200
 2224SOL    MW4 8944   1.088   2.067   3.773 -0.0246 -0.3383  0.0322
 2225SOL     OW 8945   1.554   2.320   3.905  0.4889  0.0382  0.1423
 2225SOL    HW2 8946   1.537   2.244   3.850  0.7674  0.0070  0.0963
 2225SOL    HW3 8947   1.630   2.363   3.864  0.8640 -0.1354  0.6485
 2225SOL    MW4 8948   1.562   2.316   3.893  0.5752  0.0112  0.2029
 2226SOL     OW 8949   1.339   2.465   3.773 -0.0464  0.2179  0.3863
 2226SOL    HW2 8950   1.416   2.440   3.825 -0.6403 -2.0831  0.2160
 2226SOL    HW3 8951   1.367   2.456   3.682  0.2297  1.8234  0.2987
 2226SOL    MW4 8952   1.353   2.460   3.768 -0.0883  0.1261  0.3524
 2227SOL     OW 8953   0.664   2.877   3.489 -0.4947  0.0504  0.1120
 2227SOL    HW2 8954   0.744   2.830   3.466 -0.2305 -1.0583  2.9956
 2227SOL    HW3 8955   0.593   2.819   3.461 -0.2542  0.0921 -0.5917
 2227SOL    MW4 8956   0.665   2.863   3.482 -0.4281 -0.0904  0.3996
 2228SOL     OW 8957   1.106   2.342   3.861 -0.0180 -0.1435  0.1237
 2228SOL    HW2 8958   1.185   2.373   3.817  0.5917 -0.5025  0.9663
 2228SOL    HW3 8959   1.091   2.255   3.824 -0.6079  0.3244 -0.7795
 2228SOL    MW4 8960   1.114   2.335   3.850 -0.0154 -0.1292  0.1156
 2229SOL     OW 8961   1.089   2.864   3.815 -0.0373  0.2219  0.3396
 2229SOL    HW2 8962   1.090   2.852   3.720  1.0428 -0.8925  0.4786
 2229SOL    HW3 8963   1.173   2.830   3.844 -0.0716  1.2048  1.6282
 2229SOL    MW4 8964   1.100   2.858   3.806  0.1007  0.2046  0.5276
 2230SOL     OW 8965   0.429   2.690   4.145  0.2085 -0.4005 -0.3635
 2230SOL    HW2 8966   0.417   2.607   4.191 -0.8943 -0.3719 -0.5894
 2230SOL    HW3 8967   0.375   2.752   4.193 -1.3696 -0.4795 -1.9759
 2230SOL    MW4 8968   0.421   2.687   4.157 -0.1452 -0.4070 -0.6056
 2231SOL     OW 8969   0.918   3.389   4.569  0.0588 -0.3189  0.6092
 2231SOL    HW2 8970   0.827   3.395   4.601 -0.3378  0.3620 -0.6438
 2231SOL    HW3 8971   0.969   3.439   4.633 -0.9602  2.4545 -0.7000
 2231SOL    MW4 8972   0.913   3.396   4.582 -0.1280  0.1369  0.2708
 2232SOL     OW 8973   4.234   3.673   4.551 -0.0752  0.4443  0.6010
 2232SOL    HW2 8974   4.302   3.643   4.491 -0.9391  0.3547 -0.3490
 2232SOL    HW3 8975   4.209   3.595   4.600  3.1962  1.2344  3.7076
 2232SOL    MW4 8976   4.239   3.659   4.549  0.2427  0.5364  0.8855
 2233SOL     OW 8977   1.368   0.375   3.952 -0.0775 -0.1228 -0.0434
 2233SOL    HW2 8978   1.352   0.289   3.914  2.6902  0.1470 -1.9686
 2233SOL    HW3 8979   1.328   0.437   3.890  1.0195  0.1187 -0.5326
 2233SOL    MW4 8980   1.361   0.372   3.939  0.4324 -0.0554 -0.3622
 2234SOL     OW 8981   1.144   3.653   3.527  0.1858 -0.4312 -0.2109
 2234SOL    HW2 8982   1.065   3.609   3.495 -0.0542 -0.9304  1.0223
 2234SOL    HW3 8983   1.139   3.644   3.622  0.6034  1.4963 -0.0004
 2234SOL    MW4 8984   1.133   3.646   3.535  0.2092 -0.2427 -0.0203
 2235SOL     OW 8985   0.468   4.031   3.835 -0.0056  0.6480 -0.4006
 2235SOL    HW2 8986   0.472   4.044   3.740  1.3504  0.1850 -0.4238
 2235SOL    HW3 8987   0.457   4.119   3.871  0.1614  0.9017 -0.9578
 2235SOL    MW4 8988   0.467   4.044   3.827  0.1954  0.6204 -0.4771
 2236SOL     OW 8989   1.118   4.396   3.826 -0.3679  0.5672  0.7831
 2236SOL    HW2 8990   1.107   4.375   3.734 -0.8497  0.3027  0.9006
 2236SOL    HW3 8991   1.210   4.377   3.844  0.2910  2.7375 -0.1890
 2236SOL    MW4 8992   1.128   4.391   3.817 -0.3444  0.8187  0.6704
 2237SOL     OW 8993   3.721   0.463   4.535  0.5370  0.0179  0.2005
 2237SOL    HW2 8994   3.758   0.551   4.521  2.0159 -0.5133  0.6846
 2237SOL    HW3 8995   3.791   0.414   4.578 -0.5627 -1.1833  0.6507
 2237SOL    MW4 8996   3.735   0.468   4.538  0.5872 -0.2106  0.3238
 2238SOL     OW 8997   1.563   4.417   3.855 -0.8990  0.3815  0.2405
 2238SOL    HW2 8998   1.632   4.359   3.885 -1.4469 -0.2291  0.3228
 2238SOL    HW3 8999   1.541   4.385   3.768  0.4172  1.9073 -0.6966
 2238SOL    MW4 9000   1.569   4.405   3.848 -0.7976  0.5026  0.1278
 2239SOL     OW 9001   1.300   1.180   4.705 -0.5983  0.0684  0.0418
 2239SOL    HW2 9002   1.394   1.197   4.701 -0.3099 -1.7537 -1.6319
 2239SOL    HW3 9003   1.259   1.261   4.674  0.5370 -0.3853 -2.6926
 2239SOL    MW4 9004   1.307   1.193   4.701 -0.4104 -0.2319 -0.5403
 2240SOL     OW 9005   1.641   0.467   3.857  0.0471  0.1115  0.1776
 2240SOL    HW2 9006   1.555   0.435   3.886  0.3760  0.6057  1.6969
 2240SOL    HW3 9007   1.654   0.549   3.905  1.5061 -0.1206  0.1879
 2240SOL    MW4 9008   1.631   0.473   3.867  0.2831  0.1461  0.3796
 2241SOL     OW 9009   1.390   0.845   3.780  0.6482 -0.7848  0.5118
 2241SOL    HW2 9010   1.470   0.821   3.828  0.9742  0.9153  0.8288
 2241SOL    HW3 9011   1.366   0.931   3.814  0.8256  0.4352 -2.2854
 2241SOL    MW4 9012   1.397   0.853   3.791  0.7145 -0.3996  0.1845
 2242SOL     OW 9013   1.478   3.266   4.819 -0.5348  0.1561  0.0580
 2242SOL    HW2 9014   1.528   3.342   4.849  0.0928 -0.3472  0.3012
 2242SOL    HW3 9015   1.541   3.216   4.766 -0.3895 -1.1907  1.4875
 2242SOL    MW4 9016   1.493   3.269   4.816 -0.4328 -0.0880  0.2789
 2243SOL     OW 9017   1.096   1.503   3.913  0.0723 -0.3650 -0.1877
 2243SOL    HW2 9018   1.015   1.547   3.886  0.0706 -1.2268 -1.6367
 2243SOL    HW3 9019   1.080   1.480   4.005 -0.7591  0.7289 -0.0391
 2243SOL    MW4 9020   1.083   1.506   3.921 -0.0376 -0.3341 -0.3593
 2244SOL     OW 9021   1.432   0.862   4.222 -0.0716 -0.3645 -0.7777
 2244SOL    HW2 9022   1.502   0.799   4.209 -2.6938 -3.6644  0.3882
 2244SOL    HW3 9023   1.427   0.872   4.317 -1.2322 -0.2297 -0.8466
 2244SOL    MW4 9024   1.440   0.855   4.233 -0.5705 -0.7821 -0.6332
 2245SOL     OW 9025   1.791   1.699   3.805 -0.3612  0.5419 -0.1647
 2245SOL    HW2 9026   1.702   1.666   3.816  0.4060 -0.8226  2.1632
 2245SOL    HW3 9027   1.807   1.692   3.711 -1.8641 -1.4412 -0.3108
 2245SOL    MW4 9028   1.782   1.694   3.794 -0.4584  0.1001  0.1233
 2246SOL     OW 9029   1.296   1.907   3.884 -0.2308  0.1701  0.0055
 2246SOL    HW2 9030   1.317   1.893   3.977  0.7858  0.1664 -0.2187
 2246SOL    HW3 9031   1.306   1.820   3.845 -0.0321  0.2958 -0.2229
 2246SOL    MW4 9032   1.300   1.893   3.891 -0.0705  0.1862 -0.0544
 2247SOL     OW 9033   2.046   0.579   4.781  0.0294 -0.1488  0.1895
 2247SOL    HW2 9034   2.090   0.588   4.865 -0.1138  1.5218  0.1054
 2247SOL    HW3 9035   2.115   0.591   4.716 -0.2945  1.0471  0.0623
 2247SOL    MW4 9036   2.061   0.582   4.783 -0.0319  0.2294  0.1616
 2248SOL     OW 9037   1.945   1.540   4.180  0.1715 -0.0813 -0.0481
 2248SOL    HW2 9038   1.862   1.584   4.199  0.2151  0.1055 -0.2901
 2248SOL    HW3 9039   2.011   1.595   4.222  0.3977  1.0462 -1.8188
 2248SOL    MW4 9040   1.943   1.553   4.188  0.2069  0.0920 -0.3138
 2249SOL     OW 9041   0.607   2.052   3.770 -0.1138  0.4278  0.1854
 2249SOL    HW2 9042   0.632   2.142   3.791 -0.2003  0.1840  1.3577
 2249SOL    HW3 9043   0.647   2.036   3.685  1.3988  0.9874  0.7736
 2249SOL    MW4 9044   0.616   2.062   3.762  0.0743  0.4697  0.4177
 2250SOL     OW 9045   2.265   0.610   4.608  0.0788  0.5126  0.2593
 2250SOL    HW2 9046   2.272   0.702   4.581 -0.2241 -0.2869 -2.7322
 2250SOL    HW3 9047   2.352   0.588   4.641  0.5846  1.4902 -0.3831
 2250SOL    MW4 9048   2.277   0.619   4.608  0.1056  0.5361 -0.2208
 2251SOL     OW 9049   2.241   2.537   4.434  0.6925  0.0743 -0.6168
 2251SOL    HW2 9050   2.193   2.462   4.468  0.6790  0.1920 -0.3741
 2251SOL    HW3 9051   2.267   2.511   4.346 -0.6386  0.3730 -1.1057
 2251SOL    MW4 9052   2.238   2.524   4.427  0.5147  0.1295 -0.6490
 2252SOL     OW 9053   0.955   3.403   4.861  0.7844 -0.3290 -0.2798
 2252SOL    HW2 9054   0.868   3.398   4.822 -0.5986  1.7681  2.3954
 2252SOL    HW3 9055   0.953   3.482   4.914  3.8618 -1.0115  0.9613
 2252SOL    MW4 9056   0.943   3.413   4.863  1.0080 -0.1419  0.2370
 2253SOL     OW 9057   1.399   3.378   4.555 -0.0500 -0.0680 -0.0135
 2253SOL    HW2 9058   1.383   3.317   4.484 -0.0283  1.4213 -1.3394
 2253SOL    HW3 9059   1.359   3.338   4.632  1.5078 -2.5516 -0.4664
 2253SOL    MW4 9060   1.391   3.365   4.556  0.1583 -0.1993 -0.2480
 2254SOL     OW 9061   2.276   4.147   4.539  0.3822  0.2316  0.0440
 2254SOL    HW2 9062   2.344   4.177   4.599  0.7176  0.2464 -0.3458
 2254SOL    HW3 9063   2.223   4.088   4.592 -0.6461  1.9525  0.9960
 2254SOL    MW4 9064   2.278   4.143   4.554  0.2909  0.4606  0.1178
 2255SOL     OW 9065   3.841   0.909   4.194 -0.6036 -0.3378 -0.0304
 2255SOL    HW2 9066   3.775   0.959   4.241 -0.4977 -0.8986  0.7217
 2255SOL    HW3 9067   3.924   0.935   4.234 -0.6000 -1.5421  0.7695
 2255SOL    MW4 9068   3.844   0.919   4.206 -0.5894 -0.5707  0.1740
 2256SOL     OW 9069   2.723   4.135   4.648 -0.1728  0.4311 -0.6093
 2256SOL    HW2 9070   2.787   4.189   4.601  0.1116  1.5847  1.0375
 2256SOL    HW3 9071   2.642   4.185   4.644 -0.0121  0.8054  0.5599
 2256SOL    MW4 9072   2.721   4.149   4.641 -0.1140  0.6328 -0.2375
 2257SOL     OW 9073   0.694   3.447   4.745 -0.4744  0.2955  0.4214
 2257SOL    HW2 9074   0.616   3.393   4.735 -0.5287  0.5772 -0.8413
 2257SOL    HW3 9075   0.665   3.535   4.720  0.3414  0.3248 -0.4683
 2257SOL    MW4 9076   0.680   3.452   4.740 -0.3740  0.3364  0.1378
 2258SOL     OW 9077   1.201   3.901   3.417  0.1759 -0.7452  0.1325
 2258SOL    HW2 9078   1.253   3.947   3.483  1.9904 -1.4022 -0.8021
 2258SOL    HW3 9079   1.175   3.820   3.461  0.8648 -0.9050  0.2547
 2258SOL    MW4 9080   1.204   3.896   3.432  0.5062 -0.8531  0.0255
 2259SOL     OW 9081   2.570   4.475   4.549 -0.5090 -0.2653 -0.4677
 2259SOL    HW2 9082   2.656   4.510   4.527 -0.6320 -0.7861 -1.8537
 2259SOL    HW3 9083   2.511   4.516   4.486 -1.2676 -0.0142  0.3918
 2259SOL    MW4 9084   2.574   4.485   4.538 -0.6254 -0.3009 -0.5369
 2260SOL     OW 9085   1.055   3.945   4.180 -0.0743  0.1830  0.2009
 2260SOL    HW2 9086   1.085   3.919   4.093 -1.6269  0.0002 -0.2871
 2260SOL    HW3 9087   0.998   4.020   4.164  0.1386  0.5498  1.1279
 2260SOL    MW4 9088   1.052   3.952   4.166 -0.2511  0.2072  0.2584
 2261SOL     OW 9089   2.050   3.883   3.877  0.0306  0.6790  0.2499
 2261SOL    HW2 9090   2.042   3.788   3.885 -0.1937  0.7032  0.3064
 2261SOL    HW3 9091   1.971   3.911   3.831  0.6172  0.7143 -0.7451
 2261SOL    MW4 9092   2.039   3.875   3.872  0.0784  0.6866  0.1261
 2262SOL     OW 9093   1.813   0.101   3.779 -0.4393 -0.3777 -0.0696
 2262SOL    HW2 9094   1.853   0.173   3.828 -0.2014  0.3675 -1.3197
 2262SOL    HW3 9095   1.738   0.075   3.832  0.3682 -0.2374  1.1569
 2262SOL    MW4 9096   1.808   0.107   3.792 -0.3015 -0.2609 -0.0725
 2263SOL     OW 9097   2.022   0.520   3.914  0.1737  0.0838  0.0176
 2263SOL    HW2 9098   2.024   0.532   3.819  0.1689 -0.1283 -0.0077
 2263SOL    HW3 9099   2.006   0.608   3.948  0.0261  0.1364 -0.1840
 2263SOL    MW4 9100   2.020   0.534   3.906  0.1535  0.0626 -0.0124
 2264SOL     OW 9101   1.706   0.576   4.555 -0.2794 -0.3094 -0.0068
 2264SOL    HW2 9102   1.741   0.646   4.610 -0.0280 -2.0011  2.0794
 2264SOL    HW3 9103   1.731   0.600   4.466  4.7713 -0.5276  1.1749
 2264SOL    MW4 9104   1.714   0.588   4.550  0.4202 -0.5614  0.4244
 2265SOL     OW 9105   1.653   1.973   4.922 -0.1734 -0.3671  0.1560
 2265SOL    HW2 9106   1.648   2.067   4.901 -0.0115 -0.4166 -0.1043
 2265SOL    HW3 9107   1.730   1.942   4.875 -0.3114 -0.6624  0.1236
 2265SOL    MW4 9108   1.662   1.982   4.913 -0.1701 -0.4125  0.1173
 2266SOL     OW 9109   1.797   1.222   3.883  0.3020 -0.2037  0.3817
 2266SOL    HW2 9110   1.823   1.131   3.870  0.3003 -0.4571  2.0465
 2266SOL    HW3 9111   1.748   1.222   3.965 -2.8719  0.6774 -1.4200
 2266SOL    MW4 9112   1.794   1.210   3.892 -0.1171 -0.1210  0.3636
 2267SOL     OW 9113   2.224   0.402   4.407  0.3965 -0.0375 -0.2503
 2267SOL    HW2 9114   2.131   0.388   4.390  0.3185  0.2369 -0.0539
 2267SOL    HW3 9115   2.226   0.468   4.476  0.7278 -0.4201  0.1080
 2267SOL    MW4 9116   2.212   0.409   4.414  0.4296 -0.0517 -0.1769
 2268SOL     OW 9117   2.395   1.323   4.374 -0.1004  0.6630  0.2499
 2268SOL    HW2 9118   2.380   1.280   4.458  0.0195  0.5555  0.2163
 2268SOL    HW3 9119   2.335   1.279   4.314  0.1735  0.3974  0.1685
 2268SOL    MW4 9120   2.385   1.311   4.377 -0.0484  0.6138  0.2346
 2269SOL     OW 9121   2.288   1.562   4.429  0.2581 -0.2891  0.2395
 2269SOL    HW2 9122   2.340   1.492   4.389  0.3426  0.4257 -0.9237
 2269SOL    HW3 9123   2.353   1.624   4.463  0.1808 -0.1397  0.1188
 2269SOL    MW4 9124   2.304   1.561   4.428  0.2589 -0.1752  0.0696
 2270SOL     OW 9125   1.312   1.651   3.767 -0.6540  0.3954 -0.0872
 2270SOL    HW2 9126   1.245   1.600   3.812 -0.6527 -0.6580 -1.2773
 2270SOL    HW3 9127   1.394   1.624   3.808 -0.7262 -0.0030 -0.2107
 2270SOL    MW4 9128   1.314   1.641   3.779 -0.6634  0.2038 -0.2604
 2271SOL     OW 9129   1.557   1.565   3.880 -0.0774 -0.2459  0.1443
 2271SOL    HW2 9130   1.554   1.481   3.834 -0.0411 -2.0834  3.3907
 2271SOL    HW3 9131   1.515   1.548   3.964 -1.1981  3.3363  0.3790
 2271SOL    MW4 9132   1.551   1.552   3.885 -0.2204 -0.0157  0.6037
 2272SOL     OW 9133   2.045   2.056   3.821 -0.3992  0.3176  0.6286
 2272SOL    HW2 9134   1.956   2.026   3.838  0.1474 -1.9919 -0.3547
 2272SOL    HW3 9135   2.056   2.048   3.726  1.5116 -1.4305  0.9567
 2272SOL    MW4 9136   2.035   2.051   3.811 -0.0746 -0.2179  0.5419
 2273SOL     OW 9137   2.937   0.732   3.914 -0.1317  0.9212  0.2519
 2273SOL    HW2 9138   3.001   0.803   3.910  0.1644  0.5503 -2.1373
 2273SOL    HW3 9139   2.856   0.770   3.878 -0.6493  0.7340  1.1913
 2273SOL    MW4 9140   2.934   0.746   3.909 -0.1609  0.8475  0.0606
 2274SOL     OW 9141   1.636   0.244   4.342 -0.1937 -0.3682  0.3769
 2274SOL    HW2 9142   1.663   0.188   4.415 -1.1112 -0.9142  0.3101
 2274SOL    HW3 9143   1.578   0.309   4.382  0.8923  0.5612  0.4567
 2274SOL    MW4 9144   1.632   0.245   4.357 -0.1714 -0.3176  0.3786
 2275SOL     OW 9145   1.360   2.745   4.143  0.0001  0.0249 -0.4529
 2275SOL    HW2 9146   1.280   2.795   4.158  0.1795  0.4558 -0.8993
 2275SOL    HW3 9147   1.359   2.727   4.049 -0.6658 -1.8552 -0.1116
 2275SOL    MW4 9148   1.349   2.749   4.132 -0.0641 -0.1664 -0.4668
 2276SOL     OW 9149   1.605   3.088   3.934  0.3044 -0.1215  0.2937
 2276SOL    HW2 9150   1.602   3.012   3.876 -0.4121 -0.5978  0.9460
 2276SOL    HW3 9151   1.599   3.051   4.022 -1.0445  0.7568  0.5847
 2276SOL    MW4 9152   1.604   3.073   3.938  0.0319 -0.0684  0.4179
 2277SOL     OW 9153   2.453   3.426   3.776 -0.3415 -0.3919  0.6130
 2277SOL    HW2 9154   2.392   3.473   3.832 -0.6313 -1.2957  1.0548
 2277SOL    HW3 9155   2.458   3.479   3.696 -0.3678  0.5857  1.2612
 2277SOL    MW4 9156   2.446   3.439   3.773 -0.3831 -0.3822  0.7572
 2278SOL     OW 9157   2.533   2.306   4.132  0.0357 -0.1247  0.2178
 2278SOL    HW2 9158   2.588   2.381   4.154 -0.7544  0.7704 -0.7685
 2278SOL    HW3 9159   2.522   2.311   4.037 -1.3478 -0.5441  0.3378
 2278SOL    MW4 9160   2.539   2.316   4.122 -0.2511 -0.0620  0.1035
 2279SOL     OW 9161   0.448   3.340   4.628 -0.1732  0.0239  0.3331
 2279SOL    HW2 9162   0.359   3.349   4.594  0.1561  0.8609 -0.3125
 2279SOL    HW3 9163   0.478   3.255   4.596 -0.8671 -0.4272  0.8570
 2279SOL    MW4 9164   0.440   3.330   4.619 -0.2213  0.0751  0.3176
 2280SOL     OW 9165   2.080   3.611   3.878  0.9518 -0.1937 -0.3579
 2280SOL    HW2 9166   2.090   3.584   3.787  0.6150  0.4750 -0.5948
 2280SOL    HW3 9167   1.993   3.580   3.903  0.5512  0.6959 -0.6403
 2280SOL    MW4 9168   2.070   3.604   3.869  0.8545  0.0117 -0.4263
 2281SOL     OW 9169   1.573   3.909   4.374  0.5362 -0.0640 -0.2053
 2281SOL    HW2 9170   1.479   3.900   4.354  0.3980 -2.2904  1.2758
 2281SOL    HW3 9171   1.587   4.004   4.377 -1.6335  0.3170 -0.6368
 2281SOL    MW4 9172   1.562   3.921   4.372  0.2317 -0.3078 -0.0668
 2282SOL     OW 9173   1.808   3.974   3.791  0.1611 -1.1017  0.0432
 2282SOL    HW2 9174   1.794   4.061   3.829 -0.2524 -1.5656  0.9801
 2282SOL    HW3 9175   1.726   3.927   3.808 -0.6590 -0.8211 -2.8723
 2282SOL    MW4 9176   1.796   3.979   3.798 -0.0017 -1.1263 -0.2182
 2283SOL     OW 9177   1.814   0.739   4.743 -0.7292  0.5668  0.0327
 2283SOL    HW2 9178   1.855   0.825   4.749 -0.6578  0.6265 -1.2720
 2283SOL    HW3 9179   1.877   0.679   4.784 -1.3335  1.2886  2.1074
 2283SOL    MW4 9180   1.828   0.742   4.749 -0.7997  0.6698  0.1345
 2284SOL     OW 9181   2.263   4.267   3.885  0.1856  0.0939  0.1219
 2284SOL    HW2 9182   2.171   4.290   3.872 -0.3253 -0.9345  1.8530
 2284SOL    HW3 9183   2.269   4.175   3.861  0.6712  0.0370  0.4494
 2284SOL    MW4 9184   2.252   4.258   3.880  0.1824 -0.0496  0.3934
 2285SOL     OW 9185   2.430   0.002   3.838 -0.0400 -0.3319 -0.0057
 2285SOL    HW2 9186   2.353   0.051   3.809  0.3059  0.1598 -0.1007
 2285SOL    HW3 9187   2.503   0.060   3.820  0.1411  0.1944  2.2692
 2285SOL    MW4 9188   2.429   0.016   3.832  0.0296 -0.1979  0.2818
 2286SOL     OW 9189   2.198   0.152   3.762  0.3036  0.0500  0.0172
 2286SOL    HW2 9190   2.236   0.237   3.784 -0.2926  0.1450  0.6724
 2286SOL    HW3 9191   2.211   0.144   3.667  2.0797  0.0210  0.2456
 2286SOL    MW4 9192   2.205   0.162   3.752  0.4592  0.0587  0.1335
 2287SOL     OW 9193   2.015   0.784   3.987  0.5151 -0.0028 -0.3998
 2287SOL    HW2 9194   2.100   0.817   3.957  0.8216  0.2341  0.7235
 2287SOL    HW3 9195   2.011   0.808   4.079 -0.6629 -0.2506 -0.3802
 2287SOL    MW4 9196   2.025   0.792   3.995  0.4001 -0.0042 -0.2489
 2288SOL     OW 9197   2.495   0.539   3.813  0.1526  0.2309 -0.2833
 2288SOL    HW2 9198   2.494   0.624   3.857  0.3903 -0.3144  0.7756
 2288SOL    HW3 9199   2.416   0.495   3.843 -0.4184  0.4111 -1.5013
 2288SOL    MW4 9200   2.485   0.545   3.823  0.1087  0.1827 -0.3042
 2289SOL     OW 9201   1.824   0.945   3.837 -0.0462 -0.3390 -0.3348
 2289SOL    HW2 9202   1.890   0.896   3.885  1.3058  0.3942 -1.4016
 2289SOL    HW3 9203   1.822   0.903   3.751 -0.0362  0.4525 -0.7258
 2289SOL    MW4 9204   1.832   0.933   3.832  0.1335 -0.1379 -0.5271
 2290SOL     OW 9205   2.229   0.913   3.865 -0.3185 -0.0931 -0.4736
 2290SOL    HW2 9206   2.202   1.005   3.872 -1.5167 -0.4391 -0.4456
 2290SOL    HW3 9207   2.229   0.895   3.771 -0.7148 -0.2522 -0.4419
 2290SOL    MW4 9208   2.226   0.923   3.853 -0.5288 -0.1597 -0.4656
 2291SOL     OW 9209   2.236   1.193   3.921  0.0546  0.0105 -0.1481
 2291SOL    HW2 9210   2.319   1.216   3.878  0.8278 -1.0007  0.7740
 2291SOL    HW3 9211   2.169   1.234   3.867  1.0988 -0.0507 -1.5145
 2291SOL    MW4 9212   2.238   1.201   3.908  0.2942 -0.1309 -0.2069
 2292SOL     OW 9213   0.895   1.410   4.861 -0.1471  0.2239  0.1915
 2292SOL    HW2 9214   0.985   1.434   4.840  0.2489 -0.4652  1.0693
 2292SOL    HW3 9215   0.879   1.331   4.809  0.5214 -0.9478  1.7342
 2292SOL    MW4 9216   0.905   1.402   4.851 -0.0066 -0.0216  0.5107
 2293SOL     OW 9217   1.768   1.957   3.905 -0.5450  0.2699 -0.2666
 2293SOL    HW2 9218   1.766   1.866   3.877 -0.6683  0.1666  0.0731
 2293SOL    HW3 9219   1.796   1.954   3.997 -0.3072  0.5898 -0.3256
 2293SOL    MW4 9220   1.771   1.945   3.914 -0.5299  0.2985 -0.2296
 2294SOL     OW 9221   1.958   0.369   4.320  0.0463 -0.3344 -0.2382
 2294SOL    HW2 9222   1.912   0.290   4.289 -0.1870 -0.5517  0.6691
 2294SOL    HW3 9223   1.951   0.365   4.415  0.1499  0.7219 -0.1880
 2294SOL    MW4 9224   1.951   0.358   4.328  0.0293 -0.2237 -0.1116
 2295SOL     OW 9225   2.264   2.018   3.998 -0.6880  0.0864 -0.6111
 2295SOL    HW2 9226   2.266   1.922   4.000 -1.9307  0.0320 -0.9794
 2295SOL    HW3 9227   2.193   2.038   3.936 -0.3999  1.2403 -0.5701
 2295SOL    MW4 9228   2.255   2.008   3.990 -0.8140  0.2317 -0.6545
 2296SOL     OW 9229   2.932   2.033   3.808 -0.5818 -0.3497  0.6340
 2296SOL    HW2 9230   2.932   2.124   3.837  1.7765  0.1465 -0.7422
 2296SOL    HW3 9231   2.993   1.988   3.866 -1.5065 -1.0011  1.1185
 2296SOL    MW4 9232   2.940   2.039   3.819 -0.3924 -0.3703  0.5164
 2297SOL     OW 9233   1.781   2.692   3.873  0.2685  0.0665 -0.2692
 2297SOL    HW2 9234   1.775   2.597   3.864  0.1207 -0.1234  1.5723
 2297SOL    HW3 9235   1.805   2.706   3.965 -1.5863  1.8639 -0.0166
 2297SOL    MW4 9236   1.783   2.681   3.884  0.0042  0.2787  0.0072
 2298SOL     OW 9237   1.498   2.288   4.170 -0.3546 -0.1371 -0.2137
 2298SOL    HW2 9238   1.435   2.352   4.204 -2.7739 -2.2392 -0.6332
 2298SOL    HW3 9239   1.510   2.313   4.079 -0.9147  0.0174 -0.2482
 2298SOL    MW4 9240   1.491   2.300   4.163 -0.7477 -0.3939 -0.2737
 2299SOL     OW 9241   1.811   2.403   3.504 -0.3477  0.0480  0.5865
 2299SOL    HW2 9242   1.744   2.352   3.459  0.1311  0.5077 -0.6844
 2299SOL    HW3 9243   1.894   2.365   3.474 -0.0193  0.3635  1.0831
 2299SOL    MW4 9244   1.813   2.391   3.494 -0.2412  0.1502  0.4842
 2300SOL     OW 9245   3.823   1.324   4.280 -0.6584 -0.1697  0.6411
 2300SOL    HW2 9246   3.912   1.304   4.249 -0.4303 -2.0280  2.3381
 2300SOL    HW3 9247   3.833   1.332   4.375 -2.8677 -4.2339  1.3638
 2300SOL    MW4 9248   3.836   1.322   4.289 -0.9196 -0.9511  0.9608
 2301SOL     OW 9249   2.802   3.211   4.653 -0.3344 -0.5469 -0.0493
 2301SOL    HW2 9250   2.733   3.210   4.587  0.1962 -0.4847 -0.6158
 2301SOL    HW3 9251   2.797   3.297   4.693 -0.0236 -0.2166 -0.7022
 2301SOL    MW4 9252   2.793   3.222   4.649 -0.2236 -0.4950 -0.2108
 2302SOL     OW 9253   2.270   3.284   4.447 -0.3760  0.0885 -0.0316
 2302SOL    HW2 9254   2.287   3.364   4.398  0.0424  0.3110  0.4743
 2302SOL    HW3 9255   2.272   3.214   4.381  0.4782  0.3508 -0.2803
 2302SOL    MW4 9256   2.272   3.285   4.432 -0.2081  0.1523  0.0024
 2303SOL     OW 9257   2.543   3.076   3.769 -0.4810  0.6270  0.1601
 2303SOL    HW2 9258   2.589   3.102   3.849  1.4278  1.0181 -1.0381
 2303SOL    HW3 9259   2.567   3.142   3.705 -1.4087 -0.0986 -0.9471
 2303SOL    MW4 9260   2.553   3.088   3.771 -0.3512  0.5829 -0.1440
 2304SOL     OW 9261   2.688   3.455   3.937 -0.0046  0.0445  0.2237
 2304SOL    HW2 9262   2.607   3.452   3.886  0.3839  0.4089 -0.4241
 2304SOL    HW3 9263   2.738   3.527   3.898  1.3811 -1.2930 -0.5065
 2304SOL    MW4 9264   2.684   3.464   3.925  0.2296 -0.0837  0.0420
 2305SOL     OW 9265   1.355   4.294   3.979  0.4148 -0.1660  0.2580
 2305SOL    HW2 9266   1.437   4.325   3.939  0.6338 -1.1837 -0.0775
 2305SOL    HW3 9267   1.345   4.205   3.947 -0.6071 -0.1921  0.6519
 2305SOL    MW4 9268   1.365   4.287   3.969  0.3088 -0.3037  0.2658
 2306SOL     OW 9269   1.229   4.028   4.581 -0.5995  0.0626  1.0117
 2306SOL    HW2 9270   1.134   4.039   4.592 -0.3592  0.3711  2.8514
 2306SOL    HW3 9271   1.240   4.017   4.486 -2.5976 -1.2353  0.8946
 2306SOL    MW4 9272   1.218   4.028   4.570 -0.8315 -0.0677  1.2393
 2307SOL     OW 9273   2.794   0.771   4.174  0.0592 -0.0517 -0.4529
 2307SOL    HW2 9274   2.819   0.737   4.088 -0.0495  1.2192 -0.9980
 2307SOL    HW3 9275   2.872   0.814   4.207 -0.1797  0.2824 -0.3249
 2307SOL    MW4 9276   2.807   0.772   4.167  0.0131  0.1600 -0.5083
 2308SOL     OW 9277   2.490   4.398   3.785 -0.2036  0.4646  0.2442
 2308SOL    HW2 9278   2.410   4.350   3.809 -0.4890 -0.3635 -2.2570
 2308SOL    HW3 9279   2.470   4.489   3.805 -1.4358  0.1510  0.4909
 2308SOL    MW4 9280   2.477   4.403   3.791 -0.4039  0.3142 -0.0532
 2309SOL     OW 9281   2.872   4.652   3.907 -0.4047  0.2075  0.0360
 2309SOL    HW2 9282   2.890   4.573   3.856 -0.9745 -0.2774  0.5778
 2309SOL    HW3 9283   2.948   4.708   3.891 -0.2860 -0.1891 -0.8483
 2309SOL    MW4 9284   2.884   4.649   3.898 -0.4644  0.0911 -0.0095
 2310SOL     OW 9285   2.667   0.119   3.797  0.0226 -0.0501  0.1452
 2310SOL    HW2 9286   2.744   0.076   3.835  0.4030  1.1643  0.7551
 2310SOL    HW3 9287   2.688   0.128   3.704 -0.1272 -1.3131 -0.0219
 2310SOL    MW4 9288   2.680   0.114   3.790  0.0532 -0.0565  0.2036
 2311SOL     OW 9289   3.573   2.084   4.649 -0.4268  0.1219 -0.1643
 2311SOL    HW2 9290   3.609   2.167   4.681  1.1937 -0.4641 -0.3945
 2311SOL    HW3 9291   3.641   2.049   4.592 -0.0082 -2.5462  1.8515
 2311SOL    MW4 9292   3.587   2.091   4.646 -0.1581 -0.3073  0.0715
 2312SOL     OW 9293   0.184   1.893   4.527 -0.5391 -0.3296  0.2826
 2312SOL    HW2 9294   0.104   1.944   4.516  0.1040  0.6026 -0.1434
 2312SOL    HW3 9295   0.159   1.821   4.585 -1.0502  1.4522  2.3459
 2312SOL    MW4 9296   0.170   1.890   4.533 -0.5217  0.0284  0.4988
 2313SOL     OW 9297   3.182   0.877   3.833  0.2111 -0.5281 -0.2584
 2313SOL    HW2 9298   3.261   0.825   3.846  1.1653  0.6436 -1.2574
 2313SOL    HW3 9299   3.176   0.932   3.911  0.4436 -0.5271 -0.2424
 2313SOL    MW4 9300   3.191   0.877   3.845  0.3676 -0.3733 -0.3881
 2314SOL     OW 9301   2.487   0.807   3.934 -0.1726  0.6380 -0.0884
 2314SOL    HW2 9302   2.404   0.841   3.900  1.2798  2.0649 -2.3290
 2314SOL    HW3 9303   2.480   0.819   4.029 -2.2767  1.2650 -0.2830
 2314SOL    MW4 9304   2.475   0.813   3.942 -0.2587  0.9089 -0.4101
 2315SOL     OW 9305   3.586   3.178   4.318 -0.2769 -0.2516 -1.0328
 2315SOL    HW2 9306   3.569   3.188   4.412  1.5831  1.0408 -0.8086
 2315SOL    HW3 9307   3.502   3.197   4.276 -0.6648  1.0107  0.2801
 2315SOL    MW4 9308   3.573   3.182   4.325 -0.0827  0.0851 -0.8297
 2316SOL     OW 9309   3.011   1.255   3.804  0.4039  0.2117 -0.1973
 2316SOL    HW2 9310   2.992   1.344   3.832  0.5502  0.0209  0.5079
 2316SOL    HW3 9311   2.939   1.202   3.838  0.3063  0.0643 -0.6319
 2316SOL    MW4 9312   2.999   1.260   3.812  0.4103  0.1671 -0.1616
 2317SOL     OW 9313   2.483   2.309   3.850  0.6843  0.3206  0.1379
 2317SOL    HW2 9314   2.393   2.342   3.852  0.5871  0.0518  0.2459
 2317SOL    HW3 9315   2.474   2.215   3.831  0.9814  0.4534 -0.6942
 2317SOL    MW4 9316   2.470   2.301   3.848  0.7107  0.3026  0.0427
 2318SOL     OW 9317   2.686   0.557   4.354 -0.2695  0.1048 -0.0480
 2318SOL    HW2 9318   2.752   0.513   4.299 -0.1379  0.3502 -0.0872
 2318SOL    HW3 9319   2.677   0.644   4.315 -1.0109 -0.1132 -0.3624
 2318SOL    MW4 9320   2.694   0.562   4.341 -0.3498  0.1085 -0.0949
 2319SOL     OW 9321   2.953   1.511   3.883 -0.5594  0.1118  0.3933
 2319SOL    HW2 9322   2.953   1.546   3.972 -1.3796 -0.7303  0.7278
 2319SOL    HW3 9323   2.868   1.536   3.847 -0.2201  0.4726 -0.1627
 2319SOL    MW4 9324   2.942   1.519   3.890 -0.6230  0.0483  0.3641
 2320SOL     OW 9325   3.547   1.628   4.875  0.0372 -0.2437  0.6025
 2320SOL    HW2 9326   3.501   1.708   4.847  0.7990  0.4083  1.1824
 2320SOL    HW3 9327   3.569   1.644   4.967 -1.5840 -1.9686  1.3150
 2320SOL    MW4 9328   3.544   1.641   4.883 -0.0763 -0.3853  0.7725
 2321SOL     OW 9329   2.249   2.449   3.797  0.3977  0.3991  0.3946
 2321SOL    HW2 9330   2.172   2.412   3.841  1.0344  0.6906  1.7866
 2321SOL    HW3 9331   2.234   2.433   3.704 -0.5991 -0.9680  0.7774
 2321SOL    MW4 9332   2.237   2.442   3.790  0.3498  0.2573  0.6287
 2322SOL     OW 9333   2.597   1.836   4.259 -0.7680  0.1721  0.8307
 2322SOL    HW2 9334   2.690   1.830   4.280 -0.5584  0.1754 -0.0904
 2322SOL    HW3 9335   2.573   1.925   4.286 -0.1780  0.6510 -0.1701
 2322SOL    MW4 9336   2.606   1.847   4.265 -0.6626  0.2358  0.5770
 2323SOL     OW 9337   2.176   3.408   4.698  0.2176 -0.2776  0.2603
 2323SOL    HW2 9338   2.197   3.379   4.609  0.7776  0.1567  0.2450
 2323SOL    HW3 9339   2.080   3.409   4.701  0.1521 -3.4696  0.7235
 2323SOL    MW4 9340   2.166   3.405   4.686  0.2828 -0.6416  0.3195
 2324SOL     OW 9341   4.113   3.430   4.698  0.4107  0.3306  0.1520
 2324SOL    HW2 9342   4.043   3.495   4.704  1.2274  1.0981  1.4825
 2324SOL    HW3 9343   4.069   3.346   4.704 -0.6097  0.7509 -1.1187
 2324SOL    MW4 9344   4.098   3.428   4.699  0.3843  0.4871  0.1597
 2325SOL     OW 9345   4.461   3.847   4.167 -0.3492  0.0112  0.6129
 2325SOL    HW2 9346   4.418   3.773   4.211 -0.3681 -0.0591  0.4740
 2325SOL    HW3 9347   4.413   3.859   4.086  1.1743 -1.4218 -0.5594
 2325SOL    MW4 9348   4.449   3.839   4.162 -0.1507 -0.1872  0.4396
 2326SOL     OW 9349   3.981   2.820   4.711  0.4250  0.2621  0.1501
 2326SOL    HW2 9350   4.054   2.875   4.740  0.1263 -0.2430  1.9037
 2326SOL    HW3 9351   3.912   2.882   4.688  0.8612  0.6852 -0.0291
 2326SOL    MW4 9352   3.982   2.836   4.712  0.4432  0.2515  0.3581
 2327SOL     OW 9353   2.978   3.119   4.002 -0.4066  0.4921 -0.2540
 2327SOL    HW2 9354   3.044   3.166   3.950  0.2392  0.2163  0.3109
 2327SOL    HW3 9355   2.950   3.047   3.945  0.4265  0.0881 -0.1559
 2327SOL    MW4 9356   2.983   3.116   3.987 -0.2115  0.4025 -0.1669
 2328SOL     OW 9357   2.690   3.194   3.998 -0.1134  0.6433  0.1813
 2328SOL    HW2 9358   2.690   3.289   3.984 -0.2036  0.4830 -0.9950
 2328SOL    HW3 9359   2.782   3.169   3.986 -0.2692  0.4393 -0.6493
 2328SOL    MW4 9360   2.702   3.204   3.994 -0.1459  0.5953 -0.0832
 2329SOL     OW 9361   2.895   3.905   3.915 -0.1361 -0.1834  0.0069
 2329SOL    HW2 9362   2.873   3.918   4.007 -0.8002  1.6704 -0.3835
 2329SOL    HW3 9363   2.892   3.811   3.903  0.2822 -0.4718  1.9560
 2329SOL    MW4 9364   2.892   3.895   3.926 -0.1686  0.0231  0.2127
 2330SOL     OW 9365   2.644   3.940   3.762 -0.4648 -0.3735 -0.1200
 2330SOL    HW2 9366   2.595   3.904   3.836  1.0193 -3.7668 -0.6975
 2330SOL    HW3 9367   2.736   3.935   3.789 -0.0052 -0.2884 -1.5897
 2330SOL    MW4 9368   2.650   3.935   3.775 -0.2084 -0.8101 -0.3901
 2331SOL     OW 9369   2.704   4.232   3.873 -0.1686 -0.0700 -0.0337
 2331SOL    HW2 9370   2.674   4.142   3.859  1.5789 -0.4072 -1.7492
 2331SOL    HW3 9371   2.636   4.286   3.833  0.4685 -0.7595 -2.0748
 2331SOL    MW4 9372   2.691   4.227   3.866  0.1459 -0.2060 -0.5293
 2332SOL     OW 9373   3.256   4.514   4.202 -0.6310 -0.3376 -0.5814
 2332SOL    HW2 9374   3.278   4.561   4.122 -0.1888 -0.7058 -0.6788
 2332SOL    HW3 9375   3.187   4.453   4.176 -1.5485  0.5975 -0.3469
 2332SOL    MW4 9376   3.250   4.512   4.188 -0.6938 -0.2627 -0.5631
 2333SOL     OW 9377   3.472   0.465   3.793  0.2841 -0.0040  0.2696
 2333SOL    HW2 9378   3.554   0.415   3.791 -0.6989 -1.5983 -4.2079
 2333SOL    HW3 9379   3.417   0.418   3.856  0.9952 -1.9880 -0.5473
 2333SOL    MW4 9380   3.476   0.453   3.801  0.2484 -0.4761 -0.4292
 2334SOL     OW 9381   3.070   0.189   3.860 -0.3833 -0.1955  0.1176
 2334SOL    HW2 9382   3.109   0.165   3.776 -1.1104 -1.9374  0.2473
 2334SOL    HW3 9383   3.054   0.283   3.854  1.7810  0.1278 -0.7635
 2334SOL    MW4 9384   3.073   0.198   3.848 -0.1934 -0.3827  0.0181
 2335SOL     OW 9385   3.170   1.900   4.666 -0.3286  0.1472  0.3776
 2335SOL    HW2 9386   3.261   1.893   4.694 -0.0819  1.0385 -0.1758
 2335SOL    HW3 9387   3.126   1.825   4.706  0.5453 -0.0113  1.0433
 2335SOL    MW4 9388   3.176   1.889   4.675 -0.1805  0.2438  0.3924
 2336SOL     OW 9389   3.185   0.080   4.599  0.4465 -0.9568 -0.0649
 2336SOL    HW2 9390   3.122   0.054   4.531 -0.2106 -1.8038  0.8563
 2336SOL    HW3 9391   3.253   0.013   4.595  0.8985 -0.4806 -0.5169
 2336SOL    MW4 9392   3.185   0.068   4.589  0.4191 -1.0058 -0.0029
 2337SOL     OW 9393   3.386   1.403   4.787  0.0683 -0.1887  0.3312
 2337SOL    HW2 9394   3.436   1.321   4.796  0.6822  0.1845  0.3019
 2337SOL    HW3 9395   3.447   1.471   4.813 -0.3370  0.2967  0.0096
 2337SOL    MW4 9396   3.401   1.401   4.791  0.0956 -0.0753  0.2847
 2338SOL     OW 9397   3.070   0.580   4.604 -0.2620  0.0768  0.3055
 2338SOL    HW2 9398   3.097   0.500   4.649  0.2227  0.0709  0.0145
 2338SOL    HW3 9399   2.989   0.606   4.647  0.9424  0.8613  2.1394
 2338SOL    MW4 9400   3.063   0.573   4.615 -0.0391  0.1795  0.5088
 2339SOL     OW 9401   3.981   3.719   4.388 -0.2082 -0.2466 -0.2542
 2339SOL    HW2 9402   4.069   3.751   4.411 -0.4788  0.6541 -0.4593
 2339SOL    HW3 9403   3.935   3.797   4.357 -0.7474 -0.9223 -1.1607
 2339SOL    MW4 9404   3.987   3.734   4.387 -0.3150 -0.2170 -0.4010
 2340SOL     OW 9405   3.184   1.031   4.070  0.6144  0.3278 -0.7713
 2340SOL    HW2 9406   3.278   1.049   4.079  0.5087  0.0545  1.0094
 2340SOL    HW3 9407   3.142   1.111   4.103  0.1988 -1.0484  2.1609
 2340SOL    MW4 9408   3.191   1.044   4.076  0.5455  0.1101 -0.1493
 2341SOL     OW 9409   2.740   1.226   3.876  0.2633  0.3267  0.1983
 2341SOL    HW2 9410   2.754   1.254   3.966  0.9404 -0.8293  0.4663
 2341SOL    HW3 9411   2.721   1.132   3.882  0.9848  0.0944 -0.9145
 2341SOL    MW4 9412   2.739   1.218   3.889  0.4478  0.1436  0.0868
 2342SOL     OW 9413   3.440   1.084   4.150 -0.1382  0.4079 -0.1282
 2342SOL    HW2 9414   3.475   1.096   4.062 -0.8319  0.7002 -0.3680
 2342SOL    HW3 9415   3.457   0.992   4.170  0.0738  0.3570 -0.5436
 2342SOL    MW4 9416   3.447   1.073   4.141 -0.2017  0.4400 -0.2141
 2343SOL     OW 9417   3.149   1.692   3.759  0.8539 -0.4017 -0.0667
 2343SOL    HW2 9418   3.139   1.678   3.665 -1.2691  0.6535 -0.0141
 2343SOL    HW3 9419   3.107   1.617   3.800 -1.4378  0.9053  0.0611
 2343SOL    MW4 9420   3.142   1.681   3.752  0.2716 -0.0900 -0.0427
 2344SOL     OW 9421   3.373   2.085   3.845 -0.0130  0.2391  0.2112
 2344SOL    HW2 9422   3.461   2.047   3.852 -0.0731  0.1464  0.4358
 2344SOL    HW3 9423   3.355   2.085   3.751  0.1512  0.0853  0.1790
 2344SOL    MW4 9424   3.382   2.080   3.833  0.0007  0.2067  0.2365
 2345SOL     OW 9425   1.232   2.473   4.518  0.2616  0.1455  0.4726
 2345SOL    HW2 9426   1.287   2.448   4.593  0.3563 -0.4096  0.2160
 2345SOL    HW3 9427   1.234   2.569   4.519 -0.7502  0.1662  1.9317
 2345SOL    MW4 9428   1.240   2.482   4.528  0.1407  0.0751  0.6313
 2346SOL     OW 9429   3.129   2.422   3.796  0.4191 -0.0383 -0.1831
 2346SOL    HW2 9430   3.055   2.367   3.823 -0.2690  0.9349 -0.0758
 2346SOL    HW3 9431   3.203   2.388   3.847  0.0932 -1.1385 -0.4315
 2346SOL    MW4 9432   3.129   2.410   3.806  0.2854 -0.0548 -0.2017
 2347SOL     OW 9433   2.929   2.286   3.888  0.2673  0.0287  0.4228
 2347SOL    HW2 9434   2.849   2.323   3.851 -0.5361 -2.2751 -0.2050
 2347SOL    HW3 9435   2.928   2.315   3.980 -1.8507 -0.8864  0.7123
 2347SOL    MW4 9436   2.918   2.295   3.895 -0.1183 -0.3963  0.3786
 2348SOL     OW 9437   3.349   2.904   3.804  0.1119 -0.4714 -0.1078
 2348SOL    HW2 9438   3.349   2.911   3.708  1.6094 -0.2993 -0.0936
 2348SOL    HW3 9439   3.280   2.839   3.822  0.1304 -0.8528 -1.3219
 2348SOL    MW4 9440   3.340   2.896   3.794  0.3121 -0.4990 -0.2661
 2349SOL     OW 9441   3.587   3.506   4.014  0.5275 -0.7634 -0.1415
 2349SOL    HW2 9442   3.525   3.566   3.971  0.5519 -0.8512 -0.3008
 2349SOL    HW3 9443   3.673   3.542   3.992  0.5795 -1.5128 -1.2208
 2349SOL    MW4 9444   3.590   3.519   4.005  0.5374 -0.8736 -0.3042
 2350SOL     OW 9445   0.844   0.308   4.178 -0.1656 -0.3605  0.4721
 2350SOL    HW2 9446   0.887   0.355   4.107  0.4390 -1.2346  0.2516
 2350SOL    HW3 9447   0.829   0.220   4.142 -0.4327 -0.6118  1.2040
 2350SOL    MW4 9448   0.848   0.302   4.164 -0.1211 -0.5090  0.5398
 2351SOL     OW 9449   3.386   3.129   3.976  0.3080 -0.1738 -0.3202
 2351SOL    HW2 9450   3.466   3.172   3.945 -0.0837 -0.8666 -2.4115
 2351SOL    HW3 9451   3.380   3.050   3.922 -2.5289  0.5869 -1.1900
 2351SOL    MW4 9452   3.396   3.124   3.965 -0.1180 -0.1647 -0.7105
 2352SOL     OW 9453   3.361   3.638   3.882 -0.2634 -0.4470  0.1884
 2352SOL    HW2 9454   3.369   3.733   3.873  0.6591 -0.4855  0.5988
 2352SOL    HW3 9455   3.364   3.605   3.792 -0.4624 -0.1046  0.0540
 2352SOL    MW4 9456   3.362   3.647   3.869 -0.1681 -0.4067  0.2248
 2353SOL     OW 9457   3.532   4.366   4.612 -0.6000  0.1381  0.0440
 2353SOL    HW2 9458   3.514   4.403   4.525  1.1080 -0.7771 -0.7255
 2353SOL    HW3 9459   3.627   4.354   4.614 -0.6191  0.1628  2.0571
 2353SOL    MW4 9460   3.542   4.369   4.601 -0.3769  0.0200  0.2089
 2354SOL     OW 9461   3.371   3.915   3.889  0.4010  0.5289  0.0684
 2354SOL    HW2 9462   3.363   3.904   3.984  1.2402  0.6524  0.1639
 2354SOL    HW3 9463   3.286   3.948   3.861  0.7327  2.2758  1.0558
 2354SOL    MW4 9464   3.359   3.918   3.898  0.5553  0.7756  0.2110
 2355SOL     OW 9465   2.930   4.392   3.795  0.0114  0.1300 -0.0566
 2355SOL    HW2 9466   2.864   4.328   3.824 -0.7280  0.5269 -0.8514
 2355SOL    HW3 9467   3.011   4.363   3.837 -0.3093 -1.3459 -0.4111
 2355SOL    MW4 9468   2.932   4.380   3.805 -0.1285 -0.0124 -0.2084
 2356SOL     OW 9469   3.418   4.398   3.844 -0.1005  0.0231  0.0112
 2356SOL    HW2 9470   3.494   4.344   3.867 -0.1551 -1.0977 -2.2825
 2356SOL    HW3 9471   3.455   4.485   3.826  0.6979 -0.5516 -1.2362
 2356SOL    MW4 9472   3.433   4.402   3.844 -0.0021 -0.2007 -0.4559
 2357SOL     OW 9473   0.165   1.427   4.618  0.2333 -0.1858  0.0932
 2357SOL    HW2 9474   0.257   1.413   4.640  0.9351  3.3258 -0.2814
 2357SOL    HW3 9475   0.156   1.391   4.529  1.5031  0.3959 -0.2757
 2357SOL    MW4 9476   0.176   1.420   4.609  0.4935  0.3542 -0.0052
 2358SOL     OW 9477   3.535   4.645   3.807 -0.2770 -0.4856  0.0076
 2358SOL    HW2 9478   3.609   4.673   3.860 -0.4870 -0.0860  0.0992
 2358SOL    HW3 9479   3.554   4.678   3.719  0.8921 -2.6378 -0.5659
 2358SOL    MW4 9480   3.547   4.653   3.802 -0.1507 -0.7169 -0.0563
 2359SOL     OW 9481   4.133   1.016   4.572 -0.2153 -1.0094 -0.2388
 2359SOL    HW2 9482   4.184   0.952   4.620  0.3391  1.3168  2.3944
 2359SOL    HW3 9483   4.195   1.086   4.550 -1.6044  0.4809  0.4447
 2359SOL    MW4 9484   4.148   1.017   4.576 -0.3252 -0.5060  0.1993
 2360SOL     OW 9485   3.863   0.834   3.925  0.2317  0.3296 -0.1199
 2360SOL    HW2 9486   3.845   0.868   4.013 -1.5315  0.7303 -0.6067
 2360SOL    HW3 9487   3.789   0.865   3.872  2.0562  1.4198 -2.1041
 2360SOL    MW4 9488   3.851   0.843   3.930  0.2394  0.5263 -0.4458
 2361SOL     OW 9489   3.697   0.337   3.811 -0.0833  0.0637 -0.2571
 2361SOL    HW2 9490   3.666   0.305   3.896 -2.3475  2.5407 -0.0603
 2361SOL    HW3 9491   3.753   0.411   3.833  1.4969 -0.9430 -0.8529
 2361SOL    MW4 9492   3.700   0.343   3.825 -0.1736  0.2577 -0.3097
 2362SOL     OW 9493   3.629   0.899   3.801  1.0801  0.0498  0.3946
 2362SOL    HW2 9494   3.615   0.983   3.844  1.8178 -0.8902  2.5106
 2362SOL    HW3 9495   3.560   0.842   3.836  0.4841 -0.2187 -1.1464
 2362SOL    MW4 9496   3.618   0.903   3.811  1.0986 -0.1096  0.4704
 2363SOL     OW 9497   3.520   1.144   3.896  0.4849 -0.1789 -0.1387
 2363SOL    HW2 9498   3.447   1.179   3.845  0.5385 -0.7338 -0.6024
 2363SOL    HW3 9499   3.586   1.213   3.893  0.6442 -0.3707 -1.1666
 2363SOL    MW4 9500   3.519   1.158   3.889  0.5131 -0.2774 -0.3355
 2364SOL     OW 9501   3.792   1.267   3.897  0.5360  0.8750 -0.4247
 2364SOL    HW2 9502   3.879   1.228   3.885  0.5269 -0.0137  2.0383
 2364SOL    HW3 9503   3.809   1.354   3.934  0.3957  0.5409  0.4495
 2364SOL    MW4 9504   3.806   1.273   3.900  0.5164  0.7136  0.0155
 2365SOL     OW 9505   2.873   1.791   4.283  0.2194 -0.0237 -0.3637
 2365SOL    HW2 9506   2.856   1.733   4.357  2.0290 -2.8911 -2.1169
 2365SOL    HW3 9507   2.946   1.846   4.312 -0.3309  0.1910  0.6473
 2365SOL    MW4 9508   2.881   1.791   4.297  0.3853 -0.3737 -0.4616
 2366SOL     OW 9509   3.579   1.628   3.839  0.1451  0.5151 -0.3040
 2366SOL    HW2 9510   3.492   1.591   3.852  1.6611 -3.1190 -0.0085
 2366SOL    HW3 9511   3.586   1.639   3.744 -0.3446  0.0610 -0.3971
 2366SOL    MW4 9512   3.568   1.625   3.828  0.2806 -0.0242 -0.2773
 2367SOL     OW 9513   3.595   1.897   3.913 -0.1173 -0.3947  0.1673
 2367SOL    HW2 9514   3.587   1.810   3.874  0.3909 -0.0071 -0.8246
 2367SOL    HW3 9515   3.607   1.880   4.007 -0.3528 -1.3737  0.0297
 2367SOL    MW4 9516   3.596   1.883   3.920 -0.0813 -0.4728  0.0184
 2368SOL     OW 9517   0.144   2.261   4.618 -0.6434 -0.0204  0.0706
 2368SOL    HW2 9518   0.200   2.213   4.557 -0.1666  0.9682 -0.2782
 2368SOL    HW3 9519   0.194   2.264   4.699 -0.2748  0.6512 -0.1705
 2368SOL    MW4 9520   0.158   2.255   4.620 -0.5319  0.1986 -0.0067
 2369SOL     OW 9521   3.788   2.059   3.796 -0.1333  0.4258  0.3482
 2369SOL    HW2 9522   3.788   2.145   3.838 -1.2956 -0.0655  1.3961
 2369SOL    HW3 9523   3.731   2.005   3.851 -1.5233 -0.2981 -1.7113
 2369SOL    MW4 9524   3.780   2.063   3.809 -0.4702  0.2654  0.2148
 2370SOL     OW 9525   3.958   4.514   4.623  0.5639 -0.2621  0.1732
 2370SOL    HW2 9526   3.895   4.557   4.681 -0.3256  0.4753 -1.3234
 2370SOL    HW3 9527   3.909   4.441   4.584  0.8705 -0.1545 -0.4083
 2370SOL    MW4 9528   3.943   4.510   4.625  0.4871 -0.1507 -0.1011
 2371SOL     OW 9529   3.570   2.460   3.814 -0.2068 -0.0336 -0.1873
 2371SOL    HW2 9530   3.495   2.403   3.832 -0.2112 -0.2553 -0.9141
 2371SOL    HW3 9531   3.578   2.460   3.719  1.5553 -1.1042 -0.0647
 2371SOL    MW4 9532   3.561   2.452   3.804  0.0250 -0.2041 -0.2670
 2372SOL     OW 9533   3.672   2.423   4.390  0.0517 -0.0628  0.2474
 2372SOL    HW2 9534   3.692   2.513   4.416 -0.2070  0.3368 -0.9266
 2372SOL    HW3 9535   3.656   2.377   4.473 -2.0524  1.5024  0.7405
 2372SOL    MW4 9536   3.673   2.429   4.405 -0.2604  0.1965  0.1574
 2373SOL     OW 9537   2.471   1.307   3.771  0.0921  0.1392  0.3004
 2373SOL    HW2 9538   2.564   1.303   3.791  0.1219  0.3549  0.2102
 2373SOL    HW3 9539   2.451   1.401   3.770 -0.3265  0.0592  1.2378
 2373SOL    MW4 9540   2.480   1.319   3.773  0.0408  0.1571  0.4122
 2374SOL     OW 9541   3.814   3.584   3.837 -0.1212  0.5650 -0.1302
 2374SOL    HW2 9542   3.804   3.678   3.851 -0.4320  0.4294  0.5751
 2374SOL    HW3 9543   3.901   3.563   3.871 -1.1025  0.1329  2.2164
 2374SOL    MW4 9544   3.824   3.594   3.843 -0.2918  0.4900  0.2725
 2375SOL     OW 9545   4.309   3.871   3.925 -0.6244  0.3538  0.0060
 2375SOL    HW2 9546   4.323   3.780   3.900 -0.9119 -0.1345  1.5513
 2375SOL    HW3 9547   4.373   3.921   3.873  0.5483 -0.8748  0.2481
 2375SOL    MW4 9548   4.319   3.866   3.915 -0.5078  0.1273  0.2418
 2376SOL     OW 9549   4.226   1.895   4.554  0.5391 -0.1488  0.5424
 2376SOL    HW2 9550   4.309   1.941   4.539 -0.5640  1.8177  0.2260
 2376SOL    HW3 9551   4.252   1.808   4.584  2.7112  0.5779  0.8934
 2376SOL    MW4 9552   4.241   1.890   4.556  0.6800  0.2066  0.5465
 2377SOL     OW 9553   3.609   4.268   4.206  0.0356 -0.3587  0.2464
 2377SOL    HW2 9554   3.598   4.241   4.114 -0.5843  0.8663 -0.0434
 2377SOL    HW3 9555   3.578   4.193   4.256  0.7959 -1.2132 -0.5415
 2377SOL    MW4 9556   3.603   4.254   4.200  0.0541 -0.3099  0.1040
 2378SOL     OW 9557   3.599   3.993   3.769  0.3191  0.4506  0.4805
 2378SOL    HW2 9558   3.672   3.958   3.820 -0.3935 -2.8977 -0.6299
 2378SOL    HW3 9559   3.521   3.962   3.814 -0.3204 -1.2449 -1.6755
 2378SOL    MW4 9560   3.598   3.984   3.781  0.1404 -0.2148  0.0494
 2379SOL     OW 9561   3.117   3.015   4.342 -0.3840  0.0997  0.0946
 2379SOL    HW2 9562   3.074   3.083   4.393 -0.1340 -0.1406  0.6288
 2379SOL    HW3 9563   3.185   3.061   4.292 -0.2329  0.2468  0.4353
 2379SOL    MW4 9564   3.120   3.030   4.342 -0.3314  0.0875  0.2098
 2380SOL     OW 9565   3.833   4.368   3.873 -0.2902  0.0430 -0.0258
 2380SOL    HW2 9566   3.825   4.354   3.779 -0.5246  1.6619 -0.2492
 2380SOL    HW3 9567   3.914   4.322   3.897  0.4065  0.6135 -1.2270
 2380SOL    MW4 9568   3.843   4.360   3.864 -0.2294  0.3319 -0.2139
 2381SOL     OW 9569   4.230   4.643   3.950  0.1543  0.0658 -0.0767
 2381SOL    HW2 9570   4.291   4.696   3.898  0.9501 -1.5111 -0.7831
 2381SOL    HW3 9571   4.253   4.661   4.041  1.0908  0.1691 -0.3324
 2381SOL    MW4 9572   4.241   4.652   3.955  0.3829 -0.1283 -0.2036
 2382SOL     OW 9573   4.008   0.125   3.878 -0.0919  0.0524 -0.4997
 2382SOL    HW2 9574   4.078   0.068   3.912 -2.2660 -2.4854 -0.1288
 2382SOL    HW3 9575   4.018   0.121   3.783 -1.5612 -2.7716 -0.5807
 2382SOL    MW4 9576   4.019   0.117   3.870 -0.5732 -0.6550 -0.4616
 2383SOL     OW 9577   4.063   0.368   4.025  0.0749 -0.1851 -0.0883
 2383SOL    HW2 9578   4.045   0.291   3.970  1.3046  0.7285 -1.8288
 2383SOL    HW3 9579   4.140   0.408   3.984 -1.2173  2.5916  0.1487
 2383SOL    MW4 9580   4.071   0.363   4.012  0.0668  0.3017 -0.2861
 2384SOL     OW 9581   4.257   0.467   3.871 -0.3614  0.0396  0.1034
 2384SOL    HW2 9582   4.337   0.415   3.879 -0.8451 -0.7745 -0.3013
 2384SOL    HW3 9583   4.239   0.471   3.777 -0.6937  0.3759  0.1777
 2384SOL    MW4 9584   4.265   0.461   3.860 -0.4692 -0.0234  0.0598
 2385SOL     OW 9585   4.271   0.740   3.941  0.0485  0.2729 -0.6670
 2385SOL    HW2 9586   4.277   0.648   3.913 -0.9255  0.1461 -0.4571
 2385SOL    HW3 9587   4.187   0.770   3.907 -0.0236  0.8374  0.0154
 2385SOL    MW4 9588   4.261   0.732   3.932 -0.0896  0.3307 -0.5493
 2386SOL     OW 9589   4.071   0.906   3.794 -0.0727 -0.4829 -0.2252
 2386SOL    HW2 9590   3.994   0.886   3.847 -0.5867  0.2125 -0.7220
 2386SOL    HW3 9591   4.047   0.880   3.705 -0.5618  1.8762 -0.7936
 2386SOL    MW4 9592   4.058   0.900   3.789 -0.2050 -0.0799 -0.3657
 2387SOL     OW 9593   4.052   1.165   3.861  0.4479 -0.3013 -0.4947
 2387SOL    HW2 9594   4.144   1.185   3.846  0.8816 -0.5117  1.6794
 2387SOL    HW3 9595   4.043   1.073   3.839  0.8462 -0.3721 -0.3578
 2387SOL    MW4 9596   4.063   1.156   3.856  0.5579 -0.3386 -0.1898
 2388SOL     OW 9597   4.319   1.236   3.813 -0.6405 -0.0999 -0.1876
 2388SOL    HW2 9598   4.291   1.324   3.838 -1.3275 -0.3050 -0.2107
 2388SOL    HW3 9599   4.295   1.228   3.720 -2.6263 -1.0883  0.3782
 2388SOL    MW4 9600   4.312   1.246   3.804 -0.9933 -0.2574 -0.1159
 2389SOL     OW 9601   4.032   1.640   3.861  0.3782 -0.0810  0.0505
 2389SOL    HW2 9602   4.033   1.730   3.895 -0.6828  0.3630 -1.0600
 2389SOL    HW3 9603   3.958   1.599   3.905 -0.9569  0.4747 -1.6300
 2389SOL    MW4 9604   4.023   1.647   3.871  0.0620  0.0509 -0.3176
 2390SOL     OW 9605   3.799   1.525   3.970  0.3229  0.0492 -0.4167
 2390SOL    HW2 9606   3.771   1.533   4.061 -0.5097 -0.7873 -0.5944
 2390SOL    HW3 9607   3.729   1.566   3.920  0.0369 -0.8671 -0.7781
 2390SOL    MW4 9608   3.786   1.532   3.975  0.1755 -0.1819 -0.4880
 2391SOL     OW 9609   4.016   1.920   3.870 -0.7540 -0.3917  0.2425
 2391SOL    HW2 9610   3.936   1.964   3.841  0.3523  0.6285 -1.2946
 2391SOL    HW3 9611   4.087   1.979   3.844  0.4229 -0.5449  2.9836
 2391SOL    MW4 9612   4.015   1.934   3.863 -0.4525 -0.2774  0.4015
 2392SOL     OW 9613   4.262   2.084   3.809  0.0169 -0.2550 -0.5830
 2392SOL    HW2 9614   4.271   2.177   3.830  1.9533  0.1502 -2.9318
 2392SOL    HW3 9615   4.269   2.080   3.714 -0.0324 -2.8110 -0.5248
 2392SOL    MW4 9616   4.264   2.096   3.799  0.2661 -0.5388 -0.8855
 2393SOL     OW 9617   4.271   2.350   3.855  0.1581 -0.1781 -0.0056
 2393SOL    HW2 9618   4.264   2.358   3.950 -0.0600  1.6774 -0.1677
 2393SOL    HW3 9619   4.187   2.384   3.822  1.2062  1.5602 -0.9537
 2393SOL    MW4 9620   4.259   2.355   3.863  0.2670  0.2961 -0.1521
 2394SOL     OW 9621   3.803   2.330   3.885  0.0074 -0.6541 -0.1139
 2394SOL    HW2 9622   3.720   2.367   3.855 -0.8751 -1.5431  1.1587
 2394SOL    HW3 9623   3.803   2.344   3.980  3.3499  3.3087 -0.5564
 2394SOL    MW4 9624   3.792   2.336   3.894  0.3319 -0.2484 -0.0045
 2395SOL     OW 9625   2.597   2.249   4.573 -0.3134 -0.3889  0.3739
 2395SOL    HW2 9626   2.559   2.182   4.516 -0.3088  0.0299 -0.1166
 2395SOL    HW3 9627   2.548   2.329   4.553 -0.2407 -0.2152  0.8786
 2395SOL    MW4 9628   2.586   2.251   4.563 -0.3033 -0.3107  0.3757
 2396SOL     OW 9629   4.284   3.611   3.848 -0.1868  0.1740  0.2496
 2396SOL    HW2 9630   4.205   3.575   3.889 -0.9045  0.1705 -1.0953
 2396SOL    HW3 9631   4.356   3.561   3.886 -1.0347 -1.4808 -0.2531
 2396SOL    MW4 9632   4.283   3.600   3.858 -0.3939 -0.0448  0.0057
 2397SOL     OW 9633   3.563   2.733   3.893 -0.2939 -0.0709 -0.0032
 2397SOL    HW2 9634   3.534   2.644   3.875 -0.7749 -0.1337  1.0775
 2397SOL    HW3 9635   3.489   2.789   3.868 -0.2562 -0.0261 -0.0168
 2397SOL    MW4 9636   3.549   2.729   3.887 -0.3524 -0.0732  0.1378
 2398SOL     OW 9637   4.060   0.618   4.584  0.6313 -0.5650 -0.5613
 2398SOL    HW2 9638   3.988   0.673   4.552  0.0174 -1.2613 -0.3886
 2398SOL    HW3 9639   4.124   0.618   4.513  2.4752  3.6163  0.9317
 2398SOL    MW4 9640   4.059   0.625   4.570  0.7939 -0.1051 -0.3414
 2399SOL     OW 9641   3.679   3.771   4.182  0.2938  0.3591  0.3752
 2399SOL    HW2 9642   3.595   3.815   4.166  1.0682  0.6610 -3.1613
 2399SOL    HW3 9643   3.731   3.837   4.228 -0.8288  0.7139  1.1859
 2399SOL    MW4 9644   3.675   3.786   4.186  0.2477  0.4461  0.0157
 2400SOL     OW 9645   3.966   3.511   4.207 -0.0636 -0.4480  0.4249
 2400SOL    HW2 9646   3.872   3.498   4.214  0.0643 -0.9447  1.3039
 2400SOL    HW3 9647   3.985   3.582   4.268  0.1950 -0.6396  0.5682
 2400SOL    MW4 9648   3.956   3.519   4.216 -0.0126 -0.5388  0.5598
 2401SOL     OW 9649   3.433   1.882   4.300  0.3560 -0.1390 -0.6314
 2401SOL    HW2 9650   3.380   1.828   4.243 -0.4160  0.0910 -0.1408
 2401SOL    HW3 9651   3.522   1.875   4.265  0.1232 -1.0961 -1.0237
 2401SOL    MW4 9652   3.438   1.874   4.288  0.2234 -0.2348 -0.6180
 2402SOL     OW 9653   1.561   1.611   4.455 -0.1625 -0.8914 -0.6242
 2402SOL    HW2 9654   1.567   1.591   4.549  1.4805  0.7631 -0.3211
 2402SOL    HW3 9655   1.507   1.691   4.452  1.3507  0.1495 -0.8776
 2402SOL    MW4 9656   1.555   1.619   4.467  0.2539 -0.5357 -0.6180
 2403SOL     OW 9657   4.273   4.378   3.858 -0.0126 -0.2651  0.4820
 2403SOL    HW2 9658   4.356   4.349   3.895  0.2329 -1.0457 -0.6601
 2403SOL    HW3 9659   4.268   4.471   3.881  1.1848 -0.2062  0.5353
 2403SOL    MW4 9660   4.283   4.387   3.866  0.1774 -0.3605  0.3381
 2404SOL     OW 9661   0.024   4.274   3.951  0.3619 -0.1942  0.1778
 2404SOL    HW2 9662   0.104   4.314   3.915  0.2422  0.7126  0.9094
 2404SOL    HW3 9663   0.017   4.310   4.039 -1.6475  0.8573 -0.3974
 2404SOL    MW4 9664   0.034   4.284   3.958  0.0810  0.0639  0.1986
 2405SOL     OW 9665   1.102   1.164   4.190  0.5892 -0.4545 -0.2800
 2405SOL    HW2 9666   1.063   1.251   4.180  1.0669 -0.2900 -0.7436
 2405SOL    HW3 9667   1.068   1.132   4.274  0.4120  0.1757 -0.1090
 2405SOL    MW4 9668   1.092   1.171   4.199  0.6288 -0.3495 -0.3195
 2406SOL     OW 9669   1.803   4.522   4.201  0.6232  0.2696 -0.3140
 2406SOL    HW2 9670   1.862   4.461   4.246  0.0099 -0.3898 -0.3862
 2406SOL    HW3 9671   1.858   4.598   4.181  1.0909  0.2750  0.9063
 2406SOL    MW4 9672   1.818   4.524   4.204  0.6040  0.1826 -0.1621
 2407SOL     OW 9673   2.737   2.818   4.400  0.3460 -0.0373  0.3627
 2407SOL    HW2 9674   2.749   2.754   4.470 -0.4520 -0.0170  0.5215
 2407SOL    HW3 9675   2.652   2.859   4.419 -0.2115 -0.5234 -0.9986
 2407SOL    MW4 9676   2.727   2.815   4.412  0.1676 -0.0987  0.2041
 2408SOL     OW 9677   0.671   0.260   4.559  0.1350 -0.2372 -0.1229
 2408SOL    HW2 9678   0.608   0.270   4.487 -2.3291 -0.1378  1.9822
 2408SOL    HW3 9679   0.705   0.171   4.549  0.3607  0.0171 -1.8009
 2408SOL    MW4 9680   0.667   0.249   4.548 -0.1604 -0.1905 -0.0668
 2409SOL     OW 9681   2.768   4.577   4.147  0.0624  0.0869  0.0037
 2409SOL    HW2 9682   2.815   4.599   4.066 -0.0844 -0.2118 -0.1636
 2409SOL    HW3 9683   2.677   4.599   4.128 -0.1135 -0.8283 -0.2268
 2409SOL    MW4 9684   2.762   4.583   4.134  0.0196 -0.0734 -0.0491
 2410SOL     OW 9685   2.723   0.932   3.831  0.9279 -0.5944 -0.2591
 2410SOL    HW2 9686   2.647   0.890   3.871 -0.6512  2.6452  0.2904
 2410SOL    HW3 9687   2.704   0.932   3.737 -0.1191  0.9088 -0.0493
 2410SOL    MW4 9688   2.711   0.926   3.823  0.5810  0.0314 -0.1590
 2411SOL     OW 9689   0.782   0.763   4.321  0.1123 -0.3841 -0.0235
 2411SOL    HW2 9690   0.836   0.683   4.321  2.0897  0.9137 -0.9250
 2411SOL    HW3 9691   0.714   0.746   4.256  0.5300 -1.3257 -0.2259
 2411SOL    MW4 9692   0.780   0.750   4.312  0.4284 -0.3371 -0.1698
 2412SOL     OW 9693   3.673   1.103   4.327  0.6374  0.0516  0.0884
 2412SOL    HW2 9694   3.738   1.174   4.322 -0.8837  1.3501 -2.0449
 2412SOL    HW3 9695   3.607   1.126   4.262 -1.5979 -1.6513  1.6722
 2412SOL    MW4 9696   3.673   1.115   4.318  0.1419 -0.0018  0.0167
 2413SOL     OW 9697   3.800   2.010   4.490  0.0218  0.0638 -0.3474
 2413SOL    HW2 9698   3.875   2.042   4.541  0.5030 -0.7669 -0.5114
 2413SOL    HW3 9699   3.813   2.046   4.403  0.5982 -0.6119 -0.5490
 2413SOL    MW4 9700   3.812   2.019   4.485  0.1612 -0.1352 -0.3958
 2414SOL     OW 9701   0.198   3.356   4.482 -0.3811 -0.1710 -0.1466
 2414SOL    HW2 9702   0.139   3.281   4.486  0.0909 -0.5938 -0.8591
 2414SOL    HW3 9703   0.218   3.365   4.388 -0.5336  0.9127 -0.0727
 2414SOL    MW4 9704   0.193   3.347   4.470 -0.3389 -0.0839 -0.2308
 2415SOL     OW 9705   4.226   4.612   4.705  0.1004 -0.3051 -0.0207
 2415SOL    HW2 9706   4.144   4.562   4.705  0.1839 -0.4443  0.0860
 2415SOL    HW3 9707   4.208   4.689   4.652 -0.2541 -0.0796  0.4240
 2415SOL    MW4 9708   4.213   4.615   4.698  0.0648 -0.2937  0.0520
 2416SOL     OW 9709   2.048   3.628   4.501  0.3742  0.1938  0.3689
 2416SOL    HW2 9710   2.106   3.668   4.566 -0.0561 -0.1417  0.9699
 2416SOL    HW3 9711   1.983   3.581   4.553 -0.0453  0.0147 -0.3083
 2416SOL    MW4 9712   2.047   3.627   4.516  0.2620  0.1256  0.3586
 2417SOL     OW 9713   3.316   3.191   4.238  0.4370  0.1356  0.0120
 2417SOL    HW2 9714   3.339   3.163   4.149 -0.5972 -0.9870  0.0980
 2417SOL    HW3 9715   3.277   3.277   4.226  0.1513 -0.0793 -0.6458
 2417SOL    MW4 9716   3.314   3.199   4.225  0.2627 -0.0408 -0.0629
 2418SOL     OW 9717   1.549   2.853   3.800  0.1587 -0.4791  0.3257
 2418SOL    HW2 9718   1.613   2.789   3.830  0.0131 -2.0240 -2.5013
 2418SOL    HW3 9719   1.571   2.867   3.708 -1.1041  2.0107  0.3614
 2418SOL    MW4 9720   1.561   2.847   3.792 -0.0271 -0.3543 -0.0424
 2419SOL     OW 9721   4.058   3.239   3.862  0.4268 -0.4382  0.1975
 2419SOL    HW2 9722   3.989   3.188   3.903  1.1419 -0.6250  1.1924
 2419SOL    HW3 9723   4.138   3.189   3.879  1.1343  1.0361  1.2176
 2419SOL    MW4 9724   4.060   3.226   3.869  0.6146 -0.2682  0.4635
 2420SOL     OW 9725   1.233   0.584   3.805 -0.0846 -0.0368 -0.0553
 2420SOL    HW2 9726   1.278   0.667   3.792 -1.0202  0.4007 -0.5746
 2420SOL    HW3 9727   1.162   0.603   3.866  0.2667 -0.6587  0.5523
 2420SOL    MW4 9728   1.230   0.597   3.811 -0.1616 -0.0611 -0.0436
 2421SOL     OW 9729   2.677   3.701   4.212 -0.4874 -0.2362 -0.2019
 2421SOL    HW2 9730   2.706   3.610   4.222 -2.0173 -0.7426 -0.2306
 2421SOL    HW3 9731   2.585   3.694   4.186 -1.1447  1.3242  1.5534
 2421SOL    MW4 9732   2.669   3.688   4.210 -0.7761 -0.0973  0.0257
 2422SOL     OW 9733   4.296   3.111   3.911 -0.0037  0.1914 -0.2214
 2422SOL    HW2 9734   4.380   3.150   3.888 -0.1779  0.6247 -0.1399
 2422SOL    HW3 9735   4.283   3.136   4.003 -0.0915 -0.1053 -0.1528
 2422SOL    MW4 9736   4.305   3.119   3.920 -0.0381  0.2096 -0.2015
 2423SOL     OW 9737   4.219   0.820   4.741 -0.2562  0.4518 -0.0767
 2423SOL    HW2 9738   4.142   0.792   4.789 -0.6863  1.9701  0.1515
 2423SOL    HW3 9739   4.230   0.754   4.672 -1.2652 -0.2092  0.3838
 2423SOL    MW4 9740   4.211   0.808   4.738 -0.4458  0.5649  0.0138
 2424SOL     OW 9741   0.633   4.597   4.316  0.2182  0.3585  0.5676
 2424SOL    HW2 9742   0.691   4.629   4.246  0.3970  1.3430  1.1458
 2424SOL    HW3 9743   0.684   4.609   4.396 -0.0276 -0.6665  0.8723
 2424SOL    MW4 9744   0.647   4.603   4.317  0.2094  0.3538  0.6838
 2425SOL     OW 9745   1.377   4.240   4.688  0.3969 -0.6159 -0.4288
 2425SOL    HW2 9746   1.313   4.177   4.656  0.8941 -1.6559  0.6019
 2425SOL    HW3 9747   1.355   4.253   4.780  0.0782  0.9955 -0.7155
 2425SOL    MW4 9748   1.366   4.233   4.696  0.4207 -0.5403 -0.3304
 2426SOL     OW 9749   0.397   0.197   4.634 -0.2798 -0.4537  0.1783
 2426SOL    HW2 9750   0.367   0.126   4.691  0.3310 -0.9045 -0.0505
 2426SOL    HW3 9751   0.489   0.208   4.656 -0.2920  0.0525 -0.0148
 2426SOL    MW4 9752   0.405   0.189   4.644 -0.2008 -0.4463  0.1225
 2427SOL     OW 9753   3.611   4.208   3.923  0.0068 -0.5361  0.3851
 2427SOL    HW2 9754   3.597   4.131   3.868 -2.6957  0.4699 -0.4240
 2427SOL    HW3 9755   3.691   4.248   3.888 -0.7550 -0.8241 -1.7735
 2427SOL    MW4 9756   3.620   4.203   3.911 -0.4504 -0.4416 -0.0064
 2428SOL     OW 9757   3.601   3.256   3.884 -0.4003 -0.6143 -0.0654
 2428SOL    HW2 9758   3.604   3.250   3.789 -0.8293  0.5863 -0.1600
 2428SOL    HW3 9759   3.595   3.350   3.902  0.7785 -0.7527  1.1750
 2428SOL    MW4 9760   3.601   3.268   3.874 -0.3016 -0.4740  0.0858
 2429SOL     OW 9761   1.613   3.768   4.631  0.3145  0.0584 -0.2787
 2429SOL    HW2 9762   1.629   3.678   4.603 -0.8684 -0.0676 -0.5494
 2429SOL    HW3 9763   1.602   3.817   4.549  1.1932  0.5025 -0.1414
 2429SOL    MW4 9764   1.614   3.763   4.616  0.2744  0.1004 -0.2966
 2430SOL     OW 9765   0.701   4.240   4.519  0.5384  0.2626 -0.2549
 2430SOL    HW2 9766   0.766   4.310   4.512 -0.1496  1.1260  1.5314
 2430SOL    HW3 9767   0.673   4.224   4.429  0.5755  2.4336 -0.7001
 2430SOL    MW4 9768   0.705   4.247   4.506  0.4525  0.6628 -0.0777
 2431SOL     OW 9769   1.210   0.697   4.181  0.3626  0.1137  0.1004
 2431SOL    HW2 9770   1.269   0.766   4.210  2.8138 -1.5674 -0.7732
 2431SOL    HW3 9771   1.157   0.677   4.258  1.3548  1.1922  1.0839
 2431SOL    MW4 9772   1.210   0.704   4.195  0.8169  0.0342  0.1149
 2432SOL     OW 9773   4.068   2.354   4.536 -0.0614  0.0057  0.0867
 2432SOL    HW2 9774   4.064   2.276   4.591  0.4806  0.2829  0.5253
 2432SOL    HW3 9775   3.998   2.410   4.568  0.2111  0.1376  0.4593
 2432SOL    MW4 9776   4.059   2.351   4.547  0.0467  0.0598  0.1936
 2433SOL     OW 9777   2.412   1.163   4.618  0.4699  0.0398 -0.5021
 2433SOL    HW2 9778   2.410   1.231   4.685  1.1065 -0.8210  0.4005
 2433SOL    HW3 9779   2.504   1.157   4.593  0.2350  0.3770 -1.4988
 2433SOL    MW4 9780   2.424   1.171   4.624  0.5229 -0.0293 -0.5145
 2434SOL     OW 9781   1.388   0.489   4.210  0.1347  0.7708 -0.5781
 2434SOL    HW2 9782   1.378   0.450   4.124 -0.1215 -0.4144 -0.0290
 2434SOL    HW3 9783   1.332   0.566   4.209 -1.2931 -0.2587 -0.8738
 2434SOL    MW4 9784   1.379   0.494   4.199 -0.0876  0.4785 -0.5450
 2435SOL     OW 9785   1.885   1.893   4.822  0.3196 -0.5717 -0.8701
 2435SOL    HW2 9786   1.900   1.816   4.766  1.9223 -0.7308 -0.2714
 2435SOL    HW3 9787   1.920   1.966   4.771  0.7869 -0.5633 -0.5460
 2435SOL    MW4 9788   1.892   1.892   4.808  0.5929 -0.5916 -0.7491
 2436SOL     OW 9789   0.466   4.114   4.621 -0.5577  0.1173 -0.4180
 2436SOL    HW2 9790   0.541   4.171   4.603  0.8656 -0.9409  1.9483
 2436SOL    HW3 9791   0.393   4.175   4.631  0.2725  1.2871 -1.2765
 2436SOL    MW4 9792   0.466   4.130   4.620 -0.2604  0.1321 -0.2189
 2437SOL     OW 9793   0.473   1.418   4.613 -0.1009 -0.4374  0.5728
 2437SOL    HW2 9794   0.503   1.398   4.524 -0.3291 -0.7518  0.5653
 2437SOL    HW3 9795   0.488   1.338   4.662  0.1527 -0.2185  0.8541
 2437SOL    MW4 9796   0.479   1.405   4.608 -0.0975 -0.4500  0.6094
 2438SOL     OW 9797   0.110   2.079   3.793 -0.1980 -0.4573 -0.5777
 2438SOL    HW2 9798   0.187   2.023   3.806 -0.5211 -0.7803 -0.0354
 2438SOL    HW3 9799   0.054   2.060   3.868 -0.9752 -0.4922 -1.1629
 2438SOL    MW4 9800   0.113   2.069   3.805 -0.3432 -0.5045 -0.5832
 2439SOL     OW 9801   4.052   4.207   3.904 -0.0247 -0.1634  0.1409
 2439SOL    HW2 9802   4.063   4.136   3.840  0.1477 -0.9817  1.0621
 2439SOL    HW3 9803   4.132   4.260   3.895  0.3989 -0.7711  0.2821
 2439SOL    MW4 9804   4.064   4.204   3.894  0.0539 -0.3514  0.2811
 2440SOL     OW 9805   1.602   4.612   4.556  0.0760  0.1127 -0.3088
 2440SOL    HW2 9806   1.672   4.670   4.586  0.8536 -0.2118 -1.4649
 2440SOL    HW3 9807   1.630   4.524   4.584 -0.4318  0.1194  0.2325
 2440SOL    MW4 9808   1.615   4.608   4.564  0.1116  0.0710 -0.3896
 2441SOL     OW 9809   3.148   2.177   4.718  0.6084 -0.7955  0.2747
 2441SOL    HW2 9810   3.151   2.082   4.709  1.0296 -0.8570  1.0187
 2441SOL    HW3 9811   3.055   2.199   4.707  0.4755 -1.3185  0.3346
 2441SOL    MW4 9812   3.136   2.168   4.715  0.6468 -0.8729  0.3805
 2442SOL     OW 9813   0.908   2.508   4.211 -0.5646  0.2085  0.3740
 2442SOL    HW2 9814   0.914   2.487   4.304 -0.0838  0.0263  0.3020
 2442SOL    HW3 9815   0.973   2.451   4.169 -0.6744  0.3965 -0.0545
 2442SOL    MW4 9816   0.917   2.498   4.217 -0.5156  0.2091  0.3076
 2443SOL     OW 9817   0.608   2.034   4.425  0.0860  0.1531  0.1344
 2443SOL    HW2 9818   0.638   2.018   4.336  0.8430  3.1000 -0.2102
 2443SOL    HW3 9819   0.626   1.953   4.472  3.7038  0.0134 -1.3633
 2443SOL    MW4 9820   0.614   2.022   4.419  0.6632  0.5233 -0.1087
 2444SOL     OW 9821   0.667   2.749   4.280  0.1701  0.6064 -0.1747
 2444SOL    HW2 9822   0.597   2.739   4.215 -0.5112  1.1958  0.4506
 2444SOL    HW3 9823   0.748   2.749   4.230 -0.4039  2.1494 -1.1503
 2444SOL    MW4 9824   0.668   2.748   4.265  0.0045  0.8879 -0.2213
 2445SOL     OW 9825   2.107   3.945   4.628  0.2449 -0.1288 -0.4370
 2445SOL    HW2 9826   2.020   3.948   4.667 -0.1229  0.2341 -1.2848
 2445SOL    HW3 9827   2.156   3.884   4.683 -0.4073  0.0316  0.3173
 2445SOL    MW4 9828   2.102   3.937   4.640  0.1104 -0.0596 -0.4492
 2446SOL     OW 9829   0.472   3.260   3.773  0.1835  0.3606 -0.2505
 2446SOL    HW2 9830   0.460   3.332   3.835  0.3043  1.9115 -1.9880
 2446SOL    HW3 9831   0.555   3.220   3.798 -0.1643  0.4490  1.0892
 2446SOL    MW4 9832   0.481   3.264   3.784  0.1535  0.5770 -0.3028
 2447SOL     OW 9833   3.815   1.141   4.894  0.1027 -0.2804  0.3426
 2447SOL    HW2 9834   3.846   1.073   4.834 -0.2741  0.4337 -0.6748
 2447SOL    HW3 9835   3.846   1.113   4.980  0.3939 -1.4712 -0.1402
 2447SOL    MW4 9836   3.823   1.128   4.897  0.0916 -0.3432  0.1454
 2448SOL     OW 9837   0.167   1.314   4.363 -0.1111 -0.2311  0.0738
 2448SOL    HW2 9838   0.090   1.272   4.326 -0.0225  0.0446 -0.4432
 2448SOL    HW3 9839   0.185   1.387   4.302 -0.9975  1.3154  1.6212
 2448SOL    MW4 9840   0.160   1.318   4.350 -0.2163  0.0092  0.2098
 2449SOL     OW 9841   0.350   1.790   4.279 -0.2846  0.3364  0.1474
 2449SOL    HW2 9842   0.358   1.866   4.221 -0.2509  0.0361 -0.2401
 2449SOL    HW3 9843   0.308   1.825   4.358  0.4759  0.9371  0.3011
 2449SOL    MW4 9844   0.346   1.805   4.282 -0.1798  0.3760  0.1163
 2450SOL     OW 9845   0.890   2.471   3.760 -0.2244 -0.6916  0.1977
 2450SOL    HW2 9846   0.961   2.430   3.810  1.1308  0.8881 -0.3887
 2450SOL    HW3 9847   0.878   2.557   3.801 -0.8903 -0.4237 -0.5463
 2450SOL    MW4 9848   0.897   2.477   3.772 -0.1335 -0.4480  0.0222
 2451SOL     OW 9849   3.654   2.361   4.685  0.5761 -0.0057  0.4690
 2451SOL    HW2 9850   3.568   2.403   4.691  0.1978 -0.6601 -0.2583
 2451SOL    HW3 9851   3.716   2.432   4.698 -0.0776  0.4111  1.3880
 2451SOL    MW4 9852   3.651   2.376   4.687  0.4401 -0.0372  0.4950
 2452SOL     OW 9853   2.935   0.362   4.429 -0.0024  0.2274 -0.0734
 2452SOL    HW2 9854   2.965   0.417   4.501  0.7475 -0.6033  0.2561
 2452SOL    HW3 9855   3.004   0.371   4.362 -0.2059  0.2111 -0.2850
 2452SOL    MW4 9856   2.948   0.371   4.430  0.0699  0.1157 -0.0572
 2453SOL     OW 9857   2.081   4.356   4.542 -0.2008 -0.2525  0.3034
 2453SOL    HW2 9858   2.006   4.330   4.596 -0.2435 -0.7430  0.0024
 2453SOL    HW3 9859   2.147   4.289   4.558 -0.1892 -0.3638 -0.2076
 2453SOL    MW4 9860   2.080   4.344   4.551 -0.2048 -0.3319  0.1965
 2454SOL     OW 9861   3.998   4.119   4.167 -0.0875 -0.5774  0.1082
 2454SOL    HW2 9862   4.021   4.128   4.074  2.1206 -2.1546  0.4514
 2454SOL    HW3 9863   3.968   4.206   4.193  1.0935  0.3728 -1.6109
 2454SOL    MW4 9864   3.997   4.132   4.158  0.3595 -0.6599 -0.0730
 2455SOL     OW 9865   0.336   3.973   4.412 -0.7002 -0.4139  0.0484
 2455SOL    HW2 9866   0.274   3.929   4.471 -1.9321 -0.3149 -1.1383
 2455SOL    HW3 9867   0.386   4.031   4.469 -0.1622 -2.1380  1.3731
 2455SOL    MW4 9868   0.334   3.975   4.427 -0.7918 -0.6285  0.0663
 2456SOL     OW 9869   2.322   0.115   4.479 -0.0289 -0.1239  0.4554
 2456SOL    HW2 9870   2.289   0.199   4.447 -2.0857 -0.8267  0.6604
 2456SOL    HW3 9871   2.381   0.138   4.551  0.1082  1.1649 -0.0503
 2456SOL    MW4 9872   2.326   0.129   4.484 -0.2820 -0.0466  0.4153
 2457SOL     OW 9873   0.925   4.029   3.784 -0.0857 -0.0453  0.4990
 2457SOL    HW2 9874   0.874   3.959   3.825  0.1730 -0.5629 -0.0552
 2457SOL    HW3 9875   0.892   4.033   3.694 -0.0361  0.4830  0.5019
 2457SOL    MW4 9876   0.914   4.021   3.778 -0.0451 -0.0439  0.4261
 2458SOL     OW 9877   1.202   3.308   4.755  0.1325  0.0010 -0.0823
 2458SOL    HW2 9878   1.261   3.266   4.818  1.1036  0.4736 -0.6692
 2458SOL    HW3 9879   1.122   3.325   4.805  0.8817  0.3353  1.0323
 2458SOL    MW4 9880   1.199   3.305   4.770  0.3593  0.1075 -0.0124
 2459SOL     OW 9881   4.259   1.470   4.846 -0.6846 -0.3145 -0.0673
 2459SOL    HW2 9882   4.269   1.550   4.793 -0.1738 -0.6758 -0.5159
 2459SOL    HW3 9883   4.165   1.453   4.844 -0.6663 -0.3692 -0.9294
 2459SOL    MW4 9884   4.248   1.479   4.838 -0.6146 -0.3694 -0.2403
 2460SOL     OW 9885   1.822   1.076   4.322 -0.1171  0.1370  0.4221
 2460SOL    HW2 9886   1.882   1.150   4.320 -0.8836  0.7682  0.3075
 2460SOL    HW3 9887   1.800   1.065   4.415  0.1955 -0.1079  0.4662
 2460SOL    MW4 9888   1.827   1.084   4.334 -0.1769  0.1880  0.4129
 2461SOL     OW 9889   3.544   0.067   4.281 -0.5930 -0.1571 -0.0403
 2461SOL    HW2 9890   3.515  -0.020   4.308  0.0812 -0.2853  0.2911
 2461SOL    HW3 9891   3.486   0.127   4.327 -1.0103 -0.4327 -0.2058
 2461SOL    MW4 9892   3.533   0.063   4.291 -0.5591 -0.2104 -0.0186
 2462SOL     OW 9893   0.325   2.652   4.656 -0.1069  0.4842 -0.5515
 2462SOL    HW2 9894   0.415   2.625   4.639 -0.2590 -0.0741 -0.4729
 2462SOL    HW3 9895   0.322   2.743   4.627  0.0966  0.0750 -1.8655
 2462SOL    MW4 9896   0.337   2.660   4.650 -0.1001  0.3567 -0.7143
 2463SOL     OW 9897   2.115   1.728   4.283 -0.0992  0.3862  0.1035
 2463SOL    HW2 9898   2.182   1.679   4.330  0.1012  0.6197  0.0630
 2463SOL    HW3 9899   2.073   1.782   4.351 -1.2375 -0.8431  0.3979
 2463SOL    MW4 9900   2.118   1.729   4.299 -0.2232  0.2546  0.1369
 2464SOL     OW 9901   0.262   3.616   3.785 -0.1170  0.0405 -0.3656
 2464SOL    HW2 9902   0.264   3.706   3.818  1.2693  0.7027 -2.1635
 2464SOL    HW3 9903   0.336   3.573   3.828 -1.0916 -0.4168  0.8956
 2464SOL    MW4 9904   0.272   3.623   3.795 -0.0627  0.0675 -0.4363
 2465SOL     OW 9905   0.546   0.712   4.181  0.2953  0.1161 -0.1236
 2465SOL    HW2 9906   0.594   0.730   4.100 -0.5503  1.1931 -0.3926
 2465SOL    HW3 9907   0.532   0.617   4.179  2.1975 -0.1971 -0.1420
 2465SOL    MW4 9908   0.551   0.702   4.170  0.4348  0.2169 -0.1612
 2466SOL     OW 9909   1.108   2.056   4.213  0.3229 -0.3004  0.5982
 2466SOL    HW2 9910   1.115   2.078   4.306  2.2038  1.0353  0.1781
 2466SOL    HW3 9911   1.105   2.140   4.168  1.3027 -0.9061 -0.6609
 2466SOL    MW4 9912   1.109   2.070   4.219  0.7004 -0.2038  0.3762
 2467SOL     OW 9913   3.837   3.958   4.318 -0.0417  0.0354  0.3122
 2467SOL    HW2 9914   3.895   4.006   4.259  0.7391 -0.7558  0.4269
 2467SOL    HW3 9915   3.854   3.994   4.405  0.2304 -0.1436  0.3350
 2467SOL    MW4 9916   3.847   3.969   4.321  0.0973 -0.0925  0.3300
 2468SOL     OW 9917   1.941   1.680   4.658 -0.0699 -0.3990 -0.0683
 2468SOL    HW2 9918   1.948   1.738   4.582  1.0177  0.0858  0.3874
 2468SOL    HW3 9919   1.989   1.601   4.633  0.3825 -0.1960  0.1419
 2468SOL    MW4 9920   1.948   1.677   4.645  0.1333 -0.3084  0.0196
 2469SOL     OW 9921   1.578   3.578   3.788  0.5679  0.1473  0.2939
 2469SOL    HW2 9922   1.659   3.534   3.813  2.0005  2.5463 -0.0058
 2469SOL    HW3 9923   1.512   3.542   3.848  1.7091 -2.1865  0.2261
 2469SOL    MW4 9924   1.580   3.567   3.799  0.9075  0.1557  0.2453
 2470SOL     OW 9925   0.220   4.381   4.324  0.2743 -0.4800 -0.2478
 2470SOL    HW2 9926   0.235   4.364   4.416 -0.4168 -1.7129 -0.3641
 2470SOL    HW3 9927   0.300   4.350   4.280  0.2348 -0.7103 -0.1556
 2470SOL    MW4 9928   0.232   4.375   4.330  0.1779 -0.6728 -0.2508
 2471SOL     OW 9929   1.541   2.976   4.429  0.0582  0.0379  0.5702
 2471SOL    HW2 9930   1.534   2.903   4.489 -0.7316  0.8368  1.4680
 2471SOL    HW3 9931   1.559   2.936   4.344 -0.6822 -1.2099  0.9933
 2471SOL    MW4 9932   1.543   2.961   4.425 -0.1436 -0.0212  0.7443
 2472SOL     OW 9933   2.324   3.590   3.970  0.2300 -0.3738  0.1741
 2472SOL    HW2 9934   2.339   3.560   4.060  0.2864 -0.9378 -0.0201
 2472SOL    HW3 9935   2.229   3.591   3.960  0.1977  0.5668  0.5301
 2472SOL    MW4 9936   2.314   3.586   3.980  0.2332 -0.3242  0.1957
 2473SOL     OW 9937   3.625   3.583   4.557 -0.0947 -0.2518  0.3597
 2473SOL    HW2 9938   3.649   3.557   4.468  0.2205  1.4621 -0.0591
 2473SOL    HW3 9939   3.708   3.607   4.598 -0.3170 -0.4323  0.9150
 2473SOL    MW4 9940   3.639   3.583   4.551 -0.0825 -0.0494  0.3777
 2474SOL     OW 9941   0.927   4.381   4.518 -0.1235  0.0687  0.3222
 2474SOL    HW2 9942   0.973   4.297   4.523 -1.8155 -0.8888  0.2160
 2474SOL    HW3 9943   0.946   4.413   4.430  2.2293  0.8062  1.0850
 2474SOL    MW4 9944   0.935   4.374   4.507 -0.0363  0.0396  0.4086
 2475SOL     OW 9945   1.839   0.324   3.961 -0.1311 -0.4010 -0.0016
 2475SOL    HW2 9946   1.916   0.379   3.949  0.1609 -0.4152  1.6304
 2475SOL    HW3 9947   1.767   0.374   3.923  0.4111  0.3391 -0.0568
 2475SOL    MW4 9948   1.840   0.338   3.954 -0.0210 -0.3052  0.2067
 2476SOL     OW 9949   4.397   3.634   4.319  0.1960 -0.0140 -0.0308
 2476SOL    HW2 9950   4.476   3.635   4.374  1.2479  0.0756 -1.5197
 2476SOL    HW3 9951   4.402   3.550   4.273 -0.3103  0.2333 -0.5329
 2476SOL    MW4 9952   4.408   3.623   4.320  0.2680  0.0305 -0.2933
 2477SOL     OW 9953   2.692   1.648   3.819 -0.1815 -0.2994 -0.1448
 2477SOL    HW2 9954   2.719   1.722   3.874 -0.1294 -0.7963  0.4964
 2477SOL    HW3 9955   2.690   1.684   3.730  0.0376  0.4227  0.1403
 2477SOL    MW4 9956   2.695   1.663   3.814 -0.1462 -0.2697 -0.0226
 2478SOL     OW 9957   3.500   1.688   4.507 -0.2438 -0.0285  0.7461
 2478SOL    HW2 9958   3.463   1.601   4.497  0.4699 -0.2051 -0.4830
 2478SOL    HW3 9959   3.464   1.738   4.434  2.1165 -0.2795 -0.6360
 2478SOL    MW4 9960   3.490   1.683   4.496  0.1619 -0.0849  0.4020
 2479SOL     OW 9961   3.897   3.648   4.661 -0.5081  0.5265  0.4020
 2479SOL    HW2 9962   3.928   3.675   4.574 -0.7581  1.0832  0.4825
 2479SOL    HW3 9963   3.912   3.725   4.716  0.3194 -0.0742  1.0223
 2479SOL    MW4 9964   3.903   3.662   4.656 -0.4320  0.5207  0.4950
 2480SOL     OW 9965   1.854   0.134   4.183  0.0046  1.1245  0.5824
 2480SOL    HW2 9966   1.768   0.149   4.223 -0.0071 -0.0975  1.0388
 2480SOL    HW3 9967   1.853   0.187   4.104 -1.6334  0.2296 -0.0331
 2480SOL    MW4 9968   1.842   0.143   4.178 -0.2130  0.8452  0.5617
 2481SOL     OW 9969   2.440   4.134   4.315 -0.0836 -0.5029  0.3513
 2481SOL    HW2 9970   2.400   4.197   4.256  0.9872 -0.2304 -0.0988
 2481SOL    HW3 9971   2.386   4.138   4.394 -1.6161 -0.9718 -0.6338
 2481SOL    MW4 9972   2.427   4.143   4.318 -0.1445 -0.5288  0.1621
 2482SOL     OW 9973   3.081   4.658   4.360 -0.1387  0.0010 -0.0878
 2482SOL    HW2 9974   3.054   4.724   4.296 -0.0009 -0.5429 -0.7108
 2482SOL    HW3 9975   3.138   4.599   4.312  0.0721 -0.3426  0.5724
 2482SOL    MW4 9976   3.085   4.658   4.346 -0.0927 -0.1162 -0.0830
 2483SOL     OW 9977   3.486   4.063   4.384 -0.0298 -0.0685 -0.5128
 2483SOL    HW2 9978   3.395   4.091   4.391  0.2745  1.1742 -1.4006
 2483SOL    HW3 9979   3.504   4.016   4.465 -1.1353  0.6242  0.1331
 2483SOL    MW4 9980   3.476   4.060   4.396 -0.1354  0.1869 -0.5445
 2484SOL     OW 9981   2.073   0.000   4.443  0.0893 -0.0642  0.3052
 2484SOL    HW2 9982   2.087  -0.081   4.491  1.3631 -0.3778 -0.5825
 2484SOL    HW3 9983   2.161   0.037   4.430 -0.4905  1.6611  1.0502
 2484SOL    MW4 9984   2.086  -0.006   4.447  0.1810  0.1221  0.2861
 2485SOL     OW 9985   3.246   1.213   4.367  0.2631  0.1876  0.9402
 2485SOL    HW2 9986   3.285   1.189   4.283  0.2360  0.7261  0.7765
 2485SOL    HW3 9987   3.167   1.262   4.344  0.9717  1.5024  1.2869
 2485SOL    MW4 9988   3.241   1.216   4.353  0.3529  0.4321  0.9646
 2486SOL     OW 9989   0.492   1.125   4.733  0.2360  0.3654 -0.3069
 2486SOL    HW2 9990   0.500   1.092   4.823  1.9124 -2.1209 -1.3525
 2486SOL    HW3 9991   0.438   1.060   4.688  0.6852  0.8092 -1.5009
 2486SOL    MW4 9992   0.486   1.112   4.739  0.5164  0.0960 -0.6022
 2487SOL     OW 9993   0.884   1.916   4.182  0.2505  0.2035  0.3963
 2487SOL    HW2 9994   0.967   1.962   4.194  0.5724 -0.6693  1.5496
 2487SOL    HW3 9995   0.876   1.906   4.087  0.6610  1.7403  0.1790
 2487SOL    MW4 9996   0.894   1.921   4.171  0.3471  0.2912  0.5198
 2488SOL     OW 9997   3.288   1.248   3.796  0.0424  0.3910  0.2118
 2488SOL    HW2 9998   3.312   1.258   3.704 -1.4881  0.9430 -0.1450
 2488SOL    HW3 9999   3.194   1.231   3.795  0.3549 -1.6780  1.5535
 2488SOL    MW410000   3.279   1.247   3.784 -0.1183  0.1909  0.3419
 2489SOL     OW10001   2.984   0.458   3.808  0.3771 -0.0144  0.1445
 2489SOL    HW210002   2.895   0.430   3.827 -0.0622  0.1659 -1.5490
 2489SOL    HW310003   2.990   0.546   3.845 -0.5529  0.4579 -0.8131
 2489SOL    MW410004   2.973   0.466   3.816  0.1965  0.0717 -0.2053
 2490SOL     OW10005   0.642   4.150   4.257 -0.1522 -0.0699  0.1390
 2490SOL    HW210006   0.612   4.060   4.270 -0.2573  0.1309  1.3460
 2490SOL    HW310007   0.714   4.143   4.195 -0.6432 -0.9018 -0.3445
 2490SOL    MW410008   0.647   4.137   4.250 -0.2309 -0.1526  0.2346
 2491SOL     OW10009   2.279   4.007   3.800 -0.1062  0.4082  0.6421
 2491SOL    HW210010   2.194   3.962   3.804  0.6305 -1.0220  0.4033
 2491SOL    HW310011   2.334   3.961   3.863  0.8182  0.6240  0.0074
 2491SOL    MW410012   2.275   3.995   3.809  0.1128  0.2477  0.5269
 2492SOL     OW10013   0.757   0.048   4.100  0.1252  0.2099  0.2087
 2492SOL    HW210014   0.732   0.043   4.008  0.0925  0.2080  0.2177
 2492SOL    HW310015   0.848   0.018   4.101 -0.0502 -0.3407  0.2519
 2492SOL    MW410016   0.766   0.043   4.088  0.0978  0.1370  0.2160
 2493SOL     OW10017   3.241   0.681   4.314 -0.3764 -0.2419  0.5283
 2493SOL    HW210018   3.251   0.586   4.305  1.4059  0.0759 -1.4162
 2493SOL    HW310019   3.264   0.699   4.405 -0.7834 -1.6752  0.9254
 2493SOL    MW410020   3.246   0.671   4.325 -0.1948 -0.3890  0.3242
 2494SOL     OW10021   1.796   2.473   4.714  0.1028 -0.3168  0.1042
 2494SOL    HW210022   1.775   2.529   4.639  2.2414  0.6349  0.1803
 2494SOL    HW310023   1.892   2.473   4.717  0.0512 -1.3210  2.1080
 2494SOL    MW410024   1.806   2.481   4.705  0.3781 -0.3235  0.3791
 2495SOL     OW10025   1.071   3.147   4.545 -0.2768 -0.2235 -0.2547
 2495SOL    HW210026   0.995   3.205   4.547 -0.2394 -0.1590 -0.6688
 2495SOL    HW310027   1.136   3.190   4.600 -0.9195 -0.8139  1.0174
 2495SOL    MW410028   1.069   3.160   4.553 -0.3568 -0.2928 -0.1411
 2496SOL     OW10029   0.938   4.077   4.567 -0.3221  0.1443  0.2384
 2496SOL    HW210030   0.931   3.981   4.567  0.3398  0.0501  2.6698
 2496SOL    HW310031   0.848   4.107   4.555 -0.6559 -0.7989  0.3154
 2496SOL    MW410032   0.925   4.068   4.566 -0.2788  0.0072  0.5693
 2497SOL     OW10033   3.042   0.869   4.258  0.2083 -0.2413 -0.8178
 2497SOL    HW210034   3.085   0.917   4.186  1.0991  1.0900  0.5626
 2497SOL    HW310035   3.105   0.802   4.283  0.6153  0.3673 -0.1861
 2497SOL    MW410036   3.056   0.867   4.252  0.3798  0.0146 -0.5522
 2498SOL     OW10037   1.505   1.725   4.891 -0.2714  0.2492  0.2071
 2498SOL    HW210038   1.454   1.717   4.971 -0.3860  0.9617  0.2100
 2498SOL    HW310039   1.549   1.809   4.899  2.4253 -1.1876  1.0733
 2498SOL    MW410040   1.504   1.735   4.902  0.0693  0.1537  0.3219
 2499SOL     OW10041   0.213   4.422   3.831 -0.2313 -0.2834 -0.1083
 2499SOL    HW210042   0.295   4.385   3.865 -0.5450 -0.0832  0.8705
 2499SOL    HW310043   0.200   4.503   3.881  0.0689  0.8061 -1.7280
 2499SOL    MW410044   0.222   4.428   3.842 -0.2331 -0.1130 -0.1931
 2500SOL     OW10045   3.343   4.544   4.744  0.1987  0.4077 -0.3761
 2500SOL    HW210046   3.396   4.480   4.697 -1.4381 -0.8940 -0.5083
 2500SOL    HW310047   3.267   4.495   4.774  0.3977  1.6078  2.2047
 2500SOL    MW410048   3.340   4.529   4.742  0.0091  0.3943 -0.0529
 2501SOL     OW10049   1.681   1.682   4.214  0.0566 -0.2755  0.0347
 2501SOL    HW210050   1.620   1.653   4.146 -1.7064 -0.0536  1.5004
 2501SOL    HW310051   1.654   1.635   4.292  0.5987  1.2442  1.1475
 2501SOL    MW410052   1.669   1.672   4.215 -0.1044 -0.0458  0.3748
 2502SOL     OW10053   0.368   1.995   4.102 -0.0034 -0.1500  0.1599
 2502SOL    HW210054   0.315   2.075   4.107 -1.5452 -1.2111  1.4292
 2502SOL    HW310055   0.458   2.026   4.105 -0.5570  1.6020 -0.3599
 2502SOL    MW410056   0.373   2.010   4.103 -0.2799 -0.0589  0.2584
 2503SOL     OW10057   4.253   2.275   4.121 -0.1894  0.1096 -0.0009
 2503SOL    HW210058   4.331   2.222   4.140 -0.6885 -1.4834 -2.1272
 2503SOL    HW310059   4.182   2.211   4.115 -0.9179  1.0676 -2.1000
 2503SOL    MW410060   4.254   2.259   4.122 -0.3514  0.0260 -0.5584
 2504SOL     OW10061   3.662   3.510   4.289 -0.5834 -0.4201 -0.2070
 2504SOL    HW210062   3.683   3.594   4.248  1.3767 -0.8337 -0.1209
 2504SOL    HW310063   3.598   3.470   4.231  0.0851  0.2126 -1.4007
 2504SOL    MW410064   3.656   3.516   4.276 -0.2363 -0.3912 -0.3533
 2505SOL     OW10065   1.365   0.134   3.803  0.2408  0.3124  0.3981
 2505SOL    HW210066   1.295   0.084   3.845  0.0376  0.4633  0.2385
 2505SOL    HW310067   1.445   0.107   3.849 -0.1018  1.1791  1.5143
 2505SOL    MW410068   1.367   0.124   3.814  0.1689  0.4467  0.5243
 2506SOL     OW10069   4.301   3.210   4.175  0.3880 -0.0614 -0.4845
 2506SOL    HW210070   4.328   3.130   4.221  0.4777  1.0393  1.4082
 2506SOL    HW310071   4.220   3.237   4.218  0.5318  1.0620 -0.8988
 2506SOL    MW410072   4.294   3.203   4.187  0.4182  0.2320 -0.2890
 2507SOL     OW10073   3.805   0.708   4.459 -0.1395 -0.1596 -0.1955
 2507SOL    HW210074   3.761   0.696   4.375  0.8243 -1.1864 -0.5705
 2507SOL    HW310075   3.766   0.787   4.496 -0.1983  0.6078 -1.8587
 2507SOL    MW410076   3.794   0.717   4.453 -0.0196 -0.1938 -0.4640
 2508SOL     OW10077   2.385   2.837   4.217 -0.3292  0.1100  0.3095
 2508SOL    HW210078   2.469   2.824   4.173 -0.5227 -1.2282  0.3356
 2508SOL    HW310079   2.330   2.765   4.186 -1.5403  1.1030  0.1188
 2508SOL    MW410080   2.389   2.826   4.207 -0.5145  0.0641  0.2875
 2509SOL     OW10081   2.691   2.791   4.899 -0.2357  0.0554 -0.5415
 2509SOL    HW210082   2.677   2.885   4.886 -0.3624 -0.2255 -2.4769
 2509SOL    HW310083   2.736   2.786   4.984  2.4391  2.0593 -1.7682
 2509SOL    MW410084   2.695   2.803   4.909  0.1006  0.2825 -0.9584
 2510SOL     OW10085   3.871   2.540   4.644  0.2618  0.5715  0.1248
 2510SOL    HW210086   3.833   2.603   4.583 -0.9121  0.5785  0.8372
 2510SOL    HW310087   3.915   2.594   4.710 -1.8187  0.7472  1.4412
 2510SOL    MW410088   3.872   2.555   4.645 -0.1676  0.5956  0.3929
 2511SOL     OW10089   2.825   1.636   4.519  0.2371  0.2881 -0.3063
 2511SOL    HW210090   2.836   1.541   4.515  0.8250  0.3287  0.1933
 2511SOL    HW310091   2.731   1.649   4.526  0.2401 -0.3038  0.8680
 2511SOL    MW410092   2.814   1.625   4.519  0.3150  0.2153 -0.0854
 2512SOL     OW10093   1.983   2.855   3.753  0.0433  0.2797 -0.1809
 2512SOL    HW210094   1.915   2.798   3.790 -0.1502  1.5159  1.4146
 2512SOL    HW310095   2.065   2.811   3.773 -0.2020 -0.3866 -0.6353
 2512SOL    MW410096   1.984   2.842   3.761 -0.0148  0.3548 -0.0303
 2513SOL     OW10097   3.829   3.115   3.967 -0.3211  0.5060 -0.2753
 2513SOL    HW210098   3.751   3.168   3.949 -0.8904  0.0658  0.7956
 2513SOL    HW310099   3.805   3.027   3.938 -0.1811  0.3989 -0.0667
 2513SOL    MW410100   3.815   3.110   3.961 -0.3779  0.4339 -0.1066
 2514SOL     OW10101   0.338   2.118   4.473 -0.2525  0.5265 -0.3538
 2514SOL    HW210102   0.429   2.088   4.464  0.1994  2.4687 -2.7308
 2514SOL    HW310103   0.289   2.038   4.493  1.4629 -1.2661 -2.8998
 2514SOL    MW410104   0.343   2.103   4.474  0.0334  0.5462 -1.0037
 2515SOL     OW10105   2.977   3.293   4.260  0.3343  0.2385 -0.3440
 2515SOL    HW210106   2.976   3.239   4.181 -0.0870  0.6895 -0.6434
 2515SOL    HW310107   3.046   3.358   4.244  0.3597  0.2295 -0.2706
 2515SOL    MW410108   2.986   3.294   4.248  0.2820  0.2968 -0.3743
 2516SOL     OW10109   2.285   3.101   4.211  0.3286  0.4723 -0.2417
 2516SOL    HW210110   2.334   3.020   4.204 -0.7208 -0.3614  1.6630
 2516SOL    HW310111   2.194   3.075   4.204  0.0158  1.5756 -0.3825
 2516SOL    MW410112   2.280   3.087   4.209  0.1488  0.5081 -0.0091
 2517SOL     OW10113   4.362   2.978   4.306 -0.0084  0.4285  0.1044
 2517SOL    HW210114   4.304   2.921   4.357 -0.7820  0.6567 -0.5049
 2517SOL    HW310115   4.412   2.917   4.251 -1.4914  0.3586 -1.2240
 2517SOL    MW410116   4.361   2.962   4.305 -0.3066  0.4497 -0.1516
 2518SOL     OW10117   1.432   1.349   4.418  0.1489  0.1539  0.5785
 2518SOL    HW210118   1.347   1.348   4.461 -0.3098  1.7486 -0.2604
 2518SOL    HW310119   1.462   1.440   4.425  1.1894 -0.1130 -0.2753
 2518SOL    MW410120   1.425   1.361   4.425  0.2257  0.3290  0.3552
 2519SOL     OW10121   1.927   3.153   4.547  0.0808  0.0713  0.1999
 2519SOL    HW210122   1.923   3.180   4.455  1.2577  2.4993  0.8383
 2519SOL    HW310123   2.018   3.129   4.561 -0.2791 -1.1546  0.5264
 2519SOL    MW410124   1.938   3.153   4.537  0.1887  0.2298  0.3276
 2520SOL     OW10125   3.751   3.000   4.635 -0.5673  0.0162  0.4317
 2520SOL    HW210126   3.694   3.076   4.647  0.1851  0.8434 -1.1326
 2520SOL    HW310127   3.702   2.943   4.577  0.1457  0.6815 -0.8329
 2520SOL    MW410128   3.737   3.002   4.629 -0.3736  0.2129  0.0582
 2521SOL     OW10129   1.751   2.428   4.240  0.2402 -0.6347  0.0890
 2521SOL    HW210130   1.671   2.375   4.237  0.2320 -0.6129 -0.0981
 2521SOL    HW310131   1.759   2.455   4.331  0.8494 -1.8823  0.4192
 2521SOL    MW410132   1.742   2.425   4.252  0.3196 -0.7961  0.1082
 2522SOL     OW10133   0.243   3.828   4.174 -0.0920  0.3285 -0.9191
 2522SOL    HW210134   0.268   3.885   4.247  0.6756  0.6868 -1.4604
 2522SOL    HW310135   0.147   3.832   4.173 -0.0816  0.9019 -0.3893
 2522SOL    MW410136   0.234   3.836   4.184  0.0106  0.4516 -0.9208
 2523SOL     OW10137   3.002   0.165   4.162  0.6124 -0.5043  0.4697
 2523SOL    HW210138   2.921   0.215   4.154 -0.1958 -1.7046  1.0090
 2523SOL    HW310139   3.022   0.138   4.072 -0.3453 -1.3771  0.5125
 2523SOL    MW410140   2.994   0.168   4.149  0.3796 -0.7779  0.5465
 2524SOL     OW10141   2.924   2.901   3.835  0.2555  0.0886  0.1586
 2524SOL    HW210142   2.987   2.830   3.850 -1.3940 -1.0206  2.0889
 2524SOL    HW310143   2.917   2.908   3.740 -0.2695 -3.0060 -0.0693
 2524SOL    MW410144   2.932   2.893   3.825 -0.0312 -0.4659  0.3831
 2525SOL     OW10145   4.098   1.867   4.320 -0.3809 -0.3594  0.0020
 2525SOL    HW210146   4.136   1.870   4.407 -2.9852 -0.7896  1.2141
 2525SOL    HW310147   4.064   1.778   4.312 -1.0126 -0.0339 -1.0729
 2525SOL    MW410148   4.099   1.855   4.330 -0.8078 -0.3734  0.0205
 2526SOL     OW10149   3.585   1.374   4.160  0.2942 -0.5488 -0.2223
 2526SOL    HW210150   3.678   1.371   4.183  0.0146  1.0778  1.2594
 2526SOL    HW310151   3.542   1.399   4.242 -1.4142 -1.0125 -0.9746
 2526SOL    MW410152   3.592   1.377   4.174  0.0317 -0.3953 -0.1259
 2527SOL     OW10153   2.786   0.671   4.610 -0.0869 -0.3309  0.0373
 2527SOL    HW210154   2.809   0.763   4.597 -0.0988 -0.4828 -1.0685
 2527SOL    HW310155   2.777   0.636   4.522  0.8335 -1.6267  0.4458
 2527SOL    MW410156   2.788   0.679   4.597  0.0329 -0.5220 -0.0553
 2528SOL     OW10157   4.265   1.433   4.167 -0.1261  0.3145 -0.3026
 2528SOL    HW210158   4.229   1.344   4.168 -0.1515  0.3319  0.4126
 2528SOL    HW310159   4.282   1.451   4.074  0.6772 -0.7592 -0.3783
 2528SOL    MW410160   4.263   1.423   4.155 -0.0234  0.1752 -0.2179
 2529SOL     OW10161   3.681   0.651   4.189  0.1278 -0.5384 -0.7303
 2529SOL    HW210162   3.721   0.565   4.200 -0.1185 -0.5683 -0.0224
 2529SOL    HW310163   3.754   0.708   4.165  0.9390 -0.2386  2.2735
 2529SOL    MW410164   3.696   0.647   4.188  0.2019 -0.5028 -0.2403
 2530SOL     OW10165   1.783   1.676   3.532  0.5524 -0.1015 -0.3523
 2530SOL    HW210166   1.775   1.766   3.503  1.2901 -0.0082 -0.2724
 2530SOL    HW310167   1.707   1.632   3.495  0.9455  0.2417 -1.5960
 2530SOL    MW410168   1.772   1.682   3.523  0.7015 -0.0437 -0.5059
 2531SOL     OW10169   3.067   3.874   4.334  0.4771 -0.4420 -0.1787
 2531SOL    HW210170   2.984   3.883   4.286  0.3152  0.7902  0.3066
 2531SOL    HW310171   3.041   3.873   4.426  1.1495  2.5065  0.1004
 2531SOL    MW410172   3.053   3.875   4.340  0.5443  0.1097 -0.0777
 2532SOL     OW10173   2.054   1.436   4.530 -0.4915 -0.1296  0.0532
 2532SOL    HW210174   2.019   1.387   4.455  1.7911 -1.5820 -0.0878
 2532SOL    HW310175   2.135   1.476   4.497 -0.6483  1.1070  1.1183
 2532SOL    MW410176   2.060   1.435   4.516 -0.2110 -0.1581  0.1755
 2533SOL     OW10177   2.267   0.398   3.884 -0.1601  0.2685  0.3434
 2533SOL    HW210178   2.288   0.362   3.970  1.1213  1.3399  0.4987
 2533SOL    HW310179   2.175   0.424   3.891  0.1727  1.1484  1.6959
 2533SOL    MW410180   2.257   0.397   3.896  0.0529  0.5259  0.5422
 2534SOL     OW10181   1.376   1.107   4.106 -0.4956 -0.4020  0.0026
 2534SOL    HW210182   1.293   1.137   4.144 -0.3667 -1.5438  1.2426
 2534SOL    HW310183   1.394   1.025   4.152  1.1685 -0.3139 -0.4855
 2534SOL    MW410184   1.367   1.100   4.117 -0.2589 -0.5410  0.1020
 2535SOL     OW10185   4.169   2.455   4.304 -0.0812  0.3355  0.0631
 2535SOL    HW210186   4.190   2.381   4.246  1.4132  0.5758  0.2572
 2535SOL    HW310187   4.145   2.415   4.387  1.8212  0.0529  0.5141
 2535SOL    MW410188   4.169   2.440   4.307  0.3672  0.3297  0.1478
 2536SOL     OW10189   1.013   0.635   3.980 -0.1021 -0.1321  0.7556
 2536SOL    HW210190   1.083   0.679   4.029 -0.9698  1.8529  0.2598
 2536SOL    HW310191   0.980   0.702   3.920 -0.1943 -2.0445 -1.3646
 2536SOL    MW410192   1.018   0.650   3.979 -0.2286 -0.1225  0.4106
 2537SOL     OW10193   3.966   3.184   4.630  0.4445  0.2070  0.2858
 2537SOL    HW210194   3.971   3.205   4.537  1.0184  1.6519  0.6410
 2537SOL    HW310195   3.881   3.142   4.640 -0.6603  2.2228 -0.4576
 2537SOL    MW410196   3.956   3.181   4.619  0.3743  0.6638  0.2351
 2538SOL     OW10197   1.903   0.391   4.612 -0.0225  0.0110  0.0074
 2538SOL    HW210198   1.953   0.447   4.672  0.1507  0.0623 -0.1831
 2538SOL    HW310199   1.823   0.440   4.594  0.2581  0.3366 -0.3894
 2538SOL    MW410200   1.899   0.405   4.617  0.0374  0.0607 -0.0706
 2539SOL     OW10201   1.777   2.426   3.777  0.0212 -0.0141 -0.0814
 2539SOL    HW210202   1.850   2.387   3.825  0.6150 -0.1241 -1.0754
 2539SOL    HW310203   1.800   2.416   3.685 -1.2351 -0.0194 -0.4040
 2539SOL    MW410204   1.789   2.420   3.771 -0.0662 -0.0293 -0.2551
 2540SOL     OW10205   4.429   3.126   4.799 -0.1202 -0.4882 -0.3765
 2540SOL    HW210206   4.431   3.126   4.895  1.7172 -1.1239 -0.4024
 2540SOL    HW310207   4.345   3.084   4.777 -0.6669 -0.1239  0.9407
 2540SOL    MW410208   4.418   3.120   4.809  0.0496 -0.5240 -0.2060
 2541SOL     OW10209   4.290   1.626   4.594  0.5973 -0.4409  0.5515
 2541SOL    HW210210   4.207   1.578   4.591 -0.2792  1.0990 -0.8393
 2541SOL    HW310211   4.330   1.609   4.508  1.3469 -0.5460  0.9249
 2541SOL    MW410212   4.284   1.617   4.582  0.5808 -0.2515  0.4172
 2542SOL     OW10213   4.061   3.504   3.965  0.2362 -0.2200 -0.1783
 2542SOL    HW210214   4.016   3.496   4.049  1.6035 -0.0610  0.5648
 2542SOL    HW310215   4.072   3.414   3.935 -0.5012 -0.2672 -0.3388
 2542SOL    MW410216   4.056   3.491   3.972  0.3195 -0.2053 -0.1013
 2543SOL     OW10217   1.166   3.586   4.637 -0.3448 -0.0080  0.1308
 2543SOL    HW210218   1.221   3.516   4.671 -1.6055 -1.6867 -1.1605
 2543SOL    HW310219   1.214   3.666   4.656  1.5504 -1.2814  0.8581
 2543SOL    MW410220   1.180   3.587   4.644 -0.2611 -0.3974  0.0567
 2544SOL     OW10221   0.093   1.691   4.666  0.5243  0.3666 -0.9318
 2544SOL    HW210222  -0.000   1.667   4.666  0.8301 -0.9572  0.7863
 2544SOL    HW310223   0.139   1.607   4.669  1.7619  1.0386 -0.9243
 2544SOL    MW410224   0.086   1.677   4.667  0.7279  0.2806 -0.7038
 2545SOL     OW10225   3.324   0.709   4.567  0.0751 -0.2568  0.0620
 2545SOL    HW210226   3.379   0.633   4.585  0.7651  0.6349  1.8427
 2545SOL    HW310227   3.235   0.679   4.586  0.0613 -1.3440 -1.6593
 2545SOL    MW410228   3.320   0.695   4.572  0.1643 -0.2826  0.0701
 2546SOL     OW10229   3.192   3.271   3.846  0.2399  0.1845 -0.5546
 2546SOL    HW210230   3.189   3.239   3.756 -0.5438  1.3143 -0.9333
 2546SOL    HW310231   3.272   3.232   3.882 -0.9154 -2.5924 -0.8575
 2546SOL    MW410232   3.202   3.261   3.839 -0.0160 -0.0329 -0.6442
 2547SOL     OW10233   0.139   0.323   4.597  0.0889  0.0014  0.4622
 2547SOL    HW210234   0.232   0.306   4.612  0.1871 -1.5910 -1.6558
 2547SOL    HW310235   0.094   0.259   4.652  0.1784  1.4967  2.3405
 2547SOL    MW410236   0.145   0.312   4.606  0.1136 -0.0114  0.4306
 2548SOL     OW10237   4.135   0.151   4.542 -0.2635  0.3398  0.3398
 2548SOL    HW210238   4.062   0.142   4.481 -0.1569 -0.0966  0.2712
 2548SOL    HW310239   4.208   0.180   4.488 -0.6264  1.7047  0.5735
 2548SOL    MW410240   4.135   0.153   4.527 -0.2980  0.4623  0.3619
 2549SOL     OW10241   4.489   4.071   4.556 -0.6591  0.4869  0.6299
 2549SOL    HW210242   4.398   4.047   4.569 -0.2300 -0.0370  2.8839
 2549SOL    HW310243   4.539   3.997   4.590  0.6204  1.0006 -0.0650
 2549SOL    MW410244   4.484   4.058   4.562 -0.4344  0.4854  0.8354
 2550SOL     OW10245   2.319   0.287   4.166  0.0343  0.2632  0.1872
 2550SOL    HW210246   2.291   0.341   4.240  0.8643 -0.6052  1.1666
 2550SOL    HW310247   2.247   0.224   4.154 -0.7816  1.3679 -0.7398
 2550SOL    MW410248   2.306   0.286   4.174  0.0365  0.2944  0.1941
 2551SOL     OW10249   3.324   0.028   3.986  0.0289 -0.4539  0.5314
 2551SOL    HW210250   3.294   0.119   3.986 -0.6858 -0.6683 -1.8449
 2551SOL    HW310251   3.400   0.028   3.928  0.7033 -1.1893  1.3863
 2551SOL    MW410252   3.330   0.040   3.978  0.0234 -0.5792  0.3307
 2552SOL     OW10253   3.015   1.355   4.256 -0.4943  0.7889 -0.0719
 2552SOL    HW210254   3.024   1.446   4.227  0.2939  1.3158  1.7914
 2552SOL    HW310255   2.983   1.361   4.346 -2.3866 -0.8302 -0.6015
 2552SOL    MW410256   3.012   1.368   4.264 -0.6402  0.6447  0.1049
 2553SOL     OW10257   3.674   0.945   4.567 -0.4889 -0.0183  0.2911
 2553SOL    HW210258   3.593   0.945   4.617 -1.1095  1.1020 -0.6755
 2553SOL    HW310259   3.667   1.022   4.510  1.3382  0.2153  0.3472
 2553SOL    MW410260   3.662   0.955   4.566 -0.3297  0.1603  0.1717
 2554SOL     OW10261   4.473   3.425   4.170 -0.0775 -0.6880  0.2867
 2554SOL    HW210262   4.415   3.348   4.166 -0.5583 -0.2621 -1.1380
 2554SOL    HW310263   4.560   3.388   4.188 -0.6657 -1.3817  1.8409
 2554SOL    MW410264   4.477   3.410   4.172 -0.2184 -0.7236  0.3042
 2555SOL     OW10265   1.581   1.269   4.639 -0.0839  0.2629  0.1971
 2555SOL    HW210266   1.600   1.356   4.674  1.1709  0.1358 -0.1484
 2555SOL    HW310267   1.532   1.286   4.558 -1.0474  0.5998  0.8356
 2555SOL    MW410268   1.577   1.283   4.633 -0.0455  0.2906  0.2360
 2556SOL     OW10269   0.527   3.097   4.558 -0.0440  0.5383 -0.3900
 2556SOL    HW210270   0.597   3.073   4.498  1.2556  1.2161  0.8211
 2556SOL    HW310271   0.559   3.069   4.644 -0.9085  1.5719  0.2773
 2556SOL    MW410272   0.541   3.090   4.562  0.0135  0.7639 -0.1426
 2557SOL     OW10273   2.516   0.890   4.201 -0.0527  0.2636  0.3578
 2557SOL    HW210274   2.604   0.852   4.207 -0.0592 -0.1992 -2.0085
 2557SOL    HW310275   2.529   0.983   4.219  0.7402 -0.0022  1.2104
 2557SOL    MW410276   2.530   0.897   4.204  0.0510  0.1675  0.1583
 2558SOL     OW10277   2.171   3.027   4.639 -0.3472 -0.1027  0.3293
 2558SOL    HW210278   2.245   3.086   4.648  0.0847 -0.6357  0.2924
 2558SOL    HW310279   2.202   2.959   4.578 -0.9752 -0.1419  0.0468
 2558SOL    MW410280   2.185   3.026   4.632 -0.3731 -0.1783  0.2871
 2559SOL     OW10281   2.234   1.182   4.192 -0.3859 -0.1517  0.3248
 2559SOL    HW210282   2.253   1.090   4.210 -0.3768 -0.2542 -0.1953
 2559SOL    HW310283   2.250   1.191   4.098 -2.7760 -0.2027 -0.1086
 2559SOL    MW410284   2.239   1.171   4.182 -0.7002 -0.1719  0.1993
 2560SOL     OW10285   0.583   1.659   4.322  0.3406 -0.2925 -0.4057
 2560SOL    HW210286   0.566   1.565   4.317  0.2380 -0.2077 -1.8220
 2560SOL    HW310287   0.498   1.700   4.304  0.3628  0.0713  0.3063
 2560SOL    MW410288   0.570   1.652   4.319  0.3299 -0.2334 -0.4988
 2561SOL     OW10289   3.203   1.643   4.429  1.0529  0.4636  0.0480
 2561SOL    HW210290   3.219   1.592   4.350  0.7011  0.5072 -0.0543
 2561SOL    HW310291   3.182   1.730   4.397  0.5058  0.3790  0.1672
 2561SOL    MW410292   3.202   1.647   4.414  0.9341  0.4581  0.0505
 2562SOL     OW10293   4.197   2.810   4.473  0.4852 -0.1821 -0.2845
 2562SOL    HW210294   4.129   2.777   4.532  0.0197  0.4855 -0.4342
 2562SOL    HW310295   4.262   2.740   4.469 -0.4336 -1.0407 -0.5184
 2562SOL    MW410296   4.196   2.797   4.480  0.3023 -0.2072 -0.3352
 2563SOL     OW10297   2.944   2.843   4.209  0.0358  0.0993 -0.6640
 2563SOL    HW210298   2.879   2.831   4.278  0.2135  0.5912 -0.4070
 2563SOL    HW310299   2.999   2.915   4.240 -0.6665  1.1851 -1.9111
 2563SOL    MW410300   2.943   2.851   4.223 -0.0336  0.3073 -0.7944
 2564SOL     OW10301   4.389   2.618   4.363  0.2987 -0.6860 -0.5383
 2564SOL    HW210302   4.340   2.539   4.338  0.1179 -1.6957  2.7070
 2564SOL    HW310303   4.468   2.584   4.404  1.9742  0.9068 -2.3944
 2564SOL    MW410304   4.393   2.603   4.365  0.4954 -0.6092 -0.3552
 2565SOL     OW10305   2.469   2.022   3.809 -0.3521  0.3707 -0.1542
 2565SOL    HW210306   2.393   2.002   3.864 -0.0833 -1.2792 -0.3600
 2565SOL    HW310307   2.544   1.993   3.862  0.1183  1.6090 -0.1246
 2565SOL    MW410308   2.469   2.016   3.823 -0.2546  0.3164 -0.1774
 2566SOL     OW10309   3.050   3.221   4.516 -0.2030  0.2106  0.5830
 2566SOL    HW210310   3.014   3.256   4.434  0.2404  0.3892  0.4660
 2566SOL    HW310311   2.973   3.189   4.564 -0.5782  1.0332  0.5429
 2566SOL    MW410312   3.035   3.221   4.512 -0.1941  0.3426  0.5617
 2567SOL     OW10313   4.421   3.436   4.785  0.2147 -0.3794 -0.4547
 2567SOL    HW210314   4.442   3.344   4.765  1.7464  0.0071 -0.6926
 2567SOL    HW310315   4.328   3.445   4.761 -0.2229 -2.1220  0.5120
 2567SOL    MW410316   4.411   3.425   4.779  0.3595 -0.5586 -0.3586
 2568SOL     OW10317   2.042   1.313   3.781 -0.1799  0.2371 -0.1000
 2568SOL    HW210318   1.963   1.266   3.807  0.2295  0.4231  1.5719
 2568SOL    HW310319   2.030   1.401   3.817  0.0541  0.7624 -1.2708
 2568SOL    MW410320   2.030   1.319   3.789 -0.0954  0.3310 -0.0339
 2569SOL     OW10321   1.962   2.718   4.572 -0.1180  0.3913 -0.2459
 2569SOL    HW210322   2.005   2.639   4.605  0.0691  0.2741 -0.7633
 2569SOL    HW310323   1.937   2.766   4.651 -0.9748 -0.5817  0.0917
 2569SOL    MW410324   1.964   2.714   4.587 -0.2062  0.2475 -0.2704
 2570SOL     OW10325   3.099   4.303   4.144  0.5158  0.5289  0.3200
 2570SOL    HW210326   3.004   4.294   4.139  0.5613 -0.6859  1.5091
 2570SOL    HW310327   3.126   4.238   4.208  1.9683  2.2249  1.4665
 2570SOL    MW410328   3.090   4.293   4.152  0.7133  0.5922  0.6285
 2571SOL     OW10329   0.485   4.371   4.196  0.4514 -0.4925  0.1937
 2571SOL    HW210330   0.538   4.295   4.222 -2.3495 -1.1805  4.3746
 2571SOL    HW310331   0.542   4.446   4.213  1.4050 -1.3806  1.0602
 2571SOL    MW410332   0.500   4.371   4.202  0.2076 -0.7005  0.8597
 2572SOL     OW10333   0.282   2.902   4.269 -0.8080  0.5860  0.8123
 2572SOL    HW210334   0.207   2.850   4.240  0.2269 -0.9840  0.8510
 2572SOL    HW310335   0.287   2.887   4.363 -1.2581  1.7910  1.0375
 2572SOL    MW410336   0.273   2.893   4.277 -0.7309  0.5379  0.8469
 2573SOL     OW10337   0.709   0.521   4.639 -0.3852  0.3200  0.1929
 2573SOL    HW210338   0.698   0.434   4.599  0.3220 -0.3894  1.5030
 2573SOL    HW310339   0.747   0.503   4.726  0.4461  1.9865  0.1966
 2573SOL    MW410340   0.713   0.507   4.645 -0.1823  0.4463  0.3662
 2574SOL     OW10341   2.480   4.595   4.126  0.2474  0.3013  0.2380
 2574SOL    HW210342   2.488   4.669   4.185  0.2678  0.9392 -0.5543
 2574SOL    HW310343   2.448   4.633   4.044  0.2172 -0.5680 -0.1619
 2574SOL    MW410344   2.476   4.610   4.123  0.2460  0.2704  0.0806
 2575SOL     OW10345   0.478   0.185   4.363  0.4998  0.1679 -0.2170
 2575SOL    HW210346   0.423   0.153   4.434  0.5801 -0.3582 -0.3946
 2575SOL    HW310347   0.531   0.110   4.337  1.6358  0.7824  0.2650
 2575SOL    MW410348   0.478   0.171   4.369  0.6603  0.1796 -0.1769
 2576SOL     OW10349   0.381   0.931   4.565 -0.0895 -0.1807  0.5942
 2576SOL    HW210350   0.376   0.994   4.493 -1.1073  1.6946  2.2362
 2576SOL    HW310351   0.470   0.896   4.561 -0.0421  0.0948 -1.3758
 2576SOL    MW410352   0.392   0.935   4.555 -0.2175  0.1031  0.5512
 2577SOL     OW10353   4.387   0.143   4.403  0.0002  0.6171  0.3127
 2577SOL    HW210354   4.368   0.079   4.335  0.9137  0.2723  0.3829
 2577SOL    HW310355   4.420   0.219   4.357 -1.5256  1.2315  0.1870
 2577SOL    MW410356   4.389   0.144   4.388 -0.0806  0.6527  0.3057
 2578SOL     OW10357   2.010   2.314   3.881  0.0026 -0.0564  0.1474
 2578SOL    HW210358   2.015   2.299   3.975  0.2451 -0.1175  0.1266
 2578SOL    HW310359   2.015   2.227   3.842  1.3507  0.0577  0.0322
 2578SOL    MW410360   2.012   2.301   3.888  0.2127 -0.0494  0.1295
 2579SOL     OW10361   2.880   2.283   4.576  0.2543  0.2792  0.1594
 2579SOL    HW210362   2.929   2.263   4.496  0.2509  0.4556  0.1137
 2579SOL    HW310363   2.788   2.270   4.552  0.2696  0.0650  0.2117
 2579SOL    MW410364   2.874   2.279   4.562  0.2558  0.2744  0.1597
 2580SOL     OW10365   0.923   1.468   4.504  0.0851 -0.2775  0.5524
 2580SOL    HW210366   0.956   1.550   4.466 -0.7858 -0.5079 -0.7370
 2580SOL    HW310367   0.841   1.493   4.547 -0.7821 -0.6691 -0.8453
 2580SOL    MW410368   0.917   1.482   4.505 -0.1442 -0.3595  0.1974
 2581SOL     OW10369   3.709   1.349   4.547  0.4348  0.5378 -0.3448
 2581SOL    HW210370   3.709   1.429   4.599 -1.7774  0.6306 -0.4456
 2581SOL    HW310371   3.698   1.278   4.612 -3.0890  0.7003 -0.6630
 2581SOL    MW410372   3.708   1.350   4.563 -0.3219  0.5715 -0.4001
 2582SOL     OW10373   2.254   0.883   4.277  0.1938 -0.2978  0.7965
 2582SOL    HW210374   2.342   0.874   4.240  0.1773  2.4683 -0.0017
 2582SOL    HW310375   2.268   0.899   4.370  0.5454  0.2215  0.6564
 2582SOL    MW410376   2.268   0.884   4.284  0.2382  0.1357  0.6723
 2583SOL     OW10377   4.445   1.565   4.342  0.4593 -0.1258 -0.1177
 2583SOL    HW210378   4.393   1.509   4.284  1.3134 -0.3713 -0.6589
 2583SOL    HW310379   4.531   1.570   4.300  1.4877 -1.3361  1.7915
 2583SOL    MW410380   4.449   1.559   4.328  0.7076 -0.3179  0.0625
 2584SOL     OW10381   0.924   3.247   3.794  0.1838 -0.2553 -0.4733
 2584SOL    HW210382   0.937   3.253   3.699  1.0356  0.3507 -0.3163
 2584SOL    HW310383   0.839   3.202   3.803 -0.1975  0.2357 -1.5244
 2584SOL    MW410384   0.914   3.242   3.782  0.2459 -0.1104 -0.5913
 2585SOL     OW10385   3.900   0.962   4.727 -0.1786  0.0408 -0.6514
 2585SOL    HW210386   3.823   0.955   4.670  0.8237 -0.6572 -1.9553
 2585SOL    HW310387   3.971   0.986   4.668  0.8716 -0.6555  0.3076
 2585SOL    MW410388   3.899   0.964   4.711  0.0920 -0.1431 -0.6967
 2586SOL     OW10389   2.733   3.893   4.513  0.0378  0.2050 -0.1423
 2586SOL    HW210390   2.716   3.962   4.577  3.0771  0.2625  0.6525
 2586SOL    HW310391   2.725   3.937   4.428 -3.0053  0.3559  0.1761
 2586SOL    MW410392   2.730   3.908   4.510  0.0374  0.2322  0.0048
 2587SOL     OW10393   2.458   3.856   3.969 -0.1212  0.4216 -0.0758
 2587SOL    HW210394   2.467   3.880   4.062  1.0426  0.1763 -0.1204
 2587SOL    HW310395   2.411   3.772   3.971  0.7274 -0.0497  0.3372
 2587SOL    MW410396   2.453   3.848   3.982  0.1445  0.3269 -0.0274
 2588SOL     OW10397   3.266   2.347   4.918 -0.3521  0.0821  0.0108
 2588SOL    HW210398   3.217   2.362   4.999  1.7916 -0.8656  1.5395
 2588SOL    HW310399   3.211   2.286   4.868 -1.6943  0.6730  0.7533
 2588SOL    MW410400   3.253   2.341   4.922 -0.2463  0.0350  0.3109
 2589SOL     OW10401   0.688   3.106   3.860  0.1701  0.0950 -0.1451
 2589SOL    HW210402   0.697   3.013   3.839 -1.0431 -0.2328  0.7013
 2589SOL    HW310403   0.704   3.110   3.955  0.9804  0.8572 -0.3153
 2589SOL    MW410404   0.691   3.094   3.870  0.1169  0.1523 -0.0560
 2590SOL     OW10405   1.587   2.899   4.175 -0.0877 -0.1577 -0.4051
 2590SOL    HW210406   1.667   2.850   4.155  0.4166  0.3821  0.2318
 2590SOL    HW310407   1.517   2.836   4.165  0.3789 -0.5085 -1.4595
 2590SOL    MW410408   1.589   2.884   4.171  0.0404 -0.1326 -0.4601
 2591SOL     OW10409   3.843   4.036   4.588  0.2975  0.1468  0.0956
 2591SOL    HW210410   3.753   4.016   4.612  0.8238 -0.9207  1.2052
 2591SOL    HW310411   3.896   3.989   4.653  1.6137  2.2186  0.5619
 2591SOL    MW410412   3.838   4.027   4.600  0.5407  0.2794  0.3033
 2592SOL     OW10413   3.418   3.888   4.166  0.3787 -0.1422  0.5170
 2592SOL    HW210414   3.381   3.832   4.234  1.1860  0.1041  1.1602
 2592SOL    HW310415   3.434   3.972   4.209  1.5425 -0.1968  0.2062
 2592SOL    MW410416   3.415   3.892   4.180  0.6387 -0.1168  0.5608
 2593SOL     OW10417   0.540   1.172   4.161 -0.1032  0.2809  0.2136
 2593SOL    HW210418   0.622   1.126   4.142  0.1577  1.4098 -1.4349
 2593SOL    HW310419   0.493   1.175   4.078 -0.7811  1.6812  0.6223
 2593SOL    MW410420   0.545   1.166   4.148 -0.1582  0.6146  0.0501
 2594SOL     OW10421   1.782   4.228   3.899  0.8673 -0.0204 -0.2278
 2594SOL    HW210422   1.791   4.223   3.995  0.6571 -1.3388 -0.2571
 2594SOL    HW310423   1.864   4.266   3.869  0.4797  1.4818  0.5587
 2594SOL    MW410424   1.794   4.232   3.908  0.7886  0.0038 -0.1280
 2595SOL     OW10425   1.885   3.438   4.612  0.2047  0.1583 -0.0225
 2595SOL    HW210426   1.796   3.458   4.583  0.2417 -0.5973 -0.6874
 2595SOL    HW310427   1.895   3.344   4.595  2.2244  0.8458 -2.9726
 2595SOL    MW410428   1.875   3.428   4.606  0.4761  0.1490 -0.4992
 2596SOL     OW10429   2.610   3.070   4.820 -0.5069  0.0175 -0.2157
 2596SOL    HW210430   2.680   3.118   4.775 -0.5067 -0.1610 -0.4069
 2596SOL    HW310431   2.535   3.129   4.818 -0.0921  0.6101  0.8427
 2596SOL    MW410432   2.610   3.084   4.814 -0.4523  0.0720 -0.1016
 2597SOL     OW10433   1.922   3.265   4.287  0.2129 -0.1118 -0.3484
 2597SOL    HW210434   1.968   3.347   4.272  1.2354 -1.1444 -3.4023
 2597SOL    HW310435   1.830   3.290   4.293  0.3152  1.1446 -3.0496
 2597SOL    MW410436   1.916   3.279   4.286  0.3612 -0.0825 -1.1077
 2598SOL     OW10437   3.342   2.334   3.938 -0.2201  0.1297  0.2016
 2598SOL    HW210438   3.358   2.242   3.917  1.4203  0.6140 -0.7926
 2598SOL    HW310439   3.366   2.342   4.031  0.9011 -0.1746 -0.0504
 2598SOL    MW410440   3.347   2.323   3.948  0.1442  0.1533  0.0372
 2599SOL     OW10441   0.463   2.695   3.871  0.3648  0.5439  0.2030
 2599SOL    HW210442   0.458   2.697   3.966  0.5456  0.3017  0.2188
 2599SOL    HW310443   0.390   2.749   3.842  1.4050  2.1632  0.5022
 2599SOL    MW410444   0.453   2.703   3.880  0.5259  0.7255  0.2446
 2600SOL     OW10445   1.312   1.624   4.688 -0.5326 -0.7856 -0.0836
 2600SOL    HW210446   1.318   1.700   4.631  0.3720 -0.2844  0.6676
 2600SOL    HW310447   1.372   1.643   4.760  0.5965 -2.7120 -0.4727
 2600SOL    MW410448   1.321   1.637   4.690 -0.2642 -0.9736 -0.0358
 2601SOL     OW10449   1.038   1.441   4.168 -0.9642  0.1967 -0.0313
 2601SOL    HW210450   1.120   1.479   4.200 -0.8940  0.6166 -0.6767
 2601SOL    HW310451   0.970   1.503   4.196 -1.1713 -0.6327  1.3148
 2601SOL    MW410452   1.040   1.454   4.176 -0.9824  0.1426  0.0615
 2602SOL     OW10453   2.923   2.379   4.181  0.0451  0.2362  0.0684
 2602SOL    HW210454   2.982   2.453   4.165  0.9912 -0.0519  2.1218
 2602SOL    HW310455   2.836   2.419   4.187  0.4192  1.0411  0.1516
 2602SOL    MW410456   2.919   2.394   4.179  0.2193  0.3042  0.3505
 2603SOL     OW10457   0.965   2.890   4.499 -0.1583  0.0358 -0.0317
 2603SOL    HW210458   1.019   2.886   4.420 -0.9279  0.7973 -0.6111
 2603SOL    HW310459   0.999   2.966   4.547  0.5267 -0.6251  0.5390
 2603SOL    MW410460   0.977   2.900   4.495 -0.1695  0.0489 -0.0324
 2604SOL     OW10461   1.603   4.199   4.363  0.3633  0.1407  0.1373
 2604SOL    HW210462   1.668   4.197   4.292  0.0285 -2.7729 -0.1421
 2604SOL    HW310463   1.519   4.192   4.319 -0.1063  2.5637  0.5943
 2604SOL    MW410464   1.601   4.198   4.348  0.2573  0.0763  0.1612
 2605SOL     OW10465   1.640   3.513   4.518  0.4895 -0.0703  0.3837
 2605SOL    HW210466   1.555   3.471   4.526 -0.9551  2.5380 -0.4568
 2605SOL    HW310467   1.649   3.532   4.424  1.9629 -0.2211  0.4755
 2605SOL    MW410468   1.630   3.510   4.506  0.4933  0.2539  0.2847
 2606SOL     OW10469   3.846   3.101   4.245 -0.0213  0.5003 -0.1862
 2606SOL    HW210470   3.839   3.115   4.151  0.2571  1.5582 -0.0566
 2606SOL    HW310471   3.764   3.135   4.280  0.4447  1.3560  0.0850
 2606SOL    MW410472   3.834   3.107   4.238  0.0770  0.7532 -0.1330
 2607SOL     OW10473   0.905   4.162   4.153 -0.6819  0.3711  0.1311
 2607SOL    HW210474   0.970   4.221   4.191 -0.8441  0.3177  0.4890
 2607SOL    HW310475   0.897   4.192   4.062 -0.5139  0.6862  0.2172
 2607SOL    MW410476   0.913   4.174   4.146 -0.6811  0.4053  0.1893
 2608SOL     OW10477   1.839   0.625   4.326 -0.1935  0.0648  0.6374
 2608SOL    HW210478   1.891   0.546   4.313 -1.1131 -0.7207  1.5339
 2608SOL    HW310479   1.902   0.697   4.322  0.9506 -0.8552  1.6356
 2608SOL    MW410480   1.854   0.624   4.324 -0.1639 -0.1602  0.8874
 2609SOL     OW10481   4.299   0.821   4.207  0.5386 -0.1021 -0.5873
 2609SOL    HW210482   4.304   0.794   4.115 -0.6119  0.7427 -0.9015
 2609SOL    HW310483   4.389   0.842   4.231  0.9698 -1.1176 -1.2755
 2609SOL    MW410484   4.311   0.820   4.198  0.4435 -0.1246 -0.7195
 2610SOL     OW10485   0.174   3.835   4.593  0.5606 -0.3073  0.1139
 2610SOL    HW210486   0.258   3.821   4.637  0.1456 -1.3162  0.5755
 2610SOL    HW310487   0.132   3.750   4.592 -0.4329  0.1754 -0.2036
 2610SOL    MW410488   0.180   3.822   4.598  0.3748 -0.3767  0.1330
 2611SOL     OW10489   3.393   1.485   3.972  0.4571 -0.3009  0.0023
 2611SOL    HW210490   3.346   1.410   3.935 -0.9160  1.0623 -1.0752
 2611SOL    HW310491   3.467   1.446   4.019 -0.1291 -2.3162 -0.6955
 2611SOL    MW410492   3.397   1.470   3.973  0.1986 -0.3868 -0.2320
 2612SOL     OW10493   2.382   3.493   4.236  0.1937 -0.2386 -0.0217
 2612SOL    HW210494   2.420   3.405   4.235 -1.0011 -0.7609 -2.2032
 2612SOL    HW310495   2.429   3.539   4.306  2.0884 -2.0382 -0.0800
 2612SOL    MW410496   2.393   3.487   4.245  0.2861 -0.5450 -0.3181
 2613SOL     OW10497   3.036   1.640   4.685  0.0577 -0.1510  0.1549
 2613SOL    HW210498   3.100   1.632   4.614  0.4625 -0.8857  0.5915
 2613SOL    HW310499   2.952   1.652   4.641  0.1650 -1.6257 -0.4764
 2613SOL    MW410500   3.033   1.641   4.670  0.1252 -0.4426  0.1287
 2614SOL     OW10501   2.726   0.376   3.865 -0.3529 -0.1679  0.1490
 2614SOL    HW210502   2.651   0.433   3.846 -0.9239 -0.2557  1.9529
 2614SOL    HW310503   2.692   0.287   3.853 -0.3701 -0.1888  0.3385
 2614SOL    MW410504   2.711   0.372   3.861 -0.4306 -0.1823  0.4120
 2615SOL     OW10505   3.581   3.900   4.605  0.3095 -0.5139  0.3285
 2615SOL    HW210506   3.602   3.807   4.597 -2.6814 -1.0305 -2.8786
 2615SOL    HW310507   3.497   3.902   4.649 -0.7171  0.5001 -1.6020
 2615SOL    MW410508   3.573   3.888   4.610 -0.2205 -0.4485 -0.3490
 2616SOL     OW10509   2.816   4.570   4.427 -0.1594  0.4206 -0.0057
 2616SOL    HW210510   2.908   4.593   4.413  0.2156 -0.1456  1.5151
 2616SOL    HW310511   2.776   4.580   4.341  1.8075 -1.6281 -1.1974
 2616SOL    MW410512   2.823   4.575   4.414  0.1500  0.0753  0.0372
 2617SOL     OW10513   0.963   2.435   4.470  0.2154 -0.2508 -0.0090
 2617SOL    HW210514   1.059   2.437   4.475  0.3680 -0.5970 -2.2480
 2617SOL    HW310515   0.934   2.500   4.535  1.8887 -1.3897  1.9181
 2617SOL    MW410516   0.972   2.444   4.480  0.4563 -0.4468 -0.0501
 2618SOL     OW10517   4.032   2.462   3.768  0.0244  0.5853 -0.1355
 2618SOL    HW210518   3.951   2.423   3.802  0.6142 -0.9933 -0.5107
 2618SOL    HW310519   4.036   2.548   3.810 -2.0800  0.8746 -0.4404
 2618SOL    MW410520   4.022   2.468   3.778 -0.1755  0.4151 -0.2255
 2619SOL     OW10521   2.501   1.729   4.490 -0.2802  0.3122  0.0101
 2619SOL    HW210522   2.469   1.798   4.548 -0.3485  0.1746  0.1372
 2619SOL    HW310523   2.521   1.774   4.408 -1.8951  0.2326 -0.4541
 2619SOL    MW410524   2.499   1.744   4.486 -0.5023  0.2836 -0.0339
 2620SOL     OW10525   1.341   3.795   4.673 -0.2086  0.3388  0.4813
 2620SOL    HW210526   1.434   3.785   4.654 -0.1291  0.4802  0.7981
 2620SOL    HW310527   1.323   3.888   4.655 -0.7868 -0.1592 -1.7623
 2620SOL    MW410528   1.351   3.806   4.668 -0.2744  0.2916  0.2275
 2621SOL     OW10529   0.589   1.371   4.335  0.0898 -0.1202 -0.0855
 2621SOL    HW210530   0.676   1.341   4.362  0.3344 -0.8480 -1.6168
 2621SOL    HW310531   0.568   1.316   4.260 -1.1169  0.9804 -0.5550
 2621SOL    MW410532   0.598   1.359   4.329 -0.0371 -0.0710 -0.3490
 2622SOL     OW10533   2.090   3.477   4.265 -0.3191  0.1289  0.1414
 2622SOL    HW210534   2.181   3.488   4.236 -0.5452  0.6370 -0.3910
 2622SOL    HW310535   2.085   3.528   4.346  0.3633 -1.4444  1.1962
 2622SOL    MW410536   2.102   3.485   4.272 -0.2592 -0.0114  0.2103
 2623SOL     OW10537   3.862   0.555   3.918  0.2404 -0.2869 -0.2046
 2623SOL    HW210538   3.944   0.515   3.947 -1.2364 -1.8491  2.0310
 2623SOL    HW310539   3.877   0.649   3.923  1.5141 -0.5607  1.3729
 2623SOL    MW410540   3.875   0.562   3.922  0.2136 -0.5292  0.2987
 2624SOL     OW10541   0.031   4.028   3.836 -0.4517 -0.6030 -0.0312
 2624SOL    HW210542   0.037   4.117   3.871  0.5055 -0.8308  0.3843
 2624SOL    HW310543   0.109   3.984   3.869 -2.4385 -2.5067  2.3503
 2624SOL    MW410544   0.042   4.034   3.845 -0.5875 -0.8845  0.3376
 2625SOL     OW10545   0.784   1.068   4.174  0.3592  0.0243 -0.2303
 2625SOL    HW210546   0.807   1.113   4.256  1.8731  0.2597 -0.7684
 2625SOL    HW310547   0.794   0.975   4.194 -1.0784 -0.0119  0.3774
 2625SOL    MW410548   0.788   1.062   4.188  0.3693  0.0507 -0.2208
 2626SOL     OW10549   2.286   2.405   4.188 -0.1219 -0.1482  0.4939
 2626SOL    HW210550   2.372   2.369   4.169 -0.0512 -0.5604  1.5695
 2626SOL    HW310551   2.228   2.329   4.190 -0.1320 -0.1201  1.8631
 2626SOL    MW410552   2.289   2.390   4.186 -0.1142 -0.1986  0.8168
 2627SOL     OW10553   3.945   0.354   4.669 -0.7530 -0.1947  0.4763
 2627SOL    HW210554   4.008   0.286   4.650 -1.1069 -0.5311  0.4946
 2627SOL    HW310555   3.995   0.436   4.666 -0.6600 -0.3017 -1.1308
 2627SOL    MW410556   3.960   0.356   4.666 -0.7875 -0.2532  0.2670
 2628SOL     OW10557   1.170   0.101   4.252 -0.0138  0.1224 -0.0445
 2628SOL    HW210558   1.148   0.186   4.291 -0.9065 -0.3953  0.6017
 2628SOL    HW310559   1.264   0.107   4.234  0.2078  0.7743  1.2206
 2628SOL    MW410560   1.180   0.113   4.255 -0.1024  0.1401  0.2074
 2629SOL     OW10561   1.927   3.966   4.116  0.0219  0.3279 -0.8614
 2629SOL    HW210562   1.968   3.961   4.030  2.1291 -0.0027  0.1445
 2629SOL    HW310563   1.996   3.944   4.177 -2.1180 -2.1389  0.7841
 2629SOL    MW410564   1.941   3.963   4.113  0.0178 -0.0410 -0.5116
 2630SOL     OW10565   4.362   4.457   4.538  0.1823  0.1063  0.3348
 2630SOL    HW210566   4.319   4.421   4.461  0.0030 -0.9713  0.9151
 2630SOL    HW310567   4.294   4.506   4.584 -0.4272 -1.4476  1.1587
 2630SOL    MW410568   4.348   4.459   4.534  0.0777 -0.2413  0.5198
 2631SOL     OW10569   3.521   2.907   4.418 -0.4213 -0.0188  0.1949
 2631SOL    HW210570   3.520   2.848   4.343  0.6112  0.4484 -0.1994
 2631SOL    HW310571   3.544   2.992   4.381 -0.6438  0.3675  0.9371
 2631SOL    MW410572   3.524   2.911   4.403 -0.3142  0.0939  0.2403
 2632SOL     OW10573   0.034   0.329   4.229 -0.5511  0.6249 -0.5158
 2632SOL    HW210574   0.053   0.407   4.281  0.2153 -0.3884  0.7677
 2632SOL    HW310575   0.119   0.287   4.216 -1.2455 -1.3352  1.0086
 2632SOL    MW410576   0.047   0.334   4.234 -0.5416  0.2326 -0.1450
 2633SOL     OW10577   4.015   2.724   3.916  1.0145  0.3286  0.1487
 2633SOL    HW210578   4.020   2.686   4.004  0.1968 -1.7651 -0.6747
 2633SOL    HW310579   4.099   2.768   3.904  1.3326  0.2022  1.7667
 2633SOL    MW410580   4.027   2.725   3.926  0.9484  0.0360  0.2534
 2634SOL     OW10581   2.711   2.433   3.784 -0.3362  0.2038 -0.3546
 2634SOL    HW210582   2.700   2.524   3.812  0.8318  0.2561 -0.0431
 2634SOL    HW310583   2.629   2.390   3.809 -0.9784  1.2166 -0.7039
 2634SOL    MW410584   2.698   2.439   3.791 -0.2668  0.3443 -0.3598
 2635SOL     OW10585   3.802   2.868   3.828 -0.1085  0.1916 -0.5150
 2635SOL    HW210586   3.886   2.824   3.837  0.4217  0.7531 -2.3559
 2635SOL    HW310587   3.738   2.804   3.859  0.8825 -0.7319 -0.3228
 2635SOL    MW410588   3.805   2.854   3.833  0.0923  0.1440 -0.7327
 2636SOL     OW10589   1.788   2.698   4.164 -0.0090  0.0257 -0.0912
 2636SOL    HW210590   1.762   2.611   4.196 -1.4104  0.9961  1.4927
 2636SOL    HW310591   1.864   2.721   4.216  1.5777 -1.0369 -1.8535
 2636SOL    MW410592   1.794   2.689   4.175  0.0154  0.0134 -0.1149
 2637SOL     OW10593   0.569   0.419   4.198 -0.1889  0.2294  0.2597
 2637SOL    HW210594   0.658   0.384   4.190 -0.4271 -0.2590 -0.2684
 2637SOL    HW310595   0.523   0.357   4.254 -0.2261  0.4285  0.4507
 2637SOL    MW410596   0.575   0.406   4.204 -0.2252  0.1912  0.2151
 2638SOL     OW10597   0.867   0.919   4.610 -0.7014  0.0018 -0.3770
 2638SOL    HW210598   0.789   0.880   4.570  0.0714 -0.6782 -1.2291
 2638SOL    HW310599   0.921   0.844   4.637 -1.1848  0.4389  1.9435
 2638SOL    MW410600   0.864   0.904   4.608 -0.6632 -0.0302 -0.1836
 2639SOL     OW10601   3.761   0.396   4.275 -0.1311  0.1109  0.1731
 2639SOL    HW210602   3.748   0.407   4.369 -0.1843  0.1835  0.1575
 2639SOL    HW310603   3.856   0.393   4.264 -0.1267  0.0204  0.2384
 2639SOL    MW410604   3.772   0.397   4.286 -0.1376  0.1085  0.1798
 2640SOL     OW10605   3.523   2.781   4.175  0.1350  0.5140  0.4052
 2640SOL    HW210606   3.441   2.731   4.180  0.1941  0.4635  0.8589
 2640SOL    HW310607   3.548   2.777   4.082  0.0848 -0.2195  0.4179
 2640SOL    MW410608   3.516   2.774   4.163  0.1361  0.4106  0.4668
 2641SOL     OW10609   1.399   4.027   3.863 -0.6451 -0.2868  0.0366
 2641SOL    HW210610   1.390   4.032   3.768  0.5181  2.0924  0.0054
 2641SOL    HW310611   1.454   3.951   3.879 -0.0639 -0.1435 -1.2588
 2641SOL    MW410612   1.405   4.018   3.853 -0.4151  0.0463 -0.1385
 2642SOL     OW10613   0.809   1.230   4.417 -0.1813 -0.4248  0.8363
 2642SOL    HW210614   0.779   1.208   4.505  2.4160 -1.1638  1.5942
 2642SOL    HW310615   0.877   1.296   4.430 -0.5872  0.3288 -0.7171
 2642SOL    MW410616   0.814   1.236   4.430  0.1078 -0.4227  0.7310
 2643SOL     OW10617   1.006   0.979   4.390  0.4146  0.0009  0.4766
 2643SOL    HW210618   0.959   0.977   4.473 -0.9884 -1.6960 -0.3280
 2643SOL    HW310619   0.968   0.907   4.339  0.8723  1.3422 -1.8236
 2643SOL    MW410620   0.995   0.969   4.394  0.2900 -0.0460  0.0663
 2644SOL     OW10621   3.782   3.848   3.924 -0.2792  0.0849 -0.1637
 2644SOL    HW210622   3.758   3.812   4.009  0.7087 -1.4657 -0.5163
 2644SOL    HW310623   3.876   3.868   3.932 -0.3024  0.4463 -0.7121
 2644SOL    MW410624   3.791   3.846   3.936 -0.1516 -0.0720 -0.2828
 2645SOL     OW10625   0.687   2.839   3.768  0.0120 -0.0145  0.0984
 2645SOL    HW210626   0.611   2.788   3.797  0.1875 -0.6694 -0.5944
 2645SOL    HW310627   0.677   2.846   3.673 -0.5091  2.0616  0.2660
 2645SOL    MW410628   0.675   2.833   3.759 -0.0336  0.1729  0.0291
 2646SOL     OW10629   4.486   2.717   3.913  0.2232  0.1151  0.0974
 2646SOL    HW210630   4.561   2.765   3.879 -0.4208  2.5415  2.0440
 2646SOL    HW310631   4.410   2.771   3.890 -0.6567 -0.7564  0.8920
 2646SOL    MW410632   4.486   2.730   3.905  0.0219  0.3202  0.4590
 2647SOL     OW10633   0.179   4.638   4.418 -0.0269 -0.5249  0.4695
 2647SOL    HW210634   0.165   4.544   4.404 -1.7987 -0.3252  0.8005
 2647SOL    HW310635   0.106   4.666   4.473 -0.5236  1.4101 -1.0955
 2647SOL    MW410636   0.168   4.629   4.423 -0.3262 -0.2432  0.3071
 2648SOL     OW10637   0.502   3.749   4.393 -0.2945  0.1845  0.0874
 2648SOL    HW210638   0.536   3.788   4.312  1.7067  1.2009  1.3830
 2648SOL    HW310639   0.465   3.822   4.441 -1.7252 -0.4646  0.0126
 2648SOL    MW410640   0.502   3.764   4.388 -0.2192  0.2329  0.2484
 2649SOL     OW10641   0.249   3.879   3.899 -0.3906  0.1166  0.1769
 2649SOL    HW210642   0.249   3.863   3.994 -0.6134  2.3528  0.5848
 2649SOL    HW310643   0.324   3.936   3.885 -1.8568  1.8930 -0.5996
 2649SOL    MW410644   0.259   3.884   3.910 -0.6135  0.6461  0.1280
 2650SOL     OW10645   0.278   4.341   4.593 -0.0701  0.1926 -0.4525
 2650SOL    HW210646   0.293   4.425   4.637 -0.4547 -0.7570  1.4876
 2650SOL    HW310647   0.196   4.309   4.630  0.5459 -1.4869 -0.5175
 2650SOL    MW410648   0.269   4.348   4.603 -0.0395 -0.1550 -0.2050
 2651SOL     OW10649   3.169   4.276   3.884 -0.4123  0.3361 -0.0420
 2651SOL    HW210650   3.142   4.289   3.975 -0.5584 -1.8905  0.2417
 2651SOL    HW310651   3.258   4.311   3.880 -0.0935 -0.3157  1.1656
 2651SOL    MW410652   3.177   4.283   3.895 -0.3893 -0.0439  0.1545
 2652SOL     OW10653   2.453   3.651   4.466  0.1129 -0.4703 -0.2035
 2652SOL    HW210654   2.530   3.608   4.503  0.1085  0.3250  0.7526
 2652SOL    HW310655   2.486   3.731   4.426  0.0300 -1.0316 -1.4152
 2652SOL    MW410656   2.467   3.656   4.466  0.1016 -0.4394 -0.2370
 2653SOL     OW10657   4.186   3.007   4.711 -0.3161 -0.6857  0.4707
 2653SOL    HW210658   4.211   2.964   4.629  0.9000 -0.5248  0.7428
 2653SOL    HW310659   4.119   3.070   4.686 -0.0689 -0.7614 -0.3839
 2653SOL    MW410660   4.180   3.010   4.697 -0.1230 -0.6745  0.3939
 2654SOL     OW10661   3.195   1.099   4.639  0.4549 -0.3320 -0.0769
 2654SOL    HW210662   3.181   1.174   4.697 -0.1760 -1.3926  1.1819
 2654SOL    HW310663   3.236   1.136   4.561 -2.2507  1.7415 -0.5966
 2654SOL    MW410664   3.198   1.114   4.636  0.0145 -0.1982  0.0210
 2655SOL     OW10665   3.754   1.568   4.713  0.3719  0.3093  0.7789
 2655SOL    HW210666   3.681   1.604   4.762 -1.2228 -1.1138 -0.4643
 2655SOL    HW310667   3.771   1.632   4.644 -0.8194 -0.1228  0.0674
 2655SOL    MW410668   3.747   1.581   4.710  0.0045  0.0645  0.5217
 2656SOL     OW10669   0.528   3.466   4.394 -0.5353 -0.3101 -0.2504
 2656SOL    HW210670   0.509   3.422   4.477  0.1352 -0.3418 -0.1098
 2656SOL    HW310671   0.552   3.556   4.419  0.0728 -0.4336 -0.3694
 2656SOL    MW410672   0.529   3.472   4.409 -0.3666 -0.3307 -0.2475
 2657SOL     OW10673   4.077   4.499   4.368 -0.5816  0.5443  0.2065
 2657SOL    HW210674   4.038   4.517   4.454 -1.5212  0.4720 -0.2016
 2657SOL    HW310675   4.011   4.447   4.322  0.1542  0.0916 -0.3591
 2657SOL    MW410676   4.063   4.494   4.373 -0.6084  0.4754  0.0772
 2658SOL     OW10677   3.294   1.704   4.114 -0.6200  0.0104  0.2523
 2658SOL    HW210678   3.346   1.644   4.060 -0.7929  0.1320 -0.0520
 2658SOL    HW310679   3.255   1.765   4.051 -0.6569  0.2812  0.5347
 2658SOL    MW410680   3.296   1.705   4.099 -0.6478  0.0622  0.2499
 2659SOL     OW10681   3.102   4.164   4.592  0.1865 -0.4722  0.0300
 2659SOL    HW210682   3.032   4.221   4.561 -0.0117  0.0407  1.3681
 2659SOL    HW310683   3.060   4.079   4.605  0.3126 -0.7396 -1.2447
 2659SOL    MW410684   3.087   4.160   4.590  0.1769 -0.4401  0.0386
 2660SOL     OW10685   1.352   1.123   3.829 -0.2309 -0.0166  0.1360
 2660SOL    HW210686   1.356   1.122   3.925  2.1866  1.8878  0.1106
 2660SOL    HW310687   1.265   1.160   3.809 -0.1173  1.1212  1.6277
 2660SOL    MW410688   1.341   1.128   3.839  0.1030  0.3847  0.3293
 2661SOL     OW10689   4.076   0.955   4.313 -0.1914  0.5205 -0.1565
 2661SOL    HW210690   4.154   0.907   4.284  0.2796  0.6120  0.9312
 2661SOL    HW310691   4.090   0.968   4.407 -0.8636  1.7681 -0.2296
 2661SOL    MW410692   4.088   0.950   4.322 -0.2184  0.6971 -0.0224
 2662SOL     OW10693   2.958   0.007   4.741  0.1024 -0.2239 -0.1686
 2662SOL    HW210694   3.045   0.026   4.706  0.2394  0.2269  0.4045
 2662SOL    HW310695   2.897   0.049   4.680  0.3911  1.7837  0.9008
 2662SOL    MW410696   2.961   0.015   4.728  0.1585  0.1005  0.0482
 2663SOL     OW10697   2.788   1.289   4.127  0.3086 -0.2472 -0.2057
 2663SOL    HW210698   2.869   1.300   4.176  1.0077  0.7940 -1.5490
 2663SOL    HW310699   2.752   1.378   4.120 -0.1248 -0.4771 -0.9700
 2663SOL    MW410700   2.794   1.303   4.132  0.3438 -0.1403 -0.4840
 2664SOL     OW10701   1.731   1.032   4.569 -0.0914 -0.2220  0.4610
 2664SOL    HW210702   1.677   1.110   4.584 -0.2670  0.6340 -4.1083
 2664SOL    HW310703   1.668   0.960   4.563 -0.3154  0.0382 -0.2366
 2664SOL    MW410704   1.715   1.033   4.570 -0.1441 -0.0747 -0.2337
 2665SOL     OW10705   3.736   2.699   4.468 -0.3871 -0.1528 -0.1554
 2665SOL    HW210706   3.786   2.757   4.411  0.3528  0.9010  1.5342
 2665SOL    HW310707   3.655   2.747   4.485 -0.7615 -0.6230 -0.6029
 2665SOL    MW410708   3.732   2.713   4.462 -0.3386 -0.0758  0.0086
 2666SOL     OW10709   0.807   4.657   4.551 -0.1493  0.2190  0.5019
 2666SOL    HW210710   0.785   4.571   4.586  1.4202  1.1092  3.7969
 2666SOL    HW310711   0.901   4.652   4.531 -0.1133  1.0702  0.4240
 2666SOL    MW410712   0.817   4.645   4.553  0.0625  0.4492  0.9270
 2667SOL     OW10713   0.708   2.999   4.370  0.2887 -0.3603  0.5430
 2667SOL    HW210714   0.796   2.986   4.405 -0.3284 -0.8931  1.9285
 2667SOL    HW310715   0.680   2.912   4.341  0.1941 -0.2104  0.1864
 2667SOL    MW410716   0.716   2.986   4.371  0.1948 -0.4110  0.6795
 2668SOL     OW10717   1.152   2.860   4.279  0.0635  0.2640 -0.5000
 2668SOL    HW210718   1.077   2.818   4.237  1.6982 -0.2228 -3.0594
 2668SOL    HW310719   1.142   2.953   4.258 -0.0565  0.2495 -0.5056
 2668SOL    MW410720   1.141   2.867   4.271  0.2635  0.1979 -0.8383
 2669SOL     OW10721   2.032   1.559   3.905  0.0902 -0.3948  0.0391
 2669SOL    HW210722   1.946   1.583   3.869 -0.2630 -0.3838  0.8710
 2669SOL    HW310723   2.012   1.528   3.993  0.8324 -1.3667 -0.1336
 2669SOL    MW410724   2.018   1.558   3.912  0.1414 -0.5215  0.1261
 2670SOL     OW10725   2.017   3.021   4.189 -0.4728 -0.1097  0.3597
 2670SOL    HW210726   2.037   3.022   4.096  1.4352 -0.4319  0.7607
 2670SOL    HW310727   1.972   3.104   4.205 -2.0050 -0.6251 -1.0712
 2670SOL    MW410728   2.013   3.032   4.179 -0.4232 -0.2201  0.2236
 2671SOL     OW10729   2.028   4.343   4.273  0.1963  0.1924  0.1135
 2671SOL    HW210730   2.110   4.365   4.229 -0.3184  0.9821 -0.4884
 2671SOL    HW310731   2.042   4.365   4.365  1.0823 -0.8856  0.2360
 2671SOL    MW410732   2.041   4.349   4.279  0.2453  0.1545  0.0510
 2672SOL     OW10733   3.196   3.460   4.195 -0.2511 -0.3795  0.0794
 2672SOL    HW210734   3.223   3.545   4.231  0.2449 -0.4216 -0.1940
 2672SOL    HW310735   3.161   3.482   4.109  0.5871 -0.5468 -0.3037
 2672SOL    MW410736   3.195   3.474   4.188 -0.0751 -0.4072 -0.0067
 2673SOL     OW10737   2.867   3.646   3.863 -0.1314  0.1715 -0.1286
 2673SOL    HW210738   2.939   3.590   3.893 -0.3804  0.8421  1.8023
 2673SOL    HW310739   2.885   3.661   3.770  0.6990 -1.9571 -0.3369
 2673SOL    MW410740   2.879   3.641   3.855 -0.0546 -0.0207  0.0985
 2674SOL     OW10741   3.815   2.395   4.161 -0.2648  0.1497 -0.4072
 2674SOL    HW210742   3.859   2.479   4.157  0.2871 -0.1583 -0.9015
 2674SOL    HW310743   3.755   2.402   4.236  0.2699  0.7379 -0.0351
 2674SOL    MW410744   3.813   2.407   4.170 -0.1216  0.1867 -0.4234
 2675SOL     OW10745   3.445   2.356   4.200 -0.2513 -0.1416  0.2391
 2675SOL    HW210746   3.523   2.362   4.254 -0.7346  0.5005  0.8683
 2675SOL    HW310747   3.402   2.275   4.229 -0.5279  0.2188  0.8494
 2675SOL    MW410748   3.450   2.346   4.211 -0.3514 -0.0095  0.4029
 2676SOL     OW10749   1.722   2.590   4.486  0.6029  0.4474 -0.4286
 2676SOL    HW210750   1.633   2.624   4.492  0.9500  1.0789  1.5309
 2676SOL    HW310751   1.778   2.666   4.506  1.4322 -0.8337  2.3324
 2676SOL    MW410752   1.718   2.605   4.490  0.7582  0.3622  0.1941
 2677SOL     OW10753   2.261   0.906   4.568 -0.1100 -0.6190 -0.1847
 2677SOL    HW210754   2.178   0.935   4.607  0.0226  0.7179 -0.8989
 2677SOL    HW310755   2.323   0.977   4.587  1.4313 -2.5150  2.1708
 2677SOL    MW410756   2.258   0.919   4.576  0.1106 -0.6928  0.0324
 2678SOL     OW10757   3.821   2.095   4.235 -0.2192 -0.0425  0.0972
 2678SOL    HW210758   3.908   2.075   4.200 -1.1786 -1.9711 -1.3461
 2678SOL    HW310759   3.813   2.190   4.228  1.2441  0.0164 -1.0755
 2678SOL    MW410760   3.831   2.105   4.229 -0.1528 -0.2892 -0.2480
 2679SOL     OW10761   3.198   4.104   4.346  0.1186  0.1012 -0.2450
 2679SOL    HW210762   3.171   4.127   4.435 -0.0812  0.7710 -0.4755
 2679SOL    HW310763   3.154   4.021   4.329  1.1940 -0.6935  0.7532
 2679SOL    MW410764   3.189   4.096   4.356  0.2341  0.0844 -0.1445
 2680SOL     OW10765   1.525   4.515   4.309 -0.5459  0.8316  0.2858
 2680SOL    HW210766   1.542   4.557   4.393  1.5074 -1.0190  0.8411
 2680SOL    HW310767   1.610   4.515   4.265 -1.2505  0.2833 -1.1077
 2680SOL    MW410768   1.538   4.520   4.314 -0.3679  0.5150  0.1750
 2681SOL     OW10769   0.285   2.948   4.569 -0.0142  0.2236  0.1542
 2681SOL    HW210770   0.208   3.005   4.561  0.8617  1.5586  0.9970
 2681SOL    HW310771   0.360   3.006   4.558  0.8961 -1.0451 -0.5131
 2681SOL    MW410772   0.284   2.963   4.567  0.2215  0.2322  0.1779
 2682SOL     OW10773   2.003   0.996   4.690 -0.5439  0.4175  0.4621
 2682SOL    HW210774   1.927   1.018   4.636 -0.2299  1.6082  0.5004
 2682SOL    HW310775   2.018   1.073   4.744  1.6638  0.8029 -0.6557
 2682SOL    MW410776   1.995   1.009   4.690 -0.2112  0.6254  0.3195
 2683SOL     OW10777   1.708   3.508   4.239 -0.1089  0.2177 -0.0082
 2683SOL    HW210778   1.618   3.479   4.232  0.0745 -0.3750  0.0815
 2683SOL    HW310779   1.706   3.599   4.211 -0.8366  0.3864  0.5783
 2683SOL    MW410780   1.696   3.516   4.235 -0.1806  0.1619  0.0811
 2684SOL     OW10781   0.662   3.403   4.162  0.3887  0.1999  0.3706
 2684SOL    HW210782   0.662   3.309   4.147 -0.8979 -0.0138  1.5749
 2684SOL    HW310783   0.613   3.414   4.243  0.2026  1.9350  0.0426
 2684SOL    MW410784   0.655   3.392   4.171  0.1944  0.4005  0.4859
 2685SOL     OW10785   0.693   0.008   3.819  0.2102  0.0596  0.3141
 2685SOL    HW210786   0.694  -0.088   3.822  2.4389 -0.0701 -2.2562
 2685SOL    HW310787   0.605   0.030   3.789  0.1160 -1.2925 -0.4777
 2685SOL    MW410788   0.682  -0.002   3.815  0.4917 -0.1359 -0.1292
 2686SOL     OW10789   1.518   2.071   3.774  0.1273  0.1027  0.0715
 2686SOL    HW210790   1.595   2.029   3.813 -0.0537  0.5314  0.8957
 2686SOL    HW310791   1.444   2.021   3.808 -0.0559  0.7407  0.6266
 2686SOL    MW410792   1.518   2.059   3.784  0.0793  0.2437  0.2537
 2687SOL     OW10793   3.427   0.729   3.870  0.0377  0.6342 -0.1703
 2687SOL    HW210794   3.444   0.719   3.964 -0.7787  0.1152 -0.0727
 2687SOL    HW310795   3.442   0.642   3.833 -0.1095  0.7242 -0.4466
 2687SOL    MW410796   3.431   0.716   3.878 -0.0892  0.5777 -0.1938
 2688SOL     OW10797   3.677   1.868   4.164 -0.0108 -0.1835  0.4447
 2688SOL    HW210798   3.727   1.947   4.183  0.0163 -0.4164  1.3529
 2688SOL    HW310799   3.739   1.796   4.181 -0.3577 -0.4381  0.6517
 2688SOL    MW410800   3.692   1.869   4.169 -0.0532 -0.2478  0.5922
 2689SOL     OW10801   0.234   2.813   3.817 -0.1047 -0.7564  0.5085
 2689SOL    HW210802   0.226   2.807   3.722 -1.2458 -0.7218  0.5909
 2689SOL    HW310803   0.271   2.900   3.832  0.6612 -1.0005  0.0753
 2689SOL    MW410804   0.238   2.824   3.806 -0.1542 -0.7842  0.4623
 2690SOL     OW10805   1.158   3.123   3.903  0.4444 -0.3436  0.0177
 2690SOL    HW210806   1.079   3.166   3.869  0.9015 -0.2772 -0.9532
 2690SOL    HW310807   1.145   3.030   3.883  0.6014 -0.3348 -0.1259
 2690SOL    MW410808   1.146   3.117   3.896  0.5255 -0.3338 -0.1290
 2691SOL     OW10809   1.675   3.775   4.151  0.5469 -0.0795  0.2111
 2691SOL    HW210810   1.619   3.812   4.220  0.2037  0.4398 -0.3360
 2691SOL    HW310811   1.736   3.846   4.130  0.5877 -0.2022 -0.0825
 2691SOL    MW410812   1.676   3.789   4.158  0.5070 -0.0274  0.1001
 2692SOL     OW10813   0.727   1.582   4.662 -0.2450  0.7417 -0.0946
 2692SOL    HW210814   0.750   1.560   4.753  1.5716  1.6015 -0.3354
 2692SOL    HW310815   0.641   1.541   4.649 -0.2836  0.1504  1.8376
 2692SOL    MW410816   0.718   1.573   4.672 -0.0104  0.7770  0.1287
 2693SOL     OW10817   3.819   4.656   4.208  0.2933 -0.1260  0.0175
 2693SOL    HW210818   3.825   4.687   4.118  1.8098  1.6004  0.6847
 2693SOL    HW310819   3.730   4.679   4.235  0.5451  1.3218 -0.3514
 2693SOL    MW410820   3.808   4.663   4.200  0.5267  0.2933  0.0572
 2694SOL     OW10821   2.108   3.890   4.342  0.1726  0.4193  0.4683
 2694SOL    HW210822   2.065   3.808   4.368  0.2595 -0.1023 -1.0019
 2694SOL    HW310823   2.127   3.934   4.425 -0.9924 -0.4752  1.2273
 2694SOL    MW410824   2.105   3.885   4.356  0.0303  0.2325  0.3743
 2695SOL     OW10825   3.160   1.901   3.941 -0.0309 -0.1391  0.0653
 2695SOL    HW210826   3.158   1.828   3.879 -1.9370 -0.2573  0.2411
 2695SOL    HW310827   3.227   1.960   3.907 -0.7485 -0.4171 -1.8818
 2695SOL    MW410828   3.168   1.899   3.928 -0.3772 -0.1915 -0.1683
 2696SOL     OW10829   2.505   0.525   4.715 -0.3598  0.1476 -0.6008
 2696SOL    HW210830   2.594   0.553   4.739 -0.0511 -1.8306  0.7877
 2696SOL    HW310831   2.517   0.470   4.638 -0.5172  0.8048 -1.0950
 2696SOL    MW410832   2.518   0.521   4.708 -0.3400 -0.0266 -0.4830
 2697SOL     OW10833   0.243   3.359   4.179  0.3256 -0.1892  0.6355
 2697SOL    HW210834   0.297   3.438   4.182  0.5437 -0.2630 -0.8928
 2697SOL    HW310835   0.305   3.288   4.162 -0.0198 -0.5215  0.7507
 2697SOL    MW410836   0.258   3.360   4.177  0.3088 -0.2429  0.4492
 2698SOL     OW10837   1.389   3.205   4.329  0.0694 -0.2720 -0.5127
 2698SOL    HW210838   1.316   3.176   4.275  0.6150 -0.8543 -0.9505
 2698SOL    HW310839   1.428   3.124   4.362 -0.0329  0.0688  0.4588
 2698SOL    MW410840   1.385   3.190   4.326  0.1279 -0.3035 -0.4420
 2699SOL     OW10841   1.262   0.976   4.518 -0.0060  0.1841 -0.2129
 2699SOL    HW210842   1.260   1.047   4.583  1.0933 -0.2106  0.2671
 2699SOL    HW310843   1.186   0.993   4.462  1.1373  2.6810 -1.1054
 2699SOL    MW410844   1.252   0.988   4.520  0.2900  0.4615 -0.2675
 2700SOL     OW10845   4.054   2.043   4.130  0.2522  0.7457  0.3324
 2700SOL    HW210846   4.076   1.984   4.202  0.7382  0.1392 -0.3168
 2700SOL    HW310847   4.045   1.986   4.054  0.6930  1.5014 -0.2910
 2700SOL    MW410848   4.055   2.028   4.129  0.3748  0.7653  0.1640
 2701SOL     OW10849   3.456   0.405   4.663  0.3084  0.3760 -0.4098
 2701SOL    HW210850   3.550   0.426   4.659  0.3295 -0.0014 -2.8413
 2701SOL    HW310851   3.453   0.312   4.686  0.5330  0.4200 -0.2031
 2701SOL    MW410852   3.468   0.395   4.665  0.3409  0.3321 -0.7029
 2702SOL     OW10853   0.039   2.778   4.189  0.1603  0.5835  0.4476
 2702SOL    HW210854  -0.009   2.718   4.246 -0.8062  0.9353  0.0151
 2702SOL    HW310855   0.015   2.750   4.100 -0.4295  1.7103  0.2441
 2702SOL    MW410856   0.030   2.766   4.185 -0.0451  0.7784  0.3638
 2703SOL     OW10857   0.683   1.568   3.994  0.6038 -0.5073 -0.0179
 2703SOL    HW210858   0.748   1.589   3.927  0.6740 -1.4184 -0.2475
 2703SOL    HW310859   0.735   1.552   4.073  0.7126 -1.6952 -0.3139
 2703SOL    MW410860   0.699   1.569   3.996  0.6275 -0.7844 -0.0873
 2704SOL     OW10861   2.780   0.162   4.554  0.4336  0.4339  0.4010
 2704SOL    HW210862   2.787   0.087   4.494 -0.3221 -0.2116  1.1104
 2704SOL    HW310863   2.841   0.227   4.518  0.1705 -0.0323 -0.9400
 2704SOL    MW410864   2.789   0.161   4.541  0.2992  0.2872  0.3181
 2705SOL     OW10865   3.320   2.591   4.255  0.1974 -0.0695 -0.9274
 2705SOL    HW210866   3.369   2.511   4.237 -0.9576 -0.8909 -0.4289
 2705SOL    HW310867   3.304   2.590   4.349  0.1287  0.7235 -0.9233
 2705SOL    MW410868   3.325   2.580   4.265  0.0360 -0.0737 -0.8612
 2706SOL     OW10869   0.239   2.233   4.135  0.0684  0.2259  0.3336
 2706SOL    HW210870   0.226   2.272   4.048 -1.3718  1.3736  1.0496
 2706SOL    HW310871   0.291   2.298   4.182  0.4746 -0.2041  0.4819
 2706SOL    MW410872   0.244   2.247   4.130 -0.0680  0.3204  0.4482
 2707SOL     OW10873   4.229   3.951   4.638 -0.3186 -0.5293  0.1864
 2707SOL    HW210874   4.206   3.977   4.549  0.0383 -1.1800 -0.0997
 2707SOL    HW310875   4.253   3.858   4.631 -1.0500 -0.7984  1.0938
 2707SOL    MW410876   4.229   3.942   4.626 -0.3681 -0.6506  0.2685
 2708SOL     OW10877   1.054   3.424   4.309 -0.3944  0.0215 -0.1179
 2708SOL    HW210878   1.023   3.400   4.396  1.2650 -0.8056  0.2799
 2708SOL    HW310879   1.121   3.490   4.325  0.3630 -0.5930 -0.7098
 2708SOL    MW410880   1.059   3.429   4.323 -0.0755 -0.1686 -0.1426
 2709SOL     OW10881   4.444   0.985   4.686 -0.0089 -0.3264  0.1226
 2709SOL    HW210882   4.375   0.948   4.740  0.5709 -1.6973 -0.0531
 2709SOL    HW310883   4.437   1.079   4.699 -1.0746 -0.5343  1.1119
 2709SOL    MW410884   4.434   0.993   4.695 -0.0734 -0.5347  0.2294
 2710SOL     OW10885   1.530   2.011   4.190  0.1059  0.2806  0.8711
 2710SOL    HW210886   1.513   2.105   4.191 -1.1358  0.0870 -0.6654
 2710SOL    HW310887   1.626   2.004   4.187  0.1969  1.4890  0.7941
 2710SOL    MW410888   1.540   2.022   4.190 -0.0459  0.4144  0.6585
 2711SOL     OW10889   2.566   0.329   4.512 -0.0452  0.4967  0.4650
 2711SOL    HW210890   2.595   0.391   4.446 -1.2153 -1.1472 -1.6585
 2711SOL    HW310891   2.646   0.283   4.538  0.4287  1.1899  0.2531
 2711SOL    MW410892   2.580   0.331   4.507 -0.1366  0.3713  0.1564
 2712SOL     OW10893   4.034   2.097   4.644  0.1391  0.0412 -0.4338
 2712SOL    HW210894   4.058   2.111   4.735  0.7464 -0.0822 -0.5682
 2712SOL    HW310895   4.091   2.025   4.615 -1.2333 -1.0618 -0.4365
 2712SOL    MW410896   4.045   2.089   4.652  0.0381 -0.1204 -0.4520
 2713SOL     OW10897   1.188   1.407   4.573  0.2089  0.1862 -0.0477
 2713SOL    HW210898   1.101   1.435   4.544 -0.2242 -0.4646  0.6007
 2713SOL    HW310899   1.223   1.482   4.620 -0.1390  0.3337 -0.0210
 2713SOL    MW410900   1.181   1.420   4.575  0.1059  0.1198  0.0410
 2714SOL     OW10901   3.453   1.421   4.418 -0.3562 -0.8420  0.2051
 2714SOL    HW210902   3.532   1.388   4.462  0.9294 -0.8272 -2.0559
 2714SOL    HW310903   3.384   1.360   4.446  0.3429 -0.6242  2.5148
 2714SOL    MW410904   3.455   1.408   4.428 -0.0947 -0.8113  0.2117
 2715SOL     OW10905   2.693   1.908   3.938  0.4786 -0.1363 -0.0775
 2715SOL    HW210906   2.759   1.973   3.912 -0.2621  0.5716 -0.1878
 2715SOL    HW310907   2.697   1.908   4.033  0.0781  0.4901 -0.0583
 2715SOL    MW410908   2.702   1.917   3.947  0.3281  0.0398 -0.0896
 2716SOL     OW10909   4.273   1.259   4.507 -0.1819  0.1240  0.4435
 2716SOL    HW210910   4.331   1.246   4.432 -0.9667 -0.3145 -0.1001
 2716SOL    HW310911   4.331   1.290   4.577  0.9347 -1.5416  0.3025
 2716SOL    MW410912   4.288   1.261   4.506 -0.1383 -0.1538  0.3538
 2717SOL     OW10913   3.791   4.302   4.533  0.6363  0.5773 -0.4505
 2717SOL    HW210914   3.829   4.218   4.561  0.0850  0.6924  0.6668
 2717SOL    HW310915   3.785   4.295   4.438 -3.2488 -2.3532 -0.1278
 2717SOL    MW410916   3.795   4.290   4.524  0.0510  0.2060 -0.2599
 2718SOL     OW10917   2.719   3.613   4.537  0.4896  0.2093 -0.3356
 2718SOL    HW210918   2.754   3.575   4.457  2.5619  0.7777  0.2856
 2718SOL    HW310919   2.722   3.707   4.523 -0.9025  0.2676 -0.3086
 2718SOL    MW410920   2.724   3.620   4.525  0.5794  0.2918 -0.2503
 2719SOL     OW10921   1.650   1.539   4.716 -0.0007  0.1696 -0.3715
 2719SOL    HW210922   1.614   1.594   4.785  1.3181  0.7547 -0.1304
 2719SOL    HW310923   1.745   1.550   4.723  0.4215 -3.4204  0.7687
 2719SOL    MW410924   1.658   1.548   4.726  0.2291 -0.2269 -0.1893
 2720SOL     OW10925   0.688   2.335   4.149  0.4715 -0.1260  0.2571
 2720SOL    HW210926   0.774   2.376   4.163  0.3050 -0.0370  1.0421
 2720SOL    HW310927   0.681   2.326   4.054  1.1270  0.3548  0.1590
 2720SOL    MW410928   0.698   2.339   4.138  0.5360 -0.0508  0.3481
 2721SOL     OW10929   0.050   3.248   3.557  0.5705 -0.1900  0.0137
 2721SOL    HW210930   0.047   3.337   3.521  2.4753 -0.4256 -0.7556
 2721SOL    HW310931  -0.030   3.207   3.523  0.6915  0.6027 -1.2700
 2721SOL    MW410932   0.039   3.254   3.548  0.8378 -0.1163 -0.2573
 2722SOL     OW10933   0.912   2.769   4.167 -0.5610 -0.3005  0.3838
 2722SOL    HW210934   0.921   2.674   4.176  0.1890 -0.1173  1.7085
 2722SOL    HW310935   0.897   2.783   4.074 -0.2400 -1.6803  0.1100
 2722SOL    MW410936   0.911   2.758   4.156 -0.4197 -0.4585  0.5226
 2723SOL     OW10937   1.316   2.723   3.864 -0.0832  0.5062 -0.4963
 2723SOL    HW210938   1.313   2.631   3.835  0.9580 -0.3419  1.9395
 2723SOL    HW310939   1.399   2.756   3.828  0.0718  0.1638 -0.4598
 2723SOL    MW410940   1.327   2.715   3.855  0.0745  0.3493 -0.1702
 2724SOL     OW10941   1.247   1.587   4.249 -0.7924  0.1761  0.4924
 2724SOL    HW210942   1.272   1.673   4.215 -1.1538  0.1663  0.1900
 2724SOL    HW310943   1.203   1.606   4.332 -0.3882  0.2412  0.6940
 2724SOL    MW410944   1.244   1.601   4.255 -0.7867  0.1833  0.4792
 2725SOL     OW10945   2.259   2.037   4.284 -0.1436 -0.6404 -0.2604
 2725SOL    HW210946   2.256   2.047   4.189  0.7526  0.8449 -0.1466
 2725SOL    HW310947   2.169   2.052   4.313 -0.0927  0.7138 -0.7378
 2725SOL    MW410948   2.247   2.041   4.276 -0.0188 -0.2658 -0.3080
 2726SOL     OW10949   2.299   3.194   3.802 -0.0911 -0.3138 -0.0125
 2726SOL    HW210950   2.366   3.126   3.797  0.1914  0.0225 -0.8922
 2726SOL    HW310951   2.347   3.276   3.793 -0.5574 -0.0452 -0.0784
 2726SOL    MW410952   2.314   3.196   3.800 -0.1154 -0.2339 -0.1373
 2727SOL     OW10953   3.314   2.141   4.295 -0.0460 -0.2840  0.5212
 2727SOL    HW210954   3.342   2.049   4.295 -0.4986 -0.4289  0.8426
 2727SOL    HW310955   3.305   2.162   4.388 -1.2911 -0.3362  0.4198
 2727SOL    MW410956   3.316   2.132   4.308 -0.2697 -0.3097  0.5507
 2728SOL     OW10957   3.073   3.697   4.800  0.1461 -0.2940  0.0443
 2728SOL    HW210958   3.110   3.624   4.749 -1.1581 -0.1183 -1.1894
 2728SOL    HW310959   3.032   3.655   4.876 -0.6738 -0.8669 -0.7047
 2728SOL    MW410960   3.073   3.682   4.803 -0.1342 -0.3464 -0.2174
 2729SOL     OW10961   2.222   1.743   4.000  0.3870  0.1542 -0.6019
 2729SOL    HW210962   2.151   1.691   3.963 -0.2609  0.2116  0.5223
 2729SOL    HW310963   2.190   1.769   4.087  1.0952  1.6087 -0.7544
 2729SOL    MW410964   2.209   1.740   4.007  0.3948  0.3537 -0.4740
 2730SOL     OW10965   2.268   3.694   4.701  0.0418  0.1283  0.0046
 2730SOL    HW210966   2.314   3.692   4.617  0.2216  1.8049  0.0575
 2730SOL    HW310967   2.239   3.603   4.714  1.6188 -0.5544 -0.9731
 2730SOL    MW410968   2.271   3.681   4.692  0.2735  0.2594 -0.1168
 2731SOL     OW10969   4.262   0.577   4.367 -0.1564 -0.2420  0.0882
 2731SOL    HW210970   4.275   0.656   4.315  0.2001 -0.9520 -0.9170
 2731SOL    HW310971   4.351   0.547   4.387 -0.2837  0.9132  2.4783
 2731SOL    MW410972   4.276   0.583   4.363 -0.1259 -0.1833  0.2708
 2732SOL     OW10973   0.293   4.620   4.688 -0.4831  0.5797  0.0752
 2732SOL    HW210974   0.264   4.642   4.600 -1.4078 -0.4628  0.1133
 2732SOL    HW310975   0.212   4.601   4.736  0.0929  0.0631  0.8569
 2732SOL    MW410976   0.278   4.621   4.683 -0.5291  0.3738  0.1836
 2733SOL     OW10977   3.077   2.599   4.118  0.5203 -0.3344 -0.1006
 2733SOL    HW210978   3.025   2.668   4.159  1.4483  0.6069 -0.4851
 2733SOL    HW310979   3.156   2.594   4.172  1.2658  0.1641 -1.1340
 2733SOL    MW410980   3.081   2.607   4.131  0.7410 -0.1445 -0.2875
 2734SOL     OW10981   1.882   4.204   4.655 -0.4197  0.5913  0.0024
 2734SOL    HW210982   1.862   4.116   4.684  0.7286 -0.0034 -0.9567
 2734SOL    HW310983   1.798   4.249   4.652 -1.1782 -0.8846 -0.8220
 2734SOL    MW410984   1.869   4.199   4.658 -0.3682  0.3176 -0.2327
 2735SOL     OW10985   3.418   0.943   4.692  0.5086  0.0721  0.4133
 2735SOL    HW210986   3.394   0.854   4.667  0.7138  0.5418 -1.5849
 2735SOL    HW310987   3.338   0.994   4.680  0.7224  0.3880  0.3021
 2735SOL    MW410988   3.404   0.938   4.687  0.5639  0.1758  0.1349
 2736SOL     OW10989   4.111   1.198   4.157  0.2293  0.3252 -0.3597
 2736SOL    HW210990   4.091   1.179   4.065  2.6187  0.8838 -1.0223
 2736SOL    HW310991   4.113   1.112   4.199  1.5574 -0.1484 -1.3599
 2736SOL    MW410992   4.109   1.184   4.150  0.7200  0.3364 -0.5789
 2737SOL     OW10993   0.353   1.956   3.820  0.2545  0.0719  0.5282
 2737SOL    HW210994   0.362   1.963   3.915  0.2546  0.8196  0.4757
 2737SOL    HW310995   0.431   1.999   3.785  0.9065 -1.3557  0.2060
 2737SOL    MW410996   0.364   1.963   3.828  0.3405 -0.0178  0.4787
 2738SOL     OW10997   1.220   2.739   4.510 -0.1411 -0.3704 -0.1298
 2738SOL    HW210998   1.213   2.781   4.424  1.2442 -1.4816 -0.8065
 2738SOL    HW310999   1.133   2.750   4.548 -0.4168  1.2600 -1.1359
 2738SOL    MW411000   1.207   2.746   4.503  0.0051 -0.3021 -0.3519
 2739SOL     OW11001   2.533   3.225   4.231  0.6645  0.1796  0.0422
 2739SOL    HW211002   2.445   3.194   4.208  0.5119  1.0714 -0.6285
 2739SOL    HW311003   2.589   3.194   4.159  0.5042  1.4517 -0.6503
 2739SOL    MW411004   2.529   3.217   4.218  0.6235  0.4652 -0.1369
 2740SOL     OW11005   2.836   3.906   4.184  0.1198 -0.1501 -0.3507
 2740SOL    HW211006   2.774   3.837   4.207 -0.3982  0.3421 -0.2706
 2740SOL    HW311007   2.790   3.987   4.204  0.5645  0.2282 -0.8617
 2740SOL    MW411008   2.822   3.907   4.190  0.1101 -0.0355 -0.4077
 2741SOL     OW11009   2.770   0.288   4.127  0.2643 -0.2158  0.1808
 2741SOL    HW211010   2.753   0.343   4.050  2.3185  1.3423  0.8015
 2741SOL    HW311011   2.683   0.263   4.158 -0.6639  1.1680 -1.2234
 2741SOL    MW411012   2.756   0.292   4.121  0.4127  0.1724  0.0782
 2742SOL     OW11013   0.097   0.789   4.536  0.2155  0.7088  0.3716
 2742SOL    HW211014   0.191   0.804   4.549  0.0833  1.7669  0.1371
 2742SOL    HW311015   0.055   0.852   4.593 -0.3611  1.0341 -0.4057
 2742SOL    MW411016   0.104   0.799   4.545  0.1220  0.8913  0.2379
 2743SOL     OW11017   3.209   2.616   4.520 -0.2345  0.3154 -0.4172
 2743SOL    HW211018   3.255   2.587   4.599 -0.2665  1.0332 -0.1262
 2743SOL    HW311019   3.218   2.711   4.521  0.8523  0.2482 -1.9461
 2743SOL    MW411020   3.216   2.625   4.531 -0.0949  0.4013 -0.5808
 2744SOL     OW11021   0.947   3.780   4.557  0.1508 -0.3218  0.2174
 2744SOL    HW211022   1.008   3.708   4.572  0.1373 -0.3117  0.3167
 2744SOL    HW311023   0.919   3.768   4.466  1.2291  0.3864 -0.2122
 2744SOL    MW411024   0.951   3.769   4.547  0.2913 -0.2270  0.1736
 2745SOL     OW11025   1.162   3.643   3.812  0.1398  0.0390  0.3823
 2745SOL    HW211026   1.156   3.727   3.858 -1.1060 -0.1574  0.5984
 2745SOL    HW311027   1.092   3.590   3.850  0.3049 -0.7687 -0.4299
 2745SOL    MW411028   1.152   3.647   3.823 -0.0027 -0.0935  0.3037
 2746SOL     OW11029   2.823   3.476   4.742 -0.0498 -0.0359  0.0843
 2746SOL    HW211030   2.785   3.541   4.682 -2.0570  0.1512  1.5381
 2746SOL    HW311031   2.910   3.459   4.706 -0.3020  1.8927 -1.5108
 2746SOL    MW411032   2.829   3.482   4.729 -0.3481  0.2432  0.0663
 2747SOL     OW11033   3.361   0.330   3.996 -0.1322 -0.0356  0.3141
 2747SOL    HW211034   3.450   0.319   4.029  0.1403 -0.0227 -0.4233
 2747SOL    HW311035   3.310   0.357   4.073  0.5119  0.0222  0.7179
 2747SOL    MW411036   3.366   0.332   4.011 -0.0112 -0.0263  0.2704
 2748SOL     OW11037   1.455   0.084   4.198  0.7297  0.4991 -0.2912
 2748SOL    HW211038   1.507   0.138   4.257  1.3890 -1.4727  0.9921
 2748SOL    HW311039   1.474  -0.006   4.225  0.8454 -0.4608 -3.3273
 2748SOL    MW411040   1.464   0.079   4.209  0.8320  0.1123 -0.5226
 2749SOL     OW11041   0.714   1.802   4.513  0.0535 -0.0651  0.2646
 2749SOL    HW211042   0.680   1.757   4.436 -0.7325  0.0488  0.5380
 2749SOL    HW311043   0.715   1.736   4.582  0.7625 -0.1688  0.1640
 2749SOL    MW411044   0.710   1.788   4.512  0.0433 -0.0635  0.2871
 2750SOL     OW11045   0.725   3.891   3.899 -0.0585  0.3163 -0.0868
 2750SOL    HW211046   0.699   3.805   3.865  0.3641 -0.2514  0.9927
 2750SOL    HW311047   0.646   3.945   3.889 -0.0715  0.0632 -1.5692
 2750SOL    MW411048   0.711   3.887   3.893 -0.0045  0.2079 -0.1400
 2751SOL     OW11049   0.057   0.530   4.411 -0.1058  0.2581  0.8273
 2751SOL    HW211050   0.078   0.465   4.478 -2.4531  0.3974  1.7377
 2751SOL    HW311051   0.084   0.613   4.449 -0.1594  0.1837  1.0264
 2751SOL    MW411052   0.063   0.532   4.425 -0.4226  0.2666  0.9742
 2752SOL     OW11053   3.452   0.802   4.153  0.1704 -0.1926  0.2996
 2752SOL    HW211054   3.532   0.757   4.181  0.1876 -0.5864 -0.3754
 2752SOL    HW311055   3.384   0.769   4.212  0.5685  0.4319  1.1292
 2752SOL    MW411056   3.454   0.792   4.165  0.2251 -0.1622  0.3204
 2753SOL     OW11057   4.357   1.834   4.215 -0.0798 -0.2632  0.1009
 2753SOL    HW211058   4.271   1.845   4.255  0.1923 -0.6098  0.7942
 2753SOL    HW311059   4.395   1.759   4.260  0.3172 -0.5305 -0.6702
 2753SOL    MW411060   4.351   1.826   4.226  0.0086 -0.3442  0.0906
 2754SOL     OW11061   4.470   2.118   4.225  0.5146  0.2885  0.3249
 2754SOL    HW211062   4.470   2.032   4.182 -0.3910  0.6524 -0.4338
 2754SOL    HW311063   4.548   2.161   4.192  0.3953  0.1591 -0.1325
 2754SOL    MW411064   4.480   2.112   4.215  0.3796  0.3195  0.1640
 2755SOL     OW11065   3.107   3.521   3.939 -0.2142 -0.4331 -0.8157
 2755SOL    HW211066   3.122   3.436   3.899  0.4639 -0.4755 -0.4945
 2755SOL    HW311067   3.184   3.573   3.915 -0.6250  0.0895 -1.0190
 2755SOL    MW411068   3.120   3.517   3.931 -0.1791 -0.3695 -0.8004
 2756SOL     OW11069   0.388   3.594   4.170 -0.1665 -0.1989  0.3015
 2756SOL    HW211070   0.348   3.681   4.172 -0.7695 -0.4725  0.6223
 2756SOL    HW311071   0.433   3.587   4.254  0.9874  0.2981 -0.2631
 2756SOL    MW411072   0.389   3.605   4.182 -0.0938 -0.1695  0.2694
 2757SOL     OW11073   2.288   2.818   4.482  0.5097 -0.6040 -0.0412
 2757SOL    HW211074   2.271   2.726   4.502  0.6288 -0.6246 -0.0334
 2757SOL    HW311075   2.301   2.820   4.387  1.3585 -0.7277  0.0726
 2757SOL    MW411076   2.287   2.806   4.472  0.6375 -0.6235 -0.0253
 2758SOL     OW11077   3.033   2.182   4.330 -0.3822  0.1199  0.0287
 2758SOL    HW211078   3.121   2.169   4.293 -0.6905 -1.7098 -0.1094
 2758SOL    HW311079   2.987   2.233   4.263  0.3025  0.3163 -0.3038
 2758SOL    MW411080   3.039   2.187   4.316 -0.3324 -0.0958 -0.0334
 2759SOL     OW11081   1.103   2.331   4.145 -0.3187  0.5196 -0.1870
 2759SOL    HW211082   1.125   2.332   4.052 -1.2616  0.4751 -0.4121
 2759SOL    HW311083   1.184   2.358   4.189  0.1283  0.5372 -1.0178
 2759SOL    MW411084   1.117   2.335   4.139 -0.3842  0.5162 -0.3266
 2760SOL     OW11085   0.670   3.718   4.615  0.0647 -0.0479 -0.0810
 2760SOL    HW211086   0.633   3.737   4.529 -1.6065  0.6482  0.7718
 2760SOL    HW311087   0.757   3.759   4.613 -0.5693  1.2924 -0.8925
 2760SOL    MW411088   0.677   3.726   4.604 -0.2394  0.2208 -0.0753
 2761SOL     OW11089   1.811   4.196   4.174  0.3126  0.3432 -0.1432
 2761SOL    HW211090   1.858   4.113   4.170  0.8061  0.5862  0.5610
 2761SOL    HW311091   1.871   4.256   4.218 -0.5528  0.7345  0.5279
 2761SOL    MW411092   1.825   4.193   4.179  0.2637  0.4272  0.0386
 2762SOL     OW11093   1.147   0.736   4.641 -0.1969 -0.2877 -0.6965
 2762SOL    HW211094   1.186   0.819   4.613 -1.8449  0.4467 -0.8343
 2762SOL    HW311095   1.216   0.693   4.692  1.2770  0.3538 -2.1229
 2762SOL    MW411096   1.161   0.741   4.644 -0.2199 -0.1062 -0.9031
 2763SOL     OW11097   2.009   2.767   4.302 -0.3663  0.1853  0.0602
 2763SOL    HW211098   2.028   2.860   4.292  0.6252  0.1501  1.5638
 2763SOL    HW311099   1.992   2.755   4.395 -1.7984 -0.9046 -0.3267
 2763SOL    MW411100   2.009   2.778   4.313 -0.4246  0.0370  0.2079
 2764SOL     OW11101   2.727   1.161   4.498  0.0583  0.6424 -0.0676
 2764SOL    HW211102   2.811   1.117   4.489  0.6753  1.8377 -0.2849
 2764SOL    HW311103   2.688   1.158   4.411  0.1829  0.6706 -0.1251
 2764SOL    MW411104   2.733   1.155   4.486  0.1559  0.8038 -0.1035
 2765SOL     OW11105   3.628   3.253   4.605 -0.2322 -0.0177 -0.5439
 2765SOL    HW211106   3.622   3.346   4.586 -0.9582 -0.1751 -1.0953
 2765SOL    HW311107   3.538   3.226   4.623  0.1608 -0.3227  0.9987
 2765SOL    MW411108   3.616   3.261   4.605 -0.2763 -0.0787 -0.4125
 2766SOL     OW11109   2.671   2.508   4.230 -0.1925 -0.3463 -0.1343
 2766SOL    HW211110   2.658   2.594   4.190  1.0708  0.8050  1.8694
 2766SOL    HW311111   2.625   2.513   4.313  0.5106 -1.3501  0.3249
 2766SOL    MW411112   2.663   2.520   4.235  0.0670 -0.3269  0.1912
 2767SOL     OW11113   4.048   3.886   3.851 -0.2390  0.3543  0.1284
 2767SOL    HW211114   4.054   3.893   3.756  1.1652  1.7656  0.3049
 2767SOL    HW311115   4.137   3.871   3.880 -0.5545  0.6792  1.2849
 2767SOL    MW411116   4.060   3.885   3.842 -0.0954  0.5836  0.3042
 2768SOL     OW11117   1.821   3.256   3.815 -0.2681  0.5402  0.0985
 2768SOL    HW211118   1.751   3.212   3.862 -0.8247  0.0689 -1.1676
 2768SOL    HW311119   1.900   3.208   3.840 -0.4488  0.7407  1.1061
 2768SOL    MW411120   1.822   3.244   3.825 -0.3654  0.5043  0.0648
 2769SOL     OW11121   1.841   3.918   4.773  0.2397  0.0709  0.2856
 2769SOL    HW211122   1.814   3.891   4.861  0.0660 -1.1872 -0.1580
 2769SOL    HW311123   1.787   3.867   4.714  0.6262  0.6390 -0.5714
 2769SOL    MW411124   1.830   3.908   4.777  0.2677 -0.0200  0.1144
 2770SOL     OW11125   2.325   4.360   4.161  0.5988  0.3335  0.0984
 2770SOL    HW211126   2.313   4.328   4.072  0.1577  0.2320  0.1939
 2770SOL    HW311127   2.365   4.446   4.150 -0.5607  0.8472 -0.2456
 2770SOL    MW411128   2.328   4.367   4.148  0.3877  0.3881  0.0653
 2771SOL     OW11129   4.458   2.068   4.499  0.2892 -0.0966 -0.1192
 2771SOL    HW211130   4.437   2.088   4.408  0.1700 -0.4142 -0.1590
 2771SOL    HW311131   4.463   2.154   4.541  0.3875  0.0521 -0.4329
 2771SOL    MW411132   4.456   2.082   4.493  0.2866 -0.1187 -0.1659
 2772SOL     OW11133   1.998   1.274   4.305 -0.0399 -0.3453 -0.1569
 2772SOL    HW211134   1.969   1.351   4.256 -1.7492 -0.8947 -0.0410
 2772SOL    HW311135   2.075   1.243   4.258 -0.4620  0.3138 -1.3017
 2772SOL    MW411136   2.004   1.280   4.293 -0.3214 -0.3307 -0.2923
 2773SOL     OW11137   3.487   4.465   4.339 -0.2763  0.1200  0.3087
 2773SOL    HW211138   3.531   4.401   4.283  0.8706  1.2936 -0.1305
 2773SOL    HW311139   3.399   4.472   4.302 -0.1357 -0.5513 -0.1680
 2773SOL    MW411140   3.481   4.457   4.327 -0.1066  0.1860  0.1879
 2774SOL     OW11141   3.303   3.878   4.709 -0.0331  0.7016  0.1101
 2774SOL    HW211142   3.237   3.837   4.764 -0.8124  1.5072 -0.2224
 2774SOL    HW311143   3.297   3.971   4.728 -0.1327  0.9631 -1.1309
 2774SOL    MW411144   3.294   3.885   4.719 -0.1490  0.8423 -0.0978
 2775SOL     OW11145   0.032   4.311   4.731 -0.0911 -0.0688 -0.1593
 2775SOL    HW211146  -0.032   4.352   4.674  0.2775 -0.4475 -0.8436
 2775SOL    HW311147   0.018   4.217   4.722  0.1975 -0.1406  0.0986
 2775SOL    MW411148   0.022   4.304   4.723 -0.0044 -0.1283 -0.2160
 2776SOL     OW11149   2.639   2.760   4.104  0.2819  0.2114 -0.4868
 2776SOL    HW211150   2.692   2.826   4.149 -0.7807  0.6175  0.1925
 2776SOL    HW311151   2.682   2.748   4.020  0.2611  2.0755 -0.7854
 2776SOL    MW411152   2.651   2.767   4.099  0.1390  0.5109 -0.4368
 2777SOL     OW11153   3.486   0.097   4.660 -0.4643 -0.3852  0.2377
 2777SOL    HW211154   3.441   0.024   4.701  1.1685 -1.0574  0.8440
 2777SOL    HW311155   3.579   0.080   4.674  0.0708  0.2075 -2.2967
 2777SOL    MW411156   3.492   0.085   4.667 -0.1781 -0.3957 -0.0167
 2778SOL     OW11157   1.825   0.115   4.572 -0.6406  0.1561 -0.1500
 2778SOL    HW211158   1.905   0.066   4.553 -0.3497  0.2608  0.7810
 2778SOL    HW311159   1.854   0.203   4.595 -0.8812 -0.2259  1.7330
 2778SOL    MW411160   1.839   0.120   4.573 -0.6338  0.1195  0.2213
 2779SOL     OW11161   3.112   1.367   4.757  0.1292 -0.1666  0.0233
 2779SOL    HW211162   3.079   1.457   4.758 -1.2077 -0.6468  0.6105
 2779SOL    HW311163   3.205   1.374   4.777  0.3059  1.1925 -1.1995
 2779SOL    MW411164   3.120   1.379   4.759 -0.0241 -0.0505 -0.0610
 2780SOL     OW11165   1.638   0.775   3.913  0.2266 -0.6689  0.5397
 2780SOL    HW211166   1.640   0.780   4.008  1.0534 -0.4254  0.5076
 2780SOL    HW311167   1.714   0.825   3.884  0.6398 -1.7019 -0.2087
 2780SOL    MW411168   1.648   0.782   3.922  0.3902 -0.7731  0.4365
 2781SOL     OW11169   2.760   3.449   4.296  0.3347 -0.0884 -0.3154
 2781SOL    HW211170   2.839   3.408   4.261 -1.0404 -1.5264 -1.7974
 2781SOL    HW311171   2.690   3.387   4.277 -1.4819  2.0189 -0.7807
 2781SOL    MW411172   2.762   3.435   4.289 -0.0861 -0.0002 -0.5717
 2782SOL     OW11173   1.133   0.011   3.872  0.4277  0.7381  0.6782
 2782SOL    HW211174   1.066   0.054   3.819 -2.1521 -1.3346  2.1563
 2782SOL    HW311175   1.132  -0.080   3.843  1.7601  0.4105  1.6087
 2782SOL    MW411176   1.124   0.005   3.861  0.2632  0.4215  0.9961
 2783SOL     OW11177   3.860   4.372   4.240  0.2532 -0.0323 -0.6732
 2783SOL    HW211178   3.850   4.463   4.214  0.1104 -0.0683 -0.7486
 2783SOL    HW311179   3.781   4.329   4.206  0.0101 -0.0599 -0.0850
 2783SOL    MW411180   3.848   4.378   4.232  0.2019 -0.0410 -0.6061
 2784SOL     OW11181   0.630   0.788   4.539 -0.1285 -0.3808  0.2124
 2784SOL    HW211182   0.665   0.783   4.450  2.2467  0.3492  1.0593
 2784SOL    HW311183   0.632   0.698   4.571 -0.5278 -0.5718 -0.2824
 2784SOL    MW411184   0.635   0.776   4.531  0.1322 -0.3098  0.2589
 2785SOL     OW11185   3.387   2.465   4.710  0.4797 -0.0803  0.5171
 2785SOL    HW211186   3.375   2.396   4.645  0.4683  0.5181 -0.1206
 2785SOL    HW311187   3.338   2.435   4.787 -0.9299 -0.0079 -0.3283
 2785SOL    MW411188   3.379   2.452   4.712  0.2923  0.0081  0.3209
 2786SOL     OW11189   3.320   4.150   4.769 -0.1423  0.4036 -0.4210
 2786SOL    HW211190   3.397   4.204   4.753  1.0597 -0.9846  0.5800
 2786SOL    HW311191   3.254   4.184   4.708  1.9365  0.1498 -2.9129
 2786SOL    MW411192   3.321   4.162   4.758  0.2906  0.1874 -0.6175
 2787SOL     OW11193   2.877   4.267   4.462 -0.4146 -0.2011 -0.2723
 2787SOL    HW211194   2.856   4.216   4.384 -0.3070  0.6680 -0.8708
 2787SOL    HW311195   2.824   4.347   4.454  0.7771  0.6057 -0.2516
 2787SOL    MW411196   2.868   4.271   4.451 -0.2432  0.0200 -0.3486
 2788SOL     OW11197   1.497   2.741   4.580  0.0034 -0.6941  0.3275
 2788SOL    HW211198   1.402   2.731   4.591  0.1343 -1.4414  0.8225
 2788SOL    HW311199   1.530   2.747   4.669  0.1139  2.6941  0.1168
 2788SOL    MW411200   1.489   2.741   4.593  0.0353 -0.3455  0.3648
 2789SOL     OW11201   2.192   2.658   4.118  0.1667  0.3647 -0.3227
 2789SOL    HW211202   2.123   2.669   4.184  1.2440  1.6488  0.6042
 2789SOL    HW311203   2.224   2.569   4.131 -1.1237 -0.1526 -0.5882
 2789SOL    MW411204   2.187   2.648   4.128  0.1385  0.4656 -0.2360
 2790SOL     OW11205   0.469   3.492   3.924  0.1964 -0.0417  0.3562
 2790SOL    HW211206   0.452   3.527   4.011  2.1535  1.1808  0.2896
 2790SOL    HW311207   0.536   3.550   3.888  1.0432 -1.8565 -1.0945
 2790SOL    MW411208   0.476   3.504   3.931  0.5664 -0.1202  0.1559
 2791SOL     OW11209   1.557   1.312   3.769  0.4055 -0.1785  0.4116
 2791SOL    HW211210   1.484   1.265   3.810 -0.3536  0.6931  0.0752
 2791SOL    HW311211   1.635   1.267   3.800 -0.3165 -1.7644 -0.0340
 2791SOL    MW411212   1.557   1.300   3.779  0.2100 -0.2728  0.3085
 2792SOL     OW11213   2.394   1.587   3.808  0.1122 -0.4085 -0.3956
 2792SOL    HW211214   2.340   1.619   3.881 -1.2661 -0.8987 -1.1748
 2792SOL    HW311215   2.466   1.650   3.802 -1.3933  1.3541 -0.5243
 2792SOL    MW411216   2.396   1.599   3.817 -0.2682 -0.2406 -0.5155
 2793SOL     OW11217   0.252   0.764   3.902  0.2437 -0.0243  0.0609
 2793SOL    HW211218   0.268   0.801   3.988  0.3816 -0.7535  0.3534
 2793SOL    HW311219   0.167   0.800   3.875  1.4955  2.4152 -0.7198
 2793SOL    MW411220   0.243   0.774   3.910  0.4270  0.2013 -0.0033
 2794SOL     OW11221   2.055   3.104   3.912  0.1162 -0.3700  0.0085
 2794SOL    HW211222   2.126   3.150   3.869  0.6433 -0.0527  1.1925
 2794SOL    HW311223   2.057   3.016   3.875  0.8979 -0.2529 -0.2340
 2794SOL    MW411224   2.064   3.098   3.902  0.2890 -0.3128  0.1328
 2795SOL     OW11225   0.578   2.332   4.394 -0.2067  0.0261  0.1532
 2795SOL    HW211226   0.621   2.315   4.310 -1.7597  0.5793 -0.7711
 2795SOL    HW311227   0.534   2.250   4.415  1.8491 -0.7848  1.4694
 2795SOL    MW411228   0.578   2.319   4.386 -0.1404 -0.0079  0.2050
 2796SOL     OW11229   0.761   1.183   4.678 -0.3994  0.4445 -0.4158
 2796SOL    HW211230   0.805   1.098   4.679 -0.1518  0.5588 -1.3359
 2796SOL    HW311231   0.674   1.166   4.713  0.2305  0.1377  1.0480
 2796SOL    MW411232   0.756   1.170   4.683 -0.2837  0.4191 -0.3438
 2797SOL     OW11233   3.814   1.644   4.239 -0.6826 -0.6325 -0.4487
 2797SOL    HW211234   3.897   1.596   4.244 -0.8029 -0.8872 -0.8952
 2797SOL    HW311235   3.787   1.654   4.331  0.6306  0.8396 -0.2012
 2797SOL    MW411236   3.821   1.639   4.252 -0.5252 -0.4718 -0.4749
 2798SOL     OW11237   0.337   1.110   4.343 -0.0141  0.0256 -0.3411
 2798SOL    HW211238   0.286   1.190   4.354  0.6781  0.2848  1.0152
 2798SOL    HW311239   0.411   1.135   4.289  0.7141  0.5247  0.8816
 2798SOL    MW411240   0.340   1.124   4.337  0.1733  0.1256 -0.0014
 2799SOL     OW11241   2.730   2.701   3.823 -0.5269 -0.1799  0.5173
 2799SOL    HW211242   2.799   2.764   3.803  0.0175 -1.1956 -0.8921
 2799SOL    HW311243   2.650   2.741   3.790 -0.2850  0.0381  0.1983
 2799SOL    MW411244   2.729   2.715   3.816 -0.4232 -0.2849  0.2894
 2800SOL     OW11245   3.976   3.905   4.785  0.1597 -0.7341 -0.3105
 2800SOL    HW211246   3.988   3.948   4.869 -1.2379  1.0562 -0.9987
 2800SOL    HW311247   4.062   3.909   4.743  0.8588 -1.6241  1.0022
 2800SOL    MW411248   3.989   3.911   4.791  0.0679 -0.6151 -0.2284
 2801SOL     OW11249   0.689   1.303   3.850 -0.2313  0.0665  0.2192
 2801SOL    HW211250   0.676   1.389   3.892 -0.6920 -0.3578  0.9638
 2801SOL    HW311251   0.680   1.321   3.757 -1.6639  0.6182  0.4344
 2801SOL    MW411252   0.686   1.317   3.843 -0.4811  0.0833  0.3459
 2802SOL     OW11253   3.230   0.397   4.232 -0.7465 -0.2273  0.1526
 2802SOL    HW211254   3.164   0.328   4.232 -0.6037 -0.3660  0.1334
 2802SOL    HW311255   3.302   0.361   4.285 -0.0424 -0.7049 -1.0996
 2802SOL    MW411256   3.231   0.383   4.239 -0.6347 -0.3086 -0.0153
 2803SOL     OW11257   2.906   3.544   4.993  0.8122  0.5235 -0.2258
 2803SOL    HW211258   2.873   3.477   5.053 -0.4879 -0.6792 -2.2274
 2803SOL    HW311259   2.871   3.519   4.908  5.2017  0.4063 -2.1046
 2803SOL    MW411260   2.897   3.532   4.990  1.2197  0.3493 -0.7377
 2804SOL     OW11261   1.999   2.281   4.160  0.4619 -0.3611  0.0668
 2804SOL    HW211262   1.914   2.325   4.174  0.3974 -0.6854  0.7088
 2804SOL    HW311263   2.007   2.221   4.233  1.1612 -0.4825 -0.1073
 2804SOL    MW411264   1.989   2.279   4.171  0.5459 -0.4199  0.1287
 2805SOL     OW11265   1.310   1.846   4.166 -0.4447 -0.2790 -0.1006
 2805SOL    HW211266   1.392   1.893   4.183 -0.4082 -0.7995  1.2242
 2805SOL    HW311267   1.244   1.915   4.162 -0.1861  0.0136  0.4895
 2805SOL    MW411268   1.312   1.862   4.168 -0.4058 -0.3090  0.1521
 2806SOL     OW11269   2.574   3.197   4.499  0.7147 -0.1763  0.2340
 2806SOL    HW211270   2.572   3.200   4.403  1.1859  0.0615  0.2278
 2806SOL    HW311271   2.585   3.104   4.520  0.9249 -0.1955  0.0449
 2806SOL    MW411272   2.575   3.185   4.489  0.8047 -0.1478  0.2084
 2807SOL     OW11273   1.291   4.493   4.564 -0.0155 -0.1745 -0.1065
 2807SOL    HW211274   1.293   4.411   4.612  0.2167  1.5119  2.9043
 2807SOL    HW311275   1.383   4.520   4.558  0.0350 -0.6721 -2.1621
 2807SOL    MW411276   1.304   4.486   4.569  0.0218 -0.0176  0.0200
 2808SOL     OW11277   2.730   2.649   4.644  0.2607  0.2059  0.3017
 2808SOL    HW211278   2.800   2.589   4.668 -0.7511 -1.2888 -0.3794
 2808SOL    HW311279   2.713   2.700   4.723  1.1108 -0.4257  0.8958
 2808SOL    MW411280   2.737   2.648   4.657  0.2394 -0.0746  0.2899
 2809SOL     OW11281   0.663   3.629   3.810  0.2519 -0.1129 -0.4915
 2809SOL    HW211282   0.746   3.599   3.846  0.5371 -0.1086 -1.1533
 2809SOL    HW311283   0.675   3.627   3.715 -0.2741  0.5240 -0.5746
 2809SOL    MW411284   0.675   3.625   3.802  0.2201 -0.0281 -0.5898
 2810SOL     OW11285   2.998   3.889   4.587 -0.1975  0.3136  0.1521
 2810SOL    HW211286   3.016   3.826   4.656 -0.5761  0.2742  0.2157
 2810SOL    HW311287   2.903   3.882   4.571 -0.3769  1.3759  0.6693
 2810SOL    MW411288   2.987   3.880   4.594 -0.2713  0.4485  0.2289
 2811SOL     OW11289   2.486   2.788   3.745 -0.0676 -0.1429  0.1676
 2811SOL    HW211290   2.508   2.879   3.762 -0.7949  0.4041 -1.7007
 2811SOL    HW311291   2.398   2.777   3.779 -0.1583 -0.0235 -0.0298
 2811SOL    MW411292   2.477   2.798   3.751 -0.1757 -0.0548 -0.1051
 2812SOL     OW11293   1.290   3.905   4.324 -0.0471  0.0766 -0.4607
 2812SOL    HW211294   1.227   3.939   4.261  0.8021 -1.0415 -1.9432
 2812SOL    HW311295   1.253   3.821   4.352  0.1155  0.0527 -0.3201
 2812SOL    MW411296   1.277   3.898   4.319  0.0864 -0.0741 -0.6375
 2813SOL     OW11297   3.129   3.993   3.785 -0.3447 -0.2640  0.6052
 2813SOL    HW211298   3.130   4.083   3.817 -1.5293 -0.3199  0.8035
 2813SOL    HW311299   3.050   3.955   3.823  0.0355 -1.3212  0.3401
 2813SOL    MW411300   3.119   4.000   3.794 -0.4511 -0.4101  0.5963
 2814SOL     OW11301   3.133   2.684   3.854  0.1538 -0.4577 -0.4763
 2814SOL    HW211302   3.144   2.675   3.949  0.1320 -0.7660 -0.5029
 2814SOL    HW311303   3.136   2.595   3.821 -0.1279 -0.3715 -0.7361
 2814SOL    MW411304   3.135   2.671   3.862  0.1137 -0.4871 -0.5140
 2815SOL     OW11305   2.513   2.508   4.490 -0.2489  0.2273  0.2673
 2815SOL    HW211306   2.423   2.540   4.489 -0.4586 -0.3551 -0.0702
 2815SOL    HW311307   2.561   2.571   4.544 -1.3315 -0.6841  2.3563
 2815SOL    MW411308   2.507   2.520   4.497 -0.4196  0.0303  0.4983
 2816SOL     OW11309   3.975   2.638   4.178  0.0673  0.1365  0.2183
 2816SOL    HW211310   3.961   2.712   4.237 -1.0719 -0.4669  0.7150
 2816SOL    HW311311   4.042   2.586   4.222  0.3826  0.5176  0.1968
 2816SOL    MW411312   3.982   2.641   4.192 -0.0415  0.1073  0.2809
 2817SOL     OW11313   3.358   3.159   4.591  0.0774 -0.6901  0.2333
 2817SOL    HW211314   3.279   3.184   4.543  0.1709 -0.3103  0.2756
 2817SOL    HW311315   3.346   3.065   4.610 -0.9944 -0.3352  1.4080
 2817SOL    MW411316   3.346   3.150   4.587 -0.0517 -0.5932  0.3943
 2818SOL     OW11317   1.642   4.328   4.620  0.4684 -0.7124  0.0830
 2818SOL    HW211318   1.642   4.303   4.527 -0.3574  0.5623 -0.2759
 2818SOL    HW311319   1.557   4.298   4.653 -0.7647  2.0156 -0.4888
 2818SOL    MW411320   1.631   4.321   4.612  0.1967 -0.1841 -0.0391
 2819SOL     OW11321   2.568   1.158   4.262 -0.1095 -0.3059 -0.3314
 2819SOL    HW211322   2.634   1.197   4.205  0.2408  0.8282  0.8479
 2819SOL    HW311323   2.524   1.232   4.302  1.3399 -1.0862  2.8164
 2819SOL    MW411324   2.571   1.173   4.260  0.1276 -0.2594  0.2394
 2820SOL     OW11325   3.289   3.697   4.317 -0.5710 -0.7919  0.3271
 2820SOL    HW211326   3.310   3.661   4.403 -0.5544 -0.7161  0.3545
 2820SOL    HW311327   3.218   3.759   4.333  0.8460  0.8032  0.5970
 2820SOL    MW411328   3.282   3.700   4.330 -0.3817 -0.5715  0.3662
 2821SOL     OW11329   0.370   3.121   4.116  0.0574 -0.5789  0.2834
 2821SOL    HW211330   0.334   3.105   4.029 -0.6089  0.7713  0.2897
 2821SOL    HW311331   0.329   3.055   4.172  0.1573 -1.1709 -0.3517
 2821SOL    MW411332   0.360   3.110   4.112 -0.0173 -0.4785  0.2003
 2822SOL     OW11333   1.001   4.605   4.123 -0.5177  0.2558 -0.2245
 2822SOL    HW211334   1.033   4.609   4.033  1.0976 -0.8616  0.2713
 2822SOL    HW311335   1.053   4.670   4.170 -2.5145  2.0324 -0.4056
 2822SOL    MW411336   1.012   4.614   4.118 -0.5680  0.3428 -0.1826
 2823SOL     OW11337   1.593   0.023   3.956 -0.4697 -0.3389 -0.1036
 2823SOL    HW211338   1.578  -0.070   3.944 -2.6877 -0.0241  0.0808
 2823SOL    HW311339   1.558   0.042   4.043 -1.6445  0.9989 -0.8457
 2823SOL    MW411340   1.586   0.014   3.966 -0.9172 -0.1208 -0.1771
 2824SOL     OW11341   3.878   0.161   4.433  0.1877  0.5916 -0.1494
 2824SOL    HW211342   3.871   0.094   4.365  1.1270 -0.3666  0.6653
 2824SOL    HW311343   3.909   0.239   4.387  0.5939  0.0130 -0.8675
 2824SOL    MW411344   3.881   0.162   4.418  0.3653  0.3888 -0.1359
 2825SOL     OW11345   0.818   2.630   4.616 -0.1705  0.1190  0.3261
 2825SOL    HW211346   0.731   2.613   4.582 -0.1812  0.2785  0.2732
 2825SOL    HW311347   0.839   2.718   4.586 -0.0493  0.1368  0.4587
 2825SOL    MW411348   0.810   2.639   4.608 -0.1560  0.1426  0.3362
 2826SOL     OW11349   0.327   0.885   4.182 -0.3869  0.1367  0.3296
 2826SOL    HW211350   0.339   0.964   4.234 -1.1103  0.9568 -0.7178
 2826SOL    HW311351   0.404   0.831   4.201 -0.4484  0.5883  1.9229
 2826SOL    MW411352   0.339   0.888   4.192 -0.4904  0.3045  0.4015
 2827SOL     OW11353   3.775   4.648   3.926 -0.4700  0.4777  0.0832
 2827SOL    HW211354   3.855   4.698   3.908 -0.6930  0.9318  0.3465
 2827SOL    HW311355   3.800   4.556   3.912  0.1018  0.6173  0.1897
 2827SOL    MW411356   3.789   4.642   3.922 -0.4237  0.5560  0.1318
 2828SOL     OW11357   2.541   0.152   4.275 -0.5018 -0.4150 -0.3891
 2828SOL    HW211358   2.464   0.190   4.232  0.2519  1.5207 -0.1038
 2828SOL    HW311359   2.539   0.189   4.363 -0.2527 -1.8214  0.2162
 2828SOL    MW411360   2.530   0.162   4.281 -0.3693 -0.3452 -0.2718
 2829SOL     OW11361   0.663   3.871   4.171 -0.1539  0.4675  0.8124
 2829SOL    HW211362   0.746   3.836   4.204  0.2506 -0.2911 -0.9444
 2829SOL    HW311363   0.680   3.888   4.078 -1.8738  0.5968  0.5070
 2829SOL    MW411364   0.676   3.869   4.163 -0.3275  0.3846  0.5403
 2830SOL     OW11365   2.399   3.868   4.261  0.5495  0.4770 -0.1580
 2830SOL    HW211366   2.305   3.876   4.277  0.2783 -0.8571 -1.0327
 2830SOL    HW311367   2.435   3.954   4.285 -0.8912  1.0077  0.1300
 2830SOL    MW411368   2.391   3.881   4.266  0.3235  0.3710 -0.2351
 2831SOL     OW11369   2.529   2.937   4.554  0.3070 -0.0708  0.8398
 2831SOL    HW211370   2.445   2.894   4.536  0.3775 -0.2742  1.0018
 2831SOL    HW311371   2.530   2.949   4.649  0.5586 -0.2687  0.8616
 2831SOL    MW411372   2.518   2.933   4.564  0.3495 -0.1240  0.8640
 2832SOL     OW11373   4.073   0.382   4.294 -0.0844 -0.2067  0.3184
 2832SOL    HW211374   4.075   0.355   4.202  0.5860 -2.4888  0.9697
 2832SOL    HW311375   4.127   0.460   4.297 -0.9863  0.5122 -1.4121
 2832SOL    MW411376   4.080   0.389   4.283 -0.1149 -0.4129  0.1755
 2833SOL     OW11377   4.056   3.276   4.321 -0.2633  0.4025 -0.1633
 2833SOL    HW211378   4.036   3.360   4.279 -1.1781  0.0541 -0.4459
 2833SOL    HW311379   3.986   3.218   4.292  0.1079 -0.3361  0.4050
 2833SOL    MW411380   4.044   3.279   4.312 -0.3347  0.2592 -0.1259
 2834SOL     OW11381   1.355   0.389   4.472 -0.4320 -0.7071 -0.0639
 2834SOL    HW211382   1.260   0.393   4.468 -0.4158 -0.4795 -0.1881
 2834SOL    HW311383   1.385   0.425   4.389 -0.2134  0.0825  0.3486
 2834SOL    MW411384   1.347   0.394   4.461 -0.4011 -0.5729 -0.0262
 2835SOL     OW11385   1.058   0.611   4.383  0.3565 -0.4564  0.0134
 2835SOL    HW211386   1.065   0.518   4.401 -2.1654 -0.9052 -1.1264
 2835SOL    HW311387   1.064   0.653   4.469  0.2566 -1.7607  0.6649
 2835SOL    MW411388   1.060   0.604   4.397  0.0105 -0.6876 -0.0515
 2836SOL     OW11389   1.439   3.461   4.224 -0.0639  0.8063 -0.0207
 2836SOL    HW211390   1.414   3.372   4.249  0.7383  0.7271  0.4907
 2836SOL    HW311391   1.401   3.472   4.137  0.1558 -0.1691 -0.2477
 2836SOL    MW411392   1.431   3.451   4.216  0.0709  0.6673  0.0162
 2837SOL     OW11393   1.475   1.483   4.120  0.4237  0.2256 -0.3892
 2837SOL    HW211394   1.529   1.411   4.153  0.0945  0.0708 -0.1738
 2837SOL    HW311395   1.401   1.486   4.181 -0.6735 -0.6719 -1.6310
 2837SOL    MW411396   1.472   1.474   4.133  0.2354  0.0868 -0.5245
 2838SOL     OW11397   3.275   2.889   4.536  0.3937 -0.1354  0.0733
 2838SOL    HW211398   3.209   2.941   4.490 -0.0389  0.7536  1.6794
 2838SOL    HW311399   3.354   2.899   4.483 -0.0953  0.8769 -0.4717
 2838SOL    MW411400   3.277   2.897   4.523  0.2723  0.1154  0.2131
 2839SOL     OW11401   0.639   2.060   4.155  0.4719  0.2669  0.2458
 2839SOL    HW211402   0.671   2.150   4.142 -0.9210  0.4767 -2.0251
 2839SOL    HW311403   0.718   2.007   4.158  1.3575  1.6530  2.4102
 2839SOL    MW411404   0.653   2.065   4.154  0.4050  0.4776  0.2317
 2840SOL     OW11405   3.172   0.357   4.699 -0.3257  0.1624 -0.1891
 2840SOL    HW211406   3.179   0.262   4.705 -2.7163 -0.1783 -1.7165
 2840SOL    HW311407   3.261   0.387   4.683  0.3644 -1.9021 -0.3702
 2840SOL    MW411408   3.184   0.349   4.698 -0.5500 -0.1549 -0.4144
 2841SOL     OW11409   1.407   0.632   4.656  0.2493 -0.4049  0.3868
 2841SOL    HW211410   1.472   0.630   4.727 -0.5762 -0.0854  1.1613
 2841SOL    HW311411   1.419   0.548   4.611 -0.9656 -1.7685  2.5107
 2841SOL    MW411412   1.417   0.620   4.660 -0.0199 -0.5426  0.7691
 2842SOL     OW11413   4.254   2.851   3.833  0.3177 -0.0714  0.1033
 2842SOL    HW211414   4.235   2.856   3.740 -0.3726  0.9725  0.2976
 2842SOL    HW311415   4.269   2.942   3.860 -0.1729 -0.2869  1.1446
 2842SOL    MW411416   4.253   2.864   3.825  0.1621  0.0379  0.2661
 2843SOL     OW11417   4.486   0.060   4.642 -0.3191  0.1790  0.5515
 2843SOL    HW211418   4.424  -0.004   4.677 -1.3353  1.2324  0.7126
 2843SOL    HW311419   4.450   0.084   4.556  0.5609 -0.1599  0.0800
 2843SOL    MW411420   4.473   0.054   4.635 -0.3376  0.2733  0.5102
 2844SOL     OW11421   1.605   2.698   4.856 -0.3177 -0.1008  0.3402
 2844SOL    HW211422   1.642   2.777   4.818 -1.2233 -0.6897 -1.8606
 2844SOL    HW311423   1.668   2.629   4.836 -1.1374 -0.5465 -0.7525
 2844SOL    MW411424   1.618   2.700   4.848 -0.5453 -0.2375 -0.0944
 2845SOL     OW11425   0.832   1.622   4.234 -0.4511  0.1102  0.1042
 2845SOL    HW211426   0.743   1.631   4.267 -0.6994  0.3837 -0.6153
 2845SOL    HW311427   0.859   1.711   4.213 -0.5707 -0.1309 -1.1025
 2845SOL    MW411428   0.824   1.635   4.235 -0.4996  0.1146 -0.1497
 2846SOL     OW11429   2.486   4.264   4.689 -0.4387  0.0703 -0.2752
 2846SOL    HW211430   2.476   4.280   4.783 -2.8049  1.2999 -0.7002
 2846SOL    HW311431   2.506   4.350   4.652 -0.1817 -0.2928 -0.9833
 2846SOL    MW411432   2.487   4.278   4.697 -0.7169  0.1845 -0.4244
 2847SOL     OW11433   1.802   3.488   3.930  0.6654 -0.7525  0.2970
 2847SOL    HW211434   1.821   3.400   3.900 -1.2748 -1.1491  0.1598
 2847SOL    HW311435   1.793   3.480   4.025 -1.6857 -1.1551  0.0719
 2847SOL    MW411436   1.803   3.476   3.939  0.0991 -0.8583  0.2494
 2848SOL     OW11437   1.826   1.929   4.178  0.3482  0.1125  0.1970
 2848SOL    HW211438   1.873   1.971   4.251 -0.7131  1.1466  0.2944
 2848SOL    HW311439   1.811   1.839   4.208  2.3529 -0.2894  0.1185
 2848SOL    MW411440   1.831   1.923   4.192  0.4725  0.1961  0.1998
 2849SOL     OW11441   3.934   2.856   4.337 -0.7018 -0.1108 -0.7283
 2849SOL    HW211442   4.027   2.872   4.357 -1.0110  0.1990  0.5152
 2849SOL    HW311443   3.902   2.940   4.305 -0.3870 -0.4089 -1.8529
 2849SOL    MW411444   3.942   2.869   4.335 -0.7010 -0.1092 -0.7129
 2850SOL     OW11445   0.048   3.122   4.531  0.1190 -0.1869  0.1068
 2850SOL    HW211446   0.014   3.121   4.620 -0.0305  0.3870  0.0574
 2850SOL    HW311447  -0.024   3.089   4.477  0.7332 -2.0422  0.3692
 2850SOL    MW411448   0.034   3.118   4.535  0.1803 -0.3560  0.1349
 2851SOL     OW11449   3.091   4.412   4.814 -0.2718 -0.4137  0.0864
 2851SOL    HW211450   3.037   4.382   4.887 -0.1732 -0.0947  0.2903
 2851SOL    HW311451   3.045   4.489   4.780 -1.1490 -1.4666 -1.1728
 2851SOL    MW411452   3.078   4.418   4.819 -0.3743 -0.5107 -0.0525
 2852SOL     OW11453   2.532   2.094   4.315  1.0772  0.0453  0.1180
 2852SOL    HW211454   2.554   2.173   4.266  0.6629  0.3490  0.4190
 2852SOL    HW311455   2.437   2.095   4.321  1.0046 -1.0120 -0.7523
 2852SOL    MW411456   2.523   2.105   4.310  1.0130 -0.0541  0.0429
 2853SOL     OW11457   1.343   4.295   4.257 -0.3193 -0.7024  0.3654
 2853SOL    HW211458   1.353   4.313   4.163  0.2568  0.0690  0.5639
 2853SOL    HW311459   1.392   4.366   4.300 -1.1075 -0.6846  1.2594
 2853SOL    MW411460   1.350   4.307   4.250 -0.3474 -0.5980  0.5093
 2854SOL     OW11461   2.058   2.866   4.834 -0.4257  0.6267  0.0572
 2854SOL    HW211462   2.107   2.928   4.779 -1.7597  1.0007 -0.7240
 2854SOL    HW311463   2.099   2.782   4.817 -0.5200  0.8187 -1.1548
 2854SOL    MW411464   2.070   2.863   4.825 -0.6142  0.7012 -0.2055
 2855SOL     OW11465   1.675   1.198   4.115 -0.4872  0.0818 -0.1097
 2855SOL    HW211466   1.594   1.148   4.118 -0.6046  0.2242 -0.7670
 2855SOL    HW311467   1.728   1.163   4.186 -1.0062 -0.2200  0.1271
 2855SOL    MW411468   1.672   1.187   4.125 -0.5714  0.0608 -0.1655
 2856SOL     OW11469   3.378   0.249   4.411 -0.2963  0.3265  0.1573
 2856SOL    HW211470   3.315   0.197   4.461  1.9587 -3.3189 -0.5632
 2856SOL    HW311471   3.441   0.279   4.477  0.4352 -1.0737  0.1314
 2856SOL    MW411472   3.378   0.246   4.426  0.0975 -0.3392  0.0591
 2857SOL     OW11473   1.051   0.340   4.388 -0.1142  0.0187 -0.1850
 2857SOL    HW211474   0.982   0.323   4.323 -1.1359  0.5368  0.7506
 2857SOL    HW311475   1.031   0.282   4.460 -1.8662  2.8921  1.7482
 2857SOL    MW411476   1.039   0.330   4.389 -0.4801  0.4662  0.1931
 2858SOL     OW11477   4.263   1.486   3.903 -0.4202  0.2600  0.1853
 2858SOL    HW211478   4.181   1.535   3.893  0.0486  1.3914  1.7414
 2858SOL    HW311479   4.331   1.550   3.884  0.1626 -0.0860  1.0815
 2858SOL    MW411480   4.261   1.501   3.899 -0.2813  0.3636  0.5088
 2859SOL     OW11481   1.162   3.128   4.188 -0.2716  0.3178 -0.3918
 2859SOL    HW211482   1.166   3.134   4.092 -1.3238 -0.2604 -0.4782
 2859SOL    HW311483   1.138   3.217   4.216 -0.7676  0.2942 -0.7194
 2859SOL    MW411484   1.159   3.141   4.179 -0.4759  0.2387 -0.4463
 2860SOL     OW11485   2.385   3.201   4.723 -0.2926 -0.4040 -0.2567
 2860SOL    HW211486   2.329   3.275   4.746  0.9017  0.1744  0.8413
 2860SOL    HW311487   2.423   3.226   4.638  1.1754  0.8943  0.7481
 2860SOL    MW411488   2.383   3.214   4.715  0.0587 -0.1559  0.0210
 2861SOL     OW11489   0.202   1.561   4.217 -0.1522 -0.2946  0.1434
 2861SOL    HW211490   0.203   1.573   4.122 -1.0408 -0.1221  0.1540
 2861SOL    HW311491   0.243   1.641   4.251 -0.1065 -0.2192 -0.0854
 2861SOL    MW411492   0.208   1.573   4.209 -0.2634 -0.2619  0.1140
 2862SOL     OW11493   3.094   1.925   4.404 -0.1427  0.0261 -0.1535
 2862SOL    HW211494   3.118   1.930   4.496  0.5718 -1.7620 -0.2208
 2862SOL    HW311495   3.049   2.008   4.386 -0.0061  0.5209  1.7057
 2862SOL    MW411496   3.091   1.936   4.414 -0.0308 -0.1446  0.0825
 2863SOL     OW11497   4.426   1.170   4.283 -0.3861 -0.0406  0.3076
 2863SOL    HW211498   4.428   1.182   4.188 -1.2521 -1.1269  0.1435
 2863SOL    HW311499   4.449   1.077   4.296  0.9920  0.4084  1.2350
 2863SOL    MW411500   4.429   1.159   4.272 -0.3181 -0.1247  0.4077
 2864SOL     OW11501   3.774   1.733   4.487 -0.3435  0.2867 -0.0375
 2864SOL    HW211502   3.680   1.727   4.505 -0.1761 -0.2317  0.7027
 2864SOL    HW311503   3.789   1.826   4.470 -0.9988  0.3657 -0.1971
 2864SOL    MW411504   3.764   1.745   4.487 -0.4079  0.2289  0.0386
 2865SOL     OW11505   2.221   2.725   3.846 -0.1014  0.1368 -0.0463
 2865SOL    HW211506   2.242   2.633   3.828 -0.8463 -0.3573  1.5452
 2865SOL    HW311507   2.200   2.727   3.939 -1.1205  1.7258 -0.2912
 2865SOL    MW411508   2.221   2.713   3.856 -0.3345  0.2813  0.1311
 2866SOL     OW11509   2.965   1.047   4.466  0.1159 -0.4509 -0.0502
 2866SOL    HW211510   3.049   1.065   4.508  0.1151 -0.2882 -0.1190
 2866SOL    HW311511   2.985   0.983   4.398  0.1365 -0.6256  0.1180
 2866SOL    MW411512   2.978   1.041   4.463  0.1185 -0.4525 -0.0372
 2867SOL     OW11513   0.229   0.142   4.220 -0.0055 -0.0820 -0.3523
 2867SOL    HW211514   0.321   0.157   4.244 -0.2898  1.3832 -0.1048
 2867SOL    HW311515   0.194   0.089   4.292  0.3329  0.4135  0.1854
 2867SOL    MW411516   0.237   0.137   4.233  0.0016  0.1767 -0.2494
 2868SOL     OW11517   2.003   4.376   3.821  0.5611  0.0616  0.2115
 2868SOL    HW211518   2.025   4.394   3.730 -1.0417  0.5356 -0.0964
 2868SOL    HW311519   2.004   4.461   3.864 -1.0993  0.1630  0.0817
 2868SOL    MW411520   2.006   4.390   3.814  0.1304  0.1373  0.1538
 2869SOL     OW11521   1.065   4.373   4.278 -0.0808 -0.2910  0.0322
 2869SOL    HW211522   1.053   4.451   4.223 -0.7496 -0.9212 -0.7349
 2869SOL    HW311523   1.160   4.368   4.292  0.1941 -0.6087 -1.8180
 2869SOL    MW411524   1.076   4.382   4.272 -0.1329 -0.4163 -0.3138
 2870SOL     OW11525   0.049   0.925   4.305  0.1827 -0.3453 -0.0141
 2870SOL    HW211526   0.139   0.927   4.276  0.3987 -0.1867  0.6472
 2870SOL    HW311527   0.053   0.889   4.394 -0.4903 -1.1562 -0.3025
 2870SOL    MW411528   0.061   0.920   4.313  0.1224 -0.4314  0.0348
 2871SOL     OW11529   2.705   4.135   4.291 -0.3145 -0.2339 -0.3170
 2871SOL    HW211530   2.613   4.149   4.312  0.3428  1.4860  1.6276
 2871SOL    HW311531   2.727   4.204   4.229 -0.2480 -0.4433 -0.5288
 2871SOL    MW411532   2.696   4.146   4.286 -0.2191 -0.0343 -0.0887
 2872SOL     OW11533   2.813   4.301   4.121  0.2190 -0.2455 -0.1066
 2872SOL    HW211534   2.784   4.393   4.123 -0.1359 -0.3492 -0.2758
 2872SOL    HW311535   2.785   4.270   4.035  0.6340 -0.4190 -0.1780
 2872SOL    MW411536   2.805   4.309   4.110  0.2270 -0.2823 -0.1388
 2873SOL     OW11537   0.884   2.707   3.894  0.5337 -0.3816  0.3849
 2873SOL    HW211538   0.807   2.750   3.855  1.3578 -0.3083 -1.1859
 2873SOL    HW311539   0.959   2.756   3.860  1.3303 -1.0367  1.1757
 2873SOL    MW411540   0.884   2.719   3.885  0.7476 -0.4582  0.2820
 2874SOL     OW11541   2.035   4.647   3.893  0.1446  0.1037  0.0048
 2874SOL    HW211542   2.104   4.709   3.867 -1.2229  1.2980 -0.8511
 2874SOL    HW311543   1.959   4.674   3.842 -0.5615 -2.1243 -0.1553
 2874SOL    MW411544   2.034   4.659   3.882 -0.1290 -0.0329 -0.1295
 2875SOL     OW11545   0.061   3.583   4.562  0.1724 -0.4224  0.1291
 2875SOL    HW211546   0.012   3.559   4.641 -0.8383  0.3698 -0.2574
 2875SOL    HW311547   0.107   3.502   4.538  0.0413 -0.8309  1.1937
 2875SOL    MW411548   0.060   3.569   4.570  0.0217 -0.3719  0.2189
 2876SOL     OW11549   4.076   1.575   4.298 -0.7467  0.2415  0.0419
 2876SOL    HW211550   4.142   1.537   4.239 -1.2695 -0.5593 -0.0325
 2876SOL    HW311551   4.075   1.517   4.374 -0.9273  0.6013  0.3141
 2876SOL    MW411552   4.085   1.563   4.300 -0.8392  0.1835  0.0677
 2877SOL     OW11553   2.903   1.359   4.516 -0.5325 -0.1032  0.0981
 2877SOL    HW211554   2.951   1.336   4.596 -1.8364  0.4784  1.0804
 2877SOL    HW311555   2.831   1.296   4.512 -1.4803  0.9232  0.3521
 2877SOL    MW411556   2.899   1.348   4.526 -0.8299  0.1090  0.2608
 2878SOL     OW11557   0.164   2.496   4.474  0.2735  0.0724 -0.0745
 2878SOL    HW211558   0.152   2.410   4.513  0.5167  0.0248 -0.1004
 2878SOL    HW311559   0.215   2.545   4.540  1.0082 -0.1270 -0.4867
 2878SOL    MW411560   0.169   2.491   4.488  0.4025  0.0398 -0.1326
 2879SOL     OW11561   1.994   0.849   4.272  0.1030 -0.3503  0.3598
 2879SOL    HW211562   1.947   0.916   4.320 -0.0043  0.4454 -0.8322
 2879SOL    HW311563   2.087   0.867   4.289  0.1440  1.2053 -1.3751
 2879SOL    MW411564   2.000   0.860   4.280  0.0942 -0.0401 -0.0262
 2880SOL     OW11565   1.777   2.874   4.747  0.2826 -0.4579 -0.2354
 2880SOL    HW211566   1.760   2.961   4.713 -0.6144  0.0449  1.4473
 2880SOL    HW311567   1.864   2.880   4.787 -0.2566 -0.0045  0.8935
 2880SOL    MW411568   1.787   2.886   4.748  0.0931 -0.3319  0.1359
 2881SOL     OW11569   1.081   0.004   4.499  0.1153 -0.3160 -0.1643
 2881SOL    HW211570   1.129   0.006   4.416  1.3743  0.5846  0.5530
 2881SOL    HW311571   1.137  -0.046   4.558 -0.2775 -0.0762  0.4192
 2881SOL    MW411572   1.095  -0.002   4.496  0.2295 -0.1656  0.0081
 2882SOL     OW11573   3.357   2.230   4.547  0.0437 -0.1714 -0.5257
 2882SOL    HW211574   3.429   2.172   4.568 -0.6188 -0.7699  0.0877
 2882SOL    HW311575   3.286   2.204   4.606 -0.6702  0.4163 -1.1109
 2882SOL    MW411576   3.357   2.219   4.557 -0.1378 -0.1729 -0.5217
 2883SOL     OW11577   3.607   0.265   4.084  0.4108  0.4291 -0.3075
 2883SOL    HW211578   3.591   0.181   4.126  0.3105 -0.5925 -2.3068
 2883SOL    HW311579   3.650   0.318   4.151  2.5416 -1.9730  0.3212
 2883SOL    MW411580   3.611   0.261   4.098  0.6790 -0.0226 -0.4888
 2884SOL     OW11581   3.109   3.450   4.654 -0.2729 -0.0949 -0.3038
 2884SOL    HW211582   3.175   3.498   4.603  1.1437 -1.6030  0.0958
 2884SOL    HW311583   3.096   3.369   4.606 -2.2263  0.3898 -0.6416
 2884SOL    MW411584   3.116   3.446   4.641 -0.3438 -0.2303 -0.2956
 2885NA      NA11585   0.590   0.201   0.820  0.1369  0.5360 -0.1320
   4.49070   4.66690  10.00000
