Gromacs Runs On Most of All Computer Systems in water t= 10000.00000 step= 10000000
11584
    1RU5    O5'    1   2.761   2.408   4.530  0.1446  0.6307  0.2935
    1RU5    H5T    2   2.749   2.418   4.625 -0.7312 -1.7408  0.4554
    1RU5    C5'    3   2.763   2.531   4.461 -0.3133  0.1364 -0.1475
    1RU5   H5'1    4   2.805   2.511   4.363  1.7978 -0.8422  0.9231
    1RU5   H5'2    5   2.832   2.605   4.501 -0.7088 -0.2742  1.3426
    1RU5    C4'    6   2.631   2.609   4.445 -0.4679  0.1860  0.2612
    1RU5    H4'    7   2.652   2.706   4.400  0.3802 -0.0074  0.2248
    1RU5    O4'    8   2.549   2.542   4.345  0.0228  0.3763 -0.6116
    1RU5    C1'    9   2.415   2.554   4.375  0.2384 -0.0525 -0.9974
    1RU5    H1'   10   2.356   2.596   4.294 -0.9233  1.4285  0.5959
    1RU5     N1   11   2.354   2.427   4.410  0.2411  0.1792  0.2403
    1RU5     C6   12   2.432   2.310   4.416  0.3075 -0.5024  0.5059
    1RU5     H6   13   2.540   2.308   4.410  0.2895 -0.4874  0.1020
    1RU5     C5   14   2.370   2.189   4.428 -0.3235  0.2509  0.2466
    1RU5     H5   15   2.431   2.100   4.428  1.3849  1.3575 -1.8469
    1RU5     C4   16   2.221   2.177   4.444 -0.0569  0.6302 -0.1425
    1RU5     O4   17   2.159   2.072   4.444  0.2526  0.0444 -0.3300
    1RU5     N3   18   2.156   2.296   4.443 -0.3171  0.0395 -0.0468
    1RU5     H3   19   2.061   2.288   4.475 -0.6550 -1.5447 -1.3598
    1RU5     C2   20   2.214   2.419   4.423  0.0799 -0.4769  0.2988
    1RU5     O2   21   2.143   2.519   4.411 -0.5839  0.4681  0.1438
    1RU5    C3'   22   2.546   2.629   4.563  0.1011 -0.1196 -0.4824
    1RU5    H3'   23   2.538   2.545   4.631 -1.7880 -0.4656 -1.0841
    1RU5    C2'   24   2.412   2.652   4.492 -0.3699  0.1567 -0.6878
    1RU5   H2'1   25   2.330   2.627   4.559  1.0732 -0.6727  0.8425
    1RU5    O2'   26   2.396   2.785   4.447 -0.0333 -0.1795  0.6799
    1RU5   HO'2   27   2.445   2.835   4.511 -0.6040 -1.2467  1.9764
    1RU5    O3'   28   2.587   2.747   4.638  0.2400 -0.0357 -0.3668
    2RG3      P   29   2.558   2.761   4.788  0.0242 -0.1620 -0.0790
    2RG3    O1P   30   2.547   2.905   4.815  0.1169  0.4065  0.2004
    2RG3    O2P   31   2.660   2.678   4.855 -0.6820 -0.2533  0.4950
    2RG3    O5'   32   2.417   2.696   4.813 -0.0614  0.1395 -0.5600
    2RG3    C5'   33   2.290   2.765   4.794  0.0774 -0.1449  0.0665
    2RG3   H5'1   34   2.279   2.802   4.692 -1.3926 -0.3890  0.1305
    2RG3   H5'2   35   2.277   2.848   4.864  1.2412  0.2792 -0.2030
    2RG3    C4'   36   2.168   2.676   4.814 -0.2676 -0.2612 -0.3289
    2RG3    H4'   37   2.077   2.733   4.794  0.0075  0.5100  0.5469
    2RG3    O4'   38   2.161   2.570   4.719  0.1467 -0.0966  0.3177
    2RG3    C1'   39   2.092   2.457   4.772  0.1663 -0.6818 -0.1154
    2RG3    H1'   40   2.002   2.436   4.715 -0.8450  0.5739  0.9754
    2RG3     N9   41   2.190   2.341   4.763  0.3601 -0.1493 -0.2467
    2RG3     C8   42   2.326   2.348   4.763 -0.1563 -0.2123 -0.0216
    2RG3     H8   43   2.379   2.441   4.751 -0.5822 -0.1932 -1.8315
    2RG3     N7   44   2.390   2.233   4.763 -0.5390  0.2405 -0.1040
    2RG3     C5   45   2.283   2.141   4.758 -0.0163  0.2274 -0.2942
    2RG3     C6   46   2.286   1.997   4.751  0.0391  0.2848 -0.8457
    2RG3     O6   47   2.375   1.912   4.753 -0.2546  0.2734  0.0181
    2RG3     N1   48   2.161   1.946   4.744  0.0779 -0.3383  0.3634
    2RG3     H1   49   2.154   1.845   4.738 -2.0678 -0.2506  0.9679
    2RG3     C2   50   2.050   2.021   4.729  0.0669  0.0910 -0.6053
    2RG3     N2   51   1.941   1.955   4.705 -0.0160  0.1802  0.0298
    2RG3    H21   52   1.951   1.858   4.680  0.8203  0.0053  0.9942
    2RG3    H22   53   1.860   2.004   4.669  0.1467  0.8266  0.5204
    2RG3     N3   54   2.038   2.152   4.739  0.0861  0.1349 -0.0308
    2RG3     C4   55   2.161   2.209   4.751  0.1366 -0.1280  0.1700
    2RG3    C3'   56   2.162   2.608   4.950 -0.7148  0.6377 -0.2440
    2RG3    H3'   57   2.262   2.573   4.976 -0.3451  0.6669 -1.5756
    2RG3    C2'   58   2.067   2.494   4.917 -0.1984 -0.2542  0.2196
    2RG3   H2'1   59   2.088   2.409   4.984 -1.2247  0.1987  1.1242
    2RG3    O2'   60   1.931   2.536   4.931 -0.3015  0.4683  0.0032
    2RG3   HO'2   61   1.924   2.600   5.001  0.8953  0.3715  0.2370
    2RG3    O3'   62   2.119   2.699   5.051 -0.1730  0.5087  0.0178
    2RG3    H3T   63   2.202   2.740   5.074  1.0834 -1.1578 -1.4130
    3SOL     OW   64   0.478   3.854   0.445  0.0140  0.9359 -0.2197
    3SOL    HW2   65   0.458   3.839   0.353  2.5206 -0.4006 -0.6029
    3SOL    HW3   66   0.543   3.924   0.444  2.0994 -0.9403  0.3005
    3SOL    MW4   67   0.484   3.862   0.433  0.6199  0.5119 -0.2016
    4SOL     OW   68   0.151   3.479   0.477 -0.6925  0.3118  0.3894
    4SOL    HW2   69   0.244   3.470   0.457 -0.9159 -0.4034 -0.3820
    4SOL    HW3   70   0.124   3.561   0.436 -0.3754  0.5827  0.7239
    4SOL    MW4   71   0.160   3.488   0.469 -0.6801  0.2532  0.3317
    5SOL     OW   72   2.595   4.666   0.475  0.1648 -0.3269 -0.2745
    5SOL    HW2   73   2.685   4.656   0.445 -0.1832 -1.7489 -0.8734
    5SOL    HW3   74   2.558   4.578   0.470 -0.3158 -0.4094  3.0585
    5SOL    MW4   75   2.602   4.653   0.471  0.0556 -0.5255  0.0862
    6SOL     OW   76   4.172   1.283   0.531 -0.2782 -0.1004  0.2061
    6SOL    HW2   77   4.219   1.202   0.512  0.0266  0.0715  0.2145
    6SOL    HW3   78   4.080   1.261   0.520 -0.3141 -0.9231  1.8947
    6SOL    MW4   79   4.166   1.270   0.527 -0.2422 -0.1864  0.4300
    7SOL     OW   80   1.550   1.440   0.509 -0.0142  0.3733 -0.3422
    7SOL    HW2   81   1.484   1.395   0.456  0.1240 -0.2177 -0.0147
    7SOL    HW3   82   1.521   1.531   0.512 -0.5059  0.2278 -0.6732
    7SOL    MW4   83   1.538   1.446   0.502 -0.0608  0.2761 -0.3427
    8SOL     OW   84   0.919   3.525   0.441  0.2040 -0.6621  0.4756
    8SOL    HW2   85   0.830   3.512   0.474  0.0229 -0.7046 -0.0304
    8SOL    HW3   86   0.967   3.560   0.516 -0.5128  0.4274  0.4263
    8SOL    MW4   87   0.914   3.528   0.455  0.0856 -0.5238  0.4023
    9SOL     OW   88   0.937   0.051   0.253 -0.1773  0.2120 -0.3712
    9SOL    HW2   89   0.852   0.015   0.281 -0.4562  1.4452  0.4069
    9SOL    HW3   90   0.993  -0.026   0.244 -0.5045 -0.3787  2.1275
    9SOL    MW4   91   0.933   0.036   0.256 -0.2574  0.2968  0.0611
   10SOL     OW   92   0.651   0.525   0.406  0.1434 -0.2070 -0.3261
   10SOL    HW2   93   0.701   0.444   0.404  0.9692  0.2883 -0.2468
   10SOL    HW3   94   0.562   0.500   0.384  0.3731 -1.1503 -0.1820
   10SOL    MW4   95   0.646   0.511   0.403  0.2827 -0.2661 -0.2967
   11SOL     OW   96   1.106   4.484   0.313 -0.0403  0.0834  0.1045
   11SOL    HW2   97   1.077   4.510   0.400 -0.0990 -0.2841  0.1947
   11SOL    HW3   98   1.199   4.508   0.311 -0.4629  1.7822 -0.3892
   11SOL    MW4   99   1.115   4.491   0.324 -0.1037  0.2594  0.0513
   12SOL     OW  100   0.200   2.085   0.750  0.0283  0.1479  0.3957
   12SOL    HW2  101   0.217   2.126   0.666 -2.2092  0.8494  0.2493
   12SOL    HW3  102   0.200   2.157   0.813  0.8584 -0.2596  0.8579
   12SOL    MW4  103   0.202   2.100   0.748 -0.1574  0.1869  0.4374
   13SOL     OW  104   3.699   1.242   0.369  0.8145  0.3417  0.1821
   13SOL    HW2  105   3.762   1.308   0.342 -0.7290  1.4381 -0.8529
   13SOL    HW3  106   3.624   1.292   0.401 -0.3373 -0.9050 -0.5039
   13SOL    MW4  107   3.697   1.257   0.370  0.4592  0.3217 -0.0450
   14SOL     OW  108   4.174   0.779   0.466 -0.4642  0.2194  0.2264
   14SOL    HW2  109   4.191   0.695   0.508 -0.8099  0.2718  0.4654
   14SOL    HW3  110   4.227   0.776   0.386  1.6630  0.8685  1.5650
   14SOL    MW4  111   4.184   0.767   0.461 -0.2284  0.3119  0.4346
   15SOL     OW  112   0.450   2.386   0.518 -0.3376  0.6623  0.2150
   15SOL    HW2  113   0.430   2.459   0.459 -1.9932  0.6186  0.6740
   15SOL    HW3  114   0.523   2.341   0.478 -0.3754  1.6126 -0.9413
   15SOL    MW4  115   0.457   2.390   0.505 -0.5611  0.7815  0.1230
   16SOL     OW  116   0.338   1.644   0.364 -0.0927  0.1951  0.5389
   16SOL    HW2  117   0.349   1.739   0.378  0.0079  0.1099  1.0435
   16SOL    HW3  118   0.426   1.613   0.343  0.0034  0.0977  1.0771
   16SOL    MW4  119   0.351   1.653   0.363 -0.0668  0.1709  0.6765
   17SOL     OW  120   0.449   2.638   0.379 -0.0588  0.3650 -0.1030
   17SOL    HW2  121   0.379   2.699   0.401  0.3855  0.4224  1.2140
   17SOL    HW3  122   0.529   2.682   0.408  0.4545  0.0178 -0.9910
   17SOL    MW4  123   0.451   2.652   0.386  0.0675  0.3271 -0.0463
   18SOL     OW  124   3.607   0.907   0.026  0.0899 -0.2479 -0.0166
   18SOL    HW2  125   3.683   0.865  -0.014  1.2077  1.1820  0.5467
   18SOL    HW3  126   3.636   0.930   0.114 -1.6372 -1.4391  0.8894
   18SOL    MW4  127   3.621   0.905   0.032  0.0093 -0.2164  0.1774
   19SOL     OW  128   1.280   3.591   0.430  0.1352  0.2032  0.4973
   19SOL    HW2  129   1.243   3.582   0.518  0.6679 -0.1239  0.6906
   19SOL    HW3  130   1.205   3.581   0.371 -0.4222  1.6224  0.9491
   19SOL    MW4  131   1.266   3.588   0.434  0.1320  0.3471  0.5825
   20SOL     OW  132   1.907   3.136   0.366 -0.4420  0.1721  0.5300
   20SOL    HW2  133   1.827   3.183   0.389 -0.8349 -0.1021 -0.2528
   20SOL    HW3  134   1.890   3.045   0.391 -0.1791  0.2051  0.8349
   20SOL    MW4  135   1.894   3.130   0.372 -0.4591  0.1402  0.4669
   21SOL     OW  136   3.647   3.229   0.693 -0.0725  0.2208 -0.4505
   21SOL    HW2  137   3.553   3.218   0.681 -0.1046  0.3832 -0.3452
   21SOL    HW3  138   3.682   3.234   0.603 -0.0481 -0.8122 -0.4986
   21SOL    MW4  139   3.640   3.228   0.679 -0.0739  0.1061 -0.4430
   22SOL     OW  140   0.244   2.184   0.485 -0.4293 -0.0797 -0.5604
   22SOL    HW2  141   0.308   2.252   0.507 -1.3015  0.0771  1.6768
   22SOL    HW3  142   0.167   2.233   0.457 -1.4932 -0.0320  2.2554
   22SOL    MW4  143   0.242   2.200   0.484 -0.6848 -0.0527  0.1063
   23SOL     OW  144   4.075   2.976   0.357 -0.2203 -0.1135  0.2341
   23SOL    HW2  145   4.126   2.895   0.353 -2.0618 -1.2693 -0.7404
   23SOL    HW3  146   4.139   3.046   0.347  1.3020 -1.4901  0.2190
   23SOL    MW4  147   4.090   2.974   0.355 -0.2618 -0.4480  0.1035
   24SOL     OW  148   0.046   4.409   0.551 -0.1076  0.0033 -0.3470
   24SOL    HW2  149   0.042   4.317   0.529  0.4202 -0.5869  1.8347
   24SOL    HW3  150  -0.032   4.425   0.605 -0.0706  0.7733 -0.5069
   24SOL    MW4  151   0.035   4.399   0.555 -0.0331  0.0272 -0.0802
   25SOL     OW  152   0.202   3.052   0.503  0.0212 -0.3012  0.1491
   25SOL    HW2  153   0.293   3.077   0.486  0.6109 -1.2282  1.8530
   25SOL    HW3  154   0.199   3.034   0.597 -2.1654  0.6983  0.3147
   25SOL    MW4  155   0.214   3.053   0.513 -0.1895 -0.2916  0.3958
   26SOL     OW  156   4.321   3.723   0.504 -0.0790 -0.2502  0.1077
   26SOL    HW2  157   4.394   3.689   0.453  1.4857  0.0516  2.0977
   26SOL    HW3  158   4.254   3.654   0.498  1.0269 -1.3094 -0.2767
   26SOL    MW4  159   4.322   3.709   0.497  0.2732 -0.3502  0.3195
   27SOL     OW  160   0.614   1.604   0.441  0.8016 -0.5839  0.0957
   27SOL    HW2  161   0.692   1.659   0.442 -0.0831  0.7408 -1.1996
   27SOL    HW3  162   0.568   1.625   0.523  1.1037 -0.3159  0.1968
   27SOL    MW4  163   0.618   1.614   0.452  0.7248 -0.3737 -0.0619
   28SOL     OW  164   0.628   3.821   0.846  0.4549 -0.0274  0.0571
   28SOL    HW2  165   0.697   3.853   0.788  0.2624  0.2641 -0.0088
   28SOL    HW3  166   0.554   3.879   0.830  0.3898  0.0350  0.5761
   28SOL    MW4  167   0.627   3.833   0.836  0.4209  0.0196  0.1169
   29SOL     OW  168   3.515   4.071   0.479  0.1491 -0.3334 -0.1621
   29SOL    HW2  169   3.536   4.145   0.423 -1.3950  0.8099  0.7449
   29SOL    HW3  170   3.419   4.063   0.474 -0.1209  0.4039  3.0408
   29SOL    MW4  171   3.505   4.080   0.471 -0.0901 -0.0849  0.3801
   30SOL     OW  172   1.136   0.552   0.325  0.1979 -0.0424 -0.2918
   30SOL    HW2  173   1.095   0.466   0.324 -0.1223  0.1063 -0.1922
   30SOL    HW3  174   1.088   0.602   0.258  1.3325 -0.3741 -1.3804
   30SOL    MW4  175   1.124   0.548   0.316  0.3055 -0.0666 -0.4223
   31SOL     OW  176   0.397   0.404   0.416 -0.1572 -0.9285 -0.0345
   31SOL    HW2  177   0.323   0.464   0.420  1.0618  0.5991 -0.0588
   31SOL    HW3  178   0.411   0.377   0.507 -0.7203 -1.2225 -0.0305
   31SOL    MW4  179   0.389   0.408   0.429 -0.0706 -0.7657 -0.0372
   32SOL     OW  180   0.924   0.727   0.186 -0.1743 -0.0154 -0.4977
   32SOL    HW2  181   0.849   0.764   0.233 -1.3365  0.2227 -2.4742
   32SOL    HW3  182   0.891   0.713   0.097  3.1758  3.5461 -2.4209
   32SOL    MW4  183   0.909   0.730   0.180  0.1144  0.4860 -1.0122
   33SOL     OW  184   3.928   0.894   0.429  0.4358 -0.4765  0.0732
   33SOL    HW2  185   4.012   0.848   0.435  1.1158  0.8638  1.3269
   33SOL    HW3  186   3.875   0.856   0.498  0.3724 -0.6171 -0.0533
   33SOL    MW4  187   3.932   0.883   0.439  0.5171 -0.3182  0.2219
   34SOL     OW  188   4.263   1.025   0.552  0.0210 -0.5261  0.0730
   34SOL    HW2  189   4.358   1.015   0.561 -0.0903 -1.4608  0.2046
   34SOL    HW3  190   4.235   0.945   0.507 -0.6024  0.0954 -0.6619
   34SOL    MW4  191   4.272   1.013   0.547 -0.0753 -0.5673 -0.0065
   35SOL     OW  192   3.706   0.956   0.285 -0.2083 -0.0932  0.0523
   35SOL    HW2  193   3.791   0.921   0.314 -0.9503 -0.0697  2.3646
   35SOL    HW3  194   3.712   1.050   0.302 -1.5081 -0.3932  2.5199
   35SOL    MW4  195   3.718   0.964   0.291 -0.4776 -0.1297  0.6829
   36SOL     OW  196   2.559   1.572   0.492  0.2600 -0.5962 -0.1868
   36SOL    HW2  197   2.557   1.648   0.434 -0.4387 -0.5584 -0.1247
   36SOL    HW3  198   2.590   1.606   0.576 -0.0449 -0.3779 -0.1619
   36SOL    MW4  199   2.563   1.586   0.496  0.1276 -0.5624 -0.1753
   37SOL     OW  200   3.637   2.141   0.311 -0.1668 -0.0145  0.0667
   37SOL    HW2  201   3.587   2.208   0.264  0.7248  0.0457 -0.8277
   37SOL    HW3  202   3.657   2.076   0.243 -0.3023 -0.7670  0.7440
   37SOL    MW4  203   3.633   2.141   0.296 -0.0672 -0.1059  0.0381
   38SOL     OW  204   3.400   2.093   0.427 -0.6512 -0.4591 -0.0231
   38SOL    HW2  205   3.404   2.092   0.523 -0.1983 -0.6830 -0.0405
   38SOL    HW3  206   3.492   2.089   0.399 -0.8190 -1.6726 -0.4705
   38SOL    MW4  207   3.413   2.092   0.436 -0.6139 -0.6487 -0.0844
   39SOL     OW  208   0.693   0.799   0.316 -0.4499  0.2013 -0.3037
   39SOL    HW2  209   0.753   0.836   0.380 -1.8984  1.0963  0.5716
   39SOL    HW3  210   0.679   0.709   0.345  1.4654 -0.4027 -1.2473
   39SOL    MW4  211   0.699   0.792   0.328 -0.3883  0.2397 -0.3128
   40SOL     OW  212   0.886   2.423   0.686 -0.2380  0.3483 -0.4261
   40SOL    HW2  213   0.805   2.417   0.737 -0.0689  1.1756 -0.0388
   40SOL    HW3  214   0.953   2.383   0.742 -0.4845 -0.8833 -1.0005
   40SOL    MW4  215   0.884   2.417   0.701 -0.2483  0.2949 -0.4507
   41SOL     OW  216   4.276   3.083   0.822  0.2582 -0.0928 -0.8443
   41SOL    HW2  217   4.208   3.147   0.803 -0.1567  0.0635  1.0653
   41SOL    HW3  218   4.358   3.130   0.809 -0.0228  0.2223 -1.4775
   41SOL    MW4  219   4.278   3.097   0.818  0.1659 -0.0305 -0.6759
   42SOL     OW  220   0.473   3.164   0.771 -0.0083  0.5592 -0.1165
   42SOL    HW2  221   0.470   3.249   0.814 -1.1966  0.9142 -0.8680
   42SOL    HW3  222   0.383   3.132   0.776  0.3082 -0.3768 -0.3783
   42SOL    MW4  223   0.461   3.171   0.777 -0.1233  0.4826 -0.2502
   43SOL     OW  224   0.082   1.556   0.451 -0.4032  0.6262 -0.7152
   43SOL    HW2  225   0.159   1.605   0.421  1.1443 -0.3818  1.4378
   43SOL    HW3  226   0.058   1.598   0.533 -0.9089 -0.3353 -0.3682
   43SOL    MW4  227   0.089   1.568   0.458 -0.2658  0.3663 -0.3853
   44SOL     OW  228   0.644   2.246   0.358  0.7208  0.1345 -0.1938
   44SOL    HW2  229   0.733   2.281   0.363 -0.2862  2.7422  0.2263
   44SOL    HW3  230   0.600   2.302   0.294 -1.2927  0.4908  1.4413
   44SOL    MW4  231   0.650   2.258   0.350  0.3222  0.5255  0.0774
   45SOL     OW  232   4.012   3.302   0.457 -0.2580  0.1029 -0.0071
   45SOL    HW2  233   3.938   3.262   0.411 -0.0349 -0.0132 -0.2672
   45SOL    HW3  234   4.089   3.259   0.420 -0.1026 -0.3877  0.8634
   45SOL    MW4  235   4.012   3.291   0.446 -0.2084  0.0231  0.0735
   46SOL     OW  236   0.431   3.478   0.462 -0.4228 -0.1940 -0.3048
   46SOL    HW2  237   0.515   3.514   0.490 -0.2564  0.1609 -1.2391
   46SOL    HW3  238   0.437   3.384   0.481  0.7536 -0.4198 -1.7246
   46SOL    MW4  239   0.442   3.470   0.468 -0.2456 -0.1769 -0.6154
   47SOL     OW  240   0.158   0.568   0.468 -0.4214  0.5957 -0.0406
   47SOL    HW2  241   0.157   0.664   0.465  0.0391  0.6169  0.2963
   47SOL    HW3  242   0.177   0.548   0.560  0.8986  0.1998 -0.3837
   47SOL    MW4  243   0.161   0.578   0.480 -0.1865  0.5463 -0.0414
   48SOL     OW  244   1.886   2.860   0.429  0.4466  0.0052 -0.3737
   48SOL    HW2  245   1.923   2.793   0.372 -1.0498 -1.1102 -0.0723
   48SOL    HW3  246   1.941   2.858   0.507  0.4440 -0.8489 -0.3855
   48SOL    MW4  247   1.898   2.851   0.432  0.2489 -0.2546 -0.3355
   49SOL     OW  248   0.686   4.532   0.595  0.1108 -0.0245  0.5194
   49SOL    HW2  249   0.669   4.590   0.521  1.8311 -0.4113 -0.1929
   49SOL    HW3  250   0.673   4.588   0.672 -1.3336  0.4659 -0.0611
   49SOL    MW4  251   0.682   4.547   0.595  0.1473 -0.0105  0.3489
   50SOL     OW  252   0.674   0.043   0.390  0.0604 -0.1815  0.0137
   50SOL    HW2  253   0.703   0.126   0.429 -1.4065 -0.3988  1.6107
   50SOL    HW3  254   0.579   0.050   0.387  0.0871 -0.4988 -2.8936
   50SOL    MW4  255   0.665   0.055   0.395 -0.1296 -0.2520 -0.1592
   51SOL     OW  256   4.136   3.940   0.487 -0.0593  0.1233 -0.3948
   51SOL    HW2  257   4.178   4.019   0.455  0.8163  0.4870  1.5297
   51SOL    HW3  258   4.196   3.869   0.465  0.7123  0.4161  0.7162
   51SOL    MW4  259   4.149   3.941   0.480  0.1583  0.2098  0.0057
   52SOL     OW  260   1.401   1.671   0.497 -0.0387  0.2004  0.0768
   52SOL    HW2  261   1.307   1.674   0.479  0.2152  0.4635 -1.2710
   52SOL    HW3  262   1.430   1.762   0.490  0.1933  0.2302  1.2516
   52SOL    MW4  263   1.393   1.684   0.494  0.0253  0.2389  0.0540
   53SOL     OW  264   1.428   0.442   0.327 -0.3860  0.0104 -0.1654
   53SOL    HW2  265   1.461   0.506   0.390  0.5099  1.5502 -2.1271
   53SOL    HW3  266   1.355   0.487   0.284  1.2331  0.3768 -2.6623
   53SOL    MW4  267   1.423   0.457   0.329 -0.0541  0.2618 -0.7537
   54SOL     OW  268   1.858   0.332   0.454 -0.5993  0.3687  0.2509
   54SOL    HW2  269   1.810   0.314   0.534 -1.0310 -0.4436 -0.1790
   54SOL    HW3  270   1.917   0.257   0.444 -1.2037 -0.0018 -0.6630
   54SOL    MW4  271   1.859   0.319   0.463 -0.7360  0.2126  0.0736
   55SOL     OW  272   2.562   1.813   0.336 -0.4280 -0.3513 -0.4811
   55SOL    HW2  273   2.634   1.773   0.288  0.0602 -0.0684  0.0140
   55SOL    HW3  274   2.604   1.871   0.400 -1.0947  0.0019 -0.3519
   55SOL    MW4  275   2.577   1.816   0.338 -0.4516 -0.2674 -0.3988
   56SOL     OW  276   0.435   1.217   0.306  0.2907 -0.1536 -0.2558
   56SOL    HW2  277   0.418   1.197   0.214 -1.1575  0.0327 -0.0391
   56SOL    HW3  278   0.429   1.133   0.350 -3.8295  0.3391  0.3573
   56SOL    MW4  279   0.432   1.204   0.299 -0.4440 -0.0640 -0.1463
   57SOL     OW  280   3.444   3.178   0.324 -0.3038  0.2155  0.0043
   57SOL    HW2  281   3.427   3.205   0.234  0.2517  0.2475 -0.0961
   57SOL    HW3  282   3.384   3.232   0.377 -0.9446 -0.1244 -0.3729
   57SOL    MW4  283   3.434   3.189   0.319 -0.3152  0.1748 -0.0587
   58SOL     OW  284   2.016   2.310   0.313  0.1109 -0.3311  0.1172
   58SOL    HW2  285   2.012   2.233   0.370  1.5136 -0.8162 -0.4183
   58SOL    HW3  286   2.054   2.278   0.232  1.1074  1.0197  0.0300
   58SOL    MW4  287   2.021   2.296   0.310  0.4277 -0.2172  0.0350
   59SOL     OW  288   0.445   0.945   0.415  0.1036  0.2020 -0.2435
   59SOL    HW2  289   0.445   0.930   0.510  0.8268  0.4701 -0.1981
   59SOL    HW3  290   0.526   0.904   0.385 -0.6054 -0.7607 -0.8915
   59SOL    MW4  291   0.456   0.937   0.424  0.1055  0.1103 -0.3230
   60SOL     OW  292   1.857   1.932   0.346 -0.2935  0.0922 -0.0740
   60SOL    HW2  293   1.923   1.972   0.403 -1.2185 -0.2314  1.2344
   60SOL    HW3  294   1.854   1.841   0.373 -1.6388  0.2132  0.2091
   60SOL    MW4  295   1.865   1.926   0.357 -0.5929  0.0656  0.1360
   61SOL     OW  296   0.926   1.194   0.365 -0.1222 -0.0145  0.1129
   61SOL    HW2  297   0.837   1.228   0.359 -0.5786 -0.9967  1.2499
   61SOL    HW3  298   0.916   1.103   0.391  1.2601  0.2034  1.4895
   61SOL    MW4  299   0.913   1.187   0.368 -0.0001 -0.1154  0.4446
   62SOL     OW  300   4.484   2.638   0.350  0.1231 -0.5917  0.0740
   62SOL    HW2  301   4.509   2.551   0.381 -0.3200 -0.3747  1.0564
   62SOL    HW3  302   4.464   2.625   0.257  1.5405 -1.2326 -0.1483
   62SOL    MW4  303   4.484   2.625   0.341  0.2513 -0.6473  0.1743
   63SOL     OW  304   3.894   1.441   0.335 -0.3207  0.3650  0.0875
   63SOL    HW2  305   3.981   1.440   0.295  0.4672  0.1340  1.7689
   63SOL    HW3  306   3.868   1.533   0.333  0.9877  0.7877  1.7191
   63SOL    MW4  307   3.902   1.453   0.330 -0.0441  0.3903  0.5246
   64SOL     OW  308   1.511   1.931   0.492 -0.2422  0.3660 -0.3601
   64SOL    HW2  309   1.541   1.970   0.410  1.5709  0.4563  0.3214
   64SOL    HW3  310   1.434   1.982   0.516 -0.4756  0.6871 -1.7102
   64SOL    MW4  311   1.505   1.943   0.484 -0.0339  0.4201 -0.4483
   65SOL     OW  312   2.774   1.711   0.200  0.2015  0.3017 -0.0200
   65SOL    HW2  313   2.835   1.784   0.188  0.6604 -0.0029  0.4456
   65SOL    HW3  314   2.827   1.642   0.240 -0.2434 -0.2689 -0.4160
   65SOL    MW4  315   2.789   1.712   0.204  0.2031  0.1862 -0.0108
   66SOL     OW  316   1.123   1.669   0.477  0.4008  0.0761 -0.0294
   66SOL    HW2  317   1.094   1.668   0.568 -0.5345 -0.6366 -0.3261
   66SOL    HW3  318   1.111   1.579   0.447  0.9686  0.2430 -0.7778
   66SOL    MW4  319   1.118   1.657   0.485  0.3523  0.0042 -0.1673
   67SOL     OW  320   1.172   2.299   0.401  0.4417  0.1197 -0.4566
   67SOL    HW2  321   1.198   2.387   0.430 -0.9017  1.2952 -2.7054
   67SOL    HW3  322   1.207   2.292   0.312 -1.5009 -0.7168 -1.1634
   67SOL    MW4  323   1.180   2.310   0.393  0.0081  0.1645 -0.8465
   68SOL     OW  324   1.799   3.632   0.306  0.1078 -0.2810  0.0200
   68SOL    HW2  325   1.840   3.577   0.373  0.3110  0.9216  0.9087
   68SOL    HW3  326   1.851   3.617   0.227  0.6648 -0.7429  0.4694
   68SOL    MW4  327   1.811   3.623   0.305  0.2081 -0.1833  0.1965
   69SOL     OW  328   0.683   3.106   0.410 -0.1459  0.3683 -0.0855
   69SOL    HW2  329   0.677   3.011   0.402 -0.8077  0.5385 -1.9982
   69SOL    HW3  330   0.776   3.124   0.420  0.2123 -0.3495 -1.9413
   69SOL    MW4  331   0.694   3.096   0.410 -0.1860  0.2961 -0.5827
   70SOL     OW  332   1.403   4.238   0.309  0.4798  0.0104  0.2857
   70SOL    HW2  333   1.401   4.334   0.302 -0.9774 -0.0411 -0.0728
   70SOL    HW3  334   1.320   4.215   0.350  0.2447 -1.1982 -0.8548
   70SOL    MW4  335   1.392   4.248   0.313  0.2567 -0.1559  0.0879
   71SOL     OW  336   4.431   0.428   0.390  0.3810  0.2673 -0.4005
   71SOL    HW2  337   4.512   0.473   0.412 -0.5695  1.2703  1.1354
   71SOL    HW3  338   4.442   0.340   0.426  0.2146  0.8645  1.1740
   71SOL    MW4  339   4.443   0.422   0.398  0.2337  0.4784  0.0100
   72SOL     OW  340   0.207   3.546   0.743 -0.4292 -0.3296 -0.2109
   72SOL    HW2  341   0.140   3.510   0.801 -0.1946 -1.5163 -0.6480
   72SOL    HW3  342   0.174   3.526   0.655 -0.3021  0.5593 -0.4576
   72SOL    MW4  343   0.194   3.538   0.739 -0.3814 -0.3688 -0.3011
   73SOL     OW  344   0.665   4.260   0.680  0.3762 -0.4048  0.1126
   73SOL    HW2  345   0.592   4.246   0.741  0.8324  1.0721  1.0410
   73SOL    HW3  346   0.653   4.350   0.649  1.3264 -0.4450 -0.3792
   73SOL    MW4  347   0.653   4.270   0.684  0.5617 -0.2155  0.1701
   74SOL     OW  348   2.027   0.710   0.165 -0.4175  0.1345  0.1280
   74SOL    HW2  349   2.100   0.648   0.164 -1.5495 -1.2824  1.6770
   74SOL    HW3  350   1.963   0.673   0.104 -0.5473  0.4816  0.0516
   74SOL    MW4  351   2.028   0.697   0.157 -0.5839 -0.0067  0.3223
   75SOL     OW  352   3.559   0.639   0.187 -0.2940 -0.6588  0.4455
   75SOL    HW2  353   3.561   0.730   0.154 -1.5510 -0.3597  1.1709
   75SOL    HW3  354   3.472   0.629   0.223  0.0540 -1.9819  0.9297
   75SOL    MW4  355   3.548   0.650   0.187 -0.4139 -0.7939  0.6051
   76SOL     OW  356   4.189   0.075   0.391 -0.3028  0.5383  0.0106
   76SOL    HW2  357   4.221   0.085   0.301  0.5293  0.9889  0.3520
   76SOL    HW3  358   4.193  -0.019   0.407 -2.6913  0.1856 -1.2244
   76SOL    MW4  359   4.194   0.064   0.381 -0.5088  0.5512 -0.1073
   77SOL     OW  360   2.994   4.386   0.445  0.0788  0.2209  0.2819
   77SOL    HW2  361   2.961   4.393   0.534 -0.5238 -0.3340  0.1032
   77SOL    HW3  362   2.986   4.293   0.423  1.9429  0.0390  0.3054
   77SOL    MW4  363   2.989   4.375   0.454  0.2453  0.1235  0.2614
   78SOL     OW  364   1.378   4.536   0.329 -0.4578  0.1771  0.3590
   78SOL    HW2  365   1.431   4.603   0.286  0.7543 -1.0898 -0.1346
   78SOL    HW3  366   1.406   4.537   0.420 -1.1892  1.0579  0.5829
   78SOL    MW4  367   1.388   4.545   0.335 -0.3945  0.1264  0.3234
   79SOL     OW  368   1.798   1.368   0.367  0.1388 -0.2095 -0.3426
   79SOL    HW2  369   1.787   1.318   0.286 -0.4182  0.8962 -0.9626
   79SOL    HW3  370   1.711   1.371   0.406  0.2262  0.0268 -0.1657
   79SOL    MW4  371   1.785   1.362   0.362  0.0769 -0.0325 -0.4011
   80SOL     OW  372   1.606   4.069   0.420  0.0422 -0.4214  0.0528
   80SOL    HW2  373   1.556   4.111   0.349 -0.9050  1.6944  1.9125
   80SOL    HW3  374   1.540   4.026   0.474  0.5655 -0.4351  0.6881
   80SOL    MW4  375   1.591   4.069   0.418 -0.0137 -0.1445  0.3819
   81SOL     OW  376   1.835   1.661   0.446  0.5227 -0.1348  0.6156
   81SOL    HW2  377   1.806   1.576   0.415  0.6322 -0.4834  1.4441
   81SOL    HW3  378   1.818   1.659   0.541  0.3694  0.8224  0.6142
   81SOL    MW4  379   1.829   1.650   0.455  0.5169 -0.0546  0.7247
   82SOL     OW  380   2.055   1.321   0.442  0.1604  0.2602 -0.1749
   82SOL    HW2  381   2.095   1.245   0.399 -0.0440  0.3316 -0.4920
   82SOL    HW3  382   1.967   1.326   0.406  0.4027  1.0639 -0.6777
   82SOL    MW4  383   2.049   1.312   0.431  0.1655  0.3756 -0.2831
   83SOL     OW  384   3.902   1.152   0.521 -0.6674  0.0392  0.0113
   83SOL    HW2  385   3.927   1.065   0.488 -1.9568 -0.7002  0.9568
   83SOL    HW3  386   3.838   1.184   0.458  0.6034  0.7737 -0.9239
   83SOL    MW4  387   3.897   1.145   0.508 -0.6697  0.0386  0.0127
   84SOL     OW  388   1.299   2.080   0.557  0.4941  0.1470  0.0406
   84SOL    HW2  389   1.279   2.151   0.496  0.1647 -0.0639 -0.1023
   84SOL    HW3  390   1.234   2.091   0.627  2.6341  2.0946  1.8027
   84SOL    MW4  391   1.288   2.091   0.558  0.7329  0.3762  0.2542
   85SOL     OW  392   2.273   4.114   0.454  0.2363  0.3435  0.1804
   85SOL    HW2  393   2.205   4.057   0.417  0.9735  0.1069 -0.8375
   85SOL    HW3  394   2.244   4.203   0.432 -0.1779  0.2918  0.5061
   85SOL    MW4  395   2.260   4.118   0.446  0.2789  0.3047  0.0891
   86SOL     OW  396   3.753   2.453   0.435  0.3576 -0.2258  0.7101
   86SOL    HW2  397   3.709   2.450   0.520  0.5211  0.7884  0.8331
   86SOL    HW3  398   3.684   2.434   0.372 -0.2883  1.4649  0.8943
   86SOL    MW4  399   3.738   2.450   0.438  0.2937  0.1311  0.7507
   87SOL     OW  400   1.763   0.608   0.110 -0.3018  0.3776 -0.4169
   87SOL    HW2  401   1.701   0.641   0.044 -0.6594  1.2449  0.3402
   87SOL    HW3  402   1.726   0.525   0.138 -0.4685  0.2955 -0.8741
   87SOL    MW4  403   1.750   0.602   0.105 -0.3709  0.4811 -0.3773
   88SOL     OW  404   2.048   2.075   0.471 -0.0312  0.4689  0.6907
   88SOL    HW2  405   2.013   2.067   0.560 -0.7754  0.4890  0.4092
   88SOL    HW3  406   2.143   2.077   0.482 -0.0406 -1.2755  1.3586
   88SOL    MW4  407   2.056   2.074   0.484 -0.1307  0.2413  0.7417
   89SOL     OW  408   0.176   0.840   0.416  0.0373 -0.0785  0.0894
   89SOL    HW2  409   0.136   0.906   0.473  0.4868  0.1422  0.1491
   89SOL    HW3  410   0.269   0.859   0.419  0.1008 -0.2963 -0.4290
   89SOL    MW4  411   0.183   0.852   0.424  0.1050 -0.0781  0.0289
   90SOL     OW  412   2.730   3.692   0.321 -0.0602 -0.6017 -0.6821
   90SOL    HW2  413   2.700   3.609   0.356 -0.1169 -0.5451 -0.5950
   90SOL    HW3  414   2.655   3.725   0.271 -0.8319  0.4288  1.0855
   90SOL    MW4  415   2.716   3.686   0.319 -0.1695 -0.4582 -0.4374
   91SOL     OW  416   2.627   0.068   0.750 -0.2039 -0.6165 -0.0244
   91SOL    HW2  417   2.630   0.040   0.658  1.4980 -0.4609 -0.0304
   91SOL    HW3  418   2.710   0.038   0.787  0.0874  1.2506  0.8988
   91SOL    MW4  419   2.638   0.060   0.742  0.0591 -0.3496  0.0966
   92SOL     OW  420   1.104   3.578   0.652  0.9070 -0.0048  0.2519
   92SOL    HW2  421   1.161   3.533   0.714 -0.0229  0.0895  1.1691
   92SOL    HW3  422   1.067   3.651   0.701  0.3247  0.1897 -0.4644
   92SOL    MW4  423   1.107   3.581   0.666  0.7074  0.0336  0.2784
   93SOL     OW  424   1.321   2.422   0.730  0.0594  0.5803 -0.6428
   93SOL    HW2  425   1.246   2.389   0.780  1.5430 -0.3121  1.0708
   93SOL    HW3  426   1.328   2.514   0.756  0.0201  0.4654 -0.2208
   93SOL    MW4  427   1.312   2.430   0.740  0.2501  0.4473 -0.3610
   94SOL     OW  428   3.083   1.711   0.453  0.2036 -0.1537  0.2486
   94SOL    HW2  429   3.105   1.674   0.538 -1.3741 -0.7444  0.4046
   94SOL    HW3  430   3.039   1.640   0.406 -0.7314  0.7849 -0.3235
   94SOL    MW4  431   3.080   1.697   0.458 -0.1278 -0.1079  0.1937
   95SOL     OW  432   2.068   0.149   0.401  0.3327 -0.3791 -0.1347
   95SOL    HW2  433   2.047   0.073   0.347  1.3276 -2.0559  1.7770
   95SOL    HW3  434   2.161   0.139   0.421  0.3794  1.1266  0.4639
   95SOL    MW4  435   2.078   0.138   0.397  0.4702 -0.4017  0.1965
   96SOL     OW  436   0.792   0.278   0.481  0.2154 -0.1906  0.4053
   96SOL    HW2  437   0.878   0.299   0.444 -0.1667  1.4257  0.4030
   96SOL    HW3  438   0.809   0.260   0.573  0.5031  0.5451  0.5004
   96SOL    MW4  439   0.806   0.279   0.488  0.2030  0.1197  0.4176
   97SOL     OW  440   1.078   3.816   0.806  0.0656  0.1579 -0.4885
   97SOL    HW2  441   0.999   3.865   0.783  0.0541 -0.1290 -1.0859
   97SOL    HW3  442   1.086   3.824   0.901 -0.0342  1.1598 -0.5698
   97SOL    MW4  443   1.069   3.823   0.815  0.0509  0.2520 -0.5780
   98SOL     OW  444   2.384   3.776   0.464 -0.6004 -0.2704 -0.0725
   98SOL    HW2  445   2.423   3.711   0.523 -0.4691 -0.0486  0.0815
   98SOL    HW3  446   2.363   3.850   0.521  0.6622  0.4343 -0.5348
   98SOL    MW4  447   2.386   3.777   0.480 -0.4165 -0.1483 -0.1132
   99SOL     OW  448   2.196   3.651   0.318 -0.0819 -0.2662  0.3181
   99SOL    HW2  449   2.133   3.612   0.379 -0.0335 -0.8390  0.0102
   99SOL    HW3  450   2.252   3.706   0.372 -0.1936 -0.5827  0.7545
   99SOL    MW4  451   2.195   3.653   0.333 -0.0904 -0.3834  0.3350
  100SOL     OW  452   0.881   0.942   0.476  0.1638  0.2551  0.1674
  100SOL    HW2  453   0.864   0.956   0.569  0.6772  0.6216  0.2109
  100SOL    HW3  454   0.955   0.881   0.474  1.4458  1.7671  0.0305
  100SOL    MW4  455   0.888   0.936   0.488  0.4007  0.5029  0.1550
  101SOL     OW  456   1.694   0.364   0.232  0.0556  0.2891 -0.5982
  101SOL    HW2  457   1.746   0.346   0.310  0.5689  1.1341 -0.7326
  101SOL    HW3  458   1.612   0.400   0.266 -0.1954 -0.4672 -0.4063
  101SOL    MW4  459   1.690   0.366   0.247  0.0901  0.3008 -0.5907
  102SOL     OW  460   1.524   1.040   0.437  0.0373 -0.0326 -0.1143
  102SOL    HW2  461   1.465   0.976   0.477  0.0716 -0.4908 -0.7988
  102SOL    HW3  462   1.606   0.993   0.425 -0.2989 -0.2291 -1.7380
  102SOL    MW4  463   1.527   1.026   0.441 -0.0025 -0.1191 -0.4188
  103SOL     OW  464   1.333   0.216   0.470 -0.7152 -0.2097  0.1272
  103SOL    HW2  465   1.402   0.161   0.432  1.3565  1.3517  1.5000
  103SOL    HW3  466   1.345   0.301   0.428 -1.9520  0.0264  0.2401
  103SOL    MW4  467   1.344   0.220   0.459 -0.6051  0.0275  0.3232
  104SOL     OW  468   1.086   0.739   0.525 -0.8761  0.0215  0.9240
  104SOL    HW2  469   1.108   0.684   0.450 -0.6225 -0.4385  1.3375
  104SOL    HW3  470   1.158   0.803   0.529 -1.0498  0.2439  0.5909
  104SOL    MW4  471   1.099   0.740   0.516 -0.8656 -0.0098  0.9346
  105SOL     OW  472   3.394   2.909   0.385  0.2508 -0.2670  0.3871
  105SOL    HW2  473   3.484   2.875   0.388  0.4752  0.3116  0.1705
  105SOL    HW3  474   3.404   3.002   0.367 -0.3549 -0.0052  1.3285
  105SOL    MW4  475   3.407   2.917   0.383  0.2005 -0.1562  0.4828
  106SOL     OW  476   2.693   2.265   0.351  0.2091 -0.0676 -0.1859
  106SOL    HW2  477   2.604   2.278   0.320  0.6105 -0.1175 -1.3709
  106SOL    HW3  478   2.687   2.194   0.415 -0.3016 -1.3767 -1.6675
  106SOL    MW4  479   2.681   2.258   0.356  0.1948 -0.2468 -0.5377
  107SOL     OW  480   2.244   0.827   0.679  0.2463  0.2672  0.4583
  107SOL    HW2  481   2.271   0.820   0.588 -0.7007  1.7081  0.0622
  107SOL    HW3  482   2.309   0.775   0.727 -0.5990 -2.4970 -1.2631
  107SOL    MW4  483   2.256   0.819   0.674  0.0095  0.0926  0.1789
  108SOL     OW  484   1.461   3.101   0.481  0.6812  0.4278  0.2819
  108SOL    HW2  485   1.505   3.018   0.462 -0.5509  0.1005 -1.1704
  108SOL    HW3  486   1.375   3.094   0.439 -0.5779  1.2785  2.6397
  108SOL    MW4  487   1.456   3.089   0.473  0.3523  0.4969  0.4014
  109SOL     OW  488   2.713   2.558   0.425  0.0298 -0.5856 -0.5346
  109SOL    HW2  489   2.725   2.465   0.404 -0.0657 -0.5792 -0.6145
  109SOL    HW3  490   2.637   2.585   0.374  0.5193 -0.2697 -1.0891
  109SOL    MW4  491   2.705   2.549   0.416  0.0818 -0.5431 -0.6183
  110SOL     OW  492   1.182   3.043   0.421  0.3370 -0.1726 -0.1747
  110SOL    HW2  493   1.097   3.086   0.428  0.6683  0.5336 -0.4015
  110SOL    HW3  494   1.164   2.950   0.433 -0.4869 -0.0387 -0.4090
  110SOL    MW4  495   1.169   3.036   0.424  0.2719 -0.0615 -0.2355
  111SOL     OW  496   4.242   3.210   0.350 -0.1479  0.0490  0.2381
  111SOL    HW2  497   4.236   3.289   0.296  0.2282  0.4557  0.7934
  111SOL    HW3  498   4.333   3.207   0.379  0.8828 -2.6891 -2.9324
  111SOL    MW4  499   4.253   3.220   0.347  0.0377 -0.2587 -0.1069
  112SOL     OW  500   2.467   2.623   0.322 -0.1241  0.0658  0.3091
  112SOL    HW2  501   2.424   2.641   0.238 -1.1642  0.0968  0.8414
  112SOL    HW3  502   2.396   2.593   0.379  0.8809 -1.6529  0.6643
  112SOL    MW4  503   2.452   2.622   0.318 -0.1287 -0.1569  0.4262
  113SOL     OW  504   1.133   1.379   0.432  0.3116 -0.1801  0.1479
  113SOL    HW2  505   1.061   1.332   0.391  0.6790 -0.7238  0.1115
  113SOL    HW3  506   1.211   1.332   0.404  0.7984  1.2392 -0.9567
  113SOL    MW4  507   1.134   1.367   0.423  0.4243 -0.0645 -0.0027
  114SOL     OW  508   2.230   2.487   0.404 -0.2481 -0.1892 -0.3246
  114SOL    HW2  509   2.216   2.485   0.499 -0.6619 -1.4001 -0.4045
  114SOL    HW3  510   2.157   2.437   0.368 -0.8429  1.3963 -1.3853
  114SOL    MW4  511   2.218   2.480   0.412 -0.3817 -0.1397 -0.4751
  115SOL     OW  512   2.023   0.573   0.465  0.2835 -0.2731 -0.8076
  115SOL    HW2  513   1.987   0.484   0.469 -0.3967  0.0349  0.0733
  115SOL    HW3  514   1.953   0.625   0.425  0.4049 -0.0098 -0.6793
  115SOL    MW4  515   2.009   0.568   0.460  0.2098 -0.1976 -0.6745
  116SOL     OW  516   2.353   3.413   0.405  0.7125  0.2399  0.2632
  116SOL    HW2  517   2.335   3.479   0.338  1.6089  0.0463 -0.1839
  116SOL    HW3  518   2.268   3.374   0.424  0.4003  0.5284 -0.5209
  116SOL    MW4  519   2.340   3.417   0.398  0.7896  0.2520  0.1007
  117SOL     OW  520   0.659   3.624   0.530  0.0735  0.2992 -0.1809
  117SOL    HW2  521   0.626   3.713   0.516 -0.8225 -0.0853 -0.4720
  117SOL    HW3  522   0.672   3.619   0.625  1.0510  1.0586 -0.2539
  117SOL    MW4  523   0.657   3.635   0.541  0.0842  0.3483 -0.2289
  118SOL     OW  524   1.280   2.525   0.484  0.3552  0.6731  0.0492
  118SOL    HW2  525   1.365   2.529   0.440 -0.1335 -0.0263 -0.9806
  118SOL    HW3  526   1.299   2.488   0.570  0.9461 -0.5434 -0.5885
  118SOL    MW4  527   1.294   2.520   0.490  0.3687  0.4203 -0.1708
  119SOL     OW  528   2.448   4.352   0.734  0.4537  0.2433  0.3737
  119SOL    HW2  529   2.535   4.322   0.761  1.2859  1.4887 -0.8823
  119SOL    HW3  530   2.432   4.431   0.786  0.2725  0.2945  0.2404
  119SOL    MW4  531   2.457   4.358   0.745  0.5398  0.4144  0.1904
  120SOL     OW  532   2.475   0.458   0.702  0.1173  0.2310 -0.1125
  120SOL    HW2  533   2.462   0.434   0.610 -0.0408 -1.8119  0.4039
  120SOL    HW3  534   2.559   0.418   0.725 -0.0952  0.2862  0.7669
  120SOL    MW4  535   2.484   0.449   0.693  0.0684 -0.0313  0.0716
  121SOL     OW  536   1.557   0.113   0.318  0.2347  0.0268 -0.1600
  121SOL    HW2  537   1.585   0.181   0.257  0.4023  0.8108  0.7891
  121SOL    HW3  538   1.634   0.095   0.372 -0.7593  1.5622  1.8659
  121SOL    MW4  539   1.571   0.120   0.317  0.1255  0.3328  0.2325
  122SOL     OW  540   1.291   0.149   0.728 -0.2893  0.1763 -0.1451
  122SOL    HW2  541   1.298   0.234   0.771  1.4028 -0.5907  1.1463
  122SOL    HW3  542   1.294   0.170   0.634  1.5810  1.4485  0.1605
  122SOL    MW4  543   1.292   0.163   0.721  0.1807  0.2430  0.0656
  123SOL     OW  544   3.259   4.444   0.500 -0.1052 -0.2016  0.7688
  123SOL    HW2  545   3.169   4.415   0.482  0.0992  0.0834 -0.7586
  123SOL    HW3  546   3.314   4.383   0.452  0.5625 -0.7864  2.2510
  123SOL    MW4  547   3.254   4.432   0.491  0.0100 -0.2413  0.7629
  124SOL     OW  548   2.429   0.394   0.431  0.1207 -0.2199 -0.3792
  124SOL    HW2  549   2.518   0.403   0.397  0.7886  0.4566  1.4817
  124SOL    HW3  550   2.382   0.472   0.398  0.7805  0.4793  0.3293
  124SOL    MW4  551   2.434   0.406   0.422  0.2956 -0.0384 -0.0402
  125SOL     OW  552   1.973   4.570   0.280  0.1651  0.2379 -0.1799
  125SOL    HW2  553   1.944   4.508   0.213  0.0742 -2.0791  1.9220
  125SOL    HW3  554   1.893   4.592   0.328  0.8471 -1.6060  1.9203
  125SOL    MW4  555   1.959   4.565   0.277  0.2431 -0.3109  0.3745
  126SOL     OW  556   2.810   0.713   0.269  0.0099 -0.0820 -0.3549
  126SOL    HW2  557   2.825   0.774   0.197  0.2526  1.2535  0.8064
  126SOL    HW3  558   2.897   0.696   0.305 -0.3042  0.7538  0.8194
  126SOL    MW4  559   2.823   0.719   0.265  0.0005  0.2044 -0.0468
  127SOL     OW  560   4.197   0.512   0.534  0.1140 -0.3722 -0.3071
  127SOL    HW2  561   4.266   0.486   0.473 -1.0098  0.2726 -1.9023
  127SOL    HW3  562   4.117   0.478   0.495 -0.7907  1.2491  0.1075
  127SOL    MW4  563   4.196   0.504   0.521 -0.1540 -0.0733 -0.4628
  128SOL     OW  564   1.512   0.633   0.510  0.7498  0.1842  0.7088
  128SOL    HW2  565   1.515   0.584   0.592  1.2317  0.7362  1.0269
  128SOL    HW3  566   1.603   0.640   0.482  0.5699 -0.1404  0.0390
  128SOL    MW4  567   1.524   0.628   0.517  0.7896  0.2142  0.6624
  129SOL     OW  568   2.752   1.341   0.487 -0.2674 -0.5944  0.2167
  129SOL    HW2  569   2.673   1.393   0.497 -1.0457 -1.7647  0.2746
  129SOL    HW3  570   2.784   1.327   0.577  1.2708  1.7474  0.0790
  129SOL    MW4  571   2.746   1.346   0.500 -0.1671 -0.4399  0.2062
  130SOL     OW  572   2.916   0.517   0.740  0.0246  0.4828 -0.1389
  130SOL    HW2  573   2.999   0.486   0.776  0.1912  0.3557 -0.6255
  130SOL    HW3  574   2.850   0.457   0.776  0.3818 -0.6528 -1.3145
  130SOL    MW4  575   2.918   0.505   0.749  0.0937  0.3163 -0.3582
  131SOL     OW  576   3.714   0.584   0.405  0.1005 -0.1321  0.2716
  131SOL    HW2  577   3.670   0.602   0.322  0.1937 -0.5591  0.1267
  131SOL    HW3  578   3.689   0.656   0.463 -1.0860 -0.5605  0.3043
  131SOL    MW4  579   3.705   0.596   0.402 -0.0436 -0.2450  0.2568
  132SOL     OW  580   2.187   2.195   0.112 -0.7898 -0.2236  0.1238
  132SOL    HW2  581   2.152   2.110   0.140  1.9148 -1.8612 -1.2285
  132SOL    HW3  582   2.203   2.184   0.018  0.4679  1.4687  0.1233
  132SOL    MW4  583   2.185   2.182   0.103 -0.2670 -0.2165 -0.0547
  133SOL     OW  584   2.146   1.585   0.444 -0.0895 -0.4779  0.3961
  133SOL    HW2  585   2.070   1.630   0.408  0.8518  0.7378 -0.0937
  133SOL    HW3  586   2.123   1.492   0.440 -1.7318 -0.0971  0.7037
  133SOL    MW4  587   2.133   1.579   0.439 -0.1822 -0.2671  0.3721
  134SOL     OW  588   2.338   2.058   0.433  0.1938  0.3340 -0.1289
  134SOL    HW2  589   2.360   2.118   0.362  0.1659 -0.3901 -0.7572
  134SOL    HW3  590   2.360   1.971   0.399  0.8545  0.0403  1.0153
  134SOL    MW4  591   2.344   2.054   0.419  0.2775  0.1996 -0.0609
  135SOL     OW  592   2.708   2.005   0.484  0.4497 -0.0908 -0.4286
  135SOL    HW2  593   2.789   1.972   0.446 -0.0120 -1.8413  0.0690
  135SOL    HW3  594   2.720   1.997   0.578  0.3106  1.1463 -0.2964
  135SOL    MW4  595   2.720   2.000   0.491  0.3703 -0.1584 -0.3455
  136SOL     OW  596   2.510   3.839   0.221  0.5585  0.1627 -0.7463
  136SOL    HW2  597   2.518   3.934   0.210 -0.0869  0.1923 -0.9655
  136SOL    HW3  598   2.465   3.828   0.304  0.7413  0.0418 -0.6619
  136SOL    MW4  599   2.505   3.850   0.230  0.4976  0.1504 -0.7641
  137SOL     OW  600   2.118   3.294   0.489  0.3506 -0.1133  0.1795
  137SOL    HW2  601   2.155   3.250   0.565  0.5207 -2.2287 -1.0886
  137SOL    HW3  602   2.070   3.226   0.442 -0.7679  1.4237 -0.9826
  137SOL    MW4  603   2.117   3.279   0.493  0.2253 -0.1893 -0.1411
  138SOL     OW  604   1.113   4.175   0.384 -0.3838 -0.6322  0.1348
  138SOL    HW2  605   1.105   4.253   0.328  0.9981 -0.4441  0.1862
  138SOL    HW3  606   1.086   4.205   0.471  0.8484 -0.0274  0.3065
  138SOL    MW4  607   1.108   4.189   0.388 -0.0391 -0.5274  0.1643
  139SOL     OW  608   2.105   3.926   0.341 -0.0827 -0.2998  0.2029
  139SOL    HW2  609   2.121   3.846   0.291 -0.9883 -0.4882  0.2129
  139SOL    HW3  610   2.017   3.915   0.377 -0.4490  0.9682 -0.2845
  139SOL    MW4  611   2.096   3.914   0.339 -0.2506 -0.1574  0.1399
  140SOL     OW  612   1.560   3.565   0.462  0.1217 -0.4043  0.3991
  140SOL    HW2  613   1.612   3.591   0.386  0.0332 -1.3488  0.0032
  140SOL    HW3  614   1.469   3.579   0.434  0.1699  1.5860  1.2181
  140SOL    MW4  615   1.555   3.570   0.448  0.1165 -0.2661  0.4549
  141SOL     OW  616   1.994   3.542   0.496  0.4010 -0.3087  0.0190
  141SOL    HW2  617   2.038   3.457   0.497  0.2886 -0.3740 -0.7463
  141SOL    HW3  618   2.012   3.579   0.583 -0.0343 -1.3557  0.5629
  141SOL    MW4  619   2.002   3.536   0.508  0.3288 -0.4556 -0.0101
  142SOL     OW  620   2.207   0.108   0.732 -0.0471 -0.2822  0.4936
  142SOL    HW2  621   2.267   0.050   0.779 -0.2922 -2.0443 -1.2927
  142SOL    HW3  622   2.240   0.109   0.642 -1.8368 -0.0912 -0.1789
  142SOL    MW4  623   2.219   0.101   0.726 -0.3154 -0.4895  0.1692
  143SOL     OW  624   4.230   1.534   0.435 -0.1692  0.9251 -0.3379
  143SOL    HW2  625   4.322   1.526   0.408 -0.6520 -1.0347 -1.5113
  143SOL    HW3  626   4.211   1.452   0.480 -1.4131  1.2124 -0.3235
  143SOL    MW4  627   4.240   1.522   0.437 -0.3972  0.7044 -0.4908
  144SOL     OW  628   0.680   4.076   0.458 -0.7884  0.0471 -0.2878
  144SOL    HW2  629   0.766   4.034   0.450 -0.0041  2.0576 -3.2517
  144SOL    HW3  630   0.690   4.135   0.533 -0.4121 -1.5415  0.9446
  144SOL    MW4  631   0.693   4.078   0.467 -0.6353  0.1020 -0.5162
  145SOL     OW  632   2.012   4.421   0.711  0.1807 -0.6120 -0.2291
  145SOL    HW2  633   1.927   4.379   0.713  0.2374 -0.7407 -0.5413
  145SOL    HW3  634   2.070   4.360   0.757 -0.0296 -0.2263  0.5469
  145SOL    MW4  635   2.009   4.407   0.717  0.1605 -0.5779 -0.1678
  146SOL     OW  636   2.471   2.907   0.446  0.0805 -0.0799 -0.5016
  146SOL    HW2  637   2.465   2.823   0.400  1.4736 -0.1987 -0.4682
  146SOL    HW3  638   2.458   2.885   0.538  0.0952 -0.2102 -0.5310
  146SOL    MW4  639   2.468   2.893   0.452  0.2661 -0.1125 -0.5010
  147SOL     OW  640   2.710   2.997   0.455 -0.1525 -0.3421  0.8508
  147SOL    HW2  641   2.623   2.957   0.454 -0.3439  0.0634 -0.7345
  147SOL    HW3  642   2.771   2.923   0.444 -0.4614 -0.3580 -1.0669
  147SOL    MW4  643   2.707   2.982   0.453 -0.2186 -0.2909  0.3887
  148SOL     OW  644   0.678   1.329   0.378 -0.1174  0.2397  0.4312
  148SOL    HW2  645   0.598   1.284   0.352 -0.2453 -0.2094  1.5491
  148SOL    HW3  646   0.655   1.422   0.377  0.0693  0.2657 -1.6246
  148SOL    MW4  647   0.665   1.335   0.375 -0.1096  0.1841  0.3075
  149SOL     OW  648   2.995   0.170   0.523  0.1348 -0.2968  0.2803
  149SOL    HW2  649   2.927   0.119   0.479 -0.9416  0.2761  1.2831
  149SOL    HW3  650   2.981   0.259   0.493  0.6333 -0.2166  0.2765
  149SOL    MW4  651   2.984   0.175   0.513  0.0584 -0.2107  0.4121
  150SOL     OW  652   3.895   3.770   0.488  0.0912  0.1294  0.0465
  150SOL    HW2  653   3.907   3.746   0.580  1.0055 -0.3401 -0.1998
  150SOL    HW3  654   3.950   3.847   0.475  0.2184 -0.0023 -0.1981
  150SOL    MW4  655   3.904   3.777   0.498  0.2289  0.0501 -0.0183
  151SOL     OW  656   2.270   1.788   0.297  0.4312  0.0721 -0.2105
  151SOL    HW2  657   2.242   1.698   0.313 -3.0203  0.8371 -1.4336
  151SOL    HW3  658   2.364   1.782   0.281  0.6322 -3.0153  1.8074
  151SOL    MW4  659   2.279   1.775   0.297  0.0024 -0.2341 -0.1056
  152SOL     OW  660   3.924   0.433   0.525  0.8997 -0.0423 -0.0416
  152SOL    HW2  661   3.921   0.474   0.611 -1.1760  0.3725 -0.2876
  152SOL    HW3  662   3.872   0.490   0.468 -1.1225 -2.3543 -0.6348
  152SOL    MW4  663   3.917   0.446   0.529  0.3591 -0.2926 -0.1523
  153SOL     OW  664   3.062   0.689   0.383  0.1161 -0.0812  0.1848
  153SOL    HW2  665   3.069   0.784   0.390 -0.2339 -0.1604  1.7987
  153SOL    HW3  666   3.150   0.660   0.361 -0.0174  0.6936 -1.4769
  153SOL    MW4  667   3.074   0.698   0.381  0.0525  0.0106  0.1784
  154SOL     OW  668   4.137   2.034   0.403 -0.4733  0.2228  0.2582
  154SOL    HW2  669   4.125   1.945   0.436 -0.3408  0.1333  0.0616
  154SOL    HW3  670   4.054   2.079   0.423 -0.2807  0.2552  0.9934
  154SOL    MW4  671   4.124   2.028   0.410 -0.4306  0.2155  0.3293
  155SOL     OW  672   1.534   1.319   0.120  0.3127 -0.4607  0.2271
  155SOL    HW2  673   1.602   1.252   0.113  0.1188 -0.5221 -1.1704
  155SOL    HW3  674   1.531   1.359   0.033  0.3301  1.2679  0.9869
  155SOL    MW4  675   1.543   1.316   0.108  0.2893 -0.2407  0.1430
  156SOL     OW  676   2.878   0.010   0.833  0.1554 -0.4315  0.0932
  156SOL    HW2  677   2.879  -0.076   0.790  0.7725 -0.0831 -0.6087
  156SOL    HW3  678   2.959   0.052   0.803  0.9714 -0.4706  2.1965
  156SOL    MW4  679   2.889   0.004   0.823  0.3443 -0.3901  0.2780
  157SOL     OW  680   2.907   2.132   0.856 -0.1906 -0.2981  0.2582
  157SOL    HW2  681   2.816   2.104   0.864  0.3249 -1.6674  1.7149
  157SOL    HW3  682   2.917   2.200   0.922 -0.4060  0.5284 -0.5604
  157SOL    MW4  683   2.896   2.137   0.866 -0.1509 -0.3698  0.3424
  158SOL     OW  684   2.997   2.292   0.355 -0.0663  0.1982  0.2585
  158SOL    HW2  685   2.973   2.307   0.447  0.2912  2.0032  0.0714
  158SOL    HW3  686   2.916   2.263   0.314 -0.2255 -0.6531  1.1420
  158SOL    MW4  687   2.984   2.290   0.362 -0.0403  0.3240  0.3504
  159SOL     OW  688   2.680   0.441   0.327 -0.0445  0.0529  0.0393
  159SOL    HW2  689   2.703   0.522   0.281 -0.9097 -0.3318 -1.0809
  159SOL    HW3  690   2.758   0.422   0.380 -0.1134  2.0200  0.9269
  159SOL    MW4  691   2.693   0.450   0.328 -0.1676  0.2617  0.0086
  160SOL     OW  692   2.072   1.962   0.160  0.2227 -0.3676  0.4548
  160SOL    HW2  693   1.993   1.958   0.214 -0.9262 -1.9201 -1.3203
  160SOL    HW3  694   2.134   1.903   0.203 -0.1298 -0.3534  0.9799
  160SOL    MW4  695   2.070   1.954   0.173  0.0248 -0.5704  0.2899
  161SOL     OW  696   1.531   2.536   0.379 -0.2874  0.1686 -0.0828
  161SOL    HW2  697   1.561   2.619   0.416 -1.1646  1.0669 -1.3338
  161SOL    HW3  698   1.612   2.487   0.361  0.2198  0.5830  0.9918
  161SOL    MW4  699   1.546   2.540   0.382 -0.3362  0.3419 -0.1060
  162SOL     OW  700   3.615   3.777   0.442 -0.2362 -0.4801 -0.0463
  162SOL    HW2  701   3.587   3.869   0.440 -1.0317 -0.7268 -0.4481
  162SOL    HW3  702   3.710   3.781   0.438 -0.3260  0.2777 -1.6309
  162SOL    MW4  703   3.624   3.790   0.441 -0.3531 -0.4127 -0.3083
  163SOL     OW  704   0.355   1.907   0.467 -0.5834  0.1412  0.1099
  163SOL    HW2  705   0.307   1.988   0.452  0.0101  0.7093  1.2683
  163SOL    HW3  706   0.446   1.934   0.481 -0.2936 -0.7588  0.0437
  163SOL    MW4  707   0.361   1.921   0.467 -0.4669  0.0974  0.2540
  164SOL     OW  708   4.264   4.188   0.399  0.8394  0.2850  0.2751
  164SOL    HW2  709   4.353   4.163   0.425  0.3843 -0.3654  1.2271
  164SOL    HW3  710   4.260   4.282   0.418  1.4098  0.3748 -0.0293
  164SOL    MW4  711   4.275   4.197   0.405  0.8545  0.2108  0.3605
  165SOL     OW  712   2.932   3.238   0.427  0.1657  0.2637 -0.4199
  165SOL    HW2  713   2.933   3.332   0.443 -1.2406  0.1797  0.2996
  165SOL    HW3  714   3.000   3.203   0.484  0.5505  0.8268 -0.5348
  165SOL    MW4  715   2.941   3.245   0.437  0.0310  0.3269 -0.3401
  166SOL     OW  716   0.905   2.643   0.327 -0.0022 -0.1064 -0.2344
  166SOL    HW2  717   0.875   2.643   0.236 -0.4957  2.3386 -0.1062
  166SOL    HW3  718   0.896   2.552   0.355 -0.8215 -0.7002 -2.3103
  166SOL    MW4  719   0.900   2.631   0.318 -0.1754  0.1378 -0.4914
  167SOL     OW  720   2.508   3.191   0.375  0.1357  0.0651  0.3833
  167SOL    HW2  721   2.465   3.105   0.377 -0.5548  0.3828  4.8293
  167SOL    HW3  722   2.436   3.253   0.364  0.5163  0.1633 -1.6773
  167SOL    MW4  723   2.493   3.188   0.374  0.0949  0.1199  0.6981
  168SOL     OW  724   0.217   2.798   0.422 -0.0854  0.3876 -0.4322
  168SOL    HW2  725   0.205   2.893   0.430 -2.3568 -0.0666  2.4215
  168SOL    HW3  726   0.132   2.765   0.392  0.4968 -0.8187 -0.7978
  168SOL    MW4  727   0.204   2.806   0.419 -0.3083  0.1686 -0.1040
  169SOL     OW  728   2.238   1.091   0.324 -0.2188 -0.0011 -0.3557
  169SOL    HW2  729   2.314   1.143   0.350 -0.8065  0.0524  1.2858
  169SOL    HW3  730   2.264   1.001   0.339 -0.0600 -0.0534 -0.9268
  169SOL    MW4  731   2.251   1.086   0.329 -0.2751 -0.0010 -0.2145
  170SOL     OW  732   2.958   1.925   0.326  0.2088  0.2186 -0.3662
  170SOL    HW2  733   3.022   1.994   0.309 -0.1020  0.8894  1.2025
  170SOL    HW3  734   3.000   1.869   0.391  0.8396 -1.6141 -2.2904
  170SOL    MW4  735   2.972   1.926   0.332  0.2511  0.0654 -0.4131
  171SOL     OW  736   0.175   4.644   0.419  0.6983  0.0069  0.0677
  171SOL    HW2  737   0.140   4.559   0.444  1.1892 -0.5042 -0.9425
  171SOL    HW3  738   0.101   4.704   0.429  0.3803 -0.5165  0.8872
  171SOL    MW4  739   0.160   4.641   0.423  0.7211 -0.1297  0.0425
  172SOL     OW  740   4.111   3.556   0.437  0.6269 -0.3888 -0.0517
  172SOL    HW2  741   4.038   3.618   0.435  0.5184 -0.3554  2.8071
  172SOL    HW3  742   4.069   3.470   0.439  0.5479 -0.3375  3.2678
  172SOL    MW4  743   4.096   3.552   0.437  0.6018 -0.3777  0.7634
  173SOL     OW  744   2.461   4.405   0.452 -0.1567  0.3223 -0.2158
  173SOL    HW2  745   2.367   4.417   0.437 -0.1937  0.3116  0.0097
  173SOL    HW3  746   2.467   4.373   0.542  0.2424  2.8041  0.6739
  173SOL    MW4  747   2.449   4.402   0.462 -0.1087  0.6480 -0.0687
  174SOL     OW  748   1.524   4.558   0.568 -0.0572 -0.2534 -0.3691
  174SOL    HW2  749   1.508   4.467   0.593  1.8126 -0.9807 -1.6921
  174SOL    HW3  750   1.517   4.607   0.650  0.3304 -1.7791  0.5928
  174SOL    MW4  751   1.521   4.552   0.582  0.2406 -0.5503 -0.4168
  175SOL     OW  752   3.371   1.314   0.224  0.0900 -0.1274 -0.1345
  175SOL    HW2  753   3.402   1.360   0.302 -0.6997 -0.1945  0.2251
  175SOL    HW3  754   3.450   1.278   0.185  0.4381 -0.5342  0.9192
  175SOL    MW4  755   3.385   1.316   0.229  0.0319 -0.1899  0.0520
  176SOL     OW  756   1.836   3.886   0.422 -0.0610 -0.0712 -0.5524
  176SOL    HW2  757   1.760   3.939   0.399 -0.7803 -0.9048 -0.1362
  176SOL    HW3  758   1.817   3.800   0.384  0.5416 -0.3564 -0.2126
  176SOL    MW4  759   1.823   3.881   0.414 -0.0764 -0.2191 -0.4526
  177SOL     OW  760   1.741   1.126   0.177  0.1747 -0.3454 -0.1262
  177SOL    HW2  761   1.699   1.077   0.248  0.7451  2.6626  2.3875
  177SOL    HW3  762   1.825   1.082   0.164 -0.2298 -1.3423  0.5685
  177SOL    MW4  763   1.747   1.114   0.185  0.1968 -0.0799  0.2971
  178SOL     OW  764   3.486   0.170   0.366  0.2049 -0.2474 -0.1567
  178SOL    HW2  765   3.410   0.134   0.411  0.0742  1.9285  1.4067
  178SOL    HW3  766   3.452   0.199   0.281 -0.7409  0.7326  0.5405
  178SOL    MW4  767   3.472   0.169   0.360  0.0627  0.1690  0.1416
  179SOL     OW  768   3.423   1.875   0.155  0.2440  0.3405 -0.6364
  179SOL    HW2  769   3.342   1.915   0.123  0.5959  3.0888  1.7626
  179SOL    HW3  770   3.400   1.843   0.242  1.7443  1.2258  0.0913
  179SOL    MW4  771   3.409   1.876   0.162  0.4885  0.8198 -0.2239
  180SOL     OW  772   2.630   3.461   0.452 -0.1909  0.3048 -0.5107
  180SOL    HW2  773   2.607   3.495   0.538  1.1820 -1.9353  0.7917
  180SOL    HW3  774   2.546   3.446   0.409 -0.9159  0.7548  0.7203
  180SOL    MW4  775   2.616   3.464   0.458 -0.1054  0.0687 -0.1764
  181SOL     OW  776   3.057   0.984   0.429  0.2780 -0.2779  0.3999
  181SOL    HW2  777   3.139   1.032   0.420 -0.4423  0.8480 -0.3985
  181SOL    HW3  778   3.050   0.964   0.522  0.5464  1.2826  0.7654
  181SOL    MW4  779   3.067   0.988   0.440  0.2182  0.0766  0.3428
  182SOL     OW  780   3.842   1.293   0.779 -0.1745 -0.2319  0.2412
  182SOL    HW2  781   3.761   1.242   0.789 -1.5791  1.9049  0.2742
  182SOL    HW3  782   3.863   1.287   0.686  0.1550 -1.5756  0.4014
  182SOL    MW4  783   3.834   1.286   0.768 -0.3164 -0.1273  0.2667
  183SOL     OW  784   1.777   0.939   0.409  0.1051  0.6452  0.6965
  183SOL    HW2  785   1.868   0.936   0.379 -0.1035  1.9690 -0.0910
  183SOL    HW3  786   1.783   0.931   0.504  0.9076 -1.4229  0.5007
  183SOL    MW4  787   1.790   0.937   0.417  0.1836  0.5470  0.5668
  184SOL     OW  788   3.938   0.138   0.481 -0.2531 -0.4196  0.5137
  184SOL    HW2  789   3.937   0.233   0.488 -1.1967 -0.3908  0.0984
  184SOL    HW3  790   4.018   0.118   0.432 -0.1051  0.1609  0.5135
  184SOL    MW4  791   3.948   0.148   0.476 -0.3581 -0.3392  0.4589
  185SOL     OW  792   3.287   3.341   0.473  0.0182 -0.4998 -0.1115
  185SOL    HW2  793   3.236   3.335   0.554 -0.7670  0.1259 -0.5623
  185SOL    HW3  794   3.336   3.422   0.481  0.4526 -0.7692  0.0221
  185SOL    MW4  795   3.286   3.351   0.485 -0.0277 -0.4525 -0.1533
  186SOL     OW  796   3.180   2.106   0.245 -0.0469  0.0529 -0.0420
  186SOL    HW2  797   3.116   2.174   0.266  0.5473  1.3681 -2.2597
  186SOL    HW3  798   3.260   2.132   0.291 -0.0228  0.5114 -0.3384
  186SOL    MW4  799   3.182   2.118   0.254  0.0346  0.2871 -0.3737
  187SOL     OW  800   2.964   2.851   0.688  0.0545  0.4778  0.1591
  187SOL    HW2  801   2.945   2.826   0.597  0.8502  0.2081  0.0694
  187SOL    HW3  802   3.040   2.799   0.712 -1.4209 -1.0514  1.6949
  187SOL    MW4  803   2.971   2.841   0.679 -0.0355  0.2403  0.3499
  188SOL     OW  804   3.670   4.444   0.516 -1.0014  0.0674  0.1798
  188SOL    HW2  805   3.673   4.538   0.538  1.8861 -0.4289  2.1634
  188SOL    HW3  806   3.636   4.403   0.596 -0.8953 -0.7315 -0.1896
  188SOL    MW4  807   3.666   4.451   0.530 -0.6063 -0.1035  0.3929
  189SOL     OW  808   0.013   3.249   0.451  0.1011  0.2076  0.6135
  189SOL    HW2  809   0.086   3.198   0.485 -0.0831 -0.2538  0.3155
  189SOL    HW3  810   0.047   3.339   0.446  0.2850  0.1995  1.5456
  189SOL    MW4  811   0.027   3.254   0.455  0.1010  0.1457  0.6972
  190SOL     OW  812   0.945   3.969   0.471 -0.3233  0.2977 -0.0000
  190SOL    HW2  813   0.987   4.048   0.436  0.1414  0.3616  0.7142
  190SOL    HW3  814   0.967   3.901   0.407  1.8175  0.0747  0.9402
  190SOL    MW4  815   0.954   3.971   0.458  0.0205  0.2768  0.2182
  191SOL     OW  816   3.717   3.206   0.439  0.0268  0.0592  0.1605
  191SOL    HW2  817   3.633   3.208   0.392  0.6107  1.1619 -0.8882
  191SOL    HW3  818   3.736   3.113   0.452 -1.7704 -0.1757  1.1753
  191SOL    MW4  819   3.709   3.194   0.434 -0.1333  0.1738  0.1560
  192SOL     OW  820   0.832   1.791   0.487 -0.0614  0.3201 -0.2966
  192SOL    HW2  821   0.869   1.770   0.572 -0.5496 -0.1910 -0.2075
  192SOL    HW3  822   0.907   1.793   0.427  0.1598 -0.2566 -0.0340
  192SOL    MW4  823   0.847   1.789   0.490 -0.0967  0.1768 -0.2502
  193SOL     OW  824   1.671   3.287   0.461  0.1039 -0.7144 -0.2663
  193SOL    HW2  825   1.640   3.378   0.461  0.3518 -0.6092  1.6084
  193SOL    HW3  826   1.591   3.235   0.465  0.0016 -0.5303  0.1971
  193SOL    MW4  827   1.656   3.292   0.462  0.1233 -0.6762  0.0422
  194SOL     OW  828   2.234   0.544   0.286  0.3995  0.0553 -0.3228
  194SOL    HW2  829   2.164   0.551   0.351 -1.3157 -0.0253 -2.1425
  194SOL    HW3  830   2.225   0.455   0.251  0.4721  0.5493 -1.6132
  194SOL    MW4  831   2.224   0.533   0.290  0.1829  0.1098 -0.7331
  195SOL     OW  832   3.172   3.721   0.418  0.0125 -0.5365 -0.7900
  195SOL    HW2  833   3.254   3.680   0.447  0.7246  0.7316 -0.9274
  195SOL    HW3  834   3.181   3.725   0.323  0.7882  1.5817 -0.6580
  195SOL    MW4  835   3.184   3.716   0.409  0.2089 -0.0896 -0.7907
  196SOL     OW  836   3.461   0.877   0.416  0.1662  0.0316 -0.2444
  196SOL    HW2  837   3.392   0.940   0.397  0.0644  0.0490  0.1849
  196SOL    HW3  838   3.538   0.911   0.369  0.5045  1.2616  1.1421
  196SOL    MW4  839   3.462   0.890   0.407  0.1972  0.1962 -0.0048
  197SOL     OW  840   2.530   4.117   0.305  0.3397  0.0768 -0.4071
  197SOL    HW2  841   2.454   4.119   0.363 -0.0685 -0.6146 -0.9080
  197SOL    HW3  842   2.561   4.208   0.303 -0.5060  0.3715 -0.2359
  197SOL    MW4  843   2.524   4.129   0.312  0.1743  0.0243 -0.4506
  198SOL     OW  844   3.346   1.801   0.411 -0.1365 -0.1427  0.1161
  198SOL    HW2  845   3.255   1.778   0.429  0.1194 -0.5315  0.9533
  198SOL    HW3  846   3.351   1.895   0.429 -0.4649 -0.0429 -0.3166
  198SOL    MW4  847   3.335   1.810   0.416 -0.1459 -0.1807  0.1695
  199SOL     OW  848   1.057   0.275   0.355  0.2941  0.4927  0.3388
  199SOL    HW2  849   1.020   0.196   0.314 -1.5745  1.2862  0.4625
  199SOL    HW3  850   1.129   0.243   0.408 -0.9749 -1.2559  1.0538
  199SOL    MW4  851   1.061   0.260   0.356 -0.1197  0.3667  0.4495
  200SOL     OW  852   0.035   4.135   0.509  0.1284  0.0886 -0.2044
  200SOL    HW2  853   0.010   4.075   0.579 -0.6210  0.0134 -0.5339
  200SOL    HW3  854   0.115   4.097   0.472  1.1231  0.6801  1.2865
  200SOL    MW4  855   0.043   4.122   0.514  0.1607  0.1574 -0.0511
  201SOL     OW  856   3.797   1.720   0.352 -0.4928  0.0109  0.1104
  201SOL    HW2  857   3.718   1.696   0.401  0.0282  1.3367  1.6449
  201SOL    HW3  858   3.766   1.784   0.287 -0.7057  0.5169  0.6979
  201SOL    MW4  859   3.782   1.725   0.350 -0.4520  0.2526  0.3904
  202SOL     OW  860   2.926   1.510   0.344  0.1128  0.6413 -0.1546
  202SOL    HW2  861   2.871   1.458   0.403 -1.4392  0.7713 -1.4372
  202SOL    HW3  862   2.969   1.445   0.288 -0.0994  0.6254 -0.2997
  202SOL    MW4  863   2.924   1.494   0.344 -0.1199  0.6564 -0.3429
  203SOL     OW  864   3.527   0.922   0.683  0.1742  0.3883 -0.1922
  203SOL    HW2  865   3.462   0.871   0.730  0.1948  0.3965 -0.1547
  203SOL    HW3  866   3.503   0.913   0.591 -0.7310  1.5466 -0.0859
  203SOL    MW4  867   3.515   0.914   0.677  0.0577  0.5422 -0.1732
  204SOL     OW  868   3.331   0.636   0.329  0.2856 -0.1719  0.3355
  204SOL    HW2  869   3.378   0.564   0.373  1.2946  0.4132  0.2480
  204SOL    HW3  870   3.373   0.715   0.363 -0.0236  0.3364 -0.4590
  204SOL    MW4  871   3.343   0.637   0.340  0.3777 -0.0277  0.2192
  205SOL     OW  872   3.578   1.632   0.474 -0.1404 -0.3159 -0.1634
  205SOL    HW2  873   3.489   1.665   0.460 -0.7740 -1.3808  1.1794
  205SOL    HW3  874   3.600   1.660   0.563 -0.4837 -2.9500  0.8016
  205SOL    MW4  875   3.569   1.640   0.484 -0.2692 -0.8039  0.1411
  206SOL     OW  876   2.699   1.133   0.331  0.2001  0.0327  0.4246
  206SOL    HW2  877   2.776   1.129   0.274  0.1679  0.9736  0.2974
  206SOL    HW3  878   2.718   1.205   0.391 -1.0204  0.9866 -0.2930
  206SOL    MW4  879   2.711   1.142   0.331  0.0346  0.2828  0.3132
  207SOL     OW  880   3.508   2.396   0.271  0.0527 -0.1640  0.0416
  207SOL    HW2  881   3.423   2.410   0.313  0.0743 -1.4401  0.5263
  207SOL    HW3  882   3.509   2.458   0.198 -0.1160  1.8639  1.7361
  207SOL    MW4  883   3.497   2.406   0.267  0.0331 -0.0646  0.3291
  208SOL     OW  884   2.882   2.788   0.415 -0.3130  0.1459  0.2659
  208SOL    HW2  885   2.828   2.710   0.407  0.7232 -0.4106 -1.5229
  208SOL    HW3  886   2.969   2.761   0.383  0.3966  1.6610  0.8512
  208SOL    MW4  887   2.887   2.774   0.410 -0.0825  0.2725  0.1071
  209SOL     OW  888   3.455   0.436   0.480 -0.6925 -0.0281 -0.7311
  209SOL    HW2  889   3.541   0.476   0.469 -0.7954  0.3009 -0.3469
  209SOL    HW3  890   3.465   0.347   0.446  0.3320 -0.6190  1.0817
  209SOL    MW4  891   3.467   0.429   0.474 -0.5710 -0.0626 -0.4413
  210SOL     OW  892   3.649   2.745   0.397 -0.1855  0.4843 -0.1233
  210SOL    HW2  893   3.677   2.654   0.403 -1.7207  0.0583  0.7578
  210SOL    HW3  894   3.728   2.795   0.417  0.3020 -0.6871  0.9815
  210SOL    MW4  895   3.663   2.740   0.401 -0.3238  0.2735  0.1387
  211SOL     OW  896   3.246   2.447   0.381 -0.1031  0.4478 -0.2522
  211SOL    HW2  897   3.257   2.445   0.476 -0.7801  1.9713 -0.1260
  211SOL    HW3  898   3.164   2.400   0.366  0.7140 -1.0067 -0.2121
  211SOL    MW4  899   3.237   2.441   0.392 -0.0849  0.4568 -0.2302
  212SOL     OW  900   3.405   3.607   0.499 -0.0443  0.2622  0.2308
  212SOL    HW2  901   3.406   3.612   0.595 -0.4513 -2.1962  0.3987
  212SOL    HW3  902   3.478   3.662   0.472 -0.1061  1.2304  1.9333
  212SOL    MW4  903   3.415   3.615   0.508 -0.1061  0.0653  0.4776
  213SOL     OW  904   0.976   3.743   0.310  0.2906  0.2407  0.3378
  213SOL    HW2  905   0.945   3.741   0.220  1.0710 -1.0550  0.0924
  213SOL    HW3  906   0.952   3.657   0.346  0.7146  0.4379  1.1121
  213SOL    MW4  907   0.969   3.731   0.303  0.4494  0.0956  0.4076
  214SOL     OW  908   1.775   0.665   0.389 -0.0355  0.0808  0.0698
  214SOL    HW2  909   1.769   0.760   0.403 -0.2809  0.1042 -0.2005
  214SOL    HW3  910   1.763   0.654   0.295  0.1318 -0.2088  0.0828
  214SOL    MW4  911   1.773   0.676   0.378 -0.0459  0.0457  0.0359
  215SOL     OW  912   3.217   3.992   0.462  0.1134 -0.3752 -0.2411
  215SOL    HW2  913   3.219   3.896   0.454 -0.4468 -0.3829 -0.2463
  215SOL    HW3  914   3.198   4.008   0.554  2.0536 -0.2685  0.1640
  215SOL    MW4  915   3.215   3.981   0.473  0.2952 -0.3622 -0.1884
  216SOL     OW  916   3.694   1.924   0.116 -0.3247 -0.0307  0.1350
  216SOL    HW2  917   3.599   1.917   0.130 -0.2119  0.4586  1.1314
  216SOL    HW3  918   3.702   1.961   0.028 -1.0786  1.2720  0.6077
  216SOL    MW4  919   3.682   1.928   0.106 -0.4094  0.2058  0.3288
  217SOL     OW  920   2.722   3.944   0.447 -0.1738  0.0806  0.7948
  217SOL    HW2  921   2.711   3.858   0.407 -1.3386 -0.1913  1.6843
  217SOL    HW3  922   2.661   4.000   0.399 -0.6525  0.0357  1.3533
  217SOL    MW4  923   2.713   3.940   0.435 -0.3908  0.0389  0.9859
  218SOL     OW  924   3.078   1.333   0.148 -0.2693 -0.0612 -0.1638
  218SOL    HW2  925   3.168   1.325   0.180  0.2147  0.3483 -1.3773
  218SOL    HW3  926   3.087   1.373   0.061 -1.5931 -0.4085 -0.4737
  218SOL    MW4  927   3.091   1.337   0.141 -0.3800 -0.0530 -0.3648
  219SOL     OW  928   3.466   4.333   0.336 -0.4935  0.0529 -0.1328
  219SOL    HW2  929   3.476   4.346   0.242 -1.4020 -1.1862 -0.4048
  219SOL    HW3  930   3.540   4.380   0.374 -0.7988  1.5976 -1.3805
  219SOL    MW4  931   3.477   4.341   0.329 -0.6535  0.0930 -0.3333
  220SOL     OW  932   3.686   0.060   0.528  0.1946  0.5491  0.2560
  220SOL    HW2  933   3.635   0.105   0.461  0.0995 -1.5138 -1.0913
  220SOL    HW3  934   3.776   0.090   0.513  0.1596  0.1824 -0.7401
  220SOL    MW4  935   3.691   0.070   0.517  0.1771  0.2286 -0.0532
  221SOL     OW  936   3.299   1.107   0.393  0.2966  0.1383  0.3054
  221SOL    HW2  937   3.321   1.165   0.320 -0.9656 -0.2232 -0.3796
  221SOL    HW3  938   3.314   1.160   0.472  0.3677  0.9699 -0.2644
  221SOL    MW4  939   3.304   1.122   0.394  0.1397  0.2002  0.1398
  222SOL     OW  940   0.886   2.382   0.424 -0.5102 -0.0201 -0.0500
  222SOL    HW2  941   0.879   2.399   0.518 -2.9623 -2.2327  0.2101
  222SOL    HW3  942   0.971   2.339   0.414 -0.4517 -0.2130  1.2259
  222SOL    MW4  943   0.896   2.378   0.435 -0.8261 -0.3374  0.1527
  223SOL     OW  944   2.944   1.072   0.197  0.0113  0.1394 -0.3308
  223SOL    HW2  945   2.982   1.047   0.282 -1.5353 -0.4411  0.2138
  223SOL    HW3  946   2.984   1.156   0.177 -0.0659  0.5940  1.3017
  223SOL    MW4  947   2.954   1.080   0.206 -0.2031  0.1227 -0.0436
  224SOL     OW  948   1.135   2.764   0.450  0.1424  0.0767 -0.0771
  224SOL    HW2  949   1.195   2.690   0.460  1.0286  0.9276  1.0631
  224SOL    HW3  950   1.058   2.727   0.406  0.9439 -1.3163 -0.3432
  224SOL    MW4  951   1.133   2.749   0.445  0.3651  0.0052  0.0382
  225SOL     OW  952   2.939   0.436   0.477 -0.2597  0.0355  0.6684
  225SOL    HW2  953   2.960   0.519   0.435 -0.2053 -0.4397 -0.2348
  225SOL    HW3  954   2.942   0.456   0.571  0.2359  0.9330  0.4664
  225SOL    MW4  955   2.942   0.449   0.484 -0.1872  0.0912  0.5226
  226SOL     OW  956   2.459   1.270   0.411  0.3845  0.1578  0.3620
  226SOL    HW2  957   2.435   1.356   0.376 -0.8359 -0.7586 -1.1643
  226SOL    HW3  958   2.515   1.232   0.343 -0.4269 -0.8880  0.2746
  226SOL    MW4  959   2.463   1.276   0.397  0.1166 -0.1012  0.1491
  227SOL     OW  960   1.284   3.936   0.478  0.1961 -0.0886  0.1605
  227SOL    HW2  961   1.218   3.997   0.445 -0.0456 -0.6112 -0.3376
  227SOL    HW3  962   1.251   3.850   0.452  0.4450 -0.4438  1.0110
  227SOL    MW4  963   1.271   3.933   0.470  0.1972 -0.2046  0.2070
  228SOL     OW  964   4.212   4.466   0.468  0.1032  0.0159  0.0617
  228SOL    HW2  965   4.118   4.452   0.457  0.2769 -0.3189 -1.0957
  228SOL    HW3  966   4.226   4.460   0.562 -0.9636 -0.3682  0.2067
  228SOL    MW4  967   4.201   4.464   0.479 -0.0148 -0.0792 -0.0719
  229SOL     OW  968   4.211   2.069   0.682  0.2162 -0.1593  0.1330
  229SOL    HW2  969   4.205   2.069   0.586 -0.8153  0.5280  0.1887
  229SOL    HW3  970   4.297   2.031   0.700  0.0934 -1.0457 -1.0432
  229SOL    MW4  971   4.222   2.064   0.672  0.0639 -0.1853 -0.0148
  230SOL     OW  972   3.389   2.074   0.703 -0.2189  0.3069  0.0610
  230SOL    HW2  973   3.304   2.059   0.744 -0.0443 -1.1512 -0.0836
  230SOL    HW3  974   3.414   2.162   0.731 -0.6876 -0.1766  2.0272
  230SOL    MW4  975   3.381   2.084   0.712 -0.2577  0.0508  0.3013
  231SOL     OW  976   1.604   2.846   0.438  0.0590 -0.0983 -0.1427
  231SOL    HW2  977   1.699   2.844   0.428  0.1517 -1.9111  0.8653
  231SOL    HW3  978   1.590   2.847   0.533 -0.9320  2.5138 -0.2530
  231SOL    MW4  979   1.615   2.846   0.449 -0.0596  0.0072 -0.0243
  232SOL     OW  980   4.260   2.299   0.390 -0.4261  0.3537  0.3657
  232SOL    HW2  981   4.218   2.213   0.385 -0.6617  0.3372  2.0640
  232SOL    HW3  982   4.187   2.361   0.396 -0.2466  0.4677  1.5454
  232SOL    MW4  983   4.245   2.296   0.390 -0.4339  0.3664  0.7454
  233SOL     OW  984   4.073   1.769   0.491  0.3057 -0.8272  0.5236
  233SOL    HW2  985   3.993   1.759   0.439  0.6609  0.0999 -0.2074
  233SOL    HW3  986   4.122   1.688   0.476  0.1896 -0.7620 -0.1961
  233SOL    MW4  987   4.069   1.757   0.482  0.3376 -0.6964  0.3323
  234SOL     OW  988   2.413   2.277   0.289 -0.7605  0.1428 -0.2828
  234SOL    HW2  989   2.361   2.253   0.213 -1.1195  3.2594 -1.1082
  234SOL    HW3  990   2.366   2.352   0.327  1.7056  1.3455  0.4817
  234SOL    MW4  991   2.400   2.284   0.284 -0.4828  0.7129 -0.2908
  235SOL     OW  992   3.160   2.739   0.372  0.3290  0.1475  0.5033
  235SOL    HW2  993   3.242   2.789   0.371  0.3910  0.0564  0.7934
  235SOL    HW3  994   3.188   2.647   0.365  0.2335  0.1341  0.2996
  235SOL    MW4  995   3.175   2.733   0.371  0.3247  0.1338  0.5147
  236SOL     OW  996   0.527   2.453   0.190 -0.0150 -0.4257  0.3000
  236SOL    HW2  997   0.496   2.459   0.099  0.7247 -0.0684  0.0714
  236SOL    HW3  998   0.489   2.530   0.233 -0.7626 -0.8515  0.4210
  236SOL    MW4  999   0.518   2.464   0.184 -0.0161 -0.4346  0.2858
  237SOL     OW 1000   4.461   0.158   0.487  0.6496  0.1704  0.2602
  237SOL    HW2 1001   4.368   0.148   0.467  0.6290 -0.4967  0.6779
  237SOL    HW3 1002   4.468   0.139   0.581  1.2945 -0.3636  0.1075
  237SOL    MW4 1003   4.450   0.154   0.497  0.7319  0.0119  0.2952
  238SOL     OW 1004   3.837   3.140   0.870  0.2320  0.0839 -0.2100
  238SOL    HW2 1005   3.922   3.173   0.839  0.6146 -0.2834  0.4491
  238SOL    HW3 1006   3.774   3.177   0.808  0.8325  0.6577 -0.4945
  238SOL    MW4 1007   3.840   3.150   0.857  0.3619  0.1111 -0.1605
  239SOL     OW 1008   3.840   2.945   0.493  0.3111 -0.0618  0.1313
  239SOL    HW2 1009   3.926   2.941   0.451  0.2776 -2.1193  0.2033
  239SOL    HW3 1010   3.859   2.933   0.586 -0.1713 -2.0931 -0.0154
  239SOL    MW4 1011   3.854   2.943   0.500  0.2429 -0.6015  0.1214
  240SOL     OW 1012   1.396   1.266   0.356  0.1046  0.2973  0.0241
  240SOL    HW2 1013   1.438   1.185   0.386  1.5431  0.7126 -0.8251
  240SOL    HW3 1014   1.439   1.286   0.273 -1.3207  1.1107 -0.5333
  240SOL    MW4 1015   1.408   1.258   0.349  0.1062  0.4596 -0.1614
  241SOL     OW 1016   0.071   3.708   0.346  0.0531 -0.3635  0.4331
  241SOL    HW2 1017   0.110   3.792   0.372 -0.8158 -0.3312  1.6491
  241SOL    HW3 1018   0.031   3.726   0.261 -0.8469  0.6832  1.0667
  241SOL    MW4 1019   0.071   3.721   0.338 -0.1803 -0.2210  0.6771
  242SOL     OW 1020   3.253   0.054   0.443  0.2633  0.2481 -0.3784
  242SOL    HW2 1021   3.260  -0.039   0.461  0.2428 -0.0760 -1.9906
  242SOL    HW3 1022   3.166   0.078   0.476 -0.2463 -0.5735 -1.1010
  242SOL    MW4 1023   3.243   0.045   0.450  0.1934  0.0969 -0.6864
  243SOL     OW 1024   0.172   0.056   0.890 -0.3079  0.0240 -0.0587
  243SOL    HW2 1025   0.182  -0.032   0.853  0.5154 -0.1868  0.6416
  243SOL    HW3 1026   0.088   0.087   0.856 -0.8929 -1.2741  0.1740
  243SOL    MW4 1027   0.162   0.048   0.880 -0.2764 -0.1751  0.0645
  244SOL     OW 1028   4.441   0.149   0.761  0.1930  0.1264  0.2143
  244SOL    HW2 1029   4.358   0.118   0.797  0.1454 -1.1348 -0.9290
  244SOL    HW3 1030   4.446   0.241   0.788 -0.9282 -0.1531  1.4290
  244SOL    MW4 1031   4.431   0.157   0.769  0.0391 -0.0769  0.2238
  245SOL     OW 1032   4.462   0.408   0.829  0.0866 -0.1254  0.3638
  245SOL    HW2 1033   4.455   0.428   0.922 -1.0540  0.5241  0.1558
  245SOL    HW3 1034   4.545   0.448   0.802 -0.3097  1.0221  0.7848
  245SOL    MW4 1035   4.472   0.416   0.838 -0.1168  0.1117  0.3920
  246SOL     OW 1036   0.233   0.526   0.723  0.0959  0.1002  0.1517
  246SOL    HW2 1037   0.319   0.501   0.757  1.0642  1.3556 -1.3430
  246SOL    HW3 1038   0.221   0.616   0.752  0.1217  0.5627 -1.2647
  246SOL    MW4 1039   0.243   0.534   0.732  0.2271  0.3268 -0.2324
  247SOL     OW 1040   0.193   0.787   0.814  0.0759  0.4372  0.1489
  247SOL    HW2 1041   0.229   0.780   0.903 -0.8709 -1.3592  0.4230
  247SOL    HW3 1042   0.130   0.858   0.819  1.9319  2.1212  0.2281
  247SOL    MW4 1043   0.190   0.795   0.826  0.1958  0.4224  0.1954
  248SOL     OW 1044   4.099   0.978   0.810 -0.5906  0.2081  0.4409
  248SOL    HW2 1045   4.129   0.993   0.721 -1.0595  0.6233  0.3525
  248SOL    HW3 1046   4.106   1.063   0.853 -0.7883  0.1097  0.6750
  248SOL    MW4 1047   4.104   0.991   0.804 -0.6781  0.2499  0.4601
  249SOL     OW 1048   0.055   1.036   0.575 -0.3093  0.1572  0.0200
  249SOL    HW2 1049   0.051   1.040   0.670  0.8810  1.9106  0.0370
  249SOL    HW3 1050   0.070   1.127   0.548 -0.6551 -0.3098 -1.8348
  249SOL    MW4 1051   0.057   1.049   0.584 -0.1979  0.3269 -0.2224
  250SOL     OW 1052   0.129   1.308   0.738 -0.6842  0.6590  0.4183
  250SOL    HW2 1053   0.034   1.307   0.748 -0.7956  0.3189 -0.6024
  250SOL    HW3 1054   0.143   1.318   0.644  0.2789 -1.1755  0.3387
  250SOL    MW4 1055   0.118   1.309   0.727 -0.5718  0.3722  0.2732
  251SOL     OW 1056   0.245   1.557   0.793  0.3328  0.4614 -0.5417
  251SOL    HW2 1057   0.329   1.580   0.755  0.1974  0.6977 -0.6996
  251SOL    HW3 1058   0.224   1.471   0.755  0.0062  0.8780 -1.3217
  251SOL    MW4 1059   0.253   1.549   0.783  0.2718  0.5475 -0.6654
  252SOL     OW 1060   0.007   1.684   0.692  0.3798  0.3453  0.0377
  252SOL    HW2 1061  -0.064   1.648   0.744 -0.5165 -0.0723 -1.4270
  252SOL    HW3 1062   0.087   1.664   0.741 -0.4198 -0.2811  1.0850
  252SOL    MW4 1063   0.008   1.677   0.705  0.1561  0.2075 -0.0173
  253SOL     OW 1064   4.444   1.945   0.787 -0.1624  0.0329  0.4331
  253SOL    HW2 1065   4.530   1.977   0.761  0.0084  0.0437  1.0037
  253SOL    HW3 1066   4.439   1.857   0.749 -0.0332  0.1616  0.1178
  253SOL    MW4 1067   4.455   1.938   0.778 -0.1230  0.0513  0.4668
  254SOL     OW 1068   0.616   1.996   0.483 -0.0830 -0.3929  0.2537
  254SOL    HW2 1069   0.643   2.080   0.446 -1.1144 -0.1605  0.0097
  254SOL    HW3 1070   0.689   1.937   0.466  0.9572  0.6366  1.0807
  254SOL    MW4 1071   0.629   1.999   0.476 -0.0819 -0.2264  0.3306
  255SOL     OW 1072   0.204   2.308   0.883 -0.2346 -0.1364 -0.2570
  255SOL    HW2 1073   0.223   2.300   0.976 -0.4078  0.4574 -0.1687
  255SOL    HW3 1074   0.276   2.360   0.847 -0.3275 -0.1019 -0.3972
  255SOL    MW4 1075   0.216   2.314   0.890 -0.2697 -0.0536 -0.2638
  256SOL     OW 1076   0.004   2.408   0.719 -0.0100 -0.2186 -0.1844
  256SOL    HW2 1077   0.076   2.372   0.772 -0.4550 -0.5116  0.2198
  256SOL    HW3 1078  -0.075   2.368   0.755 -0.2396 -1.2083 -1.7101
  256SOL    MW4 1079   0.003   2.398   0.731 -0.0987 -0.3879 -0.3325
  257SOL     OW 1080   4.472   2.689   0.782  0.2971 -0.0161 -0.4564
  257SOL    HW2 1081   4.454   2.595   0.777 -1.3079  0.2242  0.4527
  257SOL    HW3 1082   4.501   2.703   0.872  2.3235  0.0820 -1.0998
  257SOL    MW4 1083   4.474   2.678   0.793  0.3529  0.0284 -0.4214
  258SOL     OW 1084   0.221   2.809   0.690  0.2894 -0.4641 -0.3498
  258SOL    HW2 1085   0.152   2.756   0.731  0.5850 -0.9204 -0.4418
  258SOL    HW3 1086   0.211   2.794   0.596  0.1312 -0.0573 -0.3989
  258SOL    MW4 1087   0.211   2.800   0.683  0.3075 -0.4704 -0.3685
  259SOL     OW 1088   0.212   3.072   0.795  0.5042 -0.3268 -0.1777
  259SOL    HW2 1089   0.187   3.068   0.887 -0.8977  0.1310 -0.5166
  259SOL    HW3 1090   0.233   2.982   0.771  1.3155 -0.3773  0.6953
  259SOL    MW4 1091   0.212   3.059   0.804  0.4263 -0.2730 -0.1072
  260SOL     OW 1092   0.001   3.252   0.756 -0.0409  0.0070  0.3046
  260SOL    HW2 1093   0.076   3.196   0.774  1.5850  2.0812  0.1230
  260SOL    HW3 1094  -0.008   3.250   0.660 -0.3824 -0.4495  0.3460
  260SOL    MW4 1095   0.010   3.244   0.746  0.1287  0.2203  0.2862
  261SOL     OW 1096   0.024   3.485   0.929  0.5496  0.1020  0.1435
  261SOL    HW2 1097  -0.045   3.537   0.888  1.0963  0.2630 -0.5760
  261SOL    HW3 1098   0.016   3.398   0.889 -0.2289 -0.3223  1.1917
  261SOL    MW4 1099   0.014   3.480   0.918  0.5188  0.0672  0.1869
  262SOL     OW 1100   0.442   3.202   0.491 -0.0944 -0.3156  0.0846
  262SOL    HW2 1101   0.464   3.184   0.582  0.5301  0.8641  0.1752
  262SOL    HW3 1102   0.520   3.176   0.442  0.0689  0.3019  0.0182
  262SOL    MW4 1103   0.455   3.196   0.497  0.0095 -0.0782  0.0878
  263SOL     OW 1104   0.215   3.909   0.474  0.1665  0.0356 -0.2679
  263SOL    HW2 1105   0.196   3.884   0.564 -0.4777  1.5153  0.0224
  263SOL    HW3 1106   0.309   3.895   0.464  0.3883  0.6918  0.8919
  263SOL    MW4 1107   0.225   3.903   0.485  0.1108  0.3173 -0.0766
  264SOL     OW 1108   4.467   4.002   0.751  0.3435 -0.1647  0.2285
  264SOL    HW2 1109   4.386   3.958   0.777  0.3296 -0.5873 -0.4945
  264SOL    HW3 1110   4.534   3.934   0.756  0.3795 -0.1977 -0.5992
  264SOL    MW4 1111   4.465   3.987   0.755  0.3467 -0.2246  0.0239
  265SOL     OW 1112   4.479   4.254   0.889  0.3814 -0.4904 -0.0340
  265SOL    HW2 1113   4.455   4.232   0.979  2.4879 -1.0876  0.4191
  265SOL    HW3 1114   4.481   4.169   0.844  0.3076 -0.2988 -0.3950
  265SOL    MW4 1115   4.476   4.240   0.895  0.6499 -0.5441 -0.0219
  266SOL     OW 1116   0.178   4.438   0.790 -0.0381  0.6530  0.2132
  266SOL    HW2 1117   0.128   4.376   0.843  2.7225 -0.9175  1.0425
  266SOL    HW3 1118   0.149   4.421   0.700  0.6535 -1.8267  0.4337
  266SOL    MW4 1119   0.167   4.427   0.785  0.4174  0.1187  0.3517
  267SOL     OW 1120   0.620   0.041   0.829 -0.2970 -0.4153  0.5173
  267SOL    HW2 1121   0.630   0.042   0.924 -0.5116  0.5280  0.5317
  267SOL    HW3 1122   0.530   0.071   0.814  0.2693  0.9894 -0.0525
  267SOL    MW4 1123   0.609   0.045   0.840 -0.2506 -0.1056  0.4441
  268SOL     OW 1124   0.379   0.158   0.744 -0.0821  0.1572 -0.3988
  268SOL    HW2 1125   0.301   0.122   0.785  0.1027  1.0713  0.7780
  268SOL    HW3 1126   0.385   0.113   0.660 -1.7106 -0.1227 -0.3804
  268SOL    MW4 1127   0.370   0.147   0.738 -0.2726  0.2408 -0.2411
  269SOL     OW 1128   0.439   0.391   0.846  0.0430 -0.2724 -0.3022
  269SOL    HW2 1129   0.493   0.440   0.784 -1.0376  0.7040 -0.4870
  269SOL    HW3 1130   0.427   0.305   0.805 -0.4919  0.2978 -1.3586
  269SOL    MW4 1131   0.444   0.386   0.832 -0.1702 -0.0683 -0.4660
  270SOL     OW 1132   0.611   0.538   0.692 -0.7165  0.3084  0.0146
  270SOL    HW2 1133   0.697   0.524   0.732 -0.7585  2.3022  0.8710
  270SOL    HW3 1134   0.630   0.558   0.600 -0.2559  0.6602  0.1838
  270SOL    MW4 1135   0.625   0.539   0.685 -0.6613  0.6178  0.1499
  271SOL     OW 1136   0.602   0.798   0.819 -0.0060  0.0339  0.4030
  271SOL    HW2 1137   0.537   0.857   0.780  0.1768  1.1808  1.8122
  271SOL    HW3 1138   0.580   0.711   0.784 -0.3963  0.8844 -1.5371
  271SOL    MW4 1139   0.591   0.794   0.809 -0.0333  0.2973  0.3330
  272SOL     OW 1140   0.414   0.946   0.709  0.4514 -0.0404  0.0086
  272SOL    HW2 1141   0.414   1.035   0.744  1.0990  0.3474 -0.9454
  272SOL    HW3 1142   0.334   0.906   0.743 -0.1524  1.1056 -0.0413
  272SOL    MW4 1143   0.403   0.952   0.718  0.4572  0.1619 -0.1239
  273SOL     OW 1144   0.426   1.214   0.803 -0.0127 -0.2421 -0.3274
  273SOL    HW2 1145   0.489   1.248   0.739 -0.3415 -0.7960 -0.9518
  273SOL    HW3 1146   0.344   1.260   0.782 -0.3836 -1.1722 -0.9812
  273SOL    MW4 1147   0.423   1.225   0.791 -0.1050 -0.4380 -0.4961
  274SOL     OW 1148   0.657   1.278   0.660  0.1763  0.1215 -0.2635
  274SOL    HW2 1149   0.661   1.368   0.694 -0.9584 -0.2845  0.9869
  274SOL    HW3 1150   0.658   1.289   0.565  0.8234  1.4183 -0.1230
  274SOL    MW4 1151   0.657   1.292   0.652  0.1120  0.2391 -0.0800
  275SOL     OW 1152   0.650   1.528   0.768  0.1069 -0.1174 -0.1750
  275SOL    HW2 1153   0.665   1.543   0.862  0.3571  0.7893 -0.3584
  275SOL    HW3 1154   0.586   1.594   0.743  0.1573 -0.2564 -0.6782
  275SOL    MW4 1155   0.644   1.538   0.777  0.1466 -0.0161 -0.2656
  276SOL     OW 1156   0.464   1.713   0.665 -0.2539  0.0814  0.1430
  276SOL    HW2 1157   0.461   1.790   0.721 -0.0552  0.4963 -0.4063
  276SOL    HW3 1158   0.418   1.739   0.585  0.1942 -0.2163 -0.2205
  276SOL    MW4 1159   0.458   1.726   0.662 -0.1685  0.0969  0.0225
  277SOL     OW 1160   0.420   1.927   0.846  0.0073  0.3307 -0.0715
  277SOL    HW2 1161   0.427   1.924   0.941  0.0241  0.3203 -0.0729
  277SOL    HW3 1162   0.340   1.975   0.829 -0.4179 -0.3577 -0.0380
  277SOL    MW4 1163   0.411   1.933   0.856 -0.0466  0.2385 -0.0673
  278SOL     OW 1164   0.656   2.047   0.748  0.1900  0.1822 -0.2551
  278SOL    HW2 1165   0.578   2.016   0.794  0.8219 -0.0708  0.6681
  278SOL    HW3 1166   0.637   2.031   0.655 -1.0634  0.6238 -0.0817
  278SOL    MW4 1167   0.643   2.041   0.742  0.1080  0.2069 -0.1103
  279SOL     OW 1168   0.681   2.332   0.847 -0.8240  0.2228 -0.0518
  279SOL    HW2 1169   0.669   2.318   0.941 -0.5270 -0.6838 -0.1377
  279SOL    HW3 1170   0.688   2.243   0.811 -0.7949  0.5712 -0.9089
  279SOL    MW4 1171   0.680   2.318   0.855 -0.7810  0.1493 -0.1763
  280SOL     OW 1172   0.426   2.447   0.788  0.1322 -0.0524 -0.1827
  280SOL    HW2 1173   0.515   2.418   0.809 -0.2465 -1.6255 -0.7286
  280SOL    HW3 1174   0.420   2.435   0.693 -0.3494  0.9727 -0.2913
  280SOL    MW4 1175   0.437   2.442   0.778  0.0188 -0.1247 -0.2690
  281SOL     OW 1176   0.452   2.706   0.856  0.1930  0.3258 -0.0989
  281SOL    HW2 1177   0.445   2.613   0.833  1.0984 -0.1489  1.3967
  281SOL    HW3 1178   0.397   2.751   0.793  0.0993 -1.1903 -1.1392
  281SOL    MW4 1179   0.444   2.699   0.845  0.3001  0.0632 -0.0388
  282SOL     OW 1180   0.681   2.788   0.731  0.0963  0.1875  0.2793
  282SOL    HW2 1181   0.752   2.734   0.766  0.8332  0.6470 -0.4715
  282SOL    HW3 1182   0.601   2.745   0.760  0.6857 -0.6572  0.6633
  282SOL    MW4 1183   0.680   2.775   0.739  0.2713  0.1364  0.2309
  283SOL     OW 1184   0.701   3.041   0.855  0.1797  0.0779  0.2406
  283SOL    HW2 1185   0.626   3.078   0.810  0.0991 -1.3108 -0.8057
  283SOL    HW3 1186   0.704   2.950   0.826  1.5774 -0.1897  1.1626
  283SOL    MW4 1187   0.692   3.034   0.845  0.3534 -0.1404  0.2242
  284SOL     OW 1188   0.443   3.441   0.861  0.0063 -0.1787 -0.6976
  284SOL    HW2 1189   0.434   3.460   0.954  1.1129 -1.5467 -0.2846
  284SOL    HW3 1190   0.365   3.480   0.821 -0.1336  1.0271  0.6924
  284SOL    MW4 1191   0.431   3.448   0.868  0.1338 -0.2003 -0.4597
  285SOL     OW 1192   0.696   3.561   0.801 -0.1836  0.7115  0.2625
  285SOL    HW2 1193   0.619   3.512   0.828 -0.2127  0.1344 -0.8746
  285SOL    HW3 1194   0.675   3.652   0.823 -0.9297  0.4798  0.5125
  285SOL    MW4 1195   0.683   3.567   0.808 -0.2860  0.6049  0.1455
  286SOL     OW 1196   0.700   2.817   0.450  0.5133  0.2164 -0.0029
  286SOL    HW2 1197   0.765   2.749   0.431  0.8982  0.1995  1.3051
  286SOL    HW3 1198   0.700   2.824   0.546 -1.5634  0.0830  0.0355
  286SOL    MW4 1199   0.709   2.809   0.460  0.2901  0.1965  0.1747
  287SOL     OW 1200   0.389   3.978   0.862  0.6835  0.0199  0.2125
  287SOL    HW2 1201   0.398   4.072   0.845  0.4028 -0.0851 -0.5617
  287SOL    HW3 1202   0.370   3.972   0.955 -0.9554  0.8471 -0.0505
  287SOL    MW4 1203   0.388   3.989   0.872  0.4302  0.1152  0.0756
  288SOL     OW 1204   0.187   3.825   0.735  0.5536 -0.2039  0.2366
  288SOL    HW2 1205   0.254   3.875   0.781  1.1830 -0.3948 -0.4692
  288SOL    HW3 1206   0.215   3.734   0.742 -0.2774 -0.4052  0.9983
  288SOL    MW4 1207   0.199   3.820   0.742  0.5270 -0.2556  0.2438
  289SOL     OW 1208   0.417   4.267   0.851  0.2911 -0.7289  0.4810
  289SOL    HW2 1209   0.419   4.258   0.946  0.8161 -0.6107  0.4845
  289SOL    HW3 1210   0.340   4.320   0.833  0.7410  0.0838  0.9134
  289SOL    MW4 1211   0.407   4.272   0.861  0.4197 -0.6061  0.5385
  290SOL     OW 1212   0.198   1.283   0.471 -0.0912  0.1697  0.2683
  290SOL    HW2 1213   0.271   1.262   0.413 -0.4876  1.0880 -0.5794
  290SOL    HW3 1214   0.165   1.367   0.438 -0.5014  0.5550  1.6415
  290SOL    MW4 1215   0.203   1.292   0.459 -0.1976  0.3417  0.3377
  291SOL     OW 1216   1.050   0.026   0.809 -0.0901  0.7395  0.0071
  291SOL    HW2 1217   1.127   0.075   0.778  0.8985 -0.3347  0.7207
  291SOL    HW3 1218   0.976   0.084   0.791  1.1412  2.9240  1.7521
  291SOL    MW4 1219   1.051   0.040   0.802  0.2029  0.8860  0.3314
  292SOL     OW 1220   0.820   0.191   0.741  0.4664 -0.2197 -0.1605
  292SOL    HW2 1221   0.824   0.271   0.793  0.5209 -0.2765 -0.0752
  292SOL    HW3 1222   0.747   0.141   0.778  1.1178 -0.7012  0.5148
  292SOL    MW4 1223   0.811   0.195   0.753  0.5594 -0.2907 -0.0602
  293SOL     OW 1224   0.835   0.453   0.854  0.1739  0.0505 -0.3524
  293SOL    HW2 1225   0.865   0.445   0.944  1.5972 -0.9922 -0.8924
  293SOL    HW3 1226   0.910   0.490   0.807 -0.0776 -0.6848 -1.3561
  293SOL    MW4 1227   0.849   0.456   0.860  0.3285 -0.1841 -0.5560
  294SOL     OW 1228   1.071   0.570   0.741  0.1273 -0.2660  0.2671
  294SOL    HW2 1229   1.157   0.532   0.755  0.6833  0.8263 -0.1571
  294SOL    HW3 1230   1.078   0.617   0.658 -1.4493 -1.8171 -0.7842
  294SOL    MW4 1231   1.083   0.572   0.732 -0.0074 -0.3265  0.0724
  295SOL     OW 1232   1.114   0.815   0.863  0.1561 -0.1531  0.4379
  295SOL    HW2 1233   1.108   0.795   0.956  0.5569  0.2637  0.5521
  295SOL    HW3 1234   1.093   0.732   0.820 -0.9980 -0.1133  0.8803
  295SOL    MW4 1235   1.110   0.801   0.870  0.0566 -0.0929  0.5113
  296SOL     OW 1236   0.869   0.908   0.767  0.2419 -0.0513 -0.4180
  296SOL    HW2 1237   0.948   0.863   0.799  0.4986  0.6954  0.0163
  296SOL    HW3 1238   0.796   0.862   0.808  0.4906 -0.2927 -0.2485
  296SOL    MW4 1239   0.870   0.896   0.777  0.3086  0.0153 -0.3384
  297SOL     OW 1240   0.892   1.182   0.808 -0.1474 -0.2010 -0.1970
  297SOL    HW2 1241   0.876   1.089   0.791 -0.7119 -0.1992  0.2886
  297SOL    HW3 1242   0.818   1.226   0.767 -0.7060 -0.0838  0.9185
  297SOL    MW4 1243   0.880   1.176   0.801 -0.2955 -0.1854  0.0143
  298SOL     OW 1244   1.132   1.302   0.705 -0.2287 -0.4020 -0.0763
  298SOL    HW2 1245   1.051   1.257   0.729 -0.1233 -0.6446 -0.1882
  298SOL    HW3 1246   1.130   1.307   0.610 -0.3555  0.0389 -0.0529
  298SOL    MW4 1247   1.121   1.297   0.696 -0.2314 -0.3759 -0.0880
  299SOL     OW 1248   1.126   1.563   0.788 -0.9054  0.0797 -0.5428
  299SOL    HW2 1249   1.040   1.604   0.775 -0.3425  0.6033 -2.7930
  299SOL    HW3 1250   1.118   1.477   0.748 -0.5287 -0.0632 -0.3112
  299SOL    MW4 1251   1.114   1.557   0.781 -0.7814  0.1299 -0.8091
  300SOL     OW 1252   0.888   1.683   0.729 -0.2313 -0.0150  0.0165
  300SOL    HW2 1253   0.869   1.760   0.783  0.9371  0.1863  0.1385
  300SOL    HW3 1254   0.805   1.635   0.727 -1.4583  2.1098 -1.4926
  300SOL    MW4 1255   0.874   1.686   0.736 -0.2390  0.2918 -0.1665
  301SOL     OW 1256   0.870   1.927   0.854  0.1820 -0.3819  0.5865
  301SOL    HW2 1257   0.876   1.939   0.948  0.8940 -0.5246  0.5663
  301SOL    HW3 1258   0.790   1.973   0.828  0.4127  0.3369  1.1465
  301SOL    MW4 1259   0.860   1.934   0.863  0.3064 -0.3059  0.6577
  302SOL     OW 1260   2.337   0.135   0.479  0.1714  0.2285 -0.2585
  302SOL    HW2 1261   2.352   0.229   0.473  1.3555  0.1196  0.8248
  302SOL    HW3 1262   2.424   0.096   0.475 -0.2624 -0.7923 -0.0391
  302SOL    MW4 1263   2.350   0.142   0.478  0.2704  0.0794 -0.0866
  303SOL     OW 1264   1.103   2.068   0.779 -0.2709 -0.2077  0.0309
  303SOL    HW2 1265   1.027   2.014   0.802 -0.1026 -0.8241 -0.8313
  303SOL    HW3 1266   1.173   2.037   0.837 -0.5050 -0.0896  0.3745
  303SOL    MW4 1267   1.102   2.057   0.789 -0.2794 -0.2735 -0.0374
  304SOL     OW 1268   1.092   2.333   0.889  0.2007 -0.6773  0.2685
  304SOL    HW2 1269   1.121   2.324   0.979  0.6151 -1.2955  0.0810
  304SOL    HW3 1270   1.099   2.245   0.853  1.2971 -0.1984 -0.7343
  304SOL    MW4 1271   1.097   2.320   0.896  0.4001 -0.6959  0.1115
  305SOL     OW 1272   0.939   2.675   0.807 -0.3606  0.4974 -0.8312
  305SOL    HW2 1273   0.949   2.658   0.901  0.3333  1.3646 -0.7404
  305SOL    HW3 1274   0.939   2.588   0.767 -1.7192  0.0769  0.0727
  305SOL    MW4 1275   0.941   2.661   0.814 -0.4482  0.5562 -0.6999
  306SOL     OW 1276   1.150   2.824   0.712 -0.1307  0.0746  0.4222
  306SOL    HW2 1277   1.071   2.785   0.750 -0.2331  0.6397  0.7901
  306SOL    HW3 1278   1.141   2.809   0.618 -1.4231  1.4639  0.2917
  306SOL    MW4 1279   1.138   2.817   0.705 -0.3147  0.3324  0.4535
  307SOL     OW 1280   1.144   3.070   0.842  0.2703  0.5813 -0.0078
  307SOL    HW2 1281   1.079   3.124   0.798 -1.0632 -1.3023 -0.4246
  307SOL    HW3 1282   1.150   2.991   0.788  0.4757 -0.6785  1.7923
  307SOL    MW4 1283   1.136   3.067   0.829  0.1215  0.1667  0.1747
  308SOL     OW 1284   0.929   3.188   0.739  0.3638  0.2060  0.4236
  308SOL    HW2 1285   0.930   3.270   0.788 -1.1399  1.2184 -1.2026
  308SOL    HW3 1286   0.859   3.136   0.779  1.3959 -0.3587  1.5309
  308SOL    MW4 1287   0.920   3.192   0.751  0.3017  0.2651  0.3551
  309SOL     OW 1288   0.949   3.443   0.843 -0.2466 -0.1237 -0.4533
  309SOL    HW2 1289   1.004   3.477   0.772  0.6867  2.1010  1.2742
  309SOL    HW3 1290   0.865   3.488   0.832  0.8074  2.4459  1.4924
  309SOL    MW4 1291   0.945   3.453   0.832  0.0156  0.5088  0.0314
  310SOL     OW 1292   1.369   3.184   0.727  0.1267 -0.0680 -0.3680
  310SOL    HW2 1293   1.294   3.129   0.751  0.5037  0.2309  1.5909
  310SOL    HW3 1294   1.390   3.158   0.637 -1.3523 -1.2487 -0.3896
  310SOL    MW4 1295   1.362   3.173   0.718 -0.0187 -0.1845 -0.1124
  311SOL     OW 1296   1.305   3.961   0.742 -0.2541 -0.3060 -0.4263
  311SOL    HW2 1297   1.233   3.910   0.779 -2.0113  2.0043 -0.5517
  311SOL    HW3 1298   1.310   3.933   0.651 -1.7687  0.3388 -0.7159
  311SOL    MW4 1299   1.296   3.951   0.735 -0.6858  0.0837 -0.4811
  312SOL     OW 1300   0.847   3.938   0.731  0.6353 -0.5015 -0.2573
  312SOL    HW2 1301   0.887   3.946   0.644 -0.2772 -0.4491 -0.6791
  312SOL    HW3 1302   0.860   4.024   0.772 -0.5162  0.0631 -1.0373
  312SOL    MW4 1303   0.854   3.950   0.725  0.3630 -0.4203 -0.4159
  313SOL     OW 1304   0.874   4.194   0.849 -0.8331  0.1305 -0.3167
  313SOL    HW2 1305   0.938   4.225   0.784 -1.2723  0.9169 -0.3823
  313SOL    HW3 1306   0.791   4.230   0.819 -1.1686 -0.1881  0.2373
  313SOL    MW4 1307   0.872   4.203   0.836 -0.9353  0.1922 -0.2522
  314SOL     OW 1308   1.042   4.262   0.642 -0.1670  0.5540  0.0581
  314SOL    HW2 1309   1.124   4.272   0.689  0.4373  0.4316 -0.9523
  314SOL    HW3 1310   1.007   4.351   0.636  0.7889  0.8764 -1.0716
  314SOL    MW4 1311   1.048   4.275   0.647  0.0389  0.5808 -0.2243
  315SOL     OW 1312   1.549   0.059   0.800 -0.5726 -0.1539  0.2872
  315SOL    HW2 1313   1.535   0.026   0.889  0.3337  1.8245  1.1675
  315SOL    HW3 1314   1.470   0.109   0.780 -0.6852 -0.4249  0.0410
  315SOL    MW4 1315   1.537   0.061   0.809 -0.4678  0.0714  0.3708
  316SOL     OW 1316   0.964   4.523   0.621  0.6204  0.1539 -0.1695
  316SOL    HW2 1317   0.991   4.587   0.687 -0.2309  0.6422 -0.2883
  316SOL    HW3 1318   0.870   4.540   0.609  0.6401 -0.3638 -1.0285
  316SOL    MW4 1319   0.955   4.534   0.628  0.5107  0.1502 -0.2985
  317SOL     OW 1320   1.305   0.424   0.801 -0.3963  0.2614 -0.0308
  317SOL    HW2 1321   1.303   0.430   0.896 -1.3204 -1.4114  0.0758
  317SOL    HW3 1322   1.395   0.444   0.777  0.3623 -1.4402  1.3713
  317SOL    MW4 1323   1.316   0.428   0.810 -0.4182 -0.1838  0.1683
  318SOL     OW 1324   1.575   0.510   0.775  0.2558 -0.3722 -0.1296
  318SOL    HW2 1325   1.614   0.590   0.812  1.3420 -0.2360 -1.5132
  318SOL    HW3 1326   1.633   0.440   0.806 -0.0986 -0.5064  0.2281
  318SOL    MW4 1327   1.588   0.511   0.784  0.3524 -0.3720 -0.2649
  319SOL     OW 1328   1.631   0.782   0.833 -0.2395 -0.6616  0.0235
  319SOL    HW2 1329   1.710   0.822   0.798 -0.3390 -0.5642 -0.0892
  319SOL    HW3 1330   1.565   0.851   0.830  0.0659 -0.3015  1.5033
  319SOL    MW4 1331   1.633   0.796   0.828 -0.2124 -0.6013  0.2038
  320SOL     OW 1332   1.364   0.909   0.824  0.2760  0.6814  0.0944
  320SOL    HW2 1333   1.362   1.004   0.836 -0.2171  0.8397 -1.1650
  320SOL    HW3 1334   1.275   0.880   0.846  0.2158  0.6049 -0.2489
  320SOL    MW4 1335   1.352   0.918   0.829  0.2030  0.6922 -0.1169
  321SOL     OW 1336   1.338   1.197   0.848  0.5215 -0.6292  0.1161
  321SOL    HW2 1337   1.408   1.258   0.823 -0.4760  0.0902 -0.9768
  321SOL    HW3 1338   1.262   1.225   0.796 -0.1941 -2.2638  0.2603
  321SOL    MW4 1339   1.337   1.209   0.838  0.2955 -0.7499 -0.0091
  322SOL     OW 1340   1.578   1.342   0.766 -0.3428 -0.6139  0.2612
  322SOL    HW2 1341   1.584   1.420   0.821 -1.8063 -1.0875  1.1212
  322SOL    HW3 1342   1.575   1.377   0.677 -1.0757  0.3193  0.6357
  322SOL    MW4 1343   1.578   1.357   0.762 -0.6324 -0.5533  0.4241
  323SOL     OW 1344   1.583   1.582   0.898 -0.1058 -0.0549  0.2247
  323SOL    HW2 1345   1.585   1.577   0.994  0.9983  1.2968  0.2848
  323SOL    HW3 1346   1.503   1.632   0.879  0.5741  1.1768  0.5276
  323SOL    MW4 1347   1.573   1.588   0.909  0.1297  0.2859  0.2727
  324SOL     OW 1348   1.357   1.713   0.794 -0.4069  0.0564  0.0885
  324SOL    HW2 1349   1.392   1.701   0.706 -1.3570 -0.6778 -0.1922
  324SOL    HW3 1350   1.274   1.666   0.794 -0.6172  0.4048  1.2509
  324SOL    MW4 1351   1.351   1.705   0.782 -0.5600  0.0055  0.2049
  325SOL     OW 1352   1.349   1.975   0.892  0.4429 -0.2620  0.3001
  325SOL    HW2 1353   1.337   1.960   0.986  0.5212 -0.7015  0.2412
  325SOL    HW3 1354   1.360   1.887   0.855 -0.3067 -0.1450 -0.2222
  325SOL    MW4 1355   1.349   1.961   0.899  0.3542 -0.3046  0.2235
  326SOL     OW 1356   1.583   2.030   0.751  0.8863  0.0002 -0.2941
  326SOL    HW2 1357   1.497   2.035   0.793  1.1225  1.1649  0.0633
  326SOL    HW3 1358   1.565   2.007   0.660  0.1788  0.5133 -0.2826
  326SOL    MW4 1359   1.569   2.028   0.745  0.8241  0.2217 -0.2454
  327SOL     OW 1360   1.587   2.310   0.824 -0.0905 -0.0869 -0.3960
  327SOL    HW2 1361   1.507   2.337   0.779 -1.2488 -0.5565  1.3374
  327SOL    HW3 1362   1.593   2.215   0.808 -0.4159 -0.2250  0.2877
  327SOL    MW4 1363   1.578   2.301   0.816 -0.2862 -0.1671 -0.0771
  328SOL     OW 1364   1.393   2.692   0.800 -0.2392  0.1568  0.3555
  328SOL    HW2 1365   1.398   2.689   0.896  0.6787  3.9361  0.5164
  328SOL    HW3 1366   1.306   2.728   0.782  0.6355  2.1340 -0.0788
  328SOL    MW4 1367   1.382   2.696   0.811 -0.0027  0.9162  0.3194
  329SOL     OW 1368   1.351   0.856   0.548  0.7185 -0.1037  0.4055
  329SOL    HW2 1369   1.407   0.779   0.541  1.3705 -0.0121  3.8806
  329SOL    HW3 1370   1.358   0.883   0.640 -2.0944  2.1333  0.0390
  329SOL    MW4 1371   1.359   0.849   0.559  0.4334  0.2035  0.8157
  330SOL     OW 1372   1.621   2.831   0.722 -0.1484 -0.0761  0.0219
  330SOL    HW2 1373   1.613   2.916   0.766  0.0577  0.1122 -0.2937
  330SOL    HW3 1374   1.534   2.793   0.725 -0.4640  0.5700 -0.6686
  330SOL    MW4 1375   1.609   2.837   0.728 -0.1630  0.0339 -0.1109
  331SOL     OW 1376   1.584   3.059   0.855 -0.2317 -0.5531  0.1105
  331SOL    HW2 1377   1.578   3.066   0.950 -1.0779 -0.1908  0.0300
  331SOL    HW3 1378   1.508   3.107   0.822 -0.4660 -1.4722 -0.7214
  331SOL    MW4 1379   1.573   3.066   0.863 -0.3742 -0.6263 -0.0100
  332SOL     OW 1380   1.744   2.360   0.374 -0.1456 -0.0065  0.4571
  332SOL    HW2 1381   1.723   2.267   0.362 -0.0406 -0.0466  0.5947
  332SOL    HW3 1382   1.836   2.367   0.347 -0.3888  0.2067 -0.3409
  332SOL    MW4 1383   1.753   2.349   0.369 -0.1638  0.0165  0.3700
  333SOL     OW 1384   1.291   3.446   0.805 -0.3019 -0.1176  0.1540
  333SOL    HW2 1385   1.367   3.503   0.796 -1.5579  1.2808 -2.1651
  333SOL    HW3 1386   1.322   3.360   0.777  0.4001  0.5040 -1.0204
  333SOL    MW4 1387   1.305   3.442   0.800 -0.3749  0.1488 -0.3069
  334SOL     OW 1388   1.528   3.580   0.746 -0.3185  0.2251 -0.1122
  334SOL    HW2 1389   1.613   3.562   0.787 -0.5144  0.6074  0.4666
  334SOL    HW3 1390   1.545   3.573   0.652  0.8727  2.5108 -0.1134
  334SOL    MW4 1391   1.541   3.577   0.739 -0.1870  0.5767 -0.0360
  335SOL     OW 1392   1.571   3.877   0.796  0.9467  0.3207 -0.0824
  335SOL    HW2 1393   1.485   3.918   0.798  0.6810 -0.3053  1.0487
  335SOL    HW3 1394   1.555   3.786   0.772  1.2720  0.1468  0.3450
  335SOL    MW4 1395   1.558   3.871   0.793  0.9546  0.2153  0.1232
  336SOL     OW 1396   0.950   3.200   0.454 -0.3115 -0.7315 -0.0988
  336SOL    HW2 1397   0.942   3.211   0.549  0.9111  0.5545 -0.1273
  336SOL    HW3 1398   0.926   3.285   0.418 -1.2397 -1.3595 -0.9814
  336SOL    MW4 1399   0.946   3.213   0.462 -0.2726 -0.6444 -0.2190
  337SOL     OW 1400   1.301   4.237   0.740 -0.4004 -0.2589 -0.1560
  337SOL    HW2 1401   1.310   4.142   0.749  0.3960 -0.2208 -0.5111
  337SOL    HW3 1402   1.374   4.262   0.683 -0.1281  0.6736  0.6050
  337SOL    MW4 1403   1.312   4.228   0.733 -0.2593 -0.1307 -0.1024
  338SOL     OW 1404   1.544   4.273   0.598  0.2939  0.2378  0.1369
  338SOL    HW2 1405   1.613   4.265   0.664 -1.2072  0.5027  1.7738
  338SOL    HW3 1406   1.575   4.218   0.526  1.8855 -0.2229  1.1172
  338SOL    MW4 1407   1.557   4.264   0.597  0.3059  0.2127  0.4821
  339SOL     OW 1408   1.967   4.666   0.827  0.3253 -0.6089  0.3595
  339SOL    HW2 1409   2.048   4.706   0.795 -0.8906  0.1957 -1.8474
  339SOL    HW3 1410   1.966   4.579   0.789 -0.6852  0.0177 -1.0666
  339SOL    MW4 1411   1.977   4.660   0.818  0.0315 -0.4201 -0.1198
  340SOL     OW 1412   1.779   0.151   0.687  0.1709 -0.1071  0.2624
  340SOL    HW2 1413   1.852   0.102   0.724 -0.3017 -0.8179  0.2817
  340SOL    HW3 1414   1.701   0.111   0.727 -0.2562  0.2079 -0.2491
  340SOL    MW4 1415   1.778   0.139   0.697  0.0522 -0.1593  0.1975
  341SOL     OW 1416   1.784   0.363   0.881  0.6729 -0.3863  0.4615
  341SOL    HW2 1417   1.783   0.281   0.832 -2.2564  1.1871 -2.2971
  341SOL    HW3 1418   1.852   0.415   0.838  0.6572 -0.3836  0.4397
  341SOL    MW4 1419   1.793   0.359   0.869  0.2842 -0.1783  0.0947
  342SOL     OW 1420   1.986   0.524   0.738 -0.6109  0.4219  0.1129
  342SOL    HW2 1421   2.067   0.486   0.771 -1.9248 -1.1939  1.6033
  342SOL    HW3 1422   2.005   0.546   0.647  1.0360 -1.3306 -0.0058
  342SOL    MW4 1423   1.999   0.522   0.730 -0.5668 -0.0225  0.2938
  343SOL     OW 1424   2.017   0.776   0.850 -0.0489  0.1795 -0.0667
  343SOL    HW2 1425   2.093   0.785   0.792  1.5509 -2.0984  1.6032
  343SOL    HW3 1426   1.980   0.690   0.830 -2.5574  1.4724 -1.2288
  343SOL    MW4 1427   2.022   0.766   0.840 -0.1688  0.0495  0.0002
  344SOL     OW 1428   1.835   0.895   0.691  0.2299 -0.0167 -0.1764
  344SOL    HW2 1429   1.817   0.984   0.721 -0.8884 -0.3281  0.1201
  344SOL    HW3 1430   1.901   0.861   0.752 -0.6766 -0.0105  0.8252
  344SOL    MW4 1431   1.841   0.902   0.703 -0.0373 -0.0569 -0.0051
  345SOL     OW 1432   1.798   1.137   0.794  0.1912 -0.0716 -0.8371
  345SOL    HW2 1433   1.880   1.174   0.761 -0.6331  0.9359 -1.8024
  345SOL    HW3 1434   1.734   1.207   0.783 -1.0733 -1.2678 -1.2719
  345SOL    MW4 1435   1.800   1.151   0.788 -0.0845 -0.0966 -1.0219
  346SOL     OW 1436   2.014   1.255   0.711 -0.5881 -0.2150 -0.3580
  346SOL    HW2 1437   2.091   1.199   0.715  0.6712  1.4444 -0.6486
  346SOL    HW3 1438   2.012   1.287   0.620 -0.9182  0.7107 -0.0321
  346SOL    MW4 1439   2.024   1.252   0.699 -0.4654  0.1260 -0.3533
  347SOL     OW 1440   1.984   1.502   0.831 -0.0713  0.5361  0.2726
  347SOL    HW2 1441   2.045   1.563   0.791 -0.3922  0.5564 -0.1900
  347SOL    HW3 1442   2.015   1.415   0.803 -0.3815  0.5581 -0.1414
  347SOL    MW4 1443   1.996   1.498   0.822 -0.1546  0.5418  0.1569
  348SOL     OW 1444   1.780   1.641   0.714  0.2023  0.4543  0.2010
  348SOL    HW2 1445   1.852   1.592   0.755 -0.1134 -1.0946 -1.0603
  348SOL    HW3 1446   1.706   1.629   0.773  0.3306  0.0412  0.2797
  348SOL    MW4 1447   1.780   1.633   0.727  0.1776  0.1954  0.0449
  349SOL     OW 1448   1.802   1.889   0.827 -0.3734  0.0592 -0.1634
  349SOL    HW2 1449   1.802   1.798   0.797  0.2089  0.4016 -1.2304
  349SOL    HW3 1450   1.717   1.923   0.798 -1.4289 -0.6859  1.9672
  349SOL    MW4 1451   1.791   1.881   0.819 -0.4359  0.0060 -0.0231
  350SOL     OW 1452   1.995   2.072   0.730  0.0686  0.1500  0.2342
  350SOL    HW2 1453   1.992   2.155   0.778  0.0729  0.7041 -0.6937
  350SOL    HW3 1454   1.920   2.022   0.762 -1.9954  1.9134 -1.6496
  350SOL    MW4 1455   1.985   2.077   0.740 -0.2030  0.4556 -0.1367
  351SOL     OW 1456   2.004   2.326   0.833  0.3197  0.1229 -0.3668
  351SOL    HW2 1457   2.009   2.359   0.923 -1.2345 -0.8560  0.0962
  351SOL    HW3 1458   1.927   2.370   0.796  0.7973  0.3119 -1.1366
  351SOL    MW4 1459   1.994   2.336   0.840  0.1775  0.0184 -0.4072
  352SOL     OW 1460   1.790   2.442   0.679  0.0191  0.1940  0.1363
  352SOL    HW2 1461   1.717   2.400   0.725  0.0177  0.2084  0.1474
  352SOL    HW3 1462   1.769   2.431   0.586  0.6193 -0.8872  0.1156
  352SOL    MW4 1463   1.777   2.435   0.673  0.0981  0.0532  0.1349
  353SOL     OW 1464   1.827   2.690   0.794  0.1534  0.2276  0.5718
  353SOL    HW2 1465   1.810   2.600   0.768  0.6230  0.7331 -1.5635
  353SOL    HW3 1466   1.746   2.737   0.773  0.8791  0.8295 -0.9811
  353SOL    MW4 1467   1.814   2.684   0.788  0.3111  0.3736  0.0852
  354SOL     OW 1468   2.016   2.840   0.661 -0.1405  0.3701  0.0079
  354SOL    HW2 1469   1.948   2.783   0.696  1.6663 -2.1691 -0.4120
  354SOL    HW3 1470   2.094   2.818   0.712  0.9450  1.4543 -1.1315
  354SOL    MW4 1471   2.018   2.829   0.672  0.2413  0.1781 -0.1979
  355SOL     OW 1472   1.975   3.092   0.838 -0.1678  0.0468 -0.4795
  355SOL    HW2 1473   1.968   3.023   0.771  0.0116  1.6221 -2.1727
  355SOL    HW3 1474   1.906   3.154   0.815 -1.0062 -0.0771  1.6671
  355SOL    MW4 1475   1.965   3.091   0.826 -0.2548  0.2382 -0.4197
  356SOL     OW 1476   1.773   3.256   0.723 -0.2017  0.3295  0.4780
  356SOL    HW2 1477   1.701   3.205   0.760 -0.1171  0.3389  0.6522
  356SOL    HW3 1478   1.760   3.249   0.628 -0.5917  0.5587  0.5125
  356SOL    MW4 1479   1.762   3.248   0.715 -0.2420  0.3610  0.5055
  357SOL     OW 1480   1.795   3.520   0.802 -0.3903  0.0587  0.1663
  357SOL    HW2 1481   1.808   3.504   0.895  0.3676 -0.4899 -0.0328
  357SOL    HW3 1482   1.774   3.434   0.766  1.5482 -0.1411 -0.5422
  357SOL    MW4 1483   1.794   3.507   0.809 -0.0343 -0.0398  0.0466
  358SOL     OW 1484   2.045   3.652   0.771 -0.1648 -0.5237  0.2472
  358SOL    HW2 1485   2.049   3.744   0.797  0.0113 -0.6548  0.6898
  358SOL    HW3 1486   1.953   3.627   0.783 -0.5608  0.0397 -1.4382
  358SOL    MW4 1487   2.033   3.661   0.776 -0.1936 -0.4671  0.0832
  359SOL     OW 1488   2.064   3.925   0.815  0.1804 -0.4742  0.2896
  359SOL    HW2 1489   2.054   3.926   0.910  0.2490 -0.9149  0.3036
  359SOL    HW3 1490   1.977   3.943   0.781 -0.1153 -1.6268  0.4256
  359SOL    MW4 1491   2.051   3.927   0.823  0.1507 -0.6843  0.3094
  360SOL     OW 1492   1.803   3.993   0.691 -0.4584  0.6575  0.0420
  360SOL    HW2 1493   1.737   3.934   0.727  0.2971  0.2585  0.7703
  360SOL    HW3 1494   1.810   3.968   0.599 -0.3105 -0.2277  0.2939
  360SOL    MW4 1495   1.795   3.982   0.683 -0.3393  0.4880  0.1713
  361SOL     OW 1496   1.771   4.262   0.757  0.3587 -0.0813  0.5098
  361SOL    HW2 1497   1.783   4.276   0.851  0.8008  0.0983  0.4250
  361SOL    HW3 1498   1.777   4.167   0.746 -1.6751 -0.2860  0.9434
  361SOL    MW4 1499   1.773   4.251   0.768  0.1488 -0.0844  0.5558
  362SOL     OW 1500   0.404   0.113   0.455  0.0494  0.5602 -0.3639
  362SOL    HW2 1501   0.330   0.054   0.443 -0.8029  1.2978  1.1034
  362SOL    HW3 1502   0.371   0.200   0.432 -0.0020  1.1200  1.7085
  362SOL    MW4 1503   0.390   0.117   0.451 -0.0699  0.7313  0.1031
  363SOL     OW 1504   2.411   4.612   0.858 -0.0820 -0.0547 -0.0897
  363SOL    HW2 1505   2.410   4.639   0.950 -1.8779 -0.0709 -0.0916
  363SOL    HW3 1506   2.484   4.661   0.820  0.2585  0.4602  1.1903
  363SOL    MW4 1507   2.421   4.622   0.865 -0.2742  0.0114  0.0789
  364SOL     OW 1508   1.993   0.964   0.239  0.1350  0.4682 -0.0121
  364SOL    HW2 1509   2.080   1.003   0.240  0.2423  0.3761 -2.5143
  364SOL    HW3 1510   2.006   0.875   0.206 -0.7495  0.0075  0.8331
  364SOL    MW4 1511   2.006   0.957   0.235  0.0324  0.3953 -0.2307
  365SOL     OW 1512   2.225   0.377   0.825  0.0097  0.4633 -0.2555
  365SOL    HW2 1513   2.315   0.398   0.800  0.2381 -0.3415 -0.1208
  365SOL    HW3 1514   2.216   0.284   0.807  0.0348 -0.0448  2.1810
  365SOL    MW4 1515   2.235   0.368   0.820  0.0432  0.2901  0.0837
  366SOL     OW 1516   2.452   0.700   0.816 -0.1180  0.0049 -0.3193
  366SOL    HW2 1517   2.509   0.761   0.769  1.3810 -0.5175  0.7966
  366SOL    HW3 1518   2.480   0.614   0.787  0.4127 -0.2971  1.0673
  366SOL    MW4 1519   2.463   0.697   0.806  0.1500 -0.1038  0.0110
  367SOL     OW 1520   2.320   0.837   0.409  0.4394 -0.2094  0.3563
  367SOL    HW2 1521   2.413   0.816   0.406  0.6643  0.8011  0.1044
  367SOL    HW3 1522   2.278   0.767   0.359  1.0294 -0.8056  0.6821
  367SOL    MW4 1523   2.326   0.825   0.402  0.5467 -0.1547  0.3660
  368SOL     OW 1524   1.771   4.643   0.463  0.1575  0.1719 -0.7650
  368SOL    HW2 1525   1.692   4.597   0.490  1.2911 -1.3115  0.0836
  368SOL    HW3 1526   1.788   4.705   0.534  0.2529 -0.1341 -0.5188
  368SOL    MW4 1527   1.763   4.645   0.476  0.3196 -0.0639 -0.6205
  369SOL     OW 1528   2.233   1.084   0.760 -0.3119  0.1832  0.3147
  369SOL    HW2 1529   2.253   1.085   0.854 -0.3696  0.5471  0.3231
  369SOL    HW3 1530   2.238   0.991   0.736 -0.6752  0.0425  0.7584
  369SOL    MW4 1531   2.236   1.072   0.770 -0.3676  0.2127  0.3744
  370SOL     OW 1532   2.439   1.275   0.702  0.3517 -0.2103  0.1777
  370SOL    HW2 1533   2.373   1.211   0.726  1.3808 -1.2600  0.2493
  370SOL    HW3 1534   2.441   1.274   0.607 -1.1635  1.3179  0.0996
  370SOL    MW4 1535   2.431   1.267   0.693  0.2878 -0.1472  0.1769
  371SOL     OW 1536   2.400   1.532   0.807 -0.3628 -0.2700  0.5101
  371SOL    HW2 1537   2.419   1.440   0.785  0.2434  0.0569 -0.3656
  371SOL    HW3 1538   2.478   1.580   0.778 -1.9291  0.9141 -1.9112
  371SOL    MW4 1539   2.413   1.526   0.800 -0.4897 -0.0706  0.0752
  372SOL     OW 1540   2.175   1.661   0.730  0.1359 -0.1330  0.2200
  372SOL    HW2 1541   2.241   1.600   0.763  0.7545  0.7595  0.6489
  372SOL    HW3 1542   2.178   1.650   0.635 -0.1409 -1.1581  0.3264
  372SOL    MW4 1543   2.184   1.652   0.722  0.1810 -0.1504  0.2905
  373SOL     OW 1544   2.219   1.940   0.819  0.1145 -0.4200  0.0812
  373SOL    HW2 1545   2.203   1.850   0.790 -0.0952 -0.5737  0.6613
  373SOL    HW3 1546   2.151   1.992   0.777 -0.5419 -0.7293  0.7469
  373SOL    MW4 1547   2.208   1.935   0.810  0.0002 -0.4811  0.2456
  374SOL     OW 1548   2.427   2.072   0.698  0.4657 -0.4042 -0.3658
  374SOL    HW2 1549   2.404   2.064   0.606 -0.2664 -0.7711 -0.1584
  374SOL    HW3 1550   2.349   2.043   0.745  1.1278 -1.0253  0.3649
  374SOL    MW4 1551   2.414   2.067   0.692  0.4568 -0.5348 -0.2421
  375SOL     OW 1552   2.462   2.349   0.783  0.2931  0.4254  0.7217
  375SOL    HW2 1553   2.545   2.385   0.754  0.4862  0.4945  1.3560
  375SOL    HW3 1554   2.463   2.258   0.752 -0.0993  0.8833 -0.6800
  375SOL    MW4 1555   2.473   2.342   0.775  0.2668  0.4950  0.6204
  376SOL     OW 1556   2.212   2.461   0.691 -0.7857 -0.0341  0.6057
  376SOL    HW2 1557   2.295   2.417   0.713 -0.6982 -0.7758 -1.1169
  376SOL    HW3 1558   2.145   2.407   0.732 -0.6514 -1.6029 -1.1557
  376SOL    MW4 1559   2.214   2.448   0.699 -0.7565 -0.3390  0.1460
  377SOL     OW 1560   2.250   2.731   0.806 -0.0994  0.0030 -0.2268
  377SOL    HW2 1561   2.233   2.727   0.900  1.7288 -0.3790  0.0971
  377SOL    HW3 1562   2.247   2.640   0.777 -1.1450  0.1570 -0.6512
  377SOL    MW4 1563   2.247   2.719   0.815  0.0041 -0.0269 -0.2401
  378SOL     OW 1564   2.472   2.856   0.714 -0.0945  0.4849 -0.4029
  378SOL    HW2 1565   2.548   2.803   0.740 -0.6836  0.8139  2.0664
  378SOL    HW3 1566   2.396   2.801   0.734 -0.6417  1.5236  0.4143
  378SOL    MW4 1567   2.472   2.841   0.720 -0.2444  0.6654  0.0307
  379SOL     OW 1568   2.452   3.096   0.828  0.1665 -0.3406 -0.2764
  379SOL    HW2 1569   2.482   3.079   0.917 -0.5909  1.1687  0.2811
  379SOL    HW3 1570   2.454   3.011   0.785  0.4101 -1.0981  1.2182
  379SOL    MW4 1571   2.456   3.083   0.834  0.0987 -0.2415 -0.0057
  380SOL     OW 1572   2.222   3.208   0.724  0.0256 -0.3655  0.1141
  380SOL    HW2 1573   2.154   3.183   0.787 -0.3071  1.1665  0.4028
  380SOL    HW3 1574   2.303   3.173   0.760 -0.3086 -0.3364  0.9089
  380SOL    MW4 1575   2.224   3.200   0.737 -0.0625 -0.1597  0.2571
  381SOL     OW 1576   2.272   3.483   0.790  0.1469  0.1653  0.4583
  381SOL    HW2 1577   2.241   3.398   0.759  2.1727  0.4963 -2.7779
  381SOL    HW3 1578   2.200   3.543   0.770 -0.1820 -0.3397  0.0967
  381SOL    MW4 1579   2.258   3.480   0.783  0.3707  0.1423 -0.0163
  382SOL     OW 1580   2.514   3.573   0.691 -0.2860  0.0137  0.1649
  382SOL    HW2 1581   2.586   3.530   0.738  0.5683  0.6094 -0.5683
  382SOL    HW3 1582   2.435   3.532   0.725  0.2744  0.7732  2.4742
  382SOL    MW4 1583   2.513   3.562   0.702 -0.0994  0.1926  0.3728
  383SOL     OW 1584   2.528   3.833   0.826  0.5219 -0.1021  0.5101
  383SOL    HW2 1585   2.464   3.880   0.772  1.0726  0.0410 -0.0251
  383SOL    HW3 1586   2.521   3.742   0.797  0.6038 -0.0749  0.4026
  383SOL    MW4 1587   2.519   3.827   0.815  0.6056 -0.0796  0.4254
  384SOL     OW 1588   2.311   3.957   0.678  0.0307 -0.1246  0.2555
  384SOL    HW2 1589   2.229   3.947   0.726 -0.0449  0.0311  0.1586
  384SOL    HW3 1590   2.289   4.014   0.604 -0.1388 -1.3601 -0.6578
  384SOL    MW4 1591   2.297   3.963   0.674 -0.0014 -0.2670  0.1222
  385SOL     OW 1592   2.199   4.267   0.846  0.2066  0.3124  0.5271
  385SOL    HW2 1593   2.169   4.177   0.848 -0.0331  0.4210  1.9038
  385SOL    HW3 1594   2.273   4.266   0.785 -0.2325 -0.6687 -0.0010
  385SOL    MW4 1595   2.205   4.255   0.838  0.1173  0.1969  0.6391
  386SOL     OW 1596   2.153   4.384   0.458 -0.0751 -0.2888 -0.0205
  386SOL    HW2 1597   2.113   4.397   0.544 -1.4195 -1.9000 -0.4039
  386SOL    HW3 1598   2.102   4.439   0.399 -0.5256 -0.8546 -0.1641
  386SOL    MW4 1599   2.141   4.393   0.462 -0.3119 -0.5760 -0.0900
  387SOL     OW 1600   2.920   4.418   0.703 -0.3075  0.2212 -0.5311
  387SOL    HW2 1601   2.848   4.367   0.741 -0.3230  0.1451 -0.6612
  387SOL    HW3 1602   2.998   4.383   0.745 -0.4424  1.0479  0.4238
  387SOL    MW4 1603   2.921   4.406   0.714 -0.3278  0.3204 -0.4223
  388SOL     OW 1604   2.953   3.532   0.499  0.2075 -0.2596  0.5499
  388SOL    HW2 1605   3.047   3.547   0.486  0.1261 -0.8518 -0.8106
  388SOL    HW3 1606   2.911   3.587   0.432 -0.3473 -1.3956 -0.0414
  388SOL    MW4 1607   2.960   3.541   0.488  0.1235 -0.4878  0.2924
  389SOL     OW 1608   2.688   0.353   0.833  0.3416  0.4542 -0.1060
  389SOL    HW2 1609   2.686   0.365   0.928  0.5221  0.2741 -0.0813
  389SOL    HW3 1610   2.674   0.260   0.820  1.3687  0.3105 -0.2204
  389SOL    MW4 1611   2.686   0.343   0.843  0.5012  0.4115 -0.1178
  390SOL     OW 1612   2.609   0.869   0.428  0.2607  0.2127 -0.0670
  390SOL    HW2 1613   2.672   0.813   0.382 -0.1407 -0.4654  0.2030
  390SOL    HW3 1614   2.635   0.958   0.405  2.5561  0.0296  1.6276
  390SOL    MW4 1615   2.621   0.873   0.419  0.5105  0.0991  0.1922
  391SOL     OW 1616   2.864   0.789   0.819 -0.4482 -0.1863  0.0665
  391SOL    HW2 1617   2.861   0.790   0.915  2.2625  1.3063  0.1877
  391SOL    HW3 1618   2.871   0.696   0.796 -0.7973 -0.5342  1.3085
  391SOL    MW4 1619   2.864   0.777   0.829 -0.1369 -0.0353  0.2464
  392SOL     OW 1620   2.631   0.882   0.699 -0.0929  0.1480  0.1374
  392SOL    HW2 1621   2.721   0.852   0.715  0.5118  2.1879  0.6849
  392SOL    HW3 1622   2.625   0.891   0.604  0.7674  1.4144  0.1921
  392SOL    MW4 1623   2.642   0.879   0.689  0.1004  0.5842  0.2169
  393SOL     OW 1624   2.650   1.144   0.818  0.1412 -0.0262  0.1624
  393SOL    HW2 1625   2.635   1.058   0.780 -0.4565 -0.5078  1.4671
  393SOL    HW3 1626   2.576   1.197   0.790 -0.0217 -0.2260  0.2192
  393SOL    MW4 1627   2.639   1.140   0.810  0.0410 -0.1161  0.3420
  394SOL     OW 1628   2.876   1.305   0.746  0.2633 -0.1558 -0.3500
  394SOL    HW2 1629   2.947   1.244   0.768 -1.0972 -1.3601  0.8935
  394SOL    HW3 1630   2.797   1.261   0.779 -1.2010  0.6123 -2.7462
  394SOL    MW4 1631   2.875   1.291   0.754 -0.1094 -0.2133 -0.5020
  395SOL     OW 1632   2.910   1.588   0.829  0.1197 -0.0086 -0.3909
  395SOL    HW2 1633   2.983   1.636   0.789 -0.2926  0.3192 -0.7449
  395SOL    HW3 1634   2.930   1.496   0.812  0.7895  0.0421  0.0787
  395SOL    MW4 1635   2.922   1.583   0.822  0.1538  0.0414 -0.3756
  396SOL     OW 1636   2.650   1.664   0.747 -0.2588 -0.0171  0.1914
  396SOL    HW2 1637   2.656   1.757   0.768  1.0276 -0.0180 -0.1810
  396SOL    HW3 1638   2.736   1.628   0.766 -0.6853 -1.1069  0.1479
  396SOL    MW4 1639   2.662   1.671   0.752 -0.1454 -0.1609  0.1366
  397SOL     OW 1640   2.667   1.956   0.783 -0.3447 -0.1478  0.2910
  397SOL    HW2 1641   2.660   1.950   0.878 -0.3667 -1.5737  0.2112
  397SOL    HW3 1642   2.579   1.981   0.754 -0.4106  0.0051  0.6210
  397SOL    MW4 1643   2.654   1.958   0.792 -0.3562 -0.3157  0.3240
  398SOL     OW 1644   0.039   2.372   0.444  0.0041 -0.5007 -0.2227
  398SOL    HW2 1645   0.034   2.391   0.538 -0.4328  1.1408 -0.5596
  398SOL    HW3 1646  -0.051   2.349   0.420 -0.2770  0.9410 -0.6003
  398SOL    MW4 1647   0.026   2.372   0.453 -0.0906 -0.0937 -0.3169
  399SOL     OW 1648   2.949   2.315   0.631 -0.1215 -0.0271  0.0593
  399SOL    HW2 1649   2.951   2.247   0.698 -0.3066 -0.7993 -0.7114
  399SOL    HW3 1650   2.869   2.365   0.650 -1.3957 -1.6501 -0.9456
  399SOL    MW4 1651   2.939   2.313   0.643 -0.3140 -0.3431 -0.1750
  400SOL     OW 1652   2.724   2.469   0.683  0.4544  0.0653  0.0406
  400SOL    HW2 1653   2.706   2.487   0.590  0.7721  0.0754 -0.0180
  400SOL    HW3 1654   2.718   2.554   0.726 -0.6351 -0.0764  0.1827
  400SOL    MW4 1655   2.721   2.482   0.676  0.3526  0.0479  0.0516
  401SOL     OW 1656   2.722   2.728   0.790  0.1737 -0.1927 -0.1608
  401SOL    HW2 1657   2.722   2.729   0.886 -0.2090 -0.1958 -0.1597
  401SOL    HW3 1658   2.807   2.764   0.766  0.0888  0.2368  0.1766
  401SOL    MW4 1659   2.733   2.733   0.800  0.1118 -0.1366 -0.1161
  402SOL     OW 1660   1.628   2.083   0.282  0.2639  0.1048  0.2109
  402SOL    HW2 1661   1.701   2.022   0.275  0.3341  0.1594  0.4512
  402SOL    HW3 1662   1.616   2.116   0.193 -0.6834 -1.2901 -0.1944
  402SOL    MW4 1663   1.636   2.080   0.269  0.1483 -0.0722  0.1891
  403SOL     OW 1664   2.918   3.129   0.788 -0.0496 -0.1296 -0.2815
  403SOL    HW2 1665   2.828   3.157   0.770 -0.5910 -0.6764  1.5033
  403SOL    HW3 1666   2.923   3.040   0.753 -0.3468 -0.2731  0.0417
  403SOL    MW4 1667   2.907   3.121   0.781 -0.1602 -0.2205 -0.0033
  404SOL     OW 1668   2.672   3.232   0.691 -0.2475  0.4194  0.0780
  404SOL    HW2 1669   2.696   3.310   0.742  0.0389  0.2068  0.2673
  404SOL    HW3 1670   2.601   3.192   0.741 -0.7412  0.8358 -0.2819
  404SOL    MW4 1671   2.666   3.237   0.704 -0.2747  0.4463  0.0555
  405SOL     OW 1672   2.725   3.470   0.828 -0.3331  0.0747  0.0469
  405SOL    HW2 1673   2.711   3.483   0.922 -0.7524  0.6016 -0.0909
  405SOL    HW3 1674   2.800   3.526   0.807 -1.6521  1.7132 -0.3874
  405SOL    MW4 1675   2.733   3.479   0.838 -0.5624  0.3603 -0.0286
  406SOL     OW 1676   2.944   3.634   0.757  0.4367 -0.2377 -0.4903
  406SOL    HW2 1677   2.926   3.727   0.774  0.6392 -0.4096  0.7226
  406SOL    HW3 1678   2.941   3.626   0.662 -1.8541  0.5483 -0.5103
  406SOL    MW4 1679   2.942   3.645   0.747  0.1614 -0.1566 -0.3330
  407SOL     OW 1680   2.927   3.912   0.816 -0.3026 -0.0420 -0.2704
  407SOL    HW2 1681   2.925   3.897   0.911 -0.0605  0.5644 -0.1669
  407SOL    HW3 1682   2.843   3.951   0.796 -0.7697 -1.1317 -0.4751
  407SOL    MW4 1683   2.916   3.915   0.826 -0.3321 -0.1056 -0.2837
  408SOL     OW 1684   2.698   4.006   0.721  0.3585  0.0588  0.1063
  408SOL    HW2 1685   2.650   3.937   0.766  0.4473  0.3434  0.6435
  408SOL    HW3 1686   2.699   3.979   0.630 -0.3961 -0.1893  0.1690
  408SOL    MW4 1687   2.692   3.993   0.715  0.2708  0.0634  0.1854
  409SOL     OW 1688   2.699   4.254   0.819  0.5116  0.3275 -0.0674
  409SOL    HW2 1689   2.698   4.257   0.914 -1.0076  1.6396 -0.1056
  409SOL    HW3 1690   2.681   4.163   0.798 -0.5104  0.2895  0.9068
  409SOL    MW4 1691   2.696   4.243   0.829  0.1762  0.4954  0.0561
  410SOL     OW 1692   2.841   4.623   0.385  0.0134 -0.0855 -0.4502
  410SOL    HW2 1693   2.905   4.553   0.400 -0.1297 -0.2880 -0.7878
  410SOL    HW3 1694   2.849   4.642   0.291  0.1475  0.4422 -0.3339
  410SOL    MW4 1695   2.851   4.616   0.375  0.0126 -0.0424 -0.4794
  411SOL     OW 1696   3.351   0.023   0.863  0.2154 -0.0969  0.1122
  411SOL    HW2 1697   3.334   0.008   0.956 -1.0196 -0.4285 -0.1566
  411SOL    HW3 1698   3.270   0.060   0.829  1.6026  2.6852 -0.2742
  411SOL    MW4 1699   3.338   0.026   0.870  0.2353  0.2264  0.0257
  412SOL     OW 1700   3.117   0.136   0.761 -0.1869  0.3805  0.3088
  412SOL    HW2 1701   3.130   0.220   0.805 -0.4381  1.2246 -1.1994
  412SOL    HW3 1702   3.072   0.158   0.680  1.3056 -1.0139 -0.9296
  412SOL    MW4 1703   3.113   0.150   0.756 -0.0231  0.3079 -0.0536
  413SOL     OW 1704   3.134   0.399   0.853  0.0427  0.0711 -0.0472
  413SOL    HW2 1705   3.128   0.408   0.948 -0.9065  2.3399 -0.2948
  413SOL    HW3 1706   3.218   0.439   0.830 -0.9006  1.8726 -0.4163
  413SOL    MW4 1707   3.144   0.405   0.862 -0.2069  0.6081 -0.1285
  414SOL     OW 1708   3.363   0.523   0.723 -0.4770 -0.2294 -0.0947
  414SOL    HW2 1709   3.430   0.488   0.782 -0.2701  0.2855 -0.0203
  414SOL    HW3 1710   3.393   0.497   0.636 -0.3336 -0.2597 -0.0375
  414SOL    MW4 1711   3.376   0.515   0.719 -0.4311 -0.1655 -0.0774
  415SOL     OW 1712   3.324   0.793   0.789  0.0412 -0.6237  0.3295
  415SOL    HW2 1713   3.235   0.826   0.783  0.3661  0.4197  0.9976
  415SOL    HW3 1714   3.317   0.700   0.770 -1.0486 -0.3658 -0.5605
  415SOL    MW4 1715   3.312   0.785   0.786 -0.0596 -0.4520  0.3003
  416SOL     OW 1716   3.077   0.913   0.711  0.2249 -0.5778 -0.0110
  416SOL    HW2 1717   3.096   0.999   0.748 -1.2890  0.0247 -0.6049
  416SOL    HW3 1718   3.002   0.881   0.761 -0.5061 -0.6643 -1.1393
  416SOL    MW4 1719   3.069   0.920   0.722 -0.0715 -0.5097 -0.2383
  417SOL     OW 1720   3.138   1.170   0.800  0.3845  0.2395  0.3910
  417SOL    HW2 1721   3.125   1.178   0.895 -0.3237  2.8179  0.1112
  417SOL    HW3 1722   3.212   1.228   0.782  0.5539 -0.2949 -0.6418
  417SOL    MW4 1723   3.146   1.178   0.810  0.3133  0.5093  0.2179
  418SOL     OW 1724   3.369   1.315   0.723 -0.0205  0.1287 -0.0959
  418SOL    HW2 1725   3.456   1.287   0.753  0.5176  2.2503  0.4218
  418SOL    HW3 1726   3.360   1.404   0.757 -3.4904 -0.9792  2.1577
  418SOL    MW4 1727   3.379   1.323   0.732 -0.4075  0.2625  0.2698
  419SOL     OW 1728   3.380   1.592   0.825 -0.0615  0.4459  0.2961
  419SOL    HW2 1729   3.369   1.576   0.919 -0.5038  0.7286  0.2978
  419SOL    HW3 1730   3.471   1.620   0.816 -0.2253  1.1576  0.7517
  419SOL    MW4 1731   3.390   1.594   0.836 -0.1416  0.5771  0.3565
  420SOL     OW 1732   3.149   1.699   0.736  0.1641  0.2140  0.5326
  420SOL    HW2 1733   3.154   1.792   0.761 -0.8759  0.5770 -0.5874
  420SOL    HW3 1734   3.234   1.663   0.762  1.3006  1.9043 -0.7256
  420SOL    MW4 1735   3.161   1.707   0.743  0.1767  0.4847  0.2188
  421SOL     OW 1736   3.163   1.972   0.821  0.3017  0.1715 -0.0627
  421SOL    HW2 1737   3.157   1.954   0.915  0.5298 -0.0628 -0.0925
  421SOL    HW3 1738   3.088   2.029   0.803 -0.6016 -0.9695 -0.0085
  421SOL    MW4 1739   3.152   1.977   0.831  0.2127 -0.0100 -0.0594
  422SOL     OW 1740   3.571   1.934   0.845 -0.0770 -0.2458 -0.6956
  422SOL    HW2 1741   3.644   1.986   0.809 -0.2337  0.0353 -0.6057
  422SOL    HW3 1742   3.494   1.965   0.797 -0.3479  0.4010  0.1625
  422SOL    MW4 1743   3.571   1.945   0.834 -0.1335 -0.1234 -0.5705
  423SOL     OW 1744   3.410   2.338   0.782  0.1448  0.5355  0.2757
  423SOL    HW2 1745   3.421   2.347   0.877 -1.7940 -0.7849  0.6628
  423SOL    HW3 1746   3.481   2.390   0.745  0.4444  1.7626  2.4420
  423SOL    MW4 1747   3.420   2.346   0.790 -0.0715  0.5231  0.6126
  424SOL     OW 1748   3.189   2.460   0.662  0.0385  0.1953  0.0545
  424SOL    HW2 1749   3.253   2.409   0.711  0.3541  0.8879  0.3562
  424SOL    HW3 1750   3.112   2.402   0.656 -0.2614  0.3671  1.9467
  424SOL    MW4 1751   3.187   2.445   0.667  0.0408  0.3092  0.3440
  425SOL     OW 1752   3.186   2.709   0.774  0.0446  0.1454 -0.0372
  425SOL    HW2 1753   3.193   2.622   0.734  1.3381 -0.8428  2.2213
  425SOL    HW3 1754   3.261   2.757   0.739  0.3654 -0.2445  0.1081
  425SOL    MW4 1755   3.197   2.704   0.764  0.2575 -0.0365  0.2800
  426SOL     OW 1756   3.401   2.852   0.658  0.3516 -0.2090 -0.1063
  426SOL    HW2 1757   3.484   2.807   0.674 -0.7618 -2.5763 -0.8133
  426SOL    HW3 1758   3.401   2.871   0.565 -0.0400 -0.5472 -0.1805
  426SOL    MW4 1759   3.412   2.848   0.648  0.1528 -0.5658 -0.2094
  427SOL     OW 1760   3.385   3.112   0.750  0.3015 -0.0487 -0.0066
  427SOL    HW2 1761   3.386   3.103   0.845  1.7351  1.0693  0.1013
  427SOL    HW3 1762   3.392   3.023   0.717  0.0612 -0.4192  0.9454
  427SOL    MW4 1763   3.386   3.099   0.758  0.4587  0.0498  0.1332
  428SOL     OW 1764   3.139   3.258   0.698 -0.4053 -0.2569 -0.3719
  428SOL    HW2 1765   3.222   3.212   0.714 -0.4699 -0.3982 -0.4423
  428SOL    HW3 1766   3.074   3.208   0.746 -0.5321 -0.4400 -0.7315
  428SOL    MW4 1767   3.142   3.245   0.706 -0.4306 -0.2999 -0.4287
  429SOL     OW 1768   3.163   3.503   0.854  0.0746  0.0796 -0.3626
  429SOL    HW2 1769   3.149   3.417   0.815  0.5732  0.0281 -0.4263
  429SOL    HW3 1770   3.082   3.551   0.836 -0.1663 -0.3462 -0.4039
  429SOL    MW4 1771   3.150   3.498   0.847  0.1085  0.0167 -0.3765
  430SOL     OW 1772   3.407   3.615   0.771  0.4708 -0.5703 -0.0571
  430SOL    HW2 1773   3.406   3.706   0.801 -0.5134 -0.4027 -0.5648
  430SOL    HW3 1774   3.334   3.574   0.817  0.8147 -1.0675  0.0509
  430SOL    MW4 1775   3.397   3.622   0.781  0.3862 -0.6135 -0.1099
  431SOL     OW 1776   3.414   3.884   0.867 -0.2298 -0.2569 -0.8797
  431SOL    HW2 1777   3.429   3.878   0.962  0.0283  0.3425 -0.8747
  431SOL    HW3 1778   3.483   3.943   0.836  0.2048 -1.1225 -1.5701
  431SOL    MW4 1779   3.425   3.891   0.876 -0.1383 -0.2923 -0.9701
  432SOL     OW 1780   3.168   4.024   0.757 -0.3514 -0.1702  0.1516
  432SOL    HW2 1781   3.241   3.976   0.795 -1.0795  0.3016  2.2275
  432SOL    HW3 1782   3.090   3.973   0.782 -1.0329  1.4226  1.3930
  432SOL    MW4 1783   3.167   4.011   0.766 -0.5376  0.1025  0.5893
  433SOL     OW 1784   3.143   4.292   0.839 -0.1484  0.4878  0.4676
  433SOL    HW2 1785   3.227   4.326   0.806  0.5404  0.2915  1.9749
  433SOL    HW3 1786   3.142   4.201   0.810 -0.5286  0.8828 -0.8148
  433SOL    MW4 1787   3.154   4.285   0.831 -0.1080  0.5145  0.4972
  434SOL     OW 1788   3.369   4.430   0.748  0.0750  0.6316 -0.4878
  434SOL    HW2 1789   3.340   4.436   0.657  0.5355  0.7460 -0.6303
  434SOL    HW3 1790   3.361   4.519   0.782  0.1434  0.6410 -0.4948
  434SOL    MW4 1791   3.364   4.443   0.740  0.1450  0.6475 -0.5075
  435SOL     OW 1792   3.766   4.597   0.877  0.3351 -0.0195 -0.3680
  435SOL    HW2 1793   3.834   4.601   0.809  0.4298  0.2490 -0.2586
  435SOL    HW3 1794   3.712   4.675   0.862 -0.8130 -0.9909 -1.3523
  435SOL    MW4 1795   3.768   4.608   0.866  0.1962 -0.1125 -0.4834
  436SOL     OW 1796   3.611   0.148   0.787  0.4190 -0.4661 -0.1190
  436SOL    HW2 1797   3.521   0.115   0.796 -0.0209  0.6741 -0.2350
  436SOL    HW3 1798   3.634   0.131   0.696 -0.1075  0.2977 -0.3964
  436SOL    MW4 1799   3.602   0.141   0.776  0.2911 -0.2149 -0.1708
  437SOL     OW 1800   3.563   0.412   0.866 -0.1723 -0.7487 -0.0637
  437SOL    HW2 1801   3.569   0.417   0.962 -2.0319  0.1965  0.0153
  437SOL    HW3 1802   3.587   0.322   0.846  1.2069 -0.6948  1.2024
  437SOL    MW4 1803   3.567   0.401   0.876 -0.2356 -0.6169  0.1138
  438SOL     OW 1804   3.820   0.516   0.794  0.5920  0.0508 -0.1116
  438SOL    HW2 1805   3.814   0.604   0.831  1.3585 -0.5301  1.4896
  438SOL    HW3 1806   3.733   0.478   0.809  1.0814 -0.4081  1.7944
  438SOL    MW4 1807   3.808   0.522   0.801  0.7575 -0.0864  0.3511
  439SOL     OW 1808   3.893   0.785   0.882 -0.3509 -0.1453 -0.2433
  439SOL    HW2 1809   3.868   0.799   0.974 -1.8047 -1.0868 -0.4695
  439SOL    HW3 1810   3.955   0.855   0.863  0.6900 -0.4840  1.7360
  439SOL    MW4 1811   3.898   0.796   0.892 -0.4053 -0.3141 -0.0120
  440SOL     OW 1812   3.771   0.777   0.618 -0.1083 -0.0962 -0.4070
  440SOL    HW2 1813   3.825   0.759   0.695  0.8446  1.6682 -0.6364
  440SOL    HW3 1814   3.696   0.825   0.653  1.0781  2.0797 -0.7157
  440SOL    MW4 1815   3.768   0.781   0.633  0.1738  0.4236 -0.4780
  441SOL     OW 1816   3.601   1.169   0.838  0.3972  0.3163  0.1208
  441SOL    HW2 1817   3.581   1.183   0.930 -1.9278  1.3295 -0.5090
  441SOL    HW3 1818   3.572   1.079   0.820  0.2649  0.3367  0.2327
  441SOL    MW4 1819   3.595   1.159   0.848  0.0727  0.4528  0.0525
  442SOL     OW 1820   3.474   1.384   0.469 -0.3729 -0.0079 -0.1420
  442SOL    HW2 1821   3.457   1.353   0.558  1.9594 -1.1101 -0.0356
  442SOL    HW3 1822   3.501   1.476   0.480 -2.1030  0.4816  0.0709
  442SOL    MW4 1823   3.476   1.392   0.482 -0.2933 -0.0889 -0.0999
  443SOL     OW 1824   3.823   1.546   0.861  0.0622 -0.2969 -0.1597
  443SOL    HW2 1825   3.890   1.587   0.806 -0.1084  0.0527 -0.1086
  443SOL    HW3 1826   3.822   1.454   0.833 -1.1580  0.2134 -1.8905
  443SOL    MW4 1827   3.832   1.539   0.850 -0.1216 -0.1835 -0.3814
  444SOL     OW 1828   3.616   1.682   0.737 -0.2409  0.3837  0.5345
  444SOL    HW2 1829   3.608   1.770   0.774 -1.3776  0.8786 -0.8199
  444SOL    HW3 1830   3.688   1.642   0.786  1.4694  2.6549 -0.0093
  444SOL    MW4 1831   3.624   1.688   0.748 -0.1652  0.7486  0.2840
  445SOL     OW 1832   3.793   2.055   0.730  0.6483  0.0166 -0.2209
  445SOL    HW2 1833   3.876   2.020   0.762 -0.2043 -1.5387  0.3473
  445SOL    HW3 1834   3.803   2.055   0.634 -0.0247 -3.6885 -0.3623
  445SOL    MW4 1835   3.806   2.050   0.721  0.4468 -0.6773 -0.1646
  446SOL     OW 1836   3.875   2.147   0.471  0.2944 -0.4999  0.0210
  446SOL    HW2 1837   3.808   2.160   0.405  0.0961  0.5374  0.4083
  446SOL    HW3 1838   3.927   2.228   0.469  1.7458 -1.4269 -0.5216
  446SOL    MW4 1839   3.873   2.160   0.462  0.4597 -0.4854  0.0004
  447SOL     OW 1840   3.832   2.324   0.800 -0.0481  0.0876 -0.1118
  447SOL    HW2 1841   3.830   2.329   0.895 -1.2232 -0.7491 -0.0788
  447SOL    HW3 1842   3.813   2.232   0.780 -0.9131  0.4871 -1.1839
  447SOL    MW4 1843   3.829   2.313   0.810 -0.3173  0.0300 -0.2490
  448SOL     OW 1844   3.608   2.495   0.682  0.5426 -0.3223 -0.2547
  448SOL    HW2 1845   3.690   2.454   0.710  0.2407 -1.1698 -0.6272
  448SOL    HW3 1846   3.615   2.585   0.714  1.4385 -0.5066  0.0805
  448SOL    MW4 1847   3.620   2.502   0.690  0.6211 -0.4585 -0.2596
  449SOL     OW 1848   3.646   2.747   0.769  0.0608 -0.1739 -0.3183
  449SOL    HW2 1849   3.632   2.740   0.863 -1.6688 -0.0257 -0.5364
  449SOL    HW3 1850   3.729   2.794   0.760  0.6017 -0.8365  1.1243
  449SOL    MW4 1851   3.655   2.753   0.780 -0.0961 -0.2420 -0.1567
  450SOL     OW 1852   4.025   2.485   0.436  0.0165  0.3395  0.3111
  450SOL    HW2 1853   4.042   2.575   0.407 -1.8862  0.0824 -1.7161
  450SOL    HW3 1854   3.930   2.475   0.432  0.3199 -2.4167 -1.5599
  450SOL    MW4 1855   4.015   2.495   0.432 -0.1941 -0.0584 -0.2032
  451SOL     OW 1856   4.103   2.744   0.826  0.3073 -0.1595  0.1823
  451SOL    HW2 1857   4.160   2.788   0.763 -0.2916  0.9984  0.4291
  451SOL    HW3 1858   4.089   2.657   0.789  1.0158  0.0590 -0.6270
  451SOL    MW4 1859   4.109   2.738   0.813  0.3219  0.0222  0.1081
  452SOL     OW 1860   4.404   0.737   0.330 -0.0883 -0.5052  0.1867
  452SOL    HW2 1861   4.491   0.769   0.309  0.2573 -0.3151  1.8833
  452SOL    HW3 1862   4.405   0.645   0.304  0.5479 -0.4445 -0.0036
  452SOL    MW4 1863   4.415   0.729   0.324  0.0410 -0.4722  0.3855
  453SOL     OW 1864   3.652   3.497   0.808 -0.0487 -0.0838 -0.1040
  453SOL    HW2 1865   3.653   3.411   0.765 -2.8338 -0.1798 -0.0911
  453SOL    HW3 1866   3.566   3.534   0.785  1.2343  2.8433 -0.3755
  453SOL    MW4 1867   3.640   3.491   0.799 -0.2470  0.2897 -0.1382
  454SOL     OW 1868   3.871   3.693   0.758  0.1719  0.2180 -0.4193
  454SOL    HW2 1869   3.945   3.638   0.780 -0.0003  1.1196  2.6816
  454SOL    HW3 1870   3.794   3.636   0.765  0.2951  0.0377 -0.5584
  454SOL    MW4 1871   3.870   3.679   0.762  0.1655  0.3130 -0.0285
  455SOL     OW 1872   3.841   3.941   0.849  1.1259  0.8126 -0.3743
  455SOL    HW2 1873   3.762   3.976   0.808 -0.4778  0.3142  2.1831
  455SOL    HW3 1874   3.850   3.852   0.815  0.2738  0.6930 -0.2907
  455SOL    MW4 1875   3.832   3.934   0.839  0.8018  0.7310 -0.0259
  456SOL     OW 1876   3.605   4.042   0.749  0.3146 -0.1758  0.5983
  456SOL    HW2 1877   3.585   4.033   0.656  3.3609  1.1023 -0.2590
  456SOL    HW3 1878   3.613   4.137   0.762 -1.2362 -0.2692  2.4575
  456SOL    MW4 1879   3.604   4.054   0.738  0.5119 -0.0196  0.7305
  457SOL     OW 1880   3.622   4.352   0.778  0.0861  0.0403 -0.0786
  457SOL    HW2 1881   3.670   4.425   0.816  1.1849 -0.1445 -1.0724
  457SOL    HW3 1882   3.531   4.381   0.776  0.2860  0.7636  0.9600
  457SOL    MW4 1883   3.617   4.365   0.783  0.2573  0.1106 -0.0727
  458SOL     OW 1884   3.954   4.441   0.528  0.1009  0.7489 -0.2103
  458SOL    HW2 1885   3.953   4.505   0.600  1.6394  2.1856 -1.4186
  458SOL    HW3 1886   3.862   4.416   0.518 -0.2077  0.8895  1.9239
  458SOL    MW4 1887   3.942   4.446   0.536  0.2632  0.9575 -0.0881
  459SOL     OW 1888   4.194   0.095   0.854  0.2673 -0.1545  0.2598
  459SOL    HW2 1889   4.207   0.056   0.941 -0.0871 -0.7430  0.0473
  459SOL    HW3 1890   4.155   0.180   0.872  0.7993  0.0018  0.7116
  459SOL    MW4 1891   4.191   0.101   0.868  0.2909 -0.2115  0.2915
  460SOL     OW 1892   3.982   4.646   0.709 -0.2489  0.1896  0.1342
  460SOL    HW2 1893   4.057   4.679   0.759 -1.0218  1.9909  0.1573
  460SOL    HW3 1894   3.978   4.703   0.632 -1.7342  0.2808  0.2620
  460SOL    MW4 1895   3.991   4.658   0.705 -0.5469  0.4392  0.1542
  461SOL     OW 1896   4.060   0.363   0.850 -0.0093 -0.1298 -0.2024
  461SOL    HW2 1897   3.971   0.393   0.829  0.2664  1.1403  0.4221
  461SOL    HW3 1898   4.117   0.431   0.815  0.6636 -0.2930  0.5745
  461SOL    MW4 1899   4.055   0.376   0.842  0.1163  0.0162 -0.0175
  462SOL     OW 1900   4.246   0.561   0.783 -0.4597  0.2359 -0.2613
  462SOL    HW2 1901   4.319   0.501   0.800 -1.5349 -0.7092  1.0835
  462SOL    HW3 1902   4.221   0.543   0.693 -0.9221 -1.5328  0.1973
  462SOL    MW4 1903   4.253   0.551   0.774 -0.6623 -0.1222 -0.0234
  463SOL     OW 1904   4.313   0.811   0.872  0.0976  0.5351 -0.1335
  463SOL    HW2 1905   4.231   0.859   0.862 -0.3499 -0.0676  0.5660
  463SOL    HW3 1906   4.293   0.723   0.842  0.3108  0.2164  0.6548
  463SOL    MW4 1907   4.300   0.806   0.867  0.0663  0.4135  0.0628
  464SOL     OW 1908   4.093   1.228   0.924  0.3539 -0.4531  0.5400
  464SOL    HW2 1909   4.065   1.207   1.013  0.7341 -1.6479  0.3907
  464SOL    HW3 1910   4.012   1.253   0.879  0.0096 -0.7855  0.9693
  464SOL    MW4 1911   4.079   1.229   0.930  0.3586 -0.6546  0.5770
  465SOL     OW 1912   4.307   1.325   0.771  0.4587  0.2561  0.0317
  465SOL    HW2 1913   4.241   1.315   0.838 -0.2820  3.3572 -0.1477
  465SOL    HW3 1914   4.265   1.297   0.690 -0.4552  1.5542  0.0368
  465SOL    MW4 1915   4.293   1.320   0.769  0.2403  0.8365  0.0087
  466SOL     OW 1916   0.015   1.012   0.847 -0.4738 -0.0787 -0.1088
  466SOL    HW2 1917   0.007   1.062   0.929 -1.4081  0.7540 -0.7013
  466SOL    HW3 1918  -0.057   0.949   0.851 -0.2108 -0.3799 -0.0646
  466SOL    MW4 1919   0.005   1.010   0.859 -0.5624 -0.0086 -0.1811
  467SOL     OW 1920   4.262   1.596   0.829  0.0771 -0.2375  0.4195
  467SOL    HW2 1921   4.268   1.594   0.924  0.3020 -1.7464  0.3935
  467SOL    HW3 1922   4.263   1.504   0.803 -1.0169  0.1150 -0.9784
  467SOL    MW4 1923   4.263   1.583   0.838 -0.0372 -0.3901  0.2316
  468SOL     OW 1924   4.020   1.705   0.742  0.0932 -0.2125 -0.0098
  468SOL    HW2 1925   4.100   1.668   0.778  0.9282  1.2193 -0.3618
  468SOL    HW3 1926   4.045   1.736   0.655 -0.5276  1.3634  0.3677
  468SOL    MW4 1927   4.034   1.704   0.735  0.1216  0.1843 -0.0064
  469SOL     OW 1928   4.015   1.968   0.856 -0.0403  0.1412 -0.6907
  469SOL    HW2 1929   4.087   2.014   0.813 -0.1241  0.8289 -0.0979
  469SOL    HW3 1930   4.011   1.884   0.811  0.8839  0.2443 -0.9897
  469SOL    MW4 1931   4.024   1.963   0.844  0.0710  0.2455 -0.6520
  470SOL     OW 1932   4.229   2.733   0.415 -0.0398 -0.3115  0.2090
  470SOL    HW2 1933   4.251   2.773   0.500 -1.3522 -1.2682  1.0309
  470SOL    HW3 1934   4.313   2.702   0.381  0.5044  0.0166  1.2060
  470SOL    MW4 1935   4.243   2.734   0.422 -0.1411 -0.3946  0.4490
  471SOL     OW 1936   4.238   2.325   0.794  0.2754  0.0160 -0.2216
  471SOL    HW2 1937   4.173   2.388   0.762  1.3519 -0.0017 -2.5224
  471SOL    HW3 1938   4.209   2.241   0.758  0.7479 -0.2386 -0.0084
  471SOL    MW4 1939   4.226   2.322   0.785  0.4797 -0.0200 -0.4970
  472SOL     OW 1940   4.037   2.502   0.711 -0.2554  0.7172 -0.1927
  472SOL    HW2 1941   3.956   2.453   0.727  1.0052 -0.7042  2.0729
  472SOL    HW3 1942   4.049   2.499   0.616 -1.9894 -0.4598 -0.3935
  472SOL    MW4 1943   4.028   2.495   0.701 -0.3176  0.3746  0.0798
  473SOL     OW 1944   3.869   2.892   0.762 -0.2345  0.2255  0.1189
  473SOL    HW2 1945   3.857   2.971   0.815 -0.7373  0.2317  0.0046
  473SOL    HW3 1946   3.937   2.843   0.807 -0.3727  0.4216  0.5484
  473SOL    MW4 1947   3.876   2.896   0.775 -0.3192  0.2520  0.1606
  474SOL     OW 1948   2.969   4.108   0.429 -0.1313  0.2912 -0.7167
  474SOL    HW2 1949   2.896   4.047   0.436  0.9960 -1.0400 -0.2231
  474SOL    HW3 1950   3.047   4.053   0.439  0.9000  1.9263  0.5958
  474SOL    MW4 1951   2.970   4.092   0.431  0.1533  0.3319 -0.4784
  475SOL     OW 1952   4.300   2.859   0.649  0.2619  0.0289 -0.4407
  475SOL    HW2 1953   4.370   2.811   0.693 -0.1521 -0.4019 -0.2621
  475SOL    HW3 1954   4.309   2.949   0.682  0.5172 -0.0990 -0.1598
  475SOL    MW4 1955   4.311   2.865   0.659  0.2413 -0.0446 -0.3801
  476SOL     OW 1956   4.074   3.240   0.759  0.0169  0.2238  0.3322
  476SOL    HW2 1957   4.057   3.246   0.665 -2.5997  0.0722  0.7713
  476SOL    HW3 1958   4.075   3.331   0.789 -0.7118  0.2070  0.4146
  476SOL    MW4 1959   4.072   3.253   0.750 -0.4244  0.2015  0.4010
  477SOL     OW 1960   4.069   3.501   0.843 -0.0505  0.1477 -0.4352
  477SOL    HW2 1961   4.052   3.513   0.936  1.3093 -0.7931 -0.0611
  477SOL    HW3 1962   4.151   3.547   0.827  1.2128 -2.0971 -0.5668
  477SOL    MW4 1963   4.078   3.509   0.853  0.2956 -0.2728 -0.4032
  478SOL     OW 1964   4.324   3.652   0.772 -0.2675 -0.5961  0.3068
  478SOL    HW2 1965   4.289   3.732   0.811 -1.0614 -1.0220  0.4772
  478SOL    HW3 1966   4.343   3.676   0.681  0.5107  0.0834  0.6490
  478SOL    MW4 1967   4.322   3.666   0.765 -0.2699 -0.5624  0.3746
  479SOL     OW 1968   4.246   3.890   0.876 -0.2447 -0.1352 -0.0358
  479SOL    HW2 1969   4.246   3.898   0.972 -1.0901 -1.4320  0.0864
  479SOL    HW3 1970   4.175   3.947   0.847  0.5540  0.9067  0.0457
  479SOL    MW4 1971   4.237   3.898   0.885 -0.2503 -0.1688 -0.0089
  480SOL     OW 1972   4.087   4.049   0.734  0.2574 -0.0432  0.1722
  480SOL    HW2 1973   4.004   4.019   0.770  0.1995 -0.4375 -0.2978
  480SOL    HW3 1974   4.096   4.003   0.651  0.8075  0.2158  0.0861
  480SOL    MW4 1975   4.078   4.039   0.728  0.3223 -0.0610  0.0989
  481SOL     OW 1976   4.057   4.324   0.785 -0.3087  0.1410 -0.2585
  481SOL    HW2 1977   4.021   4.373   0.711 -0.4805 -0.6628 -0.7183
  481SOL    HW3 1978   4.054   4.232   0.756 -0.7947 -0.2217  0.9090
  481SOL    MW4 1979   4.052   4.318   0.771 -0.3958 -0.0129 -0.1652
  482SOL     OW 1980   4.320   4.422   0.739  0.5361 -0.3180 -0.2218
  482SOL    HW2 1981   4.229   4.395   0.751 -0.0973  1.0000 -1.7631
  482SOL    HW3 1982   4.370   4.369   0.801 -1.3722 -0.4947  1.2155
  482SOL    MW4 1983   4.315   4.412   0.749  0.2007 -0.1674 -0.2355
  483SOL     OW 1984   0.219   4.653   1.155 -0.0289 -0.2273 -0.0830
  483SOL    HW2 1985   0.278   4.722   1.183  0.6333 -0.7055 -0.2728
  483SOL    HW3 1986   0.210   4.665   1.061 -1.2333  0.6000  0.1261
  483SOL    MW4 1987   0.226   4.663   1.146 -0.1004 -0.1813 -0.0806
  484SOL     OW 1988   4.440   0.112   1.204 -0.1288 -0.1460  0.5508
  484SOL    HW2 1989   4.364   0.058   1.187  0.1530 -0.5716  0.6310
  484SOL    HW3 1990   4.515   0.053   1.191  0.1510  0.0050  1.4443
  484SOL    MW4 1991   4.440   0.097   1.200 -0.0548 -0.1822  0.6793
  485SOL     OW 1992   4.438   0.363   1.104 -0.2318 -0.1196 -0.0341
  485SOL    HW2 1993   4.359   0.403   1.141  0.7699  1.0995  0.7962
  485SOL    HW3 1994   4.441   0.276   1.143 -0.8603  0.0277  0.3538
  485SOL    MW4 1995   4.428   0.356   1.114 -0.1826  0.0607  0.1265
  486SOL     OW 1996   0.207   0.490   1.210  0.4477 -0.4631  0.1871
  486SOL    HW2 1997   0.196   0.581   1.182  2.2710 -0.2032  0.2373
  486SOL    HW3 1998   0.131   0.445   1.174  0.9004  0.5518 -2.1519
  486SOL    MW4 1999   0.196   0.496   1.202  0.7480 -0.2949 -0.1148
  487SOL     OW 2000   0.193   0.758   1.097 -0.4153  0.1139  0.7212
  487SOL    HW2 2001   0.266   0.808   1.132 -0.7606  1.6506 -0.6891
  487SOL    HW3 2002   0.115   0.805   1.126 -0.8477 -1.1058  1.5997
  487SOL    MW4 2003   0.192   0.771   1.105 -0.5179  0.1557  0.6511
  488SOL     OW 2004   4.466   0.902   1.210  0.0200  0.3394  0.2663
  488SOL    HW2 2005   4.492   0.894   1.302  0.6168 -0.7986  0.0080
  488SOL    HW3 2006   4.386   0.850   1.203  0.5493 -0.4360 -0.0829
  488SOL    MW4 2007   4.459   0.894   1.221  0.1688  0.0870  0.1861
  489SOL     OW 2008   4.461   1.156   1.080  0.1692  0.0731 -0.1685
  489SOL    HW2 2009   4.400   1.221   1.115 -0.5552  0.0486 -1.3548
  489SOL    HW3 2010   4.453   1.081   1.139 -0.5765  0.2617 -0.0276
  489SOL    MW4 2011   4.452   1.154   1.093 -0.0248  0.0948 -0.3065
  490SOL     OW 2012   0.190   1.289   1.232 -0.6716  0.1523 -0.2675
  490SOL    HW2 2013   0.264   1.253   1.183 -0.1138  0.5557  0.2668
  490SOL    HW3 2014   0.114   1.241   1.199 -0.0249 -1.0831 -0.0130
  490SOL    MW4 2015   0.190   1.278   1.221 -0.5127  0.0424 -0.1634
  491SOL     OW 2016   0.229   1.540   1.124  0.5099 -0.1884 -0.3185
  491SOL    HW2 2017   0.211   1.458   1.172  2.4629 -0.6506 -0.3427
  491SOL    HW3 2018   0.236   1.513   1.033  0.4198  0.1334 -0.4202
  491SOL    MW4 2019   0.228   1.525   1.118  0.7557 -0.2069 -0.3350
  492SOL     OW 2020   0.016   1.686   1.196 -0.0481 -0.2273  0.1079
  492SOL    HW2 2021   0.017   1.775   1.161  1.4222  1.0882  3.3166
  492SOL    HW3 2022   0.103   1.651   1.176  0.4723  0.2030  1.5260
  492SOL    MW4 2023   0.027   1.693   1.189  0.2151  0.0030  0.7184
  493SOL     OW 2024   4.457   1.920   1.068 -0.3027 -0.1221 -0.1313
  493SOL    HW2 2025   4.386   1.963   1.116  0.3200  1.5856 -0.7266
  493SOL    HW3 2026   4.447   1.950   0.978  0.2306 -1.1195 -0.5325
  493SOL    MW4 2027   4.446   1.929   1.062 -0.1502 -0.0284 -0.2629
  494SOL     OW 2028   0.179   2.043   1.221 -0.0471  0.2982 -0.2534
  494SOL    HW2 2029   0.184   2.135   1.193 -2.9685  1.4506  2.6770
  494SOL    HW3 2030   0.112   2.004   1.165 -1.0297  0.8170  0.5366
  494SOL    MW4 2031   0.171   2.050   1.210 -0.5622  0.5186  0.2375
  495SOL     OW 2032   0.235   2.304   1.153  0.1460 -0.0149 -0.0453
  495SOL    HW2 2033   0.305   2.352   1.196  1.3879 -0.8714 -1.0504
  495SOL    HW3 2034   0.154   2.346   1.184  1.1392  1.9728 -0.0249
  495SOL    MW4 2035   0.233   2.316   1.162  0.4409  0.1345 -0.1751
  496SOL     OW 2036   0.001   2.442   1.174 -0.7885  0.2083  0.3754
  496SOL    HW2 2037  -0.009   2.460   1.267 -1.9493 -2.9035  0.9072
  496SOL    HW3 2038  -0.081   2.400   1.148 -0.8913  1.9151 -2.3277
  496SOL    MW4 2039  -0.011   2.439   1.183 -0.9556  0.0229  0.0890
  497SOL     OW 2040   0.046   2.695   1.065 -0.4441  0.0721 -0.0486
  497SOL    HW2 2041  -0.023   2.739   1.115 -0.4473  0.3931 -0.3326
  497SOL    HW3 2042   0.034   2.602   1.085 -0.5109  0.1883  0.4648
  497SOL    MW4 2043   0.035   2.688   1.074 -0.4533  0.1295 -0.0184
  498SOL     OW 2044   0.239   2.865   1.199  0.3204  0.2044 -0.5103
  498SOL    HW2 2045   0.227   2.865   1.294 -0.8873  0.8403 -0.6562
  498SOL    HW3 2046   0.170   2.807   1.166 -0.5766  1.6187 -1.1496
  498SOL    MW4 2047   0.228   2.857   1.207  0.0427  0.4752 -0.6137
  499SOL     OW 2048   0.199   3.084   1.067  0.2139  0.3777 -0.0657
  499SOL    HW2 2049   0.274   3.137   1.094  0.2407  1.1013 -1.4727
  499SOL    HW3 2050   0.206   3.004   1.119  0.7103  1.3631  1.3945
  499SOL    MW4 2051   0.210   3.080   1.077  0.2829  0.6030 -0.0589
  500SOL     OW 2052   0.007   3.205   1.223 -0.2217  0.1154 -0.2772
  500SOL    HW2 2053  -0.069   3.160   1.187  0.3033 -1.8749  1.0051
  500SOL    HW3 2054   0.081   3.169   1.175  0.2543 -0.8265  1.1339
  500SOL    MW4 2055   0.007   3.195   1.212 -0.0897 -0.2718  0.0782
  501SOL     OW 2056   0.014   3.497   1.205  0.7523  0.0922 -0.1700
  501SOL    HW2 2057   0.026   3.405   1.227  1.2937  0.3723  0.7210
  501SOL    HW3 2058   0.023   3.500   1.110  1.8037 -0.6074 -0.0983
  501SOL    MW4 2059   0.017   3.485   1.195  0.9627  0.0370 -0.0430
  502SOL     OW 2060   0.263   3.635   1.246 -0.2704 -0.0654 -0.0802
  502SOL    HW2 2061   0.282   3.642   1.339 -0.8159  0.5189 -0.0016
  502SOL    HW3 2062   0.172   3.606   1.243 -0.1022 -0.5492 -0.4295
  502SOL    MW4 2063   0.253   3.632   1.258 -0.3202 -0.0517 -0.1159
  503SOL     OW 2064   0.230   3.875   1.113  0.3675  0.3614 -0.2366
  503SOL    HW2 2065   0.148   3.911   1.146  1.2480  1.8901  0.3654
  503SOL    HW3 2066   0.241   3.792   1.160 -1.2991 -0.3184 -1.0329
  503SOL    MW4 2067   0.221   3.869   1.124  0.2638  0.4733 -0.2621
  504SOL     OW 2068   0.003   3.990   1.273 -0.2267  0.1794 -0.0247
  504SOL    HW2 2069  -0.012   3.997   1.367 -0.1108 -1.7160  0.1515
  504SOL    HW3 2070  -0.078   3.955   1.237 -0.1338  0.5178 -0.5752
  504SOL    MW4 2071  -0.009   3.986   1.280 -0.1988 -0.0262 -0.0740
  505SOL     OW 2072   4.431   4.246   1.169  0.2020  0.2334 -0.4084
  505SOL    HW2 2073   4.514   4.294   1.171  0.1514  0.2754  1.1727
  505SOL    HW3 2074   4.453   4.160   1.205 -0.3175  0.0186 -0.5999
  505SOL    MW4 2075   4.445   4.241   1.174  0.1264  0.2103 -0.2251
  506SOL     OW 2076   0.201   4.381   1.175 -0.0324 -0.3303  0.3354
  506SOL    HW2 2077   0.190   4.388   1.270  0.7200  1.7845  0.2832
  506SOL    HW3 2078   0.219   4.470   1.146 -0.5097 -0.9235 -1.8427
  506SOL    MW4 2079   0.202   4.393   1.184  0.0039 -0.1292  0.0412
  507SOL     OW 2080   0.594   0.015   1.129 -0.5492 -0.1677  1.0796
  507SOL    HW2 2081   0.676   0.056   1.159  0.0862 -0.5597 -0.0790
  507SOL    HW3 2082   0.598  -0.075   1.164 -0.6456 -0.0834  1.3071
  507SOL    MW4 2083   0.606   0.008   1.138 -0.4780 -0.2079  0.9567
  508SOL     OW 2084   0.405   0.176   1.250  0.2260  0.2243 -0.0660
  508SOL    HW2 2085   0.418   0.268   1.228  1.9236  0.4151  1.5519
  508SOL    HW3 2086   0.472   0.130   1.200 -0.5617 -0.1225 -0.8002
  508SOL    MW4 2087   0.415   0.182   1.241  0.3461  0.2037  0.0503
  509SOL     OW 2088   0.448   0.415   1.125 -0.5417 -0.1160 -0.0400
  509SOL    HW2 2089   0.361   0.446   1.150 -0.4675 -0.1995  0.3162
  509SOL    HW3 2090   0.441   0.398   1.031 -0.4032  1.5573 -0.3604
  509SOL    MW4 2091   0.435   0.417   1.116 -0.5136  0.0938 -0.0353
  510SOL     OW 2092   0.669   0.547   1.214  0.1034 -0.5014  0.8504
  510SOL    HW2 2093   0.670   0.636   1.177 -0.4611 -0.9218 -0.1677
  510SOL    HW3 2094   0.595   0.504   1.172  1.5252 -2.0758 -0.1247
  510SOL    MW4 2095   0.660   0.553   1.203  0.2165 -0.7646  0.5873
  511SOL     OW 2096   0.636   0.805   1.114  0.2660  0.4760 -0.0254
  511SOL    HW2 2097   0.554   0.833   1.155 -0.1348 -1.7507  0.7878
  511SOL    HW3 2098   0.622   0.818   1.021 -0.4926  1.4017  0.2106
  511SOL    MW4 2099   0.623   0.810   1.107  0.1130  0.3044  0.1130
  512SOL     OW 2100   0.394   0.918   1.237  0.5718  0.1684  0.4597
  512SOL    HW2 2101   0.411   0.929   1.331  2.7697  1.2472 -0.0168
  512SOL    HW3 2102   0.405   1.006   1.201  2.0234 -0.6335 -1.1239
  512SOL    MW4 2103   0.398   0.931   1.245  1.0533  0.2049  0.1879
  513SOL     OW 2104   0.417   1.173   1.094 -0.3333 -0.3282  0.2582
  513SOL    HW2 2105   0.503   1.202   1.122 -0.4511 -0.4363  0.7331
  513SOL    HW3 2106   0.416   1.189   0.999 -0.5649  1.6733  0.5753
  513SOL    MW4 2107   0.428   1.179   1.085 -0.3794 -0.0784  0.3626
  514SOL     OW 2108   0.667   1.270   1.203 -0.3424  0.3954  0.0554
  514SOL    HW2 2109   0.732   1.224   1.150 -1.4743 -1.2687  0.0835
  514SOL    HW3 2110   0.670   1.360   1.171  0.0441 -0.2614 -1.7953
  514SOL    MW4 2111   0.676   1.276   1.192 -0.4407  0.0892 -0.1851
  515SOL     OW 2112   0.683   1.534   1.052 -0.3286 -0.4156  0.0209
  515SOL    HW2 2113   0.769   1.564   1.082 -0.1220 -0.6469 -0.3403
  515SOL    HW3 2114   0.621   1.577   1.111  0.1493 -2.0720  1.7657
  515SOL    MW4 2115   0.687   1.544   1.064 -0.2382 -0.6646  0.2035
  516SOL     OW 2116   0.466   1.641   1.214  0.6356  0.1603  0.3743
  516SOL    HW2 2117   0.456   1.646   1.309 -0.4775  0.3793  0.2570
  516SOL    HW3 2118   0.383   1.605   1.183  0.3550  1.5942 -0.6446
  516SOL    MW4 2119   0.453   1.637   1.222  0.4517  0.3783  0.2244
  517SOL     OW 2120   0.413   1.918   1.134  0.0104 -0.6551 -0.5236
  517SOL    HW2 2121   0.439   1.843   1.188  0.9663  0.3325  0.4374
  517SOL    HW3 2122   0.332   1.949   1.174  0.3285 -0.3697 -0.0915
  517SOL    MW4 2123   0.406   1.912   1.146  0.1785 -0.4872 -0.3397
  518SOL     OW 2124   0.632   2.057   1.209  0.1370 -0.4672 -0.0204
  518SOL    HW2 2125   0.628   2.037   1.303 -1.0267 -0.6172 -0.0927
  518SOL    HW3 2126   0.563   2.003   1.171  1.1306 -1.0139 -1.0763
  518SOL    MW4 2127   0.623   2.047   1.217  0.1146 -0.5591 -0.1690
  519SOL     OW 2128   0.628   2.308   1.120  0.0702 -0.1160  0.1682
  519SOL    HW2 2129   0.558   2.355   1.166  0.0465  1.6370 -1.5918
  519SOL    HW3 2130   0.629   2.221   1.160 -1.1088  0.7948  2.2544
  519SOL    MW4 2131   0.619   2.302   1.131 -0.0885  0.2353  0.2112
  520SOL     OW 2132   0.446   2.454   1.268  0.1443  0.0804  0.1492
  520SOL    HW2 2133   0.463   2.451   1.362 -2.7421 -0.2214  0.7015
  520SOL    HW3 2134   0.452   2.547   1.246  1.3521  0.0940  0.5089
  520SOL    MW4 2135   0.449   2.466   1.277 -0.0771  0.0422  0.2694
  521SOL     OW 2136   0.465   2.698   1.136 -0.1841  0.4382  0.0380
  521SOL    HW2 2137   0.391   2.755   1.157 -2.2187 -2.2606  0.4240
  521SOL    HW3 2138   0.450   2.672   1.045 -0.0584 -0.6494  0.3301
  521SOL    MW4 2139   0.453   2.702   1.127 -0.4359 -0.0615  0.1276
  522SOL     OW 2140   0.734   2.817   1.172  0.4880 -0.0771 -0.5958
  522SOL    HW2 2141   0.729   2.911   1.152 -0.1613 -0.3288 -1.6420
  522SOL    HW3 2142   0.646   2.784   1.154  0.7822 -0.9312 -0.4789
  522SOL    MW4 2143   0.721   2.825   1.167  0.4412 -0.2229 -0.7185
  523SOL     OW 2144   0.674   3.097   1.128 -0.0863  0.1631  0.1372
  523SOL    HW2 2145   0.753   3.139   1.163  0.7106 -0.6606 -0.6726
  523SOL    HW3 2146   0.690   3.089   1.034  0.0809 -2.5485  0.3471
  523SOL    MW4 2147   0.687   3.101   1.121  0.0408 -0.3033  0.0581
  524SOL     OW 2148   0.428   3.205   1.166 -0.0051  0.2258 -0.5737
  524SOL    HW2 2149   0.443   3.299   1.158  0.2894  0.2193 -0.0772
  524SOL    HW3 2150   0.511   3.165   1.140 -0.1334  0.0977 -0.7964
  524SOL    MW4 2151   0.441   3.212   1.161  0.0168  0.2081 -0.5376
  525SOL     OW 2152   0.457   3.481   1.146 -0.1197  0.2665  0.0975
  525SOL    HW2 2153   0.539   3.526   1.167  0.8764 -0.7191 -1.6233
  525SOL    HW3 2154   0.389   3.539   1.181  1.2425  1.8019  0.2755
  525SOL    MW4 2155   0.459   3.495   1.154  0.1915  0.3393 -0.1061
  526SOL     OW 2156   0.711   3.601   1.230 -0.1377 -0.0925  0.4965
  526SOL    HW2 2157   0.706   3.600   1.326 -1.9464 -0.7780  0.4138
  526SOL    HW3 2158   0.688   3.691   1.206  0.4809  0.1254  0.6972
  526SOL    MW4 2159   0.707   3.613   1.240 -0.2947 -0.1543  0.5121
  527SOL     OW 2160   0.656   3.870   1.129 -0.6577  0.1400  0.3138
  527SOL    HW2 2161   0.574   3.908   1.162 -0.4982  0.9531 -0.2399
  527SOL    HW3 2162   0.642   3.860   1.035 -0.4742 -0.6288  0.3611
  527SOL    MW4 2163   0.643   3.874   1.121 -0.6125  0.1457  0.2470
  528SOL     OW 2164   0.439   3.995   1.250  0.2125 -0.0040  0.5556
  528SOL    HW2 2165   0.429   4.086   1.220  0.4565  0.0223  0.5575
  528SOL    HW3 2166   0.357   3.953   1.225  0.8998 -0.2921 -1.2579
  528SOL    MW4 2167   0.426   4.001   1.243  0.3354 -0.0381  0.3166
  529SOL     OW 2168   0.425   4.239   1.132  0.2542 -0.2692 -0.2272
  529SOL    HW2 2169   0.494   4.304   1.150  0.6427 -0.6073 -0.4747
  529SOL    HW3 2170   0.343   4.285   1.150  0.5159  0.3869 -0.7020
  529SOL    MW4 2171   0.424   4.254   1.137  0.3400 -0.2275 -0.3225
  530SOL     OW 2172   0.627   4.391   1.197  0.0305  0.4338  0.0800
  530SOL    HW2 2173   0.641   4.390   1.292 -0.1202  0.3728  0.1018
  530SOL    HW3 2174   0.709   4.361   1.160  0.8762  2.6054  0.0981
  530SOL    MW4 2175   0.639   4.387   1.205  0.1222  0.7119  0.0851
  531SOL     OW 2176   1.075   0.002   1.090 -0.0495  0.0538  0.4525
  531SOL    HW2 2177   1.085  -0.092   1.102 -0.3014 -0.0109  0.1601
  531SOL    HW3 2178   1.059   0.013   0.996  0.1344  0.4007  0.4627
  531SOL    MW4 2179   1.074  -0.009   1.079 -0.0584  0.0911  0.4152
  532SOL     OW 2180   0.848   0.114   1.192  0.2735  0.1433 -0.1576
  532SOL    HW2 2181   0.845   0.117   1.288  0.6912  2.7294 -0.1891
  532SOL    HW3 2182   0.925   0.061   1.172  0.1563 -0.4519  0.9350
  532SOL    MW4 2183   0.858   0.107   1.202  0.3131  0.4060 -0.0175
  533SOL     OW 2184   0.874   0.378   1.120 -0.7401 -0.1490 -0.2845
  533SOL    HW2 2185   0.868   0.287   1.148 -0.4269  0.1275  0.7043
  533SOL    HW3 2186   0.798   0.420   1.160 -0.3455  0.2254  0.0814
  533SOL    MW4 2187   0.863   0.372   1.129 -0.6468 -0.0632 -0.1057
  534SOL     OW 2188   1.106   0.510   1.180  0.4654  0.2126 -0.0155
  534SOL    HW2 2189   1.114   0.502   1.275 -0.5274  0.3930  0.0941
  534SOL    HW3 2190   1.031   0.455   1.158  0.7491  0.1053 -0.7047
  534SOL    MW4 2191   1.097   0.502   1.190  0.3718  0.2223 -0.0919
  535SOL     OW 2192   1.095   0.786   1.153  0.1151 -0.1865  0.3664
  535SOL    HW2 2193   1.015   0.827   1.188  0.0272 -0.9680  1.1155
  535SOL    HW3 2194   1.088   0.694   1.181  1.1158 -0.3302  0.1486
  535SOL    MW4 2195   1.083   0.779   1.161  0.2354 -0.3086  0.4364
  536SOL     OW 2196   0.862   0.905   1.240  0.4749 -0.2559  0.1011
  536SOL    HW2 2197   0.879   0.981   1.185  0.3146  0.0944  0.5318
  536SOL    HW3 2198   0.779   0.870   1.207 -0.9758  1.4838  1.7796
  536SOL    MW4 2199   0.853   0.910   1.229  0.2624  0.0199  0.3793
  537SOL     OW 2200   0.888   1.136   1.085  0.2259 -0.6634  0.0572
  537SOL    HW2 2201   0.972   1.178   1.105  0.0259  0.0968 -0.6455
  537SOL    HW3 2202   0.881   1.143   0.989 -1.1342  0.2452  0.2040
  537SOL    MW4 2203   0.898   1.143   1.075  0.0200 -0.4432 -0.0162
  538SOL     OW 2204   1.120   1.277   1.170  0.3371  0.2861  0.0672
  538SOL    HW2 2205   1.117   1.292   1.264 -0.7146  0.6638 -0.0179
  538SOL    HW3 2206   1.202   1.229   1.155 -0.6692 -1.9362  1.4768
  538SOL    MW4 2207   1.131   1.273   1.180  0.0656  0.0427  0.2419
  539SOL     OW 2208   1.188   1.529   1.062  0.0023  0.3107 -0.7321
  539SOL    HW2 2209   1.167   1.440   1.090  2.0694 -0.0228 -0.1143
  539SOL    HW3 2210   1.175   1.528   0.967 -1.4259 -0.2156 -0.5364
  539SOL    MW4 2211   1.184   1.517   1.053  0.0865  0.1972 -0.6249
  540SOL     OW 2212   0.919   1.633   1.152  0.4630 -0.1512  0.6836
  540SOL    HW2 2213   0.900   1.725   1.137  0.7296 -0.0179  1.1583
  540SOL    HW3 2214   1.007   1.620   1.116  0.0920 -0.4110 -0.1286
  540SOL    MW4 2215   0.928   1.643   1.146  0.4492 -0.1677  0.6391
  541SOL     OW 2216   0.884   1.916   1.147  0.5070  0.2817 -0.4661
  541SOL    HW2 2217   0.966   1.948   1.185  0.0471  1.1371 -0.1917
  541SOL    HW3 2218   0.817   1.975   1.181 -0.3504 -0.9798  0.0733
  541SOL    MW4 2219   0.886   1.928   1.157  0.3331  0.2282 -0.3587
  542SOL     OW 2220   1.091   2.038   1.280 -0.4005  0.1594 -0.8238
  542SOL    HW2 2221   1.103   2.045   1.375 -0.9291 -1.6520 -0.6016
  542SOL    HW3 2222   1.109   2.126   1.247  1.7405  0.3474  0.7393
  542SOL    MW4 2223   1.095   2.051   1.288 -0.1878 -0.0546 -0.5883
  543SOL     OW 2224   1.133   2.291   1.144 -0.0254 -0.1021  0.7969
  543SOL    HW2 2225   1.200   2.352   1.174  0.7048 -1.0150  1.0399
  543SOL    HW3 2226   1.050   2.337   1.161  0.5218  0.9544  0.6582
  543SOL    MW4 2227   1.131   2.305   1.150  0.1433 -0.0830  0.8106
  544SOL     OW 2228   0.885   2.399   1.197 -0.3437 -0.0205 -0.2398
  544SOL    HW2 2229   0.872   2.403   1.292  0.3810 -1.0760 -0.0981
  544SOL    HW3 2230   0.801   2.370   1.163 -0.4604 -0.1100  0.1199
  544SOL    MW4 2231   0.872   2.396   1.205 -0.2635 -0.1714 -0.1737
  545SOL     OW 2232   0.953   2.646   1.092  0.3650 -0.0572  0.0120
  545SOL    HW2 2233   0.934   2.554   1.110  0.0301  0.3006  1.5183
  545SOL    HW3 2234   0.880   2.694   1.131  2.3820  1.0820  2.5308
  545SOL    MW4 2235   0.941   2.640   1.100  0.5869  0.1404  0.5431
  546SOL     OW 2236   1.096   2.841   1.217  0.4328 -0.0858 -0.0838
  546SOL    HW2 2237   1.101   2.821   1.310  0.3512 -1.2525 -0.3225
  546SOL    HW3 2238   1.048   2.767   1.179  1.3061 -0.0911 -1.1992
  546SOL    MW4 2239   1.090   2.829   1.224  0.5374 -0.2403 -0.2625
  547SOL     OW 2240   1.143   3.073   1.103 -0.1267 -0.0256  0.0226
  547SOL    HW2 2241   1.122   2.986   1.137  0.8033 -0.2725 -0.0151
  547SOL    HW3 2242   1.140   3.064   1.008 -0.6844  0.1548  0.0186
  547SOL    MW4 2243   1.140   3.061   1.095 -0.0775 -0.0346  0.0169
  548SOL     OW 2244   0.923   3.203   1.184 -0.4550  0.2766 -0.6444
  548SOL    HW2 2245   0.935   3.294   1.157  1.3029  0.5074  0.7911
  548SOL    HW3 2246   1.003   3.159   1.155 -0.5848 -0.4495  0.0792
  548SOL    MW4 2247   0.935   3.209   1.177 -0.2401  0.2115 -0.3595
  549SOL     OW 2248   0.950   3.483   1.107 -0.2912 -0.1038 -0.0850
  549SOL    HW2 2249   0.862   3.512   1.131 -0.2987 -0.5603  0.4534
  549SOL    HW3 2250   0.948   3.479   1.011 -0.7939  0.0835 -0.0850
  549SOL    MW4 2251   0.938   3.486   1.098 -0.3585 -0.1390 -0.0139
  550SOL     OW 2252   1.170   3.610   1.202 -0.3665 -0.0763 -0.0159
  550SOL    HW2 2253   1.241   3.576   1.148 -0.1011 -1.2466  1.0411
  550SOL    HW3 2254   1.096   3.554   1.183 -0.6862  0.4196 -0.2450
  550SOL    MW4 2255   1.170   3.598   1.193 -0.3737 -0.1652  0.0933
  551SOL     OW 2256   1.111   3.849   1.079 -0.0957  0.3224  0.3932
  551SOL    HW2 2257   1.042   3.899   1.123  0.1617  0.1780  0.9710
  551SOL    HW3 2258   1.117   3.768   1.129  0.5928  0.3950  0.4359
  551SOL    MW4 2259   1.103   3.845   1.091  0.0291  0.3128  0.4750
  552SOL     OW 2260   0.906   3.987   1.204 -0.4141  0.1287 -0.4179
  552SOL    HW2 2261   0.899   3.995   1.300  0.7590 -1.0107 -0.2328
  552SOL    HW3 2262   0.825   3.944   1.178 -0.1404 -0.7721  0.2135
  552SOL    MW4 2263   0.894   3.983   1.214 -0.2232 -0.1400 -0.3103
  553SOL     OW 2264   0.884   4.255   1.117  0.2091 -0.2825  0.2456
  553SOL    HW2 2265   0.889   4.177   1.171  1.4775 -0.8641 -0.6939
  553SOL    HW3 2266   0.897   4.223   1.027 -2.9563  0.4976 -0.5547
  553SOL    MW4 2267   0.886   4.241   1.112 -0.0412 -0.2565  0.0161
  554SOL     OW 2268   1.120   4.400   1.156  0.1470  0.0466 -0.0408
  554SOL    HW2 2269   1.155   4.397   1.245  0.7229  1.8786 -0.1893
  554SOL    HW3 2270   1.035   4.358   1.162 -0.0629  0.6609  1.4936
  554SOL    MW4 2271   1.113   4.394   1.169  0.1951  0.3695  0.1420
  555SOL     OW 2272   1.572   4.652   1.069 -0.0543 -0.0333  0.1231
  555SOL    HW2 2273   1.635   4.695   1.127 -0.3711  1.9952 -1.0062
  555SOL    HW3 2274   1.578   4.560   1.093  3.2931  0.1063  0.1140
  555SOL    MW4 2275   1.581   4.646   1.080  0.3455  0.2532 -0.0271
  556SOL     OW 2276   1.328   0.135   1.160 -0.3179  0.1294  0.1809
  556SOL    HW2 2277   1.402   0.081   1.132 -0.2270  0.1687  0.3459
  556SOL    HW3 2278   1.251   0.085   1.134 -0.2379  0.3240 -0.4509
  556SOL    MW4 2279   1.328   0.121   1.153 -0.2953  0.1603  0.1192
  557SOL     OW 2280   1.336   0.396   1.079  0.2067 -0.0147 -0.0087
  557SOL    HW2 2281   1.329   0.303   1.100  0.5117  0.0050  0.1834
  557SOL    HW3 2282   1.249   0.432   1.099 -0.9322 -0.8517 -3.1471
  557SOL    MW4 2283   1.324   0.389   1.085  0.0964 -0.1225 -0.3973
  558SOL     OW 2284   1.561   0.515   1.232 -0.1415  0.1977 -0.1213
  558SOL    HW2 2285   1.564   0.607   1.203 -1.2311 -0.1833 -1.4961
  558SOL    HW3 2286   1.485   0.478   1.187 -1.3150 -0.7144  2.4882
  558SOL    MW4 2287   1.551   0.522   1.222 -0.4401  0.0271  0.0415
  559SOL     OW 2288   1.570   0.806   1.106 -0.3934  0.3300 -0.0529
  559SOL    HW2 2289   1.647   0.849   1.143 -1.2926  1.6496  0.3053
  559SOL    HW3 2290   1.595   0.785   1.016  0.7570 -0.2175  0.3942
  559SOL    MW4 2291   1.583   0.809   1.099 -0.3603  0.4319  0.0534
  560SOL     OW 2292   1.340   0.896   1.213 -0.2237  0.1729  0.5687
  560SOL    HW2 2293   1.412   0.854   1.167 -0.2990  1.0681 -0.3855
  560SOL    HW3 2294   1.263   0.845   1.189 -0.1951  0.3783  0.0203
  560SOL    MW4 2295   1.339   0.884   1.204 -0.2301  0.3181  0.3704
  561SOL     OW 2296   1.382   1.159   1.121  0.4648 -0.2009  0.0636
  561SOL    HW2 2297   1.358   1.069   1.144  2.2774 -1.0464 -1.1981
  561SOL    HW3 2298   1.354   1.168   1.030  0.2925  0.5346  0.1854
  561SOL    MW4 2299   1.375   1.148   1.112  0.6812 -0.2155 -0.0869
  562SOL     OW 2300   1.621   1.270   1.223 -0.1416 -0.2905  0.4312
  562SOL    HW2 2301   1.691   1.237   1.167 -0.2494  1.7343 -0.9046
  562SOL    HW3 2302   1.540   1.241   1.180 -0.2000  0.2725  0.1640
  562SOL    MW4 2303   1.619   1.262   1.210 -0.1636  0.0509  0.2197
  563SOL     OW 2304   1.588   1.548   1.180 -0.5502  0.0492 -0.3107
  563SOL    HW2 2305   1.669   1.595   1.203 -0.1644  0.0545 -1.6522
  563SOL    HW3 2306   1.610   1.456   1.191 -0.5797  0.0782  0.0024
  563SOL    MW4 2307   1.602   1.542   1.185 -0.5032  0.0536 -0.4466
  564SOL     OW 2308   1.349   1.690   1.207 -0.2370 -0.3064  0.1191
  564SOL    HW2 2309   1.434   1.652   1.188 -0.6607 -1.0937 -0.2032
  564SOL    HW3 2310   1.287   1.636   1.159 -0.6915  1.8763 -1.8508
  564SOL    MW4 2311   1.352   1.678   1.198 -0.3529 -0.1223 -0.1833
  565SOL     OW 2312   1.317   1.952   1.164  0.3815 -0.0104  0.0547
  565SOL    HW2 2313   1.332   1.862   1.191 -0.1200 -0.6288 -1.6392
  565SOL    HW3 2314   1.243   1.981   1.216 -0.2887 -1.0235 -0.3204
  565SOL    MW4 2315   1.309   1.944   1.174  0.2269 -0.2258 -0.2183
  566SOL     OW 2316   1.571   2.068   1.185 -0.5045 -0.0894  0.6937
  566SOL    HW2 2317   1.561   2.161   1.165 -1.1153 -0.1166  0.8836
  566SOL    HW3 2318   1.483   2.032   1.178 -0.4127 -0.4780  1.5460
  566SOL    MW4 2319   1.558   2.076   1.181 -0.5729 -0.1442  0.8311
  567SOL     OW 2320   1.549   2.324   1.097  0.2184 -0.0866  0.0405
  567SOL    HW2 2321   1.469   2.370   1.122  0.1347 -0.6524  0.8342
  567SOL    HW3 2322   1.550   2.328   1.001 -0.2278  0.8173  0.0722
  567SOL    MW4 2323   1.538   2.330   1.087  0.1484 -0.0417  0.1494
  568SOL     OW 2324   1.343   2.463   1.193  0.1296  0.4396  0.4729
  568SOL    HW2 2325   1.340   2.473   1.288 -1.2769  0.6729  0.4181
  568SOL    HW3 2326   1.329   2.551   1.159  0.0967  0.2730  0.0500
  568SOL    MW4 2327   1.341   2.476   1.201 -0.0603  0.4487  0.4100
  569SOL     OW 2328   1.350   2.729   1.097  0.0338 -0.2905 -0.2460
  569SOL    HW2 2329   1.432   2.766   1.129 -0.5402  0.0820  0.8145
  569SOL    HW3 2330   1.282   2.778   1.142 -0.7980 -0.1090 -1.6697
  569SOL    MW4 2331   1.352   2.740   1.107 -0.1518 -0.2177 -0.2939
  570SOL     OW 2332   1.573   2.848   1.232  0.1305 -0.0487  0.2501
  570SOL    HW2 2333   1.645   2.798   1.192  1.9307  0.7389  2.4327
  570SOL    HW3 2334   1.581   2.935   1.195 -0.0281 -0.0915  0.1133
  570SOL    MW4 2335   1.583   2.853   1.221  0.3473  0.0496  0.5199
  571SOL     OW 2336   1.576   3.114   1.125 -0.3430 -0.1737  0.2091
  571SOL    HW2 2337   1.642   3.170   1.165 -0.1612 -0.2819  0.0621
  571SOL    HW3 2338   1.494   3.141   1.166 -0.0725 -0.7346  1.1497
  571SOL    MW4 2339   1.574   3.125   1.136 -0.2834 -0.2620  0.3138
  572SOL     OW 2340   1.350   3.230   1.211 -0.0067  0.9381  0.3052
  572SOL    HW2 2341   1.351   3.236   1.306 -0.7458  1.7973  0.2643
  572SOL    HW3 2342   1.272   3.178   1.191  0.1771  0.7114  0.1656
  572SOL    MW4 2343   1.340   3.224   1.221 -0.0799  1.0214  0.2813
  573SOL     OW 2344   1.378   3.474   1.081 -0.3502  0.3119  0.1200
  573SOL    HW2 2345   1.364   3.388   1.120  0.0929  0.6771  1.0989
  573SOL    HW3 2346   1.358   3.462   0.988  0.4530 -1.0365  0.1039
  573SOL    MW4 2347   1.374   3.461   1.074 -0.1857  0.1824  0.2470
  574SOL     OW 2348   1.610   3.599   1.209  0.2351 -0.4493 -0.5662
  574SOL    HW2 2349   1.601   3.692   1.187 -0.1679 -0.5533 -0.8571
  574SOL    HW3 2350   1.530   3.559   1.175  1.0163 -1.1291 -1.6244
  574SOL    MW4 2351   1.598   3.606   1.202  0.2850 -0.5527 -0.7443
  575SOL     OW 2352   1.587   3.876   1.075 -0.2968 -0.3403  0.6279
  575SOL    HW2 2353   1.505   3.917   1.103  0.9803  1.4964  1.8757
  575SOL    HW3 2354   1.582   3.873   0.980 -0.6395  2.4293  0.5118
  575SOL    MW4 2355   1.576   3.881   1.066 -0.1733  0.2673  0.7772
  576SOL     OW 2356   1.342   3.983   1.184  0.0566  0.0686 -0.1942
  576SOL    HW2 2357   1.328   4.065   1.136 -1.3854  0.9326  1.6354
  576SOL    HW3 2358   1.268   3.928   1.159 -0.1744  0.1642  0.2656
  576SOL    MW4 2359   1.330   3.987   1.175 -0.1640  0.1953  0.1079
  577SOL     OW 2360   1.311   4.236   1.025 -0.2787 -0.2484  0.4556
  577SOL    HW2 2361   1.252   4.307   1.050 -0.7123 -0.7405  0.8748
  577SOL    HW3 2362   1.306   4.231   0.930 -1.2088 -0.5241  0.5145
  577SOL    MW4 2363   1.303   4.244   1.016 -0.4586 -0.3500  0.5187
  578SOL     OW 2364   1.562   4.362   1.130 -0.5215 -0.7588  0.0787
  578SOL    HW2 2365   1.555   4.352   1.225 -1.3401 -1.1144 -0.0172
  578SOL    HW3 2366   1.489   4.311   1.095 -0.6303 -0.0648 -0.7103
  578SOL    MW4 2367   1.551   4.354   1.138 -0.6438 -0.7143 -0.0380
  579SOL     OW 2368   1.993   0.011   1.101 -0.5460 -0.0240 -0.0903
  579SOL    HW2 2369   1.999  -0.083   1.112 -2.2379 -0.3138 -1.4131
  579SOL    HW3 2370   1.983   0.024   1.007 -0.4400  1.4601  0.0807
  579SOL    MW4 2371   1.992   0.001   1.090 -0.7552  0.1337 -0.2424
  580SOL     OW 2372   1.762   0.113   1.228  0.3420 -0.2177  0.0770
  580SOL    HW2 2373   1.762   0.205   1.200  0.7042  0.1921  1.4041
  580SOL    HW3 2374   1.842   0.076   1.189  1.2913  0.5653  1.2646
  580SOL    MW4 2375   1.773   0.120   1.219  0.5149 -0.0603  0.4088
  581SOL     OW 2376   1.774   0.372   1.166 -0.2635  0.0174 -0.0061
  581SOL    HW2 2377   1.693   0.416   1.190 -0.3139  1.1865 -2.2017
  581SOL    HW3 2378   1.770   0.364   1.070  2.2769  0.2912 -0.1741
  581SOL    MW4 2379   1.763   0.377   1.156  0.0650  0.2078 -0.3181
  582SOL     OW 2380   2.040   0.487   1.228  0.2887 -0.2038  0.2203
  582SOL    HW2 2381   2.049   0.498   1.323 -0.2288 -0.3853  0.2974
  582SOL    HW3 2382   1.950   0.456   1.217  0.5506 -0.7780 -0.2836
  582SOL    MW4 2383   2.029   0.485   1.239  0.2549 -0.3035  0.1640
  583SOL     OW 2384   2.029   0.761   1.148  0.0358  0.0080  0.3582
  583SOL    HW2 2385   2.039   0.669   1.174 -1.1170  0.1651  1.4080
  583SOL    HW3 2386   2.031   0.759   1.053  0.7721 -1.0099  0.3761
  583SOL    MW4 2387   2.031   0.748   1.139 -0.0193 -0.1055  0.4990
  584SOL     OW 2388   1.813   0.911   1.225 -0.0779  0.1483  0.1984
  584SOL    HW2 2389   1.805   0.909   1.320  0.1120 -0.3363  0.2031
  584SOL    HW3 2390   1.894   0.864   1.206 -1.3480 -1.9195 -0.3511
  584SOL    MW4 2391   1.822   0.905   1.235 -0.2204 -0.1885  0.1265
  585SOL     OW 2392   1.840   1.142   1.085  0.5698  0.3409 -0.3256
  585SOL    HW2 2393   1.824   1.061   1.133 -0.8809  1.4084  1.0140
  585SOL    HW3 2394   1.811   1.123   0.996  0.9383 -0.8372 -0.2060
  585SOL    MW4 2395   1.834   1.129   1.079  0.4269  0.3263 -0.1332
  586SOL     OW 2396   2.096   1.269   1.176  0.2260 -0.2533  0.1792
  586SOL    HW2 2397   2.157   1.230   1.113 -0.5233 -0.5092 -0.3952
  586SOL    HW3 2398   2.013   1.224   1.160 -0.4495  1.0358  0.0497
  586SOL    MW4 2399   2.094   1.258   1.166  0.0379 -0.1169  0.0863
  587SOL     OW 2400   2.027   1.531   1.123  0.2033  0.2981 -0.1008
  587SOL    HW2 2401   2.030   1.436   1.136 -2.1958  0.1289 -0.6741
  587SOL    HW3 2402   2.024   1.542   1.028  0.1877  0.9440 -0.0291
  587SOL    MW4 2403   2.027   1.520   1.112 -0.1154  0.3612 -0.1670
  588SOL     OW 2404   1.816   1.673   1.241  0.1020 -0.4015 -0.3712
  588SOL    HW2 2405   1.817   1.752   1.187 -0.2881 -0.5433 -0.5843
  588SOL    HW3 2406   1.897   1.628   1.219  0.1670 -0.2249 -0.4908
  588SOL    MW4 2407   1.827   1.677   1.231  0.0591 -0.3970 -0.4151
  589SOL     OW 2408   1.781   1.910   1.100 -0.3496  0.0049  0.6403
  589SOL    HW2 2409   1.701   1.962   1.101  0.3515  1.1832 -0.8116
  589SOL    HW3 2410   1.807   1.909   1.008  1.2278 -0.4587  1.0745
  589SOL    MW4 2411   1.774   1.917   1.088 -0.0490  0.0992  0.5060
  590SOL     OW 2412   1.997   2.104   1.149 -0.1832 -0.0967  0.3094
  590SOL    HW2 2413   2.009   2.105   1.244  0.3507 -1.3733  0.2734
  590SOL    HW3 2414   1.915   2.055   1.136  0.7672 -1.6528  0.0405
  590SOL    MW4 2415   1.988   2.098   1.160  0.0126 -0.4706  0.2692
  591SOL     OW 2416   2.000   2.388   1.100  0.0844 -0.0942  0.4782
  591SOL    HW2 2417   2.090   2.417   1.115 -0.1521  0.3269  1.0831
  591SOL    HW3 2418   1.999   2.297   1.130  0.1265  0.1185  1.1182
  591SOL    MW4 2419   2.012   2.379   1.106  0.0587 -0.0107  0.6427
  592SOL     OW 2420   1.766   2.474   1.220 -0.4011  0.2915 -0.0539
  592SOL    HW2 2421   1.843   2.440   1.173  0.3344  0.7580  0.8025
  592SOL    HW3 2422   1.693   2.425   1.183  0.1801  0.5072 -1.5528
  592SOL    MW4 2423   1.767   2.463   1.209 -0.2275  0.3817 -0.1388
  593SOL     OW 2424   1.782   2.714   1.073 -0.3936  0.1526  0.0616
  593SOL    HW2 2425   1.791   2.625   1.105  0.7744  0.3618  0.3354
  593SOL    HW3 2426   1.804   2.709   0.980 -1.4847 -0.0462 -0.1890
  593SOL    MW4 2427   1.786   2.702   1.065 -0.3834  0.1540  0.0647
  594SOL     OW 2428   1.982   2.834   1.245  0.6309 -0.3302  0.3321
  594SOL    HW2 2429   1.996   2.923   1.212  1.5009 -0.7460 -0.4277
  594SOL    HW3 2430   1.915   2.798   1.187  0.3359 -0.2038  0.5909
  594SOL    MW4 2431   1.975   2.841   1.233  0.7067 -0.3684  0.2658
  595SOL     OW 2432   2.022   3.086   1.116  0.1859  0.2822  0.1892
  595SOL    HW2 2433   1.949   3.138   1.150 -0.1595  0.6422 -1.0755
  595SOL    HW3 2434   2.008   3.084   1.022  1.2506 -0.5195  0.0375
  595SOL    MW4 2435   2.010   3.092   1.108  0.2806  0.2239  0.0023
  596SOL     OW 2436   1.794   3.249   1.221 -0.7387  0.1865  0.0521
  596SOL    HW2 2437   1.805   3.279   1.311 -0.4304  0.2263  0.0028
  596SOL    HW3 2438   1.807   3.327   1.167  1.4955 -0.2714 -0.1527
  596SOL    MW4 2439   1.797   3.263   1.225 -0.4032  0.1314  0.0185
  597SOL     OW 2440   1.825   3.497   1.092 -0.2813 -0.1195  0.4098
  597SOL    HW2 2441   1.904   3.526   1.137  0.7392  1.1056 -2.0991
  597SOL    HW3 2442   1.754   3.543   1.136  0.8039  1.9416  0.0601
  597SOL    MW4 2443   1.826   3.507   1.104 -0.0035  0.3142  0.0325
  598SOL     OW 2444   2.045   3.636   1.195 -0.3208  0.5257  0.0192
  598SOL    HW2 2445   2.056   3.627   1.289 -1.1769  0.1573  0.0852
  598SOL    HW3 2446   2.121   3.591   1.157 -0.0792  0.5086  0.5265
  598SOL    MW4 2447   2.057   3.629   1.202 -0.4017  0.4749  0.0950
  599SOL     OW 2448   2.051   3.893   1.110  0.4876 -0.3014  0.0488
  599SOL    HW2 2449   1.963   3.929   1.127 -0.1625 -0.2722 -3.0251
  599SOL    HW3 2450   2.045   3.802   1.137 -0.2883 -0.1409  0.4551
  599SOL    MW4 2451   2.039   3.886   1.116  0.2992 -0.2763 -0.3031
  600SOL     OW 2452   1.808   4.008   1.153 -0.2196  0.0350 -0.2698
  600SOL    HW2 2453   1.805   4.018   1.248 -1.2972  0.7520 -0.3658
  600SOL    HW3 2454   1.730   3.956   1.132 -1.9432  2.8279 -1.0783
  600SOL    MW4 2455   1.798   4.003   1.163 -0.5891  0.4988 -0.3891
  601SOL     OW 2456   1.813   4.275   1.026 -0.0158  0.3666 -0.5851
  601SOL    HW2 2457   1.809   4.181   1.045  1.9282  0.1093 -1.3750
  601SOL    HW3 2458   1.731   4.310   1.061  0.3854 -1.1934  2.0305
  601SOL    MW4 2459   1.801   4.267   1.033  0.2935  0.1268 -0.3443
  602SOL     OW 2460   2.026   4.400   1.162 -0.2249 -0.2663 -0.2593
  602SOL    HW2 2461   2.046   4.385   1.254 -0.3278 -0.3894 -0.2555
  602SOL    HW3 2462   1.942   4.355   1.148 -0.2282 -0.2176 -0.4040
  602SOL    MW4 2463   2.017   4.392   1.172 -0.2389 -0.2766 -0.2779
  603SOL     OW 2464   2.453   0.038   1.146 -0.2839 -0.2766 -0.3152
  603SOL    HW2 2465   2.540   0.069   1.173 -0.8615 -0.3789  1.6814
  603SOL    HW3 2466   2.393   0.072   1.212 -1.7704 -0.2821 -1.6331
  603SOL    MW4 2467   2.457   0.047   1.158 -0.5567 -0.2908 -0.2255
  604SOL     OW 2468   2.209   0.093   1.261  0.3336 -0.2677 -0.2895
  604SOL    HW2 2469   2.213   0.173   1.208  1.6367  0.0038  0.2020
  604SOL    HW3 2470   2.132   0.047   1.229 -1.4132  1.9898  0.5617
  604SOL    MW4 2471   2.200   0.098   1.250  0.2751  0.0660 -0.1122
  605SOL     OW 2472   2.228   0.337   1.096 -0.0616  0.4387 -0.5074
  605SOL    HW2 2473   2.151   0.384   1.128  0.3537  0.6653  0.1714
  605SOL    HW3 2474   2.230   0.355   1.002 -0.5641  0.8170 -0.4468
  605SOL    MW4 2475   2.218   0.345   1.088 -0.0732  0.5185 -0.4098
  606SOL     OW 2476   2.439   0.491   1.197  0.0941 -0.1901  0.0088
  606SOL    HW2 2477   2.434   0.492   1.292 -0.3085  2.1262 -0.0200
  606SOL    HW3 2478   2.366   0.436   1.169 -0.4393  0.0098  0.9975
  606SOL    MW4 2479   2.429   0.484   1.206 -0.0293  0.1419  0.1354
  607SOL     OW 2480   2.456   0.757   1.075  0.0713  0.2527  0.1650
  607SOL    HW2 2481   2.446   0.676   1.125 -1.0071 -0.0608 -0.5540
  607SOL    HW3 2482   2.452   0.729   0.983  0.1642  1.0650 -0.0879
  607SOL    MW4 2483   2.454   0.742   1.069 -0.0589  0.3185  0.0368
  608SOL     OW 2484   2.264   0.901   1.211 -0.3557  0.0601  0.1580
  608SOL    HW2 2485   2.334   0.870   1.153  0.3141 -0.8618  1.4486
  608SOL    HW3 2486   2.186   0.852   1.184  0.3216 -1.5367  1.0795
  608SOL    MW4 2487   2.263   0.891   1.200 -0.1779 -0.2722  0.4498
  609SOL     OW 2488   2.283   1.106   1.040 -0.4708  0.2813  0.2101
  609SOL    HW2 2489   2.331   1.168   1.096  1.3972 -0.6222 -0.3327
  609SOL    HW3 2490   2.261   1.034   1.099 -0.6873  0.4609  0.3483
  609SOL    MW4 2491   2.287   1.105   1.055 -0.2527  0.1857  0.1568
  610SOL     OW 2492   2.450   1.278   1.189 -0.4307  0.4781 -0.2549
  610SOL    HW2 2493   2.534   1.239   1.165 -0.3004  1.8133 -2.1687
  610SOL    HW3 2494   2.462   1.372   1.172 -1.9208  0.8423  0.6059
  610SOL    MW4 2495   2.462   1.285   1.184 -0.6101  0.7024 -0.3939
  611SOL     OW 2496   2.445   1.538   1.082 -0.1654  0.2738 -0.1585
  611SOL    HW2 2497   2.381   1.593   1.126  1.0776  2.2988 -0.8309
  611SOL    HW3 2498   2.413   1.532   0.992  0.6559  1.4014 -0.5284
  611SOL    MW4 2499   2.432   1.544   1.076  0.1068  0.6897 -0.2959
  612SOL     OW 2500   2.233   1.699   1.208  0.3050  0.5563  0.3459
  612SOL    HW2 2501   2.217   1.786   1.173 -1.8610  0.6649  1.5314
  612SOL    HW3 2502   2.157   1.648   1.180  0.6338 -0.4520  1.2689
  612SOL    MW4 2503   2.221   1.704   1.200  0.0627  0.4377  0.6241
  613SOL     OW 2504   2.220   1.952   1.090 -0.2478  0.1346  0.1095
  613SOL    HW2 2505   2.143   2.003   1.115  0.2848  0.5832  0.8403
  613SOL    HW3 2506   2.216   1.948   0.994 -0.2986  1.5283  0.0485
  613SOL    MW4 2507   2.209   1.958   1.080 -0.1841  0.3778  0.1979
  614SOL     OW 2508   2.460   2.091   1.189  0.3473 -0.4472  0.3488
  614SOL    HW2 2509   2.534   2.045   1.149  0.6135 -0.6427  1.0642
  614SOL    HW3 2510   2.384   2.038   1.166  0.2958  0.2366 -1.1657
  614SOL    MW4 2511   2.460   2.078   1.181  0.3755 -0.3827  0.2433
  615SOL     OW 2512   2.450   2.359   1.066 -0.1404 -0.0398  0.1773
  615SOL    HW2 2513   2.454   2.267   1.092  0.9719  0.1208  0.6443
  615SOL    HW3 2514   2.465   2.359   0.972 -1.4559 -0.4313 -0.0361
  615SOL    MW4 2515   2.453   2.347   1.057 -0.1671 -0.0703  0.2108
  616SOL     OW 2516   2.234   2.506   1.185  0.4279  0.0318 -0.2335
  616SOL    HW2 2517   2.237   2.497   1.280  0.1298 -1.7469 -0.3777
  616SOL    HW3 2518   2.304   2.449   1.153  0.6261  0.7316 -1.0807
  616SOL    MW4 2519   2.244   2.497   1.193  0.4148 -0.1104 -0.3642
  617SOL     OW 2520   2.198   2.754   1.079  0.2700  0.1694 -0.0742
  617SOL    HW2 2521   2.211   2.666   1.114 -0.6665 -1.1158 -2.7906
  617SOL    HW3 2522   2.121   2.787   1.126 -0.6014 -1.2852 -0.4273
  617SOL    MW4 2523   2.189   2.747   1.090  0.0312 -0.1922 -0.4791
  618SOL     OW 2524   2.462   2.833   1.191  0.3378  0.6944  0.7039
  618SOL    HW2 2525   2.461   2.836   1.286  1.3008 -0.3696  0.7656
  618SOL    HW3 2526   2.371   2.818   1.166  0.0675  1.1073  1.4534
  618SOL    MW4 2527   2.450   2.831   1.200  0.4292  0.6084  0.8110
  619SOL     OW 2528   2.509   3.091   1.109  0.0422 -0.0208  0.0449
  619SOL    HW2 2529   2.428   3.129   1.142  0.2561  1.1514 -0.7332
  619SOL    HW3 2530   2.504   2.999   1.133 -0.6853  0.4111  1.5914
  619SOL    MW4 2531   2.497   3.084   1.116 -0.0257  0.1907  0.1464
  620SOL     OW 2532   2.268   3.222   1.188  0.0074  0.2308 -0.2900
  620SOL    HW2 2533   2.269   3.310   1.151 -1.1620 -0.8924 -3.1117
  620SOL    HW3 2534   2.188   3.181   1.153 -0.2987 -1.4492  2.2057
  620SOL    MW4 2535   2.257   3.228   1.178 -0.1869 -0.1388 -0.3331
  621SOL     OW 2536   2.247   3.478   1.084  0.1043 -0.4142  0.3479
  621SOL    HW2 2537   2.311   3.535   1.126 -0.9509  1.0544  0.0183
  621SOL    HW3 2538   2.268   3.482   0.991  0.0946 -0.6638  0.3337
  621SOL    MW4 2539   2.258   3.486   1.077 -0.0360 -0.2532  0.3024
  622SOL     OW 2540   2.457   3.627   1.185  0.1970 -0.5524  0.0328
  622SOL    HW2 2541   2.448   3.607   1.278 -1.6247 -3.0160 -0.6460
  622SOL    HW3 2542   2.502   3.712   1.184  0.8292 -0.7766  3.1292
  622SOL    MW4 2543   2.462   3.636   1.197  0.0401 -0.9072  0.3518
  623SOL     OW 2544   2.505   3.895   1.113 -0.1497 -0.1050 -0.1541
  623SOL    HW2 2545   2.413   3.921   1.123 -0.0529 -0.0982  0.7423
  623SOL    HW3 2546   2.513   3.872   1.021 -0.8488  0.6769 -0.4158
  623SOL    MW4 2547   2.494   3.895   1.102 -0.2294 -0.0010 -0.0702
  624SOL     OW 2548   2.260   4.055   1.199  0.2893 -0.1453  0.2171
  624SOL    HW2 2549   2.260   4.143   1.161 -1.7387 -0.0036  0.4642
  624SOL    HW3 2550   2.181   4.013   1.163  1.5232 -2.0643 -0.3360
  624SOL    MW4 2551   2.249   4.061   1.189  0.1843 -0.3800  0.1768
  625SOL     OW 2552   2.285   4.310   1.095  0.3827  0.3881  0.0794
  625SOL    HW2 2553   2.212   4.366   1.123  1.1679  1.3346  0.2526
  625SOL    HW3 2554   2.270   4.297   1.002  0.6400  1.5691 -0.1342
  625SOL    MW4 2555   2.273   4.316   1.087  0.5200  0.6680  0.0740
  626SOL     OW 2556   2.496   4.434   1.210  0.1723 -0.0610  0.6663
  626SOL    HW2 2557   2.420   4.391   1.170  0.0930  0.4258  0.2992
  626SOL    HW3 2558   2.491   4.525   1.181  0.4215  0.1717  1.3326
  626SOL    MW4 2559   2.485   4.440   1.201  0.1948  0.0339  0.7058
  627SOL     OW 2560   2.866   4.652   1.151  0.3749 -0.0686 -0.0205
  627SOL    HW2 2561   2.880   4.559   1.172  0.4303 -0.2701 -0.9614
  627SOL    HW3 2562   2.865   4.656   1.056 -0.6788  0.7432  0.0055
  627SOL    MW4 2563   2.867   4.640   1.141  0.2429  0.0119 -0.1413
  628SOL     OW 2564   2.686   0.142   1.262 -0.6040 -0.2425 -0.0249
  628SOL    HW2 2565   2.698   0.142   1.357  0.7664  0.2012 -0.1805
  628SOL    HW3 2566   2.755   0.085   1.229  0.1047  1.0721 -0.8694
  628SOL    MW4 2567   2.697   0.135   1.271 -0.3297 -0.0105 -0.1570
  629SOL     OW 2568   2.680   0.379   1.107  0.0490  0.2577 -0.5573
  629SOL    HW2 2569   2.681   0.308   1.171  0.1192 -0.7491 -1.6540
  629SOL    HW3 2570   2.607   0.435   1.134  0.7507  0.4462  1.0201
  629SOL    MW4 2571   2.670   0.377   1.119  0.1509  0.1497 -0.4939
  630SOL     OW 2572   2.874   0.545   1.208  0.2573  0.1134  0.3273
  630SOL    HW2 2573   2.876   0.620   1.149 -0.0611 -0.2569 -0.1623
  630SOL    HW3 2574   2.806   0.488   1.172 -0.4417  0.2069  1.4511
  630SOL    MW4 2575   2.865   0.547   1.196  0.1235  0.0768  0.4109
  631SOL     OW 2576   2.883   0.808   1.091  0.4206 -0.4802 -0.2037
  631SOL    HW2 2577   2.957   0.843   1.140  1.1202 -0.3365 -1.3595
  631SOL    HW3 2578   2.806   0.833   1.143  1.1155  0.0590  0.5786
  631SOL    MW4 2579   2.882   0.816   1.105  0.6044 -0.3902 -0.2531
  632SOL     OW 2580   2.646   0.902   1.230 -0.3669  0.3781  0.2147
  632SOL    HW2 2581   2.665   0.984   1.184  0.8010 -0.5517 -1.0045
  632SOL    HW3 2582   2.571   0.865   1.183 -1.1825  0.9562  1.0476
  632SOL    MW4 2583   2.638   0.908   1.217 -0.3207  0.3317  0.1639
  633SOL     OW 2584   2.677   1.153   1.105  0.1172 -1.0727  0.1882
  633SOL    HW2 2585   2.748   1.211   1.133 -0.5674 -0.0124 -0.2649
  633SOL    HW3 2586   2.681   1.154   1.010 -0.1869 -1.4117  0.1722
  633SOL    MW4 2587   2.687   1.161   1.096 -0.0134 -0.9776  0.1266
  634SOL     OW 2588   2.900   1.301   1.205  0.2568  0.2930 -0.0369
  634SOL    HW2 2589   2.903   1.312   1.300  0.2562 -0.3445  0.0340
  634SOL    HW3 2590   2.908   1.391   1.171  0.1218  0.5368  0.5619
  634SOL    MW4 2591   2.901   1.315   1.213  0.2394  0.2410  0.0515
  635SOL     OW 2592   2.900   1.564   1.139 -0.0867 -0.1407  0.1569
  635SOL    HW2 2593   2.981   1.602   1.174 -0.6534  1.2137  0.0372
  635SOL    HW3 2594   2.900   1.588   1.046 -1.2058  0.9395  0.4158
  635SOL    MW4 2595   2.911   1.572   1.131 -0.3090  0.1805  0.1752
  636SOL     OW 2596   2.651   1.669   1.190 -0.3612  0.0935 -0.2814
  636SOL    HW2 2597   2.735   1.625   1.176  0.2229  1.0246  0.2844
  636SOL    HW3 2598   2.590   1.620   1.135  0.3754 -1.1147 -0.0506
  636SOL    MW4 2599   2.654   1.657   1.181 -0.1867  0.0570 -0.1763
  637SOL     OW 2600   2.649   1.929   1.058 -0.1114 -0.1084  0.2378
  637SOL    HW2 2601   2.727   1.979   1.085  0.7473 -1.1278 -0.3117
  637SOL    HW3 2602   2.649   1.853   1.115 -0.4366 -0.3557 -0.0953
  637SOL    MW4 2603   2.660   1.926   1.069 -0.0408 -0.2755  0.1214
  638SOL     OW 2604   2.864   2.073   1.170 -0.1667  0.2239 -0.2471
  638SOL    HW2 2605   2.881   2.087   1.264  0.1089 -0.5913 -0.1734
  638SOL    HW3 2606   2.877   2.159   1.131 -0.3054  0.5779  0.4668
  638SOL    MW4 2607   2.868   2.086   1.177 -0.1488  0.1628 -0.1433
  639SOL     OW 2608   2.927   2.310   1.055  0.0245  0.9513 -0.2559
  639SOL    HW2 2609   2.994   2.368   1.090 -0.4955  1.1971  0.3303
  639SOL    HW3 2610   2.845   2.358   1.067 -0.1626  1.0432 -1.8068
  639SOL    MW4 2611   2.925   2.324   1.061 -0.0687  0.9959 -0.3833
  640SOL     OW 2612   2.701   2.449   1.163  0.7624 -0.1959 -0.0923
  640SOL    HW2 2613   2.714   2.452   1.257 -0.4080  0.1554  0.0711
  640SOL    HW3 2614   2.613   2.414   1.152  0.0878  1.6827 -0.9683
  640SOL    MW4 2615   2.691   2.445   1.174  0.5193  0.0982 -0.1862
  641SOL     OW 2616   2.703   2.722   1.079 -0.0564 -0.2436  0.1309
  641SOL    HW2 2617   2.684   2.634   1.110  1.3348 -0.5205  0.2315
  641SOL    HW3 2618   2.629   2.775   1.110 -0.1357 -1.0748  1.4101
  641SOL    MW4 2619   2.691   2.717   1.087  0.1168 -0.3898  0.3130
  642SOL     OW 2620   2.930   2.847   1.162 -0.1356 -0.4078  0.3650
  642SOL    HW2 2621   2.932   2.825   1.256 -1.2847 -1.8769  0.0596
  642SOL    HW3 2622   2.851   2.804   1.129  0.1844  0.2292 -1.2575
  642SOL    MW4 2623   2.920   2.839   1.170 -0.2449 -0.5178  0.1106
  643SOL     OW 2624   2.924   3.115   1.082  0.4189 -0.2491 -0.3553
  643SOL    HW2 2625   2.927   3.021   1.103 -2.3993 -0.2111  0.2979
  643SOL    HW3 2626   2.913   3.118   0.987  0.5441 -0.5561 -0.3817
  643SOL    MW4 2627   2.923   3.103   1.072  0.0637 -0.2844 -0.2726
  644SOL     OW 2628   2.693   3.268   1.198 -0.2298  0.3989 -0.0660
  644SOL    HW2 2629   2.781   3.237   1.175 -0.8956 -1.7337  0.1338
  644SOL    HW3 2630   2.634   3.204   1.158 -1.7238  2.0682 -0.5915
  644SOL    MW4 2631   2.697   3.256   1.190 -0.5147  0.3378 -0.1091
  645SOL     OW 2632   2.680   3.521   1.084 -0.2881 -0.0058 -0.2416
  645SOL    HW2 2633   2.676   3.433   1.123 -0.7893  0.4245  0.6631
  645SOL    HW3 2634   2.596   3.561   1.104 -0.0338  0.7152 -0.5979
  645SOL    MW4 2635   2.669   3.514   1.092 -0.3207  0.1464 -0.1692
  646SOL     OW 2636   2.913   3.649   1.206 -0.1984  0.5102  0.3899
  646SOL    HW2 2637   2.993   3.612   1.168  1.1282  1.6682  1.9162
  646SOL    HW3 2638   2.842   3.602   1.165  1.2918 -0.5723 -1.0121
  646SOL    MW4 2639   2.914   3.638   1.196  0.1733  0.5202  0.4063
  647SOL     OW 2640   2.949   3.897   1.111 -0.0227 -0.1925 -0.5201
  647SOL    HW2 2641   3.037   3.926   1.134 -1.2573  1.4873  2.2539
  647SOL    HW3 2642   2.942   3.810   1.150 -0.1996  0.4005  0.7877
  647SOL    MW4 2643   2.960   3.890   1.119 -0.2089  0.1073  0.0184
  648SOL     OW 2644   2.719   4.028   1.223 -0.1750  0.1720 -0.1779
  648SOL    HW2 2645   2.801   3.991   1.191  0.7582  2.2334 -0.2655
  648SOL    HW3 2646   2.651   3.971   1.187  1.2186 -1.7374  0.1515
  648SOL    MW4 2647   2.721   4.016   1.214  0.1318  0.1922 -0.1459
  649SOL     OW 2648   2.702   4.289   1.100 -0.1027  0.3052 -0.0753
  649SOL    HW2 2649   2.710   4.205   1.146 -0.7505 -0.3560 -1.1470
  649SOL    HW3 2650   2.623   4.329   1.136 -0.1448  0.1652 -0.0105
  649SOL    MW4 2651   2.693   4.283   1.111 -0.1936  0.1993 -0.2081
  650SOL     OW 2652   2.927   4.403   1.207 -0.2894 -0.2442  0.2205
  650SOL    HW2 2653   3.003   4.355   1.174 -0.7977 -1.5626  0.9579
  650SOL    HW3 2654   2.852   4.358   1.169 -0.7249  0.8437 -0.2223
  650SOL    MW4 2655   2.927   4.391   1.197 -0.4141 -0.2747  0.2594
  651SOL     OW 2656   3.307   0.024   1.126  0.0436  0.3337 -0.1658
  651SOL    HW2 2657   3.392   0.058   1.155 -0.4458  1.4530 -0.0408
  651SOL    HW3 2658   3.243   0.080   1.169 -0.8216 -1.6510  1.2406
  651SOL    MW4 2659   3.310   0.036   1.135 -0.1352  0.2195  0.0362
  652SOL     OW 2660   3.090   0.124   1.254  0.2814 -0.0673 -0.3784
  652SOL    HW2 2661   3.096   0.128   1.349  0.7447 -0.3912 -0.3918
  652SOL    HW3 2662   3.015   0.068   1.236 -0.7697  1.2407 -0.2083
  652SOL    MW4 2663   3.081   0.117   1.264  0.2038  0.0625 -0.3579
  653SOL     OW 2664   3.089   0.388   1.143  0.0823 -0.5285 -0.4624
  653SOL    HW2 2665   3.066   0.297   1.165  0.9767 -0.8479 -0.8037
  653SOL    HW3 2666   3.015   0.440   1.173  0.7568 -1.0665  2.2351
  653SOL    MW4 2667   3.076   0.383   1.150  0.2894 -0.6416 -0.1516
  654SOL     OW 2668   3.324   0.529   1.238  0.2272  0.0902 -0.4344
  654SOL    HW2 2669   3.324   0.605   1.179 -1.4148 -0.1733 -0.8132
  654SOL    HW3 2670   3.243   0.482   1.216  0.5807 -1.0772  0.6864
  654SOL    MW4 2671   3.313   0.533   1.227  0.0572 -0.0985 -0.3365
  655SOL     OW 2672   3.343   0.751   1.075  0.2170 -0.2586  0.2530
  655SOL    HW2 2673   3.265   0.790   1.116 -0.5101 -0.9085 -0.4868
  655SOL    HW3 2674   3.336   0.776   0.983  2.0723  1.5689  0.5796
  655SOL    MW4 2675   3.332   0.760   1.068  0.3657 -0.1032  0.1986
  656SOL     OW 2676   3.126   0.908   1.174  0.5343 -0.0629  0.2631
  656SOL    HW2 2677   3.144   0.925   1.267  0.1090  0.8995  0.1716
  656SOL    HW3 2678   3.105   0.994   1.138 -0.4531 -0.6118 -0.4772
  656SOL    MW4 2679   3.126   0.921   1.182  0.3479 -0.0083  0.1533
  657SOL     OW 2680   3.117   1.187   1.077 -0.1528 -0.3036  0.3888
  657SOL    HW2 2681   3.194   1.210   1.130 -0.0797 -2.6945  1.3885
  657SOL    HW3 2682   3.042   1.210   1.132 -0.0792 -2.2373  1.3542
  657SOL    MW4 2683   3.117   1.193   1.091 -0.1333 -0.8740  0.6480
  658SOL     OW 2684   3.345   1.305   1.196  0.7717  0.5919  0.1750
  658SOL    HW2 2685   3.339   1.310   1.291 -1.5636 -0.4237  0.1228
  658SOL    HW3 2686   3.335   1.396   1.167  0.2161  0.7515  0.8480
  658SOL    MW4 2687   3.343   1.318   1.205  0.3903  0.4790  0.2569
  659SOL     OW 2688   3.373   1.558   1.100 -0.5846 -0.0130 -0.1030
  659SOL    HW2 2689   3.444   1.596   1.152 -0.2769  1.3032 -1.4571
  659SOL    HW3 2690   3.295   1.606   1.127 -0.3956  0.7905 -0.9583
  659SOL    MW4 2691   3.372   1.569   1.110 -0.5190  0.2667 -0.3945
  660SOL     OW 2692   3.150   1.701   1.176  0.0759 -0.2852  0.3496
  660SOL    HW2 2693   3.136   1.708   1.271 -0.8336 -1.0116  0.2799
  660SOL    HW3 2694   3.139   1.791   1.144 -0.8722 -0.2321  0.7880
  660SOL    MW4 2695   3.147   1.714   1.185 -0.1690 -0.3741  0.3982
  661SOL     OW 2696   3.110   1.959   1.098  0.1596  0.1332 -0.0530
  661SOL    HW2 2697   3.183   2.005   1.140  0.5059 -0.5786  0.1385
  661SOL    HW3 2698   3.032   1.996   1.138  0.4354  0.5246  0.1287
  661SOL    MW4 2699   3.109   1.970   1.109  0.2418  0.0908 -0.0038
  662SOL     OW 2700   3.325   2.100   1.170 -0.5864 -0.2681  0.1083
  662SOL    HW2 2701   3.394   2.042   1.140 -0.3782 -0.1663  0.3921
  662SOL    HW3 2702   3.340   2.183   1.125  0.1217  0.0930  0.9965
  662SOL    MW4 2703   3.336   2.104   1.160 -0.4654 -0.2072  0.2630
  663SOL     OW 2704   3.382   2.346   1.066 -0.0568 -0.2767 -0.1607
  663SOL    HW2 2705   3.452   2.402   1.101  0.6962 -1.5769  0.4248
  663SOL    HW3 2706   3.302   2.395   1.086  0.6601  1.2776 -0.9381
  663SOL    MW4 2707   3.381   2.360   1.074  0.1369 -0.2429 -0.1860
  664SOL     OW 2708   3.142   2.465   1.173 -0.2335 -0.6057 -0.1013
  664SOL    HW2 2709   3.160   2.476   1.267  0.0809 -1.6075 -0.0395
  664SOL    HW3 2710   3.136   2.555   1.140 -0.8670 -0.2301  0.9711
  664SOL    MW4 2711   3.143   2.479   1.181 -0.2756 -0.6883  0.0483
  665SOL     OW 2712   3.163   2.726   1.066 -0.4485 -0.3581 -0.0322
  665SOL    HW2 2713   3.095   2.790   1.085  0.4963  0.5322  0.4268
  665SOL    HW3 2714   3.175   2.731   0.971  0.1725  0.7413  0.0928
  665SOL    MW4 2715   3.156   2.735   1.056 -0.2420 -0.0956  0.0449
  666SOL     OW 2716   3.403   2.847   1.159  0.0528  0.0291 -0.1617
  666SOL    HW2 2717   3.408   2.935   1.121  1.5399 -0.5638 -1.3929
  666SOL    HW3 2718   3.319   2.813   1.130  0.5179  0.1526 -1.6831
  666SOL    MW4 2719   3.393   2.854   1.150  0.3102 -0.0329 -0.5250
  667SOL     OW 2720   3.383   3.098   1.042  0.0690 -0.1227  0.1906
  667SOL    HW2 2721   3.443   3.162   1.080 -1.1188  0.7589  0.6449
  667SOL    HW3 2722   3.299   3.117   1.084 -0.6317 -1.0229 -0.7692
  667SOL    MW4 2723   3.379   3.109   1.053 -0.1805 -0.1254  0.1239
  668SOL     OW 2724   3.165   3.214   1.155 -0.3823 -0.2228 -0.3736
  668SOL    HW2 2725   3.160   3.307   1.131  0.0103 -0.7318 -2.5197
  668SOL    HW3 2726   3.079   3.179   1.130 -0.8742 -0.2457  1.3200
  668SOL    MW4 2727   3.153   3.222   1.148 -0.3955 -0.2933 -0.4332
  669SOL     OW 2728   3.132   3.509   1.132  0.2205 -0.5953 -0.3274
  669SOL    HW2 2729   3.213   3.535   1.176 -1.3275  1.1049  1.5590
  669SOL    HW3 2730   3.157   3.504   1.039  2.4172  0.1279  0.1858
  669SOL    MW4 2731   3.146   3.512   1.125  0.3061 -0.2756 -0.0108
  670SOL     OW 2732   3.371   3.602   1.188 -0.3076 -0.1068 -0.1173
  670SOL    HW2 2733   3.410   3.601   1.275 -0.8565  1.8795  0.1744
  670SOL    HW3 2734   3.440   3.565   1.131 -0.0124 -1.5465  1.1504
  670SOL    MW4 2735   3.385   3.597   1.192 -0.3412 -0.0348  0.0883
  671SOL     OW 2736   3.410   3.896   1.144 -0.3598  0.0265 -0.1178
  671SOL    HW2 2737   3.324   3.923   1.179 -0.1378 -1.0930  1.3589
  671SOL    HW3 2738   3.409   3.800   1.150  1.0501  0.0131  0.0446
  671SOL    MW4 2739   3.398   3.887   1.149 -0.1445 -0.1230  0.0985
  672SOL     OW 2740   3.164   4.000   1.230 -0.3209  0.0883 -0.3988
  672SOL    HW2 2741   3.145   4.012   1.323 -3.1287  0.6347 -1.0168
  672SOL    HW3 2742   3.184   4.088   1.198 -0.6121  0.0933 -0.5713
  672SOL    MW4 2743   3.164   4.014   1.238 -0.7298  0.1607 -0.5031
  673SOL     OW 2744   3.168   4.267   1.115 -0.1611 -0.1621  0.0384
  673SOL    HW2 2745   3.254   4.294   1.146 -0.4998  0.8750  0.0798
  673SOL    HW3 2746   3.170   4.282   1.021 -0.8371  1.3755  0.2565
  673SOL    MW4 2747   3.179   4.272   1.107 -0.2949  0.1774  0.0726
  674SOL     OW 2748   3.389   4.431   1.230  0.2825 -0.5837  0.2709
  674SOL    HW2 2749   3.468   4.411   1.180  1.0757  0.1570  1.2360
  674SOL    HW3 2750   3.353   4.509   1.189 -0.7894 -1.7768 -1.1269
  674SOL    MW4 2751   3.395   4.438   1.218  0.2456 -0.6437  0.2139
  675SOL     OW 2752   3.796   4.666   1.148 -0.4205 -0.4360  0.0493
  675SOL    HW2 2753   3.822   4.593   1.204  1.6946 -0.3169 -0.7318
  675SOL    HW3 2754   3.799   4.630   1.059  0.2556  0.4767 -0.3088
  675SOL    MW4 2755   3.800   4.652   1.143 -0.0525 -0.2999 -0.1010
  676SOL     OW 2756   3.551   0.115   1.204 -0.0820 -0.0368  0.5448
  676SOL    HW2 2757   3.566   0.209   1.211  1.2875 -0.0352 -1.8497
  676SOL    HW3 2758   3.633   0.080   1.168 -1.0925 -1.9504  0.0361
  676SOL    MW4 2759   3.564   0.123   1.200 -0.0346 -0.2891  0.1619
  677SOL     OW 2760   3.569   0.398   1.147 -0.0801 -0.0568 -0.0691
  677SOL    HW2 2761   3.639   0.445   1.193 -0.1890 -0.9987  1.0844
  677SOL    HW3 2762   3.490   0.448   1.168 -0.0690 -0.2479  0.4318
  677SOL    MW4 2763   3.568   0.411   1.156 -0.0930 -0.2063  0.1494
  678SOL     OW 2764   3.799   0.511   1.257 -0.3489 -0.0616  0.5411
  678SOL    HW2 2765   3.879   0.479   1.215  0.2615 -0.6325  2.1141
  678SOL    HW3 2766   3.797   0.604   1.236  0.4053 -0.1643 -0.0194
  678SOL    MW4 2767   3.809   0.519   1.249 -0.1688 -0.1505  0.6746
  679SOL     OW 2768   3.799   0.771   1.144 -0.0997  0.0190 -0.2381
  679SOL    HW2 2769   3.872   0.826   1.171 -1.3050  1.4610  0.1640
  679SOL    HW3 2770   3.721   0.825   1.160 -1.2031 -1.2163 -1.3031
  679SOL    MW4 2771   3.798   0.785   1.149 -0.4044  0.0463 -0.3257
  680SOL     OW 2772   3.560   0.900   1.206 -0.6666  0.3145  0.0460
  680SOL    HW2 2773   3.571   0.984   1.160  3.0744 -1.3987 -2.4459
  680SOL    HW3 2774   3.501   0.850   1.149  1.3011 -0.6019 -1.2200
  680SOL    MW4 2775   3.553   0.905   1.192  0.0868 -0.0324 -0.4498
  681SOL     OW 2776   3.568   1.170   1.123  0.1894 -0.2502 -0.0515
  681SOL    HW2 2777   3.640   1.225   1.154 -0.5904  0.1428  1.1246
  681SOL    HW3 2778   3.489   1.218   1.147 -0.4790 -1.1271 -0.4570
  681SOL    MW4 2779   3.567   1.184   1.131 -0.0014 -0.3141  0.0501
  682SOL     OW 2780   3.781   1.314   1.203  0.3674 -0.0105 -0.0302
  682SOL    HW2 2781   3.778   1.309   1.298  1.1256  1.8219  0.1084
  682SOL    HW3 2782   3.782   1.408   1.184  0.7894 -0.3602 -1.8230
  682SOL    MW4 2783   3.781   1.326   1.213  0.5231  0.1851 -0.2487
  683SOL     OW 2784   3.769   1.584   1.129 -0.4074 -0.0607  0.1289
  683SOL    HW2 2785   3.847   1.628   1.164  0.1752 -2.0119  1.2999
  683SOL    HW3 2786   3.794   1.561   1.039  0.5214 -1.0506  0.6311
  683SOL    MW4 2787   3.783   1.587   1.122 -0.2081 -0.4488  0.3496
  684SOL     OW 2788   3.563   1.710   1.233  0.0578  0.1432 -0.0969
  684SOL    HW2 2789   3.561   1.796   1.192  1.7838  0.6706  0.9012
  684SOL    HW3 2790   3.638   1.665   1.193  0.9315  0.1748  1.4758
  684SOL    MW4 2791   3.572   1.715   1.222  0.4008  0.2170  0.2422
  685SOL     OW 2792   3.549   1.958   1.126 -0.4527 -0.1855  0.1743
  685SOL    HW2 2793   3.617   2.016   1.160  0.7462 -1.1921 -0.5057
  685SOL    HW3 2794   3.565   1.955   1.032 -0.6631 -1.4412  0.1783
  685SOL    MW4 2795   3.560   1.966   1.118 -0.3223 -0.4840  0.0851
  686SOL     OW 2796   3.794   2.084   1.199 -0.7208 -0.0447 -0.1468
  686SOL    HW2 2797   3.801   2.073   1.294  1.3151 -1.4928 -0.4200
  686SOL    HW3 2798   3.851   2.016   1.163  0.9676  2.4280 -2.3290
  686SOL    MW4 2799   3.803   2.073   1.207 -0.2296  0.0906 -0.4705
  687SOL     OW 2800   3.829   2.335   1.104  0.8061  0.3790 -0.0722
  687SOL    HW2 2801   3.912   2.366   1.140  0.6749 -0.2709  0.7944
  687SOL    HW3 2802   3.821   2.246   1.137  0.2418  0.0985 -0.9734
  687SOL    MW4 2803   3.839   2.327   1.113  0.7145  0.2563 -0.0769
  688SOL     OW 2804   3.607   2.468   1.157  0.2962 -0.5405  0.4895
  688SOL    HW2 2805   3.593   2.447   1.250 -0.2788 -2.6985 -0.0611
  688SOL    HW3 2806   3.686   2.420   1.133  0.3755 -0.0839 -0.1771
  688SOL    MW4 2807   3.616   2.459   1.166  0.2308 -0.7651  0.3289
  689SOL     OW 2808   3.608   2.729   1.034  0.2373  0.7501  0.1090
  689SOL    HW2 2809   3.603   2.641   1.071  0.6070  0.5783 -0.2521
  689SOL    HW3 2810   3.543   2.780   1.084  1.4739  0.7789  1.7068
  689SOL    MW4 2811   3.598   2.724   1.046  0.4497  0.7312  0.2719
  690SOL     OW 2812   3.834   2.831   1.160  0.1606  0.3827 -0.2491
  690SOL    HW2 2813   3.816   2.811   1.251  1.2952 -1.3696 -0.3849
  690SOL    HW3 2814   3.773   2.776   1.110 -0.0819  0.9250 -0.5516
  690SOL    MW4 2815   3.824   2.821   1.165  0.2782  0.2234 -0.3068
  691SOL     OW 2816   3.817   3.120   1.139  0.2823 -0.2586  0.0474
  691SOL    HW2 2817   3.805   3.025   1.136 -2.2292  0.0113  0.1557
  691SOL    HW3 2818   3.836   3.144   1.048 -0.8143 -0.6905 -0.3147
  691SOL    MW4 2819   3.818   3.110   1.126 -0.1941 -0.2797  0.0138
  692SOL     OW 2820   3.573   3.234   1.201  0.4355 -0.3960  0.0373
  692SOL    HW2 2821   3.586   3.320   1.161  1.1961 -0.1435  0.8030
  692SOL    HW3 2822   3.655   3.188   1.185  0.1200 -0.8835 -0.1576
  692SOL    MW4 2823   3.586   3.240   1.194  0.4942 -0.4272  0.1125
  693SOL     OW 2824   3.605   3.478   1.068 -0.0583  0.0015 -0.8542
  693SOL    HW2 2825   3.676   3.519   1.117  0.7887  0.7437 -2.6531
  693SOL    HW3 2826   3.632   3.483   0.976 -1.2303 -2.0764 -1.3635
  693SOL    MW4 2827   3.618   3.484   1.062 -0.1011 -0.1745 -1.1587
  694SOL     OW 2828   3.801   3.622   1.197  0.2246  0.1032  0.0548
  694SOL    HW2 2829   3.791   3.652   1.287  0.8141  1.1405 -0.2122
  694SOL    HW3 2830   3.798   3.702   1.144  0.3408 -0.4460 -0.8011
  694SOL    MW4 2831   3.800   3.637   1.201  0.3176  0.1676 -0.0932
  695SOL     OW 2832   3.778   3.866   1.101  0.0989 -0.5194 -0.3673
  695SOL    HW2 2833   3.717   3.926   1.144  0.9920 -0.8408  1.3616
  695SOL    HW3 2834   3.797   3.908   1.017 -2.1418 -0.1956 -0.7426
  695SOL    MW4 2835   3.772   3.880   1.095 -0.0792 -0.5190 -0.1887
  696SOL     OW 2836   3.589   4.085   1.215 -0.0305  0.1292 -0.0113
  696SOL    HW2 2837   3.601   4.089   1.310  0.3725 -0.8360 -0.0162
  696SOL    HW3 2838   3.519   4.022   1.203  0.4894 -0.3706 -0.4004
  696SOL    MW4 2839   3.581   4.077   1.226  0.0916 -0.0639 -0.0633
  697SOL     OW 2840   3.604   4.333   1.084 -0.5252 -0.2216  0.3042
  697SOL    HW2 2841   3.589   4.247   1.124  2.0841 -0.8581 -0.0175
  697SOL    HW3 2842   3.641   4.313   0.998 -0.7486  1.2153 -0.1312
  697SOL    MW4 2843   3.607   4.319   1.078 -0.2103 -0.1163  0.2043
  698SOL     OW 2844   3.827   4.408   1.232 -0.3749  0.0100  0.3917
  698SOL    HW2 2845   3.835   4.377   1.322 -0.0262 -0.2379  0.2768
  698SOL    HW3 2846   3.736   4.392   1.208 -0.5557  0.3917  0.8143
  698SOL    MW4 2847   3.816   4.402   1.241 -0.3526  0.0277  0.4323
  699SOL     OW 2848   4.225   4.631   1.133  0.4391  0.0941  0.0367
  699SOL    HW2 2849   4.213   4.547   1.176 -1.2650 -0.8060 -2.0603
  699SOL    HW3 2850   4.153   4.685   1.166  0.6307  0.2142  0.2505
  699SOL    MW4 2851   4.214   4.627   1.143  0.2394 -0.0086 -0.2117
  700SOL     OW 2852   4.029   0.109   1.234  0.2929  0.0422 -0.2985
  700SOL    HW2 2853   4.029   0.120   1.329  1.9179  1.5690 -0.4412
  700SOL    HW3 2854   3.938   0.093   1.211 -0.1970  0.2279  1.4566
  700SOL    MW4 2855   4.017   0.108   1.244  0.4425  0.2682 -0.0857
  701SOL     OW 2856   4.005   0.380   1.143  0.4652 -0.1608 -0.0148
  701SOL    HW2 2857   4.033   0.297   1.182 -0.6402 -0.4074  0.2545
  701SOL    HW3 2858   4.022   0.369   1.049  0.5890 -0.5888  0.0556
  701SOL    MW4 2859   4.011   0.367   1.136  0.3357 -0.2499  0.0300
  702SOL     OW 2860   4.237   0.517   1.194  0.0339  0.1144  0.0172
  702SOL    HW2 2861   4.251   0.518   1.289 -0.5676 -0.1696  0.1079
  702SOL    HW3 2862   4.151   0.477   1.183 -1.0909  2.5557 -0.5118
  702SOL    MW4 2863   4.228   0.512   1.205 -0.1936  0.3991 -0.0408
  703SOL     OW 2864   4.235   0.775   1.142 -0.0209  0.6537  0.3600
  703SOL    HW2 2865   4.244   0.683   1.166 -1.7561  0.8114  1.7374
  703SOL    HW3 2866   4.238   0.775   1.046 -0.9055 -0.9469  0.3188
  703SOL    MW4 2867   4.236   0.763   1.132 -0.3662  0.4633  0.5363
  704SOL     OW 2868   4.023   0.937   1.218  0.4535 -0.5684 -0.2864
  704SOL    HW2 2869   4.020   0.930   1.313  3.3565  1.6417  0.0413
  704SOL    HW3 2870   4.094   0.878   1.192 -0.8299 -1.7536 -1.1834
  704SOL    MW4 2871   4.032   0.928   1.227  0.6671 -0.4331 -0.3616
  705SOL     OW 2872   4.034   1.221   1.186 -0.1640  0.6469 -0.2139
  705SOL    HW2 2873   4.032   1.126   1.200  0.5881  0.7035  0.2539
  705SOL    HW3 2874   3.942   1.248   1.195 -0.4990 -0.1464 -1.1495
  705SOL    MW4 2875   4.021   1.212   1.189 -0.1082  0.5497 -0.2757
  706SOL     OW 2876   4.282   1.313   1.218 -0.7558  0.1815 -0.1230
  706SOL    HW2 2877   4.307   1.316   1.310  0.0068 -1.2794 -0.2748
  706SOL    HW3 2878   4.193   1.277   1.218 -1.0485  0.9013  0.0900
  706SOL    MW4 2879   4.274   1.309   1.230 -0.6938  0.0837 -0.1149
  707SOL     OW 2880   4.261   1.561   1.114 -0.0147 -0.1652  0.2178
  707SOL    HW2 2881   4.259   1.471   1.145  0.2738  0.0696  0.9102
  707SOL    HW3 2882   4.341   1.599   1.151 -0.3528  0.5026  0.2820
  707SOL    MW4 2883   4.271   1.554   1.123 -0.0215 -0.0460  0.3176
  708SOL     OW 2884   4.023   1.680   1.214 -0.0830  0.4170  0.0900
  708SOL    HW2 2885   4.031   1.661   1.307  2.5095  0.3920 -0.0860
  708SOL    HW3 2886   4.103   1.644   1.175 -1.5276 -0.3494 -2.2779
  708SOL    MW4 2887   4.035   1.673   1.221  0.0682  0.3126 -0.2457
  709SOL     OW 2888   4.035   1.939   1.133  0.1364  0.0257 -0.1222
  709SOL    HW2 2889   4.036   1.846   1.154  1.8187  0.1116  0.2164
  709SOL    HW3 2890   4.021   1.942   1.038  1.4100 -0.6148 -0.3398
  709SOL    MW4 2891   4.033   1.927   1.123  0.5269 -0.0476 -0.1063
  710SOL     OW 2892   4.265   2.046   1.229  0.0357  0.2110 -0.1298
  710SOL    HW2 2893   4.275   2.110   1.158  0.9826  0.1957 -0.0099
  710SOL    HW3 2894   4.180   2.005   1.211 -0.6351  1.5611 -0.1498
  710SOL    MW4 2895   4.255   2.049   1.217  0.0725  0.3870 -0.1166
  711SOL     OW 2896   4.280   2.293   1.073  0.3965  0.1374 -0.3234
  711SOL    HW2 2897   4.200   2.335   1.104 -1.1363 -2.1206 -1.0863
  711SOL    HW3 2898   4.266   2.285   0.978  0.8246 -1.7115 -0.2284
  711SOL    MW4 2899   4.267   2.298   1.064  0.2508 -0.4044 -0.4115
  712SOL     OW 2900   4.073   2.445   1.189  0.1612 -0.2286  0.0390
  712SOL    HW2 2901   4.064   2.452   1.284 -0.3725 -0.4594  0.0106
  712SOL    HW3 2902   4.084   2.536   1.159 -0.2513 -0.1007  0.2696
  712SOL    MW4 2903   4.073   2.458   1.197  0.0362 -0.2420  0.0657
  713SOL     OW 2904   4.099   2.706   1.102 -0.1908  0.9003  0.2863
  713SOL    HW2 2905   4.013   2.744   1.120 -0.6415 -0.1044  0.3051
  713SOL    HW3 2906   4.108   2.711   1.007 -1.0753 -0.6822  0.1097
  713SOL    MW4 2907   4.088   2.712   1.092 -0.3667  0.5591  0.2656
  714SOL     OW 2908   4.336   2.823   1.216  0.1977 -0.2974  0.0462
  714SOL    HW2 2909   4.319   2.912   1.187  1.6480  0.2178  0.6926
  714SOL    HW3 2910   4.254   2.776   1.202 -0.5585  1.1264 -0.3480
  714SOL    MW4 2911   4.323   2.829   1.210  0.2894 -0.0415  0.0794
  715SOL     OW 2912   4.273   3.066   1.095  0.0028 -0.2397 -0.1576
  715SOL    HW2 2913   4.194   3.113   1.120 -0.5534 -1.9566  1.3984
  715SOL    HW3 2914   4.275   3.071   0.999 -1.2238  1.0119 -0.1295
  715SOL    MW4 2915   4.263   3.073   1.085 -0.2322 -0.3011  0.0514
  716SOL     OW 2916   4.057   3.227   1.204  0.0676  0.2933 -0.1809
  716SOL    HW2 2917   4.061   3.236   1.299 -0.8835 -0.4789 -0.0599
  716SOL    HW3 2918   3.973   3.183   1.187  0.7581 -0.6435 -1.2860
  716SOL    MW4 2919   4.046   3.222   1.214  0.0334  0.0677 -0.3108
  717SOL     OW 2920   4.027   3.501   1.109  0.2897  0.3659 -0.1280
  717SOL    HW2 2921   4.031   3.411   1.141 -0.2771  0.0309 -0.9917
  717SOL    HW3 2922   3.953   3.540   1.155 -0.0298  0.1252 -0.4448
  717SOL    MW4 2923   4.018   3.494   1.119  0.1726  0.2897 -0.2836
  718SOL     OW 2924   4.255   3.617   1.223  0.3041 -0.0362 -0.0914
  718SOL    HW2 2925   4.185   3.564   1.184  0.5291 -1.1186  0.9228
  718SOL    HW3 2926   4.335   3.569   1.203  0.4353 -0.5200  1.5271
  718SOL    MW4 2927   4.256   3.603   1.216  0.3519 -0.2429  0.2559
  719SOL     OW 2928   4.257   3.891   1.151 -0.0418 -0.0788  0.1529
  719SOL    HW2 2929   4.174   3.932   1.175  0.0268  0.3941 -0.4057
  719SOL    HW3 2930   4.246   3.799   1.174 -0.8287 -0.0754 -0.2025
  719SOL    MW4 2931   4.244   3.885   1.157 -0.1359 -0.0160  0.0324
  720SOL     OW 2932   4.001   4.004   1.199  0.2005  0.2015 -0.3246
  720SOL    HW2 2933   3.995   4.086   1.150 -2.1715  0.4668  0.3382
  720SOL    HW3 2934   3.930   3.950   1.164 -0.9303  0.0376  2.1083
  720SOL    MW4 2935   3.990   4.007   1.188 -0.2613  0.2146  0.0839
  721SOL     OW 2936   3.989   4.257   1.068 -0.0844  0.7795 -0.4816
  721SOL    HW2 2937   3.913   4.303   1.103 -0.1040  1.7696 -1.7880
  721SOL    HW3 2938   3.986   4.273   0.974  1.6448  0.7053 -0.5762
  721SOL    MW4 2939   3.979   4.265   1.060  0.1411  0.9003 -0.6665
  722SOL     OW 2940   4.182   4.374   1.232  0.1166 -0.0741  0.2168
  722SOL    HW2 2941   4.111   4.332   1.183  0.3073 -1.9636  1.4877
  722SOL    HW3 2942   4.262   4.335   1.196  0.3098 -0.5687  1.1574
  722SOL    MW4 2943   4.183   4.363   1.221  0.1678 -0.3886  0.5087
  723SOL     OW 2944   0.203   4.638   1.594  0.0999  0.9423 -0.0376
  723SOL    HW2 2945   0.286   4.687   1.591 -0.4970  1.9014 -2.3335
  723SOL    HW3 2946   0.143   4.691   1.543 -1.0301 -1.3820 -1.1828
  723SOL    MW4 2947   0.206   4.651   1.587 -0.1279  0.7620 -0.4916
  724SOL     OW 2948   0.001   0.134   1.479 -0.1804 -0.2143 -0.2928
  724SOL    HW2 2949  -0.081   0.093   1.507 -0.6007  1.1893  0.5822
  724SOL    HW3 2950  -0.006   0.136   1.383 -0.5569 -1.3221 -0.3032
  724SOL    MW4 2951  -0.011   0.129   1.470 -0.2851 -0.1753 -0.1788
  725SOL     OW 2952   4.482   0.392   1.570  0.1460 -0.3134 -0.4618
  725SOL    HW2 2953   4.478   0.383   1.665 -2.2427  0.6212 -0.4465
  725SOL    HW3 2954   4.479   0.302   1.538 -0.2910 -0.5844  0.3113
  725SOL    MW4 2955   4.481   0.379   1.578 -0.2270 -0.2258 -0.3577
  726SOL     OW 2956   0.218   0.522   1.490  0.0546 -0.2076 -0.1743
  726SOL    HW2 2957   0.142   0.475   1.525 -0.1113 -0.6380 -1.0736
  726SOL    HW3 2958   0.218   0.499   1.397  1.7447 -0.8345 -0.0316
  726SOL    MW4 2959   0.208   0.513   1.482  0.2557 -0.3471 -0.2742
  727SOL     OW 2960   0.213   0.764   1.621 -0.4658  0.4136 -0.0877
  727SOL    HW2 2961   0.297   0.802   1.592  0.7693 -0.8680  1.7126
  727SOL    HW3 2962   0.209   0.679   1.577 -1.1467  0.7502 -0.6819
  727SOL    MW4 2963   0.224   0.758   1.611 -0.3927  0.2889  0.0714
  728SOL     OW 2964   4.473   0.870   1.498 -0.8855  0.1981  0.1445
  728SOL    HW2 2965   4.470   0.956   1.540 -1.6279 -0.8303  2.2258
  728SOL    HW3 2966   4.557   0.833   1.524 -0.6480  0.1973 -0.6008
  728SOL    MW4 2967   4.484   0.877   1.507 -0.9521  0.0623  0.3208
  729SOL     OW 2968   4.487   1.110   1.611  0.1950 -0.5669 -0.2933
  729SOL    HW2 2969   4.490   1.115   1.707 -1.5663  0.1241 -0.2563
  729SOL    HW3 2970   4.566   1.156   1.582 -0.5488  1.4420  0.7743
  729SOL    MW4 2971   4.498   1.117   1.620 -0.1355 -0.2108 -0.1476
  730SOL     OW 2972   0.222   1.277   1.527  0.0685  0.1570 -0.1337
  730SOL    HW2 2973   0.230   1.370   1.550 -1.0310  0.1383  0.3326
  730SOL    HW3 2974   0.227   1.276   1.431 -2.3327  0.9579 -0.2898
  730SOL    MW4 2975   0.224   1.289   1.517 -0.3934  0.2602 -0.0927
  731SOL     OW 2976   0.248   1.551   1.579  0.0991 -0.3491  0.3639
  731SOL    HW2 2977   0.221   1.540   1.670  2.0769  1.8631  1.2519
  731SOL    HW3 2978   0.176   1.600   1.539  0.2486  0.6786  1.3233
  731SOL    MW4 2979   0.235   1.556   1.586  0.3798  0.0784  0.6077
  732SOL     OW 2980   0.023   1.671   1.472  0.0146  0.3032 -0.3037
  732SOL    HW2 2981  -0.011   1.753   1.506 -0.6822  0.1893 -0.6939
  732SOL    HW3 2982   0.017   1.681   1.377 -2.3022 -1.0739 -0.3509
  732SOL    MW4 2983   0.017   1.683   1.464 -0.3830  0.1066 -0.3614
  733SOL     OW 2984   4.424   1.906   1.564 -0.0406  0.4970  0.1502
  733SOL    HW2 2985   4.429   1.911   1.659  0.5226 -0.2887  0.1628
  733SOL    HW3 2986   4.352   1.965   1.541 -0.3421  0.5002  1.0810
  733SOL    MW4 2987   4.415   1.915   1.573 -0.0062  0.3937  0.2747
  734SOL     OW 2988   0.164   2.050   1.494 -0.2586  0.1361  0.2269
  734SOL    HW2 2989   0.086   1.998   1.512 -0.2974  0.0020 -0.3141
  734SOL    HW3 2990   0.167   2.057   1.398  0.4246  0.0942  0.2422
  734SOL    MW4 2991   0.154   2.044   1.483 -0.1736  0.1130  0.1576
  735SOL     OW 2992   0.178   2.324   1.588  0.2858  0.1311 -0.1959
  735SOL    HW2 2993   0.184   2.318   1.683  0.2417 -0.8979 -0.2561
  735SOL    HW3 2994   0.157   2.235   1.559 -1.7667  0.8328 -1.0056
  735SOL    MW4 2995   0.176   2.311   1.596  0.0092  0.0877 -0.3107
  736SOL     OW 2996   0.001   2.523   1.458  0.0778  0.0616 -0.4113
  736SOL    HW2 2997  -0.084   2.481   1.467  0.0137  0.0369 -1.0599
  736SOL    HW3 2998   0.065   2.455   1.479 -0.0403 -0.2104 -0.9080
  736SOL    MW4 2999  -0.001   2.509   1.462  0.0539  0.0222 -0.5624
  737SOL     OW 3000   0.011   2.753   1.619 -0.1679  0.5923 -0.4374
  737SOL    HW2 3001  -0.071   2.795   1.591 -1.9318 -1.2984  1.7038
  737SOL    HW3 3002   0.013   2.671   1.571  1.1997  1.2250 -1.4980
  737SOL    MW4 3003   0.000   2.748   1.609 -0.2202  0.4265 -0.2947
  738SOL     OW 3004   0.223   2.875   1.489 -0.1168 -0.3324  0.2894
  738SOL    HW2 3005   0.294   2.817   1.516 -0.7336 -0.9835  0.5518
  738SOL    HW3 3006   0.144   2.834   1.525 -0.6820  0.0943 -0.4438
  738SOL    MW4 3007   0.222   2.862   1.497 -0.2727 -0.3619  0.2273
  739SOL     OW 3008   0.281   3.138   1.584 -0.0570 -0.0961  0.0156
  739SOL    HW2 3009   0.196   3.168   1.552  0.5550  0.7994 -0.7607
  739SOL    HW3 3010   0.287   3.047   1.554  0.0236  0.3845 -1.4445
  739SOL    MW4 3011   0.270   3.130   1.576  0.0344  0.0854 -0.2794
  740SOL     OW 3012   0.042   3.220   1.484 -0.2853 -0.3116  0.3515
  740SOL    HW2 3013   0.056   3.309   1.514  0.1500 -0.6375  1.1292
  740SOL    HW3 3014   0.029   3.228   1.389 -0.5231  0.5977  0.4592
  740SOL    MW4 3015   0.042   3.232   1.475 -0.2593 -0.2348  0.4684
  741SOL     OW 3016   0.020   3.484   1.585 -0.9178 -0.0286 -0.2205
  741SOL    HW2 3017   0.014   3.487   1.681  1.2036  1.9527 -0.1250
  741SOL    HW3 3018  -0.058   3.531   1.555 -1.0398  0.2454  0.5168
  741SOL    MW4 3019   0.009   3.490   1.594 -0.6540  0.2692 -0.1107
  742SOL     OW 3020   0.245   3.642   1.533 -0.3363  0.1261 -0.5591
  742SOL    HW2 3021   0.229   3.730   1.567 -1.6196  0.1141 -1.0724
  742SOL    HW3 3022   0.170   3.591   1.564  0.3314 -0.7477 -0.3815
  742SOL    MW4 3023   0.233   3.647   1.541 -0.4175  0.0091 -0.6034
  743SOL     OW 3024   0.188   3.888   1.631  0.2161 -0.0424 -0.2608
  743SOL    HW2 3025   0.192   3.908   1.725  1.1067  2.6981 -0.8393
  743SOL    HW3 3026   0.264   3.934   1.594 -0.4307 -0.6520 -2.3914
  743SOL    MW4 3027   0.198   3.897   1.639  0.2482  0.2391 -0.6182
  744SOL     OW 3028   4.453   3.989   1.532 -0.2889  0.1426 -0.0481
  744SOL    HW2 3029   4.463   4.084   1.542 -1.8303  0.2843  0.2709
  744SOL    HW3 3030   4.529   3.952   1.576  0.5003  1.2391 -0.4557
  744SOL    MW4 3031   4.464   3.997   1.539 -0.3881  0.3059 -0.0597
  745SOL     OW 3032   4.481   4.270   1.574 -0.2104  0.1088 -0.1869
  745SOL    HW2 3033   4.493   4.262   1.668 -0.6677  0.3801 -0.1021
  745SOL    HW3 3034   4.391   4.302   1.564 -0.1704  0.0661 -0.7131
  745SOL    MW4 3035   4.470   4.273   1.585 -0.2651  0.1392 -0.2451
  746SOL     OW 3036   0.208   4.410   1.452 -0.0606 -0.4071  0.1483
  746SOL    HW2 3037   0.132   4.368   1.492  0.2553 -0.8714  0.2684
  746SOL    HW3 3038   0.212   4.497   1.492 -0.4960 -0.3980  0.1762
  746SOL    MW4 3039   0.199   4.416   1.462 -0.0764 -0.4668  0.1678
  747SOL     OW 3040   0.691   4.624   1.604 -0.3125 -0.0520 -0.0840
  747SOL    HW2 3041   0.752   4.684   1.562  0.8594 -1.1547  0.0357
  747SOL    HW3 3042   0.604   4.658   1.580  0.3409  0.7623 -1.3256
  747SOL    MW4 3043   0.687   4.636   1.595 -0.0716 -0.0906 -0.2321
  748SOL     OW 3044   0.454   0.114   1.518  0.1689 -0.1721  0.3112
  748SOL    HW2 3045   0.457   0.205   1.550 -2.1421 -0.7905  2.4476
  748SOL    HW3 3046   0.432   0.122   1.426 -0.3057  1.4312  0.5377
  748SOL    MW4 3047   0.452   0.127   1.510 -0.1986 -0.0422  0.6230
  749SOL     OW 3048   0.429   0.385   1.593  0.4317 -0.5059 -0.3919
  749SOL    HW2 3049   0.504   0.420   1.546 -0.6525  0.3595 -1.4991
  749SOL    HW3 3050   0.356   0.443   1.571 -0.4831 -1.0691  1.0061
  749SOL    MW4 3051   0.429   0.397   1.584  0.1680 -0.4660 -0.3535
  750SOL     OW 3052   0.652   0.506   1.488  0.3169 -0.1924  0.2400
  750SOL    HW2 3053   0.669   0.586   1.537 -1.6292  0.3373  0.0958
  750SOL    HW3 3054   0.659   0.532   1.396  3.1783 -1.0057  0.2018
  750SOL    MW4 3055   0.655   0.520   1.482  0.4377 -0.2298  0.2158
  751SOL     OW 3056   0.640   0.757   1.624 -0.5156  0.2896 -0.0001
  751SOL    HW2 3057   0.636   0.762   1.720 -0.2962  0.1491  0.0181
  751SOL    HW3 3058   0.711   0.816   1.600 -1.1074  0.9488 -0.1379
  751SOL    MW4 3059   0.649   0.765   1.633 -0.5648  0.3580 -0.0159
  752SOL     OW 3060   0.441   0.912   1.522 -0.3125 -0.1023 -0.3316
  752SOL    HW2 3061   0.434   0.988   1.581 -1.5665  0.8056 -1.6066
  752SOL    HW3 3062   0.509   0.857   1.561  1.5039  2.2776 -0.0350
  752SOL    MW4 3063   0.449   0.915   1.535 -0.2382  0.3314 -0.4606
  753SOL     OW 3064   0.440   1.171   1.615 -0.0869  0.1978  0.3452
  753SOL    HW2 3065   0.517   1.209   1.573  0.3027 -2.1906 -1.1850
  753SOL    HW3 3066   0.366   1.219   1.577  0.4344 -0.0184 -0.9874
  753SOL    MW4 3067   0.440   1.182   1.604  0.0333 -0.1459 -0.0324
  754SOL     OW 3068   0.659   1.276   1.481 -0.4239 -0.2643 -0.2541
  754SOL    HW2 3069   0.672   1.370   1.493  0.7975 -0.2944 -1.1545
  754SOL    HW3 3070   0.664   1.264   1.386 -0.8891 -1.2014 -0.1610
  754SOL    MW4 3071   0.662   1.287   1.470 -0.3241 -0.3920 -0.3607
  755SOL     OW 3072   0.692   1.542   1.562  0.0678  0.0341 -0.1384
  755SOL    HW2 3073   0.765   1.578   1.512 -0.4883  0.4465 -0.6560
  755SOL    HW3 3074   0.619   1.602   1.545 -0.4482 -0.4901  0.2163
  755SOL    MW4 3075   0.692   1.555   1.553 -0.0737  0.0193 -0.1600
  756SOL     OW 3076   0.467   1.689   1.484 -0.3914 -0.1272 -0.0150
  756SOL    HW2 3077   0.455   1.776   1.520  0.6782  0.2730 -0.6070
  756SOL    HW3 3078   0.397   1.637   1.524 -1.8237  1.2802 -0.6195
  756SOL    MW4 3079   0.456   1.693   1.494 -0.4393  0.1111 -0.1730
  757SOL     OW 3080   0.404   1.941   1.590 -0.1505  0.7350  0.1092
  757SOL    HW2 3081   0.381   1.940   1.683  0.1406  0.4063  0.1750
  757SOL    HW3 3082   0.334   1.993   1.549 -1.4701 -0.9706  0.1832
  757SOL    MW4 3083   0.392   1.948   1.597 -0.2862  0.4666  0.1278
  758SOL     OW 3084   0.666   2.065   1.485 -0.0241 -0.4780  0.4385
  758SOL    HW2 3085   0.738   2.014   1.522  0.0948 -0.5736  0.0759
  758SOL    HW3 3086   0.588   2.028   1.524  0.1784  0.1626  1.4629
  758SOL    MW4 3087   0.665   2.054   1.495  0.0183 -0.4063  0.5258
  759SOL     OW 3088   0.693   2.324   1.618  0.0528 -0.1787 -0.0895
  759SOL    HW2 3089   0.604   2.358   1.610 -0.2860 -0.9264  0.5099
  759SOL    HW3 3090   0.686   2.232   1.594  0.4221 -0.5713  1.2653
  759SOL    MW4 3091   0.680   2.317   1.614  0.0569 -0.3293  0.1683
  760SOL     OW 3092   0.433   2.422   1.547  0.7069 -0.3386 -0.1400
  760SOL    HW2 3093   0.422   2.513   1.576 -0.0947 -0.6510  0.5535
  760SOL    HW3 3094   0.345   2.385   1.551  0.8003 -0.7816 -1.6712
  760SOL    MW4 3095   0.420   2.429   1.551  0.6135 -0.4382 -0.2506
  761SOL     OW 3096   0.457   2.712   1.574 -0.2624  0.0729 -0.3725
  761SOL    HW2 3097   0.460   2.728   1.668  1.3991  1.1310 -0.5815
  761SOL    HW3 3098   0.537   2.753   1.540 -0.5658 -0.7613 -2.1678
  761SOL    MW4 3099   0.468   2.719   1.582 -0.0832  0.1025 -0.6368
  762SOL     OW 3100   0.686   2.834   1.459 -0.4542 -0.2142  0.1071
  762SOL    HW2 3101   0.677   2.928   1.476  1.4930 -0.0828  0.4280
  762SOL    HW3 3102   0.701   2.829   1.364  2.8672  0.0616  0.5854
  762SOL    MW4 3103   0.687   2.846   1.448  0.2409 -0.1607  0.2126
  763SOL     OW 3104   0.670   3.087   1.545 -0.0787 -0.3770  0.2238
  763SOL    HW2 3105   0.751   3.139   1.542 -0.2323 -0.1672 -0.1666
  763SOL    HW3 3106   0.603   3.143   1.506  0.2118 -1.7036 -2.2783
  763SOL    MW4 3107   0.672   3.101   1.540 -0.0606 -0.5245 -0.1578
  764SOL     OW 3108   0.472   3.264   1.447 -0.3824 -0.1128  0.1275
  764SOL    HW2 3109   0.396   3.219   1.485 -0.1850 -0.1107  0.5229
  764SOL    HW3 3110   0.468   3.243   1.354 -0.7981 -0.2177  0.1686
  764SOL    MW4 3111   0.461   3.256   1.440 -0.4112 -0.1264  0.1851
  765SOL     OW 3112   0.485   3.497   1.614 -0.3928 -0.2468 -0.0225
  765SOL    HW2 3113   0.474   3.418   1.562  1.4607  0.2573 -1.2371
  765SOL    HW3 3114   0.406   3.548   1.598 -0.4934 -0.7639 -1.1824
  765SOL    MW4 3115   0.473   3.494   1.605 -0.1616 -0.2484 -0.3358
  766SOL     OW 3116   0.712   3.641   1.520  0.1817  0.1754  0.1170
  766SOL    HW2 3117   0.783   3.581   1.545  0.8117  0.0401 -1.8672
  766SOL    HW3 3118   0.633   3.601   1.558  1.0212 -0.1722  1.5612
  766SOL    MW4 3119   0.711   3.628   1.528  0.3755  0.1118  0.0459
  767SOL     OW 3120   0.674   3.908   1.576  0.0944  0.4201 -0.0003
  767SOL    HW2 3121   0.742   3.955   1.528  0.1910 -0.1924 -0.4660
  767SOL    HW3 3122   0.690   3.816   1.556  1.1042  0.0130  2.4442
  767SOL    MW4 3123   0.685   3.902   1.567  0.2404  0.2856  0.2606
  768SOL     OW 3124   0.409   4.003   1.530  0.3680 -0.6463 -0.1949
  768SOL    HW2 3125   0.501   3.978   1.535  0.0973 -1.4685  0.6958
  768SOL    HW3 3126   0.391   4.008   1.436  1.9047  1.7095 -0.4130
  768SOL    MW4 3127   0.419   4.000   1.518  0.5351 -0.4439 -0.1061
  769SOL     OW 3128   0.442   4.289   1.569  0.2274 -0.1675  0.4640
  769SOL    HW2 3129   0.432   4.195   1.553 -0.9163  0.0086  0.1062
  769SOL    HW3 3130   0.379   4.330   1.509  0.6179  0.8182  0.7229
  769SOL    MW4 3131   0.432   4.282   1.559  0.1280 -0.0138  0.4510
  770SOL     OW 3132   0.687   4.380   1.478 -0.5695  0.2245 -0.2146
  770SOL    HW2 3133   0.605   4.338   1.505 -0.3914 -0.3290 -0.5296
  770SOL    HW3 3134   0.685   4.466   1.520 -0.1496 -0.7377  1.8579
  770SOL    MW4 3135   0.676   4.385   1.487 -0.4906  0.0243  0.0173
  771SOL     OW 3136   1.094   4.651   1.556 -0.0455  0.5790 -0.1788
  771SOL    HW2 3137   1.096   4.653   1.652 -0.0400 -2.1412 -0.1041
  771SOL    HW3 3138   1.169   4.704   1.530  0.0342  1.2350  1.3063
  771SOL    MW4 3139   1.104   4.658   1.566 -0.0343  0.3066  0.0271
  772SOL     OW 3140   0.865   0.111   1.462 -0.0300  0.1506  0.6671
  772SOL    HW2 3141   0.873   0.196   1.504  2.1734  1.5926 -2.4917
  772SOL    HW3 3142   0.943   0.063   1.489 -0.1772 -0.0800  0.6862
  772SOL    MW4 3143   0.876   0.116   1.471  0.2413  0.3105  0.2530
  773SOL     OW 3144   0.892   0.381   1.583  0.0026  0.0391  0.9930
  773SOL    HW2 3145   0.892   0.381   1.678 -0.1155  2.1393  1.0129
  773SOL    HW3 3146   0.811   0.426   1.558  0.1715 -0.2388 -0.0943
  773SOL    MW4 3147   0.881   0.386   1.592  0.0093  0.2795  0.8522
  774SOL     OW 3148   1.120   0.502   1.460 -0.4549  0.0866  0.2183
  774SOL    HW2 3149   1.113   0.589   1.499 -2.2917 -0.4037  1.0081
  774SOL    HW3 3150   1.049   0.452   1.499  0.5555 -1.7672 -0.2729
  774SOL    MW4 3151   1.110   0.507   1.470 -0.5639 -0.2227  0.2580
  775SOL     OW 3152   1.105   0.762   1.584  0.0574 -0.3903  0.6505
  775SOL    HW2 3153   1.111   0.750   1.679  0.2400 -1.6370  0.4838
  775SOL    HW3 3154   1.191   0.796   1.560  0.4610 -1.3457  0.7433
  775SOL    MW4 3155   1.117   0.765   1.594  0.1347 -0.6809  0.6406
  776SOL     OW 3156   0.875   0.877   1.539  0.1097 -0.0880  0.2162
  776SOL    HW2 3157   0.957   0.831   1.557  1.3391  1.8068 -0.4106
  776SOL    HW3 3158   0.876   0.891   1.444 -0.8106  0.1911  0.2457
  776SOL    MW4 3159   0.886   0.873   1.529  0.1505  0.1988  0.1374
  777SOL     OW 3160   0.890   1.144   1.621  0.1706 -0.0891 -0.2055
  777SOL    HW2 3161   0.885   1.053   1.591 -0.4267  0.1830 -0.9552
  777SOL    HW3 3162   0.817   1.188   1.576  0.2312  0.6744  0.4406
  777SOL    MW4 3163   0.880   1.138   1.611  0.0998  0.0474 -0.2191
  778SOL     OW 3164   1.099   1.282   1.467 -0.0050 -0.3525  0.0647
  778SOL    HW2 3165   1.184   1.244   1.490  0.5791 -0.3379 -2.0023
  778SOL    HW3 3166   1.035   1.220   1.502  0.8541 -0.8751  0.7411
  778SOL    MW4 3167   1.102   1.269   1.475  0.1854 -0.4195 -0.1187
  779SOL     OW 3168   1.090   1.531   1.582 -0.2477 -0.0724 -0.5543
  779SOL    HW2 3169   1.176   1.568   1.561  0.9530 -1.5317  1.6707
  779SOL    HW3 3170   1.087   1.449   1.533 -0.4208  0.0339 -0.7213
  779SOL    MW4 3171   1.101   1.525   1.572 -0.1122 -0.2509 -0.2829
  780SOL     OW 3172   0.906   1.681   1.435  0.7104  0.4934  0.2039
  780SOL    HW2 3173   0.976   1.634   1.481  0.3411  0.7972  1.0872
  780SOL    HW3 3174   0.925   1.666   1.342  1.0744 -0.6988  0.4578
  780SOL    MW4 3175   0.918   1.673   1.429  0.7097  0.3761  0.3539
  781SOL     OW 3176   0.876   1.935   1.581  0.0065 -0.3693 -0.2264
  781SOL    HW2 3177   0.959   1.983   1.578  0.7847 -1.6194  0.4426
  781SOL    HW3 3178   0.885   1.868   1.513 -0.5645 -0.3341 -0.3350
  781SOL    MW4 3179   0.888   1.932   1.572  0.0339 -0.5295 -0.1523
  782SOL     OW 3180   1.133   2.027   1.546 -0.3177  0.4059 -0.3468
  782SOL    HW2 3181   1.218   1.987   1.564  0.4667  1.3135 -1.9285
  782SOL    HW3 3182   1.142   2.118   1.575 -0.6659  0.5639 -0.7295
  782SOL    MW4 3183   1.145   2.034   1.552 -0.2601  0.5467 -0.6061
  783SOL     OW 3184   1.120   2.294   1.572  0.2620  0.3363  0.0016
  783SOL    HW2 3185   1.187   2.342   1.524  0.5890  0.0882  0.2084
  783SOL    HW3 3186   1.037   2.329   1.540  0.4886  0.5172 -0.3829
  783SOL    MW4 3187   1.118   2.305   1.562  0.3352  0.3273 -0.0218
  784SOL     OW 3188   0.910   2.438   1.468 -0.1615 -0.0884  0.0024
  784SOL    HW2 3189   0.905   2.527   1.505  0.2431 -0.4322  0.8923
  784SOL    HW3 3190   0.835   2.392   1.507  0.0946 -0.3645  0.1720
  784SOL    MW4 3191   0.900   2.444   1.478 -0.0743 -0.1702  0.1423
  785SOL     OW 3192   0.901   2.699   1.592 -0.0812 -0.0184 -0.0098
  785SOL    HW2 3193   0.879   2.671   1.681  0.6261 -1.9438 -0.4203
  785SOL    HW3 3194   0.822   2.744   1.561 -0.2765  0.8252  1.6227
  785SOL    MW4 3195   0.888   2.702   1.599 -0.0137 -0.1612  0.1515
  786SOL     OW 3196   1.136   2.821   1.490 -0.0057  0.4983  0.3174
  786SOL    HW2 3197   1.134   2.916   1.499  0.2456  0.6031 -0.6384
  786SOL    HW3 3198   1.055   2.791   1.531  0.2507  1.0638  1.2487
  786SOL    MW4 3199   1.125   2.830   1.497  0.0613  0.5867  0.3142
  787SOL     OW 3200   1.125   3.086   1.581  0.2710  0.1597 -0.1351
  787SOL    HW2 3201   1.127   3.088   1.677 -2.4520 -0.1958 -0.0307
  787SOL    HW3 3202   1.207   3.128   1.555  1.1605  0.0828  2.3392
  787SOL    MW4 3203   1.136   3.092   1.590  0.0291  0.1028  0.2052
  788SOL     OW 3204   0.894   3.210   1.495 -0.0968 -0.2588 -0.5367
  788SOL    HW2 3205   0.974   3.170   1.527 -0.7880 -0.6531  0.7394
  788SOL    HW3 3206   0.893   3.189   1.401  0.9939 -0.7362 -0.4520
  788SOL    MW4 3207   0.904   3.202   1.487 -0.0442 -0.3738 -0.3572
  789SOL     OW 3208   0.921   3.475   1.591  0.2087 -0.0609 -0.2651
  789SOL    HW2 3209   1.005   3.494   1.549  0.3089  1.9103  0.7793
  789SOL    HW3 3210   0.902   3.384   1.567  1.9574 -0.0775 -1.6544
  789SOL    MW4 3211   0.929   3.465   1.583  0.4526  0.1967 -0.3105
  790SOL     OW 3212   1.164   3.579   1.483  0.1073  0.3660  0.0672
  790SOL    HW2 3213   1.250   3.564   1.521 -0.4900  0.2018  1.3837
  790SOL    HW3 3214   1.180   3.585   1.389  1.3545 -1.0895  0.1697
  790SOL    MW4 3215   1.177   3.578   1.476  0.1930  0.1526  0.2544
  791SOL     OW 3216   1.109   3.838   1.569 -0.4685  0.2838 -0.0947
  791SOL    HW2 3217   1.180   3.882   1.522 -0.1258  0.7468  0.8357
  791SOL    HW3 3218   1.117   3.746   1.543  0.4272  0.3415 -0.0620
  791SOL    MW4 3219   1.120   3.832   1.560 -0.3051  0.3529  0.0323
  792SOL     OW 3220   0.902   4.012   1.464  0.5124  0.1531 -0.0006
  792SOL    HW2 3221   0.902   4.101   1.498 -0.3963 -0.3172  1.2569
  792SOL    HW3 3222   0.977   3.970   1.505 -0.6957 -0.4711  1.6370
  792SOL    MW4 3223   0.912   4.018   1.474  0.2331  0.0086  0.3814
  793SOL     OW 3224   0.917   4.259   1.564 -0.1096 -0.4817  0.1127
  793SOL    HW2 3225   0.924   4.269   1.659 -1.4190 -0.4724  0.2134
  793SOL    HW3 3226   0.841   4.311   1.540  1.9681  2.0152 -1.3504
  793SOL    MW4 3227   0.908   4.267   1.573 -0.0083 -0.1507 -0.0670
  794SOL     OW 3228   1.155   4.408   1.435 -0.8782 -0.1099 -0.4203
  794SOL    HW2 3229   1.091   4.354   1.482 -1.2328  0.6153 -0.0657
  794SOL    HW3 3230   1.141   4.496   1.469  1.0435 -0.1139  0.4760
  794SOL    MW4 3231   1.145   4.412   1.446 -0.6713 -0.0143 -0.2551
  795SOL     OW 3232   1.538   4.599   1.523  0.0524  0.0510 -0.2813
  795SOL    HW2 3233   1.543   4.601   1.618  2.8050  0.5381 -0.4112
  795SOL    HW3 3234   1.470   4.663   1.501  1.6477  2.3457  1.2340
  795SOL    MW4 3235   1.529   4.607   1.533  0.6261  0.4182 -0.0986
  796SOL     OW 3236   1.335   0.117   1.463 -0.3626  0.0977 -0.0233
  796SOL    HW2 3237   1.333   0.203   1.506  2.2135  0.3447 -0.3467
  796SOL    HW3 3238   1.340   0.138   1.369  0.0721 -0.4104 -0.1119
  796SOL    MW4 3239   1.335   0.131   1.456  0.0346  0.0633 -0.0777
  797SOL     OW 3240   1.312   0.349   1.579 -0.1965  0.1500 -0.0831
  797SOL    HW2 3241   1.385   0.407   1.555 -0.8289  1.0475  0.1534
  797SOL    HW3 3242   1.233   0.400   1.559 -0.7549  0.6992  3.2706
  797SOL    MW4 3243   1.311   0.363   1.573 -0.3536  0.3409  0.3906
  798SOL     OW 3244   1.552   0.479   1.518 -0.0884  0.2508  0.2560
  798SOL    HW2 3245   1.629   0.427   1.539 -1.0620 -1.8404 -1.1802
  798SOL    HW3 3246   1.553   0.485   1.423 -1.0522  1.2382  0.3025
  798SOL    MW4 3247   1.562   0.473   1.508 -0.3440  0.1052  0.0726
  799SOL     OW 3248   1.592   0.751   1.573 -0.1606  0.3407  0.1914
  799SOL    HW2 3249   1.581   0.753   1.668 -1.8307 -0.3409  0.0236
  799SOL    HW3 3250   1.585   0.659   1.549 -3.0500  0.8195 -0.9560
  799SOL    MW4 3251   1.590   0.739   1.582 -0.7621  0.3140  0.0179
  800SOL     OW 3252   1.351   0.861   1.483 -0.1695  0.2730  0.5072
  800SOL    HW2 3253   1.433   0.820   1.508  0.2984  0.2711 -0.9546
  800SOL    HW3 3254   1.362   0.881   1.390 -2.2794 -0.8565 -0.0235
  800SOL    MW4 3255   1.363   0.858   1.474 -0.3860  0.1237  0.2443
  801SOL     OW 3256   1.346   1.146   1.560 -0.2253 -0.0128 -0.3814
  801SOL    HW2 3257   1.334   1.162   1.653 -2.9301 -0.5133 -0.6117
  801SOL    HW3 3258   1.329   1.052   1.549 -0.7512  0.1990 -1.4923
  801SOL    MW4 3259   1.342   1.135   1.571 -0.6515 -0.0509 -0.5584
  802SOL     OW 3260   1.606   1.250   1.516  0.2688  0.3360 -0.6890
  802SOL    HW2 3261   1.521   1.211   1.536  0.1386  0.4226 -1.0771
  802SOL    HW3 3262   1.605   1.263   1.422  1.0988 -0.5783 -0.8344
  802SOL    MW4 3263   1.595   1.246   1.506  0.3612  0.2267 -0.7592
  803SOL     OW 3264   1.597   1.529   1.582 -0.2318 -0.2278  0.1084
  803SOL    HW2 3265   1.599   1.526   1.678 -0.7261  1.4133  0.1785
  803SOL    HW3 3266   1.596   1.437   1.556  0.4239 -0.6966  1.6621
  803SOL    MW4 3267   1.597   1.516   1.591 -0.2105 -0.0732  0.3226
  804SOL     OW 3268   1.348   1.638   1.495 -0.1938  0.2029  0.1260
  804SOL    HW2 3269   1.428   1.608   1.539  0.2727  0.2145 -0.6977
  804SOL    HW3 3270   1.372   1.642   1.402 -1.7018 -1.5203 -0.3503
  804SOL    MW4 3271   1.362   1.635   1.489 -0.3313 -0.0229 -0.0455
  805SOL     OW 3272   1.388   1.912   1.599  0.6580  0.1567 -0.1550
  805SOL    HW2 3273   1.377   1.912   1.694  0.0259 -1.2379 -0.2177
  805SOL    HW3 3274   1.371   1.822   1.573  0.1466  0.6812 -1.6721
  805SOL    MW4 3275   1.384   1.900   1.608  0.5070  0.0417 -0.3636
  806SOL     OW 3276   1.587   2.067   1.476  0.0108  0.4155 -0.3124
  806SOL    HW2 3277   1.525   2.008   1.519 -0.0032  0.6048 -0.0754
  806SOL    HW3 3278   1.588   2.038   1.384 -0.0569  0.0987 -0.2130
  806SOL    MW4 3279   1.579   2.055   1.469  0.0001  0.3989 -0.2680
  807SOL     OW 3280   1.546   2.324   1.561  0.6444  0.5150 -0.0716
  807SOL    HW2 3281   1.628   2.369   1.536  0.8861  0.0630 -0.0891
  807SOL    HW3 3282   1.559   2.234   1.533 -0.1973  0.6270 -0.8203
  807SOL    MW4 3283   1.559   2.318   1.554  0.5652  0.4699 -0.1726
  808SOL     OW 3284   1.322   2.435   1.455  0.5361 -0.3662  0.1159
  808SOL    HW2 3285   1.324   2.519   1.502  0.0516  0.8230 -1.9383
  808SOL    HW3 3286   1.400   2.389   1.486  0.5513  0.6401  1.6217
  808SOL    MW4 3287   1.333   2.440   1.465  0.4741 -0.0765  0.0437
  809SOL     OW 3288   1.358   2.676   1.583  0.1262  0.2481 -0.0862
  809SOL    HW2 3289   1.434   2.732   1.565  1.1756 -1.7629 -2.1968
  809SOL    HW3 3290   1.284   2.726   1.548  1.1140  0.1398 -2.4757
  809SOL    MW4 3291   1.358   2.690   1.576  0.3949 -0.0315 -0.6800
  810SOL     OW 3292   1.568   2.849   1.509  0.0775 -0.4424  0.9309
  810SOL    HW2 3293   1.643   2.797   1.540  0.7385  0.0075  0.1049
  810SOL    HW3 3294   1.572   2.841   1.413 -0.4301  0.2961  0.8500
  810SOL    MW4 3295   1.579   2.841   1.500  0.0979 -0.2856  0.8112
  811SOL     OW 3296   1.591   3.121   1.581 -0.1886 -0.2356  0.2738
  811SOL    HW2 3297   1.671   3.161   1.547 -0.5940 -0.4449 -0.9579
  811SOL    HW3 3298   1.586   3.036   1.537 -1.0707 -0.2281  0.3460
  811SOL    MW4 3299   1.601   3.115   1.571 -0.3585 -0.2623  0.1208
  812SOL     OW 3300   1.359   3.239   1.503 -0.1586  0.4213  0.0550
  812SOL    HW2 3301   1.360   3.330   1.532 -0.1202 -0.2185  2.1041
  812SOL    HW3 3302   1.434   3.199   1.546  0.4317 -0.3604 -1.6400
  812SOL    MW4 3303   1.369   3.246   1.513 -0.0756  0.2339  0.1017
  813SOL     OW 3304   1.385   3.504   1.607 -0.1325  0.1104 -0.2352
  813SOL    HW2 3305   1.396   3.503   1.702 -1.0352 -1.0356 -0.1317
  813SOL    HW3 3306   1.473   3.524   1.573  0.3632 -0.2389  0.8231
  813SOL    MW4 3307   1.398   3.507   1.615 -0.1863 -0.0868 -0.0819
  814SOL     OW 3308   1.620   3.626   1.491  0.3704 -0.1846  0.1114
  814SOL    HW2 3309   1.606   3.720   1.504 -0.9159 -0.4080  0.4461
  814SOL    HW3 3310   1.612   3.613   1.397 -0.8951 -0.1595  0.1983
  814SOL    MW4 3311   1.617   3.637   1.481  0.0339 -0.2105  0.1671
  815SOL     OW 3312   1.580   3.881   1.569 -0.1551  0.1860 -0.2753
  815SOL    HW2 3313   1.582   3.878   1.664 -1.1987  0.9066 -0.2192
  815SOL    HW3 3314   1.495   3.920   1.548  0.4010  0.7810 -1.4836
  815SOL    MW4 3315   1.569   3.886   1.579 -0.2195  0.3595 -0.4274
  816SOL     OW 3316   1.320   3.998   1.469 -0.3380  0.3177 -0.4052
  816SOL    HW2 3317   1.322   4.087   1.504 -1.4615  0.4585 -0.6831
  816SOL    HW3 3318   1.314   4.010   1.374 -0.2372 -0.0592 -0.4580
  816SOL    MW4 3319   1.319   4.012   1.461 -0.4730  0.2866 -0.4487
  817SOL     OW 3320   1.374   4.250   1.559 -0.0654 -0.2393 -0.2662
  817SOL    HW2 3321   1.455   4.278   1.515  0.6463 -0.5466  0.8312
  817SOL    HW3 3322   1.306   4.304   1.520  0.7288  0.3216 -0.9044
  817SOL    MW4 3323   1.376   4.261   1.548  0.1330 -0.2060 -0.2056
  818SOL     OW 3324   1.590   4.342   1.414  0.4226  0.3813  0.3387
  818SOL    HW2 3325   1.672   4.309   1.450  0.5234  0.1587 -0.0832
  818SOL    HW3 3326   1.585   4.433   1.443  1.4362  0.7649 -0.6763
  818SOL    MW4 3327   1.600   4.350   1.422  0.5695  0.4025  0.1490
  819SOL     OW 3328   1.998   4.623   1.567  0.2230 -0.0137 -0.5533
  819SOL    HW2 3329   2.001   4.636   1.662 -0.1108  1.4316 -0.7280
  819SOL    HW3 3330   1.929   4.682   1.537  0.2101 -0.5912 -1.6777
  819SOL    MW4 3331   1.989   4.633   1.576  0.1771  0.1006 -0.7248
  820SOL     OW 3332   1.780   0.089   1.501  0.0601 -0.1439  0.5452
  820SOL    HW2 3333   1.701   0.039   1.519  0.0284 -0.1458  0.4074
  820SOL    HW3 3334   1.774   0.109   1.407  2.2493 -3.7415 -0.4714
  820SOL    MW4 3335   1.769   0.085   1.491  0.3448 -0.6188  0.3929
  821SOL     OW 3336   1.791   0.363   1.582  0.8740 -0.5273  0.1564
  821SOL    HW2 3337   1.870   0.412   1.560  1.2508 -1.3216 -0.2712
  821SOL    HW3 3338   1.815   0.271   1.569 -0.4940 -0.7125 -1.1704
  821SOL    MW4 3339   1.804   0.357   1.578  0.7433 -0.6565 -0.0752
  822SOL     OW 3340   2.032   0.523   1.516  0.2717  0.2745 -0.1166
  822SOL    HW2 3341   2.109   0.487   1.560  0.5135  0.5310 -0.3262
  822SOL    HW3 3342   2.037   0.617   1.534 -0.2326  0.2317  0.2425
  822SOL    MW4 3343   2.043   0.531   1.524  0.2372  0.3026 -0.0968
  823SOL     OW 3344   2.050   0.786   1.568  0.4513 -0.0650  0.3138
  823SOL    HW2 3345   2.123   0.848   1.556  0.3986  0.1788  1.1948
  823SOL    HW3 3346   1.974   0.833   1.535  0.5088  0.1119  0.4304
  823SOL    MW4 3347   2.050   0.801   1.562  0.4518 -0.0095  0.4454
  824SOL     OW 3348   1.822   0.913   1.500  0.0079  0.0610  0.2123
  824SOL    HW2 3349   1.814   1.001   1.536  0.7056  0.0201  0.4606
  824SOL    HW3 3350   1.749   0.865   1.538 -1.6781  1.0990 -1.6052
  824SOL    MW4 3351   1.811   0.918   1.510 -0.1225  0.1926  0.0054
  825SOL     OW 3352   1.834   1.154   1.623 -0.3231 -0.2891 -0.4362
  825SOL    HW2 3353   1.907   1.187   1.571  0.7539 -1.0352  0.5830
  825SOL    HW3 3354   1.757   1.198   1.587  0.7032  0.9809 -1.1132
  825SOL    MW4 3355   1.833   1.164   1.611 -0.0457 -0.2201 -0.3911
  826SOL     OW 3356   2.046   1.239   1.439  0.0396 -0.1720 -0.1840
  826SOL    HW2 3357   2.042   1.331   1.463  0.3127 -0.0792 -0.4805
  826SOL    HW3 3358   2.076   1.240   1.348 -2.2727 -0.4665 -0.9824
  826SOL    MW4 3359   2.050   1.251   1.430 -0.2296 -0.1986 -0.3285
  827SOL     OW 3360   2.018   1.519   1.551 -0.1797  0.0282  0.5546
  827SOL    HW2 3361   2.097   1.573   1.546 -0.0226 -0.0495  2.0133
  827SOL    HW3 3362   1.946   1.581   1.537  0.0757  0.3104  0.4863
  827SOL    MW4 3363   2.019   1.535   1.548 -0.1249  0.0553  0.7381
  828SOL     OW 3364   1.806   1.700   1.512 -0.1030  0.2418 -0.4116
  828SOL    HW2 3365   1.730   1.643   1.521  1.2947 -2.0920 -2.7531
  828SOL    HW3 3366   1.818   1.708   1.418  1.9380  1.4426 -0.0706
  828SOL    MW4 3367   1.798   1.694   1.501  0.3506  0.0924 -0.6757
  829SOL     OW 3368   1.815   1.956   1.595  0.0290 -0.2245 -0.0938
  829SOL    HW2 3369   1.814   1.866   1.562  0.0635 -0.1422 -0.3173
  829SOL    HW3 3370   1.744   1.999   1.549  0.8408  0.2085 -0.9417
  829SOL    MW4 3371   1.806   1.950   1.585  0.1407 -0.1565 -0.2352
  830SOL     OW 3372   2.016   2.086   1.455  0.0908  0.3085 -0.2241
  830SOL    HW2 3373   2.092   2.051   1.501  0.7709  2.2875  0.2136
  830SOL    HW3 3374   1.941   2.048   1.500  0.8012  0.0160  0.7302
  830SOL    MW4 3375   2.016   2.076   1.467  0.2742  0.5312 -0.0405
  831SOL     OW 3376   2.026   2.336   1.576  0.0346 -0.5911  0.5005
  831SOL    HW2 3377   2.028   2.325   1.671 -0.5307  0.1939  0.6060
  831SOL    HW3 3378   2.026   2.247   1.541 -0.8372 -0.8833  1.2591
  831SOL    MW4 3379   2.027   2.323   1.584 -0.1550 -0.5257  0.6146
  832SOL     OW 3380   1.773   2.446   1.494  0.1551  0.3522 -0.4167
  832SOL    HW2 3381   1.855   2.402   1.516 -0.7640 -0.8371  0.7373
  832SOL    HW3 3382   1.772   2.449   1.399  2.1034  1.4861 -0.4210
  832SOL    MW4 3383   1.783   2.441   1.485  0.2909  0.3448 -0.2651
  833SOL     OW 3384   1.794   2.705   1.602 -0.2235  0.1010  0.1494
  833SOL    HW2 3385   1.873   2.752   1.574  0.0450 -0.7861 -0.6343
  833SOL    HW3 3386   1.802   2.619   1.560 -1.3316 -0.1904  0.5277
  833SOL    MW4 3387   1.806   2.700   1.592 -0.3344 -0.0546  0.0961
  834SOL     OW 3388   2.045   2.811   1.523  0.2865 -0.4311  0.4091
  834SOL    HW2 3389   2.036   2.904   1.547  2.0665 -0.2321  0.3854
  834SOL    HW3 3390   2.030   2.810   1.429 -0.9455 -0.3555  0.5948
  834SOL    MW4 3391   2.042   2.823   1.514  0.3588 -0.3948  0.4305
  835SOL     OW 3392   2.000   3.060   1.591 -0.2417 -0.1746 -0.6524
  835SOL    HW2 3393   1.996   3.078   1.685 -0.2018 -2.0427 -0.2841
  835SOL    HW3 3394   2.078   3.107   1.561 -0.8992  1.3918  0.0076
  835SOL    MW4 3395   2.009   3.069   1.600 -0.3233 -0.2143 -0.5167
  836SOL     OW 3396   1.818   3.259   1.501  0.0154  0.1667  0.1831
  836SOL    HW2 3397   1.832   3.339   1.551  0.8082 -0.3052  0.7164
  836SOL    HW3 3398   1.881   3.196   1.536 -2.0979 -1.3891  1.3138
  836SOL    MW4 3399   1.828   3.261   1.512 -0.1588 -0.1009  0.4026
  837SOL     OW 3400   1.846   3.511   1.602  0.1821  0.4315  0.3357
  837SOL    HW2 3401   1.837   3.500   1.697  1.1025 -0.2705  0.3484
  837SOL    HW3 3402   1.767   3.558   1.576 -1.1112 -1.2605  1.1284
  837SOL    MW4 3403   1.834   3.516   1.611  0.1328  0.1159  0.4419
  838SOL     OW 3404   2.076   3.610   1.483  0.2299 -0.0203 -0.2921
  838SOL    HW2 3405   2.143   3.548   1.512  0.0690 -0.0178  0.0866
  838SOL    HW3 3406   1.995   3.578   1.522  0.2521  0.7668  0.3980
  838SOL    MW4 3407   2.074   3.598   1.492  0.2115  0.0839 -0.1510
  839SOL     OW 3408   2.038   3.892   1.578  0.3325 -0.5705 -0.4203
  839SOL    HW2 3409   2.118   3.932   1.544  0.6338 -0.4786  0.3807
  839SOL    HW3 3410   2.045   3.800   1.553  0.5189 -0.4899 -0.6684
  839SOL    MW4 3411   2.049   3.885   1.570  0.3967 -0.5476 -0.3474
  840SOL     OW 3412   1.809   3.984   1.440 -0.1168  0.4456 -0.5019
  840SOL    HW2 3413   1.881   3.947   1.493 -0.1900 -0.3052 -0.9268
  840SOL    HW3 3414   1.730   3.942   1.474 -0.2535  0.5457 -0.6957
  840SOL    MW4 3415   1.808   3.974   1.452 -0.1446  0.3595 -0.5835
  841SOL     OW 3416   1.807   4.250   1.534  0.3396 -0.0827 -0.2578
  841SOL    HW2 3417   1.888   4.296   1.511 -0.2280  1.0730  0.0363
  841SOL    HW3 3418   1.816   4.164   1.491  1.1681  0.4893 -1.2668
  841SOL    MW4 3419   1.819   4.245   1.525  0.3741  0.1454 -0.3520
  842SOL     OW 3420   2.052   4.388   1.438  0.3961 -0.1647 -0.2425
  842SOL    HW2 3421   2.135   4.368   1.481 -1.0136 -2.2934  1.6033
  842SOL    HW3 3422   2.020   4.466   1.483  0.8524  0.0215 -0.2319
  842SOL    MW4 3423   2.059   4.396   1.450  0.2701 -0.4206  0.0024
  843SOL     OW 3424   2.482   4.652   1.603 -0.4569  0.2364 -0.4423
  843SOL    HW2 3425   2.484   4.635   1.697 -0.5860 -1.0359 -0.6588
  843SOL    HW3 3426   2.397   4.692   1.587 -0.3377  0.6751  0.0194
  843SOL    MW4 3427   2.471   4.655   1.613 -0.4585  0.1264 -0.4100
  844SOL     OW 3428   2.233   0.112   1.539  0.1312  0.1001 -0.4444
  844SOL    HW2 3429   2.157   0.057   1.556  0.4744 -0.4669 -0.7145
  844SOL    HW3 3430   2.240   0.114   1.443  0.1660  0.5434 -0.4315
  844SOL    MW4 3431   2.224   0.105   1.528  0.1810  0.0838 -0.4784
  845SOL     OW 3432   2.245   0.374   1.617  0.5972  0.2396  0.3496
  845SOL    HW2 3433   2.239   0.374   1.713 -0.1051 -0.2721  0.3038
  845SOL    HW3 3434   2.241   0.282   1.593 -1.6909  0.4907 -0.3226
  845SOL    MW4 3435   2.244   0.362   1.627  0.2027  0.2052  0.2549
  846SOL     OW 3436   2.448   0.500   1.481  0.5644  0.1603 -0.0007
  846SOL    HW2 3437   2.530   0.464   1.513  0.0812  0.1180  1.2215
  846SOL    HW3 3438   2.381   0.442   1.515 -0.0180  0.5541 -0.4611
  846SOL    MW4 3439   2.450   0.488   1.490  0.4241  0.2067  0.0999
  847SOL     OW 3440   2.469   0.749   1.614 -0.0304  0.3674 -0.1919
  847SOL    HW2 3441   2.397   0.793   1.570 -1.1488  0.2605  1.4602
  847SOL    HW3 3442   2.448   0.655   1.608 -1.4492  0.4459  2.5463
  847SOL    MW4 3443   2.457   0.742   1.608 -0.3653  0.3636  0.3873
  848SOL     OW 3444   2.276   0.914   1.497  0.3020 -0.4962  0.1099
  848SOL    HW2 3445   2.291   0.999   1.538 -1.0088 -0.6749  0.9699
  848SOL    HW3 3446   2.271   0.933   1.403 -0.7785  0.4986  0.3595
  848SOL    MW4 3447   2.277   0.928   1.490 -0.0136 -0.3885  0.2562
  849SOL     OW 3448   2.282   1.183   1.596  0.1867 -0.0833 -0.1076
  849SOL    HW2 3449   2.271   1.163   1.689 -0.6956  1.0353  0.0387
  849SOL    HW3 3450   2.195   1.171   1.558  0.8588 -2.0605 -1.1076
  849SOL    MW4 3451   2.269   1.179   1.603  0.1588 -0.1966 -0.2202
  850SOL     OW 3452   2.472   1.320   1.477  0.0895  0.0966  0.4149
  850SOL    HW2 3453   2.403   1.269   1.520 -0.6299 -0.5590 -1.4998
  850SOL    HW3 3454   2.466   1.296   1.385  1.4343  1.7241 -0.1138
  850SOL    MW4 3455   2.462   1.310   1.471  0.1719  0.2248  0.0925
  851SOL     OW 3456   2.448   1.565   1.583 -0.3238 -0.1146 -0.2408
  851SOL    HW2 3457   2.531   1.610   1.565 -0.0590 -0.1439  0.8552
  851SOL    HW3 3458   2.455   1.482   1.537  0.1902 -0.0375 -0.3050
  851SOL    MW4 3459   2.460   1.560   1.575 -0.2210 -0.1084 -0.1047
  852SOL     OW 3460   2.231   1.717   1.481  0.0230  0.3293 -0.3391
  852SOL    HW2 3461   2.315   1.673   1.496  0.0545  0.6119  0.3171
  852SOL    HW3 3462   2.216   1.708   1.387  0.5646 -0.1274 -0.3847
  852SOL    MW4 3463   2.240   1.710   1.470  0.0987  0.3062 -0.2584
  853SOL     OW 3464   2.253   1.976   1.589 -0.0552 -0.2201 -0.5400
  853SOL    HW2 3465   2.241   1.974   1.683 -0.4948 -1.7442 -0.6164
  853SOL    HW3 3466   2.253   1.884   1.562 -0.3811  0.2065 -2.0785
  853SOL    MW4 3467   2.252   1.964   1.598 -0.1559 -0.3649 -0.7530
  854SOL     OW 3468   2.489   2.081   1.483  0.1352 -0.1166 -0.0489
  854SOL    HW2 3469   2.412   2.034   1.513  0.7820 -0.1013  1.6834
  854SOL    HW3 3470   2.479   2.085   1.387 -2.1131  0.1077  0.1648
  854SOL    MW4 3471   2.478   2.075   1.474 -0.0758 -0.0849  0.2078
  855SOL     OW 3472   2.480   2.339   1.594  0.1123 -0.3103 -0.3213
  855SOL    HW2 3473   2.490   2.320   1.687  3.2810  1.1846 -0.3026
  855SOL    HW3 3474   2.483   2.253   1.552 -1.6753 -1.0252  0.9211
  855SOL    MW4 3475   2.481   2.325   1.601  0.2947 -0.2074 -0.1550
  856SOL     OW 3476   2.261   2.448   1.474  0.2261 -0.4827 -0.6028
  856SOL    HW2 3477   2.331   2.419   1.533 -0.7040 -0.4096  0.5582
  856SOL    HW3 3478   2.181   2.408   1.510 -0.6050  0.9518 -0.8211
  856SOL    MW4 3479   2.260   2.439   1.486 -0.0062 -0.2837 -0.4784
  857SOL     OW 3480   2.289   2.695   1.579 -0.1389 -0.1660 -0.4023
  857SOL    HW2 3481   2.274   2.603   1.556 -0.9642 -0.3815  0.9325
  857SOL    HW3 3482   2.206   2.738   1.560 -0.5229 -0.1651  1.2422
  857SOL    MW4 3483   2.276   2.689   1.573 -0.2983 -0.1943 -0.0092
  858SOL     OW 3484   2.486   2.840   1.472 -0.3044  0.1607 -0.3340
  858SOL    HW2 3485   2.487   2.920   1.524 -1.8809  0.3843 -0.6500
  858SOL    HW3 3486   2.427   2.781   1.519  0.6654 -0.7542 -0.2237
  858SOL    MW4 3487   2.479   2.843   1.485 -0.3846  0.0694 -0.3611
  859SOL     OW 3488   2.455   3.082   1.595  0.6509 -0.0619  0.5693
  859SOL    HW2 3489   2.530   3.137   1.574  0.9582 -0.9389 -0.6637
  859SOL    HW3 3490   2.381   3.122   1.549  0.8914 -0.7096 -0.3997
  859SOL    MW4 3491   2.455   3.095   1.586  0.7231 -0.2627  0.2787
  860SOL     OW 3492   2.215   3.203   1.479  0.1695 -0.0380  0.1906
  860SOL    HW2 3493   2.234   3.292   1.509 -0.8484  0.1319  0.3288
  860SOL    HW3 3494   2.237   3.204   1.386 -0.6738  0.5942 -0.0015
  860SOL    MW4 3495   2.221   3.215   1.471 -0.0758  0.0679  0.1835
  861SOL     OW 3496   2.279   3.439   1.593 -0.4457 -0.3673  0.1316
  861SOL    HW2 3497   2.261   3.471   1.682 -1.2511 -0.1679 -0.0980
  861SOL    HW3 3498   2.350   3.494   1.561 -0.7869  0.1789  0.3123
  861SOL    MW4 3499   2.286   3.450   1.601 -0.5970 -0.2689  0.1252
  862SOL     OW 3500   2.467   3.607   1.465 -0.3142 -0.0876  0.5355
  862SOL    HW2 3501   2.547   3.563   1.493  0.0968  0.3321  0.0136
  862SOL    HW3 3502   2.472   3.694   1.505  0.2877  0.5276 -0.8393
  862SOL    MW4 3503   2.478   3.613   1.474 -0.1807  0.0489  0.2851
  863SOL     OW 3504   2.489   3.867   1.573 -0.2782  0.9248 -0.5651
  863SOL    HW2 3505   2.459   3.887   1.662  2.4931  0.7041  0.4765
  863SOL    HW3 3506   2.563   3.926   1.559  2.4100 -2.3467 -0.8313
  863SOL    MW4 3507   2.495   3.877   1.583  0.4418  0.4642 -0.4628
  864SOL     OW 3508   2.269   4.009   1.473  0.0183  0.1949 -0.4041
  864SOL    HW2 3509   2.345   3.954   1.493 -0.3819 -0.4448 -0.6080
  864SOL    HW3 3510   2.259   4.001   1.378  1.2427  2.3315 -0.7416
  864SOL    MW4 3511   2.278   4.001   1.463  0.1273  0.3920 -0.4756
  865SOL     OW 3512   2.274   4.281   1.571 -0.2309  0.3593  0.1226
  865SOL    HW2 3513   2.362   4.306   1.542  0.5621 -1.6183  0.7668
  865SOL    HW3 3514   2.256   4.199   1.526 -0.6533 -0.6169  2.0337
  865SOL    MW4 3515   2.283   4.274   1.561 -0.1819 -0.0305  0.4597
  866SOL     OW 3516   2.503   4.410   1.482  0.1876  0.6608  0.3415
  866SOL    HW2 3517   2.506   4.496   1.523  1.9238  0.4322  0.7305
  866SOL    HW3 3518   2.500   4.428   1.388 -1.7599  1.1540  0.4803
  866SOL    MW4 3519   2.503   4.423   1.475  0.1597  0.6957  0.4112
  867SOL     OW 3520   2.972   4.647   1.596 -0.5507  0.1999  0.0925
  867SOL    HW2 3521   2.965   4.629   1.690 -0.9720 -1.3364 -0.2136
  867SOL    HW3 3522   2.894   4.700   1.576 -0.4419  0.5588  0.6188
  867SOL    MW4 3523   2.960   4.652   1.606 -0.5918  0.0448  0.1214
  868SOL     OW 3524   2.728   0.121   1.538  0.2757 -0.3629  0.5352
  868SOL    HW2 3525   2.715   0.214   1.556 -0.3291 -0.5615  1.1602
  868SOL    HW3 3526   2.641   0.082   1.553  0.4843 -0.9988  0.1110
  868SOL    MW4 3527   2.715   0.128   1.542  0.2234 -0.4730  0.5616
  869SOL     OW 3528   2.678   0.405   1.583 -0.2850 -0.0844  0.1388
  869SOL    HW2 3529   2.681   0.414   1.678 -1.2416  1.6176  0.0294
  869SOL    HW3 3530   2.758   0.447   1.552  0.4241 -1.3416  0.2150
  869SOL    MW4 3531   2.689   0.412   1.592 -0.3178 -0.0257  0.1345
  870SOL     OW 3532   2.903   0.514   1.489 -0.2985  0.4681  0.4067
  870SOL    HW2 3533   2.915   0.606   1.511 -1.8004  0.9331 -0.6065
  870SOL    HW3 3534   2.898   0.512   1.393 -1.0781 -0.5441  0.4443
  870SOL    MW4 3535   2.904   0.526   1.479 -0.5996  0.3959  0.2780
  871SOL     OW 3536   2.907   0.779   1.570 -0.1663  0.2941 -0.0298
  871SOL    HW2 3537   2.909   0.782   1.665 -2.2508 -1.7201  0.1338
  871SOL    HW3 3538   2.830   0.831   1.546 -1.9152 -2.2860 -0.3227
  871SOL    MW4 3539   2.897   0.786   1.579 -0.6723 -0.3121 -0.0470
  872SOL     OW 3540   2.669   0.933   1.507  0.5467 -0.3722 -0.4549
  872SOL    HW2 3541   2.605   0.876   1.549 -0.7058  0.6922 -0.8837
  872SOL    HW3 3542   2.655   0.919   1.413  1.1044 -0.2926 -0.5544
  872SOL    MW4 3543   2.659   0.923   1.500  0.4547 -0.2213 -0.5246
  873SOL     OW 3544   2.684   1.196   1.591  0.1336  0.0466 -0.3313
  873SOL    HW2 3545   2.680   1.106   1.560  0.9951 -0.5089  1.1338
  873SOL    HW3 3546   2.604   1.237   1.558  0.3619 -0.8919 -2.1008
  873SOL    MW4 3547   2.673   1.190   1.583  0.2775 -0.1506 -0.3716
  874SOL     OW 3548   2.915   1.319   1.488 -0.6163  0.7810  0.3667
  874SOL    HW2 3549   2.987   1.260   1.510 -0.5686  0.0628 -1.6805
  874SOL    HW3 3550   2.837   1.278   1.526 -0.4405 -0.0869 -0.2195
  874SOL    MW4 3551   2.914   1.306   1.496 -0.5867  0.5717  0.0192
  875SOL     OW 3552   2.933   1.567   1.581 -0.0446 -0.3758  0.2585
  875SOL    HW2 3553   2.849   1.601   1.550  0.3704  0.7469  0.3252
  875SOL    HW3 3554   2.933   1.475   1.555 -1.4526 -0.4808  0.5975
  875SOL    MW4 3555   2.922   1.560   1.573 -0.1755 -0.2416  0.3120
  876SOL     OW 3556   2.689   1.664   1.463 -0.0224  0.2672  0.3372
  876SOL    HW2 3557   2.695   1.753   1.497  1.2466  0.0965  0.5880
  876SOL    HW3 3558   2.673   1.676   1.369  1.0819  0.7728  0.2044
  876SOL    MW4 3559   2.688   1.677   1.455  0.2906  0.3113  0.3527
  877SOL     OW 3560   2.697   1.919   1.569  0.1113 -0.1143  0.5207
  877SOL    HW2 3561   2.699   1.900   1.663  1.4597 -0.2239  0.4711
  877SOL    HW3 3562   2.621   1.976   1.558 -0.6186 -0.8737  1.5372
  877SOL    MW4 3563   2.687   1.924   1.580  0.1931 -0.2291  0.6483
  878SOL     OW 3564   2.911   2.070   1.447 -0.1139 -0.1721  0.3337
  878SOL    HW2 3565   2.895   2.152   1.495 -2.4348  0.3358 -1.2373
  878SOL    HW3 3566   2.837   2.014   1.470  0.4446 -1.1108 -0.1448
  878SOL    MW4 3567   2.899   2.074   1.456 -0.3464 -0.2291  0.0632
  879SOL     OW 3568   2.919   2.327   1.560 -0.0834  0.1236 -0.3847
  879SOL    HW2 3569   2.918   2.340   1.655  0.6315  1.4436 -0.5416
  879SOL    HW3 3570   2.837   2.364   1.529  0.0162  0.3662 -0.3590
  879SOL    MW4 3571   2.908   2.333   1.568  0.0241  0.3297 -0.4020
  880SOL     OW 3572   2.705   2.441   1.459  0.0346  0.4322  0.1450
  880SOL    HW2 3573   2.708   2.534   1.480 -2.1650  0.8606 -1.3197
  880SOL    HW3 3574   2.622   2.410   1.494 -1.2567  0.0211 -3.0847
  880SOL    MW4 3575   2.695   2.449   1.466 -0.4258  0.4344 -0.4743
  881SOL     OW 3576   2.707   2.701   1.554 -0.0010  0.3365 -0.1137
  881SOL    HW2 3577   2.780   2.743   1.510 -1.0063  1.2823 -0.8930
  881SOL    HW3 3578   2.629   2.746   1.521 -0.7889  1.0773  2.6089
  881SOL    MW4 3579   2.707   2.712   1.544 -0.2377  0.5589  0.1427
  882SOL     OW 3580   2.931   2.824   1.436 -0.0059 -0.0450 -0.6466
  882SOL    HW2 3581   3.001   2.790   1.492 -0.9209 -1.4920 -0.3549
  882SOL    HW3 3582   2.910   2.910   1.474  1.2669  0.1947 -0.4490
  882SOL    MW4 3583   2.938   2.831   1.449  0.0415 -0.2043 -0.5820
  883SOL     OW 3584   2.905   3.075   1.562 -0.0568  0.2324  0.1524
  883SOL    HW2 3585   2.913   3.096   1.655 -0.5209 -0.8116  0.4329
  883SOL    HW3 3586   2.984   3.112   1.522  0.4658  0.1109  1.0578
  883SOL    MW4 3587   2.916   3.083   1.569 -0.0491  0.0784  0.3090
  884SOL     OW 3588   2.661   3.226   1.482 -0.2005  0.2877 -0.5608
  884SOL    HW2 3589   2.746   3.181   1.487 -0.1386  0.2209 -1.9231
  884SOL    HW3 3590   2.652   3.249   1.390 -1.5125  0.6053 -0.3612
  884SOL    MW4 3591   2.671   3.223   1.470 -0.3655  0.3204 -0.7142
  885SOL     OW 3592   2.709   3.484   1.572 -0.8243 -0.1621 -0.1776
  885SOL    HW2 3593   2.695   3.497   1.666  0.5044 -0.6772  0.1166
  885SOL    HW3 3594   2.691   3.392   1.557  0.0761 -0.3422 -0.1978
  885SOL    MW4 3595   2.705   3.474   1.582 -0.5302 -0.2537 -0.1416
  886SOL     OW 3596   2.941   3.608   1.480  0.1394 -0.1049 -0.2377
  886SOL    HW2 3597   2.857   3.575   1.509  1.2331 -0.9425  2.1098
  886SOL    HW3 3598   2.935   3.611   1.385 -2.4747 -0.2534 -0.0942
  886SOL    MW4 3599   2.929   3.604   1.472 -0.0613 -0.2346  0.0912
  887SOL     OW 3600   2.912   3.865   1.623 -0.3373  0.0272 -0.3081
  887SOL    HW2 3601   2.830   3.905   1.593 -0.3622  0.4100  0.2505
  887SOL    HW3 3602   2.918   3.783   1.574 -1.7693 -0.6806  0.6463
  887SOL    MW4 3603   2.902   3.860   1.613 -0.5298 -0.0157 -0.1086
  888SOL     OW 3604   2.706   4.034   1.506  0.0266 -0.2729 -0.1821
  888SOL    HW2 3605   2.727   4.125   1.529 -1.5085  0.0601  0.0162
  888SOL    HW3 3606   2.725   4.027   1.413 -0.1569  0.3661 -0.2698
  888SOL    MW4 3607   2.711   4.045   1.497 -0.2000 -0.1445 -0.1675
  889SOL     OW 3608   2.726   4.292   1.605  0.4642  0.7266  0.1955
  889SOL    HW2 3609   2.802   4.335   1.566  0.0862  0.2666 -1.0985
  889SOL    HW3 3610   2.651   4.333   1.562  0.0443 -0.0089  0.2091
  889SOL    MW4 3611   2.726   4.303   1.594  0.3588  0.5684  0.0266
  890SOL     OW 3612   2.966   4.386   1.479 -0.4567  0.0111 -0.0261
  890SOL    HW2 3613   2.963   4.474   1.517 -1.2630 -0.1301  0.2425
  890SOL    HW3 3614   2.941   4.398   1.387 -0.6843  0.0462  0.0406
  890SOL    MW4 3615   2.962   4.399   1.472 -0.5929 -0.0029  0.0181
  891SOL     OW 3616   3.410   0.020   1.593 -0.4261 -0.1983 -0.4624
  891SOL    HW2 3617   3.491   0.052   1.553  0.3147  0.6331  1.6158
  891SOL    HW3 3618   3.405  -0.072   1.567 -0.4246  0.4922 -3.0998
  891SOL    MW4 3619   3.420   0.012   1.584 -0.3283  0.0025 -0.5361
  892SOL     OW 3620   3.171   0.166   1.530  0.4986  0.4196 -0.3110
  892SOL    HW2 3621   3.261   0.134   1.524  0.6642  0.3816  2.0105
  892SOL    HW3 3622   3.120   0.090   1.557  0.1584  0.9874  0.6937
  892SOL    MW4 3623   3.176   0.152   1.533  0.4754  0.4895  0.1278
  893SOL     OW 3624   3.122   0.407   1.617 -0.3513  0.0268 -0.1276
  893SOL    HW2 3625   3.132   0.316   1.591  0.3346  0.2324 -0.5845
  893SOL    HW3 3626   3.045   0.437   1.568 -0.6244 -0.3229  0.0819
  893SOL    MW4 3627   3.113   0.399   1.607 -0.2968  0.0078 -0.1602
  894SOL     OW 3628   3.358   0.518   1.516  0.5174  0.0178  0.2123
  894SOL    HW2 3629   3.283   0.472   1.553  0.0156  0.3787 -0.3419
  894SOL    HW3 3630   3.339   0.522   1.422  1.8230 -1.0019 -0.1051
  894SOL    MW4 3631   3.346   0.512   1.508  0.6235 -0.0692  0.0974
  895SOL     OW 3632   3.372   0.775   1.602 -0.1066 -0.1680  0.2623
  895SOL    HW2 3633   3.376   0.770   1.698 -1.4706 -1.1491  0.2724
  895SOL    HW3 3634   3.354   0.685   1.574 -0.5340  0.2700 -0.8832
  895SOL    MW4 3635   3.370   0.762   1.611 -0.3431 -0.2396  0.1124
  896SOL     OW 3636   3.131   0.902   1.489 -0.1346  0.0765 -0.4188
  896SOL    HW2 3637   3.197   0.864   1.546  0.0648 -0.6825 -1.1383
  896SOL    HW3 3638   3.051   0.852   1.509 -0.6055  1.2978  0.7758
  896SOL    MW4 3639   3.129   0.890   1.499 -0.1705  0.1375 -0.3562
  897SOL     OW 3640   3.150   1.172   1.572 -0.3527  0.4408 -0.3060
  897SOL    HW2 3641   3.151   1.165   1.668  0.2670  0.9507 -0.2646
  897SOL    HW3 3642   3.156   1.082   1.541 -0.0913  0.3035  0.1394
  897SOL    MW4 3643   3.151   1.159   1.581 -0.2363  0.4901 -0.2416
  898SOL     OW 3644   3.355   1.319   1.474  0.2276 -0.3180 -0.4518
  898SOL    HW2 3645   3.280   1.274   1.512 -0.4245 -0.9069 -2.3611
  898SOL    HW3 3646   3.430   1.261   1.492  0.2103  0.1611  1.2481
  898SOL    MW4 3647   3.355   1.305   1.481  0.1395 -0.3326 -0.4795
  899SOL     OW 3648   3.336   1.561   1.590  0.0246  0.1322 -0.5598
  899SOL    HW2 3649   3.336   1.561   1.686 -1.9239  0.3618 -0.5309
  899SOL    HW3 3650   3.349   1.470   1.565  0.4406  0.0577 -0.0754
  899SOL    MW4 3651   3.338   1.549   1.599 -0.1776  0.1526 -0.4921
  900SOL     OW 3652   3.127   1.696   1.450  0.0407 -0.2608  0.1119
  900SOL    HW2 3653   3.201   1.659   1.498  0.1787 -0.9013 -0.5874
  900SOL    HW3 3654   3.051   1.648   1.482  0.0588 -0.3011  0.0934
  900SOL    MW4 3655   3.127   1.685   1.461  0.0615 -0.3506  0.0172
  901SOL     OW 3656   3.137   1.961   1.560  0.3959  0.2652 -0.0917
  901SOL    HW2 3657   3.139   1.870   1.530 -0.2077  0.2894 -0.2258
  901SOL    HW3 3658   3.061   1.999   1.515  0.0811  0.5778  0.6906
  901SOL    MW4 3659   3.127   1.954   1.550  0.2747  0.3097 -0.0061
  902SOL     OW 3660   3.359   2.085   1.456 -0.0866  0.1111 -0.3069
  902SOL    HW2 3661   3.277   2.049   1.489  0.4572 -0.4852  0.4294
  902SOL    HW3 3662   3.346   2.093   1.362 -1.1484  0.4588 -0.1309
  902SOL    MW4 3663   3.347   2.081   1.448 -0.1547  0.0782 -0.1866
  903SOL     OW 3664   3.378   2.352   1.557 -0.2679  0.0098 -0.5196
  903SOL    HW2 3665   3.463   2.383   1.526 -0.6091 -0.6039 -2.0986
  903SOL    HW3 3666   3.363   2.270   1.511 -1.0815 -0.6176  0.8154
  903SOL    MW4 3667   3.387   2.346   1.547 -0.4203 -0.1535 -0.5518
  904SOL     OW 3668   3.134   2.472   1.445 -0.0806 -0.5125  0.1503
  904SOL    HW2 3669   3.207   2.414   1.466  1.2904  1.1283  0.0155
  904SOL    HW3 3670   3.060   2.435   1.492  0.9824 -1.8338  0.8321
  904SOL    MW4 3671   3.134   2.460   1.454  0.2406 -0.4704  0.2226
  905SOL     OW 3672   3.131   2.713   1.596 -0.0733 -0.5662  0.3880
  905SOL    HW2 3673   3.204   2.769   1.569 -1.6075  1.2266 -0.1638
  905SOL    HW3 3674   3.144   2.632   1.548  1.7351 -0.3869  0.5474
  905SOL    MW4 3675   3.143   2.710   1.586 -0.0370 -0.3059  0.3363
  906SOL     OW 3676   3.346   2.833   1.455  0.0515 -0.0423 -0.5663
  906SOL    HW2 3677   3.344   2.925   1.484 -0.1932 -0.4969  0.8978
  906SOL    HW3 3678   3.374   2.838   1.364  1.1241  1.4095 -0.1809
  906SOL    MW4 3679   3.349   2.846   1.447  0.1609  0.0894 -0.3222
  907SOL     OW 3680   3.336   3.089   1.585  0.3397 -0.1074  0.0207
  907SOL    HW2 3681   3.328   3.098   1.680  2.1552 -1.6850  0.3522
  907SOL    HW3 3682   3.415   3.137   1.563  0.7475 -0.9921 -0.4741
  907SOL    MW4 3683   3.345   3.096   1.595  0.6330 -0.4323 -0.0008
  908SOL     OW 3684   3.125   3.200   1.456 -0.2681  0.0163  0.2465
  908SOL    HW2 3685   3.192   3.150   1.503 -0.6135 -1.1393 -0.4531
  908SOL    HW3 3686   3.165   3.220   1.371  0.2670  1.8884  0.9349
  908SOL    MW4 3687   3.139   3.196   1.451 -0.2432  0.1106  0.2450
  909SOL     OW 3688   3.157   3.450   1.562  0.4292 -0.5237 -0.2457
  909SOL    HW2 3689   3.146   3.357   1.544 -0.0735 -1.2272  3.2442
  909SOL    HW3 3690   3.080   3.492   1.524 -0.5725 -1.8807  0.2564
  909SOL    MW4 3691   3.146   3.443   1.555  0.2306 -0.7954  0.2809
  910SOL     OW 3692   3.388   3.611   1.471  0.2456  0.0316  0.3329
  910SOL    HW2 3693   3.456   3.572   1.526 -0.0319 -0.1312  0.5686
  910SOL    HW3 3694   3.310   3.559   1.491  0.1813 -0.1281 -0.3358
  910SOL    MW4 3695   3.386   3.599   1.481  0.2007 -0.0110  0.2757
  911SOL     OW 3696   3.379   3.864   1.600 -0.2092  0.5150  0.0957
  911SOL    HW2 3697   3.292   3.902   1.587 -0.2920  0.4775  0.5595
  911SOL    HW3 3698   3.376   3.782   1.551  0.1384  1.3364 -1.3461
  911SOL    MW4 3699   3.367   3.858   1.591 -0.1743  0.6187 -0.0333
  912SOL     OW 3700   3.153   4.001   1.523  0.3415  0.0233  0.2523
  912SOL    HW2 3701   3.171   4.083   1.568 -0.2302  0.5157 -0.4162
  912SOL    HW3 3702   3.062   3.980   1.547  0.7765 -0.9042  1.1778
  912SOL    MW4 3703   3.143   4.009   1.532  0.3238 -0.0343  0.2861
  913SOL     OW 3704   3.178   4.245   1.618 -0.0857  0.3017 -0.3756
  913SOL    HW2 3705   3.181   4.255   1.713 -0.1483 -0.6265 -0.2787
  913SOL    HW3 3706   3.095   4.284   1.592 -0.3224  0.0504  0.0090
  913SOL    MW4 3707   3.167   4.252   1.627 -0.1249  0.1464 -0.3121
  914SOL     OW 3708   3.375   4.428   1.506 -0.1707  0.1873  0.1437
  914SOL    HW2 3709   3.299   4.381   1.539  0.6481 -1.6199 -0.4536
  914SOL    HW3 3710   3.371   4.417   1.411  1.7605 -1.4299  0.2184
  914SOL    MW4 3711   3.365   4.420   1.498  0.1922 -0.2651  0.0746
  915SOL     OW 3712   3.827   4.618   1.586  0.0279  0.2937  0.2199
  915SOL    HW2 3713   3.826   4.606   1.681 -2.0653  1.5493  0.4020
  915SOL    HW3 3714   3.904   4.671   1.569  0.4655 -0.0139  1.2060
  915SOL    MW4 3715   3.837   4.623   1.596 -0.1907  0.4187  0.3741
  916SOL     OW 3716   3.638   0.130   1.485  0.3931 -0.2168 -0.3046
  916SOL    HW2 3717   3.706   0.072   1.519  0.1413 -0.4056 -0.1193
  916SOL    HW3 3718   3.628   0.105   1.393 -0.2054 -0.9466 -0.0509
  916SOL    MW4 3719   3.646   0.119   1.477  0.2811 -0.3380 -0.2468
  917SOL     OW 3720   3.581   0.364   1.628 -0.5287 -0.0515  0.4513
  917SOL    HW2 3721   3.587   0.290   1.568 -0.1255  0.1602  0.2293
  917SOL    HW3 3722   3.502   0.410   1.601 -0.0557  0.3497 -0.2744
  917SOL    MW4 3723   3.571   0.360   1.617 -0.4129  0.0294  0.3262
  918SOL     OW 3724   3.800   0.523   1.530  0.6246  0.1944  0.3573
  918SOL    HW2 3725   3.725   0.469   1.553  0.2472  0.1702 -0.8810
  918SOL    HW3 3726   3.802   0.521   1.434  0.8753  1.9949  0.3065
  918SOL    MW4 3727   3.790   0.515   1.520  0.6080  0.4288  0.1874
  919SOL     OW 3728   3.781   0.785   1.625  0.6845 -0.3058  0.3585
  919SOL    HW2 3729   3.706   0.810   1.571 -0.4873 -1.9897  1.1788
  919SOL    HW3 3730   3.805   0.698   1.595  2.1314  0.0859  0.3235
  919SOL    MW4 3731   3.774   0.777   1.614  0.7212 -0.4763  0.4621
  920SOL     OW 3732   3.581   0.916   1.484 -0.1616 -0.4535  0.8237
  920SOL    HW2 3733   3.510   0.877   1.535 -0.2222 -0.7996  0.4837
  920SOL    HW3 3734   3.557   0.898   1.393  1.3953 -2.3702  0.7785
  920SOL    MW4 3735   3.568   0.909   1.478  0.0360 -0.7520  0.7728
  921SOL     OW 3736   3.593   1.173   1.573 -0.1914  0.5014 -0.6808
  921SOL    HW2 3737   3.679   1.207   1.549  0.4191 -0.4803  0.0587
  921SOL    HW3 3738   3.593   1.083   1.540 -0.7744  0.3526 -0.2927
  921SOL    MW4 3739   3.604   1.165   1.565 -0.1879  0.3524 -0.5320
  922SOL     OW 3740   3.820   1.297   1.475 -0.3008  0.5154 -0.1595
  922SOL    HW2 3741   3.897   1.245   1.496 -1.8698 -2.6815 -1.9052
  922SOL    HW3 3742   3.826   1.373   1.533  2.4650 -1.2281  2.0019
  922SOL    MW4 3743   3.831   1.300   1.485 -0.1428 -0.1365 -0.1047
  923SOL     OW 3744   3.818   1.540   1.609 -0.0595  0.1475 -0.1791
  923SOL    HW2 3745   3.811   1.550   1.703  0.4680 -2.8882  0.2121
  923SOL    HW3 3746   3.737   1.577   1.574 -1.4078 -1.0711  1.6401
  923SOL    MW4 3747   3.806   1.546   1.617 -0.1676 -0.4139  0.1124
  924SOL     OW 3748   3.578   1.674   1.516  0.4765  0.0116  0.5368
  924SOL    HW2 3749   3.495   1.632   1.540 -0.5042  1.0651 -0.9161
  924SOL    HW3 3750   3.570   1.689   1.422  2.3707  0.0547  0.3715
  924SOL    MW4 3751   3.566   1.670   1.507  0.5970  0.1562  0.3234
  925SOL     OW 3752   3.558   1.940   1.585 -0.7732 -0.5580 -0.3903
  925SOL    HW2 3753   3.548   1.847   1.562 -1.9369 -0.4254 -0.4468
  925SOL    HW3 3754   3.487   1.984   1.538 -1.5842  0.0735  1.3896
  925SOL    MW4 3755   3.547   1.934   1.576 -1.0335 -0.4572 -0.1631
  926SOL     OW 3756   3.806   2.054   1.485 -0.4044  0.1380  0.1294
  926SOL    HW2 3757   3.798   2.148   1.500 -0.0376  0.2356 -0.2886
  926SOL    HW3 3758   3.725   2.017   1.520  0.0202  0.4682  1.4901
  926SOL    MW4 3759   3.794   2.062   1.492 -0.2999  0.1943  0.2537
  927SOL     OW 3760   3.812   2.327   1.540  0.2456  0.5534 -0.0248
  927SOL    HW2 3761   3.828   2.321   1.635  0.3829  0.7687 -0.0350
  927SOL    HW3 3762   3.887   2.375   1.506  0.7906 -0.5423 -0.4041
  927SOL    MW4 3763   3.824   2.333   1.548  0.3355  0.4375 -0.0761
  928SOL     OW 3764   3.594   2.459   1.444  0.1546  0.7042  0.3897
  928SOL    HW2 3765   3.602   2.545   1.484  0.7596  0.3831  0.9543
  928SOL    HW3 3766   3.674   2.412   1.468  0.1060  0.1880 -0.4138
  928SOL    MW4 3767   3.605   2.464   1.452  0.2282  0.5937  0.3581
  929SOL     OW 3768   3.576   2.720   1.554 -0.5081 -0.7134  0.0398
  929SOL    HW2 3769   3.580   2.721   1.650  1.6545  1.9442  0.0116
  929SOL    HW3 3770   3.500   2.773   1.532  0.3009  0.5973  0.3191
  929SOL    MW4 3771   3.567   2.727   1.564 -0.1159 -0.1898  0.0728
  930SOL     OW 3772   3.789   2.832   1.437  0.1613  0.1421  0.3805
  930SOL    HW2 3773   3.873   2.800   1.470  0.5376 -0.1903 -0.8586
  930SOL    HW3 3774   3.725   2.767   1.466  0.3499  0.3069  1.1824
  930SOL    MW4 3775   3.792   2.819   1.445  0.2360  0.1199  0.3228
  931SOL     OW 3776   3.792   3.103   1.515  0.0513 -0.0172 -0.1480
  931SOL    HW2 3777   3.881   3.135   1.497  0.1261 -0.8564 -1.3026
  931SOL    HW3 3778   3.794   3.012   1.488 -0.9240 -0.2818  0.6551
  931SOL    MW4 3779   3.804   3.096   1.509 -0.0672 -0.1626 -0.1944
  932SOL     OW 3780   3.548   3.232   1.479 -0.7868 -0.8905 -0.5735
  932SOL    HW2 3781   3.633   3.189   1.483 -0.0571  0.5478 -0.0006
  932SOL    HW3 3782   3.530   3.244   1.386  0.9041  1.1814 -0.6721
  932SOL    MW4 3783   3.557   3.228   1.467 -0.4673 -0.4275 -0.5108
  933SOL     OW 3784   3.604   3.505   1.588 -0.1659  0.1528  0.2343
  933SOL    HW2 3785   3.667   3.555   1.537  0.6040  0.1691  1.2032
  933SOL    HW3 3786   3.613   3.415   1.557  0.7252  0.0588  0.7614
  933SOL    MW4 3787   3.613   3.500   1.577  0.0532  0.1426  0.4319
  934SOL     OW 3788   3.802   3.646   1.464  0.0615  0.4334 -0.2158
  934SOL    HW2 3789   3.880   3.610   1.506 -0.2438 -0.1262 -0.1234
  934SOL    HW3 3790   3.784   3.727   1.513  0.8799  0.8357 -0.5741
  934SOL    MW4 3791   3.810   3.652   1.476  0.1292  0.4127 -0.2511
  935SOL     OW 3792   3.756   3.879   1.609  0.1072 -0.1406 -0.1867
  935SOL    HW2 3793   3.832   3.933   1.587 -0.6558  0.2553 -1.9519
  935SOL    HW3 3794   3.681   3.928   1.575 -0.8321 -1.1398  0.4058
  935SOL    MW4 3795   3.756   3.893   1.602 -0.1175 -0.2203 -0.3417
  936SOL     OW 3796   3.557   4.041   1.482  0.2488  0.6414 -0.0608
  936SOL    HW2 3797   3.558   4.120   1.536 -0.5440  0.2968  0.4673
  936SOL    HW3 3798   3.484   3.990   1.516  0.7635 -0.3249 -0.4002
  936SOL    MW4 3799   3.547   4.045   1.494  0.2122  0.4683 -0.0360
  937SOL     OW 3800   3.588   4.280   1.610  0.1807 -0.2961  0.0801
  937SOL    HW2 3801   3.593   4.294   1.704 -0.1684  1.1734 -0.1129
  937SOL    HW3 3802   3.512   4.331   1.581  0.1614 -0.8934 -0.9642
  937SOL    MW4 3803   3.579   4.288   1.619  0.1316 -0.1807 -0.0831
  938SOL     OW 3804   3.830   4.358   1.510  0.1421 -0.3782 -0.1039
  938SOL    HW2 3805   3.742   4.333   1.538  0.2512  0.0387  0.6267
  938SOL    HW3 3806   3.832   4.453   1.521  0.3515 -0.2632 -1.0877
  938SOL    MW4 3807   3.818   4.367   1.515  0.1843 -0.3080 -0.1372
  939SOL     OW 3808   4.261   4.652   1.590  0.5408 -0.5294 -0.5616
  939SOL    HW2 3809   4.245   4.652   1.684  2.0947 -1.7149 -0.2691
  939SOL    HW3 3810   4.249   4.561   1.563 -1.6595  0.1144 -1.8489
  939SOL    MW4 3811   4.257   4.640   1.599  0.4559 -0.6008 -0.6928
  940SOL     OW 3812   4.035   0.125   1.519  0.3912  0.0735  0.0273
  940SOL    HW2 3813   4.031   0.212   1.559 -2.2120 -0.7116  1.6320
  940SOL    HW3 3814   4.115   0.086   1.552  1.0326  1.4626  0.1324
  940SOL    MW4 3815   4.045   0.132   1.528  0.1326  0.1532  0.2528
  941SOL     OW 3816   4.037   0.383   1.620  0.4973  0.0839 -0.1578
  941SOL    HW2 3817   4.027   0.375   1.715 -1.8970 -0.3106 -0.4185
  941SOL    HW3 3818   3.958   0.427   1.591  1.4015  0.5781 -1.9513
  941SOL    MW4 3819   4.026   0.388   1.629  0.3009  0.0970 -0.4288
  942SOL     OW 3820   4.251   0.507   1.478  0.4246 -0.0367  0.2201
  942SOL    HW2 3821   4.185   0.450   1.518  0.3166 -0.1264 -0.0825
  942SOL    HW3 3822   4.335   0.471   1.508  0.3347  0.1271  0.6699
  942SOL    MW4 3823   4.253   0.494   1.487  0.3986 -0.0269  0.2395
  943SOL     OW 3824   4.229   0.760   1.576 -0.0047  0.4157  0.1463
  943SOL    HW2 3825   4.235   0.671   1.541  0.6221  0.1285  0.9669
  943SOL    HW3 3826   4.313   0.800   1.555 -0.1930  0.7296 -0.0077
  943SOL    MW4 3827   4.241   0.754   1.569  0.0534  0.4192  0.2342
  944SOL     OW 3828   3.999   0.896   1.487  0.2367  0.0417  0.7481
  944SOL    HW2 3829   4.069   0.860   1.542  0.1795  0.0146  0.8038
  944SOL    HW3 3830   3.919   0.864   1.527  0.2031 -0.1703  0.5091
  944SOL    MW4 3831   3.998   0.887   1.500  0.2251  0.0102  0.7238
  945SOL     OW 3832   4.036   1.162   1.590  0.1376 -0.2144  0.4351
  945SOL    HW2 3833   4.044   1.159   1.685 -2.3036 -0.8930  0.6464
  945SOL    HW3 3834   4.021   1.071   1.564  1.5667 -0.1430 -0.6888
  945SOL    MW4 3835   4.035   1.150   1.599  0.0043 -0.2944  0.3148
  946SOL     OW 3836   4.274   1.287   1.495 -0.0992 -0.7966  0.0501
  946SOL    HW2 3837   4.194   1.244   1.524 -0.5489 -0.4257 -0.6126
  946SOL    HW3 3838   4.344   1.226   1.518 -0.6849 -1.6993 -0.5050
  946SOL    MW4 3839   4.273   1.273   1.502 -0.2360 -0.8668 -0.1105
  947SOL     OW 3840   4.293   1.549   1.604 -0.4712 -0.1169  0.7936
  947SOL    HW2 3841   4.292   1.462   1.564 -3.0395  0.5053 -0.5885
  947SOL    HW3 3842   4.368   1.593   1.565  0.7286 -1.6031  1.3467
  947SOL    MW4 3843   4.302   1.543   1.594 -0.6518 -0.2309  0.6843
  948SOL     OW 3844   4.040   1.657   1.508  0.7144  0.1504 -0.2049
  948SOL    HW2 3845   4.125   1.624   1.536  0.7278 -0.2381 -0.7032
  948SOL    HW3 3846   3.976   1.601   1.552  0.7285  0.0048 -0.3657
  948SOL    MW4 3847   4.043   1.645   1.517  0.7181  0.0800 -0.2918
  949SOL     OW 3848   4.020   1.920   1.592 -0.2198  0.2001  0.0777
  949SOL    HW2 3849   4.022   1.829   1.564  0.2274  0.4339 -0.6745
  949SOL    HW3 3850   3.945   1.958   1.545  0.5039  0.5825 -0.7728
  949SOL    MW4 3851   4.010   1.913   1.582 -0.0658  0.2813 -0.1338
  950SOL     OW 3852   4.235   2.084   1.485  0.1450  0.0094  0.0202
  950SOL    HW2 3853   4.169   2.030   1.529  0.8612 -0.8520  0.0694
  950SOL    HW3 3854   4.226   2.061   1.393  0.5575 -0.3130  0.0599
  950SOL    MW4 3855   4.225   2.074   1.479  0.2942 -0.1466  0.0319
  951SOL     OW 3856   4.293   2.355   1.549  0.4843 -0.3221 -0.2771
  951SOL    HW2 3857   4.293   2.347   1.644 -1.0210 -0.5940 -0.2838
  951SOL    HW3 3858   4.291   2.265   1.516 -1.0419 -0.2154 -0.5251
  951SOL    MW4 3859   4.293   2.342   1.557  0.0844 -0.3440 -0.3108
  952SOL     OW 3860   4.051   2.466   1.458 -0.1684  0.2288  0.0119
  952SOL    HW2 3861   4.057   2.558   1.483  0.2192  0.2891 -0.2942
  952SOL    HW3 3862   4.129   2.426   1.495 -0.4569 -0.0248  0.3471
  952SOL    MW4 3863   4.062   2.473   1.466 -0.1550  0.2031  0.0159
  953SOL     OW 3864   4.038   2.736   1.539 -0.4246 -0.4752  0.1978
  953SOL    HW2 3865   4.049   2.731   1.634 -0.1065 -0.9783  0.1368
  953SOL    HW3 3866   4.112   2.787   1.508 -0.6525 -0.1143  0.2405
  953SOL    MW4 3867   4.049   2.742   1.547 -0.4125 -0.4938  0.1953
  954SOL     OW 3868   4.274   2.865   1.487 -0.3658  0.0516  0.1399
  954SOL    HW2 3869   4.269   2.960   1.500  2.1892  0.2133  0.1838
  954SOL    HW3 3870   4.293   2.855   1.393 -1.9339 -0.4856 -0.1361
  954SOL    MW4 3871   4.276   2.876   1.476 -0.2356  0.0019  0.1092
  955SOL     OW 3872   4.279   3.127   1.573 -0.2788 -0.0056  0.9876
  955SOL    HW2 3873   4.290   3.140   1.667 -0.5046  1.1552  0.8655
  955SOL    HW3 3874   4.362   3.155   1.535 -0.3459 -0.0540  0.8074
  955SOL    MW4 3875   4.291   3.132   1.581 -0.3171  0.1411  0.9478
  956SOL     OW 3876   4.056   3.249   1.484 -0.1044 -0.2268 -0.1668
  956SOL    HW2 3877   4.032   3.331   1.527 -2.8466 -1.0929  0.0486
  956SOL    HW3 3878   4.136   3.221   1.529 -0.0432  1.4753  0.8496
  956SOL    MW4 3879   4.064   3.256   1.495 -0.4582 -0.1166 -0.0043
  957SOL     OW 3880   4.027   3.504   1.591 -0.3683 -0.7868 -0.0773
  957SOL    HW2 3881   4.038   3.510   1.686 -0.0696 -2.5901  0.0154
  957SOL    HW3 3882   4.111   3.533   1.555 -0.8682  0.9896  0.1701
  957SOL    MW4 3883   4.040   3.509   1.598 -0.3948 -0.7904 -0.0325
  958SOL     OW 3884   4.264   3.615   1.506  0.1849  0.0376 -0.6907
  958SOL    HW2 3885   4.251   3.707   1.530  0.8664  0.1586 -0.7870
  958SOL    HW3 3886   4.252   3.613   1.411 -1.2055 -0.2179 -0.5287
  958SOL    MW4 3887   4.261   3.627   1.497  0.0916  0.0198 -0.6821
  959SOL     OW 3888   4.226   3.866   1.629 -0.1364 -0.0751  0.0647
  959SOL    HW2 3889   4.151   3.917   1.601  0.5969  0.9775 -0.0221
  959SOL    HW3 3890   4.301   3.910   1.589  0.3293 -2.4730 -1.7712
  959SOL    MW4 3891   4.226   3.879   1.620  0.0219 -0.2525 -0.1889
  960SOL     OW 3892   4.019   4.008   1.513  0.1418  0.0645 -0.2586
  960SOL    HW2 3893   4.032   4.092   1.556  0.9525  0.2632 -0.8799
  960SOL    HW3 3894   4.007   4.030   1.421  0.2352 -0.4866 -0.4076
  960SOL    MW4 3895   4.019   4.022   1.506  0.2613  0.0176 -0.3604
  961SOL     OW 3896   4.050   4.241   1.640  0.1078 -0.3339 -0.2665
  961SOL    HW2 3897   4.047   4.237   1.735  0.4101 -0.7429 -0.2741
  961SOL    HW3 3898   3.968   4.285   1.615 -0.1181 -0.5146  0.1635
  961SOL    MW4 3899   4.039   4.246   1.649  0.1173 -0.4120 -0.2109
  962SOL     OW 3900   4.242   4.387   1.522 -0.0136 -0.0238  0.4787
  962SOL    HW2 3901   4.168   4.335   1.554 -0.2570 -0.0347 -0.1025
  962SOL    HW3 3902   4.240   4.376   1.427 -0.0977  1.0882  0.3468
  962SOL    MW4 3903   4.232   4.378   1.514 -0.0567  0.1211  0.3846
  963SOL     OW 3904   0.193   4.636   1.876 -0.2112  0.1594 -0.2913
  963SOL    HW2 3905   0.272   4.682   1.904 -0.1016 -0.9417  1.2550
  963SOL    HW3 3906   0.199   4.633   1.781  1.6629  0.0205 -0.1763
  963SOL    MW4 3907   0.204   4.642   1.867  0.0505 -0.0042 -0.0721
  964SOL     OW 3908   4.450   0.137   1.985  0.0577 -0.2446 -0.0356
  964SOL    HW2 3909   4.449   0.228   1.954 -0.8940 -0.5286 -0.8534
  964SOL    HW3 3910   4.510   0.092   1.927  0.5321 -0.1477  0.3735
  964SOL    MW4 3911   4.458   0.143   1.973 -0.0052 -0.2693 -0.0894
  965SOL     OW 3912   4.462   0.385   1.857 -0.1277 -0.4421 -0.2349
  965SOL    HW2 3913   4.389   0.431   1.898 -0.5453 -1.8872  0.6780
  965SOL    HW3 3914   4.540   0.422   1.898 -0.4008  0.2581 -0.3424
  965SOL    MW4 3915   4.463   0.396   1.868 -0.2193 -0.5404 -0.1287
  966SOL     OW 3916   0.201   0.480   1.980  0.5241  0.0092 -0.1230
  966SOL    HW2 3917   0.289   0.449   1.958  1.2598  2.5740 -1.0333
  966SOL    HW3 3918   0.203   0.573   1.957 -2.1273  0.3144  0.7883
  966SOL    MW4 3919   0.213   0.488   1.974  0.2714  0.3878 -0.1230
  967SOL     OW 3920   0.219   0.742   1.906  0.3724 -0.2977 -0.3536
  967SOL    HW2 3921   0.301   0.790   1.923  0.1269  0.5258 -1.4291
  967SOL    HW3 3922   0.222   0.723   1.812 -1.2323  0.8178 -0.6450
  967SOL    MW4 3923   0.231   0.746   1.896  0.1283 -0.0418 -0.5341
  968SOL     OW 3924   0.014   0.903   1.982 -0.1074 -0.1296 -0.1934
  968SOL    HW2 3925  -0.064   0.872   1.935  0.0151  0.2190 -0.6310
  968SOL    HW3 3926   0.081   0.839   1.962 -0.9348 -1.8576  2.2497
  968SOL    MW4 3927   0.012   0.890   1.973 -0.2003 -0.3116  0.0713
  969SOL     OW 3928   0.024   1.177   1.874 -0.0556  0.3089 -0.0153
  969SOL    HW2 3929  -0.065   1.211   1.882  0.2586  1.0318  0.4235
  969SOL    HW3 3930   0.023   1.097   1.927 -0.3656  0.4743  0.2336
  969SOL    MW4 3931   0.012   1.171   1.882 -0.0550  0.4261  0.0756
  970SOL     OW 3932   0.213   1.316   1.989 -0.3247 -0.0986  0.0719
  970SOL    HW2 3933   0.209   1.402   1.948 -1.0118 -0.8270 -1.4304
  970SOL    HW3 3934   0.145   1.265   1.945  0.1350 -1.4368  0.8803
  970SOL    MW4 3935   0.203   1.320   1.978 -0.3547 -0.3712 -0.0197
  971SOL     OW 3936   0.213   1.561   1.864  0.7849  0.3780 -0.4498
  971SOL    HW2 3937   0.299   1.584   1.900  0.5790  1.2400 -0.5068
  971SOL    HW3 3938   0.152   1.619   1.909  0.3347  0.3852 -1.0641
  971SOL    MW4 3939   0.216   1.571   1.875  0.6983  0.4927 -0.5383
  972SOL     OW 3940   0.002   1.697   1.980 -0.3426  0.0693 -0.3404
  972SOL    HW2 3941   0.005   1.714   2.074  0.2109  0.7364 -0.4656
  972SOL    HW3 3942  -0.080   1.650   1.966 -0.2860 -0.2927  0.5130
  972SOL    MW4 3943  -0.009   1.693   1.990 -0.2618  0.1096 -0.2443
  973SOL     OW 3944   0.017   1.945   1.827 -0.0072 -0.5562 -0.1485
  973SOL    HW2 3945  -0.052   1.988   1.876  1.8438  1.0183  1.1657
  973SOL    HW3 3946   0.032   1.863   1.874  1.0936  0.5040  1.4051
  973SOL    MW4 3947   0.010   1.940   1.840  0.3823 -0.2085  0.2298
  974SOL     OW 3948   0.210   2.069   1.951 -0.3505 -0.0667 -0.0494
  974SOL    HW2 3949   0.207   2.156   1.911 -0.3948  0.1198  0.3497
  974SOL    HW3 3950   0.133   2.024   1.916 -1.5411  0.7942  1.3806
  974SOL    MW4 3951   0.199   2.075   1.941 -0.5134  0.0713  0.1919
  975SOL     OW 3952   0.193   2.329   1.855 -0.1038  0.3390 -0.2015
  975SOL    HW2 3953   0.268   2.368   1.901 -0.5892  1.5550 -0.4430
  975SOL    HW3 3954   0.117   2.373   1.891 -0.4809  1.5211 -2.3879
  975SOL    MW4 3955   0.193   2.340   1.866 -0.2176  0.6554 -0.5219
  976SOL     OW 3956   4.470   2.459   1.958 -0.7813  0.3368 -0.2655
  976SOL    HW2 3957   4.467   2.448   2.053  0.7728 -1.9844 -0.4517
  976SOL    HW3 3958   4.489   2.552   1.945  0.7481  0.3270  1.7315
  976SOL    MW4 3959   4.472   2.470   1.968 -0.3743  0.0288 -0.0267
  977SOL     OW 3960   0.032   2.727   1.895  0.2357  0.2728  0.5229
  977SOL    HW2 3961  -0.054   2.765   1.917  0.6892  0.6191  1.7769
  977SOL    HW3 3962   0.030   2.716   1.800 -1.3784 -0.1564  0.5878
  977SOL    MW4 3963   0.020   2.731   1.886  0.0825  0.2618  0.6970
  978SOL     OW 3964   0.254   2.875   1.964 -0.1566  0.5931 -0.7578
  978SOL    HW2 3965   0.254   2.965   1.934  1.1789  0.4329 -1.2590
  978SOL    HW3 3966   0.172   2.839   1.930 -0.6234  1.5767 -0.6792
  978SOL    MW4 3967   0.243   2.882   1.955 -0.0420  0.7017 -0.8136
  979SOL     OW 3968   0.251   3.144   1.854 -0.3183 -0.2344 -0.3438
  979SOL    HW2 3969   0.331   3.171   1.900 -0.7410  0.3781  0.0410
  979SOL    HW3 3970   0.271   3.156   1.761  0.0243 -0.0389 -0.2441
  979SOL    MW4 3971   0.264   3.149   1.848 -0.3289 -0.1278 -0.2798
  980SOL     OW 3972   4.486   3.263   1.949 -0.4145  0.5286  0.4749
  980SOL    HW2 3973   4.417   3.210   1.911  0.2098 -1.7373  2.3968
  980SOL    HW3 3974   4.567   3.221   1.920  0.0761 -0.2518  2.9168
  980SOL    MW4 3975   4.488   3.251   1.940 -0.2674  0.1268  1.0505
  981SOL     OW 3976   4.485   3.522   1.859 -0.3182 -0.7389  0.4610
  981SOL    HW2 3977   4.572   3.549   1.891 -0.4816  0.6145 -0.2227
  981SOL    HW3 3978   4.478   3.430   1.885  0.8529 -0.5397  1.5375
  981SOL    MW4 3979   4.496   3.513   1.867 -0.1852 -0.5341  0.5130
  982SOL     OW 3980   0.249   3.625   1.982 -0.2562 -0.1388  0.2697
  982SOL    HW2 3981   0.233   3.602   2.074 -0.0325  3.3482  1.2894
  982SOL    HW3 3982   0.331   3.580   1.960  0.3206 -0.0859  2.1853
  982SOL    MW4 3983   0.258   3.616   1.991 -0.1506  0.3283  0.6571
  983SOL     OW 3984   0.242   3.919   1.930  0.1060 -0.0484 -0.1599
  983SOL    HW2 3985   0.325   3.954   1.963 -0.2760  1.2327 -0.5382
  983SOL    HW3 3986   0.240   3.829   1.962  1.0163  0.3274  1.0010
  983SOL    MW4 3987   0.253   3.912   1.939  0.1757  0.1702 -0.0565
  984SOL     OW 3988   4.480   4.022   1.952  0.0052  0.3829  0.7351
  984SOL    HW2 3989   4.490   4.113   1.923  0.2694  0.6615  1.6880
  984SOL    HW3 3990   4.568   3.986   1.947 -0.4625 -0.4986 -1.8189
  984SOL    MW4 3991   4.493   4.030   1.947 -0.0219  0.3037  0.5238
  985SOL     OW 3992   0.035   4.290   1.849  0.0360 -0.0477  0.4562
  985SOL    HW2 3993  -0.047   4.329   1.881  0.6003  1.5320  0.0003
  985SOL    HW3 3994   0.104   4.337   1.897  0.8185  1.0944 -1.7146
  985SOL    MW4 3995   0.033   4.301   1.860  0.2137  0.3114  0.1097
  986SOL     OW 3996   0.254   4.385   1.987  0.3064 -0.6074 -0.5302
  986SOL    HW2 3997   0.245   4.398   2.081 -0.5224 -2.4348 -0.3260
  986SOL    HW3 3998   0.228   4.468   1.948 -0.0879 -0.0812  0.8366
  986SOL    MW4 3999   0.249   4.397   1.994  0.1450 -0.7796 -0.3228
  987SOL     OW 4000   0.666   4.642   1.879 -0.1434  0.2672  0.0462
  987SOL    HW2 4001   0.664   4.553   1.914 -0.2428  0.1176 -0.3406
  987SOL    HW3 4002   0.676   4.631   1.784 -0.1957  0.6652 -0.0082
  987SOL    MW4 4003   0.667   4.629   1.871 -0.1634  0.2999 -0.0120
  988SOL     OW 4004   0.427   0.106   1.939  0.0835  0.0010  0.3679
  988SOL    HW2 4005   0.440   0.196   1.910 -0.2038 -0.5459 -1.4885
  988SOL    HW3 4006   0.509   0.062   1.919 -0.2876 -0.4978 -0.0665
  988SOL    MW4 4007   0.439   0.112   1.933 -0.0034 -0.1369  0.0656
  989SOL     OW 4008   0.434   0.393   1.862 -0.0013  0.0110 -0.3718
  989SOL    HW2 4009   0.516   0.434   1.891  0.3450 -0.5313 -0.5830
  989SOL    HW3 4010   0.444   0.383   1.768 -0.6798  0.7586 -0.5300
  989SOL    MW4 4011   0.446   0.398   1.854 -0.0451  0.0381 -0.4205
  990SOL     OW 4012   0.661   0.519   1.961  0.2383  0.1596  0.0847
  990SOL    HW2 4013   0.666   0.514   2.056 -0.3376 -0.6661  0.0684
  990SOL    HW3 4014   0.744   0.482   1.931  1.4759  2.6315  0.3183
  990SOL    MW4 4015   0.672   0.514   1.970  0.3256  0.3767  0.1135
  991SOL     OW 4016   0.634   0.783   1.884  0.1907  0.6306 -0.3397
  991SOL    HW2 4017   0.719   0.821   1.906  0.0922  0.4440  0.3728
  991SOL    HW3 4018   0.641   0.692   1.911 -0.4226  0.7497  0.2334
  991SOL    MW4 4019   0.646   0.776   1.890  0.0968  0.6217 -0.1701
  992SOL     OW 4020   0.413   0.922   1.972 -0.1288 -0.4031  0.0851
  992SOL    HW2 4021   0.419   1.012   1.940  1.2283 -0.7871 -0.7863
  992SOL    HW3 4022   0.497   0.883   1.949 -0.7867 -1.9592  0.2606
  992SOL    MW4 4023   0.425   0.929   1.964 -0.0366 -0.6591 -0.0067
  993SOL     OW 4024   0.438   1.188   1.903  0.9435  0.5244 -0.0217
  993SOL    HW2 4025   0.353   1.229   1.916  0.1573 -1.0740  0.0077
  993SOL    HW3 4026   0.443   1.171   1.809  0.4530 -1.0209  0.2266
  993SOL    MW4 4027   0.428   1.191   1.892  0.7751  0.1097  0.0150
  994SOL     OW 4028   0.674   1.312   1.997 -0.1977 -0.4674  0.4437
  994SOL    HW2 4029   0.679   1.305   2.092  2.6487  0.3177  0.3938
  994SOL    HW3 4030   0.599   1.257   1.973  0.6942 -2.8504  2.8781
  994SOL    MW4 4031   0.665   1.304   2.006  0.2955 -0.6783  0.7582
  995SOL     OW 4032   0.670   1.545   1.842 -0.0258 -0.1231  0.1532
  995SOL    HW2 4033   0.687   1.460   1.883  2.1713 -0.1167 -0.6490
  995SOL    HW3 4034   0.682   1.528   1.748 -1.2310  0.7042 -0.1504
  995SOL    MW4 4035   0.674   1.531   1.835  0.1051 -0.0131  0.0073
  996SOL     OW 4036   0.444   1.660   1.954 -0.3144 -0.0482  0.3133
  996SOL    HW2 4037   0.447   1.660   2.050  1.0464  0.7640  0.2941
  996SOL    HW3 4038   0.524   1.614   1.928 -0.7445 -0.3780 -0.4329
  996SOL    MW4 4039   0.455   1.654   1.963 -0.1916  0.0154  0.2122
  997SOL     OW 4040   0.441   1.935   1.866  0.3955  0.5965  0.4402
  997SOL    HW2 4041   0.427   1.844   1.892  1.5088  0.2967  0.0050
  997SOL    HW3 4042   0.369   1.983   1.907  0.5223 -0.2911  1.7100
  997SOL    MW4 4043   0.430   1.929   1.875  0.5592  0.4399  0.5503
  998SOL     OW 4044   0.679   2.034   2.002 -0.0771 -0.1712  0.1024
  998SOL    HW2 4045   0.656   2.046   2.094  0.8994 -1.7322  0.5526
  998SOL    HW3 4046   0.600   1.997   1.963 -0.2414 -0.1948  0.4536
  998SOL    MW4 4047   0.665   2.031   2.009  0.0301 -0.3803  0.2081
  999SOL     OW 4048   0.659   2.294   1.908  0.2156  0.4715 -0.0009
  999SOL    HW2 4049   0.666   2.202   1.932  0.1672  0.0626 -1.4504
  999SOL    HW3 4050   0.661   2.293   1.812  1.6476  2.1094 -0.0031
  999SOL    MW4 4051   0.660   2.282   1.898  0.3982  0.6337 -0.1924
 1000SOL     OW 4052   0.405   2.453   1.999  0.3108  0.1730 -0.2719
 1000SOL    HW2 4053   0.398   2.438   2.094  0.1239 -0.0758 -0.3239
 1000SOL    HW3 4054   0.486   2.409   1.974  0.3077  0.1514 -0.2442
 1000SOL    MW4 4055   0.414   2.445   2.008  0.2857  0.1373 -0.2749
 1001SOL     OW 4056   0.456   2.691   1.871  0.2712  0.0683  0.0316
 1001SOL    HW2 4057   0.440   2.602   1.900 -0.5457 -0.2868 -1.4703
 1001SOL    HW3 4058   0.384   2.742   1.908  0.5993  0.0695  0.6776
 1001SOL    MW4 4059   0.445   2.686   1.880  0.2066  0.0215 -0.0814
 1002SOL     OW 4060   0.689   2.804   1.940 -0.0274 -0.2429  0.4089
 1002SOL    HW2 4061   0.680   2.801   2.036 -1.3340  0.5924  0.3157
 1002SOL    HW3 4062   0.611   2.759   1.908  0.2713 -0.2698 -0.2715
 1002SOL    MW4 4063   0.678   2.797   1.949 -0.1604 -0.1364  0.3068
 1003SOL     OW 4064   0.644   3.055   1.821  0.1112 -0.3834 -0.5846
 1003SOL    HW2 4065   0.645   2.960   1.836  0.0360 -0.4486 -0.9919
 1003SOL    HW3 4066   0.648   3.064   1.726  1.0101  0.0420 -0.5142
 1003SOL    MW4 4067   0.645   3.043   1.810  0.2199 -0.3359 -0.6291
 1004SOL     OW 4068   0.492   3.217   1.990 -0.2790  0.3085  0.0938
 1004SOL    HW2 4069   0.478   3.308   1.962 -0.8307  0.6516  1.4270
 1004SOL    HW3 4070   0.548   3.179   1.923 -0.5336  1.4690 -0.7907
 1004SOL    MW4 4071   0.497   3.224   1.978 -0.3854  0.5069  0.1531
 1005SOL     OW 4072   0.479   3.475   1.899 -0.4888  0.8903 -0.2180
 1005SOL    HW2 4073   0.544   3.536   1.933  0.1524  0.5153 -0.7535
 1005SOL    HW3 4074   0.473   3.495   1.805 -1.0166  0.8039 -0.2070
 1005SOL    MW4 4075   0.487   3.486   1.891 -0.4738  0.8295 -0.2872
 1006SOL     OW 4076   0.716   3.628   1.979 -0.0141  0.3228 -0.1617
 1006SOL    HW2 4077   0.791   3.573   1.958 -1.0646 -0.7543 -1.1200
 1006SOL    HW3 4078   0.738   3.713   1.941  0.4633 -0.1548 -0.9765
 1006SOL    MW4 4079   0.729   3.632   1.971 -0.0898  0.1175 -0.3958
 1007SOL     OW 4080   0.696   3.867   1.843 -0.2288 -0.1114 -0.1458
 1007SOL    HW2 4081   0.750   3.935   1.883 -0.9110  0.1009  0.4335
 1007SOL    HW3 4082   0.703   3.882   1.748  1.2772 -0.5295 -0.1047
 1007SOL    MW4 4083   0.704   3.878   1.835 -0.1201 -0.1388 -0.0640
 1008SOL     OW 4084   0.505   4.035   1.996 -0.3545 -0.2826 -0.1417
 1008SOL    HW2 4085   0.489   4.116   1.946 -0.8237 -0.6354 -0.5751
 1008SOL    HW3 4086   0.556   3.980   1.936 -0.7638 -0.6357 -0.1703
 1008SOL    MW4 4087   0.509   4.038   1.981 -0.4703 -0.3757 -0.2027
 1009SOL     OW 4088   0.480   4.262   1.844  0.2024  0.3820  0.0417
 1009SOL    HW2 4089   0.426   4.326   1.889  0.1725 -0.1631  0.7792
 1009SOL    HW3 4090   0.465   4.280   1.751 -0.2266  1.0884  0.2449
 1009SOL    MW4 4091   0.471   4.273   1.837  0.1418  0.4034  0.1658
 1010SOL     OW 4092   0.711   4.375   1.956  0.1736 -0.4091 -0.2119
 1010SOL    HW2 4093   0.794   4.369   1.910  0.0431 -1.8521 -0.2815
 1010SOL    HW3 4094   0.648   4.330   1.899 -0.4158 -0.3529  0.3816
 1010SOL    MW4 4095   0.713   4.368   1.943  0.0786 -0.5922 -0.1428
 1011SOL     OW 4096   1.105   4.626   1.833 -0.0026 -0.1539 -0.1215
 1011SOL    HW2 4097   1.186   4.674   1.845 -0.1614 -0.4749  2.6350
 1011SOL    HW3 4098   1.118   4.544   1.881 -1.5118 -0.7408 -0.6667
 1011SOL    MW4 4099   1.117   4.621   1.841 -0.2228 -0.2728  0.1704
 1012SOL     OW 4100   0.896   0.099   1.927 -0.4777  0.0342 -0.0968
 1012SOL    HW2 4101   0.965   0.049   1.883  0.2806  0.6242  0.4070
 1012SOL    HW3 4102   0.816   0.047   1.914  0.0833 -0.7066 -0.5903
 1012SOL    MW4 4103   0.894   0.085   1.919 -0.3036  0.0143 -0.0954
 1013SOL     OW 4104   0.907   0.382   1.866  0.4092  0.3402 -0.0739
 1013SOL    HW2 4105   0.987   0.424   1.896  1.4619  0.2927 -2.6692
 1013SOL    HW3 4106   0.910   0.293   1.901  2.0847 -0.0243 -1.1126
 1013SOL    MW4 4107   0.918   0.376   1.875  0.7692  0.2859 -0.5534
 1014SOL     OW 4108   1.130   0.514   1.968  0.0333 -0.4566  0.0247
 1014SOL    HW2 4109   1.218   0.484   1.946  0.9412  1.1187  1.4003
 1014SOL    HW3 4110   1.127   0.605   1.939 -0.8109 -0.1931  0.9057
 1014SOL    MW4 4111   1.141   0.522   1.961  0.0417 -0.2140  0.3225
 1015SOL     OW 4112   1.112   0.769   1.876 -0.2368  0.1689 -0.2683
 1015SOL    HW2 4113   1.180   0.832   1.899 -0.0509 -0.2114  0.2176
 1015SOL    HW3 4114   1.031   0.821   1.877 -0.4301 -0.0948  2.5312
 1015SOL    MW4 4115   1.110   0.784   1.879 -0.2379  0.0839  0.1651
 1016SOL     OW 4116   0.886   0.901   1.930  0.3021 -0.2171 -0.7402
 1016SOL    HW2 4117   0.889   0.877   2.022  0.3586 -2.3602 -1.2651
 1016SOL    HW3 4118   0.896   0.996   1.929  2.4298 -0.3837  1.3139
 1016SOL    MW4 4119   0.887   0.910   1.942  0.5903 -0.5218 -0.5383
 1017SOL     OW 4120   0.900   1.167   1.905  0.0362  0.1302 -0.1716
 1017SOL    HW2 4121   0.837   1.233   1.933  0.7219  1.2124 -1.1353
 1017SOL    HW3 4122   0.886   1.159   1.810  2.3369  1.4881 -0.6634
 1017SOL    MW4 4123   0.890   1.175   1.896  0.4302  0.4520 -0.3636
 1018SOL     OW 4124   1.133   1.311   1.980  0.1345  0.3274  0.1708
 1018SOL    HW2 4125   1.121   1.391   1.929 -0.5084  0.3917  0.4107
 1018SOL    HW3 4126   1.054   1.260   1.964  0.2158  0.0629  0.5860
 1018SOL    MW4 4127   1.121   1.315   1.971  0.0604  0.3009  0.2574
 1019SOL     OW 4128   1.128   1.552   1.843 -0.6479 -0.1024 -0.0408
 1019SOL    HW2 4129   1.061   1.599   1.892  0.3925  1.1086  0.2475
 1019SOL    HW3 4130   1.091   1.542   1.755 -2.4338 -2.0938  0.8914
 1019SOL    MW4 4131   1.114   1.557   1.838 -0.7463 -0.2054  0.1203
 1020SOL     OW 4132   0.898   1.661   1.964 -0.1877 -0.1840 -0.1998
 1020SOL    HW2 4133   0.899   1.753   1.936 -0.9727  0.3194  1.3323
 1020SOL    HW3 4134   0.822   1.623   1.919 -0.3839  0.1630 -0.1664
 1020SOL    MW4 4135   0.888   1.668   1.955 -0.3172 -0.0718  0.0068
 1021SOL     OW 4136   0.882   1.914   1.858 -0.1055 -0.3373 -0.8968
 1021SOL    HW2 4137   0.808   1.940   1.912  0.5773 -0.3386  0.0469
 1021SOL    HW3 4138   0.849   1.921   1.768 -0.5318  1.9309 -0.5985
 1021SOL    MW4 4139   0.868   1.918   1.853 -0.0717 -0.0383 -0.7330
 1022SOL     OW 4140   1.115   2.026   2.001 -0.4652  0.1383  0.1849
 1022SOL    HW2 4141   1.117   2.114   1.961 -1.0833 -0.3270 -0.9040
 1022SOL    HW3 4142   1.045   1.980   1.953 -0.1485 -0.9471  0.7538
 1022SOL    MW4 4143   1.106   2.032   1.989 -0.5051 -0.0665  0.1162
 1023SOL     OW 4144   1.100   2.267   1.874  0.1865  0.6099  0.0230
 1023SOL    HW2 4145   1.173   2.321   1.905 -0.4425  1.0953  0.6514
 1023SOL    HW3 4146   1.099   2.280   1.779  1.1828  0.2680 -0.0459
 1023SOL    MW4 4147   1.110   2.276   1.866  0.2350  0.6285  0.0969
 1024SOL     OW 4148   0.900   2.396   2.000  0.3579  0.4659 -0.3186
 1024SOL    HW2 4149   0.969   2.357   1.946  0.0825 -0.6002  0.0855
 1024SOL    HW3 4150   0.821   2.347   1.979  0.0338  0.6899  0.3248
 1024SOL    MW4 4151   0.899   2.385   1.990  0.2788  0.3548 -0.1804
 1025SOL     OW 4152   0.890   2.642   1.876 -0.2656  0.2146  0.1331
 1025SOL    HW2 4153   0.885   2.555   1.915  1.9220  0.6038  1.3711
 1025SOL    HW3 4154   0.805   2.683   1.897 -1.0240 -1.3415  0.1494
 1025SOL    MW4 4155   0.878   2.636   1.884 -0.0770  0.0603  0.2986
 1026SOL     OW 4156   1.121   2.820   1.907  0.1820  0.0510  0.4247
 1026SOL    HW2 4157   1.121   2.829   2.002  0.2938 -1.0450  0.5382
 1026SOL    HW3 4158   1.036   2.779   1.886 -0.5179  1.7219 -0.1037
 1026SOL    MW4 4159   1.109   2.816   1.916  0.1044  0.1271  0.3699
 1027SOL     OW 4160   1.130   3.113   1.854 -0.1033 -0.3101  0.8351
 1027SOL    HW2 4161   1.041   3.146   1.869 -0.4586 -0.4269 -0.9014
 1027SOL    HW3 4162   1.128   3.023   1.887 -0.2333  0.1137  2.0250
 1027SOL    MW4 4163   1.118   3.106   1.861 -0.1673 -0.2697  0.7629
 1028SOL     OW 4164   0.869   3.190   1.930 -0.0764 -0.2426  0.0413
 1028SOL    HW2 4165   0.858   3.180   2.025  0.3534 -1.3505 -0.0075
 1028SOL    HW3 4166   0.808   3.128   1.892 -0.5613  0.5165 -0.4234
 1028SOL    MW4 4167   0.860   3.180   1.938 -0.0837 -0.2887 -0.0265
 1029SOL     OW 4168   0.922   3.470   1.864 -0.0909 -0.0059 -0.6121
 1029SOL    HW2 4169   0.900   3.379   1.883  0.4606  0.0190  0.1823
 1029SOL    HW3 4170   0.916   3.477   1.769 -0.1701 -0.8628 -0.6727
 1029SOL    MW4 4171   0.918   3.459   1.854 -0.0286 -0.1159 -0.5153
 1030SOL     OW 4172   1.119   3.622   1.962  0.1232 -0.2968  0.1138
 1030SOL    HW2 4173   1.124   3.608   2.056 -0.4234  0.2667  0.2260
 1030SOL    HW3 4174   1.059   3.554   1.930 -1.5435  0.9609  0.4921
 1030SOL    MW4 4175   1.112   3.611   1.970 -0.1689 -0.0570  0.1785
 1031SOL     OW 4176   1.094   3.877   1.841  0.6748 -0.4982 -0.5122
 1031SOL    HW2 4177   1.099   3.786   1.870 -0.1599 -0.6460 -0.8287
 1031SOL    HW3 4178   1.088   3.872   1.746  0.8048 -0.1022 -0.5445
 1031SOL    MW4 4179   1.094   3.865   1.833  0.5819 -0.4654 -0.5580
 1032SOL     OW 4180   0.890   4.038   1.958 -0.2922 -0.3203 -0.8790
 1032SOL    HW2 4181   0.902   4.034   2.053 -0.3787 -1.1000 -0.9023
 1032SOL    HW3 4182   0.966   3.992   1.922 -1.0962 -1.4560 -1.1390
 1032SOL    MW4 4183   0.902   4.032   1.966 -0.4097 -0.5732 -0.9165
 1033SOL     OW 4184   0.928   4.277   1.831 -0.1386 -0.3407 -0.3785
 1033SOL    HW2 4185   1.011   4.306   1.869  0.2398 -0.7306 -0.9031
 1033SOL    HW3 4186   0.907   4.197   1.879 -0.2850 -0.1651 -0.1478
 1033SOL    MW4 4187   0.936   4.270   1.842 -0.1080 -0.3691 -0.4171
 1034SOL     OW 4188   1.153   4.391   1.960 -0.4510 -0.2837 -0.6543
 1034SOL    HW2 4189   1.140   4.376   2.054  0.0017  2.3029 -0.1316
 1034SOL    HW3 4190   1.235   4.346   1.940  0.5848  0.9462  0.6988
 1034SOL    MW4 4191   1.162   4.383   1.970 -0.2545  0.2198 -0.4067
 1035SOL     OW 4192   1.559   4.595   1.795  0.4127  0.1140 -0.1571
 1035SOL    HW2 4193   1.623   4.655   1.835 -0.0044  0.4661 -0.0099
 1035SOL    HW3 4194   1.584   4.509   1.829  1.3261  0.1296 -0.7681
 1035SOL    MW4 4195   1.571   4.591   1.805  0.4781  0.1621 -0.2185
 1036SOL     OW 4196   1.350   0.067   1.910 -0.0194  0.2553  0.2447
 1036SOL    HW2 4197   1.351   0.061   2.005  2.2167  1.2304  0.3294
 1036SOL    HW3 4198   1.424   0.013   1.882 -0.5489  0.1230 -0.9222
 1036SOL    MW4 4199   1.360   0.059   1.919  0.2058  0.3665  0.1019
 1037SOL     OW 4200   1.341   0.346   1.859  0.3823 -0.4410 -0.4050
 1037SOL    HW2 4201   1.337   0.251   1.863 -0.7105 -0.3561  0.9711
 1037SOL    HW3 4202   1.329   0.367   1.766  0.0187 -1.6207 -0.6272
 1037SOL    MW4 4203   1.339   0.336   1.847  0.1900 -0.5855 -0.2528
 1038SOL     OW 4204   1.553   0.492   1.991 -0.1305 -0.1432  0.0496
 1038SOL    HW2 4205   1.637   0.457   1.962  0.0800  0.2828  0.1484
 1038SOL    HW3 4206   1.488   0.435   1.949  0.1843  0.1653 -0.8644
 1038SOL    MW4 4207   1.556   0.480   1.982 -0.0610 -0.0463 -0.0578
 1039SOL     OW 4208   1.553   0.744   1.864 -0.2611 -0.7574  0.0676
 1039SOL    HW2 4209   1.633   0.788   1.891  0.5668 -0.6245 -2.4096
 1039SOL    HW3 4210   1.557   0.658   1.906  0.5678 -0.2994  0.9450
 1039SOL    MW4 4211   1.564   0.739   1.873 -0.0424 -0.6794 -0.1434
 1040SOL     OW 4212   1.349   0.897   1.955  0.1162  0.5713  0.0211
 1040SOL    HW2 4213   1.347   0.891   2.050 -1.2581 -0.7693 -0.0573
 1040SOL    HW3 4214   1.418   0.837   1.928 -0.2263  0.1157  0.1426
 1040SOL    MW4 4215   1.358   0.888   1.964 -0.1103  0.3343  0.0268
 1041SOL     OW 4216   1.310   1.176   1.827  0.3578  0.3737  0.5791
 1041SOL    HW2 4217   1.330   1.090   1.863 -2.8009 -1.1289 -1.0738
 1041SOL    HW3 4218   1.251   1.216   1.891 -1.0734 -0.1733 -0.3901
 1041SOL    MW4 4219   1.305   1.170   1.840 -0.2477  0.1034  0.2331
 1042SOL     OW 4220   1.548   1.271   1.930  0.0555  0.2714 -0.1233
 1042SOL    HW2 4221   1.574   1.359   1.904 -0.9940  0.7979  0.5345
 1042SOL    HW3 4222   1.460   1.260   1.893  0.2904 -0.6031 -0.4357
 1042SOL    MW4 4223   1.540   1.281   1.922 -0.0520  0.2254 -0.0777
 1043SOL     OW 4224   1.574   1.541   1.840 -0.1780  0.4396  0.0253
 1043SOL    HW2 4225   1.649   1.591   1.872  0.1930 -0.4782  0.5897
 1043SOL    HW3 4226   1.498   1.590   1.872  0.1807  0.4423  0.8938
 1043SOL    MW4 4227   1.574   1.554   1.848 -0.0818  0.3189  0.2143
 1044SOL     OW 4228   1.347   1.644   1.971 -0.5537  0.3283  0.7001
 1044SOL    HW2 4229   1.328   1.634   2.065 -0.1696 -1.7830  0.5719
 1044SOL    HW3 4230   1.272   1.603   1.927 -0.3386  0.5858  0.0851
 1044SOL    MW4 4231   1.334   1.637   1.978 -0.4747  0.0837  0.6021
 1045SOL     OW 4232   1.326   1.905   1.880 -0.2437 -0.2096 -0.2927
 1045SOL    HW2 4233   1.346   1.819   1.916 -0.6951 -0.5365 -0.8246
 1045SOL    HW3 4234   1.250   1.935   1.929  0.1867  0.0751  0.1978
 1045SOL    MW4 4235   1.319   1.898   1.891 -0.2463 -0.2151 -0.2981
 1046SOL     OW 4236   1.559   2.053   1.976  0.1734  0.4763  0.1943
 1046SOL    HW2 4237   1.557   2.139   1.935  0.7462  1.0582  1.3601
 1046SOL    HW3 4238   1.474   2.015   1.955  0.1041  1.1171 -0.7438
 1046SOL    MW4 4239   1.548   2.059   1.968  0.2397  0.6375  0.2242
 1047SOL     OW 4240   1.546   2.312   1.851  0.4880 -0.1773 -0.3741
 1047SOL    HW2 4241   1.635   2.340   1.872 -0.8362  2.8545  1.6156
 1047SOL    HW3 4242   1.538   2.327   1.757  1.9304 -0.1012 -0.5010
 1047SOL    MW4 4243   1.557   2.318   1.841  0.5035  0.2327 -0.1281
 1048SOL     OW 4244   1.324   2.427   1.975  0.2547  0.2779  0.3107
 1048SOL    HW2 4245   1.329   2.515   1.937 -0.5310  0.4975  0.7087
 1048SOL    HW3 4246   1.392   2.378   1.930  1.1430  1.2700  0.5620
 1048SOL    MW4 4247   1.333   2.432   1.964  0.2682  0.4380  0.3963
 1049SOL     OW 4248   1.342   2.683   1.872 -0.0885  0.6933  0.3166
 1049SOL    HW2 4249   1.263   2.730   1.898 -0.6237  0.9724 -1.7766
 1049SOL    HW3 4250   1.341   2.684   1.777  1.7328 -0.5051  0.2580
 1049SOL    MW4 4251   1.331   2.689   1.863  0.0812  0.5722  0.0327
 1050SOL     OW 4252   1.537   2.847   1.964 -0.1418 -0.0413 -0.3112
 1050SOL    HW2 4253   1.617   2.803   1.935 -0.4218 -0.0560 -1.0681
 1050SOL    HW3 4254   1.466   2.795   1.928 -0.4840  0.6088 -0.5935
 1050SOL    MW4 4255   1.538   2.835   1.955 -0.2239  0.0427 -0.4485
 1051SOL     OW 4256   1.551   3.098   1.861  0.0093 -0.1461 -0.4008
 1051SOL    HW2 4257   1.537   3.009   1.892  1.3875 -0.5159 -0.8156
 1051SOL    HW3 4258   1.549   3.090   1.765  0.8216  0.1577 -0.4408
 1051SOL    MW4 4259   1.549   3.085   1.852  0.2984 -0.1550 -0.4609
 1052SOL     OW 4260   1.339   3.253   1.956  0.0305 -0.0899  0.0817
 1052SOL    HW2 4261   1.412   3.203   1.920  0.0993 -0.5127  0.7920
 1052SOL    HW3 4262   1.261   3.207   1.927  0.0228  0.6099 -1.0445
 1052SOL    MW4 4263   1.339   3.241   1.948  0.0384 -0.0534  0.0268
 1053SOL     OW 4264   1.366   3.517   1.917 -0.0332  0.0986  0.1943
 1053SOL    HW2 4265   1.347   3.425   1.934  0.3113  0.1682  0.9367
 1053SOL    HW3 4266   1.280   3.559   1.913 -0.1641 -0.1451  0.4645
 1053SOL    MW4 4267   1.352   3.510   1.918 -0.0050  0.0758  0.3279
 1054SOL     OW 4268   1.609   3.613   1.991  0.2980 -0.3627 -0.1655
 1054SOL    HW2 4269   1.594   3.650   2.078  0.2076  0.8801 -0.7018
 1054SOL    HW3 4270   1.526   3.571   1.968  0.5250 -1.2574  0.6050
 1054SOL    MW4 4271   1.596   3.612   1.999  0.3159 -0.3166 -0.1343
 1055SOL     OW 4272   1.584   3.842   1.837  0.1524  0.4547  0.2710
 1055SOL    HW2 4273   1.660   3.894   1.861 -0.1122  0.2943  1.5067
 1055SOL    HW3 4274   1.601   3.756   1.877  0.1839 -0.1450 -1.0138
 1055SOL    MW4 4275   1.596   3.837   1.845  0.1216  0.3543  0.2645
 1056SOL     OW 4276   1.339   3.958   1.952  0.4842 -0.2639 -0.1525
 1056SOL    HW2 4277   1.405   3.893   1.928  0.6078 -0.0493 -0.4035
 1056SOL    HW3 4278   1.260   3.930   1.906  0.3903 -0.5418  0.1770
 1056SOL    MW4 4279   1.337   3.946   1.943  0.4880 -0.2723 -0.1421
 1057SOL     OW 4280   1.379   4.220   1.851 -0.2918 -0.2726  0.1759
 1057SOL    HW2 4281   1.363   4.130   1.878 -1.1518  0.0647  0.8503
 1057SOL    HW3 4282   1.355   4.223   1.758 -1.5154 -0.4470  0.4738
 1057SOL    MW4 4283   1.374   4.209   1.842 -0.5666 -0.2508  0.3043
 1058SOL     OW 4284   1.611   4.366   1.933 -0.2910 -0.4897  0.1665
 1058SOL    HW2 4285   1.629   4.386   2.025 -0.2402 -0.2530  0.1062
 1058SOL    HW3 4286   1.540   4.302   1.936 -0.8280  0.0980  0.3593
 1058SOL    MW4 4287   1.604   4.360   1.945 -0.3551 -0.3815  0.1839
 1059SOL     OW 4288   2.015   4.665   1.839  0.1356  0.4347  0.0005
 1059SOL    HW2 4289   2.091   4.707   1.880  0.6789  0.6471 -1.1848
 1059SOL    HW3 4290   2.020   4.573   1.866  0.0658  0.7279  0.9994
 1059SOL    MW4 4291   2.026   4.658   1.848  0.1979  0.5016 -0.0242
 1060SOL     OW 4292   1.758   0.102   1.936  0.3454  0.2766 -0.0096
 1060SOL    HW2 4293   1.768   0.094   2.031  0.0207  2.5108  0.2441
 1060SOL    HW3 4294   1.829   0.049   1.899 -0.0842 -1.3733  1.4487
 1060SOL    MW4 4295   1.768   0.094   1.943  0.2458  0.3537  0.2162
 1061SOL     OW 4296   1.776   0.371   1.886  0.0656 -0.3903 -0.1044
 1061SOL    HW2 4297   1.776   0.279   1.912  1.4216 -0.4922 -0.4396
 1061SOL    HW3 4298   1.791   0.369   1.791  1.4164  0.2339  0.0965
 1061SOL    MW4 4299   1.778   0.358   1.877  0.4227 -0.3214 -0.1222
 1062SOL     OW 4300   2.028   0.501   1.968  0.0994  0.3152 -0.1202
 1062SOL    HW2 4301   2.027   0.584   1.922  1.1853  0.7907  0.6984
 1062SOL    HW3 4302   1.946   0.458   1.942 -0.6384  1.7811 -0.2632
 1062SOL    MW4 4303   2.017   0.506   1.958  0.1450  0.5713 -0.0310
 1063SOL     OW 4304   1.997   0.744   1.852 -0.2992  0.2771  0.3233
 1063SOL    HW2 4305   2.067   0.793   1.893 -0.0771  0.3052 -0.0913
 1063SOL    HW3 4306   2.004   0.763   1.759 -0.6108 -0.0294  0.2316
 1063SOL    MW4 4307   2.007   0.753   1.845 -0.3111  0.2404  0.2564
 1064SOL     OW 4308   1.771   0.846   1.981 -0.0469  0.6462 -0.8416
 1064SOL    HW2 4309   1.761   0.938   1.958  0.6717  0.8438 -0.3805
 1064SOL    HW3 4310   1.850   0.818   1.936  1.1827  0.9478  1.0714
 1064SOL    MW4 4311   1.780   0.854   1.972  0.2102  0.7121 -0.5282
 1065SOL     OW 4312   1.777   1.104   1.885 -0.1968 -0.1401 -0.1187
 1065SOL    HW2 4313   1.711   1.172   1.903  0.1917 -0.0242  0.9290
 1065SOL    HW3 4314   1.796   1.113   1.792 -1.2453  0.2083 -0.3011
 1065SOL    MW4 4315   1.771   1.114   1.875 -0.2841 -0.0789 -0.0045
 1066SOL     OW 4316   2.004   1.263   1.936  0.5949 -0.4103  0.3891
 1066SOL    HW2 4317   2.088   1.222   1.914  1.0393  1.0157 -0.6050
 1066SOL    HW3 4318   1.939   1.197   1.912  1.3819 -1.1635  0.2848
 1066SOL    MW4 4319   2.007   1.249   1.930  0.7575 -0.3214  0.2441
 1067SOL     OW 4320   2.035   1.546   1.852  0.3292  0.2485 -0.2282
 1067SOL    HW2 4321   2.025   1.463   1.899  3.0289 -1.0550 -1.8316
 1067SOL    HW3 4322   2.026   1.523   1.760 -0.8717  2.1046 -0.6050
 1067SOL    MW4 4323   2.033   1.532   1.846  0.5269  0.3213 -0.4896
 1068SOL     OW 4324   1.783   1.676   1.954 -0.2699 -0.3262 -0.3679
 1068SOL    HW2 4325   1.789   1.770   1.940 -1.0957 -0.0082  1.2405
 1068SOL    HW3 4326   1.866   1.641   1.921  0.7714  1.1724  0.5717
 1068SOL    MW4 4327   1.795   1.684   1.948 -0.2414 -0.0865 -0.0317
 1069SOL     OW 4328   1.794   1.942   1.886  0.0575 -0.2054  0.0423
 1069SOL    HW2 4329   1.708   1.977   1.910  0.0258 -0.7998  0.8091
 1069SOL    HW3 4330   1.793   1.941   1.790  0.1945  2.2115 -0.0306
 1069SOL    MW4 4331   1.782   1.947   1.877  0.0713  0.0350  0.1338
 1070SOL     OW 4332   1.998   2.109   1.960  0.1620  0.1346  0.2534
 1070SOL    HW2 4333   2.072   2.071   1.912 -0.0607 -0.7479  0.5835
 1070SOL    HW3 4334   1.922   2.060   1.928  0.1333 -1.1616  2.1902
 1070SOL    MW4 4335   1.998   2.097   1.949  0.1287 -0.1528  0.5524
 1071SOL     OW 4336   2.040   2.356   1.846  0.3957 -0.2904  0.3900
 1071SOL    HW2 4337   2.122   2.390   1.883  0.5206  0.5425 -0.6301
 1071SOL    HW3 4338   2.032   2.268   1.883  0.7339  0.3648  2.0523
 1071SOL    MW4 4339   2.050   2.349   1.856  0.4568 -0.0939  0.4748
 1072SOL     OW 4340   1.793   2.415   1.944  0.3565 -0.0104  0.1472
 1072SOL    HW2 4341   1.795   2.440   2.037 -1.8492  0.4456  0.1027
 1072SOL    HW3 4342   1.884   2.394   1.923  0.8302 -0.5004  2.5135
 1072SOL    MW4 4343   1.805   2.416   1.954  0.1281 -0.0148  0.4535
 1073SOL     OW 4344   1.763   2.698   1.887  0.0287 -0.1008  0.1303
 1073SOL    HW2 4345   1.767   2.603   1.899  0.3919 -0.1264 -0.1754
 1073SOL    HW3 4346   1.768   2.710   1.792  3.1821  0.3690  0.3091
 1073SOL    MW4 4347   1.764   2.687   1.876  0.4927 -0.0420  0.1136
 1074SOL     OW 4348   2.025   2.818   1.936 -0.2088  0.4146 -0.3325
 1074SOL    HW2 4349   2.010   2.824   2.030  1.2890 -0.1492 -0.0460
 1074SOL    HW3 4350   1.949   2.770   1.903 -0.4049  0.0204  0.6710
 1074SOL    MW4 4351   2.013   2.813   1.944 -0.0372  0.2882 -0.1622
 1075SOL     OW 4352   1.997   3.093   1.854  0.0305 -0.0156 -0.0975
 1075SOL    HW2 4353   1.912   3.120   1.888  0.5579  1.2125  0.2699
 1075SOL    HW3 4354   2.008   3.003   1.884 -1.0266 -0.0934  0.0575
 1075SOL    MW4 4355   1.987   3.084   1.862 -0.0393  0.1361 -0.0286
 1076SOL     OW 4356   1.781   3.235   1.981  0.2940 -0.8918 -0.4017
 1076SOL    HW2 4357   1.775   3.232   2.076 -0.6564  1.5694 -0.3373
 1076SOL    HW3 4358   1.703   3.189   1.950  0.0772 -0.8123  0.0285
 1076SOL    MW4 4359   1.770   3.228   1.989  0.1401 -0.5567 -0.3364
 1077SOL     OW 4360   1.837   3.488   1.885 -0.1963  0.0327  0.1473
 1077SOL    HW2 4361   1.829   3.404   1.929  0.0756 -1.0458 -1.8210
 1077SOL    HW3 4362   1.764   3.540   1.919  0.6689 -0.3555  2.7078
 1077SOL    MW4 4363   1.826   3.484   1.895 -0.0463 -0.1609  0.2254
 1078SOL     OW 4364   2.033   3.605   2.017  0.4038  0.1915 -0.0492
 1078SOL    HW2 4365   2.023   3.673   1.951  0.6629 -1.0741 -1.4035
 1078SOL    HW3 4366   1.968   3.539   1.993 -0.3729  0.2886  1.6919
 1078SOL    MW4 4367   2.023   3.605   2.006  0.3355  0.0374  0.0017
 1079SOL     OW 4368   2.042   3.833   1.847 -0.1376 -0.3420 -0.3816
 1079SOL    HW2 4369   2.106   3.895   1.881  0.6203 -0.7082 -1.1455
 1079SOL    HW3 4370   2.038   3.851   1.753  0.8711 -2.1517 -0.7874
 1079SOL    MW4 4371   2.050   3.843   1.839  0.0954 -0.6292 -0.5360
 1080SOL     OW 4372   1.809   3.963   1.926 -0.2187  0.5262  0.5532
 1080SOL    HW2 4373   1.820   4.052   1.894 -1.3675  0.3453 -0.3877
 1080SOL    HW3 4374   1.881   3.914   1.887 -1.2746  0.4318 -1.3320
 1080SOL    MW4 4375   1.820   3.968   1.917 -0.5095  0.4900  0.1801
 1081SOL     OW 4376   1.819   4.218   1.820  0.3067  0.2004  0.0150
 1081SOL    HW2 4377   1.748   4.273   1.852  0.6017  0.3043  0.5048
 1081SOL    HW3 4378   1.804   4.210   1.726  0.4685  1.4334 -0.1215
 1081SOL    MW4 4379   1.808   4.224   1.812  0.3669  0.3772  0.0615
 1082SOL     OW 4380   2.017   4.410   1.926 -0.0798  0.3510  0.6188
 1082SOL    HW2 4381   2.099   4.373   1.894  0.0292  0.3386  0.9215
 1082SOL    HW3 4382   1.949   4.353   1.889 -0.0525  1.2868 -0.9706
 1082SOL    MW4 4383   2.019   4.398   1.917 -0.0618  0.4725  0.4489
 1083SOL     OW 4384   2.496   4.656   1.882  0.0324  0.2506 -0.4766
 1083SOL    HW2 4385   2.571   4.705   1.915  0.2494  0.1794 -0.8667
 1083SOL    HW3 4386   2.515   4.565   1.906  0.0885  0.2273 -0.6134
 1083SOL    MW4 4387   2.508   4.651   1.890  0.0684  0.2384 -0.5461
 1084SOL     OW 4388   2.234   0.119   1.971 -0.1057 -0.0390  0.0235
 1084SOL    HW2 4389   2.227   0.106   2.065  0.3556 -0.9474 -0.0682
 1084SOL    HW3 4390   2.313   0.072   1.946  0.0624  0.6376 -0.7381
 1084SOL    MW4 4391   2.244   0.111   1.980 -0.0226 -0.0696 -0.0892
 1085SOL     OW 4392   2.270   0.380   1.881 -0.2883 -0.2114 -0.0605
 1085SOL    HW2 4393   2.255   0.292   1.916  0.6377 -0.4793 -0.3225
 1085SOL    HW3 4394   2.190   0.428   1.901 -0.7610 -1.0909  0.1639
 1085SOL    MW4 4395   2.257   0.375   1.888 -0.2286 -0.3628 -0.0656
 1086SOL     OW 4396   2.490   0.526   1.963 -0.1042  0.0696 -0.1959
 1086SOL    HW2 4397   2.564   0.483   1.921  0.4084  1.4969 -0.7826
 1086SOL    HW3 4398   2.414   0.477   1.933  0.4175 -0.0448 -1.3554
 1086SOL    MW4 4399   2.490   0.514   1.953  0.0322  0.2428 -0.4262
 1087SOL     OW 4400   2.456   0.802   1.878 -0.0603 -0.0165 -0.5582
 1087SOL    HW2 4401   2.471   0.714   1.913 -1.8799 -0.4336 -0.7506
 1087SOL    HW3 4402   2.465   0.793   1.784  0.6810  0.2120 -0.5129
 1087SOL    MW4 4403   2.459   0.789   1.871 -0.2024 -0.0415 -0.5777
 1088SOL     OW 4404   2.211   0.873   1.975 -0.2040  0.4686  0.1265
 1088SOL    HW2 4405   2.220   0.887   2.069 -0.4886  1.4513  0.0048
 1088SOL    HW3 4406   2.292   0.829   1.949 -0.7392 -1.1090  1.0832
 1088SOL    MW4 4407   2.223   0.869   1.984 -0.3123  0.3901  0.2367
 1089SOL     OW 4408   2.223   1.122   1.866  0.2915  0.0087 -0.0447
 1089SOL    HW2 4409   2.304   1.154   1.906  0.4661 -0.4766 -0.0119
 1089SOL    HW3 4410   2.219   1.030   1.890  0.0913 -0.1382 -0.6370
 1089SOL    MW4 4411   2.233   1.114   1.874  0.2882 -0.0746 -0.1185
 1090SOL     OW 4412   2.446   1.257   1.939  0.2873  0.2281 -0.1335
 1090SOL    HW2 4413   2.443   1.245   2.034 -0.3205 -0.8852 -0.2852
 1090SOL    HW3 4414   2.448   1.352   1.927 -0.5480  0.3991  0.9654
 1090SOL    MW4 4415   2.446   1.268   1.950  0.0968  0.1037 -0.0086
 1091SOL     OW 4416   2.463   1.543   1.866 -0.1275  0.3559  0.4056
 1091SOL    HW2 4417   2.385   1.594   1.889 -0.2289  0.3490  0.0891
 1091SOL    HW3 4418   2.461   1.539   1.770 -0.0923 -0.1959  0.4279
 1091SOL    MW4 4419   2.452   1.549   1.856 -0.1364  0.2823  0.3667
 1092SOL     OW 4420   2.248   1.712   1.933  0.2926 -0.0597 -0.1788
 1092SOL    HW2 4421   2.232   1.703   2.027  0.1942 -1.0293 -0.2788
 1092SOL    HW3 4422   2.178   1.661   1.892  2.0425 -2.1605 -0.6939
 1092SOL    MW4 4423   2.237   1.704   1.940  0.5109 -0.4649 -0.2599
 1093SOL     OW 4424   2.212   1.977   1.874 -0.9180  0.0262  0.4757
 1093SOL    HW2 4425   2.301   2.011   1.884 -0.1679 -1.7130 -0.1208
 1093SOL    HW3 4426   2.218   1.886   1.901 -2.6040 -0.0261  0.7486
 1093SOL    MW4 4427   2.224   1.970   1.879 -1.0414 -0.2100  0.4330
 1094SOL     OW 4428   2.455   2.069   1.938 -0.2974 -0.5879  0.1808
 1094SOL    HW2 4429   2.535   2.033   1.899 -0.6843 -0.2725 -0.9329
 1094SOL    HW3 4430   2.461   2.164   1.922 -0.6675 -0.5084  0.5028
 1094SOL    MW4 4431   2.466   2.077   1.931 -0.3974 -0.5360  0.0763
 1095SOL     OW 4432   2.477   2.336   1.861  0.6969  0.1171 -0.0999
 1095SOL    HW2 4433   2.561   2.367   1.896  0.4701 -0.6647  1.1446
 1095SOL    HW3 4434   2.411   2.378   1.915  0.2256  1.3989 -1.6142
 1095SOL    MW4 4435   2.479   2.346   1.873  0.6049  0.1829 -0.1355
 1096SOL     OW 4436   2.261   2.450   1.984 -0.3043  0.3917 -0.0131
 1096SOL    HW2 4437   2.240   2.462   2.077 -1.1279  0.7336 -0.2375
 1096SOL    HW3 4438   2.291   2.536   1.955  1.6873 -0.1562  0.3655
 1096SOL    MW4 4439   2.262   2.463   1.992 -0.1502  0.3645  0.0072
 1097SOL     OW 4440   2.261   2.706   1.858 -0.0225 -0.1144 -0.1417
 1097SOL    HW2 4441   2.171   2.735   1.874  0.1883  1.3101 -1.4755
 1097SOL    HW3 4442   2.273   2.716   1.764  1.3281 -0.9499 -0.0649
 1097SOL    MW4 4443   2.250   2.711   1.848  0.1833 -0.0367 -0.3074
 1098SOL     OW 4444   2.484   2.833   1.949 -0.3331 -0.0944  0.1576
 1098SOL    HW2 4445   2.465   2.917   1.909 -1.5436 -0.6436 -0.4616
 1098SOL    HW3 4446   2.424   2.772   1.906  2.7974 -1.9273 -1.8087
 1098SOL    MW4 4447   2.473   2.836   1.938 -0.0799 -0.4089 -0.1835
 1099SOL     OW 4448   2.438   3.102   1.878 -0.0074  0.0526 -0.0865
 1099SOL    HW2 4449   2.352   3.137   1.899 -0.0344 -0.8285  1.3793
 1099SOL    HW3 4450   2.438   3.093   1.783 -1.0906  1.1699 -0.2060
 1099SOL    MW4 4451   2.427   3.106   1.869 -0.1540  0.0837  0.0911
 1100SOL     OW 4452   2.196   3.237   1.953  0.0255 -0.4287 -0.3055
 1100SOL    HW2 4453   2.204   3.222   2.048 -1.3681 -0.8288 -0.2378
 1100SOL    HW3 4454   2.121   3.184   1.927  0.3864 -0.2914 -1.6395
 1100SOL    MW4 4455   2.187   3.228   1.962 -0.1106 -0.4632 -0.4727
 1101SOL     OW 4456   2.242   3.497   1.873 -0.2213  0.2005 -0.0888
 1101SOL    HW2 4457   2.229   3.405   1.899  0.8254 -0.5239 -2.0716
 1101SOL    HW3 4458   2.168   3.543   1.914 -0.1372 -1.3139  1.8843
 1101SOL    MW4 4459   2.230   3.491   1.882 -0.0722 -0.0951 -0.0900
 1102SOL     OW 4460   2.449   3.657   1.941  0.1256  0.0294 -0.2370
 1102SOL    HW2 4461   2.454   3.662   2.036 -0.7040 -0.7140 -0.1441
 1102SOL    HW3 4462   2.376   3.597   1.924  1.5165 -1.3994 -1.3221
 1102SOL    MW4 4463   2.440   3.650   1.951  0.1998 -0.2570 -0.3679
 1103SOL     OW 4464   2.460   3.924   1.879 -0.0438 -0.0352  0.1402
 1103SOL    HW2 4465   2.372   3.960   1.888  0.4796  0.9204  1.6587
 1103SOL    HW3 4466   2.451   3.832   1.903 -0.2693  0.5545  2.5311
 1103SOL    MW4 4467   2.448   3.917   1.884 -0.0045  0.1688  0.6560
 1104SOL     OW 4468   2.214   4.020   1.950 -0.0695  0.1997 -0.8778
 1104SOL    HW2 4469   2.213   4.026   2.046 -1.8614  0.4951 -0.8937
 1104SOL    HW3 4470   2.236   4.109   1.921  1.6616 -0.1722 -0.7341
 1104SOL    MW4 4471   2.217   4.033   1.959 -0.0775  0.1898 -0.8609
 1105SOL     OW 4472   2.258   4.282   1.873 -0.4093  0.1763  0.1727
 1105SOL    HW2 4473   2.340   4.325   1.897 -0.8915  0.9904  0.3690
 1105SOL    HW3 4474   2.257   4.285   1.777 -0.7367  1.1785  0.1978
 1105SOL    MW4 4475   2.269   4.288   1.864 -0.5159  0.4158  0.2019
 1106SOL     OW 4476   2.499   4.380   1.956 -0.2140  0.2941 -0.4267
 1106SOL    HW2 4477   2.492   4.379   2.051 -2.0241 -2.8019 -0.5528
 1106SOL    HW3 4478   2.578   4.329   1.937 -1.2557 -1.2291 -0.6776
 1106SOL    MW4 4479   2.509   4.373   1.966 -0.5901 -0.3161 -0.4766
 1107SOL     OW 4480   2.947   4.640   1.859 -0.3255 -0.4451 -0.1665
 1107SOL    HW2 4481   3.006   4.706   1.895 -2.3358  0.9907  0.6206
 1107SOL    HW3 4482   2.960   4.563   1.916  1.7157 -0.6195 -0.8304
 1107SOL    MW4 4483   2.956   4.638   1.872 -0.3214 -0.2787 -0.1501
 1108SOL     OW 4484   2.746   0.127   1.943 -0.2807  0.1684  0.5650
 1108SOL    HW2 4485   2.746   0.128   2.039  2.2777  1.1126  0.5861
 1108SOL    HW3 4486   2.809   0.058   1.920 -1.3506 -0.4799 -0.4541
 1108SOL    MW4 4487   2.754   0.118   1.953 -0.0844  0.2074  0.4333
 1109SOL     OW 4488   2.698   0.395   1.856  0.2906  0.2459 -0.1905
 1109SOL    HW2 4489   2.779   0.442   1.872  0.9296 -0.5722 -0.9667
 1109SOL    HW3 4490   2.718   0.304   1.880 -0.6887  0.2140  0.5493
 1109SOL    MW4 4491   2.711   0.389   1.861  0.2458  0.1338 -0.1953
 1110SOL     OW 4492   2.923   0.531   1.924  0.2537  0.3414  0.2552
 1110SOL    HW2 4493   3.008   0.493   1.901 -0.5239  0.2366 -2.6967
 1110SOL    HW3 4494   2.929   0.622   1.896 -0.0436  0.7692  1.5654
 1110SOL    MW4 4495   2.935   0.538   1.917  0.1118  0.3840  0.0385
 1111SOL     OW 4496   2.912   0.807   1.843  0.2635  0.0032  0.5836
 1111SOL    HW2 4497   2.993   0.832   1.885  0.6908  1.0812 -0.8411
 1111SOL    HW3 4498   2.843   0.842   1.900  0.8338  2.7570 -0.3247
 1111SOL    MW4 4499   2.913   0.815   1.856  0.3955  0.5087  0.2759
 1112SOL     OW 4500   2.690   0.919   1.983  0.2881 -0.2671 -0.0546
 1112SOL    HW2 4501   2.703   1.008   1.949 -0.1709  0.2335  1.0547
 1112SOL    HW3 4502   2.605   0.892   1.948 -0.4312  0.4535  1.0965
 1112SOL    MW4 4503   2.681   0.927   1.974  0.1326 -0.1059  0.2437
 1113SOL     OW 4504   2.699   1.174   1.873  0.1582  0.0496  0.1846
 1113SOL    HW2 4505   2.618   1.216   1.903  0.2043 -0.3481  0.8817
 1113SOL    HW3 4506   2.695   1.180   1.778 -1.6399 -1.6722  0.0977
 1113SOL    MW4 4507   2.688   1.180   1.864 -0.0730 -0.2300  0.2651
 1114SOL     OW 4508   2.918   1.310   1.988 -0.0381 -0.1174 -0.0046
 1114SOL    HW2 4509   2.907   1.401   1.964  0.0350 -0.1891 -0.3035
 1114SOL    HW3 4510   2.844   1.265   1.947 -0.5383 -0.0693  0.8153
 1114SOL    MW4 4511   2.906   1.316   1.980 -0.0947 -0.1205  0.0643
 1115SOL     OW 4512   2.900   1.578   1.854  0.0657 -0.2484 -0.7655
 1115SOL    HW2 4513   2.981   1.619   1.883  0.0736 -1.0505  0.3904
 1115SOL    HW3 4514   2.917   1.553   1.763  1.6958 -1.8448 -0.0436
 1115SOL    MW4 4515   2.913   1.580   1.846  0.2818 -0.5649 -0.5178
 1116SOL     OW 4516   2.675   1.684   1.972 -0.0606 -0.6295 -0.2703
 1116SOL    HW2 4517   2.756   1.645   1.940  0.6410 -0.1053  0.8420
 1116SOL    HW3 4518   2.606   1.627   1.939  0.8377 -1.7142 -0.2851
 1116SOL    MW4 4519   2.676   1.671   1.964  0.1504 -0.7036 -0.1254
 1117SOL     OW 4520   2.690   1.937   1.847 -0.0341 -0.3118 -0.0780
 1117SOL    HW2 4521   2.772   1.980   1.872 -0.2066 -0.9409  1.6862
 1117SOL    HW3 4522   2.686   1.860   1.903 -1.0700 -1.1328 -1.2664
 1117SOL    MW4 4523   2.700   1.933   1.858 -0.1936 -0.5031 -0.0020
 1118SOL     OW 4524   2.924   2.092   1.916  0.2901  0.3113  0.1315
 1118SOL    HW2 4525   2.923   2.073   2.010  0.0229 -0.5818 -0.0432
 1118SOL    HW3 4526   2.996   2.039   1.882 -0.5404 -0.5177 -0.3841
 1118SOL    MW4 4527   2.933   2.082   1.924  0.1450  0.0842  0.0407
 1119SOL     OW 4528   2.910   2.357   1.826  0.9151  0.0837  0.3510
 1119SOL    HW2 4529   2.994   2.391   1.858  0.9017  0.5068 -0.0501
 1119SOL    HW3 4530   2.908   2.266   1.856  2.6051 -0.6768 -1.6811
 1119SOL    MW4 4531   2.921   2.350   1.834  1.1365  0.0393  0.0300
 1120SOL     OW 4532   2.694   2.476   1.958 -0.1348  0.1631 -0.1551
 1120SOL    HW2 4533   2.698   2.567   1.929  1.8189  0.6412  1.5725
 1120SOL    HW3 4534   2.773   2.436   1.923 -0.7642 -0.7736 -0.5255
 1120SOL    MW4 4535   2.705   2.483   1.949  0.0401  0.1023  0.0240
 1121SOL     OW 4536   2.725   2.727   1.850  0.1727 -0.5314 -0.1615
 1121SOL    HW2 4537   2.642   2.764   1.880  0.8755  0.7095  0.2963
 1121SOL    HW3 4538   2.715   2.719   1.755 -0.6847 -0.9664 -0.0404
 1121SOL    MW4 4539   2.713   2.731   1.841  0.1521 -0.4249 -0.0850
 1122SOL     OW 4540   2.924   2.840   1.985 -0.0871  0.1990  0.2279
 1122SOL    HW2 4541   2.931   2.913   1.924  0.2153 -1.1826 -1.4356
 1122SOL    HW3 4542   2.843   2.796   1.960 -0.6939  0.4157  1.7493
 1122SOL    MW4 4543   2.914   2.844   1.974 -0.1276  0.0451  0.2092
 1123SOL     OW 4544   2.899   3.099   1.839  0.2266  0.4050 -0.0343
 1123SOL    HW2 4545   2.966   3.150   1.884  0.5214 -0.4188  0.4812
 1123SOL    HW3 4546   2.816   3.137   1.867  0.4504  0.7768  0.1227
 1123SOL    MW4 4547   2.897   3.111   1.848  0.2947  0.3455  0.0545
 1124SOL     OW 4548   2.681   3.231   1.968  0.0245  0.1145  0.9778
 1124SOL    HW2 4549   2.691   3.321   1.936  0.9439 -0.0235  0.8507
 1124SOL    HW3 4550   2.601   3.200   1.926 -0.7136  1.1167  1.6140
 1124SOL    MW4 4551   2.672   3.239   1.958  0.0484  0.2284  1.0450
 1125SOL     OW 4552   2.671   3.501   1.863 -0.0336  0.4733 -0.2922
 1125SOL    HW2 4553   2.747   3.542   1.903  0.1842  0.5410 -0.7713
 1125SOL    HW3 4554   2.598   3.561   1.881 -0.0403  0.2416  0.4602
 1125SOL    MW4 4555   2.671   3.514   1.871 -0.0057  0.4516 -0.2562
 1126SOL     OW 4556   2.898   3.605   1.967 -0.1135 -0.2992  0.7997
 1126SOL    HW2 4557   2.898   3.610   2.063  0.3421 -0.5135  0.8115
 1126SOL    HW3 4558   2.976   3.554   1.946 -0.5628 -0.8128  0.3432
 1126SOL    MW4 4559   2.908   3.599   1.977 -0.1128 -0.3951  0.7410
 1127SOL     OW 4560   2.934   3.863   1.899  0.1503  0.2310  0.0503
 1127SOL    HW2 4561   2.920   3.772   1.927  1.5535 -0.0933 -0.2952
 1127SOL    HW3 4562   2.948   3.857   1.805  0.6863  0.7542  0.0948
 1127SOL    MW4 4563   2.934   3.850   1.890  0.4060  0.2570  0.0106
 1128SOL     OW 4564   2.713   4.018   1.966  0.2432  0.4573  0.1510
 1128SOL    HW2 4565   2.782   3.956   1.944 -0.5714 -0.6376  0.6476
 1128SOL    HW3 4566   2.632   3.978   1.934 -0.2218  1.5314 -0.0553
 1128SOL    MW4 4567   2.711   4.005   1.959  0.0744  0.4544  0.1893
 1129SOL     OW 4568   2.753   4.267   1.875 -0.2912  0.1492 -0.5962
 1129SOL    HW2 4569   2.739   4.180   1.912 -1.9131  0.4577 -0.4674
 1129SOL    HW3 4570   2.726   4.258   1.784  0.0095  0.3898 -0.7065
 1129SOL    MW4 4571   2.748   4.254   1.868 -0.4654  0.2217 -0.5937
 1130SOL     OW 4572   2.942   4.408   2.004 -0.0050 -0.5549  0.0143
 1130SOL    HW2 4573   2.938   4.402   2.100 -0.2593 -0.5276  0.0061
 1130SOL    HW3 4574   2.864   4.362   1.974 -0.4793  0.3518 -0.1437
 1130SOL    MW4 4575   2.931   4.401   2.013 -0.1009 -0.4315 -0.0079
 1131SOL     OW 4576   3.352   4.663   1.871 -0.0749 -0.2371 -0.0724
 1131SOL    HW2 4577   3.364   4.571   1.892  0.1415 -0.1725  0.0904
 1131SOL    HW3 4578   3.375   4.670   1.778  0.7002 -0.2054  0.1110
 1131SOL    MW4 4579   3.357   4.652   1.861  0.0560 -0.2246 -0.0266
 1132SOL     OW 4580   3.146   0.154   1.962 -0.4385 -0.0670 -0.1044
 1132SOL    HW2 4581   3.136   0.140   2.056 -1.0239 -0.1676 -0.1818
 1132SOL    HW3 4582   3.215   0.093   1.936 -0.7942 -0.5649  0.1230
 1132SOL    MW4 4583   3.154   0.144   1.971 -0.5627 -0.1460 -0.0846
 1133SOL     OW 4584   3.179   0.415   1.874 -0.0754 -0.5767  0.2111
 1133SOL    HW2 4585   3.173   0.325   1.909 -0.6261 -0.4587  0.4300
 1133SOL    HW3 4586   3.171   0.404   1.779  0.5678 -0.8244  0.1859
 1133SOL    MW4 4587   3.177   0.401   1.866 -0.0632 -0.5938  0.2367
 1134SOL     OW 4588   3.375   0.541   1.996  0.1122  0.6381 -0.4642
 1134SOL    HW2 4589   3.450   0.486   1.974  0.4694 -0.7407  3.6991
 1134SOL    HW3 4590   3.299   0.490   1.966  0.6085 -0.5634  0.2658
 1134SOL    MW4 4591   3.375   0.527   1.989  0.2248  0.2978  0.1814
 1135SOL     OW 4592   3.388   0.792   1.887  0.3093 -0.2604  0.3893
 1135SOL    HW2 4593   3.305   0.835   1.905  0.8659  0.5145  1.1501
 1135SOL    HW3 4594   3.380   0.706   1.928  0.0976  0.0222  0.9424
 1135SOL    MW4 4595   3.376   0.786   1.895  0.3548 -0.1209  0.5625
 1136SOL     OW 4596   3.157   0.911   1.946 -0.3406 -0.1999  0.3945
 1136SOL    HW2 4597   3.164   0.919   2.041 -2.5601 -1.3092  0.6989
 1136SOL    HW3 4598   3.148   1.002   1.915 -1.1404  0.0817  1.4033
 1136SOL    MW4 4599   3.157   0.924   1.954 -0.7389 -0.3092  0.5678
 1137SOL     OW 4600   3.144   1.178   1.870  0.5620  0.1720 -0.3339
 1137SOL    HW2 4601   3.223   1.218   1.906 -0.2611  0.1467  1.5641
 1137SOL    HW3 4602   3.072   1.223   1.915 -0.4308 -1.8285  0.1179
 1137SOL    MW4 4603   3.145   1.189   1.881  0.3223 -0.0952 -0.0240
 1138SOL     OW 4604   3.391   1.298   1.975 -0.3355  0.3984  0.0607
 1138SOL    HW2 4605   3.397   1.300   2.071 -1.1348  1.0318  0.1072
 1138SOL    HW3 4606   3.390   1.390   1.949 -0.5366  0.2298 -0.5287
 1138SOL    MW4 4607   3.391   1.310   1.984 -0.4675  0.4597 -0.0108
 1139SOL     OW 4608   3.361   1.546   1.875 -0.2961  0.0756  0.3507
 1139SOL    HW2 4609   3.425   1.602   1.918  0.0713  0.7476 -1.0571
 1139SOL    HW3 4610   3.276   1.587   1.896 -0.2869 -0.8096  2.2004
 1139SOL    MW4 4611   3.358   1.559   1.884 -0.2465  0.0474  0.4090
 1140SOL     OW 4612   3.156   1.679   1.960  0.2005 -0.0041 -0.3991
 1140SOL    HW2 4613   3.161   1.697   2.054  1.3254  0.8564 -0.6040
 1140SOL    HW3 4614   3.161   1.765   1.919 -2.3874 -0.2025 -1.2091
 1140SOL    MW4 4615   3.158   1.693   1.967  0.0076  0.0832 -0.5331
 1141SOL     OW 4616   3.146   1.932   1.848  0.2577 -0.1573  0.2862
 1141SOL    HW2 4617   3.230   1.970   1.871 -0.2846  0.8590  0.6256
 1141SOL    HW3 4618   3.140   1.941   1.753  0.3092  0.2305  0.3217
 1141SOL    MW4 4619   3.156   1.938   1.838  0.1929  0.0279  0.3357
 1142SOL     OW 4620   3.389   2.055   1.927  0.5206 -0.0478  0.2713
 1142SOL    HW2 4621   3.477   2.023   1.906  0.0271 -1.7177  0.6725
 1142SOL    HW3 4622   3.385   2.141   1.886  2.1477 -0.1856 -0.2363
 1142SOL    MW4 4623   3.400   2.062   1.919  0.6702 -0.2863  0.2571
 1143SOL     OW 4624   3.366   2.314   1.828 -0.0524 -0.7588  0.0672
 1143SOL    HW2 4625   3.291   2.363   1.862 -1.2089 -2.5128  0.1090
 1143SOL    HW3 4626   3.359   2.322   1.733  2.0375  2.4530  0.1084
 1143SOL    MW4 4627   3.355   2.321   1.820  0.0706 -0.5667  0.0782
 1144SOL     OW 4628   3.145   2.452   1.935  0.1287 -0.2225  0.2880
 1144SOL    HW2 4629   3.166   2.450   2.028 -0.6362  0.6817  0.4901
 1144SOL    HW3 4630   3.160   2.543   1.909  0.2158 -0.4434 -0.4446
 1144SOL    MW4 4631   3.150   2.464   1.944  0.0396 -0.1323  0.2179
 1145SOL     OW 4632   3.176   2.720   1.877 -0.2514  0.7020  0.0958
 1145SOL    HW2 4633   3.105   2.767   1.920 -0.8137  0.1156 -0.1869
 1145SOL    HW3 4634   3.157   2.727   1.783  0.1171  0.6268  0.0120
 1145SOL    MW4 4635   3.164   2.727   1.870 -0.2770  0.6149  0.0474
 1146SOL     OW 4636   3.390   2.851   1.987 -0.2547  0.0816 -0.1358
 1146SOL    HW2 4637   3.407   2.826   2.078  0.7095 -1.5521 -0.7487
 1146SOL    HW3 4638   3.311   2.802   1.963  0.1421 -0.3817 -0.5188
 1146SOL    MW4 4639   3.382   2.841   1.996 -0.0751 -0.1950 -0.2673
 1147SOL     OW 4640   3.307   3.096   1.892 -0.5612 -0.4988  0.1704
 1147SOL    HW2 4641   3.396   3.128   1.907 -0.6844  0.1686 -0.4936
 1147SOL    HW3 4642   3.310   3.003   1.916  0.3225 -0.4884  0.0997
 1147SOL    MW4 4643   3.319   3.088   1.897 -0.4609 -0.4089  0.0736
 1148SOL     OW 4644   3.089   3.233   1.979 -0.5858  0.4327  0.1573
 1148SOL    HW2 4645   3.098   3.314   1.929 -1.2895  0.7175  0.4916
 1148SOL    HW3 4646   3.161   3.178   1.948 -0.8967  0.6810 -1.0225
 1148SOL    MW4 4647   3.100   3.237   1.968 -0.7198  0.5033  0.0458
 1149SOL     OW 4648   3.125   3.472   1.850  0.0705 -0.0384  0.1062
 1149SOL    HW2 4649   3.191   3.534   1.880  0.2563 -0.2002  0.0263
 1149SOL    HW3 4650   3.133   3.473   1.755 -1.5814  1.6709 -0.0495
 1149SOL    MW4 4651   3.134   3.480   1.842 -0.1230  0.1659  0.0750
 1150SOL     OW 4652   3.360   3.611   1.946  0.4481 -0.0798  0.1229
 1150SOL    HW2 4653   3.442   3.571   1.915 -0.2048 -0.3691 -1.2591
 1150SOL    HW3 4654   3.365   3.701   1.915 -0.3333 -0.4434 -1.0548
 1150SOL    MW4 4655   3.372   3.617   1.938  0.2589 -0.1659 -0.2148
 1151SOL     OW 4656   3.394   3.863   1.880 -0.0090 -0.3305  0.5588
 1151SOL    HW2 4657   3.322   3.915   1.915  2.2081  2.1905  1.5265
 1151SOL    HW3 4658   3.388   3.876   1.785 -0.0317  0.9813  0.7258
 1151SOL    MW4 4659   3.383   3.872   1.872  0.2804  0.1752  0.7086
 1152SOL     OW 4660   3.156   3.995   1.988  0.2248  0.4950  0.3024
 1152SOL    HW2 4661   3.154   4.010   2.082  1.7613 -1.7241  0.7471
 1152SOL    HW3 4662   3.071   3.953   1.968 -0.3008  1.4164  0.6046
 1152SOL    MW4 4663   3.144   3.991   1.998  0.3581  0.3238  0.4010
 1153SOL     OW 4664   3.175   4.267   1.911  0.1169  0.2661  0.0866
 1153SOL    HW2 4665   3.179   4.175   1.936  1.0627  0.2973  0.0657
 1153SOL    HW3 4666   3.091   4.297   1.946 -0.1825 -0.5882  0.1243
 1153SOL    MW4 4667   3.164   4.259   1.919  0.2022  0.1574  0.0888
 1154SOL     OW 4668   3.397   4.410   1.983  0.4739  0.7819 -0.1943
 1154SOL    HW2 4669   3.468   4.361   1.942  1.6743  1.8985  0.5109
 1154SOL    HW3 4670   3.317   4.366   1.954  1.3484  0.7545 -2.6364
 1154SOL    MW4 4671   3.395   4.398   1.974  0.7474  0.9255 -0.4236
 1155SOL     OW 4672   3.797   4.612   1.862  0.0883  0.0080  0.1204
 1155SOL    HW2 4673   3.805   4.529   1.909  1.8631 -0.0978 -0.3207
 1155SOL    HW3 4674   3.713   4.648   1.890 -0.8155 -2.0404  0.1581
 1155SOL    MW4 4675   3.787   4.606   1.872  0.2031 -0.2761  0.0671
 1156SOL     OW 4676   3.592   0.109   1.979 -0.0938 -0.1349 -0.3592
 1156SOL    HW2 4677   3.595   0.096   2.074 -0.8704  2.8247  0.1307
 1156SOL    HW3 4678   3.504   0.081   1.953 -0.6388  1.0487  0.1634
 1156SOL    MW4 4679   3.581   0.104   1.988 -0.2680  0.4118 -0.2255
 1157SOL     OW 4680   3.596   0.380   1.929 -0.5639  0.0493  0.2212
 1157SOL    HW2 4681   3.592   0.287   1.950 -1.6739 -0.2181 -1.0832
 1157SOL    HW3 4682   3.593   0.382   1.833 -0.5483  1.4344  0.2484
 1157SOL    MW4 4683   3.595   0.368   1.919 -0.7083  0.1968  0.0527
 1158SOL     OW 4684   3.806   0.523   2.026  0.0656  0.2718 -0.2984
 1158SOL    HW2 4685   3.805   0.611   1.988  0.3392  0.4188  0.0381
 1158SOL    HW3 4686   3.728   0.480   1.989  0.3640  0.3938 -1.0857
 1158SOL    MW4 4687   3.796   0.529   2.016  0.1411  0.3073 -0.3581
 1159SOL     OW 4688   3.806   0.759   1.896  0.3386 -0.3593 -0.5525
 1159SOL    HW2 4689   3.741   0.812   1.942 -0.2228 -0.4676 -1.2175
 1159SOL    HW3 4690   3.792   0.779   1.804 -0.1579 -2.0062 -0.8368
 1159SOL    MW4 4691   3.796   0.769   1.890  0.1988 -0.5909 -0.6778
 1160SOL     OW 4692   3.598   0.931   2.005  0.0377  0.5389  0.1041
 1160SOL    HW2 4693   3.608   1.019   1.969  0.2154  0.5277  0.1249
 1160SOL    HW3 4694   3.523   0.894   1.958 -0.6250  1.0398  0.7626
 1160SOL    MW4 4695   3.590   0.938   1.994 -0.0260  0.6035  0.1936
 1161SOL     OW 4696   3.611   1.176   1.850 -0.2737  0.1366  0.0415
 1161SOL    HW2 4697   3.530   1.211   1.888 -0.0109  0.7111  0.0802
 1161SOL    HW3 4698   3.598   1.184   1.756  0.3606  1.6634  0.0775
 1161SOL    MW4 4699   3.598   1.182   1.843 -0.1554  0.4139  0.0514
 1162SOL     OW 4700   3.834   1.287   1.961 -0.6360  0.6172 -0.0362
 1162SOL    HW2 4701   3.814   1.282   2.055 -0.7249  0.9395 -0.0361
 1162SOL    HW3 4702   3.756   1.249   1.919  0.1370 -1.1456  0.0754
 1162SOL    MW4 4703   3.821   1.281   1.968 -0.5460  0.4271 -0.0215
 1163SOL     OW 4704   3.794   1.547   1.904 -0.3793 -0.1373 -0.2968
 1163SOL    HW2 4705   3.865   1.600   1.940 -0.5805 -0.4578  0.5937
 1163SOL    HW3 4706   3.808   1.460   1.941 -1.2258 -0.2032 -0.1131
 1163SOL    MW4 4707   3.805   1.543   1.914 -0.5176 -0.1882 -0.1550
 1164SOL     OW 4708   3.569   1.672   1.996 -0.1103 -0.4204 -0.2692
 1164SOL    HW2 4709   3.567   1.761   1.961 -0.8960 -0.4952 -0.4411
 1164SOL    HW3 4710   3.653   1.636   1.967  1.0421  0.8920  1.4038
 1164SOL    MW4 4711   3.580   1.679   1.987 -0.0618 -0.2573 -0.0710
 1165SOL     OW 4712   3.631   1.910   1.866 -0.1102  0.2645 -0.1144
 1165SOL    HW2 4713   3.709   1.965   1.873  0.4325 -0.4845 -0.1841
 1165SOL    HW3 4714   3.599   1.925   1.777 -1.0299  1.8636  0.4648
 1165SOL    MW4 4715   3.637   1.919   1.855 -0.1600  0.3767 -0.0472
 1166SOL     OW 4716   3.865   2.066   1.951  0.2556 -0.4816  0.1507
 1166SOL    HW2 4717   3.943   2.019   1.921  1.6220  1.3370  0.7205
 1166SOL    HW3 4718   3.864   2.146   1.898 -0.8648 -0.1891  0.6051
 1166SOL    MW4 4719   3.876   2.070   1.940  0.2880 -0.2029  0.2857
 1167SOL     OW 4720   3.851   2.317   1.800 -0.2177 -0.0205  0.6289
 1167SOL    HW2 4721   3.930   2.351   1.843 -0.8352  0.6271  1.2652
 1167SOL    HW3 4722   3.781   2.375   1.829 -0.6079  0.5938 -1.4970
 1167SOL    MW4 4723   3.853   2.329   1.810 -0.3507  0.1459  0.4323
 1168SOL     OW 4724   3.594   2.444   1.900 -0.2602  0.2176 -0.1951
 1168SOL    HW2 4725   3.592   2.535   1.869  1.4453 -0.4093 -2.2921
 1168SOL    HW3 4726   3.510   2.407   1.871  0.0162  0.5048 -1.3963
 1168SOL    MW4 4727   3.583   2.451   1.892  0.0014  0.1729 -0.6301
 1169SOL     OW 4728   3.585   2.720   1.831 -0.1878 -0.4145  0.1840
 1169SOL    HW2 4729   3.663   2.739   1.884 -0.3649  1.5534 -0.2244
 1169SOL    HW3 4730   3.515   2.771   1.872 -0.3081  1.2066 -1.9474
 1169SOL    MW4 4731   3.586   2.729   1.844 -0.2272  0.0589 -0.1512
 1170SOL     OW 4732   3.835   2.813   1.940 -0.1458 -0.0401 -0.0492
 1170SOL    HW2 4733   3.817   2.832   2.032  0.4208 -0.4693  0.1501
 1170SOL    HW3 4734   3.821   2.896   1.895 -1.5276 -0.0857  0.2622
 1170SOL    MW4 4735   3.831   2.827   1.946 -0.2534 -0.1030  0.0182
 1171SOL     OW 4736   3.821   3.063   1.819 -0.2567 -0.2409 -0.0210
 1171SOL    HW2 4737   3.746   3.104   1.860  0.8986  1.1459  0.7459
 1171SOL    HW3 4738   3.817   3.090   1.727 -0.3479  0.3253  0.1541
 1171SOL    MW4 4739   3.811   3.072   1.812 -0.1163  0.0169  0.1032
 1172SOL     OW 4740   3.569   3.172   1.921  0.5710  0.1878 -0.1103
 1172SOL    HW2 4741   3.574   3.175   2.016  0.6224 -1.7260 -0.0278
 1172SOL    HW3 4742   3.582   3.262   1.893  1.0485  0.6863  1.6752
 1172SOL    MW4 4743   3.571   3.184   1.930  0.6409  0.0012  0.1361
 1173SOL     OW 4744   3.596   3.482   1.868  0.2360  0.2877 -0.0586
 1173SOL    HW2 4745   3.662   3.537   1.911 -0.9760  1.7830 -0.0807
 1173SOL    HW3 4746   3.613   3.492   1.775 -0.6440  1.4889 -0.1027
 1173SOL    MW4 4747   3.607   3.491   1.862 -0.0403  0.6435 -0.0674
 1174SOL     OW 4748   3.805   3.629   2.010  0.1269  0.3228  0.0384
 1174SOL    HW2 4749   3.877   3.575   1.980 -1.2868 -1.6239  0.0042
 1174SOL    HW3 4750   3.814   3.711   1.963  0.9580 -0.7708 -1.7623
 1174SOL    MW4 4751   3.815   3.633   2.000  0.0501 -0.0780 -0.2036
 1175SOL     OW 4752   3.828   3.872   1.886  0.0040  0.2151  0.3680
 1175SOL    HW2 4753   3.753   3.906   1.934 -0.0828 -0.8353  0.9988
 1175SOL    HW3 4754   3.799   3.868   1.795 -0.8593 -0.5950  0.6728
 1175SOL    MW4 4755   3.814   3.876   1.880 -0.1216 -0.0305  0.4915
 1176SOL     OW 4756   3.605   3.993   1.994 -0.6798  0.0669  0.0780
 1176SOL    HW2 4757   3.589   3.987   2.088 -1.3617  0.0376 -0.0370
 1176SOL    HW3 4758   3.529   3.952   1.954  0.0435 -0.7553 -0.4693
 1176SOL    MW4 4759   3.593   3.987   2.001 -0.6747 -0.0453 -0.0093
 1177SOL     OW 4760   3.598   4.256   1.883 -0.2080  0.2212  0.0652
 1177SOL    HW2 4761   3.660   4.304   1.938 -0.4137 -0.5597  0.9852
 1177SOL    HW3 4762   3.588   4.171   1.926 -1.4497  0.1183 -0.4004
 1177SOL    MW4 4763   3.605   4.251   1.896 -0.3991  0.1049  0.1251
 1178SOL     OW 4764   3.811   4.387   2.012 -0.1381 -0.1593 -0.3072
 1178SOL    HW2 4765   3.805   4.369   2.106 -0.9800  0.3946 -0.2508
 1178SOL    HW3 4766   3.892   4.344   1.985  0.7258  0.6773  0.8968
 1178SOL    MW4 4767   3.821   4.379   2.021 -0.1352  0.0243 -0.1409
 1179SOL     OW 4768   4.243   0.010   1.860  0.3279 -0.1094 -0.3165
 1179SOL    HW2 4769   4.164   0.054   1.892  1.1057  3.1593 -2.5643
 1179SOL    HW3 4770   4.314   0.048   1.912  0.6006 -1.8573  0.6015
 1179SOL    MW4 4771   4.242   0.021   1.871  0.4668  0.0913 -0.4919
 1180SOL     OW 4772   4.003   0.109   1.963  0.3624  0.1188  0.1002
 1180SOL    HW2 4773   4.004   0.098   2.058  0.6707 -2.2088 -0.1348
 1180SOL    HW3 4774   3.936   0.046   1.933  0.9317  0.1571 -1.2793
 1180SOL    MW4 4775   3.994   0.099   1.972  0.4780 -0.1833 -0.1128
 1181SOL     OW 4776   4.017   0.384   1.898 -0.2719 -0.0339 -0.0569
 1181SOL    HW2 4777   4.027   0.291   1.919 -1.0546 -0.0815  0.1031
 1181SOL    HW3 4778   3.943   0.413   1.951  1.8115  1.3944  2.1443
 1181SOL    MW4 4779   4.008   0.376   1.908 -0.1006  0.1483  0.2546
 1182SOL     OW 4780   4.250   0.527   1.981 -0.3240  0.0676 -0.0199
 1182SOL    HW2 4781   4.261   0.530   2.076 -1.6298  0.3981  0.1354
 1182SOL    HW3 4782   4.168   0.479   1.967  0.1084 -0.4075 -1.0019
 1182SOL    MW4 4783   4.240   0.521   1.992 -0.4392  0.0486 -0.1289
 1183SOL     OW 4784   4.278   0.799   1.859  0.5323 -0.2847 -0.3369
 1183SOL    HW2 4785   4.270   0.708   1.889  1.0564 -0.9331 -2.1076
 1183SOL    HW3 4786   4.256   0.796   1.766  0.0503  1.4937 -0.2999
 1183SOL    MW4 4787   4.274   0.787   1.851  0.5374 -0.1356 -0.5656
 1184SOL     OW 4788   4.042   0.894   1.987  0.0109 -0.2293  0.1166
 1184SOL    HW2 4789   4.123   0.871   1.942 -0.3326 -0.8753 -0.1794
 1184SOL    HW3 4790   3.974   0.848   1.939 -0.4963  0.0469  0.5655
 1184SOL    MW4 4791   4.044   0.885   1.975 -0.1011 -0.2781  0.1369
 1185SOL     OW 4792   4.050   1.138   1.860  0.2104  0.5946  0.1836
 1185SOL    HW2 4793   4.032   1.056   1.905  0.9975 -0.2684 -1.0204
 1185SOL    HW3 4794   3.981   1.197   1.888 -0.1631 -0.3769  1.3394
 1185SOL    MW4 4795   4.039   1.135   1.869  0.2646  0.3524  0.1771
 1186SOL     OW 4796   4.272   1.316   1.962 -0.2495 -0.2720  0.2880
 1186SOL    HW2 4797   4.280   1.304   2.057 -1.8191  1.2757  0.6538
 1186SOL    HW3 4798   4.210   1.249   1.934 -0.0382 -0.5168  0.4055
 1186SOL    MW4 4799   4.265   1.306   1.971 -0.4282 -0.1001  0.3518
 1187SOL     OW 4800   4.263   1.573   1.885  0.2243  0.2658  0.2987
 1187SOL    HW2 4801   4.265   1.485   1.922  1.0812  0.1144 -0.0927
 1187SOL    HW3 4802   4.274   1.560   1.791  0.7074  0.8034  0.2723
 1187SOL    MW4 4803   4.265   1.560   1.877  0.4015  0.3167  0.2435
 1188SOL     OW 4804   4.025   1.687   1.989  0.3422  0.9327 -0.5326
 1188SOL    HW2 4805   4.029   1.661   2.081 -0.6197  2.4055 -0.0529
 1188SOL    HW3 4806   4.087   1.629   1.945  0.1781 -0.3721  0.8993
 1188SOL    MW4 4807   4.034   1.676   1.995  0.1941  0.9549 -0.2803
 1189SOL     OW 4808   4.084   1.931   1.859  0.0188  0.4175  0.0225
 1189SOL    HW2 4809   4.085   1.842   1.896 -0.8926  0.4200  0.0729
 1189SOL    HW3 4810   4.054   1.919   1.769 -1.5419  0.8139  0.4665
 1189SOL    MW4 4811   4.080   1.917   1.852 -0.3076  0.4702  0.0877
 1190SOL     OW 4812   4.295   2.070   1.955 -0.4476  0.1149  0.0755
 1190SOL    HW2 4813   4.291   2.055   2.049 -0.0658  0.2966  0.1211
 1190SOL    HW3 4814   4.216   2.028   1.920 -0.7929  0.4008  0.5215
 1190SOL    MW4 4815   4.284   2.063   1.963 -0.4420  0.1769  0.1404
 1191SOL     OW 4816   4.278   2.335   1.818  0.3981  0.0732  0.4041
 1191SOL    HW2 4817   4.281   2.243   1.845  0.1532  0.2569  1.0696
 1191SOL    HW3 4818   4.357   2.374   1.856  1.0866 -0.1067 -0.8191
 1191SOL    MW4 4819   4.289   2.328   1.827  0.4568  0.0739  0.3307
 1192SOL     OW 4820   4.053   2.435   1.934  0.1740 -0.0143 -0.2008
 1192SOL    HW2 4821   4.052   2.397   2.022 -0.3112  0.9371  0.2229
 1192SOL    HW3 4822   4.134   2.403   1.895 -0.1840 -1.3795  0.1719
 1192SOL    MW4 4823   4.064   2.426   1.940  0.0629 -0.0691 -0.0958
 1193SOL     OW 4824   4.055   2.698   1.814  0.0979 -0.3002 -0.3801
 1193SOL    HW2 4825   4.066   2.613   1.856 -1.2693 -0.1730  0.2604
 1193SOL    HW3 4826   3.995   2.746   1.871  0.8887  1.1290 -0.6984
 1193SOL    MW4 4827   4.049   2.693   1.827  0.0224 -0.0947 -0.3375
 1194SOL     OW 4828   4.262   2.836   1.970  0.6138 -0.0241  0.0686
 1194SOL    HW2 4829   4.246   2.842   2.064 -0.8332  0.0052 -0.1778
 1194SOL    HW3 4830   4.211   2.760   1.942 -0.0549  0.7910 -0.9389
 1194SOL    MW4 4831   4.253   2.827   1.978  0.3343  0.0873 -0.0969
 1195SOL     OW 4832   4.276   3.113   1.845 -0.1955  0.0858  0.1038
 1195SOL    HW2 4833   4.209   3.156   1.900  1.4048  1.2771  1.1665
 1195SOL    HW3 4834   4.267   3.020   1.867 -0.5885  0.3814  1.2888
 1195SOL    MW4 4835   4.266   3.106   1.855 -0.0358  0.2820  0.4004
 1196SOL     OW 4836   4.036   3.228   1.962  0.1506  0.0473  0.3328
 1196SOL    HW2 4837   4.034   3.209   2.056  0.1082 -0.8324  0.1643
 1196SOL    HW3 4838   3.967   3.172   1.926  1.3106 -0.8993 -0.4401
 1196SOL    MW4 4839   4.026   3.218   1.970  0.2985 -0.1936  0.2086
 1197SOL     OW 4840   4.015   3.494   1.872 -0.0317  0.2481 -0.4645
 1197SOL    HW2 4841   4.083   3.531   1.927  0.6073 -1.4881 -0.0382
 1197SOL    HW3 4842   4.017   3.400   1.891 -1.0231 -0.1375 -2.1031
 1197SOL    MW4 4843   4.024   3.486   1.882 -0.0782 -0.0319 -0.6245
 1198SOL     OW 4844   4.251   3.607   2.010  0.1148  0.2769  0.5037
 1198SOL    HW2 4845   4.251   3.686   1.955 -1.0002 -0.7519 -1.0152
 1198SOL    HW3 4846   4.330   3.560   1.984  0.5056  0.6356  1.0372
 1198SOL    MW4 4847   4.261   3.611   1.999  0.0191  0.1884  0.3735
 1199SOL     OW 4848   4.265   3.869   1.900  0.0562 -0.0583 -0.1757
 1199SOL    HW2 4849   4.345   3.919   1.915  0.1253 -0.2619  0.1470
 1199SOL    HW3 4850   4.261   3.858   1.805 -0.4765  1.3844 -0.3179
 1199SOL    MW4 4851   4.275   3.874   1.889 -0.0052  0.1051 -0.1520
 1200SOL     OW 4852   4.036   3.980   2.035  0.5295  0.0082 -0.4700
 1200SOL    HW2 4853   4.109   3.942   1.987 -0.3711  0.4706 -2.2459
 1200SOL    HW3 4854   3.958   3.941   1.995 -0.2584  0.8222  0.2401
 1200SOL    MW4 4855   4.035   3.970   2.023  0.3071  0.1764 -0.6106
 1201SOL     OW 4856   4.039   4.237   1.926  0.1680 -0.0405  0.0902
 1201SOL    HW2 4857   4.122   4.283   1.941  0.4301 -0.6106  0.4180
 1201SOL    HW3 4858   4.053   4.150   1.964 -0.4461 -0.2697 -0.2064
 1201SOL    MW4 4859   4.052   4.231   1.933  0.1216 -0.1469  0.0943
 1202SOL     OW 4860   4.274   4.391   1.947  0.0251 -0.4545 -0.0620
 1202SOL    HW2 4861   4.288   4.400   2.041  1.9362  1.4408 -0.4721
 1202SOL    HW3 4862   4.257   4.481   1.917  0.9549 -0.8249 -1.7358
 1202SOL    MW4 4863   4.273   4.404   1.955  0.4005 -0.2532 -0.3369
 1203SOL     OW 4864   0.222   0.005   2.341  0.0966  0.0921  0.2798
 1203SOL    HW2 4865   0.235   0.006   2.436 -0.8503  0.5713  0.4022
 1203SOL    HW3 4866   0.292   0.062   2.308  0.5133 -0.1802  0.6689
 1203SOL    MW4 4867   0.233   0.012   2.350  0.0267  0.1187  0.3471
 1204SOL     OW 4868   4.439   0.076   2.276  0.1021 -0.3431 -0.7696
 1204SOL    HW2 4869   4.530   0.050   2.285  0.1491 -0.1161 -0.5892
 1204SOL    HW3 4870   4.426   0.086   2.181  0.1169 -0.8946 -0.8276
 1204SOL    MW4 4871   4.449   0.074   2.264  0.1101 -0.3859 -0.7534
 1205SOL     OW 4872   4.472   0.356   2.344  0.2497  0.0461  0.1048
 1205SOL    HW2 4873   4.540   0.394   2.289  0.3972 -0.6252 -0.1700
 1205SOL    HW3 4874   4.478   0.262   2.330  0.1790 -0.1220  1.1411
 1205SOL    MW4 4875   4.482   0.349   2.335  0.2599 -0.0647  0.2050
 1206SOL     OW 4876   0.189   0.503   2.256 -1.0360 -0.0840  0.2486
 1206SOL    HW2 4877   0.265   0.456   2.289 -0.9674 -0.0964  0.0741
 1206SOL    HW3 4878   0.197   0.497   2.161 -0.9459  0.4196  0.2275
 1206SOL    MW4 4879   0.200   0.496   2.248 -1.0151 -0.0193  0.2229
 1207SOL     OW 4880   0.205   0.750   2.371  0.4757 -0.2202 -0.0471
 1207SOL    HW2 4881   0.188   0.757   2.465 -1.1079  0.4663 -0.3752
 1207SOL    HW3 4882   0.209   0.656   2.354  1.6322 -0.3524  0.8351
 1207SOL    MW4 4883   0.204   0.739   2.381  0.4194 -0.1471  0.0260
 1208SOL     OW 4884   4.484   0.846   2.246 -0.0948  0.2954  0.3936
 1208SOL    HW2 4885   4.573   0.822   2.274  0.2433  1.4598  0.3769
 1208SOL    HW3 4886   4.492   0.859   2.151 -0.5067 -0.5607  0.2472
 1208SOL    MW4 4887   4.497   0.845   2.237 -0.1044  0.3360  0.3719
 1209SOL     OW 4888   0.011   1.107   2.313  0.4656 -0.0122 -0.1426
 1209SOL    HW2 4889  -0.014   1.112   2.405  0.0958  0.4310 -0.2618
 1209SOL    HW3 4890  -0.003   1.015   2.289 -0.4496  0.0965 -0.0330
 1209SOL    MW4 4891   0.006   1.095   2.322  0.2961  0.0607 -0.1440
 1210SOL     OW 4892   0.237   1.268   2.279  0.1843 -0.0768  0.5364
 1210SOL    HW2 4893   0.172   1.204   2.308  0.8217 -0.9743  0.0143
 1210SOL    HW3 4894   0.231   1.267   2.183 -2.7074  3.6872  0.5403
 1210SOL    MW4 4895   0.227   1.260   2.270 -0.1131  0.3014  0.4680
 1211SOL     OW 4896   0.238   1.547   2.328  0.3522 -0.1835  0.1902
 1211SOL    HW2 4897   0.236   1.546   2.424 -0.5256 -1.3197  0.1708
 1211SOL    HW3 4898   0.250   1.456   2.303 -0.4729 -0.0326 -0.8028
 1211SOL    MW4 4899   0.239   1.535   2.338  0.1275 -0.3134  0.0563
 1212SOL     OW 4900   0.006   1.720   2.263 -0.1834  0.3468 -0.3262
 1212SOL    HW2 4901  -0.010   1.798   2.316 -3.6084 -1.0703  0.8261
 1212SOL    HW3 4902   0.087   1.684   2.299  0.4963  2.3850  0.2744
 1212SOL    MW4 4903   0.015   1.726   2.275 -0.5460  0.4287 -0.0951
 1213SOL     OW 4904   0.014   1.953   2.389  0.3655  0.0809  0.1021
 1213SOL    HW2 4905  -0.057   1.997   2.344  0.2616 -0.9384 -0.7523
 1213SOL    HW3 4906   0.094   1.991   2.352  0.2901  1.4924  1.3279
 1213SOL    MW4 4907   0.015   1.964   2.378  0.3418  0.1327  0.1509
 1214SOL     OW 4908   0.217   2.085   2.228 -0.3966  0.0917 -0.2692
 1214SOL    HW2 4909   0.297   2.039   2.253 -0.9091 -0.8858 -0.4082
 1214SOL    HW3 4910   0.215   2.081   2.133 -0.6560  0.0340 -0.2621
 1214SOL    MW4 4911   0.227   2.078   2.219 -0.4985 -0.0451 -0.2863
 1215SOL     OW 4912   0.189   2.345   2.338  0.1591 -0.3589  0.2231
 1215SOL    HW2 4913   0.204   2.344   2.432 -0.9405 -1.7258  0.3866
 1215SOL    HW3 4914   0.194   2.254   2.311  0.5472  0.0251 -1.0616
 1215SOL    MW4 4915   0.192   2.333   2.347  0.0652 -0.4885  0.0751
 1216SOL     OW 4916   4.441   2.462   2.240  0.5128  0.5623  0.0142
 1216SOL    HW2 4917   4.425   2.544   2.286  0.4037  0.0188  0.9706
 1216SOL    HW3 4918   4.520   2.427   2.280 -0.7080 -0.9084  1.2311
 1216SOL    MW4 4919   4.449   2.468   2.251  0.3371  0.2966  0.3009
 1217SOL     OW 4920   4.460   2.722   2.343  0.2032 -0.1715  0.0195
 1217SOL    HW2 4921   4.479   2.724   2.437 -0.6045  2.5407  0.1729
 1217SOL    HW3 4922   4.539   2.757   2.302  0.2993 -0.7196 -0.2625
 1217SOL    MW4 4923   4.473   2.727   2.350  0.1097  0.1137  0.0024
 1218SOL     OW 4924   0.202   2.796   2.214  0.1655  0.5230  0.2533
 1218SOL    HW2 4925   0.285   2.772   2.255 -0.1299 -0.5796  0.2210
 1218SOL    HW3 4926   0.226   2.821   2.125  0.4132 -0.1827  0.1198
 1218SOL    MW4 4927   0.216   2.796   2.208  0.1592  0.2844  0.2315
 1219SOL     OW 4928   0.203   3.044   2.350  0.1479 -0.1711  0.1417
 1219SOL    HW2 4929   0.136   3.100   2.311 -0.3065 -0.7885  0.0284
 1219SOL    HW3 4930   0.188   2.958   2.312  2.3034  0.1193 -1.4643
 1219SOL    MW4 4931   0.193   3.040   2.340  0.3723 -0.2143 -0.0849
 1220SOL     OW 4932   0.004   3.232   2.239 -0.0845  0.3187  0.1711
 1220SOL    HW2 4933   0.001   3.319   2.280  1.1541  0.1746  0.5995
 1220SOL    HW3 4934   0.005   3.250   2.145  2.5349  0.8995  0.2609
 1220SOL    MW4 4935   0.004   3.246   2.232  0.4244  0.3762  0.2396
 1221SOL     OW 4936   4.460   3.470   2.366 -0.0709 -0.1596 -0.0757
 1221SOL    HW2 4937   4.460   3.469   2.462  1.5243 -0.4247 -0.0648
 1221SOL    HW3 4938   4.369   3.487   2.342 -0.3067  0.8901  1.4993
 1221SOL    MW4 4939   4.448   3.473   2.376  0.1082 -0.0560  0.1338
 1222SOL     OW 4940   0.186   3.607   2.250  0.3732  0.0958 -0.2579
 1222SOL    HW2 4941   0.257   3.552   2.284  2.0186  1.4180 -1.4490
 1222SOL    HW3 4942   0.108   3.578   2.297  1.7562 -1.2133  1.2783
 1222SOL    MW4 4943   0.185   3.596   2.260  0.7727  0.0975 -0.2124
 1223SOL     OW 4944   0.238   3.877   2.300  0.1240 -0.2292  0.3739
 1223SOL    HW2 4945   0.154   3.910   2.270  0.1855 -0.1270  0.3122
 1223SOL    HW3 4946   0.234   3.782   2.285 -0.5002 -0.4087  1.6586
 1223SOL    MW4 4947   0.227   3.869   2.294  0.0498 -0.2391  0.5352
 1224SOL     OW 4948   4.475   3.998   2.218 -0.0840  0.3218 -0.2791
 1224SOL    HW2 4949   4.474   4.088   2.248  0.0165  0.2401 -0.0361
 1224SOL    HW3 4950   4.484   4.005   2.123  1.2735  0.5386 -0.1451
 1224SOL    MW4 4951   4.476   4.011   2.209  0.1087  0.3395 -0.2294
 1225SOL     OW 4952   0.010   4.271   2.325  0.3916 -0.5409 -0.1127
 1225SOL    HW2 4953   0.006   4.275   2.420 -0.3158 -0.2186 -0.1536
 1225SOL    HW3 4954   0.094   4.310   2.302  0.9700 -1.4382  0.4254
 1225SOL    MW4 4955   0.020   4.277   2.334  0.3743 -0.6170 -0.0470
 1226SOL     OW 4956   0.234   4.406   2.262  0.3198  0.1782  0.1688
 1226SOL    HW2 4957   0.313   4.367   2.299  1.5731  0.4908 -2.1058
 1226SOL    HW3 4958   0.233   4.496   2.295  0.9453  0.1911  0.1544
 1226SOL    MW4 4959   0.244   4.413   2.272  0.5677  0.2217 -0.1333
 1227SOL     OW 4960   0.662   0.007   2.313 -0.1020  0.2650 -0.1461
 1227SOL    HW2 4961   0.673   0.002   2.408 -1.3036  1.7621  0.0960
 1227SOL    HW3 4962   0.749   0.032   2.280  0.1296  0.4999  0.6310
 1227SOL    MW4 4963   0.675   0.010   2.321 -0.2300  0.4940 -0.0117
 1228SOL     OW 4964   0.445   0.153   2.215  0.0140  0.0438  0.2503
 1228SOL    HW2 4965   0.525   0.110   2.244  1.3097  2.0097 -0.3074
 1228SOL    HW3 4966   0.436   0.125   2.123 -1.3922 -2.2313  1.0325
 1228SOL    MW4 4967   0.454   0.143   2.207 -0.0006  0.0030  0.2801
 1229SOL     OW 4968   0.425   0.388   2.324  0.8716 -0.0841 -0.2635
 1229SOL    HW2 4969   0.453   0.385   2.416  1.8194 -0.5827 -0.5521
 1229SOL    HW3 4970   0.439   0.299   2.292 -1.0628 -0.3288 -0.4400
 1229SOL    MW4 4971   0.431   0.376   2.332  0.7415 -0.1821 -0.3247
 1230SOL     OW 4972   0.665   0.506   2.235 -0.5856  0.0095 -0.0323
 1230SOL    HW2 4973   0.680   0.595   2.267 -0.0982  0.2135 -0.8061
 1230SOL    HW3 4974   0.583   0.478   2.277 -1.2331  1.1680 -0.5115
 1230SOL    MW4 4975   0.656   0.514   2.245 -0.6067  0.1892 -0.1974
 1231SOL     OW 4976   0.649   0.777   2.334  0.1809 -0.5599 -0.1693
 1231SOL    HW2 4977   0.659   0.779   2.429 -0.0974 -0.4395 -0.1419
 1231SOL    HW3 4978   0.566   0.822   2.317  0.1512 -0.7198 -0.4577
 1231SOL    MW4 4979   0.639   0.783   2.344  0.1403 -0.5651 -0.2036
 1232SOL     OW 4980   0.412   0.906   2.241  0.0349 -0.6033  0.2122
 1232SOL    HW2 4981   0.339   0.854   2.275 -1.4496  1.9648  1.1103
 1232SOL    HW3 4982   0.393   0.914   2.147 -2.8872  3.0082  0.9844
 1232SOL    MW4 4983   0.399   0.900   2.233 -0.5465  0.2120  0.4327
 1233SOL     OW 4984   0.467   1.146   2.351 -0.1316  0.0009  0.5698
 1233SOL    HW2 4985   0.464   1.057   2.316  1.2164  0.2983 -0.3657
 1233SOL    HW3 4986   0.383   1.184   2.328 -0.4644 -0.8255  0.4037
 1233SOL    MW4 4987   0.456   1.139   2.343  0.0023 -0.0687  0.4246
 1234SOL     OW 4988   0.692   1.308   2.261  0.0039  0.5798  0.4787
 1234SOL    HW2 4989   0.670   1.390   2.306  1.0361  0.5960  0.9646
 1234SOL    HW3 4990   0.617   1.251   2.278 -0.8574  1.4938 -0.0909
 1234SOL    MW4 4991   0.679   1.312   2.269  0.0265  0.7025  0.4678
 1235SOL     OW 4992   0.675   1.566   2.368  0.4038 -0.1631  0.3435
 1235SOL    HW2 4993   0.679   1.567   2.463 -1.6577 -0.2143  0.4654
 1235SOL    HW3 4994   0.765   1.581   2.339  1.3953 -2.1423  2.2835
 1235SOL    MW4 4995   0.687   1.569   2.376  0.2626 -0.4309  0.6154
 1236SOL     OW 4996   0.448   1.665   2.229 -0.4373 -0.4490  0.4845
 1236SOL    HW2 4997   0.526   1.621   2.263  0.2124 -0.2683 -0.7292
 1236SOL    HW3 4998   0.375   1.623   2.275  0.3908 -0.4332  1.8183
 1236SOL    MW4 4999   0.449   1.653   2.240 -0.2424 -0.4231  0.5007
 1237SOL     OW 5000   0.430   1.928   2.316 -0.4272 -0.1399 -0.3830
 1237SOL    HW2 5001   0.512   1.976   2.305 -0.0043 -0.8631 -0.4549
 1237SOL    HW3 5002   0.446   1.844   2.273 -0.3190 -1.2756  1.8092
 1237SOL    MW4 5003   0.443   1.923   2.309 -0.3572 -0.3849 -0.1032
 1238SOL     OW 5004   0.651   2.090   2.266  0.4410 -0.3995 -0.9042
 1238SOL    HW2 5005   0.739   2.053   2.273  0.5704  0.2422  1.1431
 1238SOL    HW3 5006   0.663   2.185   2.277 -0.4429 -0.2479 -1.1462
 1238SOL    MW4 5007   0.664   2.098   2.268  0.3415 -0.2947 -0.6661
 1239SOL     OW 5008   0.672   2.342   2.367  0.3292  0.4789  0.3630
 1239SOL    HW2 5009   0.687   2.335   2.461  0.2547  0.0277  0.3386
 1239SOL    HW3 5010   0.741   2.400   2.336  0.7734  0.0637  0.5823
 1239SOL    MW4 5011   0.683   2.349   2.376  0.3780  0.3648  0.3886
 1240SOL     OW 5012   0.417   2.463   2.265 -0.1994  0.8712  0.1635
 1240SOL    HW2 5013   0.486   2.411   2.306  0.7629  0.5022 -1.8077
 1240SOL    HW3 5014   0.337   2.415   2.284  0.5216 -0.6691 -0.5047
 1240SOL    MW4 5015   0.416   2.450   2.273  0.0227  0.6192 -0.1850
 1241SOL     OW 5016   0.435   2.728   2.337  0.1369 -0.0785 -0.0403
 1241SOL    HW2 5017   0.427   2.740   2.431  0.7265  1.5031 -0.1821
 1241SOL    HW3 5018   0.416   2.635   2.323 -3.1012  0.3310  1.2836
 1241SOL    MW4 5019   0.431   2.717   2.347 -0.2125  0.1841  0.1159
 1242SOL     OW 5020   0.679   2.803   2.228  0.3564  0.2706  0.0047
 1242SOL    HW2 5021   0.749   2.749   2.264  0.5695 -1.1605 -2.4423
 1242SOL    HW3 5022   0.599   2.765   2.263  0.7090  0.7750  1.3615
 1242SOL    MW4 5023   0.678   2.790   2.237  0.4311  0.1483 -0.1390
 1243SOL     OW 5024   0.673   3.057   2.324  0.1119 -0.6100  0.3866
 1243SOL    HW2 5025   0.584   3.089   2.313 -0.6022 -1.9919  2.0001
 1243SOL    HW3 5026   0.669   2.965   2.297  0.8839 -0.8754  1.1559
 1243SOL    MW4 5027   0.661   3.049   2.319  0.1195 -0.8276  0.7012
 1244SOL     OW 5028   0.432   3.184   2.261  0.3828 -0.1106 -0.1023
 1244SOL    HW2 5029   0.368   3.118   2.288  1.6453 -1.1430  0.4490
 1244SOL    HW3 5030   0.432   3.179   2.165 -1.1996  0.7332 -0.1601
 1244SOL    MW4 5031   0.424   3.174   2.252  0.3406 -0.1354 -0.0374
 1245SOL     OW 5032   0.425   3.449   2.328 -0.3990  0.4459  0.5060
 1245SOL    HW2 5033   0.499   3.496   2.290  0.0283 -0.2293  0.4925
 1245SOL    HW3 5034   0.438   3.358   2.301 -0.3080  0.0312  1.9330
 1245SOL    MW4 5035   0.436   3.444   2.319 -0.3306  0.3023  0.6926
 1246SOL     OW 5036   0.655   3.588   2.242 -0.0699  0.2011  0.3256
 1246SOL    HW2 5037   0.646   3.671   2.289  1.2281  0.2011  0.6152
 1246SOL    HW3 5038   0.671   3.613   2.151 -0.9530  0.2377  0.1785
 1246SOL    MW4 5039   0.656   3.602   2.236 -0.0153  0.2058  0.3443
 1247SOL     OW 5040   0.678   3.841   2.358  0.4788  0.5158 -0.2850
 1247SOL    HW2 5041   0.680   3.847   2.454  0.1627 -1.8339 -0.1150
 1247SOL    HW3 5042   0.602   3.892   2.332 -0.2946 -0.0602  0.8321
 1247SOL    MW4 5043   0.668   3.849   2.367  0.3351  0.1297 -0.1154
 1248SOL     OW 5044   0.481   4.019   2.269  0.2133 -0.6139 -0.6434
 1248SOL    HW2 5045   0.402   3.968   2.286  1.0146 -2.3541 -1.9265
 1248SOL    HW3 5046   0.482   4.031   2.174  1.5314 -0.6952 -0.6474
 1248SOL    MW4 5047   0.471   4.014   2.258  0.4929 -0.8545 -0.8132
 1249SOL     OW 5048   0.461   4.285   2.350 -0.2344  0.1158 -0.0980
 1249SOL    HW2 5049   0.539   4.333   2.320 -0.1885  0.0692 -0.0523
 1249SOL    HW3 5050   0.470   4.198   2.311 -0.2257  0.0870 -0.0320
 1249SOL    MW4 5051   0.472   4.280   2.341 -0.2272  0.1054 -0.0832
 1250SOL     OW 5052   0.676   4.395   2.239 -1.1408  0.2679  0.2525
 1250SOL    HW2 5053   0.684   4.489   2.258  2.1001 -0.4140  2.7636
 1250SOL    HW3 5054   0.684   4.389   2.143 -0.7252  2.5279  0.1213
 1250SOL    MW4 5055   0.678   4.407   2.229 -0.6585  0.4764  0.5665
 1251SOL     OW 5056   1.110   4.624   2.326  0.3029 -0.1212  0.2815
 1251SOL    HW2 5057   1.103   4.619   2.421  1.4154 -0.2353  0.3578
 1251SOL    HW3 5058   1.030   4.668   2.298  0.1914  0.3208  1.3040
 1251SOL    MW4 5059   1.098   4.629   2.335  0.4349 -0.0782  0.4265
 1252SOL     OW 5060   0.903   0.083   2.212 -0.5695 -0.0294 -0.0545
 1252SOL    HW2 5061   0.907   0.174   2.239  1.0914 -0.7113  2.1697
 1252SOL    HW3 5062   0.919   0.084   2.118 -0.2400  1.9292  0.0199
 1252SOL    MW4 5063   0.906   0.095   2.203 -0.3069  0.1391  0.2487
 1253SOL     OW 5064   0.889   0.336   2.301  0.2493 -0.2361 -0.9138
 1253SOL    HW2 5065   0.964   0.393   2.283  0.5392  0.0979  1.1945
 1253SOL    HW3 5066   0.813   0.393   2.296  0.1572 -0.5011 -2.7065
 1253SOL    MW4 5067   0.889   0.351   2.298  0.2754 -0.2270 -0.8721
 1254SOL     OW 5068   1.116   0.499   2.242  0.2862  0.0224  0.3944
 1254SOL    HW2 5069   1.193   0.447   2.264 -0.6004 -1.4927 -0.0033
 1254SOL    HW3 5070   1.117   0.505   2.147 -0.8464 -1.2019  0.2969
 1254SOL    MW4 5071   1.126   0.493   2.232  0.0198 -0.3391  0.3290
 1255SOL     OW 5072   1.084   0.748   2.332  0.1111 -0.1287 -0.2119
 1255SOL    HW2 5073   1.011   0.780   2.279  0.5576 -0.7565 -1.2372
 1255SOL    HW3 5074   1.100   0.659   2.298 -0.1415 -0.8684  1.5522
 1255SOL    MW4 5075   1.077   0.740   2.320  0.1366 -0.3091 -0.1142
 1256SOL     OW 5076   0.877   0.883   2.204 -0.0766  0.3301  0.4194
 1256SOL    HW2 5077   0.883   0.971   2.242  0.3665 -0.0150  1.1743
 1256SOL    HW3 5078   0.810   0.839   2.256 -1.4585  0.7295 -1.0111
 1256SOL    MW4 5079   0.869   0.889   2.216 -0.2005  0.3372  0.3302
 1257SOL     OW 5080   0.908   1.137   2.332  0.3102 -0.1957  0.0953
 1257SOL    HW2 5081   0.988   1.188   2.316 -1.0428  1.4962 -1.5886
 1257SOL    HW3 5082   0.838   1.192   2.296 -1.8292 -0.8267  3.1299
 1257SOL    MW4 5083   0.910   1.151   2.325 -0.1506 -0.0559  0.2735
 1258SOL     OW 5084   1.150   1.295   2.267 -0.0234 -0.1029 -0.3474
 1258SOL    HW2 5085   1.216   1.238   2.306  1.9143  2.6628  0.6167
 1258SOL    HW3 5086   1.166   1.290   2.173 -0.2919 -1.6047 -0.3180
 1258SOL    MW4 5087   1.161   1.287   2.259  0.1971  0.0638 -0.2165
 1259SOL     OW 5088   1.124   1.550   2.385  0.3897  0.3086  0.1889
 1259SOL    HW2 5089   1.048   1.586   2.338  0.7779  0.2755 -0.4809
 1259SOL    HW3 5090   1.134   1.462   2.347  2.0124  1.0665 -1.2122
 1259SOL    MW4 5091   1.115   1.543   2.374  0.6551  0.4042 -0.0844
 1260SOL     OW 5092   0.920   1.652   2.245  0.0603  0.1791 -0.4231
 1260SOL    HW2 5093   0.900   1.739   2.278  0.2539 -0.1589  0.5846
 1260SOL    HW3 5094   0.918   1.662   2.149  1.3961  1.5785 -0.3171
 1260SOL    MW4 5095   0.917   1.665   2.236  0.2621  0.3192 -0.2763
 1261SOL     OW 5096   0.863   1.917   2.313 -0.4781  0.2888  0.2623
 1261SOL    HW2 5097   0.873   1.929   2.408  0.0523 -0.2569  0.2759
 1261SOL    HW3 5098   0.928   1.975   2.275  0.4195 -0.7074  0.2712
 1261SOL    MW4 5099   0.873   1.926   2.321 -0.2897  0.0852  0.2654
 1262SOL     OW 5100   1.089   2.083   2.269 -0.0835 -0.7296  0.1872
 1262SOL    HW2 5101   1.168   2.049   2.311 -0.0990 -0.4805  0.4203
 1262SOL    HW3 5102   1.100   2.060   2.177  0.6296 -0.0124  0.0844
 1262SOL    MW4 5103   1.101   2.075   2.262  0.0086 -0.6020  0.2043
 1263SOL     OW 5104   1.125   2.318   2.398 -0.3813  0.2173  0.6312
 1263SOL    HW2 5105   1.187   2.371   2.347  1.0829 -0.9790  1.1502
 1263SOL    HW3 5106   1.108   2.242   2.343  0.9699 -0.9308  1.7790
 1263SOL    MW4 5107   1.131   2.315   2.384 -0.0099 -0.0920  0.8512
 1264SOL     OW 5108   0.919   2.452   2.285  0.4313 -0.4329  0.0829
 1264SOL    HW2 5109   0.978   2.392   2.329  0.3531  0.1370  0.9751
 1264SOL    HW3 5110   0.924   2.427   2.192  0.7608 -1.4902  0.3802
 1264SOL    MW4 5111   0.927   2.441   2.278  0.4645 -0.4973  0.2398
 1265SOL     OW 5112   0.943   2.721   2.337 -0.4071  0.5346  0.4367
 1265SOL    HW2 5113   0.932   2.716   2.432  1.1389 -0.8575  0.5612
 1265SOL    HW3 5114   0.947   2.630   2.309  1.0230  0.9412 -0.7334
 1265SOL    MW4 5115   0.942   2.708   2.346 -0.0144  0.4046  0.2987
 1266SOL     OW 5116   1.122   2.878   2.176 -0.4903 -0.1131  0.0266
 1266SOL    HW2 5117   1.184   2.809   2.199  0.6615  1.0171  0.3585
 1266SOL    HW3 5118   1.038   2.845   2.208  0.2414 -0.8260  1.2843
 1266SOL    MW4 5119   1.119   2.864   2.183 -0.2419 -0.0579  0.2363
 1267SOL     OW 5120   1.133   3.098   2.350 -0.8067  0.3672  0.4539
 1267SOL    HW2 5121   1.047   3.137   2.336 -0.9281 -0.4243 -1.1229
 1267SOL    HW3 5122   1.139   3.028   2.284  0.0591 -1.1767  2.1131
 1267SOL    MW4 5123   1.123   3.094   2.339 -0.7086  0.0594  0.4649
 1268SOL     OW 5124   0.898   3.183   2.219  0.1176 -0.0515 -0.5688
 1268SOL    HW2 5125   0.902   3.267   2.264  0.6288  0.2195 -1.1146
 1268SOL    HW3 5126   0.820   3.141   2.254 -1.3756  1.5606 -1.8215
 1268SOL    MW4 5127   0.888   3.188   2.229 -0.0120  0.1967 -0.8063
 1269SOL     OW 5128   0.906   3.460   2.339 -0.1564 -0.1828  0.2792
 1269SOL    HW2 5129   0.911   3.473   2.433 -0.7028  1.4214  0.1054
 1269SOL    HW3 5130   0.827   3.508   2.312  0.0298 -0.5646 -1.0072
 1269SOL    MW4 5131   0.896   3.468   2.348 -0.2039 -0.0215  0.0870
 1270SOL     OW 5132   1.105   3.630   2.248 -0.1829  0.1718  0.3116
 1270SOL    HW2 5133   1.185   3.591   2.286  0.2987  0.7238 -0.1250
 1270SOL    HW3 5134   1.037   3.565   2.264  0.3969 -0.3893  0.5316
 1270SOL    MW4 5135   1.107   3.616   2.255 -0.0429  0.1707  0.2828
 1271SOL     OW 5136   1.110   3.870   2.359  0.2606 -0.6403  0.4666
 1271SOL    HW2 5137   1.190   3.909   2.322  0.1039 -0.1420  0.6388
 1271SOL    HW3 5138   1.106   3.783   2.321  1.7675 -1.2875  1.7173
 1271SOL    MW4 5139   1.120   3.864   2.349  0.4387 -0.6599  0.6545
 1272SOL     OW 5140   0.887   4.000   2.263 -0.0766 -0.1767 -0.0907
 1272SOL    HW2 5141   0.969   3.964   2.297  0.8736  0.2757 -1.8266
 1272SOL    HW3 5142   0.819   3.941   2.297  0.9746 -0.6513  1.2343
 1272SOL    MW4 5143   0.889   3.987   2.272  0.1875 -0.1795 -0.1450
 1273SOL     OW 5144   0.877   4.252   2.360  0.3593 -0.1864  0.2764
 1273SOL    HW2 5145   0.859   4.163   2.328  1.0143 -1.0658  2.2984
 1273SOL    HW3 5146   0.811   4.306   2.317 -0.3422 -1.7161 -0.6293
 1273SOL    MW4 5147   0.866   4.247   2.350  0.3532 -0.5045  0.4234
 1274SOL     OW 5148   1.114   4.373   2.223  0.3392 -0.0731  0.2691
 1274SOL    HW2 5149   1.042   4.331   2.269  1.1033  0.1419  1.6923
 1274SOL    HW3 5150   1.121   4.460   2.262  1.4512 -0.1412  0.2485
 1274SOL    MW4 5151   1.105   4.379   2.234  0.5866 -0.0539  0.4542
 1275SOL     OW 5152   1.570   4.651   2.335  0.2092  0.4072 -0.6834
 1275SOL    HW2 5153   1.649   4.685   2.293  0.5572  1.5460  0.8334
 1275SOL    HW3 5154   1.498   4.690   2.286  0.6007  1.4762 -0.4201
 1275SOL    MW4 5155   1.571   4.660   2.323  0.3067  0.6986 -0.4485
 1276SOL     OW 5156   1.348   0.081   2.202  0.4891 -0.0662 -0.5379
 1276SOL    HW2 5157   1.354   0.169   2.241  1.2931 -0.0497 -0.6942
 1276SOL    HW3 5158   1.273   0.041   2.246 -0.0353  0.7850 -0.6355
 1276SOL    MW4 5159   1.339   0.087   2.213  0.5261  0.0482 -0.5715
 1277SOL     OW 5160   1.341   0.344   2.324  0.1215  0.2818 -0.2170
 1277SOL    HW2 5161   1.336   0.339   2.420  0.7452 -0.0709 -0.1926
 1277SOL    HW3 5162   1.429   0.378   2.307  0.5392 -0.9938 -0.6852
 1277SOL    MW4 5163   1.352   0.348   2.335  0.2589  0.0670 -0.2756
 1278SOL     OW 5164   1.584   0.481   2.259  0.6216  0.2123  0.4796
 1278SOL    HW2 5165   1.665   0.433   2.275  0.2063 -0.4689  0.5559
 1278SOL    HW3 5166   1.577   0.487   2.164  0.7748  0.2893  0.4744
 1278SOL    MW4 5167   1.594   0.476   2.249  0.5870  0.1325  0.4890
 1279SOL     OW 5168   1.526   0.751   2.382  0.4427  0.2206 -0.1129
 1279SOL    HW2 5169   1.596   0.809   2.350  0.8390 -0.5172 -0.5986
 1279SOL    HW3 5170   1.556   0.663   2.358  0.3268 -0.2686  1.4972
 1279SOL    MW4 5171   1.539   0.747   2.375  0.4796  0.0588  0.0355
 1280SOL     OW 5172   1.334   0.871   2.235 -0.0938  0.4545 -0.0497
 1280SOL    HW2 5173   1.405   0.827   2.280  0.0285  1.1638  0.4572
 1280SOL    HW3 5174   1.255   0.824   2.263 -0.0414  1.0037  1.0595
 1280SOL    MW4 5175   1.333   0.859   2.245 -0.0708  0.6205  0.1636
 1281SOL     OW 5176   1.348   1.132   2.344  0.2391  0.6844  0.1984
 1281SOL    HW2 5177   1.372   1.136   2.436  1.5825  0.1060 -0.1201
 1281SOL    HW3 5178   1.346   1.039   2.324  0.7544  0.8361 -0.5655
 1281SOL    MW4 5179   1.351   1.120   2.353  0.4845  0.6281  0.0556
 1282SOL     OW 5180   1.554   1.295   2.217  0.3801  0.2443  0.1324
 1282SOL    HW2 5181   1.481   1.235   2.234  0.1974  0.1421 -1.0044
 1282SOL    HW3 5182   1.563   1.296   2.122 -1.1522  3.8831 -0.0420
 1282SOL    MW4 5183   1.546   1.287   2.207  0.1538  0.7108 -0.0405
 1283SOL     OW 5184   1.525   1.555   2.323  0.4311  0.4047 -0.3515
 1283SOL    HW2 5185   1.599   1.601   2.283  0.6428  0.8908  0.5893
 1283SOL    HW3 5186   1.526   1.468   2.284  0.7552  0.8161 -1.2556
 1283SOL    MW4 5187   1.535   1.550   2.313  0.5018  0.5230 -0.3464
 1284SOL     OW 5188   1.296   1.701   2.244  0.2069 -0.5740  0.1384
 1284SOL    HW2 5189   1.378   1.666   2.277  0.5058  0.5413  0.5882
 1284SOL    HW3 5190   1.228   1.652   2.292  0.6055 -1.0133  0.2588
 1284SOL    MW4 5191   1.298   1.690   2.254  0.2990 -0.4849  0.2136
 1285SOL     OW 5192   1.315   1.959   2.342 -0.4631 -0.2441  0.4504
 1285SOL    HW2 5193   1.401   1.995   2.318 -0.6104 -0.0020  0.2784
 1285SOL    HW3 5194   1.311   1.874   2.300 -0.1178 -0.4548  0.8429
 1285SOL    MW4 5195   1.326   1.953   2.334 -0.4368 -0.2398  0.4795
 1286SOL     OW 5196   1.579   2.028   2.266 -0.0510  0.3735  0.6219
 1286SOL    HW2 5197   1.639   1.960   2.296 -2.4200 -2.1045  0.0010
 1286SOL    HW3 5198   1.573   2.015   2.171 -0.1184  1.8086  0.4175
 1286SOL    MW4 5199   1.586   2.017   2.257 -0.3724  0.2360  0.5131
 1287SOL     OW 5200   1.578   2.295   2.318 -0.5486  0.1538  0.0774
 1287SOL    HW2 5201   1.590   2.305   2.413 -1.6651 -0.6942  0.3233
 1287SOL    HW3 5202   1.586   2.201   2.303  0.2653  0.3525 -0.7774
 1287SOL    MW4 5203   1.581   2.284   2.329 -0.5887  0.0682 -0.0031
 1288SOL     OW 5204   1.332   2.451   2.246  0.3917  0.0384  0.6216
 1288SOL    HW2 5205   1.403   2.409   2.294 -0.9056 -3.0001 -0.0160
 1288SOL    HW3 5206   1.349   2.430   2.154 -1.2239 -0.6244  0.4528
 1288SOL    MW4 5207   1.344   2.443   2.241  0.0074 -0.4497  0.5155
 1289SOL     OW 5208   1.309   2.714   2.307  0.0513 -0.7979 -0.1966
 1289SOL    HW2 5209   1.391   2.755   2.280 -0.7206 -0.3952 -2.0186
 1289SOL    HW3 5210   1.321   2.621   2.287  1.4772 -1.4077  3.1395
 1289SOL    MW4 5211   1.321   2.707   2.301  0.1376 -0.8254  0.0031
 1290SOL     OW 5212   1.539   2.830   2.245  0.4407 -0.4554  0.2977
 1290SOL    HW2 5213   1.544   2.924   2.261  1.1479 -0.6898  1.5169
 1290SOL    HW3 5214   1.533   2.822   2.149  1.3527  0.7744  0.1332
 1290SOL    MW4 5215   1.539   2.841   2.234  0.6543 -0.3240  0.4368
 1291SOL     OW 5216   1.546   3.090   2.318 -0.4793 -0.4495  0.0236
 1291SOL    HW2 5217   1.574   3.088   2.409 -1.2219 -0.9819  0.2330
 1291SOL    HW3 5218   1.479   3.159   2.315 -0.9585 -0.9186  0.0169
 1291SOL    MW4 5219   1.541   3.099   2.329 -0.6405 -0.5815  0.0503
 1292SOL     OW 5220   1.328   3.274   2.232 -0.0146  0.1589  0.1124
 1292SOL    HW2 5221   1.258   3.225   2.273  0.0267  1.1402  1.4015
 1292SOL    HW3 5222   1.322   3.252   2.139 -0.5179 -1.5962  0.5424
 1292SOL    MW4 5223   1.318   3.265   2.225 -0.0757  0.0567  0.3393
 1293SOL     OW 5224   1.325   3.519   2.354 -0.1291 -0.2958 -0.3907
 1293SOL    HW2 5225   1.337   3.489   2.444 -1.0529  0.2022 -0.1003
 1293SOL    HW3 5226   1.318   3.439   2.303 -0.5182 -0.5724  0.1015
 1293SOL    MW4 5227   1.326   3.505   2.359 -0.3024 -0.2666 -0.2873
 1294SOL     OW 5228   1.549   3.658   2.263  0.2440  0.2729 -0.0737
 1294SOL    HW2 5229   1.541   3.750   2.289 -2.3430 -0.1184  0.6711
 1294SOL    HW3 5230   1.471   3.617   2.300  0.4653 -1.8651 -1.9491
 1294SOL    MW4 5231   1.538   3.665   2.271 -0.0683 -0.0610 -0.2229
 1295SOL     OW 5232   1.540   3.925   2.336  0.0443  0.4522  0.4096
 1295SOL    HW2 5233   1.559   3.900   2.426  1.1998 -0.0911  0.0265
 1295SOL    HW3 5234   1.625   3.952   2.300 -0.1614 -0.5791 -0.8972
 1295SOL    MW4 5235   1.554   3.925   2.343  0.1696  0.2449  0.1867
 1296SOL     OW 5236   1.314   3.988   2.216 -0.1918 -0.3059  0.0713
 1296SOL    HW2 5237   1.395   3.954   2.253 -1.0156 -1.8568  0.5064
 1296SOL    HW3 5238   1.326   3.983   2.122  0.9136  1.2034  0.1202
 1296SOL    MW4 5239   1.326   3.983   2.209 -0.1546 -0.3111  0.1352
 1297SOL     OW 5240   1.365   4.239   2.298 -0.1912 -0.4755 -0.3491
 1297SOL    HW2 5241   1.342   4.147   2.285  0.2735 -0.4391 -1.5273
 1297SOL    HW3 5242   1.283   4.287   2.288 -1.0234 -0.9783  3.2458
 1297SOL    MW4 5243   1.351   4.233   2.295 -0.2398 -0.5369 -0.0300
 1298SOL     OW 5244   1.599   4.387   2.239 -0.0760  0.1309  0.1788
 1298SOL    HW2 5245   1.524   4.331   2.257 -1.1223  1.6510  0.6078
 1298SOL    HW3 5246   1.586   4.464   2.294  1.7178  0.4935  0.1378
 1298SOL    MW4 5247   1.587   4.390   2.248  0.0226  0.3786  0.2301
 1299SOL     OW 5248   2.032   4.628   2.329  0.2399 -0.0375  0.1499
 1299SOL    HW2 5249   2.114   4.676   2.320 -0.8053  1.5429 -1.5851
 1299SOL    HW3 5250   2.049   4.543   2.290  1.1282  0.1934  0.0316
 1299SOL    MW4 5251   2.045   4.623   2.322  0.2189  0.2017 -0.0949
 1300SOL     OW 5252   1.802   0.076   2.216 -0.4772 -0.0110  0.4782
 1300SOL    HW2 5253   1.778   0.155   2.264 -0.4312  0.5475 -0.4095
 1300SOL    HW3 5254   1.886   0.050   2.253  0.4864  1.4947 -0.5724
 1300SOL    MW4 5255   1.810   0.083   2.227 -0.3440  0.2613  0.2227
 1301SOL     OW 5256   1.800   0.328   2.338 -0.0593  0.2217  0.0124
 1301SOL    HW2 5257   1.800   0.344   2.433  0.7777 -0.2993  0.1062
 1301SOL    HW3 5258   1.871   0.383   2.305  0.8060 -0.9211 -0.0695
 1301SOL    MW4 5259   1.809   0.338   2.346  0.1652  0.0022  0.0141
 1302SOL     OW 5260   1.986   0.500   2.246  0.6216 -0.1388 -0.0360
 1302SOL    HW2 5261   1.983   0.584   2.291  1.1475  0.7034 -1.5561
 1302SOL    HW3 5262   1.995   0.522   2.154  0.5749 -1.8614 -0.4707
 1302SOL    MW4 5263   1.987   0.514   2.240  0.6847 -0.2549 -0.2940
 1303SOL     OW 5264   1.972   0.749   2.363  0.4920 -0.0787  0.0649
 1303SOL    HW2 5265   2.045   0.794   2.321  0.1841  0.2911 -0.0801
 1303SOL    HW3 5266   1.897   0.807   2.347  0.3074 -0.1090  0.8216
 1303SOL    MW4 5267   1.972   0.763   2.355  0.4270 -0.0340  0.1457
 1304SOL     OW 5268   1.742   0.884   2.258 -0.5184 -0.5421 -0.6176
 1304SOL    HW2 5269   1.751   0.979   2.253 -1.0502 -0.4408  0.2633
 1304SOL    HW3 5270   1.739   0.855   2.166 -1.6898  0.4253 -0.9008
 1304SOL    MW4 5271   1.742   0.892   2.245 -0.7430 -0.4012 -0.5386
 1305SOL     OW 5272   1.772   1.153   2.333  0.0285 -0.1677 -0.2749
 1305SOL    HW2 5273   1.848   1.190   2.288 -0.0627  0.9718  0.4850
 1305SOL    HW3 5274   1.698   1.204   2.302 -0.1766 -0.0817  0.3413
 1305SOL    MW4 5275   1.773   1.165   2.323 -0.0104 -0.0058 -0.0935
 1306SOL     OW 5276   1.994   1.264   2.228 -0.1005  0.3043  0.9995
 1306SOL    HW2 5277   1.996   1.355   2.256 -2.4026  0.6823  0.0690
 1306SOL    HW3 5278   1.987   1.268   2.132 -0.8541 -0.8122  0.9928
 1306SOL    MW4 5279   1.993   1.276   2.219 -0.5037  0.2068  0.8759
 1307SOL     OW 5280   1.977   1.529   2.298 -0.1642  0.1424 -0.3458
 1307SOL    HW2 5281   1.982   1.526   2.394 -0.2511 -0.9691 -0.3741
 1307SOL    HW3 5282   1.895   1.574   2.280  0.1957  0.9918  0.0969
 1307SOL    MW4 5283   1.967   1.535   2.309 -0.1283  0.1079 -0.2911
 1308SOL     OW 5284   1.758   1.657   2.229 -0.0964 -0.0265 -0.1995
 1308SOL    HW2 5285   1.795   1.738   2.264 -1.5287  0.9058 -0.7955
 1308SOL    HW3 5286   1.757   1.669   2.135 -0.2561 -0.7621 -0.2959
 1308SOL    MW4 5287   1.763   1.669   2.221 -0.3065 -0.0006 -0.2909
 1309SOL     OW 5288   1.832   1.891   2.338 -0.1294  0.2902  0.2131
 1309SOL    HW2 5289   1.808   1.913   2.428  1.5230 -0.8845  0.9750
 1309SOL    HW3 5290   1.908   1.947   2.319 -0.1385  0.1482 -0.2575
 1309SOL    MW4 5291   1.839   1.902   2.347  0.0874  0.1166  0.2515
 1310SOL     OW 5292   2.019   2.059   2.247 -0.4399 -0.0378 -0.0847
 1310SOL    HW2 5293   2.103   2.018   2.269 -0.9600 -0.3574  1.3168
 1310SOL    HW3 5294   2.018   2.059   2.151  0.6665 -1.0569 -0.1147
 1310SOL    MW4 5295   2.030   2.053   2.237 -0.3624 -0.2141  0.0963
 1311SOL     OW 5296   2.009   2.317   2.332 -0.5927 -0.1672 -0.1349
 1311SOL    HW2 5297   2.086   2.366   2.301  0.5842 -1.0825  1.2516
 1311SOL    HW3 5298   2.012   2.235   2.283 -1.2753  0.2131 -0.8195
 1311SOL    MW4 5299   2.020   2.312   2.322 -0.5276 -0.2377 -0.0422
 1312SOL     OW 5300   1.790   2.448   2.227  0.2516 -0.5268 -0.0329
 1312SOL    HW2 5301   1.868   2.407   2.265  1.6905  1.0934 -1.1911
 1312SOL    HW3 5302   1.718   2.391   2.255  1.9083 -2.4736  0.4303
 1312SOL    MW4 5303   1.791   2.435   2.236  0.6601 -0.5698 -0.1245
 1313SOL     OW 5304   1.806   2.712   2.299  0.2152  0.0239  0.1137
 1313SOL    HW2 5305   1.791   2.621   2.274  0.6925 -0.2848  0.9475
 1313SOL    HW3 5306   1.724   2.757   2.278 -0.0532 -0.6113 -0.1982
 1313SOL    MW4 5307   1.793   2.706   2.293  0.2427 -0.1009  0.1826
 1314SOL     OW 5308   2.010   2.854   2.219  0.1906 -0.4252 -0.0153
 1314SOL    HW2 5309   2.076   2.816   2.277  0.5738  0.6215  0.2510
 1314SOL    HW3 5310   1.929   2.810   2.242  0.4623 -0.4677  0.8782
 1314SOL    MW4 5311   2.008   2.843   2.229  0.2773 -0.2928  0.1376
 1315SOL     OW 5312   2.010   3.097   2.350 -0.4876 -0.1465 -0.1466
 1315SOL    HW2 5313   2.089   3.139   2.316 -0.7302 -0.6492 -1.3938
 1315SOL    HW3 5314   2.010   3.010   2.309 -2.6370  0.5257 -1.6718
 1315SOL    MW4 5315   2.020   3.091   2.340 -0.8035 -0.1242 -0.5124
 1316SOL     OW 5316   1.769   3.239   2.249  0.0944 -0.0557 -0.1715
 1316SOL    HW2 5317   1.840   3.185   2.284 -0.0526  0.2356  0.5883
 1316SOL    HW3 5318   1.690   3.192   2.275 -0.0207  0.2710  0.0748
 1316SOL    MW4 5319   1.768   3.225   2.257  0.0598  0.0260 -0.0386
 1317SOL     OW 5320   1.766   3.498   2.304  0.1127 -0.2111  0.2238
 1317SOL    HW2 5321   1.756   3.412   2.263  0.8639  0.8415 -2.2387
 1317SOL    HW3 5322   1.680   3.538   2.299  0.7493  0.8964 -2.6693
 1317SOL    MW4 5323   1.754   3.492   2.298  0.2959  0.0737 -0.4828
 1318SOL     OW 5324   2.012   3.623   2.280 -0.3405  0.0257 -0.3273
 1318SOL    HW2 5325   1.922   3.593   2.292  0.0295 -0.7767  0.5891
 1318SOL    HW3 5326   2.029   3.613   2.186 -1.0234 -0.3684 -0.4092
 1318SOL    MW4 5327   2.003   3.617   2.269 -0.3817 -0.1321 -0.2174
 1319SOL     OW 5328   2.037   3.888   2.343 -0.2422  0.3785  0.0180
 1319SOL    HW2 5329   2.045   3.874   2.438  0.5929 -1.8520 -0.3358
 1319SOL    HW3 5330   2.036   3.799   2.307 -0.6008  1.2181 -2.0663
 1319SOL    MW4 5331   2.038   3.874   2.351 -0.1795  0.1950 -0.3035
 1320SOL     OW 5332   1.798   3.980   2.233  0.0756  0.8022 -0.3428
 1320SOL    HW2 5333   1.875   3.940   2.274 -0.8162 -0.7845 -0.1788
 1320SOL    HW3 5334   1.808   3.961   2.139 -0.3121  0.2624 -0.2744
 1320SOL    MW4 5335   1.809   3.972   2.226 -0.0932  0.5219 -0.3121
 1321SOL     OW 5336   1.820   4.239   2.335 -0.7803  0.3256  0.2104
 1321SOL    HW2 5337   1.817   4.151   2.298 -0.9098  0.7505 -0.7947
 1321SOL    HW3 5338   1.740   4.281   2.304 -2.4304 -0.2555  3.4074
 1321SOL    MW4 5339   1.809   4.233   2.326 -1.0151  0.3052  0.4997
 1322SOL     OW 5340   2.035   4.370   2.230 -0.1828 -0.1103 -0.1811
 1322SOL    HW2 5341   1.962   4.312   2.248 -0.3834  0.5036  1.0534
 1322SOL    HW3 5342   2.022   4.398   2.139 -0.6142 -1.2026 -0.4646
 1322SOL    MW4 5343   2.024   4.366   2.220 -0.2663 -0.1731 -0.0556
 1323SOL     OW 5344   2.489   0.002   2.331 -0.0686 -0.3312  0.7189
 1323SOL    HW2 5345   2.547   0.061   2.282 -1.8907  0.4819 -0.4961
 1323SOL    HW3 5346   2.498  -0.083   2.287 -1.1376  0.2215 -0.6002
 1323SOL    MW4 5347   2.498  -0.001   2.319 -0.4499 -0.1510  0.3846
 1324SOL     OW 5348   2.241   0.111   2.250 -0.2971 -0.4125 -0.0169
 1324SOL    HW2 5349   2.238   0.204   2.270 -0.2676 -0.3918 -0.1106
 1324SOL    HW3 5350   2.321   0.079   2.293 -0.9863 -0.6483  1.1137
 1324SOL    MW4 5351   2.251   0.119   2.258 -0.3839 -0.4409  0.1199
 1325SOL     OW 5352   2.226   0.373   2.338  0.0183 -0.6579 -0.1433
 1325SOL    HW2 5353   2.297   0.414   2.289  0.1123 -0.6453  0.0059
 1325SOL    HW3 5354   2.146   0.410   2.300  0.0797 -0.9301 -0.5422
 1325SOL    MW4 5355   2.225   0.383   2.326  0.0389 -0.6922 -0.1764
 1326SOL     OW 5356   2.460   0.506   2.234  0.0699 -0.5295  0.4050
 1326SOL    HW2 5357   2.544   0.472   2.266  0.2562 -0.4825 -0.0328
 1326SOL    HW3 5358   2.471   0.511   2.139  0.5883  2.2447  0.5949
 1326SOL    MW4 5359   2.473   0.502   2.225  0.1631 -0.1573  0.3722
 1327SOL     OW 5360   2.448   0.735   2.364 -0.0989  0.2121 -0.7090
 1327SOL    HW2 5361   2.525   0.778   2.328 -0.0087  1.1378  0.5729
 1327SOL    HW3 5362   2.450   0.647   2.327  1.8127  0.0970 -0.3552
 1327SOL    MW4 5363   2.458   0.729   2.355  0.1652  0.3190 -0.4930
 1328SOL     OW 5364   2.211   0.855   2.259  0.3420 -0.2037  0.2469
 1328SOL    HW2 5365   2.212   0.946   2.290  1.1525  0.0696 -0.5777
 1328SOL    HW3 5366   2.295   0.819   2.287  0.3364 -0.4759 -0.0927
 1328SOL    MW4 5367   2.222   0.862   2.267  0.4482 -0.2035  0.0935
 1329SOL     OW 5368   2.205   1.110   2.344 -0.1498 -0.1497 -0.3406
 1329SOL    HW2 5369   2.276   1.155   2.299  0.1277  0.4794  0.7205
 1329SOL    HW3 5370   2.125   1.152   2.310  0.1210  1.4385  0.9241
 1329SOL    MW4 5371   2.204   1.122   2.333 -0.0777  0.1427 -0.0339
 1330SOL     OW 5372   2.434   1.233   2.221 -0.1549 -0.1776 -0.1982
 1330SOL    HW2 5373   2.512   1.196   2.264 -0.1160  0.7939  0.5772
 1330SOL    HW3 5374   2.431   1.324   2.251 -0.6657  0.2527 -1.5283
 1330SOL    MW4 5375   2.444   1.240   2.231 -0.2174  0.0074 -0.2716
 1331SOL     OW 5376   2.426   1.518   2.315  0.2472 -0.3281  0.4540
 1331SOL    HW2 5377   2.423   1.508   2.410  1.4117 -0.0839  0.5340
 1331SOL    HW3 5378   2.511   1.560   2.299  0.8537 -1.9524 -0.8082
 1331SOL    MW4 5379   2.437   1.522   2.325  0.4809 -0.5100  0.2978
 1332SOL     OW 5380   2.231   1.679   2.206 -0.0729 -0.2463 -0.2782
 1332SOL    HW2 5381   2.299   1.616   2.229 -0.5518 -1.1873 -1.3661
 1332SOL    HW3 5382   2.150   1.642   2.242  0.0530  1.1912  1.5869
 1332SOL    MW4 5383   2.229   1.666   2.214 -0.1194 -0.1807 -0.1755
 1333SOL     OW 5384   2.237   1.926   2.330 -0.3751 -0.5162  0.5278
 1333SOL    HW2 5385   2.312   1.965   2.286 -1.0834  0.1669 -0.1028
 1333SOL    HW3 5386   2.233   1.837   2.296  0.1552 -0.5575  0.5700
 1333SOL    MW4 5387   2.246   1.919   2.319 -0.3986 -0.4315  0.4504
 1334SOL     OW 5388   2.464   2.070   2.219  0.2631  0.3554 -0.3333
 1334SOL    HW2 5389   2.539   2.017   2.247 -0.0607  0.3586  0.5707
 1334SOL    HW3 5390   2.456   2.054   2.125 -0.6581 -2.2989  0.1535
 1334SOL    MW4 5391   2.473   2.061   2.210  0.0989  0.0055 -0.1500
 1335SOL     OW 5392   2.461   2.337   2.299 -0.0148 -0.2087  0.5354
 1335SOL    HW2 5393   2.549   2.370   2.281 -0.0352 -0.8415 -0.8012
 1335SOL    HW3 5394   2.459   2.251   2.256 -2.0046  0.7578 -1.4111
 1335SOL    MW4 5395   2.473   2.330   2.291 -0.2801 -0.1647  0.1023
 1336SOL     OW 5396   2.224   2.473   2.257  0.2243  0.1640  0.2422
 1336SOL    HW2 5397   2.230   2.562   2.292  0.5049  0.1553  0.2164
 1336SOL    HW3 5398   2.307   2.433   2.280  1.0029  0.6237 -1.7283
 1336SOL    MW4 5399   2.235   2.480   2.265  0.3643  0.2234 -0.0210
 1337SOL     OW 5400   2.221   2.730   2.366  0.1194 -0.1190 -0.1355
 1337SOL    HW2 5401   2.235   2.736   2.460 -0.5162  0.7071 -0.0826
 1337SOL    HW3 5402   2.300   2.768   2.328 -0.0317  0.4173  0.0818
 1337SOL    MW4 5403   2.233   2.736   2.373  0.0157  0.0608 -0.0999
 1338SOL     OW 5404   2.450   2.813   2.234 -0.1018 -0.1084 -0.3172
 1338SOL    HW2 5405   2.527   2.778   2.278 -0.1616 -0.0839 -0.1933
 1338SOL    HW3 5406   2.472   2.808   2.141 -0.1136 -0.4761 -0.3013
 1338SOL    MW4 5407   2.463   2.808   2.228 -0.1113 -0.1538 -0.2987
 1339SOL     OW 5408   2.462   3.070   2.330  0.2919  0.0141  0.0114
 1339SOL    HW2 5409   2.543   3.101   2.289  0.6757  0.5411  1.1476
 1339SOL    HW3 5410   2.448   2.983   2.292  2.2739 -0.7629  0.9489
 1339SOL    MW4 5411   2.471   3.063   2.320  0.6044 -0.0188  0.2851
 1340SOL     OW 5412   2.234   3.227   2.234  0.3414 -0.4806  0.0495
 1340SOL    HW2 5413   2.243   3.316   2.269 -0.7645 -0.4112  0.1529
 1340SOL    HW3 5414   2.308   3.179   2.274 -0.3972 -0.1854  1.8269
 1340SOL    MW4 5415   2.245   3.232   2.244  0.0982 -0.4327  0.2975
 1341SOL     OW 5416   2.255   3.489   2.342 -0.0143 -0.3938 -0.0266
 1341SOL    HW2 5417   2.243   3.486   2.437 -0.6503 -0.3202 -0.1033
 1341SOL    HW3 5418   2.183   3.544   2.310 -0.6460 -1.5818 -0.6833
 1341SOL    MW4 5419   2.244   3.496   2.351 -0.1812 -0.5410 -0.1233
 1342SOL     OW 5420   2.501   3.629   2.225 -0.1080 -0.5950  0.2931
 1342SOL    HW2 5421   2.486   3.719   2.253 -0.8370 -0.1752 -1.3420
 1342SOL    HW3 5422   2.432   3.578   2.268  0.3492 -0.3904  1.2747
 1342SOL    MW4 5423   2.490   3.634   2.234 -0.1438 -0.5126  0.2067
 1343SOL     OW 5424   2.448   3.887   2.333  0.3365 -0.6327 -0.6106
 1343SOL    HW2 5425   2.438   3.881   2.428 -0.6814 -0.5628 -0.7094
 1343SOL    HW3 5426   2.375   3.942   2.304  0.8977 -0.2897 -1.3857
 1343SOL    MW4 5427   2.437   3.893   2.342  0.2761 -0.5784 -0.7260
 1344SOL     OW 5428   2.236   4.046   2.233  0.2064  0.1490 -0.5744
 1344SOL    HW2 5429   2.250   4.131   2.275 -0.9905  0.7363 -1.3295
 1344SOL    HW3 5430   2.163   4.006   2.282  0.9912 -0.6059  0.0000
 1344SOL    MW4 5431   2.228   4.052   2.245  0.1519  0.1268 -0.5982
 1345SOL     OW 5432   2.272   4.297   2.340 -0.5025 -0.4577  0.2281
 1345SOL    HW2 5433   2.249   4.291   2.433 -1.3171  0.6188  0.1136
 1345SOL    HW3 5434   2.187   4.303   2.295 -0.1309 -1.3801 -0.6251
 1345SOL    MW4 5435   2.258   4.297   2.346 -0.5612 -0.4373  0.1001
 1346SOL     OW 5436   2.493   4.417   2.235  0.5399 -0.1329 -0.2748
 1346SOL    HW2 5437   2.558   4.356   2.270  1.4421 -0.6002 -2.6436
 1346SOL    HW3 5438   2.408   4.379   2.259  1.1276 -0.8035  0.7337
 1346SOL    MW4 5439   2.490   4.404   2.243  0.7367 -0.2832 -0.4542
 1347SOL     OW 5440   2.902   4.650   2.368 -0.4773 -0.0451 -0.1681
 1347SOL    HW2 5441   2.989   4.675   2.337  0.1358 -1.6295  0.2167
 1347SOL    HW3 5442   2.883   4.568   2.322 -1.3480 -0.2023  0.4667
 1347SOL    MW4 5443   2.911   4.642   2.358 -0.5114 -0.2749 -0.0336
 1348SOL     OW 5444   2.730   0.152   2.220  0.2795 -0.3224 -0.0152
 1348SOL    HW2 5445   2.733   0.234   2.269  1.5435  0.4942 -1.4227
 1348SOL    HW3 5446   2.793   0.095   2.265  1.4264  0.4214 -0.6336
 1348SOL    MW4 5447   2.739   0.155   2.233  0.5977 -0.1165 -0.2825
 1349SOL     OW 5448   2.696   0.421   2.333 -0.0170  0.2608  0.1121
 1349SOL    HW2 5449   2.704   0.411   2.428  0.9857 -0.2325 -0.0160
 1349SOL    HW3 5450   2.779   0.460   2.306 -0.6774  1.2742 -0.4451
 1349SOL    MW4 5451   2.708   0.425   2.342  0.0279  0.3294  0.0215
 1350SOL     OW 5452   2.921   0.501   2.203 -0.6445 -0.3689  0.3431
 1350SOL    HW2 5453   2.924   0.589   2.240 -0.4925 -0.3853  0.3692
 1350SOL    HW3 5454   2.911   0.515   2.109 -1.4263 -0.3299  0.4299
 1350SOL    MW4 5455   2.920   0.514   2.196 -0.7272 -0.3658  0.3579
 1351SOL     OW 5456   2.907   0.763   2.322  0.3369  0.0704 -0.3162
 1351SOL    HW2 5457   2.909   0.776   2.417  1.4552 -0.3861 -0.2679
 1351SOL    HW3 5458   2.822   0.798   2.295 -0.3797 -0.6488  0.9679
 1351SOL    MW4 5459   2.896   0.769   2.331  0.3898 -0.0847 -0.1404
 1352SOL     OW 5460   2.650   0.882   2.256  0.5562  0.0097  0.3540
 1352SOL    HW2 5461   2.658   0.972   2.287 -2.1037  0.3049  0.3189
 1352SOL    HW3 5462   2.656   0.889   2.161  1.0442  0.0629  0.3885
 1352SOL    MW4 5463   2.652   0.895   2.247  0.2697  0.0557  0.3541
 1353SOL     OW 5464   2.667   1.149   2.366  0.1086 -0.5246  0.2400
 1353SOL    HW2 5465   2.672   1.132   2.460  0.1751 -2.1019 -0.0310
 1353SOL    HW3 5466   2.747   1.196   2.346 -0.0236  0.0445  1.0154
 1353SOL    MW4 5467   2.678   1.153   2.376  0.0997 -0.6577  0.3066
 1354SOL     OW 5468   2.897   1.252   2.244  0.1063  0.1194  0.1616
 1354SOL    HW2 5469   2.978   1.208   2.266  0.9963  1.3384 -0.5854
 1354SOL    HW3 5470   2.901   1.263   2.149 -0.8487  0.3555  0.1427
 1354SOL    MW4 5471   2.908   1.248   2.234  0.0973  0.3114  0.0608
 1355SOL     OW 5472   2.898   1.529   2.331  0.4921 -0.1643  0.4810
 1355SOL    HW2 5473   2.911   1.515   2.425 -0.0385 -0.2309  0.5499
 1355SOL    HW3 5474   2.915   1.443   2.292 -0.2476 -0.3832  0.6268
 1355SOL    MW4 5475   2.902   1.516   2.339  0.3245 -0.2019  0.5093
 1356SOL     OW 5476   2.661   1.649   2.264 -0.0455  0.3241 -0.0518
 1356SOL    HW2 5477   2.740   1.600   2.284 -0.1022 -0.3373 -1.4096
 1356SOL    HW3 5478   2.672   1.678   2.174 -0.8587  1.1832  0.1145
 1356SOL    MW4 5479   2.673   1.646   2.255 -0.1605  0.3502 -0.2091
 1357SOL     OW 5480   2.679   1.919   2.306 -0.0206  0.6051  0.1927
 1357SOL    HW2 5481   2.681   1.919   2.401 -0.9985  0.1753  0.2167
 1357SOL    HW3 5482   2.677   1.826   2.283 -0.0587  0.7135 -0.2430
 1357SOL    MW4 5483   2.679   1.906   2.315 -0.1547  0.5627  0.1385
 1358SOL     OW 5484   2.901   2.050   2.192  0.3149 -0.1154  0.1442
 1358SOL    HW2 5485   2.978   2.014   2.236 -0.0454 -0.4461  0.5102
 1358SOL    HW3 5486   2.832   1.986   2.208 -0.1271  0.3476  0.1101
 1358SOL    MW4 5487   2.902   2.037   2.200  0.2091 -0.0980  0.1879
 1359SOL     OW 5488   2.943   2.312   2.318 -0.8545 -0.9847  0.3882
 1359SOL    HW2 5489   2.941   2.320   2.413 -3.3601 -2.0830  0.4703
 1359SOL    HW3 5490   2.925   2.219   2.302 -1.7395 -0.5616 -1.1848
 1359SOL    MW4 5491   2.940   2.300   2.328 -1.3020 -1.0738  0.1917
 1360SOL     OW 5492   2.720   2.458   2.234 -0.1443 -0.4577  0.3276
 1360SOL    HW2 5493   2.797   2.409   2.262  0.0621 -0.2567  0.1086
 1360SOL    HW3 5494   2.719   2.450   2.138  0.1607  0.3730  0.2535
 1360SOL    MW4 5495   2.730   2.450   2.225 -0.0768 -0.3214  0.2890
 1361SOL     OW 5496   2.691   2.715   2.360 -0.2476  0.1203  0.4002
 1361SOL    HW2 5497   2.760   2.770   2.324 -1.1296 -0.2658 -1.9674
 1361SOL    HW3 5498   2.709   2.627   2.326 -1.7908 -0.0195 -0.1008
 1361SOL    MW4 5499   2.702   2.710   2.351 -0.5677  0.0508  0.0217
 1362SOL     OW 5500   2.944   2.814   2.257  0.4896  0.2746 -0.0732
 1362SOL    HW2 5501   2.942   2.899   2.300 -0.2087 -0.4341  1.3162
 1362SOL    HW3 5502   2.940   2.834   2.163  1.5893  1.8088  0.1915
 1362SOL    MW4 5503   2.943   2.828   2.250  0.5426  0.3834  0.1450
 1363SOL     OW 5504   2.930   3.081   2.364 -0.2108 -0.1062 -0.1789
 1363SOL    HW2 5505   3.003   3.133   2.331  0.3769  0.8765  2.5416
 1363SOL    HW3 5506   2.852   3.129   2.337  0.2885  1.2722  0.7522
 1363SOL    MW4 5507   2.929   3.094   2.356 -0.0672  0.2053  0.3030
 1364SOL     OW 5508   2.705   3.185   2.248  0.0070  0.1151  0.4431
 1364SOL    HW2 5509   2.679   3.275   2.265  2.4676  0.7398  1.1891
 1364SOL    HW3 5510   2.709   3.178   2.152  1.6956  1.4045  0.3979
 1364SOL    MW4 5511   2.702   3.196   2.237  0.5546  0.3676  0.5352
 1365SOL     OW 5512   2.679   3.448   2.317 -0.0385 -0.1637  0.6160
 1365SOL    HW2 5513   2.770   3.463   2.294  0.1183  0.4366  1.6016
 1365SOL    HW3 5514   2.633   3.526   2.286 -0.3816 -0.9112 -0.7804
 1365SOL    MW4 5515   2.685   3.461   2.310 -0.0629 -0.1831  0.5617
 1366SOL     OW 5516   2.917   3.615   2.248 -0.5215 -0.3277  0.4410
 1366SOL    HW2 5517   3.004   3.580   2.267  0.4656  1.6432 -0.2661
 1366SOL    HW3 5518   2.921   3.706   2.279 -1.9209  0.1277 -0.6655
 1366SOL    MW4 5519   2.929   3.623   2.254 -0.5760 -0.0074  0.2017
 1367SOL     OW 5520   2.912   3.872   2.361  0.2608 -0.7651 -0.1574
 1367SOL    HW2 5521   2.891   3.876   2.454  0.4516  0.3881 -0.1617
 1367SOL    HW3 5522   2.832   3.903   2.317  0.5225 -0.3343 -0.3324
 1367SOL    MW4 5523   2.898   3.877   2.367  0.3202 -0.5560 -0.1810
 1368SOL     OW 5524   2.697   3.986   2.240 -0.6799  0.7080 -0.2562
 1368SOL    HW2 5525   2.613   3.941   2.251 -0.0988 -0.3599 -0.0740
 1368SOL    HW3 5526   2.704   4.001   2.146  1.0391 -3.4672 -0.8999
 1368SOL    MW4 5527   2.687   3.982   2.229 -0.3765  0.0162 -0.3169
 1369SOL     OW 5528   2.703   4.246   2.341  0.0983  0.1961  0.8258
 1369SOL    HW2 5529   2.702   4.251   2.436  2.4637 -0.5667  0.9204
 1369SOL    HW3 5530   2.710   4.153   2.321  0.8157  0.4376 -0.0793
 1369SOL    MW4 5531   2.704   4.235   2.351  0.5050  0.1278  0.7188
 1370SOL     OW 5532   2.922   4.402   2.277 -0.0350 -0.0010  0.1864
 1370SOL    HW2 5533   3.000   4.359   2.313 -0.5498 -1.5545 -0.5027
 1370SOL    HW3 5534   2.848   4.354   2.317 -0.6244  0.7521  0.0042
 1370SOL    MW4 5535   2.922   4.390   2.287 -0.1807 -0.1063  0.0715
 1371SOL     OW 5536   3.362   4.650   2.341  0.3088  0.1764 -0.7786
 1371SOL    HW2 5537   3.349   4.629   2.434 -0.4248 -1.4037 -1.2187
 1371SOL    HW3 5538   3.451   4.684   2.336 -0.1695  1.6716  0.7400
 1371SOL    MW4 5539   3.372   4.652   2.353  0.1488  0.1652 -0.6363
 1372SOL     OW 5540   3.126   0.104   2.242  0.4283 -0.0499 -0.2057
 1372SOL    HW2 5541   3.108   0.187   2.286  0.9913  0.0641 -0.1865
 1372SOL    HW3 5542   3.215   0.081   2.269  0.1304 -0.8593  0.1023
 1372SOL    MW4 5543   3.135   0.112   2.251  0.4632 -0.1417 -0.1628
 1373SOL     OW 5544   3.099   0.392   2.383 -0.1853  0.1145  0.1604
 1373SOL    HW2 5545   3.181   0.433   2.357  0.2668 -0.9022 -0.0622
 1373SOL    HW3 5546   3.035   0.422   2.319  0.0444  0.7909  0.2435
 1373SOL    MW4 5547   3.102   0.401   2.371 -0.0954  0.0696  0.1421
 1374SOL     OW 5548   3.360   0.493   2.307  0.4918 -0.1284 -0.3253
 1374SOL    HW2 5549   3.447   0.455   2.323  0.9687  1.0408 -0.0818
 1374SOL    HW3 5550   3.349   0.487   2.212  1.3636  0.8174 -0.4961
 1374SOL    MW4 5551   3.370   0.487   2.296  0.6695  0.1507 -0.3159
 1375SOL     OW 5552   3.358   0.765   2.366  0.1259  0.1811  0.5393
 1375SOL    HW2 5553   3.437   0.803   2.328  0.2294 -1.2192 -0.6746
 1375SOL    HW3 5554   3.367   0.671   2.352 -2.2257  0.0886 -0.5052
 1375SOL    MW4 5555   3.370   0.758   2.359 -0.1707 -0.0158  0.2413
 1376SOL     OW 5556   3.149   0.899   2.231  0.3084  0.0004  0.2492
 1376SOL    HW2 5557   3.221   0.847   2.267 -0.3110 -0.3525  0.9667
 1376SOL    HW3 5558   3.071   0.866   2.274 -0.4047 -0.2188 -1.1913
 1376SOL    MW4 5559   3.148   0.888   2.241  0.1326 -0.0750  0.1538
 1377SOL     OW 5560   3.150   1.133   2.353  0.2178  0.5501  0.0533
 1377SOL    HW2 5561   3.216   1.192   2.316  1.1530  0.2020  1.1312
 1377SOL    HW3 5562   3.167   1.049   2.311  1.5099  0.0673  1.5110
 1377SOL    MW4 5563   3.161   1.130   2.343  0.5119  0.4406  0.3877
 1378SOL     OW 5564   3.369   1.276   2.258  0.1826 -0.0775  0.5512
 1378SOL    HW2 5565   3.445   1.241   2.303  0.1598  0.0265  0.6713
 1378SOL    HW3 5566   3.362   1.366   2.290  0.3808  0.1134  0.0689
 1378SOL    MW4 5567   3.378   1.283   2.268  0.2060 -0.0386  0.5035
 1379SOL     OW 5568   3.360   1.543   2.339 -0.3443  0.1616 -0.0778
 1379SOL    HW2 5569   3.365   1.563   2.432 -1.6707  1.3880 -0.2602
 1379SOL    HW3 5570   3.276   1.579   2.311 -0.2705 -0.8191 -1.6009
 1379SOL    MW4 5571   3.350   1.550   2.348 -0.5097  0.1940 -0.3030
 1380SOL     OW 5572   3.137   1.651   2.240 -0.2786  0.3298 -0.0157
 1380SOL    HW2 5573   3.142   1.742   2.270  0.7557  0.4641 -0.5454
 1380SOL    HW3 5574   3.051   1.620   2.269 -1.2911  1.9593 -1.1426
 1380SOL    MW4 5575   3.126   1.659   2.248 -0.2756  0.5625 -0.2344
 1381SOL     OW 5576   3.132   1.915   2.298  0.1131  0.3707 -0.3003
 1381SOL    HW2 5577   3.133   1.913   2.394  1.2712 -0.2680 -0.3165
 1381SOL    HW3 5578   3.218   1.950   2.274 -0.0318  0.1808 -1.1109
 1381SOL    MW4 5579   3.144   1.920   2.308  0.2470  0.2614 -0.4094
 1382SOL     OW 5580   3.373   2.036   2.207  0.2355  0.3781  0.1653
 1382SOL    HW2 5581   3.460   2.002   2.229  0.7999  1.2431 -0.6664
 1382SOL    HW3 5582   3.381   2.061   2.115 -1.2758 -0.7001 -0.2657
 1382SOL    MW4 5583   3.386   2.035   2.198  0.1106  0.3500 -0.0014
 1383SOL     OW 5584   3.379   2.298   2.287 -0.1692  0.5059  0.2126
 1383SOL    HW2 5585   3.294   2.337   2.268 -0.5207 -1.0589 -1.5594
 1383SOL    HW3 5586   3.368   2.205   2.266  2.8211  0.7754 -3.0059
 1383SOL    MW4 5587   3.366   2.291   2.282  0.1791  0.3347 -0.4458
 1384SOL     OW 5588   3.162   2.437   2.209  0.0452  0.5723 -0.0276
 1384SOL    HW2 5589   3.168   2.522   2.254  0.1332  0.7773 -0.4194
 1384SOL    HW3 5590   3.079   2.400   2.238  0.4808  0.3400  0.9334
 1384SOL    MW4 5591   3.152   2.444   2.218  0.1142  0.5689  0.0474
 1385SOL     OW 5592   3.150   2.672   2.356 -0.2289  0.6461  0.0247
 1385SOL    HW2 5593   3.151   2.666   2.451  1.2075  0.7119  0.0307
 1385SOL    HW3 5594   3.071   2.722   2.335 -1.4120 -0.7498  1.0852
 1385SOL    MW4 5595   3.140   2.678   2.365 -0.1953  0.4706  0.1655
 1386SOL     OW 5596   3.390   2.771   2.247 -0.3590  0.2040  0.3273
 1386SOL    HW2 5597   3.395   2.859   2.286 -1.2761  0.1372  0.6156
 1386SOL    HW3 5598   3.298   2.747   2.255 -0.0474 -0.9417  0.5840
 1386SOL    MW4 5599   3.379   2.780   2.253 -0.4387  0.0439  0.3994
 1387SOL     OW 5600   3.377   3.050   2.309  0.0168 -0.1426 -0.2283
 1387SOL    HW2 5601   3.456   3.094   2.279  0.2205 -0.8144 -0.7047
 1387SOL    HW3 5602   3.305   3.107   2.281  0.2718 -0.1523 -0.9056
 1387SOL    MW4 5603   3.378   3.063   2.301  0.0775 -0.2327 -0.3805
 1388SOL     OW 5604   3.136   3.213   2.254 -0.0971  0.2839  0.4138
 1388SOL    HW2 5605   3.146   3.306   2.276 -3.0329  0.1230  2.8580
 1388SOL    HW3 5606   3.116   3.213   2.160 -0.5844  2.1741  0.4876
 1388SOL    MW4 5607   3.135   3.226   2.244 -0.5486  0.5121  0.7460
 1389SOL     OW 5608   3.155   3.484   2.320 -0.2907 -0.1166  0.1272
 1389SOL    HW2 5609   3.151   3.501   2.414  2.1995  0.5516  0.1331
 1389SOL    HW3 5610   3.239   3.520   2.292 -0.8574 -0.5794 -2.3115
 1389SOL    MW4 5611   3.165   3.491   2.328 -0.0370 -0.0894 -0.1936
 1390SOL     OW 5612   3.374   3.623   2.241 -0.5739  0.0482  0.0637
 1390SOL    HW2 5613   3.440   3.561   2.273  0.5883  1.3230  0.1602
 1390SOL    HW3 5614   3.388   3.626   2.147  0.0543  0.9519  0.1860
 1390SOL    MW4 5615   3.385   3.615   2.233 -0.3376  0.3359  0.0925
 1391SOL     OW 5616   3.358   3.877   2.356  0.6601 -0.6749  0.1723
 1391SOL    HW2 5617   3.437   3.919   2.323  0.4409 -0.9294 -0.6831
 1391SOL    HW3 5618   3.367   3.785   2.331  0.5116 -0.8743  0.8499
 1391SOL    MW4 5619   3.369   3.871   2.348  0.6118 -0.7350  0.1490
 1392SOL     OW 5620   3.135   4.035   2.283  0.0891 -0.2135 -0.0561
 1392SOL    HW2 5621   3.210   3.988   2.319  0.9958  0.4708 -1.0550
 1392SOL    HW3 5622   3.062   3.973   2.292  1.2404 -1.7747 -1.2582
 1392SOL    MW4 5623   3.135   4.021   2.289  0.3607 -0.3290 -0.3462
 1393SOL     OW 5624   3.150   4.301   2.378 -0.0677  0.4153 -0.1011
 1393SOL    HW2 5625   3.222   4.346   2.333 -0.8371  0.8729 -0.8858
 1393SOL    HW3 5626   3.163   4.208   2.356  0.3109  0.4947 -0.2120
 1393SOL    MW4 5627   3.161   4.295   2.369 -0.1190  0.4864 -0.2191
 1394SOL     OW 5628   3.380   4.388   2.256  0.1599 -0.2925  0.0940
 1394SOL    HW2 5629   3.387   4.482   2.272 -1.5191 -0.2463  0.5871
 1394SOL    HW3 5630   3.392   4.378   2.161  2.2329  0.2132  0.2802
 1394SOL    MW4 5631   3.383   4.399   2.245  0.2117 -0.2198  0.1836
 1395SOL     OW 5632   3.852   4.658   2.370  0.1405 -0.2593 -0.2733
 1395SOL    HW2 5633   3.867   4.630   2.461 -0.1428  0.3076 -0.0463
 1395SOL    HW3 5634   3.934   4.700   2.344  0.4931 -1.1173 -0.5437
 1395SOL    MW4 5635   3.865   4.660   2.379  0.1497 -0.2985 -0.2789
 1396SOL     OW 5636   3.624   0.076   2.266 -0.1821 -0.2839  0.4083
 1396SOL    HW2 5637   3.618   0.170   2.284  0.2512 -0.1852  0.0408
 1396SOL    HW3 5638   3.703   0.048   2.312  1.2084  0.0607 -1.7028
 1396SOL    MW4 5639   3.634   0.085   2.274  0.0587 -0.2254  0.0811
 1397SOL     OW 5640   3.587   0.341   2.329 -0.0683 -0.0606  0.1296
 1397SOL    HW2 5641   3.585   0.314   2.421  0.8013  1.0516  0.4885
 1397SOL    HW3 5642   3.670   0.389   2.320  0.1203 -0.6455 -1.3717
 1397SOL    MW4 5643   3.598   0.344   2.340  0.0713  0.0090 -0.0215
 1398SOL     OW 5644   3.815   0.485   2.301 -0.1015 -0.3003  0.2839
 1398SOL    HW2 5645   3.813   0.577   2.329 -0.2617 -0.0412 -0.5504
 1398SOL    HW3 5646   3.830   0.490   2.206  2.5020 -1.1977  0.6147
 1398SOL    MW4 5647   3.817   0.498   2.292  0.2210 -0.3845  0.2174
 1399SOL     OW 5648   3.832   0.754   2.359  0.5218  0.5556 -0.0526
 1399SOL    HW2 5649   3.842   0.750   2.454  0.0763 -0.8286 -0.0522
 1399SOL    HW3 5650   3.919   0.780   2.327  1.1024 -0.4535  0.6488
 1399SOL    MW4 5651   3.845   0.757   2.367  0.5398  0.2398  0.0403
 1400SOL     OW 5652   3.597   0.878   2.276 -0.2699  0.0809 -0.3118
 1400SOL    HW2 5653   3.675   0.835   2.309  0.3782  1.6116  0.1897
 1400SOL    HW3 5654   3.611   0.886   2.182 -0.2078 -0.3881 -0.3454
 1400SOL    MW4 5655   3.609   0.873   2.268 -0.1762  0.2210 -0.2503
 1401SOL     OW 5656   3.586   1.136   2.356 -0.6637  0.1336 -0.1841
 1401SOL    HW2 5657   3.600   1.129   2.450 -0.8413 -0.6555 -0.2111
 1401SOL    HW3 5658   3.595   1.046   2.324 -0.2972  0.4463 -0.9606
 1401SOL    MW4 5659   3.589   1.123   2.364 -0.6387  0.0707 -0.2902
 1402SOL     OW 5660   3.807   1.242   2.230 -0.1569 -0.1262 -0.3627
 1402SOL    HW2 5661   3.828   1.314   2.289  1.5230 -0.4957 -0.4775
 1402SOL    HW3 5662   3.731   1.200   2.269  0.1924  0.3873  0.8788
 1402SOL    MW4 5663   3.800   1.246   2.243  0.1109 -0.1072 -0.2143
 1403SOL     OW 5664   3.832   1.505   2.316  0.1205 -0.1271  0.0968
 1403SOL    HW2 5665   3.826   1.501   2.411  0.6687 -2.1415  0.0681
 1403SOL    HW3 5666   3.756   1.555   2.289 -0.3663 -0.0672  1.5646
 1403SOL    MW4 5667   3.822   1.511   2.325  0.1285 -0.3850  0.2866
 1404SOL     OW 5668   3.603   1.644   2.255 -0.2983 -0.2584 -0.8301
 1404SOL    HW2 5669   3.520   1.610   2.289  0.9572 -1.7077  0.8943
 1404SOL    HW3 5670   3.591   1.649   2.161 -2.3190 -0.5078 -0.5923
 1404SOL    MW4 5671   3.591   1.640   2.247 -0.3991 -0.4826 -0.5713
 1405SOL     OW 5672   3.627   1.920   2.314 -0.5844 -0.3515 -0.1616
 1405SOL    HW2 5673   3.704   1.960   2.275 -0.3108  0.3182  1.0326
 1405SOL    HW3 5674   3.634   1.827   2.291 -0.7483  0.1166 -2.1656
 1405SOL    MW4 5675   3.638   1.913   2.306 -0.5701 -0.2013 -0.2685
 1406SOL     OW 5676   3.846   2.037   2.223 -0.4593  0.3230  0.2093
 1406SOL    HW2 5677   3.919   1.991   2.264 -1.3277 -1.6904 -0.3948
 1406SOL    HW3 5678   3.868   2.038   2.129 -1.5680 -1.0948 -0.0973
 1406SOL    MW4 5679   3.858   2.031   2.216 -0.7200 -0.1297  0.0889
 1407SOL     OW 5680   3.791   2.286   2.324  0.0222  0.5171 -0.0768
 1407SOL    HW2 5681   3.735   2.333   2.263  0.0489  0.7970  0.1126
 1407SOL    HW3 5682   3.797   2.198   2.288  0.3188  0.7687 -0.6664
 1407SOL    MW4 5683   3.784   2.281   2.311  0.0648  0.5870 -0.1295
 1408SOL     OW 5684   3.623   2.434   2.191  0.1152 -0.0001 -0.1448
 1408SOL    HW2 5685   3.537   2.401   2.219 -0.2811  1.2689  0.1572
 1408SOL    HW3 5686   3.615   2.443   2.096  0.3605 -1.1496 -0.2805
 1408SOL    MW4 5687   3.610   2.431   2.182  0.0954  0.0157 -0.1228
 1409SOL     OW 5688   3.637   2.686   2.341  0.2424 -0.0422  0.0374
 1409SOL    HW2 5689   3.647   2.598   2.304  0.9187  0.2965 -0.5987
 1409SOL    HW3 5690   3.549   2.712   2.316  0.5918  0.0638 -1.0952
 1409SOL    MW4 5691   3.627   2.677   2.333  0.3777  0.0165 -0.1962
 1410SOL     OW 5692   3.830   2.844   2.237  0.0803  0.1209  0.0689
 1410SOL    HW2 5693   3.828   2.933   2.273  1.8386 -0.6032  2.0930
 1410SOL    HW3 5694   3.764   2.796   2.287 -0.3643  0.1190 -0.5202
 1410SOL    MW4 5695   3.821   2.849   2.248  0.2537  0.0250  0.2582
 1411SOL     OW 5696   3.804   3.105   2.335 -0.0794 -0.0953 -0.3704
 1411SOL    HW2 5697   3.786   3.127   2.426 -0.7195 -2.7603  0.1719
 1411SOL    HW3 5698   3.885   3.152   2.315 -0.2614  1.0067  1.3527
 1411SOL    MW4 5699   3.812   3.114   2.344 -0.1879 -0.3016 -0.0715
 1412SOL     OW 5700   3.581   3.192   2.193  0.0134 -0.4846 -0.0794
 1412SOL    HW2 5701   3.563   3.267   2.250 -2.1198 -0.9195 -0.1357
 1412SOL    HW3 5702   3.663   3.156   2.225 -0.0627  0.5903  1.3393
 1412SOL    MW4 5703   3.589   3.197   2.205 -0.2782 -0.4005  0.1001
 1413SOL     OW 5704   3.559   3.460   2.348 -0.0107  0.0431 -0.2589
 1413SOL    HW2 5705   3.556   3.460   2.444 -0.4001  0.0267 -0.2700
 1413SOL    HW3 5706   3.631   3.520   2.326  0.4731 -0.4156  0.0542
 1413SOL    MW4 5707   3.568   3.468   2.358  0.0019 -0.0196 -0.2191
 1414SOL     OW 5708   3.766   3.631   2.295 -0.5472  0.1192 -0.1338
 1414SOL    HW2 5709   3.770   3.721   2.325 -2.5187  0.0432  0.4640
 1414SOL    HW3 5710   3.792   3.635   2.203  0.7447  1.0753  0.2646
 1414SOL    MW4 5711   3.770   3.643   2.287 -0.6368  0.2351 -0.0021
 1415SOL     OW 5712   3.777   3.883   2.386 -0.1322 -0.1510 -0.4878
 1415SOL    HW2 5713   3.802   3.861   2.475 -0.9717  1.6645  0.2451
 1415SOL    HW3 5714   3.858   3.912   2.343 -0.0786  0.9829  0.3518
 1415SOL    MW4 5715   3.791   3.884   2.392 -0.2358  0.2382 -0.2806
 1416SOL     OW 5716   3.569   4.019   2.282 -0.0878 -0.5592  0.1919
 1416SOL    HW2 5717   3.572   4.110   2.312  0.7984  0.0383 -1.6053
 1416SOL    HW3 5718   3.649   3.980   2.317 -0.5136 -0.6793  1.0403
 1416SOL    MW4 5719   3.580   4.026   2.290 -0.0272 -0.4964  0.0668
 1417SOL     OW 5720   3.572   4.274   2.409  0.4089  0.0456 -0.2100
 1417SOL    HW2 5721   3.648   4.309   2.362  0.1788  0.9388  0.0730
 1417SOL    HW3 5722   3.498   4.289   2.350  0.2074  0.6458  0.1948
 1417SOL    MW4 5723   3.572   4.280   2.395  0.3514  0.2427 -0.1192
 1418SOL     OW 5724   3.803   4.369   2.287  0.3102 -0.0171 -0.1471
 1418SOL    HW2 5725   3.884   4.317   2.289 -0.6388 -1.6639 -1.8504
 1418SOL    HW3 5726   3.825   4.450   2.331  2.3632 -1.1944  1.0791
 1418SOL    MW4 5727   3.817   4.373   2.293  0.4559 -0.3896 -0.2103
 1419SOL     OW 5728   4.251   4.581   2.382  0.2761  0.1639 -0.1976
 1419SOL    HW2 5729   4.250   4.587   2.477  1.0783 -0.7779 -0.1328
 1419SOL    HW3 5730   4.331   4.626   2.355  1.1670 -1.4624 -0.2962
 1419SOL    MW4 5731   4.261   4.588   2.391  0.4992 -0.1745 -0.2022
 1420SOL     OW 5732   4.096   0.092   2.234 -0.3250  0.4287 -0.2741
 1420SOL    HW2 5733   4.090   0.179   2.273 -2.5203 -0.5605  1.6867
 1420SOL    HW3 5734   4.146   0.040   2.297 -2.9057 -0.8677  0.8126
 1420SOL    MW4 5735   4.102   0.097   2.247 -0.9551  0.1271  0.1280
 1421SOL     OW 5736   4.024   0.333   2.331  0.4401  0.2638 -0.2284
 1421SOL    HW2 5737   4.089   0.398   2.303  0.8947 -0.4396 -0.8256
 1421SOL    HW3 5738   3.940   0.380   2.325  0.6089  0.3686 -2.0733
 1421SOL    MW4 5739   4.021   0.348   2.326  0.5221  0.1849 -0.5505
 1422SOL     OW 5740   4.249   0.466   2.253  0.3389  0.3287 -0.2912
 1422SOL    HW2 5741   4.265   0.554   2.287  2.3043 -0.0139 -0.2278
 1422SOL    HW3 5742   4.321   0.413   2.289  0.0532 -0.9569 -1.5412
 1422SOL    MW4 5743   4.261   0.471   2.262  0.5608  0.1138 -0.4475
 1423SOL     OW 5744   4.266   0.737   2.335  0.3218  0.0093  0.3569
 1423SOL    HW2 5745   4.195   0.800   2.325  0.0952 -0.1400  1.0403
 1423SOL    HW3 5746   4.344   0.786   2.308 -0.1749 -0.1710 -1.4913
 1423SOL    MW4 5747   4.267   0.752   2.330  0.2260 -0.0341  0.2031
 1424SOL     OW 5748   4.058   0.892   2.277  0.3690 -0.6987 -0.2513
 1424SOL    HW2 5749   4.066   0.983   2.305 -1.5468 -0.8529  0.8686
 1424SOL    HW3 5750   4.058   0.897   2.181  1.6829  0.3317 -0.2148
 1424SOL    MW4 5751   4.059   0.905   2.268  0.2899 -0.5831 -0.0987
 1425SOL     OW 5752   4.060   1.175   2.308 -0.3806  0.1389  0.1338
 1425SOL    HW2 5753   4.045   1.174   2.403  2.1264 -2.8981  0.6093
 1425SOL    HW3 5754   3.973   1.177   2.270 -1.4892 -0.3289  2.5302
 1425SOL    MW4 5755   4.047   1.175   2.316 -0.1960 -0.3234  0.5126
 1426SOL     OW 5756   4.295   1.291   2.232  0.1215  0.5443  0.1380
 1426SOL    HW2 5757   4.211   1.262   2.268  0.1743  0.0661 -0.1294
 1426SOL    HW3 5758   4.359   1.232   2.271  0.1728 -0.0269 -0.7953
 1426SOL    MW4 5759   4.292   1.279   2.242  0.1354  0.4059 -0.0203
 1427SOL     OW 5760   4.299   1.544   2.359  0.0848  0.7319 -0.8094
 1427SOL    HW2 5761   4.302   1.460   2.313 -0.3998 -0.4096  1.2080
 1427SOL    HW3 5762   4.359   1.600   2.310  2.4640 -1.5737 -0.6472
 1427SOL    MW4 5763   4.307   1.540   2.346  0.3347  0.2770 -0.5217
 1428SOL     OW 5764   4.069   1.631   2.259 -0.1428 -0.1607 -0.3840
 1428SOL    HW2 5765   4.138   1.611   2.322  0.0402  1.5045 -0.0346
 1428SOL    HW3 5766   3.993   1.581   2.289  0.0454  0.3586  0.9667
 1428SOL    MW4 5767   4.068   1.622   2.271 -0.0935  0.1274 -0.1597
 1429SOL     OW 5768   4.050   1.889   2.339 -0.1335  0.3716 -0.2696
 1429SOL    HW2 5769   4.018   1.883   2.429  0.9479  0.9592  0.1607
 1429SOL    HW3 5770   4.063   1.798   2.312 -1.0601  0.1750 -0.0486
 1429SOL    MW4 5771   4.048   1.876   2.347 -0.1135  0.4231 -0.1836
 1430SOL     OW 5772   4.273   2.046   2.243 -0.1479 -0.1407 -0.0689
 1430SOL    HW2 5773   4.265   2.136   2.276 -1.0901 -0.3210  0.1985
 1430SOL    HW3 5774   4.201   1.999   2.283 -0.1767 -0.8191 -0.8916
 1430SOL    MW4 5775   4.263   2.052   2.252 -0.2766 -0.2537 -0.1421
 1431SOL     OW 5776   4.240   2.310   2.341 -0.4935  0.0612 -0.0891
 1431SOL    HW2 5777   4.161   2.339   2.294  0.3726 -0.0107 -1.6405
 1431SOL    HW3 5778   4.310   2.366   2.307  0.6658 -1.8589 -0.9621
 1431SOL    MW4 5779   4.239   2.321   2.330 -0.2270 -0.2017 -0.4091
 1432SOL     OW 5780   4.015   2.403   2.209  0.3414 -0.0326 -0.0795
 1432SOL    HW2 5781   4.000   2.494   2.236  0.2021 -0.0831  0.0147
 1432SOL    HW3 5782   3.934   2.358   2.234 -0.3359  0.1881 -1.7969
 1432SOL    MW4 5783   4.002   2.409   2.216  0.2337 -0.0103 -0.2937
 1433SOL     OW 5784   4.038   2.670   2.322  0.4800 -0.3471 -0.0425
 1433SOL    HW2 5785   4.040   2.677   2.418  0.1445 -1.3265  0.0441
 1433SOL    HW3 5786   3.963   2.724   2.296 -0.8680 -1.9505  0.4382
 1433SOL    MW4 5787   4.028   2.678   2.331  0.2580 -0.6878  0.0324
 1434SOL     OW 5788   4.233   2.859   2.265  0.1657 -0.2083 -0.0658
 1434SOL    HW2 5789   4.163   2.804   2.301 -0.0717 -0.5385 -1.0122
 1434SOL    HW3 5790   4.313   2.824   2.303  0.0485 -1.4280 -0.9147
 1434SOL    MW4 5791   4.234   2.847   2.274  0.1192 -0.4127 -0.3026
 1435SOL     OW 5792   4.275   3.118   2.354 -0.2892 -0.0450 -0.3116
 1435SOL    HW2 5793   4.267   3.032   2.313  1.7025  0.0484 -0.9341
 1435SOL    HW3 5794   4.352   3.158   2.312  0.2126  1.0949  1.6430
 1435SOL    MW4 5795   4.284   3.112   2.343  0.0396  0.1180 -0.1361
 1436SOL     OW 5796   4.038   3.216   2.254 -0.2027  0.1713  0.6605
 1436SOL    HW2 5797   4.029   3.304   2.291  0.3451  0.2474  0.6222
 1436SOL    HW3 5798   4.124   3.186   2.286 -0.1117 -0.0975  0.1586
 1436SOL    MW4 5799   4.048   3.224   2.263 -0.1183  0.1457  0.5894
 1437SOL     OW 5800   3.979   3.464   2.378  0.3855  0.0275 -0.0813
 1437SOL    HW2 5801   4.044   3.523   2.340  0.1523 -0.1141 -0.7109
 1437SOL    HW3 5802   3.896   3.509   2.368  0.3155 -0.0358  0.2131
 1437SOL    MW4 5803   3.977   3.477   2.372  0.3455  0.0002 -0.1256
 1438SOL     OW 5804   4.234   3.594   2.284  0.1407 -0.0769 -0.0669
 1438SOL    HW2 5805   4.254   3.685   2.306  0.0163 -0.1186  0.2322
 1438SOL    HW3 5806   4.261   3.584   2.193  0.5693  0.1380  0.0367
 1438SOL    MW4 5807   4.240   3.605   2.275  0.1802 -0.0539 -0.0134
 1439SOL     OW 5808   4.275   3.849   2.345  0.3684 -0.2320 -0.0113
 1439SOL    HW2 5809   4.295   3.858   2.438  1.2800 -1.7847 -0.0307
 1439SOL    HW3 5810   4.344   3.898   2.301  1.9023 -2.2567  0.0543
 1439SOL    MW4 5811   4.287   3.857   2.351  0.6914 -0.7038 -0.0055
 1440SOL     OW 5812   4.022   3.958   2.293 -0.2247 -0.1497 -0.0055
 1440SOL    HW2 5813   4.105   3.923   2.325 -0.4984  0.5104  1.4739
 1440SOL    HW3 5814   4.025   3.944   2.199  1.8044  0.3556 -0.0443
 1440SOL    MW4 5815   4.034   3.951   2.285  0.0076  0.0041  0.1848
 1441SOL     OW 5816   4.042   4.232   2.359 -0.3381  0.4333  0.3629
 1441SOL    HW2 5817   4.121   4.265   2.316 -0.8679  0.6694 -0.4164
 1441SOL    HW3 5818   4.031   4.143   2.325 -0.6213  0.5356  0.1832
 1441SOL    MW4 5819   4.051   4.225   2.349 -0.4454  0.4778  0.2365
 1442SOL     OW 5820   4.253   4.361   2.217 -0.0815 -0.0622 -0.2023
 1442SOL    HW2 5821   4.237   4.444   2.261  0.1606 -0.1046 -0.0365
 1442SOL    HW3 5822   4.342   4.336   2.243 -0.4542 -0.7693  0.3803
 1442SOL    MW4 5823   4.263   4.369   2.226 -0.0992 -0.1612 -0.1035
 1443SOL     OW 5824   0.268   4.661   2.617  0.3566  0.4407 -0.0526
 1443SOL    HW2 5825   0.263   4.567   2.635  0.3045  0.4246 -0.1481
 1443SOL    HW3 5826   0.187   4.697   2.653  0.4842  0.4837  0.1945
 1443SOL    MW4 5827   0.257   4.653   2.624  0.3666  0.4444 -0.0327
 1444SOL     OW 5828   0.043   0.118   2.700  0.2723  0.0342  0.5384
 1444SOL    HW2 5829   0.018   0.111   2.792  0.7388 -2.3774  0.4988
 1444SOL    HW3 5830   0.016   0.207   2.675 -1.2321  0.1813  2.5623
 1444SOL    MW4 5831   0.036   0.129   2.709  0.1354 -0.2646  0.8001
 1445SOL     OW 5832   4.452   0.371   2.612 -0.1804 -1.0116 -0.5075
 1445SOL    HW2 5833   4.527   0.409   2.658 -1.0417  0.5294 -0.3612
 1445SOL    HW3 5834   4.472   0.384   2.519 -0.6089  0.0791 -0.4523
 1445SOL    MW4 5835   4.465   0.378   2.606 -0.3505 -0.6644 -0.4807
 1446SOL     OW 5836   0.214   0.493   2.712  0.1638 -0.4331 -0.6372
 1446SOL    HW2 5837   0.239   0.490   2.804  0.3604 -0.4170 -0.6879
 1446SOL    HW3 5838   0.284   0.445   2.667 -0.1747 -0.8474 -0.7253
 1446SOL    MW4 5839   0.227   0.486   2.718  0.1451 -0.4856 -0.6554
 1447SOL     OW 5840   0.177   0.766   2.668  0.4445  0.3276 -0.3169
 1447SOL    HW2 5841   0.262   0.809   2.679 -0.1458  0.7145  3.2135
 1447SOL    HW3 5842   0.191   0.676   2.698 -0.2749  0.2692 -0.1373
 1447SOL    MW4 5843   0.190   0.760   2.673  0.2717  0.3709  0.1726
 1448SOL     OW 5844   4.458   0.914   2.754  0.1195  0.3087  0.2527
 1448SOL    HW2 5845   4.388   0.865   2.711 -1.0414  1.2865  0.9697
 1448SOL    HW3 5846   4.538   0.867   2.732 -0.7288 -0.6472 -0.8599
 1448SOL    MW4 5847   4.459   0.902   2.745 -0.1454  0.3115  0.2007
 1449SOL     OW 5848   4.457   1.150   2.592  0.1080 -0.3305  0.0343
 1449SOL    HW2 5849   4.542   1.188   2.616 -0.5987  0.5198  1.2535
 1449SOL    HW3 5850   4.453   1.069   2.644 -0.2926  0.1841  0.8120
 1449SOL    MW4 5851   4.468   1.144   2.602 -0.0386 -0.1503  0.2980
 1450SOL     OW 5852   0.190   1.272   2.718 -0.0510  0.3625  0.2367
 1450SOL    HW2 5853   0.271   1.233   2.685  0.7308  0.1025  2.4208
 1450SOL    HW3 5854   0.190   1.360   2.680  1.3710  0.4424  0.3921
 1450SOL    MW4 5855   0.201   1.279   2.709  0.2398  0.3387  0.5455
 1451SOL     OW 5856   0.207   1.540   2.598 -0.0679  0.0803 -0.0328
 1451SOL    HW2 5857   0.285   1.571   2.644 -0.1062  0.0003  0.0858
 1451SOL    HW3 5858   0.135   1.584   2.643  0.0257  1.5222 -1.2562
 1451SOL    MW4 5859   0.208   1.550   2.610 -0.0606  0.2600 -0.1788
 1452SOL     OW 5860   0.024   1.684   2.746 -0.7042 -0.5902 -0.0305
 1452SOL    HW2 5861   0.038   1.668   2.839 -0.5432  0.5486  0.1470
 1452SOL    HW3 5862   0.019   1.779   2.738  0.5513 -0.6025 -1.3493
 1452SOL    MW4 5863   0.025   1.694   2.757 -0.5173 -0.4416 -0.1810
 1453SOL     OW 5864   4.467   1.950   2.663 -0.2439 -0.2060 -0.4024
 1453SOL    HW2 5865   4.547   1.995   2.691 -2.0693  2.1338  1.2096
 1453SOL    HW3 5866   4.477   1.941   2.568  1.6255  0.6339 -0.3105
 1453SOL    MW4 5867   4.479   1.954   2.654 -0.2384  0.2136 -0.1776
 1454SOL     OW 5868   0.225   2.038   2.728  0.5427 -0.3735 -0.2873
 1454SOL    HW2 5869   0.300   1.987   2.698  1.6512  1.4648 -0.7149
 1454SOL    HW3 5870   0.232   2.121   2.680 -0.9101  0.3948  0.7997
 1454SOL    MW4 5871   0.236   2.042   2.717  0.4973 -0.0296 -0.2000
 1455SOL     OW 5872   0.189   2.321   2.614  0.2254  0.2146  0.4149
 1455SOL    HW2 5873   0.259   2.368   2.659 -1.0607 -0.1794  2.9153
 1455SOL    HW3 5874   0.110   2.370   2.634 -0.2459  0.8757 -2.7105
 1455SOL    MW4 5875   0.188   2.333   2.622 -0.0065  0.2499  0.3324
 1456SOL     OW 5876   4.454   2.464   2.721  0.3776 -0.5775  0.1164
 1456SOL    HW2 5877   4.448   2.473   2.816  0.2004  0.4017  0.0205
 1456SOL    HW3 5878   4.389   2.398   2.699 -0.5469  0.1750  0.5401
 1456SOL    MW4 5879   4.444   2.457   2.730  0.2317 -0.3493  0.1597
 1457SOL     OW 5880   0.006   2.718   2.617 -0.1731 -0.1613 -0.0240
 1457SOL    HW2 5881  -0.068   2.766   2.653 -1.6704 -2.1239 -0.4436
 1457SOL    HW3 5882  -0.000   2.630   2.654  1.5923 -0.5395 -0.5332
 1457SOL    MW4 5883  -0.004   2.713   2.626 -0.1377 -0.4702 -0.1466
 1458SOL     OW 5884   0.213   2.826   2.778  0.0433 -0.4144  0.3261
 1458SOL    HW2 5885   0.202   2.919   2.757 -0.0348 -0.5894 -0.4126
 1458SOL    HW3 5886   0.148   2.781   2.723 -0.7325 -0.8111  1.5326
 1458SOL    MW4 5887   0.203   2.832   2.768 -0.0694 -0.4897  0.3881
 1459SOL     OW 5888   0.208   3.091   2.636 -0.2309  0.1051  0.8013
 1459SOL    HW2 5889   0.292   3.129   2.662  0.1459 -0.7255  0.8210
 1459SOL    HW3 5890   0.221   3.060   2.547  0.0067 -1.5169  1.3798
 1459SOL    MW4 5891   0.220   3.092   2.628 -0.1498 -0.2184  0.8800
 1460SOL     OW 5892   4.481   3.227   2.766  0.1174 -0.0177  0.0479
 1460SOL    HW2 5893   4.402   3.190   2.727  0.7015 -1.0292 -0.2118
 1460SOL    HW3 5894   4.553   3.183   2.721  0.8398  1.4062 -0.2097
 1460SOL    MW4 5895   4.480   3.216   2.755  0.2897  0.0370 -0.0200
 1461SOL     OW 5896   4.488   3.483   2.649  0.2991  0.5145 -0.4240
 1461SOL    HW2 5897   4.575   3.518   2.667  1.4607 -1.9781 -0.9889
 1461SOL    HW3 5898   4.486   3.399   2.695 -1.0450 -0.4039 -2.1258
 1461SOL    MW4 5899   4.499   3.476   2.658  0.2751  0.0646 -0.7229
 1462SOL     OW 5900   0.236   3.630   2.700  0.2504 -0.1161  0.5605
 1462SOL    HW2 5901   0.204   3.611   2.789  2.1501 -0.2138  1.2369
 1462SOL    HW3 5902   0.310   3.571   2.688  0.5041  0.4741 -0.7857
 1462SOL    MW4 5903   0.241   3.620   2.710  0.5345 -0.0510  0.4721
 1463SOL     OW 5904   0.255   3.888   2.592 -0.1642 -0.1871  0.0819
 1463SOL    HW2 5905   0.265   3.795   2.610  0.3417 -0.3995 -1.2785
 1463SOL    HW3 5906   0.250   3.895   2.497 -0.1492  1.1748  0.1581
 1463SOL    MW4 5907   0.256   3.877   2.582 -0.0955 -0.0358 -0.0875
 1464SOL     OW 5908   0.027   4.001   2.736  0.0602 -0.1194 -0.1016
 1464SOL    HW2 5909   0.024   4.087   2.694 -0.4246  0.3099  0.8006
 1464SOL    HW3 5910   0.102   3.957   2.696 -0.3265  0.3310 -1.3254
 1464SOL    MW4 5911   0.037   4.007   2.725 -0.0548 -0.0038 -0.1440
 1465SOL     OW 5912   0.012   4.278   2.614  0.1838  0.2272  0.0110
 1465SOL    HW2 5913  -0.045   4.318   2.680  1.1042 -0.8968  1.5434
 1465SOL    HW3 5914   0.099   4.309   2.636  0.6828 -1.2378  0.1867
 1465SOL    MW4 5915   0.016   4.287   2.626  0.3710 -0.1144  0.2363
 1466SOL     OW 5916   0.260   4.391   2.697  0.3252  1.0736  0.0129
 1466SOL    HW2 5917   0.241   4.398   2.790 -1.4115 -0.9690 -0.1575
 1466SOL    HW3 5918   0.328   4.324   2.691 -1.2769 -0.5515 -0.3514
 1466SOL    MW4 5919   0.266   4.383   2.708 -0.1153  0.5889 -0.0577
 1467SOL     OW 5920   0.706   0.002   2.611 -0.1302 -0.1410  0.0030
 1467SOL    HW2 5921   0.789   0.043   2.634 -0.1192  1.0596 -1.9914
 1467SOL    HW3 5922   0.641   0.050   2.662  0.0796  1.1821 -0.9283
 1467SOL    MW4 5923   0.708   0.014   2.621 -0.1010  0.1920 -0.3829
 1468SOL     OW 5924   0.475   0.143   2.714 -0.4379 -0.5524  0.4262
 1468SOL    HW2 5925   0.474   0.112   2.805 -1.2732  0.4628  0.7664
 1468SOL    HW3 5926   0.426   0.076   2.666 -2.3637  0.2753  1.1875
 1468SOL    MW4 5927   0.468   0.130   2.720 -0.8022 -0.3092  0.5715
 1469SOL     OW 5928   0.467   0.389   2.599 -0.1344 -0.2579  0.2496
 1469SOL    HW2 5929   0.537   0.441   2.638 -0.4423 -0.2381  0.7819
 1469SOL    HW3 5930   0.472   0.305   2.644 -0.8763 -0.0327  0.7743
 1469SOL    MW4 5931   0.477   0.385   2.610 -0.2729 -0.2255  0.3891
 1470SOL     OW 5932   0.693   0.513   2.712  0.0751 -0.0537 -0.1148
 1470SOL    HW2 5933   0.697   0.504   2.807  0.6191  0.7491 -0.0565
 1470SOL    HW3 5934   0.770   0.465   2.680  1.5296  2.1073  0.0396
 1470SOL    MW4 5935   0.704   0.505   2.720  0.3387  0.3374 -0.0865
 1471SOL     OW 5936   0.653   0.779   2.610 -0.2068  0.1752 -0.5778
 1471SOL    HW2 5937   0.731   0.820   2.647 -0.0912 -0.1853 -0.4210
 1471SOL    HW3 5938   0.665   0.685   2.626 -0.8376  0.1480 -0.2218
 1471SOL    MW4 5939   0.665   0.772   2.617 -0.2748  0.1241 -0.5100
 1472SOL     OW 5940   0.420   0.895   2.721  0.0645  0.0830  0.6430
 1472SOL    HW2 5941   0.433   0.987   2.695  0.8562 -0.0207  0.6677
 1472SOL    HW3 5942   0.489   0.847   2.675  0.0613 -0.4129  1.1584
 1472SOL    MW4 5943   0.431   0.901   2.711  0.1685  0.0039  0.7143
 1473SOL     OW 5944   0.433   1.165   2.635 -0.2940  0.1640 -0.3916
 1473SOL    HW2 5945   0.513   1.201   2.674 -0.3273  0.6566 -0.7669
 1473SOL    HW3 5946   0.453   1.158   2.541  0.3849 -2.6123 -0.0777
 1473SOL    MW4 5947   0.446   1.169   2.628 -0.2088 -0.1374 -0.3998
 1474SOL     OW 5948   0.673   1.271   2.732 -0.0102  0.4886  0.1433
 1474SOL    HW2 5949   0.687   1.250   2.824 -0.6526 -1.2530 -0.1319
 1474SOL    HW3 5950   0.752   1.239   2.688 -1.6238 -2.8184 -0.4739
 1474SOL    MW4 5951   0.685   1.264   2.738 -0.3079 -0.1775  0.0255
 1475SOL     OW 5952   0.675   1.535   2.650 -0.0410  0.2960  0.1258
 1475SOL    HW2 5953   0.587   1.569   2.664 -0.2469  0.0184 -0.4545
 1475SOL    HW3 5954   0.670   1.443   2.678  0.3816  0.5947  1.2198
 1475SOL    MW4 5955   0.663   1.527   2.656 -0.0125  0.2989  0.1936
 1476SOL     OW 5956   0.438   1.638   2.724 -0.0828 -0.4133  0.3569
 1476SOL    HW2 5957   0.445   1.643   2.819  1.7577  0.5195  0.1823
 1476SOL    HW3 5958   0.429   1.729   2.695  0.0435 -0.6360 -0.4007
 1476SOL    MW4 5959   0.438   1.651   2.733  0.1766 -0.3196  0.2339
 1477SOL     OW 5960   0.417   1.885   2.599 -0.1465 -0.0418 -0.6620
 1477SOL    HW2 5961   0.493   1.934   2.629 -0.5237  0.5821 -0.7219
 1477SOL    HW3 5962   0.417   1.898   2.504 -0.7662  0.5931 -0.5772
 1477SOL    MW4 5963   0.427   1.893   2.590 -0.2780  0.1242 -0.6585
 1478SOL     OW 5964   0.639   2.021   2.678  0.3294  0.0220 -0.6783
 1478SOL    HW2 5965   0.663   2.009   2.770 -0.3013 -1.9123 -0.7596
 1478SOL    HW3 5966   0.714   1.987   2.629  0.5012  0.7029 -0.8960
 1478SOL    MW4 5967   0.652   2.015   2.684  0.2689 -0.1435 -0.7179
 1479SOL     OW 5968   0.657   2.308   2.645  0.1683 -0.6700  0.0672
 1479SOL    HW2 5969   0.744   2.332   2.677  0.9294 -0.7198 -1.8466
 1479SOL    HW3 5970   0.651   2.213   2.660 -0.2444 -0.3889  1.7389
 1479SOL    MW4 5971   0.668   2.298   2.651  0.2143 -0.6394  0.0350
 1480SOL     OW 5972   0.422   2.442   2.679 -0.0968 -0.0262  0.3370
 1480SOL    HW2 5973   0.430   2.531   2.645 -0.3351 -0.1298  0.0107
 1480SOL    HW3 5974   0.510   2.404   2.667 -0.0517  0.0963  0.2799
 1480SOL    MW4 5975   0.435   2.449   2.673 -0.1223 -0.0234  0.2861
 1481SOL     OW 5976   0.419   2.709   2.627 -0.1890 -0.0857 -0.0324
 1481SOL    HW2 5977   0.488   2.767   2.657  0.8610 -1.3956  0.1254
 1481SOL    HW3 5978   0.341   2.736   2.677  0.5403  0.4744  0.8131
 1481SOL    MW4 5979   0.418   2.720   2.637  0.0457 -0.1848  0.1001
 1482SOL     OW 5980   0.637   2.819   2.710  0.0861  0.2959 -0.4484
 1482SOL    HW2 5981   0.668   2.812   2.800 -0.8076 -0.1200 -0.1630
 1482SOL    HW3 5982   0.671   2.903   2.678 -2.8100  2.2686  1.5268
 1482SOL    MW4 5983   0.646   2.829   2.717 -0.4138  0.5014 -0.1500
 1483SOL     OW 5984   0.688   3.066   2.602 -0.1799  0.0963 -0.6461
 1483SOL    HW2 5985   0.775   3.097   2.628 -0.1707  0.1828 -0.7757
 1483SOL    HW3 5986   0.689   3.072   2.506 -0.3367  0.1185 -0.6464
 1483SOL    MW4 5987   0.700   3.071   2.593 -0.1994  0.1104 -0.6633
 1484SOL     OW 5988   0.459   3.214   2.740  0.0776 -0.0301 -0.1701
 1484SOL    HW2 5989   0.464   3.219   2.835  1.5029 -0.3229 -0.2094
 1484SOL    HW3 5990   0.543   3.174   2.714 -0.7446 -0.9688 -1.4593
 1484SOL    MW4 5991   0.471   3.209   2.749  0.1572 -0.1924 -0.3455
 1485SOL     OW 5992   0.439   3.462   2.620 -0.2264 -0.4457  0.1697
 1485SOL    HW2 5993   0.452   3.373   2.650 -2.0845 -0.9937 -0.5823
 1485SOL    HW3 5994   0.434   3.455   2.524  1.4803  0.7298 -0.0440
 1485SOL    MW4 5995   0.440   3.450   2.611 -0.2464 -0.3629  0.0422
 1486SOL     OW 5996   0.644   3.620   2.698  0.0169  0.3808  0.0010
 1486SOL    HW2 5997   0.659   3.619   2.792  0.6170 -1.6026 -0.1020
 1486SOL    HW3 5998   0.572   3.558   2.684  0.3944  0.1361 -0.9133
 1486SOL    MW4 5999   0.636   3.612   2.709  0.1459  0.0868 -0.1330
 1487SOL     OW 6000   0.660   3.884   2.630  0.2287 -0.2226  0.5362
 1487SOL    HW2 6001   0.583   3.922   2.674 -1.2886 -1.8090 -0.6930
 1487SOL    HW3 6002   0.662   3.793   2.660  1.1474 -0.4061 -0.0901
 1487SOL    MW4 6003   0.650   3.877   2.640  0.1497 -0.4561  0.2913
 1488SOL     OW 6004   0.440   3.989   2.765  0.3715  0.3681  0.1037
 1488SOL    HW2 6005   0.467   4.076   2.737  0.2554  0.3207 -0.1561
 1488SOL    HW3 6006   0.369   3.965   2.705 -1.8950  1.4678  2.2561
 1488SOL    MW4 6007   0.434   3.997   2.754  0.0571  0.5069  0.3533
 1489SOL     OW 6008   0.479   4.234   2.631  0.0845  0.6578  0.0584
 1489SOL    HW2 6009   0.549   4.295   2.658  0.5791 -0.5763  1.6367
 1489SOL    HW3 6010   0.472   4.247   2.536  1.3465  1.9687  0.1174
 1489SOL    MW4 6011   0.487   4.244   2.622  0.3163  0.6680  0.2744
 1490SOL     OW 6012   0.689   4.410   2.733  0.3924 -1.1256  0.8109
 1490SOL    HW2 6013   0.766   4.365   2.699 -1.1809 -2.0686 -1.5685
 1490SOL    HW3 6014   0.703   4.502   2.709  0.2375 -1.4728 -0.6091
 1490SOL    MW4 6015   0.701   4.416   2.726  0.1643 -1.2956  0.3097
 1491SOL     OW 6016   1.107   4.597   2.587 -0.0581  0.3854 -0.1617
 1491SOL    HW2 6017   1.187   4.646   2.608 -0.7044  1.7560 -0.8562
 1491SOL    HW3 6018   1.124   4.508   2.620  1.1856  1.0249  0.9608
 1491SOL    MW4 6019   1.120   4.592   2.594  0.0207  0.6509 -0.1054
 1492SOL     OW 6020   0.940   0.128   2.693  0.5500  0.0291 -0.2138
 1492SOL    HW2 6021   0.940   0.138   2.789  0.1237 -0.4299 -0.1629
 1492SOL    HW3 6022   0.996   0.052   2.677 -0.6877 -0.9044 -0.2096
 1492SOL    MW4 6023   0.948   0.120   2.704  0.3304 -0.1546 -0.2065
 1493SOL     OW 6024   0.898   0.368   2.579 -0.3973 -0.1613 -0.1697
 1493SOL    HW2 6025   0.923   0.285   2.619 -0.9948 -0.2597  0.0098
 1493SOL    HW3 6026   0.880   0.347   2.487  2.5601  0.3552 -0.9375
 1493SOL    MW4 6027   0.899   0.354   2.572 -0.0859 -0.1061 -0.2472
 1494SOL     OW 6028   1.092   0.502   2.712 -0.1793 -0.3422 -0.1126
 1494SOL    HW2 6029   1.104   0.595   2.693 -2.0843  0.0388  0.4508
 1494SOL    HW3 6030   1.013   0.478   2.662 -0.3835 -1.3594  0.6924
 1494SOL    MW4 6031   1.083   0.511   2.703 -0.4576 -0.4261  0.0679
 1495SOL     OW 6032   1.090   0.756   2.600 -0.1793 -0.2904 -0.2421
 1495SOL    HW2 6033   1.177   0.792   2.617 -1.2106  1.8334  0.6381
 1495SOL    HW3 6034   1.088   0.742   2.506  1.5872 -1.6318 -0.1063
 1495SOL    MW4 6035   1.101   0.759   2.590 -0.0824 -0.1872 -0.1082
 1496SOL     OW 6036   0.875   0.905   2.690 -0.1607 -0.0779 -0.0519
 1496SOL    HW2 6037   0.887   0.895   2.784  1.9993 -0.5399 -0.3642
 1496SOL    HW3 6038   0.947   0.855   2.650 -1.6178 -0.7473 -1.9701
 1496SOL    MW4 6039   0.886   0.897   2.697 -0.0680 -0.2272 -0.3462
 1497SOL     OW 6040   0.894   1.175   2.601  0.6173 -0.1126 -0.0716
 1497SOL    HW2 6041   0.890   1.085   2.633 -0.0391  0.2716  0.9497
 1497SOL    HW3 6042   0.889   1.167   2.506  0.1663 -1.1265  0.0324
 1497SOL    MW4 6043   0.893   1.162   2.593  0.4712 -0.1956  0.0768
 1498SOL     OW 6044   1.149   1.264   2.694  0.3714  0.2400  0.0891
 1498SOL    HW2 6045   1.148   1.356   2.670 -1.2527  0.8573  2.3435
 1498SOL    HW3 6046   1.070   1.228   2.653  0.6403 -0.0129 -0.2150
 1498SOL    MW4 6047   1.138   1.271   2.685  0.1925  0.2881  0.3464
 1499SOL     OW 6048   1.161   1.556   2.655 -0.0171  0.3139  0.1708
 1499SOL    HW2 6049   1.079   1.596   2.685  0.7938  1.0325  1.4887
 1499SOL    HW3 6050   1.153   1.553   2.559 -1.9953 -0.5522  0.3457
 1499SOL    MW4 6051   1.149   1.561   2.646 -0.1712  0.2946  0.3681
 1500SOL     OW 6052   0.919   1.678   2.733 -0.2152 -0.0841 -0.1948
 1500SOL    HW2 6053   0.944   1.655   2.822 -3.8222 -0.0839  0.8774
 1500SOL    HW3 6054   0.838   1.630   2.717  0.4198 -0.1764 -3.5327
 1500SOL    MW4 6055   0.912   1.669   2.742 -0.6073 -0.0961 -0.4938
 1501SOL     OW 6056   0.878   1.903   2.598 -0.1196  0.4614  0.1601
 1501SOL    HW2 6057   0.963   1.941   2.619  0.4573 -0.4676 -0.4530
 1501SOL    HW3 6058   0.869   1.828   2.656 -0.1857  0.1147 -0.2910
 1501SOL    MW4 6059   0.888   1.898   2.608 -0.0522  0.2930  0.0198
 1502SOL     OW 6060   1.098   2.057   2.665  0.0976  0.2243 -0.3091
 1502SOL    HW2 6061   1.185   2.023   2.646 -0.0665 -0.2677 -0.1926
 1502SOL    HW3 6062   1.110   2.151   2.672  0.7519  0.0894  0.4102
 1502SOL    MW4 6063   1.111   2.065   2.663  0.1622  0.1416 -0.1988
 1503SOL     OW 6064   1.124   2.357   2.676  0.4566 -0.6287  0.0514
 1503SOL    HW2 6065   1.203   2.403   2.703  0.3479 -0.0161 -0.6837
 1503SOL    HW3 6066   1.128   2.354   2.581 -1.5973  1.5804 -0.1464
 1503SOL    MW4 6067   1.135   2.363   2.667  0.1713 -0.2561 -0.0718
 1504SOL     OW 6068   0.882   2.449   2.714  0.2839 -0.3406 -0.0873
 1504SOL    HW2 6069   0.873   2.535   2.673 -1.9940 -0.6638 -0.3481
 1504SOL    HW3 6070   0.972   2.422   2.695  0.9156  1.8330 -0.2716
 1504SOL    MW4 6071   0.893   2.457   2.706  0.0666 -0.0966 -0.1459
 1505SOL     OW 6072   0.878   2.717   2.599  0.4815  0.1730  0.1322
 1505SOL    HW2 6073   0.959   2.743   2.641  0.5488 -1.3568  1.0109
 1505SOL    HW3 6074   0.812   2.776   2.634  0.7016 -0.5109  1.7186
 1505SOL    MW4 6075   0.880   2.728   2.609  0.5195 -0.1190  0.4573
 1506SOL     OW 6076   1.099   2.841   2.712 -0.0060  1.0429  0.2961
 1506SOL    HW2 6077   1.120   2.823   2.803  1.0861  1.4084  0.1241
 1506SOL    HW3 6078   1.173   2.805   2.663 -0.9535  0.1546 -0.4983
 1506SOL    MW4 6079   1.112   2.834   2.717  0.0131  0.9739  0.1688
 1507SOL     OW 6080   1.148   3.096   2.631  0.0000  0.0000 -0.1264
 1507SOL    HW2 6081   1.122   3.007   2.653  0.0000  0.0000 -0.1253
 1507SOL    HW3 6082   1.136   3.101   2.536  0.0000  0.0000 -0.1263
 1507SOL    MW4 6083   1.143   3.085   2.621  0.0000  0.0000 -0.1261
 1508SOL     OW 6084   0.919   3.208   2.723  0.0000  0.0000 -0.3115
 1508SOL    HW2 6085   0.903   3.287   2.671  0.0000  0.0000 -0.3364
 1508SOL    HW3 6086   1.006   3.179   2.696  0.0000  0.0000 -0.2785
 1508SOL    MW4 6087   0.928   3.215   2.713  0.0000  0.0000 -0.3104
 1509SOL     OW 6088   0.887   3.462   2.631  0.0000  0.0000  0.1223
 1509SOL    HW2 6089   0.961   3.509   2.673  0.0000  0.0000  0.1419
 1509SOL    HW3 6090   0.810   3.512   2.658  0.0000  0.0000  0.1008
 1509SOL    MW4 6091   0.887   3.475   2.640  0.0000  0.0000  0.1221
 1510SOL     OW 6092   1.102   3.599   2.756  0.0000  0.0000  0.0121
 1510SOL    HW2 6093   1.101   3.626   2.848  0.0000  0.0000  0.0131
 1510SOL    HW3 6094   1.100   3.681   2.707  0.0000  0.0000  0.0151
 1510SOL    MW4 6095   1.102   3.613   2.762  0.0000  0.0000  0.0126
 1511SOL     OW 6096   1.098   3.851   2.628  0.0000  0.0000 -0.0808
 1511SOL    HW2 6097   1.178   3.889   2.666  0.0000  0.0000 -0.0729
 1511SOL    HW3 6098   1.110   3.859   2.534  0.0000  0.0000 -0.0796
 1511SOL    MW4 6099   1.110   3.857   2.621  0.0000  0.0000 -0.0799
 1512SOL     OW 6100   0.893   4.008   2.721  0.0000  0.0000 -0.0528
 1512SOL    HW2 6101   0.957   3.963   2.666  0.0000  0.0000 -0.0438
 1512SOL    HW3 6102   0.809   3.969   2.695  0.0000  0.0000 -0.0541
 1512SOL    MW4 6103   0.890   3.997   2.710  0.0000  0.0000 -0.0517
 1513SOL     OW 6104   0.888   4.266   2.623  0.0000  0.0000 -0.3951
 1513SOL    HW2 6105   0.892   4.173   2.648  0.0000  0.0000 -0.3928
 1513SOL    HW3 6106   0.884   4.265   2.528  0.0000  0.0000 -0.3953
 1513SOL    MW4 6107   0.888   4.254   2.614  0.0000  0.0000 -0.3948
 1514SOL     OW 6108   1.144   4.351   2.689  0.0000  0.0000  0.4463
 1514SOL    HW2 6109   1.137   4.378   2.781  0.0000  0.0000  0.4472
 1514SOL    HW3 6110   1.055   4.327   2.664  0.0000  0.0000  0.4443
 1514SOL    MW4 6111   1.131   4.351   2.698  0.0000  0.0000  0.4461
 1515SOL     OW 6112   1.593   4.643   2.607  0.0000  0.0000  0.0526
 1515SOL    HW2 6113   1.588   4.549   2.623  0.0000  0.0000  0.0626
 1515SOL    HW3 6114   1.581   4.652   2.512  0.0000  0.0000  0.0524
 1515SOL    MW4 6115   1.591   4.632   2.597  0.0000  0.0000  0.0541
 1516SOL     OW 6116   1.328   0.075   2.659 -0.1212  0.4897 -0.2621
 1516SOL    HW2 6117   1.328   0.169   2.642  0.9630  0.7821  1.1708
 1516SOL    HW3 6118   1.416   0.046   2.635 -0.0727  0.0741  0.3786
 1516SOL    MW4 6119   1.340   0.083   2.654  0.0283  0.4734  0.0117
 1517SOL     OW 6120   1.297   0.335   2.610  0.3288 -0.4193 -0.4808
 1517SOL    HW2 6121   1.357   0.403   2.639  0.8892 -0.7119 -0.9334
 1517SOL    HW3 6122   1.211   0.364   2.640  0.5395  0.5528 -0.7924
 1517SOL    MW4 6123   1.294   0.348   2.618  0.4305 -0.3296 -0.5815
 1518SOL     OW 6124   1.530   0.484   2.708 -0.1537  0.1028  0.0906
 1518SOL    HW2 6125   1.606   0.435   2.677 -0.2367 -0.2750  0.4759
 1518SOL    HW3 6126   1.550   0.575   2.687  0.8788  0.1215  1.1323
 1518SOL    MW4 6127   1.543   0.490   2.701 -0.0284  0.0554  0.2785
 1519SOL     OW 6128   1.576   0.748   2.657 -0.0909 -0.1393  0.1684
 1519SOL    HW2 6129   1.493   0.788   2.682  0.2028  0.9892 -0.5980
 1519SOL    HW3 6130   1.575   0.748   2.561  0.8091 -0.0733  0.1490
 1519SOL    MW4 6131   1.565   0.753   2.647  0.0665  0.0183  0.0648
 1520SOL     OW 6132   1.311   0.873   2.703 -0.1535  0.0706 -0.2891
 1520SOL    HW2 6133   1.330   0.873   2.797  0.5676 -0.5761 -0.4332
 1520SOL    HW3 6134   1.338   0.960   2.673 -0.2027  0.2068  0.0599
 1520SOL    MW4 6135   1.317   0.885   2.711 -0.0647  0.0033 -0.2620
 1521SOL     OW 6136   1.374   1.125   2.636  0.0989  0.2107  0.0863
 1521SOL    HW2 6137   1.449   1.181   2.657  0.3368 -0.6322  1.5192
 1521SOL    HW3 6138   1.297   1.179   2.656  0.3232  0.3198  0.6515
 1521SOL    MW4 6139   1.374   1.140   2.641  0.1599  0.1138  0.3500
 1522SOL     OW 6140   1.595   1.287   2.700 -0.0883 -0.5201  0.0895
 1522SOL    HW2 6141   1.593   1.301   2.794 -1.0230  2.9243 -0.3667
 1522SOL    HW3 6142   1.671   1.230   2.686  0.3505 -0.6893  2.8544
 1522SOL    MW4 6143   1.605   1.281   2.710 -0.1538 -0.0880  0.3941
 1523SOL     OW 6144   1.589   1.566   2.612 -0.1457 -0.1255  0.6749
 1523SOL    HW2 6145   1.585   1.478   2.650  1.2274  1.0976  3.7988
 1523SOL    HW3 6146   1.563   1.554   2.521 -2.6564 -3.3468  1.7362
 1523SOL    MW4 6147   1.585   1.553   2.605 -0.2958 -0.3892  1.2271
 1524SOL     OW 6148   1.376   1.735   2.709 -0.1056 -0.2009  0.1959
 1524SOL    HW2 6149   1.449   1.683   2.674 -0.2343 -0.7474  0.7227
 1524SOL    HW3 6150   1.299   1.681   2.693 -0.1765 -0.4181  1.2246
 1524SOL    MW4 6151   1.376   1.721   2.702 -0.1320 -0.3017  0.4010
 1525SOL     OW 6152   1.369   1.996   2.614  0.0354 -0.4460  0.3174
 1525SOL    HW2 6153   1.377   1.908   2.652 -1.2664 -1.2866 -1.3146
 1525SOL    HW3 6154   1.348   1.981   2.522 -0.4099  1.5874  0.0646
 1525SOL    MW4 6155   1.367   1.982   2.607 -0.1951 -0.2886  0.0687
 1526SOL     OW 6156   1.559   2.126   2.753  0.3645 -0.3038  0.0003
 1526SOL    HW2 6157   1.617   2.069   2.704 -0.4059  1.2382 -2.8142
 1526SOL    HW3 6158   1.471   2.107   2.719 -0.1471  0.9955  0.5315
 1526SOL    MW4 6159   1.555   2.116   2.742  0.1953  0.0708 -0.3011
 1527SOL     OW 6160   1.621   2.344   2.587 -0.5610 -0.3601 -0.0762
 1527SOL    HW2 6161   1.685   2.399   2.631 -0.5115 -0.2245 -0.3149
 1527SOL    HW3 6162   1.617   2.264   2.639  0.1442 -0.5605 -0.3238
 1527SOL    MW4 6163   1.629   2.340   2.599 -0.4615 -0.3686 -0.1402
 1528SOL     OW 6164   1.387   2.451   2.727  0.1701  0.1267  0.1656
 1528SOL    HW2 6165   1.366   2.536   2.687  0.6745  0.4614  0.6080
 1528SOL    HW3 6166   1.454   2.414   2.670  1.2903  0.8501  1.0078
 1528SOL    MW4 6167   1.393   2.458   2.714  0.3843  0.2663  0.3352
 1529SOL     OW 6168   1.303   2.694   2.583  0.1837 -0.0190  0.0022
 1529SOL    HW2 6169   1.387   2.741   2.584 -0.2969  0.8866 -0.8278
 1529SOL    HW3 6170   1.283   2.681   2.490 -0.5025 -0.3997  0.1935
 1529SOL    MW4 6171   1.311   2.699   2.571  0.0298  0.0501 -0.0823
 1530SOL     OW 6172   1.552   2.804   2.641  0.3184 -0.5873  0.4620
 1530SOL    HW2 6173   1.565   2.793   2.735  0.7020  1.5118  0.6926
 1530SOL    HW3 6174   1.637   2.782   2.603  0.6588  0.1743  0.7676
 1530SOL    MW4 6175   1.565   2.800   2.648  0.4140 -0.2103  0.5326
 1531SOL     OW 6176   1.579   3.088   2.588 -0.2915 -0.1931  0.3602
 1531SOL    HW2 6177   1.654   3.122   2.637 -0.6156 -0.3931  1.0044
 1531SOL    HW3 6178   1.570   2.998   2.618 -1.7715  0.3083  1.4847
 1531SOL    MW4 6179   1.587   3.081   2.598 -0.5294 -0.1535  0.5937
 1532SOL     OW 6180   1.372   3.209   2.737  0.2216  0.3947  0.2161
 1532SOL    HW2 6181   1.440   3.167   2.685  1.4136  0.8396  1.3948
 1532SOL    HW3 6182   1.290   3.172   2.704  1.2546 -3.9014  2.1190
 1532SOL    MW4 6183   1.370   3.199   2.726  0.5151 -0.1135  0.6227
 1533SOL     OW 6184   1.350   3.470   2.620 -0.2660 -0.1810 -0.5702
 1533SOL    HW2 6185   1.348   3.384   2.662 -0.5436 -0.5723 -1.3715
 1533SOL    HW3 6186   1.287   3.522   2.670  0.6499 -0.1241  0.5652
 1533SOL    MW4 6187   1.341   3.465   2.632 -0.1818 -0.2246 -0.5264
 1534SOL     OW 6188   1.578   3.605   2.696 -0.0497 -0.2995 -0.2218
 1534SOL    HW2 6189   1.647   3.556   2.650 -0.3090 -0.8274 -0.0474
 1534SOL    HW3 6190   1.496   3.569   2.661 -0.2406  0.3774 -0.4830
 1534SOL    MW4 6191   1.577   3.594   2.685 -0.1090 -0.2801 -0.2332
 1535SOL     OW 6192   1.570   3.865   2.595 -0.2207  0.1502 -0.4234
 1535SOL    HW2 6193   1.485   3.901   2.623 -1.0670 -1.3396 -1.0567
 1535SOL    HW3 6194   1.568   3.774   2.624  1.6829  0.4283  0.6611
 1535SOL    MW4 6195   1.558   3.858   2.603 -0.0811 -0.0093 -0.3641
 1536SOL     OW 6196   1.329   3.985   2.718  0.0666 -0.2308  0.2275
 1536SOL    HW2 6197   1.307   4.010   2.808 -0.5177  1.5928 -0.3866
 1536SOL    HW3 6198   1.334   4.069   2.671 -0.3735 -1.2101 -1.5976
 1536SOL    MW4 6199   1.327   4.000   2.724 -0.0685 -0.1194 -0.0944
 1537SOL     OW 6200   1.362   4.208   2.571  0.1313  0.3379 -0.1509
 1537SOL    HW2 6201   1.286   4.257   2.604 -0.0977  0.7065 -1.2103
 1537SOL    HW3 6202   1.357   4.217   2.476  1.7913  0.7752 -0.2111
 1537SOL    MW4 6203   1.351   4.216   2.563  0.3200  0.4444 -0.2987
 1538SOL     OW 6204   1.564   4.369   2.672 -0.4806  0.0907  0.1428
 1538SOL    HW2 6205   1.546   4.364   2.766 -0.2784  1.3828  0.2555
 1538SOL    HW3 6206   1.490   4.323   2.631 -1.4593  1.0008  0.8472
 1538SOL    MW4 6207   1.552   4.362   2.679 -0.5831  0.3810  0.2506
 1539SOL     OW 6208   2.050   4.587   2.588  0.1759 -0.0104  0.3200
 1539SOL    HW2 6209   2.117   4.639   2.632  0.4595 -0.9887  1.0873
 1539SOL    HW3 6210   2.069   4.597   2.495  0.6074  0.7481  0.4851
 1539SOL    MW4 6211   2.062   4.595   2.582  0.2704 -0.0391  0.4430
 1540SOL     OW 6212   1.837   0.089   2.668 -0.3636 -0.2457  0.0770
 1540SOL    HW2 6213   1.897   0.024   2.631  0.5493  0.8629 -0.4344
 1540SOL    HW3 6214   1.750   0.062   2.639  0.4134  1.1600 -3.8119
 1540SOL    MW4 6215   1.834   0.077   2.660 -0.1407  0.0860 -0.5035
 1541SOL     OW 6216   1.789   0.352   2.618 -0.1164  0.6467  0.3079
 1541SOL    HW2 6217   1.873   0.383   2.650  0.7064  0.4716 -1.6610
 1541SOL    HW3 6218   1.789   0.258   2.638  1.7087 -0.0922 -2.9414
 1541SOL    MW4 6219   1.800   0.344   2.625  0.2329  0.5261 -0.3803
 1542SOL     OW 6220   2.030   0.467   2.711 -0.1604 -0.0632  0.1741
 1542SOL    HW2 6221   2.110   0.429   2.674  0.6036  1.9928 -0.3674
 1542SOL    HW3 6222   2.036   0.560   2.689 -1.9952  0.3632  1.4161
 1542SOL    MW4 6223   2.041   0.474   2.703 -0.3014  0.2643  0.2666
 1543SOL     OW 6224   2.039   0.711   2.629  0.0925 -0.4305 -0.1209
 1543SOL    HW2 6225   1.975   0.763   2.677  1.3664  0.6355  0.4735
 1543SOL    HW3 6226   2.007   0.712   2.539 -1.3272 -0.8883  0.3686
 1543SOL    MW4 6227   2.026   0.718   2.623  0.0734 -0.3502  0.0222
 1544SOL     OW 6228   1.814   0.857   2.717 -0.0252  0.0949 -0.3189
 1544SOL    HW2 6229   1.801   0.950   2.697 -1.9083  0.2082  1.2170
 1544SOL    HW3 6230   1.731   0.817   2.692  0.0937 -0.8542  0.8086
 1544SOL    MW4 6231   1.801   0.864   2.711 -0.2580 -0.0154  0.0327
 1545SOL     OW 6232   1.802   1.128   2.621 -0.1768 -0.1769  0.1092
 1545SOL    HW2 6233   1.877   1.177   2.654 -0.2418 -0.6905  1.0517
 1545SOL    HW3 6234   1.802   1.144   2.527  0.9021  0.1143  0.1513
 1545SOL    MW4 6235   1.812   1.137   2.613 -0.0430 -0.2062  0.2389
 1546SOL     OW 6236   1.996   1.287   2.722  0.2434 -0.0846 -0.5743
 1546SOL    HW2 6237   2.017   1.277   2.815 -0.0611 -0.4299 -0.5387
 1546SOL    HW3 6238   2.072   1.253   2.676 -0.1467 -1.1478 -0.4490
 1546SOL    MW4 6239   2.009   1.281   2.728  0.1519 -0.2705 -0.5529
 1547SOL     OW 6240   2.026   1.515   2.582 -0.3659 -0.1200 -0.2214
 1547SOL    HW2 6241   1.955   1.571   2.613  0.5246  0.4932  0.7374
 1547SOL    HW3 6242   2.023   1.439   2.639  0.8323  0.6934  0.9540
 1547SOL    MW4 6243   2.016   1.513   2.594 -0.0904  0.0682  0.0601
 1548SOL     OW 6244   1.817   1.703   2.701 -0.3366 -0.3801  0.8018
 1548SOL    HW2 6245   1.816   1.708   2.796  0.1832 -2.0924  0.9124
 1548SOL    HW3 6246   1.733   1.664   2.677 -0.9146  1.0388  0.4845
 1548SOL    MW4 6247   1.806   1.698   2.710 -0.3444 -0.4187  0.7741
 1549SOL     OW 6248   1.767   1.948   2.598 -0.0383 -0.1726  0.4570
 1549SOL    HW2 6249   1.846   1.995   2.623 -0.1679  0.7822 -0.9019
 1549SOL    HW3 6250   1.775   1.863   2.642  1.8639 -0.1786  0.1218
 1549SOL    MW4 6251   1.778   1.943   2.607  0.1955 -0.0474  0.2334
 1550SOL     OW 6252   2.012   2.054   2.698 -0.0612  0.2840  0.3583
 1550SOL    HW2 6253   2.011   2.036   2.792  1.4424 -0.2235  0.2961
 1550SOL    HW3 6254   2.028   2.148   2.692  0.8850  0.1421  0.6063
 1550SOL    MW4 6255   2.014   2.064   2.710  0.2620  0.1984  0.3829
 1551SOL     OW 6256   2.017   2.310   2.627 -0.6035  0.0826  0.3103
 1551SOL    HW2 6257   2.093   2.354   2.666 -1.7268  0.8262  1.6748
 1551SOL    HW3 6258   2.033   2.316   2.532  1.4523 -0.5218  0.5770
 1551SOL    MW4 6259   2.029   2.317   2.620 -0.4809  0.1011  0.5255
 1552SOL     OW 6260   1.826   2.483   2.691  0.0579 -0.2068  0.0961
 1552SOL    HW2 6261   1.832   2.469   2.785  0.2271 -1.0497 -0.0386
 1552SOL    HW3 6262   1.899   2.433   2.655 -0.4349 -0.4662 -0.5460
 1552SOL    MW4 6263   1.837   2.475   2.699  0.0153 -0.3524 -0.0062
 1553SOL     OW 6264   1.823   2.745   2.573 -0.2850  0.0551 -0.3544
 1553SOL    HW2 6265   1.824   2.654   2.603  1.4251  0.4609  0.8935
 1553SOL    HW3 6266   1.830   2.739   2.478 -0.5969 -1.1233 -0.3120
 1553SOL    MW4 6267   1.824   2.733   2.564 -0.1004 -0.0467 -0.1841
 1554SOL     OW 6268   2.028   2.865   2.711 -0.0724 -0.3682 -0.0645
 1554SOL    HW2 6269   2.106   2.811   2.695 -0.2983 -1.0104  0.9432
 1554SOL    HW3 6270   1.957   2.817   2.669 -0.1887 -0.6294  0.4150
 1554SOL    MW4 6271   2.029   2.851   2.703 -0.1178 -0.4873  0.1314
 1555SOL     OW 6272   2.009   3.109   2.625  0.1605 -0.2085 -0.0524
 1555SOL    HW2 6273   2.011   3.019   2.657  1.7934 -0.0014  0.5112
 1555SOL    HW3 6274   2.010   3.102   2.530  1.3861 -0.7927 -0.0049
 1555SOL    MW4 6275   2.010   3.096   2.617  0.5376 -0.2584  0.0281
 1556SOL     OW 6276   1.779   3.226   2.712  0.1628 -0.0235 -0.2858
 1556SOL    HW2 6277   1.756   3.302   2.658 -0.0389 -1.0733 -1.7263
 1556SOL    HW3 6278   1.862   3.195   2.675  0.2494 -0.4916  0.2990
 1556SOL    MW4 6279   1.787   3.232   2.700  0.1477 -0.2239 -0.3984
 1557SOL     OW 6280   1.763   3.462   2.566 -0.0187  0.2780  0.5000
 1557SOL    HW2 6281   1.836   3.504   2.610 -0.6871  1.2743  0.6821
 1557SOL    HW3 6282   1.778   3.477   2.473  0.6679 -0.6309  0.4522
 1557SOL    MW4 6283   1.774   3.469   2.560 -0.0162  0.2894  0.5178
 1558SOL     OW 6284   1.989   3.588   2.707  0.2072 -0.2260 -0.3226
 1558SOL    HW2 6285   1.981   3.558   2.797  0.7944  1.2789  0.2509
 1558SOL    HW3 6286   2.074   3.554   2.678  0.6570  0.4786  0.1623
 1558SOL    MW4 6287   1.999   3.579   2.715  0.3440  0.0658 -0.1831
 1559SOL     OW 6288   2.013   3.864   2.626  0.2948  0.4044  0.4559
 1559SOL    HW2 6289   1.933   3.912   2.646  0.6760  1.6215 -0.8884
 1559SOL    HW3 6290   1.997   3.776   2.661 -2.4156  0.0497 -1.5497
 1559SOL    MW4 6291   2.001   3.859   2.633 -0.0124  0.5178  0.0138
 1560SOL     OW 6292   1.791   4.003   2.728 -0.5834  0.0330 -0.3938
 1560SOL    HW2 6293   1.805   4.080   2.674  0.2737  0.1489 -0.0200
 1560SOL    HW3 6294   1.713   3.962   2.692 -0.5127  0.5738 -1.1729
 1560SOL    MW4 6295   1.783   4.008   2.716 -0.4610  0.1192 -0.4470
 1561SOL     OW 6296   1.798   4.261   2.611  1.0208  0.2742 -0.7246
 1561SOL    HW2 6297   1.712   4.289   2.642  0.6610 -1.2340 -0.3137
 1561SOL    HW3 6298   1.787   4.249   2.516  0.4375 -1.0161 -0.5159
 1561SOL    MW4 6299   1.786   4.263   2.602  0.8966 -0.0954 -0.6428
 1562SOL     OW 6300   2.020   4.354   2.748 -0.0836  0.0856 -0.3332
 1562SOL    HW2 6301   1.947   4.314   2.701  0.0408 -0.3935 -0.1270
 1562SOL    HW3 6302   2.019   4.446   2.722 -0.1054 -0.1480 -1.1577
 1562SOL    MW4 6303   2.010   4.361   2.738 -0.0701 -0.0086 -0.4146
 1563SOL     OW 6304   2.499   4.578   2.586  0.2200  0.0268  0.1590
 1563SOL    HW2 6305   2.578   4.621   2.617 -0.1710 -0.9371  2.6223
 1563SOL    HW3 6306   2.484   4.615   2.499  2.0237  1.9804  0.6390
 1563SOL    MW4 6307   2.507   4.588   2.579  0.4065  0.1569  0.5476
 1564SOL     OW 6308   2.275   0.029   2.692 -0.2697 -0.4405 -0.1364
 1564SOL    HW2 6309   2.283   0.036   2.787  1.5466 -0.2590 -0.2764
 1564SOL    HW3 6310   2.358  -0.009   2.664 -0.2633  0.7136 -1.7759
 1564SOL    MW4 6311   2.287   0.025   2.700 -0.0291 -0.2643 -0.3712
 1565SOL     OW 6312   2.253   0.307   2.615 -0.0014  0.2065  0.1136
 1565SOL    HW2 6313   2.276   0.216   2.632  0.7580  0.3601 -0.0890
 1565SOL    HW3 6314   2.253   0.315   2.520 -2.8410 -0.2822  0.0122
 1565SOL    MW4 6315   2.256   0.296   2.605 -0.2759  0.1623  0.0734
 1566SOL     OW 6316   2.430   0.449   2.773 -0.1192  0.1132 -0.1400
 1566SOL    HW2 6317   2.434   0.534   2.729  0.6317 -0.5561 -1.3926
 1566SOL    HW3 6318   2.365   0.400   2.724  0.6578 -0.6065 -0.4601
 1566SOL    MW4 6319   2.422   0.454   2.761  0.0823 -0.0701 -0.3474
 1567SOL     OW 6320   2.425   0.694   2.636 -0.1047  0.6477 -0.0843
 1567SOL    HW2 6321   2.371   0.765   2.671 -0.0664  0.6161  0.0401
 1567SOL    HW3 6322   2.425   0.709   2.541 -0.8130  0.3113 -0.1424
 1567SOL    MW4 6323   2.418   0.706   2.628 -0.1931  0.5991 -0.0753
 1568SOL     OW 6324   2.254   0.891   2.717 -0.0229 -0.0333 -0.1399
 1568SOL    HW2 6325   2.266   0.868   2.810  1.1445  0.2815 -0.2072
 1568SOL    HW3 6326   2.192   0.826   2.685  2.3421 -2.4388 -0.0282
 1568SOL    MW4 6327   2.248   0.879   2.725  0.4432 -0.3091 -0.1340
 1569SOL     OW 6328   2.229   1.167   2.614 -0.6788  0.2256 -0.0167
 1569SOL    HW2 6329   2.241   1.084   2.659 -0.3835  1.0934  1.5422
 1569SOL    HW3 6330   2.220   1.144   2.522  1.4781 -1.3623  0.1468
 1569SOL    MW4 6331   2.229   1.153   2.608 -0.3550  0.1304  0.2103
 1570SOL     OW 6332   2.469   1.241   2.727 -0.2844  0.2497  0.1034
 1570SOL    HW2 6333   2.525   1.174   2.688 -0.0667  0.0347  0.7867
 1570SOL    HW3 6334   2.386   1.233   2.679  0.0765  0.1916 -0.5236
 1570SOL    MW4 6335   2.465   1.231   2.715 -0.2081  0.2137  0.1109
 1571SOL     OW 6336   2.448   1.504   2.593 -0.4194 -0.0401 -0.0332
 1571SOL    HW2 6337   2.377   1.555   2.631  0.2864  0.0439  1.2091
 1571SOL    HW3 6338   2.453   1.425   2.647  0.8167  0.2427  0.3031
 1571SOL    MW4 6339   2.440   1.500   2.605 -0.1631  0.0082  0.1750
 1572SOL     OW 6340   2.227   1.638   2.705  0.0942 -0.4925 -0.0351
 1572SOL    HW2 6341   2.227   1.729   2.674  0.1571 -0.5658 -0.2490
 1572SOL    HW3 6342   2.150   1.599   2.664 -0.0544 -0.4780  0.2282
 1572SOL    MW4 6343   2.217   1.645   2.696  0.0830 -0.5002 -0.0286
 1573SOL     OW 6344   2.239   1.901   2.602 -0.0553  0.2336 -0.3208
 1573SOL    HW2 6345   2.160   1.951   2.625 -0.3138 -0.7599  1.0591
 1573SOL    HW3 6346   2.255   1.922   2.510 -1.3843  1.1779 -0.3586
 1573SOL    MW4 6347   2.230   1.911   2.593 -0.2646  0.2271 -0.1440
 1574SOL     OW 6348   2.465   2.044   2.705 -0.3675  0.2664  0.1962
 1574SOL    HW2 6349   2.474   2.137   2.687 -0.8718  0.4151  0.6919
 1574SOL    HW3 6350   2.384   2.018   2.659  0.6851 -0.3070 -1.3781
 1574SOL    MW4 6351   2.455   2.053   2.696 -0.2952  0.2103  0.0539
 1575SOL     OW 6352   2.476   2.311   2.581  0.6685  0.8347  0.0984
 1575SOL    HW2 6353   2.559   2.344   2.615  0.4536  0.8016  0.6662
 1575SOL    HW3 6354   2.476   2.335   2.489  0.7759  1.8843  0.3709
 1575SOL    MW4 6355   2.487   2.318   2.574  0.6542  0.9689  0.2091
 1576SOL     OW 6356   2.247   2.431   2.720 -0.3097 -0.3077 -0.3696
 1576SOL    HW2 6357   2.253   2.417   2.815 -0.7919  0.7738 -0.1591
 1576SOL    HW3 6358   2.332   2.406   2.686  0.5498  1.2025  0.6239
 1576SOL    MW4 6359   2.259   2.426   2.728 -0.2604  0.0341 -0.2103
 1577SOL     OW 6360   2.253   2.724   2.643 -0.5829 -0.0678 -0.3742
 1577SOL    HW2 6361   2.322   2.768   2.693 -1.0290  0.7657 -0.4731
 1577SOL    HW3 6362   2.255   2.634   2.673  1.0192 -0.2178 -0.8805
 1577SOL    MW4 6363   2.263   2.718   2.653 -0.4301  0.0224 -0.4544
 1578SOL     OW 6364   2.495   2.843   2.752  0.1912  0.4788 -0.0288
 1578SOL    HW2 6365   2.573   2.806   2.712  0.7788  0.5074  1.0796
 1578SOL    HW3 6366   2.494   2.934   2.722  0.7258  0.5482  0.1528
 1578SOL    MW4 6367   2.505   2.850   2.743  0.3395  0.4916  0.1416
 1579SOL     OW 6368   2.435   3.076   2.619 -0.2467 -0.2756  0.1284
 1579SOL    HW2 6369   2.360   3.129   2.643 -0.0824 -0.3685  0.8453
 1579SOL    HW3 6370   2.444   3.089   2.524 -0.5875  0.4695  0.1969
 1579SOL    MW4 6371   2.426   3.084   2.609 -0.2699 -0.1895  0.2320
 1580SOL     OW 6372   2.250   3.234   2.728 -0.6818 -0.4110 -0.1419
 1580SOL    HW2 6373   2.252   3.228   2.824 -0.5381 -1.4938 -0.2082
 1580SOL    HW3 6374   2.165   3.197   2.704 -1.5562  1.6236 -0.3262
 1580SOL    MW4 6375   2.239   3.228   2.737 -0.7782 -0.2854 -0.1748
 1581SOL     OW 6376   2.240   3.476   2.623 -0.4474  0.0137 -0.2557
 1581SOL    HW2 6377   2.321   3.522   2.647 -0.7864  1.1035 -1.1473
 1581SOL    HW3 6378   2.246   3.392   2.668  1.6546 -0.3129 -1.1029
 1581SOL    MW4 6379   2.252   3.471   2.632 -0.2148  0.1147 -0.4852
 1582SOL     OW 6380   2.489   3.563   2.712 -0.3967  0.3286 -0.2128
 1582SOL    HW2 6381   2.496   3.553   2.807  2.5020  0.5352 -0.3624
 1582SOL    HW3 6382   2.487   3.658   2.699  1.9234  0.3661 -0.4797
 1582SOL    MW4 6383   2.489   3.574   2.723  0.2916  0.3607 -0.2680
 1583SOL     OW 6384   2.466   3.851   2.627  0.2905  0.3215  0.0101
 1583SOL    HW2 6385   2.541   3.864   2.685  0.9642 -2.3468 -0.1949
 1583SOL    HW3 6386   2.390   3.870   2.682  0.9983 -0.1104  1.1647
 1583SOL    MW4 6387   2.466   3.855   2.642  0.4725 -0.0873  0.1354
 1584SOL     OW 6388   2.233   3.955   2.733  0.5975  0.1487  0.8688
 1584SOL    HW2 6389   2.211   3.964   2.826 -0.5429  0.9630  0.5379
 1584SOL    HW3 6390   2.152   3.926   2.692  1.1717 -0.4692  0.1576
 1584SOL    MW4 6391   2.219   3.952   2.740  0.5229  0.1745  0.7312
 1585SOL     OW 6392   2.225   4.229   2.617  0.2074 -0.1594 -0.2136
 1585SOL    HW2 6393   2.211   4.144   2.659  1.1111  0.4040  1.2936
 1585SOL    HW3 6394   2.157   4.286   2.654 -1.0580 -0.4615 -2.0001
 1585SOL    MW4 6395   2.214   4.225   2.628  0.1597 -0.1249 -0.2503
 1586SOL     OW 6396   2.437   4.346   2.738 -0.4485  0.0553 -0.4589
 1586SOL    HW2 6397   2.369   4.301   2.687 -0.7544  0.9793 -0.8779
 1586SOL    HW3 6398   2.468   4.415   2.680 -0.4647  0.8235  0.4380
 1586SOL    MW4 6399   2.432   4.349   2.723 -0.4909  0.2789 -0.3960
 1587SOL     OW 6400   2.919   4.627   2.638 -0.5441 -0.3467 -0.1704
 1587SOL    HW2 6401   3.001   4.667   2.667 -0.6345 -0.6253  0.4692
 1587SOL    HW3 6402   2.920   4.637   2.543  0.2775 -0.4328 -0.1741
 1587SOL    MW4 6403   2.930   4.634   2.629 -0.4478 -0.3948 -0.0863
 1588SOL     OW 6404   2.696   0.094   2.701 -0.0488  0.3640 -0.2639
 1588SOL    HW2 6405   2.702   0.125   2.791 -1.1061  1.0816 -0.4355
 1588SOL    HW3 6406   2.783   0.057   2.683 -0.0867 -0.5216  1.3016
 1588SOL    MW4 6407   2.708   0.093   2.711 -0.1934  0.3418 -0.0799
 1589SOL     OW 6408   2.674   0.369   2.625  0.1678 -0.1923  0.0322
 1589SOL    HW2 6409   2.680   0.278   2.654  1.1398  0.1385  0.8815
 1589SOL    HW3 6410   2.596   0.404   2.670  0.6759 -0.1722  0.9000
 1589SOL    MW4 6411   2.664   0.362   2.634  0.3631 -0.1460  0.2589
 1590SOL     OW 6412   2.895   0.496   2.743  0.2294 -0.3909 -0.3332
 1590SOL    HW2 6413   2.919   0.578   2.700 -0.2540 -0.0358  0.0690
 1590SOL    HW3 6414   2.821   0.462   2.693  2.2115 -2.0332 -2.2276
 1590SOL    MW4 6415   2.889   0.502   2.731  0.4272 -0.5607 -0.5298
 1591SOL     OW 6416   2.932   0.751   2.618  0.2856  0.1672 -0.4527
 1591SOL    HW2 6417   3.011   0.791   2.655  0.1063  0.7584 -0.7097
 1591SOL    HW3 6418   2.860   0.794   2.664  0.1275 -1.0087  0.4285
 1591SOL    MW4 6419   2.933   0.762   2.629  0.2410  0.0901 -0.3705
 1592SOL     OW 6420   2.701   0.844   2.749 -0.3889  0.1306 -0.1151
 1592SOL    HW2 6421   2.698   0.850   2.844 -0.3418 -0.6676 -0.0670
 1592SOL    HW3 6422   2.621   0.798   2.725 -0.6486  0.7701 -0.5017
 1592SOL    MW4 6423   2.690   0.839   2.758 -0.4170  0.1097 -0.1597
 1593SOL     OW 6424   2.694   1.097   2.625  0.0718  0.7857 -0.2621
 1593SOL    HW2 6425   2.767   1.145   2.664 -0.3006  0.8840  0.3286
 1593SOL    HW3 6426   2.700   1.010   2.664  0.0106  0.7254 -0.3891
 1593SOL    MW4 6427   2.704   1.092   2.635  0.0145  0.7907 -0.2007
 1594SOL     OW 6428   2.926   1.266   2.722  0.5019  0.1041 -0.0395
 1594SOL    HW2 6429   2.927   1.260   2.817  0.8120 -1.8204 -0.1347
 1594SOL    HW3 6430   3.011   1.231   2.695  0.9420  1.8417 -0.9809
 1594SOL    MW4 6431   2.937   1.260   2.731  0.6008  0.0795 -0.1762
 1595SOL     OW 6432   2.914   1.508   2.591 -0.3201 -0.3751 -0.0228
 1595SOL    HW2 6433   2.847   1.563   2.633  1.1391  1.5352 -0.1199
 1595SOL    HW3 6434   2.919   1.430   2.646 -2.2767 -0.3406  0.2501
 1595SOL    MW4 6435   2.906   1.505   2.604 -0.3858 -0.1185  0.0002
 1596SOL     OW 6436   2.683   1.635   2.673  0.0387  0.5619  0.3084
 1596SOL    HW2 6437   2.691   1.640   2.769 -1.0748 -1.1838  0.5252
 1596SOL    HW3 6438   2.613   1.572   2.659  2.3511 -1.6526 -1.6979
 1596SOL    MW4 6439   2.675   1.627   2.684  0.1969  0.0393  0.0725
 1597SOL     OW 6440   2.662   1.906   2.586 -0.2226  0.0234 -0.1880
 1597SOL    HW2 6441   2.663   1.819   2.626 -1.0769  0.4432  0.7696
 1597SOL    HW3 6442   2.592   1.953   2.631 -1.1359  0.5646 -2.0951
 1597SOL    MW4 6443   2.653   1.901   2.597 -0.4559  0.1502 -0.3135
 1598SOL     OW 6444   2.935   2.015   2.688 -0.3465  0.0287  0.1125
 1598SOL    HW2 6445   2.950   2.106   2.662 -0.6184  0.4517  1.3745
 1598SOL    HW3 6446   2.849   1.993   2.652 -0.6896  0.5790  0.5889
 1598SOL    MW4 6447   2.925   2.024   2.680 -0.4277  0.1571  0.3419
 1599SOL     OW 6448   2.945   2.292   2.595  0.1813 -0.0559  0.0794
 1599SOL    HW2 6449   3.022   2.342   2.621 -0.4440  1.2459 -0.5015
 1599SOL    HW3 6450   2.872   2.337   2.636 -0.4461 -0.1516 -0.9019
 1599SOL    MW4 6451   2.945   2.305   2.604  0.0160  0.1032 -0.1268
 1600SOL     OW 6452   2.719   2.417   2.677 -0.8053 -0.0483  0.0397
 1600SOL    HW2 6453   2.719   2.409   2.772 -0.7802 -0.9373 -0.0267
 1600SOL    HW3 6454   2.729   2.510   2.660 -1.0227  0.1327  0.9103
 1600SOL    MW4 6455   2.720   2.428   2.687 -0.8307 -0.1414  0.1457
 1601SOL     OW 6456   2.711   2.704   2.639  0.0847 -0.8527 -0.2919
 1601SOL    HW2 6457   2.795   2.741   2.665 -0.2467 -0.3508  0.0650
 1601SOL    HW3 6458   2.711   2.712   2.543 -0.1970  0.5524 -0.1878
 1601SOL    MW4 6459   2.722   2.710   2.630  0.0038 -0.6011 -0.2313
 1602SOL     OW 6460   2.962   2.823   2.739 -0.3169 -0.0597  0.2388
 1602SOL    HW2 6461   2.950   2.821   2.834 -1.8023  0.5890  0.0863
 1602SOL    HW3 6462   2.959   2.916   2.716  0.7030 -0.1694 -0.3759
 1602SOL    MW4 6463   2.960   2.835   2.749 -0.3781  0.0114  0.1373
 1603SOL     OW 6464   2.916   3.079   2.644 -0.0132 -0.1229 -0.0123
 1603SOL    HW2 6465   2.832   3.121   2.665  0.6353  1.3651 -0.4165
 1603SOL    HW3 6466   2.921   3.081   2.549 -0.3511 -1.8630 -0.0840
 1603SOL    MW4 6467   2.905   3.085   2.634  0.0279 -0.1562 -0.0749
 1604SOL     OW 6468   2.680   3.209   2.723  0.5104  0.0431 -0.3859
 1604SOL    HW2 6469   2.694   3.296   2.688 -0.9408  0.4052 -0.1187
 1604SOL    HW3 6470   2.591   3.186   2.695  0.0323 -0.4273  1.3990
 1604SOL    MW4 6471   2.670   3.217   2.715  0.2558  0.0288 -0.1152
 1605SOL     OW 6472   2.715   3.454   2.598  0.0992  0.0170  0.0968
 1605SOL    HW2 6473   2.629   3.487   2.623  0.2379  0.8589 -0.5060
 1605SOL    HW3 6474   2.711   3.444   2.502  0.1781 -1.3856  0.2272
 1605SOL    MW4 6475   2.703   3.457   2.588  0.1278 -0.0570  0.0346
 1606SOL     OW 6476   2.913   3.615   2.729 -0.6411 -0.0903  0.0278
 1606SOL    HW2 6477   2.891   3.593   2.820 -1.3813  0.1709 -0.0816
 1606SOL    HW3 6478   2.853   3.561   2.677  1.7793 -2.4790 -0.3794
 1606SOL    MW4 6479   2.902   3.605   2.734 -0.4196 -0.3710 -0.0403
 1607SOL     OW 6480   2.902   3.877   2.640 -0.2311 -0.6188 -0.1958
 1607SOL    HW2 6481   2.961   3.937   2.684  0.5792 -0.7551 -1.0852
 1607SOL    HW3 6482   2.931   3.790   2.667 -0.1218 -0.6810 -0.5103
 1607SOL    MW4 6483   2.913   3.873   2.649 -0.1101 -0.6449 -0.3548
 1608SOL     OW 6484   2.671   3.943   2.757 -0.4834  0.0793 -0.4472
 1608SOL    HW2 6485   2.663   4.030   2.719 -0.4258 -0.2102 -1.1214
 1608SOL    HW3 6486   2.760   3.915   2.737 -0.2013  0.2344  0.5614
 1608SOL    MW4 6487   2.682   3.951   2.750 -0.4385  0.0618 -0.4032
 1609SOL     OW 6488   2.661   4.203   2.682  0.0535  0.3511 -0.0469
 1609SOL    HW2 6489   2.730   4.266   2.703  1.2874 -1.3007  0.9995
 1609SOL    HW3 6490   2.580   4.249   2.701  0.9625  1.3468  1.5634
 1609SOL    MW4 6491   2.660   4.217   2.687  0.3362  0.2642  0.3035
 1610SOL     OW 6492   2.884   4.363   2.747 -0.5689 -0.2201  0.0643
 1610SOL    HW2 6493   2.923   4.368   2.835  0.4215 -0.5245 -0.3407
 1610SOL    HW3 6494   2.901   4.448   2.708 -0.6326 -0.2276  0.0202
 1610SOL    MW4 6495   2.892   4.375   2.754 -0.4468 -0.2608  0.0048
 1611SOL     OW 6496   3.388   4.601   2.616 -0.2900  0.1025 -0.2332
 1611SOL    HW2 6497   3.408   4.534   2.681  1.0354 -0.1789 -0.8990
 1611SOL    HW3 6498   3.313   4.649   2.652 -1.0701 -1.5433  0.3889
 1611SOL    MW4 6499   3.381   4.598   2.629 -0.2179 -0.1516 -0.2389
 1612SOL     OW 6500   3.163   0.094   2.698  0.0861  0.1482 -0.8061
 1612SOL    HW2 6501   3.181   0.090   2.792  0.0456 -0.8269 -0.8403
 1612SOL    HW3 6502   3.148   0.187   2.681  0.3759  0.3654  0.0986
 1612SOL    MW4 6503   3.163   0.106   2.708  0.1187  0.0482 -0.6912
 1613SOL     OW 6504   3.117   0.367   2.658 -0.0288 -0.1367  0.4263
 1613SOL    HW2 6505   3.040   0.401   2.705 -0.8463 -2.3133  0.7186
 1613SOL    HW3 6506   3.098   0.382   2.566 -0.4094  0.1577  0.5515
 1613SOL    MW4 6507   3.104   0.373   2.652 -0.1872 -0.3850  0.4816
 1614SOL     OW 6508   3.363   0.472   2.731  0.0038 -0.6066 -0.6149
 1614SOL    HW2 6509   3.362   0.561   2.697  0.0414 -0.4966 -0.3240
 1614SOL    HW3 6510   3.283   0.432   2.698 -0.3818 -0.2367 -0.1195
 1614SOL    MW4 6511   3.353   0.478   2.722 -0.0420 -0.5433 -0.5112
 1615SOL     OW 6512   3.382   0.745   2.643 -0.5129 -0.0811 -0.1758
 1615SOL    HW2 6513   3.459   0.793   2.671  0.7697 -2.4712  0.4897
 1615SOL    HW3 6514   3.376   0.763   2.549  1.0352 -0.1637 -0.2935
 1615SOL    MW4 6515   3.391   0.754   2.634 -0.1395 -0.4073 -0.1035
 1616SOL     OW 6516   3.150   0.875   2.763 -0.1994  0.1643  0.0567
 1616SOL    HW2 6517   3.150   0.859   2.857  0.3706  1.9059  0.3607
 1616SOL    HW3 6518   3.232   0.838   2.732  1.1674  2.4752  0.7776
 1616SOL    MW4 6519   3.161   0.868   2.771  0.0560  0.6990  0.1919
 1617SOL     OW 6520   3.173   1.143   2.641  0.2632 -0.5166  0.3208
 1617SOL    HW2 6521   3.164   1.054   2.676 -2.2058 -0.0906  0.7981
 1617SOL    HW3 6522   3.167   1.132   2.546 -0.4107 -0.8268  0.3975
 1617SOL    MW4 6523   3.171   1.130   2.633 -0.1514 -0.5013  0.3941
 1618SOL     OW 6524   3.402   1.292   2.714  0.4268  0.8793 -0.0115
 1618SOL    HW2 6525   3.367   1.307   2.802  0.4830  1.5499 -0.1038
 1618SOL    HW3 6526   3.342   1.229   2.675  0.0918  0.9943  0.3158
 1618SOL    MW4 6527   3.389   1.286   2.721  0.3901  0.9831  0.0196
 1619SOL     OW 6528   3.386   1.550   2.619 -0.1021  0.5228  0.4589
 1619SOL    HW2 6529   3.306   1.587   2.657 -0.7863 -0.1250 -0.3314
 1619SOL    HW3 6530   3.389   1.461   2.653 -0.2147  0.2478 -0.2490
 1619SOL    MW4 6531   3.376   1.543   2.629 -0.2072  0.4010  0.2613
 1620SOL     OW 6532   3.143   1.627   2.699  0.1887 -0.0927  0.0590
 1620SOL    HW2 6533   3.139   1.711   2.652  0.6578 -1.6529 -2.9158
 1620SOL    HW3 6534   3.075   1.573   2.658 -0.8447 -0.8447  2.6771
 1620SOL    MW4 6535   3.134   1.631   2.687  0.1142 -0.3978  0.0119
 1621SOL     OW 6536   3.145   1.885   2.567 -0.5306  0.4416 -0.4090
 1621SOL    HW2 6537   3.220   1.935   2.601 -0.1489 -0.5122  0.1867
 1621SOL    HW3 6538   3.069   1.924   2.610 -0.2260  0.4433  0.1407
 1621SOL    MW4 6539   3.145   1.897   2.577 -0.4399  0.3160 -0.2577
 1622SOL     OW 6540   3.346   2.061   2.670  0.2092 -0.2049  0.3236
 1622SOL    HW2 6541   3.346   2.071   2.766 -0.5953  0.7086  0.2333
 1622SOL    HW3 6542   3.338   2.150   2.637  1.4697 -0.4277 -0.6227
 1622SOL    MW4 6543   3.345   2.074   2.679  0.2694 -0.1137  0.1867
 1623SOL     OW 6544   3.369   2.320   2.565 -0.0222 -0.2874  0.2709
 1623SOL    HW2 6545   3.451   2.351   2.604 -0.6133  1.0541  0.4979
 1623SOL    HW3 6546   3.391   2.299   2.475  0.4998  0.4443  0.2210
 1623SOL    MW4 6547   3.382   2.322   2.559 -0.0315 -0.0141  0.2940
 1624SOL     OW 6548   3.155   2.438   2.713 -0.1731 -0.4286 -0.3722
 1624SOL    HW2 6549   3.152   2.530   2.689 -1.2345 -0.2697  0.3346
 1624SOL    HW3 6550   3.234   2.404   2.670  1.0270  1.1296  0.5596
 1624SOL    MW4 6551   3.165   2.445   2.704 -0.1545 -0.2019 -0.1559
 1625SOL     OW 6552   3.168   2.700   2.641 -0.3642 -0.2505 -0.3043
 1625SOL    HW2 6553   3.247   2.751   2.656 -0.7993 -0.0467  1.3851
 1625SOL    HW3 6554   3.096   2.759   2.668 -1.0770 -0.5279 -1.5552
 1625SOL    MW4 6555   3.169   2.715   2.647 -0.5159 -0.2604 -0.2465
 1626SOL     OW 6556   3.401   2.835   2.695  0.1055 -0.0780  0.1584
 1626SOL    HW2 6557   3.390   2.821   2.789  0.4655  0.3365  0.2623
 1626SOL    HW3 6558   3.481   2.787   2.672 -0.1346 -0.4124  0.0084
 1626SOL    MW4 6559   3.410   2.827   2.704  0.1216 -0.0675  0.1521
 1627SOL     OW 6560   3.370   3.093   2.583 -0.1720  0.3409 -0.2966
 1627SOL    HW2 6561   3.393   3.011   2.627 -1.7633 -0.1586 -0.3586
 1627SOL    HW3 6562   3.378   3.073   2.490  0.0872  0.4445 -0.2951
 1627SOL    MW4 6563   3.374   3.080   2.576 -0.3474  0.2890 -0.3045
 1628SOL     OW 6564   3.146   3.234   2.680 -0.0254  0.2133  0.2706
 1628SOL    HW2 6565   3.217   3.177   2.653 -0.5855 -1.5867  2.5379
 1628SOL    HW3 6566   3.067   3.179   2.675 -1.1480  1.8810 -1.2146
 1628SOL    MW4 6567   3.145   3.219   2.676 -0.2475  0.1955  0.3738
 1629SOL     OW 6568   3.153   3.496   2.589 -0.4206  0.5885  0.0571
 1629SOL    HW2 6569   3.149   3.403   2.613  0.5040  0.1825 -1.2932
 1629SOL    HW3 6570   3.086   3.538   2.643 -0.9753 -0.8954  0.5397
 1629SOL    MW4 6571   3.144   3.489   2.600 -0.3717  0.3388 -0.0572
 1630SOL     OW 6572   3.380   3.608   2.716 -0.0629  0.0423 -0.1689
 1630SOL    HW2 6573   3.362   3.612   2.810  0.4012 -2.0370  0.0323
 1630SOL    HW3 6574   3.302   3.568   2.678 -0.0335  0.3922 -0.6040
 1630SOL    MW4 6575   3.367   3.603   2.724  0.0024 -0.1860 -0.1998
 1631SOL     OW 6576   3.373   3.882   2.647 -0.3858 -0.0676 -0.1653
 1631SOL    HW2 6577   3.361   3.789   2.666  0.4174 -0.1156  0.1265
 1631SOL    HW3 6578   3.370   3.887   2.552 -2.5141 -0.0966 -0.1191
 1631SOL    MW4 6579   3.371   3.870   2.637 -0.5603 -0.0780 -0.1209
 1632SOL     OW 6580   3.132   4.019   2.733  0.1147 -0.1009  0.2906
 1632SOL    HW2 6581   3.147   4.112   2.715  0.6896 -0.4314 -0.9978
 1632SOL    HW3 6582   3.217   3.978   2.718 -0.0986 -0.8159  1.0154
 1632SOL    MW4 6583   3.146   4.026   2.729  0.1624 -0.2394  0.2160
 1633SOL     OW 6584   3.147   4.291   2.692  0.3343  0.3060 -0.1472
 1633SOL    HW2 6585   3.062   4.312   2.731  0.0820 -1.4488  0.3197
 1633SOL    HW3 6586   3.139   4.320   2.602 -1.8688 -2.4304 -0.9272
 1633SOL    MW4 6587   3.134   4.298   2.686  0.0105 -0.2866 -0.1884
 1634SOL     OW 6588   3.393   4.389   2.790 -0.4875 -0.0215  0.1866
 1634SOL    HW2 6589   3.382   4.404   2.884 -1.2378 -0.2615  0.1453
 1634SOL    HW3 6590   3.309   4.352   2.763  0.9525 -3.3621  0.0958
 1634SOL    MW4 6591   3.380   4.386   2.799 -0.3965 -0.4935  0.1693
 1635SOL     OW 6592   3.863   4.642   2.656  0.0741  0.2484 -0.4506
 1635SOL    HW2 6593   3.856   4.554   2.694 -1.0263  0.5020 -0.0335
 1635SOL    HW3 6594   3.777   4.681   2.672  0.9621  1.8589  0.4816
 1635SOL    MW4 6595   3.851   4.635   2.663  0.0463  0.4945 -0.2725
 1636SOL     OW 6596   3.611   0.085   2.697 -0.6511 -0.3145 -0.3596
 1636SOL    HW2 6597   3.592   0.175   2.670 -0.6571 -0.2993 -0.3036
 1636SOL    HW3 6598   3.537   0.034   2.663 -0.1080 -0.4637 -1.3352
 1636SOL    MW4 6599   3.599   0.090   2.689 -0.5803 -0.3322 -0.4811
 1637SOL     OW 6600   3.573   0.344   2.609 -0.0562 -0.4857  0.2706
 1637SOL    HW2 6601   3.652   0.381   2.650  1.1178  0.5724 -2.8375
 1637SOL    HW3 6602   3.501   0.388   2.653  1.2203  2.1899 -0.2248
 1637SOL    MW4 6603   3.574   0.355   2.620  0.2670  0.0069 -0.2048
 1638SOL     OW 6604   3.808   0.473   2.721 -0.1823 -0.6552 -0.5118
 1638SOL    HW2 6605   3.819   0.477   2.816  0.3360 -0.3345 -0.5825
 1638SOL    HW3 6606   3.893   0.442   2.689 -0.3928 -0.8780 -0.8643
 1638SOL    MW4 6607   3.821   0.469   2.729 -0.1416 -0.6423 -0.5677
 1639SOL     OW 6608   3.852   0.727   2.635 -0.0601  0.7449  0.1158
 1639SOL    HW2 6609   3.768   0.759   2.667 -0.8897 -0.0764 -1.2286
 1639SOL    HW3 6610   3.851   0.633   2.654  0.4219  0.6777 -0.1833
 1639SOL    MW4 6611   3.841   0.719   2.642 -0.1061  0.6276 -0.1011
 1640SOL     OW 6612   3.624   0.861   2.714  0.2742 -0.7438  0.0779
 1640SOL    HW2 6613   3.622   0.872   2.809  1.0595  0.0006  0.0134
 1640SOL    HW3 6614   3.620   0.950   2.679  0.6943 -0.9731 -0.5676
 1640SOL    MW4 6615   3.623   0.874   2.722  0.4330 -0.6758 -0.0157
 1641SOL     OW 6616   3.623   1.125   2.640 -0.0535  0.0675  0.0566
 1641SOL    HW2 6617   3.699   1.178   2.665 -0.1839  0.5229 -0.4882
 1641SOL    HW3 6618   3.548   1.180   2.659 -0.3084 -0.7279  1.4365
 1641SOL    MW4 6619   3.623   1.139   2.646 -0.1044  0.0225  0.1667
 1642SOL     OW 6620   3.829   1.279   2.720  0.3299  0.5018 -0.1769
 1642SOL    HW2 6621   3.906   1.234   2.685  0.5923  0.9175 -0.1334
 1642SOL    HW3 6622   3.838   1.370   2.690  0.2716  0.7361  0.5088
 1642SOL    MW4 6623   3.840   1.285   2.712  0.3569  0.5875 -0.0808
 1643SOL     OW 6624   3.829   1.540   2.592 -0.3828 -0.3333 -0.1192
 1643SOL    HW2 6625   3.914   1.573   2.620 -0.1802 -0.0130 -1.1132
 1643SOL    HW3 6626   3.766   1.587   2.646  0.0124  0.2470 -0.1628
 1643SOL    MW4 6627   3.832   1.551   2.603 -0.3037 -0.2145 -0.2563
 1644SOL     OW 6628   3.629   1.680   2.717 -0.0323 -0.1890 -0.7386
 1644SOL    HW2 6629   3.624   1.767   2.676  0.5161 -0.4471 -1.3505
 1644SOL    HW3 6630   3.548   1.637   2.691 -0.1954  0.0497 -0.6305
 1644SOL    MW4 6631   3.617   1.686   2.708  0.0184 -0.1916 -0.8051
 1645SOL     OW 6632   3.601   1.946   2.600 -0.1667 -0.2993 -0.1835
 1645SOL    HW2 6633   3.515   1.982   2.620 -0.2844 -0.2340 -0.8013
 1645SOL    HW3 6634   3.601   1.934   2.505  1.0045  0.9932 -0.3707
 1645SOL    MW4 6635   3.590   1.949   2.590 -0.0274 -0.1200 -0.2894
 1646SOL     OW 6636   3.822   2.084   2.697 -0.3653  0.3096  0.0524
 1646SOL    HW2 6637   3.899   2.035   2.668 -0.1560 -0.7848  2.3690
 1646SOL    HW3 6638   3.748   2.034   2.665 -0.1443  1.2232 -1.9567
 1646SOL    MW4 6639   3.822   2.071   2.689 -0.3088  0.2859  0.0932
 1647SOL     OW 6640   3.835   2.337   2.614  0.3438 -0.0187 -0.2264
 1647SOL    HW2 6641   3.830   2.249   2.650 -1.2199  0.1536  0.0136
 1647SOL    HW3 6642   3.823   2.325   2.519  0.5734 -0.1009 -0.2450
 1647SOL    MW4 6643   3.833   2.324   2.606  0.1676 -0.0067 -0.1969
 1648SOL     OW 6644   3.596   2.422   2.701 -0.3043 -0.3703  0.3266
 1648SOL    HW2 6645   3.607   2.424   2.796 -0.3669 -1.4474  0.3536
 1648SOL    HW3 6646   3.675   2.379   2.669 -0.1221  0.3089 -0.1353
 1648SOL    MW4 6647   3.608   2.417   2.710 -0.2887 -0.4227  0.2694
 1649SOL     OW 6648   3.644   2.682   2.615  0.3126 -0.5219  0.2433
 1649SOL    HW2 6649   3.625   2.592   2.641 -1.4268 -0.6582 -1.4317
 1649SOL    HW3 6650   3.641   2.680   2.520  0.4941  1.2781  0.1930
 1649SOL    MW4 6651   3.641   2.670   2.606  0.1070 -0.3023  0.0157
 1650SOL     OW 6652   3.839   2.875   2.703  0.2475 -0.1823  0.1852
 1650SOL    HW2 6653   3.927   2.844   2.679  0.5515  0.9853 -0.2580
 1650SOL    HW3 6654   3.780   2.806   2.673  0.9752 -0.7563  0.0409
 1650SOL    MW4 6655   3.843   2.862   2.696  0.3839 -0.1040  0.1075
 1651SOL     OW 6656   3.765   3.123   2.606 -0.3705  0.1608  0.0836
 1651SOL    HW2 6657   3.690   3.160   2.652 -0.9105 -0.5715 -0.1985
 1651SOL    HW3 6658   3.783   3.042   2.653  0.5732  0.5863  0.4694
 1651SOL    MW4 6659   3.757   3.117   2.618 -0.3173  0.1206  0.0973
 1652SOL     OW 6660   3.550   3.218   2.758 -0.3127 -0.0143  0.0558
 1652SOL    HW2 6661   3.552   3.309   2.727 -0.0774  0.5674  1.6925
 1652SOL    HW3 6662   3.475   3.179   2.715 -0.4543  0.9889 -0.6185
 1652SOL    MW4 6663   3.541   3.225   2.748 -0.3004  0.1948  0.1826
 1653SOL     OW 6664   3.584   3.456   2.619  0.2887 -0.3970  0.2798
 1653SOL    HW2 6665   3.662   3.496   2.657 -0.7516 -0.1475  2.2392
 1653SOL    HW3 6666   3.513   3.517   2.639 -0.4720 -0.7491 -1.2242
 1653SOL    MW4 6667   3.585   3.469   2.626  0.0513 -0.4106  0.3400
 1654SOL     OW 6668   3.829   3.589   2.730 -0.1366  0.1571 -0.2862
 1654SOL    HW2 6669   3.909   3.545   2.702  0.4615  0.5577  0.7619
 1654SOL    HW3 6670   3.843   3.681   2.707  0.1140  0.3892  0.7569
 1654SOL    MW4 6671   3.841   3.596   2.724 -0.0248  0.2408 -0.0103
 1655SOL     OW 6672   3.834   3.857   2.656  0.2024 -0.1727  0.2223
 1655SOL    HW2 6673   3.912   3.905   2.684  0.3647  0.3890 -1.1630
 1655SOL    HW3 6674   3.762   3.898   2.704  0.2575  1.8721 -1.3708
 1655SOL    MW4 6675   3.834   3.869   2.666  0.2313  0.1712 -0.1707
 1656SOL     OW 6676   3.608   3.969   2.753  0.0508  0.7121  0.4364
 1656SOL    HW2 6677   3.616   4.064   2.741 -0.5673  0.5481 -1.5450
 1656SOL    HW3 6678   3.524   3.948   2.713  0.4538 -0.7559  0.3665
 1656SOL    MW4 6679   3.598   3.979   2.746  0.0226  0.4969  0.1659
 1657SOL     OW 6680   3.609   4.241   2.677  0.0753 -0.2706  0.1862
 1657SOL    HW2 6681   3.536   4.285   2.720  0.3430 -0.2233  0.5921
 1657SOL    HW3 6682   3.588   4.245   2.584 -0.2428  0.0993  0.2737
 1657SOL    MW4 6683   3.596   4.248   2.670  0.0687 -0.2155  0.2508
 1658SOL     OW 6684   3.866   4.376   2.772  0.2541 -0.0082 -0.0472
 1658SOL    HW2 6685   3.953   4.350   2.742  0.0572 -0.5297 -0.1849
 1658SOL    HW3 6686   3.807   4.310   2.734 -0.5261  1.8564 -2.2513
 1658SOL    MW4 6687   3.869   4.364   2.763  0.1252  0.1693 -0.3560
 1659SOL     OW 6688   4.286   4.653   2.649  0.4266 -0.1776 -0.2010
 1659SOL    HW2 6689   4.212   4.706   2.677  0.2958 -0.6287  0.2956
 1659SOL    HW3 6690   4.361   4.713   2.654 -0.2191  0.9035 -2.7423
 1659SOL    MW4 6691   4.286   4.668   2.653  0.3247 -0.0949 -0.4706
 1660SOL     OW 6692   4.068   0.143   2.714  0.2451  0.0104 -0.5461
 1660SOL    HW2 6693   4.081   0.133   2.809  0.2966  1.7003 -0.3709
 1660SOL    HW3 6694   3.996   0.083   2.694 -1.1614  1.1485  0.9252
 1660SOL    MW4 6695   4.060   0.133   2.724  0.0668  0.3835 -0.3285
 1661SOL     OW 6696   4.049   0.401   2.600 -0.3842 -0.0953  0.0369
 1661SOL    HW2 6697   4.067   0.310   2.625  2.0976  0.5396  0.6207
 1661SOL    HW3 6698   4.037   0.398   2.505 -2.0810 -1.2841  0.2605
 1661SOL    MW4 6699   4.050   0.388   2.591 -0.2804 -0.1684  0.1433
 1662SOL     OW 6700   4.253   0.532   2.732  0.2777 -0.0455  0.0850
 1662SOL    HW2 6701   4.177   0.484   2.700  1.0546 -0.5140 -1.1079
 1662SOL    HW3 6702   4.328   0.486   2.694  1.0841  1.5959 -0.3732
 1662SOL    MW4 6703   4.253   0.519   2.723  0.4869  0.1093 -0.1328
 1663SOL     OW 6704   4.270   0.774   2.604  0.4514 -0.1622 -0.1239
 1663SOL    HW2 6705   4.270   0.684   2.638  0.4229 -0.2568 -0.3672
 1663SOL    HW3 6706   4.279   0.763   2.509  1.7906  0.1404 -0.0409
 1663SOL    MW4 6707   4.271   0.760   2.596  0.6247 -0.1348 -0.1447
 1664SOL     OW 6708   4.052   0.906   2.705 -0.0258 -0.0683  0.0547
 1664SOL    HW2 6709   4.125   0.858   2.666 -0.7276  0.3393 -1.8496
 1664SOL    HW3 6710   3.974   0.858   2.677 -0.6041  0.8277  0.1037
 1664SOL    MW4 6711   4.051   0.893   2.696 -0.1945  0.1037 -0.1900
 1665SOL     OW 6712   4.040   1.150   2.589  0.1359 -0.0204  0.7124
 1665SOL    HW2 6713   4.124   1.189   2.613  1.0227 -1.4334 -0.0341
 1665SOL    HW3 6714   4.043   1.061   2.624 -0.0720 -0.8674 -1.3472
 1665SOL    MW4 6715   4.051   1.144   2.596  0.2265 -0.3186  0.3421
 1666SOL     OW 6716   4.253   1.289   2.707 -0.0214 -0.3914  0.0160
 1666SOL    HW2 6717   4.250   1.378   2.673 -0.0478  0.4251  2.1071
 1666SOL    HW3 6718   4.326   1.248   2.661  0.3754  0.8782 -0.4989
 1666SOL    MW4 6719   4.262   1.295   2.696  0.0277 -0.1161  0.2244
 1667SOL     OW 6720   4.280   1.552   2.637 -0.2338  0.3392  0.3090
 1667SOL    HW2 6721   4.357   1.588   2.681 -0.4152  1.1675 -0.0420
 1667SOL    HW3 6722   4.305   1.547   2.545 -0.6049  0.6273  0.1914
 1667SOL    MW4 6723   4.294   1.556   2.630 -0.3066  0.4865  0.2470
 1668SOL     OW 6724   4.035   1.651   2.751  0.2497  0.1114 -0.2519
 1668SOL    HW2 6725   4.038   1.659   2.846 -0.1907 -1.2080 -0.1140
 1668SOL    HW3 6726   4.127   1.644   2.725  0.2849 -2.3930  0.3719
 1668SOL    MW4 6727   4.047   1.651   2.760  0.1965 -0.3932 -0.1516
 1669SOL     OW 6728   4.031   1.906   2.632  0.0555 -0.0682 -0.4447
 1669SOL    HW2 6729   4.098   1.963   2.669 -0.3403  1.2015 -1.6141
 1669SOL    HW3 6730   4.018   1.837   2.697  1.5294  0.4239  0.3731
 1669SOL    MW4 6731   4.038   1.904   2.645  0.1974  0.1642 -0.4914
 1670SOL     OW 6732   4.242   2.075   2.744  0.6251 -0.4197  0.0072
 1670SOL    HW2 6733   4.241   2.163   2.708  0.5789 -0.4349 -0.0294
 1670SOL    HW3 6734   4.328   2.041   2.722  0.1167 -0.9209 -1.2801
 1670SOL    MW4 6735   4.253   2.082   2.736  0.5522 -0.4880 -0.1674
 1671SOL     OW 6736   4.240   2.318   2.618  0.6784 -0.3353 -0.3445
 1671SOL    HW2 6737   4.179   2.388   2.642  0.5775 -0.7849  0.6912
 1671SOL    HW3 6738   4.236   2.315   2.522 -0.0626  0.4096 -0.3365
 1671SOL    MW4 6739   4.232   2.327   2.608  0.5670 -0.2959 -0.2067
 1672SOL     OW 6740   4.045   2.470   2.709  0.1554 -0.0044 -0.0589
 1672SOL    HW2 6741   4.041   2.458   2.804  1.0304 -2.3179 -0.2760
 1672SOL    HW3 6742   3.982   2.407   2.674 -1.8223  2.3912 -0.9567
 1672SOL    MW4 6743   4.036   2.460   2.717  0.0100  0.0067 -0.2060
 1673SOL     OW 6744   4.067   2.742   2.604 -0.2004 -0.5177 -0.1086
 1673SOL    HW2 6745   4.141   2.768   2.659 -1.1588  1.4678  0.2744
 1673SOL    HW3 6746   4.038   2.659   2.641  0.8938 -0.5637  0.6722
 1673SOL    MW4 6747   4.073   2.734   2.616 -0.1826 -0.2615  0.0451
 1674SOL     OW 6748   4.284   2.866   2.732 -0.2477  0.0957 -0.3008
 1674SOL    HW2 6749   4.259   2.870   2.824  0.3394 -0.0005 -0.1299
 1674SOL    HW3 6750   4.273   2.955   2.700 -0.4003  0.1424 -0.1202
 1674SOL    MW4 6751   4.279   2.878   2.740 -0.1898  0.0889 -0.2542
 1675SOL     OW 6752   4.271   3.113   2.633  0.0599  0.3745  0.0994
 1675SOL    HW2 6753   4.178   3.130   2.648 -0.0824 -0.4450  0.1611
 1675SOL    HW3 6754   4.280   3.108   2.538  0.4130  2.4673 -0.0140
 1675SOL    MW4 6755   4.260   3.115   2.623  0.0877  0.5422  0.0925
 1676SOL     OW 6756   4.017   3.195   2.697  0.1577 -0.0611  0.6390
 1676SOL    HW2 6757   4.019   3.288   2.674  1.1876 -0.4238 -0.7906
 1676SOL    HW3 6758   3.929   3.167   2.672  0.4433  0.1277 -0.6451
 1676SOL    MW4 6759   4.005   3.204   2.691  0.3309 -0.0842  0.2809
 1677SOL     OW 6760   4.047   3.453   2.643  0.6749 -0.0547 -0.2848
 1677SOL    HW2 6761   4.123   3.509   2.661 -0.1417  1.4450 -1.3786
 1677SOL    HW3 6762   4.035   3.460   2.548 -1.0594  0.0118 -0.0685
 1677SOL    MW4 6763   4.055   3.462   2.633  0.3381  0.1519 -0.4005
 1678SOL     OW 6764   4.244   3.633   2.724 -0.2186  0.1761  0.1105
 1678SOL    HW2 6765   4.217   3.609   2.812 -1.2000  0.7429 -0.0318
 1678SOL    HW3 6766   4.317   3.574   2.705 -2.2072 -2.3579 -0.0133
 1678SOL    MW4 6767   4.250   3.622   2.733 -0.6113 -0.0834  0.0756
 1679SOL     OW 6768   4.302   3.872   2.608  0.0558 -0.8398 -0.6604
 1679SOL    HW2 6769   4.276   3.792   2.653 -0.0835 -0.0212  0.7282
 1679SOL    HW3 6770   4.376   3.905   2.658  0.1315 -0.1084 -1.2473
 1679SOL    MW4 6771   4.308   3.866   2.620  0.0477 -0.6356 -0.5548
 1680SOL     OW 6772   4.080   3.988   2.725 -1.1862 -0.4200  0.1852
 1680SOL    HW2 6773   4.094   3.999   2.819 -1.1739  0.2974  0.0996
 1680SOL    HW3 6774   4.162   3.951   2.693 -0.5606  0.9423  0.1802
 1680SOL    MW4 6775   4.092   3.985   2.733 -1.1024 -0.1459  0.1731
 1681SOL     OW 6776   4.097   4.254   2.652  0.6987 -0.2447  0.2161
 1681SOL    HW2 6777   4.094   4.161   2.677 -1.3250  0.3544  2.3599
 1681SOL    HW3 6778   4.074   4.254   2.560 -0.2074 -1.8180  0.4156
 1681SOL    MW4 6779   4.094   4.242   2.643  0.3123 -0.3729  0.5252
 1682SOL     OW 6780   4.302   4.394   2.760 -0.7590 -0.1542 -0.1208
 1682SOL    HW2 6781   4.243   4.332   2.716 -0.6747 -0.4730  0.2149
 1682SOL    HW3 6782   4.291   4.476   2.712 -3.0215  0.3641  1.2515
 1682SOL    MW4 6783   4.293   4.397   2.748 -1.0462 -0.1278  0.1047
 1683SOL     OW 6784   0.241   4.656   3.054 -0.0344 -0.4395 -0.1990
 1683SOL    HW2 6785   0.235   4.632   3.147  0.5629  0.1775  0.0053
 1683SOL    HW3 6786   0.154   4.689   3.032 -0.0883 -0.2881  0.2312
 1683SOL    MW4 6787   0.229   4.657   3.064  0.0373 -0.3381 -0.1152
 1684SOL     OW 6788   0.005   0.079   2.963  0.6163 -0.0017 -0.4142
 1684SOL    HW2 6789  -0.077   0.041   2.998  1.2889 -1.8387 -0.7676
 1684SOL    HW3 6790   0.018   0.159   3.015 -1.3458  0.2647 -0.2807
 1684SOL    MW4 6791  -0.004   0.084   2.975  0.4458 -0.2089 -0.4430
 1685SOL     OW 6792   0.039   0.339   3.075 -0.4570 -0.0102 -0.1830
 1685SOL    HW2 6793   0.055   0.343   3.169 -1.2561 -0.4976 -0.0249
 1685SOL    HW3 6794  -0.037   0.396   3.061 -0.1091  0.3564 -0.5844
 1685SOL    MW4 6795   0.031   0.347   3.085 -0.5166 -0.0261 -0.2148
 1686SOL     OW 6796   0.261   0.498   2.984  0.0324  0.3620  0.2848
 1686SOL    HW2 6797   0.330   0.453   3.033  0.7688  1.2404  0.0742
 1686SOL    HW3 6798   0.183   0.444   2.998 -0.0570  1.1571  3.3256
 1686SOL    MW4 6799   0.260   0.485   2.992  0.1177  0.5828  0.6583
 1687SOL     OW 6800   0.262   0.746   3.082 -0.2902 -0.1831 -0.1180
 1687SOL    HW2 6801   0.255   0.731   3.177 -2.7093 -0.4180 -0.3019
 1687SOL    HW3 6802   0.256   0.659   3.044  0.0821 -0.0329 -0.5170
 1687SOL    MW4 6803   0.260   0.733   3.090 -0.5602 -0.1943 -0.1948
 1688SOL     OW 6804   0.036   0.894   3.016  0.2922 -0.1116 -0.1805
 1688SOL    HW2 6805   0.119   0.847   3.025  1.1857  1.2731 -1.1150
 1688SOL    HW3 6806   0.021   0.898   2.922  0.5055  1.9493 -0.1438
 1688SOL    MW4 6807   0.045   0.888   3.005  0.4383  0.3430 -0.2990
 1689SOL     OW 6808   0.041   1.163   3.128 -0.0169  0.1230  0.3160
 1689SOL    HW2 6809  -0.044   1.189   3.093 -0.1765 -0.2731  0.4030
 1689SOL    HW3 6810   0.051   1.072   3.101 -0.2511 -0.2586  1.4934
 1689SOL    MW4 6811   0.031   1.154   3.120 -0.0691  0.0204  0.4826
 1690SOL     OW 6812   0.264   1.248   2.990 -0.0139  0.2102 -0.0002
 1690SOL    HW2 6813   0.182   1.232   3.036  0.0238 -2.7703 -0.8574
 1690SOL    HW3 6814   0.239   1.259   2.898  0.1830  3.4872  0.2667
 1690SOL    MW4 6815   0.250   1.247   2.984  0.0171  0.2494 -0.0780
 1691SOL     OW 6816   0.274   1.497   3.122 -0.0271  0.3929  0.3606
 1691SOL    HW2 6817   0.191   1.540   3.103 -0.7152 -0.6405  0.9228
 1691SOL    HW3 6818   0.267   1.412   3.078  0.5981  0.1745  0.6764
 1691SOL    MW4 6819   0.262   1.491   3.114 -0.0354  0.2278  0.4766
 1692SOL     OW 6820   0.037   1.650   3.033  0.1957 -0.3132 -0.2091
 1692SOL    HW2 6821  -0.041   1.603   3.061  0.9144 -2.0423 -0.9968
 1692SOL    HW3 6822   0.025   1.739   3.065 -1.9112 -0.6527 -0.0054
 1692SOL    MW4 6823   0.025   1.656   3.041  0.0126 -0.5860 -0.2863
 1693SOL     OW 6824   4.486   1.906   3.147  0.2117 -0.7655  0.1817
 1693SOL    HW2 6825   4.406   1.946   3.113 -0.8509 -2.5102  0.5155
 1693SOL    HW3 6826   4.557   1.954   3.105 -1.0173  0.3200 -0.7124
 1693SOL    MW4 6827   4.485   1.917   3.137 -0.0907 -0.8526  0.1078
 1694SOL     OW 6828   0.214   2.043   3.027 -0.0087 -0.0324  0.3550
 1694SOL    HW2 6829   0.216   2.138   3.041 -0.3783  0.0440 -0.0888
 1694SOL    HW3 6830   0.218   2.033   2.932 -2.1452 -0.4022  0.2909
 1694SOL    MW4 6831   0.215   2.054   3.016 -0.3393 -0.0713  0.2878
 1695SOL     OW 6832   0.194   2.314   3.059 -0.2212 -0.3499 -0.4303
 1695SOL    HW2 6833   0.207   2.322   3.153  0.5352  0.6116 -0.6119
 1695SOL    HW3 6834   0.275   2.347   3.021 -0.5365 -0.7051 -1.4264
 1695SOL    MW4 6835   0.207   2.319   3.066 -0.1630 -0.2697 -0.5853
 1696SOL     OW 6836   4.478   2.475   3.010  0.1018 -0.1696  0.1750
 1696SOL    HW2 6837   4.502   2.560   3.048 -1.4013 -0.2443  1.3610
 1696SOL    HW3 6838   4.555   2.420   3.023  0.1821  0.2821  1.7160
 1696SOL    MW4 6839   4.491   2.479   3.017 -0.0858 -0.1199  0.5348
 1697SOL     OW 6840   0.008   2.756   3.098  0.0137  0.2953  0.2646
 1697SOL    HW2 6841   0.018   2.741   3.192 -0.5483 -0.2233  0.2407
 1697SOL    HW3 6842   0.093   2.792   3.071  0.5239 -0.5183  0.7725
 1697SOL    MW4 6843   0.020   2.759   3.107  0.0069  0.1192  0.3283
 1698SOL     OW 6844   0.265   2.849   3.032 -0.4359  0.2669 -0.2016
 1698SOL    HW2 6845   0.324   2.779   3.059 -0.3306  0.0483 -0.9833
 1698SOL    HW3 6846   0.254   2.836   2.937 -1.0119  0.8512 -0.2186
 1698SOL    MW4 6847   0.271   2.838   3.023 -0.4981  0.3152 -0.3071
 1699SOL     OW 6848   0.243   3.118   3.109  0.2480  0.2299 -0.1304
 1699SOL    HW2 6849   0.155   3.143   3.080  0.5626  0.5879 -0.7938
 1699SOL    HW3 6850   0.258   3.032   3.070  0.2199  0.1989 -0.0731
 1699SOL    MW4 6851   0.234   3.110   3.100  0.2858  0.2730 -0.2105
 1700SOL     OW 6852   4.487   3.203   3.039  0.3920  0.0705 -0.2856
 1700SOL    HW2 6853   4.419   3.144   3.070  1.3903 -1.1681 -0.3718
 1700SOL    HW3 6854   4.476   3.204   2.943 -0.1737  0.7129 -0.2125
 1700SOL    MW4 6855   4.477   3.195   3.030  0.4492 -0.0081 -0.2871
 1701SOL     OW 6856   4.455   3.465   3.109 -0.0994 -0.1744  0.4285
 1701SOL    HW2 6857   4.382   3.490   3.052  0.0693 -0.5997  0.0204
 1701SOL    HW3 6858   4.479   3.378   3.079  0.8964  0.1618  0.2478
 1701SOL    MW4 6859   4.448   3.457   3.098  0.0544 -0.1862  0.3507
 1702SOL     OW 6860   0.178   3.591   2.979  0.5985 -0.5618 -0.3129
 1702SOL    HW2 6861   0.180   3.676   3.023 -0.4946  0.6937 -2.5713
 1702SOL    HW3 6862   0.105   3.544   3.019  0.0014  0.3140 -0.3654
 1702SOL    MW4 6863   0.169   3.596   2.990  0.3755 -0.2806 -0.6177
 1703SOL     OW 6864   0.218   3.832   3.119 -0.2491 -0.3190 -0.2501
 1703SOL    HW2 6865   0.217   3.847   3.214  0.0065 -1.3652 -0.0710
 1703SOL    HW3 6866   0.297   3.876   3.089 -0.6680  0.5703 -0.0818
 1703SOL    MW4 6867   0.228   3.840   3.128 -0.2706 -0.3397 -0.2041
 1704SOL     OW 6868   0.021   3.989   3.011 -0.0700  0.6534  0.2282
 1704SOL    HW2 6869   0.099   3.944   3.044  0.2036  1.4562  0.6784
 1704SOL    HW3 6870   0.033   3.992   2.916 -0.2334 -0.4933  0.1648
 1704SOL    MW4 6871   0.033   3.983   3.003 -0.0554  0.6080  0.2797
 1705SOL     OW 6872   0.038   4.256   3.086  0.0991 -0.2527 -0.0314
 1705SOL    HW2 6873   0.032   4.242   3.180 -0.7906  0.9463  0.1112
 1705SOL    HW3 6874   0.026   4.169   3.047  4.5712 -1.4641  1.0545
 1705SOL    MW4 6875   0.036   4.243   3.093  0.5718 -0.2542  0.1307
 1706SOL     OW 6876   0.245   4.390   2.976  0.1292  0.3769  0.7143
 1706SOL    HW2 6877   0.161   4.355   3.004 -0.4853  1.0052 -0.3493
 1706SOL    HW3 6878   0.241   4.483   2.996 -0.3240  0.8462 -1.4410
 1706SOL    MW4 6879   0.234   4.398   2.983 -0.0117  0.5217  0.2897
 1707SOL     OW 6880   0.706   4.627   3.093 -0.0312 -0.4795  0.2370
 1707SOL    HW2 6881   0.705   4.537   3.059 -0.7174  0.1324 -1.4334
 1707SOL    HW3 6882   0.620   4.662   3.068  0.8025  1.1106 -0.4575
 1707SOL    MW4 6883   0.694   4.620   3.085 -0.0117 -0.1888 -0.0751
 1708SOL     OW 6884   0.487   0.112   3.000  0.3787  0.2044 -0.1193
 1708SOL    HW2 6885   0.482   0.202   3.033  0.7495 -0.0119  0.5352
 1708SOL    HW3 6886   0.405   0.072   3.028  0.6143  0.0730  0.3749
 1708SOL    MW4 6887   0.476   0.119   3.008  0.4587  0.1585  0.0322
 1709SOL     OW 6888   0.471   0.362   3.099 -0.3560  0.3927 -0.1100
 1709SOL    HW2 6889   0.465   0.376   3.193 -2.0499  1.6702 -0.3754
 1709SOL    HW3 6890   0.556   0.398   3.074  0.6737 -1.1513  1.1079
 1709SOL    MW4 6891   0.482   0.369   3.108 -0.4436  0.3575  0.0157
 1710SOL     OW 6892   0.695   0.477   2.987  0.4989  0.1839  0.0418
 1710SOL    HW2 6893   0.769   0.434   3.030  0.6830  0.4865  0.0286
 1710SOL    HW3 6894   0.693   0.565   3.025 -0.4617 -0.1422  0.7647
 1710SOL    MW4 6895   0.704   0.483   2.997  0.3965  0.1808  0.1352
 1711SOL     OW 6896   0.698   0.733   3.072 -0.0838 -0.3580  0.2523
 1711SOL    HW2 6897   0.699   0.771   3.160  0.8689  1.0936 -0.3717
 1711SOL    HW3 6898   0.618   0.766   3.033  0.5855  0.7927 -0.1784
 1711SOL    MW4 6899   0.688   0.742   3.079  0.1302 -0.0147  0.1135
 1712SOL     OW 6900   0.472   0.895   2.998 -0.3369  0.1705  0.4882
 1712SOL    HW2 6901   0.398   0.848   3.035 -0.8532  0.0499 -0.6786
 1712SOL    HW3 6902   0.452   0.902   2.904  1.0589  0.2496  0.1858
 1712SOL    MW4 6903   0.460   0.890   2.990 -0.2209  0.1650  0.2944
 1713SOL     OW 6904   0.470   1.139   3.130 -0.2432 -0.2213  0.0480
 1713SOL    HW2 6905   0.472   1.048   3.100 -0.2957  0.0463 -0.7614
 1713SOL    HW3 6906   0.394   1.177   3.086 -1.1148 -0.1852  1.5396
 1713SOL    MW4 6907   0.460   1.132   3.120 -0.3651 -0.1812  0.1383
 1714SOL     OW 6908   0.705   1.266   3.035  0.0733 -0.1091 -0.4884
 1714SOL    HW2 6909   0.784   1.223   3.068  0.6234  0.7861 -0.5944
 1714SOL    HW3 6910   0.632   1.220   3.076  0.6802 -0.5388  0.1051
 1714SOL    MW4 6911   0.706   1.254   3.044  0.2259 -0.0477 -0.4239
 1715SOL     OW 6912   0.694   1.544   3.082  0.2307  0.4487 -0.0718
 1715SOL    HW2 6913   0.675   1.559   3.175  1.9918  2.7123 -0.0413
 1715SOL    HW3 6914   0.680   1.450   3.070 -2.3396  0.5177  1.9220
 1715SOL    MW4 6915   0.690   1.534   3.093  0.1239  0.7565  0.1950
 1716SOL     OW 6916   0.455   1.676   3.004 -0.2485 -0.0497 -0.0327
 1716SOL    HW2 6917   0.531   1.622   3.021 -1.0036 -0.5056  2.0622
 1716SOL    HW3 6918   0.380   1.621   3.029 -1.0945  1.4039  0.7510
 1716SOL    MW4 6919   0.455   1.662   3.010 -0.4597  0.0819  0.3469
 1717SOL     OW 6920   0.432   1.916   3.138 -0.4406 -0.1021  0.0074
 1717SOL    HW2 6921   0.418   1.831   3.096 -0.5275  0.4968 -1.2023
 1717SOL    HW3 6922   0.353   1.966   3.117  0.2973  0.8162 -0.6736
 1717SOL    MW4 6923   0.420   1.911   3.129 -0.3547  0.0981 -0.2422
 1718SOL     OW 6924   0.665   2.001   2.970  0.0018 -0.0663  0.4700
 1718SOL    HW2 6925   0.751   1.964   2.989 -0.2532 -0.7215  0.3757
 1718SOL    HW3 6926   0.606   1.955   3.030 -0.5820 -1.0740 -0.8441
 1718SOL    MW4 6927   0.668   1.990   2.980 -0.1090 -0.2856  0.2840
 1719SOL     OW 6928   0.668   2.303   3.043 -0.3734  0.1880  0.1245
 1719SOL    HW2 6929   0.663   2.285   3.137 -0.2447 -0.5420 -0.0032
 1719SOL    HW3 6930   0.667   2.216   3.002  1.7108  0.4125 -0.4623
 1719SOL    MW4 6931   0.667   2.289   3.050 -0.0815  0.1216  0.0300
 1720SOL     OW 6932   0.433   2.423   2.966  0.5986 -0.1685  0.2237
 1720SOL    HW2 6933   0.523   2.395   2.980  0.4785 -0.2230  0.8787
 1720SOL    HW3 6934   0.428   2.439   2.871  1.6000  0.9244  0.3526
 1720SOL    MW4 6935   0.444   2.421   2.955  0.7148 -0.0317  0.3269
 1721SOL     OW 6936   0.480   2.676   3.081 -0.2186 -0.2672 -0.3961
 1721SOL    HW2 6937   0.559   2.719   3.050  0.1205 -0.3338  0.3709
 1721SOL    HW3 6938   0.479   2.591   3.037 -0.1897 -0.0178 -0.8778
 1721SOL    MW4 6939   0.490   2.670   3.072 -0.1701 -0.2432 -0.3586
 1722SOL     OW 6940   0.706   2.819   2.982  0.3011 -0.0913  0.1341
 1722SOL    HW2 6941   0.773   2.780   3.038  1.0892 -1.0942 -1.4767
 1722SOL    HW3 6942   0.693   2.907   3.017  1.5282 -0.3393  1.2393
 1722SOL    MW4 6943   0.713   2.825   2.994  0.5670 -0.2563  0.0675
 1723SOL     OW 6944   0.672   3.074   3.082  0.0567  0.7606  0.1928
 1723SOL    HW2 6945   0.666   3.057   3.176  0.3642  1.2903  0.3109
 1723SOL    HW3 6946   0.610   3.144   3.067 -0.9429 -0.2126 -0.2289
 1723SOL    MW4 6947   0.663   3.081   3.093 -0.0346  0.7019  0.1526
 1724SOL     OW 6948   0.460   3.261   3.017  0.0094  0.3388 -0.0629
 1724SOL    HW2 6949   0.446   3.355   3.027 -1.1577  0.1478  0.0702
 1724SOL    HW3 6950   0.381   3.220   3.052 -0.2958 -0.6314 -1.8124
 1724SOL    MW4 6951   0.448   3.268   3.023 -0.1849  0.1855 -0.2761
 1725SOL     OW 6952   0.426   3.544   3.092 -0.0033 -0.4476  0.2907
 1725SOL    HW2 6953   0.418   3.538   3.187  0.6148 -1.4989  0.2842
 1725SOL    HW3 6954   0.336   3.551   3.060 -0.2657 -1.0281  0.8963
 1725SOL    MW4 6955   0.413   3.544   3.100  0.0437 -0.6628  0.3698
 1726SOL     OW 6956   0.661   3.635   2.972  0.2697 -0.2760 -0.2448
 1726SOL    HW2 6957   0.720   3.570   3.010 -0.1488 -0.6407 -0.2099
 1726SOL    HW3 6958   0.576   3.615   3.012  0.2617  0.6740  0.2269
 1726SOL    MW4 6959   0.657   3.624   2.983  0.2134 -0.1991 -0.1779
 1727SOL     OW 6960   0.688   3.878   3.115 -0.0257 -0.1570  0.0445
 1727SOL    HW2 6961   0.662   3.858   3.205  1.2234  0.3655  0.5347
 1727SOL    HW3 6962   0.677   3.795   3.068 -1.8618 -0.1209  0.3875
 1727SOL    MW4 6963   0.683   3.864   3.121 -0.1031 -0.0832  0.1543
 1728SOL     OW 6964   0.449   3.976   3.048  0.0804 -0.3016 -0.0596
 1728SOL    HW2 6965   0.532   3.937   3.078  1.8167  2.7053 -0.7980
 1728SOL    HW3 6966   0.450   3.965   2.953  0.8318  1.8958 -0.3370
 1728SOL    MW4 6967   0.460   3.969   3.040  0.4087  0.3850 -0.1938
 1729SOL     OW 6968   0.445   4.245   3.111 -0.3562  0.1115 -0.2018
 1729SOL    HW2 6969   0.451   4.154   3.081  0.0859 -0.1456  0.6453
 1729SOL    HW3 6970   0.371   4.282   3.063 -0.9730 -0.9002 -0.0343
 1729SOL    MW4 6971   0.436   4.238   3.101 -0.3792 -0.0558 -0.0679
 1730SOL     OW 6972   0.698   4.349   3.002 -0.3624 -0.0544  0.2707
 1730SOL    HW2 6973   0.609   4.326   3.030 -0.0278  0.0416  1.4776
 1730SOL    HW3 6974   0.694   4.352   2.907 -2.0903  1.7099  0.3807
 1730SOL    MW4 6975   0.686   4.346   2.993 -0.5462  0.1912  0.4444
 1731SOL     OW 6976   1.135   4.624   3.075  0.0242  0.7070  0.2182
 1731SOL    HW2 6977   1.208   4.669   3.033 -0.2647 -0.5938 -1.7440
 1731SOL    HW3 6978   1.058   4.678   3.054  0.0933  0.8351  0.2973
 1731SOL    MW4 6979   1.134   4.637   3.066 -0.0049  0.5517 -0.0303
 1732SOL     OW 6980   0.914   0.106   2.978  0.3387 -0.1663  0.1108
 1732SOL    HW2 6981   0.903   0.194   3.013  0.4020 -0.2264  0.2828
 1732SOL    HW3 6982   0.834   0.060   3.004  0.3114 -0.1625  0.0324
 1732SOL    MW4 6983   0.902   0.112   2.986  0.3435 -0.1738  0.1233
 1733SOL     OW 6984   0.906   0.337   3.107 -0.0709  0.2150  0.0007
 1733SOL    HW2 6985   0.897   0.329   3.202  0.8854 -0.3872  0.0535
 1733SOL    HW3 6986   0.981   0.396   3.095  0.1524 -0.1423 -0.3716
 1733SOL    MW4 6987   0.915   0.343   3.118  0.0847  0.0884 -0.0415
 1734SOL     OW 6988   1.131   0.492   3.021  0.3150 -0.0026 -0.6423
 1734SOL    HW2 6989   1.213   0.444   3.029  1.2078  1.3548 -1.5713
 1734SOL    HW3 6990   1.116   0.498   2.926 -0.3613  0.5864 -0.5039
 1734SOL    MW4 6991   1.140   0.486   3.009  0.3436  0.2542 -0.7463
 1735SOL     OW 6992   1.110   0.765   3.112  0.3923  0.3496 -0.3074
 1735SOL    HW2 6993   1.110   0.780   3.206  2.1101  0.3055 -0.2772
 1735SOL    HW3 6994   1.141   0.675   3.101 -1.4567 -0.2493 -0.8588
 1735SOL    MW4 6995   1.114   0.755   3.123  0.3748  0.2648 -0.3760
 1736SOL     OW 6996   0.903   0.873   2.959  0.3312 -0.0863 -0.0377
 1736SOL    HW2 6997   0.982   0.829   2.991  0.9777  1.5942  0.7311
 1736SOL    HW3 6998   0.831   0.820   2.991  1.1223 -1.3030 -0.2297
 1736SOL    MW4 6999   0.904   0.861   2.967  0.5209 -0.0252  0.0384
 1737SOL     OW 7000   0.914   1.113   3.106  0.1272  0.2127  0.1956
 1737SOL    HW2 7001   0.993   1.147   3.064 -1.1436  1.3430 -1.3385
 1737SOL    HW3 7002   0.888   1.038   3.053 -0.5232  0.5926 -0.0242
 1737SOL    MW4 7003   0.921   1.108   3.094 -0.1262  0.4119 -0.0358
 1738SOL     OW 7004   1.122   1.251   2.979  0.0198 -0.0728  0.3691
 1738SOL    HW2 7005   1.201   1.214   3.017 -0.0327 -0.1889  0.3650
 1738SOL    HW3 7006   1.136   1.244   2.884  0.6633  1.2840  0.3381
 1738SOL    MW4 7007   1.134   1.245   2.971  0.0978  0.0908  0.3641
 1739SOL     OW 7008   1.177   1.503   3.093  0.1193 -0.0923  0.1093
 1739SOL    HW2 7009   1.254   1.542   3.051  0.2348  0.1660  0.5484
 1739SOL    HW3 7010   1.163   1.421   3.047  1.0792 -0.4677  0.4705
 1739SOL    MW4 7011   1.185   1.497   3.082  0.2611 -0.1075  0.2151
 1740SOL     OW 7012   0.945   1.649   2.997  0.4219 -0.2546 -0.3455
 1740SOL    HW2 7013   1.017   1.597   3.033  0.5076 -0.0477 -0.2114
 1740SOL    HW3 7014   0.866   1.603   3.024  0.4948 -0.2608 -0.1390
 1740SOL    MW4 7015   0.944   1.636   3.006  0.4428 -0.2282 -0.3006
 1741SOL     OW 7016   0.891   1.889   3.090  0.4154 -0.0668 -0.3588
 1741SOL    HW2 7017   0.907   1.890   3.184  0.1210  1.3172 -0.3140
 1741SOL    HW3 7018   0.915   1.800   3.062  1.1804 -0.2590  0.8980
 1741SOL    MW4 7019   0.896   1.877   3.099  0.4774  0.0905 -0.1872
 1742SOL     OW 7020   1.117   2.026   2.990  0.0085  0.2132 -0.1828
 1742SOL    HW2 7021   1.032   1.999   3.022 -0.2489  1.2838  0.0549
 1742SOL    HW3 7022   1.111   2.018   2.895 -0.5335  0.7753 -0.1968
 1742SOL    MW4 7023   1.105   2.022   2.981 -0.0969  0.4287 -0.1531
 1743SOL     OW 7024   1.115   2.308   3.066  0.2184  0.3217  0.4512
 1743SOL    HW2 7025   1.044   2.361   3.028 -0.4775 -0.3716  0.7658
 1743SOL    HW3 7026   1.112   2.226   3.016 -0.2517 -0.3293  1.5463
 1743SOL    MW4 7027   1.105   2.304   3.054  0.0645  0.1442  0.6371
 1744SOL     OW 7028   0.892   2.475   2.992 -0.2247 -0.0618 -0.5772
 1744SOL    HW2 7029   0.817   2.419   3.013  0.9728 -2.0044 -1.3402
 1744SOL    HW3 7030   0.892   2.480   2.896 -0.0932  0.9526 -0.5290
 1744SOL    MW4 7031   0.882   2.468   2.982 -0.0494 -0.1841 -0.6714
 1745SOL     OW 7032   0.893   2.721   3.144  0.4567  0.1375 -0.6909
 1745SOL    HW2 7033   0.887   2.712   3.239 -1.2358  0.8596 -0.7062
 1745SOL    HW3 7034   0.908   2.632   3.112 -2.3657 -0.6622  0.0515
 1745SOL    MW4 7035   0.894   2.708   3.152 -0.1390  0.1271 -0.5953
 1746SOL     OW 7036   1.120   2.824   3.006  0.1172 -0.5022 -0.2734
 1746SOL    HW2 7037   1.124   2.918   3.025  0.0889 -0.0948 -2.1652
 1746SOL    HW3 7038   1.050   2.791   3.062  2.8564 -0.1877  3.4823
 1746SOL    MW4 7039   1.111   2.832   3.016  0.4749 -0.4070 -0.0272
 1747SOL     OW 7040   1.134   3.075   3.096 -0.3714 -0.1826  0.8454
 1747SOL    HW2 7041   1.207   3.135   3.085 -1.1209  0.8744  1.4742
 1747SOL    HW3 7042   1.058   3.122   3.060 -0.6870 -1.4043 -0.1396
 1747SOL    MW4 7043   1.133   3.089   3.090 -0.5120 -0.2043  0.7985
 1748SOL     OW 7044   0.905   3.211   3.004 -0.4292  0.2819  0.0269
 1748SOL    HW2 7045   0.824   3.163   3.020 -0.1351 -0.0444  0.5511
 1748SOL    HW3 7046   0.901   3.235   2.911 -2.3648  2.5826  0.6579
 1748SOL    MW4 7047   0.894   3.208   2.994 -0.6458  0.5426  0.1795
 1749SOL     OW 7048   0.855   3.475   3.092 -0.0407 -0.0430 -0.5271
 1749SOL    HW2 7049   0.937   3.524   3.087 -0.7193  1.3719  1.4015
 1749SOL    HW3 7050   0.875   3.390   3.054  2.6974 -0.1700  1.0984
 1749SOL    MW4 7051   0.868   3.470   3.086  0.2311  0.1268 -0.0582
 1750SOL     OW 7052   1.076   3.615   3.044 -0.4525 -0.0707  0.3586
 1750SOL    HW2 7053   1.159   3.567   3.056 -0.7985 -0.3172  1.8051
 1750SOL    HW3 7054   1.094   3.703   3.077 -0.7927 -0.1529  0.7689
 1750SOL    MW4 7055   1.090   3.620   3.050 -0.5429 -0.1137  0.6037
 1751SOL     OW 7056   1.142   3.869   3.129 -0.0586 -0.1407 -0.0256
 1751SOL    HW2 7057   1.136   3.858   3.224  0.1816  0.6021  0.0779
 1751SOL    HW3 7058   1.061   3.912   3.105 -0.2078 -0.5088 -0.1890
 1751SOL    MW4 7059   1.131   3.873   3.138 -0.0466 -0.0911 -0.0336
 1752SOL     OW 7060   0.916   3.984   3.001 -0.1912  0.0230 -0.0185
 1752SOL    HW2 7061   0.839   3.941   3.038 -0.0725 -0.1670  0.0099
 1752SOL    HW3 7062   0.906   3.976   2.906 -1.0103  1.4080 -0.0698
 1752SOL    MW4 7063   0.904   3.978   2.993 -0.2835  0.1807 -0.0217
 1753SOL     OW 7064   0.930   4.224   3.115 -0.0941 -0.0611 -0.0286
 1753SOL    HW2 7065   0.930   4.133   3.086  0.8110 -0.1193  0.1375
 1753SOL    HW3 7066   0.854   4.263   3.072 -0.2191 -0.7772 -0.4644
 1753SOL    MW4 7067   0.920   4.217   3.105  0.0089 -0.1631 -0.0639
 1754SOL     OW 7068   1.069   4.403   2.950  0.3043  0.1699 -0.0522
 1754SOL    HW2 7069   1.007   4.350   3.000 -0.1214 -0.5764 -1.3718
 1754SOL    HW3 7070   1.085   4.480   3.006 -0.7270 -0.2976  0.9015
 1754SOL    MW4 7071   1.063   4.407   2.964  0.1119  0.0095 -0.1006
 1755SOL     OW 7072   1.567   0.007   3.052  0.2744  0.0068  0.2054
 1755SOL    HW2 7073   1.556   0.012   3.147  0.2939  3.3499  0.0855
 1755SOL    HW3 7074   1.490   0.052   3.016  1.1617  0.3575 -1.3126
 1755SOL    MW4 7075   1.555   0.014   3.060  0.3941  0.4940 -0.0105
 1756SOL     OW 7076   1.336   0.108   2.943  0.6778 -0.1476 -0.2651
 1756SOL    HW2 7077   1.329   0.201   2.968 -2.3706 -0.4534  0.2222
 1756SOL    HW3 7078   1.341   0.110   2.847 -3.2047  0.4462 -0.5423
 1756SOL    MW4 7079   1.336   0.121   2.934 -0.2365 -0.1096 -0.2372
 1757SOL     OW 7080   1.380   0.362   3.057 -0.2923 -0.1095 -0.0356
 1757SOL    HW2 7081   1.378   0.350   3.152  0.0598  1.2891  0.1616
 1757SOL    HW3 7082   1.462   0.410   3.041 -1.6140  2.0000 -0.7481
 1757SOL    MW4 7083   1.391   0.367   3.067 -0.4202  0.3533 -0.1037
 1758SOL     OW 7084   1.604   0.488   2.973  0.1310 -0.4475  0.7222
 1758SOL    HW2 7085   1.585   0.581   2.987  0.4781 -0.3278  0.4426
 1758SOL    HW3 7086   1.582   0.473   2.881  1.2493 -0.3263  0.4176
 1758SOL    MW4 7087   1.599   0.498   2.963  0.3245 -0.4157  0.6452
 1759SOL     OW 7088   1.562   0.747   3.069  0.1246 -0.2580 -0.0593
 1759SOL    HW2 7089   1.559   0.741   3.165 -0.9818  1.3451  0.0318
 1759SOL    HW3 7090   1.480   0.789   3.045  0.2164 -1.0247 -1.7632
 1759SOL    MW4 7091   1.551   0.752   3.079 -0.0093 -0.1476 -0.2720
 1760SOL     OW 7092   1.340   0.901   2.981  0.4590 -0.1163 -0.1221
 1760SOL    HW2 7093   1.356   0.992   3.006 -0.5987 -0.0156  0.1829
 1760SOL    HW3 7094   1.260   0.876   3.027 -0.1561 -0.6950 -1.4716
 1760SOL    MW4 7095   1.332   0.910   2.990  0.2383 -0.1794 -0.2599
 1761SOL     OW 7096   1.371   1.157   3.099 -0.0292  0.3591  0.3087
 1761SOL    HW2 7097   1.399   1.144   3.189  0.5239 -1.0387 -0.0545
 1761SOL    HW3 7098   1.442   1.208   3.059  0.6306 -0.6712  0.1590
 1761SOL    MW4 7099   1.384   1.162   3.105  0.1309  0.0387  0.2410
 1762SOL     OW 7100   1.570   1.301   2.971 -0.4694 -0.1093  0.2474
 1762SOL    HW2 7101   1.636   1.245   3.011 -0.6600 -1.1756 -0.9134
 1762SOL    HW3 7102   1.564   1.377   3.030  1.3086 -0.3092  0.6985
 1762SOL    MW4 7103   1.578   1.304   2.984 -0.2600 -0.2763  0.1533
 1763SOL     OW 7104   1.588   1.549   3.095 -0.2324  0.2217  0.2520
 1763SOL    HW2 7105   1.664   1.598   3.062  0.2680 -0.3065  0.6079
 1763SOL    HW3 7106   1.512   1.598   3.062  0.2403  1.9225  1.6177
 1763SOL    MW4 7107   1.588   1.562   3.086 -0.1038  0.3763  0.4795
 1764SOL     OW 7108   1.380   1.673   2.992  0.0069 -0.2269 -0.2451
 1764SOL    HW2 7109   1.353   1.748   3.045 -0.3957  0.6777 -1.7133
 1764SOL    HW3 7110   1.371   1.702   2.902  0.9653 -1.6590 -0.8271
 1764SOL    MW4 7111   1.375   1.687   2.987  0.0802 -0.2965 -0.5159
 1765SOL     OW 7112   1.350   1.952   3.117  0.2493  0.3218 -0.1207
 1765SOL    HW2 7113   1.336   1.964   3.210 -0.5937 -1.0884 -0.0498
 1765SOL    HW3 7114   1.266   1.972   3.077  0.3403 -0.0005 -0.4817
 1765SOL    MW4 7115   1.337   1.956   3.124  0.1500  0.0932 -0.1590
 1766SOL     OW 7116   1.590   2.058   3.013  0.2434 -0.1608  0.1754
 1766SOL    HW2 7117   1.502   2.028   3.037  0.6464 -0.8132  0.8654
 1766SOL    HW3 7118   1.583   2.082   2.921 -1.0162  1.1223  0.5758
 1766SOL    MW4 7119   1.578   2.057   3.004  0.1303 -0.0775  0.3195
 1767SOL     OW 7120   1.597   2.342   3.116 -0.1767  0.1406 -0.3497
 1767SOL    HW2 7121   1.518   2.388   3.088 -0.0868  0.2369 -0.4450
 1767SOL    HW3 7122   1.579   2.250   3.098 -0.0733  0.2143 -0.8301
 1767SOL    MW4 7123   1.584   2.336   3.110 -0.1512  0.1628 -0.4258
 1768SOL     OW 7124   1.343   2.462   3.016 -0.6807 -0.6769 -0.1741
 1768SOL    HW2 7125   1.273   2.399   3.032 -0.3112 -1.5802 -2.0075
 1768SOL    HW3 7126   1.365   2.451   2.924  1.0114  0.4931  0.0657
 1768SOL    MW4 7127   1.337   2.452   3.006 -0.4086 -0.6418 -0.3843
 1769SOL     OW 7128   1.348   2.714   3.103 -0.2643  0.1709 -0.0250
 1769SOL    HW2 7129   1.339   2.621   3.086  0.3603  0.1900 -0.4479
 1769SOL    HW3 7130   1.265   2.752   3.074 -0.1518 -0.1220 -0.7396
 1769SOL    MW4 7131   1.336   2.707   3.097 -0.1671  0.1347 -0.1752
 1770SOL     OW 7132   1.571   2.818   2.933 -0.0336  0.4547  0.4182
 1770SOL    HW2 7133   1.649   2.774   2.969 -0.6572 -1.7367 -0.8117
 1770SOL    HW3 7134   1.497   2.767   2.966 -0.9950  2.5358  1.5867
 1770SOL    MW4 7135   1.572   2.805   2.942 -0.2427  0.4401  0.4098
 1771SOL     OW 7136   1.560   3.071   3.073 -0.3292 -0.1792 -0.0845
 1771SOL    HW2 7137   1.569   3.049   3.166 -0.9204 -0.4052 -0.0750
 1771SOL    HW3 7138   1.543   2.987   3.030  1.8002 -0.3420 -0.6552
 1771SOL    MW4 7139   1.559   3.057   3.079 -0.1261 -0.2306 -0.1583
 1772SOL     OW 7140   1.355   3.226   3.008  0.4218 -0.5404  0.2641
 1772SOL    HW2 7141   1.420   3.165   3.042  0.6935 -0.4171 -0.0324
 1772SOL    HW3 7142   1.357   3.212   2.913 -0.4305 -0.9882  0.3012
 1772SOL    MW4 7143   1.364   3.216   3.000  0.3452 -0.5832  0.2296
 1773SOL     OW 7144   1.325   3.492   3.079 -0.3039  0.4111 -0.3681
 1773SOL    HW2 7145   1.333   3.488   3.175 -0.9161  1.4107 -0.2752
 1773SOL    HW3 7146   1.337   3.401   3.051  0.9340  0.2587  0.5730
 1773SOL    MW4 7147   1.328   3.479   3.088 -0.2214  0.5229 -0.2317
 1774SOL     OW 7148   1.557   3.611   2.977  0.0439  0.4162  0.3407
 1774SOL    HW2 7149   1.473   3.580   3.009 -0.2485  0.0689 -0.7301
 1774SOL    HW3 7150   1.558   3.587   2.884  1.2026  0.6670  0.2730
 1774SOL    MW4 7151   1.546   3.604   2.969  0.1582  0.4036  0.1907
 1775SOL     OW 7152   1.556   3.894   3.060  0.5794 -0.0298  0.0184
 1775SOL    HW2 7153   1.637   3.935   3.031  0.1127 -0.0297 -1.2893
 1775SOL    HW3 7154   1.559   3.805   3.024  0.3149 -0.2587  0.5425
 1775SOL    MW4 7155   1.567   3.887   3.052  0.4828 -0.0598 -0.0849
 1776SOL     OW 7156   1.312   4.026   2.993  0.1660 -0.2272 -0.1313
 1776SOL    HW2 7157   1.403   4.005   3.014  0.4395  1.0942  0.0746
 1776SOL    HW3 7158   1.260   3.964   3.044  0.9461 -0.9262 -0.1794
 1776SOL    MW4 7159   1.317   4.015   3.003  0.3052 -0.1450 -0.1104
 1777SOL     OW 7160   1.307   4.285   3.059 -0.5724  0.1641  0.2992
 1777SOL    HW2 7161   1.303   4.191   3.044  0.6522  0.1870 -0.1998
 1777SOL    HW3 7162   1.226   4.319   3.021 -0.3036 -0.5014 -0.8871
 1777SOL    MW4 7163   1.296   4.277   3.052 -0.3754  0.0792  0.0768
 1778SOL     OW 7164   1.542   4.407   2.975  0.3558 -0.2117 -0.1740
 1778SOL    HW2 7165   1.462   4.371   3.015  0.0429  0.7651  0.0817
 1778SOL    HW3 7166   1.548   4.496   3.010  1.6213 -0.3194 -0.1130
 1778SOL    MW4 7167   1.532   4.414   2.985  0.4815 -0.0973 -0.1323
 1779SOL     OW 7168   2.034   4.658   3.029  0.0292  0.4648 -0.3853
 1779SOL    HW2 7169   2.041   4.654   3.125 -0.0248  0.7406 -0.3696
 1779SOL    HW3 7170   1.949   4.699   3.013 -0.5987 -0.8912 -0.5611
 1779SOL    MW4 7171   2.024   4.663   3.040 -0.0608  0.3223 -0.4063
 1780SOL     OW 7172   1.803   0.095   2.958 -0.2571 -0.0978  0.1211
 1780SOL    HW2 7173   1.718   0.056   2.977  1.3838 -2.7694  2.4043
 1780SOL    HW3 7174   1.819   0.072   2.866 -0.3012 -3.0546  0.7993
 1780SOL    MW4 7175   1.794   0.087   2.948 -0.0465 -0.8404  0.5119
 1781SOL     OW 7176   1.801   0.337   3.103 -0.1948  0.6127  0.5374
 1781SOL    HW2 7177   1.783   0.247   3.076 -0.3644  0.6295  0.5930
 1781SOL    HW3 7178   1.725   0.387   3.074 -0.5702  0.5560  1.4198
 1781SOL    MW4 7179   1.789   0.332   3.096 -0.2668  0.6074  0.6609
 1782SOL     OW 7180   2.029   0.450   2.992  0.2747 -0.2829 -0.1718
 1782SOL    HW2 7181   1.943   0.430   3.030  0.5910 -1.1170  0.1016
 1782SOL    HW3 7182   2.011   0.464   2.899 -0.1632 -0.4071 -0.1091
 1782SOL    MW4 7183   2.015   0.450   2.985  0.2587 -0.4093 -0.1273
 1783SOL     OW 7184   2.029   0.748   3.103  0.0218  0.1578  0.6073
 1783SOL    HW2 7185   1.965   0.795   3.049  0.9516  0.1267 -0.5568
 1783SOL    HW3 7186   2.029   0.659   3.067 -0.7647 -0.3980  1.9409
 1783SOL    MW4 7187   2.020   0.742   3.091  0.0403  0.0804  0.6294
 1784SOL     OW 7188   1.785   0.896   3.002 -0.4375 -0.0111  0.0984
 1784SOL    HW2 7189   1.702   0.852   3.022  0.7046 -1.1400  2.5594
 1784SOL    HW3 7190   1.794   0.887   2.907 -2.3921 -1.1973 -0.0141
 1784SOL    MW4 7191   1.775   0.889   2.992 -0.5447 -0.3166  0.4082
 1785SOL     OW 7192   1.807   1.150   3.112 -0.2239  0.2425 -0.0427
 1785SOL    HW2 7193   1.798   1.129   3.205  1.4070 -0.1610  0.0315
 1785SOL    HW3 7194   1.798   1.066   3.068 -0.1383  0.3110 -0.1901
 1785SOL    MW4 7195   1.805   1.137   3.119  0.0027  0.1984 -0.0527
 1786SOL     OW 7196   2.040   1.256   2.998 -0.2721 -0.0764  0.1411
 1786SOL    HW2 7197   2.115   1.200   3.019 -0.5723 -0.4801  0.1546
 1786SOL    HW3 7198   1.967   1.216   3.046 -0.1329  1.3720  1.5994
 1786SOL    MW4 7199   2.040   1.243   3.007 -0.2933  0.0615  0.3355
 1787SOL     OW 7200   2.013   1.515   3.093 -0.1026 -0.1130  0.0490
 1787SOL    HW2 7201   2.004   1.530   3.187 -2.2346  0.8000 -0.2838
 1787SOL    HW3 7202   2.010   1.419   3.084 -2.1100 -0.1473  0.7339
 1787SOL    MW4 7203   2.011   1.504   3.104 -0.6490  0.0029  0.0956
 1788SOL     OW 7204   1.799   1.681   2.982  0.2052  0.6390 -0.3277
 1788SOL    HW2 7205   1.803   1.763   3.030 -0.5486  0.5237 -0.0722
 1788SOL    HW3 7206   1.872   1.629   3.018 -0.0980  0.7120  0.3916
 1788SOL    MW4 7207   1.809   1.685   2.993  0.0658  0.6334 -0.1991
 1789SOL     OW 7208   1.803   1.926   3.131 -0.3382  0.3120  0.0048
 1789SOL    HW2 7209   1.873   1.968   3.082 -0.9483  0.7581 -0.5000
 1789SOL    HW3 7210   1.723   1.967   3.097 -0.8030  0.1796  0.9369
 1789SOL    MW4 7211   1.801   1.937   3.120 -0.4799  0.3533  0.0613
 1790SOL     OW 7212   2.030   2.020   2.993 -0.0544  0.0756 -0.8594
 1790SOL    HW2 7213   2.100   1.982   3.045  0.2566 -0.0479 -1.3772
 1790SOL    HW3 7214   2.026   2.112   3.022  1.5901  0.5891 -2.1886
 1790SOL    MW4 7215   2.038   2.027   3.004  0.2034  0.1271 -1.1034
 1791SOL     OW 7216   2.028   2.291   3.063 -0.0546  0.1908  0.1893
 1791SOL    HW2 7217   2.108   2.341   3.048  0.5023  0.1479  2.7976
 1791SOL    HW3 7218   1.958   2.349   3.031  0.8442  1.2034  0.0186
 1791SOL    MW4 7219   2.029   2.306   3.057  0.1373  0.3185  0.5107
 1792SOL     OW 7220   1.831   2.456   2.970 -0.1919 -0.1064  0.1608
 1792SOL    HW2 7221   1.828   2.548   2.997  0.2694  0.0684 -0.3883
 1792SOL    HW3 7222   1.766   2.413   3.026 -0.7810  0.6478  0.0606
 1792SOL    MW4 7223   1.822   2.462   2.981 -0.2086  0.0162  0.0751
 1793SOL     OW 7224   1.808   2.730   3.049 -0.0866  0.4020  0.3170
 1793SOL    HW2 7225   1.813   2.717   3.144  0.8014  1.0599  0.3634
 1793SOL    HW3 7226   1.885   2.784   3.028 -0.0463 -0.0883 -0.8302
 1793SOL    MW4 7227   1.819   2.735   3.059  0.0358  0.4244  0.1719
 1794SOL     OW 7228   2.048   2.886   2.996 -0.1705 -0.0918  0.2537
 1794SOL    HW2 7229   2.013   2.973   3.015  0.0180 -0.0021  0.1958
 1794SOL    HW3 7230   2.052   2.882   2.900  1.2778  0.4281  0.2738
 1794SOL    MW4 7231   2.044   2.897   2.986  0.0453 -0.0114  0.2487
 1795SOL     OW 7232   2.016   3.160   3.072 -0.1034  0.0002  0.1535
 1795SOL    HW2 7233   2.015   3.151   3.167 -1.2622 -0.6989  0.0805
 1795SOL    HW3 7234   1.928   3.190   3.049 -0.4029 -1.5588 -0.8477
 1795SOL    MW4 7235   2.004   3.163   3.082 -0.2959 -0.2978  0.0119
 1796SOL     OW 7236   1.770   3.225   2.979 -0.2298  0.0680 -0.0711
 1796SOL    HW2 7237   1.690   3.176   3.000 -0.9820  1.2145 -0.2308
 1796SOL    HW3 7238   1.773   3.224   2.883 -0.2160  0.3023 -0.0714
 1796SOL    MW4 7239   1.760   3.218   2.969 -0.3271  0.2499 -0.0920
 1797SOL     OW 7240   1.738   3.453   3.111  0.1776  0.3026 -0.0931
 1797SOL    HW2 7241   1.738   3.370   3.064 -0.0617  0.0685  0.3229
 1797SOL    HW3 7242   1.661   3.499   3.077 -1.2529 -0.7589  1.6401
 1797SOL    MW4 7243   1.728   3.448   3.100 -0.0427  0.1318  0.1903
 1798SOL     OW 7244   1.988   3.562   3.019 -0.0329 -0.1054 -0.4377
 1798SOL    HW2 7245   2.002   3.646   3.062  1.2161 -0.3943 -0.2653
 1798SOL    HW3 7246   1.896   3.540   3.038  0.2515  0.1894  1.3604
 1798SOL    MW4 7247   1.977   3.570   3.028  0.1693 -0.1047 -0.1776
 1799SOL     OW 7248   1.997   3.819   3.115 -0.5201 -0.1863  0.2389
 1799SOL    HW2 7249   2.001   3.838   3.209  0.8384 -1.3616  0.4444
 1799SOL    HW3 7250   1.925   3.872   3.082 -0.5338  0.7887  1.8207
 1799SOL    MW4 7251   1.988   3.828   3.123 -0.3426 -0.2127  0.4749
 1800SOL     OW 7252   1.817   3.980   2.996  0.6002 -0.7542  0.2091
 1800SOL    HW2 7253   1.806   4.072   3.018  0.2769 -0.7990  0.2386
 1800SOL    HW3 7254   1.827   3.980   2.900  0.5752 -0.6922  0.2063
 1800SOL    MW4 7255   1.817   3.992   2.986  0.5544 -0.7520  0.2127
 1801SOL     OW 7256   1.745   4.231   3.089 -0.0372 -0.3313  0.3145
 1801SOL    HW2 7257   1.827   4.274   3.067  0.0885 -1.5950 -1.9136
 1801SOL    HW3 7258   1.678   4.289   3.052  0.0666 -1.2515 -1.3834
 1801SOL    MW4 7259   1.747   4.244   3.081 -0.0068 -0.6194 -0.2036
 1802SOL     OW 7260   1.995   4.376   3.023 -0.0185  0.1651  0.4040
 1802SOL    HW2 7261   2.012   4.469   3.039  0.6980  0.0949  0.0719
 1802SOL    HW3 7262   2.001   4.367   2.928  0.4247 -0.3161  0.4766
 1802SOL    MW4 7263   1.998   4.387   3.013  0.1345  0.0920  0.3695
 1803SOL     OW 7264   2.515   4.599   3.040  0.3522 -0.0568  0.0471
 1803SOL    HW2 7265   2.501   4.505   3.028  0.8651 -0.1133 -0.1249
 1803SOL    HW3 7266   2.437   4.640   3.001 -0.2301 -0.4359  0.8063
 1803SOL    MW4 7267   2.503   4.592   3.033  0.3428 -0.1144  0.1245
 1804SOL     OW 7268   2.290   0.068   2.962  0.3527 -0.1619  0.4636
 1804SOL    HW2 7269   2.290   0.139   3.025 -1.6263  0.3144 -0.0458
 1804SOL    HW3 7270   2.208   0.021   2.978  0.3358 -0.6715 -1.0441
 1804SOL    MW4 7271   2.279   0.071   2.972  0.0896 -0.1663  0.1974
 1805SOL     OW 7272   2.252   0.291   3.132 -0.4175  0.2430 -0.2420
 1805SOL    HW2 7273   2.221   0.298   3.222  0.5765 -0.0003  0.1235
 1805SOL    HW3 7274   2.177   0.317   3.078 -1.3235 -0.5457  0.6239
 1805SOL    MW4 7275   2.238   0.295   3.137 -0.4058  0.1068 -0.0794
 1806SOL     OW 7276   2.463   0.471   3.051  0.0000  0.3332 -0.1782
 1806SOL    HW2 7277   2.387   0.429   3.091  0.1048  0.1098 -0.2106
 1806SOL    HW3 7278   2.444   0.470   2.957  0.3228 -0.2852 -0.2371
 1806SOL    MW4 7279   2.450   0.465   3.044  0.0565  0.2222 -0.1900
 1807SOL     OW 7280   2.479   0.752   3.153  0.0748 -0.1263  0.6894
 1807SOL    HW2 7281   2.551   0.797   3.107 -0.8040  0.2147 -0.3638
 1807SOL    HW3 7282   2.480   0.663   3.118  0.6478 -0.4303  1.4512
 1807SOL    MW4 7283   2.489   0.746   3.142  0.0346 -0.1215  0.6511
 1808SOL     OW 7284   2.277   0.832   2.990 -0.4694  0.0858  0.1116
 1808SOL    HW2 7285   2.363   0.814   3.029  0.1501  0.2193 -1.1659
 1808SOL    HW3 7286   2.216   0.781   3.043  0.3586  0.2086  1.2129
 1808SOL    MW4 7287   2.280   0.823   3.002 -0.2782  0.1196  0.0882
 1809SOL     OW 7288   2.272   1.115   3.095  0.5355  0.9029  0.1456
 1809SOL    HW2 7289   2.225   1.110   3.178  0.1306  1.1431 -0.0671
 1809SOL    HW3 7290   2.262   1.028   3.057 -1.1912  1.4298 -0.6790
 1809SOL    MW4 7291   2.264   1.103   3.101  0.2542  1.0041  0.0086
 1810SOL     OW 7292   2.494   1.241   3.021 -0.2144 -0.5155  0.0206
 1810SOL    HW2 7293   2.409   1.203   3.045 -0.0377 -0.9527 -0.0277
 1810SOL    HW3 7294   2.486   1.262   2.928 -0.9388  1.2903  0.4871
 1810SOL    MW4 7295   2.482   1.239   3.012 -0.2863 -0.3349  0.0758
 1811SOL     OW 7296   2.472   1.492   3.113  0.0320  0.0353 -0.1937
 1811SOL    HW2 7297   2.394   1.525   3.068 -0.4984 -0.8348  0.0883
 1811SOL    HW3 7298   2.486   1.405   3.076  0.0573 -0.3697  0.7655
 1811SOL    MW4 7299   2.463   1.485   3.102 -0.0348 -0.1328 -0.0300
 1812SOL     OW 7300   2.254   1.621   3.000 -0.3725 -0.4147 -0.4537
 1812SOL    HW2 7301   2.169   1.591   3.033 -0.1811 -0.2418  0.2012
 1812SOL    HW3 7302   2.245   1.616   2.904 -1.0571 -0.5632 -0.3883
 1812SOL    MW4 7303   2.241   1.616   2.991 -0.4375 -0.4115 -0.3588
 1813SOL     OW 7304   2.244   1.885   3.099  0.3173 -0.2005 -0.2749
 1813SOL    HW2 7305   2.313   1.936   3.057 -0.0836  0.9169  0.4152
 1813SOL    HW3 7306   2.229   1.812   3.039 -0.4725  1.5402 -2.2969
 1813SOL    MW4 7307   2.251   1.882   3.085  0.1602  0.1765 -0.4506
 1814SOL     OW 7308   2.451   2.034   2.990 -0.0224 -0.2197 -0.3734
 1814SOL    HW2 7309   2.524   1.985   3.029 -1.1987 -1.0807  0.7744
 1814SOL    HW3 7310   2.465   2.026   2.895  0.9685 -1.0074 -0.1721
 1814SOL    MW4 7311   2.462   2.026   2.982 -0.0467 -0.4373 -0.1955
 1815SOL     OW 7312   2.484   2.310   3.047 -0.6280 -0.0436 -0.2984
 1815SOL    HW2 7313   2.486   2.311   3.142 -2.0029  0.9452 -0.2688
 1815SOL    HW3 7314   2.470   2.218   3.025 -0.7586 -0.2097  0.4635
 1815SOL    MW4 7315   2.482   2.298   3.056 -0.8266  0.0648 -0.1941
 1816SOL     OW 7316   2.247   2.436   2.998  0.4660 -0.4892  0.3092
 1816SOL    HW2 7317   2.248   2.520   3.044  1.1521 -0.0479 -0.4989
 1816SOL    HW3 7318   2.334   2.400   3.013  1.1587  0.2426 -1.6695
 1816SOL    MW4 7319   2.258   2.442   3.006  0.6480 -0.3347 -0.0582
 1817SOL     OW 7320   2.245   2.706   3.090 -0.5518  0.4741 -0.0217
 1817SOL    HW2 7321   2.323   2.758   3.073  0.0173  0.3040  1.9805
 1817SOL    HW3 7322   2.173   2.761   3.058  0.2176  1.5098 -0.0114
 1817SOL    MW4 7323   2.245   2.720   3.084 -0.3750  0.5884  0.2439
 1818SOL     OW 7324   2.488   2.806   3.020  0.1088 -0.5702 -0.0140
 1818SOL    HW2 7325   2.481   2.889   3.068  1.5590 -0.0049 -0.7434
 1818SOL    HW3 7326   2.478   2.830   2.928  1.2008 -1.1039 -0.2821
 1818SOL    MW4 7327   2.486   2.820   3.014  0.4442 -0.5660 -0.1454
 1819SOL     OW 7328   2.458   3.047   3.141 -0.2772 -0.1337 -0.1836
 1819SOL    HW2 7329   2.540   3.077   3.102  1.1621 -1.4680  1.7624
 1819SOL    HW3 7330   2.393   3.109   3.107  1.6787  1.6342 -0.8904
 1819SOL    MW4 7331   2.460   3.059   3.131  0.1707 -0.0768 -0.0200
 1820SOL     OW 7332   2.268   3.235   3.013 -0.2194  0.0727 -0.3734
 1820SOL    HW2 7333   2.279   3.319   3.056  0.5142  1.6806 -3.5422
 1820SOL    HW3 7334   2.177   3.210   3.031 -0.5181  1.6685  0.3618
 1820SOL    MW4 7335   2.258   3.243   3.021 -0.1621  0.4957 -0.6948
 1821SOL     OW 7336   2.218   3.493   3.154 -0.1115  0.3742  0.1761
 1821SOL    HW2 7337   2.286   3.517   3.091 -0.7885  3.3016  0.4751
 1821SOL    HW3 7338   2.136   3.498   3.104 -0.4748  0.8698  0.8131
 1821SOL    MW4 7339   2.216   3.497   3.139 -0.2489  0.8259  0.2995
 1822SOL     OW 7340   2.450   3.558   2.988 -0.1425 -0.5984 -0.3496
 1822SOL    HW2 7341   2.534   3.512   2.988 -0.0043 -0.3447  0.5325
 1822SOL    HW3 7342   2.468   3.642   3.031 -0.8349 -0.5197 -0.2046
 1822SOL    MW4 7343   2.463   3.563   2.994 -0.2160 -0.5548 -0.2141
 1823SOL     OW 7344   2.450   3.819   3.092 -0.1703 -0.5034 -0.4489
 1823SOL    HW2 7345   2.460   3.813   3.187 -1.5779 -0.5726 -0.2994
 1823SOL    HW3 7346   2.530   3.864   3.063 -0.7763  1.5811  0.9958
 1823SOL    MW4 7347   2.462   3.824   3.101 -0.4356 -0.2375 -0.2384
 1824SOL     OW 7348   2.215   3.967   3.020  0.2251  0.5393  0.2757
 1824SOL    HW2 7349   2.291   3.915   3.045 -0.6593 -0.7782  0.2935
 1824SOL    HW3 7350   2.140   3.916   3.050 -0.7220  1.0390 -1.1668
 1824SOL    MW4 7351   2.215   3.954   3.027 -0.0165  0.4313  0.0877
 1825SOL     OW 7352   2.212   4.227   3.105 -0.2155  0.4423  0.1377
 1825SOL    HW2 7353   2.216   4.134   3.084 -0.1276  0.4623  0.0668
 1825SOL    HW3 7354   2.139   4.260   3.052  0.9864  0.8011 -1.3333
 1825SOL    MW4 7355   2.203   4.219   3.095 -0.0451  0.4916 -0.0660
 1826SOL     OW 7356   2.475   4.330   3.008  0.3855  0.2392 -0.1085
 1826SOL    HW2 7357   2.392   4.307   3.051  0.5889 -0.4138 -0.0663
 1826SOL    HW3 7358   2.454   4.333   2.915  0.5206 -0.8217 -0.1754
 1826SOL    MW4 7359   2.461   4.327   3.001  0.4301  0.0134 -0.1116
 1827SOL     OW 7360   2.948   0.003   3.061  0.3432  0.0262 -0.4492
 1827SOL    HW2 7361   3.023   0.056   3.033 -0.3326  0.7057 -0.9813
 1827SOL    HW3 7362   2.971  -0.086   3.036  0.8915  0.2607 -0.7899
 1827SOL    MW4 7363   2.961  -0.001   3.054  0.3262  0.1473 -0.5646
 1828SOL     OW 7364   2.707   0.142   2.960  0.0207 -0.3153 -1.1441
 1828SOL    HW2 7365   2.787   0.100   2.993  0.3646  1.7770  0.7963
 1828SOL    HW3 7366   2.636   0.084   2.990  0.6752 -1.1710 -1.2155
 1828SOL    MW4 7367   2.708   0.129   2.969  0.1523 -0.1522 -0.8974
 1829SOL     OW 7368   2.691   0.347   3.130 -0.1564 -0.0756 -0.3034
 1829SOL    HW2 7369   2.702   0.274   3.069 -0.2576 -0.4086  0.0661
 1829SOL    HW3 7370   2.614   0.393   3.099 -0.6650 -0.7002  0.0214
 1829SOL    MW4 7371   2.683   0.343   3.118 -0.2367 -0.2019 -0.2120
 1830SOL     OW 7372   2.918   0.474   3.033  0.0646 -0.0178  0.0560
 1830SOL    HW2 7373   2.845   0.416   3.056 -0.8490  0.8132 -0.7408
 1830SOL    HW3 7374   2.906   0.493   2.940  1.1369  0.3713 -0.0168
 1830SOL    MW4 7375   2.907   0.469   3.024  0.0856  0.1431 -0.0589
 1831SOL     OW 7376   2.900   0.735   3.137 -0.2271 -0.6003 -0.2231
 1831SOL    HW2 7377   2.895   0.729   3.232 -0.0870 -0.1194 -0.1832
 1831SOL    HW3 7378   2.897   0.645   3.107 -1.1296 -0.7134  0.1934
 1831SOL    MW4 7379   2.899   0.723   3.146 -0.3278 -0.5517 -0.1628
 1832SOL     OW 7380   2.684   0.856   3.019  0.3066  0.5439 -0.2196
 1832SOL    HW2 7381   2.694   0.947   3.045  0.9476  0.4679 -0.1966
 1832SOL    HW3 7382   2.751   0.809   3.068 -0.4927 -0.0461  0.3236
 1832SOL    MW4 7383   2.694   0.862   3.029  0.2859  0.4560 -0.1447
 1833SOL     OW 7384   2.702   1.112   3.128 -0.0403 -0.0908  0.0532
 1833SOL    HW2 7385   2.773   1.155   3.080  0.3765 -0.5355  0.2639
 1833SOL    HW3 7386   2.622   1.147   3.089  0.2924  0.8838  0.2341
 1833SOL    MW4 7387   2.701   1.123   3.117  0.0587 -0.0209  0.1049
 1834SOL     OW 7388   2.901   1.262   2.993 -0.1922 -0.3589 -0.4183
 1834SOL    HW2 7389   2.980   1.220   3.026 -0.4837  0.0048  0.7617
 1834SOL    HW3 7390   2.905   1.351   3.027 -0.7316 -0.1085 -0.9954
 1834SOL    MW4 7391   2.912   1.268   3.002 -0.3021 -0.2779 -0.3388
 1835SOL     OW 7392   2.916   1.537   3.098  0.4639  0.0633  0.1262
 1835SOL    HW2 7393   2.931   1.524   3.192  0.5841  2.1085  0.4216
 1835SOL    HW3 7394   2.994   1.584   3.068  0.7925 -1.2748 -1.1822
 1835SOL    MW4 7395   2.929   1.542   3.107  0.5231  0.1566 -0.0074
 1836SOL     OW 7396   2.667   1.648   2.986 -0.5133 -0.3210  0.1798
 1836SOL    HW2 7397   2.749   1.610   3.019 -0.6257 -1.7959 -1.1607
 1836SOL    HW3 7398   2.598   1.596   3.028 -0.7797  1.1460  1.5756
 1836SOL    MW4 7399   2.669   1.636   2.996 -0.5631 -0.3220  0.1872
 1837SOL     OW 7400   2.675   1.898   3.076  0.8306 -0.1711 -0.1187
 1837SOL    HW2 7401   2.750   1.936   3.031  1.3915 -0.6783  0.3731
 1837SOL    HW3 7402   2.662   1.813   3.034  1.9257 -1.0440  1.2403
 1837SOL    MW4 7403   2.683   1.892   3.065  1.0493 -0.3533  0.1254
 1838SOL     OW 7404   2.898   1.993   2.976  0.1626 -0.2740  0.1821
 1838SOL    HW2 7405   2.892   2.081   3.012 -0.5869 -0.7721  1.2955
 1838SOL    HW3 7406   2.903   2.006   2.881  0.1645  0.9608  0.3454
 1838SOL    MW4 7407   2.898   2.006   2.968  0.0641 -0.1769  0.3505
 1839SOL     OW 7408   2.908   2.246   3.075  0.7276  0.1807 -0.1761
 1839SOL    HW2 7409   2.987   2.283   3.034  0.8121  1.1042  0.8099
 1839SOL    HW3 7410   2.837   2.301   3.043  0.5826 -0.1472 -0.4178
 1839SOL    MW4 7411   2.909   2.258   3.065  0.7198  0.2592 -0.0780
 1840SOL     OW 7412   2.704   2.408   2.948  0.1223  0.1804 -1.1841
 1840SOL    HW2 7413   2.708   2.498   2.978  0.5011 -0.0047 -0.6677
 1840SOL    HW3 7414   2.625   2.372   2.989  0.7471 -0.1290 -0.2421
 1840SOL    MW4 7415   2.694   2.415   2.957  0.2546  0.1152 -0.9918
 1841SOL     OW 7416   2.704   2.642   3.088  0.3565 -0.3489  0.5054
 1841SOL    HW2 7417   2.717   2.648   3.182  1.1640  0.1226  0.3730
 1841SOL    HW3 7418   2.626   2.695   3.071 -0.0751 -0.8264  0.9576
 1841SOL    MW4 7419   2.695   2.650   3.098  0.4060 -0.3498  0.5472
 1842SOL     OW 7420   2.913   2.803   3.008  0.3966 -0.2772  0.0815
 1842SOL    HW2 7421   2.992   2.767   3.049  0.1006 -0.0083  0.9113
 1842SOL    HW3 7422   2.842   2.746   3.039 -0.3068  1.9095  2.7278
 1842SOL    MW4 7423   2.914   2.791   3.018  0.2651  0.0467  0.5400
 1843SOL     OW 7424   2.957   3.072   3.069 -0.1563  0.1871 -0.2872
 1843SOL    HW2 7425   2.879   3.116   3.038 -1.6069 -0.4997  2.2127
 1843SOL    HW3 7426   2.940   2.979   3.055  0.0708  0.0184  0.4781
 1843SOL    MW4 7427   2.945   3.066   3.063 -0.3178  0.0741  0.1438
 1844SOL     OW 7428   2.693   3.164   3.010  0.2482  0.2758  0.4393
 1844SOL    HW2 7429   2.688   3.256   3.037  1.4821  0.3348  0.4938
 1844SOL    HW3 7430   2.693   3.167   2.915 -2.5620  0.1512  0.3740
 1844SOL    MW4 7431   2.692   3.177   3.001  0.0401  0.2670  0.4380
 1845SOL     OW 7432   2.690   3.428   3.071  0.4893 -0.1023  0.3539
 1845SOL    HW2 7433   2.695   3.428   3.167  1.5327 -0.2560  0.3093
 1845SOL    HW3 7434   2.771   3.471   3.043  0.2673 -0.2085 -0.4653
 1845SOL    MW4 7435   2.701   3.434   3.080  0.5975 -0.1369  0.2403
 1846SOL     OW 7436   2.919   3.560   3.006 -0.5162  0.1689 -0.3436
 1846SOL    HW2 7437   3.001   3.531   3.045 -1.3190  0.5133  1.6424
 1846SOL    HW3 7438   2.907   3.650   3.038 -2.4335 -0.4136  0.6438
 1846SOL    MW4 7439   2.928   3.568   3.015 -0.8750  0.1376  0.0489
 1847SOL     OW 7440   2.915   3.834   3.104 -0.1786  0.6337  0.1489
 1847SOL    HW2 7441   2.922   3.834   3.200  0.0469  0.3065  0.1319
 1847SOL    HW3 7442   2.832   3.878   3.086 -1.0237 -0.7662  0.5486
 1847SOL    MW4 7443   2.905   3.840   3.115 -0.2606  0.4055  0.1991
 1848SOL     OW 7444   2.680   3.970   3.024  0.1345 -0.1434 -0.3989
 1848SOL    HW2 7445   2.690   4.064   3.034  0.6443 -0.2689  0.2810
 1848SOL    HW3 7446   2.677   3.956   2.929  0.5654  0.4969 -0.5095
 1848SOL    MW4 7447   2.681   3.980   3.013  0.2587 -0.0751 -0.3240
 1849SOL     OW 7448   2.746   4.267   3.071  0.3591 -0.0039 -0.0025
 1849SOL    HW2 7449   2.745   4.268   3.166 -0.2643  0.9173 -0.0051
 1849SOL    HW3 7450   2.658   4.295   3.046  0.4851 -0.3548 -0.8478
 1849SOL    MW4 7451   2.734   4.271   3.080  0.2935  0.0715 -0.1147
 1850SOL     OW 7452   2.980   4.398   3.002 -0.0789  0.5444  0.0802
 1850SOL    HW2 7453   3.038   4.342   3.054  0.3057  1.4308  0.6093
 1850SOL    HW3 7454   2.892   4.371   3.028  0.1067  0.5709  0.7545
 1850SOL    MW4 7455   2.976   4.387   3.012 -0.0038  0.6652  0.2389
 1851SOL     OW 7456   3.389   4.631   3.120 -0.1695  0.3682  0.2578
 1851SOL    HW2 7457   3.467   4.657   3.071 -2.0122  0.4331 -2.7839
 1851SOL    HW3 7458   3.393   4.535   3.122  0.6333  0.4087  1.2830
 1851SOL    MW4 7459   3.400   4.622   3.114 -0.3066  0.3819 -0.0081
 1852SOL     OW 7460   3.190   0.127   2.991 -0.2625 -0.3011 -0.4680
 1852SOL    HW2 7461   3.188   0.209   3.040 -0.0679 -0.6085  0.0714
 1852SOL    HW3 7462   3.255   0.074   3.037  0.3562 -0.3808 -1.4211
 1852SOL    MW4 7463   3.199   0.130   3.004 -0.1552 -0.3522 -0.5229
 1853SOL     OW 7464   3.168   0.372   3.136  0.3568 -0.2718 -0.4610
 1853SOL    HW2 7465   3.237   0.420   3.091  0.2004  0.4983  0.1052
 1853SOL    HW3 7466   3.087   0.406   3.098  0.2142  0.5410  0.5311
 1853SOL    MW4 7467   3.166   0.383   3.125  0.3173 -0.0630 -0.2553
 1854SOL     OW 7468   3.361   0.492   3.001 -0.4135 -0.1986  0.0815
 1854SOL    HW2 7469   3.445   0.449   3.022 -0.0647  0.8112  0.7974
 1854SOL    HW3 7470   3.355   0.487   2.906  0.5293 -0.1468  0.0113
 1854SOL    MW4 7471   3.371   0.485   2.991 -0.2429 -0.0585  0.1667
 1855SOL     OW 7472   3.382   0.753   3.117  0.1653 -0.1127 -0.1847
 1855SOL    HW2 7473   3.366   0.745   3.211  0.6918  0.7096 -0.0226
 1855SOL    HW3 7474   3.382   0.663   3.085  1.9470 -0.5397  0.9359
 1855SOL    MW4 7475   3.380   0.740   3.126  0.4697 -0.0605 -0.0153
 1856SOL     OW 7476   3.141   0.877   3.047 -0.1341  1.0439  0.1951
 1856SOL    HW2 7477   3.218   0.825   3.070  0.0419  0.4380 -1.6234
 1856SOL    HW3 7478   3.067   0.822   3.073  0.0623  0.4283 -0.4961
 1856SOL    MW4 7479   3.141   0.863   3.053 -0.0849  0.8828 -0.1359
 1857SOL     OW 7480   3.130   1.144   3.078 -0.1572 -0.2061 -0.2014
 1857SOL    HW2 7481   3.210   1.184   3.043 -0.6693  0.3335 -0.7762
 1857SOL    HW3 7482   3.134   1.053   3.050  0.8559 -0.4830  0.8234
 1857SOL    MW4 7483   3.141   1.137   3.069 -0.0908 -0.1715 -0.1421
 1858SOL     OW 7484   3.351   1.297   2.984  0.0742 -0.1674 -0.4133
 1858SOL    HW2 7485   3.437   1.261   3.004  0.4964  1.0809  0.0625
 1858SOL    HW3 7486   3.350   1.382   3.028 -1.6797 -0.4859  0.1848
 1858SOL    MW4 7487   3.362   1.303   2.992 -0.1013 -0.0449 -0.2716
 1859SOL     OW 7488   3.376   1.549   3.095 -0.1051 -0.1901 -0.4882
 1859SOL    HW2 7489   3.383   1.546   3.191  0.3061 -1.1380 -0.5490
 1859SOL    HW3 7490   3.451   1.601   3.067 -0.8794  1.0991 -0.2243
 1859SOL    MW4 7491   3.387   1.556   3.104 -0.1533 -0.1452 -0.4613
 1860SOL     OW 7492   3.143   1.660   3.007 -0.2198  0.1582 -0.1039
 1860SOL    HW2 7493   3.223   1.630   3.050 -1.0185 -1.5195  0.2245
 1860SOL    HW3 7494   3.160   1.646   2.914 -0.8400 -2.0432  0.0772
 1860SOL    MW4 7495   3.156   1.654   3.000 -0.4070 -0.3536 -0.0367
 1861SOL     OW 7496   3.125   1.930   3.096  0.0748 -0.0506 -0.2664
 1861SOL    HW2 7497   3.141   1.836   3.082  0.6084  0.1355 -0.9207
 1861SOL    HW3 7498   3.042   1.947   3.052 -0.5317 -0.4234  0.7141
 1861SOL    MW4 7499   3.117   1.920   3.089  0.0653 -0.0752 -0.2234
 1862SOL     OW 7500   3.337   2.090   2.971  0.3388  0.2028 -0.3494
 1862SOL    HW2 7501   3.412   2.051   3.017 -0.1108 -0.1941  0.0506
 1862SOL    HW3 7502   3.260   2.055   3.016 -0.1075 -0.1280 -1.3516
 1862SOL    MW4 7503   3.337   2.080   2.983  0.2205  0.1068 -0.4289
 1863SOL     OW 7504   3.348   2.351   3.105  0.0830 -0.0667  0.3789
 1863SOL    HW2 7505   3.340   2.354   3.201  0.2577  0.2556  0.3834
 1863SOL    HW3 7506   3.363   2.258   3.086 -0.4257 -0.1994  0.6258
 1863SOL    MW4 7507   3.349   2.339   3.115  0.0389 -0.0412  0.4117
 1864SOL     OW 7508   3.107   2.414   2.985  0.3866  0.5654 -0.0812
 1864SOL    HW2 7509   3.193   2.390   3.019 -0.0508 -2.4252 -1.0012
 1864SOL    HW3 7510   3.122   2.431   2.892  0.2938  1.9226  0.1329
 1864SOL    MW4 7511   3.121   2.413   2.977  0.3166  0.3500 -0.1740
 1865SOL     OW 7512   3.150   2.675   3.116  0.3613 -0.3576  0.0002
 1865SOL    HW2 7513   3.160   2.659   3.210  1.4425  0.1567 -0.0141
 1865SOL    HW3 7514   3.136   2.588   3.079  1.0959 -0.7034  0.5065
 1865SOL    MW4 7515   3.150   2.662   3.124  0.6008 -0.3352  0.0651
 1866SOL     OW 7516   3.365   2.833   2.991 -0.3302  0.0034  0.0374
 1866SOL    HW2 7517   3.359   2.910   3.046 -0.9174 -0.4078  0.5436
 1866SOL    HW3 7518   3.294   2.776   3.020  1.1094 -1.4375  0.7815
 1866SOL    MW4 7519   3.355   2.835   3.002 -0.2177 -0.2410  0.2027
 1867SOL     OW 7520   3.387   3.085   3.125  0.1447  0.0052 -0.0693
 1867SOL    HW2 7521   3.383   3.075   3.220  0.1341 -0.0877 -0.0799
 1867SOL    HW3 7522   3.311   3.138   3.103 -0.1789 -0.4707 -0.0967
 1867SOL    MW4 7523   3.376   3.091   3.135  0.1006 -0.0701 -0.0739
 1868SOL     OW 7524   3.178   3.228   2.976 -0.1325  0.2172  0.7316
 1868SOL    HW2 7525   3.097   3.186   3.004  0.4369 -0.3172  1.5807
 1868SOL    HW3 7526   3.172   3.229   2.881 -0.9941 -0.1055  0.7743
 1868SOL    MW4 7527   3.166   3.223   2.967 -0.1712  0.1044  0.8492
 1869SOL     OW 7528   3.157   3.475   3.125 -0.2311 -0.1144 -0.0460
 1869SOL    HW2 7529   3.231   3.531   3.102 -0.0704 -0.4247 -0.2933
 1869SOL    HW3 7530   3.167   3.398   3.068 -1.0682  0.1092 -0.5095
 1869SOL    MW4 7531   3.168   3.472   3.114 -0.3202 -0.1256 -0.1395
 1870SOL     OW 7532   3.365   3.634   3.016  0.1341  0.2746  0.4266
 1870SOL    HW2 7533   3.446   3.598   3.052 -0.6908 -1.5736  0.4713
 1870SOL    HW3 7534   3.370   3.728   3.035  2.1038  0.1290  0.7128
 1870SOL    MW4 7535   3.376   3.642   3.023  0.2854  0.0117  0.4702
 1871SOL     OW 7536   3.384   3.885   3.109 -0.0787 -0.6013 -0.1424
 1871SOL    HW2 7537   3.385   3.876   3.204 -1.2998 -0.9124 -0.1426
 1871SOL    HW3 7538   3.296   3.918   3.090  0.4147  0.1766 -1.1038
 1871SOL    MW4 7539   3.372   3.888   3.119 -0.1748 -0.5398 -0.2692
 1872SOL     OW 7540   3.145   3.977   3.021 -0.8464  0.5968 -0.2895
 1872SOL    HW2 7541   3.076   3.912   3.037 -0.7598  0.7997  0.9436
 1872SOL    HW3 7542   3.142   3.992   2.926 -2.0258  0.0792 -0.3464
 1872SOL    MW4 7543   3.135   3.970   3.010 -0.9904  0.5555 -0.1345
 1873SOL     OW 7544   3.150   4.220   3.139  0.0879 -0.5761 -0.1224
 1873SOL    HW2 7545   3.121   4.206   3.229 -1.0561 -0.1526 -0.4161
 1873SOL    HW3 7546   3.142   4.135   3.097  1.1990 -0.9077  0.3396
 1873SOL    MW4 7547   3.145   4.207   3.145  0.0832 -0.5641 -0.1004
 1874SOL     OW 7548   3.403   4.352   3.076 -0.0355  0.0371 -0.9226
 1874SOL    HW2 7549   3.484   4.311   3.107  0.1028  1.1485  0.2089
 1874SOL    HW3 7550   3.334   4.291   3.102  0.0597  1.0059  1.7752
 1874SOL    MW4 7551   3.405   4.338   3.083 -0.0045  0.3114 -0.4175
 1875SOL     OW 7552   3.850   0.008   3.070  0.3608  0.1056  0.2009
 1875SOL    HW2 7553   3.858  -0.088   3.068  0.6214  0.1023  0.9690
 1875SOL    HW3 7554   3.758   0.025   3.053  0.5504 -0.2253 -1.1904
 1875SOL    MW4 7555   3.839  -0.002   3.068  0.4201  0.0615  0.1187
 1876SOL     OW 7556   3.603   0.086   2.998 -0.0655  0.1603 -0.0212
 1876SOL    HW2 7557   3.600   0.175   3.032  0.3130  0.3212 -0.4046
 1876SOL    HW3 7558   3.624   0.096   2.905 -2.3446 -0.1972 -0.6280
 1876SOL    MW4 7559   3.605   0.099   2.990 -0.3166  0.1343 -0.1521
 1877SOL     OW 7560   3.601   0.380   3.113  0.1604 -0.0675  0.1526
 1877SOL    HW2 7561   3.601   0.384   3.209  1.4081  0.5134  0.1325
 1877SOL    HW3 7562   3.692   0.394   3.088  0.0308 -1.3378 -1.0853
 1877SOL    MW4 7563   3.613   0.383   3.123  0.3078 -0.1585 -0.0134
 1878SOL     OW 7564   3.852   0.473   3.004 -0.2144 -0.4294  0.0911
 1878SOL    HW2 7565   3.931   0.449   3.051 -0.0544 -1.4271 -0.6731
 1878SOL    HW3 7566   3.844   0.568   3.017  1.2623 -0.2733 -0.0831
 1878SOL    MW4 7567   3.861   0.482   3.012  0.0012 -0.5405 -0.0329
 1879SOL     OW 7568   3.807   0.738   3.068  0.4092 -0.3543 -0.1374
 1879SOL    HW2 7569   3.804   0.742   3.163 -2.0597  0.5098 -0.2208
 1879SOL    HW3 7570   3.887   0.786   3.045 -0.8893  2.7230  1.3641
 1879SOL    MW4 7571   3.817   0.745   3.077 -0.0880  0.1658  0.0498
 1880SOL     OW 7572   3.579   0.899   2.980 -0.2305  0.0269  0.2429
 1880SOL    HW2 7573   3.658   0.865   3.022 -0.2512  0.1531  0.3857
 1880SOL    HW3 7574   3.507   0.852   3.023 -0.2057 -0.4938 -0.2732
 1880SOL    MW4 7575   3.580   0.888   2.991 -0.2298 -0.0251  0.1936
 1881SOL     OW 7576   3.579   1.161   3.077  0.0455  0.0022 -0.0945
 1881SOL    HW2 7577   3.661   1.208   3.062 -0.1571  0.0233 -1.1392
 1881SOL    HW3 7578   3.595   1.073   3.043 -0.7076  0.3090 -1.2634
 1881SOL    MW4 7579   3.592   1.156   3.071 -0.0806  0.0454 -0.3867
 1882SOL     OW 7580   3.833   1.285   2.998 -0.1770 -0.0126  0.5737
 1882SOL    HW2 7581   3.813   1.374   3.026 -1.4119 -0.5535  1.4597
 1882SOL    HW3 7582   3.830   1.289   2.903  1.5803  1.2874  0.5440
 1882SOL    MW4 7583   3.830   1.297   2.989 -0.1082  0.0876  0.6866
 1883SOL     OW 7584   3.793   1.536   3.092  0.0697  0.4434 -1.0109
 1883SOL    HW2 7585   3.814   1.545   3.185  1.3718  1.1919 -1.3737
 1883SOL    HW3 7586   3.713   1.588   3.081 -0.3434 -0.0014 -0.2371
 1883SOL    MW4 7587   3.785   1.544   3.103  0.1872  0.4834 -0.9568
 1884SOL     OW 7588   3.585   1.694   3.004 -0.0825  0.2050 -0.3630
 1884SOL    HW2 7589   3.580   1.788   3.019  0.6852  0.1881  0.0324
 1884SOL    HW3 7590   3.601   1.685   2.910 -0.0386  0.4702 -0.3800
 1884SOL    MW4 7591   3.587   1.705   2.994  0.0248  0.2378 -0.3128
 1885SOL     OW 7592   3.541   1.981   3.118  0.0655 -0.2921  0.2306
 1885SOL    HW2 7593   3.555   1.954   3.208  1.1053 -0.9026 -0.1082
 1885SOL    HW3 7594   3.625   2.018   3.090  0.0417 -0.9805 -0.7831
 1885SOL    MW4 7595   3.554   1.983   3.126  0.1993 -0.4635  0.0525
 1886SOL     OW 7596   3.799   2.061   2.980  0.0490  0.5208 -0.4195
 1886SOL    HW2 7597   3.802   2.153   3.008  1.0096  0.7296 -1.1675
 1886SOL    HW3 7598   3.808   2.065   2.885 -0.0649 -0.3514 -0.4728
 1886SOL    MW4 7599   3.800   2.074   2.971  0.1607  0.4334 -0.5252
 1887SOL     OW 7600   3.794   2.320   3.095 -0.0800 -0.4733 -0.1477
 1887SOL    HW2 7601   3.796   2.318   3.190 -0.1925  0.3390 -0.1266
 1887SOL    HW3 7602   3.716   2.372   3.073  0.7102  0.5096 -0.6648
 1887SOL    MW4 7603   3.784   2.326   3.104  0.0093 -0.2365 -0.2131
 1888SOL     OW 7604   3.579   2.458   2.986  0.4320  0.8063  0.5082
 1888SOL    HW2 7605   3.598   2.544   3.022 -1.1253  0.3062  2.6461
 1888SOL    HW3 7606   3.494   2.434   3.024 -0.2931 -0.6582 -1.9106
 1888SOL    MW4 7607   3.570   2.466   2.996  0.1307  0.5467  0.4709
 1889SOL     OW 7608   3.606   2.702   3.086  0.3696 -0.0732 -0.0575
 1889SOL    HW2 7609   3.684   2.752   3.060  0.8138 -0.5233  0.4036
 1889SOL    HW3 7610   3.533   2.748   3.045  0.8812  0.3579 -0.4840
 1889SOL    MW4 7611   3.607   2.715   3.077  0.4957 -0.0758 -0.0529
 1890SOL     OW 7612   3.842   2.838   2.990  0.3582 -0.0765 -0.4155
 1890SOL    HW2 7613   3.834   2.925   3.028  1.4385 -0.1216 -0.0587
 1890SOL    HW3 7614   3.848   2.854   2.895 -0.7110  0.1445 -0.4469
 1890SOL    MW4 7615   3.842   2.852   2.982  0.3598 -0.0532 -0.3726
 1891SOL     OW 7616   3.834   3.096   3.091  0.0714  0.4052  0.3643
 1891SOL    HW2 7617   3.911   3.129   3.045  0.3795 -0.4831  0.2295
 1891SOL    HW3 7618   3.761   3.147   3.056  0.4010  0.2436 -0.5852
 1891SOL    MW4 7619   3.834   3.107   3.080  0.1557  0.2668  0.2213
 1892SOL     OW 7620   3.600   3.253   3.037 -0.0810  0.3006  0.1796
 1892SOL    HW2 7621   3.535   3.199   3.083  1.5495 -0.6844  1.3995
 1892SOL    HW3 7622   3.577   3.245   2.945 -1.1778 -0.7378  0.5296
 1892SOL    MW4 7623   3.588   3.245   3.031 -0.0105  0.0336  0.3865
 1893SOL     OW 7624   3.594   3.511   3.136 -0.1701 -0.2805  0.0646
 1893SOL    HW2 7625   3.668   3.553   3.093  0.1920 -0.8032  0.1625
 1893SOL    HW3 7626   3.595   3.421   3.103  0.2914 -0.7734  1.3691
 1893SOL    MW4 7627   3.604   3.504   3.126 -0.0615 -0.4144  0.2499
 1894SOL     OW 7628   3.826   3.637   2.999  0.8761  0.4377 -0.3704
 1894SOL    HW2 7629   3.823   3.732   3.008 -2.0323  0.2709  0.7350
 1894SOL    HW3 7630   3.830   3.623   2.904 -0.3665  1.6513 -0.6238
 1894SOL    MW4 7631   3.826   3.648   2.988  0.3285  0.5758 -0.2582
 1895SOL     OW 7632   3.868   3.920   3.075  0.3083 -0.3469 -0.1072
 1895SOL    HW2 7633   3.878   3.915   3.170 -1.4832 -2.1523  0.0362
 1895SOL    HW3 7634   3.781   3.959   3.062 -0.4383 -2.1836 -0.9287
 1895SOL    MW4 7635   3.858   3.925   3.086 -0.0262 -0.8276 -0.1967
 1896SOL     OW 7636   3.606   3.998   3.027 -0.3630 -0.1621  0.6930
 1896SOL    HW2 7637   3.521   3.957   3.047 -0.3086 -0.9079 -0.5161
 1896SOL    HW3 7638   3.611   3.996   2.931  0.7098  0.5335  0.7296
 1896SOL    MW4 7639   3.595   3.992   3.017 -0.2143 -0.1686  0.5386
 1897SOL     OW 7640   3.633   4.250   3.181 -0.0396  0.2711 -0.0422
 1897SOL    HW2 7641   3.715   4.267   3.136 -0.6150 -0.9060 -1.5689
 1897SOL    HW3 7642   3.602   4.166   3.146 -0.8794 -0.3263  1.9947
 1897SOL    MW4 7643   3.639   4.241   3.171 -0.2265  0.0372  0.0255
 1898SOL     OW 7644   3.864   4.399   3.050  0.4841  0.7398 -0.3161
 1898SOL    HW2 7645   3.934   4.344   3.085 -0.3739 -0.1471  0.0320
 1898SOL    HW3 7646   3.867   4.383   2.956  0.8859  0.8581 -0.3240
 1898SOL    MW4 7647   3.873   4.389   3.042  0.4239  0.6380 -0.2713
 1899SOL     OW 7648   4.269   4.638   3.113  0.1158  0.1663 -0.5303
 1899SOL    HW2 7649   4.293   4.653   3.204  0.9432 -1.5203 -0.4486
 1899SOL    HW3 7650   4.268   4.543   3.104  0.4012  0.3135 -2.3634
 1899SOL    MW4 7651   4.272   4.627   3.124  0.2627 -0.0367 -0.7613
 1900SOL     OW 7652   4.079   0.140   3.000 -0.3054  0.0961  0.3628
 1900SOL    HW2 7653   4.152   0.091   3.038 -1.0591 -1.9620 -0.7671
 1900SOL    HW3 7654   4.001   0.097   3.033 -1.0031  1.2203  0.1916
 1900SOL    MW4 7655   4.078   0.128   3.009 -0.4973 -0.0271  0.1912
 1901SOL     OW 7656   4.088   0.397   3.123  0.0996  0.6860  0.2459
 1901SOL    HW2 7657   4.160   0.449   3.088 -0.0593  1.0493  0.4490
 1901SOL    HW3 7658   4.097   0.311   3.082 -0.2038  1.1665 -0.8278
 1901SOL    MW4 7659   4.099   0.392   3.113  0.0386  0.7973  0.1311
 1902SOL     OW 7660   4.321   0.510   3.009 -0.6042 -0.2977 -0.3160
 1902SOL    HW2 7661   4.299   0.597   3.043  0.4984 -0.3254  0.4788
 1902SOL    HW3 7662   4.280   0.507   2.922 -1.3321  0.7058 -0.0149
 1902SOL    MW4 7663   4.312   0.521   3.002 -0.5546 -0.1690 -0.1714
 1903SOL     OW 7664   4.296   0.777   3.103  0.0199 -0.7144  0.2155
 1903SOL    HW2 7665   4.224   0.819   3.054 -0.2975  0.0531  1.3265
 1903SOL    HW3 7666   4.375   0.817   3.066 -0.1987 -0.3937  0.0818
 1903SOL    MW4 7667   4.297   0.788   3.092 -0.0505 -0.5708  0.3443
 1904SOL     OW 7668   4.046   0.853   2.974  0.1989  0.2706  0.0210
 1904SOL    HW2 7669   4.033   0.945   2.996 -0.7376  0.3972 -0.9998
 1904SOL    HW3 7670   4.064   0.853   2.880 -0.5688 -0.6495 -0.1381
 1904SOL    MW4 7671   4.047   0.865   2.965 -0.0262  0.1660 -0.1347
 1905SOL     OW 7672   4.054   1.127   3.068  0.6781 -0.0914  0.1951
 1905SOL    HW2 7673   4.047   1.159   3.158 -2.0921 -0.7703  0.2666
 1905SOL    HW3 7674   3.991   1.180   3.019  1.9566  0.0738 -1.3109
 1905SOL    MW4 7675   4.045   1.139   3.073  0.4816 -0.1591  0.0060
 1906SOL     OW 7676   4.292   1.247   2.984  0.6886 -0.4219  0.3454
 1906SOL    HW2 7677   4.217   1.192   3.007 -0.4887  1.2089  0.5319
 1906SOL    HW3 7678   4.289   1.253   2.889  1.3930 -1.4662  0.2570
 1906SOL    MW4 7679   4.282   1.241   2.975  0.6266 -0.3445  0.3583
 1907SOL     OW 7680   4.265   1.511   3.114 -0.0848  0.4425 -0.5150
 1907SOL    HW2 7681   4.185   1.555   3.086 -1.1842 -0.6671  0.8067
 1907SOL    HW3 7682   4.267   1.430   3.062 -0.8947 -0.4915  0.8739
 1907SOL    MW4 7683   4.255   1.506   3.103 -0.3366  0.1730 -0.1574
 1908SOL     OW 7684   4.044   1.676   3.027 -0.4151 -0.3446 -0.1602
 1908SOL    HW2 7685   4.037   1.763   3.065 -1.4450 -0.3847 -0.2477
 1908SOL    HW3 7686   3.965   1.631   3.056  0.9467 -1.8312  1.3495
 1908SOL    MW4 7687   4.032   1.681   3.036 -0.3715 -0.5460  0.0274
 1909SOL     OW 7688   4.050   1.926   3.118 -0.0499 -0.1603 -0.2544
 1909SOL    HW2 7689   4.124   1.967   3.073  0.0664 -0.1822 -0.0825
 1909SOL    HW3 7690   3.973   1.971   3.083  0.0737  0.1822 -0.0982
 1909SOL    MW4 7691   4.050   1.938   3.108 -0.0181 -0.1179 -0.2112
 1910SOL     OW 7692   4.278   2.064   3.031 -0.2973  0.5070 -0.3102
 1910SOL    HW2 7693   4.284   2.154   3.062  0.6080  0.8429 -1.4307
 1910SOL    HW3 7694   4.262   2.072   2.937  0.0348 -0.4866 -0.4584
 1910SOL    MW4 7695   4.277   2.077   3.023 -0.1340  0.4201 -0.4773
 1911SOL     OW 7696   4.262   2.333   3.108  0.3476 -0.1801 -0.0419
 1911SOL    HW2 7697   4.186   2.378   3.071  0.2836 -0.2934 -0.0482
 1911SOL    HW3 7698   4.336   2.389   3.085  0.1537  0.4193  0.7784
 1911SOL    MW4 7699   4.262   2.347   3.100  0.3128 -0.1159  0.0653
 1912SOL     OW 7700   4.032   2.441   2.984 -0.1736 -0.0168  0.1202
 1912SOL    HW2 7701   4.024   2.519   3.037  1.6865 -0.8386  1.6646
 1912SOL    HW3 7702   3.963   2.383   3.016 -0.4634  0.3393  0.1368
 1912SOL    MW4 7703   4.022   2.443   2.995  0.0334 -0.0782  0.3259
 1913SOL     OW 7704   4.023   2.677   3.115 -0.1380  0.3445  0.1731
 1913SOL    HW2 7705   4.014   2.706   3.206  0.9526  0.9135  0.0982
 1913SOL    HW3 7706   3.959   2.729   3.067  0.3218  1.1069  0.3803
 1913SOL    MW4 7707   4.013   2.688   3.121  0.0668  0.5202  0.1907
 1914SOL     OW 7708   4.231   2.829   3.007 -0.3617 -0.1021 -0.4979
 1914SOL    HW2 7709   4.170   2.772   3.054  0.5442 -0.6175  0.0778
 1914SOL    HW3 7710   4.318   2.795   3.031  0.1923  1.4963 -0.1736
 1914SOL    MW4 7711   4.235   2.817   3.017 -0.1693  0.0408 -0.3791
 1915SOL     OW 7712   4.251   3.066   3.136 -0.4164  0.4775 -0.6153
 1915SOL    HW2 7713   4.193   3.130   3.093  0.6257  0.9597 -1.3361
 1915SOL    HW3 7714   4.241   2.987   3.083 -0.5100  0.5266 -0.6729
 1915SOL    MW4 7715   4.242   3.064   3.123 -0.2913  0.5474 -0.7181
 1916SOL     OW 7716   4.060   3.211   2.986  0.7214 -0.3142 -0.0229
 1916SOL    HW2 7717   4.048   3.304   3.005 -0.1868 -0.4410  0.0468
 1916SOL    HW3 7718   4.079   3.208   2.892  1.7028  0.0138  0.1556
 1916SOL    MW4 7719   4.061   3.223   2.976  0.7305 -0.2878  0.0098
 1917SOL     OW 7720   4.000   3.453   3.085  0.0744 -0.0943  0.0495
 1917SOL    HW2 7721   4.001   3.468   3.180  0.1899 -0.6378  0.1305
 1917SOL    HW3 7722   3.932   3.513   3.053  1.1855  1.2886  0.2692
 1917SOL    MW4 7723   3.991   3.463   3.093  0.2360  0.0162  0.0889
 1918SOL     OW 7724   4.229   3.574   2.992  0.2383  0.0740 -0.0847
 1918SOL    HW2 7725   4.261   3.650   3.041  0.9545 -1.7661  2.4025
 1918SOL    HW3 7726   4.150   3.546   3.039 -0.5764 -0.1730 -1.5507
 1918SOL    MW4 7727   4.223   3.580   3.005  0.2251 -0.2015  0.0501
 1919SOL     OW 7728   4.318   3.812   3.099 -0.5264 -0.3901 -0.7882
 1919SOL    HW2 7729   4.249   3.878   3.088 -0.0263  0.3445  0.3473
 1919SOL    HW3 7730   4.397   3.854   3.063 -0.3084 -0.5533 -0.5056
 1919SOL    MW4 7731   4.320   3.827   3.093 -0.4320 -0.3147 -0.6011
 1920SOL     OW 7732   4.125   4.005   3.001 -0.0616  0.1070 -0.1031
 1920SOL    HW2 7733   4.144   4.085   3.049 -0.2357  0.3371 -0.4187
 1920SOL    HW3 7734   4.031   3.991   3.013 -0.0083 -0.1189  0.0577
 1920SOL    MW4 7735   4.115   4.014   3.009 -0.0772  0.1078 -0.1233
 1921SOL     OW 7736   4.073   4.232   3.152 -0.4185  0.3826 -0.0067
 1921SOL    HW2 7737   4.067   4.263   3.242 -0.1342 -2.1585  0.9125
 1921SOL    HW3 7738   4.147   4.282   3.115 -0.5666  1.4700  1.1316
 1921SOL    MW4 7739   4.082   4.243   3.159 -0.4005  0.1907  0.2646
 1922SOL     OW 7740   4.286   4.357   3.036  0.2294 -0.1881  0.2409
 1922SOL    HW2 7741   4.376   4.331   3.056  0.5038 -0.3429 -1.1380
 1922SOL    HW3 7742   4.289   4.387   2.945 -1.2228 -0.7166  0.0069
 1922SOL    MW4 7743   4.299   4.358   3.026  0.0739 -0.2785  0.0279
 1923SOL     OW 7744   0.232   4.632   3.338  0.0936  0.1750  0.6436
 1923SOL    HW2 7745   0.314   4.674   3.367  1.3768 -1.7119 -0.1259
 1923SOL    HW3 7746   0.236   4.544   3.376 -0.6964 -0.5536 -0.9349
 1923SOL    MW4 7747   0.244   4.626   3.347  0.1587 -0.1702  0.3338
 1924SOL     OW 7748   0.032   0.102   3.495  0.3503  0.6078  0.0706
 1924SOL    HW2 7749   0.036   0.186   3.449  1.0332  0.4367 -0.1812
 1924SOL    HW3 7750   0.104   0.051   3.458  1.0771  0.5676  1.5172
 1924SOL    MW4 7751   0.042   0.106   3.484  0.5363  0.5799  0.2282
 1925SOL     OW 7752   0.058   0.350   3.361  0.1829 -0.0738  0.2731
 1925SOL    HW2 7753  -0.029   0.385   3.380  0.2857  1.8180 -2.4442
 1925SOL    HW3 7754   0.117   0.403   3.415 -0.1165  0.4801  0.0671
 1925SOL    MW4 7755   0.054   0.362   3.371  0.1570  0.2489 -0.1125
 1926SOL     OW 7756   0.260   0.480   3.517  0.2715 -0.0550 -0.3409
 1926SOL    HW2 7757   0.322   0.430   3.464  0.5421  0.1097 -0.1819
 1926SOL    HW3 7758   0.249   0.562   3.470 -1.2173 -0.7893 -1.3123
 1926SOL    MW4 7759   0.267   0.484   3.504  0.1108 -0.1302 -0.4482
 1927SOL     OW 7760   0.280   0.713   3.351  0.1426  0.0878  0.0906
 1927SOL    HW2 7761   0.361   0.759   3.371  0.4707 -0.8110  0.8804
 1927SOL    HW3 7762   0.211   0.768   3.388  0.4394  0.5704 -0.0762
 1927SOL    MW4 7763   0.281   0.726   3.359  0.2251  0.0329  0.1729
 1928SOL     OW 7764   0.059   0.837   3.455  0.3868  0.2264 -0.1065
 1928SOL    HW2 7765   0.052   0.846   3.550 -1.5742  0.2534 -0.2265
 1928SOL    HW3 7766   0.046   0.926   3.422  1.3513  0.2629 -0.3844
 1928SOL    MW4 7767   0.056   0.850   3.463  0.2554  0.2348 -0.1590
 1929SOL     OW 7768   0.011   1.130   3.402 -0.2061  0.2093  0.4401
 1929SOL    HW2 7769   0.087   1.169   3.445 -0.8813  1.4806  0.5246
 1929SOL    HW3 7770   0.034   1.130   3.309 -0.1051  0.6258  0.4617
 1929SOL    MW4 7771   0.024   1.135   3.395 -0.2819  0.4320  0.4539
 1930SOL     OW 7772   0.220   1.284   3.521  0.1373  0.3957  0.0485
 1930SOL    HW2 7773   0.292   1.257   3.463 -1.1868  0.5673 -1.7223
 1930SOL    HW3 7774   0.211   1.378   3.505 -0.2114  0.4476  0.5751
 1930SOL    MW4 7775   0.228   1.293   3.511 -0.0834  0.4251 -0.1154
 1931SOL     OW 7776   0.225   1.534   3.415  0.0436  0.3088 -0.1231
 1931SOL    HW2 7777   0.309   1.562   3.450 -0.2067 -0.6080  1.2380
 1931SOL    HW3 7778   0.239   1.526   3.320  1.1947  1.1496 -0.0237
 1931SOL    MW4 7779   0.238   1.537   3.407  0.1624  0.2987  0.0696
 1932SOL     OW 7780   0.033   1.683   3.539 -0.0823  0.1606 -0.3183
 1932SOL    HW2 7781  -0.047   1.645   3.503 -0.8614  2.3134 -0.9116
 1932SOL    HW3 7782   0.103   1.641   3.489 -0.9668  0.3148 -1.7192
 1932SOL    MW4 7783   0.032   1.672   3.527 -0.3018  0.4649 -0.5815
 1933SOL     OW 7784   0.018   1.946   3.428  0.1072  0.0325  0.1299
 1933SOL    HW2 7785   0.019   1.858   3.467 -0.4084  0.1780  0.4766
 1933SOL    HW3 7786   0.033   1.931   3.335 -2.9631 -0.6862 -0.2959
 1933SOL    MW4 7787   0.020   1.932   3.421 -0.3659 -0.0429  0.1194
 1934SOL     OW 7788   0.227   2.093   3.541  0.5294 -0.1229 -0.2836
 1934SOL    HW2 7789   0.224   2.090   3.637  0.1846 -0.9822 -0.3163
 1934SOL    HW3 7790   0.148   2.047   3.513  0.0379  1.1221 -0.9802
 1934SOL    MW4 7791   0.216   2.087   3.550  0.4191 -0.0720 -0.3803
 1935SOL     OW 7792   0.239   2.295   3.338  0.3476 -0.2749 -0.1232
 1935SOL    HW2 7793   0.165   2.356   3.347  0.7946  0.3070 -0.3290
 1935SOL    HW3 7794   0.214   2.219   3.390 -0.7496 -0.4139 -0.8293
 1935SOL    MW4 7795   0.226   2.293   3.346  0.2618 -0.2165 -0.2434
 1936SOL     OW 7796   4.487   2.430   3.470  0.1839 -0.1517 -0.4032
 1936SOL    HW2 7797   4.500   2.412   3.563 -0.8933 -1.0952 -0.4252
 1936SOL    HW3 7798   4.398   2.399   3.451 -0.2542  1.6287 -1.3593
 1936SOL    MW4 7799   4.477   2.424   3.479 -0.0167 -0.0415 -0.5322
 1937SOL     OW 7800   0.033   2.684   3.382  0.0994  0.0110 -0.3920
 1937SOL    HW2 7801   0.118   2.702   3.421 -0.5479  0.6079  0.7764
 1937SOL    HW3 7802   0.012   2.594   3.410 -0.0465  0.1805  0.0404
 1937SOL    MW4 7803   0.041   2.674   3.391 -0.0052  0.1123 -0.1807
 1938SOL     OW 7804   0.248   2.789   3.477 -0.1347 -0.3526 -0.2768
 1938SOL    HW2 7805   0.318   2.740   3.433 -0.2844  0.5111 -1.4943
 1938SOL    HW3 7806   0.246   2.874   3.432 -2.0333 -0.4072 -0.3355
 1938SOL    MW4 7807   0.257   2.794   3.465 -0.4049 -0.2456 -0.4451
 1939SOL     OW 7808   0.245   3.048   3.385 -0.3151 -0.2021  0.9051
 1939SOL    HW2 7809   0.176   3.103   3.421  0.0894  0.8741  0.0554
 1939SOL    HW3 7810   0.246   3.067   3.292  1.8565  0.6232  1.0740
 1939SOL    MW4 7811   0.236   3.057   3.378  0.0248  0.0489  0.8154
 1940SOL     OW 7812   0.060   3.206   3.492 -0.2548 -0.2598 -0.0195
 1940SOL    HW2 7813  -0.026   3.173   3.467 -0.4766  0.5977 -0.4002
 1940SOL    HW3 7814   0.064   3.294   3.455  0.9972 -0.4843 -0.4501
 1940SOL    MW4 7815   0.049   3.213   3.484 -0.1190 -0.1760 -0.1266
 1941SOL     OW 7816   4.469   3.470   3.400 -0.1402 -0.4284 -0.3156
 1941SOL    HW2 7817   4.392   3.511   3.439  0.1209 -0.6984  0.4836
 1941SOL    HW3 7818   4.451   3.472   3.306 -0.5647  0.6438 -0.2301
 1941SOL    MW4 7819   4.456   3.476   3.393 -0.1616 -0.3223 -0.1988
 1942SOL     OW 7820   0.223   3.609   3.449  0.1168 -0.4001 -0.3834
 1942SOL    HW2 7821   0.246   3.606   3.541 -0.5238  0.0281 -0.2004
 1942SOL    HW3 7822   0.133   3.575   3.445  0.1444 -0.4299 -0.8432
 1942SOL    MW4 7823   0.214   3.604   3.461  0.0359 -0.3476 -0.4199
 1943SOL     OW 7824   0.212   3.897   3.385  0.0395 -0.0229 -0.4100
 1943SOL    HW2 7825   0.128   3.927   3.421 -0.1525  0.0678 -0.9292
 1943SOL    HW3 7826   0.227   3.812   3.426  0.1436  0.3751  0.3904
 1943SOL    MW4 7827   0.203   3.890   3.395  0.0279  0.0415 -0.3726
 1944SOL     OW 7828   4.452   3.993   3.478  0.1752 -0.2297 -0.2035
 1944SOL    HW2 7829   4.452   3.998   3.574 -0.7418 -0.8502 -0.1627
 1944SOL    HW3 7830   4.459   4.084   3.450  2.7488 -0.1927  0.4326
 1944SOL    MW4 7831   4.453   4.006   3.487  0.3939 -0.3066 -0.1142
 1945SOL     OW 7832   0.023   4.236   3.371 -0.2456  0.2419 -0.0045
 1945SOL    HW2 7833  -0.045   4.295   3.401  0.2065  0.5740  0.3696
 1945SOL    HW3 7834   0.105   4.276   3.400  0.1289 -0.0078 -0.6875
 1945SOL    MW4 7835   0.025   4.249   3.379 -0.1365  0.2527 -0.0453
 1946SOL     OW 7836   0.235   4.371   3.470 -0.3365  0.6386  0.4383
 1946SOL    HW2 7837   0.230   4.395   3.563 -0.3180  0.5535  0.4608
 1946SOL    HW3 7838   0.312   4.315   3.463 -1.1628 -0.5362  0.6325
 1946SOL    MW4 7839   0.244   4.367   3.481 -0.4431  0.4721  0.4668
 1947SOL     OW 7840   0.692   4.621   3.367 -0.0412 -0.1966 -0.0335
 1947SOL    HW2 7841   0.765   4.672   3.402 -0.5124 -0.4786  1.3811
 1947SOL    HW3 7842   0.705   4.623   3.272  1.7355 -0.1566  0.1983
 1947SOL    MW4 7843   0.703   4.628   3.359  0.1310 -0.2284  0.1836
 1948SOL     OW 7844   0.455   0.115   3.432 -0.3832 -0.4184  0.0315
 1948SOL    HW2 7845   0.461   0.117   3.528  1.3913  0.5257 -0.0936
 1948SOL    HW3 7846   0.534   0.070   3.403  0.0695  1.0633 -1.0851
 1948SOL    MW4 7847   0.466   0.110   3.441 -0.0894 -0.0983 -0.1323
 1949SOL     OW 7848   0.440   0.375   3.358 -0.4300  0.0924  0.8113
 1949SOL    HW2 7849   0.516   0.413   3.403  0.2105 -1.0817  0.7344
 1949SOL    HW3 7850   0.438   0.284   3.386 -0.7725 -0.3295 -0.5448
 1949SOL    MW4 7851   0.450   0.368   3.368 -0.3907 -0.1182  0.6220
 1950SOL     OW 7852   0.651   0.502   3.463 -0.2175  0.1208  0.1484
 1950SOL    HW2 7853   0.659   0.485   3.557 -0.0706 -0.2217  0.0740
 1950SOL    HW3 7854   0.735   0.473   3.427 -0.4920 -0.2753 -0.1670
 1950SOL    MW4 7855   0.663   0.496   3.471 -0.2343  0.0233  0.0968
 1951SOL     OW 7856   0.674   0.764   3.386  0.0152 -0.4595 -0.0400
 1951SOL    HW2 7857   0.589   0.803   3.406 -0.4757 -0.6647 -1.6670
 1951SOL    HW3 7858   0.665   0.672   3.409 -0.4000 -0.5978 -0.7220
 1951SOL    MW4 7859   0.662   0.757   3.391 -0.1044 -0.5049 -0.3450
 1952SOL     OW 7860   0.460   0.897   3.468  0.2518  0.1209  0.2697
 1952SOL    HW2 7861   0.453   0.899   3.563 -0.4624  0.9183  0.2063
 1952SOL    HW3 7862   0.462   0.989   3.442 -0.9540 -0.0839 -0.5821
 1952SOL    MW4 7863   0.459   0.909   3.477 -0.0015  0.1990  0.1488
 1953SOL     OW 7864   0.452   1.173   3.412 -0.3125 -0.0214 -0.3515
 1953SOL    HW2 7865   0.529   1.214   3.451 -1.1065  0.4975  0.7221
 1953SOL    HW3 7866   0.469   1.172   3.318  0.9157  0.2609 -0.1340
 1953SOL    MW4 7867   0.464   1.178   3.405 -0.2552  0.0844 -0.1812
 1954SOL     OW 7868   0.689   1.278   3.514  0.2018  0.2105  0.5507
 1954SOL    HW2 7869   0.755   1.234   3.461  0.2327 -0.6269  1.2898
 1954SOL    HW3 7870   0.683   1.366   3.476  1.1088  0.0101 -0.0645
 1954SOL    MW4 7871   0.697   1.284   3.502  0.3256  0.0737  0.5667
 1955SOL     OW 7872   0.666   1.516   3.360  0.0025 -0.7819 -0.6367
 1955SOL    HW2 7873   0.746   1.541   3.407 -0.4388 -0.6740  0.0527
 1955SOL    HW3 7874   0.595   1.559   3.407 -0.3974 -0.2134 -1.7310
 1955SOL    MW4 7875   0.667   1.525   3.372 -0.1085 -0.6926 -0.6902
 1956SOL     OW 7876   0.476   1.643   3.522 -0.0779  0.1914  0.3959
 1956SOL    HW2 7877   0.456   1.649   3.615 -0.9155 -0.3038  0.2599
 1956SOL    HW3 7878   0.465   1.732   3.489 -0.9590  0.1389  0.5453
 1956SOL    MW4 7879   0.472   1.655   3.530 -0.3046  0.1191  0.3979
 1957SOL     OW 7880   0.408   1.896   3.418  0.1648 -0.0356  0.3665
 1957SOL    HW2 7881   0.352   1.963   3.457 -0.7175 -0.2798 -0.4797
 1957SOL    HW3 7882   0.410   1.917   3.325  1.3981 -0.0877  0.3723
 1957SOL    MW4 7883   0.401   1.908   3.411  0.2111 -0.0746  0.2556
 1958SOL     OW 7884   0.667   2.001   3.450  0.5730 -0.0616  0.3432
 1958SOL    HW2 7885   0.658   2.032   3.540 -0.1906  1.9559 -0.4121
 1958SOL    HW3 7886   0.585   1.953   3.433  0.1504  0.6730  0.2941
 1958SOL    MW4 7887   0.655   1.999   3.459  0.4165  0.3015  0.2370
 1959SOL     OW 7888   0.659   2.237   3.321 -0.0219 -0.4285  0.4310
 1959SOL    HW2 7889   0.731   2.286   3.360 -0.6903 -0.7959  2.1678
 1959SOL    HW3 7890   0.670   2.148   3.353 -1.0873 -0.5469  0.4864
 1959SOL    MW4 7891   0.670   2.232   3.330 -0.2507 -0.4926  0.6676
 1960SOL     OW 7892   0.465   2.383   3.470 -0.2822 -0.3002 -0.3749
 1960SOL    HW2 7893   0.540   2.334   3.436  0.0387  0.2317 -0.4307
 1960SOL    HW3 7894   0.388   2.338   3.433  0.0176 -0.6672 -0.5520
 1960SOL    MW4 7895   0.464   2.370   3.460 -0.2003 -0.2782 -0.4058
 1961SOL     OW 7896   0.463   2.653   3.352 -0.0094 -0.2387  0.6768
 1961SOL    HW2 7897   0.447   2.562   3.375  0.6809 -0.3419  0.7732
 1961SOL    HW3 7898   0.482   2.652   3.258  0.3356 -0.2422  0.7450
 1961SOL    MW4 7899   0.463   2.641   3.342  0.1272 -0.2530  0.6986
 1962SOL     OW 7900   0.651   2.804   3.471 -0.4532  0.0395  0.3876
 1962SOL    HW2 7901   0.731   2.762   3.440 -0.3013  1.6853 -1.5108
 1962SOL    HW3 7902   0.581   2.744   3.447  0.0367 -0.5346  0.3893
 1962SOL    MW4 7903   0.653   2.791   3.464 -0.3685  0.1807  0.1371
 1963SOL     OW 7904   0.662   3.043   3.342  0.1068 -0.4042 -0.2236
 1963SOL    HW2 7905   0.588   3.099   3.365  0.0991 -0.7655  0.6472
 1963SOL    HW3 7906   0.653   2.966   3.399  1.3805 -0.2693  0.1761
 1963SOL    MW4 7907   0.651   3.040   3.352  0.2738 -0.4339 -0.0560
 1964SOL     OW 7908   0.456   3.203   3.455 -0.2219  0.2288 -0.0488
 1964SOL    HW2 7909   0.455   3.222   3.549 -2.5929  2.1440 -0.3959
 1964SOL    HW3 7910   0.380   3.146   3.441  0.0438  0.0525 -0.8175
 1964SOL    MW4 7911   0.446   3.198   3.465 -0.4998  0.4582 -0.1957
 1965SOL     OW 7912   0.433   3.464   3.358  0.1278 -0.3230  0.3370
 1965SOL    HW2 7913   0.422   3.371   3.372 -1.2789 -0.3735 -0.9919
 1965SOL    HW3 7914   0.355   3.505   3.395  0.3113  0.2462  0.1165
 1965SOL    MW4 7915   0.422   3.457   3.365 -0.0336 -0.2544  0.1326
 1966SOL     OW 7916   0.665   3.571   3.456  0.1786 -0.4888 -0.0625
 1966SOL    HW2 7917   0.738   3.539   3.403  0.9942  0.3259  0.5539
 1966SOL    HW3 7918   0.588   3.530   3.417  0.9343 -1.1719 -0.8734
 1966SOL    MW4 7919   0.665   3.562   3.443  0.3859 -0.4716 -0.0882
 1967SOL     OW 7920   0.652   3.837   3.388  0.1498  1.1151 -0.3695
 1967SOL    HW2 7921   0.571   3.874   3.424 -0.1555  0.7131 -0.6353
 1967SOL    HW3 7922   0.650   3.745   3.413  0.7220  1.1962 -0.0366
 1967SOL    MW4 7923   0.641   3.830   3.396  0.1850  1.0729 -0.3605
 1968SOL     OW 7924   0.449   3.993   3.506 -0.1815 -0.4170  0.2535
 1968SOL    HW2 7925   0.481   4.073   3.464 -0.4627 -0.2953  0.2717
 1968SOL    HW3 7926   0.360   3.981   3.470 -0.7115  0.0876  1.3748
 1968SOL    MW4 7927   0.441   4.002   3.495 -0.2885 -0.3343  0.4039
 1969SOL     OW 7928   0.463   4.240   3.394  0.4144  0.6315 -0.2662
 1969SOL    HW2 7929   0.535   4.295   3.423  0.3301  1.1957 -1.1375
 1969SOL    HW3 7930   0.466   4.243   3.299  0.8101 -1.3866 -0.3533
 1969SOL    MW4 7931   0.473   4.248   3.385  0.4556  0.4396 -0.3924
 1970SOL     OW 7932   0.677   4.372   3.473 -0.0066  0.2115 -0.0902
 1970SOL    HW2 7933   0.755   4.325   3.444 -0.3121  0.0692 -0.7049
 1970SOL    HW3 7934   0.682   4.457   3.428 -0.6067 -0.1028 -0.7639
 1970SOL    MW4 7935   0.688   4.377   3.463 -0.1261  0.1512 -0.2604
 1971SOL     OW 7936   1.101   4.643   3.338  0.8959 -0.5123 -0.5783
 1971SOL    HW2 7937   1.187   4.676   3.364 -0.0170  2.8216 -1.4669
 1971SOL    HW3 7938   1.107   4.634   3.243 -0.3031  1.7108 -0.9038
 1971SOL    MW4 7939   1.113   4.646   3.329  0.6174  0.2208 -0.7386
 1972SOL     OW 7940   0.903   0.124   3.452  0.2744  0.7734  0.3271
 1972SOL    HW2 7941   0.897   0.129   3.547  0.0082  1.2239  0.2917
 1972SOL    HW3 7942   0.980   0.071   3.435 -1.3978 -1.8871  0.8031
 1972SOL    MW4 7943   0.912   0.118   3.462  0.0187  0.4818  0.3850
 1973SOL     OW 7944   0.883   0.400   3.365 -0.4171  0.1798 -0.3276
 1973SOL    HW2 7945   0.973   0.429   3.378  0.5883 -1.0405 -3.7821
 1973SOL    HW3 7946   0.879   0.314   3.407  0.6240 -0.5453 -1.6278
 1973SOL    MW4 7947   0.895   0.392   3.372 -0.1471 -0.0769 -0.9551
 1974SOL     OW 7948   1.155   0.515   3.437 -0.2849 -0.0067  0.1683
 1974SOL    HW2 7949   1.155   0.500   3.531  1.7589  1.8970  0.5167
 1974SOL    HW3 7950   1.149   0.611   3.428 -0.1982 -0.1504 -1.6234
 1974SOL    MW4 7951   1.154   0.526   3.448 -0.0038  0.2255 -0.0224
 1975SOL     OW 7952   1.129   0.781   3.384  0.0442 -0.1331  0.0080
 1975SOL    HW2 7953   1.208   0.820   3.422 -0.1689  0.9347 -0.6443
 1975SOL    HW3 7954   1.057   0.832   3.422 -0.2943 -0.5672 -0.0502
 1975SOL    MW4 7955   1.130   0.793   3.394 -0.0286 -0.0495 -0.0856
 1976SOL     OW 7956   0.891   0.879   3.507 -0.3548  0.4032 -0.3582
 1976SOL    HW2 7957   0.890   0.973   3.489  0.9838  0.0472 -2.5468
 1976SOL    HW3 7958   0.807   0.848   3.474 -0.0230  0.5714 -1.4064
 1976SOL    MW4 7959   0.880   0.887   3.500 -0.1345  0.3784 -0.7851
 1977SOL     OW 7960   0.873   1.132   3.377 -0.4056  0.1608 -0.6449
 1977SOL    HW2 7961   0.959   1.163   3.408 -0.6978 -0.5165  0.9086
 1977SOL    HW3 7962   0.883   1.123   3.282  1.1359  0.4109 -0.5168
 1977SOL    MW4 7963   0.886   1.135   3.369 -0.2407  0.1044 -0.4227
 1978SOL     OW 7964   1.141   1.214   3.449 -0.2309  0.2117  0.0092
 1978SOL    HW2 7965   1.132   1.219   3.545 -1.4096 -0.6530 -0.0429
 1978SOL    HW3 7966   1.142   1.306   3.421  1.8818  0.5071  0.9813
 1978SOL    MW4 7967   1.140   1.227   3.458 -0.1076  0.1366  0.1307
 1979SOL     OW 7968   1.174   1.510   3.375 -0.1864 -0.4979 -0.3224
 1979SOL    HW2 7969   1.240   1.574   3.401 -2.1994  1.0772  1.0077
 1979SOL    HW3 7970   1.179   1.507   3.280  2.5482 -1.2408 -0.2056
 1979SOL    MW4 7971   1.184   1.518   3.366 -0.0911 -0.3883 -0.1316
 1980SOL     OW 7972   0.912   1.620   3.459 -0.4612  0.1206  0.2424
 1980SOL    HW2 7973   0.908   1.689   3.394  1.3437 -0.1861 -0.2034
 1980SOL    HW3 7974   1.001   1.586   3.454 -1.0613 -1.6664  1.0433
 1980SOL    MW4 7975   0.923   1.625   3.450 -0.3023 -0.1556  0.2894
 1981SOL     OW 7976   0.897   1.880   3.367 -0.0094  0.1806 -0.4087
 1981SOL    HW2 7977   0.969   1.934   3.398  0.8627 -0.8290 -0.6409
 1981SOL    HW3 7978   0.818   1.921   3.403  0.8658 -0.1871  1.9775
 1981SOL    MW4 7979   0.896   1.892   3.376  0.2211 -0.0012 -0.1247
 1982SOL     OW 7980   1.100   2.051   3.473 -0.5629  0.2074 -0.3248
 1982SOL    HW2 7981   1.181   2.009   3.444 -1.1855  0.2206 -2.1719
 1982SOL    HW3 7982   1.095   2.132   3.421 -0.8043  1.1600  1.1539
 1982SOL    MW4 7983   1.110   2.057   3.462 -0.6769  0.3350 -0.3736
 1983SOL     OW 7984   1.111   2.309   3.361 -0.1323  0.1436 -0.0753
 1983SOL    HW2 7985   1.198   2.340   3.388 -0.7928  0.9932  1.1352
 1983SOL    HW3 7986   1.110   2.321   3.266  1.1210 -0.0010 -0.1225
 1983SOL    MW4 7987   1.123   2.315   3.352 -0.0541  0.2365  0.0782
 1984SOL     OW 7988   0.866   2.386   3.451  0.0981 -0.0104  0.1784
 1984SOL    HW2 7989   0.874   2.379   3.547  1.2521 -0.3461  0.0626
 1984SOL    HW3 7990   0.950   2.354   3.418 -0.9619 -1.6455 -1.0130
 1984SOL    MW4 7991   0.878   2.381   3.460  0.1105 -0.2704  0.0060
 1985SOL     OW 7992   0.895   2.668   3.408 -0.1864  0.2497  0.1504
 1985SOL    HW2 7993   0.980   2.707   3.427 -0.4050  1.5746 -1.4831
 1985SOL    HW3 7994   0.901   2.579   3.444  1.5902  0.6012  0.7729
 1985SOL    MW4 7995   0.907   2.661   3.415  0.0192  0.4709  0.0174
 1986SOL     OW 7996   1.156   2.780   3.478  0.3521  0.1233 -0.2856
 1986SOL    HW2 7997   1.151   2.765   3.573 -0.0242  2.8707  0.1744
 1986SOL    HW3 7998   1.234   2.732   3.450  1.9186  1.3632  1.8476
 1986SOL    MW4 7999   1.165   2.771   3.487  0.5091  0.6492  0.0567
 1987SOL     OW 8000   1.167   3.057   3.366 -0.1275 -0.3844 -0.3888
 1987SOL    HW2 8001   1.156   2.967   3.395 -0.3550  0.1274  1.2155
 1987SOL    HW3 8002   1.151   3.055   3.272 -1.5259 -1.7737 -0.1322
 1987SOL    MW4 8003   1.163   3.045   3.358 -0.3420 -0.5002 -0.1431
 1988SOL     OW 8004   0.910   3.174   3.449 -0.3730  0.1812 -0.0921
 1988SOL    HW2 8005   0.988   3.137   3.407  0.6049  2.6085 -0.4591
 1988SOL    HW3 8006   0.837   3.130   3.405  0.7253 -0.4090 -1.3708
 1988SOL    MW4 8007   0.910   3.163   3.438 -0.0992  0.4234 -0.3092
 1989SOL     OW 8008   0.919   3.463   3.372  0.3070 -0.2399 -0.0840
 1989SOL    HW2 8009   0.889   3.376   3.400  1.3632 -0.4914  0.2967
 1989SOL    HW3 8010   0.915   3.460   3.276 -2.9548  0.4926 -0.0383
 1989SOL    MW4 8011   0.915   3.451   3.363  0.0160 -0.1764 -0.0277
 1990SOL     OW 8012   1.143   3.584   3.508  0.1667  0.0600 -0.7361
 1990SOL    HW2 8013   1.144   3.574   3.603  0.0728 -1.9931 -0.9335
 1990SOL    HW3 8014   1.058   3.550   3.481  0.1720  0.6763 -1.5565
 1990SOL    MW4 8015   1.132   3.578   3.517  0.1549 -0.1297 -0.8702
 1991SOL     OW 8016   1.097   3.834   3.416 -0.1777 -0.1972 -0.2343
 1991SOL    HW2 8017   1.174   3.885   3.443  0.0830 -1.3256  1.2820
 1991SOL    HW3 8018   1.108   3.750   3.461 -2.3433 -0.3433  0.0674
 1991SOL    MW4 8019   1.109   3.830   3.426 -0.4292 -0.3653  0.0055
 1992SOL     OW 8020   0.865   3.977   3.495  0.0646  0.0983 -0.2355
 1992SOL    HW2 8021   0.950   3.936   3.477 -0.5217 -1.1713 -0.2169
 1992SOL    HW3 8022   0.801   3.918   3.454 -0.9303  0.0582  1.3050
 1992SOL    MW4 8023   0.868   3.964   3.487 -0.1440 -0.0746 -0.0298
 1993SOL     OW 8024   0.887   4.216   3.385 -0.2240  0.1820 -0.0970
 1993SOL    HW2 8025   0.870   4.127   3.416  1.3483 -0.1639 -0.1651
 1993SOL    HW3 8026   0.891   4.207   3.290  0.4204  0.2258 -0.0762
 1993SOL    MW4 8027   0.886   4.203   3.377  0.0685  0.1421 -0.1032
 1994SOL     OW 8028   1.107   4.389   3.441  0.0593  0.2094 -0.0419
 1994SOL    HW2 8029   1.026   4.351   3.408 -0.6112  1.7348 -0.2135
 1994SOL    HW3 8030   1.116   4.472   3.393  0.6582  1.0096  1.4269
 1994SOL    MW4 8031   1.098   4.395   3.430  0.0499  0.5164  0.1290
 1995SOL     OW 8032   1.589   4.645   3.334 -0.0240  0.2187  0.1692
 1995SOL    HW2 8033   1.600   4.558   3.371  0.2387  0.3316  0.3548
 1995SOL    HW3 8034   1.511   4.680   3.378  0.3261  0.3787  0.6716
 1995SOL    MW4 8035   1.580   4.638   3.345  0.0570  0.2546  0.2601
 1996SOL     OW 8036   1.342   0.085   3.436 -0.3775 -0.1413  0.3181
 1996SOL    HW2 8037   1.351   0.089   3.531  0.7232  1.4670  0.1641
 1996SOL    HW3 8038   1.349   0.176   3.407 -1.6500 -0.5096 -1.2306
 1996SOL    MW4 8039   1.344   0.098   3.445 -0.4002  0.0223  0.0932
 1997SOL     OW 8040   1.370   0.357   3.351 -0.1225  0.3470  0.1323
 1997SOL    HW2 8041   1.444   0.401   3.393 -1.1107  0.2070  2.0944
 1997SOL    HW3 8042   1.297   0.418   3.363 -0.3174  0.5304 -1.8764
 1997SOL    MW4 8043   1.370   0.371   3.358 -0.2787  0.3527  0.1259
 1998SOL     OW 8044   1.578   0.477   3.454 -0.3166  0.1649  0.4695
 1998SOL    HW2 8045   1.574   0.479   3.549  0.5049 -0.8280  0.5292
 1998SOL    HW3 8046   1.658   0.428   3.434 -1.8952 -2.0630 -0.7105
 1998SOL    MW4 8047   1.588   0.470   3.464 -0.4166 -0.2600  0.3219
 1999SOL     OW 8048   1.588   0.728   3.344 -0.2438  0.5433  0.1323
 1999SOL    HW2 8049   1.516   0.766   3.396 -0.0346  0.6148  0.3707
 1999SOL    HW3 8050   1.598   0.639   3.379  0.3503  0.8202  0.6795
 1999SOL    MW4 8051   1.580   0.721   3.356 -0.1379  0.5893  0.2358
 2000SOL     OW 8052   1.380   0.856   3.472 -0.6103  0.3796  0.0141
 2000SOL    HW2 8053   1.376   0.863   3.568  0.2407  1.7336 -0.0406
 2000SOL    HW3 8054   1.391   0.946   3.442  1.8671 -0.2966 -1.2228
 2000SOL    MW4 8055   1.381   0.869   3.481 -0.1712  0.4690 -0.1564
 2001SOL     OW 8056   1.397   1.112   3.377 -0.0625 -0.3933 -0.0293
 2001SOL    HW2 8057   1.465   1.173   3.405 -0.0870 -0.6617  0.6222
 2001SOL    HW3 8058   1.315   1.155   3.400 -0.0888 -0.4889  0.0571
 2001SOL    MW4 8059   1.395   1.126   3.384 -0.0691 -0.4414  0.0679
 2002SOL     OW 8060   1.592   1.276   3.463  0.3918  0.1996  0.0304
 2002SOL    HW2 8061   1.586   1.276   3.558 -0.7065  2.2834 -0.0013
 2002SOL    HW3 8062   1.661   1.213   3.443  0.3174 -0.6006  2.1673
 2002SOL    MW4 8063   1.600   1.268   3.473  0.2370  0.3688  0.3083
 2003SOL     OW 8064   1.599   1.532   3.372  0.4716 -0.3373  0.4247
 2003SOL    HW2 8065   1.597   1.437   3.390 -0.7804 -0.4071  0.0065
 2003SOL    HW3 8066   1.603   1.538   3.277 -1.3235  0.0227  0.3594
 2003SOL    MW4 8067   1.599   1.520   3.362  0.0697 -0.2990  0.3610
 2004SOL     OW 8068   1.371   1.679   3.465 -0.3827  0.2542  0.1545
 2004SOL    HW2 8069   1.377   1.681   3.560  1.5334  2.1245  0.0423
 2004SOL    HW3 8070   1.445   1.625   3.438  0.5613  1.7473 -0.3312
 2004SOL    MW4 8071   1.382   1.672   3.474 -0.0054  0.6980  0.0756
 2005SOL     OW 8072   1.366   1.954   3.401  0.1445  0.0963 -0.0900
 2005SOL    HW2 8073   1.445   1.983   3.446 -0.6711 -0.2746  1.6323
 2005SOL    HW3 8074   1.362   1.860   3.417 -2.0247  0.5131  2.0960
 2005SOL    MW4 8075   1.376   1.945   3.409 -0.2493  0.1024  0.4258
 2006SOL     OW 8076   1.590   2.064   3.497  0.5992  0.2125  0.1239
 2006SOL    HW2 8077   1.672   2.022   3.472 -0.4586 -0.7512 -1.8220
 2006SOL    HW3 8078   1.590   2.147   3.451  0.7534  0.4934  0.6224
 2006SOL    MW4 8079   1.601   2.069   3.488  0.4799  0.1223 -0.0670
 2007SOL     OW 8080   1.604   2.316   3.397 -0.4689  0.2812 -0.2051
 2007SOL    HW2 8081   1.523   2.353   3.431 -0.0565  2.1885 -1.2002
 2007SOL    HW3 8082   1.598   2.327   3.302  0.9754  0.5563 -0.2891
 2007SOL    MW4 8083   1.593   2.322   3.389 -0.2240  0.5691 -0.3476
 2008SOL     OW 8084   1.345   2.395   3.472 -0.4201  0.4057  0.8315
 2008SOL    HW2 8085   1.325   2.407   3.565 -0.9261  0.5767  0.7005
 2008SOL    HW3 8086   1.348   2.483   3.436  0.0398  0.3533  0.7377
 2008SOL    MW4 8087   1.343   2.408   3.480 -0.4262  0.4215  0.8018
 2009SOL     OW 8088   1.378   2.657   3.369  0.1482  0.3265  0.3332
 2009SOL    HW2 8089   1.462   2.697   3.391  0.4307  0.0296 -0.2081
 2009SOL    HW3 8090   1.365   2.677   3.276  1.0774 -2.2353 -0.3869
 2009SOL    MW4 8091   1.387   2.665   3.359  0.3082 -0.0505  0.1664
 2010SOL     OW 8092   1.600   2.801   3.459 -0.8859 -0.6418 -0.0646
 2010SOL    HW2 8093   1.668   2.759   3.408 -0.2293 -0.3895  0.5918
 2010SOL    HW3 8094   1.588   2.886   3.418 -1.5916 -1.1175 -0.8549
 2010SOL    MW4 8095   1.607   2.807   3.447 -0.8923 -0.6711 -0.0823
 2011SOL     OW 8096   1.573   3.076   3.344  0.5391  0.2771 -0.7130
 2011SOL    HW2 8097   1.646   3.121   3.385 -0.5419 -0.8952  2.6718
 2011SOL    HW3 8098   1.495   3.116   3.382 -0.4752 -2.6455  0.4634
 2011SOL    MW4 8099   1.572   3.087   3.354  0.2625 -0.2635 -0.1111
 2012SOL     OW 8100   1.367   3.212   3.460 -0.5555  0.4182 -0.7148
 2012SOL    HW2 8101   1.358   3.213   3.555 -1.1813  0.4755 -0.7711
 2012SOL    HW3 8102   1.297   3.155   3.430 -0.7934  0.9465 -1.1821
 2012SOL    MW4 8103   1.356   3.205   3.468 -0.6692  0.4957 -0.7839
 2013SOL     OW 8104   1.348   3.468   3.366  0.5140  0.2198 -0.4784
 2013SOL    HW2 8105   1.338   3.376   3.389  1.0473  0.0761 -0.8321
 2013SOL    HW3 8106   1.277   3.512   3.413  0.3274 -0.3546 -0.2229
 2013SOL    MW4 8107   1.337   3.462   3.375  0.5597  0.1252 -0.4916
 2014SOL     OW 8108   1.572   3.619   3.426 -0.1666  0.3181 -0.3612
 2014SOL    HW2 8109   1.583   3.615   3.521  1.7230 -0.3898 -0.5976
 2014SOL    HW3 8110   1.502   3.557   3.407  0.5247 -0.7244  0.4244
 2014SOL    MW4 8111   1.564   3.610   3.436  0.1739  0.0875 -0.2885
 2015SOL     OW 8112   1.540   3.895   3.348  0.1773  0.0757 -0.0085
 2015SOL    HW2 8113   1.549   3.805   3.379 -0.0794  0.4844  1.2798
 2015SOL    HW3 8114   1.547   3.888   3.252  0.0248 -1.3228  0.0675
 2015SOL    MW4 8115   1.542   3.882   3.339  0.1233 -0.0548  0.1714
 2016SOL     OW 8116   1.325   4.003   3.485 -0.0712  0.1553  0.1973
 2016SOL    HW2 8117   1.331   4.094   3.455 -0.7357 -0.1225 -0.7969
 2016SOL    HW3 8118   1.405   3.962   3.451  0.6127  0.5440  1.3040
 2016SOL    MW4 8119   1.336   4.010   3.476 -0.0687  0.1698  0.2122
 2017SOL     OW 8120   1.342   4.283   3.338 -0.3610 -0.1278  0.3215
 2017SOL    HW2 8121   1.260   4.319   3.373 -1.1355 -1.3960 -0.1285
 2017SOL    HW3 8122   1.328   4.278   3.244  0.0198 -0.8598  0.2959
 2017SOL    MW4 8123   1.329   4.287   3.330 -0.4129 -0.3915  0.2587
 2018SOL     OW 8124   1.565   4.400   3.476 -0.4735 -0.1987  0.1936
 2018SOL    HW2 8125   1.638   4.347   3.445  0.4903  1.1702  0.0805
 2018SOL    HW3 8126   1.490   4.370   3.425  0.2303 -0.8482 -0.4779
 2018SOL    MW4 8127   1.565   4.389   3.465 -0.2536 -0.1044  0.0904
 2019SOL     OW 8128   2.042   4.626   3.306  0.2429 -0.2120 -0.5841
 2019SOL    HW2 8129   2.115   4.669   3.351 -0.8366  2.4939 -1.3358
 2019SOL    HW3 8130   1.963   4.662   3.347 -0.7288  0.9517 -3.3336
 2019SOL    MW4 8131   2.041   4.637   3.317 -0.0277  0.2990 -1.0462
 2020SOL     OW 8132   1.821   0.055   3.459  0.2658 -0.2947  0.1975
 2020SOL    HW2 8133   1.820   0.072   3.553  0.3586  2.0503 -0.1817
 2020SOL    HW3 8134   1.731   0.031   3.438 -0.1084  0.6811  0.6535
 2020SOL    MW4 8135   1.809   0.054   3.468  0.2288  0.1434  0.2074
 2021SOL     OW 8136   1.807   0.345   3.380 -0.5988  0.2606 -0.2432
 2021SOL    HW2 8137   1.824   0.252   3.400  1.9655  1.0127  1.2789
 2021SOL    HW3 8138   1.805   0.349   3.284 -0.6232 -1.3325 -0.3269
 2021SOL    MW4 8139   1.809   0.333   3.370 -0.2638  0.1497 -0.0534
 2022SOL     OW 8140   2.027   0.494   3.494 -0.3211 -0.1106  0.1256
 2022SOL    HW2 8141   2.026   0.583   3.457  1.1782 -1.3423 -3.0602
 2022SOL    HW3 8142   1.941   0.459   3.476 -0.2222 -0.0363 -0.4861
 2022SOL    MW4 8143   2.016   0.501   3.487 -0.1099 -0.2633 -0.3757
 2023SOL     OW 8144   2.004   0.742   3.396  0.0915 -0.3829 -0.1735
 2023SOL    HW2 8145   2.076   0.786   3.443 -1.2008  0.9887  0.5775
 2023SOL    HW3 8146   2.030   0.748   3.303  0.6384  0.6984  0.0319
 2023SOL    MW4 8147   2.017   0.749   3.390 -0.0069 -0.0593 -0.0470
 2024SOL     OW 8148   1.773   0.843   3.508 -0.5680  0.3873 -0.1718
 2024SOL    HW2 8149   1.854   0.799   3.481 -0.3370  0.6677  0.0488
 2024SOL    HW3 8150   1.705   0.804   3.454 -0.6188 -1.3708  1.1244
 2024SOL    MW4 8151   1.775   0.832   3.497 -0.5443  0.1923  0.0284
 2025SOL     OW 8152   1.797   1.111   3.389  0.0492 -0.5150 -0.0421
 2025SOL    HW2 8153   1.871   1.161   3.424  0.5545 -1.0446 -0.3239
 2025SOL    HW3 8154   1.799   1.029   3.438  1.0361 -1.4461 -1.5785
 2025SOL    MW4 8155   1.807   1.107   3.400  0.2460 -0.7077 -0.2820
 2026SOL     OW 8156   2.021   1.272   3.449  0.3691  0.2648 -0.2127
 2026SOL    HW2 8157   2.017   1.274   3.545  2.8423  0.9729 -0.0936
 2026SOL    HW3 8158   2.030   1.364   3.424  0.2628  0.0313 -1.1175
 2026SOL    MW4 8159   2.021   1.284   3.459  0.6812  0.3275 -0.3166
 2027SOL     OW 8160   2.032   1.545   3.385 -0.6063 -0.2552  0.0914
 2027SOL    HW2 8161   2.107   1.574   3.436 -0.4872  0.2325 -0.3539
 2027SOL    HW3 8162   1.956   1.580   3.432 -0.5181 -0.1396  0.1477
 2027SOL    MW4 8163   2.032   1.554   3.398 -0.5789 -0.1756  0.0403
 2028SOL     OW 8164   1.798   1.664   3.523 -0.3583 -0.0806  0.0520
 2028SOL    HW2 8165   1.796   1.753   3.488 -0.4179  0.5737  1.6852
 2028SOL    HW3 8166   1.738   1.615   3.466  0.8230  0.5466 -1.7950
 2028SOL    MW4 8167   1.790   1.670   3.511 -0.2103  0.0886  0.0238
 2029SOL     OW 8168   1.811   1.919   3.418 -0.5611 -0.7688 -0.1193
 2029SOL    HW2 8169   1.899   1.951   3.438 -0.9252  0.9416 -1.2467
 2029SOL    HW3 8170   1.809   1.910   3.323 -2.0903  0.6157 -0.2246
 2029SOL    MW4 8171   1.822   1.922   3.408 -0.8109 -0.3606 -0.2818
 2030SOL     OW 8172   2.034   2.062   3.495  0.1920  0.4005 -0.0546
 2030SOL    HW2 8173   2.099   2.000   3.463  0.6307  1.1745 -0.6868
 2030SOL    HW3 8174   2.031   2.131   3.428 -1.0298  0.5440  0.1323
 2030SOL    MW4 8175   2.042   2.063   3.482  0.0887  0.5219 -0.1130
 2031SOL     OW 8176   2.038   2.303   3.351  0.1469 -0.0256 -0.1114
 2031SOL    HW2 8177   2.120   2.347   3.374 -0.6969  1.2200  0.5768
 2031SOL    HW3 8178   2.038   2.299   3.256 -1.1043  4.1594 -0.3778
 2031SOL    MW4 8179   2.049   2.308   3.342 -0.1297  0.6909 -0.0558
 2032SOL     OW 8180   1.824   2.455   3.475 -0.5706  0.0198 -0.5072
 2032SOL    HW2 8181   1.900   2.411   3.436 -1.2192 -2.2211  0.6602
 2032SOL    HW3 8182   1.749   2.401   3.449 -1.6640  1.6643 -0.8337
 2032SOL    MW4 8183   1.824   2.442   3.467 -0.8005 -0.0589 -0.3965
 2033SOL     OW 8184   1.810   2.675   3.317  0.3561 -0.3736 -0.5042
 2033SOL    HW2 8185   1.886   2.727   3.342  0.6066 -0.3521 -1.3248
 2033SOL    HW3 8186   1.812   2.600   3.377  0.5947  0.0101 -0.0291
 2033SOL    MW4 8187   1.820   2.672   3.328  0.4206 -0.3202 -0.5498
 2034SOL     OW 8188   2.000   2.863   3.407  0.5320 -0.0873 -0.2490
 2034SOL    HW2 8189   2.014   2.874   3.501  0.5952 -0.4021 -0.2209
 2034SOL    HW3 8190   2.007   2.952   3.371 -0.8847  0.2340  0.2218
 2034SOL    MW4 8191   2.003   2.877   3.415  0.3533 -0.0863 -0.1833
 2035SOL     OW 8192   2.011   3.140   3.342 -0.5235  0.1297  0.3120
 2035SOL    HW2 8193   2.081   3.175   3.397 -1.0745  0.6827  0.6673
 2035SOL    HW3 8194   1.930   3.160   3.389 -1.1171  1.9399 -1.3988
 2035SOL    MW4 8195   2.010   3.147   3.355 -0.6745  0.4413  0.1335
 2036SOL     OW 8196   1.778   3.188   3.488  0.2977 -0.1829 -0.2007
 2036SOL    HW2 8197   1.779   3.211   3.581  1.0106 -2.0921  0.2945
 2036SOL    HW3 8198   1.782   3.272   3.443  0.5808  0.7509  1.5034
 2036SOL    MW4 8199   1.779   3.202   3.494  0.4293 -0.3114  0.0894
 2037SOL     OW 8200   1.790   3.439   3.371 -0.2480  0.1326 -0.0555
 2037SOL    HW2 8201   1.722   3.500   3.396  0.6121  1.5218 -1.0346
 2037SOL    HW3 8202   1.790   3.439   3.275  0.5670 -0.4764 -0.0714
 2037SOL    MW4 8203   1.781   3.447   3.361 -0.0269  0.2358 -0.1864
 2038SOL     OW 8204   1.979   3.598   3.496 -0.2508  0.1158 -0.0121
 2038SOL    HW2 8205   2.060   3.550   3.476 -0.2595 -0.4677  1.2885
 2038SOL    HW3 8206   1.911   3.550   3.449 -0.1763 -0.8379  0.8357
 2038SOL    MW4 8207   1.981   3.585   3.487 -0.2422 -0.0870  0.2713
 2039SOL     OW 8208   2.029   3.851   3.389  0.0459 -0.2056  0.6579
 2039SOL    HW2 8209   1.960   3.911   3.417  0.1556  0.2313  0.0141
 2039SOL    HW3 8210   2.003   3.766   3.424 -0.6651  0.0128  0.6654
 2039SOL    MW4 8211   2.017   3.848   3.397 -0.0334 -0.1192  0.5741
 2040SOL     OW 8212   1.793   3.992   3.423  0.3373  0.1582  0.4909
 2040SOL    HW2 8213   1.798   3.992   3.519  0.0366 -1.4753  0.5131
 2040SOL    HW3 8214   1.708   3.954   3.403  0.8179 -0.4635 -0.4439
 2040SOL    MW4 8215   1.783   3.987   3.433  0.3611 -0.1392  0.3703
 2041SOL     OW 8216   1.763   4.246   3.357 -0.2890 -0.1080  0.2160
 2041SOL    HW2 8217   1.777   4.155   3.385  2.1543  0.4295  0.8808
 2041SOL    HW3 8218   1.757   4.241   3.262 -0.7528 -1.0410  0.2895
 2041SOL    MW4 8219   1.764   4.233   3.348 -0.0279 -0.1607  0.3133
 2042SOL     OW 8220   2.004   4.368   3.460  0.4282 -0.0433 -0.3786
 2042SOL    HW2 8221   1.942   4.312   3.414 -0.9394  0.2436  1.0632
 2042SOL    HW3 8222   2.021   4.440   3.399 -0.8385 -0.0193 -0.7250
 2042SOL    MW4 8223   1.998   4.370   3.446  0.0806 -0.0029 -0.2339
 2043SOL     OW 8224   2.493   4.638   3.331 -0.4899  0.3689 -0.1515
 2043SOL    HW2 8225   2.483   4.544   3.348 -1.0822  0.8175  2.1646
 2043SOL    HW3 8226   2.496   4.645   3.235  0.1536 -2.0572 -0.3396
 2043SOL    MW4 8227   2.492   4.626   3.320 -0.4828  0.1082  0.1295
 2044SOL     OW 8228   2.255   0.065   3.433  0.5038 -0.4358 -0.7487
 2044SOL    HW2 8229   2.249   0.159   3.418  0.6110 -0.2524  0.3148
 2044SOL    HW3 8230   2.345   0.042   3.409  1.5286  0.3416  2.1672
 2044SOL    MW4 8231   2.266   0.074   3.428  0.6530 -0.3090 -0.2236
 2045SOL     OW 8232   2.246   0.334   3.417  0.1774  0.2827 -0.0104
 2045SOL    HW2 8233   2.327   0.379   3.441  0.2057 -0.3046  1.0154
 2045SOL    HW3 8234   2.176   0.394   3.441  0.3035  0.9263 -1.1908
 2045SOL    MW4 8235   2.248   0.348   3.423  0.1979  0.2901 -0.0305
 2046SOL     OW 8236   2.476   0.476   3.482 -0.0809  0.2234 -0.2180
 2046SOL    HW2 8237   2.560   0.438   3.458  0.0730 -0.7047  1.6879
 2046SOL    HW3 8238   2.489   0.570   3.476  0.5884  0.0637 -1.5343
 2046SOL    MW4 8239   2.489   0.483   3.478  0.0279  0.0799 -0.1404
 2047SOL     OW 8240   2.468   0.752   3.436  0.2099  0.2525 -0.2818
 2047SOL    HW2 8241   2.545   0.787   3.480  1.0376 -0.2634 -1.3066
 2047SOL    HW3 8242   2.489   0.756   3.342 -0.2894 -1.5190 -0.4937
 2047SOL    MW4 8243   2.481   0.757   3.429  0.2534 -0.0493 -0.4449
 2048SOL     OW 8244   2.225   0.872   3.491  0.4591 -0.0665  0.0729
 2048SOL    HW2 8245   2.234   0.959   3.453 -0.2797 -0.4621 -1.0222
 2048SOL    HW3 8246   2.310   0.831   3.478  0.5582  0.2061 -0.1395
 2048SOL    MW4 8247   2.237   0.878   3.485  0.3746 -0.0827 -0.0994
 2049SOL     OW 8248   2.246   1.118   3.382  0.3021  0.0259  0.2660
 2049SOL    HW2 8249   2.315   1.183   3.397 -0.2027  0.2529  1.7666
 2049SOL    HW3 8250   2.166   1.161   3.414 -0.7170  0.1313 -2.2946
 2049SOL    MW4 8251   2.244   1.133   3.388  0.1013  0.0700  0.1261
 2050SOL     OW 8252   2.470   1.262   3.469 -0.1813 -0.2095  0.3817
 2050SOL    HW2 8253   2.465   1.272   3.564 -1.0673  1.6283  0.1613
 2050SOL    HW3 8254   2.546   1.206   3.455 -0.5188 -1.1670  2.2125
 2050SOL    MW4 8255   2.479   1.256   3.480 -0.3431 -0.0933  0.5939
 2051SOL     OW 8256   2.495   1.528   3.389  0.7453 -0.3733 -0.6830
 2051SOL    HW2 8257   2.495   1.436   3.415 -1.2461 -0.0690  0.4602
 2051SOL    HW3 8258   2.482   1.525   3.294 -0.9705 -1.2492 -0.4442
 2051SOL    MW4 8259   2.494   1.515   3.380  0.2561 -0.4487 -0.5007
 2052SOL     OW 8260   2.274   1.637   3.493  0.6050 -0.0601 -0.0845
 2052SOL    HW2 8261   2.271   1.631   3.588  0.2502  0.8554 -0.0355
 2052SOL    HW3 8262   2.354   1.589   3.469  0.4788 -0.6355  0.6379
 2052SOL    MW4 8263   2.284   1.630   3.502  0.5417 -0.0153  0.0174
 2053SOL     OW 8264   2.236   1.890   3.385 -0.3038  0.5375 -0.0748
 2053SOL    HW2 8265   2.258   1.800   3.409 -1.1996  0.2945 -0.1513
 2053SOL    HW3 8266   2.244   1.892   3.289  0.3133  0.7008 -0.0189
 2053SOL    MW4 8267   2.240   1.878   3.375 -0.3405  0.5269 -0.0775
 2054SOL     OW 8268   2.464   2.040   3.449 -0.2225  0.0900  0.0003
 2054SOL    HW2 8269   2.470   2.039   3.544  0.5929  0.0039 -0.0532
 2054SOL    HW3 8270   2.393   1.979   3.429  0.2228 -0.6039  0.5132
 2054SOL    MW4 8271   2.455   2.031   3.459 -0.0565 -0.0129  0.0608
 2055SOL     OW 8272   2.479   2.296   3.320 -0.1033  0.1130 -0.2101
 2055SOL    HW2 8273   2.566   2.322   3.351 -0.4642  0.3818  0.6090
 2055SOL    HW3 8274   2.465   2.209   3.357 -0.1550  0.0457 -0.3881
 2055SOL    MW4 8275   2.488   2.288   3.329 -0.1578  0.1397 -0.1256
 2056SOL     OW 8276   2.276   2.422   3.456 -0.0319  0.2834  0.4139
 2056SOL    HW2 8277   2.257   2.512   3.429 -1.6041 -0.2327 -0.2528
 2056SOL    HW3 8278   2.355   2.398   3.407 -0.3743  0.8501 -0.4199
 2056SOL    MW4 8279   2.284   2.431   3.446 -0.2844  0.2899  0.2160
 2057SOL     OW 8280   2.214   2.682   3.380  0.3612  0.1872  0.1671
 2057SOL    HW2 8281   2.142   2.739   3.406  1.1126  0.8986  0.7211
 2057SOL    HW3 8282   2.211   2.681   3.285 -1.3502 -1.0562  0.2108
 2057SOL    MW4 8283   2.204   2.689   3.371  0.2346  0.1171  0.2463
 2058SOL     OW 8284   2.490   2.810   3.425 -0.2031 -0.4013 -0.4823
 2058SOL    HW2 8285   2.467   2.903   3.418 -0.0471 -0.1839  1.7072
 2058SOL    HW3 8286   2.407   2.764   3.416 -0.5127  0.0326  0.1735
 2058SOL    MW4 8287   2.476   2.816   3.423 -0.2234 -0.3152 -0.1066
 2059SOL     OW 8288   2.447   3.078   3.415  0.0522  0.2312 -0.4589
 2059SOL    HW2 8289   2.527   3.127   3.435  0.6073 -0.9363  0.2135
 2059SOL    HW3 8290   2.439   3.083   3.320  0.9276  0.3696 -0.5324
 2059SOL    MW4 8291   2.457   3.085   3.405  0.2408  0.0956 -0.3800
 2060SOL     OW 8292   2.241   3.231   3.502 -0.0996 -0.1252 -0.1812
 2060SOL    HW2 8293   2.253   3.227   3.597 -1.3420 -1.4746 -0.0686
 2060SOL    HW3 8294   2.314   3.180   3.466  0.3128  0.3006  0.0479
 2060SOL    MW4 8295   2.253   3.224   3.510 -0.2091 -0.2470 -0.1361
 2061SOL     OW 8296   2.210   3.495   3.424  0.4317 -0.6191  0.2264
 2061SOL    HW2 8297   2.225   3.402   3.443 -0.6768 -0.6737  0.9167
 2061SOL    HW3 8298   2.202   3.499   3.329 -2.0924 -1.6726  0.3353
 2061SOL    MW4 8299   2.211   3.483   3.414 -0.0477 -0.7651  0.3319
 2062SOL     OW 8300   2.456   3.569   3.468 -0.3351 -0.1045  0.0097
 2062SOL    HW2 8301   2.464   3.655   3.426  1.5172 -1.4609 -2.5006
 2062SOL    HW3 8302   2.365   3.543   3.452 -0.2686  0.3876 -1.2124
 2062SOL    MW4 8303   2.445   3.577   3.460 -0.0820 -0.2184 -0.4828
 2063SOL     OW 8304   2.492   3.818   3.372  0.4718  0.1105 -0.6737
 2063SOL    HW2 8305   2.570   3.864   3.402  0.3741  0.5267 -1.0475
 2063SOL    HW3 8306   2.421   3.880   3.388  0.1849 -0.3775 -0.0694
 2063SOL    MW4 8307   2.493   3.832   3.378  0.4210  0.1013 -0.6433
 2064SOL     OW 8308   2.273   3.984   3.465 -0.0798 -0.5427 -0.3040
 2064SOL    HW2 8309   2.272   4.075   3.437  0.6094 -0.8477 -1.3249
 2064SOL    HW3 8310   2.190   3.948   3.435  0.1427 -0.5525 -0.9033
 2064SOL    MW4 8311   2.262   3.991   3.458  0.0403 -0.5841 -0.5178
 2065SOL     OW 8312   2.238   4.245   3.387 -0.4236  0.0905  0.0795
 2065SOL    HW2 8313   2.164   4.299   3.416 -0.8967 -0.4254 -0.1332
 2065SOL    HW3 8314   2.226   4.238   3.292  0.0714  0.2512  0.0038
 2065SOL    MW4 8315   2.226   4.251   3.378 -0.4206  0.0439  0.0415
 2066SOL     OW 8316   2.489   4.369   3.449 -0.3267  0.3775  0.3615
 2066SOL    HW2 8317   2.506   4.380   3.542  1.6670  0.3010  0.0359
 2066SOL    HW3 8318   2.404   4.325   3.445 -0.5010  0.5257  2.1354
 2066SOL    MW4 8319   2.480   4.364   3.460 -0.0863  0.3867  0.5527
 2067SOL     OW 8320   2.958   4.643   3.342 -0.1097  0.1639  0.6942
 2067SOL    HW2 8321   2.876   4.684   3.368 -0.1355  0.3886  0.2670
 2067SOL    HW3 8322   2.961   4.654   3.247 -0.3609 -1.2804  0.5084
 2067SOL    MW4 8323   2.948   4.650   3.333 -0.1462  0.0029  0.6135
 2068SOL     OW 8324   2.724   0.083   3.448 -0.0576  0.0815 -0.3251
 2068SOL    HW2 8325   2.709   0.177   3.444 -2.5494 -0.1723  1.6608
 2068SOL    HW3 8326   2.649   0.045   3.402 -0.2129 -0.9968  0.7888
 2068SOL    MW4 8327   2.712   0.090   3.441 -0.4070 -0.0942  0.0839
 2069SOL     OW 8328   2.715   0.352   3.404 -0.5523 -0.5425  0.3295
 2069SOL    HW2 8329   2.789   0.409   3.428 -0.0382 -1.4799  1.0104
 2069SOL    HW3 8330   2.709   0.359   3.309 -0.9580  1.2116  0.4658
 2069SOL    MW4 8331   2.724   0.360   3.395 -0.5379 -0.4347  0.4377
 2070SOL     OW 8332   2.929   0.504   3.491 -0.1183 -0.3810 -0.3190
 2070SOL    HW2 8333   2.935   0.505   3.586  1.5282  0.2052 -0.4144
 2070SOL    HW3 8334   2.904   0.593   3.467  0.7498 -0.1871 -0.5061
 2070SOL    MW4 8335   2.926   0.516   3.500  0.2134 -0.2780 -0.3560
 2071SOL     OW 8336   2.886   0.762   3.422 -0.7264 -0.0305 -0.0460
 2071SOL    HW2 8337   2.969   0.785   3.462 -0.3039 -0.1180 -0.8609
 2071SOL    HW3 8338   2.820   0.808   3.474 -0.1622  0.1118  0.5430
 2071SOL    MW4 8339   2.888   0.771   3.434 -0.5965 -0.0232 -0.0758
 2072SOL     OW 8340   2.687   0.879   3.541 -0.2663 -0.1951 -0.1422
 2072SOL    HW2 8341   2.670   0.901   3.633  0.3411 -1.3253  0.2533
 2072SOL    HW3 8342   2.679   0.962   3.495 -1.0697  0.3010  0.8618
 2072SOL    MW4 8343   2.684   0.893   3.547 -0.2923 -0.2788  0.0424
 2073SOL     OW 8344   2.705   1.122   3.406 -0.0017  0.1008  0.4847
 2073SOL    HW2 8345   2.787   1.170   3.419  1.2628 -1.8640 -0.0440
 2073SOL    HW3 8346   2.706   1.096   3.314 -0.9060 -0.5007  0.6373
 2073SOL    MW4 8347   2.716   1.125   3.396  0.0458 -0.2378  0.4351
 2074SOL     OW 8348   2.936   1.250   3.455  0.3128 -0.0172  0.5900
 2074SOL    HW2 8349   2.953   1.260   3.549 -1.2690 -0.6941  0.9664
 2074SOL    HW3 8350   3.000   1.184   3.426  1.9062  1.3800  0.8242
 2074SOL    MW4 8351   2.947   1.242   3.464  0.3145  0.0778  0.6709
 2075SOL     OW 8352   2.943   1.513   3.372 -0.6202 -0.2865  0.2399
 2075SOL    HW2 8353   2.851   1.535   3.382 -0.8106 -0.5302 -0.9056
 2075SOL    HW3 8354   2.946   1.418   3.377 -0.3370 -0.2412  0.9780
 2075SOL    MW4 8355   2.932   1.504   3.374 -0.6080 -0.3127  0.1862
 2076SOL     OW 8356   2.731   1.658   3.498 -0.4502 -0.3821  0.0958
 2076SOL    HW2 8357   2.724   1.742   3.453  1.1103 -0.0525  0.4371
 2076SOL    HW3 8358   2.657   1.607   3.465 -2.1164  1.5206  0.7835
 2076SOL    MW4 8359   2.721   1.662   3.488 -0.4642 -0.0877  0.2315
 2077SOL     OW 8360   2.670   1.884   3.368  0.2029  0.0016 -0.1747
 2077SOL    HW2 8361   2.592   1.939   3.377  0.0013 -0.2934 -0.0756
 2077SOL    HW3 8362   2.677   1.868   3.274  0.6014  0.6733 -0.2608
 2077SOL    MW4 8363   2.661   1.889   3.357  0.2289  0.0513 -0.1733
 2078SOL     OW 8364   2.872   2.040   3.459 -0.2572 -0.1888  0.1863
 2078SOL    HW2 8365   2.876   2.039   3.554 -1.4683  1.0502  0.2553
 2078SOL    HW3 8366   2.799   1.982   3.437 -1.6703  1.5662  0.1337
 2078SOL    MW4 8367   2.863   2.032   3.469 -0.6034  0.2062  0.1886
 2079SOL     OW 8368   2.948   2.271   3.341  0.3436 -0.1334  0.4430
 2079SOL    HW2 8369   2.926   2.182   3.369 -0.0794  0.4397  1.9110
 2079SOL    HW3 8370   2.942   2.267   3.245  2.0156 -2.1356  0.3658
 2079SOL    MW4 8371   2.944   2.258   3.332  0.5085 -0.3221  0.6263
 2080SOL     OW 8372   2.713   2.389   3.422  0.1208  0.6321 -0.1129
 2080SOL    HW2 8373   2.712   2.390   3.518 -0.4540 -1.1982 -0.0756
 2080SOL    HW3 8374   2.799   2.354   3.399  0.1399  0.7709 -0.2522
 2080SOL    MW4 8375   2.724   2.385   3.432  0.0472  0.4086 -0.1264
 2081SOL     OW 8376   2.729   2.673   3.370 -0.0827  0.4967 -0.4048
 2081SOL    HW2 8377   2.709   2.586   3.404 -0.4045  0.1094 -1.5804
 2081SOL    HW3 8378   2.651   2.725   3.389  0.0837  0.5128  0.2397
 2081SOL    MW4 8379   2.716   2.668   3.377 -0.1032  0.4478 -0.4752
 2082SOL     OW 8380   2.961   2.815   3.459 -0.0559  0.4797 -0.3072
 2082SOL    HW2 8381   2.958   2.820   3.555 -0.5032  0.9270 -0.3451
 2082SOL    HW3 8382   2.873   2.786   3.434  0.6838 -1.7249 -0.4520
 2082SOL    MW4 8383   2.949   2.812   3.468 -0.0174  0.2477 -0.3312
 2083SOL     OW 8384   2.912   3.063   3.363 -0.2016 -0.6340  0.1486
 2083SOL    HW2 8385   2.942   2.975   3.386 -0.0345 -0.6236 -0.0271
 2083SOL    HW3 8386   2.925   3.068   3.268 -0.3445 -0.4710  0.1383
 2083SOL    MW4 8387   2.917   3.052   3.353 -0.1981 -0.6113  0.1237
 2084SOL     OW 8388   2.688   3.180   3.490  0.3350  0.7344 -0.4114
 2084SOL    HW2 8389   2.699   3.171   3.585  0.7211  0.4817 -0.4773
 2084SOL    HW3 8390   2.752   3.119   3.453 -0.8625 -0.3011 -0.8292
 2084SOL    MW4 8391   2.698   3.171   3.498  0.2277  0.5643 -0.4754
 2085SOL     OW 8392   2.678   3.428   3.349  0.7759 -0.1194  0.4429
 2085SOL    HW2 8393   2.673   3.351   3.406 -0.4196  0.4284  1.0956
 2085SOL    HW3 8394   2.612   3.488   3.384  1.3293  0.9860 -0.3865
 2085SOL    MW4 8395   2.669   3.426   3.361  0.6914  0.0987  0.4194
 2086SOL     OW 8396   2.909   3.564   3.463 -0.1672  0.0056 -0.0357
 2086SOL    HW2 8397   2.917   3.655   3.435 -0.4620  0.3629  1.0095
 2086SOL    HW3 8398   2.829   3.532   3.422 -0.1665  0.2702 -0.2434
 2086SOL    MW4 8399   2.900   3.571   3.454 -0.2062  0.0875  0.0749
 2087SOL     OW 8400   2.950   3.821   3.375 -0.2138 -0.0707 -0.2098
 2087SOL    HW2 8401   3.022   3.868   3.417 -0.1149 -1.2051  0.9060
 2087SOL    HW3 8402   2.872   3.870   3.402  0.0648  0.7570 -0.8675
 2087SOL    MW4 8403   2.949   3.834   3.384 -0.1640 -0.1113 -0.1495
 2088SOL     OW 8404   2.724   3.986   3.433  0.0158  0.5433 -0.3244
 2088SOL    HW2 8405   2.712   4.015   3.524 -1.0699 -0.0537 -0.2706
 2088SOL    HW3 8406   2.717   4.067   3.382 -0.6395  0.7101  0.0219
 2088SOL    MW4 8407   2.721   4.001   3.438 -0.2136  0.4864 -0.2716
 2089SOL     OW 8408   2.723   4.247   3.337 -0.3815  0.3128  0.2987
 2089SOL    HW2 8409   2.785   4.302   3.386 -0.1885  0.7958 -0.4761
 2089SOL    HW3 8410   2.637   4.271   3.371 -0.1866  0.0098  1.0205
 2089SOL    MW4 8411   2.720   4.258   3.348 -0.3307  0.3362  0.2918
 2090SOL     OW 8412   2.939   4.395   3.460 -0.2480 -0.3255 -0.0848
 2090SOL    HW2 8413   2.947   4.418   3.552 -0.6484 -1.0330  0.1305
 2090SOL    HW3 8414   2.948   4.478   3.413 -1.3555  0.2192  0.6633
 2090SOL    MW4 8415   2.941   4.409   3.466 -0.4470 -0.3476  0.0424
 2091SOL     OW 8416   3.390   4.667   3.409 -0.1676 -0.0368 -0.2078
 2091SOL    HW2 8417   3.304   4.696   3.440 -0.3754 -1.0267  0.1643
 2091SOL    HW3 8418   3.379   4.655   3.314 -0.3108  0.2807 -0.2307
 2091SOL    MW4 8419   3.377   4.669   3.400 -0.2139 -0.1254 -0.1614
 2092SOL     OW 8420   3.151   0.115   3.498 -0.6454 -0.5305  0.2117
 2092SOL    HW2 8421   3.162   0.206   3.469 -0.3175 -0.6817 -0.1550
 2092SOL    HW3 8422   3.073   0.084   3.451 -1.2769 -0.1681  1.0198
 2092SOL    MW4 8423   3.142   0.123   3.488 -0.6855 -0.5026  0.2701
 2093SOL     OW 8424   3.178   0.384   3.408 -0.2830 -0.4200  0.0863
 2093SOL    HW2 8425   3.099   0.436   3.423  0.6323  0.7231  1.1345
 2093SOL    HW3 8426   3.179   0.368   3.314 -1.1219  0.6089 -0.1102
 2093SOL    MW4 8427   3.168   0.389   3.398 -0.2730 -0.1334  0.1988
 2094SOL     OW 8428   3.396   0.502   3.521  0.0481 -0.3834  0.1089
 2094SOL    HW2 8429   3.375   0.519   3.613 -0.2768 -0.7623  0.1057
 2094SOL    HW3 8430   3.315   0.469   3.483 -0.0068  0.4263 -0.4793
 2094SOL    MW4 8431   3.383   0.500   3.528 -0.0021 -0.3266  0.0308
 2095SOL     OW 8432   3.371   0.737   3.389 -0.3562  0.0055 -0.3606
 2095SOL    HW2 8433   3.435   0.805   3.410 -0.6002  0.1869 -0.1877
 2095SOL    HW3 8434   3.391   0.665   3.449 -1.1453  0.5816  0.6232
 2095SOL    MW4 8435   3.382   0.737   3.400 -0.4926  0.1054 -0.2077
 2096SOL     OW 8436   3.144   0.861   3.494  0.2326  0.7028  0.0773
 2096SOL    HW2 8437   3.152   0.942   3.444 -0.6519  1.0429  0.4703
 2096SOL    HW3 8438   3.216   0.806   3.464 -0.3852  0.8423 -1.6924
 2096SOL    MW4 8439   3.154   0.864   3.484  0.0343  0.7660 -0.1044
 2097SOL     OW 8440   3.148   1.095   3.362  0.1475  0.3313 -0.2499
 2097SOL    HW2 8441   3.221   1.153   3.386  2.4788 -2.0632 -1.2345
 2097SOL    HW3 8442   3.147   1.098   3.266 -0.2922 -0.5290 -0.2725
 2097SOL    MW4 8443   3.158   1.103   3.352  0.3972 -0.0980 -0.3827
 2098SOL     OW 8444   3.362   1.262   3.483  0.2916  0.1869 -0.4960
 2098SOL    HW2 8445   3.431   1.221   3.431  0.3149 -0.2242 -0.1424
 2098SOL    HW3 8446   3.369   1.355   3.462  1.7343  0.3150  0.4282
 2098SOL    MW4 8447   3.372   1.269   3.474  0.4849  0.1495 -0.3271
 2099SOL     OW 8448   3.394   1.543   3.385  0.1840  0.6005  0.2444
 2099SOL    HW2 8449   3.470   1.579   3.432  0.4724  0.1961  0.0944
 2099SOL    HW3 8450   3.318   1.579   3.432  0.4552 -1.0685  2.0504
 2099SOL    MW4 8451   3.394   1.553   3.398  0.2575  0.3270  0.4630
 2100SOL     OW 8452   3.175   1.678   3.473  0.0222 -0.1883 -0.2122
 2100SOL    HW2 8453   3.155   1.764   3.436 -1.9678 -0.5511 -0.0346
 2100SOL    HW3 8454   3.103   1.622   3.443  0.2247 -1.3082  1.3424
 2100SOL    MW4 8455   3.162   1.682   3.464 -0.2136 -0.3839  0.0162
 2101SOL     OW 8456   3.120   1.924   3.367  0.3799 -0.0032  0.2489
 2101SOL    HW2 8457   3.035   1.958   3.394  0.7581  1.4763 -0.3829
 2101SOL    HW3 8458   3.124   1.942   3.273  0.2056 -2.6481 -0.3178
 2101SOL    MW4 8459   3.109   1.931   3.358  0.4065 -0.1570  0.0906
 2102SOL     OW 8460   3.332   2.052   3.496 -0.5599  0.1430  0.0001
 2102SOL    HW2 8461   3.332   2.143   3.465 -0.5320 -0.4100 -1.7003
 2102SOL    HW3 8462   3.262   2.009   3.446 -0.8917 -0.6739  1.1265
 2102SOL    MW4 8463   3.323   2.058   3.485 -0.6001 -0.0377 -0.0753
 2103SOL     OW 8464   3.354   2.330   3.379  0.3143  0.2206  0.5422
 2103SOL    HW2 8465   3.426   2.385   3.412  0.5079  0.1163  0.3014
 2103SOL    HW3 8466   3.277   2.362   3.425  0.7457 -0.5909  1.8451
 2103SOL    MW4 8467   3.354   2.342   3.389  0.3965  0.0997  0.6821
 2104SOL     OW 8468   3.125   2.411   3.511  0.0150  0.6416  0.3000
 2104SOL    HW2 8469   3.118   2.501   3.479 -1.2058  0.1909 -0.7207
 2104SOL    HW3 8470   3.059   2.363   3.462 -0.2324 -0.5565  1.7754
 2104SOL    MW4 8471   3.115   2.417   3.500 -0.1788  0.4241  0.3603
 2105SOL     OW 8472   3.172   2.655   3.388  0.6445  0.0706  0.0185
 2105SOL    HW2 8473   3.244   2.693   3.439  0.6128  0.4036 -0.1825
 2105SOL    HW3 8474   3.096   2.709   3.409  0.7214  0.4490 -0.6842
 2105SOL    MW4 8475   3.172   2.667   3.398  0.6504  0.1643 -0.1006
 2106SOL     OW 8476   3.363   2.791   3.525  0.2182 -0.2126  0.0082
 2106SOL    HW2 8477   3.444   2.755   3.488  0.5451  0.1520  0.3601
 2106SOL    HW3 8478   3.357   2.879   3.488 -0.8878 -0.8341 -1.3088
 2106SOL    MW4 8479   3.373   2.798   3.515  0.1154 -0.2468 -0.1190
 2107SOL     OW 8480   3.367   3.033   3.410  0.1923 -0.3712  0.8785
 2107SOL    HW2 8481   3.430   3.099   3.438  0.2881 -0.6535  1.3278
 2107SOL    HW3 8482   3.282   3.077   3.418  0.3694  0.2281 -0.3571
 2107SOL    MW4 8483   3.364   3.047   3.415  0.2284 -0.3295  0.7746
 2108SOL     OW 8484   3.144   3.180   3.463  0.0048  0.4483  0.2242
 2108SOL    HW2 8485   3.137   3.273   3.443  0.2914  0.0344 -1.9679
 2108SOL    HW3 8486   3.067   3.141   3.420  1.6704 -0.7408 -1.7998
 2108SOL    MW4 8487   3.133   3.187   3.455  0.2623  0.2370 -0.3321
 2109SOL     OW 8488   3.144   3.448   3.406  0.4026  0.0592 -0.3444
 2109SOL    HW2 8489   3.062   3.487   3.433 -0.0367 -0.6378 -0.6588
 2109SOL    HW3 8490   3.145   3.455   3.311  0.2408 -0.8318 -0.4181
 2109SOL    MW4 8491   3.134   3.454   3.397  0.3233 -0.1504 -0.3955
 2110SOL     OW 8492   3.370   3.593   3.514 -0.0862  0.3473 -0.1834
 2110SOL    HW2 8493   3.391   3.673   3.466  0.0928  0.5741  0.2671
 2110SOL    HW3 8494   3.298   3.554   3.465 -0.3465  0.9184 -0.2615
 2110SOL    MW4 8495   3.363   3.599   3.501 -0.0968  0.4525 -0.1342
 2111SOL     OW 8496   3.406   3.833   3.382  0.3448  0.3714  0.2296
 2111SOL    HW2 8497   3.485   3.880   3.408  0.6726  0.4259 -0.8161
 2111SOL    HW3 8498   3.337   3.868   3.438  0.8731  1.0519  0.4622
 2111SOL    MW4 8499   3.407   3.844   3.393  0.4578  0.4683  0.1223
 2112SOL     OW 8500   3.180   3.945   3.503  0.4620 -0.1922 -0.4460
 2112SOL    HW2 8501   3.156   3.936   3.596 -1.4232 -1.6849 -1.0491
 2112SOL    HW3 8502   3.180   4.039   3.488 -1.2775 -0.0021  0.5696
 2112SOL    MW4 8503   3.176   3.956   3.513 -0.0162 -0.3638 -0.3917
 2113SOL     OW 8504   3.148   4.206   3.415 -0.3749  0.0184  0.1364
 2113SOL    HW2 8505   3.216   4.268   3.441 -0.0378 -0.7391  1.0767
 2113SOL    HW3 8506   3.067   4.243   3.450 -0.4110  0.7395 -0.6812
 2113SOL    MW4 8507   3.146   4.219   3.423 -0.3355  0.0138  0.1526
 2114SOL     OW 8508   3.367   4.377   3.502 -0.0767 -0.0746  0.5499
 2114SOL    HW2 8509   3.381   4.384   3.596  1.6543  0.1055  0.3035
 2114SOL    HW3 8510   3.356   4.467   3.472  0.4300 -0.0395  0.4508
 2114SOL    MW4 8511   3.368   4.390   3.510  0.2189 -0.0463  0.5043
 2115SOL     OW 8512   3.850   4.636   3.359 -0.0887  0.1141  0.3106
 2115SOL    HW2 8513   3.775   4.688   3.388 -0.9838 -0.8710 -0.1749
 2115SOL    HW3 8514   3.845   4.639   3.263  0.9782  0.7168  0.2662
 2115SOL    MW4 8515   3.839   4.643   3.350 -0.0660  0.0634  0.2410
 2116SOL     OW 8516   3.634   0.104   3.483 -0.1489  0.0759  0.6795
 2116SOL    HW2 8517   3.624   0.196   3.457 -1.2244  0.0920  1.1014
 2116SOL    HW3 8518   3.554   0.062   3.452  0.1418 -0.6279  0.8796
 2116SOL    MW4 8519   3.622   0.111   3.476 -0.2522 -0.0148  0.7615
 2117SOL     OW 8520   3.616   0.359   3.411  0.3004 -0.2708  0.5016
 2117SOL    HW2 8521   3.688   0.414   3.441  1.5134 -2.1613  1.1261
 2117SOL    HW3 8522   3.539   0.394   3.455  0.7956  1.8283 -0.2485
 2117SOL    MW4 8523   3.615   0.371   3.421  0.5257 -0.2432  0.4852
 2118SOL     OW 8524   3.835   0.535   3.458 -0.4400 -0.0034  0.2337
 2118SOL    HW2 8525   3.829   0.534   3.553 -0.2716  1.1166  0.2643
 2118SOL    HW3 8526   3.913   0.482   3.438  0.0630  0.5285  0.7699
 2118SOL    MW4 8527   3.845   0.528   3.468 -0.3514  0.2146  0.3085
 2119SOL     OW 8528   3.786   0.793   3.334 -0.3451  0.1728  0.3156
 2119SOL    HW2 8529   3.866   0.844   3.343 -0.0618 -0.0053 -1.2381
 2119SOL    HW3 8530   3.805   0.710   3.377 -0.3161  0.7963  1.5448
 2119SOL    MW4 8531   3.799   0.789   3.341 -0.3037  0.2316  0.2728
 2120SOL     OW 8532   3.571   0.911   3.465 -0.2512 -0.4868  0.1843
 2120SOL    HW2 8533   3.587   0.919   3.559 -0.2189 -0.9972  0.2212
 2120SOL    HW3 8534   3.651   0.872   3.430 -0.1513 -0.0403 -0.1019
 2120SOL    MW4 8535   3.584   0.907   3.473 -0.2339 -0.4953  0.1516
 2121SOL     OW 8536   3.588   1.156   3.342 -0.3414 -0.1363  0.1681
 2121SOL    HW2 8537   3.586   1.063   3.368  1.5900 -0.4552 -0.7093
 2121SOL    HW3 8538   3.577   1.154   3.247  1.1713  0.4123 -0.0337
 2121SOL    MW4 8539   3.586   1.143   3.333  0.1132 -0.1060  0.0255
 2122SOL     OW 8540   3.797   1.300   3.461 -0.2565 -0.1453 -0.1792
 2122SOL    HW2 8541   3.799   1.281   3.554  0.0080 -0.2013 -0.1963
 2122SOL    HW3 8542   3.718   1.256   3.429 -1.3975  1.4980  0.3653
 2122SOL    MW4 8543   3.787   1.292   3.469 -0.3726  0.0643 -0.1099
 2123SOL     OW 8544   3.848   1.564   3.371  0.3749 -0.0895 -0.1978
 2123SOL    HW2 8545   3.917   1.600   3.426 -0.2157  0.0006  0.4901
 2123SOL    HW3 8546   3.831   1.477   3.408 -0.6185  0.3105  0.3039
 2123SOL    MW4 8547   3.855   1.557   3.383  0.1664 -0.0248 -0.0408
 2124SOL     OW 8548   3.622   1.671   3.505  0.0633 -0.9039  0.2794
 2124SOL    HW2 8549   3.592   1.747   3.456 -1.0418 -1.8820 -0.6021
 2124SOL    HW3 8550   3.703   1.645   3.462  0.3633 -0.3142  0.4891
 2124SOL    MW4 8551   3.629   1.677   3.493 -0.0429 -0.9552  0.1910
 2125SOL     OW 8552   3.554   1.919   3.395 -0.0275  0.1820  0.2413
 2125SOL    HW2 8553   3.627   1.960   3.440 -0.6809 -0.1281  1.5919
 2125SOL    HW3 8554   3.476   1.968   3.423 -0.3756  0.3682 -1.0086
 2125SOL    MW4 8555   3.553   1.931   3.404 -0.1595  0.1657  0.2549
 2126SOL     OW 8556   3.771   2.053   3.509  0.1694  0.5182 -0.5241
 2126SOL    HW2 8557   3.764   2.033   3.602  1.3360  1.3206 -0.2556
 2126SOL    HW3 8558   3.860   2.026   3.486  0.1353  1.0110 -1.2411
 2126SOL    MW4 8559   3.782   2.047   3.518  0.3188  0.6890 -0.5832
 2127SOL     OW 8560   3.790   2.324   3.373  0.0861 -0.2886 -0.2297
 2127SOL    HW2 8561   3.855   2.374   3.423 -0.9717  0.2731  0.6167
 2127SOL    HW3 8562   3.787   2.238   3.415  0.2690 -0.3075 -0.2572
 2127SOL    MW4 8563   3.798   2.319   3.385 -0.0293 -0.2172 -0.1218
 2128SOL     OW 8564   3.556   2.464   3.506 -0.2120 -0.4671  0.0737
 2128SOL    HW2 8565   3.573   2.547   3.461  0.8841 -0.4099  0.5666
 2128SOL    HW3 8566   3.623   2.405   3.471  1.3315 -0.1387  2.3869
 2128SOL    MW4 8567   3.567   2.467   3.495  0.1364 -0.4165  0.4439
 2129SOL     OW 8568   3.585   2.716   3.387  0.2785 -0.5223 -0.0704
 2129SOL    HW2 8569   3.650   2.779   3.419  0.0091  0.5268 -1.5407
 2129SOL    HW3 8570   3.599   2.712   3.293 -2.7308  0.8550 -0.6501
 2129SOL    MW4 8571   3.595   2.724   3.379 -0.1538 -0.2024 -0.3412
 2130SOL     OW 8572   3.781   2.870   3.470 -0.1290  0.2809  0.1142
 2130SOL    HW2 8573   3.819   2.872   3.558 -1.2612  0.2570  0.6148
 2130SOL    HW3 8574   3.776   2.962   3.444  1.2139  0.2224 -0.3745
 2130SOL    MW4 8575   3.785   2.882   3.478 -0.1013  0.2699  0.1156
 2131SOL     OW 8576   3.822   3.119   3.362 -0.0556 -0.1416 -0.2675
 2131SOL    HW2 8577   3.891   3.176   3.395 -0.6322  0.0005  0.7235
 2131SOL    HW3 8578   3.832   3.121   3.267  0.1816  1.2959 -0.2221
 2131SOL    MW4 8579   3.832   3.127   3.354 -0.1004  0.0665 -0.1307
 2132SOL     OW 8580   3.588   3.210   3.478  0.1532 -0.4898 -0.1228
 2132SOL    HW2 8581   3.584   3.300   3.446 -0.0016  0.0000  1.2354
 2132SOL    HW3 8582   3.668   3.174   3.439  0.5898  0.4610 -0.1216
 2132SOL    MW4 8583   3.598   3.217   3.469  0.1903 -0.2999  0.0563
 2133SOL     OW 8584   3.600   3.474   3.404  0.2816  0.3363 -0.0771
 2133SOL    HW2 8585   3.517   3.510   3.436 -0.5309  0.0962 -1.8101
 2133SOL    HW3 8586   3.600   3.496   3.310  0.6388 -2.5258 -0.7971
 2133SOL    MW4 8587   3.589   3.482   3.396  0.2215 -0.0730 -0.4008
 2134SOL     OW 8588   3.792   3.656   3.474  0.4351 -0.4830 -0.0830
 2134SOL    HW2 8589   3.792   3.649   3.570  0.1078  1.4462  0.0856
 2134SOL    HW3 8590   3.729   3.591   3.445 -0.9514  0.2838  1.1573
 2134SOL    MW4 8591   3.784   3.647   3.483  0.2089 -0.1273  0.1028
 2135SOL     OW 8592   3.814   3.901   3.345 -0.2488 -0.0507 -0.0520
 2135SOL    HW2 8593   3.742   3.932   3.400  0.9460  2.2992  0.2287
 2135SOL    HW3 8594   3.826   3.810   3.370 -0.5049  0.6350  2.7583
 2135SOL    MW4 8595   3.806   3.893   3.355 -0.1247  0.3500  0.3560
 2136SOL     OW 8596   3.603   3.975   3.513  0.1837  0.0432  0.3347
 2136SOL    HW2 8597   3.600   3.945   3.603  0.8393 -1.0500  0.0013
 2136SOL    HW3 8598   3.599   4.070   3.519 -1.8561 -0.0812  1.4164
 2136SOL    MW4 8599   3.602   3.983   3.525  0.0012 -0.1173  0.4334
 2137SOL     OW 8600   3.610   4.264   3.459 -0.0891 -0.4204 -0.3261
 2137SOL    HW2 8601   3.529   4.309   3.481  0.4065  0.4240 -0.2117
 2137SOL    HW3 8602   3.613   4.265   3.363 -0.0774 -0.1928 -0.3248
 2137SOL    MW4 8603   3.600   4.270   3.449 -0.0224 -0.2785 -0.3109
 2138SOL     OW 8604   3.843   4.407   3.543 -0.4208  0.2781 -0.7816
 2138SOL    HW2 8605   3.771   4.351   3.513 -0.7510  0.2860 -0.0208
 2138SOL    HW3 8606   3.841   4.482   3.484 -1.4443  0.5805 -0.3784
 2138SOL    MW4 8607   3.833   4.410   3.532 -0.5991  0.3190 -0.6280
 2139SOL     OW 8608   4.286   0.001   3.402 -0.0985 -0.0764 -0.0926
 2139SOL    HW2 8609   4.279  -0.092   3.422 -0.0900 -0.4977 -1.8912
 2139SOL    HW3 8610   4.370   0.027   3.439  1.1554 -1.4457 -1.8303
 2139SOL    MW4 8611   4.297  -0.008   3.409  0.0687 -0.3123 -0.5593
 2140SOL     OW 8612   4.062   0.107   3.503  0.0892 -0.4470  0.5341
 2140SOL    HW2 8613   4.148   0.081   3.471 -0.2135  0.5334 -1.1379
 2140SOL    HW3 8614   4.002   0.043   3.463  0.0768 -1.4568  2.1240
 2140SOL    MW4 8615   4.065   0.095   3.494  0.0482 -0.4509  0.5231
 2141SOL     OW 8616   4.060   0.377   3.389  0.6510  0.4847  0.2884
 2141SOL    HW2 8617   4.041   0.290   3.425  1.0963  0.5330  0.6410
 2141SOL    HW3 8618   4.073   0.362   3.295  1.6357  0.0270  0.4906
 2141SOL    MW4 8619   4.059   0.363   3.381  0.8397  0.4307  0.3614
 2142SOL     OW 8620   4.309   0.497   3.463 -0.0252 -0.2360  0.3730
 2142SOL    HW2 8621   4.307   0.590   3.441  0.1620 -0.3233 -0.0185
 2142SOL    HW3 8622   4.226   0.463   3.430  0.0293 -0.2649  0.2680
 2142SOL    MW4 8623   4.298   0.505   3.456  0.0067 -0.2514  0.3076
 2143SOL     OW 8624   4.275   0.759   3.385 -0.0917  1.0265  0.2562
 2143SOL    HW2 8625   4.356   0.803   3.410  0.5403  0.5490 -0.9183
 2143SOL    HW3 8626   4.274   0.763   3.289 -0.2735 -1.0544  0.1513
 2143SOL    MW4 8627   4.285   0.765   3.375 -0.0324  0.6890  0.0875
 2144SOL     OW 8628   4.033   0.910   3.416  0.2840 -0.0357 -0.0514
 2144SOL    HW2 8629   4.038   1.003   3.391  0.4075 -0.1433 -0.4379
 2144SOL    HW3 8630   4.119   0.875   3.393 -0.3824 -0.6653 -1.6323
 2144SOL    MW4 8631   4.045   0.918   3.410  0.2117 -0.1330 -0.3109
 2145SOL     OW 8632   4.052   1.208   3.342  0.0856 -0.4408 -0.0487
 2145SOL    HW2 8633   4.131   1.255   3.371  0.2654 -0.2296 -0.8619
 2145SOL    HW3 8634   3.980   1.256   3.382  0.3285 -0.0964 -0.0179
 2145SOL    MW4 8635   4.053   1.221   3.351  0.1416 -0.3674 -0.1516
 2146SOL     OW 8636   4.276   1.287   3.477  0.0106  0.0761 -0.1208
 2146SOL    HW2 8637   4.292   1.381   3.464 -0.1490  0.3771  1.7176
 2146SOL    HW3 8638   4.355   1.245   3.442  1.3290  1.0794  1.5673
 2146SOL    MW4 8639   4.289   1.294   3.471  0.1640  0.2481  0.3448
 2147SOL     OW 8640   4.299   1.559   3.416 -0.3283 -0.5241 -0.0309
 2147SOL    HW2 8641   4.218   1.608   3.428  0.2695  0.5268 -0.1952
 2147SOL    HW3 8642   4.305   1.547   3.321  1.3130  2.2401 -0.3443
 2147SOL    MW4 8643   4.289   1.564   3.405 -0.0329 -0.0209 -0.0939
 2148SOL     OW 8644   4.061   1.692   3.490  0.0005  0.0153 -0.3013
 2148SOL    HW2 8645   4.070   1.704   3.585  1.6222  0.4289 -0.4825
 2148SOL    HW3 8646   4.033   1.777   3.457  0.6969  0.2417 -0.3262
 2148SOL    MW4 8647   4.059   1.705   3.498  0.3066  0.0997 -0.3288
 2149SOL     OW 8648   4.003   1.950   3.402 -0.1853 -0.3944 -0.3852
 2149SOL    HW2 8649   4.085   1.982   3.439  0.3770 -1.6377 -0.5232
 2149SOL    HW3 8650   4.020   1.943   3.308 -0.6878  0.0394 -0.5131
 2149SOL    MW4 8651   4.016   1.953   3.395 -0.1769 -0.5013 -0.4203
 2150SOL     OW 8652   4.248   2.046   3.480  0.3191 -0.1280  0.2810
 2150SOL    HW2 8653   4.249   2.137   3.451  0.5987 -0.1760  0.1422
 2150SOL    HW3 8654   4.326   2.007   3.441 -0.1493 -0.5948 -0.2187
 2150SOL    MW4 8655   4.258   2.052   3.471  0.2942 -0.1960  0.1967
 2151SOL     OW 8656   4.260   2.309   3.383  0.4302  0.6354 -0.1369
 2151SOL    HW2 8657   4.179   2.355   3.406 -0.2816 -0.2582 -0.8035
 2151SOL    HW3 8658   4.267   2.318   3.288  1.4660  1.2544 -0.0150
 2151SOL    MW4 8659   4.250   2.317   3.374  0.4730  0.5989 -0.2089
 2152SOL     OW 8660   4.032   2.468   3.466 -0.2334 -0.1924  0.0729
 2152SOL    HW2 8661   4.026   2.476   3.561 -0.5838  0.1804  0.0181
 2152SOL    HW3 8662   4.012   2.555   3.433 -0.0541 -0.3076 -0.3410
 2152SOL    MW4 8663   4.029   2.481   3.474 -0.2561 -0.1583  0.0110
 2153SOL     OW 8664   4.034   2.755   3.389  0.5160 -0.2209  0.1625
 2153SOL    HW2 8665   4.114   2.793   3.426 -0.7282  1.4437  1.2325
 2153SOL    HW3 8666   3.964   2.816   3.415 -0.7008 -0.0538 -3.2783
 2153SOL    MW4 8667   4.035   2.768   3.398  0.1907  0.0207 -0.1502
 2154SOL     OW 8668   4.281   2.820   3.486  0.0554 -0.2082 -0.2358
 2154SOL    HW2 8669   4.285   2.807   3.580 -0.7153  0.0491 -0.1621
 2154SOL    HW3 8670   4.357   2.773   3.451  0.4752 -0.0975  0.5310
 2154SOL    MW4 8671   4.291   2.812   3.494  0.0091 -0.1597 -0.1247
 2155SOL     OW 8672   4.317   3.091   3.414 -0.2915  0.0413 -0.2011
 2155SOL    HW2 8673   4.310   3.015   3.471  1.8928  0.5401  0.7829
 2155SOL    HW3 8674   4.292   3.059   3.327 -0.3420 -1.5428  0.3911
 2155SOL    MW4 8675   4.313   3.077   3.410 -0.0091 -0.1018  0.0067
 2156SOL     OW 8676   4.087   3.265   3.478  0.3985  0.0932 -0.2345
 2156SOL    HW2 8677   4.070   3.349   3.436 -1.1137 -0.8575 -1.5672
 2156SOL    HW3 8678   4.174   3.240   3.447  0.2293  0.4683 -1.0094
 2156SOL    MW4 8679   4.097   3.273   3.469  0.1764  0.0174 -0.5128
 2157SOL     OW 8680   4.015   3.527   3.368  0.0381 -0.5876  0.3039
 2157SOL    HW2 8681   4.091   3.560   3.415  0.0683 -0.1850 -0.0267
 2157SOL    HW3 8682   3.940   3.569   3.411  0.1417  0.7976 -0.8320
 2157SOL    MW4 8683   4.015   3.537   3.380  0.0558 -0.3517  0.1101
 2158SOL     OW 8684   4.249   3.606   3.496  0.5229 -0.1764  0.0763
 2158SOL    HW2 8685   4.257   3.617   3.590  0.3264 -1.2612  0.2229
 2158SOL    HW3 8686   4.257   3.695   3.461  0.9457  0.1881  1.0822
 2158SOL    MW4 8687   4.251   3.619   3.503  0.5527 -0.2716  0.2284
 2159SOL     OW 8688   4.238   3.852   3.367 -0.3750  0.6632  0.4153
 2159SOL    HW2 8689   4.308   3.910   3.396 -0.1910  0.2942  0.7023
 2159SOL    HW3 8690   4.264   3.825   3.278 -0.0927  0.4294  0.5690
 2159SOL    MW4 8691   4.251   3.856   3.359 -0.3142  0.5839  0.4733
 2160SOL     OW 8692   4.032   4.004   3.491  0.4108 -0.0725 -0.2871
 2160SOL    HW2 8693   4.093   3.942   3.451  0.6797  0.7779 -1.2533
 2160SOL    HW3 8694   3.946   3.980   3.455  0.5443  0.2260 -0.8204
 2160SOL    MW4 8695   4.029   3.993   3.481  0.4635  0.0792 -0.4847
 2161SOL     OW 8696   4.062   4.284   3.437  0.0472 -0.0277 -0.5432
 2161SOL    HW2 8697   4.050   4.189   3.449  0.5340 -0.1113 -0.6919
 2161SOL    HW3 8698   3.984   4.323   3.476 -1.1827 -0.5959 -2.3494
 2161SOL    MW4 8699   4.050   4.276   3.444 -0.0510 -0.1135 -0.8011
 2162SOL     OW 8700   4.302   4.384   3.467 -0.3906 -0.3356  0.4342
 2162SOL    HW2 8701   4.311   4.376   3.562  0.4843  0.1138  0.3887
 2162SOL    HW3 8702   4.214   4.350   3.449 -1.0162  0.6214  1.5344
 2162SOL    MW4 8703   4.291   4.379   3.478 -0.3576 -0.1502  0.5732
 2163SOL     OW 8704   0.243   4.666   3.826  0.5188 -0.1708 -0.4509
 2163SOL    HW2 8705   0.250   4.670   3.922 -0.2341  0.0542 -0.4057
 2163SOL    HW3 8706   0.158   4.706   3.806  1.1239  0.7157 -1.2869
 2163SOL    MW4 8707   0.233   4.672   3.836  0.4993 -0.0242 -0.5553
 2164SOL     OW 8708   4.484   0.125   3.777  0.3808  0.0629 -0.2600
 2164SOL    HW2 8709   4.493   0.218   3.800  2.1193 -0.0175 -0.5277
 2164SOL    HW3 8710   4.500   0.123   3.682  1.6002 -0.6655 -0.0412
 2164SOL    MW4 8711   4.487   0.137   3.767  0.7706 -0.0438 -0.2666
 2165SOL     OW 8712   0.042   0.382   3.889  0.0043 -0.4851 -0.3946
 2165SOL    HW2 8713  -0.035   0.419   3.846 -0.0002  1.1479  0.9592
 2165SOL    HW3 8714   0.114   0.439   3.864  0.0237  0.4213  1.6018
 2165SOL    MW4 8715   0.041   0.394   3.880  0.0057 -0.1501  0.0472
 2166SOL     OW 8716   0.262   0.537   3.798  0.5971  0.2458 -0.6089
 2166SOL    HW2 8717   0.246   0.630   3.812 -0.2805 -0.0022  0.1321
 2166SOL    HW3 8718   0.258   0.525   3.703 -1.5773  0.5697 -0.5679
 2166SOL    MW4 8719   0.260   0.547   3.787  0.1945  0.2557 -0.5057
 2167SOL     OW 8720   0.218   0.812   3.840 -0.1069  0.1900 -0.3619
 2167SOL    HW2 8721   0.212   0.797   3.934 -0.3444  0.7297 -0.2881
 2167SOL    HW3 8722   0.130   0.842   3.815  0.4962  2.0149 -0.3944
 2167SOL    MW4 8723   0.206   0.814   3.849 -0.0586  0.5019 -0.3567
 2168SOL     OW 8724   4.484   0.906   3.718  0.2935 -0.3372  0.0274
 2168SOL    HW2 8725   4.406   0.860   3.751 -0.3706  0.1162 -0.8918
 2168SOL    HW3 8726   4.479   0.993   3.758  0.1430 -0.1957 -0.2977
 2168SOL    MW4 8727   4.473   0.911   3.728  0.1860 -0.2588 -0.1369
 2169SOL     OW 8728   4.467   1.125   3.873  0.1348 -0.2038 -0.0977
 2169SOL    HW2 8729   4.394   1.185   3.859  0.8756  0.4215 -1.3148
 2169SOL    HW3 8730   4.542   1.167   3.832  0.7545 -1.7851 -0.6480
 2169SOL    MW4 8731   4.467   1.138   3.866  0.3142 -0.3300 -0.3309
 2170SOL     OW 8732   0.200   1.267   3.803 -0.3612 -0.2038  0.3433
 2170SOL    HW2 8733   0.211   1.358   3.833  0.1676 -0.2743  0.3563
 2170SOL    HW3 8734   0.208   1.272   3.708  1.0128 -0.4395  0.4469
 2170SOL    MW4 8735   0.202   1.280   3.795 -0.1101 -0.2443  0.3586
 2171SOL     OW 8736   0.243   1.528   3.889  0.0375  0.2310 -0.0891
 2171SOL    HW2 8737   0.247   1.519   3.984  0.3087 -0.8627 -0.2040
 2171SOL    HW3 8738   0.174   1.593   3.874  1.0026  1.5186  0.9121
 2171SOL    MW4 8739   0.235   1.535   3.900  0.2006  0.2564  0.0277
 2172SOL     OW 8740   0.038   1.690   3.825 -0.7155  0.3484  0.0248
 2172SOL    HW2 8741   0.038   1.778   3.863 -2.6443  0.5787 -0.4688
 2172SOL    HW3 8742   0.046   1.704   3.731 -1.0460  0.0069 -0.0571
 2172SOL    MW4 8743   0.039   1.703   3.817 -1.0136  0.3338 -0.0515
 2173SOL     OW 8744   4.478   1.969   3.923 -0.0892  0.0464  0.5366
 2173SOL    HW2 8745   4.463   1.978   4.017  0.9507  0.3565  0.6769
 2173SOL    HW3 8746   4.394   1.994   3.883 -0.9077 -1.2553  1.4167
 2173SOL    MW4 8747   4.465   1.974   3.930 -0.0601 -0.0843  0.6714
 2174SOL     OW 8748   0.233   2.046   3.820  0.5112 -0.5078 -0.3289
 2174SOL    HW2 8749   0.242   2.140   3.840  2.3111 -0.8356  0.4656
 2174SOL    HW3 8750   0.152   2.021   3.866  1.1899  0.1797  1.2861
 2174SOL    MW4 8751   0.223   2.055   3.829  0.8382 -0.4604 -0.0107
 2175SOL     OW 8752   0.247   2.320   3.854 -0.2479 -0.4779  0.2093
 2175SOL    HW2 8753   0.252   2.353   3.944  0.9968  1.1615 -0.4393
 2175SOL    HW3 8754   0.163   2.352   3.821  0.4130  1.0604 -0.0184
 2175SOL    MW4 8755   0.237   2.329   3.862  0.0035 -0.0587  0.0937
 2176SOL     OW 8756   0.025   2.438   3.754 -0.3554  0.4323 -0.3995
 2176SOL    HW2 8757  -0.063   2.407   3.776 -0.0598 -1.1737 -1.3868
 2176SOL    HW3 8758   0.025   2.530   3.779 -1.5957 -0.1081  1.7304
 2176SOL    MW4 8759   0.013   2.446   3.760 -0.4802  0.1490 -0.2487
 2177SOL     OW 8760   0.038   2.702   3.824 -0.2385 -0.2011  0.0793
 2177SOL    HW2 8761   0.041   2.715   3.919  0.2963 -0.5220  0.1098
 2177SOL    HW3 8762   0.110   2.755   3.790 -2.2380  2.2889 -0.4448
 2177SOL    MW4 8763   0.048   2.710   3.832 -0.4318  0.0851  0.0143
 2178SOL     OW 8764   0.247   2.872   3.740 -0.0471 -0.2872  0.1328
 2178SOL    HW2 8765   0.326   2.829   3.774 -0.6316 -1.3094  0.2261
 2178SOL    HW3 8766   0.247   2.851   3.647  0.0890  0.1891  0.0254
 2178SOL    MW4 8767   0.258   2.864   3.732 -0.1063 -0.3595  0.1311
 2179SOL     OW 8768   0.213   3.108   3.901  0.3555  0.2615  0.3117
 2179SOL    HW2 8769   0.225   3.096   3.996  1.6171  1.4088  0.3034
 2179SOL    HW3 8770   0.225   3.020   3.865  2.3867  0.2338  0.9802
 2179SOL    MW4 8771   0.216   3.095   3.909  0.7899  0.4094  0.3989
 2180SOL     OW 8772   0.020   3.259   3.759 -0.4336 -0.4207  0.4746
 2180SOL    HW2 8773   0.087   3.212   3.809 -1.2158 -1.7450  0.3177
 2180SOL    HW3 8774   0.033   3.231   3.669 -0.4190  0.2724  0.2596
 2180SOL    MW4 8775   0.030   3.249   3.754 -0.5349 -0.5040  0.4253
 2181SOL     OW 8776   4.481   3.523   3.862  0.2187 -0.1851 -0.0373
 2181SOL    HW2 8777   4.562   3.552   3.819 -0.9860 -0.3595 -2.5276
 2181SOL    HW3 8778   4.472   3.432   3.836  0.8679 -1.1217  2.8747
 2181SOL    MW4 8779   4.491   3.515   3.853  0.1454 -0.3319  0.0184
 2182SOL     OW 8780   0.236   3.596   3.747 -0.0099  0.4392 -0.2181
 2182SOL    HW2 8781   0.321   3.558   3.767 -0.3587 -0.3146 -0.1457
 2182SOL    HW3 8782   0.239   3.684   3.784  1.4563  1.1423 -1.9302
 2182SOL    MW4 8783   0.247   3.602   3.754  0.1375  0.4325 -0.4346
 2183SOL     OW 8784   0.225   3.874   3.843  0.5311  0.2618  0.1356
 2183SOL    HW2 8785   0.220   3.886   3.938  1.1223  1.3674  0.0302
 2183SOL    HW3 8786   0.304   3.920   3.817  1.1537 -1.2418 -0.7211
 2183SOL    MW4 8787   0.234   3.882   3.852  0.6912  0.2093  0.0088
 2184SOL     OW 8788   4.473   3.998   3.774  0.0723 -0.0700  0.2337
 2184SOL    HW2 8789   4.399   3.956   3.819  0.9817 -0.9487  0.9238
 2184SOL    HW3 8790   4.551   3.956   3.811  0.9310  0.9911 -0.3439
 2184SOL    MW4 8791   4.474   3.987   3.785  0.3052 -0.0458  0.2484
 2185SOL     OW 8792   0.011   4.261   3.894  0.0762 -0.1257 -0.2306
 2185SOL    HW2 8793   0.081   4.306   3.847  0.2167  0.8690  0.9066
 2185SOL    HW3 8794   0.014   4.171   3.861  0.7481  0.3321 -1.4604
 2185SOL    MW4 8795   0.021   4.255   3.883  0.1834  0.0663 -0.2425
 2186SOL     OW 8796   0.199   4.416   3.752 -0.4650 -0.1359 -0.1624
 2186SOL    HW2 8797   0.268   4.368   3.797  0.6638  0.4024 -1.2760
 2186SOL    HW3 8798   0.217   4.508   3.771  0.1662  0.1174 -1.8335
 2186SOL    MW4 8799   0.211   4.422   3.760 -0.2328 -0.0315 -0.5295
 2187SOL     OW 8800   0.692   4.643   3.802  0.0575 -0.4025  0.2971
 2187SOL    HW2 8801   0.684   4.549   3.786 -1.1141 -0.1111 -0.8917
 2187SOL    HW3 8802   0.605   4.679   3.782  1.2139  1.2951 -1.9867
 2187SOL    MW4 8803   0.679   4.636   3.797  0.0555 -0.1402 -0.1612
 2188SOL     OW 8804   0.454   0.143   3.731  0.2195  0.1056  0.1411
 2188SOL    HW2 8805   0.471   0.212   3.795 -2.3105  2.1706 -1.3234
 2188SOL    HW3 8806   0.383   0.092   3.769  0.1148  0.0713 -0.1008
 2188SOL    MW4 8807   0.447   0.145   3.744 -0.1281  0.3735 -0.0842
 2189SOL     OW 8808   0.478   0.379   3.893 -0.2101 -0.1995 -0.4801
 2189SOL    HW2 8809   0.547   0.401   3.831 -0.8744  0.5051 -0.9830
 2189SOL    HW3 8810   0.404   0.433   3.866 -0.6987 -0.3458  0.5544
 2189SOL    MW4 8811   0.477   0.389   3.881 -0.3622 -0.1258 -0.4098
 2190SOL     OW 8812   0.678   0.453   3.726  0.4603  0.1092  0.1264
 2190SOL    HW2 8813   0.755   0.413   3.767 -0.7896 -1.6761  0.7296
 2190SOL    HW3 8814   0.670   0.538   3.770  0.2283 -1.0139  2.2766
 2190SOL    MW4 8815   0.687   0.459   3.737  0.2648 -0.2746  0.4897
 2191SOL     OW 8816   0.662   0.703   3.842  0.1440 -0.3674 -0.3676
 2191SOL    HW2 8817   0.745   0.745   3.819  0.2250 -0.8393 -0.9506
 2191SOL    HW3 8818   0.596   0.771   3.823  0.3579 -0.1364 -0.2943
 2191SOL    MW4 8819   0.664   0.718   3.836  0.1829 -0.3992 -0.4351
 2192SOL     OW 8820   0.457   0.900   3.751 -0.4429 -0.6687 -0.3474
 2192SOL    HW2 8821   0.457   0.987   3.791  1.7400 -0.7557 -0.1083
 2192SOL    HW3 8822   0.371   0.864   3.773 -0.6189  0.6465  1.2625
 2192SOL    MW4 8823   0.445   0.907   3.759 -0.1781 -0.5066 -0.1032
 2193SOL     OW 8824   0.433   1.146   3.902  0.1460 -0.0169  0.1439
 2193SOL    HW2 8825   0.500   1.191   3.852  0.5970  0.1020  0.8581
 2193SOL    HW3 8826   0.350   1.173   3.862  0.5116 -0.0038 -0.5975
 2193SOL    MW4 8827   0.431   1.155   3.890  0.2538  0.0005  0.1404
 2194SOL     OW 8828   0.643   1.274   3.787  0.0686  0.1094 -0.4713
 2194SOL    HW2 8829   0.712   1.214   3.813 -1.0912 -1.6482 -1.3057
 2194SOL    HW3 8830   0.659   1.289   3.693 -1.1894 -1.0600 -0.8937
 2194SOL    MW4 8831   0.654   1.268   3.778 -0.2505 -0.2768 -0.6371
 2195SOL     OW 8832   0.702   1.531   3.873 -0.4294  0.5596  0.4397
 2195SOL    HW2 8833   0.761   1.578   3.815  0.7475  0.2151  1.3295
 2195SOL    HW3 8834   0.692   1.445   3.832 -0.0389  0.5032  0.4620
 2195SOL    MW4 8835   0.709   1.526   3.860 -0.2225  0.5066  0.5598
 2196SOL     OW 8836   0.464   1.661   3.810  0.2661 -0.0373  0.4888
 2196SOL    HW2 8837   0.538   1.607   3.838 -0.2357 -1.6965 -1.2658
 2196SOL    HW3 8838   0.387   1.612   3.838 -0.1842  0.9218  0.9406
 2196SOL    MW4 8839   0.464   1.647   3.817  0.1405 -0.1297  0.3169
 2197SOL     OW 8840   0.480   1.929   3.869  0.5492  0.1202  0.2731
 2197SOL    HW2 8841   0.486   1.835   3.852  1.1301  0.4189 -1.2006
 2197SOL    HW3 8842   0.389   1.951   3.850  0.5510 -0.0474  0.0657
 2197SOL    MW4 8843   0.469   1.920   3.864  0.6261  0.1374  0.0513
 2198SOL     OW 8844   0.683   2.064   3.716  0.0696 -0.0382 -0.5477
 2198SOL    HW2 8845   0.687   2.155   3.745 -1.2553  0.6515 -2.4032
 2198SOL    HW3 8846   0.604   2.029   3.758  0.0937 -0.0654 -0.5257
 2198SOL    MW4 8847   0.673   2.072   3.725 -0.1020  0.0494 -0.7899
 2199SOL     OW 8848   0.632   2.316   3.829  0.1353  0.0590 -0.2086
 2199SOL    HW2 8849   0.718   2.352   3.805 -0.5822  1.6362 -0.5015
 2199SOL    HW3 8850   0.569   2.377   3.789 -1.1122 -0.0474  1.5319
 2199SOL    MW4 8851   0.635   2.329   3.820 -0.1240  0.2532 -0.0176
 2200SOL     OW 8852   0.435   2.488   3.714  0.1131 -0.0634  0.0446
 2200SOL    HW2 8853   0.362   2.443   3.756 -0.1342 -0.3941 -0.7322
 2200SOL    HW3 8854   0.449   2.440   3.633  1.7104 -0.4983  0.5548
 2200SOL    MW4 8855   0.427   2.476   3.709  0.2912 -0.1645  0.0095
 2201SOL     OW 8856   0.452   2.738   3.832 -0.1391 -0.1217  0.4067
 2201SOL    HW2 8857   0.541   2.772   3.823 -0.1833  0.1356  0.9344
 2201SOL    HW3 8858   0.451   2.658   3.779  0.9999 -1.2373  2.0608
 2201SOL    MW4 8859   0.463   2.732   3.824  0.0054 -0.2348  0.6945
 2202SOL     OW 8860   0.715   2.833   3.726 -0.3667  0.3742  0.2826
 2202SOL    HW2 8861   0.771   2.764   3.762 -1.0024  0.2560  1.0529
 2202SOL    HW3 8862   0.693   2.803   3.638 -1.5786 -0.9465  1.0364
 2202SOL    MW4 8863   0.720   2.820   3.719 -0.6105  0.1845  0.4835
 2203SOL     OW 8864   0.667   3.080   3.839 -0.2057  0.1169 -0.0409
 2203SOL    HW2 8865   0.669   3.099   3.933  0.1640  0.2932 -0.0857
 2203SOL    HW3 8866   0.679   2.986   3.833  0.3550  0.1837  0.0563
 2203SOL    MW4 8867   0.669   3.070   3.851 -0.0829  0.1488 -0.0339
 2204SOL     OW 8868   0.438   3.229   3.745  0.2927  0.1962  0.2598
 2204SOL    HW2 8869   0.513   3.181   3.781  0.1793 -0.6397 -0.5913
 2204SOL    HW3 8870   0.362   3.190   3.788  0.2363 -0.0590 -0.0662
 2204SOL    MW4 8871   0.438   3.217   3.755  0.2703  0.0522  0.1047
 2205SOL     OW 8872   0.471   3.484   3.841  0.3620 -0.2547  0.2269
 2205SOL    HW2 8873   0.544   3.527   3.797  0.2996 -0.1344  0.2402
 2205SOL    HW3 8874   0.464   3.399   3.798  1.2300 -0.7246  0.9932
 2205SOL    MW4 8875   0.480   3.478   3.829  0.4683 -0.3011  0.3297
 2206SOL     OW 8876   0.706   3.579   3.720  0.2070 -0.1505  0.0825
 2206SOL    HW2 8877   0.701   3.671   3.746 -0.0042 -0.3889  0.8870
 2206SOL    HW3 8878   0.685   3.580   3.626  0.8174  0.6904 -0.0556
 2206SOL    MW4 8879   0.703   3.592   3.711  0.2597 -0.0713  0.1705
 2207SOL     OW 8880   0.646   3.826   3.827 -0.3614  0.0834  0.0400
 2207SOL    HW2 8881   0.637   3.815   3.922  0.6007 -1.6561 -0.0520
 2207SOL    HW3 8882   0.705   3.900   3.817 -1.2832  0.9392  0.7795
 2207SOL    MW4 8883   0.652   3.834   3.838 -0.3561 -0.0329  0.1254
 2208SOL     OW 8884   0.452   4.033   3.771 -0.7587 -0.6623  0.5311
 2208SOL    HW2 8885   0.518   3.966   3.788 -0.7124 -0.4190  1.3245
 2208SOL    HW3 8886   0.451   4.042   3.675 -0.3305 -1.3507  0.4575
 2208SOL    MW4 8887   0.460   4.025   3.760 -0.6961 -0.7215  0.6261
 2209SOL     OW 8888   0.415   4.289   3.859  0.2054  0.0014  0.1149
 2209SOL    HW2 8889   0.490   4.324   3.811 -0.0601  0.6541  0.1692
 2209SOL    HW3 8890   0.413   4.196   3.837  1.3148 -0.1083  0.4954
 2209SOL    MW4 8891   0.424   4.281   3.850  0.3167  0.0734  0.1721
 2210SOL     OW 8892   0.662   4.380   3.743  0.2633 -0.2032  0.0036
 2210SOL    HW2 8893   0.738   4.338   3.784  0.5330  0.2500 -0.0361
 2210SOL    HW3 8894   0.676   4.368   3.649  0.4418  0.1653 -0.0136
 2210SOL    MW4 8895   0.674   4.373   3.736  0.3225 -0.0944 -0.0038
 2211SOL     OW 8896   1.142   4.664   3.787  0.9162 -0.0367 -0.0905
 2211SOL    HW2 8897   1.232   4.696   3.776  0.5553  0.3168 -2.2173
 2211SOL    HW3 8898   1.143   4.576   3.748 -0.1056  0.7485 -1.9761
 2211SOL    MW4 8899   1.154   4.657   3.780  0.7339  0.1135 -0.6199
 2212SOL     OW 8900   0.907   0.129   3.726  0.5082  0.2021  0.0170
 2212SOL    HW2 8901   0.991   0.099   3.761 -0.0367  0.2646  1.3891
 2212SOL    HW3 8902   0.843   0.066   3.760 -0.1361  0.7429 -0.1844
 2212SOL    MW4 8903   0.910   0.116   3.735  0.3512  0.2817  0.1712
 2213SOL     OW 8904   0.904   0.366   3.839 -0.3848  0.1783 -0.1933
 2213SOL    HW2 8905   0.885   0.370   3.932 -2.0966 -0.1551 -0.5177
 2213SOL    HW3 8906   0.906   0.272   3.819 -2.3386  0.2685 -0.9318
 2213SOL    MW4 8907   0.902   0.354   3.849 -0.8684  0.1462 -0.3335
 2214SOL     OW 8908   1.134   0.474   3.714  0.1157  0.3800 -0.2569
 2214SOL    HW2 8909   1.195   0.429   3.773  0.2960 -0.2985 -0.9568
 2214SOL    HW3 8910   1.047   0.450   3.748  0.2168  1.3884  0.7706
 2214SOL    MW4 8911   1.131   0.465   3.727  0.1528  0.4235 -0.2134
 2215SOL     OW 8912   1.167   0.740   3.828  0.4862 -0.4283  0.5637
 2215SOL    HW2 8913   1.159   0.738   3.923 -1.7308  0.0277  0.4132
 2215SOL    HW3 8914   1.171   0.648   3.802  0.0151 -0.5842  1.0328
 2215SOL    MW4 8915   1.166   0.728   3.837  0.1315 -0.3887  0.6056
 2216SOL     OW 8916   0.898   0.852   3.798 -0.3723  0.3636  0.1467
 2216SOL    HW2 8917   0.981   0.810   3.821  1.0543  3.1837  0.4172
 2216SOL    HW3 8918   0.896   0.851   3.703  0.6951  1.5553  0.0946
 2216SOL    MW4 8919   0.909   0.846   3.789 -0.0432  0.8929  0.1755
 2217SOL     OW 8920   0.892   1.124   3.852  0.2754  0.4609 -0.3930
 2217SOL    HW2 8921   0.880   1.135   3.947 -0.9024 -0.3347 -0.4362
 2217SOL    HW3 8922   0.894   1.029   3.839 -1.1807  0.5389 -1.3411
 2217SOL    MW4 8923   0.891   1.113   3.863 -0.0721  0.3661 -0.5233
 2218SOL     OW 8924   1.111   1.273   3.710  0.0372 -0.4920  0.2915
 2218SOL    HW2 8925   1.137   1.357   3.748 -0.8702 -0.3431  0.5849
 2218SOL    HW3 8926   1.052   1.235   3.775 -0.6170 -0.7483 -0.4559
 2218SOL    MW4 8927   1.106   1.279   3.724 -0.1687 -0.5062  0.2317
 2219SOL     OW 8928   1.129   1.539   3.834 -0.5529 -0.0979  0.2562
 2219SOL    HW2 8929   1.127   1.532   3.929  1.3580 -2.0817  0.2042
 2219SOL    HW3 8930   1.209   1.589   3.816 -0.3493 -0.6374 -0.3370
 2219SOL    MW4 8931   1.140   1.545   3.844 -0.2739 -0.4308  0.1712
 2220SOL     OW 8932   0.887   1.669   3.731  0.1476 -0.2983 -0.0391
 2220SOL    HW2 8933   0.963   1.624   3.767  1.4917  1.5804 -0.4431
 2220SOL    HW3 8934   0.893   1.654   3.637 -0.0637 -0.3011 -0.0509
 2220SOL    MW4 8935   0.898   1.661   3.724  0.2971 -0.0508 -0.0939
 2221SOL     OW 8936   0.868   1.925   3.850  0.4109 -0.1428  0.1419
 2221SOL    HW2 8937   0.860   1.842   3.803  2.3197 -0.2677 -0.0187
 2221SOL    HW3 8938   0.808   1.984   3.805 -0.0637 -1.1073 -0.5104
 2221SOL    MW4 8939   0.859   1.921   3.838  0.6002 -0.2866  0.0346
 2222SOL     OW 8940   1.116   2.008   3.762 -0.0191  0.1074 -0.5363
 2222SOL    HW2 8941   1.036   1.963   3.790 -0.3579  2.0000  1.7248
 2222SOL    HW3 8942   1.114   2.005   3.667 -2.1942 -0.8755 -0.4788
 2222SOL    MW4 8943   1.105   2.001   3.753 -0.3507  0.2275 -0.2306
 2223SOL     OW 8944   1.112   2.280   3.845 -0.0297 -0.0000  0.5175
 2223SOL    HW2 8945   1.103   2.265   3.939 -2.7126 -0.2104  0.2614
 2223SOL    HW3 8946   1.121   2.193   3.807  2.2238  0.1372  0.6358
 2223SOL    MW4 8947   1.112   2.267   3.852 -0.0863 -0.0095  0.4992
 2224SOL     OW 8948   0.880   2.405   3.740  0.4043 -0.5214 -0.1381
 2224SOL    HW2 8949   0.868   2.494   3.774  0.2410 -0.9639  0.9642
 2224SOL    HW3 8950   0.953   2.370   3.791  1.6564 -0.4028 -1.8043
 2224SOL    MW4 8951   0.888   2.412   3.751  0.5479 -0.5641 -0.2124
 2225SOL     OW 8952   0.903   2.654   3.812  0.3296 -0.1830 -0.0984
 2225SOL    HW2 8953   0.909   2.665   3.907 -0.1236  3.3034 -0.3941
 2225SOL    HW3 8954   0.980   2.699   3.778 -1.4472  1.8743 -1.5276
 2225SOL    MW4 8955   0.914   2.662   3.820  0.0354  0.5484 -0.3262
 2226SOL     OW 8956   1.138   2.804   3.759 -0.0801  0.2721  0.3385
 2226SOL    HW2 8957   1.227   2.783   3.788 -0.3760 -0.5079  0.6910
 2226SOL    HW3 8958   1.126   2.896   3.782  0.6920  0.4196  0.1458
 2226SOL    MW4 8959   1.148   2.813   3.766 -0.0172  0.1886  0.3595
 2227SOL     OW 8960   1.108   3.066   3.851 -0.7021 -0.0355 -0.1072
 2227SOL    HW2 8961   1.173   3.129   3.818 -0.0375 -0.8294 -0.3194
 2227SOL    HW3 8962   1.024   3.103   3.825 -0.3857  1.3478  0.7412
 2227SOL    MW4 8963   1.106   3.079   3.844 -0.5727  0.0424 -0.0234
 2228SOL     OW 8964   0.896   3.190   3.720 -0.3312  0.0657  0.0265
 2228SOL    HW2 8965   0.810   3.153   3.739 -0.2339 -0.1168  0.1170
 2228SOL    HW3 8966   0.904   3.185   3.625 -0.4713  0.1982  0.0076
 2228SOL    MW4 8967   0.885   3.184   3.710 -0.3368  0.0591  0.0360
 2229SOL     OW 8968   0.897   3.445   3.860  0.1035  0.8093 -0.6657
 2229SOL    HW2 8969   0.899   3.362   3.813 -0.7626 -0.2832  1.1609
 2229SOL    HW3 8970   0.825   3.494   3.819 -0.9490 -0.3168 -0.2005
 2229SOL    MW4 8971   0.887   3.440   3.849 -0.1497  0.5167 -0.3631
 2230SOL     OW 8972   1.133   3.585   3.778  0.0126 -0.1243  0.1215
 2230SOL    HW2 8973   1.106   3.670   3.811 -0.8190 -0.4974  0.4241
 2230SOL    HW3 8974   1.068   3.524   3.813 -0.5670 -0.6064 -1.7688
 2230SOL    MW4 8975   1.121   3.588   3.787 -0.1736 -0.2370 -0.0880
 2231SOL     OW 8976   1.077   3.867   3.850  0.3191 -0.1629  0.1977
 2231SOL    HW2 8977   1.086   3.858   3.945 -0.2703  0.6286  0.3357
 2231SOL    HW3 8978   1.156   3.913   3.822 -0.0248  0.6102  0.4666
 2231SOL    MW4 8979   1.088   3.872   3.859  0.1960  0.0436  0.2513
 2232SOL     OW 8980   0.851   4.003   3.774  0.0787  0.3440 -0.6122
 2232SOL    HW2 8981   0.931   3.966   3.810 -1.3098 -1.5597  0.6581
 2232SOL    HW3 8982   0.855   3.983   3.680  1.2214  0.5454 -0.6050
 2232SOL    MW4 8983   0.862   3.995   3.766  0.0463  0.1194 -0.4437
 2233SOL     OW 8984   0.911   4.273   3.829 -0.0141  0.3094  0.6452
 2233SOL    HW2 8985   0.916   4.279   3.925  1.2808 -0.6625  0.6493
 2233SOL    HW3 8986   0.893   4.180   3.813 -1.5535  0.7019 -0.0229
 2233SOL    MW4 8987   0.909   4.261   3.840 -0.0463  0.2332  0.5574
 2234SOL     OW 8988   1.131   4.404   3.714  0.1457 -0.1500  0.1221
 2234SOL    HW2 8989   1.057   4.355   3.751 -1.0485  1.8403  0.4676
 2234SOL    HW3 8990   1.118   4.397   3.619 -0.8342  0.6402  0.1802
 2234SOL    MW4 8991   1.119   4.396   3.706 -0.1411  0.2165  0.1752
 2235SOL     OW 8992   1.591   0.015   3.843 -0.2546 -0.2546  0.0414
 2235SOL    HW2 8993   1.562  -0.004   3.932 -1.1079 -1.7635 -0.5459
 2235SOL    HW3 8994   1.603  -0.070   3.803 -0.3159  0.4237 -1.4480
 2235SOL    MW4 8995   1.589   0.002   3.850 -0.3753 -0.3642 -0.2327
 2236SOL     OW 8996   1.380   0.159   3.719  0.5336 -0.3306 -0.5669
 2236SOL    HW2 8997   1.373   0.248   3.753 -1.6102 -1.0789  1.0491
 2236SOL    HW3 8998   1.452   0.120   3.769 -1.7696 -1.0214  2.3896
 2236SOL    MW4 8999   1.389   0.165   3.730 -0.0529 -0.5205  0.0362
 2237SOL     OW 9000   1.357   0.388   3.879  0.5897 -0.1379  0.0287
 2237SOL    HW2 9001   1.371   0.373   3.973 -0.5281  0.5037  0.3086
 2237SOL    HW3 9002   1.431   0.443   3.853  1.0812 -0.5875  0.4641
 2237SOL    MW4 9003   1.369   0.393   3.888  0.5072 -0.1126  0.1233
 2238SOL     OW 9004   1.576   0.494   3.744  0.3602  0.1307 -0.0455
 2238SOL    HW2 9005   1.657   0.448   3.764 -0.1530 -0.3260  1.0187
 2238SOL    HW3 9006   1.582   0.575   3.794 -0.6579 -0.7419  1.5320
 2238SOL    MW4 9007   1.588   0.499   3.753  0.1582 -0.0447  0.3028
 2239SOL     OW 9008   1.598   0.745   3.880  0.3039 -0.7223  0.4670
 2239SOL    HW2 9009   1.682   0.780   3.851 -0.3086 -0.1981 -0.7279
 2239SOL    HW3 9010   1.533   0.804   3.842 -0.5964 -1.0501  1.4876
 2239SOL    MW4 9011   1.600   0.757   3.871  0.1043 -0.6965  0.4439
 2240SOL     OW 9012   1.376   0.883   3.741 -0.3190 -0.2133  0.2843
 2240SOL    HW2 9013   1.366   0.969   3.781  1.0013 -0.3517  0.9458
 2240SOL    HW3 9014   1.301   0.832   3.774 -1.0188  0.6296  0.0006
 2240SOL    MW4 9015   1.365   0.887   3.751 -0.2372 -0.1203  0.3343
 2241SOL     OW 9016   1.345   1.140   3.836 -0.5410 -0.1248  0.7052
 2241SOL    HW2 9017   1.429   1.175   3.809 -0.8924  0.0173 -0.2268
 2241SOL    HW3 9018   1.280   1.192   3.788 -1.1026 -1.1756  0.3054
 2241SOL    MW4 9019   1.347   1.151   3.826 -0.6615 -0.2446  0.5295
 2242SOL     OW 9020   1.569   1.297   3.745 -0.0399 -0.6955  0.6964
 2242SOL    HW2 9021   1.636   1.259   3.803 -0.4904 -1.2488  0.8654
 2242SOL    HW3 9022   1.550   1.383   3.783  1.7832  0.1785 -0.3053
 2242SOL    MW4 9023   1.575   1.303   3.758  0.1411 -0.6533  0.5865
 2243SOL     OW 9024   1.569   1.534   3.883  0.0081 -0.4906 -1.0122
 2243SOL    HW2 9025   1.565   1.539   3.978  0.1756 -2.0373 -0.9163
 2243SOL    HW3 9026   1.651   1.580   3.860  0.4234 -0.8987 -0.3479
 2243SOL    MW4 9027   1.579   1.541   3.892  0.0850 -0.7485 -0.9117
 2244SOL     OW 9028   1.369   1.663   3.753  0.2205  0.3031 -0.0020
 2244SOL    HW2 9029   1.365   1.754   3.783  0.3518  0.7099 -1.2061
 2244SOL    HW3 9030   1.446   1.627   3.796  1.4609  1.4069 -1.2580
 2244SOL    MW4 9031   1.378   1.670   3.763  0.4014  0.5022 -0.3264
 2245SOL     OW 9032   1.357   1.918   3.855  0.3024 -0.1598 -0.2100
 2245SOL    HW2 9033   1.348   1.920   3.950  1.5629  0.9798 -0.1151
 2245SOL    HW3 9034   1.277   1.960   3.823  0.4146  0.4872  0.3652
 2245SOL    MW4 9035   1.345   1.923   3.863  0.4835  0.0759 -0.1214
 2246SOL     OW 9036   1.576   2.117   3.776 -0.3530 -0.2264 -0.3834
 2246SOL    HW2 9037   1.507   2.075   3.828 -0.2769 -0.9279 -0.8334
 2246SOL    HW3 9038   1.554   2.095   3.686 -0.3165  0.7360 -0.6237
 2246SOL    MW4 9039   1.564   2.108   3.771 -0.3380 -0.1919 -0.4745
 2247SOL     OW 9040   1.568   2.381   3.861  0.7435 -0.3019  0.0878
 2247SOL    HW2 9041   1.650   2.420   3.831  0.1011 -0.3009 -1.7490
 2247SOL    HW3 9042   1.564   2.296   3.817 -0.5848  0.0149 -0.4433
 2247SOL    MW4 9043   1.578   2.375   3.851  0.4834 -0.2601 -0.2246
 2248SOL     OW 9044   1.318   2.422   3.737 -0.0313  0.1226  0.3728
 2248SOL    HW2 9045   1.400   2.395   3.779  0.2158  0.0220 -0.1744
 2248SOL    HW3 9046   1.251   2.369   3.781  0.3022 -0.4411  0.2043
 2248SOL    MW4 9047   1.320   2.411   3.748  0.0452  0.0350  0.2785
 2249SOL     OW 9048   1.385   2.676   3.815 -0.1742 -0.0831 -0.0784
 2249SOL    HW2 9049   1.392   2.670   3.910  1.5158  0.6776 -0.1381
 2249SOL    HW3 9050   1.362   2.587   3.787  0.8683 -0.6811  0.9232
 2249SOL    MW4 9051   1.383   2.663   3.824  0.1863 -0.0618  0.0458
 2250SOL     OW 9052   1.598   2.842   3.721  0.3386  0.6573 -0.2764
 2250SOL    HW2 9053   1.522   2.791   3.748  0.2691  0.2406 -1.2561
 2250SOL    HW3 9054   1.605   2.827   3.627  0.3134  2.4457 -0.5758
 2250SOL    MW4 9055   1.589   2.833   3.712  0.3262  0.8383 -0.4456
 2251SOL     OW 9056   1.559   3.096   3.827 -0.4524 -0.5147 -0.0390
 2251SOL    HW2 9057   1.593   3.082   3.915  1.2312 -0.3776 -0.6529
 2251SOL    HW3 9058   1.568   3.010   3.785 -1.3031 -0.5943 -0.0613
 2251SOL    MW4 9059   1.565   3.082   3.833 -0.3426 -0.5071 -0.1230
 2252SOL     OW 9060   1.327   3.204   3.744  0.0023 -0.0373  0.1792
 2252SOL    HW2 9061   1.343   3.295   3.766 -0.8983  0.0649  0.4249
 2252SOL    HW3 9062   1.408   3.159   3.767  0.6858  0.8020 -0.5548
 2252SOL    MW4 9063   1.339   3.210   3.750 -0.0263  0.0868  0.1149
 2253SOL     OW 9064   1.376   3.473   3.865 -0.5129 -0.5335  0.1370
 2253SOL    HW2 9065   1.452   3.518   3.828 -0.3027 -1.5735 -0.7199
 2253SOL    HW3 9066   1.301   3.526   3.838 -0.1141  0.4050  0.8490
 2253SOL    MW4 9067   1.376   3.486   3.857 -0.4325 -0.5472  0.1178
 2254SOL     OW 9068   1.571   3.623   3.709  0.1932 -0.1571 -0.2942
 2254SOL    HW2 9069   1.649   3.582   3.746  0.5081  0.2653 -0.4745
 2254SOL    HW3 9070   1.570   3.711   3.748 -0.9648 -0.6366  0.7724
 2254SOL    MW4 9071   1.581   3.629   3.719  0.0819 -0.1647 -0.1771
 2255SOL     OW 9072   1.575   3.897   3.798  0.0166  0.1862  0.2199
 2255SOL    HW2 9073   1.584   3.883   3.892 -1.9047  0.3732  0.4458
 2255SOL    HW3 9074   1.486   3.931   3.787  0.2007  0.1052 -1.6655
 2255SOL    MW4 9075   1.565   3.900   3.809 -0.2126  0.2000  0.0007
 2256SOL     OW 9076   1.304   4.000   3.769  0.1945 -0.3749 -0.7940
 2256SOL    HW2 9077   1.324   4.086   3.806  0.3623 -0.1330 -1.4309
 2256SOL    HW3 9078   1.299   4.016   3.675  1.3347 -1.2802 -1.0118
 2256SOL    MW4 9079   1.306   4.014   3.761  0.3672 -0.4630 -0.9067
 2257SOL     OW 9080   1.340   4.266   3.864 -0.3352 -0.1279  0.0405
 2257SOL    HW2 9081   1.414   4.314   3.827 -1.1413  0.2643 -1.0794
 2257SOL    HW3 9082   1.263   4.307   3.826 -1.0536 -2.2607 -0.9044
 2257SOL    MW4 9083   1.340   4.277   3.854 -0.5363 -0.3581 -0.2322
 2258SOL     OW 9084   1.570   4.397   3.754  0.5227 -0.1439  0.1102
 2258SOL    HW2 9085   1.641   4.339   3.780  0.5126 -0.2805 -0.1605
 2258SOL    HW3 9086   1.565   4.388   3.658  0.1446 -0.1342  0.1268
 2258SOL    MW4 9087   1.578   4.388   3.744  0.4716 -0.1607  0.0765
 2259SOL     OW 9088   2.031   4.649   3.838 -0.2133 -0.3706 -0.3045
 2259SOL    HW2 9089   2.113   4.675   3.798 -0.1463  1.0456  0.7209
 2259SOL    HW3 9090   2.021   4.556   3.815  2.3988 -0.9578  0.8120
 2259SOL    MW4 9091   2.040   4.640   3.830  0.1402 -0.2612 -0.0217
 2260SOL     OW 9092   1.830   0.109   3.724  0.2602  0.2747  0.3430
 2260SOL    HW2 9093   1.887   0.039   3.758  0.2422 -0.1952 -0.5618
 2260SOL    HW3 9094   1.744   0.091   3.763  0.4023  0.1496  0.5984
 2260SOL    MW4 9095   1.826   0.097   3.733  0.2764  0.1962  0.2573
 2261SOL     OW 9096   1.797   0.355   3.824 -0.0703  0.5207 -0.2241
 2261SOL    HW2 9097   1.790   0.328   3.915 -0.1927 -0.1631 -0.4356
 2261SOL    HW3 9098   1.818   0.275   3.776  1.7354  1.1662 -0.5788
 2261SOL    MW4 9099   1.799   0.341   3.830  0.1520  0.5157 -0.2987
 2262SOL     OW 9100   2.030   0.496   3.759  0.6042 -0.3638  0.0953
 2262SOL    HW2 9101   1.945   0.458   3.782  0.0355  1.5850  1.3284
 2262SOL    HW3 9102   2.019   0.524   3.669 -0.3680  0.6390  0.5051
 2262SOL    MW4 9103   2.017   0.495   3.750  0.4008  0.0256  0.3123
 2263SOL     OW 9104   2.057   0.743   3.890 -0.3714  0.0837 -0.2911
 2263SOL    HW2 9105   2.024   0.739   3.980  1.8927  1.3301  0.6339
 2263SOL    HW3 9106   2.058   0.651   3.862 -1.7920 -0.2540  0.6582
 2263SOL    MW4 9107   2.053   0.730   3.898 -0.2604  0.2036 -0.0436
 2264SOL     OW 9108   1.817   0.880   3.793  0.3518  0.5544 -0.1747
 2264SOL    HW2 9109   1.894   0.828   3.816  0.8677  1.1341 -0.5396
 2264SOL    HW3 9110   1.801   0.860   3.701  0.3027  0.7159 -0.2028
 2264SOL    MW4 9111   1.825   0.871   3.784  0.4134  0.6522 -0.2263
 2265SOL     OW 9112   1.769   1.157   3.890  0.3881  0.4703  0.1279
 2265SOL    HW2 9113   1.775   1.171   3.985  0.4711  0.8882  0.0603
 2265SOL    HW3 9114   1.763   1.062   3.881  3.8262  0.1895  0.3680
 2265SOL    MW4 9115   1.769   1.146   3.902  0.8527  0.4885  0.1507
 2266SOL     OW 9116   1.993   1.275   3.752 -0.3227 -0.4750  0.0439
 2266SOL    HW2 9117   2.069   1.225   3.783 -0.0573 -0.4534 -0.5629
 2266SOL    HW3 9118   1.917   1.223   3.781 -0.2138  1.2969  3.7541
 2266SOL    MW4 9119   1.993   1.261   3.760 -0.2732 -0.2384  0.4530
 2267SOL     OW 9120   2.011   1.529   3.879 -0.4834 -0.1709 -0.0909
 2267SOL    HW2 9121   1.930   1.575   3.854  0.1640  0.4532 -1.1292
 2267SOL    HW3 9122   2.005   1.444   3.835 -1.4827 -0.9179  1.4687
 2267SOL    MW4 9123   1.999   1.524   3.870 -0.5300 -0.1870 -0.0222
 2268SOL     OW 9124   1.799   1.670   3.804  0.5783  0.3848  0.2228
 2268SOL    HW2 9125   1.813   1.764   3.817 -0.7824  0.6027  0.2412
 2268SOL    HW3 9126   1.808   1.657   3.710 -0.4939  0.7781  0.0522
 2268SOL    MW4 9127   1.802   1.681   3.793  0.2574  0.4654  0.2027
 2269SOL     OW 9128   1.815   1.921   3.864 -0.4255 -0.2295 -0.5339
 2269SOL    HW2 9129   1.821   1.924   3.960  0.1337  0.4867 -0.5862
 2269SOL    HW3 9130   1.750   1.988   3.842 -1.0315 -0.8433 -0.6156
 2269SOL    MW4 9131   1.807   1.930   3.874 -0.4317 -0.2160 -0.5515
 2270SOL     OW 9132   2.054   2.030   3.772 -0.2928  0.2662 -0.5385
 2270SOL    HW2 9133   1.970   1.997   3.804  0.0723 -0.1412  0.0190
 2270SOL    HW3 9134   2.044   2.036   3.678 -1.6571  2.2328 -0.2814
 2270SOL    MW4 9135   2.042   2.026   3.764 -0.4246  0.4721 -0.4313
 2271SOL     OW 9136   2.017   2.291   3.857 -0.2795  0.5435 -0.0874
 2271SOL    HW2 9137   1.941   2.337   3.822 -0.4467  1.2518  1.2156
 2271SOL    HW3 9138   2.017   2.207   3.810 -2.0840  0.3767  0.1888
 2271SOL    MW4 9139   2.007   2.286   3.846 -0.5393  0.6151  0.1211
 2272SOL     OW 9140   1.818   2.475   3.751  0.1617  0.0278  0.0306
 2272SOL    HW2 9141   1.823   2.570   3.767  0.4113  0.0347 -0.0880
 2272SOL    HW3 9142   1.821   2.466   3.656 -1.3626 -0.0161 -0.0285
 2272SOL    MW4 9143   1.819   2.487   3.741 -0.0066  0.0229  0.0069
 2273SOL     OW 9144   1.811   2.739   3.836  0.1572 -0.4665 -0.0960
 2273SOL    HW2 9145   1.812   2.767   3.927 -0.4211  0.9683 -0.5236
 2273SOL    HW3 9146   1.728   2.770   3.801  2.0521  2.5247 -2.1806
 2273SOL    MW4 9147   1.800   2.747   3.843  0.3309  0.1173 -0.4272
 2274SOL     OW 9148   2.031   2.868   3.683 -0.0849  0.6505  0.3019
 2274SOL    HW2 9149   2.106   2.830   3.729  0.0375 -0.7517 -1.0047
 2274SOL    HW3 9150   1.955   2.823   3.720 -0.0622  0.1880 -0.2115
 2274SOL    MW4 9151   2.031   2.857   3.694 -0.0656  0.4046  0.0615
 2275SOL     OW 9152   1.999   3.104   3.817 -0.1461 -0.0609 -0.1588
 2275SOL    HW2 9153   2.091   3.126   3.826 -0.3520  0.0289  1.8485
 2275SOL    HW3 9154   1.999   3.021   3.769  0.9489  0.0371 -0.3474
 2275SOL    MW4 9155   2.011   3.096   3.812 -0.0286 -0.0360  0.0808
 2276SOL     OW 9156   1.757   3.270   3.742  0.0478  0.2896  0.4726
 2276SOL    HW2 9157   1.838   3.221   3.758 -0.3908 -1.2754 -1.9222
 2276SOL    HW3 9158   1.687   3.209   3.766 -0.4537  1.0122  0.8534
 2276SOL    MW4 9159   1.759   3.255   3.747 -0.0762  0.1786  0.2069
 2277SOL     OW 9160   1.798   3.517   3.868 -0.7590 -0.1901 -0.4948
 2277SOL    HW2 9161   1.888   3.536   3.841 -0.9969  0.0632 -1.1224
 2277SOL    HW3 9162   1.773   3.440   3.817 -1.1305  0.1549 -0.8422
 2277SOL    MW4 9163   1.806   3.510   3.857 -0.8394 -0.1111 -0.6232
 2278SOL     OW 9164   2.063   3.574   3.790  0.0115 -0.1786 -0.8599
 2278SOL    HW2 9165   2.142   3.522   3.800  0.6771  0.8079 -0.9523
 2278SOL    HW3 9166   2.050   3.580   3.695 -0.7862 -1.2456 -0.8300
 2278SOL    MW4 9167   2.071   3.568   3.779 -0.0060 -0.1891 -0.8681
 2279SOL     OW 9168   2.054   3.850   3.848 -0.1936 -0.1834 -0.1928
 2279SOL    HW2 9169   2.125   3.907   3.817  0.4507 -1.8772 -1.9432
 2279SOL    HW3 9170   2.070   3.766   3.805 -2.5769 -0.9517  0.3329
 2279SOL    MW4 9171   2.065   3.847   3.838 -0.4230 -0.5083 -0.3548
 2280SOL     OW 9172   1.831   3.987   3.695  0.1946  0.2121  0.0687
 2280SOL    HW2 9173   1.907   3.943   3.733 -0.5936 -0.5707  0.7806
 2280SOL    HW3 9174   1.759   3.964   3.753 -0.6329  0.7675 -0.7207
 2280SOL    MW4 9175   1.832   3.978   3.708 -0.0185  0.1822  0.0582
 2281SOL     OW 9176   1.794   4.240   3.796  0.1740 -0.5814  0.2949
 2281SOL    HW2 9177   1.869   4.298   3.781 -0.6252  0.2155 -0.6692
 2281SOL    HW3 9178   1.818   4.158   3.751  1.5941 -1.2791  2.2213
 2281SOL    MW4 9179   1.807   4.237   3.788  0.2559 -0.5684  0.4218
 2282SOL     OW 9180   2.007   4.401   3.756  0.4218 -0.3321  0.4954
 2282SOL    HW2 9181   2.093   4.369   3.785  0.2707 -0.9146  0.2984
 2282SOL    HW3 9182   2.011   4.397   3.661  0.6554  0.9037  0.4423
 2282SOL    MW4 9183   2.019   4.396   3.748  0.4327 -0.2460  0.4625
 2283SOL     OW 9184   2.456   4.646   3.845 -0.1559 -0.6262 -0.2988
 2283SOL    HW2 9185   2.459   4.678   3.935 -0.5204 -0.2099 -0.4323
 2283SOL    HW3 9186   2.529   4.689   3.801 -1.1567  0.6988 -0.6935
 2283SOL    MW4 9187   2.466   4.656   3.851 -0.3362 -0.3964 -0.3688
 2284SOL     OW 9188   2.256   0.097   3.714 -0.2810 -0.4927  0.4064
 2284SOL    HW2 9189   2.331   0.050   3.749 -1.7663 -1.9668  1.7182
 2284SOL    HW3 9190   2.260   0.083   3.619  0.6687 -1.1830  0.5534
 2284SOL    MW4 9191   2.266   0.089   3.706 -0.3514 -0.7783  0.5989
 2285SOL     OW 9192   2.257   0.348   3.858  0.0410 -0.2279 -0.0969
 2285SOL    HW2 9193   2.269   0.264   3.815  0.3494 -0.5640  0.6403
 2285SOL    HW3 9194   2.177   0.384   3.820 -0.0947 -0.8588 -0.4017
 2285SOL    MW4 9195   2.248   0.342   3.847  0.0639 -0.3555 -0.0396
 2286SOL     OW 9196   2.484   0.487   3.755  0.3520  0.0212  0.3564
 2286SOL    HW2 9197   2.405   0.452   3.796  0.6068 -1.1530 -0.1060
 2286SOL    HW3 9198   2.475   0.461   3.663  1.0269  0.3255  0.2071
 2286SOL    MW4 9199   2.472   0.479   3.748  0.4749 -0.0936  0.2756
 2287SOL     OW 9200   2.483   0.757   3.850 -0.5955 -0.3410  0.2126
 2287SOL    HW2 9201   2.401   0.798   3.823 -1.2419 -1.2709  0.7296
 2287SOL    HW3 9202   2.475   0.666   3.821  0.7615 -0.1415 -0.7850
 2287SOL    MW4 9203   2.471   0.751   3.843 -0.5019 -0.4373  0.1493
 2288SOL     OW 9204   2.250   0.880   3.759  0.1385 -0.3105  0.1757
 2288SOL    HW2 9205   2.184   0.832   3.809 -1.0702  1.0895 -0.0564
 2288SOL    HW3 9206   2.233   0.856   3.668  1.0309 -1.2566  0.2511
 2288SOL    MW4 9207   2.239   0.871   3.754  0.0966 -0.2506  0.1550
 2289SOL     OW 9208   2.236   1.138   3.872 -0.0356  0.0226  0.0593
 2289SOL    HW2 9209   2.239   1.124   3.967  0.4113  1.0614  0.2018
 2289SOL    HW3 9210   2.238   1.050   3.835  0.2789 -0.3743  1.0012
 2289SOL    MW4 9211   2.237   1.125   3.880  0.0648  0.1072  0.2024
 2290SOL     OW 9212   2.471   1.272   3.755 -0.3514 -0.2943 -0.5111
 2290SOL    HW2 9213   2.464   1.359   3.796  1.0401 -0.3136 -0.2082
 2290SOL    HW3 9214   2.401   1.221   3.794 -1.8218  0.9768 -1.4196
 2290SOL    MW4 9215   2.461   1.277   3.765 -0.3619 -0.1292 -0.5910
 2291SOL     OW 9216   2.500   1.523   3.881 -0.0321 -0.2990 -0.0981
 2291SOL    HW2 9217   2.571   1.572   3.840 -0.8128 -1.3652 -2.8181
 2291SOL    HW3 9218   2.421   1.570   3.856 -0.5419 -1.0990 -0.0141
 2291SOL    MW4 9219   2.499   1.536   3.872 -0.2024 -0.5453 -0.4461
 2292SOL     OW 9220   2.260   1.645   3.775  0.0107 -0.3222  0.0382
 2292SOL    HW2 9221   2.271   1.733   3.811 -1.2358 -0.2013  0.1359
 2292SOL    HW3 9222   2.177   1.614   3.812  0.0403 -1.2192 -0.6309
 2292SOL    MW4 9223   2.250   1.652   3.785 -0.1497 -0.4246 -0.0374
 2293SOL     OW 9224   2.283   1.910   3.874 -0.2330  0.0391  0.5239
 2293SOL    HW2 9225   2.288   1.942   3.964 -0.6326  0.8246  0.2709
 2293SOL    HW3 9226   2.205   1.951   3.838 -0.7220 -1.1848  0.1671
 2293SOL    MW4 9227   2.274   1.920   3.881 -0.3500 -0.0187  0.4432
 2294SOL     OW 9228   2.482   2.017   3.711 -0.4456  0.1963 -0.0232
 2294SOL    HW2 9229   2.472   2.106   3.745 -3.2595 -0.3013  0.5877
 2294SOL    HW3 9230   2.418   1.965   3.760  1.2464 -2.2039 -0.2813
 2294SOL    MW4 9231   2.472   2.022   3.722 -0.5934 -0.1860  0.0234
 2295SOL     OW 9232   2.466   2.290   3.798  0.4506 -0.0080  0.1240
 2295SOL    HW2 9233   2.537   2.343   3.761 -0.0132 -0.4154 -1.3843
 2295SOL    HW3 9234   2.389   2.346   3.791  0.1895 -0.4266 -0.3484
 2295SOL    MW4 9235   2.465   2.305   3.792  0.3550 -0.1168 -0.1373
 2296SOL     OW 9236   2.216   2.484   3.740  0.3000  0.8739  0.2574
 2296SOL    HW2 9237   2.140   2.436   3.770 -0.1195  1.3961  0.0349
 2296SOL    HW3 9238   2.231   2.453   3.650 -0.2110  1.4489 -0.0271
 2296SOL    MW4 9239   2.208   2.474   3.732  0.1774  1.0188  0.1907
 2297SOL     OW 9240   2.233   2.761   3.820 -0.0767 -0.1449  0.0994
 2297SOL    HW2 9241   2.259   2.763   3.912  1.4852 -0.2859 -0.3269
 2297SOL    HW3 9242   2.203   2.672   3.805 -0.4756 -0.0815  0.4983
 2297SOL    MW4 9243   2.232   2.750   3.830  0.0768 -0.1552  0.0956
 2298SOL     OW 9244   2.480   2.824   3.696  0.0440 -0.1538 -0.0738
 2298SOL    HW2 9245   2.392   2.799   3.724 -0.7373  0.5624 -1.8265
 2298SOL    HW3 9246   2.475   2.829   3.600  1.9849 -0.0904 -0.1997
 2298SOL    MW4 9247   2.468   2.822   3.687  0.1967 -0.0510 -0.3216
 2299SOL     OW 9248   2.508   3.036   3.885  0.4888 -0.5479  0.3425
 2299SOL    HW2 9249   2.513   2.993   3.970  1.9290 -1.8684 -0.3892
 2299SOL    HW3 9250   2.498   2.965   3.822 -1.5767  0.4788 -0.5384
 2299SOL    MW4 9251   2.508   3.021   3.888  0.4065 -0.5865  0.1295
 2300SOL     OW 9252   2.266   3.166   3.802 -0.1364  0.3458  0.2336
 2300SOL    HW2 9253   2.284   3.260   3.812 -0.7754  0.7681 -2.2977
 2300SOL    HW3 9254   2.342   3.124   3.843  1.1439  1.9968 -0.3403
 2300SOL    MW4 9255   2.279   3.173   3.809 -0.0522  0.6194 -0.1757
 2301SOL     OW 9256   2.303   3.445   3.833 -0.3998 -0.1449  0.1992
 2301SOL    HW2 9257   2.305   3.464   3.927 -1.4797  0.7270  0.0631
 2301SOL    HW3 9258   2.364   3.508   3.795 -1.4114  0.8023  0.1192
 2301SOL    MW4 9259   2.311   3.456   3.841 -0.6759  0.0951  0.1702
 2302SOL     OW 9260   2.502   3.627   3.730  0.4106 -0.5076  0.6920
 2302SOL    HW2 9261   2.579   3.573   3.747  0.5197 -0.8168 -0.6984
 2302SOL    HW3 9262   2.484   3.613   3.637 -0.1498  1.0859  0.5504
 2302SOL    MW4 9263   2.510   3.618   3.720  0.3507 -0.3383  0.4897
 2303SOL     OW 9264   2.505   3.888   3.825  0.5610 -0.1045 -0.7395
 2303SOL    HW2 9265   2.579   3.932   3.783  1.4104 -1.4939 -0.7349
 2303SOL    HW3 9266   2.500   3.803   3.782  0.1611 -0.7591  0.5877
 2303SOL    MW4 9267   2.514   3.883   3.814  0.6201 -0.3741 -0.5641
 2304SOL     OW 9268   2.270   4.013   3.758 -0.1599  0.1010 -0.3825
 2304SOL    HW2 9269   2.350   3.969   3.788 -0.0408  0.0294 -0.8038
 2304SOL    HW3 9270   2.278   4.015   3.663 -0.4232  0.5477 -0.3961
 2304SOL    MW4 9271   2.281   4.008   3.750 -0.1788  0.1502 -0.4399
 2305SOL     OW 9272   2.248   4.277   3.847 -0.3453 -0.3339 -0.0030
 2305SOL    HW2 9273   2.246   4.276   3.943 -0.3064 -1.2096 -0.0078
 2305SOL    HW3 9274   2.266   4.186   3.823 -0.5481 -0.1482 -0.8440
 2305SOL    MW4 9275   2.250   4.265   3.857 -0.3669 -0.4249 -0.1144
 2306SOL     OW 9276   2.474   4.392   3.732 -0.2114  0.1390 -0.0000
 2306SOL    HW2 9277   2.404   4.341   3.775 -1.1459  0.0993 -1.5281
 2306SOL    HW3 9278   2.466   4.480   3.769  0.2233 -0.3530  1.2978
 2306SOL    MW4 9279   2.464   4.397   3.743 -0.2775  0.0691 -0.0303
 2307SOL     OW 9280   2.936   0.020   3.840 -0.3216 -0.1805 -0.0130
 2307SOL    HW2 9281   2.942   0.027   3.936  0.1426 -1.4041  0.0593
 2307SOL    HW3 9282   3.011   0.071   3.808  0.3311 -0.9023  0.3341
 2307SOL    MW4 9283   2.947   0.028   3.849 -0.1740 -0.4372  0.0424
 2308SOL     OW 9284   2.699   0.102   3.746  0.2947  0.0579  0.1600
 2308SOL    HW2 9285   2.781   0.067   3.779 -0.2958 -1.5864 -0.0827
 2308SOL    HW3 9286   2.706   0.095   3.651  0.1586  0.5669  0.1110
 2308SOL    MW4 9287   2.711   0.097   3.738  0.1988 -0.0919  0.1216
 2309SOL     OW 9288   2.713   0.366   3.849 -0.1298  0.5615  0.1752
 2309SOL    HW2 9289   2.698   0.277   3.818 -0.8279  0.5885  0.4332
 2309SOL    HW3 9290   2.642   0.417   3.810 -0.1004  0.8853  0.5466
 2309SOL    MW4 9291   2.702   0.361   3.840 -0.2177  0.6078  0.2582
 2310SOL     OW 9292   2.925   0.525   3.764  0.1788  0.8548  0.2911
 2310SOL    HW2 9293   3.006   0.487   3.797 -0.2675  0.6297  1.1343
 2310SOL    HW3 9294   2.857   0.464   3.790 -0.2594  0.9914 -0.5001
 2310SOL    MW4 9295   2.926   0.512   3.772  0.0622  0.8431  0.2980
 2311SOL     OW 9296   2.926   0.781   3.856  0.1132  0.4889  0.3339
 2311SOL    HW2 9297   3.001   0.809   3.804 -0.0522 -0.3309 -0.3673
 2311SOL    HW3 9298   2.909   0.692   3.826 -1.2406  0.7275  0.3631
 2311SOL    MW4 9299   2.934   0.773   3.845 -0.0875  0.4122  0.2453
 2312SOL     OW 9300   2.693   0.929   3.814  0.0089 -0.2205 -0.6564
 2312SOL    HW2 9301   2.771   0.880   3.839 -0.4027 -1.5496 -1.9133
 2312SOL    HW3 9302   2.623   0.863   3.810 -0.7697  0.6329 -1.3564
 2312SOL    MW4 9303   2.694   0.914   3.817 -0.1481 -0.2833 -0.9143
 2313SOL     OW 9304   2.728   1.199   3.864 -0.2324  0.1213 -0.3076
 2313SOL    HW2 9305   2.710   1.106   3.855  1.3129 -0.1538 -0.8523
 2313SOL    HW3 9306   2.653   1.242   3.824 -1.3248 -0.8636  0.6448
 2313SOL    MW4 9307   2.716   1.193   3.857 -0.1726 -0.0451 -0.2537
 2314SOL     OW 9308   2.961   1.287   3.724  0.1626 -0.4362  0.0873
 2314SOL    HW2 9309   2.968   1.379   3.752  0.1610 -0.3542 -0.1831
 2314SOL    HW3 9310   2.877   1.258   3.761 -0.0431 -0.2020 -0.1843
 2314SOL    MW4 9311   2.951   1.295   3.733  0.1352 -0.3945  0.0155
 2315SOL     OW 9312   2.979   1.548   3.843 -0.1281  0.0131  0.1838
 2315SOL    HW2 9313   2.985   1.529   3.937  0.5720  1.5328  0.4718
 2315SOL    HW3 9314   3.067   1.576   3.819 -0.8321  1.8236 -0.4077
 2315SOL    MW4 9315   2.991   1.549   3.852 -0.1287  0.4525  0.1438
 2316SOL     OW 9316   2.738   1.672   3.759  0.1313 -0.4277 -0.3336
 2316SOL    HW2 9317   2.821   1.627   3.776  1.0222  1.0018 -0.8245
 2316SOL    HW3 9318   2.726   1.665   3.664  0.3073  0.4300 -0.4184
 2316SOL    MW4 9319   2.747   1.665   3.749  0.2720 -0.1260 -0.4096
 2317SOL     OW 9320   2.683   1.914   3.875 -0.1719  0.2229  0.0164
 2317SOL    HW2 9321   2.689   1.829   3.833 -0.6095  0.6131 -0.8531
 2317SOL    HW3 9322   2.614   1.960   3.826 -1.0256  0.5084  1.4648
 2317SOL    MW4 9323   2.675   1.909   3.863 -0.3424  0.3121  0.0927
 2318SOL     OW 9324   2.902   2.012   3.746 -0.4251  0.2237 -0.5466
 2318SOL    HW2 9325   2.889   2.096   3.790 -0.7443  0.3416 -0.8637
 2318SOL    HW3 9326   2.829   1.958   3.774 -0.7900  0.3956 -1.1590
 2318SOL    MW4 9327   2.891   2.016   3.756 -0.5155  0.2620 -0.6692
 2319SOL     OW 9328   2.864   2.260   3.849 -0.5003  0.0705  0.0427
 2319SOL    HW2 9329   2.840   2.268   3.941  1.7734  0.2634  0.6368
 2319SOL    HW3 9330   2.945   2.310   3.840 -0.1174 -0.8215 -1.8362
 2319SOL    MW4 9331   2.871   2.268   3.860 -0.1497 -0.0219 -0.1268
 2320SOL     OW 9332   2.687   2.433   3.708  0.1784 -0.3160 -0.5948
 2320SOL    HW2 9333   2.692   2.525   3.737  1.6851 -0.6327  0.2381
 2320SOL    HW3 9334   2.748   2.387   3.766 -1.5527 -2.0779 -0.1486
 2320SOL    MW4 9335   2.696   2.439   3.720  0.1485 -0.5903 -0.4261
 2321SOL     OW 9336   2.702   2.684   3.819 -0.2639  0.0477  0.0134
 2321SOL    HW2 9337   2.698   2.687   3.914 -1.3056 -2.4237  0.0835
 2321SOL    HW3 9338   2.626   2.734   3.790  0.3407  1.2328  0.4571
 2321SOL    MW4 9339   2.691   2.691   3.828 -0.3214 -0.1221  0.0813
 2322SOL     OW 9340   2.938   2.800   3.750 -0.1557 -0.5558  0.2727
 2322SOL    HW2 9341   2.952   2.883   3.795 -0.1054 -0.4980  0.1495
 2322SOL    HW3 9342   2.855   2.767   3.784 -1.1270  0.4545 -1.0678
 2322SOL    MW4 9343   2.929   2.806   3.760 -0.2773 -0.4151  0.0794
 2323SOL     OW 9344   2.935   3.058   3.816  0.0091 -0.2712 -0.3560
 2323SOL    HW2 9345   3.007   3.114   3.787 -0.7154  1.3534  0.8742
 2323SOL    HW3 9346   2.856   3.109   3.797 -0.6128 -0.4366  1.6874
 2323SOL    MW4 9347   2.934   3.073   3.810 -0.1686 -0.0787  0.0761
 2324SOL     OW 9348   2.716   3.197   3.771 -0.3622 -0.0638 -0.3118
 2324SOL    HW2 9349   2.716   3.290   3.795 -1.3636  0.2303 -1.4400
 2324SOL    HW3 9350   2.638   3.161   3.813 -0.8898 -0.0263 -1.2406
 2324SOL    MW4 9351   2.706   3.204   3.780 -0.5636 -0.0200 -0.5832
 2325SOL     OW 9352   2.712   3.466   3.836  0.3441  0.1170 -0.8578
 2325SOL    HW2 9353   2.705   3.486   3.930  0.4698 -2.2294 -0.3328
 2325SOL    HW3 9354   2.789   3.515   3.807  0.1540  1.0716  0.1879
 2325SOL    MW4 9355   2.721   3.475   3.845  0.3355 -0.0668 -0.6506
 2326SOL     OW 9356   2.932   3.578   3.735  0.0560 -0.1147  0.3277
 2326SOL    HW2 9357   3.010   3.527   3.759 -0.0924 -0.9532 -0.9429
 2326SOL    HW3 9358   2.918   3.558   3.643 -1.2042  0.6590  0.3501
 2326SOL    MW4 9359   2.941   3.569   3.726 -0.1297 -0.1233  0.1626
 2327SOL     OW 9360   2.893   3.833   3.826  0.1448 -0.2310  0.0559
 2327SOL    HW2 9361   2.892   3.830   3.921 -0.2129 -0.4792  0.0462
 2327SOL    HW3 9362   2.916   3.744   3.799 -1.3008 -0.5587 -0.1092
 2327SOL    MW4 9363   2.896   3.821   3.835 -0.0932 -0.3068  0.0327
 2328SOL     OW 9364   2.732   4.009   3.696 -0.0427  0.2857  0.4113
 2328SOL    HW2 9365   2.725   4.090   3.746 -0.9746 -0.4354  1.5190
 2328SOL    HW3 9366   2.787   3.952   3.750  1.4738  0.5367 -0.8574
 2328SOL    MW4 9367   2.738   4.012   3.710  0.0346  0.2236  0.3901
 2329SOL     OW 9368   2.695   4.270   3.817  0.0259 -0.2668 -0.0436
 2329SOL    HW2 9369   2.769   4.329   3.802 -0.4426  0.2804 -0.2302
 2329SOL    HW3 9370   2.618   4.320   3.788 -0.4968 -0.5561  0.8188
 2329SOL    MW4 9371   2.694   4.284   3.811 -0.1047 -0.2327  0.0453
 2330SOL     OW 9372   2.953   4.426   3.739  0.7936 -0.0913  0.2128
 2330SOL    HW2 9373   3.027   4.370   3.764 -0.7048 -0.9707  2.9138
 2330SOL    HW3 9374   2.960   4.503   3.795  0.0786  0.1526 -0.0212
 2330SOL    MW4 9375   2.964   4.429   3.750  0.5016 -0.1760  0.5381
 2331SOL     OW 9376   3.360   0.004   3.869 -0.1823 -0.0405  0.2266
 2331SOL    HW2 9377   3.364   0.007   3.965  2.1324  0.0303  0.1446
 2331SOL    HW3 9378   3.438   0.051   3.840 -0.2521 -1.0716 -1.7077
 2331SOL    MW4 9379   3.371   0.011   3.878  0.1140 -0.1674 -0.0391
 2332SOL     OW 9380   3.157   0.174   3.769 -0.5056  0.0329  0.0050
 2332SOL    HW2 9381   3.229   0.113   3.781  1.2794  2.0516 -0.0361
 2332SOL    HW3 9382   3.141   0.174   3.675  0.2371  0.4323 -0.1262
 2332SOL    MW4 9383   3.165   0.166   3.758 -0.1724  0.3519 -0.0179
 2333SOL     OW 9384   3.155   0.424   3.867 -0.4875 -0.3578 -0.3756
 2333SOL    HW2 9385   3.131   0.420   3.960 -0.8901 -0.0915 -0.4629
 2333SOL    HW3 9386   3.166   0.333   3.840 -1.2722 -0.4802 -0.2919
 2333SOL    MW4 9387   3.153   0.411   3.876 -0.6440 -0.3388 -0.3762
 2334SOL     OW 9388   3.379   0.551   3.785  0.4328 -0.0704  0.3138
 2334SOL    HW2 9389   3.437   0.480   3.814  1.0806  0.7958  1.1639
 2334SOL    HW3 9390   3.291   0.521   3.806  0.6816 -0.7547  0.3822
 2334SOL    MW4 9391   3.375   0.538   3.791  0.5510 -0.0464  0.4351
 2335SOL     OW 9392   3.427   0.826   3.893  0.0606  0.4934  1.0708
 2335SOL    HW2 9393   3.401   0.827   3.985 -0.4528 -1.6893  0.9813
 2335SOL    HW3 9394   3.406   0.738   3.863  0.6302  1.0372 -1.0334
 2335SOL    MW4 9395   3.421   0.815   3.901  0.0682  0.2771  0.7813
 2336SOL     OW 9396   3.181   0.901   3.769 -0.3458 -0.2602  0.2211
 2336SOL    HW2 9397   3.275   0.894   3.790 -0.3258 -0.8382 -0.0565
 2336SOL    HW3 9398   3.178   0.898   3.674 -0.6682 -0.4292  0.2386
 2336SOL    MW4 9399   3.193   0.900   3.759 -0.3858 -0.3588  0.1869
 2337SOL     OW 9400   3.163   1.160   3.855  0.2645 -0.0357  0.3108
 2337SOL    HW2 9401   3.146   1.069   3.831 -0.6813  0.1609  0.2146
 2337SOL    HW3 9402   3.091   1.209   3.815  0.6051  0.7185  0.6118
 2337SOL    MW4 9403   3.151   1.154   3.846  0.1845  0.0896  0.3381
 2338SOL     OW 9404   3.393   1.256   3.778 -0.4007 -0.1994  0.4095
 2338SOL    HW2 9405   3.311   1.209   3.795  0.5046 -1.7101  0.7144
 2338SOL    HW3 9406   3.394   1.268   3.684 -0.8217 -0.4630  0.3674
 2338SOL    MW4 9407   3.382   1.251   3.768 -0.3366 -0.4336  0.4442
 2339SOL     OW 9408   3.387   1.516   3.889  0.1324  0.3060 -0.3039
 2339SOL    HW2 9409   3.319   1.563   3.841 -0.1350 -0.1793 -0.4110
 2339SOL    HW3 9410   3.363   1.423   3.880  1.5051  0.0390 -1.4357
 2339SOL    MW4 9411   3.375   1.510   3.881  0.2782  0.2068 -0.4675
 2340SOL     OW 9412   3.200   1.670   3.752  0.4495  0.3529  0.4153
 2340SOL    HW2 9413   3.190   1.755   3.794  1.1596  0.9834 -0.6868
 2340SOL    HW3 9414   3.184   1.686   3.659  2.7461 -0.2767 -0.1288
 2340SOL    MW4 9415   3.197   1.683   3.745  0.8459  0.3529  0.1981
 2341SOL     OW 9416   3.133   1.908   3.856 -0.1494 -0.0761  0.3414
 2341SOL    HW2 9417   3.117   1.923   3.950 -0.9920  0.4062  0.1225
 2341SOL    HW3 9418   3.051   1.932   3.814 -0.0583 -1.1207 -0.4447
 2341SOL    MW4 9419   3.120   1.913   3.863 -0.2484 -0.1502  0.2089
 2342SOL     OW 9420   3.366   2.043   3.780 -0.5929 -0.2873 -0.2945
 2342SOL    HW2 9421   3.280   2.014   3.811 -0.4432 -1.1493 -0.6686
 2342SOL    HW3 9422   3.362   2.032   3.685 -0.1470 -0.1139 -0.3339
 2342SOL    MW4 9423   3.354   2.038   3.771 -0.5145 -0.3781 -0.3490
 2343SOL     OW 9424   3.363   2.295   3.886 -0.3877 -0.0579  0.2216
 2343SOL    HW2 9425   3.284   2.327   3.844  0.9352  0.0109 -2.3021
 2343SOL    HW3 9426   3.377   2.207   3.849  0.1793 -0.4779  1.3879
 2343SOL    MW4 9427   3.355   2.287   3.875 -0.1383 -0.1040  0.0427
 2344SOL     OW 9428   3.116   2.380   3.793 -0.3562  0.4163 -0.4853
 2344SOL    HW2 9429   3.115   2.469   3.828  1.9681  0.3200 -0.0680
 2344SOL    HW3 9430   3.123   2.393   3.698  0.4327  0.7099 -0.3975
 2344SOL    MW4 9431   3.117   2.393   3.785  0.0544  0.4425 -0.4187
 2345SOL     OW 9432   3.143   2.651   3.852  0.1804  0.0879 -0.0239
 2345SOL    HW2 9433   3.143   2.673   3.945  2.0291  1.5049 -0.3181
 2345SOL    HW3 9434   3.067   2.697   3.816  0.4658  0.9695  0.4877
 2345SOL    MW4 9435   3.133   2.660   3.860  0.4621  0.3912  0.0050
 2346SOL     OW 9436   3.341   2.843   3.778 -0.1275 -0.0995  0.3408
 2346SOL    HW2 9437   3.280   2.776   3.810 -0.3104  0.1753  0.5717
 2346SOL    HW3 9438   3.353   2.823   3.685 -1.7943  0.7824 -0.0756
 2346SOL    MW4 9439   3.335   2.832   3.770 -0.3717  0.0532  0.3164
 2347SOL     OW 9440   3.371   3.115   3.844 -0.3343 -0.0010 -0.3180
 2347SOL    HW2 9441   3.466   3.115   3.828 -0.3733 -0.6001 -0.5653
 2347SOL    HW3 9442   3.345   3.023   3.835 -0.8571  0.0902  0.2644
 2347SOL    MW4 9443   3.380   3.103   3.840 -0.4082 -0.0684 -0.2742
 2348SOL     OW 9444   3.131   3.228   3.746  0.0666  0.5058 -0.2901
 2348SOL    HW2 9445   3.217   3.196   3.774  0.4167  0.7331 -1.0988
 2348SOL    HW3 9446   3.133   3.224   3.651 -0.7799  0.6233 -0.3179
 2348SOL    MW4 9447   3.143   3.223   3.737  0.0010  0.5512 -0.4005
 2349SOL     OW 9448   3.160   3.464   3.862 -0.4296 -0.0958  0.0930
 2349SOL    HW2 9449   3.236   3.509   3.828 -0.3551  0.2711  0.7382
 2349SOL    HW3 9450   3.151   3.386   3.806  1.8864 -1.4526  1.5213
 2349SOL    MW4 9451   3.169   3.459   3.850 -0.1140 -0.2265  0.3667
 2350SOL     OW 9452   3.384   3.594   3.796  0.4019  0.2607  0.9550
 2350SOL    HW2 9453   3.356   3.675   3.839 -0.5781  0.4195  0.0417
 2350SOL    HW3 9454   3.372   3.611   3.703 -0.4212 -1.1540  0.7875
 2350SOL    MW4 9455   3.378   3.607   3.789  0.1640  0.0949  0.8123
 2351SOL     OW 9456   3.375   3.858   3.893 -0.3723 -0.1930 -0.3101
 2351SOL    HW2 9457   3.447   3.902   3.849  0.4813  0.8250  1.9972
 2351SOL    HW3 9458   3.296   3.896   3.855  0.3491  1.2562 -0.3887
 2351SOL    MW4 9459   3.374   3.869   3.882 -0.1643  0.1326 -0.0160
 2352SOL     OW 9460   3.133   3.962   3.785 -0.2745  0.6808  0.1640
 2352SOL    HW2 9461   3.124   4.055   3.807  0.5241  0.6125  0.8050
 2352SOL    HW3 9462   3.049   3.923   3.809 -1.9583  1.8644 -3.4082
 2352SOL    MW4 9463   3.121   3.969   3.791 -0.3912  0.8283 -0.2232
 2353SOL     OW 9464   3.184   4.259   3.844  0.1109 -0.0538 -0.4558
 2353SOL    HW2 9465   3.183   4.264   3.939  1.9426 -2.5253 -0.2670
 2353SOL    HW3 9466   3.260   4.311   3.817 -0.4042  0.6419 -0.5922
 2353SOL    MW4 9467   3.194   4.267   3.853  0.2844 -0.2880 -0.4489
 2354SOL     OW 9468   3.388   4.423   3.767  0.3353  0.3419  0.1939
 2354SOL    HW2 9469   3.451   4.378   3.823  1.0417  1.4460  0.2833
 2354SOL    HW3 9470   3.382   4.511   3.802  2.5101  1.7707 -2.8022
 2354SOL    MW4 9471   3.395   4.429   3.779  0.7155  0.6762 -0.1893
 2355SOL     OW 9472   3.825   4.663   3.886 -0.0964  0.5288  0.1538
 2355SOL    HW2 9473   3.900   4.713   3.854 -0.9861  1.9860  0.2983
 2355SOL    HW3 9474   3.841   4.574   3.856 -0.0179  1.4866 -2.8994
 2355SOL    MW4 9475   3.837   4.658   3.878 -0.2034  0.8473 -0.2298
 2356SOL     OW 9476   3.585   0.133   3.772 -0.3075  0.0515  0.2081
 2356SOL    HW2 9477   3.661   0.093   3.815  1.4662  2.6973 -0.3558
 2356SOL    HW3 9478   3.599   0.116   3.678 -0.6728  0.0983  0.1441
 2356SOL    MW4 9479   3.597   0.126   3.765 -0.1218  0.4068  0.1249
 2357SOL     OW 9480   3.586   0.377   3.904  0.4928 -0.1307  0.3567
 2357SOL    HW2 9481   3.651   0.413   3.843 -0.6075 -0.6203 -1.1544
 2357SOL    HW3 9482   3.566   0.290   3.869 -2.7840  0.9460 -0.6783
 2357SOL    MW4 9483   3.592   0.370   3.891 -0.0849 -0.0532  0.0207
 2358SOL     OW 9484   3.805   0.509   3.755  0.3509  0.5511 -0.4550
 2358SOL    HW2 9485   3.876   0.448   3.775  0.5816  1.1400  0.5709
 2358SOL    HW3 9486   3.828   0.589   3.802 -1.0680  0.7030 -0.0024
 2358SOL    MW4 9487   3.818   0.511   3.764  0.1941  0.6489 -0.2599
 2359SOL     OW 9488   3.857   0.755   3.880  0.1212  0.1866 -0.4174
 2359SOL    HW2 9489   3.927   0.759   3.815  0.0112  0.6508 -0.5070
 2359SOL    HW3 9490   3.792   0.817   3.849 -0.8353 -1.0613 -0.9215
 2359SOL    MW4 9491   3.858   0.764   3.867 -0.0193  0.0832 -0.4954
 2360SOL     OW 9492   3.656   0.886   3.740 -0.1898 -0.4944 -0.5123
 2360SOL    HW2 9493   3.650   0.970   3.785  0.0365 -0.6565 -0.1750
 2360SOL    HW3 9494   3.590   0.831   3.783  1.7991 -1.4653  1.4185
 2360SOL    MW4 9495   3.646   0.890   3.751  0.1023 -0.6440 -0.2131
 2361SOL     OW 9496   3.626   1.120   3.869  0.0185 -0.3986  0.0848
 2361SOL    HW2 9497   3.689   1.178   3.826  0.1377 -0.4170  0.2356
 2361SOL    HW3 9498   3.541   1.149   3.836  0.1755 -1.0296 -0.9039
 2361SOL    MW4 9499   3.623   1.131   3.859  0.0548 -0.4841 -0.0255
 2362SOL     OW 9500   3.823   1.269   3.742 -0.5463  0.0230 -0.4200
 2362SOL    HW2 9501   3.894   1.211   3.769 -1.2819 -0.7604 -0.1322
 2362SOL    HW3 9502   3.840   1.351   3.788  0.1871 -0.1458 -0.3829
 2362SOL    MW4 9503   3.835   1.272   3.751 -0.5467 -0.1026 -0.3772
 2363SOL     OW 9504   3.862   1.534   3.864  0.3140  0.2596  0.0125
 2363SOL    HW2 9505   3.861   1.548   3.959 -1.3167 -1.3820  0.2698
 2363SOL    HW3 9506   3.782   1.577   3.833  0.0990 -0.4272 -0.4032
 2363SOL    MW4 9507   3.851   1.542   3.873  0.0706 -0.0477 -0.0083
 2364SOL     OW 9508   3.613   1.638   3.791  0.4993  0.3787 -0.1800
 2364SOL    HW2 9509   3.537   1.594   3.829  0.5879  1.3814  1.1860
 2364SOL    HW3 9510   3.587   1.657   3.701 -0.4801 -0.2266 -0.0343
 2364SOL    MW4 9511   3.599   1.635   3.784  0.3817  0.4312  0.0193
 2365SOL     OW 9512   3.566   1.911   3.940  0.4048  0.3888 -0.3999
 2365SOL    HW2 9513   3.569   1.820   3.910 -0.0591  0.0723  0.5030
 2365SOL    HW3 9514   3.496   1.951   3.889  0.3955  0.1522 -0.5738
 2365SOL    MW4 9515   3.557   1.904   3.930  0.3426  0.3160 -0.3040
 2366SOL     OW 9516   3.763   2.011   3.776 -0.2069  0.1753  0.2156
 2366SOL    HW2 9517   3.850   1.992   3.812 -0.5690 -0.4607  0.7682
 2366SOL    HW3 9518   3.703   1.965   3.834 -0.8881  0.2248 -0.4476
 2366SOL    MW4 9519   3.767   2.003   3.789 -0.3448  0.0980  0.2010
 2367SOL     OW 9520   3.808   2.277   3.829 -0.0609 -0.0895  0.0198
 2367SOL    HW2 9521   3.723   2.321   3.823 -0.6604 -1.2077  0.3148
 2367SOL    HW3 9522   3.791   2.187   3.801  1.1205 -0.2069 -0.3651
 2367SOL    MW4 9523   3.795   2.271   3.824  0.0160 -0.2522  0.0079
 2368SOL     OW 9524   3.580   2.452   3.778  0.1048  0.6434  0.1947
 2368SOL    HW2 9525   3.498   2.413   3.808 -0.5189  1.7242 -0.0668
 2368SOL    HW3 9526   3.567   2.465   3.684  0.7194  0.4563  0.0882
 2368SOL    MW4 9527   3.567   2.449   3.770  0.1037  0.7613  0.1459
 2369SOL     OW 9528   3.597   2.717   3.831  0.2018 -0.0702  0.1070
 2369SOL    HW2 9529   3.591   2.624   3.809  0.7496  0.1421 -1.0122
 2369SOL    HW3 9530   3.508   2.750   3.822  0.3958 -0.0139 -1.7908
 2369SOL    MW4 9531   3.585   2.710   3.827  0.2997 -0.0348 -0.2909
 2370SOL     OW 9532   3.835   2.839   3.744  0.3107 -0.3921  0.1551
 2370SOL    HW2 9533   3.909   2.791   3.780  0.4991  1.4945  2.4264
 2370SOL    HW3 9534   3.759   2.784   3.763  0.7495 -0.7826  0.8079
 2370SOL    MW4 9535   3.835   2.826   3.751  0.3934 -0.1948  0.5407
 2371SOL     OW 9536   3.872   3.104   3.854 -0.4453  0.0216  0.0799
 2371SOL    HW2 9537   3.790   3.148   3.831  0.1159  0.3898 -1.2570
 2371SOL    HW3 9538   3.868   3.020   3.809 -0.5903 -0.4400  0.9440
 2371SOL    MW4 9539   3.860   3.099   3.845 -0.3905  0.0093  0.0174
 2372SOL     OW 9540   3.635   3.208   3.761  0.0379 -0.4388 -0.0043
 2372SOL    HW2 9541   3.611   3.294   3.797  0.4261 -0.5570  0.5552
 2372SOL    HW3 9542   3.607   3.211   3.670 -2.0403 -0.5466  0.6012
 2372SOL    MW4 9543   3.628   3.220   3.754 -0.1850 -0.4687  0.1497
 2373SOL     OW 9544   3.604   3.463   3.886  0.4197  0.1373 -0.1314
 2373SOL    HW2 9545   3.610   3.488   3.978  0.2277 -1.0145  0.1986
 2373SOL    HW3 9546   3.517   3.494   3.859 -0.3696 -1.3798  0.6467
 2373SOL    MW4 9547   3.593   3.471   3.894  0.2902 -0.2148  0.0145
 2374SOL     OW 9548   3.793   3.630   3.745  0.0221  0.4098 -0.2484
 2374SOL    HW2 9549   3.803   3.701   3.809  1.3176  0.7535 -0.8111
 2374SOL    HW3 9550   3.722   3.576   3.780 -1.5740  2.4486 -0.2510
 2374SOL    MW4 9551   3.785   3.633   3.758 -0.0179  0.7241 -0.3231
 2375SOL     OW 9552   3.801   3.856   3.891  0.1087 -0.1032 -0.1479
 2375SOL    HW2 9553   3.791   3.877   3.984 -0.3443 -0.4075 -0.1266
 2375SOL    HW3 9554   3.864   3.919   3.859  1.1535 -0.7351  0.6336
 2375SOL    MW4 9555   3.808   3.867   3.899  0.1867 -0.2270 -0.0420
 2376SOL     OW 9556   3.589   3.979   3.784  0.1566  0.3236 -0.9712
 2376SOL    HW2 9557   3.607   4.067   3.817 -0.3180  0.1423 -0.2104
 2376SOL    HW3 9558   3.660   3.926   3.819  0.5130  0.4295 -1.5362
 2376SOL    MW4 9559   3.601   3.984   3.793  0.1409  0.3138 -0.9453
 2377SOL     OW 9560   3.593   4.252   3.892 -0.0660  0.2957  0.0944
 2377SOL    HW2 9561   3.602   4.225   3.984 -1.6693  0.6895  0.3821
 2377SOL    HW3 9562   3.669   4.307   3.876  0.7967 -0.6513  0.8794
 2377SOL    MW4 9563   3.604   4.256   3.902 -0.1638  0.2232  0.2358
 2378SOL     OW 9564   3.844   4.392   3.826 -0.0438 -0.5615 -0.0204
 2378SOL    HW2 9565   3.932   4.358   3.842  1.2682  2.5214 -0.3071
 2378SOL    HW3 9566   3.833   4.390   3.731  0.3657  0.5202 -0.0997
 2378SOL    MW4 9567   3.854   4.387   3.816  0.1836 -0.0114 -0.0687
 2379SOL     OW 9568   4.293   4.611   3.863  0.1769 -0.4822 -0.0220
 2379SOL    HW2 9569   4.280   4.605   3.957  0.1908 -0.1428  0.0020
 2379SOL    HW3 9570   4.364   4.675   3.852 -0.4160  0.1295 -0.3001
 2379SOL    MW4 9571   4.301   4.618   3.874  0.1006 -0.3567 -0.0556
 2380SOL     OW 9572   4.060   0.111   3.794 -0.1191  0.3516  0.1095
 2380SOL    HW2 9573   4.125   0.049   3.828 -1.3914 -1.6458 -1.0099
 2380SOL    HW3 9574   4.069   0.104   3.699 -2.4474 -0.4424 -0.0602
 2380SOL    MW4 9575   4.070   0.102   3.786 -0.5941 -0.0167 -0.0606
 2381SOL     OW 9576   4.053   0.383   3.860 -0.0697  0.1288  0.0893
 2381SOL    HW2 9577   4.060   0.372   3.954 -1.9638 -1.2929  0.1127
 2381SOL    HW3 9578   4.051   0.293   3.826  1.9228  0.6350 -1.4277
 2381SOL    MW4 9579   4.054   0.370   3.868 -0.0563  0.0080 -0.1075
 2382SOL     OW 9580   4.302   0.451   3.744 -0.1625 -0.4876  0.3412
 2382SOL    HW2 9581   4.224   0.404   3.774 -0.5204 -0.8550 -1.1324
 2382SOL    HW3 9582   4.300   0.444   3.649  0.5508  1.3039  0.1603
 2382SOL    MW4 9583   4.292   0.444   3.735 -0.1154 -0.2998  0.1228
 2383SOL     OW 9584   4.287   0.734   3.815  0.0154 -0.1839 -0.0009
 2383SOL    HW2 9585   4.208   0.767   3.773  2.0541  0.8782 -3.1104
 2383SOL    HW3 9586   4.294   0.643   3.785  0.6191  0.0844 -0.6620
 2383SOL    MW4 9587   4.277   0.726   3.806  0.3638 -0.0084 -0.4983
 2384SOL     OW 9588   4.054   0.832   3.707  0.0649 -0.3102  0.2355
 2384SOL    HW2 9589   4.042   0.920   3.743  0.2204 -0.3712  0.4375
 2384SOL    HW3 9590   4.054   0.845   3.612  1.4833  0.1010  0.2790
 2384SOL    MW4 9591   4.052   0.845   3.699  0.2728 -0.2639  0.2677
 2385SOL     OW 9592   4.049   1.085   3.826  0.2057  0.0872  0.3185
 2385SOL    HW2 9593   4.029   1.104   3.917 -1.7715  0.7268 -0.2135
 2385SOL    HW3 9594   4.110   1.153   3.799 -0.4570  0.8429  0.7192
 2385SOL    MW4 9595   4.054   1.096   3.834 -0.1426  0.2713  0.3011
 2386SOL     OW 9596   4.206   1.300   3.763 -0.9889  0.6630 -0.2811
 2386SOL    HW2 9597   4.212   1.390   3.795 -1.5697  0.9950 -1.0680
 2386SOL    HW3 9598   4.237   1.306   3.672  0.2651 -0.1797  0.0941
 2386SOL    MW4 9599   4.211   1.313   3.755 -0.9003  0.5956 -0.3352
 2387SOL     OW 9600   4.282   1.570   3.913 -0.4687 -0.4900  0.3148
 2387SOL    HW2 9601   4.214   1.628   3.879  0.6552  0.0855 -0.9301
 2387SOL    HW3 9602   4.363   1.621   3.909  0.2891 -1.6607  0.4881
 2387SOL    MW4 9603   4.283   1.584   3.908 -0.2203 -0.5685  0.1733
 2388SOL     OW 9604   4.063   1.703   3.788 -0.1567 -0.4992 -0.2325
 2388SOL    HW2 9605   4.035   1.793   3.808 -0.4345 -0.6211 -0.0649
 2388SOL    HW3 9606   3.987   1.649   3.809  0.2739 -0.8591  0.4191
 2388SOL    MW4 9607   4.049   1.708   3.794 -0.1364 -0.5628 -0.1245
 2389SOL     OW 9608   4.012   1.970   3.890  0.1382 -0.0317  0.2061
 2389SOL    HW2 9609   4.032   1.979   3.983  1.6521 -2.6173  0.1517
 2389SOL    HW3 9610   4.094   1.988   3.845  0.0147 -1.2030 -0.5094
 2389SOL    MW4 9611   4.025   1.974   3.896  0.3214 -0.5274  0.1047
 2390SOL     OW 9612   4.253   2.046   3.775 -0.0417  0.0131 -0.6026
 2390SOL    HW2 9613   4.272   2.138   3.793 -1.5707  0.2023  0.1797
 2390SOL    HW3 9614   4.262   2.038   3.681  0.7231  0.8195 -0.6072
 2390SOL    MW4 9615   4.256   2.057   3.765 -0.1426  0.1445 -0.5000
 2391SOL     OW 9616   4.269   2.315   3.865  0.2711  0.2938 -0.0755
 2391SOL    HW2 9617   4.259   2.318   3.960 -0.8207 -0.6136 -0.1495
 2391SOL    HW3 9618   4.196   2.366   3.831  0.7725  0.7825 -0.4222
 2391SOL    MW4 9619   4.258   2.322   3.873  0.1936  0.2384 -0.1309
 2392SOL     OW 9620   4.030   2.446   3.740  0.8110  0.4853 -0.0391
 2392SOL    HW2 9621   4.024   2.532   3.782  0.7879  1.2272 -1.5409
 2392SOL    HW3 9622   3.960   2.395   3.781 -0.0940  1.6170 -0.1482
 2392SOL    MW4 9623   4.020   2.451   3.751  0.6886  0.7324 -0.2515
 2393SOL     OW 9624   4.024   2.702   3.867 -0.2378  0.2894  0.3412
 2393SOL    HW2 9625   4.022   2.722   3.960 -1.2836  1.5287  0.0595
 2393SOL    HW3 9626   4.101   2.749   3.834 -0.7335  1.0807  0.3060
 2393SOL    MW4 9627   4.034   2.711   3.875 -0.4411  0.5572  0.2992
 2394SOL     OW 9628   4.269   2.825   3.755  0.0015  0.4286 -0.0009
 2394SOL    HW2 9629   4.290   2.915   3.776 -0.4224  0.6236 -0.4043
 2394SOL    HW3 9630   4.345   2.775   3.784 -1.0763  0.5387  3.1420
 2394SOL    MW4 9631   4.281   2.830   3.761 -0.1965  0.4687  0.3607
 2395SOL     OW 9632   4.297   3.093   3.816 -0.0390 -0.2670 -0.5732
 2395SOL    HW2 9633   4.222   3.147   3.790  0.2346  0.1889 -0.4186
 2395SOL    HW3 9634   4.373   3.149   3.801  0.2011 -0.3806  0.1962
 2395SOL    MW4 9635   4.297   3.108   3.810  0.0291 -0.2220 -0.4513
 2396SOL     OW 9636   4.080   3.261   3.756  0.3654 -0.0894  0.1430
 2396SOL    HW2 9637   4.013   3.201   3.790 -1.0439  1.5435  0.3019
 2396SOL    HW3 9638   4.069   3.258   3.661  1.6977 -1.6542  0.0125
 2396SOL    MW4 9639   4.070   3.253   3.748  0.3552 -0.0806  0.1466
 2397SOL     OW 9640   4.016   3.514   3.862 -0.0418  0.0163  0.7202
 2397SOL    HW2 9641   4.042   3.432   3.819 -1.0993 -0.7560  1.5414
 2397SOL    HW3 9642   3.940   3.544   3.813  0.0095  0.2215  0.7663
 2397SOL    MW4 9643   4.010   3.507   3.850 -0.1745 -0.0584  0.8345
 2398SOL     OW 9644   4.243   3.649   3.768  0.2612 -0.0518  0.2636
 2398SOL    HW2 9645   4.167   3.596   3.794  1.0557 -0.2202  2.3048
 2398SOL    HW3 9646   4.318   3.605   3.807  1.1779  1.3615  0.1245
 2398SOL    MW4 9647   4.243   3.636   3.777  0.4873  0.1125  0.5147
 2399SOL     OW 9648   4.248   3.884   3.913  0.0627  0.3177 -0.4306
 2399SOL    HW2 9649   4.178   3.936   3.874 -0.9552 -1.2080 -0.6846
 2399SOL    HW3 9650   4.248   3.802   3.863 -0.3887 -1.1503  1.9107
 2399SOL    MW4 9651   4.239   3.880   3.901 -0.1311 -0.0772 -0.1552
 2400SOL     OW 9652   4.025   3.994   3.801  0.5591  0.5862  0.1079
 2400SOL    HW2 9653   4.030   4.085   3.832 -0.2127  0.6779 -0.0174
 2400SOL    HW3 9654   4.026   4.002   3.705 -0.9893  0.5686  0.0757
 2400SOL    MW4 9655   4.026   4.007   3.792  0.2532  0.5960  0.0870
 2401SOL     OW 9656   4.083   4.266   3.880  0.0959 -0.6927 -0.1461
 2401SOL    HW2 9657   4.103   4.296   3.968 -0.5700  2.6940 -1.0673
 2401SOL    HW3 9658   4.160   4.288   3.828 -0.3968 -0.5830 -0.8488
 2401SOL    MW4 9659   4.096   4.272   3.885 -0.0567 -0.2313 -0.3605
 2402SOL     OW 9660   4.309   4.351   3.736 -0.1008 -0.6656 -0.5072
 2402SOL    HW2 9661   4.307   4.439   3.773  1.9402  0.0233 -1.9720
 2402SOL    HW3 9662   4.377   4.305   3.785 -1.7845 -1.7552  0.8809
 2402SOL    MW4 9663   4.318   4.356   3.747 -0.0544 -0.7181 -0.5174
 2403SOL     OW 9664   0.283   4.630   4.111  0.0414  0.2859  0.6287
 2403SOL    HW2 9665   0.357   4.652   4.168  1.4292 -0.3660 -0.8910
 2403SOL    HW3 9666   0.260   4.541   4.136 -0.0256  0.3708  0.8750
 2403SOL    MW4 9667   0.290   4.621   4.122  0.2157  0.2117  0.4606
 2404SOL     OW 9668   0.046   0.066   4.200  0.1239  0.5651  0.2578
 2404SOL    HW2 9669   0.039   0.033   4.289  1.1757  0.1400  0.1907
 2404SOL    HW3 9670   0.129   0.031   4.168 -1.0473 -0.6837 -1.4697
 2404SOL    MW4 9671   0.056   0.057   4.207  0.1081  0.3443  0.0215
 2405SOL     OW 9672   0.043   0.338   4.167  0.1968 -0.1043 -0.4845
 2405SOL    HW2 9673   0.048   0.349   4.073  1.2077 -1.4011 -0.5961
 2405SOL    HW3 9674   0.040   0.243   4.181 -0.8703  0.0908  0.7380
 2405SOL    MW4 9675   0.043   0.327   4.157  0.1894 -0.2497 -0.3381
 2406SOL     OW 9676   0.273   0.474   4.228 -0.3759  0.3970 -0.4871
 2406SOL    HW2 9677   0.284   0.497   4.321 -0.6729 -0.6222 -0.1863
 2406SOL    HW3 9678   0.190   0.426   4.225 -1.1985  1.8483 -1.5668
 2406SOL    MW4 9679   0.263   0.470   4.240 -0.5237  0.4540 -0.5898
 2407SOL     OW 9680   0.237   0.728   4.103  0.4914 -0.0995  0.2612
 2407SOL    HW2 9681   0.154   0.761   4.136  0.5853  1.9828 -1.4256
 2407SOL    HW3 9682   0.254   0.649   4.153 -2.1699 -0.1760  1.0992
 2407SOL    MW4 9683   0.228   0.722   4.114  0.1527  0.1651  0.1493
 2408SOL     OW 9684   0.015   0.866   4.197 -0.0274  0.3929  0.3202
 2408SOL    HW2 9685  -0.065   0.832   4.156  0.0471  1.1025 -0.4373
 2408SOL    HW3 9686   0.005   0.961   4.192  0.7554  0.4819  0.4395
 2408SOL    MW4 9687   0.003   0.874   4.191  0.0857  0.4983  0.2360
 2409SOL     OW 9688   4.485   1.142   4.161 -0.0673 -0.3519 -0.1013
 2409SOL    HW2 9689   4.563   1.193   4.187  0.2068 -0.7159 -0.2186
 2409SOL    HW3 9690   4.489   1.139   4.066 -0.6457  0.2916 -0.1498
 2409SOL    MW4 9691   4.496   1.149   4.152 -0.1073 -0.3151 -0.1235
 2410SOL     OW 9692   0.230   1.300   4.296 -0.3644  0.2818 -0.0308
 2410SOL    HW2 9693   0.213   1.264   4.383  0.4380  0.2365  0.1131
 2410SOL    HW3 9694   0.291   1.238   4.256 -0.5562  0.4200 -0.5472
 2410SOL    MW4 9695   0.236   1.287   4.302 -0.2838  0.2941 -0.0801
 2411SOL     OW 9696   3.184   3.152   4.527 -0.2563  0.0943 -0.1799
 2411SOL    HW2 9697   3.101   3.141   4.572 -0.0437 -2.1168 -0.2905
 2411SOL    HW3 9698   3.161   3.156   4.434 -0.2027 -1.0262 -0.2454
 2411SOL    MW4 9699   3.170   3.151   4.521 -0.2210 -0.3455 -0.2031
 2412SOL     OW 9700   0.031   1.701   4.265  0.0089 -0.4738  0.1331
 2412SOL    HW2 9701  -0.057   1.672   4.242 -0.3710  0.4446  0.3942
 2412SOL    HW3 9702   0.029   1.796   4.250  0.5962 -0.2701  1.2842
 2412SOL    MW4 9703   0.019   1.710   4.260  0.0362 -0.3259  0.3190
 2413SOL     OW 9704   0.026   3.311   4.499  0.4407 -0.4360 -0.3990
 2413SOL    HW2 9705   0.021   3.406   4.502  0.6315 -0.4693  1.0991
 2413SOL    HW3 9706   0.012   3.290   4.407  0.9598  1.0705 -0.8437
 2413SOL    MW4 9707   0.024   3.321   4.487  0.5343 -0.2418 -0.2599
 2414SOL     OW 9708   0.240   1.678   4.624  0.4079  0.2537  0.0180
 2414SOL    HW2 9709   0.303   1.651   4.557 -0.1331  0.9575 -0.7895
 2414SOL    HW3 9710   0.158   1.637   4.598  0.2178  0.4416  0.3147
 2414SOL    MW4 9711   0.238   1.669   4.612  0.3115  0.3713 -0.0496
 2415SOL     OW 9712   0.220   2.374   4.116 -0.0423 -0.1554  0.6060
 2415SOL    HW2 9713   0.295   2.407   4.165  0.2551  0.0694  0.0023
 2415SOL    HW3 9714   0.219   2.280   4.134  1.7965 -0.5707 -1.2323
 2415SOL    MW4 9715   0.229   2.366   4.125  0.2395 -0.1807  0.2837
 2416SOL     OW 9716   4.479   2.500   4.141  0.3555 -0.1869  0.5370
 2416SOL    HW2 9717   4.408   2.439   4.159  1.1833 -1.7358 -1.2761
 2416SOL    HW3 9718   4.558   2.447   4.141  1.1367  0.9327 -0.7192
 2416SOL    MW4 9719   4.480   2.485   4.143  0.5679 -0.2434  0.1326
 2417SOL     OW 9720   4.429   2.767   4.098 -0.0265  0.1042 -0.7871
 2417SOL    HW2 9721   4.403   2.675   4.101  0.1643  0.0660 -0.3718
 2417SOL    HW3 9722   4.515   2.769   4.140  0.0876  0.4323 -1.0308
 2417SOL    MW4 9723   4.437   2.755   4.104  0.0138  0.1423 -0.7648
 2418SOL     OW 9724   0.197   2.764   4.215  0.3824  0.0128 -0.0368
 2418SOL    HW2 9725   0.277   2.735   4.172 -0.0486  0.1404 -0.9308
 2418SOL    HW3 9726   0.201   2.860   4.211 -0.4115  0.0050 -1.2033
 2418SOL    MW4 9727   0.208   2.773   4.209  0.2208  0.0286 -0.3085
 2419SOL     OW 9728   0.211   3.065   4.175  0.1567 -0.2395 -0.5156
 2419SOL    HW2 9729   0.285   3.122   4.197 -0.3106  0.7383 -1.4324
 2419SOL    HW3 9730   0.134   3.121   4.182 -0.6437 -1.5011  1.4306
 2419SOL    MW4 9731   0.211   3.080   4.179 -0.0105 -0.2768 -0.3796
 2420SOL     OW 9732   4.476   3.265   4.238 -0.1194  0.2811 -0.1083
 2420SOL    HW2 9733   4.390   3.243   4.204 -0.3300  1.2432 -0.2142
 2420SOL    HW3 9734   4.491   3.356   4.211  1.6204 -0.3872 -1.4867
 2420SOL    MW4 9735   4.467   3.274   4.230  0.0825  0.3200 -0.3047
 2421SOL     OW 9736   0.012   3.531   4.143 -0.5599 -0.2913 -0.0712
 2421SOL    HW2 9737  -0.069   3.559   4.186 -0.0052  2.1669 -0.5501
 2421SOL    HW3 9738  -0.006   3.538   4.050 -0.5603 -2.0780 -0.2223
 2421SOL    MW4 9739  -0.001   3.535   4.137 -0.4864 -0.2027 -0.1540
 2422SOL     OW 9740   0.260   3.670   4.199 -0.0130 -0.6572  0.5685
 2422SOL    HW2 9741   0.326   3.607   4.170  1.1590  0.5672  0.5019
 2422SOL    HW3 9742   0.179   3.620   4.204  1.0625 -2.3564  1.2977
 2422SOL    MW4 9743   0.258   3.655   4.196  0.2835 -0.7200  0.6557
 2423SOL     OW 9744   0.225   3.937   4.129 -0.2936  0.1012 -0.0846
 2423SOL    HW2 9745   0.240   3.845   4.149 -0.4651 -0.2437 -1.4888
 2423SOL    HW3 9746   0.141   3.958   4.171 -0.8501 -0.7165 -0.7682
 2423SOL    MW4 9747   0.216   3.928   4.137 -0.3897 -0.0522 -0.3600
 2424SOL     OW 9748   4.470   4.003   4.267  0.3563  0.0377 -0.2392
 2424SOL    HW2 9749   4.506   3.975   4.351 -1.5884  2.2524  1.4014
 2424SOL    HW3 9750   4.390   3.952   4.257  0.2060  0.3122 -0.4228
 2424SOL    MW4 9751   4.464   3.992   4.277  0.0796  0.3662 -0.0472
 2425SOL     OW 9752   4.467   4.251   4.169 -0.1902  0.0588  0.1391
 2425SOL    HW2 9753   4.475   4.157   4.186 -0.3116 -0.0015 -0.1307
 2425SOL    HW3 9754   4.475   4.259   4.074 -0.1800  0.3204  0.1627
 2425SOL    MW4 9755   4.469   4.240   4.159 -0.2050  0.0858  0.1063
 2426SOL     OW 9756   0.231   4.381   4.199 -0.0895  0.6187 -0.3575
 2426SOL    HW2 9757   0.210   4.394   4.292 -2.8496 -0.8409 -0.7262
 2426SOL    HW3 9758   0.161   4.325   4.167  1.8309 -0.3769 -2.9192
 2426SOL    MW4 9759   0.219   4.375   4.207 -0.2003  0.2952 -0.7443
 2427SOL     OW 9760   0.742   4.644   4.125 -0.1985  0.0963 -0.0726
 2427SOL    HW2 9761   0.661   4.676   4.166  0.5770  1.5947  0.3274
 2427SOL    HW3 9762   0.736   4.675   4.035 -0.4417 -0.4913 -0.2597
 2427SOL    MW4 9763   0.730   4.653   4.119 -0.1283  0.2170 -0.0439
 2428SOL     OW 9764   0.504   0.056   4.247  0.0486 -0.4052 -0.0701
 2428SOL    HW2 9765   0.486   0.057   4.341  0.8689 -0.2760  0.0860
 2428SOL    HW3 9766   0.492   0.147   4.220  1.6785 -0.0736  0.2725
 2428SOL    MW4 9767   0.500   0.069   4.256  0.3719 -0.3444 -0.0048
 2429SOL     OW 9768   0.487   0.329   4.167  0.2775 -0.2223  0.2731
 2429SOL    HW2 9769   0.410   0.382   4.185  0.4769 -0.1754  0.9859
 2429SOL    HW3 9770   0.506   0.345   4.074  0.2499  0.8446  0.4503
 2429SOL    MW4 9771   0.480   0.338   4.157  0.3001 -0.0754  0.3905
 2430SOL     OW 9772   0.685   0.494   4.269 -0.1759  0.1861  0.0789
 2430SOL    HW2 9773   0.616   0.437   4.237  1.5164 -0.8889 -1.7750
 2430SOL    HW3 9774   0.675   0.575   4.219 -1.3417  0.8048  1.2865
 2430SOL    MW4 9775   0.675   0.497   4.258 -0.1065  0.1259 -0.0062
 2431SOL     OW 9776   0.664   0.734   4.117 -0.1848 -0.6487  0.1966
 2431SOL    HW2 9777   0.576   0.770   4.127 -0.8436 -1.9465 -0.8112
 2431SOL    HW3 9778   0.669   0.710   4.024  1.4153 -0.1255  0.1349
 2431SOL    MW4 9779   0.653   0.736   4.106 -0.0606 -0.7509  0.0553
 2432SOL     OW 9780   0.441   0.851   4.229  0.2350 -0.2533 -0.2248
 2432SOL    HW2 9781   0.432   0.944   4.210  2.3274 -0.5698 -3.0689
 2432SOL    HW3 9782   0.369   0.809   4.183 -0.2344 -0.1425  0.3974
 2432SOL    MW4 9783   0.430   0.858   4.221  0.4491 -0.2805 -0.5178
 2433SOL     OW 9784   0.411   1.121   4.176  0.1126 -0.1780 -0.1676
 2433SOL    HW2 9785   0.496   1.153   4.206  0.3279  0.7524 -1.7705
 2433SOL    HW3 9786   0.422   1.108   4.082 -1.1842 -1.1405 -0.1962
 2433SOL    MW4 9787   0.424   1.123   4.168 -0.0301 -0.1825 -0.3834
 2434SOL     OW 9788   0.646   1.230   4.261  0.1629  0.0966 -0.0910
 2434SOL    HW2 9789   0.645   1.227   4.357  0.8523  0.7395 -0.0574
 2434SOL    HW3 9790   0.656   1.322   4.240 -0.2340 -0.0148 -0.7925
 2434SOL    MW4 9791   0.647   1.241   4.271  0.2014  0.1668 -0.1793
 2435SOL     OW 9792   0.668   1.494   4.149 -0.5161 -0.6074  0.4708
 2435SOL    HW2 9793   0.743   1.535   4.192 -0.7969  0.1301  0.2693
 2435SOL    HW3 9794   0.673   1.525   4.058 -2.1494  1.0031  0.9112
 2435SOL    MW4 9795   0.679   1.503   4.143 -0.7687 -0.2974  0.5021
 2436SOL     OW 9796   0.224   1.536   4.164  0.1537 -0.2714 -0.1946
 2436SOL    HW2 9797   0.220   1.454   4.213 -0.1676 -0.3599 -0.3707
 2436SOL    HW3 9798   0.146   1.584   4.190 -0.2419 -0.4993 -0.9358
 2436SOL    MW4 9799   0.213   1.532   4.174  0.0591 -0.3132 -0.3166
 2437SOL     OW 9800   0.439   1.923   4.139 -0.0306 -0.0899  0.3050
 2437SOL    HW2 9801   0.417   1.836   4.171  0.0524 -0.1518  0.1914
 2437SOL    HW3 9802   0.464   1.910   4.048 -2.0499  0.3467 -0.3160
 2437SOL    MW4 9803   0.440   1.910   4.131 -0.2860 -0.0405  0.2079
 2438SOL     OW 9804   0.667   2.074   4.213 -0.1350 -0.2084 -0.5899
 2438SOL    HW2 9805   0.670   2.060   4.308 -2.6556 -0.7340 -0.5503
 2438SOL    HW3 9806   0.601   2.013   4.182 -0.2009  0.8197 -2.5403
 2438SOL    MW4 9807   0.659   2.064   4.222 -0.4762 -0.1421 -0.8421
 2439SOL     OW 9808   0.668   2.323   4.109 -0.1344 -0.2780 -0.0730
 2439SOL    HW2 9809   0.669   2.233   4.143 -1.0226 -0.3213 -0.1495
 2439SOL    HW3 9810   0.638   2.314   4.019  0.1998  0.0514 -0.2132
 2439SOL    MW4 9811   0.664   2.310   4.102 -0.2075 -0.2401 -0.1016
 2440SOL     OW 9812   0.456   2.467   4.253  0.0170 -0.1379 -0.0277
 2440SOL    HW2 9813   0.464   2.560   4.232 -1.8656  0.0798  0.1849
 2440SOL    HW3 9814   0.523   2.425   4.198  0.0454  1.1961 -1.0522
 2440SOL    MW4 9815   0.466   2.474   4.243 -0.2276  0.0670 -0.1349
 2441SOL     OW 9816   0.453   2.724   4.111  0.2489  0.5779  0.2712
 2441SOL    HW2 9817   0.523   2.784   4.136  0.2804  0.3516  0.7355
 2441SOL    HW3 9818   0.452   2.726   4.015  0.7421  0.7507  0.2694
 2441SOL    MW4 9819   0.462   2.732   4.102  0.3181  0.5713  0.3328
 2442SOL     OW 9820   0.695   2.844   4.192 -0.3253  0.0330 -0.0956
 2442SOL    HW2 9821   0.668   2.833   4.284 -1.0699  0.3327 -0.2759
 2442SOL    HW3 9822   0.698   2.939   4.179 -0.5471 -0.0141 -0.4796
 2442SOL    MW4 9823   0.692   2.855   4.203 -0.4528  0.0665 -0.1702
 2443SOL     OW 9824   0.695   3.110   4.149  0.3546  0.2959 -0.1031
 2443SOL    HW2 9825   0.766   3.144   4.203 -0.9133  1.3562  0.9375
 2443SOL    HW3 9826   0.617   3.153   4.183 -0.3060  2.1451 -3.7229
 2443SOL    MW4 9827   0.694   3.120   4.160  0.1003  0.6797 -0.4435
 2444SOL     OW 9828   0.433   3.212   4.211  0.2684  0.0667 -0.5577
 2444SOL    HW2 9829   0.418   3.221   4.305  3.9654 -1.7205  0.2866
 2444SOL    HW3 9830   0.429   3.302   4.177 -0.3807  0.8022  1.4323
 2444SOL    MW4 9831   0.431   3.225   4.219  0.6705 -0.0720 -0.1841
 2445SOL     OW 9832   0.452   3.488   4.124  0.1684 -0.0881  0.2313
 2445SOL    HW2 9833   0.539   3.518   4.149  0.3619 -0.8826  0.5215
 2445SOL    HW3 9834   0.452   3.491   4.028  0.1567  0.9044  0.2575
 2445SOL    MW4 9835   0.463   3.492   4.114  0.1924 -0.0622  0.2732
 2446SOL     OW 9836   0.699   3.599   4.236  0.1540 -0.0962  0.3204
 2446SOL    HW2 9837   0.718   3.619   4.328  1.0165  0.3103  0.0629
 2446SOL    HW3 9838   0.776   3.550   4.206 -0.4387 -0.8429  0.0060
 2446SOL    MW4 9839   0.712   3.595   4.244  0.1896 -0.1411  0.2451
 2447SOL     OW 9840   0.644   3.852   4.112  0.0958 -0.2995 -0.3915
 2447SOL    HW2 9841   0.577   3.897   4.163 -0.8893  0.0585 -1.9702
 2447SOL    HW3 9842   0.656   3.768   4.157 -0.3578  0.2372  0.7355
 2447SOL    MW4 9843   0.636   3.847   4.124 -0.0941 -0.1814 -0.4506
 2448SOL     OW 9844   0.614   4.397   4.524  0.4470 -0.3168  0.1349
 2448SOL    HW2 9845   0.622   4.405   4.429 -0.1286  1.0649  0.1953
 2448SOL    HW3 9846   0.571   4.312   4.536 -0.1951 -0.1505 -0.8717
 2448SOL    MW4 9847   0.609   4.387   4.513  0.2863 -0.1125  0.0105
 2449SOL     OW 9848   0.474   4.287   4.127  0.1123  0.0132  0.0828
 2449SOL    HW2 9849   0.389   4.317   4.157  0.2096  1.0860 -0.7005
 2449SOL    HW3 9850   0.470   4.291   4.032  0.8047 -0.6032  0.0144
 2449SOL    MW4 9851   0.463   4.291   4.119  0.2164  0.0734 -0.0300
 2450SOL     OW 9852   0.684   4.395   4.252 -0.5084  0.4072 -0.2266
 2450SOL    HW2 9853   0.603   4.358   4.217 -1.1494  0.2564  1.3487
 2450SOL    HW3 9854   0.700   4.472   4.198 -0.9992 -0.2885 -1.3795
 2450SOL    MW4 9855   0.675   4.401   4.240 -0.6577  0.2952 -0.1707
 2451SOL     OW 9856   1.215   4.606   4.056 -0.2295 -0.0334 -0.1576
 2451SOL    HW2 9857   1.174   4.606   3.969 -0.2830  0.2873 -0.1326
 2451SOL    HW3 9858   1.179   4.528   4.099  0.7270 -0.8697 -0.8547
 2451SOL    MW4 9859   1.205   4.595   4.050 -0.1103 -0.1025 -0.2460
 2452SOL     OW 9860   0.930   0.152   4.268  0.4944 -0.1047 -0.3779
 2452SOL    HW2 9861   0.890   0.078   4.222 -0.3344 -0.1397  0.3900
 2452SOL    HW3 9862   0.911   0.228   4.213  1.0273 -0.4005 -0.9806
 2452SOL    MW4 9863   0.922   0.152   4.255  0.4553 -0.1484 -0.3567
 2453SOL     OW 9864   0.876   0.382   4.114 -0.2116  0.2963 -0.5157
 2453SOL    HW2 9865   0.810   0.435   4.159 -0.3743 -0.0451 -0.3504
 2453SOL    HW3 9866   0.960   0.420   4.140 -0.2971 -0.0430  0.2524
 2453SOL    MW4 9867   0.878   0.394   4.123 -0.2443  0.2065 -0.3924
 2454SOL     OW 9868   1.362   0.346   4.170 -0.5857 -0.2293 -0.1613
 2454SOL    HW2 9869   1.330   0.269   4.216 -0.7409  0.1733  0.4088
 2454SOL    HW3 9870   1.401   0.400   4.239  1.3446 -0.7267 -0.8274
 2454SOL    MW4 9871   1.363   0.343   4.185 -0.3514 -0.2418 -0.1745
 2455SOL     OW 9872   1.120   0.737   4.091  0.3202  0.0220 -0.3682
 2455SOL    HW2 9873   1.196   0.778   4.132  0.4029 -0.0702 -0.4272
 2455SOL    HW3 9874   1.125   0.645   4.117  0.4136 -0.0521 -0.6414
 2455SOL    MW4 9875   1.131   0.730   4.100  0.3436  0.0000 -0.4120
 2456SOL     OW 9876   0.915   0.884   4.206  0.1142 -0.1567  0.2705
 2456SOL    HW2 9877   0.985   0.830   4.169  0.2483  0.7154 -0.7746
 2456SOL    HW3 9878   0.834   0.841   4.178  0.2193  0.0578 -0.3527
 2456SOL    MW4 9879   0.914   0.871   4.198  0.1458 -0.0133  0.0505
 2457SOL     OW 9880   0.890   1.148   4.138 -0.2068 -0.3243 -0.1846
 2457SOL    HW2 9881   0.899   1.058   4.169 -1.1372  0.0123  1.1562
 2457SOL    HW3 9882   0.809   1.179   4.180  0.5814  1.4209  0.1156
 2457SOL    MW4 9883   0.880   1.140   4.148 -0.2256 -0.0498  0.0319
 2458SOL     OW 9884   1.138   1.258   4.211  0.4398 -0.1009  0.3076
 2458SOL    HW2 9885   1.145   1.266   4.306 -0.0415  1.0048  0.2576
 2458SOL    HW3 9886   1.046   1.237   4.196  0.2780  0.7964  0.0251
 2458SOL    MW4 9887   1.127   1.256   4.222  0.3550  0.1633  0.2637
 2459SOL     OW 9888   1.136   1.516   4.109  0.1709  0.2837  0.5071
 2459SOL    HW2 9889   1.051   1.545   4.140 -0.3695 -0.5189 -0.2144
 2459SOL    HW3 9890   1.141   1.424   4.134  0.8925  0.3671  0.6844
 2459SOL    MW4 9891   1.126   1.507   4.116  0.1948  0.1888  0.4354
 2460SOL     OW 9892   0.917   1.621   4.226  0.3698 -0.1989 -0.4241
 2460SOL    HW2 9893   0.949   1.619   4.316 -1.3324 -0.0608  0.2058
 2460SOL    HW3 9894   0.911   1.714   4.205 -1.9206 -0.1402  0.3379
 2460SOL    MW4 9895   0.920   1.633   4.235 -0.1570 -0.1730 -0.2403
 2461SOL     OW 9896   0.879   1.888   4.132 -0.4797  0.3596  0.6577
 2461SOL    HW2 9897   0.814   1.947   4.171  1.0615  1.9421  0.8971
 2461SOL    HW3 9898   0.866   1.896   4.038 -0.8368  0.4128  0.7090
 2461SOL    MW4 9899   0.868   1.896   4.125 -0.3235  0.5754  0.6962
 2462SOL     OW 9900   1.111   2.029   4.208  0.2878 -0.4231  0.0089
 2462SOL    HW2 9901   1.105   2.040   4.303 -0.3711  0.2873 -0.1081
 2462SOL    HW3 9902   1.028   1.990   4.182  0.4228 -0.5192 -0.2911
 2462SOL    MW4 9903   1.099   2.025   4.217  0.2187 -0.3421 -0.0467
 2463SOL     OW 9904   1.083   2.292   4.110 -0.2509 -0.1317 -0.1834
 2463SOL    HW2 9905   1.173   2.307   4.138 -0.0316 -0.0430 -0.9194
 2463SOL    HW3 9906   1.065   2.201   4.135 -0.2904  0.1525  0.8354
 2463SOL    MW4 9907   1.093   2.282   4.117 -0.2272 -0.0825 -0.1459
 2464SOL     OW 9908   0.879   2.439   4.239  0.4702  0.0403 -0.0057
 2464SOL    HW2 9909   0.803   2.405   4.192 -1.0507  0.8169  1.8404
 2464SOL    HW3 9910   0.954   2.396   4.197 -1.1509 -2.8170 -0.0937
 2464SOL    MW4 9911   0.879   2.429   4.227  0.0557 -0.2344  0.2260
 2465SOL     OW 9912   0.890   2.669   4.088 -0.2057 -0.3349 -0.5399
 2465SOL    HW2 9913   0.883   2.595   4.148 -0.7942 -0.4481 -0.7373
 2465SOL    HW3 9914   0.823   2.731   4.119  1.5823  0.9682  0.7970
 2465SOL    MW4 9915   0.880   2.668   4.100 -0.0475 -0.1779 -0.3891
 2466SOL     OW 9916   1.136   2.766   4.168  0.5902  0.4812 -0.1875
 2466SOL    HW2 9917   1.126   2.861   4.160 -1.0548  0.3484  0.1919
 2466SOL    HW3 9918   1.050   2.731   4.145  1.5877 -1.0092 -1.7078
 2466SOL    MW4 9919   1.123   2.774   4.164  0.5047  0.2668 -0.3381
 2467SOL     OW 9920   1.119   3.045   4.137 -0.0075  0.1927 -0.1536
 2467SOL    HW2 9921   1.195   3.095   4.169 -0.4246  0.2535  0.7637
 2467SOL    HW3 9922   1.125   3.051   4.042  0.2665  1.5378 -0.0688
 2467SOL    MW4 9923   1.130   3.053   4.128 -0.0262  0.3779 -0.0215
 2468SOL     OW 9924   0.935   3.210   4.282 -0.1363 -0.5517 -0.3126
 2468SOL    HW2 9925   0.970   3.209   4.371 -0.9336  0.4484  0.0245
 2468SOL    HW3 9926   0.987   3.145   4.235  0.7247 -0.6268  0.7193
 2468SOL    MW4 9927   0.946   3.201   4.287 -0.1279 -0.4294 -0.1316
 2469SOL     OW 9928   0.896   3.443   4.126 -0.6688  0.3521 -0.1486
 2469SOL    HW2 9929   0.922   3.356   4.157  0.4592  0.4584 -0.7663
 2469SOL    HW3 9930   0.883   3.432   4.032 -3.0495  0.2709  0.1719
 2469SOL    MW4 9931   0.898   3.430   4.118 -0.8341  0.3555 -0.1884
 2470SOL     OW 9932   1.136   3.606   4.214  0.3768  0.0968 -0.0090
 2470SOL    HW2 9933   1.120   3.699   4.197  1.8318  0.3941  0.2052
 2470SOL    HW3 9934   1.056   3.562   4.183 -0.2670  1.3932 -0.2362
 2470SOL    MW4 9935   1.123   3.612   4.208  0.4838  0.3068 -0.0105
 2471SOL     OW 9936   1.095   3.868   4.146 -0.0924  0.0688 -0.5935
 2471SOL    HW2 9937   1.179   3.904   4.176 -0.1552  2.6818 -3.3590
 2471SOL    HW3 9938   1.029   3.925   4.188 -0.3810 -0.1398 -0.7666
 2471SOL    MW4 9939   1.097   3.881   4.156 -0.1389  0.3860 -0.9809
 2472SOL     OW 9940   0.858   3.997   4.235 -0.0198  0.7007  0.1768
 2472SOL    HW2 9941   0.873   4.074   4.180 -0.6917  1.1027  0.5524
 2472SOL    HW3 9942   0.781   3.955   4.197  0.9833 -0.4006 -0.6916
 2472SOL    MW4 9943   0.850   4.002   4.223  0.0239  0.6084  0.1121
 2473SOL     OW 9944   0.897   4.254   4.127  0.1764  0.2621  0.5428
 2473SOL    HW2 9945   0.976   4.307   4.143 -0.3829  0.9459  1.0717
 2473SOL    HW3 9946   0.827   4.300   4.174 -0.2086 -1.2899  1.5371
 2473SOL    MW4 9947   0.898   4.267   4.136  0.0519  0.1478  0.7439
 2474SOL     OW 9948   1.320   4.229   4.526 -0.4203 -0.0323  0.4440
 2474SOL    HW2 9949   1.402   4.278   4.523  0.2928 -1.2535 -0.1752
 2474SOL    HW3 9950   1.252   4.297   4.520  0.5439  0.9191  0.1240
 2474SOL    MW4 9951   1.322   4.245   4.525 -0.1990 -0.0682  0.3200
 2475SOL     OW 9952   1.493   4.618   4.103  0.4303 -0.1411  0.4365
 2475SOL    HW2 9953   1.514   4.664   4.184  1.2930  0.3587 -0.0570
 2475SOL    HW3 9954   1.398   4.613   4.101  0.3870  0.3868  1.1779
 2475SOL    MW4 9955   1.483   4.623   4.114  0.5385 -0.0057  0.4692
 2476SOL     OW 9956   1.120   4.385   4.187 -0.3495  0.4175 -0.1424
 2476SOL    HW2 9957   1.121   4.400   4.281  0.4977  2.6886 -0.4832
 2476SOL    HW3 9958   1.197   4.330   4.170  0.9316  2.0621  0.2022
 2476SOL    MW4 9959   1.131   4.380   4.197 -0.0687  0.9341 -0.1416
 2477SOL     OW 9960   1.188   0.568   4.453 -0.0985  0.1397 -0.0008
 2477SOL    HW2 9961   1.156   0.498   4.510  0.7301  0.4029  0.8084
 2477SOL    HW3 9962   1.118   0.634   4.455 -0.2181  0.0072  0.4670
 2477SOL    MW4 9963   1.175   0.568   4.461 -0.0050  0.1569  0.1678
 2478SOL     OW 9964   1.964   4.526   4.561 -0.0462  0.2485 -0.0324
 2478SOL    HW2 9965   1.936   4.435   4.555 -0.2758  0.3398 -0.3223
 2478SOL    HW3 9966   2.053   4.526   4.526 -0.3908  0.3026 -0.9089
 2478SOL    MW4 9967   1.972   4.514   4.556 -0.1220  0.2680 -0.1869
 2479SOL     OW 9968   1.562   0.711   4.186  0.1665 -0.1740  0.0430
 2479SOL    HW2 9969   1.640   0.741   4.232  0.5231  0.1120 -0.7381
 2479SOL    HW3 9970   1.589   0.703   4.094  0.1040 -2.9889  0.2301
 2479SOL    MW4 9971   1.576   0.714   4.180  0.2054 -0.5076 -0.0353
 2480SOL     OW 9972   1.334   0.874   4.241 -0.1238  0.0295  0.0278
 2480SOL    HW2 9973   1.356   0.963   4.211 -1.5637  0.2034 -0.5143
 2480SOL    HW3 9974   1.415   0.824   4.229  0.7479  1.2995  0.4780
 2480SOL    MW4 9975   1.348   0.879   4.236 -0.1987  0.2200  0.0157
 2481SOL     OW 9976   1.365   1.133   4.113 -0.1327  0.1881  0.2895
 2481SOL    HW2 9977   1.274   1.154   4.131  0.1899  1.4658  0.5128
 2481SOL    HW3 9978   1.373   1.141   4.018 -0.0966  0.8102  0.3376
 2481SOL    MW4 9979   1.354   1.137   4.103 -0.0854  0.4387  0.3252
 2482SOL     OW 9980   1.540   1.276   4.253  0.1077 -0.2918 -0.1545
 2482SOL    HW2 9981   1.529   1.255   4.346  0.0416 -0.4165 -0.1897
 2482SOL    HW3 9982   1.472   1.226   4.209  1.7252 -2.2524 -0.5287
 2482SOL    MW4 9983   1.530   1.266   4.259  0.3124 -0.5668 -0.2079
 2483SOL     OW 9984   1.562   1.530   4.164 -0.3459 -0.1966 -0.7413
 2483SOL    HW2 9985   1.480   1.576   4.179  0.5680  1.2493 -0.1855
 2483SOL    HW3 9986   1.548   1.443   4.202 -1.3254  0.3228  0.0959
 2483SOL    MW4 9987   1.550   1.524   4.171 -0.3545  0.0626 -0.5574
 2484SOL     OW 9988   1.333   1.653   4.240 -0.1076  0.0419  0.5702
 2484SOL    HW2 9989   1.337   1.743   4.209  2.1049 -1.1799 -2.9467
 2484SOL    HW3 9990   1.259   1.614   4.193 -0.3570 -0.3041  1.2318
 2484SOL    MW4 9991   1.324   1.660   4.230  0.1514 -0.1649  0.1936
 2485SOL     OW 9992   1.351   1.901   4.138  0.2183 -0.3157 -0.1332
 2485SOL    HW2 9993   1.422   1.953   4.176  0.7445 -1.0823 -0.0496
 2485SOL    HW3 9994   1.271   1.947   4.162  0.7328  1.1474 -1.1244
 2485SOL    MW4 9995   1.350   1.914   4.146  0.3556 -0.2238 -0.2532
 2486SOL     OW 9996   1.577   2.013   4.242  0.0108 -0.4205  0.3202
 2486SOL    HW2 9997   1.646   1.956   4.210  1.4451  0.6316  1.4738
 2486SOL    HW3 9998   1.588   2.095   4.194 -0.3621 -0.2037  0.5947
 2486SOL    MW4 9999   1.587   2.017   4.231  0.1509 -0.2530  0.5083
 2487SOL     OW10000   1.592   2.262   4.119  0.5203 -0.4012 -0.2873
 2487SOL    HW210001   1.653   2.315   4.170 -1.0365  1.2354 -0.1024
 2487SOL    HW310002   1.592   2.301   4.032 -1.6979  0.8160  0.2301
 2487SOL    MW410003   1.600   2.274   4.114  0.0222 -0.0243 -0.1950
 2488SOL     OW10004   1.335   2.402   4.176 -0.1241 -0.0620 -0.1260
 2488SOL    HW210005   1.344   2.490   4.141 -0.6541  0.0394 -0.0112
 2488SOL    HW310006   1.412   2.355   4.144  0.5198  0.6324  0.3927
 2488SOL    MW410007   1.346   2.407   4.168 -0.1091  0.0429 -0.0424
 2489SOL     OW10008   1.387   2.656   4.094 -0.4154  0.2017 -0.1703
 2489SOL    HW210009   1.458   2.670   4.157 -1.7034 -0.3878  1.4249
 2489SOL    HW310010   1.310   2.695   4.135 -1.1128  0.4872 -1.7171
 2489SOL    MW410011   1.387   2.663   4.107 -0.6773  0.1614 -0.1645
 2490SOL     OW10012   1.631   2.679   4.242 -0.1283 -0.1467  0.3501
 2490SOL    HW210013   1.602   2.684   4.333 -1.7145 -2.0543 -0.0166
 2490SOL    HW310014   1.688   2.602   4.239  0.2623  0.1515 -0.2005
 2490SOL    MW410015   1.635   2.669   4.254 -0.2860 -0.3591  0.2289
 2491SOL     OW10016   1.658   3.111   4.096  0.6406  0.5400  0.4488
 2491SOL    HW210017   1.710   3.162   4.157  1.0012  0.7475 -0.0291
 2491SOL    HW310018   1.568   3.122   4.127  0.7720  1.0157  0.6708
 2491SOL    MW410019   1.653   3.119   4.108  0.7056  0.6301  0.4148
 2492SOL     OW10020   1.382   3.149   4.168 -0.1371  0.3398 -0.4715
 2492SOL    HW210021   1.383   3.146   4.263  0.0249 -0.4290 -0.4939
 2492SOL    HW310022   1.374   3.242   4.146  0.4746  0.5649  0.2827
 2492SOL    MW410023   1.381   3.161   4.177 -0.0349  0.2680 -0.3748
 2493SOL     OW10024   1.318   3.425   4.133  0.0219 -0.1524  0.3420
 2493SOL    HW210025   1.255   3.494   4.152 -0.2769 -0.2432 -0.2850
 2493SOL    HW310026   1.337   3.436   4.040  0.3124 -0.6343  0.3435
 2493SOL    MW410027   1.312   3.436   4.123  0.0209 -0.2284  0.2599
 2494SOL     OW10028   1.534   3.560   4.217  0.2953 -0.4540  0.2381
 2494SOL    HW210029   1.535   3.538   4.310  0.1568 -1.1510  0.0811
 2494SOL    HW310030   1.465   3.504   4.180 -1.1064  1.3609  0.0806
 2494SOL    MW410031   1.525   3.549   4.224  0.0921 -0.3068  0.1960
 2495SOL     OW10032   1.564   3.820   4.097 -0.4675 -0.7455  0.1418
 2495SOL    HW210033   1.481   3.852   4.133 -0.1510  0.2911 -0.0278
 2495SOL    HW310034   1.572   3.731   4.131 -2.4464 -1.4513 -1.1731
 2495SOL    MW410035   1.554   3.813   4.106 -0.6869 -0.7019 -0.0544
 2496SOL     OW10036   1.336   3.940   4.237 -0.0539 -0.2519 -0.3107
 2496SOL    HW210037   1.367   3.927   4.327 -0.0994 -0.8903 -0.3839
 2496SOL    HW310038   1.339   4.034   4.224  1.0323 -0.2416 -0.0225
 2496SOL    MW410039   1.341   3.950   4.247  0.0832 -0.3347 -0.2823
 2497SOL     OW10040   1.329   4.220   4.143  0.2364 -0.3709  0.4124
 2497SOL    HW210041   1.345   4.237   4.050 -1.7743 -0.4369  0.0422
 2497SOL    HW310042   1.399   4.266   4.188 -0.7073  2.4783 -0.9580
 2497SOL    MW410043   1.341   4.228   4.137 -0.1534 -0.0038  0.1831
 2498SOL     OW10044   1.552   4.374   4.220 -0.3181  0.4347 -0.4271
 2498SOL    HW210045   1.537   4.456   4.173 -1.4529 -0.6316 -2.0208
 2498SOL    HW310046   1.617   4.328   4.167 -1.1551 -0.5213 -0.6365
 2498SOL    MW410047   1.558   4.379   4.207 -0.5782  0.1674 -0.6652
 2499SOL     OW10048   1.942   0.071   4.089  0.3102 -0.1225  0.0151
 2499SOL    HW210049   1.933  -0.006   4.146  0.1606  0.0588  0.2420
 2499SOL    HW310050   1.977   0.037   4.007 -1.8239 -0.7798 -0.6581
 2499SOL    MW410051   1.945   0.057   4.086  0.0089 -0.1853 -0.0434
 2500SOL     OW10052   1.617   0.019   4.349  0.1279 -0.3934 -0.1175
 2500SOL    HW210053   1.585  -0.015   4.432 -0.0373  0.0535  0.0046
 2500SOL    HW310054   1.633   0.112   4.366  1.7164 -0.6652 -0.1086
 2500SOL    MW410055   1.615   0.027   4.362  0.3158 -0.3703 -0.1001
 2501SOL     OW10056   1.652   0.287   4.358 -0.3663  0.2161  0.4151
 2501SOL    HW210057   1.586   0.354   4.374  1.7572  2.3862  0.3049
 2501SOL    HW310058   1.677   0.299   4.267 -0.1166 -0.8609  0.3346
 2501SOL    MW410059   1.647   0.297   4.348 -0.0532  0.3603  0.3896
 2502SOL     OW10060   1.792   0.317   4.112  0.4666 -0.1475  0.3250
 2502SOL    HW210061   1.857   0.375   4.154  1.2303 -0.4178 -0.4746
 2502SOL    HW310062   1.833   0.231   4.113 -0.3035 -0.5110  0.7080
 2502SOL    MW410063   1.806   0.313   4.118  0.4658 -0.2311  0.2704
 2503SOL     OW10064   1.999   0.757   4.161 -0.2913  0.5026  0.2134
 2503SOL    HW210065   2.082   0.794   4.189  0.3072 -0.1168 -0.7209
 2503SOL    HW310066   2.004   0.665   4.188 -0.7491  0.5070  0.3174
 2503SOL    MW410067   2.010   0.750   4.168 -0.2728  0.4215  0.1035
 2504SOL     OW10068   1.772   0.857   4.297  0.1653  0.2103 -0.0345
 2504SOL    HW210069   1.765   0.949   4.273  0.6644 -0.2188 -1.8938
 2504SOL    HW310070   1.854   0.827   4.256  0.1693 -0.9754  0.8101
 2504SOL    MW410071   1.782   0.865   4.288  0.2316 -0.0027 -0.1683
 2505SOL     OW10072   1.768   1.116   4.178  0.6228  0.1495 -0.6492
 2505SOL    HW210073   1.700   1.172   4.214 -0.4471 -0.5119 -1.6220
 2505SOL    HW310074   1.850   1.154   4.210 -0.2106  0.7176  0.8535
 2505SOL    MW410075   1.770   1.128   4.187  0.3717  0.1372 -0.5794
 2506SOL     OW10076   2.016   1.258   4.250  0.2359  0.3135  0.0641
 2506SOL    HW210077   2.092   1.223   4.203  0.2975  0.2393  0.2201
 2506SOL    HW310078   1.990   1.335   4.199  1.2366  1.1185  0.7398
 2506SOL    MW410079   2.023   1.264   4.237  0.3760  0.4098  0.1740
 2507SOL     OW10080   1.982   1.512   4.132  0.0340 -0.2596 -0.4882
 2507SOL    HW210081   2.059   1.549   4.174  0.6274 -0.8691 -1.0155
 2507SOL    HW310082   1.998   1.523   4.038 -1.3168  1.1733 -0.5749
 2507SOL    MW410083   1.995   1.518   4.125 -0.0659 -0.1509 -0.5693
 2508SOL     OW10084   1.788   1.645   4.290 -0.4129  0.2055  0.3010
 2508SOL    HW210085   1.866   1.599   4.257  0.3639 -0.0828  2.5032
 2508SOL    HW310086   1.715   1.601   4.246  0.5608 -0.5178 -0.6279
 2508SOL    MW410087   1.789   1.633   4.280 -0.1818  0.0720  0.4692
 2509SOL     OW10088   1.809   1.893   4.150 -0.4617  0.0497  0.1312
 2509SOL    HW210089   1.796   1.813   4.200 -0.0338 -0.4564 -0.5620
 2509SOL    HW310090   1.903   1.912   4.157 -0.3090 -0.2946 -0.8755
 2509SOL    MW410091   1.820   1.885   4.157 -0.3852 -0.0626 -0.0939
 2510SOL     OW10092   2.053   2.024   4.175 -0.0529  0.2342 -0.4221
 2510SOL    HW210093   2.145   2.021   4.151  0.3770  2.9713  0.7156
 2510SOL    HW310094   2.052   2.002   4.268 -0.6379 -0.4869 -0.5924
 2510SOL    MW410095   2.065   2.020   4.184 -0.0732  0.5002 -0.2942
 2511SOL     OW10096   1.969   2.291   4.122 -0.3347 -0.0911 -0.3991
 2511SOL    HW210097   1.995   2.207   4.159  1.0169  0.2530 -0.5358
 2511SOL    HW310098   1.986   2.282   4.028  0.5788  0.5845 -0.3140
 2511SOL    MW410099   1.975   2.279   4.114 -0.0359  0.0436 -0.4058
 2512SOL     OW10100   1.773   2.426   4.256 -0.1050 -0.6428 -0.3427
 2512SOL    HW210101   1.844   2.389   4.204  2.6233  1.8744  1.4255
 2512SOL    HW310102   1.784   2.387   4.343 -0.2785  0.4799  0.1898
 2512SOL    MW410103   1.784   2.416   4.261  0.2321 -0.1626 -0.0381
 2513SOL     OW10104   1.803   2.865   4.096 -0.0647 -0.2633  0.9404
 2513SOL    HW210105   1.743   2.800   4.131  0.3039 -1.3483 -0.4177
 2513SOL    HW310106   1.754   2.948   4.099 -0.0474 -0.3365  3.9295
 2513SOL    MW410107   1.789   2.868   4.101 -0.0137 -0.4163  1.1559
 2514SOL     OW10108   2.054   2.849   4.210  0.4635 -0.1103  0.1478
 2514SOL    HW210109   2.059   2.817   4.300 -0.4417  0.6313  0.4580
 2514SOL    HW310110   1.961   2.844   4.187  0.7044 -0.4263 -0.7952
 2514SOL    MW410111   2.042   2.844   4.219  0.3760 -0.0544  0.0644
 2515SOL     OW10112   2.045   3.109   4.112  0.3591 -0.4667  0.2904
 2515SOL    HW210113   2.042   3.016   4.133  1.7114 -0.7018 -0.4774
 2515SOL    HW310114   2.019   3.115   4.020 -0.3464 -0.0114  0.5126
 2515SOL    MW410115   2.041   3.098   4.103  0.4447 -0.4377  0.2184
 2516SOL     OW10116   1.839   3.243   4.258  0.2457 -0.2386 -0.4185
 2516SOL    HW210117   1.818   3.330   4.222  0.1186  0.5231  1.4603
 2516SOL    HW310118   1.918   3.217   4.210  0.7857  1.3015 -0.4101
 2516SOL    MW410119   1.847   3.251   4.247  0.3002  0.0653 -0.1702
 2517SOL     OW10120   1.791   3.503   4.140 -0.1280 -0.6245  0.4501
 2517SOL    HW210121   1.705   3.534   4.169  0.1302  0.3261  0.2320
 2517SOL    HW310122   1.785   3.502   4.045 -0.1445 -1.2720  0.4619
 2517SOL    MW410123   1.779   3.507   4.131 -0.0962 -0.5846  0.4225
 2518SOL     OW10124   2.035   3.587   4.244  0.0998 -0.2011  0.3201
 2518SOL    HW210125   2.049   3.668   4.195  0.4271  0.0752  0.8729
 2518SOL    HW310126   1.949   3.556   4.214 -0.0611  0.3883  0.1662
 2518SOL    MW410127   2.025   3.593   4.233  0.1218 -0.0870  0.3734
 2519SOL     OW10128   2.013   3.873   4.116  0.2766  0.8537  0.5092
 2519SOL    HW210129   1.931   3.916   4.141  0.2045  1.4586 -0.7022
 2519SOL    HW310130   2.005   3.861   4.021  1.9840  1.7714  0.2422
 2519SOL    MW410131   2.001   3.877   4.107  0.4923  1.0545  0.3142
 2520SOL     OW10132   1.769   3.985   4.194  0.2626  0.0240 -0.5850
 2520SOL    HW210133   1.765   4.067   4.145 -1.9905  0.2257 -0.0783
 2520SOL    HW310134   1.708   3.926   4.149 -1.2129 -0.0581  1.4389
 2520SOL    MW410135   1.761   3.988   4.182 -0.2294  0.0398 -0.2508
 2521SOL     OW10136   1.741   4.224   4.070  0.2489  0.2431  0.1680
 2521SOL    HW210137   1.808   4.271   4.120  1.0516 -0.6350 -0.0625
 2521SOL    HW310138   1.765   4.239   3.979  1.2529 -1.6369  0.1023
 2521SOL    MW410139   1.753   4.232   4.065  0.4874 -0.1211  0.1292
 2522SOL     OW10140   1.952   4.332   4.211 -0.3693 -0.3214  0.2575
 2522SOL    HW210141   2.045   4.329   4.185 -0.1517 -0.9887  1.0935
 2522SOL    HW310142   1.939   4.421   4.243  0.0415 -0.2945  0.3599
 2522SOL    MW410143   1.963   4.343   4.212 -0.2863 -0.4058  0.3810
 2523SOL     OW10144   2.496   0.027   4.171  0.0755 -0.0404  0.4161
 2523SOL    HW210145   2.574   0.067   4.209  0.3892 -0.1327 -0.1308
 2523SOL    HW310146   2.499  -0.064   4.201  0.5012 -0.1982 -0.1116
 2523SOL    MW410147   2.507   0.020   4.180  0.1731 -0.0734  0.2747
 2524SOL     OW10148   2.086   0.186   4.309  0.0676 -0.1040 -0.1369
 2524SOL    HW210149   2.036   0.144   4.239 -1.7098  0.7709  0.5939
 2524SOL    HW310150   2.024   0.195   4.381  1.2255  1.1788  0.7190
 2524SOL    MW410151   2.071   0.181   4.309 -0.0141  0.1807  0.0725
 2525SOL     OW10152   2.219   0.376   4.136  0.4263  0.3429  0.4230
 2525SOL    HW210153   2.180   0.303   4.184  1.0088  0.4727  1.1075
 2525SOL    HW310154   2.232   0.343   4.047 -3.9361  1.2130 -0.6340
 2525SOL    MW410155   2.216   0.362   4.131 -0.0722  0.4748  0.3738
 2526SOL     OW10156   2.462   0.516   4.216 -0.6421  0.3298 -0.1231
 2526SOL    HW210157   2.463   0.525   4.311 -0.1587 -3.0167  0.2518
 2526SOL    HW310158   2.378   0.474   4.197 -0.1928 -0.1574 -1.0433
 2526SOL    MW410159   2.451   0.512   4.226 -0.5188 -0.1761 -0.1960
 2527SOL     OW10160   2.462   0.794   4.140  0.0620 -0.2412 -0.7844
 2527SOL    HW210161   2.475   0.702   4.163 -2.1194 -0.6454 -1.1501
 2527SOL    HW310162   2.480   0.799   4.047  1.3034 -0.0610 -0.5465
 2527SOL    MW410163   2.466   0.783   4.131 -0.0622 -0.2708 -0.8011
 2528SOL     OW10164   2.234   0.873   4.267 -0.2110  0.3111 -0.1303
 2528SOL    HW210165   2.260   0.871   4.359 -1.2246  2.4902  0.2430
 2528SOL    HW310166   2.312   0.845   4.219  0.6386  0.1429  1.3294
 2528SOL    MW410167   2.248   0.869   4.273 -0.2325  0.5764  0.1116
 2529SOL     OW10168   2.245   1.150   4.147  0.2046  0.3482  0.1359
 2529SOL    HW210169   2.312   1.204   4.190 -0.0528  0.8754 -0.1128
 2529SOL    HW310170   2.230   1.077   4.207  1.4464 -0.1077 -0.0843
 2529SOL    MW410171   2.252   1.148   4.160  0.3345  0.3576  0.0739
 2530SOL     OW10172   2.450   1.288   4.294  0.2796 -0.3703 -0.7643
 2530SOL    HW210173   2.459   1.280   4.389  1.7638 -1.4073 -0.9741
 2530SOL    HW310174   2.535   1.261   4.260  0.2063  1.2961 -2.3318
 2530SOL    MW410175   2.463   1.283   4.302  0.4659 -0.2873 -0.9990
 2531SOL     OW10176   2.437   1.527   4.154 -0.4294 -0.4013  0.0757
 2531SOL    HW210177   2.438   1.437   4.188  1.8012 -0.7047 -0.6657
 2531SOL    HW310178   2.464   1.517   4.062  0.2578  1.0601  0.1133
 2531SOL    MW410179   2.441   1.514   4.146 -0.0446 -0.2484 -0.0176
 2532SOL     OW10180   2.199   1.589   4.299  0.1060 -0.6336  0.2255
 2532SOL    HW210181   2.211   1.681   4.322  0.1993 -0.6030  0.0511
 2532SOL    HW310182   2.283   1.562   4.260 -0.0043 -0.7231  0.0476
 2532SOL    MW410183   2.212   1.597   4.297  0.1035 -0.6413  0.1793
 2533SOL     OW10184   2.326   2.006   4.138 -0.0645 -0.0210 -0.5093
 2533SOL    HW210185   2.367   2.092   4.145 -0.0108  0.0236 -1.2529
 2533SOL    HW310186   2.399   1.944   4.139 -0.0315  0.0049 -0.9156
 2533SOL    MW410187   2.341   2.009   4.139 -0.0532 -0.0117 -0.6614
 2534SOL     OW10188   2.654   2.163   4.187  0.4984  0.2612  0.7041
 2534SOL    HW210189   2.653   2.081   4.137 -0.6200  0.1542  0.8916
 2534SOL    HW310190   2.652   2.135   4.278  0.0852  0.4944  0.7681
 2534SOL    MW410191   2.654   2.148   4.192  0.2964  0.2775  0.7372
 2535SOL     OW10192   2.426   2.288   4.074  0.1242  0.4183 -0.2101
 2535SOL    HW210193   2.433   2.278   3.979 -1.1939 -2.2035 -0.0786
 2535SOL    HW310194   2.513   2.263   4.108  0.0907 -0.2899 -0.6351
 2535SOL    MW410195   2.439   2.283   4.066 -0.0539 -0.0207 -0.2484
 2536SOL     OW10196   2.222   2.465   4.098  0.1637 -0.0135  0.5974
 2536SOL    HW210197   2.295   2.402   4.103  0.1844  0.1128  1.9626
 2536SOL    HW310198   2.144   2.413   4.118 -0.0055  0.0773  0.1831
 2536SOL    MW410199   2.222   2.450   4.101  0.1445  0.0150  0.7234
 2537SOL     OW10200   2.273   2.746   4.083 -0.2899 -0.0405 -0.1300
 2537SOL    HW210201   2.269   2.653   4.103  0.8815 -0.1139 -0.1797
 2537SOL    HW310202   2.196   2.784   4.125 -1.3140 -1.1753 -0.9488
 2537SOL    MW410203   2.262   2.739   4.091 -0.2704 -0.2000 -0.2446
 2538SOL     OW10204   2.512   2.868   4.110 -0.0926 -0.1255 -0.0055
 2538SOL    HW210205   2.428   2.822   4.099  1.2701 -2.7066 -0.0592
 2538SOL    HW310206   2.505   2.910   4.195 -0.7134 -1.9478  0.8654
 2538SOL    MW410207   2.500   2.867   4.119  0.0050 -0.7064  0.1020
 2539SOL     OW10208   2.485   3.051   4.322 -0.3865 -0.2843 -0.0860
 2539SOL    HW210209   2.413   3.102   4.284  0.6283  0.5760 -0.8982
 2539SOL    HW310210   2.466   3.050   4.416 -0.5752  1.3835 -0.0875
 2539SOL    MW410211   2.473   3.058   4.329 -0.2778  0.0494 -0.1936
 2540SOL     OW10212   2.278   3.214   4.222  0.7423 -0.4286 -0.2059
 2540SOL    HW210213   2.288   3.279   4.153  0.2950  0.3510  0.4547
 2540SOL    HW310214   2.196   3.170   4.202  0.7222 -0.3535 -0.2880
 2540SOL    MW410215   2.269   3.217   4.210  0.6804 -0.3159 -0.1292
 2541SOL     OW10216   2.254   3.480   4.112  0.3073  0.2931 -0.2492
 2541SOL    HW210217   2.321   3.520   4.166  0.5448  0.0466 -0.3582
 2541SOL    HW310218   2.172   3.497   4.159  0.5977 -0.6182  0.6073
 2541SOL    MW410219   2.252   3.487   4.125  0.3767  0.1407 -0.1507
 2542SOL     OW10220   2.478   3.621   4.217 -0.1160 -0.4045  0.2830
 2542SOL    HW210221   2.481   3.630   4.312 -0.5765  2.4018  0.0986
 2542SOL    HW310222   2.469   3.711   4.185 -1.7771 -1.4287 -2.3330
 2542SOL    MW410223   2.477   3.634   4.225 -0.3960 -0.1693 -0.0863
 2543SOL     OW10224   2.464   3.887   4.100 -0.1589  0.4188 -0.3493
 2543SOL    HW210225   2.539   3.932   4.139 -0.1510 -0.3933  0.5862
 2543SOL    HW310226   2.484   3.884   4.006  0.1881  1.6890 -0.3221
 2543SOL    MW410227   2.477   3.893   4.092 -0.1123  0.4792 -0.2222
 2544SOL     OW10228   2.241   4.004   4.207  0.0535 -0.0575  0.0324
 2544SOL    HW210229   2.311   3.956   4.162 -0.6553 -1.7082  0.6549
 2544SOL    HW310230   2.160   3.972   4.167 -0.3777  1.6880 -0.5384
 2544SOL    MW410231   2.239   3.993   4.196 -0.0968 -0.0448  0.0391
 2545SOL     OW10232   2.236   4.295   4.121 -0.0495 -0.1798  0.0853
 2545SOL    HW210233   2.243   4.209   4.161  1.3720 -0.5722 -0.9775
 2545SOL    HW310234   2.303   4.347   4.164 -0.2485  0.1216  0.0348
 2545SOL    MW410235   2.245   4.291   4.132  0.1116 -0.1922 -0.0620
 2546SOL     OW10236   2.461   4.421   4.213 -0.0522  0.3516  0.1300
 2546SOL    HW210237   2.529   4.365   4.176  0.9120  1.3275  0.4152
 2546SOL    HW310238   2.468   4.406   4.308 -0.2300  0.4579  0.1596
 2546SOL    MW410239   2.471   4.411   4.221  0.0517  0.4940  0.1717
 2547SOL     OW10240   2.943   0.002   4.126 -0.6093  0.3141 -0.2138
 2547SOL    HW210241   2.876   0.045   4.179 -0.1031  0.1052  0.5907
 2547SOL    HW310242   3.023   0.053   4.141 -0.3696  0.0075 -0.4495
 2547SOL    MW410243   2.945   0.014   4.135 -0.5112  0.2461 -0.1388
 2548SOL     OW10244   2.748   0.160   4.262 -0.6614  0.2058 -0.0091
 2548SOL    HW210245   2.724   0.243   4.222  0.6789  0.9634  0.7417
 2548SOL    HW310246   2.762   0.180   4.355 -0.6214 -0.9157  0.2434
 2548SOL    MW410247   2.746   0.173   4.269 -0.4795  0.1578  0.1235
 2549SOL     OW10248   2.706   0.403   4.136  0.1176  0.5017  0.5696
 2549SOL    HW210249   2.619   0.441   4.147 -0.7295 -1.2490 -0.0105
 2549SOL    HW310250   2.715   0.390   4.041  0.5009 -0.4766  0.7345
 2549SOL    MW410251   2.696   0.406   4.125  0.0563  0.1417  0.5140
 2550SOL     OW10252   2.916   0.567   4.288  0.0685 -0.5599  0.5476
 2550SOL    HW210253   2.905   0.647   4.237 -1.1206 -0.7307  0.5316
 2550SOL    HW310254   2.845   0.510   4.259  1.7969 -2.2102 -0.5494
 2550SOL    MW410255   2.905   0.570   4.278  0.1397 -0.8001  0.4010
 2551SOL     OW10256   2.900   0.809   4.147  0.1186  0.1284 -0.5532
 2551SOL    HW210257   2.959   0.878   4.178  0.3862 -0.3773  0.0650
 2551SOL    HW310258   2.921   0.799   4.054 -0.1727  1.1286 -0.7295
 2551SOL    MW410259   2.910   0.817   4.139  0.1154  0.1936 -0.4945
 2552SOL     OW10260   2.670   0.935   4.249 -0.1383 -0.0303  0.0870
 2552SOL    HW210261   2.747   0.888   4.217 -1.2514 -1.5685 -0.3391
 2552SOL    HW310262   2.596   0.884   4.219 -1.3562  1.5905  0.2722
 2552SOL    MW410263   2.671   0.922   4.241 -0.4458 -0.0194  0.0553
 2553SOL     OW10264   2.689   1.223   4.151 -0.1530  0.4643  0.0773
 2553SOL    HW210265   2.679   1.135   4.187  0.2191  0.9413  1.3789
 2553SOL    HW310266   2.693   1.210   4.057 -1.0200 -0.8298  0.2077
 2553SOL    MW410267   2.688   1.210   4.144 -0.2184  0.3566  0.2666
 2554SOL     OW10268   2.830   1.439   4.284 -0.1986  0.1833  0.1244
 2554SOL    HW210269   2.892   1.463   4.216 -0.7703  0.1597 -0.4123
 2554SOL    HW310270   2.792   1.356   4.254  0.0423 -0.1703  0.8024
 2554SOL    MW410271   2.833   1.431   4.271 -0.2422  0.1335  0.1426
 2555SOL     OW10272   3.032   1.481   4.102 -0.3331 -0.1232  0.1754
 2555SOL    HW210273   3.089   1.524   4.166 -1.2267  0.2998  0.6943
 2555SOL    HW310274   3.060   1.389   4.102  0.4563  0.1147  0.2968
 2555SOL    MW410275   3.043   1.475   4.110 -0.3469 -0.0361  0.2599
 2556SOL     OW10276   2.662   1.663   4.254  0.0987 -0.2392 -0.1375
 2556SOL    HW210277   2.725   1.590   4.251  0.2079 -0.2366  1.5522
 2556SOL    HW310278   2.580   1.624   4.223  0.6418 -0.5329 -1.2621
 2556SOL    MW410279   2.659   1.648   4.249  0.1848 -0.2776 -0.0629
 2557SOL     OW10280   2.583   1.896   4.123 -0.7518  0.2419 -0.1793
 2557SOL    HW210281   2.608   1.817   4.171  0.5367  2.1442  2.4162
 2557SOL    HW310282   2.625   1.887   4.038  1.0227 -0.9853  0.7957
 2557SOL    MW410283   2.592   1.884   4.118 -0.3479  0.3310  0.2913
 2558SOL     OW10284   2.187   1.420   4.531 -0.1703 -0.0238  0.1252
 2558SOL    HW210285   2.109   1.364   4.526 -1.1771  1.3107  0.4253
 2558SOL    HW310286   2.192   1.462   4.445  0.2091 -0.0988  0.1106
 2558SOL    MW410287   2.177   1.418   4.519 -0.2530  0.1425  0.1631
 2559SOL     OW10288   2.999   2.305   4.385 -0.4712  0.5172 -0.4655
 2559SOL    HW210289   2.918   2.335   4.426  0.2257  1.2358  0.3997
 2559SOL    HW310290   3.012   2.365   4.311 -0.4081  0.7759 -0.2450
 2559SOL    MW410291   2.990   2.317   4.381 -0.3707  0.6461 -0.3219
 2560SOL     OW10292   2.799   2.370   4.097 -0.2940 -0.3102  0.0185
 2560SOL    HW210293   2.877   2.404   4.140 -1.3574  1.9087  0.2480
 2560SOL    HW310294   2.778   2.289   4.145  0.2911  0.5246  1.7214
 2560SOL    MW410295   2.806   2.364   4.109 -0.3572  0.0927  0.2732
 2561SOL     OW10296   2.705   2.675   4.104  0.3272 -0.0337  0.3898
 2561SOL    HW210297   2.663   2.589   4.112 -1.7861  0.9647  0.3174
 2561SOL    HW310298   2.634   2.738   4.115  1.6493  1.7028 -0.6819
 2561SOL    MW410299   2.690   2.672   4.106  0.2227  0.3271  0.2384
 2562SOL     OW10300   2.882   2.865   4.224  0.0987 -0.2919  0.1136
 2562SOL    HW210301   2.904   2.869   4.317  0.0564 -1.1127  0.1583
 2562SOL    HW310302   2.817   2.795   4.218 -0.2297  0.0583 -0.4731
 2562SOL    MW410303   2.876   2.857   4.236  0.0498 -0.3543  0.0420
 2563SOL     OW10304   2.895   3.108   4.112 -0.4380 -0.1021 -0.4163
 2563SOL    HW210305   2.877   3.024   4.155 -1.2501 -0.6421 -1.8018
 2563SOL    HW310306   2.915   3.085   4.022  0.8888  1.0695 -0.4228
 2563SOL    MW410307   2.895   3.094   4.106 -0.3700 -0.0191 -0.6003
 2564SOL     OW10308   2.709   3.254   4.253  0.1615 -0.2761  0.3377
 2564SOL    HW210309   2.767   3.213   4.189  0.8612 -0.3945  1.0566
 2564SOL    HW310310   2.632   3.197   4.255  0.8831 -1.2424  0.8999
 2564SOL    MW410311   2.706   3.241   4.244  0.3490 -0.4191  0.5069
 2565SOL     OW10312   2.682   3.484   4.117 -0.1240  0.0765 -0.1392
 2565SOL    HW210313   2.696   3.402   4.165  0.2766 -0.0279 -0.4266
 2565SOL    HW310314   2.603   3.522   4.156  0.8032  0.5274  1.3577
 2565SOL    MW410315   2.674   3.478   4.129  0.0513  0.1221  0.0205
 2566SOL     OW10316   2.890   3.635   4.223  0.0587  0.0760  0.0596
 2566SOL    HW210317   2.863   3.650   4.313  0.2271  1.3211 -0.0911
 2566SOL    HW310318   2.814   3.596   4.181 -0.1298 -0.1989  0.6472
 2566SOL    MW410319   2.877   3.632   4.229  0.0558  0.2041  0.1168
 2567SOL     OW10320   2.930   3.897   4.101 -0.2788 -0.5818  0.2769
 2567SOL    HW210321   3.008   3.941   4.136 -1.0426  0.1262  1.1066
 2567SOL    HW310322   2.928   3.813   4.146  1.1550 -1.4672 -1.2728
 2567SOL    MW410323   2.940   3.892   4.111 -0.1905 -0.6053  0.1822
 2568SOL     OW10324   2.696   4.030   4.221 -0.4730 -0.1798  0.0285
 2568SOL    HW210325   2.682   4.109   4.169  2.2595  0.9245  0.8810
 2568SOL    HW310326   2.779   3.994   4.187 -0.1413 -1.0110  1.6943
 2568SOL    MW410327   2.705   4.036   4.209 -0.0687 -0.1435  0.3610
 2569SOL     OW10328   2.673   4.289   4.088  0.2634  0.1087 -0.0496
 2569SOL    HW210329   2.754   4.329   4.119  0.2415  0.1310 -0.0218
 2569SOL    HW310330   2.685   4.278   3.994  0.2769  0.1649 -0.0546
 2569SOL    MW410331   2.685   4.293   4.080  0.2625  0.1187 -0.0463
 2570SOL     OW10332   2.218   4.509   4.470  0.1001 -0.2811 -0.3225
 2570SOL    HW210333   2.253   4.595   4.447  0.1963 -0.7011 -1.8002
 2570SOL    HW310334   2.295   4.459   4.497  0.1801 -0.1717 -0.3459
 2570SOL    MW410335   2.233   4.514   4.470  0.1235 -0.3219 -0.5207
 2571SOL     OW10336   3.060   3.988   4.482 -0.1373  0.3425 -0.3330
 2571SOL    HW210337   3.066   3.894   4.498  0.9605  0.3166 -0.8395
 2571SOL    HW310338   2.966   4.006   4.480 -0.3467 -0.4940  1.1651
 2571SOL    MW410339   3.048   3.978   4.484 -0.0203  0.2286 -0.2027
 2572SOL     OW10340   3.050   3.721   4.512  0.2557 -0.0516  0.0027
 2572SOL    HW210341   3.101   3.661   4.456 -0.4354 -0.6906  0.0473
 2572SOL    HW310342   2.966   3.676   4.524 -1.4805  2.3293 -2.5654
 2572SOL    MW410343   3.046   3.707   4.506 -0.0646  0.1783 -0.3300
 2573SOL     OW10344   3.123   0.433   4.142 -0.0966  0.0845  0.1511
 2573SOL    HW210345   3.061   0.491   4.185  1.0018  1.2491  0.2050
 2573SOL    HW310346   3.111   0.348   4.185 -2.5029 -0.0298 -0.6950
 2573SOL    MW410347   3.113   0.430   4.153 -0.2697  0.2231  0.0467
 2574SOL     OW10348   0.172   4.429   4.460 -0.1825 -0.0042 -0.4502
 2574SOL    HW210349   0.107   4.498   4.451 -0.0496  0.1283 -0.4092
 2574SOL    HW310350   0.240   4.468   4.516 -0.7592 -0.6326  0.7011
 2574SOL    MW410351   0.172   4.443   4.466 -0.2411 -0.0701 -0.2933
 2575SOL     OW10352   2.475   0.508   4.519 -0.2724  0.2547  0.1102
 2575SOL    HW210353   2.533   0.561   4.573  0.5822 -0.1915 -0.3753
 2575SOL    HW310354   2.497   0.418   4.540 -1.6803  0.0757  0.8797
 2575SOL    MW410355   2.485   0.503   4.529 -0.3455  0.1722  0.1478
 2576SOL     OW10356   3.028   1.005   4.290  0.2585 -0.2398  0.2699
 2576SOL    HW210357   3.103   0.960   4.329  0.0951 -1.5874 -0.8959
 2576SOL    HW310358   3.066   1.074   4.236  0.7483 -1.5504 -1.1125
 2576SOL    MW410359   3.043   1.008   4.288  0.3016 -0.5906 -0.0663
 2577SOL     OW10360   3.117   1.215   4.114 -0.2382 -0.0022  0.0219
 2577SOL    HW210361   3.206   1.226   4.148 -0.4635  0.0405  0.6124
 2577SOL    HW310362   3.129   1.189   4.023  0.4018 -0.6932  0.2882
 2577SOL    MW410363   3.130   1.213   4.107 -0.1833 -0.0876  0.1349
 2578SOL     OW10364   3.385   1.290   4.226  0.0036  0.0129 -0.1992
 2578SOL    HW210365   3.406   1.285   4.319 -0.0651 -0.7889 -0.2245
 2578SOL    HW310366   3.393   1.383   4.205  0.8675  0.0849  0.4090
 2578SOL    MW410367   3.389   1.302   4.235  0.1085 -0.0836 -0.1221
 2579SOL     OW10368   3.411   1.562   4.161  0.6523  0.1922 -0.5273
 2579SOL    HW210369   3.336   1.607   4.200  0.7123 -0.0874 -0.0937
 2579SOL    HW310370   3.401   1.577   4.067  0.9688  1.5950 -0.3611
 2579SOL    MW410371   3.400   1.570   4.153  0.7019  0.3405 -0.4482
 2580SOL     OW10372   0.254   2.800   4.516 -0.1074 -0.0375  0.0920
 2580SOL    HW210373   0.163   2.786   4.543  0.1671 -3.2911 -0.4503
 2580SOL    HW310374   0.252   2.794   4.421  0.4326  1.6517 -0.0426
 2580SOL    MW410375   0.242   2.797   4.507  0.0001 -0.2437  0.0029
 2581SOL     OW10376   3.120   1.914   4.143  0.0875 -0.4726  0.1729
 2581SOL    HW210377   3.198   1.960   4.173  0.2210 -0.7888  0.3212
 2581SOL    HW310378   3.048   1.954   4.192  0.1055  0.0985 -0.2665
 2581SOL    MW410379   3.120   1.925   4.154  0.1075 -0.4389  0.1345
 2582SOL     OW10380   3.313   2.058   4.285 -0.0200  0.2009  0.5320
 2582SOL    HW210381   3.399   2.019   4.272 -0.5384 -0.6573 -0.3640
 2582SOL    HW310382   3.319   2.145   4.246 -0.3500 -0.8467 -1.9456
 2582SOL    MW410383   3.325   2.065   4.278 -0.1318 -0.0505  0.0873
 2583SOL     OW10384   3.310   2.315   4.146  0.0044  0.1412 -0.2121
 2583SOL    HW210385   3.391   2.356   4.176 -0.3612  1.4196 -0.9281
 2583SOL    HW310386   3.320   2.310   4.051 -0.0492 -1.2417 -0.1470
 2583SOL    MW410387   3.322   2.320   4.137 -0.0510  0.1276 -0.2980
 2584SOL     OW10388   3.075   2.449   4.158  0.1248  0.1542 -0.0219
 2584SOL    HW210389   3.110   2.538   4.158  0.6057 -0.0314 -0.1533
 2584SOL    HW310390   3.153   2.393   4.151 -0.2120 -0.2625 -0.4706
 2584SOL    MW410391   3.090   2.453   4.157  0.1438  0.0746 -0.0982
 2585SOL     OW10392   3.125   2.724   4.107 -0.1712 -0.0465  0.0788
 2585SOL    HW210393   3.195   2.768   4.154  0.1651 -1.2386  0.7032
 2585SOL    HW310394   3.045   2.764   4.141  0.1785  1.0333 -0.3493
 2585SOL    MW410395   3.123   2.735   4.117 -0.0806 -0.0615  0.1044
 2586SOL     OW10396   3.354   2.838   4.229  0.2818  0.3055 -0.3711
 2586SOL    HW210397   3.435   2.794   4.202 -0.2196 -0.9920  0.2243
 2586SOL    HW310398   3.374   2.931   4.218  3.1714  0.2362  3.2225
 2586SOL    MW410399   3.367   2.845   4.224  0.5970  0.1252  0.1817
 2587SOL     OW10400   3.372   3.102   4.130 -0.2025  0.2848  0.4255
 2587SOL    HW210401   3.293   3.138   4.171 -0.6166  0.0393 -0.1647
 2587SOL    HW310402   3.362   3.121   4.037 -1.0538 -2.5113 -0.0931
 2587SOL    MW410403   3.360   3.110   4.123 -0.3695 -0.1166  0.2799
 2588SOL     OW10404   3.126   3.204   4.246 -0.2038 -0.1741  0.2935
 2588SOL    HW210405   3.123   3.296   4.222  2.8735 -0.3331 -0.9201
 2588SOL    HW310406   3.050   3.165   4.202  0.6681  1.0940 -2.4417
 2588SOL    MW410407   3.115   3.211   4.237  0.3171 -0.0277 -0.2279
 2589SOL     OW10408   3.121   3.478   4.158 -0.0430 -0.3100  0.6805
 2589SOL    HW210409   3.036   3.520   4.167  0.0287 -0.0610  0.2391
 2589SOL    HW310410   3.131   3.463   4.064 -0.3328 -1.8839  0.8814
 2589SOL    MW410411   3.111   3.481   4.147 -0.0720 -0.4845  0.6490
 2590SOL     OW10412   3.516   3.833   4.573 -0.5832  0.1951 -0.0908
 2590SOL    HW210413   3.504   3.798   4.485 -1.7422 -0.3069  0.2618
 2590SOL    HW310414   3.445   3.795   4.624 -0.2319  0.9022  0.9413
 2590SOL    MW410415   3.505   3.824   4.568 -0.6895  0.2222  0.0920
 2591SOL     OW10416   3.366   3.935   4.166  0.3237 -0.2590 -0.4981
 2591SOL    HW210417   3.359   3.900   4.077 -2.9121 -0.6734 -0.1371
 2591SOL    HW310418   3.405   3.864   4.217 -0.4264 -1.0884 -1.0521
 2591SOL    MW410419   3.370   3.921   4.161 -0.2022 -0.4232 -0.5236
 2592SOL     OW10420   3.891   4.462   4.528  0.4578 -0.5481  0.0892
 2592SOL    HW210421   3.861   4.445   4.439 -0.6337 -0.1259  0.3710
 2592SOL    HW310422   3.923   4.553   4.525 -1.9331  0.3611  0.7174
 2592SOL    MW410423   3.892   4.472   4.516 -0.0014 -0.3724  0.2089
 2593SOL     OW10424   2.926   4.396   4.120  0.6171  0.5029  0.5034
 2593SOL    HW210425   2.913   4.491   4.122  2.4381  0.8057 -0.8722
 2593SOL    HW310426   3.021   4.385   4.120  0.4201 -1.2934 -0.3357
 2593SOL    MW410427   2.937   4.407   4.120  0.8314  0.3061  0.2112
 2594SOL     OW10428   3.133   4.068   4.235  0.5508  0.1996 -0.0149
 2594SOL    HW210429   3.221   4.035   4.217  0.2097  0.0589 -1.4794
 2594SOL    HW310430   3.122   4.056   4.329  1.8606 -0.3624  0.0802
 2594SOL    MW410431   3.143   4.062   4.245  0.6785  0.1073 -0.1955
 2595SOL     OW10432   3.805   4.652   4.167 -0.2470 -0.0864  0.2180
 2595SOL    HW210433   3.891   4.691   4.181 -0.0276  0.0154 -1.3256
 2595SOL    HW310434   3.788   4.663   4.073 -1.5889 -0.8238  0.3541
 2595SOL    MW410435   3.814   4.659   4.156 -0.3951 -0.1702  0.0319
 2596SOL     OW10436   3.592   0.122   4.309  0.0672 -0.3031  0.2565
 2596SOL    HW210437   3.593   0.210   4.272 -2.8264 -0.3017  0.0350
 2596SOL    HW310438   3.660   0.075   4.261  1.3077  1.6591  0.0441
 2596SOL    MW410439   3.601   0.127   4.298 -0.1512 -0.0441  0.1993
 2597SOL     OW10440   3.599   0.384   4.177 -0.2739 -0.0937 -0.3735
 2597SOL    HW210441   3.603   0.375   4.082  0.3072  1.7145 -0.5307
 2597SOL    HW310442   3.514   0.425   4.194  0.1112  0.6452 -0.2086
 2597SOL    MW410443   3.588   0.388   4.167 -0.1464  0.2424 -0.3724
 2598SOL     OW10444   3.867   0.490   4.273 -0.5039 -0.2370 -0.0248
 2598SOL    HW210445   3.795   0.448   4.227  1.2085 -2.4333 -0.7877
 2598SOL    HW310446   3.869   0.580   4.239 -0.8012 -1.1174 -2.4447
 2598SOL    MW410447   3.858   0.497   4.262 -0.3176 -0.6429 -0.4439
 2599SOL     OW10448   3.884   0.741   4.140  0.2297 -0.4841  0.0796
 2599SOL    HW210449   3.809   0.796   4.163  0.4918 -0.2304  0.3403
 2599SOL    HW310450   3.890   0.748   4.045  0.2447 -0.0773  0.1066
 2599SOL    MW410451   3.875   0.749   4.130  0.2663 -0.3970  0.1173
 2600SOL     OW10452   3.390   0.789   4.158  0.2954  0.0607  0.0323
 2600SOL    HW210453   3.331   0.812   4.231  1.3348  0.0856  0.8805
 2600SOL    HW310454   3.389   0.693   4.157 -1.5034  0.0773 -1.4082
 2600SOL    MW410455   3.382   0.779   4.168  0.1953  0.0662 -0.0453
 2601SOL     OW10456   3.628   1.154   4.138 -0.0546 -0.3594  0.4963
 2601SOL    HW210457   3.544   1.192   4.163 -0.5076 -0.8401 -0.2944
 2601SOL    HW310458   3.627   1.153   4.042  0.4550 -1.2311  0.4922
 2601SOL    MW410459   3.617   1.159   4.129 -0.0470 -0.5376  0.3915
 2602SOL     OW10460   3.843   1.305   4.241 -0.0400  0.0079 -0.6106
 2602SOL    HW210461   3.765   1.264   4.203  0.0403  0.5673 -1.3900
 2602SOL    HW310462   3.843   1.394   4.207  1.7638 -0.4255 -1.8776
 2602SOL    MW410463   3.833   1.311   4.231  0.2086  0.0246 -0.8807
 2603SOL     OW10464   3.628   1.691   4.277 -0.5096 -0.2695  0.1138
 2603SOL    HW210465   3.607   1.681   4.370 -0.0024 -0.9327  0.1583
 2603SOL    HW310466   3.560   1.640   4.232 -0.5324 -0.2602  0.1373
 2603SOL    MW410467   3.616   1.683   4.283 -0.4454 -0.3558  0.1225
 2604SOL     OW10468   4.185   2.207   4.541  0.8549  0.1066  0.0619
 2604SOL    HW210469   4.161   2.296   4.515  0.7403  0.0159 -0.1458
 2604SOL    HW310470   4.278   2.212   4.562  0.4812  0.6388  1.6563
 2604SOL    MW410471   4.194   2.219   4.540  0.7901  0.1647  0.2446
 2605SOL     OW10472   3.552   1.939   4.206  0.3038 -0.2240 -0.0800
 2605SOL    HW210473   3.585   1.860   4.249 -1.1019 -0.8718 -0.1376
 2605SOL    HW310474   3.556   1.920   4.113  0.2619 -0.1053 -0.1068
 2605SOL    MW410475   3.557   1.926   4.200  0.1125 -0.2937 -0.0911
 2606SOL     OW10476   3.789   2.071   4.233 -0.1828 -0.5368 -0.1291
 2606SOL    HW210477   3.787   2.076   4.329 -0.6982  1.5815 -0.2256
 2606SOL    HW310478   3.707   2.028   4.210 -0.0767 -1.0178  0.3644
 2606SOL    MW410479   3.778   2.066   4.243 -0.2367 -0.3209 -0.0763
 2607SOL     OW10480   3.822   2.329   4.106  0.1675 -0.6412 -0.1792
 2607SOL    HW210481   3.815   2.244   4.151 -1.1734 -0.6268 -0.3560
 2607SOL    HW310482   3.823   2.307   4.013 -0.3831 -0.4484 -0.2307
 2607SOL    MW410483   3.821   2.314   4.100 -0.0820 -0.6137 -0.2098
 2608SOL     OW10484   3.556   2.443   4.178 -0.4023 -0.2470  0.1476
 2608SOL    HW210485   3.571   2.482   4.264 -1.2604  1.2298 -0.3545
 2608SOL    HW310486   3.630   2.384   4.166  0.7260  0.9283  1.0989
 2608SOL    MW410487   3.568   2.440   4.188 -0.3667  0.1032  0.2069
 2609SOL     OW10488   3.587   2.709   4.104  0.0131 -0.0459 -0.1077
 2609SOL    HW210489   3.573   2.617   4.125  0.5107 -0.0590  0.1760
 2609SOL    HW310490   3.591   2.711   4.008  2.0936 -0.6420 -0.0477
 2609SOL    MW410491   3.586   2.697   4.094  0.3531 -0.1261 -0.0615
 2610SOL     OW10492   3.798   2.860   4.205  0.2883 -0.0332 -0.1588
 2610SOL    HW210493   3.797   2.852   4.301  0.2377  1.6290 -0.0065
 2610SOL    HW310494   3.740   2.790   4.175  0.2266 -0.5141  1.0277
 2610SOL    MW410495   3.790   2.850   4.214  0.2735  0.1225  0.0176
 2611SOL     OW10496   3.829   3.124   4.121 -0.6396 -0.0521  0.2366
 2611SOL    HW210497   3.820   3.034   4.152 -2.9449  0.0350 -0.1164
 2611SOL    HW310498   3.841   3.116   4.026 -0.5217  0.0140  0.2445
 2611SOL    MW410499   3.830   3.111   4.113 -0.9279 -0.0317  0.1907
 2612SOL     OW10500   3.602   3.508   4.150  0.4335 -0.1503  0.6302
 2612SOL    HW210501   3.671   3.553   4.198  1.4196  0.3121 -1.1897
 2612SOL    HW310502   3.605   3.418   4.182  0.5863  0.3184  1.9484
 2612SOL    MW410503   3.611   3.502   4.161  0.5836 -0.0277  0.5631
 2613SOL     OW10504   3.369   2.958   4.624 -0.1130 -0.2690  0.1632
 2613SOL    HW210505   3.354   2.973   4.717  2.2979  2.2317  0.2282
 2613SOL    HW310506   3.303   3.012   4.580 -0.1228 -0.0650  0.4297
 2613SOL    MW410507   3.358   2.967   4.630  0.2038  0.0877  0.2074
 2614SOL     OW10508   3.813   3.659   4.271 -0.2057  0.0260 -0.0086
 2614SOL    HW210509   3.807   3.745   4.230 -0.4974  0.1700  0.3407
 2614SOL    HW310510   3.882   3.614   4.222  0.1139  0.5437 -0.0404
 2614SOL    MW410511   3.821   3.665   4.259 -0.2022  0.1135  0.0334
 2615SOL     OW10512   3.778   3.921   4.148  0.5280  0.0170 -0.1851
 2615SOL    HW210513   3.703   3.980   4.156  1.0391  0.5696  0.6459
 2615SOL    HW310514   3.853   3.973   4.177  1.1778 -0.6476 -0.6511
 2615SOL    MW410515   3.778   3.936   4.153  0.6812  0.0024 -0.1369
 2616SOL     OW10516   3.339   4.458   4.295  0.0239  0.1057 -0.5951
 2616SOL    HW210517   3.286   4.446   4.374  0.7395 -0.0974 -0.1345
 2616SOL    HW310518   3.409   4.392   4.304  1.2810  1.4346 -0.3966
 2616SOL    MW410519   3.341   4.447   4.307  0.2842  0.2542 -0.5083
 2617SOL     OW10520   3.395   0.036   4.152 -0.2308 -0.3168  0.3534
 2617SOL    HW210521   3.375  -0.047   4.194  2.5308 -0.8837  0.6439
 2617SOL    HW310522   3.456   0.079   4.212 -0.1610  1.0935 -0.6972
 2617SOL    MW410523   3.400   0.031   4.166  0.1428 -0.2055  0.2532
 2618SOL     OW10524   3.832   4.412   4.276 -0.4810  0.1663  0.3559
 2618SOL    HW210525   3.893   4.374   4.214 -1.2663 -0.6734  0.0924
 2618SOL    HW310526   3.804   4.494   4.235 -2.0930 -1.0772 -1.0630
 2618SOL    MW410527   3.836   4.418   4.263 -0.7973 -0.1082  0.1340
 2619SOL     OW10528   4.292   4.598   4.141  0.1579  0.4053  0.2756
 2619SOL    HW210529   4.290   4.542   4.219  1.0888 -0.6629 -0.4405
 2619SOL    HW310530   4.377   4.641   4.145 -0.6642  2.0038  0.9591
 2619SOL    MW410531   4.303   4.596   4.152  0.1726  0.4754  0.2718
 2620SOL     OW10532   4.069   0.356   4.128  0.0870 -0.1776  0.1161
 2620SOL    HW210533   4.003   0.411   4.170 -1.0482 -3.0766  2.3484
 2620SOL    HW310534   4.153   0.392   4.156 -0.6120  0.8659  0.8943
 2620SOL    MW410535   4.071   0.368   4.137 -0.1554 -0.4224  0.5136
 2621SOL     OW10536   4.289   0.475   4.248 -0.3651 -0.2150 -0.2229
 2621SOL    HW210537   4.369   0.423   4.241 -0.2492 -0.0276 -0.2912
 2621SOL    HW310538   4.307   0.553   4.196 -0.8180 -0.4579 -0.7487
 2621SOL    MW410539   4.302   0.478   4.240 -0.4091 -0.2223 -0.3014
 2622SOL     OW10540   4.029   0.629   4.616 -0.3045  0.2806  0.1522
 2622SOL    HW210541   3.995   0.717   4.628 -1.1624 -0.1155  0.7250
 2622SOL    HW310542   3.953   0.578   4.586  0.6189  0.1423 -1.9891
 2622SOL    MW410543   4.014   0.634   4.614 -0.2956  0.2101 -0.0548
 2623SOL     OW10544   4.283   0.718   4.080 -0.6284  0.0290  0.3608
 2623SOL    HW210545   4.215   0.776   4.114  0.0394  1.1733 -0.1975
 2623SOL    HW310546   4.287   0.738   3.987  1.5458  1.1582  0.6424
 2623SOL    MW410547   4.275   0.728   4.072 -0.2532  0.3291  0.3238
 2624SOL     OW10548   4.102   0.896   4.186  0.0766 -0.5344 -0.1148
 2624SOL    HW210549   4.082   0.984   4.153  1.9861 -0.3398 -0.8001
 2624SOL    HW310550   4.024   0.845   4.163 -0.6839  0.7557 -0.5172
 2624SOL    MW410551   4.089   0.901   4.178  0.2284 -0.3384 -0.2584
 2625SOL     OW10552   4.020   1.156   4.108  0.2985 -0.0645 -0.3045
 2625SOL    HW210553   4.095   1.188   4.158 -0.7783  0.0297  1.2669
 2625SOL    HW310554   3.946   1.205   4.143 -0.5761 -0.5114 -1.5185
 2625SOL    MW410555   4.020   1.167   4.119  0.0410 -0.1111 -0.2575
 2626SOL     OW10556   4.232   1.269   4.228 -0.0406  0.1032 -0.0355
 2626SOL    HW210557   4.237   1.248   4.322  0.7311 -0.6467 -0.2343
 2626SOL    HW310558   4.315   1.237   4.193 -0.7864 -0.6016 -1.1688
 2626SOL    MW410559   4.244   1.262   4.236 -0.0372 -0.0886 -0.2108
 2627SOL     OW10560   4.282   1.559   4.191  0.1828 -0.0322  0.0989
 2627SOL    HW210561   4.281   1.466   4.215 -0.5154 -0.1085 -0.2163
 2627SOL    HW310562   4.270   1.559   4.096 -0.9584  0.4206  0.2287
 2627SOL    MW410563   4.280   1.547   4.181 -0.0601  0.0175  0.0744
 2628SOL     OW10564   4.046   1.706   4.219  0.0632  0.3078 -0.1283
 2628SOL    HW210565   4.023   1.710   4.312  0.8045  0.7944  0.0399
 2628SOL    HW310566   4.122   1.648   4.216  0.0044  0.2456 -0.4376
 2628SOL    MW410567   4.053   1.699   4.231  0.1535  0.3638 -0.1469
 2629SOL     OW10568   4.039   1.985   4.184  0.0129  0.3403 -0.2318
 2629SOL    HW210569   4.039   1.891   4.198 -0.2810  0.2849 -0.6076
 2629SOL    HW310570   3.947   2.011   4.195 -0.1153  0.3964 -1.3810
 2629SOL    MW410571   4.026   1.976   4.188 -0.0429  0.3403 -0.4334
 2630SOL     OW10572   0.008   1.964   4.187 -0.0038  0.8877  0.5654
 2630SOL    HW210573   0.088   2.009   4.215  0.4027 -2.2321  5.0230
 2630SOL    HW310574  -0.060   1.997   4.246 -0.8317 -0.3758  0.3404
 2630SOL    MW410575   0.010   1.975   4.198 -0.0596  0.3093  1.1244
 2631SOL     OW10576   4.256   2.335   4.147  0.1700 -0.6558  0.1161
 2631SOL    HW210577   4.175   2.378   4.174  0.0456 -1.2504  0.6913
 2631SOL    HW310578   4.260   2.255   4.198  1.8782  0.0966  1.2268
 2631SOL    MW410579   4.246   2.330   4.157  0.3791 -0.6349  0.3386
 2632SOL     OW10580   0.627   2.064   4.479 -0.2066 -0.5812 -0.3888
 2632SOL    HW210581   0.537   2.090   4.498  0.9040  1.2056  2.7392
 2632SOL    HW310582   0.630   1.971   4.498 -0.9792 -0.2859  1.2451
 2632SOL    MW410583   0.616   2.055   4.484 -0.1619 -0.3066  0.2394
 2633SOL     OW10584   4.045   2.736   4.159  0.2278  0.2878 -0.3713
 2633SOL    HW210585   4.117   2.791   4.190 -0.5762  1.0357  0.1995
 2633SOL    HW310586   3.967   2.788   4.174 -0.5385 -0.9371 -0.0245
 2633SOL    MW410587   4.045   2.750   4.165  0.0200  0.2251 -0.2499
 2634SOL     OW10588   4.129   3.352   4.495 -0.0370 -0.2699 -0.1200
 2634SOL    HW210589   4.089   3.313   4.418 -1.8034 -0.0480  0.6677
 2634SOL    HW310590   4.190   3.285   4.527  0.6808 -0.3785 -1.6606
 2634SOL    MW410591   4.132   3.338   4.489 -0.1750 -0.2549 -0.2193
 2635SOL     OW10592   4.259   3.157   4.091  0.1131  0.1115 -0.3942
 2635SOL    HW210593   4.263   3.068   4.127 -0.3926 -0.4399 -1.6765
 2635SOL    HW310594   4.287   3.148   4.000  0.5146  1.3473 -0.4092
 2635SOL    MW410595   4.263   3.144   4.083  0.0992  0.2017 -0.5655
 2636SOL     OW10596   4.040   3.268   4.236  0.4058  0.4361 -0.0280
 2636SOL    HW210597   4.097   3.237   4.166  0.0476 -0.5444  0.1117
 2636SOL    HW310598   3.958   3.220   4.224  0.1677  0.6267  0.7599
 2636SOL    MW410599   4.037   3.258   4.225  0.3271  0.3316  0.0944
 2637SOL     OW10600   4.026   3.535   4.150  0.6860  0.0108  0.3611
 2637SOL    HW210601   4.012   3.446   4.182  0.4309 -0.1310 -0.1421
 2637SOL    HW310602   4.026   3.527   4.054 -1.6558  0.8915  0.2544
 2637SOL    MW410603   4.024   3.523   4.141  0.3433  0.1082  0.2809
 2638SOL     OW10604   4.267   3.612   4.271  0.3039  0.2620 -0.3224
 2638SOL    HW210605   4.259   3.618   4.366  0.6237  0.1016 -0.2845
 2638SOL    HW310606   4.179   3.585   4.241 -0.0405  1.2024 -0.1567
 2638SOL    MW410607   4.254   3.609   4.279  0.3004  0.3648 -0.2952
 2639SOL     OW10608   3.736   0.173   4.567  0.3249 -0.0346  0.4151
 2639SOL    HW210609   3.679   0.157   4.642 -0.2587  1.9714  0.4531
 2639SOL    HW310610   3.675   0.179   4.493  0.5204  1.4354  0.3501
 2639SOL    MW410611   3.720   0.172   4.567  0.2735  0.4240  0.4110
 2640SOL     OW10612   3.991   4.034   4.252  0.1618 -0.3843  0.1102
 2640SOL    HW210613   4.061   3.973   4.230 -0.3515 -0.5920 -0.9507
 2640SOL    HW310614   3.976   4.019   4.346  0.4359 -1.4747 -0.0088
 2640SOL    MW410615   3.998   4.024   4.262  0.1307 -0.5555 -0.0458
 2641SOL     OW10616   4.085   4.290   4.149 -0.1537  0.1161  0.5451
 2641SOL    HW210617   4.161   4.321   4.198  1.0928 -2.1601  0.1518
 2641SOL    HW310618   4.053   4.215   4.200 -0.9721 -0.1261 -0.3146
 2641SOL    MW410619   4.091   4.284   4.162 -0.0973 -0.2160  0.3805
 2642SOL     OW10620   1.900   4.038   4.638 -0.1353  0.6085  0.3693
 2642SOL    HW210621   1.817   4.020   4.593  0.4261  0.7094 -0.7219
 2642SOL    HW310622   1.874   4.056   4.728 -1.2676  0.2308  0.1364
 2642SOL    MW410623   1.885   4.038   4.644 -0.2106  0.5722  0.1941
 2643SOL     OW10624   0.469   0.345   4.550  0.4254 -0.1304  0.1638
 2643SOL    HW210625   0.542   0.403   4.567  1.2250 -1.1581  0.3056
 2643SOL    HW310626   0.397   0.403   4.525  1.0276  0.9505  0.8969
 2643SOL    MW410627   0.469   0.360   4.549  0.6104 -0.1234  0.2794
 2644SOL     OW10628   4.224   3.885   4.191  0.7386 -0.2828 -0.1743
 2644SOL    HW210629   4.239   3.793   4.212  0.2469 -0.0322  1.3097
 2644SOL    HW310630   4.234   3.890   4.096  1.1798 -1.7886 -0.2108
 2644SOL    MW410631   4.227   3.873   4.181  0.7319 -0.4482  0.0167
 2645SOL     OW10632   4.295   3.159   4.599  0.5046 -0.7479  0.2454
 2645SOL    HW210633   4.304   3.073   4.558  0.7258 -0.0288 -1.2194
 2645SOL    HW310634   4.377   3.204   4.580 -0.0588  0.2071  0.0341
 2645SOL    MW410635   4.307   3.154   4.591  0.4597 -0.5271  0.0243
 2646SOL     OW10636   1.827   0.782   4.551 -0.5080  0.4235 -0.1717
 2646SOL    HW210637   1.738   0.766   4.580 -0.3461  0.2389  0.2329
 2646SOL    HW310638   1.818   0.815   4.462 -0.9536 -0.0718 -0.3165
 2646SOL    MW410639   1.814   0.784   4.543 -0.5455  0.3337 -0.1373
 2647SOL     OW10640   0.711   0.724   4.626 -0.0154 -0.4071  0.3460
 2647SOL    HW210641   0.636   0.747   4.571  0.5890 -1.1294 -0.8139
 2647SOL    HW310642   0.724   0.630   4.612  0.0484 -0.6419  1.8753
 2647SOL    MW410643   0.703   0.714   4.617  0.0728 -0.5333  0.3948
 2648SOL     OW10644   0.239   0.917   4.622  0.0923  0.3788  0.1298
 2648SOL    HW210645   0.190   0.912   4.703 -0.7091  1.2149 -0.2883
 2648SOL    HW310646   0.193   0.858   4.562  0.0806  0.5285 -0.0108
 2648SOL    MW410647   0.227   0.909   4.625 -0.0150  0.5088  0.0558
 2649SOL     OW10648   0.497   1.575   4.518 -0.1884  0.1305  0.1260
 2649SOL    HW210649   0.485   1.584   4.424  1.6042  0.8924 -0.0553
 2649SOL    HW310650   0.493   1.481   4.534 -1.5960  0.0651 -0.5364
 2649SOL    MW410651   0.495   1.564   4.508 -0.1377  0.2223  0.0148
 2650SOL     OW10652   1.327   1.413   4.661 -0.0237 -0.2122 -0.1393
 2650SOL    HW210653   1.393   1.415   4.730  0.8129 -0.0287 -0.9362
 2650SOL    HW310654   1.333   1.499   4.619 -1.3471  0.1199  0.3075
 2650SOL    MW410655   1.336   1.425   4.664 -0.0881 -0.1442 -0.1860
 2651SOL     OW10656   1.076   1.768   4.458 -0.6272 -0.0907 -0.0697
 2651SOL    HW210657   1.077   1.863   4.445 -1.8133  0.1030  1.1226
 2651SOL    HW310658   1.166   1.747   4.485 -0.7622  0.9387  1.2233
 2651SOL    MW410659   1.088   1.778   4.460 -0.8017  0.0708  0.2584
 2652SOL     OW10660   0.024   1.569   4.505 -0.2488  0.1154  0.2446
 2652SOL    HW210661  -0.064   1.601   4.525 -0.7559 -0.7089 -0.6011
 2652SOL    HW310662   0.044   1.608   4.420  0.3985  0.6713  0.6492
 2652SOL    MW410663   0.015   1.578   4.496 -0.2303  0.0801  0.1860
 2653SOL     OW10664   0.668   1.217   4.548  0.0198  0.3441  0.5909
 2653SOL    HW210665   0.732   1.287   4.559  1.3372 -0.7906  0.1510
 2653SOL    HW310666   0.696   1.148   4.608  0.3059 -0.9265 -0.9793
 2653SOL    MW410667   0.680   1.217   4.558  0.2314  0.0267  0.3252
 2654SOL     OW10668   0.460   1.660   4.240  0.0074 -0.4119 -0.1476
 2654SOL    HW210669   0.371   1.627   4.222 -0.5155  1.1020 -0.4074
 2654SOL    HW310670   0.517   1.605   4.187 -0.8561 -0.8486 -0.6366
 2654SOL    MW410671   0.455   1.648   4.231 -0.1755 -0.2698 -0.2456
 2655SOL     OW10672   0.667   2.617   4.631 -0.4564 -0.1150  0.3782
 2655SOL    HW210673   0.653   2.678   4.559  0.7769  0.5273  0.6663
 2655SOL    HW310674   0.700   2.538   4.589 -0.0006  0.1634  0.2079
 2655SOL    MW410675   0.670   2.615   4.616 -0.2335  0.0062  0.3939
 2656SOL     OW10676   4.029   1.971   4.588 -0.6217  0.0820  0.4237
 2656SOL    HW210677   4.084   2.049   4.595 -0.7623  0.1731  0.4960
 2656SOL    HW310678   3.943   2.003   4.561 -0.1886 -0.2244 -1.3834
 2656SOL    MW410679   4.025   1.985   4.585 -0.5832  0.0535  0.1950
 2657SOL     OW10680   1.545   3.068   4.980 -0.1659  0.4634  0.0136
 2657SOL    HW210681   1.609   3.031   4.919 -0.3280  0.1552  0.0279
 2657SOL    HW310682   1.592   3.074   5.063  0.3195  1.6934 -0.3463
 2657SOL    MW410683   1.560   3.064   4.983 -0.1231  0.5848 -0.0319
 2658SOL     OW10684   0.075   0.748   4.441  0.1420 -0.2585 -0.2883
 2658SOL    HW210685   0.060   0.773   4.350  0.7099  2.3492  0.2803
 2658SOL    HW310686  -0.012   0.736   4.478 -0.1982  1.5436 -0.4568
 2658SOL    MW410687   0.062   0.750   4.434  0.1720  0.3233 -0.2356
 2659SOL     OW10688   3.823   1.562   4.141 -0.0474  0.1295 -0.0790
 2659SOL    HW210689   3.905   1.607   4.158  0.2230 -0.5105  0.3616
 2659SOL    HW310690   3.758   1.609   4.193  0.1124  0.3900 -0.1142
 2659SOL    MW410691   3.825   1.574   4.150  0.0093  0.0796 -0.0257
 2660SOL     OW10692   0.429   3.028   4.500  0.0389 -0.2467 -0.2898
 2660SOL    HW210693   0.365   2.958   4.511  0.6433 -0.4929  2.0058
 2660SOL    HW310694   0.377   3.108   4.494 -0.5367 -0.5676  0.3609
 2660SOL    MW410695   0.414   3.029   4.501  0.0427 -0.3214  0.0987
 2661SOL     OW10696   0.220   4.165   4.571 -0.2357  0.0020  0.0448
 2661SOL    HW210697   0.188   4.238   4.519  1.8120  0.7600 -0.2119
 2661SOL    HW310698   0.221   4.199   4.661 -1.0392 -0.3314  0.1775
 2661SOL    MW410699   0.216   4.179   4.576 -0.0716  0.0582  0.0286
 2662SOL     OW10700   1.122   3.546   4.490  0.0613 -0.0314 -0.0258
 2662SOL    HW210701   1.076   3.620   4.531  0.8226 -0.2131  1.1770
 2662SOL    HW310702   1.120   3.566   4.396 -0.8717  0.8690  0.1729
 2662SOL    MW410703   1.116   3.558   4.483  0.0386  0.0632  0.1593
 2663SOL     OW10704   4.282   0.138   4.569  0.5971 -0.0512  0.9976
 2663SOL    HW210705   4.251   0.228   4.557  0.0290 -0.4526 -0.6804
 2663SOL    HW310706   4.203   0.090   4.595  0.3795 -0.5173 -0.4706
 2663SOL    MW410707   4.267   0.144   4.571  0.4935 -0.1657  0.5817
 2664SOL     OW10708   3.138   0.171   4.239 -0.5334  0.5533 -0.2265
 2664SOL    HW210709   3.227   0.146   4.216 -0.6078  0.8461 -0.8365
 2664SOL    HW310710   3.124   0.133   4.326  0.2308  0.6254 -0.0702
 2664SOL    MW410711   3.148   0.163   4.247 -0.4425  0.6014 -0.2866
 2665SOL     OW10712   4.436   4.597   4.429  0.2184 -0.1056  0.0935
 2665SOL    HW210713   4.377   4.521   4.425 -0.1253  0.1010  0.9871
 2665SOL    HW310714   4.387   4.662   4.480  0.7526  0.4986 -0.1577
 2665SOL    MW410715   4.421   4.595   4.435  0.2432  0.0019  0.1788
 2666SOL     OW10716   4.099   4.286   4.518 -0.0556  0.3253  0.0911
 2666SOL    HW210717   4.022   4.341   4.530  0.0997  0.5461  0.0807
 2666SOL    HW310718   4.065   4.197   4.519 -0.4181  0.4501 -0.7290
 2666SOL    MW410719   4.085   4.282   4.520 -0.0834  0.3710 -0.0186
 2667SOL     OW10720   0.286   1.460   4.832  0.1567  0.0157  0.4745
 2667SOL    HW210721   0.251   1.476   4.919  1.7314  2.6153  0.6757
 2667SOL    HW310722   0.271   1.541   4.784 -1.5482 -1.6867 -2.0196
 2667SOL    MW410723   0.280   1.473   4.837  0.1395  0.1340  0.1721
 2668SOL     OW10724   3.503   4.267   4.423 -0.5846 -0.6779 -0.0849
 2668SOL    HW210725   3.535   4.321   4.496 -1.0883 -0.7758  0.2101
 2668SOL    HW310726   3.433   4.214   4.461  0.0119 -1.6604 -0.3378
 2668SOL    MW410727   3.498   4.267   4.437 -0.5724 -0.8202 -0.0801
 2669SOL     OW10728   2.697   4.539   4.459 -0.0138  0.4227  0.5342
 2669SOL    HW210729   2.711   4.619   4.510 -1.2930  1.4632 -0.6874
 2669SOL    HW310730   2.781   4.493   4.463  0.7460  1.8252  1.2468
 2669SOL    MW410731   2.710   4.543   4.466 -0.0820  0.7448  0.4673
 2670SOL     OW10732   4.259   1.461   4.763 -0.1011  0.3805  0.1928
 2670SOL    HW210733   4.316   1.398   4.720 -0.6135 -0.8098  1.2214
 2670SOL    HW310734   4.270   1.542   4.713 -0.5824 -0.9245 -2.0490
 2670SOL    MW410735   4.268   1.463   4.751 -0.2322  0.0514  0.0334
 2671SOL     OW10736   1.338   2.087   4.670 -0.0364 -0.2481 -0.0455
 2671SOL    HW210737   1.399   2.014   4.670  0.3346  0.0400  1.2511
 2671SOL    HW310738   1.392   2.164   4.654 -0.1480 -0.0596  0.4815
 2671SOL    MW410739   1.353   2.087   4.668 -0.0021 -0.1855  0.1955
 2672SOL     OW10740   0.338   2.128   4.472 -0.1917 -0.1274 -0.0684
 2672SOL    HW210741   0.288   2.082   4.539 -0.9745 -0.4219 -0.8489
 2672SOL    HW310742   0.333   2.220   4.498 -0.1669 -0.2802  0.4861
 2672SOL    MW410743   0.331   2.134   4.485 -0.2917 -0.1867 -0.0987
 2673SOL     OW10744   1.124   0.478   4.206 -0.1498  0.0026  0.6350
 2673SOL    HW210745   1.153   0.512   4.291  0.6053  1.4153 -0.1686
 2673SOL    HW310746   1.193   0.419   4.178 -0.0161  0.1543  0.6433
 2673SOL    MW410747   1.137   0.475   4.214 -0.0324  0.2091  0.5298
 2674SOL     OW10748   0.824   0.989   4.737  0.2762 -0.9666  0.1631
 2674SOL    HW210749   0.783   0.904   4.721 -0.4274 -0.4311 -0.9410
 2674SOL    HW310750   0.845   0.988   4.830 -2.8169 -1.0147  0.9156
 2674SOL    MW410751   0.821   0.977   4.747 -0.2247 -0.9022  0.1168
 2675SOL     OW10752   1.878   0.272   4.506 -0.0032 -0.0813 -0.2572
 2675SOL    HW210753   1.807   0.305   4.452 -0.8170  0.3541  1.0663
 2675SOL    HW310754   1.913   0.349   4.550 -0.4322 -0.6452  1.0992
 2675SOL    MW410755   1.874   0.286   4.505 -0.1673 -0.0983  0.0963
 2676SOL     OW10756   1.362   2.444   4.453  0.0886  0.0939 -0.3279
 2676SOL    HW210757   1.361   2.416   4.362  0.1462 -2.0159  0.2964
 2676SOL    HW310758   1.270   2.462   4.474 -0.0698 -0.5314 -0.4766
 2676SOL    MW410759   1.349   2.443   4.444  0.0753 -0.2670 -0.2651
 2677SOL     OW10760   0.755   3.370   4.594  0.0876 -0.0359  0.7517
 2677SOL    HW210761   0.753   3.460   4.561 -0.2128 -0.4572 -0.4086
 2677SOL    HW310762   0.844   3.340   4.576 -0.2524 -0.4658 -0.2314
 2677SOL    MW410763   0.766   3.378   4.587  0.0032 -0.1483  0.4687
 2678SOL     OW10764   0.882   2.156   4.540 -0.3467 -0.3166  0.2177
 2678SOL    HW210765   0.796   2.122   4.516 -0.4978 -0.9855  1.6355
 2678SOL    HW310766   0.874   2.251   4.532 -0.8308 -0.4414 -0.8725
 2678SOL    MW410767   0.870   2.164   4.536 -0.4304 -0.4213  0.2608
 2679SOL     OW10768   4.239   2.906   4.233 -0.0679  0.3564  0.5892
 2679SOL    HW210769   4.250   2.928   4.325 -2.0464  1.1684  0.6461
 2679SOL    HW310770   4.320   2.861   4.209  0.8914  1.0764  2.4384
 2679SOL    MW410771   4.251   2.903   4.242 -0.2022  0.5581  0.8402
 2680SOL     OW10772   0.873   2.898   4.553 -0.3484 -0.4061  0.0709
 2680SOL    HW210773   0.896   2.846   4.631 -1.8871 -1.1503  0.0328
 2680SOL    HW310774   0.828   2.975   4.588 -0.0637 -0.1963 -0.0213
 2680SOL    MW410775   0.870   2.901   4.568 -0.5138 -0.4764  0.0534
 2681SOL     OW10776   0.911   4.307   4.530  0.4923 -0.2928  0.4555
 2681SOL    HW210777   0.819   4.317   4.507  0.5591 -0.7517 -0.0068
 2681SOL    HW310778   0.925   4.213   4.535  1.2348 -0.2530 -0.6842
 2681SOL    MW410779   0.901   4.296   4.528  0.5991 -0.3481  0.2437
 2682SOL     OW10780   0.465   4.025   4.225  0.3805  0.0895 -0.6149
 2682SOL    HW210781   0.374   4.000   4.209  0.2597 -1.1517  1.7056
 2682SOL    HW310782   0.477   4.105   4.175 -2.6867  1.4667  0.7071
 2682SOL    MW410783   0.455   4.032   4.217 -0.0401  0.1073 -0.1349
 2683SOL     OW10784   0.570   3.867   4.542 -0.3508  0.5392  0.6249
 2683SOL    HW210785   0.543   3.959   4.542 -0.2068  0.5819  0.6048
 2683SOL    HW310786   0.488   3.818   4.528 -0.4397  0.6596  0.7201
 2683SOL    MW410787   0.555   3.873   4.540 -0.3436  0.5605  0.6351
 2684SOL     OW10788   1.071   0.997   4.577 -0.3734  0.3503  0.1374
 2684SOL    HW210789   1.053   0.920   4.524  0.3996 -0.7502  1.4281
 2684SOL    HW310790   0.998   1.000   4.639  0.2398 -0.0791  0.8884
 2684SOL    MW410791   1.059   0.987   4.578 -0.1906  0.1485  0.4072
 2685SOL     OW10792   3.784   2.804   4.474  0.6027  0.0952 -0.0923
 2685SOL    HW210793   3.738   2.869   4.527  1.8982  0.1346  1.0266
 2685SOL    HW310794   3.720   2.736   4.457 -0.1914  0.7036  0.4372
 2685SOL    MW410795   3.770   2.804   4.479  0.6688  0.1810  0.1249
 2686SOL     OW10796   1.127   2.816   4.441  0.4298  0.1622 -0.0901
 2686SOL    HW210797   1.130   2.802   4.346 -0.1060  0.4690 -0.1584
 2686SOL    HW310798   1.036   2.843   4.458  0.8646  1.3983  0.3270
 2686SOL    MW410799   1.115   2.818   4.431  0.4165  0.3657 -0.0439
 2687SOL     OW10800   1.279   3.255   4.641  0.3382  0.8204 -0.0828
 2687SOL    HW210801   1.279   3.190   4.710 -2.5174  0.8606  0.0295
 2687SOL    HW310802   1.332   3.327   4.675 -0.5260  0.5781  1.7907
 2687SOL    MW410803   1.286   3.256   4.655 -0.1525  0.7935  0.1793
 2688SOL     OW10804   3.503   0.062   4.729  0.4912  0.1875 -0.2798
 2688SOL    HW210805   3.531  -0.018   4.683  0.8639 -0.3425  0.8271
 2688SOL    HW310806   3.476   0.031   4.816 -0.0667  1.1815 -0.0907
 2688SOL    MW410807   3.503   0.047   4.734  0.4666  0.2487 -0.1087
 2689SOL     OW10808   1.352   3.525   4.640 -0.7026 -0.3180  0.0244
 2689SOL    HW210809   1.284   3.525   4.573 -0.2647 -1.7794 -0.4263
 2689SOL    HW310810   1.433   3.542   4.592 -0.4982 -0.4659  0.3174
 2689SOL    MW410811   1.353   3.527   4.625 -0.6179 -0.5305  0.0038
 2690SOL     OW10812   4.209   1.219   4.501  0.0090 -0.1666  0.1137
 2690SOL    HW210813   4.207   1.126   4.478 -0.9308 -0.1350  0.0557
 2690SOL    HW310814   4.297   1.233   4.536  0.3795 -0.9220 -0.5110
 2690SOL    MW410815   4.220   1.209   4.503 -0.0653 -0.2620  0.0234
 2691SOL     OW10816   3.994   1.406   4.824 -0.0899 -0.1219 -0.1390
 2691SOL    HW210817   4.085   1.427   4.802 -0.1170 -0.7320 -0.8804
 2691SOL    HW310818   3.976   1.456   4.903  0.8751  0.0539 -0.0212
 2691SOL    MW410819   4.004   1.415   4.831  0.0339 -0.1792 -0.2217
 2692SOL     OW10820   0.112   3.899   4.492  0.1035  0.3886  0.1932
 2692SOL    HW210821   0.191   3.848   4.477 -0.0174  0.5208 -0.9879
 2692SOL    HW310822   0.142   3.979   4.535  0.4386 -0.1682  0.9970
 2692SOL    MW410823   0.126   3.903   4.496  0.1318  0.3326  0.1435
 2693SOL     OW10824   2.285   0.853   4.554 -0.4315  0.3093 -0.1533
 2693SOL    HW210825   2.362   0.899   4.585  1.5851 -2.5780 -0.6029
 2693SOL    HW310826   2.212   0.887   4.606  1.6519  0.8678  2.4802
 2693SOL    MW410827   2.285   0.863   4.565  0.1092  0.0020  0.1354
 2694SOL     OW10828   1.952   1.223   4.522 -0.0861 -0.0517  0.6135
 2694SOL    HW210829   1.971   1.140   4.567  1.0247 -0.1805 -0.0960
 2694SOL    HW310830   1.963   1.203   4.429 -1.2440  0.5199  0.3416
 2694SOL    MW410831   1.956   1.209   4.516 -0.0924  0.0068  0.4840
 2695SOL     OW10832   1.572   4.386   4.490 -0.1958  0.1730  0.4842
 2695SOL    HW210833   1.563   4.390   4.395 -0.8935  0.3538  0.5590
 2695SOL    HW310834   1.655   4.340   4.504  1.2101  2.4227 -0.2159
 2695SOL    MW410835   1.582   4.380   4.480 -0.1024  0.4935  0.4015
 2696SOL     OW10836   3.245   0.850   4.370  0.1549 -0.3239 -0.6799
 2696SOL    HW210837   3.321   0.901   4.399 -0.1736 -0.3915  0.3188
 2696SOL    HW310838   3.223   0.796   4.446 -1.2755  0.1432 -0.7580
 2696SOL    MW410839   3.252   0.850   4.384 -0.0772 -0.2712 -0.5584
 2697SOL     OW10840   1.333   1.664   4.529  0.3849  0.3384  0.2483
 2697SOL    HW210841   1.407   1.717   4.559  1.4296 -0.2554 -1.2195
 2697SOL    HW310842   1.352   1.648   4.436  0.0297 -2.4895  0.6320
 2697SOL    MW410843   1.346   1.669   4.520  0.4760 -0.1131  0.1049
 2698SOL     OW10844   1.561   0.736   4.598 -0.0880 -0.1214  0.2899
 2698SOL    HW210845   1.492   0.800   4.583 -0.4899 -0.5401  0.3510
 2698SOL    HW310846   1.547   0.669   4.531 -0.2172 -0.5988  0.7860
 2698SOL    MW410847   1.550   0.735   4.587 -0.1580 -0.2397  0.3633
 2699SOL     OW10848   1.239   4.666   4.548  0.1569  0.2234 -0.2687
 2699SOL    HW210849   1.333   4.667   4.564 -0.0084  1.1641  0.6776
 2699SOL    HW310850   1.226   4.726   4.474  0.5076 -1.4085 -1.6964
 2699SOL    MW410851   1.250   4.674   4.540  0.1813  0.1322 -0.3324
 2700SOL     OW10852   0.488   4.135   4.495 -0.4636 -0.0116 -0.2011
 2700SOL    HW210853   0.478   4.103   4.406  0.8800 -0.6897 -0.1281
 2700SOL    HW310854   0.400   4.131   4.533 -0.8190 -0.8615 -1.1113
 2700SOL    MW410855   0.475   4.131   4.488 -0.3332 -0.2131 -0.3119
 2701SOL     OW10856   0.385   2.596   4.666 -0.1516 -0.2890  0.3564
 2701SOL    HW210857   0.480   2.602   4.654 -0.2192 -1.7262 -1.0175
 2701SOL    HW310858   0.350   2.674   4.624  0.4082  0.1804  0.7585
 2701SOL    MW410859   0.393   2.607   4.659 -0.0866 -0.4168  0.2289
 2702SOL     OW10860   2.103   3.085   4.890 -0.0726 -0.0309 -0.1181
 2702SOL    HW210861   2.102   3.064   4.796  0.2999 -0.2803 -0.0697
 2702SOL    HW310862   2.098   3.180   4.894  0.3001  0.0010 -0.4020
 2702SOL    MW410863   2.102   3.095   4.878  0.0255 -0.0596 -0.1488
 2703SOL     OW10864   1.737   2.951   4.823  0.1335  0.1432 -0.0173
 2703SOL    HW210865   1.769   3.032   4.783 -0.9410  1.2887  1.3740
 2703SOL    HW310866   1.803   2.930   4.890 -0.5479  0.9101  0.8962
 2703SOL    MW410867   1.750   2.959   4.827 -0.0981  0.3955  0.2871
 2704SOL     OW10868   3.834   1.541   4.637 -0.0762  0.4475 -0.2353
 2704SOL    HW210869   3.820   1.472   4.573 -1.3187  0.3816  0.0915
 2704SOL    HW310870   3.888   1.501   4.705  0.3412  0.2028 -0.7106
 2704SOL    MW410871   3.839   1.527   4.638 -0.1850  0.4065 -0.2546
 2705SOL     OW10872   0.895   1.661   4.641 -0.4644 -0.0681  0.1900
 2705SOL    HW210873   0.945   1.724   4.590 -1.1668  0.9980  0.7951
 2705SOL    HW310874   0.918   1.680   4.732 -1.5880  0.1244  0.4485
 2705SOL    MW410875   0.904   1.672   4.647 -0.7054  0.0979  0.3042
 2706SOL     OW10876   1.703   3.930   4.459 -0.1286  0.3587 -0.3156
 2706SOL    HW210877   1.724   3.975   4.377  0.5734  0.2576 -0.2022
 2706SOL    HW310878   1.609   3.943   4.471 -0.3321 -0.0539 -1.3904
 2706SOL    MW410879   1.694   3.938   4.450 -0.0628  0.2909 -0.4425
 2707SOL     OW10880   0.747   3.649   4.508  0.0260 -0.1608 -0.3151
 2707SOL    HW210881   0.702   3.728   4.538 -0.4148 -0.1269 -1.0469
 2707SOL    HW310882   0.839   3.672   4.509  0.0659 -0.2784  1.3602
 2707SOL    MW410883   0.753   3.662   4.512 -0.0269 -0.1719 -0.1903
 2708SOL     OW10884   1.325   3.039   4.814  0.2556  0.4395 -0.0203
 2708SOL    HW210885   1.341   2.980   4.740  0.6269  0.0823  0.3473
 2708SOL    HW310886   1.410   3.047   4.857  0.2987  1.5488 -0.2928
 2708SOL    MW410887   1.338   3.032   4.810  0.3103  0.5388 -0.0081
 2709SOL     OW10888   3.852   3.158   4.742  0.2426  0.2297  0.3526
 2709SOL    HW210889   3.841   3.243   4.700  0.8257  0.6315  1.0195
 2709SOL    HW310890   3.770   3.112   4.723 -0.7722  1.5616  1.4297
 2709SOL    MW410891   3.840   3.163   4.734  0.1855  0.4585  0.5827
 2710SOL     OW10892   4.264   3.601   4.541 -0.0480  0.7045  0.6488
 2710SOL    HW210893   4.229   3.512   4.530  0.2137  0.8874 -1.9910
 2710SOL    HW310894   4.205   3.642   4.605 -0.0858 -1.3749  2.0054
 2710SOL    MW410895   4.251   3.595   4.548 -0.0186  0.4544  0.4802
 2711SOL     OW10896   0.204   1.179   4.550 -0.3163  0.1991  0.2510
 2711SOL    HW210897   0.222   1.087   4.569  0.4847  0.3317  0.1727
 2711SOL    HW310898   0.285   1.225   4.573 -0.3961  0.7643 -0.5568
 2711SOL    MW410899   0.217   1.173   4.555 -0.2212  0.2913  0.1335
 2712SOL     OW10900   0.988   0.753   4.450  0.1367 -0.0165  0.1846
 2712SOL    HW210901   0.955   0.787   4.367  0.1451 -0.0664  0.1607
 2712SOL    HW310902   0.910   0.740   4.503  0.2098  1.0725  0.5861
 2712SOL    MW410903   0.974   0.756   4.446  0.1475  0.1206  0.2346
 2713SOL     OW10904   3.990   0.051   4.509 -0.0625  0.5038  0.1684
 2713SOL    HW210905   3.909   0.095   4.533 -0.2088  0.1487  0.3226
 2713SOL    HW310906   3.999   0.067   4.415 -0.9635 -0.5117 -0.1074
 2713SOL    MW410907   3.981   0.059   4.499 -0.2005  0.3229  0.1521
 2714SOL     OW10908   2.618   2.715   5.127  0.0077 -0.1126 -0.1938
 2714SOL    HW210909   2.630   2.692   5.035  1.8743  0.5867 -0.1596
 2714SOL    HW310910   2.707   2.733   5.158 -0.6789  0.2571  1.5780
 2714SOL    MW410911   2.631   2.715   5.119  0.1636  0.0286  0.0439
 2715SOL     OW10912   1.791   0.058   4.675  0.2643 -0.1453  0.4261
 2715SOL    HW210913   1.850  -0.012   4.647 -0.0388  0.2133 -1.1701
 2715SOL    HW310914   1.828   0.137   4.636  0.4547  0.5497  2.0000
 2715SOL    MW410915   1.804   0.059   4.666  0.2495 -0.0063  0.4230
 2716SOL     OW10916   4.277   0.655   4.486  0.3530  0.1023  0.1187
 2716SOL    HW210917   4.203   0.635   4.542 -0.6133  1.1834 -0.7457
 2716SOL    HW310918   4.264   0.599   4.409  0.0695  0.7568 -0.3180
 2716SOL    MW410919   4.266   0.645   4.483  0.1879  0.3313 -0.0529
 2717SOL     OW10920   0.477   0.809   4.495  0.2069  0.1814  0.4504
 2717SOL    HW210921   0.427   0.870   4.549 -1.2653 -0.7344  0.1702
 2717SOL    HW310922   0.462   0.839   4.405  0.0525 -0.1677  0.3587
 2717SOL    MW410923   0.469   0.821   4.490 -0.0077  0.0145  0.4020
 2718SOL     OW10924   1.418   3.951   4.499  0.2329  0.4144  0.1475
 2718SOL    HW210925   1.367   3.902   4.563  1.5799 -0.2959  0.7069
 2718SOL    HW310926   1.383   4.040   4.503 -0.6201  0.0528  0.8658
 2718SOL    MW410927   1.407   3.956   4.508  0.2981  0.2732  0.3161
 2719SOL     OW10928   1.467   0.519   4.355 -0.0008  0.0933  0.3317
 2719SOL    HW210929   1.480   0.583   4.285 -1.1484  0.3632  0.3520
 2719SOL    HW310930   1.383   0.542   4.393  0.2327 -0.5629  1.2698
 2719SOL    MW410931   1.458   0.530   4.351 -0.1215  0.0423  0.4582
 2720SOL     OW10932   1.828   1.670   4.554 -0.0338 -0.3626 -0.4262
 2720SOL    HW210933   1.772   1.593   4.565  0.3098 -0.5295  0.2171
 2720SOL    HW310934   1.826   1.689   4.461 -1.4407 -0.1616 -0.3578
 2720SOL    MW410935   1.820   1.662   4.543 -0.1742 -0.3582 -0.3319
 2721SOL     OW10936   1.151   4.430   4.457  0.4365  0.0532 -0.3265
 2721SOL    HW210937   1.073   4.402   4.505  0.1474  0.3108 -0.6521
 2721SOL    HW310938   1.169   4.518   4.490  1.1508 -0.3621  0.4505
 2721SOL    MW410939   1.143   4.438   4.468  0.4926  0.0329 -0.2666
 2722SOL     OW10940   0.848   0.189   4.545  0.2007  0.3124  0.1910
 2722SOL    HW210941   0.818   0.102   4.572  2.2216 -0.1830  0.9503
 2722SOL    HW310942   0.857   0.183   4.450 -0.2510 -0.1196  0.1736
 2722SOL    MW410943   0.845   0.177   4.536  0.4078  0.1901  0.2894
 2723SOL     OW10944   1.122   1.263   4.506 -0.1363  0.0290  0.0099
 2723SOL    HW210945   1.165   1.308   4.580  0.9877  0.1589 -0.7125
 2723SOL    HW310946   1.092   1.180   4.543  0.2984  0.1523  0.6540
 2723SOL    MW410947   1.124   1.258   4.521  0.0693  0.0625  0.0000
 2724SOL     OW10948   1.558   1.825   4.618  0.2810 -0.3178  0.0344
 2724SOL    HW210949   1.586   1.904   4.572  1.4833 -0.6487  0.1799
 2724SOL    HW310950   1.639   1.777   4.634 -0.1071 -0.2370  2.4729
 2724SOL    MW410951   1.572   1.829   4.614  0.3884 -0.3508  0.3753
 2725SOL     OW10952   1.378   2.889   4.573 -0.1326  0.3022  0.1814
 2725SOL    HW210953   1.294   2.869   4.533 -0.7830 -0.1677  1.7473
 2725SOL    HW310954   1.411   2.964   4.524 -1.0402 -0.0822 -1.0341
 2725SOL    MW410955   1.371   2.896   4.561 -0.3382  0.1895  0.2279
 2726SOL     OW10956   1.775   2.732   4.622 -0.6842 -0.4851 -0.0517
 2726SOL    HW210957   1.688   2.734   4.582 -1.2784 -0.4275  1.2013
 2726SOL    HW310958   1.766   2.787   4.700  0.8024  0.4906 -0.5578
 2726SOL    MW410959   1.762   2.740   4.627 -0.5662 -0.3490  0.0467
 2727SOL     OW10960   0.636   2.825   4.456 -0.6148  0.1946 -0.4965
 2727SOL    HW210961   0.569   2.892   4.472 -1.5862 -1.2629  1.8285
 2727SOL    HW310962   0.717   2.865   4.486 -0.8334  1.0983 -1.0917
 2727SOL    MW410963   0.638   2.839   4.462 -0.7719  0.1216 -0.2685
 2728SOL     OW10964   1.832   3.671   4.479 -0.2269 -0.0994  0.8589
 2728SOL    HW210965   1.794   3.758   4.480  0.5515  0.2412  1.8332
 2728SOL    HW310966   1.869   3.662   4.391 -2.0570 -0.2409  0.0725
 2728SOL    MW410967   1.832   3.681   4.467 -0.3657 -0.0730  0.8841
 2729SOL     OW10968   0.667   1.812   4.594 -0.2233  0.3202 -0.1636
 2729SOL    HW210969   0.610   1.742   4.561  0.6867 -0.6381  0.2792
 2729SOL    HW310970   0.750   1.768   4.614  0.3465  1.5241  0.1469
 2729SOL    MW410971   0.670   1.797   4.592 -0.0281  0.3527 -0.0639
 2730SOL     OW10972   1.852   3.155   4.667  0.0034 -0.0384 -0.0515
 2730SOL    HW210973   1.916   3.103   4.619 -1.6462 -0.5529 -1.7789
 2730SOL    HW310974   1.902   3.230   4.699  1.4695 -0.4103 -1.3647
 2730SOL    MW410975   1.867   3.158   4.665 -0.0207 -0.1554 -0.4525
 2731SOL     OW10976   1.936   2.903   5.043  0.2551 -0.0545  0.1404
 2731SOL    HW210977   1.993   2.969   5.002  0.8288  0.3388  1.5451
 2731SOL    HW310978   1.996   2.831   5.065 -0.1993 -0.6235 -0.4739
 2731SOL    MW410979   1.952   2.902   5.040  0.2710 -0.0777  0.2446
 2732SOL     OW10980   0.328   0.580   4.474 -0.4824 -0.1177 -0.2192
 2732SOL    HW210981   0.390   0.651   4.487 -0.4109 -0.1656 -0.2955
 2732SOL    HW310982   0.243   0.618   4.492 -0.3222 -0.3647  1.0859
 2732SOL    MW410983   0.325   0.594   4.478 -0.4519 -0.1566 -0.0567
 2733SOL     OW10984   0.903   2.695   4.745  0.5106  0.2111  0.3471
 2733SOL    HW210985   0.878   2.714   4.835  1.2573 -2.1917  1.1046
 2733SOL    HW310986   0.823   2.662   4.704  0.3176  0.7556  0.2772
 2733SOL    MW410987   0.890   2.693   4.752  0.5837 -0.0341  0.4382
 2734SOL     OW10988   1.530   2.661   4.492  0.6520 -0.3819  0.3864
 2734SOL    HW210989   1.466   2.590   4.485  0.6067 -0.2831 -0.2511
 2734SOL    HW310990   1.479   2.735   4.524  0.4386 -0.3009 -0.1271
 2734SOL    MW410991   1.515   2.661   4.495  0.6179 -0.3581  0.2346
 2735SOL     OW10992   2.913   3.115   4.607 -0.5636  0.0992 -0.1068
 2735SOL    HW210993   2.929   3.026   4.576 -0.8728 -0.3038  0.8643
 2735SOL    HW310994   2.853   3.104   4.680 -1.4384  1.2003 -0.6503
 2735SOL    MW410995   2.907   3.102   4.612 -0.7198  0.1912 -0.0501
 2736SOL     OW10996   2.521   3.278   4.610 -0.1150 -0.4223 -0.2220
 2736SOL    HW210997   2.541   3.289   4.704 -1.4492  3.6442 -0.3174
 2736SOL    HW310998   2.604   3.298   4.566 -0.5328  1.9258 -0.0205
 2736SOL    MW410999   2.535   3.282   4.617 -0.3459  0.4241 -0.2084
 2737SOL     OW11000   0.764   4.620   4.670 -0.4830  0.0954  0.7768
 2737SOL    HW211001   0.732   4.534   4.644  0.4250  0.2804 -1.0655
 2737SOL    HW311002   0.816   4.604   4.749 -0.3791 -1.0480  0.4896
 2737SOL    MW411003   0.767   4.607   4.677 -0.3495 -0.0315  0.4959
 2738SOL     OW11004   1.594   3.497   4.497 -0.1079 -0.1045  0.1881
 2738SOL    HW211005   1.630   3.410   4.517 -0.0315 -0.2598 -0.6002
 2738SOL    HW311006   1.669   3.555   4.500 -0.1024 -0.1187  0.3731
 2738SOL    MW411007   1.608   3.493   4.500 -0.0970 -0.1266  0.1082
 2739SOL     OW11008   0.869   2.439   4.506  0.1535  0.2047  0.2371
 2739SOL    HW211009   0.952   2.480   4.531  0.1717  0.6547 -0.5388
 2739SOL    HW311010   0.869   2.442   4.410 -0.0276 -1.2454  0.1734
 2739SOL    MW411011   0.880   2.445   4.497  0.1321  0.0727  0.1259
 2740SOL     OW11012   0.855   1.404   4.559  0.4716 -0.2760  0.2574
 2740SOL    HW211013   0.944   1.370   4.544  0.7601  0.3762  0.5128
 2740SOL    HW311014   0.867   1.496   4.580 -0.3318  0.0335 -0.5890
 2740SOL    MW411015   0.868   1.411   4.559  0.4036 -0.1490  0.1798
 2741SOL     OW11016   2.259   3.555   4.448 -0.6960 -0.1822  0.1475
 2741SOL    HW211017   2.190   3.573   4.384  0.7927 -0.0585 -1.4642
 2741SOL    HW311018   2.261   3.459   4.454  0.3660 -0.2676 -1.3665
 2741SOL    MW411019   2.250   3.545   4.440 -0.3598 -0.1774 -0.2651
 2742SOL     OW11020   1.005   3.775   4.559  0.0439 -0.0378  0.2451
 2742SOL    HW211021   0.964   3.861   4.558  0.5276  0.2032 -2.0356
 2742SOL    HW311022   1.083   3.786   4.614 -1.6422  0.0811  2.7129
 2742SOL    MW411023   1.010   3.787   4.566 -0.1147  0.0095  0.2699
 2743SOL     OW11024   1.975   0.500   4.253 -0.1106  0.3975  0.0208
 2743SOL    HW211025   2.069   0.481   4.248 -0.4637 -1.4156  0.0619
 2743SOL    HW311026   1.958   0.511   4.346 -0.0578  0.0480  0.0742
 2743SOL    MW411027   1.986   0.499   4.265 -0.1503  0.1122  0.0334
 2744SOL     OW11028   1.520   4.638   4.623  0.0388  0.0995  0.4084
 2744SOL    HW211029   1.523   4.543   4.621  0.0143  0.1000  0.3761
 2744SOL    HW311030   1.609   4.665   4.645  0.0633  0.0726  0.3408
 2744SOL    MW411031   1.532   4.629   4.626  0.0389  0.0963  0.3953
 2745SOL     OW11032   1.356   0.957   4.510 -0.0129  0.4315  0.0909
 2745SOL    HW211033   1.267   0.966   4.545  0.5175  0.2654  1.5430
 2745SOL    HW311034   1.343   0.933   4.419 -1.4623  3.8500 -0.7052
 2745SOL    MW411035   1.342   0.955   4.503 -0.1341  0.8606  0.1774
 2746SOL     OW11036   2.107   1.689   4.602 -0.3088 -0.3900 -0.1750
 2746SOL    HW211037   2.013   1.681   4.587 -0.4635  0.9696 -0.0654
 2746SOL    HW311038   2.140   1.599   4.607 -1.2273 -0.8685 -2.5431
 2746SOL    MW411039   2.099   1.676   4.601 -0.4504 -0.2736 -0.4730
 2747SOL     OW11040   1.474   1.217   4.518  0.5931  0.5180  0.2846
 2747SOL    HW211041   1.405   1.273   4.555 -0.8840  0.1034 -1.7772
 2747SOL    HW311042   1.442   1.128   4.532  0.0254  0.3565 -1.9112
 2747SOL    MW411043   1.460   1.213   4.525  0.3234  0.4420 -0.2775
 2748SOL     OW11044   1.529   2.285   4.597  0.0703  0.7413  0.5069
 2748SOL    HW211045   1.478   2.349   4.548  0.7496 -0.2507 -1.5537
 2748SOL    HW311046   1.594   2.337   4.645  0.1064  1.6608 -0.5275
 2748SOL    MW411047   1.531   2.300   4.597  0.1647  0.7317  0.0978
 2749SOL     OW11048   2.431   1.286   4.570 -0.1451 -0.1019  0.0902
 2749SOL    HW211049   2.504   1.345   4.586 -0.0768  0.1586 -1.1638
 2749SOL    HW311050   2.356   1.344   4.553 -0.1294 -0.3622 -0.9081
 2749SOL    MW411051   2.430   1.302   4.570 -0.1340 -0.1019 -0.2069
 2750SOL     OW11052   1.854   2.297   4.501  0.1989  0.0919  0.5199
 2750SOL    HW211053   1.826   2.206   4.494 -1.8813  0.7808 -0.7851
 2750SOL    HW311054   1.822   2.326   4.587  0.6402 -0.3310  0.8281
 2750SOL    MW411055   1.846   2.289   4.511 -0.0175  0.1271  0.3881
 2751SOL     OW11056   1.662   2.048   4.507  0.4944 -0.1926 -0.4209
 2751SOL    HW211057   1.634   2.042   4.416  0.1826 -0.1234 -0.3288
 2751SOL    HW311058   1.624   2.130   4.539  0.0662 -0.5347 -0.0443
 2751SOL    MW411059   1.654   2.058   4.499  0.3968 -0.2282 -0.3591
 2752SOL     OW11060   2.027   2.761   4.491 -0.4609  0.0977  0.0785
 2752SOL    HW211061   1.940   2.765   4.529 -0.0524 -0.1688  1.0593
 2752SOL    HW311062   2.039   2.670   4.466 -0.1445 -0.0446  0.7276
 2752SOL    MW411063   2.017   2.750   4.493 -0.3650  0.0441  0.2937
 2753SOL     OW11064   3.288   2.057   4.565 -0.2582  0.5117  0.6099
 2753SOL    HW211065   3.288   2.053   4.470  1.6049 -0.3704  0.6351
 2753SOL    HW311066   3.199   2.031   4.590 -0.5522  0.0995 -0.8566
 2753SOL    MW411067   3.276   2.053   4.556 -0.0513  0.3409  0.4196
 2754SOL     OW11068   0.335   3.714   4.465 -0.4948  0.3216  0.3592
 2754SOL    HW211069   0.322   3.704   4.370 -0.3891 -0.0628  0.3841
 2754SOL    HW311070   0.342   3.625   4.498  1.1727  0.4763  0.4859
 2754SOL    MW411071   0.335   3.701   4.457 -0.2609  0.2909  0.3791
 2755SOL     OW11072   2.768   3.333   4.503  0.3628 -0.2634 -0.0363
 2755SOL    HW211073   2.828   3.265   4.535  0.2149 -0.2410  0.2902
 2755SOL    HW311074   2.748   3.307   4.413 -2.7840 -2.8476  1.2855
 2755SOL    MW411075   2.773   3.320   4.496 -0.0718 -0.6015  0.1817
 2756SOL     OW11076   1.673   3.237   4.488  0.2566 -0.3702  0.3426
 2756SOL    HW211077   1.721   3.232   4.405  1.7127 -1.1249  1.2097
 2756SOL    HW311078   1.740   3.222   4.555 -0.9954 -0.2470  1.6308
 2756SOL    MW411079   1.688   3.234   4.486  0.2835 -0.4535  0.6275
 2757SOL     OW11080   2.256   3.288   4.492 -0.1732 -0.1662  0.3036
 2757SOL    HW211081   2.343   3.287   4.533 -0.5086 -0.6278  1.0269
 2757SOL    HW311082   2.272   3.260   4.402  0.4835  0.1335  0.3244
 2757SOL    MW411083   2.270   3.284   4.485 -0.1307 -0.1874  0.4020
 2758SOL     OW11084   2.526   4.127   4.618  0.3975  0.0066  0.1378
 2758SOL    HW211085   2.486   4.062   4.559  0.5911  0.4597 -0.4962
 2758SOL    HW311086   2.500   4.098   4.705  0.2729 -0.7922 -0.1516
 2758SOL    MW411087   2.517   4.114   4.622  0.4065 -0.0386  0.0157
 2759SOL     OW11088   2.121   3.006   4.625 -0.4511 -0.6667  0.0958
 2759SOL    HW211089   2.089   2.920   4.596 -0.4484 -0.4873 -0.4399
 2759SOL    HW311090   2.215   3.005   4.604 -0.4590 -0.5202  0.0533
 2759SOL    MW411091   2.129   2.994   4.618 -0.4520 -0.6235  0.0191
 2760SOL     OW11092   1.420   3.124   4.443  0.1835  0.0779 -0.0173
 2760SOL    HW211093   1.376   3.168   4.516 -0.6202 -0.4084 -0.2025
 2760SOL    HW311094   1.513   3.144   4.456 -0.1472  1.7660 -0.0569
 2760SOL    MW411095   1.426   3.132   4.455  0.0337  0.2363 -0.0467
 2761SOL     OW11096   2.805   4.097   4.465  0.1455 -0.0248 -0.5891
 2761SOL    HW211097   2.736   4.112   4.529  0.3130 -0.6176 -0.2627
 2761SOL    HW311098   2.759   4.075   4.384 -0.0723  0.9880 -0.7451
 2761SOL    MW411099   2.790   4.096   4.462  0.1390  0.0305 -0.5670
 2762SOL     OW11100   3.338   3.390   4.553  0.2129  0.1425  0.5518
 2762SOL    HW211101   3.279   3.315   4.544 -1.4339  1.3973  0.4910
 2762SOL    HW311102   3.426   3.354   4.543 -0.5561 -1.7599  0.4909
 2762SOL    MW411103   3.342   3.376   4.551 -0.1063  0.0572  0.5355
 2763SOL     OW11104   2.067   3.637   4.629 -0.2713 -0.1698  0.6540
 2763SOL    HW211105   1.984   3.631   4.582 -0.3004  0.8510  0.5545
 2763SOL    HW311106   2.133   3.613   4.565 -0.4035  0.1244  0.4038
 2763SOL    MW411107   2.065   3.633   4.615 -0.2925  0.0038  0.6080
 2764SOL     OW11108   1.120   0.286   4.557  0.1948 -0.1446  0.7319
 2764SOL    HW211109   1.042   0.234   4.535 -0.5358  0.6737  1.3572
 2764SOL    HW311110   1.172   0.229   4.614  0.0129 -0.6592  0.3857
 2764SOL    MW411111   1.117   0.271   4.561  0.0744 -0.1045  0.7691
 2765SOL     OW11112   1.114   2.559   4.563  0.1501 -0.4968 -0.4271
 2765SOL    HW211113   1.116   2.647   4.524 -0.3408 -0.8746 -1.3089
 2765SOL    HW311114   1.102   2.575   4.657  1.4235  0.4276 -0.3906
 2765SOL    MW411115   1.113   2.573   4.570  0.2534 -0.4244 -0.5383
 2766SOL     OW11116   1.198   0.137   4.265 -0.0151 -0.3740 -0.2557
 2766SOL    HW211117   1.200   0.077   4.190  0.7341  1.4806 -1.7336
 2766SOL    HW311118   1.105   0.148   4.284 -0.1663 -1.9101 -0.0399
 2766SOL    MW411119   1.186   0.130   4.257  0.0637 -0.3319 -0.4225
 2767SOL     OW11120   1.722   1.404   4.575 -0.0934 -0.0414  0.0845
 2767SOL    HW211121   1.651   1.346   4.548 -0.0241  0.5086 -1.3775
 2767SOL    HW311122   1.800   1.349   4.573 -0.2111 -0.2023 -0.0929
 2767SOL    MW411123   1.723   1.389   4.571 -0.0998  0.0099 -0.1311
 2768SOL     OW11124   3.366   0.525   4.228 -0.0621 -0.2871  0.1815
 2768SOL    HW211125   3.365   0.503   4.321 -2.3274  1.0426  0.4942
 2768SOL    HW311126   3.282   0.491   4.195  0.8179 -0.9438 -1.4292
 2768SOL    MW411127   3.355   0.517   4.236 -0.2449 -0.1984  0.0100
 2769SOL     OW11128   2.575   1.814   4.462 -0.0302  0.1462 -0.4898
 2769SOL    HW211129   2.605   1.753   4.395 -1.0985 -0.7295 -0.1787
 2769SOL    HW311130   2.481   1.802   4.465  0.0852 -0.4012  1.7419
 2769SOL    MW411131   2.567   1.805   4.454 -0.1557 -0.0417 -0.1540
 2770SOL     OW11132   2.340   0.087   4.416 -0.3180  0.0729  0.5121
 2770SOL    HW211133   2.383   0.067   4.333 -0.1799  0.5287  0.4710
 2770SOL    HW311134   2.258   0.131   4.390 -0.3328  0.1036  0.6109
 2770SOL    MW411135   2.335   0.090   4.402 -0.3018  0.1371  0.5202
 2771SOL     OW11136   2.034   0.966   4.672  0.1327 -0.0548  0.1385
 2771SOL    HW211137   2.021   0.976   4.766  0.0456  0.4607  0.0741
 2771SOL    HW311138   1.961   0.910   4.644  0.1390 -0.1797  0.3729
 2771SOL    MW411139   2.022   0.960   4.680  0.1218 -0.0033  0.1607
 2772SOL     OW11140   2.725   0.957   4.535 -0.4880 -0.5174  0.0125
 2772SOL    HW211141   2.811   0.998   4.532 -0.7766  0.0805 -0.1540
 2772SOL    HW311142   2.693   0.963   4.445 -0.8681 -0.3834  0.1569
 2772SOL    MW411143   2.732   0.963   4.523 -0.5763 -0.4209  0.0095
 2773SOL     OW11144   2.489   1.024   4.675 -0.5820 -0.6280 -0.2499
 2773SOL    HW211145   2.451   1.103   4.636 -0.1988 -0.1328  0.3520
 2773SOL    HW311146   2.564   1.003   4.620 -1.6206 -1.5104 -1.3434
 2773SOL    MW411147   2.494   1.032   4.663 -0.6685 -0.6790 -0.3142
 2774SOL     OW11148   2.287   1.822   4.427 -0.3570  0.0107 -0.1350
 2774SOL    HW211149   2.234   1.779   4.494 -0.2986 -1.0342 -0.7563
 2774SOL    HW311150   2.257   1.913   4.428 -1.2664 -0.2878  0.4026
 2774SOL    MW411151   2.276   1.829   4.436 -0.4694 -0.1665 -0.1459
 2775SOL     OW11152   2.563   3.271   4.884  0.0109  0.2085  0.3646
 2775SOL    HW211153   2.492   3.212   4.910 -0.3873  0.7136  0.4327
 2775SOL    HW311154   2.637   3.245   4.937 -0.1699 -0.2229  0.4041
 2775SOL    MW411155   2.563   3.260   4.894 -0.0656  0.2179  0.3791
 2776SOL     OW11156   2.943   1.132   4.530  0.3732  0.0670  0.6999
 2776SOL    HW211157   3.011   1.115   4.596 -0.3511 -1.1041  1.1566
 2776SOL    HW311158   2.969   1.078   4.455  0.3813  0.2330  0.5835
 2776SOL    MW411159   2.956   1.122   4.529  0.2789 -0.0656  0.7448
 2777SOL     OW11160   1.723   2.461   4.719 -0.2547  0.2997  0.1308
 2777SOL    HW211161   1.771   2.464   4.802 -2.7898 -1.3768  1.7674
 2777SOL    HW311162   1.720   2.551   4.689  1.3159  0.8377  1.5163
 2777SOL    MW411163   1.729   2.473   4.726 -0.3819  0.1493  0.5293
 2778SOL     OW11164   3.226   2.759   4.481 -0.5163 -0.4704 -0.6013
 2778SOL    HW211165   3.263   2.810   4.554 -0.0355 -2.3183  0.4733
 2778SOL    HW311166   3.281   2.782   4.406 -0.8047  1.1908 -0.3374
 2778SOL    MW411167   3.238   2.769   4.481 -0.4911 -0.4950 -0.4249
 2779SOL     OW11168   3.266   3.583   4.372 -0.2374  0.0515 -0.4397
 2779SOL    HW211169   3.293   3.520   4.439 -1.6239 -0.2784 -0.1739
 2779SOL    HW311170   3.247   3.530   4.295 -0.0160  0.2957 -0.6653
 2779SOL    MW411171   3.267   3.568   4.371 -0.3910  0.0401 -0.4349
 2780SOL     OW11172   1.271   3.790   4.689  0.3981  0.1104 -0.2642
 2780SOL    HW211173   1.293   3.697   4.688 -2.1880 -0.5561  0.5149
 2780SOL    HW311174   1.289   3.819   4.778  0.4191  0.1512 -0.2814
 2780SOL    MW411175   1.276   3.781   4.701  0.0596  0.0279 -0.1640
 2781SOL     OW11176   2.368   2.820   5.130 -0.5925 -0.0904  0.7705
 2781SOL    HW211177   2.390   2.902   5.087 -0.2620 -0.1116  0.8978
 2781SOL    HW311178   2.451   2.774   5.139 -0.7568 -0.3843  0.8160
 2781SOL    MW411179   2.382   2.824   5.126 -0.5705 -0.1321  0.7925
 2782SOL     OW11180   2.408   3.029   4.612 -0.2927 -0.0939 -0.1539
 2782SOL    HW211181   2.450   3.115   4.618  0.3517 -0.2490 -2.1881
 2782SOL    HW311182   2.441   2.981   4.687 -1.0549  1.5885  1.2970
 2782SOL    MW411183   2.418   3.034   4.623 -0.3078  0.1075 -0.2308
 2783SOL     OW11184   2.463   4.388   4.517 -0.4304  0.0601  0.0415
 2783SOL    HW211185   2.548   4.432   4.519 -1.4049  2.0146 -0.3687
 2783SOL    HW311186   2.478   4.304   4.561  1.4062  0.9273  1.1142
 2783SOL    MW411187   2.476   4.383   4.523 -0.3169  0.4325  0.1292
 2784SOL     OW11188   2.771   3.080   4.850 -0.1817 -0.1298 -0.3407
 2784SOL    HW211189   2.684   3.040   4.846 -0.0589 -0.5353  0.9833
 2784SOL    HW311190   2.819   3.027   4.913  0.5317  1.0430  0.1058
 2784SOL    MW411191   2.766   3.068   4.857 -0.0713 -0.0286 -0.1078
 2785SOL     OW11192   2.074   3.337   4.706  0.0724 -0.0335  0.6553
 2785SOL    HW211193   2.132   3.316   4.633 -2.6693 -1.1512 -1.3051
 2785SOL    HW311194   2.082   3.432   4.717  2.1747 -0.1663  0.3710
 2785SOL    MW411195   2.083   3.347   4.697 -0.0122 -0.1986  0.3586
 2786SOL     OW11196   2.768   0.105   4.571 -0.1984 -0.3243  0.1231
 2786SOL    HW211197   2.689   0.158   4.581  0.6227  1.0574 -0.5303
 2786SOL    HW311198   2.840   0.165   4.594  0.8527 -0.7396 -2.0051
 2786SOL    MW411199   2.767   0.120   4.576  0.0489 -0.1968 -0.2441
 2787SOL     OW11200   3.467   1.268   4.506 -0.3523 -0.1684  0.5054
 2787SOL    HW211201   3.562   1.274   4.498 -0.4422 -0.5397 -0.8966
 2787SOL    HW311202   3.442   1.350   4.549  0.4620  0.5565 -0.3714
 2787SOL    MW411203   3.476   1.279   4.511 -0.2570 -0.1217  0.2050
 2788SOL     OW11204   1.948   0.525   4.550  0.3427 -0.5653  0.6212
 2788SOL    HW211205   1.913   0.613   4.563 -0.1869 -0.6058 -0.4615
 2788SOL    HW311206   2.040   0.539   4.526  0.3291 -0.3190  0.7171
 2788SOL    MW411207   1.956   0.539   4.549  0.2712 -0.5381  0.4907
 2789SOL     OW11208   3.580   1.661   4.562 -0.1260 -0.1019 -0.1912
 2789SOL    HW211209   3.503   1.614   4.595 -1.4404  2.3591  0.4534
 2789SOL    HW311210   3.654   1.623   4.610 -1.3540 -0.3746  1.5502
 2789SOL    MW411211   3.579   1.650   4.573 -0.4613  0.1870  0.1235
 2790SOL     OW11212   3.164   0.947   4.656 -0.4910  0.0474 -0.3667
 2790SOL    HW211213   3.246   0.972   4.612  0.7908 -0.9731  1.3727
 2790SOL    HW311214   3.162   0.852   4.649 -1.7284  0.0948 -0.7072
 2790SOL    MW411215   3.175   0.938   4.649 -0.4852 -0.0810 -0.1822
 2791SOL     OW11216   3.343   0.477   4.519 -0.1769 -0.0252 -0.3886
 2791SOL    HW211217   3.325   0.394   4.562  0.6439 -0.2028 -0.3820
 2791SOL    HW311218   3.428   0.504   4.552 -0.8147  1.2422  0.2443
 2791SOL    MW411219   3.352   0.470   4.529 -0.1526  0.1186 -0.3042
 2792SOL     OW11220   3.165   0.679   4.596  0.2025 -0.6122 -0.2023
 2792SOL    HW211221   3.207   0.605   4.553 -1.5841 -0.3938 -2.4444
 2792SOL    HW311222   3.072   0.657   4.596 -0.1801  0.9430  0.4800
 2792SOL    MW411223   3.159   0.667   4.590 -0.0839 -0.3783 -0.4082
 2793SOL     OW11224   3.974   1.192   4.645  0.2216  0.0930  0.4322
 2793SOL    HW211225   4.053   1.208   4.593  0.3454 -2.4908 -0.2394
 2793SOL    HW311226   3.978   1.258   4.714  1.9538  1.2596 -0.7277
 2793SOL    MW411227   3.985   1.203   4.648  0.4666 -0.0939  0.1903
 2794SOL     OW11228   3.406   0.998   4.511  0.4118  0.2351 -0.1419
 2794SOL    HW211229   3.428   1.090   4.526 -0.6161  0.5794 -0.7182
 2794SOL    HW311230   3.489   0.952   4.521  1.0717  1.3145 -0.5762
 2794SOL    MW411231   3.420   1.004   4.514  0.3633  0.4231 -0.2751
 2795SOL     OW11232   3.375   2.520   4.561 -0.1866  0.1237  0.5209
 2795SOL    HW211233   3.330   2.599   4.531 -0.1322  0.2742  0.8339
 2795SOL    HW311234   3.308   2.453   4.562  0.0679 -0.1740 -1.0926
 2795SOL    MW411235   3.361   2.522   4.557 -0.1459  0.1040  0.3490
 2796SOL     OW11236   3.029   1.901   4.547  0.4006 -0.5080  0.4184
 2796SOL    HW211237   2.956   1.903   4.610 -0.6430  1.0581 -0.7857
 2796SOL    HW311238   2.994   1.946   4.470  2.4637 -0.2594 -0.3889
 2796SOL    MW411239   3.015   1.908   4.545  0.5352 -0.2687  0.1526
 2797SOL     OW11240   2.632   1.468   4.598 -0.4041 -0.4050  0.2026
 2797SOL    HW211241   2.724   1.444   4.610 -0.4359 -0.1956  0.9026
 2797SOL    HW311242   2.616   1.535   4.665 -1.2619 -0.9674  0.5645
 2797SOL    MW411243   2.642   1.474   4.609 -0.5217 -0.4516  0.3428
 2798SOL     OW11244   2.584   1.711   4.719 -0.3609  0.1158  0.3013
 2798SOL    HW211245   2.515   1.771   4.747  0.0693  0.8217 -0.1363
 2798SOL    HW311246   2.591   1.725   4.625  2.2638  2.0637  0.7408
 2798SOL    MW411247   2.576   1.721   4.710  0.0422  0.4659  0.3018
 2799SOL     OW11248   2.677   2.166   4.702  0.1850  0.1984  0.2064
 2799SOL    HW211249   2.582   2.174   4.716 -0.1621 -0.3335 -1.6097
 2799SOL    HW311250   2.714   2.242   4.746 -1.1236  0.5977  0.6606
 2799SOL    MW411251   2.669   2.177   4.709 -0.0334  0.1805  0.0267
 2800SOL     OW11252   2.771   2.421   4.804 -0.1597 -0.1521 -0.0906
 2800SOL    HW211253   2.729   2.490   4.856  0.0124  0.2217 -0.4457
 2800SOL    HW311254   2.863   2.428   4.827 -0.0826  0.0207 -0.4545
 2800SOL    MW411255   2.777   2.431   4.814 -0.1268 -0.0801 -0.1855
 2801SOL     OW11256   2.385   3.069   4.955  0.0530  0.3997 -0.4580
 2801SOL    HW211257   2.437   3.004   4.908 -0.3596 -0.8450  0.7757
 2801SOL    HW311258   2.295   3.052   4.927 -0.2789 -0.7931  1.2608
 2801SOL    MW411259   2.380   3.058   4.945 -0.0451  0.0780 -0.0682
 2802SOL     OW11260   4.039   3.746   4.675 -0.2845 -0.2889  0.0977
 2802SOL    HW211261   4.024   3.742   4.770 -1.2256 -1.2908 -0.0687
 2802SOL    HW311262   3.951   3.735   4.638 -0.0258  0.9682 -0.8776
 2802SOL    MW411263   4.025   3.744   4.683 -0.3753 -0.2549 -0.0529
 2803SOL     OW11264   3.297   3.682   4.658  0.2409 -0.0497 -0.2007
 2803SOL    HW211265   3.210   3.684   4.618 -0.0161  0.5268  0.3818
 2803SOL    HW311266   3.329   3.593   4.641  0.1229  0.1820 -1.6446
 2803SOL    MW411267   3.290   3.671   4.650  0.1915  0.0570 -0.3147
 2804SOL     OW11268   2.773   3.628   4.489  0.5599  0.1144 -0.9567
 2804SOL    HW211269   2.765   3.535   4.511 -0.1643  0.0356 -1.5498
 2804SOL    HW311270   2.689   3.667   4.512  1.2367  0.8509  0.3236
 2804SOL    MW411271   2.761   3.621   4.495  0.5536  0.2010 -0.8659
 2805SOL     OW11272   0.516   0.076   4.516  0.1762  0.4255  0.2769
 2805SOL    HW211273   0.593   0.058   4.570 -0.3349  2.1172  1.6470
 2805SOL    HW311274   0.505   0.171   4.521 -1.0622  0.3777 -1.1909
 2805SOL    MW411275   0.524   0.086   4.524 -0.0547  0.6424  0.2642
 2806SOL     OW11276   0.856   4.014   4.508 -0.3539  0.0606  0.2769
 2806SOL    HW211277   0.787   3.954   4.534 -0.5271  0.8891  1.8073
 2806SOL    HW311278   0.869   3.997   4.415 -1.3182 -1.3974  0.3887
 2806SOL    MW411279   0.849   4.004   4.499 -0.5040 -0.0219  0.4935
 2807SOL     OW11280   2.900   2.730   4.733 -0.1527  0.3490  0.0327
 2807SOL    HW211281   2.949   2.650   4.749  0.3991  0.7261  0.2504
 2807SOL    HW311282   2.816   2.715   4.776 -1.1975 -1.2811 -2.4664
 2807SOL    MW411283   2.895   2.718   4.741 -0.2177  0.1836 -0.2680
 2808SOL     OW11284   2.157   3.917   4.640  0.2814 -0.1591  0.3912
 2808SOL    HW211285   2.138   3.826   4.658  0.8391 -0.8842 -2.3581
 2808SOL    HW311286   2.071   3.958   4.629  0.0616 -0.7259 -0.0098
 2808SOL    MW411287   2.143   3.911   4.641  0.3257 -0.3295 -0.0238
 2809SOL     OW11288   2.379   3.953   4.456  0.6757  0.1434  0.1176
 2809SOL    HW211289   2.306   3.956   4.517 -0.1080  0.9848 -0.8490
 2809SOL    HW311290   2.341   3.977   4.371  1.6662 -1.3611 -0.7832
 2809SOL    MW411291   2.365   3.957   4.453  0.7029  0.0558 -0.1292
 2810SOL     OW11292   3.824   0.447   4.546  0.1702  0.5727  0.0320
 2810SOL    HW211293   3.834   0.460   4.452 -0.5873  0.5750 -0.0456
 2810SOL    HW311294   3.811   0.353   4.556  1.4213  0.4114  0.2376
 2810SOL    MW411295   3.824   0.436   4.535  0.2356  0.5517  0.0482
 2811SOL     OW11296   3.287   0.193   4.611  0.5396 -0.1962 -0.6950
 2811SOL    HW211297   3.365   0.149   4.644  0.1259 -0.5428 -0.1775
 2811SOL    HW311298   3.253   0.134   4.543  0.0607 -0.6268 -0.0934
 2811SOL    MW411299   3.293   0.179   4.606  0.4220 -0.2987 -0.5474
 2812SOL     OW11300   2.526   0.240   4.595  0.2331  0.0757  0.5939
 2812SOL    HW211301   2.469   0.182   4.544 -1.0753  1.2381  0.6881
 2812SOL    HW311302   2.488   0.240   4.682  0.3105  0.9431  0.6341
 2812SOL    MW411303   2.513   0.233   4.599  0.0706  0.3435  0.6118
 2813SOL     OW11304   2.685   0.695   4.666 -0.2673  0.1775 -0.2709
 2813SOL    HW211305   2.704   0.780   4.627  0.2193  0.6061  0.8736
 2813SOL    HW311306   2.654   0.715   4.754 -0.3919 -0.8222 -0.0745
 2813SOL    MW411307   2.683   0.708   4.673 -0.2198  0.1022 -0.0944
 2814SOL     OW11308   2.924   0.548   4.571  0.5719  0.2983  0.0945
 2814SOL    HW211309   2.901   0.569   4.481 -1.2689 -1.1800  0.1821
 2814SOL    HW311310   2.854   0.587   4.623  1.8562  1.5172  0.9318
 2814SOL    MW411311   2.911   0.556   4.566  0.4985  0.2640  0.2165
 2815SOL     OW11312   3.752   1.305   4.503  0.1166 -0.0320 -0.6465
 2815SOL    HW211313   3.789   1.318   4.416  1.0761 -0.4001 -0.2994
 2815SOL    HW311314   3.820   1.260   4.552 -1.1580 -1.5936 -0.2687
 2815SOL    MW411315   3.766   1.301   4.498  0.0751 -0.2866 -0.5512
 2816SOL     OW11316   3.571   4.520   4.546  0.0348 -0.2002 -0.3845
 2816SOL    HW211317   3.574   4.564   4.461  1.0561  1.3130  0.4173
 2816SOL    HW311318   3.661   4.490   4.562  0.2611  1.1591  0.9942
 2816SOL    MW411319   3.583   4.522   4.537  0.1993  0.1783 -0.0968
 2817SOL     OW11320   0.005   2.724   4.608 -0.0173 -0.1147  0.0200
 2817SOL    HW211321   0.038   2.676   4.684  0.0748  0.4785  0.3544
 2817SOL    HW311322   0.012   2.661   4.536  0.7467 -0.3825  0.3168
 2817SOL    MW411323   0.010   2.709   4.609  0.0957 -0.0715  0.1035
 2818SOL     OW11324   2.549   0.828   4.881 -0.0948  0.1968  0.2392
 2818SOL    HW211325   2.496   0.855   4.955 -1.1371 -0.1574 -0.3703
 2818SOL    HW311326   2.531   0.893   4.813  0.3067  0.1211  0.0564
 2818SOL    MW411327   2.540   0.840   4.881 -0.1795  0.1401  0.1345
 2819SOL     OW11328   3.179   1.653   4.263 -0.4061  0.0117  0.5922
 2819SOL    HW211329   3.153   1.659   4.355  0.1879  1.0009  0.7062
 2819SOL    HW311330   3.162   1.740   4.228 -1.5663 -0.6363 -0.4950
 2819SOL    MW411331   3.174   1.665   4.270 -0.4811  0.0567  0.4640
 2820SOL     OW11332   3.109   1.630   4.552 -0.0287  0.1941  0.2544
 2820SOL    HW211333   3.075   1.719   4.557  0.2981  0.3122  0.4072
 2820SOL    HW311334   3.039   1.575   4.586  0.2999  0.5296  1.4918
 2820SOL    MW411335   3.095   1.634   4.557  0.0579  0.2540  0.4377
 2821SOL     OW11336   2.942   2.036   4.322  0.4368 -0.0962 -0.2071
 2821SOL    HW211337   2.851   2.024   4.350  0.5347 -0.7253 -0.1440
 2821SOL    HW311338   2.967   2.121   4.359 -0.5157  0.6820 -1.2976
 2821SOL    MW411339   2.933   2.046   4.331  0.3242 -0.0763 -0.3428
 2822SOL     OW11340   1.133   2.056   4.485 -0.1058  0.3962 -0.5497
 2822SOL    HW211341   1.060   2.103   4.526 -0.9329 -0.4956 -0.9830
 2822SOL    HW311342   1.204   2.062   4.548 -1.6005 -1.6493  1.4204
 2822SOL    MW411343   1.132   2.063   4.499 -0.4121  0.0086 -0.3471
 2823SOL     OW11344   2.959   2.873   4.492 -0.2802  0.2918 -0.3516
 2823SOL    HW211345   3.046   2.834   4.483 -0.2900  0.5447 -1.5667
 2823SOL    HW311346   2.915   2.817   4.555 -0.2895 -1.6737 -2.0677
 2823SOL    MW411347   2.965   2.861   4.499 -0.2828  0.0656 -0.7386
 2824SOL     OW11348   3.057   2.435   4.783 -0.1792 -0.2348  0.0184
 2824SOL    HW211349   3.134   2.481   4.818 -1.1373  0.9767  0.5953
 2824SOL    HW311350   3.091   2.382   4.711  0.7831  2.3148 -1.4513
 2824SOL    MW411351   3.072   2.434   4.778 -0.1788  0.2615 -0.0987
 2825SOL     OW11352   3.189   2.325   4.574  0.4253  0.1810 -0.1960
 2825SOL    HW211353   3.131   2.316   4.498 -0.0879  0.6467  0.1426
 2825SOL    HW311354   3.234   2.241   4.579  0.1165 -0.0212 -0.7368
 2825SOL    MW411355   3.187   2.313   4.564  0.3171  0.2155 -0.2227
 2826SOL     OW11356   3.589   3.238   4.220  0.1633 -0.1693 -0.0778
 2826SOL    HW211357   3.667   3.196   4.184 -0.0828 -0.2546 -0.5043
 2826SOL    HW311358   3.517   3.183   4.191  0.0605 -0.9453  1.5554
 2826SOL    MW411359   3.590   3.225   4.212  0.1173 -0.2830  0.0815
 2827SOL     OW11360   3.998   4.027   4.540  0.1708 -0.0745 -0.5137
 2827SOL    HW211361   3.912   4.048   4.576  0.1585 -0.9223 -0.0577
 2827SOL    HW311362   4.031   3.955   4.594  1.2921  0.4353 -0.4985
 2827SOL    MW411363   3.991   4.021   4.551  0.3169 -0.1192 -0.4511
 2828SOL     OW11364   4.294   2.896   4.512 -0.2122  0.9192 -0.2379
 2828SOL    HW211365   4.363   2.844   4.553  1.1019  2.1292 -0.8577
 2828SOL    HW311366   4.214   2.847   4.528  0.9533 -1.1314 -0.5537
 2828SOL    MW411367   4.293   2.883   4.519  0.1149  0.8085 -0.3614
 2829SOL     OW11368   4.080   2.994   4.734 -0.6371  0.4483 -0.3205
 2829SOL    HW211369   4.000   3.046   4.730 -0.6885  0.3212 -0.8880
 2829SOL    HW311370   4.147   3.051   4.697 -0.2696  0.9141  1.0169
 2829SOL    MW411371   4.078   3.008   4.729 -0.5951  0.4930 -0.2189
 2830SOL     OW11372   3.791   2.433   4.576 -0.3185  0.3833  0.0980
 2830SOL    HW211373   3.886   2.441   4.567 -0.3160 -0.0721 -0.3664
 2830SOL    HW311374   3.777   2.416   4.669  0.0212  0.8962  0.2435
 2830SOL    MW411375   3.802   2.432   4.587 -0.2735  0.3908  0.0558
 2831SOL     OW11376   3.117   0.024   4.469 -0.3960 -0.1237 -0.2750
 2831SOL    HW211377   3.039   0.063   4.508 -0.5407 -0.2766 -0.4098
 2831SOL    HW311378   3.125  -0.061   4.513  0.7769  0.6886  1.0973
 2831SOL    MW411379   3.108   0.018   4.480 -0.2604 -0.0367 -0.1116
 2832SOL     OW11380   3.854   3.394   4.593 -0.6108 -0.2097  0.2041
 2832SOL    HW211381   3.833   3.485   4.572 -0.0194 -0.3884 -1.2218
 2832SOL    HW311382   3.946   3.385   4.570 -0.4643 -0.9636  1.0764
 2832SOL    MW411383   3.863   3.405   4.587 -0.5136 -0.3326  0.1307
 2833SOL     OW11384   1.843   4.281   4.493 -0.0944 -0.2002 -0.6708
 2833SOL    HW211385   1.873   4.279   4.403  2.3229 -0.0952  0.0984
 2833SOL    HW311386   1.874   4.198   4.530  0.3836  0.4876  0.4949
 2833SOL    MW411387   1.851   4.270   4.486  0.2877 -0.0958 -0.4153
 2834SOL     OW11388   2.921   4.346   4.413 -0.1999 -0.4115 -0.2941
 2834SOL    HW211389   2.892   4.259   4.438  0.1288 -0.3229  0.4021
 2834SOL    HW311390   2.905   4.351   4.319  0.9350 -1.6616 -0.5599
 2834SOL    MW411391   2.915   4.335   4.404 -0.0067 -0.5655 -0.2370
 2835SOL     OW11392   2.490   3.708   4.499 -0.5092  0.1885 -0.0869
 2835SOL    HW211393   2.414   3.650   4.496  0.1929 -0.7404  0.0179
 2835SOL    HW311394   2.455   3.794   4.477 -1.3880 -0.4399 -1.2071
 2835SOL    MW411395   2.475   3.712   4.496 -0.5324 -0.0169 -0.2213
 2836SOL     OW11396   2.999   0.272   4.594 -0.1174 -0.1821 -0.3783
 2836SOL    HW211397   2.983   0.366   4.587  0.7375  0.0799  1.0712
 2836SOL    HW311398   3.090   0.264   4.624 -0.1372 -1.4743 -0.6009
 2836SOL    MW411399   3.009   0.283   4.597 -0.0072 -0.3181 -0.2160
 2837SOL     OW11400   3.650   0.877   4.207 -0.1750 -0.4775  0.1212
 2837SOL    HW211401   3.648   0.970   4.189 -1.5625 -0.0268  2.3875
 2837SOL    HW311402   3.564   0.844   4.179 -0.1771 -0.8340  0.5345
 2837SOL    MW411403   3.638   0.885   4.201 -0.3583 -0.4650  0.4745
 2838SOL     OW11404   2.910   1.414   4.547 -0.6274  0.0245 -0.4228
 2838SOL    HW211405   2.886   1.432   4.456 -0.1055 -2.2967 -1.0599
 2838SOL    HW311406   2.929   1.320   4.548  1.5234  0.4344  1.5985
 2838SOL    MW411407   2.910   1.404   4.535 -0.2749 -0.2277 -0.2398
 2839SOL     OW11408   3.653   0.857   4.481 -0.0479 -0.7089 -0.1797
 2839SOL    HW211409   3.742   0.884   4.506 -0.3175  0.3010 -0.2887
 2839SOL    HW311410   3.658   0.846   4.386 -0.2242  0.0746 -0.2823
 2839SOL    MW411411   3.666   0.860   4.472 -0.1066 -0.4723 -0.2074
 2840SOL     OW11412   4.060   2.458   4.515  0.0052  0.4411  0.3489
 2840SOL    HW211413   4.077   2.548   4.544  0.1336  0.0191  1.6462
 2840SOL    HW311414   4.052   2.464   4.420  0.6815  1.7188  0.3603
 2840SOL    MW411415   4.061   2.471   4.507  0.1111  0.5538  0.5217
 2841SOL     OW11416   4.454   1.299   4.611  0.2214  0.1476  0.1837
 2841SOL    HW211417   4.474   1.381   4.566  0.4251 -0.8646 -1.5990
 2841SOL    HW311418   4.527   1.241   4.590 -1.2781 -1.3952 -0.8570
 2841SOL    MW411419   4.466   1.303   4.603  0.0501 -0.1895 -0.1888
 2842SOL     OW11420   3.684   4.057   4.558  0.1244  0.0064  0.1677
 2842SOL    HW211421   3.622   3.985   4.568 -0.7875  0.8454  0.5827
 2842SOL    HW311422   3.652   4.107   4.484  1.7601 -1.0076 -1.2655
 2842SOL    MW411423   3.672   4.054   4.550  0.2201 -0.0167  0.0329
 2843SOL     OW11424   2.809   1.915   4.721  0.1902 -0.2986 -0.4520
 2843SOL    HW211425   2.783   2.007   4.727  1.7773  0.1499 -0.2736
 2843SOL    HW311426   2.726   1.867   4.716 -0.6610  1.0799  0.1894
 2843SOL    MW411427   2.794   1.921   4.721  0.2871 -0.0577 -0.3438
 2844SOL     OW11428   0.032   2.498   4.444 -0.1195  0.3936 -0.1451
 2844SOL    HW211429   0.116   2.451   4.451 -0.5407 -0.2503  0.7122
 2844SOL    HW311430   0.026   2.523   4.352  0.3463 -0.8133 -0.5132
 2844SOL    MW411431   0.042   2.495   4.433 -0.1136  0.1493 -0.0806
 2845SOL     OW11432   0.300   2.389   4.505  0.0981 -0.2645 -0.3067
 2845SOL    HW211433   0.360   2.402   4.432  0.3212 -1.6558 -0.3782
 2845SOL    HW311434   0.320   2.460   4.566  0.7712  0.1633 -1.0230
 2845SOL    MW411435   0.311   2.400   4.504  0.2163 -0.3917 -0.4110
 2846SOL     OW11436   4.285   1.702   4.617 -0.0945  0.2350  0.2574
 2846SOL    HW211437   4.215   1.694   4.553  1.6496 -1.8464 -1.4984
 2846SOL    HW311438   4.280   1.792   4.648 -0.9290  1.3292 -2.9150
 2846SOL    MW411439   4.275   1.713   4.613  0.0257  0.1048 -0.3929
 2847SOL     OW11440   4.456   2.240   4.538  0.3047 -0.3411 -0.7006
 2847SOL    HW211441   4.464   2.332   4.511 -0.6140 -0.6626 -2.1003
 2847SOL    HW311442   4.533   2.198   4.501 -0.5485 -0.6230 -2.1746
 2847SOL    MW411443   4.467   2.247   4.530  0.0710 -0.4206 -1.0800
 2848SOL     OW11444   0.188   1.962   4.635 -0.0635  0.6924  0.0915
 2848SOL    HW211445   0.199   1.968   4.730 -0.5337  0.8419  0.1368
 2848SOL    HW311446   0.206   1.871   4.615  1.4606  0.9746  0.1405
 2848SOL    MW411447   0.192   1.951   4.645  0.0755  0.7493  0.1040
 2849SOL     OW11448   3.556   1.965   4.593 -0.1393 -0.1710 -0.2855
 2849SOL    HW211449   3.561   1.871   4.577  0.8131 -0.1727  0.0378
 2849SOL    HW311450   3.462   1.985   4.586 -0.5959 -1.4943  1.6806
 2849SOL    MW411451   3.544   1.955   4.590 -0.0737 -0.3459  0.0162
 2850SOL     OW11452   2.669   2.071   4.449  0.6637 -0.4950  0.2198
 2850SOL    HW211453   2.681   2.104   4.538  1.0223 -1.6752  0.6202
 2850SOL    HW311454   2.636   1.982   4.460 -0.4215 -0.2473 -0.8390
 2850SOL    MW411455   2.666   2.063   4.462  0.5677 -0.6180  0.1326
 2851SOL     OW11456   0.303   3.271   4.459 -0.0450  0.1910  0.1703
 2851SOL    HW211457   0.342   3.328   4.526  0.4084 -1.1932  1.1252
 2851SOL    HW311458   0.209   3.279   4.473  0.0461 -0.0983  1.0080
 2851SOL    MW411459   0.296   3.279   4.470  0.0268 -0.0298  0.4072
 2852SOL     OW11460   3.642   3.048   4.616 -0.3059  0.0127 -0.1884
 2852SOL    HW211461   3.630   3.135   4.578 -0.8056  0.1468  0.2616
 2852SOL    HW311462   3.557   3.005   4.604 -0.0994 -0.3655 -0.2949
 2852SOL    MW411463   3.629   3.053   4.610 -0.3448 -0.0193 -0.1426
 2853SOL     OW11464   4.065   2.756   4.569  0.0923  0.3752  0.0443
 2853SOL    HW211465   3.981   2.774   4.525 -0.1843  1.2502  0.9040
 2853SOL    HW311466   4.060   2.807   4.650  1.1483 -0.1756  0.4560
 2853SOL    MW411467   4.053   2.765   4.574  0.1950  0.4179  0.2122
 2854SOL     OW11468   3.169   4.421   4.531 -0.3095 -0.0677 -0.1198
 2854SOL    HW211469   3.084   4.393   4.495  0.4479 -0.2235 -1.8340
 2854SOL    HW311470   3.205   4.341   4.569  0.0740 -0.5288 -1.4339
 2854SOL    MW411471   3.162   4.406   4.531 -0.1590 -0.1488 -0.5193
 2855SOL     OW11472   3.480   3.726   4.314  0.1306  0.1732 -0.3430
 2855SOL    HW211473   3.402   3.675   4.332 -0.2019  1.1122  0.9554
 2855SOL    HW311474   3.533   3.670   4.258  0.0192 -1.8353  1.4972
 2855SOL    MW411475   3.477   3.712   4.309  0.0718  0.0322  0.0720
 2856SOL     OW11476   0.457   3.428   4.647  0.0051  0.3518 -0.0501
 2856SOL    HW211477   0.548   3.398   4.644  0.1854  0.8588  0.1601
 2856SOL    HW311478   0.435   3.430   4.740 -0.1088  0.5513 -0.0792
 2856SOL    MW411479   0.466   3.425   4.659  0.0138  0.4449 -0.0262
 2857SOL     OW11480   3.937   0.921   4.558 -0.0629  0.2113  0.1920
 2857SOL    HW211481   4.011   0.900   4.501 -0.1013  0.5340  0.0263
 2857SOL    HW311482   3.961   1.003   4.600 -0.2790  0.2561  0.2259
 2857SOL    MW411483   3.950   0.929   4.556 -0.0963  0.2598  0.1745
 2858SOL     OW11484   3.799   3.670   4.553 -0.2568  0.1342  0.0690
 2858SOL    HW211485   3.721   3.723   4.570 -0.5172  0.1144 -1.0643
 2858SOL    HW311486   3.812   3.675   4.459  0.7451 -0.3882  0.1727
 2858SOL    MW411487   3.790   3.677   4.543 -0.1590  0.0627 -0.0668
 2859SOL     OW11488   1.878   4.569   4.318  0.1394  0.3767  0.0880
 2859SOL    HW211489   1.899   4.543   4.408  0.4597  1.1245  0.2361
 2859SOL    HW311490   1.789   4.603   4.322  0.5673  1.4809  0.3482
 2859SOL    MW411491   1.869   4.570   4.330  0.2381  0.6208  0.1416
 2860SOL     OW11492   2.213   0.602   4.471  0.2738  0.6655 -0.4031
 2860SOL    HW211493   2.296   0.556   4.484  0.1418  0.3730 -0.6060
 2860SOL    HW311494   2.232   0.693   4.497  0.1285  0.1832  1.4904
 2860SOL    MW411495   2.227   0.608   4.476  0.2372  0.5633 -0.1798
 2861SOL     OW11496   3.595   0.600   4.548 -0.2118  0.3642 -0.4729
 2861SOL    HW211497   3.616   0.692   4.527 -0.8819  0.4935 -0.5737
 2861SOL    HW311498   3.681   0.559   4.559  0.1011  0.9509 -0.6519
 2861SOL    MW411499   3.609   0.607   4.547 -0.2589  0.4587 -0.5097
 2862SOL     OW11500   4.191   0.914   4.442 -0.0813 -0.6291 -0.5651
 2862SOL    HW211501   4.239   0.833   4.458 -0.0329 -0.5688 -0.4048
 2862SOL    HW311502   4.158   0.905   4.353 -2.0093 -1.8235  0.2328
 2862SOL    MW411503   4.193   0.902   4.432 -0.3295 -0.7788 -0.4382
 2863SOL     OW11504   0.754   0.463   4.547 -0.1668  0.0230  0.0218
 2863SOL    HW211505   0.738   0.468   4.453 -0.4671  0.4556  0.0971
 2863SOL    HW311506   0.779   0.372   4.562 -0.5226 -0.1477 -0.4125
 2863SOL    MW411507   0.755   0.451   4.537 -0.2534  0.0575 -0.0257
 2864SOL     OW11508   4.063   0.101   4.238 -0.5505 -0.1218  0.0056
 2864SOL    HW211509   4.150   0.065   4.220  0.3075  0.5969  2.6514
 2864SOL    HW311510   4.067   0.191   4.206 -0.1828  0.0543  0.5543
 2864SOL    MW411511   4.075   0.108   4.231 -0.3886 -0.0037  0.4268
 2865SOL     OW11512   3.355   1.524   4.650  0.2306  0.0902 -0.1313
 2865SOL    HW211513   3.330   1.484   4.733  0.5383  0.0385 -0.0606
 2865SOL    HW311514   3.276   1.568   4.619  0.2428  0.4899  0.4059
 2865SOL    MW411515   3.342   1.524   4.657  0.2725  0.1363 -0.0510
 2866SOL     OW11516   0.424   1.315   4.612 -0.3304  0.0053  0.3294
 2866SOL    HW211517   0.514   1.285   4.602 -0.2108  0.8857 -1.4042
 2866SOL    HW311518   0.419   1.347   4.703  1.2079  0.3067  0.3191
 2866SOL    MW411519   0.435   1.315   4.623 -0.1117  0.1613  0.0992
 2867SOL     OW11520   0.231   2.122   4.208 -0.3046  0.1222  0.5835
 2867SOL    HW211521   0.280   2.127   4.290 -1.3638  0.1877  1.2263
 2867SOL    HW311522   0.283   2.065   4.152 -1.2904 -2.8854  2.5584
 2867SOL    MW411523   0.244   2.115   4.212 -0.5744 -0.2661  0.9294
 2868SOL     OW11524   4.038   1.707   4.483 -0.0906  0.6462 -0.3753
 2868SOL    HW211525   3.954   1.670   4.510  1.0352 -0.8088  1.2355
 2868SOL    HW311526   4.029   1.801   4.501 -0.4194  0.1411  2.4365
 2868SOL    MW411527   4.026   1.714   4.489  0.0143  0.3874  0.2079
 2869SOL     OW11528   3.609   2.577   4.425  0.2187  0.3021 -0.4922
 2869SOL    HW211529   3.669   2.525   4.477  0.5132  0.2295 -0.9035
 2869SOL    HW311530   3.522   2.556   4.460  0.3315 -0.4937 -0.6764
 2869SOL    MW411531   3.605   2.568   4.436  0.2723  0.1876 -0.5708
 2870SOL     OW11532   4.255   2.107   4.300  0.4115  0.1355  0.4432
 2870SOL    HW211533   4.173   2.067   4.274  0.0279  1.1879  0.0249
 2870SOL    HW311534   4.242   2.132   4.392  0.0745  0.7875  0.2181
 2870SOL    MW411535   4.243   2.105   4.309  0.3161  0.3607  0.3581
 2871SOL     OW11536   0.690   3.102   4.605  0.2187  0.2890 -0.1313
 2871SOL    HW211537   0.603   3.082   4.570  0.0820  1.4688 -0.4852
 2871SOL    HW311538   0.693   3.197   4.607  0.8779  0.2457  1.4599
 2871SOL    MW411539   0.679   3.112   4.601  0.2877  0.4392  0.0315
 2872SOL     OW11540   4.030   2.451   4.240 -0.5409 -0.1820 -0.0517
 2872SOL    HW211541   4.043   2.541   4.209  0.9218 -0.3411  0.0633
 2872SOL    HW311542   3.948   2.423   4.199  0.1455  0.4193 -1.8841
 2872SOL    MW411543   4.021   2.459   4.231 -0.2570 -0.1235 -0.2785
 2873SOL     OW11544   3.780   2.110   4.511 -0.1952  0.1908 -0.1616
 2873SOL    HW211545   3.771   2.204   4.527  0.3735  0.4417 -1.2542
 2873SOL    HW311546   3.699   2.072   4.544  0.2449  0.8785  1.7262
 2873SOL    MW411547   3.768   2.118   4.517 -0.0622  0.3145 -0.0572
 2874SOL     OW11548   0.147   2.592   4.828  0.4180  0.0107 -0.0550
 2874SOL    HW211549   0.236   2.609   4.797  1.1012 -2.7717  0.2735
 2874SOL    HW311550   0.146   2.628   4.916  1.6682 -1.1618  0.4579
 2874SOL    MW411551   0.159   2.599   4.835  0.6731 -0.5109  0.0563
 2875SOL     OW11552   1.027   3.288   4.549  0.5141  0.3039 -0.4492
 2875SOL    HW211553   1.106   3.260   4.595  0.5433  0.1369 -0.6021
 2875SOL    HW311554   1.046   3.377   4.520  1.1695 -0.2411 -1.7026
 2875SOL    MW411555   1.040   3.296   4.551  0.6044  0.2100 -0.6351
 2876SOL     OW11556   0.048   3.600   4.502  0.1529  0.3954 -0.2143
 2876SOL    HW211557  -0.041   3.612   4.536 -0.0017  1.1773 -0.8821
 2876SOL    HW311558   0.087   3.687   4.505  0.3893  0.3274 -1.3333
 2876SOL    MW411559   0.041   3.613   4.507  0.1637  0.4892 -0.4501
 2877SOL     OW11560   0.377   4.530   4.607 -0.6231 -0.4357 -0.1392
 2877SOL    HW211561   0.410   4.617   4.588 -0.5562 -0.6635 -1.0824
 2877SOL    HW311562   0.452   4.472   4.594 -0.3812 -0.5264  1.5309
 2877SOL    MW411563   0.391   4.534   4.603 -0.5824 -0.4778 -0.0429
 2878SOL     OW11564   3.572   4.138   4.159  0.1140  0.2839 -0.7420
 2878SOL    HW211565   3.571   4.196   4.235  0.6189 -0.5617 -0.0786
 2878SOL    HW311566   3.502   4.075   4.176 -0.6626  0.8984 -1.6244
 2878SOL    MW411567   3.563   4.137   4.172  0.0782  0.2537 -0.7715
 2879SOL     OW11568   3.323   4.080   4.525 -0.1915  0.0273  0.3697
 2879SOL    HW211569   3.377   4.025   4.581 -0.3166 -0.7218 -0.2328
 2879SOL    HW311570   3.236   4.040   4.527 -0.4105  0.4934  0.3332
 2879SOL    MW411571   3.319   4.067   4.533 -0.2372 -0.0100  0.2847
 2880SOL     OW11572   3.593   3.273   4.497  0.1609 -0.6328  0.0657
 2880SOL    HW211573   3.602   3.238   4.408  0.7747  2.4447 -1.1500
 2880SOL    HW311574   3.677   3.315   4.514 -0.6699  0.5382  1.3360
 2880SOL    MW411575   3.605   3.274   4.487  0.1323 -0.0722  0.0725
 2881SOL     OW11576   3.182   4.324   4.119  0.5897 -0.2648 -0.2269
 2881SOL    HW211577   3.145   4.253   4.171  0.5239  1.1074  1.6130
 2881SOL    HW311578   3.241   4.369   4.178 -1.0385  2.5789 -0.6815
 2881SOL    MW411579   3.185   4.320   4.133  0.3662  0.2913 -0.0443
 2882SOL     OW11580   4.288   4.390   4.343 -0.7472  0.0947 -0.3867
 2882SOL    HW211581   4.350   4.329   4.303  0.3166  0.9022 -0.0074
 2882SOL    HW311582   4.235   4.337   4.402 -0.2121 -0.5480 -0.4853
 2882SOL    MW411583   4.289   4.375   4.345 -0.5360  0.1168 -0.3490
 2883NA      NA11584   2.706   3.226   0.473  0.0935 -0.1401  0.0886
   4.49070   4.66690  10.00000
