Gromacs Runs On Most of All Computer Systems in water t= 90000.00000 step= 90000000
11584
    1RU5    O5'    1   2.625   2.115   4.634 -0.1329  0.1096 -0.3810
    1RU5    H5T    2   2.651   2.168   4.710 -0.2613  0.7915 -0.8101
    1RU5    C5'    3   2.696   2.158   4.524  0.4543 -0.0535 -1.1046
    1RU5   H5'1    4   2.678   2.087   4.443 -1.1486  0.2058 -0.9931
    1RU5   H5'2    5   2.800   2.167   4.555  0.3335 -0.4483 -0.5884
    1RU5    C4'    6   2.642   2.292   4.482 -0.3127  0.3526 -0.2268
    1RU5    H4'    7   2.682   2.316   4.384  3.0411 -3.4103  0.0760
    1RU5    O4'    8   2.504   2.288   4.476  0.0598 -0.0103  0.2858
    1RU5    C1'    9   2.463   2.422   4.471 -0.6634  0.3521  0.0359
    1RU5    H1'   10   2.459   2.459   4.368  2.8534  0.3330 -0.1872
    1RU5     N1   11   2.333   2.446   4.535 -0.1499  0.4357  0.4232
    1RU5     C6   12   2.262   2.340   4.592  0.2372  0.3209  0.0417
    1RU5     H6   13   2.307   2.242   4.596 -1.3610 -0.4848 -1.3259
    1RU5     C5   14   2.137   2.365   4.631  0.3547  0.2787  0.2507
    1RU5     H5   15   2.079   2.288   4.680 -1.9780  1.3101 -0.7795
    1RU5     C4   16   2.077   2.493   4.624 -0.2338  0.3808 -0.3553
    1RU5     O4   17   1.973   2.525   4.681  0.0969 -0.0073 -0.9080
    1RU5     N3   18   2.144   2.584   4.555 -0.3397 -0.1810  0.6229
    1RU5     H3   19   2.098   2.672   4.537 -1.2223 -0.6805  0.4060
    1RU5     C2   20   2.271   2.564   4.508  1.2592  0.2825  0.0936
    1RU5     O2   21   2.319   2.663   4.452  0.1548  0.0374  0.1968
    1RU5    C3'   22   2.672   2.400   4.584  0.0997  0.3263 -0.1965
    1RU5    H3'   23   2.642   2.368   4.684  1.5347 -1.9636 -0.4532
    1RU5    C2'   24   2.574   2.504   4.532  0.4072 -0.3620 -0.4115
    1RU5   H2'1   25   2.532   2.566   4.611  2.4370  1.8397 -0.9908
    1RU5    O2'   26   2.618   2.593   4.427  0.0155 -0.2220 -0.0382
    1RU5   HO'2   27   2.674   2.542   4.368 -0.4539 -2.0566  1.0815
    1RU5    O3'   28   2.808   2.437   4.580  0.2608 -0.2567  0.3901
    2RG3      P   29   2.879   2.484   4.709  0.1846  0.1103 -0.4338
    2RG3    O1P   30   3.019   2.514   4.667 -0.1696  0.1185 -0.1793
    2RG3    O2P   31   2.848   2.382   4.812 -0.1680 -0.2162  0.0342
    2RG3    O5'   32   2.804   2.618   4.749  0.5556 -0.4353  0.8365
    2RG3    C5'   33   2.840   2.741   4.699 -0.7245  0.4638  0.2990
    2RG3   H5'1   34   2.841   2.735   4.590  0.8773  0.1128  0.3243
    2RG3   H5'2   35   2.943   2.761   4.730  0.4990 -1.4266 -2.2986
    2RG3    C4'   36   2.753   2.860   4.740 -0.3031 -0.3264 -0.7440
    2RG3    H4'   37   2.797   2.951   4.699  0.5112 -1.1734 -1.7943
    2RG3    O4'   38   2.628   2.849   4.680 -0.0985 -0.4153 -0.1221
    2RG3    C1'   39   2.530   2.897   4.767  0.0560 -0.3353  0.1720
    2RG3    H1'   40   2.474   2.969   4.707  0.0983 -1.1075 -0.8072
    2RG3     N9   41   2.443   2.788   4.812  0.2595 -0.9220  0.5376
    2RG3     C8   42   2.472   2.658   4.847 -0.1543 -0.1753 -0.4952
    2RG3     H8   43   2.572   2.619   4.838 -0.4582 -0.7697 -1.4191
    2RG3     N7   44   2.370   2.593   4.893  0.0377  0.0425 -0.1421
    2RG3     C5   45   2.263   2.683   4.889  0.2116  0.0788 -0.2716
    2RG3     C6   46   2.123   2.670   4.923  0.4720 -0.3751 -0.6070
    2RG3     O6   47   2.066   2.581   4.985 -0.0710 -0.0480  0.6416
    2RG3     N1   48   2.053   2.783   4.890  0.3233 -0.5531  0.3703
    2RG3     H1   49   1.957   2.792   4.922 -0.5665 -2.0355 -1.7461
    2RG3     C2   50   2.110   2.894   4.850  0.6116  0.7401  0.3722
    2RG3     N2   51   2.033   2.998   4.846  0.4931  0.1740 -0.2657
    2RG3    H21   52   1.936   2.983   4.869  0.8838 -1.2824  0.4695
    2RG3    H22   53   2.053   3.080   4.789  1.3540 -0.0300 -0.2728
    2RG3     N3   54   2.234   2.911   4.815 -0.1415  0.0744 -0.1377
    2RG3     C4   55   2.310   2.800   4.838 -0.3363  0.0832  0.0952
    2RG3    C3'   56   2.731   2.870   4.890 -0.2099 -0.4114  0.1914
    2RG3    H3'   57   2.711   2.770   4.930 -0.7271 -0.8136 -1.0594
    2RG3    C2'   58   2.607   2.959   4.884 -0.3998  0.2046  0.0116
    2RG3   H2'1   59   2.553   2.950   4.979  1.1810  0.9042  1.0128
    2RG3    O2'   60   2.644   3.091   4.871  0.2318 -0.0739  0.5818
    2RG3   HO'2   61   2.730   3.095   4.914  0.6269  0.8265 -0.2642
    2RG3    O3'   62   2.840   2.926   4.956 -0.4429  0.6238  0.3678
    2RG3    H3T   63   2.916   2.870   4.937 -1.0640 -0.1459  0.0988
    3SOL     OW   64   4.166   4.370   0.433 -0.4089 -0.0337 -0.0262
    3SOL    HW2   65   4.088   4.417   0.404 -1.3432 -1.3113  0.3445
    3SOL    HW3   66   4.180   4.400   0.523 -0.2936  0.4262 -0.1982
    3SOL    MW4   67   4.157   4.380   0.441 -0.5169 -0.1421  0.0000
    4SOL     OW   68   3.097   3.891   0.633 -0.1014  0.3892 -0.2694
    4SOL    HW2   69   3.179   3.907   0.681  0.7152 -2.3582 -0.6731
    4SOL    HW3   70   3.032   3.877   0.702  0.1440  0.7574  0.0454
    4SOL    MW4   71   3.100   3.891   0.649  0.0389  0.0753 -0.2811
    5SOL     OW   72   1.561   2.313   0.871  0.1114 -0.0029  0.3974
    5SOL    HW2   73   1.574   2.239   0.812 -1.7265 -0.8500  0.9923
    5SOL    HW3   74   1.475   2.347   0.847  0.0992  0.7082  1.4366
    5SOL    MW4   75   1.551   2.308   0.860 -0.1328 -0.0207  0.6130
    6SOL     OW   76   1.125   4.443   0.512 -0.0211 -0.3035 -0.1922
    6SOL    HW2   77   1.062   4.398   0.456  0.8056 -1.0626 -0.5233
    6SOL    HW3   78   1.137   4.528   0.469  0.5217 -0.8333 -1.1186
    6SOL    MW4   79   1.118   4.448   0.499  0.1597 -0.4735 -0.3581
    7SOL     OW   80   3.109   0.878   0.770 -0.0337 -0.4472 -0.0040
    7SOL    HW2   81   3.104   0.881   0.675  0.2741 -0.3169 -0.0174
    7SOL    HW3   82   3.036   0.823   0.797  0.0554 -0.7249 -0.3345
    7SOL    MW4   83   3.099   0.871   0.761  0.0186 -0.4666 -0.0493
    8SOL     OW   84   1.525   4.660   0.899  0.0534 -0.1782 -0.3577
    8SOL    HW2   85   1.509   4.653   0.993  1.4948  1.7096  0.0570
    8SOL    HW3   86   1.443   4.693   0.863 -0.0621  0.4206  0.4424
    8SOL    MW4   87   1.512   4.663   0.907  0.2283  0.1497 -0.1975
    9SOL     OW   88   0.623   1.224   0.494  0.2532  0.0609 -0.4935
    9SOL    HW2   89   0.532   1.240   0.471  0.3665  1.5184  0.0078
    9SOL    HW3   90   0.670   1.301   0.463  0.9643  0.3550  1.2169
    9SOL    MW4   91   0.617   1.236   0.487  0.3620  0.2919 -0.2017
   10SOL     OW   92   1.429   1.380   0.412 -0.0215 -0.0103 -0.1242
   10SOL    HW2   93   1.402   1.379   0.320 -0.3795  1.6351 -0.0565
   10SOL    HW3   94   1.480   1.300   0.423 -0.2588 -0.3908 -1.6746
   10SOL    MW4   95   1.432   1.370   0.401 -0.1000  0.1566 -0.3198
   11SOL     OW   96   3.426   3.121   0.881 -0.0938 -0.0125  0.1149
   11SOL    HW2   97   3.426   3.038   0.834 -1.7167  0.5858 -0.9937
   11SOL    HW3   98   3.421   3.097   0.973 -0.6172 -1.1439 -0.2041
   11SOL    MW4   99   3.425   3.107   0.887 -0.3772 -0.0830 -0.0734
   12SOL     OW  100   1.710   1.776   0.434  0.4283 -0.4392 -0.0785
   12SOL    HW2  101   1.630   1.722   0.434 -0.3370  0.6813 -0.5531
   12SOL    HW3  102   1.680   1.862   0.464  1.1338  0.4597 -1.9341
   12SOL    MW4  103   1.695   1.780   0.438  0.4203 -0.1727 -0.3859
   13SOL     OW  104   1.350   4.336   0.393  0.0674 -0.1110 -0.1765
   13SOL    HW2  105   1.357   4.414   0.338 -1.1486 -0.3710 -0.7192
   13SOL    HW3  106   1.272   4.353   0.447 -0.1387 -0.9021 -0.2277
   13SOL    MW4  107   1.340   4.349   0.393 -0.1202 -0.2494 -0.2548
   14SOL     OW  108   3.412   2.093   0.495  0.2494 -0.4334  0.1723
   14SOL    HW2  109   3.403   2.013   0.442  0.2387 -0.4414  0.1857
   14SOL    HW3  110   3.401   2.063   0.585 -2.0167 -0.0716  0.0469
   14SOL    MW4  111   3.409   2.078   0.500 -0.0508 -0.3870  0.1575
   15SOL     OW  112   3.196   2.435   0.813  0.1216  0.3076 -0.4983
   15SOL    HW2  113   3.271   2.375   0.816  0.4162  0.7013 -0.0044
   15SOL    HW3  114   3.120   2.377   0.816  0.3945 -0.1054 -1.1753
   15SOL    MW4  115   3.196   2.419   0.814  0.1965  0.3049 -0.5225
   16SOL     OW  116   0.223   2.046   0.752  0.4138 -0.0849 -0.3810
   16SOL    HW2  117   0.221   2.127   0.802  0.7940  0.2514 -0.9107
   16SOL    HW3  118   0.151   1.994   0.788  0.1672  0.4830 -0.0461
   16SOL    MW4  119   0.213   2.049   0.763  0.4314  0.0343 -0.4066
   17SOL     OW  120   3.099   0.142   0.453 -0.0857  0.6363  0.2335
   17SOL    HW2  121   3.163   0.071   0.453 -1.2618 -0.4546  1.2453
   17SOL    HW3  122   3.017   0.100   0.427 -1.0148  1.3788  1.8654
   17SOL    MW4  123   3.096   0.127   0.450 -0.3636  0.5904  0.5823
   18SOL     OW  124   1.625   2.044   0.471  0.3738  0.6130 -0.3191
   18SOL    HW2  125   1.607   2.048   0.565 -0.2074  0.5212 -0.4246
   18SOL    HW3  126   1.704   2.096   0.460 -0.7004  2.3562 -0.0542
   18SOL    MW4  127   1.633   2.052   0.482  0.1553  0.8309 -0.2981
   19SOL     OW  128   0.863   0.342   0.878 -0.0415  0.4289  0.1811
   19SOL    HW2  129   0.860   0.370   0.970  1.1404  0.4267  0.2285
   19SOL    HW3  130   0.943   0.381   0.844 -0.1402 -0.1134 -0.6768
   19SOL    MW4  131   0.873   0.351   0.886  0.1014  0.3571  0.0742
   20SOL     OW  132   1.579   3.961   0.364  0.2078  0.0902  0.2651
   20SOL    HW2  133   1.491   3.992   0.386  0.6000  1.1152  0.4002
   20SOL    HW3  134   1.588   3.976   0.270  1.0337  1.9998  0.6394
   20SOL    MW4  135   1.569   3.967   0.355  0.3685  0.4773  0.3323
   21SOL     OW  136   3.847   3.085   0.859 -0.4740  0.1123  0.2049
   21SOL    HW2  137   3.774   3.142   0.834 -0.7036 -1.0917 -1.9729
   21SOL    HW3  138   3.922   3.121   0.811 -0.2736 -0.4518  0.1000
   21SOL    MW4  139   3.847   3.097   0.849 -0.4778 -0.1211 -0.0963
   22SOL     OW  140   3.293   4.615   0.532  0.3746 -0.0375  0.1800
   22SOL    HW2  141   3.384   4.636   0.510 -0.2128  2.2200 -0.1715
   22SOL    HW3  142   3.286   4.632   0.626  0.4140 -0.6305  0.2942
   22SOL    MW4  143   3.304   4.620   0.541  0.3021  0.1822  0.1486
   23SOL     OW  144   3.027   1.321   0.486 -0.7439  0.0214  0.3035
   23SOL    HW2  145   2.994   1.245   0.436  0.3537 -1.9980  2.5497
   23SOL    HW3  146   3.110   1.344   0.443 -0.2636 -1.1236  0.5959
   23SOL    MW4  147   3.034   1.314   0.474 -0.5357 -0.3961  0.6384
   24SOL     OW  148   0.709   2.087   0.538  0.1725 -0.2666  0.2868
   24SOL    HW2  149   0.729   1.995   0.521 -1.6118 -0.7685  0.7988
   24SOL    HW3  150   0.688   2.090   0.632  0.4949  0.7256  0.3417
   24SOL    MW4  151   0.709   2.076   0.548 -0.0203 -0.2019  0.3616
   25SOL     OW  152   4.352   0.113   0.376 -0.2352  0.0847 -0.0977
   25SOL    HW2  153   4.429   0.164   0.399 -0.3261  0.1497  0.0596
   25SOL    HW3  154   4.375   0.023   0.401  0.3338 -0.1278 -1.3387
   25SOL    MW4  155   4.365   0.108   0.382 -0.1717  0.0652 -0.2407
   26SOL     OW  156   2.511   3.406   0.538 -0.1574 -0.0794 -0.0057
   26SOL    HW2  157   2.484   3.458   0.462  0.2939  0.9527  0.5181
   26SOL    HW3  158   2.492   3.316   0.514  1.4163  0.0691 -1.9920
   26SOL    MW4  159   2.505   3.401   0.525  0.1097  0.0763 -0.1985
   27SOL     OW  160   2.202   3.914   0.506  0.2035  0.0186  0.5428
   27SOL    HW2  161   2.237   3.921   0.595  0.3108 -0.5325  0.5479
   27SOL    HW3  162   2.147   3.836   0.509  0.7318 -0.3785 -0.0471
   27SOL    MW4  163   2.199   3.905   0.518  0.2871 -0.1066  0.4656
   28SOL     OW  164   0.893   4.005   0.724 -0.3952  0.6070 -0.0652
   28SOL    HW2  165   0.905   4.088   0.770 -1.4920 -0.4907  2.2825
   28SOL    HW3  166   0.971   3.954   0.746 -0.8999  0.0976  0.5661
   28SOL    MW4  167   0.905   4.010   0.733 -0.6065  0.3953  0.3278
   29SOL     OW  168   0.575   2.053   0.191  0.3625  0.1636  0.3138
   29SOL    HW2  169   0.582   2.044   0.096 -1.6242 -0.0553  0.1593
   29SOL    HW3  170   0.526   1.975   0.218 -0.0078  0.7547  1.3748
   29SOL    MW4  171   0.569   2.041   0.182  0.0514  0.2127  0.4334
   30SOL     OW  172   0.209   1.703   0.160 -0.3615  0.3967 -0.1995
   30SOL    HW2  173   0.141   1.766   0.182 -0.6832  0.0659 -0.2464
   30SOL    HW3  174   0.164   1.618   0.159  0.2723  0.0325  0.8938
   30SOL    MW4  175   0.194   1.700   0.163 -0.3203  0.3051 -0.0615
   31SOL     OW  176   0.180   3.886   0.374 -0.2999  0.7788  0.2388
   31SOL    HW2  177   0.155   3.797   0.400  1.1815  0.2271 -0.1496
   31SOL    HW3  178   0.246   3.873   0.306  0.3423  2.1699  0.5854
   31SOL    MW4  179   0.186   3.873   0.369 -0.0198  0.8895  0.2333
   32SOL     OW  180   0.207   0.781   0.881  0.2800 -0.0705  0.4434
   32SOL    HW2  181   0.197   0.694   0.841  1.6900 -0.1975  0.3668
   32SOL    HW3  182   0.215   0.763   0.975  0.3443  0.0005  0.4510
   32SOL    MW4  183   0.207   0.767   0.888  0.4745 -0.0778  0.4343
   33SOL     OW  184   0.628   3.125   0.399 -0.3194  0.1038 -0.3515
   33SOL    HW2  185   0.604   3.033   0.394  1.7920 -0.4951  0.0045
   33SOL    HW3  186   0.553   3.167   0.442 -1.4958 -1.3490 -0.9522
   33SOL    MW4  187   0.615   3.119   0.404 -0.1961 -0.1671 -0.3838
   34SOL     OW  188   2.112   1.702   0.510  0.0583 -0.0677  0.0410
   34SOL    HW2  189   2.138   1.787   0.546  1.7176 -0.4360 -0.2692
   34SOL    HW3  190   2.191   1.649   0.513 -0.7642 -1.3540 -0.5333
   34SOL    MW4  191   2.126   1.706   0.516  0.1688 -0.2860 -0.0757
   35SOL     OW  192   3.226   3.616   0.589  0.0726 -0.5341  0.2503
   35SOL    HW2  193   3.192   3.554   0.654 -0.3696 -1.0530 -0.4685
   35SOL    HW3  194   3.188   3.700   0.614 -2.9992 -1.3464 -1.3945
   35SOL    MW4  195   3.217   3.619   0.601 -0.3912 -0.7098 -0.0615
   36SOL     OW  196   3.269   4.348   0.475  0.4240 -0.1538  0.3836
   36SOL    HW2  197   3.273   4.440   0.504  1.0926  0.0593 -0.3869
   36SOL    HW3  198   3.287   4.298   0.555 -2.7111  0.2783  1.4457
   36SOL    MW4  199   3.272   4.354   0.490  0.0987 -0.0691  0.4220
   37SOL     OW  200   1.811   2.445   0.773  0.2404 -0.2744  0.0921
   37SOL    HW2  201   1.722   2.413   0.790 -0.4914  1.8179  0.3814
   37SOL    HW3  202   1.816   2.453   0.678 -0.5559  1.4203  0.1836
   37SOL    MW4  203   1.800   2.441   0.763  0.0387  0.2253  0.1422
   38SOL     OW  204   3.994   2.715   0.314 -0.0482 -0.2943 -0.3215
   38SOL    HW2  205   4.004   2.622   0.333  0.3333 -0.3584 -0.8522
   38SOL    HW3  206   4.079   2.743   0.282  0.3362  0.6198  1.4138
   38SOL    MW4  207   4.006   2.707   0.312  0.0525 -0.1824 -0.1626
   39SOL     OW  208   2.739   1.936   0.368 -0.6670 -0.0380 -0.0361
   39SOL    HW2  209   2.835   1.944   0.370 -0.6158 -0.1559 -1.5032
   39SOL    HW3  210   2.708   2.020   0.399 -0.0821  0.1634  0.0176
   39SOL    MW4  211   2.748   1.948   0.372 -0.5829 -0.0269 -0.2226
   40SOL     OW  212   3.186   3.070   0.511  0.2561 -0.2768  0.6131
   40SOL    HW2  213   3.262   3.016   0.487  1.0277  0.0850  2.1554
   40SOL    HW3  214   3.198   3.150   0.460 -0.1283 -0.9893 -0.6066
   40SOL    MW4  215   3.198   3.074   0.501  0.3071 -0.3231  0.6557
   41SOL     OW  216   4.239   3.120   0.871 -0.2287 -0.0466 -0.1738
   41SOL    HW2  217   4.319   3.146   0.824 -0.7793  0.5777 -0.7762
   41SOL    HW3  218   4.223   3.030   0.844  1.1288 -0.7037  1.1394
   41SOL    MW4  219   4.248   3.112   0.861 -0.1225 -0.0508 -0.0800
   42SOL     OW  220   0.425   2.724   0.816  0.3503 -0.5768  0.2187
   42SOL    HW2  221   0.411   2.631   0.800  0.3970 -1.0077  2.4944
   42SOL    HW3  222   0.351   2.767   0.772  1.1326 -1.5444 -2.1028
   42SOL    MW4  223   0.413   2.718   0.808  0.4596 -0.7613  0.2126
   43SOL     OW  224   0.129   0.806   0.485 -0.2628  0.1543  0.5010
   43SOL    HW2  225   0.205   0.861   0.464  0.0122 -0.4593 -0.1234
   43SOL    HW3  226   0.093   0.845   0.565 -0.4498  1.6405 -0.2781
   43SOL    MW4  227   0.135   0.819   0.492 -0.2512  0.2694  0.3158
   44SOL     OW  228   2.510   2.852   0.473 -0.0220  0.1947  0.1249
   44SOL    HW2  229   2.558   2.794   0.413 -0.8991  0.4470 -0.8291
   44SOL    HW3  230   2.424   2.811   0.482  0.2467 -0.0931  1.5963
   44SOL    MW4  231   2.505   2.839   0.466 -0.1023  0.1898  0.1932
   45SOL     OW  232   2.311   1.667   0.795 -0.4778  0.1117 -0.0444
   45SOL    HW2  233   2.319   1.643   0.703 -0.1939 -0.4389  0.1192
   45SOL    HW3  234   2.367   1.604   0.841 -0.6720  0.3403  0.5090
   45SOL    MW4  235   2.320   1.655   0.789 -0.4661  0.0693  0.0502
   46SOL     OW  236   1.547   4.381   0.845 -0.2821  0.3220 -0.2351
   46SOL    HW2  237   1.542   4.474   0.867  1.2249  0.6495 -1.1861
   46SOL    HW3  238   1.639   4.358   0.857 -1.0211 -1.6316  2.1546
   46SOL    MW4  239   1.558   4.390   0.849 -0.1806  0.1078 -0.0452
   47SOL     OW  240   1.112   0.463   0.811 -0.2621  0.3626  0.0190
   47SOL    HW2  241   1.113   0.552   0.848  0.2578  0.5014 -0.3202
   47SOL    HW3  242   1.198   0.428   0.831  0.6880  1.0874 -2.5932
   47SOL    MW4  243   1.123   0.470   0.818 -0.0682  0.4765 -0.3704
   48SOL     OW  244   0.161   3.611   0.501 -0.1485  0.1536 -0.5955
   48SOL    HW2  245   0.172   3.609   0.596  2.0493 -0.5421 -0.8271
   48SOL    HW3  246   0.067   3.599   0.487 -0.4392 -0.1339  1.4670
   48SOL    MW4  247   0.150   3.609   0.512  0.1031  0.0241 -0.3539
   49SOL     OW  248   3.783   0.449   0.573 -0.2236  0.3469 -0.0332
   49SOL    HW2  249   3.843   0.387   0.531 -0.2267  1.1869 -1.3130
   49SOL    HW3  250   3.696   0.413   0.555 -0.2086  0.5072 -0.4423
   49SOL    MW4  251   3.779   0.436   0.565 -0.2222  0.4789 -0.2561
   50SOL     OW  252   4.032   1.911   0.807 -0.0097  0.0861 -0.3527
   50SOL    HW2  253   4.007   1.822   0.783  1.8820 -0.6664  0.3951
   50SOL    HW3  254   3.964   1.966   0.767 -1.5227 -1.7063 -0.3473
   50SOL    MW4  255   4.020   1.907   0.799  0.0405 -0.2496 -0.2533
   51SOL     OW  256   4.320   2.082   0.387  0.2632  0.2606 -0.1121
   51SOL    HW2  257   4.318   2.176   0.400  0.6990  0.3054 -0.3565
   51SOL    HW3  258   4.230   2.059   0.366 -0.0467  0.4651  1.0031
   51SOL    MW4  259   4.308   2.091   0.386  0.2794  0.2937  0.0028
   52SOL     OW  260   1.415   3.231   0.761  0.3521  0.3484 -0.1435
   52SOL    HW2  261   1.487   3.173   0.788 -0.4646 -1.2108 -1.2288
   52SOL    HW3  262   1.405   3.214   0.667 -1.4605  0.5192  0.0033
   52SOL    MW4  263   1.423   3.221   0.752  0.0052  0.1650 -0.2673
   53SOL     OW  264   1.318   2.435   0.762  0.4313  0.1234 -0.2794
   53SOL    HW2  265   1.234   2.403   0.795  0.7327 -0.7346 -0.3212
   53SOL    HW3  266   1.315   2.417   0.668 -0.1341  1.9082 -0.6218
   53SOL    MW4  267   1.306   2.428   0.754  0.3963  0.2458 -0.3300
   54SOL     OW  268   2.058   0.877   0.343  0.0622 -0.3744  0.1739
   54SOL    HW2  269   1.963   0.880   0.355  0.1248  0.6189  0.4706
   54SOL    HW3  270   2.070   0.854   0.251 -0.4596 -1.0237  0.2633
   54SOL    MW4  271   2.047   0.874   0.332  0.0014 -0.3290  0.2249
   55SOL     OW  272   3.623   2.412   0.711 -0.1812  0.2615 -0.5554
   55SOL    HW2  273   3.556   2.360   0.755  0.7712 -0.4070  0.1225
   55SOL    HW3  274   3.616   2.499   0.751 -0.1409 -0.0077  0.0398
   55SOL    MW4  275   3.613   2.417   0.722 -0.0503  0.1378 -0.3874
   56SOL     OW  276   2.500   4.516   0.203  0.2124  0.0010 -0.1752
   56SOL    HW2  277   2.522   4.606   0.180  0.4076 -0.1068 -0.4228
   56SOL    HW3  278   2.581   4.481   0.242  0.7311 -0.6219 -1.7537
   56SOL    MW4  279   2.514   4.523   0.205  0.3066 -0.0954 -0.4161
   57SOL     OW  280   3.959   1.657   0.719  0.0568 -0.1046 -0.0303
   57SOL    HW2  281   3.891   1.615   0.773  0.8132 -0.4686  0.6563
   57SOL    HW3  282   4.039   1.610   0.741  0.3396 -0.4311 -1.6863
   57SOL    MW4  283   3.960   1.645   0.729  0.1941 -0.1957 -0.1582
   58SOL     OW  284   0.744   1.462   0.421  0.1496 -0.4285 -0.0177
   58SOL    HW2  285   0.686   1.537   0.408  0.7740  0.1082  0.3065
   58SOL    HW3  286   0.832   1.499   0.426  0.3155 -1.0160  1.7276
   58SOL    MW4  287   0.748   1.477   0.420  0.2539 -0.4351  0.2554
   59SOL     OW  288   3.090   1.750   0.589 -0.3616 -0.1183  0.4482
   59SOL    HW2  289   3.073   1.811   0.518 -0.4429  0.9688  1.3834
   59SOL    HW3  290   3.046   1.789   0.665 -1.7968 -2.1337  0.7076
   59SOL    MW4  291   3.082   1.763   0.590 -0.5617 -0.2407  0.6058
   60SOL     OW  292   4.360   2.866   0.530  0.0837  0.3144  0.1782
   60SOL    HW2  293   4.368   2.961   0.528  0.4619  0.2739 -0.1757
   60SOL    HW3  294   4.319   2.844   0.447  0.2001  0.1455  0.1671
   60SOL    MW4  295   4.356   2.876   0.519  0.1483  0.2868  0.1301
   61SOL     OW  296   4.282   2.815   0.793 -0.2431 -0.5270 -0.2758
   61SOL    HW2  297   4.301   2.834   0.701  1.5331  0.8966  0.3429
   61SOL    HW3  298   4.358   2.765   0.823 -0.0325  0.4445  0.8336
   61SOL    MW4  299   4.294   2.811   0.785  0.0186 -0.2112 -0.0479
   62SOL     OW  300   3.696   2.128   0.454 -0.7925  0.3407  0.4238
   62SOL    HW2  301   3.600   2.125   0.456 -0.8906  1.5055 -1.3556
   62SOL    HW3  302   3.717   2.220   0.442  0.5402 -0.0190 -0.0668
   62SOL    MW4  303   3.686   2.140   0.453 -0.6297  0.4473  0.1243
   63SOL     OW  304   4.393   0.843   0.294  0.2063  0.2251 -0.4201
   63SOL    HW2  305   4.463   0.828   0.359 -0.1622  1.2983  0.2347
   63SOL    HW3  306   4.396   0.937   0.277 -0.3464  0.0952 -1.2454
   63SOL    MW4  307   4.403   0.853   0.301  0.0849  0.3496 -0.4426
   64SOL     OW  308   2.718   4.245   0.797 -0.1097  0.0063 -0.0058
   64SOL    HW2  309   2.699   4.271   0.887  0.2717  0.0025  0.0759
   64SOL    HW3  310   2.801   4.289   0.777 -0.1157 -0.1191 -0.3011
   64SOL    MW4  311   2.726   4.255   0.806 -0.0603 -0.0110 -0.0340
   65SOL     OW  312   3.319   1.834   0.335 -0.3916 -0.1470  0.0216
   65SOL    HW2  313   3.316   1.759   0.394  3.3979  0.3661  1.0142
   65SOL    HW3  314   3.365   1.803   0.258 -0.5348  0.6260 -0.3834
   65SOL    MW4  315   3.325   1.820   0.333  0.0894  0.0226  0.0992
   66SOL     OW  316   0.895   3.218   0.447 -0.0663  0.2682 -0.3179
   66SOL    HW2  317   0.805   3.191   0.426 -0.3278 -0.4404  1.6868
   66SOL    HW3  318   0.899   3.219   0.542  1.9321  0.7721 -0.3808
   66SOL    MW4  319   0.883   3.215   0.457  0.1629  0.2408 -0.0617
   67SOL     OW  320   0.441   1.907   0.881 -0.3364 -0.1053 -0.0227
   67SOL    HW2  321   0.371   1.961   0.845 -0.8596 -0.1802  0.8588
   67SOL    HW3  322   0.436   1.921   0.976  1.0543  0.1438  0.0277
   67SOL    MW4  323   0.431   1.916   0.889 -0.2219 -0.0824  0.1003
   68SOL     OW  324   1.151   1.332   0.554 -0.1737 -0.3804 -0.1628
   68SOL    HW2  325   1.236   1.349   0.513 -0.8072 -0.8265 -1.7181
   68SOL    HW3  326   1.094   1.400   0.520 -1.0583 -1.5909 -1.1788
   68SOL    MW4  327   1.155   1.343   0.544 -0.3740 -0.5990 -0.5020
   69SOL     OW  328   2.884   0.728   0.845  0.4263  0.3943 -0.3523
   69SOL    HW2  329   2.899   0.638   0.815  0.6433  0.2333  0.2324
   69SOL    HW3  330   2.880   0.721   0.941 -1.6592  0.6922 -0.3941
   69SOL    MW4  331   2.886   0.715   0.854  0.1798  0.4124 -0.2806
   70SOL     OW  332   1.953   1.867   0.347  0.1777 -0.1336  0.3338
   70SOL    HW2  333   2.017   1.801   0.372  0.4501  0.1823  0.4846
   70SOL    HW3  334   1.870   1.836   0.382  0.1478 -0.8180 -0.3326
   70SOL    MW4  335   1.950   1.854   0.355  0.2098 -0.1823  0.2657
   71SOL     OW  336   2.809   1.897   0.681 -0.5174  0.0315  0.1222
   71SOL    HW2  337   2.762   1.922   0.601 -1.0584 -0.7110  0.2128
   71SOL    HW3  338   2.892   1.944   0.674 -1.0528  0.9423 -0.2861
   71SOL    MW4  339   2.814   1.907   0.669 -0.6595  0.0536  0.0802
   72SOL     OW  340   0.690   1.253   0.758 -0.1986 -0.3265 -0.4490
   72SOL    HW2  341   0.671   1.345   0.772 -0.2252 -0.2701 -0.8456
   72SOL    HW3  342   0.665   1.237   0.667 -0.7502 -0.8683 -0.2054
   72SOL    MW4  343   0.685   1.263   0.748 -0.2748 -0.3905 -0.4691
   73SOL     OW  344   1.148   3.158   0.864  0.5881 -0.3584  0.0517
   73SOL    HW2  345   1.149   3.079   0.810  0.1708 -0.4900  0.2331
   73SOL    HW3  346   1.231   3.202   0.844  0.3030 -0.2515 -0.9303
   73SOL    MW4  347   1.159   3.153   0.854  0.4956 -0.3614 -0.0538
   74SOL     OW  348   2.887   1.554   0.517  0.1673 -0.0973  0.1449
   74SOL    HW2  349   2.964   1.610   0.530  0.1764  0.0038 -0.3471
   74SOL    HW3  350   2.923   1.468   0.496  0.1504 -0.1525  0.3450
   74SOL    MW4  351   2.902   1.550   0.516  0.1664 -0.0912  0.1064
   75SOL     OW  352   2.182   1.965   0.592 -0.1453  0.2111 -0.3032
   75SOL    HW2  353   2.218   1.955   0.681 -0.2979 -0.1269 -0.2777
   75SOL    HW3  354   2.234   2.035   0.553  0.2597  0.0158 -0.1172
   75SOL    MW4  355   2.194   1.972   0.599 -0.1123  0.1408 -0.2753
   76SOL     OW  356   3.558   0.906   0.719 -0.4961  0.3027 -0.0762
   76SOL    HW2  357   3.554   0.998   0.744  0.8824  0.1124  0.8424
   76SOL    HW3  358   3.614   0.865   0.784 -0.5031 -1.0575 -0.9048
   76SOL    MW4  359   3.565   0.913   0.731 -0.3154  0.0981 -0.0644
   77SOL     OW  360   4.294   2.057   0.667 -0.5219 -0.0877  0.6562
   77SOL    HW2  361   4.210   2.019   0.694 -0.4364 -1.5478 -1.0167
   77SOL    HW3  362   4.290   2.056   0.572  0.4899  1.9542  0.5762
   77SOL    MW4  363   4.282   2.052   0.658 -0.3777 -0.0107  0.4249
   78SOL     OW  364   4.130   0.728   0.347 -0.1212 -0.5369  0.0200
   78SOL    HW2  365   4.202   0.784   0.318 -3.1826  2.7190 -1.5979
   78SOL    HW3  366   4.114   0.670   0.272  0.6026 -1.0605  0.2668
   78SOL    MW4  367   4.138   0.727   0.333 -0.4301 -0.1764 -0.1609
   79SOL     OW  368   1.130   0.419   0.535 -0.0771 -0.2633 -0.3932
   79SOL    HW2  369   1.136   0.457   0.622 -0.7143 -1.3807  0.1542
   79SOL    HW3  370   1.095   0.331   0.550  0.4838 -0.7164 -1.7118
   79SOL    MW4  371   1.126   0.412   0.548 -0.0870 -0.4705 -0.4950
   80SOL     OW  372   3.943   1.959   0.424  0.3236  0.3924  0.3763
   80SOL    HW2  373   3.919   1.993   0.510  0.6411  0.4380  0.4471
   80SOL    HW3  374   3.868   1.979   0.368 -1.6645 -3.3096  1.5896
   80SOL    MW4  375   3.930   1.966   0.428  0.1032 -0.0899  0.5457
   81SOL     OW  376   1.568   1.523   0.859 -0.1071 -0.3469 -0.3141
   81SOL    HW2  377   1.574   1.526   0.955 -0.5104 -0.6617 -0.2764
   81SOL    HW3  378   1.655   1.548   0.829  0.1094 -0.5455  0.1407
   81SOL    MW4  379   1.580   1.527   0.868 -0.1318 -0.4146 -0.2491
   82SOL     OW  380   1.824   3.656   0.375  0.2051  0.0853  0.2265
   82SOL    HW2  381   1.833   3.564   0.348 -1.8591 -0.1452  0.2222
   82SOL    HW3  382   1.730   3.667   0.389  0.7228  1.3931  3.1232
   82SOL    MW4  383   1.813   3.645   0.374  0.0012  0.2275  0.6081
   83SOL     OW  384   1.553   3.696   0.466  0.0177 -0.2444  0.1191
   83SOL    HW2  385   1.560   3.789   0.443  1.1892 -0.8853 -2.2826
   83SOL    HW3  386   1.574   3.693   0.559 -0.3642  1.9224  0.3178
   83SOL    MW4  387   1.556   3.708   0.475  0.1220 -0.0432 -0.1715
   84SOL     OW  388   2.979   2.849   0.767 -0.3155  0.0841 -0.7345
   84SOL    HW2  389   3.051   2.790   0.789 -0.2547 -0.2757 -1.8971
   84SOL    HW3  390   2.905   2.818   0.819  0.5779  0.9670  1.1193
   84SOL    MW4  391   2.979   2.837   0.777 -0.1895  0.1533 -0.6433
   85SOL     OW  392   0.620   3.611   0.756  0.3684 -0.2347 -0.4105
   85SOL    HW2  393   0.606   3.611   0.661  0.7261  0.3537 -0.4654
   85SOL    HW3  394   0.694   3.551   0.770 -0.3192 -1.0905 -0.4028
   85SOL    MW4  395   0.628   3.603   0.745  0.3248 -0.2699 -0.4168
   86SOL     OW  396   1.877   1.513   0.512  0.5944 -0.0962 -0.5922
   86SOL    HW2  397   1.819   1.561   0.452  0.1128  0.1678  0.0739
   86SOL    HW3  398   1.957   1.565   0.515  0.2271  0.4509 -0.1905
   86SOL    MW4  399   1.880   1.527   0.504  0.4826  0.0108 -0.4512
   87SOL     OW  400   0.695   4.461   0.544  0.3102 -0.0251  0.3997
   87SOL    HW2  401   0.768   4.431   0.491  0.4280 -0.8591  1.0131
   87SOL    HW3  402   0.624   4.401   0.523 -0.2289  0.8224 -0.2432
   87SOL    MW4  403   0.695   4.449   0.534  0.2546 -0.0229  0.3959
   88SOL     OW  404   0.665   4.405   0.805 -0.1707  0.1600  0.2676
   88SOL    HW2  405   0.627   4.488   0.834  0.2076  0.4975 -0.1992
   88SOL    HW3  406   0.681   4.417   0.711  2.7315  0.6481  0.7980
   88SOL    MW4  407   0.662   4.417   0.796  0.2621  0.2694  0.2760
   89SOL     OW  408   1.814   0.921   0.786  0.2150  0.2337  0.2161
   89SOL    HW2  409   1.731   0.877   0.803  0.2365 -0.5584 -1.6572
   89SOL    HW3  410   1.879   0.868   0.833 -0.0294 -0.5220 -0.2876
   89SOL    MW4  411   1.812   0.908   0.795  0.1856  0.0296 -0.0975
   90SOL     OW  412   1.817   2.716   0.850 -0.1033  0.1543 -0.1506
   90SOL    HW2  413   1.733   2.739   0.811  0.6045  0.8083 -1.3265
   90SOL    HW3  414   1.834   2.627   0.819 -0.9321 -0.4426  1.0887
   90SOL    MW4  415   1.808   2.707   0.840 -0.1192  0.1619 -0.1422
   91SOL     OW  416   2.866   3.532   0.813  0.1273 -0.2575 -0.1782
   91SOL    HW2  417   2.812   3.514   0.890 -0.5434  1.5062 -0.2038
   91SOL    HW3  418   2.895   3.622   0.826  1.3150 -0.4898 -1.2246
   91SOL    MW4  419   2.862   3.542   0.825  0.1955 -0.0556 -0.3197
   92SOL     OW  420   0.704   3.095   0.801  0.1413  0.4350 -0.4999
   92SOL    HW2  421   0.694   3.013   0.753  0.7741  1.1454 -1.8922
   92SOL    HW3  422   0.617   3.134   0.800 -0.1211 -0.1314  0.0154
   92SOL    MW4  423   0.691   3.089   0.795  0.1901  0.4542 -0.6157
   93SOL     OW  424   1.060   2.324   0.889 -0.3614  0.5235 -0.2486
   93SOL    HW2  425   1.095   2.238   0.864 -2.4523 -0.1854 -0.8886
   93SOL    HW3  426   1.063   2.323   0.985 -0.5411 -0.3650 -0.2384
   93SOL    MW4  427   1.065   2.312   0.898 -0.6610  0.3128 -0.3317
   94SOL     OW  428   2.040   4.148   0.541 -0.3013 -0.3460  0.0827
   94SOL    HW2  429   2.097   4.076   0.515 -0.2780 -0.0645 -0.6560
   94SOL    HW3  430   1.951   4.112   0.532 -0.3707  0.3638 -2.3087
   94SOL    MW4  431   2.036   4.134   0.537 -0.3076 -0.2151 -0.3303
   95SOL     OW  432   0.059   1.908   0.311  0.3195  0.2688 -0.2573
   95SOL    HW2  433   0.121   1.940   0.377  0.1521  1.0472 -0.4761
   95SOL    HW3  434  -0.019   1.962   0.323 -0.1063 -0.3138 -0.3778
   95SOL    MW4  435   0.057   1.920   0.322  0.2413  0.2947 -0.3021
   96SOL     OW  436   2.864   3.746   0.326  0.5080  0.3747  0.4173
   96SOL    HW2  437   2.937   3.685   0.340  0.5432  0.2988 -0.1040
   96SOL    HW3  438   2.798   3.694   0.279  0.3715  0.6216  0.3384
   96SOL    MW4  439   2.865   3.731   0.322  0.4947  0.3974  0.3381
   97SOL     OW  440   3.532   4.290   0.351 -0.0871  0.3429 -0.1531
   97SOL    HW2  441   3.516   4.264   0.260 -0.4346  0.3693 -0.1036
   97SOL    HW3  442   3.444   4.303   0.387  0.0928  2.1913 -0.3443
   97SOL    MW4  443   3.518   4.288   0.344 -0.1092  0.5898 -0.1719
   98SOL     OW  444   1.345   2.344   0.446 -0.0323  0.3058 -0.3148
   98SOL    HW2  445   1.271   2.399   0.419 -0.0309  1.7628  2.4765
   98SOL    HW3  446   1.422   2.391   0.415 -0.2114 -0.5984 -2.1657
   98SOL    MW4  447   1.345   2.358   0.438 -0.0558  0.3786 -0.1907
   99SOL     OW  448   2.149   3.447   0.358 -0.1913 -0.6630  0.5823
   99SOL    HW2  449   2.064   3.442   0.314  0.0930 -1.0018  0.0632
   99SOL    HW3  450   2.138   3.514   0.425 -0.6220 -0.1237 -0.0236
   99SOL    MW4  451   2.136   3.455   0.361 -0.2108 -0.6368  0.4339
  100SOL     OW  452   2.268   2.777   0.858  0.3464  0.6035 -0.1369
  100SOL    HW2  453   2.248   2.733   0.940  0.5598 -1.9453 -1.3915
  100SOL    HW3  454   2.184   2.812   0.828 -0.6222 -2.3243 -0.9951
  100SOL    MW4  455   2.254   2.776   0.865  0.2468 -0.1190 -0.4157
  101SOL     OW  456   1.807   3.981   0.779  0.0368 -0.4523 -0.0256
  101SOL    HW2  457   1.812   4.007   0.687  0.3181 -0.8121 -0.1123
  101SOL    HW3  458   1.717   3.952   0.791  0.1338 -0.8850 -0.3197
  101SOL    MW4  459   1.796   3.980   0.769  0.0867 -0.5569 -0.0758
  102SOL     OW  460   1.404   3.237   0.458 -0.7144  0.3003  0.0013
  102SOL    HW2  461   1.317   3.208   0.430 -0.6370  1.6055 -1.6957
  102SOL    HW3  462   1.395   3.332   0.468  0.4501  0.4093  0.0382
  102SOL    MW4  463   1.391   3.246   0.456 -0.5507  0.4866 -0.2177
  103SOL     OW  464   4.130   1.205   0.116 -0.0882 -0.2855 -0.3930
  103SOL    HW2  465   4.075   1.200   0.193 -0.4689 -0.6555 -0.6881
  103SOL    HW3  466   4.074   1.178   0.044  0.0028  0.9315 -0.9365
  103SOL    MW4  467   4.116   1.201   0.117 -0.1268 -0.1738 -0.5036
  104SOL     OW  468   0.450   4.314   0.487 -0.2141 -0.3556 -0.1082
  104SOL    HW2  469   0.419   4.225   0.506 -0.8606 -0.0858  0.0941
  104SOL    HW3  470   0.370   4.367   0.482  0.1414  0.1158 -0.7329
  104SOL    MW4  471   0.435   4.309   0.489 -0.2525 -0.2580 -0.1639
  105SOL     OW  472   1.226   2.842   0.490 -0.0938  0.2612 -0.4393
  105SOL    HW2  473   1.191   2.919   0.446 -1.5135 -0.2794 -0.2673
  105SOL    HW3  474   1.203   2.854   0.582  0.0433 -0.1707 -0.3463
  105SOL    MW4  475   1.219   2.853   0.496 -0.2632  0.1330 -0.4044
  106SOL     OW  476   3.359   0.528   0.548  0.0903  0.5409 -0.0703
  106SOL    HW2  477   3.290   0.498   0.488 -1.2884 -0.1596  1.8268
  106SOL    HW3  478   3.412   0.588   0.495 -1.8036  0.8746 -1.6499
  106SOL    MW4  479   3.357   0.532   0.533 -0.3414  0.4925 -0.0285
  107SOL     OW  480   3.671   3.545   0.438 -0.2308 -0.0150 -0.3209
  107SOL    HW2  481   3.667   3.451   0.456  1.3446  0.1873  1.2245
  107SOL    HW3  482   3.625   3.585   0.512  0.4066  0.5030 -0.2044
  107SOL    MW4  483   3.664   3.538   0.450  0.0610  0.0799 -0.1016
  108SOL     OW  484   2.521   3.143   0.369 -0.3125  0.0908  0.2308
  108SOL    HW2  485   2.506   3.049   0.383  0.0034 -0.2259 -1.4277
  108SOL    HW3  486   2.611   3.157   0.399 -0.0384 -0.3449 -0.3608
  108SOL    MW4  487   2.531   3.132   0.374 -0.2348 -0.0083 -0.0661
  109SOL     OW  488   2.490   3.836   0.844  0.1854 -0.0093 -0.0892
  109SOL    HW2  489   2.416   3.891   0.816 -0.7974 -0.3778  1.7233
  109SOL    HW3  490   2.567   3.878   0.805 -0.7937  1.3700 -0.5777
  109SOL    MW4  491   2.490   3.849   0.835 -0.0737  0.1242  0.0855
  110SOL     OW  492   0.378   3.481   0.366  0.0019 -0.0832 -0.3147
  110SOL    HW2  493   0.303   3.512   0.416 -0.2783 -1.2325 -0.0038
  110SOL    HW3  494   0.454   3.520   0.408 -0.2089 -1.2526  1.1908
  110SOL    MW4  495   0.378   3.490   0.378 -0.0629 -0.3891 -0.0750
  111SOL     OW  496   0.461   2.479   0.458 -0.0010 -0.7970  0.0944
  111SOL    HW2  497   0.526   2.521   0.401 -2.1301  0.0848 -1.7788
  111SOL    HW3  498   0.471   2.385   0.440  0.6572 -0.6658 -0.2692
  111SOL    MW4  499   0.471   2.472   0.448 -0.1951 -0.6635 -0.2007
  112SOL     OW  500   3.989   3.174   0.462  0.0692  0.0535  0.0796
  112SOL    HW2  501   3.968   3.081   0.475 -1.8913  0.6557  1.4062
  112SOL    HW3  502   4.017   3.205   0.548 -0.7762  1.0634 -0.0042
  112SOL    MW4  503   3.990   3.166   0.475 -0.3011  0.2661  0.2436
  113SOL     OW  504   1.646   0.487   0.498 -0.2404 -0.1344  0.5002
  113SOL    HW2  505   1.566   0.451   0.459 -0.4802  0.9586 -0.0436
  113SOL    HW3  506   1.623   0.501   0.590 -0.6891  0.2026  0.3418
  113SOL    MW4  507   1.632   0.484   0.505 -0.3312  0.0542  0.4075
  114SOL     OW  508   4.233   1.235   0.464 -0.0346 -0.0945 -0.0844
  114SOL    HW2  509   4.223   1.328   0.447  0.3508  0.1778  1.1368
  114SOL    HW3  510   4.151   1.196   0.434 -0.0995  0.5952 -0.8296
  114SOL    MW4  511   4.221   1.242   0.457  0.0076  0.0324 -0.0216
  115SOL     OW  512   1.148   2.908   0.749  0.1417 -0.2858  0.0717
  115SOL    HW2  513   1.075   2.855   0.778 -0.0209 -1.2708 -2.0433
  115SOL    HW3  514   1.225   2.865   0.786 -0.1203 -1.0201 -0.2265
  115SOL    MW4  515   1.149   2.896   0.757  0.0857 -0.5131 -0.2467
  116SOL     OW  516   1.602   0.083   0.571 -0.4659  0.4499 -0.0560
  116SOL    HW2  517   1.547   0.052   0.642 -0.4568  1.3028  0.3295
  116SOL    HW3  518   1.644   0.004   0.536 -0.2495  0.0649  1.0600
  116SOL    MW4  519   1.600   0.069   0.575 -0.4361  0.5116  0.1421
  117SOL     OW  520   0.195   1.180   0.210  0.2628  0.7138  0.1877
  117SOL    HW2  521   0.103   1.159   0.222 -0.2744  2.6068 -0.3866
  117SOL    HW3  522   0.221   1.131   0.132  0.0685 -0.7150  0.9999
  117SOL    MW4  523   0.187   1.171   0.202  0.1663  0.7751  0.2191
  118SOL     OW  524   3.574   3.494   0.834 -0.5039  0.2641 -0.3687
  118SOL    HW2  525   3.656   3.525   0.795 -0.0416 -0.5995 -0.0857
  118SOL    HW3  526   3.506   3.545   0.789  0.1402  0.5184 -1.0705
  118SOL    MW4  527   3.576   3.505   0.823 -0.3581  0.1838 -0.4240
  119SOL     OW  528   2.940   4.394   0.715  0.2918 -0.2666  0.1108
  119SOL    HW2  529   2.971   4.361   0.631  0.3831  1.3166 -0.4789
  119SOL    HW3  530   3.017   4.391   0.772  0.7672  0.6950 -0.4719
  119SOL    MW4  531   2.954   4.389   0.711  0.3664  0.0691 -0.0439
  120SOL     OW  532   2.255   0.363   0.853 -0.3370 -0.0371  0.2439
  120SOL    HW2  533   2.243   0.289   0.793 -0.2702 -0.3079  0.5647
  120SOL    HW3  534   2.331   0.410   0.818 -0.3237 -0.1702  0.0938
  120SOL    MW4  535   2.263   0.360   0.840 -0.3264 -0.0904  0.2664
  121SOL     OW  536   2.225   1.089   0.459  0.3695  0.0880 -0.1492
  121SOL    HW2  537   2.181   1.036   0.393  0.1394 -0.6639  0.6015
  121SOL    HW3  538   2.156   1.144   0.495  0.7251  1.3482 -1.3507
  121SOL    MW4  539   2.210   1.089   0.455  0.3862  0.1550 -0.2087
  122SOL     OW  540   1.815   2.453   0.499  0.4062 -0.1062 -0.1982
  122SOL    HW2  541   1.897   2.502   0.490  0.3063 -0.0614 -0.8815
  122SOL    HW3  542   1.839   2.362   0.481  0.8510 -0.5317  2.3570
  122SOL    MW4  543   1.829   2.447   0.495  0.4517 -0.1569  0.0488
  123SOL     OW  544   3.993   1.152   0.340 -0.3792  0.1577  0.4230
  123SOL    HW2  545   3.969   1.059   0.346  0.4734 -0.0944 -0.1213
  123SOL    HW3  546   3.916   1.198   0.374 -1.0015 -0.7249  0.2210
  123SOL    MW4  547   3.979   1.146   0.346 -0.3490  0.0080  0.3245
  124SOL     OW  548   2.093   2.516   0.492  0.0660 -0.0810 -0.1270
  124SOL    HW2  549   2.141   2.454   0.437 -0.3175  0.4779 -1.0991
  124SOL    HW3  550   2.140   2.515   0.575  0.5097 -1.1118 -0.3847
  124SOL    MW4  551   2.106   2.508   0.496  0.0741 -0.1435 -0.2893
  125SOL     OW  552   2.108   0.595   0.475 -0.4540  0.2968  0.4980
  125SOL    HW2  553   2.085   0.679   0.435 -0.3440  0.1060  0.0298
  125SOL    HW3  554   2.041   0.535   0.443  0.8664 -0.3397 -1.1442
  125SOL    MW4  555   2.096   0.599   0.465 -0.2654  0.1876  0.2196
  126SOL     OW  556   1.497   2.755   0.443 -0.0676 -0.6768  0.0859
  126SOL    HW2  557   1.497   2.669   0.401 -0.6515 -1.1335  1.0102
  126SOL    HW3  558   1.405   2.782   0.443 -0.1211 -0.8207  1.3310
  126SOL    MW4  559   1.485   2.747   0.438 -0.1516 -0.7560  0.3722
  127SOL     OW  560   0.664   2.087   0.822  0.5475  0.6342  0.4403
  127SOL    HW2  561   0.597   2.024   0.851 -0.2158  2.0811  1.8806
  127SOL    HW3  562   0.747   2.042   0.839 -0.0225 -0.7006 -0.2335
  127SOL    MW4  563   0.666   2.072   0.828  0.3716  0.6490  0.5414
  128SOL     OW  564   0.425   3.968   0.782  0.3120  0.1486 -0.0520
  128SOL    HW2  565   0.510   3.932   0.805  0.5269  0.0836 -0.9462
  128SOL    HW3  566   0.428   4.059   0.813  1.0611  0.4336 -0.9306
  128SOL    MW4  567   0.436   3.975   0.789  0.4392  0.1776 -0.2859
  129SOL     OW  568   4.001   0.367   0.872  0.6313 -0.0439 -0.0861
  129SOL    HW2  569   3.920   0.414   0.854  1.0207  0.6689 -0.0115
  129SOL    HW3  570   4.069   0.421   0.832  1.2555  0.2581  1.3407
  129SOL    MW4  571   4.000   0.380   0.864  0.7651  0.0900  0.1120
  130SOL     OW  572   1.079   4.652   0.873  0.0043  0.2306 -0.1385
  130SOL    HW2  573   1.001   4.680   0.825 -1.3630 -2.6189  0.3466
  130SOL    HW3  574   1.084   4.558   0.859  1.1901 -0.2328  2.9804
  130SOL    MW4  575   1.070   4.644   0.865 -0.0197 -0.2065  0.3371
  131SOL     OW  576   3.734   2.427   0.447 -0.1144 -0.0930  0.0540
  131SOL    HW2  577   3.739   2.522   0.432  1.9996 -0.0141  1.0669
  131SOL    HW3  578   3.685   2.418   0.528 -0.8680  0.0948 -0.3767
  131SOL    MW4  579   3.728   2.439   0.455  0.0648 -0.0577  0.1308
  132SOL     OW  580   2.320   2.286   0.813  0.0192 -0.3451  0.0986
  132SOL    HW2  581   2.236   2.265   0.853  1.1301 -1.0374  2.1607
  132SOL    HW3  582   2.311   2.376   0.783 -0.8688  0.2020  1.9537
  132SOL    MW4  583   2.308   2.295   0.815  0.0486 -0.3641  0.6154
  133SOL     OW  584   4.400   3.936   0.472 -0.6374  0.2751 -0.2021
  133SOL    HW2  585   4.318   3.973   0.441 -0.8922 -0.3196 -0.2415
  133SOL    HW3  586   4.464   3.960   0.404 -0.2219  2.9564  1.0635
  133SOL    MW4  587   4.398   3.944   0.459 -0.6166  0.5500 -0.0403
  134SOL     OW  588   2.418   0.771   0.826  0.5528 -0.0584 -0.1114
  134SOL    HW2  589   2.360   0.831   0.780 -0.0419  0.5244  1.3673
  134SOL    HW3  590   2.410   0.689   0.778 -1.5630 -0.0110  0.1115
  134SOL    MW4  591   2.410   0.768   0.814  0.1955  0.0247  0.1131
  135SOL     OW  592   0.650   4.254   0.297 -0.1220  0.3032  0.0719
  135SOL    HW2  593   0.574   4.280   0.349  0.3880  0.9853  0.4768
  135SOL    HW3  594   0.679   4.172   0.336 -0.3480  0.2950  0.2247
  135SOL    MW4  595   0.644   4.247   0.309 -0.0845  0.3915  0.1455
  136SOL     OW  596   2.026   4.446   0.484 -0.0974  0.4702 -0.4748
  136SOL    HW2  597   2.087   4.474   0.415  1.2992  1.8030  1.2607
  136SOL    HW3  598   2.027   4.351   0.480  0.7214  0.5176 -1.6394
  136SOL    MW4  599   2.034   4.437   0.474  0.1950  0.6523 -0.3995
  137SOL     OW  600   2.053   1.528   0.836  0.3579  0.4124  0.3204
  137SOL    HW2  601   2.049   1.527   0.932  0.5373  0.4211  0.3298
  137SOL    HW3  602   2.130   1.582   0.817  1.1249 -0.6896  0.2083
  137SOL    MW4  603   2.063   1.535   0.846  0.4828  0.2681  0.3068
  138SOL     OW  604   0.183   3.601   0.777 -0.3211  0.2876 -0.3219
  138SOL    HW2  605   0.263   3.560   0.812  0.0571  0.1638 -1.3115
  138SOL    HW3  606   0.180   3.686   0.820  0.8147  0.6367 -0.9128
  138SOL    MW4  607   0.193   3.607   0.787 -0.1213  0.3173 -0.5304
  139SOL     OW  608   4.163   0.334   0.316  0.7909  0.2473  0.0087
  139SOL    HW2  609   4.189   0.378   0.397 -1.8717 -1.8734  2.1317
  139SOL    HW3  610   4.197   0.245   0.325  1.3357  0.2700 -1.6954
  139SOL    MW4  611   4.171   0.329   0.328  0.5116 -0.0295  0.0640
  140SOL     OW  612   2.184   0.917   0.689 -0.1741  0.0783  0.2167
  140SOL    HW2  613   2.189   0.943   0.598 -1.0287  0.6904  0.3413
  140SOL    HW3  614   2.201   0.997   0.738 -0.0155 -0.1853  0.5995
  140SOL    MW4  615   2.187   0.931   0.684 -0.2661  0.1242  0.2836
  141SOL     OW  616   1.564   4.274   0.561  0.0914  0.4231 -0.2961
  141SOL    HW2  617   1.484   4.304   0.518 -1.6151 -2.1145  0.9937
  141SOL    HW3  618   1.564   4.319   0.645 -0.3726 -0.1236 -0.0000
  141SOL    MW4  619   1.553   4.284   0.566 -0.1950  0.0162 -0.0870
  142SOL     OW  620   3.332   1.337   0.718  0.0712  0.8159  0.4115
  142SOL    HW2  621   3.280   1.270   0.763  0.4219 -0.1951 -0.6792
  142SOL    HW3  622   3.308   1.418   0.762 -0.7367  0.0518  1.4228
  142SOL    MW4  623   3.322   1.339   0.730  0.0107  0.5819  0.4010
  143SOL     OW  624   3.109   0.893   0.489  0.8543 -0.2813  0.3137
  143SOL    HW2  625   3.069   0.955   0.428  1.0987 -0.4566 -0.0248
  143SOL    HW3  626   3.203   0.906   0.480  0.8711  1.1020  2.1231
  143SOL    MW4  627   3.116   0.903   0.480  0.8888 -0.1220  0.5077
  144SOL     OW  628   1.728   3.220   0.433  0.6180 -0.2882 -0.2393
  144SOL    HW2  629   1.765   3.223   0.521  0.8193 -0.7042 -0.3082
  144SOL    HW3  630   1.634   3.233   0.446  0.9477  2.4554 -0.2007
  144SOL    MW4  631   1.721   3.223   0.446  0.6881  0.0191 -0.2433
  145SOL     OW  632   1.355   0.145   0.445  0.1218 -0.1769  0.1065
  145SOL    HW2  633   1.438   0.114   0.482 -0.2322  0.6479  1.6152
  145SOL    HW3  634   1.370   0.238   0.428 -1.1667  0.4657  2.3466
  145SOL    MW4  635   1.368   0.154   0.448 -0.0950  0.0167  0.6011
  146SOL     OW  636   1.910   0.407   0.452 -0.2892  0.0556  0.4218
  146SOL    HW2  637   1.817   0.426   0.438  0.0486  0.2670 -1.8347
  146SOL    HW3  638   1.913   0.360   0.535 -2.5299 -0.8004  0.0543
  146SOL    MW4  639   1.898   0.403   0.461 -0.5403 -0.0294  0.0756
  147SOL     OW  640   2.188   4.283   0.772 -0.1928 -0.5463  0.0594
  147SOL    HW2  641   2.113   4.253   0.720  0.9957  0.1885 -2.1074
  147SOL    HW3  642   2.239   4.338   0.712  0.6326  1.2372  2.3221
  147SOL    MW4  643   2.185   4.286   0.757  0.0732 -0.2141  0.0720
  148SOL     OW  644   1.735   4.503   0.501 -0.0312  0.1038 -0.2456
  148SOL    HW2  645   1.825   4.470   0.495 -0.0432 -0.1993  1.0480
  148SOL    HW3  646   1.683   4.427   0.526 -0.1209  0.9441  2.3185
  148SOL    MW4  647   1.740   4.489   0.504 -0.0446  0.1745  0.2634
  149SOL     OW  648   2.031   2.876   0.750 -0.1098  0.0965 -0.2261
  149SOL    HW2  649   1.957   2.822   0.777 -0.7714  0.2929 -1.5849
  149SOL    HW3  650   2.028   2.874   0.654  2.4133 -0.9422 -0.3237
  149SOL    MW4  651   2.021   2.868   0.741  0.1357 -0.0148 -0.4182
  150SOL     OW  652   3.377   0.488   0.814  0.3491 -0.1244 -0.9386
  150SOL    HW2  653   3.370   0.578   0.845 -1.1358 -0.9381  1.2598
  150SOL    HW3  654   3.383   0.495   0.719  2.5584  2.3717 -0.6622
  150SOL    MW4  655   3.376   0.501   0.806  0.4447  0.0975 -0.6121
  151SOL     OW  656   4.171   4.084   0.431  0.0081  0.0845  0.0230
  151SOL    HW2  657   4.169   4.178   0.413  0.3114  0.1632  0.3968
  151SOL    HW3  658   4.079   4.058   0.428 -0.1249  0.4905  0.4152
  151SOL    MW4  659   4.159   4.093   0.428  0.0310  0.1493  0.1241
  152SOL     OW  660   3.343   3.970   0.773 -0.0324  0.5221 -0.6062
  152SOL    HW2  661   3.351   3.936   0.862 -1.0111  0.1760 -0.6462
  152SOL    HW3  662   3.432   3.965   0.737 -0.0340 -1.3667 -0.3825
  152SOL    MW4  663   3.356   3.965   0.780 -0.1619  0.2272 -0.5819
  153SOL     OW  664   0.645   2.614   0.281 -0.1002  0.3379  0.0444
  153SOL    HW2  665   0.731   2.594   0.316  0.1517  0.9490 -0.2141
  153SOL    HW3  666   0.639   2.563   0.200  0.6498  1.4899 -0.7619
  153SOL    MW4  667   0.655   2.605   0.275  0.0319  0.5705 -0.0961
  154SOL     OW  668   2.650   2.182   0.473 -0.1672 -0.2464  0.0262
  154SOL    HW2  669   2.634   2.266   0.429  0.9035 -0.4192 -0.7025
  154SOL    HW3  670   2.705   2.204   0.548  0.5383 -0.3752 -0.4588
  154SOL    MW4  671   2.655   2.196   0.477  0.0672 -0.2861 -0.1339
  155SOL     OW  672   4.396   3.138   0.489  0.0095 -0.2459  0.2540
  155SOL    HW2  673   4.341   3.203   0.447 -3.1928 -1.6244  2.1403
  155SOL    HW3  674   4.420   3.177   0.573  0.2742 -0.4149  0.2571
  155SOL    MW4  675   4.392   3.151   0.494 -0.3781 -0.4499  0.5033
  156SOL     OW  676   0.083   0.535   0.459  0.3518  0.2446  0.5374
  156SOL    HW2  677   0.099   0.628   0.470 -0.0662  0.5672 -1.4461
  156SOL    HW3  678  -0.013   0.528   0.458  0.3829 -0.1207  0.0500
  156SOL    MW4  679   0.072   0.546   0.460  0.3007  0.2390  0.2114
  157SOL     OW  680   3.002   2.243   0.854 -0.0534 -0.1041  0.0283
  157SOL    HW2  681   2.923   2.266   0.806 -0.1032  0.8499  0.5588
  157SOL    HW3  682   2.981   2.259   0.946  1.2635  1.7529  0.0412
  157SOL    MW4  683   2.989   2.248   0.860  0.1135  0.2668  0.1000
  158SOL     OW  684   2.626   0.127   0.196  0.0498 -0.8190  0.0999
  158SOL    HW2  685   2.688   0.128   0.269  0.0276 -0.1513  0.1147
  158SOL    HW3  686   2.671   0.175   0.127 -0.7357  0.2953  0.3505
  158SOL    MW4  687   2.640   0.133   0.197 -0.0570 -0.5839  0.1349
  159SOL     OW  688   0.591   0.073   0.518  0.0795  0.0000 -0.1816
  159SOL    HW2  689   0.640  -0.008   0.513  0.3839  0.1053  1.0084
  159SOL    HW3  690   0.583   0.091   0.611 -0.5599  0.9891 -0.4159
  159SOL    MW4  691   0.596   0.065   0.529  0.0353  0.1444 -0.0555
  160SOL     OW  692   0.007   0.152   0.713 -0.1400  0.0304 -0.4016
  160SOL    HW2  693  -0.019   0.237   0.749  0.4765 -0.3263  0.9207
  160SOL    HW3  694   0.016   0.168   0.619 -1.3160  1.0997 -0.3557
  160SOL    MW4  695   0.005   0.165   0.705 -0.2146  0.1244 -0.2211
  161SOL     OW  696   1.812   1.045   0.535  0.4492 -0.2358 -0.1103
  161SOL    HW2  697   1.821   0.987   0.610  0.9132 -0.8931 -0.6774
  161SOL    HW3  698   1.721   1.075   0.539  0.8009  0.7053  1.4199
  161SOL    MW4  699   1.801   1.042   0.546  0.5568 -0.1985  0.0168
  162SOL     OW  700   1.544   1.256   0.804  0.2545 -0.0537 -0.2546
  162SOL    HW2  701   1.530   1.348   0.828  1.1735 -0.2964  1.2495
  162SOL    HW3  702   1.635   1.239   0.827  0.0038 -1.4380 -0.2425
  162SOL    MW4  703   1.554   1.266   0.810  0.3427 -0.2686 -0.0545
  163SOL     OW  704   0.102   0.247   0.447 -0.2503 -0.0396 -0.0335
  163SOL    HW2  705   0.110   0.340   0.426 -0.1445  0.5835  2.5407
  163SOL    HW3  706   0.191   0.213   0.440  0.1467  0.6451  1.4898
  163SOL    MW4  707   0.115   0.254   0.444 -0.1840  0.1329  0.5071
  164SOL     OW  708   2.624   1.696   0.446 -0.0401 -0.5394 -0.3856
  164SOL    HW2  709   2.662   1.773   0.404  1.4581 -0.6142  0.8214
  164SOL    HW3  710   2.696   1.633   0.451 -0.2546 -0.6361  2.0254
  164SOL    MW4  711   2.638   1.697   0.441  0.1292 -0.5621  0.0918
  165SOL     OW  712   4.219   1.518   0.386 -0.0810 -0.4357 -0.8330
  165SOL    HW2  713   4.297   1.562   0.420 -0.8187  0.1289  0.1616
  165SOL    HW3  714   4.147   1.578   0.407 -0.6803 -0.5588 -2.4940
  165SOL    MW4  715   4.220   1.532   0.393 -0.2570 -0.3774 -0.9209
  166SOL     OW  716   1.096   0.752   0.864 -0.1257  0.3722 -0.0637
  166SOL    HW2  717   1.012   0.778   0.825 -0.7162  0.5141  1.2707
  166SOL    HW3  718   1.082   0.759   0.959  1.4182  0.4688  0.1739
  166SOL    MW4  719   1.083   0.756   0.872  0.0000  0.4036  0.1437
  167SOL     OW  720   4.468   3.217   0.758 -0.0775 -0.0539  0.2028
  167SOL    HW2  721   4.558   3.193   0.780 -0.0298 -0.5603 -0.5376
  167SOL    HW3  722   4.457   3.304   0.798  1.3836  0.8790 -1.3516
  167SOL    MW4  723   4.479   3.225   0.767  0.1216  0.0024 -0.1000
  168SOL     OW  724   3.806   4.409   0.682  0.4172  0.0367  0.1669
  168SOL    HW2  725   3.885   4.364   0.711  0.6948 -0.1468 -0.8426
  168SOL    HW3  726   3.810   4.496   0.723  1.5892  0.3430 -0.6040
  168SOL    MW4  727   3.817   4.415   0.691  0.6084  0.0525 -0.0679
  169SOL     OW  728   1.759   2.958   0.343  0.0495 -0.0882  0.2467
  169SOL    HW2  729   1.723   3.038   0.383  0.0842  1.1381 -2.1149
  169SOL    HW3  730   1.697   2.890   0.366 -1.3253  1.1130  0.1637
  169SOL    MW4  731   1.746   2.960   0.351 -0.1274  0.2320 -0.0758
  170SOL     OW  732   4.280   2.776   0.267 -0.1924 -0.0178  0.1678
  170SOL    HW2  733   4.302   2.691   0.229 -2.8263 -0.4127 -0.5450
  170SOL    HW3  734   4.353   2.833   0.240 -0.1009 -1.2002 -2.2871
  170SOL    MW4  735   4.293   2.772   0.258 -0.5279 -0.2258 -0.2501
  171SOL     OW  736   2.729   1.610   0.750 -0.3525  0.2755 -0.5300
  171SOL    HW2  737   2.776   1.574   0.674 -0.9322  0.3423 -0.9189
  171SOL    HW3  738   2.738   1.705   0.740  0.0302  0.2730 -0.2240
  171SOL    MW4  739   2.737   1.618   0.738 -0.3781  0.2838 -0.5409
  172SOL     OW  740   2.249   2.759   0.474 -0.0106  0.4195  0.0099
  172SOL    HW2  741   2.183   2.825   0.451 -0.5557 -0.3606 -0.6805
  172SOL    HW3  742   2.200   2.677   0.478  0.8248 -0.0800  0.0161
  172SOL    MW4  743   2.234   2.757   0.471  0.0274  0.2508 -0.0804
  173SOL     OW  744   2.956   4.001   0.416 -0.0350 -0.0933 -0.2437
  173SOL    HW2  745   2.941   3.921   0.367 -0.7859 -0.5047  0.6510
  173SOL    HW3  746   3.018   3.977   0.485  0.8428  0.4326 -0.8282
  173SOL    MW4  747   2.962   3.988   0.419 -0.0184 -0.0784 -0.2027
  174SOL     OW  748   3.146   2.202   0.482  0.1136  0.7619 -0.4428
  174SOL    HW2  749   3.110   2.146   0.552 -1.1812 -0.0682 -1.7310
  174SOL    HW3  750   3.239   2.179   0.478  0.0398  0.2715  0.5036
  174SOL    MW4  751   3.153   2.191   0.491 -0.0672  0.5877 -0.4879
  175SOL     OW  752   3.996   0.165   0.708  0.3388 -0.2160 -0.4878
  175SOL    HW2  753   3.994   0.241   0.766  0.4441  0.8930 -1.9053
  175SOL    HW3  754   4.082   0.125   0.724  0.8022  0.7036 -0.6525
  175SOL    MW4  755   4.007   0.170   0.717  0.4134  0.0517 -0.6966
  176SOL     OW  756   1.393   0.427   0.402 -0.6835 -0.3634 -0.1814
  176SOL    HW2  757   1.321   0.440   0.464  0.3062  0.3884  0.8183
  176SOL    HW3  758   1.374   0.489   0.331  0.3493  1.6885  1.3105
  176SOL    MW4  759   1.381   0.437   0.400 -0.4168  0.0066  0.1473
  177SOL     OW  760   2.055   2.286   0.906  0.4765 -0.1260  0.2349
  177SOL    HW2  761   1.985   2.346   0.880 -0.3738 -0.9795  0.4906
  177SOL    HW3  762   2.050   2.283   1.001  0.8702 -0.1804  0.2538
  177SOL    MW4  763   2.045   2.293   0.915  0.4160 -0.2458  0.2711
  178SOL     OW  764   3.753   0.500   0.154 -0.4078  0.3173  0.1536
  178SOL    HW2  765   3.836   0.519   0.109  0.2957  0.3265  1.4211
  178SOL    HW3  766   3.756   0.553   0.234 -1.7842  0.5570  0.0558
  178SOL    MW4  767   3.765   0.509   0.159 -0.4964  0.3501  0.3079
  179SOL     OW  768   0.182   2.572   0.387  0.1244  0.3686 -0.1417
  179SOL    HW2  769   0.219   2.658   0.408  1.2052  0.1968 -1.2398
  179SOL    HW3  770   0.258   2.518   0.367 -0.6482 -0.3799 -1.0976
  179SOL    MW4  771   0.197   2.576   0.387  0.1651  0.2470 -0.4127
  180SOL     OW  772   4.000   1.658   0.431  0.2830 -0.1758 -0.2095
  180SOL    HW2  773   3.989   1.746   0.396 -2.4350 -0.3692 -0.0250
  180SOL    HW3  774   3.996   1.669   0.526 -0.8576 -0.5613 -0.2051
  180SOL    MW4  775   3.998   1.671   0.439 -0.2263 -0.2521 -0.1846
  181SOL     OW  776   1.120   2.062   0.771  0.5770  0.0682  0.3343
  181SOL    HW2  777   1.124   2.079   0.677 -0.9798 -0.3465  0.1790
  181SOL    HW3  778   1.207   2.026   0.793  0.6772 -0.5986 -1.0991
  181SOL    MW4  779   1.132   2.059   0.762  0.3849 -0.0746  0.1248
  182SOL     OW  780   4.241   2.274   0.827 -0.0890 -0.2846 -0.2879
  182SOL    HW2  781   4.313   2.337   0.828  0.3133 -0.7446 -0.0529
  182SOL    HW3  782   4.270   2.204   0.769 -1.5275  0.8698 -2.4829
  182SOL    MW4  783   4.254   2.274   0.820 -0.2255 -0.1934 -0.5465
  183SOL     OW  784   2.021   0.512   0.765  0.3700  0.2944 -0.4275
  183SOL    HW2  785   2.043   0.533   0.674  1.6294  0.8232 -0.0098
  183SOL    HW3  786   2.094   0.459   0.796 -0.1038  0.0293  0.2423
  183SOL    MW4  787   2.033   0.508   0.757  0.4737  0.3293 -0.2841
  184SOL     OW  788   1.375   1.697   0.745 -0.3668 -0.3092  0.2346
  184SOL    HW2  789   1.424   1.641   0.805 -0.8702  0.8935  1.7987
  184SOL    HW3  790   1.283   1.676   0.761 -0.5187  0.2146  0.0727
  184SOL    MW4  791   1.369   1.687   0.755 -0.4532 -0.0814  0.4197
  185SOL     OW  792   3.716   3.241   0.477  0.1454  0.2258  0.1686
  185SOL    HW2  793   3.810   3.229   0.468  0.3762  1.4612  0.8604
  185SOL    HW3  794   3.698   3.229   0.570 -0.6981 -2.0116 -0.2338
  185SOL    MW4  795   3.726   3.238   0.488  0.0644  0.0937  0.2067
  186SOL     OW  796   1.108   1.323   0.830 -0.1410  0.9550  0.4286
  186SOL    HW2  797   1.180   1.285   0.880 -1.3448  0.3147  1.7099
  186SOL    HW3  798   1.131   1.306   0.738 -0.0347 -1.8175  0.9145
  186SOL    MW4  799   1.121   1.316   0.824 -0.2859  0.5050  0.6618
  187SOL     OW  800   3.580   1.607   0.647 -0.0718 -0.3785 -0.1622
  187SOL    HW2  801   3.624   1.583   0.565 -0.0196 -1.3268  0.1399
  187SOL    HW3  802   3.488   1.613   0.624  0.2091  1.9527 -0.8785
  187SOL    MW4  803   3.574   1.605   0.633 -0.0279 -0.1961 -0.2168
  188SOL     OW  804   4.297   2.362   0.427  0.0033  0.0042 -0.2023
  188SOL    HW2  805   4.203   2.380   0.421  0.2267  1.0955 -0.5523
  188SOL    HW3  806   4.334   2.441   0.466  0.3618 -1.7000  3.1394
  188SOL    MW4  807   4.290   2.375   0.432  0.0806 -0.0765  0.1924
  189SOL     OW  808   2.701   1.126   0.811 -0.0024 -0.2170 -0.2374
  189SOL    HW2  809   2.700   1.037   0.775  1.1367 -1.6673  3.1109
  189SOL    HW3  810   2.778   1.166   0.772  0.1635 -1.1004 -0.8483
  189SOL    MW4  811   2.711   1.119   0.801  0.1698 -0.5249  0.1237
  190SOL     OW  812   3.328   1.616   0.521 -0.1642 -0.4090 -0.2422
  190SOL    HW2  813   3.311   1.544   0.460 -0.6392 -0.8753  0.4349
  190SOL    HW3  814   3.244   1.632   0.564 -0.9434  2.8517 -2.8176
  190SOL    MW4  815   3.315   1.609   0.519 -0.3297 -0.0402 -0.4927
  191SOL     OW  816   1.565   0.741   0.400 -0.6145  0.2600  0.0815
  191SOL    HW2  817   1.507   0.710   0.331  0.5656  0.3128 -0.9483
  191SOL    HW3  818   1.594   0.661   0.445 -1.2102  0.2150  0.4075
  191SOL    MW4  819   1.561   0.726   0.397 -0.5375  0.2610 -0.0114
  192SOL     OW  820   4.453   2.458   0.813 -0.0649 -0.1074  0.1352
  192SOL    HW2  821   4.537   2.414   0.831 -0.5864 -0.8273  0.8597
  192SOL    HW3  822   4.465   2.497   0.726  0.5926 -1.2523 -0.3106
  192SOL    MW4  823   4.466   2.457   0.804 -0.0472 -0.3536  0.1720
  193SOL     OW  824   2.244   3.159   0.447  0.5023 -0.3891 -0.3260
  193SOL    HW2  825   2.221   3.242   0.406  0.0751 -0.6421 -0.5984
  193SOL    HW3  826   2.331   3.138   0.412  0.3914 -0.3079 -0.6439
  193SOL    MW4  827   2.253   3.167   0.437  0.4313 -0.4115 -0.4038
  194SOL     OW  828   2.447   3.803   0.448  0.1082 -0.2418 -0.5069
  194SOL    HW2  829   2.360   3.842   0.442  0.0177 -0.2624  0.7413
  194SOL    HW3  830   2.507   3.876   0.429 -0.0841  0.3627  1.1854
  194SOL    MW4  831   2.444   3.818   0.444  0.0708 -0.1647 -0.1190
  195SOL     OW  832   2.759   2.528   0.655  0.3677 -0.0920 -0.1489
  195SOL    HW2  833   2.813   2.563   0.584  1.3690 -1.5873 -0.1361
  195SOL    HW3  834   2.776   2.587   0.729  1.3085 -0.0293 -0.4056
  195SOL    MW4  835   2.768   2.540   0.656  0.6239 -0.2809 -0.1811
  196SOL     OW  836   0.646   0.776   0.859 -0.6171 -0.3767  0.1190
  196SOL    HW2  837   0.713   0.829   0.815  0.4485 -2.6130 -0.9882
  196SOL    HW3  838   0.563   0.810   0.824  0.0769  0.0882 -1.1210
  196SOL    MW4  839   0.644   0.788   0.849 -0.3849 -0.6104 -0.1907
  197SOL     OW  840   2.705   0.362   0.790  0.0465  0.0918  0.4622
  197SOL    HW2  841   2.792   0.382   0.754  0.1405 -2.8917 -1.1934
  197SOL    HW3  842   2.721   0.341   0.882  0.8416  0.9640  0.5369
  197SOL    MW4  843   2.718   0.362   0.797  0.1638 -0.1868  0.2537
  198SOL     OW  844   2.040   3.843   0.851  0.4715  0.6560 -0.1458
  198SOL    HW2  845   1.959   3.891   0.831 -0.7897 -0.5434  1.9480
  198SOL    HW3  846   2.044   3.842   0.946  0.5808 -3.1684 -0.1419
  198SOL    MW4  847   2.030   3.850   0.861  0.3197 -0.0067  0.1310
  199SOL     OW  848   0.856   0.098   0.759 -0.1673  0.2625  0.1718
  199SOL    HW2  849   0.857   0.182   0.804 -0.3709  0.4682 -0.2104
  199SOL    HW3  850   0.768   0.063   0.774 -0.0689  0.0954  0.3686
  199SOL    MW4  851   0.845   0.104   0.767 -0.1812  0.2676  0.1473
  200SOL     OW  852   3.212   3.282   0.321  0.0561 -0.0551  0.0709
  200SOL    HW2  853   3.231   3.252   0.232 -0.5714  1.9140 -0.7549
  200SOL    HW3  854   3.233   3.376   0.319  0.5880 -0.1182  2.1569
  200SOL    MW4  855   3.217   3.291   0.309  0.0436  0.1967  0.2372
  201SOL     OW  856   0.266   1.268   0.720  0.5696 -0.0676 -0.5661
  201SOL    HW2  857   0.257   1.352   0.765  1.2099 -0.5585  0.5045
  201SOL    HW3  858   0.321   1.216   0.778  0.6986 -1.0145 -1.5243
  201SOL    MW4  859   0.272   1.272   0.734  0.6711 -0.2573 -0.5512
  202SOL     OW  860   4.051   2.443   0.731  0.6221  0.2123 -0.7463
  202SOL    HW2  861   3.977   2.388   0.757  0.5471  1.1094  0.9662
  202SOL    HW3  862   4.129   2.391   0.754  0.5476  0.2276 -0.4666
  202SOL    MW4  863   4.052   2.429   0.737  0.6022  0.3326 -0.4835
  203SOL     OW  864   3.988   0.877   0.712  0.4184  0.4730 -0.2165
  203SOL    HW2  865   3.923   0.829   0.764  1.6782 -0.2217  0.7565
  203SOL    HW3  866   3.997   0.961   0.757 -0.1278  0.7410 -0.6067
  203SOL    MW4  867   3.981   0.881   0.725  0.5124  0.4167 -0.1397
  204SOL     OW  868   1.608   3.612   0.727 -0.0381  0.0527 -0.3132
  204SOL    HW2  869   1.598   3.680   0.793 -0.6650 -0.0845 -0.2588
  204SOL    HW3  870   1.687   3.565   0.752 -0.0614  0.2479  0.1194
  204SOL    MW4  871   1.617   3.614   0.739 -0.1239  0.0603 -0.2490
  205SOL     OW  872   2.990   4.296   0.449  0.0893  0.0460 -0.1909
  205SOL    HW2  873   2.991   4.200   0.444  1.0666  0.0247  0.4016
  205SOL    HW3  874   3.082   4.321   0.453 -0.1093  1.0874 -1.5215
  205SOL    MW4  875   3.002   4.287   0.449  0.1922  0.1807 -0.2883
  206SOL     OW  876   2.449   4.663   0.795  0.4434 -0.5087 -0.1566
  206SOL    HW2  877   2.445   4.681   0.889 -0.5545 -0.5909 -0.1751
  206SOL    HW3  878   2.533   4.700   0.767  0.4282  0.1477  0.6334
  206SOL    MW4  879   2.460   4.670   0.804  0.3095 -0.4329 -0.0548
  207SOL     OW  880   3.406   2.011   0.767  0.3526  0.0851  0.0742
  207SOL    HW2  881   3.485   1.957   0.765  0.4160  0.1079  1.1945
  207SOL    HW3  882   3.339   1.954   0.806 -0.2272  0.0113 -1.0148
  207SOL    MW4  883   3.408   1.996   0.772  0.2844  0.0782  0.0783
  208SOL     OW  884   4.023   2.436   0.430 -0.1795  0.6200  0.1552
  208SOL    HW2  885   4.044   2.468   0.518 -0.1793 -1.1670  0.8245
  208SOL    HW3  886   3.928   2.435   0.427 -0.2035  2.7651 -0.6636
  208SOL    MW4  887   4.014   2.440   0.441 -0.1826  0.6673  0.1354
  209SOL     OW  888   4.058   0.531   0.123 -0.7333 -0.0860 -0.1804
  209SOL    HW2  889   4.079   0.457   0.180 -1.9466 -0.1476  0.1959
  209SOL    HW3  890   4.126   0.529   0.056  0.6266 -0.0822  1.1870
  209SOL    MW4  891   4.069   0.521   0.121 -0.7138 -0.0936  0.0497
  210SOL     OW  892   2.065   3.670   0.528 -0.6720  0.6752 -0.4432
  210SOL    HW2  893   2.058   3.632   0.616  0.6413 -0.2342 -0.7094
  210SOL    HW3  894   1.975   3.680   0.499 -1.0957 -0.5845  0.3577
  210SOL    MW4  895   2.052   3.666   0.536 -0.5548  0.3889 -0.3726
  211SOL     OW  896   3.694   2.690   0.307  0.2166  0.2420 -0.1869
  211SOL    HW2  897   3.778   2.713   0.267  0.6446 -0.3053  0.3945
  211SOL    HW3  898   3.639   2.768   0.293  1.1263  0.9828  0.2968
  211SOL    MW4  899   3.698   2.704   0.299  0.3929  0.2675 -0.0463
  212SOL     OW  900   3.138   0.357   0.853 -0.0637  0.4711 -0.0744
  212SOL    HW2  901   3.230   0.379   0.841  0.2160 -0.8728 -0.5251
  212SOL    HW3  902   3.127   0.350   0.948  0.0970  1.4358  0.0195
  212SOL    MW4  903   3.148   0.359   0.864 -0.0055  0.4211 -0.1215
  213SOL     OW  904   4.287   0.521   0.484 -0.3016 -0.1177 -0.4362
  213SOL    HW2  905   4.249   0.529   0.571 -0.0208 -0.4865 -0.2764
  213SOL    HW3  906   4.255   0.597   0.436 -1.4582 -0.5662 -0.3952
  213SOL    MW4  907   4.278   0.532   0.489 -0.4172 -0.2255 -0.4098
  214SOL     OW  908   1.078   3.928   0.381  0.0463 -0.2829  0.2435
  214SOL    HW2  909   1.082   3.834   0.399 -1.3001 -0.2401  0.8245
  214SOL    HW3  910   0.987   3.952   0.399  0.4762  1.2114  0.4825
  214SOL    MW4  911   1.066   3.919   0.386 -0.0746 -0.0801  0.3516
  215SOL     OW  912   0.243   2.878   0.449 -0.3222 -0.5651  0.2454
  215SOL    HW2  913   0.214   2.862   0.538  0.6255  1.0550  0.8829
  215SOL    HW3  914   0.338   2.889   0.457 -0.3066  0.1956 -0.8506
  215SOL    MW4  915   0.252   2.878   0.462 -0.1951 -0.2508  0.1849
  216SOL     OW  916   3.826   2.046   0.674 -0.4325  0.0448 -0.4717
  216SOL    HW2  917   3.762   2.060   0.605 -1.4140  0.1566  0.4391
  216SOL    HW3  918   3.833   2.132   0.717  1.4269  0.4117 -1.4800
  216SOL    MW4  919   3.818   2.059   0.671 -0.3169  0.1078 -0.4845
  217SOL     OW  920   1.985   4.445   0.863  0.0140 -0.2356  0.1042
  217SOL    HW2  921   2.064   4.403   0.828 -0.4715 -0.1040 -1.1689
  217SOL    HW3  922   1.920   4.375   0.865 -0.6543  0.3218 -1.5512
  217SOL    MW4  923   1.987   4.430   0.859 -0.1383 -0.1445 -0.2822
  218SOL     OW  924   1.148   2.555   0.414  0.7077  0.7509 -0.6270
  218SOL    HW2  925   1.156   2.650   0.408 -0.5275  0.9119  0.0186
  218SOL    HW3  926   1.053   2.539   0.413  0.8251 -0.2815  1.8499
  218SOL    MW4  927   1.136   2.565   0.413  0.5603  0.6359 -0.2150
  219SOL     OW  928   0.020   2.905   0.228 -0.3633  0.1904 -0.2564
  219SOL    HW2  929   0.040   2.998   0.219  0.9790 -0.1551 -1.0132
  219SOL    HW3  930   0.084   2.873   0.293 -0.3215 -0.3537 -0.5663
  219SOL    MW4  931   0.031   2.913   0.236 -0.1807  0.0730 -0.3971
  220SOL     OW  932   2.348   4.434   0.627 -0.3340 -0.5440 -0.0554
  220SOL    HW2  933   2.329   4.474   0.543  0.0922 -1.1988 -0.4673
  220SOL    HW3  934   2.396   4.502   0.675  0.0194 -0.4088 -0.5914
  220SOL    MW4  935   2.352   4.448   0.622 -0.2313 -0.6127 -0.1805
  221SOL     OW  936   0.868   2.495   0.409 -0.4035  0.3162 -0.1695
  221SOL    HW2  937   0.860   2.490   0.504 -0.8084  0.7300 -0.1806
  221SOL    HW3  938   0.884   2.405   0.382 -0.2052  0.2084  0.2989
  221SOL    MW4  939   0.869   2.483   0.418 -0.4308  0.3562 -0.1092
  222SOL     OW  940   2.704   3.530   0.252 -0.0406 -0.1259 -0.5123
  222SOL    HW2  941   2.611   3.551   0.258  0.0923  0.3661 -0.1988
  222SOL    HW3  942   2.710   3.466   0.181 -0.9450 -2.0441  1.0942
  222SOL    MW4  943   2.693   3.524   0.243 -0.1423 -0.3142 -0.2590
  223SOL     OW  944   3.213   1.127   0.859  0.0658  0.2438  0.2111
  223SOL    HW2  945   3.198   1.036   0.831 -2.8833  0.8689 -0.3742
  223SOL    HW3  946   3.191   1.128   0.952  0.3573  0.3326  0.2819
  223SOL    MW4  947   3.208   1.115   0.867 -0.2849  0.3380  0.1433
  224SOL     OW  948   3.373   2.650   0.444  0.2055 -0.1432  0.1399
  224SOL    HW2  949   3.429   2.583   0.405 -2.5404 -1.5908 -1.4834
  224SOL    HW3  950   3.291   2.604   0.465 -1.8577  2.7348 -1.2571
  224SOL    MW4  951   3.369   2.635   0.442 -0.4292  0.0455 -0.2586
  225SOL     OW  952   3.894   2.897   0.488 -0.2628 -0.1580  0.1704
  225SOL    HW2  953   3.927   2.825   0.435  0.9290  0.2923  0.2790
  225SOL    HW3  954   3.874   2.858   0.574  0.1347 -0.4003  0.1499
  225SOL    MW4  955   3.896   2.883   0.493 -0.0532 -0.1307  0.1820
  226SOL     OW  956   0.410   2.473   0.732 -0.3545  0.1700 -0.1867
  226SOL    HW2  957   0.484   2.430   0.776 -0.5899  0.4576  0.4886
  226SOL    HW3  958   0.439   2.483   0.641 -0.3321 -1.5160 -0.3889
  226SOL    MW4  959   0.424   2.469   0.726 -0.3826 -0.0145 -0.1242
  227SOL     OW  960   1.828   0.197   0.654  0.0637 -0.1462  0.1466
  227SOL    HW2  961   1.889   0.123   0.647  1.0492  0.8284 -2.2969
  227SOL    HW3  962   1.743   0.161   0.631  0.4360 -0.6781 -0.4251
  227SOL    MW4  963   1.825   0.183   0.650  0.2427 -0.0878 -0.2512
  228SOL     OW  964   0.191   2.851   0.724  0.3780 -0.0809  0.0588
  228SOL    HW2  965   0.125   2.805   0.776  0.1934  0.1779  0.0539
  228SOL    HW3  966   0.195   2.938   0.763 -0.2914  0.3533 -0.8308
  228SOL    MW4  967   0.183   2.856   0.736  0.2654  0.0105 -0.0592
  229SOL     OW  968   0.852   2.453   0.715 -0.1590  0.1575  0.0253
  229SOL    HW2  969   0.923   2.420   0.769 -0.3306  0.6607  0.5696
  229SOL    HW3  970   0.772   2.425   0.762 -0.3046  1.5988  0.6668
  229SOL    MW4  971   0.851   2.445   0.729 -0.2009  0.4137  0.1817
  230SOL     OW  972   3.934   0.882   0.441  0.1578 -0.2200 -0.0486
  230SOL    HW2  973   4.005   0.821   0.422  1.2383  1.2459 -0.7661
  230SOL    HW3  974   3.935   0.890   0.537  0.2421 -1.0479  0.0242
  230SOL    MW4  975   3.944   0.875   0.451  0.3114 -0.1358 -0.1337
  231SOL     OW  976   2.670   0.699   0.495 -0.0204  0.4879  0.3318
  231SOL    HW2  977   2.664   0.753   0.574  0.9414  0.3843  0.4784
  231SOL    HW3  978   2.583   0.660   0.487 -0.1585  0.5750  1.2861
  231SOL    MW4  979   2.658   0.701   0.504  0.0882  0.4858  0.4770
  232SOL     OW  980   4.209   3.285   0.344 -0.3805  0.4947 -0.1858
  232SOL    HW2  981   4.216   3.235   0.263  0.2273 -0.0900  0.2222
  232SOL    HW3  982   4.129   3.252   0.386 -0.4995  0.5410 -0.3762
  232SOL    MW4  983   4.199   3.274   0.339 -0.3161  0.4234 -0.1571
  233SOL     OW  984   0.419   1.857   0.303  0.1489  0.3381  0.2586
  233SOL    HW2  985   0.370   1.913   0.364 -1.7123 -1.1042  0.1475
  233SOL    HW3  986   0.351   1.809   0.255  1.6470 -0.2845 -1.2896
  233SOL    MW4  987   0.403   1.858   0.305  0.1010  0.0658  0.0397
  234SOL     OW  988   1.313   1.149   0.910  0.5230  0.5148  0.2541
  234SOL    HW2  989   1.299   1.057   0.887 -0.5143  0.5758  0.6017
  234SOL    HW3  990   1.403   1.167   0.885  0.0490  0.0203 -1.8915
  234SOL    MW4  991   1.323   1.139   0.904  0.3238  0.4575  0.0170
  235SOL     OW  992   3.656   3.004   0.368 -0.5034 -0.0192  0.1409
  235SOL    HW2  993   3.673   3.096   0.389  1.9441 -0.1459 -1.0525
  235SOL    HW3  994   3.734   2.958   0.400 -1.4146 -1.5932  0.1369
  235SOL    MW4  995   3.669   3.010   0.375 -0.3006 -0.2434 -0.0171
  236SOL     OW  996   0.546   2.846   0.422 -0.5823 -0.0924 -0.1381
  236SOL    HW2  997   0.564   2.764   0.376  0.7579  0.2754 -0.3129
  236SOL    HW3  998   0.575   2.830   0.511  0.2170  0.3643 -0.3089
  236SOL    MW4  999   0.553   2.833   0.427 -0.3000  0.0162 -0.1837
  237SOL     OW 1000   1.805   1.170   0.856  0.0632 -0.0905  0.5359
  237SOL    HW2 1001   1.798   1.082   0.821 -1.8200  0.9176 -1.7220
  237SOL    HW3 1002   1.894   1.199   0.832 -0.6172 -0.0217 -2.0432
  237SOL    MW4 1003   1.816   1.162   0.849 -0.2751  0.0516 -0.1023
  238SOL     OW 1004   0.359   4.045   0.524  0.5940 -0.3177 -0.2798
  238SOL    HW2 1005   0.373   4.017   0.614 -1.0714 -0.0023  0.0919
  238SOL    HW3 1006   0.293   3.986   0.490 -0.1482  0.7391 -0.7015
  238SOL    MW4 1007   0.352   4.034   0.531  0.2763 -0.1364 -0.2863
  239SOL     OW 1008   4.487   4.048   0.728  0.4661 -0.2509 -0.3133
  239SOL    HW2 1009   4.480   4.007   0.642 -1.1251 -1.4147  0.3217
  239SOL    HW3 1010   4.548   3.992   0.776  1.7078  0.6585 -0.8121
  239SOL    MW4 1011   4.494   4.035   0.723  0.4201 -0.2842 -0.2954
  240SOL     OW 1012   2.969   1.242   0.757 -0.5086  0.4632 -0.2854
  240SOL    HW2 1013   3.041   1.191   0.795 -0.5581 -1.2787 -2.4706
  240SOL    HW3 1014   2.995   1.257   0.666 -2.5194  0.5414 -0.8662
  240SOL    MW4 1015   2.982   1.237   0.750 -0.7803  0.2437 -0.6503
  241SOL     OW 1016   2.065   1.254   0.789  0.0630  0.1805 -0.4253
  241SOL    HW2 1017   2.057   1.347   0.811 -1.8170  0.0311 -0.3660
  241SOL    HW3 1018   2.057   1.252   0.693 -2.4286 -0.1114 -0.2533
  241SOL    MW4 1019   2.063   1.266   0.779 -0.5138  0.1223 -0.3948
  242SOL     OW 1020   4.456   2.594   0.565  0.3236 -0.3576 -0.0866
  242SOL    HW2 1021   4.525   2.594   0.499  1.1107 -0.5860  0.7216
  242SOL    HW3 1022   4.438   2.686   0.581  0.5637 -0.2937 -0.1785
  242SOL    MW4 1023   4.463   2.606   0.558  0.4592 -0.3791  0.0079
  243SOL     OW 1024   0.163   0.521   0.766 -0.0777  0.0948  0.6256
  243SOL    HW2 1025   0.167   0.504   0.672 -1.1213  0.1943  0.5598
  243SOL    HW3 1026   0.242   0.479   0.801  0.3799  0.1745 -0.3097
  243SOL    MW4 1027   0.174   0.513   0.759 -0.1550  0.1184  0.4935
  244SOL     OW 1028   0.167   0.014   0.899 -0.2544 -0.0876  0.0875
  244SOL    HW2 1029   0.099   0.050   0.843 -0.9097 -0.3941  0.6790
  244SOL    HW3 1030   0.182  -0.074   0.866 -0.7540 -0.3259  0.4815
  244SOL    MW4 1031   0.160   0.007   0.888 -0.4067 -0.1597  0.2176
  245SOL     OW 1032   4.412   0.393   0.831  0.2545 -0.0070 -0.1920
  245SOL    HW2 1033   4.488   0.450   0.818  0.7161 -0.4174  0.6846
  245SOL    HW3 1034   4.403   0.387   0.926 -1.5646  0.9479 -0.2875
  245SOL    MW4 1035   4.421   0.400   0.841  0.0749  0.0648 -0.0889
  246SOL     OW 1036   1.320   4.069   0.451  0.1669 -0.0255 -0.2086
  246SOL    HW2 1037   1.234   4.048   0.414 -0.1817  0.9548  0.0136
  246SOL    HW3 1038   1.348   4.147   0.404  0.6273  0.0560  0.1959
  246SOL    MW4 1039   1.312   4.076   0.440  0.1816  0.1149 -0.1259
  247SOL     OW 1040   3.503   3.682   0.634  0.4471  0.5032 -0.4151
  247SOL    HW2 1041   3.412   3.666   0.607  0.2841  1.0241 -0.1721
  247SOL    HW3 1042   3.516   3.776   0.622  0.8629  0.4790 -0.1705
  247SOL    MW4 1043   3.492   3.692   0.629  0.4807  0.5689 -0.3508
  248SOL     OW 1044   4.046   1.142   0.838  0.0321  0.6294 -0.2224
  248SOL    HW2 1045   4.125   1.187   0.809  0.7001 -0.5145 -0.2097
  248SOL    HW3 1046   4.033   1.171   0.928  0.7872  0.3575 -0.0217
  248SOL    MW4 1047   4.055   1.152   0.846  0.2198  0.4425 -0.1943
  249SOL     OW 1048   4.319   1.423   0.131 -0.3627 -0.7183  0.0315
  249SOL    HW2 1049   4.276   1.464   0.206  1.5106  0.1936  0.6446
  249SOL    HW3 1050   4.258   1.355   0.102 -1.9600  0.1971  1.1783
  249SOL    MW4 1051   4.305   1.420   0.137 -0.3262 -0.4772  0.2637
  250SOL     OW 1052   3.909   0.243   0.445  0.3766  0.3568  0.5351
  250SOL    HW2 1053   3.941   0.197   0.523 -0.0157 -1.3728 -0.3113
  250SOL    HW3 1054   3.988   0.257   0.392  0.3448 -0.3283  0.2968
  250SOL    MW4 1055   3.924   0.239   0.448  0.3209  0.0382  0.3920
  251SOL     OW 1056   3.414   2.920   0.488  0.2362  0.4674 -0.4244
  251SOL    HW2 1057   3.399   2.830   0.461  1.7322  0.4568 -1.2959
  251SOL    HW3 1058   3.497   2.944   0.446  0.8559  1.5945  1.3782
  251SOL    MW4 1059   3.423   2.911   0.479  0.5155  0.6146 -0.3016
  252SOL     OW 1060   0.381   3.246   0.484  0.2890  0.0888 -0.0525
  252SOL    HW2 1061   0.383   3.332   0.443 -2.0429  1.2483  2.1412
  252SOL    HW3 1062   0.315   3.197   0.436 -3.0124  1.7070  2.6651
  252SOL    MW4 1063   0.373   3.251   0.473 -0.4542  0.4554  0.5955
  253SOL     OW 1064   2.555   2.412   0.316  0.5014  0.1905  0.4884
  253SOL    HW2 1065   2.583   2.495   0.278  0.0050  0.4520  0.6995
  253SOL    HW3 1066   2.480   2.385   0.262  0.0540  0.3585  1.0192
  253SOL    MW4 1067   2.549   2.419   0.304  0.3765  0.2472  0.5863
  254SOL     OW 1068   2.430   0.306   0.303 -0.1903 -0.2847 -0.5176
  254SOL    HW2 1069   2.346   0.265   0.323 -0.2708  0.1268 -0.0007
  254SOL    HW3 1070   2.490   0.233   0.287  0.1466 -0.6730  2.3138
  254SOL    MW4 1071   2.427   0.291   0.303 -0.1566 -0.2816 -0.0758
  255SOL     OW 1072   0.197   2.318   0.852  0.0690  0.0138  0.4954
  255SOL    HW2 1073   0.226   2.324   0.943 -0.4494 -0.5314  0.6980
  255SOL    HW3 1074   0.269   2.357   0.802  0.2227  0.5917  1.1579
  255SOL    MW4 1075   0.210   2.324   0.858  0.0209  0.0179  0.6096
  256SOL     OW 1076   4.486   1.904   0.823 -0.1863  0.3820 -0.0672
  256SOL    HW2 1077   4.490   1.819   0.777  0.9765 -0.3764  1.3746
  256SOL    HW3 1078   4.418   1.953   0.777 -0.8262 -1.3074 -0.9869
  256SOL    MW4 1079   4.478   1.899   0.811 -0.1178  0.0591  0.0017
  257SOL     OW 1080   0.030   2.709   0.897  0.1721 -0.1725  0.4234
  257SOL    HW2 1081   0.013   2.716   0.991 -0.7099  0.5960  0.2215
  257SOL    HW3 1082   0.008   2.619   0.875 -0.5919 -0.0778  0.7791
  257SOL    MW4 1083   0.025   2.698   0.906 -0.0451 -0.0587  0.4437
  258SOL     OW 1084   4.376   3.658   0.456 -0.1214  0.3889 -0.1974
  258SOL    HW2 1085   4.373   3.754   0.447 -0.1436  0.1365 -3.4152
  258SOL    HW3 1086   4.295   3.628   0.415  0.5505 -1.1143 -0.4598
  258SOL    MW4 1087   4.365   3.667   0.450 -0.0358  0.1574 -0.6565
  259SOL     OW 1088   0.221   3.112   0.831 -0.4151 -0.6193 -0.0608
  259SOL    HW2 1089   0.232   3.121   0.926 -0.5693 -0.9968 -0.0060
  259SOL    HW3 1090   0.300   3.150   0.794 -0.7835  0.4106  0.1869
  259SOL    MW4 1091   0.233   3.118   0.839 -0.4840 -0.5331 -0.0210
  260SOL     OW 1092   3.641   1.856   0.791  0.5538 -0.2696  0.0191
  260SOL    HW2 1093   3.634   1.782   0.731  0.6054 -0.2147 -0.0544
  260SOL    HW3 1094   3.705   1.914   0.750 -1.0902  0.8500 -0.9994
  260SOL    MW4 1095   3.648   1.853   0.778  0.3438 -0.1146 -0.1251
  261SOL     OW 1096   4.465   3.470   0.886  0.2801  0.1481 -0.0945
  261SOL    HW2 1097   4.396   3.533   0.867  0.7348  1.6535  2.9408
  261SOL    HW3 1098   4.544   3.508   0.848 -0.1070 -0.4618 -1.5510
  261SOL    MW4 1099   4.467   3.483   0.879  0.2890  0.2663  0.1138
  262SOL     OW 1100   3.589   1.169   0.805  0.6226  0.2045 -0.0772
  262SOL    HW2 1101   3.516   1.218   0.766  0.0332  0.1634  0.9231
  262SOL    HW3 1102   3.565   1.164   0.898  1.4850 -0.5714  0.0983
  262SOL    MW4 1103   3.576   1.175   0.812  0.6588  0.0966  0.0780
  263SOL     OW 1104   1.014   1.792   0.334  0.0244 -0.5315  0.4629
  263SOL    HW2 1105   1.109   1.800   0.347  0.2121 -0.4971 -0.8610
  263SOL    HW3 1106   0.994   1.856   0.266 -0.7542 -1.4354 -0.1673
  263SOL    MW4 1107   1.024   1.802   0.327 -0.0535 -0.6462  0.2051
  264SOL     OW 1108   0.172   3.867   0.864  0.0729 -0.3271  0.3001
  264SOL    HW2 1109   0.168   3.867   0.959 -0.1554 -1.8521  0.2961
  264SOL    HW3 1110   0.257   3.906   0.843  0.3886 -0.5685  1.1314
  264SOL    MW4 1111   0.182   3.872   0.874  0.0844 -0.5600  0.4093
  265SOL     OW 1112   4.460   4.308   0.852  0.4118  0.0444  0.8051
  265SOL    HW2 1113   4.459   4.222   0.809 -1.3602 -0.3261  1.5177
  265SOL    HW3 1114   4.456   4.289   0.945 -1.1167  0.8802  0.9400
  265SOL    MW4 1115   4.459   4.294   0.858 -0.0238  0.1059  0.9169
  266SOL     OW 1116   0.799   4.035   0.439 -0.0431 -0.2310 -0.0048
  266SOL    HW2 1117   0.807   4.017   0.533 -0.6020 -0.4169  0.0079
  266SOL    HW3 1118   0.738   3.968   0.407  0.8763 -0.7711 -0.6730
  266SOL    MW4 1119   0.792   4.023   0.447  0.0044 -0.3276 -0.0913
  267SOL     OW 1120   0.594   0.009   0.807  0.3887  0.8600  0.1632
  267SOL    HW2 1121   0.500   0.025   0.802 -0.1572 -1.9916  0.4159
  267SOL    HW3 1122   0.616   0.023   0.899 -0.1492 -0.2421  0.4639
  267SOL    MW4 1123   0.585   0.013   0.818  0.2456  0.3386  0.2363
  268SOL     OW 1124   2.700   3.718   0.576 -0.8314 -0.2827  0.0427
  268SOL    HW2 1125   2.756   3.753   0.507 -0.7379 -1.2079 -0.3655
  268SOL    HW3 1126   2.612   3.723   0.540 -0.5972 -2.5855 -0.9702
  268SOL    MW4 1127   2.696   3.723   0.562 -0.7882 -0.7088 -0.1447
  269SOL     OW 1128   0.627   0.815   0.395 -0.5141 -0.0925 -0.4163
  269SOL    HW2 1129   0.633   0.731   0.441 -0.7106  1.1334  1.9458
  269SOL    HW3 1130   0.620   0.792   0.303  0.3741 -2.6422  0.1251
  269SOL    MW4 1131   0.627   0.801   0.389 -0.4228 -0.2671 -0.0332
  270SOL     OW 1132   1.560   2.500   0.353  0.0798 -0.5376 -0.1108
  270SOL    HW2 1133   1.635   2.484   0.411  0.7243  0.6142 -0.6036
  270SOL    HW3 1134   1.594   2.481   0.266 -0.5214 -1.0213 -0.2440
  270SOL    MW4 1135   1.575   2.495   0.349  0.0854 -0.4497 -0.1934
  271SOL     OW 1136   0.672   0.528   0.767 -0.3996 -0.1319  0.2349
  271SOL    HW2 1137   0.677   0.613   0.809 -2.8476 -0.5461  1.4844
  271SOL    HW3 1138   0.745   0.478   0.804  0.5456  1.1510  0.1108
  271SOL    MW4 1139   0.682   0.532   0.777 -0.5980 -0.0173  0.3833
  272SOL     OW 1140   0.019   1.162   0.820 -0.3154 -0.1545  0.0073
  272SOL    HW2 1141   0.092   1.214   0.787 -0.1587 -0.8666 -0.8054
  272SOL    HW3 1142   0.025   1.168   0.915  1.9502 -1.7478  0.0049
  272SOL    MW4 1143   0.029   1.170   0.828  0.0043 -0.4588 -0.1002
  273SOL     OW 1144   0.872   0.910   0.784  0.4912 -0.3549 -0.3309
  273SOL    HW2 1145   0.890   0.986   0.839  0.2643 -0.8289  0.4041
  273SOL    HW3 1146   0.853   0.946   0.698 -0.0094  0.4393  0.1138
  273SOL    MW4 1147   0.872   0.925   0.780  0.3952 -0.3127 -0.1753
  274SOL     OW 1148   2.286   1.929   0.865  0.0697  0.0541 -0.0223
  274SOL    HW2 1149   2.375   1.963   0.869  0.1526 -0.1768  0.1164
  274SOL    HW3 1150   2.297   1.836   0.845 -0.1097 -0.1498  0.8013
  274SOL    MW4 1151   2.299   1.921   0.863  0.0570 -0.0033  0.1047
  275SOL     OW 1152   0.501   2.207   0.414 -0.1882  0.3237  0.0319
  275SOL    HW2 1153   0.560   2.165   0.477 -1.5679 -0.6664  0.7110
  275SOL    HW3 1154   0.529   2.174   0.329  0.0462 -0.3769  0.3749
  275SOL    MW4 1155   0.513   2.197   0.411 -0.3394  0.1006  0.1668
  276SOL     OW 1156   0.216   1.538   0.809 -0.5878  0.0483  0.0665
  276SOL    HW2 1157   0.142   1.588   0.775 -0.1321  0.6160 -0.0851
  276SOL    HW3 1158   0.293   1.580   0.772 -0.2377 -1.3231 -0.7863
  276SOL    MW4 1159   0.216   1.550   0.800 -0.4815 -0.0577 -0.0660
  277SOL     OW 1160   0.812   1.015   0.514 -0.1260 -0.2041  0.2189
  277SOL    HW2 1161   0.767   0.944   0.468 -1.3184 -0.3282  1.5337
  277SOL    HW3 1162   0.753   1.090   0.507  0.6057  0.3478 -0.1768
  277SOL    MW4 1163   0.798   1.016   0.507 -0.1868 -0.1478  0.3402
  278SOL     OW 1164   1.101   4.397   0.781 -0.5154 -0.1148  0.4714
  278SOL    HW2 1165   1.183   4.350   0.797 -0.4670 -0.4033 -0.5888
  278SOL    HW3 1166   1.106   4.422   0.689  0.0980  3.1474  1.3210
  278SOL    MW4 1167   1.113   4.394   0.771 -0.4282  0.2780  0.4436
  279SOL     OW 1168   0.622   2.343   0.864 -0.3517  0.8760 -0.1959
  279SOL    HW2 1169   0.622   2.249   0.843  1.2846  1.0059 -0.8658
  279SOL    HW3 1170   0.660   2.347   0.951 -0.3598  0.9243 -0.1950
  279SOL    MW4 1171   0.627   2.331   0.873 -0.1369  0.8996 -0.2841
  280SOL     OW 1172   0.910   2.739   0.796 -0.2459  0.4178 -0.6832
  280SOL    HW2 1173   0.898   2.740   0.891 -1.8989  0.9080 -0.8880
  280SOL    HW3 1174   0.904   2.646   0.772  3.7956 -0.1163  0.1003
  280SOL    MW4 1175   0.908   2.727   0.805  0.0692  0.4122 -0.6068
  281SOL     OW 1176   1.334   0.954   0.520  0.0224 -0.0658  0.6260
  281SOL    HW2 1177   1.327   0.884   0.455  0.1101  0.9135 -0.4454
  281SOL    HW3 1178   1.258   1.009   0.504  0.9200  1.0803  0.2762
  281SOL    MW4 1179   1.323   0.952   0.509  0.1523  0.2145  0.4385
  282SOL     OW 1180   2.870   4.638   0.823 -0.0050 -0.0396 -0.1546
  282SOL    HW2 1181   2.949   4.685   0.798 -0.2458 -0.5447 -1.9294
  282SOL    HW3 1182   2.878   4.553   0.781 -0.2392 -1.1096  1.8765
  282SOL    MW4 1183   2.881   4.633   0.814 -0.0675 -0.2475 -0.1208
  283SOL     OW 1184   1.313   4.234   0.855  0.4094 -0.7385  0.3768
  283SOL    HW2 1185   1.402   4.269   0.858  0.3471 -0.6107  0.7523
  283SOL    HW3 1186   1.322   4.152   0.806  0.4324  0.1299 -1.0876
  283SOL    MW4 1187   1.326   4.228   0.849  0.4042 -0.6065  0.2331
  284SOL     OW 1188   0.401   3.476   0.879  0.1424  0.2356 -0.5464
  284SOL    HW2 1189   0.424   3.477   0.972  1.4026  1.0799 -0.8506
  284SOL    HW3 1190   0.466   3.533   0.838 -0.5927  0.1110 -1.9048
  284SOL    MW4 1191   0.413   3.483   0.886  0.2117  0.3307 -0.7657
  285SOL     OW 1192   2.267   4.543   0.375 -0.2813  0.5275 -0.1236
  285SOL    HW2 1193   2.256   4.638   0.370  0.8604  0.7395  1.0210
  285SOL    HW3 1194   2.325   4.522   0.301 -0.0881  0.7958 -0.0504
  285SOL    MW4 1195   2.273   4.553   0.364 -0.1054  0.5908  0.0370
  286SOL     OW 1196   1.788   0.903   0.294 -0.1755  0.6100  0.4055
  286SOL    HW2 1197   1.712   0.848   0.314 -0.6243  1.1737  0.2444
  286SOL    HW3 1198   1.790   0.967   0.365 -0.3614  1.1308 -0.0562
  286SOL    MW4 1199   1.778   0.904   0.306 -0.2593  0.7531  0.3234
  287SOL     OW 1200   4.240   3.892   0.803  0.1106  0.2721 -0.6131
  287SOL    HW2 1201   4.239   3.893   0.899  1.0091  1.3913 -0.6079
  287SOL    HW3 1202   4.313   3.949   0.779  0.1826 -0.3739 -1.9622
  287SOL    MW4 1203   4.249   3.900   0.813  0.2379  0.3343 -0.7904
  288SOL     OW 1204   1.818   1.655   0.762 -0.2296 -0.3476 -0.0490
  288SOL    HW2 1205   1.903   1.622   0.793 -0.1486 -1.2645 -1.2451
  288SOL    HW3 1206   1.820   1.642   0.668 -1.7310 -0.4021 -0.0740
  288SOL    MW4 1207   1.830   1.649   0.754 -0.4170 -0.4756 -0.2101
  289SOL     OW 1208   0.437   4.257   0.864  0.4996  0.3074 -0.6637
  289SOL    HW2 1209   0.435   4.257   0.959  1.9397 -0.1998 -0.6252
  289SOL    HW3 1210   0.519   4.302   0.841  0.2642  0.2517 -1.6505
  289SOL    MW4 1211   0.448   4.263   0.873  0.6586  0.2337 -0.7888
  290SOL     OW 1212   3.554   4.572   0.419  0.2495  0.1230  0.6068
  290SOL    HW2 1213   3.559   4.487   0.374 -1.9320  0.5017 -0.4334
  290SOL    HW3 1214   3.621   4.626   0.378  0.1126 -0.4025 -0.3244
  290SOL    MW4 1215   3.564   4.568   0.407 -0.0565  0.1035  0.3467
  291SOL     OW 1216   2.424   0.560   0.474 -0.5116  0.4341  0.1076
  291SOL    HW2 1217   2.438   0.494   0.405 -1.2487  1.5542 -1.1346
  291SOL    HW3 1218   2.330   0.576   0.473 -0.3487  1.4400  0.4773
  291SOL    MW4 1219   2.413   0.553   0.465 -0.5875  0.7145 -0.0075
  292SOL     OW 1220   4.233   0.788   0.834  0.4246 -0.6182 -0.0049
  292SOL    HW2 1221   4.169   0.844   0.789  0.7538  1.3360  1.8255
  292SOL    HW3 1222   4.318   0.817   0.801  0.5167 -1.0080 -0.1068
  292SOL    MW4 1223   4.236   0.799   0.824  0.4802 -0.4117  0.2232
  293SOL     OW 1224   0.415   0.419   0.846  0.3710  0.1081  0.1673
  293SOL    HW2 1225   0.400   0.329   0.815 -1.1940  0.9351 -1.5077
  293SOL    HW3 1226   0.500   0.442   0.809  0.0834 -0.1515 -0.6851
  293SOL    MW4 1227   0.424   0.410   0.837  0.1266  0.1830 -0.1662
  294SOL     OW 1228   0.664   1.506   0.848 -0.2001 -0.3240  0.4431
  294SOL    HW2 1229   0.735   1.562   0.816 -0.4582  0.3451  1.0117
  294SOL    HW3 1230   0.669   1.513   0.943 -1.3410  0.1395  0.4790
  294SOL    MW4 1231   0.674   1.515   0.856 -0.3847 -0.1745  0.5229
  295SOL     OW 1232   0.995   1.560   0.488 -0.0843 -0.4140  0.1671
  295SOL    HW2 1233   0.975   1.590   0.576  0.5730  0.0791  0.1612
  295SOL    HW3 1234   1.017   1.641   0.440 -0.0195 -0.7197 -0.3242
  295SOL    MW4 1235   0.995   1.575   0.493  0.0110 -0.3893  0.1015
  296SOL     OW 1236   1.355   0.652   0.224 -0.2527 -0.3597 -0.2197
  296SOL    HW2 1237   1.276   0.696   0.256  1.3237  0.8524  2.0719
  296SOL    HW3 1238   1.371   0.691   0.138 -1.0544  0.7381  0.1244
  296SOL    MW4 1239   1.346   0.663   0.217 -0.1504 -0.0549  0.1281
  297SOL     OW 1240   0.473   1.645   0.734  0.0993  0.2180 -0.3644
  297SOL    HW2 1241   0.461   1.721   0.791 -1.6006 -0.0340 -0.3691
  297SOL    HW3 1242   0.543   1.594   0.776 -0.9721  0.1438  1.3963
  297SOL    MW4 1243   0.481   1.648   0.747 -0.2663  0.1749 -0.1328
  298SOL     OW 1244   0.770   1.830   0.512  0.0812 -0.0264  0.4966
  298SOL    HW2 1245   0.704   1.767   0.481 -0.3637  0.5392  0.2956
  298SOL    HW3 1246   0.837   1.829   0.445 -0.8293  1.1135 -0.4480
  298SOL    MW4 1247   0.770   1.821   0.499 -0.0976  0.1987  0.3454
  299SOL     OW 1248   1.132   1.592   0.819 -0.7424  0.4397 -0.1864
  299SOL    HW2 1249   1.051   1.636   0.793 -1.7216 -0.5464  1.1210
  299SOL    HW3 1250   1.115   1.499   0.804  0.6993  0.3368 -1.3245
  299SOL    MW4 1251   1.119   1.585   0.814 -0.6814  0.2961 -0.1640
  300SOL     OW 1252   0.429   0.898   0.746  0.1647 -0.1406 -0.2683
  300SOL    HW2 1253   0.416   0.922   0.654  0.6688 -1.6901 -0.7654
  300SOL    HW3 1254   0.344   0.864   0.775  0.3970 -1.0368 -0.6114
  300SOL    MW4 1255   0.416   0.897   0.738  0.2619 -0.4634 -0.3791
  301SOL     OW 1256   2.505   1.074   0.347  0.0659  0.1013  0.2671
  301SOL    HW2 1257   2.516   1.159   0.390 -0.7153 -0.1623  1.0252
  301SOL    HW3 1258   2.421   1.042   0.380 -0.2935 -0.3608 -1.0583
  301SOL    MW4 1259   2.495   1.081   0.357 -0.0846  0.0056  0.1922
  302SOL     OW 1260   2.728   4.438   0.346  0.4673  0.0746  0.2035
  302SOL    HW2 1261   2.687   4.387   0.416 -1.1347 -0.3389 -0.9954
  302SOL    HW3 1262   2.809   4.392   0.326  0.0691 -0.8020  0.5913
  302SOL    MW4 1263   2.733   4.426   0.352  0.2034 -0.0958  0.0965
  303SOL     OW 1264   3.727   1.553   0.431  0.1897 -0.0915  0.4634
  303SOL    HW2 1265   3.743   1.462   0.453 -0.2715 -0.6820 -1.5469
  303SOL    HW3 1266   3.814   1.590   0.419  0.3362 -0.6941 -0.3536
  303SOL    MW4 1267   3.740   1.546   0.432  0.1481 -0.2489  0.0904
  304SOL     OW 1268   3.482   0.688   0.362  0.2961 -0.1750 -0.2747
  304SOL    HW2 1269   3.578   0.689   0.370  0.2576 -0.6110  0.2566
  304SOL    HW3 1270   3.464   0.608   0.312  0.1864 -0.2542 -0.1052
  304SOL    MW4 1271   3.492   0.678   0.356  0.2766 -0.2430 -0.1823
  305SOL     OW 1272   1.374   2.704   0.838 -0.1952 -0.2840  0.3048
  305SOL    HW2 1273   1.375   2.690   0.933  2.5452 -0.1588  0.3289
  305SOL    HW3 1274   1.366   2.616   0.801 -0.6531 -0.3873  0.6401
  305SOL    MW4 1275   1.373   2.690   0.846  0.1060 -0.2811  0.3522
  306SOL     OW 1276   3.747   0.067   0.298  0.0204  0.1107  0.2116
  306SOL    HW2 1277   3.790   0.122   0.363  0.2877  0.8172 -0.5583
  306SOL    HW3 1278   3.698   0.128   0.244 -0.7720 -0.5465  0.1744
  306SOL    MW4 1279   3.746   0.082   0.300 -0.0489  0.1172  0.1051
  307SOL     OW 1280   3.150   2.484   0.535  0.0783 -0.1614 -0.0359
  307SOL    HW2 1281   3.171   2.488   0.628  0.1877 -1.3324 -0.0034
  307SOL    HW3 1282   3.143   2.390   0.516 -1.7305  0.1105 -0.7999
  307SOL    MW4 1283   3.152   2.472   0.545 -0.1459 -0.2801 -0.1324
  308SOL     OW 1284   0.676   3.875   0.858  0.4170 -0.1287  0.1032
  308SOL    HW2 1285   0.747   3.906   0.802  1.1437 -0.5777  0.7617
  308SOL    HW3 1286   0.668   3.782   0.836  0.0541 -0.0856  0.0534
  308SOL    MW4 1287   0.684   3.867   0.848  0.4650 -0.1824  0.1835
  309SOL     OW 1288   3.547   0.317   0.472 -0.0424 -0.0831  0.0673
  309SOL    HW2 1289   3.578   0.314   0.381  0.7589  0.0083  0.3348
  309SOL    HW3 1290   3.466   0.368   0.467  0.5201  0.7874 -0.4534
  309SOL    MW4 1291   3.541   0.323   0.459  0.1373  0.0438  0.0339
  310SOL     OW 1292   1.346   3.502   0.543 -0.0806  0.5710 -0.7072
  310SOL    HW2 1293   1.360   3.502   0.637  0.0379 -1.3370 -0.7045
  310SOL    HW3 1294   1.417   3.556   0.507  0.3735  0.5923  0.2203
  310SOL    MW4 1295   1.357   3.509   0.550 -0.0050  0.3221 -0.5845
  311SOL     OW 1296   1.293   0.089   0.729  0.0368  0.5877  0.4552
  311SOL    HW2 1297   1.211   0.057   0.766 -0.2817  0.7442 -0.1159
  311SOL    HW3 1298   1.280   0.084   0.634  1.1534 -0.6362  0.3491
  311SOL    MW4 1299   1.281   0.084   0.721  0.1421  0.4469  0.3659
  312SOL     OW 1300   0.865   3.504   0.831  0.2331  0.5410  0.1939
  312SOL    HW2 1301   0.877   3.413   0.803  1.5689  0.5002  0.8467
  312SOL    HW3 1302   0.950   3.544   0.816  0.3063  1.0954  2.0551
  312SOL    MW4 1303   0.878   3.497   0.825  0.4190  0.6084  0.5257
  313SOL     OW 1304   0.894   4.243   0.849 -0.9619  0.2517 -0.3842
  313SOL    HW2 1305   0.825   4.309   0.859 -0.6500  0.5214  0.0287
  313SOL    HW3 1306   0.971   4.294   0.825 -0.0852  0.3475  2.4253
  313SOL    MW4 1307   0.895   4.258   0.847 -0.8051  0.2995  0.0410
  314SOL     OW 1308   4.470   1.614   0.423  0.4436  0.5896  0.1179
  314SOL    HW2 1309   4.475   1.702   0.385  1.3268  0.8550  0.8469
  314SOL    HW3 1310   4.522   1.560   0.364  0.8023  0.7665  0.2704
  314SOL    MW4 1311   4.478   1.619   0.410  0.6070  0.6480  0.2342
  315SOL     OW 1312   1.804   0.377   0.876 -0.1012  0.1621 -0.3164
  315SOL    HW2 1313   1.808   0.316   0.803 -0.7808 -0.2559 -0.0078
  315SOL    HW3 1314   1.872   0.442   0.857  0.5332 -0.6076 -0.7121
  315SOL    MW4 1315   1.813   0.378   0.864 -0.1073  0.0054 -0.3279
  316SOL     OW 1316   3.192   1.847   0.854  0.0999 -0.1609  0.0007
  316SOL    HW2 1317   3.160   1.842   0.944 -0.4841 -1.8881 -0.2879
  316SOL    HW3 1318   3.223   1.759   0.834  1.1013  0.4430 -1.1741
  316SOL    MW4 1319   3.192   1.835   0.863  0.1547 -0.3092 -0.1923
  317SOL     OW 1320   0.913   4.301   0.397  0.4851  0.2580  0.0181
  317SOL    HW2 1321   0.836   4.301   0.340  1.4754  0.5581 -1.3542
  317SOL    HW3 1322   0.908   4.218   0.444 -0.6422  0.2426 -0.1099
  317SOL    MW4 1323   0.902   4.290   0.396  0.4670  0.2956 -0.1799
  318SOL     OW 1324   0.920   3.250   0.721 -0.2105  0.0778 -0.0184
  318SOL    HW2 1325   0.844   3.197   0.743  0.3469 -1.0454 -0.7586
  318SOL    HW3 1326   0.991   3.214   0.774  0.3742 -0.5231 -1.1827
  318SOL    MW4 1327   0.920   3.238   0.731 -0.0597 -0.1495 -0.2696
  319SOL     OW 1328   3.597   0.339   0.880 -0.3563 -0.0830 -0.0075
  319SOL    HW2 1329   3.521   0.397   0.868 -0.2662  0.1495  0.5046
  319SOL    HW3 1330   3.596   0.319   0.974 -0.0197 -0.4043 -0.0743
  319SOL    MW4 1331   3.587   0.344   0.891 -0.2999 -0.0947  0.0513
  320SOL     OW 1332   1.772   4.082   0.529 -0.0440 -0.4079 -0.3789
  320SOL    HW2 1333   1.708   4.147   0.557 -0.2763 -0.6755 -0.2900
  320SOL    HW3 1334   1.725   4.026   0.467 -0.3186 -1.5056  0.8109
  320SOL    MW4 1335   1.757   4.083   0.524 -0.1109 -0.5879 -0.2102
  321SOL     OW 1336   2.463   1.260   0.776 -0.6741  0.2040 -0.0365
  321SOL    HW2 1337   2.401   1.205   0.825  0.1459 -0.7655 -0.0696
  321SOL    HW3 1338   2.549   1.220   0.793 -0.0965  1.3480 -0.2517
  321SOL    MW4 1339   2.466   1.247   0.785 -0.4897  0.2271 -0.0693
  322SOL     OW 1340   0.694   0.560   0.494 -0.4731 -0.5403 -0.0300
  322SOL    HW2 1341   0.679   0.468   0.470 -2.8072 -0.1586 -0.0895
  322SOL    HW3 1342   0.692   0.560   0.590 -0.3874 -0.5623 -0.0282
  322SOL    MW4 1343   0.692   0.548   0.504 -0.7698 -0.4929 -0.0377
  323SOL     OW 1344   1.338   0.850   0.785 -0.2013 -0.4163  0.2626
  323SOL    HW2 1345   1.254   0.804   0.792  0.1624 -1.1446 -0.0894
  323SOL    HW3 1346   1.339   0.885   0.696 -0.2979 -0.0820  0.3935
  323SOL    MW4 1347   1.327   0.849   0.774 -0.1662 -0.4683  0.2334
  324SOL     OW 1348   4.415   2.538   0.217 -0.0780  0.0351  0.2343
  324SOL    HW2 1349   4.384   2.455   0.253 -0.0969 -0.5562 -1.1187
  324SOL    HW3 1350   4.505   2.546   0.250  0.7081 -1.6335 -1.4343
  324SOL    MW4 1351   4.423   2.528   0.226  0.0234 -0.2630 -0.1644
  325SOL     OW 1352   0.903   1.918   0.861  0.2465  0.0840 -0.0319
  325SOL    HW2 1353   0.904   1.935   0.955  0.8398 -1.6783  0.3114
  325SOL    HW3 1354   0.973   1.973   0.826 -0.2226  1.0293  0.5040
  325SOL    MW4 1355   0.913   1.927   0.869  0.2629 -0.0238  0.0841
  326SOL     OW 1356   0.399   0.942   0.481 -0.4766 -0.6524  0.2737
  326SOL    HW2 1357   0.407   1.034   0.456 -1.3883 -0.6388  0.0235
  326SOL    HW3 1358   0.481   0.902   0.451 -0.1194  0.0518  0.2973
  326SOL    MW4 1359   0.411   0.949   0.474 -0.5498 -0.5577  0.2438
  327SOL     OW 1360   3.576   4.346   0.822  0.1705  0.2108 -0.5947
  327SOL    HW2 1361   3.653   4.367   0.771 -0.2787  2.6422 -0.3426
  327SOL    HW3 1362   3.529   4.429   0.831 -0.4281 -0.4022  2.6278
  327SOL    MW4 1363   3.580   4.360   0.817  0.0322  0.4506 -0.1363
  328SOL     OW 1364   3.921   3.994   0.443  0.1954  0.2440  0.4203
  328SOL    HW2 1365   3.846   4.047   0.472 -0.4036 -1.0012  1.1597
  328SOL    HW3 1366   3.892   3.904   0.454  0.9854 -0.2612 -1.4163
  328SOL    MW4 1367   3.907   3.989   0.448  0.2205  0.0129  0.2755
  329SOL     OW 1368   2.686   4.013   0.467  0.4389 -0.1928 -0.3799
  329SOL    HW2 1369   2.779   4.019   0.446  0.1690 -0.2706 -1.6039
  329SOL    HW3 1370   2.660   4.102   0.488  1.1041 -0.3780  1.3923
  329SOL    MW4 1371   2.695   4.025   0.467  0.4911 -0.2275 -0.3076
  330SOL     OW 1372   0.385   3.734   0.229 -0.1492 -0.1681  0.1753
  330SOL    HW2 1373   0.364   3.740   0.136 -2.2710  0.5235  0.6624
  330SOL    HW3 1374   0.380   3.641   0.249  0.4229 -0.3309 -0.4129
  330SOL    MW4 1375   0.382   3.723   0.219 -0.3537 -0.0982  0.1620
  331SOL     OW 1376   1.608   3.036   0.819  0.6675 -0.3677  0.3488
  331SOL    HW2 1377   1.600   2.947   0.786 -1.5237 -0.5650  1.3267
  331SOL    HW3 1378   1.614   3.026   0.914 -0.7885  0.5754  0.5506
  331SOL    MW4 1379   1.608   3.023   0.827  0.1861 -0.2694  0.5045
  332SOL     OW 1380   3.246   1.560   0.853 -0.6152 -0.0569 -0.2862
  332SOL    HW2 1381   3.157   1.529   0.866 -1.0947  1.1326 -0.6517
  332SOL    HW3 1382   3.283   1.565   0.941 -1.5793  1.3533  0.0692
  332SOL    MW4 1383   3.239   1.557   0.866 -0.8056  0.2861 -0.2875
  333SOL     OW 1384   1.088   3.639   0.473  0.2801  0.1138  0.9333
  333SOL    HW2 1385   1.019   3.581   0.443 -0.2912  0.7555  0.9818
  333SOL    HW3 1386   1.169   3.590   0.460 -0.2652 -1.0771  1.9207
  333SOL    MW4 1387   1.090   3.625   0.467  0.1326  0.0415  1.0699
  334SOL     OW 1388   0.725   0.295   0.381  0.0653  0.2733 -0.5309
  334SOL    HW2 1389   0.688   0.229   0.439 -0.9192  0.8795 -0.4509
  334SOL    HW3 1390   0.661   0.304   0.310  1.3173 -0.5565 -1.7997
  334SOL    MW4 1391   0.712   0.288   0.379  0.1006  0.2438 -0.6877
  335SOL     OW 1392   1.107   3.880   0.808  0.7016 -0.1213 -0.2716
  335SOL    HW2 1393   1.094   3.787   0.787  1.3145 -0.1633 -0.4889
  335SOL    HW3 1394   1.123   3.881   0.902  2.3725 -0.4283 -0.5408
  335SOL    MW4 1395   1.107   3.868   0.817  1.0030 -0.1674 -0.3359
  336SOL     OW 1396   4.425   4.494   0.456 -0.3387  0.4786  0.2273
  336SOL    HW2 1397   4.358   4.454   0.402 -0.0495 -1.7655  1.4494
  336SOL    HW3 1398   4.388   4.495   0.544  0.9086 -0.0978  0.7803
  336SOL    MW4 1399   4.411   4.489   0.461 -0.1359  0.1063  0.4615
  337SOL     OW 1400   0.651   2.858   0.686  0.1194 -0.1756 -0.2457
  337SOL    HW2 1401   0.732   2.809   0.705  1.4735  2.5345  1.2634
  337SOL    HW3 1402   0.583   2.811   0.734  1.5285 -0.1303  1.8641
  337SOL    MW4 1403   0.653   2.845   0.695  0.4839  0.1876  0.2318
  338SOL     OW 1404   0.903   1.165   0.909  0.7419 -0.8389 -0.0130
  338SOL    HW2 1405   0.835   1.203   0.854 -0.3954  1.5197  2.8896
  338SOL    HW3 1406   0.979   1.222   0.896  0.2958  0.0617  1.2452
  338SOL    MW4 1407   0.904   1.178   0.900  0.5329 -0.4090  0.5360
  339SOL     OW 1408   2.010   4.653   0.678 -0.1854  0.0842  0.3121
  339SOL    HW2 1409   1.975   4.607   0.754 -0.4439  1.2216  0.9009
  339SOL    HW3 1410   2.014   4.587   0.609 -0.2024 -0.8953  1.2351
  339SOL    MW4 1411   2.006   4.638   0.679 -0.2220  0.1054  0.5116
  340SOL     OW 1412   3.077   2.036   0.692 -0.4996 -0.1388 -0.1376
  340SOL    HW2 1413   3.124   1.971   0.744  0.6705  0.6437 -0.1989
  340SOL    HW3 1414   3.050   2.103   0.754 -0.8161 -0.1648 -0.2416
  340SOL    MW4 1415   3.079   2.036   0.707 -0.3867 -0.0391 -0.1595
  341SOL     OW 1416   1.997   1.243   0.536  0.0145 -0.1990 -0.2335
  341SOL    HW2 1417   1.958   1.330   0.526 -1.3784 -0.9343 -1.3709
  341SOL    HW3 1418   1.924   1.182   0.524  1.0984 -1.5529 -0.1430
  341SOL    MW4 1419   1.982   1.246   0.533 -0.0263 -0.4747 -0.3716
  342SOL     OW 1420   1.358   0.363   0.858  0.1283  0.2599 -0.0676
  342SOL    HW2 1421   1.350   0.274   0.825  0.8027  0.3001 -0.3555
  342SOL    HW3 1422   1.369   0.353   0.952 -2.4161  0.1751  0.2474
  342SOL    MW4 1423   1.359   0.350   0.866 -0.1185  0.2540 -0.0640
  343SOL     OW 1424   2.920   3.810   0.853 -0.2464 -0.2916 -0.7425
  343SOL    HW2 1425   2.930   3.842   0.943  1.9806 -0.5178 -0.8750
  343SOL    HW3 1426   2.840   3.852   0.821 -0.3066  0.8693  0.8795
  343SOL    MW4 1427   2.911   3.820   0.861  0.0398 -0.1681 -0.5460
  344SOL     OW 1428   3.725   4.169   0.521  0.6302 -0.0323 -0.3701
  344SOL    HW2 1429   3.754   4.235   0.583  1.5665  0.1880 -1.0204
  344SOL    HW3 1430   3.672   4.217   0.458  0.6351 -0.0459 -0.3850
  344SOL    MW4 1431   3.722   4.184   0.521  0.7546 -0.0048 -0.4578
  345SOL     OW 1432   0.344   1.201   0.443 -0.1279 -0.2766  0.0925
  345SOL    HW2 1433   0.282   1.210   0.370 -0.5459 -1.8191  0.2497
  345SOL    HW3 1434   0.295   1.233   0.519 -0.7066 -1.4060  0.2000
  345SOL    MW4 1435   0.329   1.207   0.443 -0.2594 -0.6292  0.1275
  346SOL     OW 1436   1.582   0.502   0.766  0.6875 -0.7492 -0.3376
  346SOL    HW2 1437   1.493   0.472   0.781  0.5884 -0.2557  0.1029
  346SOL    HW3 1438   1.637   0.447   0.822  0.4997 -0.0716  0.5249
  346SOL    MW4 1439   1.578   0.491   0.775  0.6497 -0.5948 -0.1657
  347SOL     OW 1440   0.460   3.236   0.747  0.9357  0.3048  0.3431
  347SOL    HW2 1441   0.443   3.321   0.787 -1.7576 -0.5821  1.1742
  347SOL    HW3 1442   0.436   3.248   0.655  3.4873  1.2650 -0.2349
  347SOL    MW4 1443   0.455   3.249   0.740  0.9170  0.3142  0.3765
  348SOL     OW 1444   1.361   1.957   0.854 -0.3229 -0.1633 -0.1685
  348SOL    HW2 1445   1.370   1.867   0.822 -1.9990 -0.7655  1.0040
  348SOL    HW3 1446   1.364   1.949   0.949  0.2487  1.1257 -0.0695
  348SOL    MW4 1447   1.363   1.944   0.862 -0.4686 -0.0727 -0.0008
  349SOL     OW 1448   1.780   1.919   0.844  0.4324  0.1091 -0.1828
  349SOL    HW2 1449   1.788   1.827   0.820  1.5648 -0.1903  1.2576
  349SOL    HW3 1450   1.852   1.963   0.798 -0.5337  0.4050 -1.4330
  349SOL    MW4 1451   1.790   1.913   0.835  0.4545  0.1085 -0.1577
  350SOL     OW 1452   0.963   0.198   0.511 -0.1286  0.4401 -0.5438
  350SOL    HW2 1453   0.896   0.250   0.466 -0.5519 -0.3778 -0.8752
  350SOL    HW3 1454   0.923   0.176   0.596 -0.7755 -1.0259 -1.1919
  350SOL    MW4 1455   0.949   0.202   0.516 -0.2698  0.1388 -0.6731
  351SOL     OW 1456   1.582   2.069   0.742  0.4991  0.5351 -0.1858
  351SOL    HW2 1457   1.649   2.010   0.776 -0.5718 -0.0705  0.9079
  351SOL    HW3 1458   1.500   2.038   0.781 -0.3941  1.3834 -1.3512
  351SOL    MW4 1459   1.580   2.057   0.751  0.2401  0.5670 -0.1953
  352SOL     OW 1460   3.600   0.278   0.193 -0.0729 -0.3583 -0.0248
  352SOL    HW2 1461   3.529   0.297   0.132  0.4347 -2.6964 -1.3791
  352SOL    HW3 1462   3.663   0.348   0.180 -0.1725 -0.6093 -1.8651
  352SOL    MW4 1463   3.599   0.290   0.183 -0.0191 -0.6999 -0.4463
  353SOL     OW 1464   2.073   3.576   0.796  0.1653 -0.1070  0.3399
  353SOL    HW2 1465   2.077   3.665   0.832 -0.6201  0.0697 -0.0074
  353SOL    HW3 1466   2.154   3.535   0.827 -0.1089  0.2901  1.6331
  353SOL    MW4 1467   2.084   3.582   0.805  0.0260 -0.0312  0.4647
  354SOL     OW 1468   2.046   2.104   0.256 -0.5158  0.2843  0.6153
  354SOL    HW2 1469   2.057   2.079   0.165 -0.0915 -0.6757  0.9229
  354SOL    HW3 1470   2.005   2.028   0.297 -0.2130  0.5001  1.3295
  354SOL    MW4 1471   2.042   2.091   0.250 -0.4199  0.1862  0.7501
  355SOL     OW 1472   1.414   2.090   0.300  0.0143  0.1026  0.3157
  355SOL    HW2 1473   1.382   2.178   0.321  1.4519  0.8166 -0.4263
  355SOL    HW3 1474   1.481   2.073   0.366  0.1182 -0.2155  0.1295
  355SOL    MW4 1475   1.418   2.099   0.312  0.2176  0.1550  0.1932
  356SOL     OW 1476   1.566   3.863   0.847  0.1046  0.4681  0.0185
  356SOL    HW2 1477   1.551   3.869   0.941 -0.4659 -0.0426 -0.0440
  356SOL    HW3 1478   1.493   3.911   0.807 -0.4936 -0.6253 -0.2167
  356SOL    MW4 1479   1.555   3.870   0.854 -0.0495  0.2563 -0.0207
  357SOL     OW 1480   2.928   2.623   0.448  0.8063  0.1020 -0.0454
  357SOL    HW2 1481   3.015   2.585   0.462  0.8897  0.1548 -0.4092
  357SOL    HW3 1482   2.939   2.716   0.469  0.5582 -0.1052  1.0244
  357SOL    MW4 1483   2.941   2.630   0.453  0.7846  0.0818  0.0477
  358SOL     OW 1484   2.592   4.279   0.537 -0.2798  0.3124 -0.4818
  358SOL    HW2 1485   2.634   4.298   0.621  0.2222  0.8702 -0.8557
  358SOL    HW3 1486   2.500   4.303   0.551  0.0373  1.5532 -0.4569
  358SOL    MW4 1487   2.585   4.285   0.550 -0.1717  0.5493 -0.5278
  359SOL     OW 1488   1.813   3.462   0.832 -0.3789 -0.0806 -0.4328
  359SOL    HW2 1489   1.900   3.490   0.803  0.4176 -1.2653  0.7187
  359SOL    HW3 1490   1.805   3.372   0.801 -2.0254  0.6677 -2.2401
  359SOL    MW4 1491   1.824   3.454   0.824 -0.4910 -0.1383 -0.5193
  360SOL     OW 1492   1.380   3.488   0.829 -0.1591 -0.3067  0.0299
  360SOL    HW2 1493   1.404   3.401   0.800 -1.7717 -0.4889 -0.8180
  360SOL    HW3 1494   1.459   3.540   0.817  0.5512 -1.4501 -0.2907
  360SOL    MW4 1495   1.393   3.484   0.823 -0.2782 -0.4816 -0.1243
  361SOL     OW 1496   1.811   4.237   0.876 -0.3603 -0.2933  0.5137
  361SOL    HW2 1497   1.805   4.240   0.971  1.3318  0.0953  0.6156
  361SOL    HW3 1498   1.827   4.145   0.855  0.9035 -0.1155  0.7054
  361SOL    MW4 1499   1.812   4.226   0.886  0.0298 -0.2184  0.5524
  362SOL     OW 1500   2.938   0.500   0.734  0.1089  0.4031 -0.0230
  362SOL    HW2 1501   2.952   0.521   0.642  1.5119 -0.7630 -0.1011
  362SOL    HW3 1502   3.022   0.465   0.764 -0.3236  0.7723  1.7057
  362SOL    MW4 1503   2.951   0.498   0.726  0.2367  0.2979  0.1948
  363SOL     OW 1504   2.673   0.099   0.679 -0.0165 -0.4290 -0.2083
  363SOL    HW2 1505   2.741   0.057   0.730  0.5756 -1.4552 -1.8082
  363SOL    HW3 1506   2.661   0.184   0.721  0.5464 -1.1772  1.5276
  363SOL    MW4 1507   2.680   0.105   0.691  0.1359 -0.6631 -0.1904
  364SOL     OW 1508   2.749   0.935   0.368 -0.0080 -0.0180  0.0522
  364SOL    HW2 1509   2.668   0.984   0.354 -0.1728 -0.7737 -1.7058
  364SOL    HW3 1510   2.722   0.856   0.414 -0.1944 -0.0613 -0.1334
  364SOL    MW4 1511   2.735   0.931   0.372 -0.0544 -0.1234 -0.2042
  365SOL     OW 1512   2.031   0.770   0.869 -0.0673  0.4733 -0.0454
  365SOL    HW2 1513   2.038   0.686   0.825  2.4833 -0.0928  1.3536
  365SOL    HW3 1514   2.086   0.829   0.818 -1.2547  1.1127 -0.5943
  365SOL    MW4 1515   2.039   0.767   0.857  0.1128  0.4829  0.0668
  366SOL     OW 1516   4.276   1.274   0.739  0.0131  0.1984 -0.2671
  366SOL    HW2 1517   4.360   1.232   0.759  1.0912  1.8758 -1.0922
  366SOL    HW3 1518   4.261   1.253   0.647 -0.9011 -0.7765  0.0930
  366SOL    MW4 1519   4.285   1.266   0.729  0.0353  0.2911 -0.3285
  367SOL     OW 1520   2.978   1.082   0.333 -0.7150 -0.1159 -0.3624
  367SOL    HW2 1521   2.992   1.072   0.239 -0.3257 -1.1544 -0.2013
  367SOL    HW3 1522   2.894   1.040   0.350 -0.6794 -0.1257 -0.2080
  367SOL    MW4 1523   2.969   1.075   0.323 -0.6590 -0.2540 -0.3208
  368SOL     OW 1524   2.966   1.498   0.871 -0.0140 -0.2868  0.1986
  368SOL    HW2 1525   2.880   1.530   0.843 -0.2660 -0.2063  1.0297
  368SOL    HW3 1526   2.969   1.407   0.839  0.3393  0.2645 -1.3863
  368SOL    MW4 1527   2.955   1.490   0.863 -0.0005 -0.2035  0.0991
  369SOL     OW 1528   2.272   1.106   0.893  0.1259  0.0417 -0.1590
  369SOL    HW2 1529   2.281   1.109   0.988  0.2668 -0.7517 -0.1409
  369SOL    HW3 1530   2.189   1.150   0.875 -0.0500 -0.0818  0.3516
  369SOL    MW4 1531   2.262   1.112   0.903  0.1211 -0.0793 -0.0892
  370SOL     OW 1532   1.598   2.798   0.695  0.1440 -0.1604  0.5831
  370SOL    HW2 1533   1.521   2.763   0.741  1.2260 -2.4999  0.6712
  370SOL    HW3 1534   1.579   2.785   0.602  0.2080 -0.2760  0.5858
  370SOL    MW4 1535   1.585   2.792   0.689  0.2953 -0.4842  0.5951
  371SOL     OW 1536   1.132   0.793   0.283  0.2746  0.1129 -0.1375
  371SOL    HW2 1537   1.074   0.737   0.335 -0.5216  1.4600  0.4727
  371SOL    HW3 1538   1.091   0.880   0.288  0.8420  0.5040 -2.0445
  371SOL    MW4 1539   1.119   0.797   0.291  0.2444  0.3422 -0.3086
  372SOL     OW 1540   2.366   2.207   0.540 -0.0851 -0.0144  0.0329
  372SOL    HW2 1541   2.457   2.186   0.522 -0.1419  0.6071 -1.0136
  372SOL    HW3 1542   2.365   2.234   0.632  1.0030  1.2207 -0.3082
  372SOL    MW4 1543   2.378   2.208   0.550  0.0508  0.2303 -0.1501
  373SOL     OW 1544   1.950   2.084   0.704  0.2012  0.2802 -0.5311
  373SOL    HW2 1545   1.972   2.144   0.776  0.5125 -2.0263  1.3753
  373SOL    HW3 1546   2.033   2.047   0.676 -0.2571 -1.6103  0.4902
  373SOL    MW4 1547   1.964   2.087   0.710  0.1818 -0.2732 -0.1448
  374SOL     OW 1548   0.855   1.677   0.727 -0.2572 -0.0843  0.0385
  374SOL    HW2 1549   0.876   1.753   0.782 -0.4898 -0.7276  1.0384
  374SOL    HW3 1550   0.813   1.714   0.650 -0.7335  0.7822  0.6998
  374SOL    MW4 1551   0.852   1.692   0.724 -0.3508 -0.0547  0.2577
  375SOL     OW 1552   2.574   2.225   0.907  0.7458  0.3217  0.1330
  375SOL    HW2 1553   2.576   2.131   0.886  0.8897  0.6988 -1.6096
  375SOL    HW3 1554   2.488   2.255   0.877  0.6916  0.7516  0.7026
  375SOL    MW4 1555   2.563   2.216   0.900  0.7577  0.4277 -0.0218
  376SOL     OW 1556   0.571   3.879   0.422  0.2765 -0.2497 -0.2986
  376SOL    HW2 1557   0.512   3.943   0.462  1.1149 -0.2573  0.9858
  376SOL    HW3 1558   0.514   3.825   0.368 -0.5359  1.1954 -0.9117
  376SOL    MW4 1559   0.556   3.881   0.420  0.2800 -0.0598 -0.2100
  377SOL     OW 1560   2.022   3.132   0.847 -0.6465 -0.1282  0.4202
  377SOL    HW2 1561   2.097   3.174   0.805 -1.4733  0.7867 -0.1927
  377SOL    HW3 1562   2.012   3.049   0.801 -0.6623  0.2301 -0.2365
  377SOL    MW4 1563   2.030   3.127   0.835 -0.7577  0.0398  0.2527
  378SOL     OW 1564   2.754   2.721   0.878 -0.1645 -0.2010 -0.3398
  378SOL    HW2 1565   2.732   2.698   0.969  0.1911 -0.3288 -0.2832
  378SOL    HW3 1566   2.672   2.753   0.841 -0.7408 -1.7697 -0.4719
  378SOL    MW4 1567   2.740   2.722   0.885 -0.1936 -0.4246 -0.3498
  379SOL     OW 1568   2.472   3.112   0.813  0.2877 -0.2317 -0.0407
  379SOL    HW2 1569   2.465   3.119   0.908  1.1067 -0.9820  0.0846
  379SOL    HW3 1570   2.491   3.019   0.796 -1.5051 -0.4271 -1.0519
  379SOL    MW4 1571   2.474   3.101   0.823  0.1593 -0.3567 -0.1576
  380SOL     OW 1572   2.242   3.253   0.732  0.4454  0.1191 -0.2336
  380SOL    HW2 1573   2.312   3.196   0.764 -0.1902 -0.7213 -0.3434
  380SOL    HW3 1574   2.240   3.238   0.638 -0.0563 -0.0518 -0.1970
  380SOL    MW4 1575   2.251   3.243   0.724  0.2952 -0.0141 -0.2432
  381SOL     OW 1576   2.305   3.468   0.907 -0.0046 -0.4037  0.5477
  381SOL    HW2 1577   2.287   3.400   0.842 -1.1353 -0.1292  0.5577
  381SOL    HW3 1578   2.388   3.507   0.880  0.6404 -1.7726  0.5213
  381SOL    MW4 1579   2.314   3.464   0.895 -0.0684 -0.5481  0.5455
  382SOL     OW 1580   2.773   3.152   0.486  0.2078  0.3602 -0.1622
  382SOL    HW2 1581   2.748   3.154   0.578 -0.4739 -0.2032 -0.3320
  382SOL    HW3 1582   2.817   3.068   0.474 -1.3139 -0.3840 -0.7482
  382SOL    MW4 1583   2.775   3.141   0.497 -0.0827  0.1876 -0.2619
  383SOL     OW 1584   1.127   0.011   0.364  0.1488 -0.7602  0.0222
  383SOL    HW2 1585   1.198   0.074   0.360 -1.0757  0.5960 -0.7245
  383SOL    HW3 1586   1.051   0.061   0.394 -0.9516 -1.7445 -1.0383
  383SOL    MW4 1587   1.126   0.026   0.368 -0.1580 -0.7112 -0.2163
  384SOL     OW 1588   2.934   2.930   0.509  0.1544  0.1027  0.3864
  384SOL    HW2 1589   3.010   2.983   0.485 -0.0610  0.8732  1.3683
  384SOL    HW3 1590   2.949   2.907   0.601 -0.5388 -0.1767  0.4325
  384SOL    MW4 1591   2.946   2.934   0.518  0.0348  0.1674  0.5221
  385SOL     OW 1592   2.278   3.989   0.776  0.0862 -0.1802 -0.2956
  385SOL    HW2 1593   2.256   4.081   0.761  0.1477 -0.2780 -1.0244
  385SOL    HW3 1594   2.198   3.950   0.811 -0.0688  0.0602 -0.3838
  385SOL    MW4 1595   2.265   3.996   0.779  0.0737 -0.1614 -0.4033
  386SOL     OW 1596   2.221   2.329   0.327  0.4493 -0.1547  0.3266
  386SOL    HW2 1597   2.273   2.289   0.396  1.2257  0.3092  0.0165
  386SOL    HW3 1598   2.158   2.261   0.303  0.0169 -0.2333  1.6477
  386SOL    MW4 1599   2.220   2.314   0.333  0.4947 -0.1040  0.4600
  387SOL     OW 1600   3.388   0.924   0.504 -0.4319 -0.1260  0.0573
  387SOL    HW2 1601   3.418   0.862   0.437 -0.4644  0.4054 -0.4544
  387SOL    HW3 1602   3.450   0.915   0.575  0.0050 -0.1975 -0.3317
  387SOL    MW4 1603   3.400   0.915   0.504 -0.3786 -0.0653 -0.0615
  388SOL     OW 1604   0.316   0.076   0.475 -0.1107 -0.1824 -0.2262
  388SOL    HW2 1605   0.410   0.073   0.457  0.1812 -0.8389  1.3460
  388SOL    HW3 1606   0.288  -0.015   0.470 -0.6085 -0.0197 -0.4070
  388SOL    MW4 1607   0.325   0.064   0.472 -0.1378 -0.2475 -0.0426
  389SOL     OW 1608   2.034   2.948   0.481 -0.1732 -0.0362 -0.0969
  389SOL    HW2 1609   1.960   2.960   0.422 -0.4024  2.3438  0.5963
  389SOL    HW3 1610   2.087   3.028   0.470  1.1022 -0.6907  1.0523
  389SOL    MW4 1611   2.031   2.960   0.472 -0.0350  0.1915  0.1462
  390SOL     OW 1612   0.266   2.014   0.472 -0.0483 -0.6025  0.2384
  390SOL    HW2 1613   0.329   2.083   0.451 -0.6670 -0.4933 -1.3089
  390SOL    HW3 1614   0.248   2.026   0.566 -0.0348  1.2262  0.0161
  390SOL    MW4 1615   0.272   2.025   0.482 -0.1281 -0.3469  0.0049
  391SOL     OW 1616   2.950   0.654   0.479 -0.2026  0.2057 -0.1052
  391SOL    HW2 1617   2.856   0.666   0.465 -0.0355  1.4755 -0.2070
  391SOL    HW3 1618   2.987   0.742   0.473  0.8674 -0.1527  0.9277
  391SOL    MW4 1619   2.943   0.667   0.477 -0.0393  0.3260  0.0177
  392SOL     OW 1620   0.564   1.661   0.451 -0.3328  0.0519 -0.0626
  392SOL    HW2 1621   0.501   1.705   0.393 -0.9514 -0.7965 -0.0505
  392SOL    HW3 1622   0.517   1.652   0.534  0.5350  1.2266  0.5614
  392SOL    MW4 1623   0.549   1.666   0.455 -0.2999  0.0949  0.0213
  393SOL     OW 1624   2.409   1.305   0.502  0.0526 -0.3062 -0.0233
  393SOL    HW2 1625   2.424   1.275   0.591  1.3603 -1.9847 -0.7784
  393SOL    HW3 1626   2.340   1.248   0.469  0.6051 -0.6866 -0.5474
  393SOL    MW4 1627   2.402   1.293   0.509  0.2983 -0.5778 -0.1922
  394SOL     OW 1628   0.920   2.215   0.387  0.3429 -0.0562  0.0355
  394SOL    HW2 1629   0.850   2.192   0.448 -1.3602  2.0230 -1.0268
  394SOL    HW3 1630   1.001   2.199   0.435 -0.9421  1.2470  2.7676
  394SOL    MW4 1631   0.921   2.210   0.401 -0.0514  0.3901  0.2558
  395SOL     OW 1632   2.460   0.511   0.764 -0.2963 -0.7673  0.5389
  395SOL    HW2 1633   2.551   0.482   0.776  0.8122  1.6643 -1.3987
  395SOL    HW3 1634   2.452   0.527   0.669 -1.9791  1.3677  0.9920
  395SOL    MW4 1635   2.471   0.510   0.753 -0.3722 -0.1648  0.3430
  396SOL     OW 1636   0.610   3.597   0.477  0.1801 -0.0932 -0.4291
  396SOL    HW2 1637   0.615   3.692   0.474 -0.2696 -0.0368  0.3353
  396SOL    HW3 1638   0.695   3.567   0.446 -0.1472  0.5321 -1.9745
  396SOL    MW4 1639   0.622   3.605   0.473  0.0775 -0.0033 -0.5321
  397SOL     OW 1640   4.408   1.117   0.255  0.0868  0.0834  0.0811
  397SOL    HW2 1641   4.356   1.155   0.184  0.7278  2.1713  0.6857
  397SOL    HW3 1642   4.365   1.147   0.335  0.2635 -0.9903  0.5894
  397SOL    MW4 1643   4.395   1.126   0.256  0.1955  0.2172  0.2279
  398SOL     OW 1644   0.853   1.998   0.226  0.1632 -0.3390 -0.1274
  398SOL    HW2 1645   0.876   2.088   0.248  0.6041 -0.3922 -0.3670
  398SOL    HW3 1646   0.760   2.001   0.204  0.5628  0.3616 -1.7958
  398SOL    MW4 1647   0.844   2.010   0.226  0.2740 -0.2537 -0.3791
  399SOL     OW 1648   2.252   0.144   0.669  0.5833 -0.7237  0.1011
  399SOL    HW2 1649   2.324   0.105   0.717 -0.2078  0.2448  2.1119
  399SOL    HW3 1650   2.178   0.084   0.683  0.5003 -0.7402 -0.3923
  399SOL    MW4 1651   2.251   0.131   0.677  0.4680 -0.5981  0.3013
  400SOL     OW 1652   2.764   2.264   0.713  0.1260  0.2222  0.1705
  400SOL    HW2 1653   2.693   2.265   0.777 -0.2184 -0.0883 -0.2031
  400SOL    HW3 1654   2.774   2.356   0.687  0.6980  0.4382  1.1366
  400SOL    MW4 1655   2.756   2.277   0.718  0.1562  0.2096  0.2487
  401SOL     OW 1656   2.536   2.853   0.757 -0.3230  0.3536 -0.1771
  401SOL    HW2 1657   2.456   2.808   0.785 -1.1147  1.8483  0.0221
  401SOL    HW3 1658   2.540   2.838   0.663 -0.7947  0.1773 -0.1729
  401SOL    MW4 1659   2.526   2.845   0.748 -0.4897  0.5276 -0.1503
  402SOL     OW 1660   1.596   0.764   0.834  0.1561 -0.0789  0.1843
  402SOL    HW2 1661   1.587   0.677   0.795 -0.1736  0.0899 -0.1176
  402SOL    HW3 1662   1.514   0.809   0.812  0.0439  0.0806  0.9092
  402SOL    MW4 1663   1.584   0.758   0.826  0.0978 -0.0355  0.2401
  403SOL     OW 1664   2.960   3.113   0.858  0.3516 -0.3866 -0.3638
  403SOL    HW2 1665   3.040   3.153   0.825  0.1601 -0.2542 -0.6714
  403SOL    HW3 1666   2.969   3.020   0.839  1.4283 -0.7126  1.6270
  403SOL    MW4 1667   2.971   3.106   0.851  0.4685 -0.4120 -0.1417
  404SOL     OW 1668   2.717   3.258   0.752 -0.1808  0.1953 -0.0779
  404SOL    HW2 1669   2.782   3.199   0.788  0.2932  2.1651  2.3711
  404SOL    HW3 1670   2.633   3.219   0.776  0.0719 -0.9817 -1.0230
  404SOL    MW4 1671   2.714   3.245   0.760 -0.0849  0.3002  0.1206
  405SOL     OW 1672   2.550   3.564   0.826 -0.2016 -0.2547  0.0069
  405SOL    HW2 1673   2.604   3.559   0.905  0.7519 -0.9953 -0.6826
  405SOL    HW3 1674   2.509   3.651   0.831  0.1715 -0.1303  1.1009
  405SOL    MW4 1675   2.551   3.575   0.837 -0.0265 -0.3362  0.0603
  406SOL     OW 1676   2.850   3.428   0.471  0.3033  0.1779  0.3534
  406SOL    HW2 1677   2.818   3.470   0.391 -0.1823 -0.9808 -0.0670
  406SOL    HW3 1678   2.828   3.335   0.460  1.3621 -0.1921  1.2706
  406SOL    MW4 1679   2.843   3.421   0.459  0.3788 -0.0234  0.4190
  407SOL     OW 1680   2.709   3.964   0.736 -0.1824  0.2408  0.1228
  407SOL    HW2 1681   2.711   4.055   0.763  0.1854  0.4411 -0.5576
  407SOL    HW3 1682   2.687   3.967   0.643 -1.7253 -0.4494  0.4614
  407SOL    MW4 1683   2.707   3.976   0.727 -0.3374  0.1762  0.0777
  408SOL     OW 1684   1.786   3.217   0.734  0.2710  0.2105  0.7434
  408SOL    HW2 1685   1.871   3.186   0.766  0.6452  1.1827  0.7371
  408SOL    HW3 1686   1.722   3.157   0.771  1.1099 -1.6944 -0.8230
  408SOL    MW4 1687   1.789   3.205   0.743  0.4309  0.0875  0.5360
  409SOL     OW 1688   3.181   4.401   0.864  0.7152 -0.2321 -0.1608
  409SOL    HW2 1689   3.242   4.349   0.813  0.4448  0.4456 -1.1997
  409SOL    HW3 1690   3.216   4.490   0.860  1.4528 -0.3790  2.0164
  409SOL    MW4 1691   3.194   4.406   0.857  0.7768 -0.1616 -0.0107
  410SOL     OW 1692   1.104   3.613   0.751  0.0463 -0.5586  0.0330
  410SOL    HW2 1693   1.086   3.605   0.657  1.1789 -0.2565 -0.2198
  410SOL    HW3 1694   1.176   3.553   0.766 -0.6996 -1.2458  0.8910
  410SOL    MW4 1695   1.111   3.604   0.740  0.0973 -0.6094  0.1129
  411SOL     OW 1696   3.351   0.458   0.196 -0.0473 -0.0261 -0.1280
  411SOL    HW2 1697   3.287   0.438   0.263  0.8346  0.3385  0.8315
  411SOL    HW3 1698   3.307   0.436   0.113 -1.0488 -0.6825  0.5718
  411SOL    MW4 1699   3.337   0.452   0.194 -0.0629 -0.0646  0.0909
  412SOL     OW 1700   2.502   1.502   0.895  0.1532 -0.0951 -0.0568
  412SOL    HW2 1701   2.494   1.419   0.848  0.8605  0.1877 -0.6731
  412SOL    HW3 1702   2.572   1.549   0.850 -0.8112  1.1879 -0.2248
  412SOL    MW4 1703   2.510   1.497   0.883  0.1194  0.1115 -0.1603
  413SOL     OW 1704   1.464   1.657   0.457  0.1875  0.3157  0.4813
  413SOL    HW2 1705   1.432   1.675   0.546 -0.3299 -0.1625  0.3943
  413SOL    HW3 1706   1.449   1.563   0.445 -0.9509  0.6243 -0.5881
  413SOL    MW4 1707   1.457   1.647   0.467 -0.0311  0.2933  0.3287
  414SOL     OW 1708   3.401   4.575   0.832 -0.1686 -0.2984  0.0859
  414SOL    HW2 1709   3.437   4.648   0.783  1.3803 -1.8363 -1.1007
  414SOL    HW3 1710   3.424   4.594   0.923  0.7949  0.3742 -0.2894
  414SOL    MW4 1711   3.409   4.587   0.838  0.1628 -0.4120 -0.1202
  415SOL     OW 1712   3.362   0.767   0.856 -0.2506  0.0082  0.0791
  415SOL    HW2 1713   3.427   0.814   0.804  0.0527 -0.8158 -0.2890
  415SOL    HW3 1714   3.278   0.789   0.815  0.0506 -1.2513 -1.2431
  415SOL    MW4 1715   3.360   0.776   0.844 -0.1712 -0.2667 -0.1439
  416SOL     OW 1716   2.263   2.543   0.718 -0.0796 -0.2693  0.0255
  416SOL    HW2 1717   2.342   2.554   0.665 -1.0418  2.4367 -0.9193
  416SOL    HW3 1718   2.256   2.624   0.768 -1.6446 -0.9448  0.9246
  416SOL    MW4 1719   2.273   2.555   0.717 -0.4132 -0.0017  0.0194
  417SOL     OW 1720   3.488   1.215   0.495 -0.1342 -0.4001  0.0733
  417SOL    HW2 1721   3.455   1.125   0.499  1.6397 -1.1575 -1.6840
  417SOL    HW3 1722   3.452   1.257   0.574 -3.4069 -1.7876 -0.5914
  417SOL    MW4 1723   3.479   1.209   0.506 -0.3316 -0.6832 -0.2462
  418SOL     OW 1724   1.558   1.155   0.528 -0.6628  0.5216 -0.5332
  418SOL    HW2 1725   1.492   1.086   0.534  0.3958 -0.5978 -1.5341
  418SOL    HW3 1726   1.548   1.205   0.609 -2.6662  0.3181 -0.6352
  418SOL    MW4 1727   1.548   1.153   0.540 -0.7874  0.3470 -0.6788
  419SOL     OW 1728   2.201   0.171   0.401 -0.1299  0.0641  0.5675
  419SOL    HW2 1729   2.107   0.188   0.409  0.0145  1.3767 -0.4223
  419SOL    HW3 1730   2.233   0.171   0.491 -0.8883  0.6976  0.8411
  419SOL    MW4 1731   2.193   0.173   0.414 -0.2110  0.3209  0.4730
  420SOL     OW 1732   2.414   3.555   0.288 -0.2488  0.4330 -0.8566
  420SOL    HW2 1733   2.417   3.636   0.340  0.5427  0.7224 -1.3444
  420SOL    HW3 1734   2.325   3.522   0.301 -0.2086  0.7405  0.3258
  420SOL    MW4 1735   2.403   3.562   0.297 -0.1392  0.5116 -0.7649
  421SOL     OW 1736   2.670   2.691   0.311 -0.4538 -0.1012 -0.3675
  421SOL    HW2 1737   2.752   2.670   0.357 -0.6205  0.7270  0.3198
  421SOL    HW3 1738   2.698   2.731   0.229 -0.1485 -1.8252 -1.1354
  421SOL    MW4 1739   2.685   2.693   0.306 -0.4356 -0.2196 -0.3781
  422SOL     OW 1740   0.861   3.493   0.420  0.5604  0.2626 -0.0271
  422SOL    HW2 1741   0.867   3.400   0.444 -1.1384  0.0106 -0.5075
  422SOL    HW3 1742   0.852   3.492   0.325 -0.6549  0.8551  0.0780
  422SOL    MW4 1743   0.861   3.480   0.411  0.1760  0.3076 -0.0766
  423SOL     OW 1744   3.275   1.385   0.363 -0.3181 -0.0980  0.2595
  423SOL    HW2 1745   3.327   1.329   0.422 -0.2759 -0.6969 -0.3385
  423SOL    HW3 1746   3.339   1.423   0.303 -0.3237  0.7616  0.7977
  423SOL    MW4 1747   3.291   1.382   0.363 -0.3135 -0.0635  0.2517
  424SOL     OW 1748   0.354   0.164   0.762  0.3785  0.2734  0.4953
  424SOL    HW2 1749   0.280   0.140   0.817  0.4594  0.0266  0.4990
  424SOL    HW3 1750   0.328   0.135   0.674  1.5328 -2.2019  0.9139
  424SOL    MW4 1751   0.341   0.157   0.757  0.5414 -0.0858  0.5510
  425SOL     OW 1752   3.414   2.858   0.767  0.0196 -0.3541 -0.2846
  425SOL    HW2 1753   3.419   2.889   0.676 -0.6930 -1.6164 -0.7681
  425SOL    HW3 1754   3.476   2.785   0.772 -0.9045 -1.1414 -0.1257
  425SOL    MW4 1755   3.422   2.853   0.756 -0.1965 -0.6249 -0.3273
  426SOL     OW 1756   3.507   1.546   0.248 -0.2161 -0.1533  0.2541
  426SOL    HW2 1757   3.563   1.546   0.326 -0.9764 -1.5370  0.8262
  426SOL    HW3 1758   3.568   1.539   0.175  0.4129 -0.9632  0.8402
  426SOL    MW4 1759   3.523   1.545   0.249 -0.2332 -0.4429  0.4069
  427SOL     OW 1760   3.195   2.727   0.874  0.1940 -0.2503  0.1000
  427SOL    HW2 1761   3.265   2.778   0.834 -0.6351  0.3057 -0.6507
  427SOL    HW3 1762   3.223   2.636   0.865 -0.0565 -0.1373 -1.8956
  427SOL    MW4 1763   3.208   2.721   0.868  0.0517 -0.1621 -0.2623
  428SOL     OW 1764   3.205   3.217   0.765 -0.0795  0.5530 -0.3527
  428SOL    HW2 1765   3.209   3.173   0.680  0.3994 -1.0386  0.4761
  428SOL    HW3 1766   3.285   3.190   0.810 -0.8364  0.5532  1.0105
  428SOL    MW4 1767   3.216   3.208   0.760 -0.1161  0.3431 -0.0635
  429SOL     OW 1768   3.136   3.478   0.806  0.0010 -0.3682 -0.0377
  429SOL    HW2 1769   3.142   3.384   0.788  1.0512 -0.4117  0.4922
  429SOL    HW3 1770   3.044   3.493   0.826  0.0529 -1.5239  1.1623
  429SOL    MW4 1771   3.125   3.468   0.806  0.1464 -0.5264  0.1905
  430SOL     OW 1772   3.638   3.223   0.753  0.0780  0.2165  0.4085
  430SOL    HW2 1773   3.622   3.317   0.759  0.6841  0.2521  1.4638
  430SOL    HW3 1774   3.564   3.183   0.798  0.0917  0.2069  0.4224
  430SOL    MW4 1775   3.626   3.230   0.760  0.1600  0.2201  0.5496
  431SOL     OW 1776   3.589   3.950   0.644  0.0140 -0.1161  0.3277
  431SOL    HW2 1777   3.661   3.930   0.704  0.6009  0.9358 -0.0097
  431SOL    HW3 1778   3.623   4.020   0.588 -0.4540 -1.2343 -1.3927
  431SOL    MW4 1779   3.603   3.957   0.645  0.0298 -0.1247  0.0561
  432SOL     OW 1780   3.343   4.249   0.725  0.2655 -0.7251  0.2001
  432SOL    HW2 1781   3.432   4.267   0.754 -0.2477 -0.1164  1.4361
  432SOL    HW3 1782   3.327   4.159   0.753 -0.1101 -0.2519  1.5531
  432SOL    MW4 1783   3.353   4.239   0.733  0.1483 -0.5827  0.5416
  433SOL     OW 1784   2.816   0.030   0.420 -0.1871 -0.4682 -0.0341
  433SOL    HW2 1785   2.786  -0.059   0.399  0.0617 -0.8795  1.3151
  433SOL    HW3 1786   2.779   0.048   0.506  0.6477  0.3304  0.1638
  433SOL    MW4 1787   2.807   0.020   0.429 -0.0439 -0.4171  0.1701
  434SOL     OW 1788   2.354   1.596   0.528  0.6640 -0.0936  0.1477
  434SOL    HW2 1789   2.386   1.511   0.501 -0.4698  0.0226 -1.6522
  434SOL    HW3 1790   2.421   1.658   0.499  0.6139 -0.2046 -0.2091
  434SOL    MW4 1791   2.367   1.593   0.521  0.5078 -0.0930 -0.1368
  435SOL     OW 1792   3.801   0.001   0.773 -0.1067  0.0653 -0.0089
  435SOL    HW2 1793   3.874   0.060   0.756 -0.2544  0.3447  0.3167
  435SOL    HW3 1794   3.724   0.045   0.735  0.0356 -0.6516 -1.1722
  435SOL    MW4 1795   3.800   0.015   0.766 -0.1073  0.0076 -0.1194
  436SOL     OW 1796   0.965   0.614   0.430 -0.4297  0.1685 -0.2883
  436SOL    HW2 1797   0.870   0.612   0.440 -0.3387  1.3536  0.9981
  436SOL    HW3 1798   0.997   0.542   0.484 -0.5514  0.3134 -0.0219
  436SOL    MW4 1799   0.957   0.605   0.438 -0.4339  0.3439 -0.0834
  437SOL     OW 1800   3.115   0.102   0.747 -0.5607  0.4145 -0.4323
  437SOL    HW2 1801   3.116   0.189   0.786 -1.3160 -0.0181  0.5463
  437SOL    HW3 1802   3.098   0.118   0.654 -0.2262  1.3393 -0.3383
  437SOL    MW4 1803   3.113   0.115   0.740 -0.6161  0.4794 -0.2908
  438SOL     OW 1804   0.163   3.126   0.332  0.0014  0.3261 -0.3497
  438SOL    HW2 1805   0.080   3.136   0.378 -1.2074 -0.6301 -2.2837
  438SOL    HW3 1806   0.192   3.037   0.355  0.4895  0.6415  0.2856
  438SOL    MW4 1807   0.156   3.116   0.341 -0.0937  0.2415 -0.5211
  439SOL     OW 1808   4.195   0.519   0.747  0.1024 -0.2439  0.4523
  439SOL    HW2 1809   4.215   0.608   0.777  0.1739  0.3383 -1.2900
  439SOL    HW3 1810   4.268   0.466   0.779  1.2190  0.7341 -0.4138
  439SOL    MW4 1811   4.207   0.523   0.756  0.2584 -0.0380  0.1081
  440SOL     OW 1812   3.749   0.796   0.891 -0.8833 -0.2260  0.0710
  440SOL    HW2 1813   3.761   0.704   0.866 -2.2326 -0.4936  0.3658
  440SOL    HW3 1814   3.776   0.800   0.982 -0.4637 -0.2518 -0.0524
  440SOL    MW4 1815   3.754   0.784   0.900 -1.0061 -0.2647  0.0936
  441SOL     OW 1816   3.768   1.281   0.472  0.1223  0.5227  0.5619
  441SOL    HW2 1817   3.683   1.237   0.473 -0.0233  0.7962  0.1669
  441SOL    HW3 1818   3.802   1.269   0.560  0.3275 -0.8693  0.3137
  441SOL    MW4 1819   3.761   1.273   0.483  0.1302  0.3752  0.4770
  442SOL     OW 1820   3.043   1.959   0.382 -0.6052  0.0829 -0.3617
  442SOL    HW2 1821   3.103   1.920   0.319 -0.1491 -0.7542  0.5920
  442SOL    HW3 1822   3.080   2.046   0.401 -0.4177  0.0921 -0.7795
  442SOL    MW4 1823   3.056   1.966   0.376 -0.5205 -0.0263 -0.2910
  443SOL     OW 1824   3.757   1.534   0.860 -0.0246  0.2079 -0.1838
  443SOL    HW2 1825   3.785   1.451   0.821  0.0935  0.3343 -0.3718
  443SOL    HW3 1826   3.679   1.559   0.808  0.8114  0.9567 -1.1055
  443SOL    MW4 1827   3.750   1.526   0.848  0.1013  0.3233 -0.3302
  444SOL     OW 1828   3.162   0.408   0.385 -0.0488 -0.6246  0.2579
  444SOL    HW2 1829   3.091   0.472   0.381  1.2993  0.8617 -0.5315
  444SOL    HW3 1830   3.120   0.327   0.413 -1.8482  0.5213  0.9411
  444SOL    MW4 1831   3.147   0.406   0.388 -0.1085 -0.2774  0.2439
  445SOL     OW 1832   3.924   4.532   0.434  0.0663  0.1268  0.2372
  445SOL    HW2 1833   3.872   4.512   0.511 -0.5296 -0.7781 -0.3851
  445SOL    HW3 1834   3.866   4.581   0.376  0.5245  0.8443  0.3789
  445SOL    MW4 1835   3.910   4.536   0.436  0.0479  0.1016  0.1738
  446SOL     OW 1836   3.836   2.283   0.816 -0.6541  0.0127 -0.5833
  446SOL    HW2 1837   3.828   2.288   0.911 -1.2110 -0.7918 -0.5850
  446SOL    HW3 1838   3.765   2.337   0.782 -0.1013  0.7718 -0.5431
  446SOL    MW4 1839   3.826   2.291   0.824 -0.6547  0.0064 -0.5782
  447SOL     OW 1840   3.437   2.283   0.852  0.2782  0.1226  0.2319
  447SOL    HW2 1841   3.431   2.282   0.947 -0.7207 -1.4894  0.1804
  447SOL    HW3 1842   3.430   2.191   0.827 -1.0940  0.6677 -1.4892
  447SOL    MW4 1843   3.436   2.271   0.861 -0.0348 -0.0181 -0.0019
  448SOL     OW 1844   1.877   3.391   0.273 -0.1834 -0.0903 -0.3427
  448SOL    HW2 1845   1.872   3.327   0.202 -1.1486  1.0980 -1.3868
  448SOL    HW3 1846   1.827   3.351   0.345  0.9387 -1.3695 -0.2633
  448SOL    MW4 1847   1.869   3.377   0.273 -0.1627 -0.1020 -0.4700
  449SOL     OW 1848   3.606   2.654   0.825  0.0673  0.1994 -0.0505
  449SOL    HW2 1849   3.605   2.658   0.920  0.4027  0.1824 -0.0447
  449SOL    HW3 1850   3.691   2.689   0.800  0.1929 -0.2796 -0.3171
  449SOL    MW4 1851   3.617   2.659   0.834  0.1280  0.1342 -0.0848
  450SOL     OW 1852   2.501   2.546   0.582  0.2269 -0.1939 -0.3893
  450SOL    HW2 1853   2.591   2.536   0.615  0.6298 -2.0773 -1.9176
  450SOL    HW3 1854   2.506   2.516   0.491 -2.0616 -0.8224 -0.3412
  450SOL    MW4 1855   2.514   2.541   0.574 -0.0217 -0.5257 -0.5845
  451SOL     OW 1856   4.058   2.687   0.865 -0.1689  0.6498  0.2283
  451SOL    HW2 1857   4.138   2.736   0.842  1.0438 -0.4004  2.1316
  451SOL    HW3 1858   4.066   2.605   0.816  0.4821  0.0878  1.2447
  451SOL    MW4 1859   4.070   2.683   0.855  0.0772  0.4370  0.6135
  452SOL     OW 1860   1.358   3.975   0.712 -0.2191  0.7247  0.2252
  452SOL    HW2 1861   1.273   3.940   0.740 -0.8397  1.2986 -0.8677
  452SOL    HW3 1862   1.342   4.006   0.623  1.0996  1.0181  0.0821
  452SOL    MW4 1863   1.345   3.974   0.704 -0.1270  0.8392  0.0622
  453SOL     OW 1864   3.834   3.600   0.716 -0.1944  0.0075 -0.3192
  453SOL    HW2 1865   3.851   3.633   0.627 -0.9309  0.0382 -0.4579
  453SOL    HW3 1866   3.919   3.574   0.749  0.2175  0.8407 -0.7060
  453SOL    MW4 1867   3.847   3.601   0.709 -0.2375  0.1214 -0.3886
  454SOL     OW 1868   1.866   2.182   0.456 -0.7271 -0.8513 -0.3284
  454SOL    HW2 1869   1.913   2.142   0.530  0.4364  0.8680 -0.1204
  454SOL    HW3 1870   1.927   2.174   0.382 -1.1507 -0.9090 -0.6749
  454SOL    MW4 1871   1.880   2.175   0.456 -0.6294 -0.6320 -0.3467
  455SOL     OW 1872   3.811   3.869   0.805  0.2692 -0.0803  0.1001
  455SOL    HW2 1873   3.824   3.783   0.766  0.1541  0.1514 -0.4637
  455SOL    HW3 1874   3.876   3.925   0.762  0.8071 -0.0339  0.9595
  455SOL    MW4 1875   3.822   3.865   0.794  0.3247 -0.0434  0.1391
  456SOL     OW 1876   1.095   1.088   0.456  0.1092 -0.3962 -0.2866
  456SOL    HW2 1877   1.111   1.174   0.494  2.0684 -1.4054  1.2395
  456SOL    HW3 1878   1.001   1.074   0.465 -0.3344  1.8639 -1.1938
  456SOL    MW4 1879   1.085   1.097   0.462  0.3091 -0.2310 -0.2050
  457SOL     OW 1880   4.037   4.285   0.774 -0.1961  0.2037  0.2699
  457SOL    HW2 1881   4.053   4.191   0.762  1.1304  0.2685  1.4597
  457SOL    HW3 1882   4.116   4.327   0.743 -1.5475  1.0859 -2.1233
  457SOL    MW4 1883   4.049   4.278   0.768 -0.1993  0.3285  0.1111
  458SOL     OW 1884   4.126   3.566   0.379  0.7377 -0.1839 -0.0463
  458SOL    HW2 1885   4.099   3.594   0.291  1.8237  1.1675  0.0310
  458SOL    HW3 1886   4.160   3.478   0.366 -0.7215 -0.6735 -0.6807
  458SOL    MW4 1887   4.127   3.558   0.365  0.6881 -0.0701 -0.1198
  459SOL     OW 1888   4.232   0.036   0.788  0.0454  0.2324 -0.2564
  459SOL    HW2 1889   4.223   0.037   0.883  1.5499 -0.9563 -0.0758
  459SOL    HW3 1890   4.319   0.073   0.771 -0.0794  0.1462 -1.1452
  459SOL    MW4 1891   4.242   0.041   0.798  0.2270  0.0642 -0.3499
  460SOL     OW 1892   3.784   0.528   0.826  0.4691 -0.2452  0.3261
  460SOL    HW2 1893   3.712   0.471   0.852  0.1171  0.0997  0.1118
  460SOL    HW3 1894   3.798   0.508   0.733  0.2892  0.0747  0.2284
  460SOL    MW4 1895   3.777   0.518   0.817  0.3986 -0.1575  0.2850
  461SOL     OW 1896   1.275   1.858   0.387  0.1200  0.0638 -0.0239
  461SOL    HW2 1897   1.336   1.784   0.392 -0.7191 -0.7269 -1.3516
  461SOL    HW3 1898   1.321   1.922   0.332  0.0047 -0.3055 -0.5595
  461SOL    MW4 1899   1.289   1.857   0.380 -0.0058 -0.0892 -0.2697
  462SOL     OW 1900   3.543   0.133   0.715  0.0802  0.3377  0.2809
  462SOL    HW2 1901   3.552   0.208   0.775 -1.8653  0.4921  0.4155
  462SOL    HW3 1902   3.543   0.173   0.628 -1.0320  0.5243  0.3550
  462SOL    MW4 1903   3.544   0.148   0.712 -0.3231  0.3827  0.3085
  463SOL     OW 1904   0.456   1.121   0.894 -0.0910  0.4406  0.2714
  463SOL    HW2 1905   0.447   1.041   0.842  0.8222  1.2959 -1.2221
  463SOL    HW3 1906   0.526   1.170   0.852 -0.2789  1.8026  1.4919
  463SOL    MW4 1907   0.464   1.117   0.882  0.0047  0.7333  0.2354
  464SOL     OW 1908   2.689   0.859   0.705  0.1771 -0.8389 -0.3656
  464SOL    HW2 1909   2.758   0.806   0.746 -0.0030  0.3199  1.4850
  464SOL    HW3 1910   2.608   0.830   0.747 -0.1176 -0.2377 -0.5101
  464SOL    MW4 1911   2.687   0.848   0.716  0.1142 -0.6067 -0.1405
  465SOL     OW 1912   3.885   3.711   0.455  0.1741 -0.3749  0.2386
  465SOL    HW2 1913   3.813   3.650   0.437 -0.5786  0.3692  0.6874
  465SOL    HW3 1914   3.964   3.659   0.443 -0.4092 -0.9166 -1.3848
  465SOL    MW4 1915   3.886   3.696   0.451 -0.0019 -0.3481  0.0836
  466SOL     OW 1916   0.083   1.458   0.217  0.0295  0.6137 -0.4553
  466SOL    HW2 1917   0.126   1.374   0.198  0.0022  0.2335  1.0825
  466SOL    HW3 1918  -0.008   1.443   0.192  0.1681  0.4200 -0.8594
  466SOL    MW4 1919   0.077   1.445   0.211  0.0442  0.5381 -0.3057
  467SOL     OW 1920   4.252   1.551   0.791 -0.4145 -0.0704  0.7058
  467SOL    HW2 1921   4.252   1.560   0.886 -1.7407 -0.0286  0.7156
  467SOL    HW3 1922   4.252   1.456   0.776 -0.8063 -0.0817  0.7622
  467SOL    MW4 1923   4.252   1.540   0.801 -0.6409 -0.0663  0.7146
  468SOL     OW 1924   1.144   3.100   0.367 -0.3442 -0.3782  0.4386
  468SOL    HW2 1925   1.057   3.125   0.398 -0.2632 -1.3049  1.4428
  468SOL    HW3 1926   1.142   3.119   0.273 -0.8353  1.7854  0.8566
  468SOL    MW4 1927   1.132   3.105   0.358 -0.3983 -0.2153  0.6263
  469SOL     OW 1928   1.158   2.094   0.488 -0.0920 -0.1270 -0.2206
  469SOL    HW2 1929   1.188   2.013   0.446 -0.1478 -1.2078  1.7929
  469SOL    HW3 1930   1.237   2.148   0.494 -0.1449  0.1832 -1.9972
  469SOL    MW4 1931   1.173   2.090   0.483 -0.1063 -0.2286 -0.1894
  470SOL     OW 1932   3.836   1.313   0.737 -0.2739 -0.2602 -0.1346
  470SOL    HW2 1933   3.907   1.252   0.757 -0.6873 -0.5179  0.5719
  470SOL    HW3 1934   3.757   1.268   0.767 -0.8370 -0.3530 -1.7283
  470SOL    MW4 1935   3.835   1.299   0.744 -0.4027 -0.3064 -0.2517
  471SOL     OW 1936   4.490   1.671   0.698 -0.1301  0.1948 -0.0415
  471SOL    HW2 1937   4.496   1.655   0.604  0.7348 -0.2907  0.0979
  471SOL    HW3 1938   4.402   1.640   0.722  0.5079 -1.8062 -0.2607
  471SOL    MW4 1939   4.479   1.665   0.688  0.0682 -0.1333 -0.0520
  472SOL     OW 1940   3.073   3.555   0.357  0.1844 -0.0441  0.3801
  472SOL    HW2 1941   3.012   3.482   0.363  1.3159 -0.9802  0.7588
  472SOL    HW3 1942   3.106   3.566   0.446  1.2161 -0.1096  0.0117
  472SOL    MW4 1943   3.069   3.547   0.370  0.4699 -0.1762  0.3814
  473SOL     OW 1944   3.831   2.804   0.750  0.1308 -0.0773  0.3030
  473SOL    HW2 1945   3.916   2.775   0.781  0.2851 -0.1034 -0.1356
  473SOL    HW3 1946   3.813   2.884   0.799 -0.9276 -1.6361  2.5606
  473SOL    MW4 1947   3.840   2.811   0.760  0.0117 -0.2863  0.5431
  474SOL     OW 1948   3.762   0.665   0.381 -0.2627  0.1271  0.3287
  474SOL    HW2 1949   3.781   0.604   0.452 -1.3515  0.8528  1.2609
  474SOL    HW3 1950   3.809   0.745   0.405 -0.0629  0.1454 -0.1266
  474SOL    MW4 1951   3.771   0.667   0.394 -0.3798  0.2252  0.3916
  475SOL     OW 1952   4.044   3.229   0.724 -0.2486 -0.2391 -0.1086
  475SOL    HW2 1953   4.124   3.197   0.766  0.8562  0.9030 -1.2591
  475SOL    HW3 1954   4.046   3.324   0.738 -1.4506 -0.2142 -0.0716
  475SOL    MW4 1955   4.055   3.237   0.731 -0.2618 -0.0851 -0.2555
  476SOL     OW 1956   4.069   3.490   0.798  0.0078 -0.6856  0.1624
  476SOL    HW2 1957   4.068   3.477   0.892  0.7064 -0.1936  0.2453
  476SOL    HW3 1958   4.140   3.554   0.783 -0.6439 -0.1240 -0.6059
  476SOL    MW4 1959   4.078   3.497   0.808  0.0138 -0.5467  0.0720
  477SOL     OW 1960   0.217   4.411   0.780 -0.0419  0.0128  0.2518
  477SOL    HW2 1961   0.284   4.346   0.803  0.0040  0.2484  0.7889
  477SOL    HW3 1962   0.135   4.372   0.812 -0.1314 -0.1703 -0.1976
  477SOL    MW4 1963   0.215   4.397   0.787 -0.0477  0.0200  0.2633
  478SOL     OW 1964   4.293   3.632   0.734 -0.3594 -0.0929  0.3988
  478SOL    HW2 1965   4.306   3.634   0.639 -1.2726 -1.6183  0.2134
  478SOL    HW3 1966   4.282   3.723   0.759  0.9038  0.4159 -0.8085
  478SOL    MW4 1967   4.293   3.644   0.725 -0.3133 -0.2272  0.2151
  479SOL     OW 1968   4.486   0.894   0.737  0.2360  0.5183  0.1658
  479SOL    HW2 1969   4.547   0.860   0.802 -0.0683  1.1077  0.7756
  479SOL    HW3 1970   4.485   0.989   0.753 -1.3166  0.4471  0.6084
  479SOL    MW4 1971   4.494   0.902   0.748 -0.0081  0.5867  0.3046
  480SOL     OW 1972   4.041   4.028   0.712 -0.0076  0.3081  0.7172
  480SOL    HW2 1973   4.047   4.018   0.617 -2.0138  0.4105  0.5496
  480SOL    HW3 1974   4.110   3.971   0.747  0.5041 -0.0071 -0.7932
  480SOL    MW4 1975   4.051   4.019   0.704 -0.2050  0.2799  0.4959
  481SOL     OW 1976   4.259   4.444   0.701 -0.0644  0.1247 -0.0212
  481SOL    HW2 1977   4.237   4.529   0.740 -0.3019  0.1130 -0.1288
  481SOL    HW3 1978   4.326   4.408   0.758 -0.9038 -0.1954  0.7760
  481SOL    MW4 1979   4.265   4.451   0.714 -0.2069  0.0806  0.0697
  482SOL     OW 1980   0.214   4.485   0.508  0.2168 -0.0288 -0.0473
  482SOL    HW2 1981   0.222   4.463   0.601  1.3964 -0.7614 -0.3020
  482SOL    HW3 1982   0.120   4.490   0.492  0.0054  1.2838  1.4550
  482SOL    MW4 1983   0.203   4.483   0.518  0.3446  0.0472  0.1173
  483SOL     OW 1984   0.196   4.658   1.163 -0.1748  0.5650 -0.2410
  483SOL    HW2 1985   0.272   4.710   1.190 -0.3840  1.3619 -1.1525
  483SOL    HW3 1986   0.184   4.680   1.070 -1.4909  0.4215 -0.1159
  483SOL    MW4 1987   0.204   4.668   1.154 -0.3760  0.6514 -0.3448
  484SOL     OW 1988   4.437   0.097   1.204  0.2853  0.1915  0.3706
  484SOL    HW2 1989   4.366   0.040   1.174  0.0492  0.7492 -0.1499
  484SOL    HW3 1990   4.517   0.049   1.184  0.0702 -0.1760  0.3937
  484SOL    MW4 1991   4.438   0.083   1.198  0.2255  0.2166  0.3049
  485SOL     OW 1992   4.439   0.382   1.103  0.3179 -0.0063  0.0161
  485SOL    HW2 1993   4.370   0.434   1.144  0.1234 -0.8809  0.8248
  485SOL    HW3 1994   4.425   0.293   1.135  0.6425 -0.5696 -1.3527
  485SOL    MW4 1995   4.428   0.377   1.113  0.3352 -0.1960 -0.0578
  486SOL     OW 1996   0.192   0.475   1.216  0.1134  0.5330  0.4107
  486SOL    HW2 1997   0.190   0.568   1.195  0.9786  0.5847  0.5436
  486SOL    HW3 1998   0.116   0.439   1.171 -0.0506  1.2495  0.1031
  486SOL    MW4 1999   0.182   0.482   1.207  0.2059  0.6343  0.3877
  487SOL     OW 2000   0.215   0.744   1.156  0.3143 -0.0404  0.0623
  487SOL    HW2 2001   0.297   0.784   1.186  0.4139  0.1703 -0.4766
  487SOL    HW3 2002   0.148   0.810   1.176  0.3529  0.0151  0.0108
  487SOL    MW4 2003   0.217   0.758   1.163  0.3325 -0.0053 -0.0156
  488SOL     OW 2004   0.019   0.926   1.181  0.4206  0.1906  0.8705
  488SOL    HW2 2005   0.023   0.918   1.276  1.5779 -0.5526  0.7773
  488SOL    HW3 2006  -0.061   0.880   1.156  0.6150 -0.4660  1.4171
  488SOL    MW4 2007   0.009   0.919   1.190  0.5989  0.0059  0.9303
  489SOL     OW 2008   0.008   1.171   1.077 -0.4365  0.4044 -0.4401
  489SOL    HW2 2009  -0.069   1.211   1.119  1.8364  2.1412  2.3185
  489SOL    HW3 2010   0.018   1.087   1.121 -0.2811  0.5799 -0.1280
  489SOL    MW4 2011  -0.001   1.165   1.088 -0.1163  0.6566 -0.0349
  490SOL     OW 2012   0.190   1.313   1.214  0.1174  0.0100  0.2405
  490SOL    HW2 2013   0.275   1.269   1.210 -0.1399 -0.5153  0.6349
  490SOL    HW3 2014   0.130   1.255   1.167 -0.3285 -0.3126  1.2028
  490SOL    MW4 2015   0.193   1.300   1.207  0.0246 -0.1018  0.4195
  491SOL     OW 2016   0.250   1.555   1.097  0.0285 -0.3551 -0.5353
  491SOL    HW2 2017   0.211   1.470   1.119  0.4377 -0.6848 -1.0519
  491SOL    HW3 2018   0.251   1.556   1.001  0.0058  0.2423 -0.5257
  491SOL    MW4 2019   0.245   1.544   1.087  0.0795 -0.3196 -0.6021
  492SOL     OW 2020   0.025   1.673   1.222 -0.1798  0.0005 -0.2158
  492SOL    HW2 2021   0.014   1.762   1.190  0.8182  0.2949  0.2586
  492SOL    HW3 2022   0.104   1.641   1.177 -0.7518 -0.7773 -0.6790
  492SOL    MW4 2023   0.034   1.680   1.212 -0.1236 -0.0633 -0.2142
  493SOL     OW 2024   0.012   1.951   1.140  0.3067 -0.1345  0.1757
  493SOL    HW2 2025  -0.068   1.980   1.184 -0.0782 -1.2563  0.2252
  493SOL    HW3 2026  -0.011   1.952   1.047  0.2127 -0.5567  0.1976
  493SOL    MW4 2027  -0.002   1.955   1.133  0.2432 -0.3382  0.1851
  494SOL     OW 2028   0.224   2.069   1.250 -0.3218 -0.3506 -0.0656
  494SOL    HW2 2029   0.237   2.146   1.194  1.3829 -0.7100 -0.1827
  494SOL    HW3 2030   0.149   2.024   1.212  0.3392 -0.1856 -1.5958
  494SOL    MW4 2031   0.216   2.073   1.238 -0.0097 -0.3762 -0.2830
  495SOL     OW 2032   0.278   2.309   1.119 -0.1534  0.1433 -0.2357
  495SOL    HW2 2033   0.351   2.346   1.168 -0.2111 -0.0484 -0.0021
  495SOL    HW3 2034   0.200   2.343   1.163 -0.2162 -1.5441  0.9819
  495SOL    MW4 2035   0.277   2.318   1.131 -0.1693 -0.1047 -0.0442
  496SOL     OW 2036   0.021   2.420   1.196 -0.3005  0.0191 -0.1526
  496SOL    HW2 2037   0.022   2.421   1.292 -1.4570 -1.0319 -0.1198
  496SOL    HW3 2038  -0.060   2.374   1.173 -0.7244  1.4499 -1.6404
  496SOL    MW4 2039   0.010   2.414   1.206 -0.5090  0.0694 -0.3445
  497SOL     OW 2040   0.023   2.709   1.172  0.2384 -0.1258  0.5340
  497SOL    HW2 2041  -0.062   2.740   1.204 -0.2270 -0.0840 -0.6903
  497SOL    HW3 2042   0.018   2.613   1.180  0.2281 -0.1013  0.8266
  497SOL    MW4 2043   0.011   2.700   1.177  0.1756 -0.1168  0.4110
  498SOL     OW 2044   0.257   2.848   1.226 -0.2027  0.1315 -0.3931
  498SOL    HW2 2045   0.259   2.842   1.322  0.3622  0.8970 -0.3567
  498SOL    HW3 2046   0.182   2.794   1.201 -1.0947  0.8928  0.5586
  498SOL    MW4 2047   0.247   2.840   1.235 -0.2459  0.3331 -0.2629
  499SOL     OW 2048   0.243   3.088   1.091  0.5702  0.3400  0.1849
  499SOL    HW2 2049   0.318   3.134   1.127  0.4296 -0.0450  0.9803
  499SOL    HW3 2050   0.251   2.998   1.124 -0.1886  0.2732  0.2165
  499SOL    MW4 2051   0.254   3.082   1.100  0.4516  0.2806  0.2940
  500SOL     OW 2052   0.017   3.219   1.217  0.1834 -1.1609  0.2581
  500SOL    HW2 2053  -0.060   3.175   1.179 -0.6454 -0.2998  0.9120
  500SOL    HW3 2054   0.091   3.182   1.170 -0.7127 -1.2608 -1.1020
  500SOL    MW4 2055   0.017   3.208   1.206 -0.0442 -1.0607  0.1649
  501SOL     OW 2056   4.490   3.503   1.161  0.0812 -0.2524  0.0854
  501SOL    HW2 2057   4.485   3.412   1.189 -0.5179 -0.2988 -0.1560
  501SOL    HW3 2058   4.474   3.500   1.067  0.8265  0.0293 -0.0545
  501SOL    MW4 2059   4.487   3.491   1.152  0.1005 -0.2213  0.0352
  502SOL     OW 2060   0.250   3.632   1.233 -0.0828  0.1592 -0.4266
  502SOL    HW2 2061   0.242   3.624   1.328  1.0663 -2.6160 -0.5277
  502SOL    HW3 2062   0.163   3.612   1.199 -0.1283 -0.2806 -0.0448
  502SOL    MW4 2063   0.238   3.629   1.241  0.0628 -0.2651 -0.3897
  503SOL     OW 2064   0.234   3.874   1.137 -0.5510 -0.1839  0.1431
  503SOL    HW2 2065   0.147   3.902   1.167 -0.9769 -1.6727  0.3687
  503SOL    HW3 2066   0.238   3.782   1.161  1.5668  0.1647  1.1725
  503SOL    MW4 2067   0.223   3.866   1.144 -0.3278 -0.3345  0.3086
  504SOL     OW 2068   4.476   3.976   1.209  0.0499  0.4155  0.2050
  504SOL    HW2 2069   4.467   3.952   1.301 -1.0180  0.1816  0.0462
  504SOL    HW3 2070   4.387   3.968   1.174  0.2951  1.3411 -0.6347
  504SOL    MW4 2071   4.463   3.972   1.217 -0.0582  0.5069  0.0732
  505SOL     OW 2072   4.476   4.267   1.137  0.1259  0.2970  0.3149
  505SOL    HW2 2073   4.566   4.292   1.156  0.0217 -0.5140  2.0368
  505SOL    HW3 2074   4.467   4.180   1.177 -1.4422  0.4228  0.2488
  505SOL    MW4 2075   4.487   4.259   1.145 -0.0947  0.2060  0.5333
  506SOL     OW 2076   0.229   4.392   1.244 -0.3401 -0.0957  0.0177
  506SOL    HW2 2077   0.224   4.378   1.338  2.6091  0.2405  0.2605
  506SOL    HW3 2078   0.221   4.487   1.233  0.5643 -0.0097  0.0485
  506SOL    MW4 2079   0.227   4.403   1.255  0.1683 -0.0401  0.0538
  507SOL     OW 2080   0.661   4.661   1.080 -0.3222  0.0268  0.5366
  507SOL    HW2 2081   0.749   4.685   1.108 -0.7696  0.6752  1.3836
  507SOL    HW3 2082   0.647   4.574   1.117  0.8355 -1.0904 -1.5333
  507SOL    MW4 2083   0.671   4.652   1.088 -0.2286 -0.0348  0.3752
  508SOL     OW 2084   0.430   0.151   1.203 -0.0322  0.2203 -0.4014
  508SOL    HW2 2085   0.439   0.244   1.183 -0.6039  0.0320 -1.5614
  508SOL    HW3 2086   0.506   0.110   1.162  0.5052  0.2436  0.5698
  508SOL    MW4 2087   0.441   0.158   1.195 -0.0367  0.1985 -0.4264
  509SOL     OW 2088   0.470   0.412   1.126 -0.3446  0.1135  0.1126
  509SOL    HW2 2089   0.386   0.427   1.170 -0.6392 -1.9144  0.2679
  509SOL    HW3 2090   0.451   0.422   1.033 -0.1164  2.5480  0.2919
  509SOL    MW4 2091   0.456   0.415   1.120 -0.3534  0.1671  0.1568
  510SOL     OW 2092   0.677   0.532   1.252  0.6800 -0.2294 -0.0409
  510SOL    HW2 2093   0.676   0.627   1.239 -0.1552 -0.0581  1.1255
  510SOL    HW3 2094   0.597   0.501   1.209  0.2537 -0.2220  0.7299
  510SOL    MW4 2095   0.666   0.540   1.245  0.5136 -0.2058  0.2146
  511SOL     OW 2096   0.707   0.764   1.142 -0.2833 -0.3641  0.2177
  511SOL    HW2 2097   0.628   0.812   1.166  0.1654  0.8960 -0.7986
  511SOL    HW3 2098   0.703   0.755   1.047  0.6965 -0.4604  0.1734
  511SOL    MW4 2099   0.696   0.769   1.133 -0.0948 -0.2105  0.0777
  512SOL     OW 2100   0.460   0.879   1.240 -0.4747 -0.3656 -0.8074
  512SOL    HW2 2101   0.459   0.888   1.335  1.2842 -1.0104 -0.7099
  512SOL    HW3 2102   0.449   0.969   1.207 -3.7306 -0.4086 -0.0687
  512SOL    MW4 2103   0.458   0.892   1.248 -0.6722 -0.4563 -0.6971
  513SOL     OW 2104   0.416   1.164   1.170  0.0428 -0.3972 -0.1521
  513SOL    HW2 2105   0.504   1.198   1.189 -0.2435 -0.0711  0.6516
  513SOL    HW3 2106   0.419   1.139   1.078  0.5447  0.9871 -0.5368
  513SOL    MW4 2107   0.428   1.165   1.161  0.0713 -0.1715 -0.0968
  514SOL     OW 2108   0.671   1.285   1.242  0.1183  0.0900 -0.1526
  514SOL    HW2 2109   0.754   1.243   1.216 -0.3958  0.2226 -2.0791
  514SOL    HW3 2110   0.677   1.374   1.208 -0.7639  0.1468 -0.1736
  514SOL    MW4 2111   0.683   1.291   1.234 -0.0659  0.1152 -0.4095
  515SOL     OW 2112   0.714   1.546   1.126  0.0033  0.1866  0.0912
  515SOL    HW2 2113   0.791   1.577   1.173 -0.3671  1.2233  0.0159
  515SOL    HW3 2114   0.642   1.602   1.158 -0.5905 -0.3297 -0.3334
  515SOL    MW4 2115   0.714   1.557   1.137 -0.1239  0.2555  0.0253
  516SOL     OW 2116   0.492   1.678   1.222 -0.1594  0.0359 -0.1230
  516SOL    HW2 2117   0.503   1.679   1.317  2.2326 -1.2447 -0.3644
  516SOL    HW3 2118   0.409   1.632   1.208 -0.3487 -0.0722  1.3238
  516SOL    MW4 2119   0.482   1.672   1.232  0.1312 -0.1473  0.0361
  517SOL     OW 2120   0.475   1.953   1.154 -0.1385 -0.2846  0.0446
  517SOL    HW2 2121   0.475   1.859   1.173 -0.3233 -0.5788 -1.3549
  517SOL    HW3 2122   0.389   1.983   1.185 -0.3838 -0.7266 -0.1888
  517SOL    MW4 2123   0.463   1.944   1.161 -0.1952 -0.3818 -0.1709
  518SOL     OW 2124   0.705   2.076   1.226  0.1255 -0.2498  0.1565
  518SOL    HW2 2125   0.683   2.083   1.319 -0.9964  1.0844 -0.1924
  518SOL    HW3 2126   0.632   2.026   1.188  0.0940  0.0322 -0.1594
  518SOL    MW4 2127   0.692   2.071   1.233 -0.0266 -0.0367  0.0688
  519SOL     OW 2128   0.734   2.341   1.114 -0.1705 -0.3466  0.2351
  519SOL    HW2 2129   0.665   2.383   1.166  1.1889  1.5944  0.5400
  519SOL    HW3 2130   0.737   2.251   1.147 -0.9668  0.1928  1.8654
  519SOL    MW4 2131   0.725   2.335   1.125 -0.0963 -0.0196  0.4903
  520SOL     OW 2132   0.500   2.461   1.226 -0.1856  0.0490  0.0768
  520SOL    HW2 2133   0.499   2.486   1.319 -0.1073 -0.5724  0.2455
  520SOL    HW3 2134   0.482   2.542   1.179  0.6168  0.5378  0.6021
  520SOL    MW4 2135   0.497   2.475   1.232 -0.0694  0.0315  0.1683
  521SOL     OW 2136   0.484   2.708   1.115  0.1718  0.2851 -0.2971
  521SOL    HW2 2137   0.410   2.763   1.142  0.4814  0.6840 -0.2694
  521SOL    HW3 2138   0.499   2.731   1.024  1.1194  1.1631  0.0740
  521SOL    MW4 2139   0.476   2.718   1.107  0.3377  0.4537 -0.2445
  522SOL     OW 2140   0.687   2.844   1.264 -0.2347  0.4915 -0.2652
  522SOL    HW2 2141   0.706   2.931   1.227 -0.0478 -0.5582 -2.7691
  522SOL    HW3 2142   0.605   2.818   1.222 -0.0826 -0.7077  0.1606
  522SOL    MW4 2143   0.679   2.852   1.253 -0.1900  0.1945 -0.5395
  523SOL     OW 2144   0.723   3.091   1.131  0.2058 -0.0502  0.3153
  523SOL    HW2 2145   0.778   3.157   1.174 -1.1442  1.4008 -0.1361
  523SOL    HW3 2146   0.744   3.099   1.038 -0.9637  0.7210  0.1071
  523SOL    MW4 2147   0.733   3.101   1.125 -0.1266  0.2429  0.2283
  524SOL     OW 2148   0.463   3.218   1.214  0.3536 -0.1276  0.4458
  524SOL    HW2 2149   0.474   3.305   1.176 -1.3995 -0.8212 -1.7432
  524SOL    HW3 2150   0.528   3.164   1.170  0.3806 -0.2916  0.6831
  524SOL    MW4 2151   0.473   3.223   1.203  0.1259 -0.2410  0.1882
  525SOL     OW 2152   0.478   3.483   1.139 -0.3513 -0.1434 -0.3280
  525SOL    HW2 2153   0.558   3.519   1.178 -0.3646 -0.9218  0.4361
  525SOL    HW3 2154   0.407   3.530   1.183 -0.3686 -1.0908  0.6639
  525SOL    MW4 2155   0.480   3.494   1.150 -0.3554 -0.3712 -0.0963
  526SOL     OW 2156   0.710   3.599   1.248  0.3035 -0.1976  0.6972
  526SOL    HW2 2157   0.706   3.589   1.343  0.1879 -0.7220  0.6368
  526SOL    HW3 2158   0.671   3.684   1.232 -1.4264 -0.9287  0.9584
  526SOL    MW4 2159   0.705   3.609   1.259  0.0600 -0.3631  0.7237
  527SOL     OW 2160   0.666   3.846   1.143  0.2872 -0.1340 -0.0985
  527SOL    HW2 2161   0.596   3.901   1.179  1.7656  1.5891  0.2016
  527SOL    HW3 2162   0.658   3.856   1.049 -0.2955 -0.4865 -0.0897
  527SOL    MW4 2163   0.655   3.855   1.136  0.4053  0.0472 -0.0577
  528SOL     OW 2164   0.457   4.005   1.245  0.1017 -0.2397 -0.0303
  528SOL    HW2 2165   0.460   4.088   1.197 -2.7297  0.6616  1.2493
  528SOL    HW3 2166   0.383   3.958   1.207  0.1030 -1.0724  0.9705
  528SOL    MW4 2167   0.447   4.010   1.234 -0.2717 -0.2308  0.2707
  529SOL     OW 2168   0.441   4.260   1.139 -0.0894  0.0776  0.8185
  529SOL    HW2 2169   0.516   4.308   1.175  0.1035  0.0489  0.4574
  529SOL    HW3 2170   0.365   4.310   1.168  0.1470  1.1564 -0.3370
  529SOL    MW4 2171   0.441   4.273   1.147 -0.0328  0.2160  0.6185
  530SOL     OW 2172   0.677   4.386   1.225 -0.0471 -0.0680 -0.2560
  530SOL    HW2 2173   0.669   4.384   1.320  0.8734  1.0517 -0.1522
  530SOL    HW3 2174   0.760   4.343   1.206 -0.1651 -0.1719 -0.5519
  530SOL    MW4 2175   0.687   4.380   1.235  0.0587  0.0663 -0.2816
  531SOL     OW 2176   1.097   4.660   1.141  0.2226  0.1760  0.0593
  531SOL    HW2 2177   1.102   4.571   1.176 -0.7580  0.2975  0.5251
  531SOL    HW3 2178   1.106   4.649   1.046 -1.0908 -0.5500 -0.0013
  531SOL    MW4 2179   1.099   4.646   1.133 -0.0801  0.0963  0.1128
  532SOL     OW 2180   0.879   0.150   1.191 -0.4711  0.2243  0.0962
  532SOL    HW2 2181   0.892   0.150   1.286 -0.2774 -1.2776  0.0881
  532SOL    HW3 2182   0.954   0.102   1.157 -0.0772  1.5147 -0.9020
  532SOL    MW4 2183   0.891   0.144   1.199 -0.3936  0.1964 -0.0366
  533SOL     OW 2184   0.907   0.409   1.153  0.2719  0.4955  0.2166
  533SOL    HW2 2185   0.882   0.318   1.169 -1.2430  0.3568 -2.5610
  533SOL    HW3 2186   0.838   0.460   1.195  0.9424  0.3719  1.4862
  533SOL    MW4 2187   0.894   0.404   1.160  0.1605  0.4609  0.0175
  534SOL     OW 2188   1.163   0.505   1.244  0.6138 -0.0448 -0.0792
  534SOL    HW2 2189   1.165   0.487   1.338  0.9397 -1.2140 -0.2963
  534SOL    HW3 2190   1.073   0.483   1.218  0.6608 -0.1821 -0.1258
  534SOL    MW4 2191   1.151   0.499   1.253  0.6629 -0.2172 -0.1140
  535SOL     OW 2192   1.142   0.761   1.150  0.6908 -0.2099 -0.0910
  535SOL    HW2 2193   1.077   0.805   1.206  1.5959 -0.0962  0.8949
  535SOL    HW3 2194   1.148   0.673   1.186  1.6291  0.0084  0.3081
  535SOL    MW4 2195   1.134   0.756   1.162  0.9340 -0.1661  0.0918
  536SOL     OW 2196   0.921   0.882   1.263  0.0007 -0.1997  0.3628
  536SOL    HW2 2197   0.913   0.970   1.226 -0.3917 -0.1287  0.6182
  536SOL    HW3 2198   0.855   0.830   1.217  0.7129 -0.5367 -0.3020
  536SOL    MW4 2199   0.911   0.887   1.252  0.0428 -0.2348  0.3088
  537SOL     OW 2200   0.903   1.158   1.182 -0.4767 -0.3734 -0.1443
  537SOL    HW2 2201   0.983   1.209   1.198 -1.0444  0.7040 -0.7166
  537SOL    HW3 2202   0.897   1.151   1.087  0.2332 -2.5625 -0.0627
  537SOL    MW4 2203   0.913   1.164   1.172 -0.4579 -0.5201 -0.2091
  538SOL     OW 2204   1.141   1.281   1.241 -0.5338  0.6167 -0.4638
  538SOL    HW2 2205   1.152   1.290   1.336  0.7710  0.3112 -0.5751
  538SOL    HW3 2206   1.205   1.214   1.216 -0.5829  0.9919 -1.6197
  538SOL    MW4 2207   1.151   1.273   1.250 -0.3680  0.6260 -0.6310
  539SOL     OW 2208   1.134   1.545   1.139  0.3781 -0.0407  0.0869
  539SOL    HW2 2209   1.152   1.451   1.149 -1.2160 -0.3885 -0.1234
  539SOL    HW3 2210   1.129   1.558   1.044  2.0690  0.5588  0.0724
  539SOL    MW4 2211   1.136   1.534   1.128  0.3909 -0.0076  0.0573
  540SOL     OW 2212   0.921   1.666   1.267 -0.1498 -0.3159 -0.1697
  540SOL    HW2 2213   0.928   1.750   1.221 -0.4735 -0.2649 -0.1248
  540SOL    HW3 2214   0.993   1.614   1.231  0.5613  0.2621  0.3945
  540SOL    MW4 2215   0.932   1.670   1.256 -0.0987 -0.2331 -0.0893
  541SOL     OW 2216   0.916   1.922   1.141  0.2688 -0.1856 -0.5041
  541SOL    HW2 2217   0.996   1.957   1.179  0.4130  1.2720 -2.0877
  541SOL    HW3 2218   0.845   1.968   1.185  0.3808  0.1932 -0.7185
  541SOL    MW4 2219   0.917   1.933   1.152  0.3026  0.0566 -0.7414
  542SOL     OW 2220   1.133   2.045   1.252  0.0050  0.0834  0.1170
  542SOL    HW2 2221   1.129   2.052   1.347  0.0960 -1.1716  0.2161
  542SOL    HW3 2222   1.140   2.136   1.222  2.1384  0.3654  1.3845
  542SOL    MW4 2223   1.133   2.058   1.260  0.2985 -0.0451  0.2974
  543SOL     OW 2224   1.123   2.308   1.166  0.0169  0.5041  0.0605
  543SOL    HW2 2225   1.212   2.342   1.158 -0.7243  2.0995 -1.6552
  543SOL    HW3 2226   1.070   2.385   1.185 -1.4103  0.0448 -1.9197
  543SOL    MW4 2227   1.128   2.323   1.168 -0.2692  0.6540 -0.4270
  544SOL     OW 2228   0.933   2.500   1.230 -0.1826 -0.2340 -0.0102
  544SOL    HW2 2229   0.926   2.474   1.322 -1.9197  3.1062  0.8889
  544SOL    HW3 2230   0.873   2.443   1.184  1.2788 -2.4725  0.7680
  544SOL    MW4 2231   0.924   2.489   1.236 -0.2190 -0.0887  0.2110
  545SOL     OW 2232   0.886   2.726   1.087  0.2883 -0.1643 -0.1346
  545SOL    HW2 2233   0.911   2.651   1.141  0.0998 -0.0135  0.1659
  545SOL    HW3 2234   0.813   2.766   1.134  1.0085  0.7711  0.2125
  545SOL    MW4 2235   0.880   2.722   1.101  0.3585 -0.0212 -0.0492
  546SOL     OW 2236   1.119   2.830   1.168 -0.5544  0.3160 -0.0743
  546SOL    HW2 2237   1.121   2.836   1.263 -1.2242 -0.0714 -0.0326
  546SOL    HW3 2238   1.027   2.810   1.147 -0.3316  0.0018 -0.7733
  546SOL    MW4 2239   1.107   2.828   1.178 -0.6135  0.2234 -0.1609
  547SOL     OW 2240   1.112   3.111   1.135 -0.5679  0.2580  0.2466
  547SOL    HW2 2241   1.119   3.017   1.152 -0.8261 -0.0296 -1.2092
  547SOL    HW3 2242   1.095   3.118   1.041 -1.7129  1.7075  0.5353
  547SOL    MW4 2243   1.110   3.100   1.125 -0.7530  0.4113  0.0925
  548SOL     OW 2244   0.914   3.275   1.230 -0.1423  0.6497  0.0286
  548SOL    HW2 2245   0.928   3.360   1.186  0.3072  0.5704  0.0187
  548SOL    HW3 2246   0.992   3.224   1.209  0.2426  0.7322  1.2220
  548SOL    MW4 2247   0.926   3.280   1.221 -0.0322  0.6502  0.1848
  549SOL     OW 2248   0.941   3.529   1.104  0.3531 -0.3468  0.2306
  549SOL    HW2 2249   0.869   3.584   1.134 -0.7280 -1.2094 -0.7238
  549SOL    HW3 2250   0.918   3.507   1.014  1.6226 -0.9624  0.0445
  549SOL    MW4 2251   0.929   3.533   1.096  0.3780 -0.5417  0.0802
  550SOL     OW 2252   1.167   3.638   1.214  0.0256 -0.1123  0.1027
  550SOL    HW2 2253   1.243   3.583   1.193 -0.9561 -1.3232 -0.3282
  550SOL    HW3 2254   1.093   3.592   1.175 -0.7939  1.6439 -0.4617
  550SOL    MW4 2255   1.168   3.625   1.206 -0.2121 -0.0403 -0.0287
  551SOL     OW 2256   1.127   3.875   1.083  0.1650  0.1911 -0.1201
  551SOL    HW2 2257   1.048   3.915   1.121  1.2566  2.4873 -0.2309
  551SOL    HW3 2258   1.130   3.788   1.122 -1.6953  0.5607  0.9159
  551SOL    MW4 2259   1.117   3.869   1.093  0.0635  0.5429  0.0019
  552SOL     OW 2260   0.902   3.981   1.196  0.5358  0.1366 -0.2227
  552SOL    HW2 2261   0.896   3.990   1.291 -0.8219  0.5658 -0.3470
  552SOL    HW3 2262   0.817   3.946   1.169  0.4068  1.3540 -1.4385
  552SOL    MW4 2263   0.890   3.977   1.205  0.3397  0.3543 -0.3994
  553SOL     OW 2264   0.899   4.248   1.131 -0.2176 -0.1254  0.0828
  553SOL    HW2 2265   0.904   4.156   1.157 -0.1171 -0.0852  0.2036
  553SOL    HW3 2266   0.886   4.245   1.036 -0.5549 -0.2700  0.1301
  553SOL    MW4 2267   0.898   4.236   1.122 -0.2489 -0.1392  0.1049
  554SOL     OW 2268   1.120   4.402   1.250 -0.5570  0.0428 -0.1373
  554SOL    HW2 2269   1.142   4.380   1.341 -0.8906 -0.6723 -0.2260
  554SOL    HW3 2270   1.052   4.340   1.226 -0.5627  0.3157 -0.8406
  554SOL    MW4 2271   1.114   4.391   1.259 -0.6018 -0.0153 -0.2418
  555SOL     OW 2272   1.536   4.624   1.171 -0.5171 -0.1533 -0.1584
  555SOL    HW2 2273   1.625   4.654   1.188 -0.8336  1.1380 -0.7250
  555SOL    HW3 2274   1.535   4.532   1.199  1.1083 -0.3005 -0.5715
  555SOL    MW4 2275   1.547   4.616   1.177 -0.3444 -0.0029 -0.2877
  556SOL     OW 2276   1.318   0.086   1.291 -0.0186  0.2778  0.4478
  556SOL    HW2 2277   1.392   0.032   1.262  0.3414  1.2133 -0.4179
  556SOL    HW3 2278   1.248   0.066   1.229  0.1033  0.7647  0.1478
  556SOL    MW4 2279   1.319   0.076   1.279  0.0451  0.4655  0.2941
  557SOL     OW 2280   1.346   0.335   1.143 -0.2868  0.2674  0.2344
  557SOL    HW2 2281   1.338   0.254   1.194 -0.4973 -0.6413 -1.1943
  557SOL    HW3 2282   1.286   0.396   1.186 -0.3988 -0.4440  1.1240
  557SOL    MW4 2283   1.337   0.332   1.156 -0.3294  0.0536  0.1633
  558SOL     OW 2284   1.580   0.461   1.241  0.3631  0.2132 -0.2653
  558SOL    HW2 2285   1.579   0.553   1.214 -2.3498  0.3550  0.2415
  558SOL    HW3 2286   1.507   0.421   1.194 -0.0438 -1.1092  1.4460
  558SOL    MW4 2287   1.570   0.468   1.232 -0.0484  0.0574  0.0273
  559SOL     OW 2288   1.590   0.719   1.127 -0.2959  0.3496 -0.3732
  559SOL    HW2 2289   1.666   0.767   1.160  0.0440  0.1786 -0.9018
  559SOL    HW3 2290   1.590   0.735   1.033 -0.5949 -0.1106 -0.4547
  559SOL    MW4 2291   1.600   0.728   1.119 -0.2904  0.2663 -0.4536
  560SOL     OW 2292   1.375   0.861   1.267  0.1846 -0.0705  0.2793
  560SOL    HW2 2293   1.444   0.808   1.227 -0.0468 -2.1742  2.5136
  560SOL    HW3 2294   1.295   0.833   1.224  0.4604  0.9434 -0.9224
  560SOL    MW4 2295   1.374   0.850   1.256  0.1905 -0.2143  0.4154
  561SOL     OW 2296   1.372   1.143   1.183 -0.4200 -0.0970  0.2757
  561SOL    HW2 2297   1.387   1.051   1.205  1.3111 -0.5869 -2.7202
  561SOL    HW3 2298   1.350   1.143   1.090 -1.2535  2.4497  0.4251
  561SOL    MW4 2299   1.371   1.131   1.174 -0.3015  0.1744 -0.0999
  562SOL     OW 2300   1.602   1.282   1.281  0.2047  0.1489  0.2863
  562SOL    HW2 2301   1.673   1.242   1.231  0.5524  0.9021  0.1736
  562SOL    HW3 2302   1.524   1.231   1.257  0.5696 -0.1915 -0.1797
  562SOL    MW4 2303   1.601   1.270   1.271  0.2987  0.2033  0.2100
  563SOL     OW 2304   1.568   1.526   1.140 -0.7712 -0.1595  0.0999
  563SOL    HW2 2305   1.649   1.569   1.170 -0.4368 -0.7891  0.1030
  563SOL    HW3 2306   1.565   1.444   1.188 -1.5502 -0.0263  0.2833
  563SOL    MW4 2307   1.578   1.521   1.150 -0.8299 -0.2251  0.1245
  564SOL     OW 2308   1.364   1.664   1.238  0.4360 -0.0714  0.2065
  564SOL    HW2 2309   1.427   1.607   1.194  0.1333  1.3771 -2.2069
  564SOL    HW3 2310   1.279   1.635   1.207  0.2047  0.9004 -0.1036
  564SOL    MW4 2311   1.361   1.653   1.228  0.3656  0.2481 -0.1528
  565SOL     OW 2312   1.357   1.931   1.135  0.2445 -0.1888  0.4632
  565SOL    HW2 2313   1.289   1.975   1.186  0.1014 -1.2236  1.1892
  565SOL    HW3 2314   1.358   1.842   1.169  0.5681 -0.7321 -0.9344
  565SOL    MW4 2315   1.348   1.925   1.146  0.2682 -0.3970  0.3747
  566SOL     OW 2316   1.600   2.011   1.240 -0.3899  0.4744  0.9428
  566SOL    HW2 2317   1.618   2.096   1.200 -1.0195  0.1239 -0.0913
  566SOL    HW3 2318   1.518   1.983   1.201 -0.6866 -0.1690  2.0180
  566SOL    MW4 2319   1.592   2.019   1.230 -0.5121  0.3433  0.9482
  567SOL     OW 2320   1.621   2.276   1.151  0.0260 -0.8004  0.2664
  567SOL    HW2 2321   1.545   2.319   1.190  1.4317  1.4501  0.6110
  567SOL    HW3 2322   1.608   2.288   1.056  1.1066  1.7538  0.3849
  567SOL    MW4 2323   1.609   2.283   1.143  0.3542 -0.1667  0.3276
  568SOL     OW 2324   1.372   2.422   1.199  0.3067  0.2402  0.0021
  568SOL    HW2 2325   1.367   2.433   1.293  0.2571  0.8130 -0.0644
  568SOL    HW3 2326   1.387   2.510   1.165  2.1884 -0.1953 -0.3851
  568SOL    MW4 2327   1.374   2.435   1.207  0.5485  0.2584 -0.0578
  569SOL     OW 2328   1.366   2.679   1.116  0.1346 -0.0837  0.2347
  569SOL    HW2 2329   1.431   2.726   1.168  1.1817  0.2881 -1.3633
  569SOL    HW3 2330   1.283   2.716   1.143  0.8569  1.8479 -0.1110
  569SOL    MW4 2331   1.364   2.690   1.126  0.3680  0.2201 -0.0218
  570SOL     OW 2332   1.570   2.852   1.237  0.3959  0.0062  0.0749
  570SOL    HW2 2333   1.637   2.808   1.184 -0.3359 -0.3558 -0.5569
  570SOL    HW3 2334   1.569   2.942   1.205  1.2410  0.2610  0.7359
  570SOL    MW4 2335   1.579   2.858   1.226  0.4109 -0.0079  0.0787
  571SOL     OW 2336   1.595   3.097   1.113  0.1884 -0.0344  0.3667
  571SOL    HW2 2337   1.656   3.147   1.168  0.7559  1.1982 -1.3529
  571SOL    HW3 2338   1.510   3.139   1.126  0.6605  1.4067 -1.0583
  571SOL    MW4 2339   1.592   3.109   1.122  0.3256  0.3183 -0.0482
  572SOL     OW 2340   1.347   3.213   1.216  0.1808 -0.2241 -0.0316
  572SOL    HW2 2341   1.361   3.201   1.310  0.7122 -0.9826 -0.2024
  572SOL    HW3 2342   1.264   3.168   1.199 -0.9342  1.6132  0.4217
  572SOL    MW4 2343   1.338   3.205   1.226  0.1040 -0.0818  0.0057
  573SOL     OW 2344   1.398   3.479   1.150 -0.2089 -0.1950  0.0733
  573SOL    HW2 2345   1.387   3.389   1.180  0.7399  0.0036  1.0678
  573SOL    HW3 2346   1.378   3.476   1.057  1.0300 -1.6776 -0.1665
  573SOL    MW4 2347   1.394   3.467   1.142  0.0798 -0.3643  0.1729
  574SOL     OW 2348   1.615   3.620   1.242  0.0096 -0.1479 -0.3119
  574SOL    HW2 2349   1.697   3.577   1.215 -0.2121 -0.8220  0.0630
  574SOL    HW3 2350   1.546   3.561   1.212 -0.3251  0.2111 -0.2549
  574SOL    MW4 2351   1.617   3.606   1.235 -0.0640 -0.1895 -0.2550
  575SOL     OW 2352   1.573   3.885   1.128 -0.2109 -0.2625  0.0720
  575SOL    HW2 2353   1.496   3.921   1.170  1.0079 -0.2344  2.3601
  575SOL    HW3 2354   1.579   3.795   1.161  0.3293 -0.4948 -0.6380
  575SOL    MW4 2355   1.564   3.878   1.138  0.0212 -0.2894  0.2801
  576SOL     OW 2356   1.338   3.985   1.212  0.3367  0.1951 -0.0879
  576SOL    HW2 2357   1.331   4.076   1.183  0.3859  0.0390 -0.5957
  576SOL    HW3 2358   1.267   3.940   1.167 -0.7571  0.3150  1.5054
  576SOL    MW4 2359   1.328   3.991   1.202  0.1990  0.1900  0.0553
  577SOL     OW 2360   1.331   4.249   1.141  0.2559  0.0532 -0.4332
  577SOL    HW2 2361   1.323   4.245   1.046 -0.9414 -1.0565 -0.3040
  577SOL    HW3 2362   1.264   4.312   1.168 -0.1068 -0.4109 -0.2470
  577SOL    MW4 2363   1.321   4.257   1.132  0.0501 -0.1545 -0.3916
  578SOL     OW 2364   1.543   4.374   1.268 -0.0783  0.0639 -0.7400
  578SOL    HW2 2365   1.555   4.368   1.363 -0.5295 -1.8321 -0.7867
  578SOL    HW3 2366   1.461   4.327   1.251 -0.3896  1.0227 -1.9885
  578SOL    MW4 2367   1.534   4.367   1.278 -0.1791 -0.0601 -0.9109
  579SOL     OW 2368   2.023   4.597   1.116 -0.0844  0.7073  0.1804
  579SOL    HW2 2369   2.049   4.510   1.147 -0.2534  0.7455  0.4341
  579SOL    HW3 2370   1.999   4.583   1.024 -0.0146  0.5060  0.1907
  579SOL    MW4 2371   2.023   4.583   1.108 -0.0978  0.6857  0.2154
  580SOL     OW 2372   1.786   0.048   1.209 -0.0874  0.0691 -0.0190
  580SOL    HW2 2373   1.797   0.139   1.180 -0.3274  0.2700  0.5134
  580SOL    HW3 2374   1.872   0.008   1.195  0.4380  0.7714  1.1170
  580SOL    MW4 2375   1.799   0.055   1.203 -0.0497  0.1883  0.2011
  581SOL     OW 2376   1.809   0.327   1.151 -0.2013 -0.3035  0.3923
  581SOL    HW2 2377   1.729   0.356   1.195 -0.2990  0.4944 -0.2880
  581SOL    HW3 2378   1.789   0.335   1.058  0.2742 -1.2204  0.2055
  581SOL    MW4 2379   1.796   0.332   1.145 -0.1513 -0.3192  0.2780
  582SOL     OW 2380   2.032   0.482   1.212 -0.0006  0.0141 -0.2595
  582SOL    HW2 2381   2.015   0.484   1.306 -1.5026  0.3959 -0.5342
  582SOL    HW3 2382   1.959   0.434   1.174  0.7324 -0.3717 -1.2073
  582SOL    MW4 2383   2.020   0.476   1.219 -0.1023  0.0136 -0.4208
  583SOL     OW 2384   2.014   0.752   1.149 -0.3058  0.4451  0.2833
  583SOL    HW2 2385   2.019   0.656   1.157 -0.7399  0.4689  0.8693
  583SOL    HW3 2386   2.024   0.769   1.055  0.1210 -0.1524  0.2176
  583SOL    MW4 2387   2.016   0.741   1.138 -0.3066  0.3694  0.3521
  584SOL     OW 2388   1.788   0.904   1.235  0.1072 -0.3696  0.2715
  584SOL    HW2 2389   1.790   0.915   1.330 -0.4992 -0.6795  0.3250
  584SOL    HW3 2390   1.866   0.852   1.215  0.0063 -0.6658  0.6487
  584SOL    MW4 2391   1.798   0.899   1.245  0.0138 -0.4495  0.3285
  585SOL     OW 2392   1.825   1.169   1.139 -0.3648 -0.4310  0.0807
  585SOL    HW2 2393   1.827   1.184   1.045 -1.3183 -0.5297  0.0357
  585SOL    HW3 2394   1.828   1.074   1.148  1.1430 -0.3713  0.2013
  585SOL    MW4 2395   1.825   1.159   1.128 -0.2916 -0.4361  0.0907
  586SOL     OW 2396   2.023   1.285   1.273  0.3421  0.0569 -0.2863
  586SOL    HW2 2397   2.095   1.223   1.263  0.8302  0.8579 -1.9715
  586SOL    HW3 2398   1.950   1.244   1.225 -0.4364 -0.8856  1.6531
  586SOL    MW4 2399   2.023   1.271   1.265  0.3037  0.0384 -0.2527
  587SOL     OW 2400   2.022   1.522   1.129 -0.1982  0.1886  0.0871
  587SOL    HW2 2401   2.030   1.449   1.190  0.3157  0.3177  0.1732
  587SOL    HW3 2402   2.074   1.592   1.168 -0.9860  0.7199  0.1832
  587SOL    MW4 2403   2.030   1.521   1.142 -0.2344  0.2757  0.1112
  588SOL     OW 2404   1.784   1.635   1.229 -0.0267  0.1449  0.2031
  588SOL    HW2 2405   1.784   1.721   1.186  0.5238 -0.3065 -0.7213
  588SOL    HW3 2406   1.858   1.588   1.190  1.1778  0.0899  2.4304
  588SOL    MW4 2407   1.794   1.640   1.218  0.2049  0.0782  0.3750
  589SOL     OW 2408   1.821   1.884   1.121  0.2326 -0.3615 -0.2514
  589SOL    HW2 2409   1.744   1.933   1.148 -0.9471 -1.7875 -0.9557
  589SOL    HW3 2410   1.817   1.884   1.025  1.7426  0.5332 -0.3263
  589SOL    MW4 2411   1.810   1.890   1.112  0.2761 -0.4314 -0.3542
  590SOL     OW 2412   2.039   2.019   1.228  0.0698 -0.1241  0.4140
  590SOL    HW2 2413   2.038   2.024   1.324  1.1763 -0.3845  0.4462
  590SOL    HW3 2414   1.954   1.983   1.205 -0.2718  0.1032  1.2973
  590SOL    MW4 2415   2.028   2.015   1.238  0.1705 -0.1285  0.5348
  591SOL     OW 2416   2.059   2.316   1.173  0.0886  0.2772 -0.0603
  591SOL    HW2 2417   2.139   2.356   1.208  0.3374 -1.4167  1.3174
  591SOL    HW3 2418   2.071   2.222   1.184 -2.1671 -0.0051  0.3296
  591SOL    MW4 2419   2.071   2.309   1.179 -0.1762  0.0165  0.1730
  592SOL     OW 2420   1.824   2.464   1.232 -0.3731  0.5272  0.1764
  592SOL    HW2 2421   1.914   2.442   1.210 -0.3496  0.5398  0.2593
  592SOL    HW3 2422   1.772   2.391   1.197 -0.4627  1.1724 -1.0321
  592SOL    MW4 2423   1.829   2.451   1.225 -0.3818  0.6142  0.0277
  593SOL     OW 2424   1.795   2.708   1.114 -0.1129 -0.4277 -0.2077
  593SOL    HW2 2425   1.802   2.622   1.156  0.7663 -0.5421 -0.5650
  593SOL    HW3 2426   1.819   2.691   1.023 -0.7578  0.0494 -0.4675
  593SOL    MW4 2427   1.799   2.694   1.107 -0.0821 -0.3800 -0.2891
  594SOL     OW 2428   2.022   2.825   1.218 -0.1456  0.1444  0.0066
  594SOL    HW2 2429   2.019   2.920   1.202 -1.9756  0.3760  1.5687
  594SOL    HW3 2430   1.941   2.792   1.181 -0.2780 -0.5661  0.9052
  594SOL    MW4 2431   2.011   2.833   1.211 -0.4044  0.0811  0.3312
  595SOL     OW 2432   2.044   3.093   1.123 -0.0544 -0.3197 -0.2650
  595SOL    HW2 2433   1.967   3.138   1.157 -1.4796 -1.8679 -1.3844
  595SOL    HW3 2434   2.038   3.103   1.028  0.2370 -1.8554 -0.4525
  595SOL    MW4 2435   2.033   3.100   1.115 -0.2043 -0.7262 -0.4374
  596SOL     OW 2436   1.807   3.223   1.228  0.4384  0.2118  0.4156
  596SOL    HW2 2437   1.812   3.239   1.322 -1.0291 -0.6846  0.6650
  596SOL    HW3 2438   1.806   3.310   1.188 -2.0204  0.6855  1.4120
  596SOL    MW4 2439   1.807   3.236   1.235 -0.0798  0.1559  0.5800
  597SOL     OW 2440   1.820   3.477   1.110  0.5368  0.1365  0.2159
  597SOL    HW2 2441   1.905   3.515   1.131  1.6895 -2.0255 -0.4095
  597SOL    HW3 2442   1.814   3.482   1.014 -0.8264  1.8506  0.3534
  597SOL    MW4 2443   1.830   3.483   1.100  0.5090  0.0775  0.1515
  598SOL     OW 2444   2.025   3.615   1.259  0.1851 -0.4007  0.0450
  598SOL    HW2 2445   2.024   3.628   1.354  1.0374 -1.1981  0.1685
  598SOL    HW3 2446   2.105   3.566   1.243  0.0342 -0.2714 -1.0914
  598SOL    MW4 2447   2.035   3.610   1.270  0.2775 -0.4890 -0.0887
  599SOL     OW 2448   2.038   3.864   1.126 -0.3818  0.2843 -0.1405
  599SOL    HW2 2449   1.955   3.903   1.151  1.3257  3.3594  0.9983
  599SOL    HW3 2450   2.037   3.778   1.167 -3.3922 -0.1463 -1.0129
  599SOL    MW4 2451   2.027   3.858   1.135 -0.5538  0.6332 -0.1053
  600SOL     OW 2452   1.806   4.007   1.202  0.2674 -0.1103  0.8359
  600SOL    HW2 2453   1.788   4.026   1.295  0.0588  1.1348  0.5416
  600SOL    HW3 2454   1.731   3.955   1.174 -0.1876  0.4049  1.0889
  600SOL    MW4 2455   1.794   4.002   1.211  0.1799  0.1221  0.8304
  601SOL     OW 2456   1.800   4.270   1.139 -0.2997 -0.3283 -0.1385
  601SOL    HW2 2457   1.790   4.179   1.166 -1.5288 -0.4279 -0.8924
  601SOL    HW3 2458   1.723   4.314   1.176  0.2209  0.3732  0.1053
  601SOL    MW4 2459   1.788   4.264   1.147 -0.3930 -0.2489 -0.2058
  602SOL     OW 2460   2.091   4.343   1.181  0.2202 -0.0356 -0.2939
  602SOL    HW2 2461   2.092   4.350   1.276  0.5685 -1.6651 -0.1642
  602SOL    HW3 2462   2.004   4.307   1.161  1.1134 -2.2614 -0.3617
  602SOL    MW4 2463   2.079   4.339   1.191  0.3839 -0.5441 -0.2859
  603SOL     OW 2464   2.464   4.659   1.066  0.1990  0.2477  0.2503
  603SOL    HW2 2465   2.550   4.681   1.101  0.2147 -0.1757  0.4906
  603SOL    HW3 2466   2.403   4.684   1.136  0.0987  0.8697 -0.0598
  603SOL    MW4 2467   2.467   4.665   1.080  0.1879  0.2742  0.2410
  604SOL     OW 2468   2.249   0.079   1.233 -0.2945  0.3980 -0.0330
  604SOL    HW2 2469   2.264   0.165   1.193 -0.5243  0.2310 -0.4820
  604SOL    HW3 2470   2.182   0.039   1.178 -0.9758  0.3616  0.8237
  604SOL    MW4 2471   2.242   0.085   1.220 -0.4144  0.3712  0.0209
  605SOL     OW 2472   2.257   0.344   1.135  0.3140 -0.2071 -0.0081
  605SOL    HW2 2473   2.185   0.402   1.160  1.2904  0.5628  1.0525
  605SOL    HW3 2474   2.265   0.355   1.040 -0.2613  0.5214  0.0273
  605SOL    MW4 2475   2.249   0.353   1.126  0.3669 -0.0094  0.1365
  606SOL     OW 2476   2.500   0.475   1.191 -0.3415 -0.2418 -0.4103
  606SOL    HW2 2477   2.498   0.483   1.286  0.4513 -0.3070 -0.3836
  606SOL    HW3 2478   2.420   0.428   1.169 -1.2673  1.0841  0.0841
  606SOL    MW4 2479   2.490   0.470   1.201 -0.3588 -0.0755 -0.3414
  607SOL     OW 2480   2.484   0.764   1.133 -0.0277  0.0919 -0.3319
  607SOL    HW2 2481   2.487   0.668   1.138 -0.5244  0.0667 -0.4557
  607SOL    HW3 2482   2.451   0.782   1.045 -0.1856  0.3751 -0.2142
  607SOL    MW4 2483   2.480   0.754   1.122 -0.1142  0.1260 -0.3327
  608SOL     OW 2484   2.242   0.826   1.273 -0.2029 -0.1673  0.2198
  608SOL    HW2 2485   2.316   0.796   1.221 -1.3020 -3.3456  0.3740
  608SOL    HW3 2486   2.166   0.809   1.217 -1.0562  0.2824  1.2272
  608SOL    MW4 2487   2.241   0.819   1.258 -0.4604 -0.5273  0.3731
  609SOL     OW 2488   2.246   1.099   1.162 -0.0226 -0.5802 -0.4067
  609SOL    HW2 2489   2.324   1.142   1.195 -0.2592 -0.1611 -0.3912
  609SOL    HW3 2490   2.241   1.017   1.211 -0.9265  0.4841  1.3375
  609SOL    MW4 2491   2.256   1.094   1.172 -0.1731 -0.3846 -0.1746
  610SOL     OW 2492   2.475   1.232   1.254 -0.4586 -0.3903 -0.0701
  610SOL    HW2 2493   2.535   1.190   1.192 -1.1776  0.4634 -1.3478
  610SOL    HW3 2494   2.468   1.322   1.224 -1.3671 -0.1484  0.8535
  610SOL    MW4 2495   2.482   1.238   1.242 -0.6733 -0.2457 -0.1169
  611SOL     OW 2496   2.465   1.524   1.177 -0.2333 -0.5444  0.4113
  611SOL    HW2 2497   2.378   1.562   1.187  1.2680  3.3346 -0.2393
  611SOL    HW3 2498   2.478   1.517   1.083  0.3985 -0.4956  0.4914
  611SOL    MW4 2499   2.456   1.528   1.166  0.0482 -0.0261  0.3361
  612SOL     OW 2500   2.284   1.934   1.148 -0.0722  0.6802 -0.1332
  612SOL    HW2 2501   2.204   1.968   1.188 -0.4738 -0.6584  0.2304
  612SOL    HW3 2502   2.261   1.919   1.056 -0.0843  0.8005 -0.1494
  612SOL    MW4 2503   2.270   1.936   1.141 -0.1271  0.5194 -0.0874
  613SOL     OW 2504   2.588   1.955   0.840 -0.2763  0.0104  0.4195
  613SOL    HW2 2505   2.612   1.914   0.924  0.5849 -0.1522  0.0941
  613SOL    HW3 2506   2.665   1.944   0.785 -0.4037  1.2074  0.0030
  613SOL    MW4 2507   2.601   1.948   0.844 -0.1795  0.1469  0.3217
  614SOL     OW 2508   2.531   1.984   1.246  0.1877 -0.0364 -0.3137
  614SOL    HW2 2509   2.590   1.965   1.173 -0.6346 -0.5597 -0.8554
  614SOL    HW3 2510   2.446   1.950   1.217 -0.3431  0.5688  0.5177
  614SOL    MW4 2511   2.527   1.977   1.232  0.0093 -0.0257 -0.2755
  615SOL     OW 2512   2.516   2.283   1.168 -0.2410  0.0908 -0.0209
  615SOL    HW2 2513   2.530   2.198   1.208  0.7301  1.0339  1.7006
  615SOL    HW3 2514   2.541   2.271   1.076  0.7896 -1.2496  0.4244
  615SOL    MW4 2515   2.521   2.270   1.161  0.0231  0.0384  0.2651
  616SOL     OW 2516   2.297   2.429   1.262  0.6606  0.0504  0.7997
  616SOL    HW2 2517   2.292   2.446   1.356 -0.3095 -0.7518  0.8971
  616SOL    HW3 2518   2.380   2.383   1.251  0.8820  0.3422  1.2370
  616SOL    MW4 2519   2.307   2.425   1.273  0.5620 -0.0167  0.8702
  617SOL     OW 2520   2.252   2.676   1.121 -0.0386 -0.0053  0.4123
  617SOL    HW2 2521   2.264   2.588   1.156 -0.1727 -0.5269 -0.8042
  617SOL    HW3 2522   2.176   2.711   1.168 -1.3542 -1.3888 -0.6399
  617SOL    MW4 2523   2.243   2.669   1.132 -0.2296 -0.2565  0.1130
  618SOL     OW 2524   2.478   2.823   1.199 -0.1276 -0.1076  0.4539
  618SOL    HW2 2525   2.463   2.839   1.293 -0.6459 -0.3813  0.4239
  618SOL    HW3 2526   2.393   2.792   1.167  0.2624 -0.7707  0.0581
  618SOL    MW4 2527   2.465   2.821   1.207 -0.1447 -0.2310  0.3978
  619SOL     OW 2528   2.469   3.101   1.108 -0.2209  0.0717  0.1146
  619SOL    HW2 2529   2.388   3.121   1.154 -1.1622  0.3165 -1.5872
  619SOL    HW3 2530   2.476   3.006   1.112 -1.4015 -0.0792 -1.0149
  619SOL    MW4 2531   2.459   3.091   1.114 -0.5009  0.0842 -0.2589
  620SOL     OW 2532   2.250   3.222   1.244 -0.1518  0.3013  0.6804
  620SOL    HW2 2533   2.258   3.308   1.202 -0.4060  1.0620  2.1687
  620SOL    HW3 2534   2.184   3.176   1.191  1.5155  0.2311 -1.3884
  620SOL    MW4 2535   2.242   3.227   1.232  0.0346  0.3922  0.6039
  621SOL     OW 2536   2.273   3.518   1.168 -0.0543 -0.2592  0.1659
  621SOL    HW2 2537   2.353   3.549   1.211 -0.1347  0.4577 -0.2039
  621SOL    HW3 2538   2.297   3.509   1.076 -0.6863  0.9357 -0.1195
  621SOL    MW4 2539   2.287   3.521   1.162 -0.1481 -0.0072  0.0794
  622SOL     OW 2540   2.542   3.612   1.237  0.0020 -0.0341  0.3603
  622SOL    HW2 2541   2.523   3.596   1.329  3.2548  0.1554  1.1033
  622SOL    HW3 2542   2.526   3.706   1.225 -3.0988 -0.5562  0.0002
  622SOL    MW4 2543   2.537   3.623   1.247  0.0219 -0.0780  0.4108
  623SOL     OW 2544   2.496   3.871   1.127  0.2185 -0.1111 -0.1626
  623SOL    HW2 2545   2.415   3.907   1.163  0.3267  0.5010 -0.5117
  623SOL    HW3 2546   2.483   3.873   1.032  0.3953 -0.5995 -0.1958
  623SOL    MW4 2547   2.484   3.876   1.119  0.2561 -0.0949 -0.2131
  624SOL     OW 2548   2.261   3.996   1.205  0.2310  0.3031  0.4889
  624SOL    HW2 2549   2.270   4.069   1.144 -0.2301  1.2632  1.5595
  624SOL    HW3 2550   2.182   3.950   1.175  0.7465 -0.0013 -0.4244
  624SOL    MW4 2551   2.252   4.000   1.193  0.2382  0.3893  0.5096
  625SOL     OW 2552   2.299   4.218   1.047  0.6419 -0.0808 -0.0236
  625SOL    HW2 2553   2.220   4.255   1.087  1.0778  0.1249  0.6539
  625SOL    HW3 2554   2.296   4.249   0.956  0.8467  1.3918  0.4550
  625SOL    MW4 2555   2.288   4.227   1.040  0.7265  0.1411  0.1289
  626SOL     OW 2556   2.467   4.399   1.172 -0.1507  0.0005  0.1505
  626SOL    HW2 2557   2.396   4.345   1.137  0.1665 -0.1519 -0.2545
  626SOL    HW3 2558   2.454   4.484   1.130 -0.8495  0.3521  1.0377
  626SOL    MW4 2559   2.456   4.403   1.162 -0.2010  0.0267  0.2141
  627SOL     OW 2560   2.954   4.613   1.096 -0.9139  0.1879  0.0915
  627SOL    HW2 2561   2.923   4.530   1.131 -0.3283 -0.0423  0.0751
  627SOL    HW3 2562   2.928   4.612   1.004  0.1821 -0.5347 -0.2271
  627SOL    MW4 2563   2.947   4.602   1.088 -0.6921  0.0620  0.0473
  628SOL     OW 2564   2.713   0.051   1.176 -0.2535  0.5018 -0.1567
  628SOL    HW2 2565   2.713   0.046   1.271 -1.5038  1.9763 -0.0530
  628SOL    HW3 2566   2.795   0.010   1.149  1.4730  2.6196  1.7036
  628SOL    MW4 2567   2.724   0.045   1.185 -0.1905  0.9758  0.1024
  629SOL     OW 2568   2.716   0.337   1.093 -0.1735 -0.9809  0.8270
  629SOL    HW2 2569   2.705   0.249   1.130 -1.0552 -0.7299  1.1683
  629SOL    HW3 2570   2.655   0.392   1.142  1.2899  0.0831  1.4887
  629SOL    MW4 2571   2.707   0.332   1.104 -0.0968 -0.8074  0.9595
  630SOL     OW 2572   2.886   0.478   1.258 -0.5365 -0.1173  0.0014
  630SOL    HW2 2573   2.879   0.558   1.207  1.9359 -0.6227 -1.2413
  630SOL    HW3 2574   2.838   0.412   1.207 -0.5473  0.0357 -0.1850
  630SOL    MW4 2575   2.879   0.480   1.244 -0.2117 -0.1638 -0.1872
  631SOL     OW 2576   2.917   0.727   1.113 -0.3552 -0.0576  0.8007
  631SOL    HW2 2577   3.004   0.757   1.140  0.2355 -0.1408 -0.9659
  631SOL    HW3 2578   2.857   0.789   1.155  0.6656  1.3121  0.2777
  631SOL    MW4 2579   2.920   0.739   1.122 -0.1423  0.1121  0.4985
  632SOL     OW 2580   2.725   0.905   1.232  0.5656 -0.4414  0.5215
  632SOL    HW2 2581   2.723   0.982   1.175  1.3610 -0.2125  0.7890
  632SOL    HW3 2582   2.645   0.857   1.211  1.3146 -0.8577 -1.5005
  632SOL    MW4 2583   2.714   0.909   1.222  0.7696 -0.4661  0.2900
  633SOL     OW 2584   2.688   1.140   1.088 -0.1247 -0.3128  0.3417
  633SOL    HW2 2585   2.703   1.136   0.993 -0.6106 -1.1508  0.2980
  633SOL    HW3 2586   2.761   1.194   1.121 -0.7561  1.2205 -0.6761
  633SOL    MW4 2587   2.700   1.147   1.080 -0.2723 -0.2210  0.2016
  634SOL     OW 2588   2.922   1.231   1.203 -0.4853 -0.0977 -0.2960
  634SOL    HW2 2589   2.918   1.229   1.298  1.9947 -0.5838 -0.1732
  634SOL    HW3 2590   2.916   1.323   1.180 -0.5964  0.0534  0.3338
  634SOL    MW4 2591   2.920   1.243   1.212 -0.1726 -0.1419 -0.1966
  635SOL     OW 2592   2.924   1.504   1.153  0.1552  0.1437 -0.0123
  635SOL    HW2 2593   2.994   1.547   1.202 -0.3146  1.2614 -0.3039
  635SOL    HW3 2594   2.950   1.511   1.061  0.9715 -1.8385  0.0394
  635SOL    MW4 2595   2.936   1.510   1.147  0.2007  0.0296 -0.0440
  636SOL     OW 2596   2.689   1.673   1.246  0.7399  0.2303  0.2971
  636SOL    HW2 2597   2.765   1.624   1.213  1.4568  1.0094  0.7791
  636SOL    HW3 2598   2.613   1.620   1.220  1.4771 -0.8342  0.2873
  636SOL    MW4 2599   2.689   1.659   1.239  0.9317  0.1926  0.3594
  637SOL     OW 2600   2.707   1.879   1.069 -0.5113  0.5536 -0.3880
  637SOL    HW2 2601   2.783   1.932   1.097  1.3045 -0.7273 -2.7446
  637SOL    HW3 2602   2.699   1.812   1.137 -0.8149  1.9013  0.9344
  637SOL    MW4 2603   2.716   1.877   1.082 -0.3119  0.5625 -0.5245
  638SOL     OW 2604   2.896   2.048   1.172 -0.3045  0.1681 -0.1267
  638SOL    HW2 2605   2.893   2.054   1.268  1.9029  0.1300 -0.0180
  638SOL    HW3 2606   2.907   2.139   1.143  0.2517  0.0612 -0.2624
  638SOL    MW4 2607   2.897   2.061   1.181  0.0601  0.1490 -0.1302
  639SOL     OW 2608   2.940   2.305   1.113  0.2995  0.0016 -0.3396
  639SOL    HW2 2609   3.009   2.360   1.150  0.7177 -0.3565 -0.5700
  639SOL    HW3 2610   2.859   2.335   1.155  0.5009  0.8773 -0.5724
  639SOL    MW4 2611   2.939   2.316   1.124  0.3810  0.0696 -0.4008
  640SOL     OW 2612   2.730   2.408   1.279  0.3372 -0.3370  0.0150
  640SOL    HW2 2613   2.708   2.424   1.370  2.8740 -2.5998  1.0978
  640SOL    HW3 2614   2.660   2.353   1.246 -0.1335 -0.2484  0.8570
  640SOL    MW4 2615   2.718   2.403   1.286  0.6099 -0.6239  0.2688
  641SOL     OW 2616   2.699   2.660   1.143  0.0426 -0.3968 -0.0553
  641SOL    HW2 2617   2.704   2.580   1.197  0.6289  0.3915  1.0743
  641SOL    HW3 2618   2.613   2.697   1.165 -0.9970 -1.6298 -1.9117
  641SOL    MW4 2619   2.688   2.654   1.153 -0.0169 -0.4556 -0.1513
  642SOL     OW 2620   2.886   2.848   1.217 -0.0579  0.0122 -0.0966
  642SOL    HW2 2621   2.889   2.833   1.311 -1.8305  1.4385  0.2326
  642SOL    HW3 2622   2.810   2.798   1.187  0.1790 -0.0017 -0.6875
  642SOL    MW4 2623   2.876   2.840   1.225 -0.2606  0.1988 -0.1310
  643SOL     OW 2624   2.899   3.133   1.137 -0.3736 -0.4132  0.3639
  643SOL    HW2 2625   2.882   3.043   1.166 -1.0525 -0.6900 -0.8453
  643SOL    HW3 2626   2.924   3.123   1.045  1.1116  0.4961  0.6612
  643SOL    MW4 2627   2.900   3.120   1.128 -0.2670 -0.3295  0.2437
  644SOL     OW 2628   2.679   3.282   1.221 -0.1193  0.1753 -0.1339
  644SOL    HW2 2629   2.745   3.227   1.178  0.1067 -0.0252  0.4636
  644SOL    HW3 2630   2.595   3.249   1.190  0.0052 -0.6960  0.4434
  644SOL    MW4 2631   2.677   3.270   1.211 -0.0730  0.0341  0.0211
  645SOL     OW 2632   2.718   3.499   1.058  0.3134  0.1174 -0.2982
  645SOL    HW2 2633   2.728   3.414   1.101 -0.7153 -0.1261 -0.5487
  645SOL    HW3 2634   2.651   3.544   1.109 -0.5587  0.0164 -1.3645
  645SOL    MW4 2635   2.711   3.494   1.071  0.0627  0.0720 -0.4718
  646SOL     OW 2636   2.942   3.608   1.190  0.0342 -0.2112  0.1133
  646SOL    HW2 2637   3.017   3.557   1.160  0.2269  0.4064 -0.4667
  646SOL    HW3 2638   2.869   3.580   1.135 -0.2288 -1.0061  0.8557
  646SOL    MW4 2639   2.943   3.598   1.179  0.0248 -0.2346  0.1346
  647SOL     OW 2640   2.928   3.871   1.113 -0.0941 -0.1031 -0.0582
  647SOL    HW2 2641   2.985   3.930   1.163  1.3767 -0.8109 -0.8528
  647SOL    HW3 2642   2.930   3.789   1.162 -0.9120  0.0471  0.2277
  647SOL    MW4 2643   2.936   3.868   1.126 -0.0079 -0.1764 -0.1254
  648SOL     OW 2644   2.725   4.002   1.211 -0.1790 -0.3651  0.0821
  648SOL    HW2 2645   2.795   3.955   1.166 -1.0087 -1.0346 -0.5431
  648SOL    HW3 2646   2.644   3.962   1.178 -0.9393  1.8555 -0.8696
  648SOL    MW4 2647   2.723   3.991   1.201 -0.3889 -0.1605 -0.1260
  649SOL     OW 2648   2.699   4.272   1.075 -0.1946  0.2066 -0.0309
  649SOL    HW2 2649   2.703   4.187   1.119  0.0935 -0.8032 -1.9236
  649SOL    HW3 2650   2.618   4.312   1.106 -0.0110 -0.4861  1.3623
  649SOL    MW4 2651   2.689   4.266   1.085 -0.1326 -0.0181 -0.0968
  650SOL     OW 2652   2.908   4.377   1.219 -0.0884  0.0214  0.0846
  650SOL    HW2 2653   2.981   4.333   1.176  0.4607 -0.3650  1.3610
  650SOL    HW3 2654   2.829   4.337   1.183  0.3950 -1.5675  0.7553
  650SOL    MW4 2655   2.907   4.366   1.209  0.0477 -0.2394  0.3415
  651SOL     OW 2656   3.419   0.000   1.097  0.4517  0.2838  0.3604
  651SOL    HW2 2657   3.487   0.045   1.147  1.1599  1.3955 -1.5345
  651SOL    HW3 2658   3.338   0.047   1.118  0.2825 -0.9281  2.4832
  651SOL    MW4 2659   3.417   0.012   1.106  0.5226  0.2699  0.3904
  652SOL     OW 2660   3.179   0.100   1.174  0.2010 -0.1241 -0.0002
  652SOL    HW2 2661   3.181   0.088   1.269 -1.3759  0.7321  0.1499
  652SOL    HW3 2662   3.107   0.044   1.144 -1.3334  1.9548 -0.3126
  652SOL    MW4 2663   3.170   0.091   1.183 -0.2096  0.2632 -0.0216
  653SOL     OW 2664   3.108   0.365   1.124 -0.2790 -0.1312 -0.2358
  653SOL    HW2 2665   3.108   0.274   1.155  0.0703 -0.1733 -0.3670
  653SOL    HW3 2666   3.041   0.408   1.178 -1.7323 -0.8825 -1.3941
  653SOL    MW4 2667   3.099   0.359   1.136 -0.4246 -0.2359 -0.4060
  654SOL     OW 2668   3.336   0.490   1.182  0.4557  0.2522 -0.4832
  654SOL    HW2 2669   3.331   0.584   1.162 -1.0109 -0.2636 -2.6348
  654SOL    HW3 2670   3.246   0.460   1.178  0.8253 -1.1320  0.9826
  654SOL    MW4 2671   3.324   0.499   1.179  0.3109  0.0015 -0.5736
  655SOL     OW 2672   3.373   0.765   1.132  0.3576  0.3642  0.1002
  655SOL    HW2 2673   3.289   0.795   1.167 -0.4713 -1.3047 -0.3982
  655SOL    HW3 2674   3.360   0.763   1.037  1.2936  1.0181 -0.0538
  655SOL    MW4 2675   3.360   0.769   1.124  0.3717  0.2303  0.0143
  656SOL     OW 2676   3.133   0.838   1.234 -0.1516  0.2229 -0.4361
  656SOL    HW2 2677   3.124   0.853   1.329  0.0853 -0.1058 -0.3595
  656SOL    HW3 2678   3.146   0.925   1.197 -0.2681  0.3550 -0.1676
  656SOL    MW4 2679   3.134   0.851   1.242 -0.1359  0.1971 -0.3905
  657SOL     OW 2680   3.160   1.096   1.142 -0.2662 -0.5378 -0.2394
  657SOL    HW2 2681   3.223   1.160   1.175 -0.6935 -0.0775 -0.3034
  657SOL    HW3 2682   3.074   1.135   1.161 -0.5230 -0.4710 -1.5053
  657SOL    MW4 2683   3.157   1.110   1.149 -0.3567 -0.4684 -0.4150
  658SOL     OW 2684   3.351   1.291   1.217 -0.0151  0.0978  0.0022
  658SOL    HW2 2685   3.368   1.304   1.311  0.0180 -0.0386  0.0152
  658SOL    HW3 2686   3.348   1.380   1.181 -0.0673  0.1526  0.1389
  658SOL    MW4 2687   3.353   1.304   1.225 -0.0176  0.0870  0.0221
  659SOL     OW 2688   3.357   1.544   1.120  0.0935 -0.3576 -0.4262
  659SOL    HW2 2689   3.441   1.571   1.159 -0.1894  0.9142 -0.6644
  659SOL    HW3 2690   3.291   1.584   1.177 -0.3315 -0.0007 -1.1682
  659SOL    MW4 2691   3.360   1.553   1.133  0.0000 -0.1427 -0.5555
  660SOL     OW 2692   3.137   1.660   1.255  0.3690 -0.2639 -0.2801
  660SOL    HW2 2693   3.129   1.672   1.350 -0.8130  1.3452 -0.5538
  660SOL    HW3 2694   3.130   1.748   1.219  1.5885 -0.7791 -1.8342
  660SOL    MW4 2695   3.135   1.673   1.263  0.3738 -0.1196 -0.5213
  661SOL     OW 2696   3.144   1.909   1.121  0.5186  0.0977  0.5477
  661SOL    HW2 2697   3.220   1.961   1.147  0.9105 -0.4885  0.5931
  661SOL    HW3 2698   3.068   1.958   1.153  0.9111  0.3483  1.1019
  661SOL    MW4 2699   3.144   1.922   1.129  0.6220  0.0535  0.6268
  662SOL     OW 2700   3.383   2.018   1.221 -0.0159 -0.3005 -0.0480
  662SOL    HW2 2701   3.461   1.980   1.180  0.5431 -0.7252  1.3768
  662SOL    HW3 2702   3.386   2.111   1.198 -0.4650 -0.7858 -2.1187
  662SOL    MW4 2703   3.393   2.025   1.213 -0.0014 -0.4206 -0.1330
  663SOL     OW 2704   3.384   2.294   1.134  0.5073 -0.0593 -0.2926
  663SOL    HW2 2705   3.463   2.332   1.171  0.6220  0.8679 -1.4596
  663SOL    HW3 2706   3.316   2.359   1.150  0.0845 -0.6155  0.2217
  663SOL    MW4 2707   3.385   2.307   1.141  0.4666 -0.0103 -0.3787
  664SOL     OW 2708   3.159   2.442   1.209 -0.1521 -0.4929  0.3026
  664SOL    HW2 2709   3.136   2.440   1.302 -1.1142  0.6196  0.0954
  664SOL    HW3 2710   3.176   2.534   1.190 -0.2281 -0.6777 -0.6932
  664SOL    MW4 2711   3.158   2.454   1.219 -0.2890 -0.3705  0.1438
  665SOL     OW 2712   3.183   2.701   1.158 -0.3810 -0.3637  0.1997
  665SOL    HW2 2713   3.097   2.719   1.197  0.4284  0.4044  1.6840
  665SOL    HW3 2714   3.172   2.719   1.065 -1.3592  1.4753  0.6533
  665SOL    MW4 2715   3.170   2.706   1.151 -0.4032 -0.0198  0.4554
  666SOL     OW 2716   3.424   2.804   1.256  0.8435  0.6344 -0.4381
  666SOL    HW2 2717   3.430   2.889   1.214  0.2531  0.5180 -0.7630
  666SOL    HW3 2718   3.337   2.771   1.233  1.2796 -0.3028 -0.7993
  666SOL    MW4 2719   3.413   2.811   1.247  0.8233  0.4954 -0.5288
  667SOL     OW 2720   3.428   3.057   1.153 -0.1324 -0.1828  0.1792
  667SOL    HW2 2721   3.494   3.113   1.194  0.3727 -0.6412  0.0139
  667SOL    HW3 2722   3.345   3.102   1.167  0.1746  0.2155  0.7231
  667SOL    MW4 2723   3.426   3.070   1.160 -0.0253 -0.1907  0.2291
  668SOL     OW 2724   3.171   3.165   1.176 -0.3630 -0.0142 -0.2655
  668SOL    HW2 2725   3.174   3.260   1.163 -0.4630  0.3413  2.1733
  668SOL    HW3 2726   3.078   3.144   1.169 -0.6135  0.4318  1.4843
  668SOL    MW4 2727   3.159   3.175   1.173 -0.4091  0.0918  0.2872
  669SOL     OW 2728   3.164   3.454   1.114 -0.0305 -0.6645 -0.3510
  669SOL    HW2 2729   3.237   3.504   1.152 -1.1948  1.8313 -1.2570
  669SOL    HW3 2730   3.163   3.480   1.022 -1.8488 -0.9384 -0.4165
  669SOL    MW4 2731   3.174   3.464   1.107 -0.4239 -0.3712 -0.4791
  670SOL     OW 2732   3.381   3.630   1.201 -0.0303 -0.2690 -0.2628
  670SOL    HW2 2733   3.389   3.619   1.295 -1.1805  0.4967 -0.0657
  670SOL    HW3 2734   3.457   3.585   1.165  0.8730  0.1712  1.0686
  670SOL    MW4 2735   3.392   3.622   1.208 -0.0629 -0.1099 -0.0610
  671SOL     OW 2736   3.324   3.879   1.044 -0.1787  0.0104 -0.1566
  671SOL    HW2 2737   3.349   3.802   1.094  0.7047  0.3571 -0.0457
  671SOL    HW3 2738   3.243   3.910   1.084 -0.0414 -0.3249  0.3751
  671SOL    MW4 2739   3.317   3.873   1.056 -0.0441  0.0119 -0.0719
  672SOL     OW 2740   3.126   4.030   1.222 -0.4197 -0.6721  0.1329
  672SOL    HW2 2741   3.138   4.037   1.316  2.4292 -1.5492 -0.1092
  672SOL    HW3 2742   3.130   4.120   1.190  0.6925 -0.5321  0.6508
  672SOL    MW4 2743   3.128   4.042   1.230  0.1032 -0.7701  0.1694
  673SOL     OW 2744   3.155   4.296   1.128 -0.0647 -0.1240 -0.2900
  673SOL    HW2 2745   3.227   4.340   1.174 -0.4553  1.1293 -0.8387
  673SOL    HW3 2746   3.160   4.328   1.038 -0.0560 -1.6223 -0.8325
  673SOL    MW4 2747   3.165   4.306   1.123 -0.1152 -0.1564 -0.4340
  674SOL     OW 2748   3.382   4.413   1.222 -0.1335  0.7379  0.4147
  674SOL    HW2 2749   3.461   4.376   1.182 -0.3933  1.0861 -0.4429
  674SOL    HW3 2750   3.381   4.504   1.192 -1.2113  0.5510 -0.1087
  674SOL    MW4 2751   3.392   4.420   1.213 -0.3099  0.7586  0.2325
  675SOL     OW 2752   3.796   4.664   1.078  0.0015 -0.1155  0.4154
  675SOL    HW2 2753   3.798   4.571   1.102 -0.4939 -0.1477  0.3315
  675SOL    HW3 2754   3.798   4.665   0.983 -0.0147 -0.0377  0.4158
  675SOL    MW4 2755   3.797   4.652   1.069 -0.0658 -0.1092  0.4045
  676SOL     OW 2756   3.628   0.084   1.272  0.0023  0.1402  0.7449
  676SOL    HW2 2757   3.614   0.175   1.248  0.2609 -0.1042 -0.3596
  676SOL    HW3 2758   3.690   0.051   1.207  1.9215 -0.1297  2.6655
  676SOL    MW4 2759   3.634   0.091   1.260  0.2894  0.0724  0.8525
  677SOL     OW 2760   3.601   0.343   1.161 -0.2174 -0.4444 -0.5624
  677SOL    HW2 2761   3.666   0.405   1.194 -0.8373 -0.1953  0.1866
  677SOL    HW3 2762   3.517   0.386   1.175 -0.6059 -1.1406 -0.7199
  677SOL    MW4 2763   3.598   0.357   1.167 -0.3505 -0.5034 -0.4843
  678SOL     OW 2764   3.809   0.526   1.252 -0.0403  0.1075  0.1213
  678SOL    HW2 2765   3.884   0.482   1.212  0.1929 -0.6162  1.3279
  678SOL    HW3 2766   3.806   0.612   1.209  0.2867 -0.5940 -1.3317
  678SOL    MW4 2767   3.819   0.532   1.241  0.0336 -0.0805  0.0887
  679SOL     OW 2768   3.822   0.799   1.172  0.3879 -0.1491  0.1250
  679SOL    HW2 2769   3.891   0.865   1.179  0.3866 -0.1172 -0.1512
  679SOL    HW3 2770   3.742   0.846   1.197  0.4715 -0.1958  0.4803
  679SOL    MW4 2771   3.820   0.814   1.176  0.3989 -0.1510  0.1354
  680SOL     OW 2772   3.575   0.906   1.238 -0.0871 -0.2369 -0.0684
  680SOL    HW2 2773   3.566   0.981   1.178  1.8411  0.6657  0.7455
  680SOL    HW3 2774   3.514   0.841   1.203 -0.1525  0.8673 -2.1029
  680SOL    MW4 2775   3.566   0.907   1.225  0.1585  0.0278 -0.2295
  681SOL     OW 2776   3.577   1.147   1.090  0.2383  0.4099 -0.4442
  681SOL    HW2 2777   3.655   1.192   1.122 -0.0083 -0.2401  1.1415
  681SOL    HW3 2778   3.504   1.193   1.133 -0.1446 -0.0796 -0.5689
  681SOL    MW4 2779   3.577   1.159   1.100  0.1552  0.2594 -0.2515
  682SOL     OW 2780   3.786   1.302   1.210  0.4558  0.1014 -0.0926
  682SOL    HW2 2781   3.777   1.297   1.305  0.8728 -1.1340 -0.1056
  682SOL    HW3 2782   3.788   1.396   1.191 -1.2624  0.3804  0.9499
  682SOL    MW4 2783   3.785   1.314   1.220  0.2842 -0.0249  0.0432
  683SOL     OW 2784   3.791   1.546   1.126 -0.0243 -0.6529 -0.0881
  683SOL    HW2 2785   3.872   1.596   1.136 -0.0625 -0.4405 -0.8684
  683SOL    HW3 2786   3.781   1.534   1.032 -0.0128 -2.1229  0.0836
  683SOL    MW4 2787   3.800   1.551   1.115 -0.0274 -0.8188 -0.1684
  684SOL     OW 2788   3.570   1.673   1.247 -0.2042 -0.3443 -0.4154
  684SOL    HW2 2789   3.560   1.753   1.196 -0.5420 -0.2120 -0.1432
  684SOL    HW3 2790   3.647   1.630   1.210 -0.1858 -0.0284 -0.7411
  684SOL    MW4 2791   3.579   1.678   1.236 -0.2463 -0.2850 -0.4225
  685SOL     OW 2792   3.594   1.904   1.088 -0.2150  0.0307 -0.1142
  685SOL    HW2 2793   3.664   1.967   1.109  0.7361 -1.2647  0.6591
  685SOL    HW3 2794   3.613   1.876   0.998  0.1779 -0.2029  0.0397
  685SOL    MW4 2795   3.606   1.909   1.079 -0.0377 -0.1712  0.0083
  686SOL     OW 2796   3.800   2.071   1.174 -0.3641  0.3428 -0.0398
  686SOL    HW2 2797   3.801   2.066   1.270 -1.4382 -0.7907 -0.0678
  686SOL    HW3 2798   3.879   2.026   1.147 -1.5974 -2.0565  0.2414
  686SOL    MW4 2799   3.810   2.064   1.183 -0.6688 -0.1230 -0.0063
  687SOL     OW 2800   3.839   2.321   1.097  0.2069 -0.4596  0.1070
  687SOL    HW2 2801   3.920   2.343   1.142  0.3532 -0.8408  0.0377
  687SOL    HW3 2802   3.821   2.231   1.124  0.2428 -0.6554 -0.5094
  687SOL    MW4 2803   3.847   2.312   1.107  0.2310 -0.5357  0.0167
  688SOL     OW 2804   3.630   2.441   1.229 -0.2656 -0.1811 -0.3263
  688SOL    HW2 2805   3.627   2.435   1.324 -1.1611 -0.3642 -0.3620
  688SOL    HW3 2806   3.706   2.388   1.204  0.5280  0.6342  0.3412
  688SOL    MW4 2807   3.639   2.433   1.238 -0.2789 -0.0978 -0.2427
  689SOL     OW 2808   3.622   2.685   1.106  0.4269  0.2007 -0.1663
  689SOL    HW2 2809   3.610   2.597   1.141  0.9753 -0.2520 -1.1221
  689SOL    HW3 2810   3.562   2.740   1.158  0.3424 -0.6704  0.6544
  689SOL    MW4 2811   3.612   2.681   1.117  0.4880  0.0262 -0.1842
  690SOL     OW 2812   3.847   2.830   1.215 -0.0276  0.1013  0.0853
  690SOL    HW2 2813   3.833   2.806   1.307 -0.7413  0.9468  0.1978
  690SOL    HW3 2814   3.779   2.782   1.167 -0.2276  0.3704  0.0990
  690SOL    MW4 2815   3.836   2.820   1.221 -0.1483  0.2482  0.1020
  691SOL     OW 2816   3.840   3.099   1.126 -0.2351  0.1984  0.6412
  691SOL    HW2 2817   3.844   3.011   1.163 -1.2872  0.6027  1.7251
  691SOL    HW3 2818   3.840   3.084   1.031 -1.8172 -1.0414  0.8108
  691SOL    MW4 2819   3.841   3.085   1.118 -0.5827  0.0882  0.8065
  692SOL     OW 2820   3.637   3.238   1.259 -0.2236 -0.1495 -0.2430
  692SOL    HW2 2821   3.626   3.311   1.198 -0.6889  0.5256  0.6351
  692SOL    HW3 2822   3.712   3.189   1.225  1.1377  1.6497  0.0440
  692SOL    MW4 2823   3.646   3.241   1.247 -0.1056  0.1767 -0.0893
  693SOL     OW 2824   3.589   3.469   1.098  0.0199  0.1641  0.1542
  693SOL    HW2 2825   3.669   3.512   1.127  1.4371 -1.6689 -0.9338
  693SOL    HW3 2826   3.587   3.483   1.003 -0.2963 -0.8385  0.0062
  693SOL    MW4 2827   3.599   3.477   1.089  0.1652 -0.2100 -0.0089
  694SOL     OW 2828   3.799   3.625   1.189  0.0056  0.1314  0.0965
  694SOL    HW2 2829   3.781   3.620   1.283  0.1908  0.0333  0.1279
  694SOL    HW3 2830   3.798   3.718   1.169 -1.4015  0.1012 -0.0749
  694SOL    MW4 2831   3.796   3.636   1.199 -0.1557  0.1144  0.0781
  695SOL     OW 2832   3.786   3.876   1.080  0.0181 -0.1489  0.0535
  695SOL    HW2 2833   3.701   3.916   1.097 -0.7422 -1.8302  0.3300
  695SOL    HW3 2834   3.793   3.874   0.985 -0.1641  0.1684  0.0319
  695SOL    MW4 2835   3.776   3.881   1.070 -0.1061 -0.3288  0.0870
  696SOL     OW 2836   3.551   4.013   1.137  0.0666 -0.1465 -0.2075
  696SOL    HW2 2837   3.550   3.994   1.231  0.3637  1.3308  0.1075
  696SOL    HW3 2838   3.470   3.974   1.104  0.8141 -2.2245  0.3277
  696SOL    MW4 2839   3.540   4.005   1.145  0.2048 -0.2255 -0.0954
  697SOL     OW 2840   3.603   4.294   1.101 -0.2079 -0.0149  0.3586
  697SOL    HW2 2841   3.594   4.199   1.111  3.4863 -0.3993  0.8009
  697SOL    HW3 2842   3.587   4.309   1.008  2.6358 -1.6222 -0.4591
  697SOL    MW4 2843   3.600   4.284   1.090  0.6547 -0.2780  0.3090
  698SOL     OW 2844   3.844   4.404   1.160 -0.4406 -0.3217  0.1494
  698SOL    HW2 2845   3.851   4.402   1.256  0.5453  0.3174  0.0959
  698SOL    HW3 2846   3.774   4.342   1.140 -0.6292 -0.4847  1.2860
  698SOL    MW4 2847   3.836   4.395   1.170 -0.3355 -0.2584  0.2923
  699SOL     OW 2848   4.235   4.643   1.074 -0.3953  0.2116  0.3867
  699SOL    HW2 2849   4.249   4.557   1.113  1.1930 -0.1780 -0.9878
  699SOL    HW3 2850   4.170   4.685   1.130 -0.8040 -1.6899  1.3616
  699SOL    MW4 2851   4.228   4.637   1.086 -0.2398 -0.0916  0.3339
  700SOL     OW 2852   4.035   0.091   1.217  0.0199  0.1406 -0.0594
  700SOL    HW2 2853   4.017   0.074   1.310 -0.1743  0.4823 -0.0357
  700SOL    HW3 2854   3.961   0.052   1.171 -0.3009  0.7033 -0.0202
  700SOL    MW4 2855   4.023   0.083   1.224 -0.0482  0.2600 -0.0510
  701SOL     OW 2856   4.014   0.376   1.147  0.4428 -0.1051  0.3675
  701SOL    HW2 2857   4.031   0.287   1.175 -0.6578 -0.2322  0.6596
  701SOL    HW3 2858   4.015   0.372   1.051  0.5831 -0.3868  0.3808
  701SOL    MW4 2859   4.016   0.364   1.138  0.3161 -0.1591  0.4078
  702SOL     OW 2860   4.245   0.529   1.204 -0.2918 -0.0160  0.2409
  702SOL    HW2 2861   4.253   0.542   1.299 -0.2572 -0.6487  0.3279
  702SOL    HW3 2862   4.162   0.483   1.193 -0.2081 -0.1058 -0.0189
  702SOL    MW4 2863   4.235   0.524   1.215 -0.2766 -0.1113  0.2180
  703SOL     OW 2864   4.254   0.795   1.121  0.0495 -0.3552 -0.3354
  703SOL    HW2 2865   4.237   0.703   1.139  1.2181 -0.4502  0.3282
  703SOL    HW3 2866   4.233   0.806   1.028  2.4948 -1.9288 -1.1201
  703SOL    MW4 2867   4.249   0.784   1.111  0.5264 -0.5754 -0.3515
  704SOL     OW 2868   4.052   0.967   1.207  0.0737  0.3643  0.0613
  704SOL    HW2 2869   4.040   0.952   1.301 -0.3966 -0.2522 -0.0908
  704SOL    HW3 2870   4.125   0.908   1.184 -0.4891 -0.2529 -0.1574
  704SOL    MW4 2871   4.060   0.957   1.216 -0.0620  0.2015  0.0124
  705SOL     OW 2872   4.013   1.229   1.103  0.1194 -0.1886 -0.5848
  705SOL    HW2 2873   4.014   1.147   1.151 -0.7609  0.8597  1.2660
  705SOL    HW3 2874   3.934   1.274   1.133  1.3107  1.9404 -0.4936
  705SOL    MW4 2875   4.003   1.224   1.113  0.1607  0.2307 -0.3285
  706SOL     OW 2876   4.264   1.301   1.169  0.0307  0.1147 -0.2932
  706SOL    HW2 2877   4.277   1.293   1.264 -1.2051  0.9632 -0.0483
  706SOL    HW3 2878   4.175   1.269   1.154 -0.0627  0.7128 -1.0612
  706SOL    MW4 2879   4.254   1.296   1.180 -0.1445  0.3055 -0.3623
  707SOL     OW 2880   4.270   1.567   1.090 -0.0262  0.1033 -0.4160
  707SOL    HW2 2881   4.277   1.474   1.110  0.5032  0.4436  1.0792
  707SOL    HW3 2882   4.347   1.606   1.130 -0.4018  1.2331 -0.7640
  707SOL    MW4 2883   4.281   1.560   1.098 -0.0057  0.2973 -0.2645
  708SOL     OW 2884   4.028   1.670   1.189  0.0573 -0.3818 -0.1642
  708SOL    HW2 2885   4.020   1.682   1.284 -1.1507 -0.9025 -0.1946
  708SOL    HW3 2886   4.109   1.620   1.178  0.3891 -0.0119  0.5622
  708SOL    MW4 2887   4.038   1.665   1.200 -0.0582 -0.4016 -0.0722
  709SOL     OW 2888   4.070   1.929   1.070  0.0204  0.4410  0.0407
  709SOL    HW2 2889   4.053   1.840   1.102  0.5997  0.4162  0.2980
  709SOL    HW3 2890   4.052   1.925   0.977  2.7029 -0.6793 -0.4771
  709SOL    MW4 2891   4.065   1.917   1.062  0.4506  0.2899  0.0063
  710SOL     OW 2892   4.257   2.053   1.227  0.2049 -0.5179  0.0559
  710SOL    HW2 2893   4.265   2.142   1.194 -0.1407 -0.3350  0.4620
  710SOL    HW3 2894   4.195   2.011   1.168  0.5073 -0.5461 -0.2449
  710SOL    MW4 2895   4.250   2.059   1.215  0.1993 -0.4976  0.0699
  711SOL     OW 2896   4.278   2.305   1.121 -0.9390  0.1365 -0.1449
  711SOL    HW2 2897   4.197   2.344   1.153 -1.5365 -0.9550 -0.2886
  711SOL    HW3 2898   4.261   2.287   1.028  0.1649  1.6781 -0.6725
  711SOL    MW4 2899   4.265   2.308   1.113 -0.8721  0.1960 -0.2335
  712SOL     OW 2900   4.058   2.421   1.240  0.0834 -0.3264 -0.0535
  712SOL    HW2 2901   4.064   2.426   1.336 -1.0836  1.8773 -0.0758
  712SOL    HW3 2902   4.077   2.510   1.210 -1.0657 -0.6562 -1.8031
  712SOL    MW4 2903   4.062   2.433   1.249 -0.2222 -0.0789 -0.2874
  713SOL     OW 2904   4.072   2.681   1.154 -0.1751 -0.0440  0.2630
  713SOL    HW2 2905   3.995   2.733   1.176 -0.5266 -0.7357  0.6483
  713SOL    HW3 2906   4.069   2.673   1.058  0.7071  1.9330  0.0442
  713SOL    MW4 2907   4.061   2.687   1.144 -0.1054  0.1256  0.2849
  714SOL     OW 2908   4.286   2.824   1.254 -0.3195 -0.2567  0.0593
  714SOL    HW2 2909   4.285   2.899   1.194 -1.4326 -0.6201 -0.3924
  714SOL    HW3 2910   4.231   2.759   1.211  1.0450 -1.5413  0.2035
  714SOL    MW4 2911   4.279   2.825   1.240 -0.2856 -0.4742  0.0187
  715SOL     OW 2912   4.259   3.096   1.141  0.1190 -0.6693 -0.1222
  715SOL    HW2 2913   4.191   3.145   1.187  0.7819 -1.2896  1.5822
  715SOL    HW3 2914   4.237   3.104   1.048 -1.9066 -0.3243  0.3706
  715SOL    MW4 2915   4.247   3.103   1.135 -0.0610 -0.7057  0.1677
  716SOL     OW 2916   4.046   3.252   1.214 -0.2073  0.8357 -0.2049
  716SOL    HW2 2917   4.024   3.260   1.306  0.9556  3.0062 -0.0793
  716SOL    HW3 2918   3.977   3.196   1.177 -0.0885 -0.8930  2.1512
  716SOL    MW4 2919   4.034   3.246   1.221 -0.0381  0.8938  0.1227
  717SOL     OW 2920   4.026   3.488   1.072 -0.4033  0.1684 -0.3314
  717SOL    HW2 2921   4.034   3.405   1.119 -0.7466  0.6940  0.6827
  717SOL    HW3 2922   3.968   3.541   1.127  1.7708  1.9616  0.3184
  717SOL    MW4 2923   4.020   3.484   1.086 -0.1621  0.4742 -0.1119
  718SOL     OW 2924   4.244   3.633   1.179 -0.5702  0.2923  0.0975
  718SOL    HW2 2925   4.192   3.558   1.149  0.1925  0.7666 -2.5584
  718SOL    HW3 2926   4.327   3.595   1.206 -0.1514  0.1584 -1.3285
  718SOL    MW4 2927   4.248   3.618   1.178 -0.4144  0.3369 -0.4411
  719SOL     OW 2928   4.218   3.899   1.078 -0.1043  0.7436 -0.0645
  719SOL    HW2 2929   4.142   3.946   1.112  1.0296  1.8873  0.9173
  719SOL    HW3 2930   4.216   3.815   1.124 -1.2727  0.3978 -0.7112
  719SOL    MW4 2931   4.207   3.894   1.089 -0.1087  0.8490 -0.0203
  720SOL     OW 2932   3.994   4.024   1.174 -0.0615 -0.0334  0.3745
  720SOL    HW2 2933   3.990   4.110   1.132 -0.9132 -0.0163  0.4815
  720SOL    HW3 2934   3.913   3.981   1.146 -0.4759 -0.1445  1.7400
  720SOL    MW4 2935   3.983   4.030   1.165 -0.2286 -0.0453  0.5686
  721SOL     OW 2936   4.073   4.277   1.065 -0.1902 -0.0249 -0.0812
  721SOL    HW2 2937   3.989   4.312   1.096 -0.3683 -0.2300 -0.3177
  721SOL    HW3 2938   4.073   4.297   0.971 -0.8546 -1.7185 -0.4723
  721SOL    MW4 2939   4.062   4.284   1.056 -0.3014 -0.2756 -0.1640
  722SOL     OW 2940   4.267   4.406   1.222  0.0610 -0.0816  0.4853
  722SOL    HW2 2941   4.195   4.358   1.182 -0.1223 -0.3499  1.1194
  722SOL    HW3 2942   4.346   4.359   1.196 -0.0692 -0.3502  0.5745
  722SOL    MW4 2943   4.268   4.394   1.214  0.0196 -0.1526  0.5807
  723SOL     OW 2944   0.211   4.656   1.585  0.0500  0.1207  0.6432
  723SOL    HW2 2945   0.283   4.704   1.543  0.5852 -0.7118  0.5934
  723SOL    HW3 2946   0.132   4.699   1.554  0.4568 -0.2607 -0.9308
  723SOL    MW4 2947   0.210   4.668   1.576  0.1743 -0.0391  0.4289
  724SOL     OW 2948   4.459   0.117   1.488 -0.1795  0.7780 -0.4520
  724SOL    HW2 2949   4.380   0.078   1.526  0.0810  0.5673 -0.1195
  724SOL    HW3 2950   4.444   0.115   1.394  0.5187 -1.6304 -0.5260
  724SOL    MW4 2951   4.447   0.112   1.481 -0.0534  0.4324 -0.4178
  725SOL     OW 2952   0.013   0.386   1.593 -0.4071  0.2940  0.2828
  725SOL    HW2 2953  -0.005   0.378   1.687  0.1473  0.1813  0.3790
  725SOL    HW3 2954   0.005   0.296   1.559  1.2369  0.0241  0.5546
  725SOL    MW4 2955   0.010   0.373   1.601 -0.1170  0.2435  0.3314
  726SOL     OW 2956   0.250   0.503   1.491  0.1439 -0.1046 -0.3078
  726SOL    HW2 2957   0.183   0.455   1.539 -1.4329  2.3909  0.0909
  726SOL    HW3 2958   0.225   0.496   1.399 -0.4888  0.5166 -0.1889
  726SOL    MW4 2959   0.238   0.496   1.485 -0.1476  0.3066 -0.2396
  727SOL     OW 2960   0.244   0.772   1.604  0.0908 -0.2718 -0.0019
  727SOL    HW2 2961   0.324   0.811   1.568  0.3010  0.0485  0.8083
  727SOL    HW3 2962   0.245   0.683   1.571  0.6916 -0.2162 -0.1510
  727SOL    MW4 2963   0.255   0.766   1.595  0.1978 -0.2223  0.0854
  728SOL     OW 2964   0.029   0.885   1.454  0.1390 -0.5572  0.1303
  728SOL    HW2 2965   0.013   0.978   1.469  1.1620 -0.1385 -1.2532
  728SOL    HW3 2966   0.106   0.866   1.507  0.0713 -0.5471  0.2317
  728SOL    MW4 2967   0.037   0.895   1.463  0.2651 -0.5006 -0.0389
  729SOL     OW 2968   4.468   1.137   1.561 -0.0631 -0.1900 -0.1014
  729SOL    HW2 2969   4.475   1.135   1.656  2.1519 -1.5433 -0.2626
  729SOL    HW3 2970   4.552   1.172   1.532 -0.8564  0.5610 -1.5629
  729SOL    MW4 2971   4.480   1.142   1.569  0.1245 -0.2693 -0.3154
  730SOL     OW 2972   0.218   1.272   1.497  0.3292  0.3666 -0.0967
  730SOL    HW2 2973   0.208   1.363   1.524  0.8308  0.6030 -0.6946
  730SOL    HW3 2974   0.213   1.275   1.401  0.2224 -0.2506 -0.1115
  730SOL    MW4 2975   0.216   1.285   1.488  0.3813  0.3164 -0.1776
  731SOL     OW 2976   0.250   1.542   1.573  0.0131  0.4734  0.4486
  731SOL    HW2 2977   0.238   1.542   1.668  1.0515  0.6683  0.5888
  731SOL    HW3 2978   0.168   1.577   1.538 -0.6099 -0.1765  1.2356
  731SOL    MW4 2979   0.238   1.547   1.581  0.0679  0.4133  0.5710
  732SOL     OW 2980   0.011   1.658   1.494 -0.4204 -0.0497  0.1037
  732SOL    HW2 2981   0.009   1.751   1.520 -0.1415  0.2678 -0.9766
  732SOL    HW3 2982   0.015   1.661   1.398 -0.9241 -1.1885  0.0465
  732SOL    MW4 2983   0.011   1.671   1.485 -0.4500 -0.1581 -0.0464
  733SOL     OW 2984   0.010   1.918   1.579  0.3643  0.6489  0.2969
  733SOL    HW2 2985   0.007   1.920   1.675 -0.3710  0.5010  0.2847
  733SOL    HW3 2986  -0.077   1.948   1.553 -0.1183 -1.2092 -0.3059
  733SOL    MW4 2987  -0.002   1.922   1.588  0.2041  0.3842  0.2158
  734SOL     OW 2988   0.232   2.083   1.535  0.0841 -0.1075 -0.1694
  734SOL    HW2 2989   0.150   2.039   1.556 -0.5074  0.6701 -0.8302
  734SOL    HW3 2990   0.241   2.071   1.440  0.9328 -0.5171 -0.0443
  734SOL    MW4 2991   0.222   2.075   1.525  0.1180 -0.0589 -0.2401
  735SOL     OW 2992   0.277   2.332   1.616 -0.3606 -0.5528  0.2000
  735SOL    HW2 2993   0.252   2.328   1.708  1.6732 -0.8813  0.7503
  735SOL    HW3 2994   0.266   2.243   1.584 -0.0863 -0.6557  0.3916
  735SOL    MW4 2995   0.272   2.320   1.624 -0.0561 -0.6096  0.2978
  736SOL     OW 2996   0.035   2.428   1.481  0.1445 -0.0785 -0.5135
  736SOL    HW2 2997  -0.033   2.380   1.529 -0.4673  1.6423  0.3865
  736SOL    HW3 2998   0.117   2.397   1.518 -0.2574 -0.1852  0.3010
  736SOL    MW4 2999   0.037   2.417   1.492  0.0108  0.1347 -0.2873
  737SOL     OW 3000   0.026   2.683   1.614 -0.4149  0.3299  0.2065
  737SOL    HW2 3001  -0.064   2.704   1.588 -0.6556  0.3134  0.9971
  737SOL    HW3 3002   0.041   2.594   1.582 -0.9013  0.0984  0.6225
  737SOL    MW4 3003   0.016   2.674   1.606 -0.5109  0.2971  0.3657
  738SOL     OW 3004   0.246   2.829   1.507 -0.3280  0.5007  0.1252
  738SOL    HW2 3005   0.324   2.801   1.557 -1.3044  0.7651  1.8394
  738SOL    HW3 3006   0.174   2.782   1.548 -0.9847 -0.4135 -2.0323
  738SOL    MW4 3007   0.247   2.819   1.519 -0.5435  0.4148  0.0668
  739SOL     OW 3008   0.216   3.091   1.596 -0.1453  0.2075 -0.3616
  739SOL    HW2 3009   0.140   3.126   1.549  0.1399  0.6256 -0.5124
  739SOL    HW3 3010   0.217   2.998   1.573 -0.3634  0.2861 -0.6968
  739SOL    MW4 3011   0.206   3.083   1.587 -0.1364  0.2730 -0.4258
  740SOL     OW 3012   4.482   3.185   1.483  0.2101 -0.1263  0.3073
  740SOL    HW2 3013   4.486   3.275   1.516 -0.4874  0.0729 -0.1411
  740SOL    HW3 3014   4.493   3.194   1.388  0.5905 -0.5566  0.3058
  740SOL    MW4 3015   4.484   3.198   1.475  0.1683 -0.1569  0.2480
  741SOL     OW 3016   4.469   3.449   1.570 -0.1047  0.3214 -0.2035
  741SOL    HW2 3017   4.465   3.477   1.661 -0.4038  1.2295 -0.4884
  741SOL    HW3 3018   4.405   3.504   1.525  1.1537  0.9544 -1.2322
  741SOL    MW4 3019   4.460   3.460   1.576  0.0219  0.5245 -0.3767
  742SOL     OW 3020   0.221   3.586   1.509 -0.1717  0.1907 -0.3001
  742SOL    HW2 3021   0.197   3.669   1.549  0.2415 -0.9464  2.4467
  742SOL    HW3 3022   0.141   3.532   1.516  0.7508 -0.9786  1.7045
  742SOL    MW4 3023   0.207   3.590   1.515  0.0046 -0.1137  0.3269
  743SOL     OW 3024   0.434   3.969   1.507  0.2480 -0.3724 -0.2888
  743SOL    HW2 3025   0.522   3.952   1.539  0.1322 -0.0741  0.2016
  743SOL    HW3 3026   0.445   3.989   1.414  0.9420  1.7067  0.2074
  743SOL    MW4 3027   0.447   3.970   1.499  0.3243 -0.0589 -0.1585
  744SOL     OW 3028   4.446   3.979   1.503 -0.3201 -0.1258  0.0807
  744SOL    HW2 3029   4.456   4.071   1.527 -0.0039 -0.6840  2.1641
  744SOL    HW3 3030   4.525   3.936   1.537 -0.5872 -1.2187 -0.6345
  744SOL    MW4 3031   4.458   3.985   1.511 -0.3138 -0.3436  0.2612
  745SOL     OW 3032   4.477   4.234   1.573  0.6556  0.1092  0.6543
  745SOL    HW2 3033   4.487   4.245   1.668 -0.0460 -0.6661  0.8241
  745SOL    HW3 3034   4.409   4.297   1.549  2.1251  1.6086  0.3599
  745SOL    MW4 3035   4.469   4.244   1.583  0.7572  0.2046  0.6379
  746SOL     OW 3036   0.219   4.373   1.541  0.3352  0.5758 -0.3108
  746SOL    HW2 3037   0.132   4.339   1.560  1.4621 -0.5865  3.2821
  746SOL    HW3 3038   0.210   4.468   1.547 -0.9501  0.5194 -1.2706
  746SOL    MW4 3039   0.207   4.381   1.544  0.3143  0.4153  0.0366
  747SOL     OW 3040   0.698   4.655   1.607 -0.6816  0.4470  0.3817
  747SOL    HW2 3041   0.754   4.706   1.548  0.3401 -0.6106  0.4152
  747SOL    HW3 3042   0.609   4.675   1.578 -0.2459  1.1650 -0.5008
  747SOL    MW4 3043   0.694   4.664   1.595 -0.4893  0.4025  0.2697
  748SOL     OW 3044   0.459   0.101   1.490 -0.0565  0.0119  0.4894
  748SOL    HW2 3045   0.472   0.185   1.535  0.9997  0.1737 -0.0870
  748SOL    HW3 3046   0.455   0.124   1.397 -0.2446 -0.5241  0.3621
  748SOL    MW4 3047   0.460   0.115   1.484  0.0580 -0.0375  0.3965
  749SOL     OW 3048   0.468   0.363   1.583  0.7203  0.3050  0.2541
  749SOL    HW2 3049   0.545   0.416   1.561  0.5412  0.4142 -0.1157
  749SOL    HW3 3050   0.394   0.413   1.549  0.4736  0.2510  0.6997
  749SOL    MW4 3051   0.468   0.377   1.576  0.6641  0.3123  0.2640
  750SOL     OW 3052   0.679   0.524   1.519 -0.7139 -0.1240 -0.0692
  750SOL    HW2 3053   0.687   0.610   1.559 -0.4270 -0.6807  1.0892
  750SOL    HW3 3054   0.673   0.542   1.425  1.2224  1.0611 -0.0057
  750SOL    MW4 3055   0.680   0.538   1.512 -0.4206 -0.0411  0.0919
  751SOL     OW 3056   0.720   0.782   1.616  0.0360  0.4431 -0.2852
  751SOL    HW2 3057   0.736   0.766   1.709 -1.0065 -0.0060 -0.1861
  751SOL    HW3 3058   0.786   0.847   1.592 -0.1453  1.0956  0.9322
  751SOL    MW4 3059   0.731   0.788   1.625 -0.1255  0.4700 -0.1115
  752SOL     OW 3060   0.473   0.890   1.524  0.4192  0.5188 -0.1215
  752SOL    HW2 3061   0.466   0.983   1.548  0.8151  0.6181 -0.3892
  752SOL    HW3 3062   0.563   0.866   1.548  0.6044  0.4428 -0.8817
  752SOL    MW4 3063   0.484   0.899   1.530  0.4959  0.5218 -0.2570
  753SOL     OW 3064   0.446   1.139   1.607  0.3707  0.2853  0.1245
  753SOL    HW2 3065   0.513   1.202   1.582  0.6892 -0.1977 -0.2384
  753SOL    HW3 3066   0.363   1.184   1.591  0.6101  1.1204  1.1913
  753SOL    MW4 3067   0.444   1.153   1.602  0.4444  0.3318  0.2173
  754SOL     OW 3068   0.693   1.247   1.511  0.0213 -0.5514 -0.2588
  754SOL    HW2 3069   0.703   1.336   1.546 -2.0279 -1.1215  1.9313
  754SOL    HW3 3070   0.670   1.260   1.419 -1.5437  1.2271  0.3527
  754SOL    MW4 3071   0.691   1.261   1.504 -0.4555 -0.3920  0.1107
  755SOL     OW 3072   0.697   1.557   1.653  0.1882 -0.1522  0.3524
  755SOL    HW2 3073   0.771   1.602   1.611  0.7940 -1.9004 -0.4895
  755SOL    HW3 3074   0.623   1.574   1.595  0.5499 -0.7371 -0.2904
  755SOL    MW4 3075   0.697   1.566   1.639  0.3158 -0.4600  0.1565
  756SOL     OW 3076   0.481   1.681   1.498  0.3633  0.1964 -0.0553
  756SOL    HW2 3077   0.483   1.765   1.544 -0.5944  0.3498 -0.2662
  756SOL    HW3 3078   0.414   1.630   1.544  1.6613 -0.8391  0.7162
  756SOL    MW4 3079   0.472   1.685   1.510  0.4082  0.0800  0.0186
  757SOL     OW 3080   0.434   1.922   1.611 -0.4904  0.2263  0.1892
  757SOL    HW2 3081   0.431   1.927   1.707  0.4298 -0.9561  0.2929
  757SOL    HW3 3082   0.360   1.975   1.582 -0.1605  1.4414  1.5263
  757SOL    MW4 3083   0.424   1.930   1.620 -0.3255  0.2307  0.3792
  758SOL     OW 3084   0.667   2.077   1.504 -0.1406 -0.3492 -0.1425
  758SOL    HW2 3085   0.736   2.038   1.557  0.4162  0.4512 -0.2747
  758SOL    HW3 3086   0.590   2.022   1.520  0.2566 -0.6300  0.8065
  758SOL    MW4 3087   0.666   2.065   1.513 -0.0147 -0.2806 -0.0348
  759SOL     OW 3088   0.680   2.326   1.616 -0.1937  0.3747  0.2875
  759SOL    HW2 3089   0.611   2.380   1.577 -0.4188  0.1583  0.3819
  759SOL    HW3 3090   0.670   2.240   1.575 -0.2770  0.2137  0.6425
  759SOL    MW4 3091   0.670   2.322   1.606 -0.2344  0.3247  0.3468
  760SOL     OW 3092   0.471   2.470   1.496 -0.1849  0.0648  0.1246
  760SOL    HW2 3093   0.466   2.549   1.551 -0.9571  0.6810 -0.8124
  760SOL    HW3 3094   0.399   2.415   1.525  0.7843 -0.6377  1.2695
  760SOL    MW4 3095   0.461   2.473   1.507 -0.1589  0.0532  0.1520
  761SOL     OW 3096   0.474   2.728   1.634 -0.2736  0.1311 -0.0650
  761SOL    HW2 3097   0.463   2.728   1.729  0.5652 -1.3204  0.0558
  761SOL    HW3 3098   0.548   2.786   1.619 -0.0515 -0.0737  0.2213
  761SOL    MW4 3099   0.482   2.736   1.645 -0.1336 -0.0873 -0.0112
  762SOL     OW 3100   0.677   2.856   1.541 -0.0546  0.1323 -0.0677
  762SOL    HW2 3101   0.680   2.951   1.550 -1.3355  0.1666  0.0822
  762SOL    HW3 3102   0.679   2.841   1.447  1.0191  0.2605 -0.0773
  762SOL    MW4 3103   0.678   2.867   1.530 -0.0819  0.1538 -0.0491
  763SOL     OW 3104   0.686   3.118   1.626  0.3293 -0.0968  0.2642
  763SOL    HW2 3105   0.769   3.156   1.596 -0.0824 -0.2160 -1.0607
  763SOL    HW3 3106   0.619   3.164   1.575 -0.4505  0.2827  1.6218
  763SOL    MW4 3107   0.688   3.129   1.615  0.1720 -0.0625  0.2685
  764SOL     OW 3108   0.448   3.221   1.497  0.8113 -0.2129  0.0167
  764SOL    HW2 3109   0.365   3.182   1.525 -0.4829  1.5167 -1.3648
  764SOL    HW3 3110   0.450   3.209   1.402  2.2234 -0.3341  0.0419
  764SOL    MW4 3111   0.438   3.214   1.488  0.8269 -0.0007 -0.1622
  765SOL     OW 3112   0.458   3.482   1.625 -0.0734 -0.0003  0.1113
  765SOL    HW2 3113   0.450   3.392   1.594 -0.6049  0.3259 -0.7053
  765SOL    HW3 3114   0.373   3.522   1.606  0.0187  0.5589  0.8469
  765SOL    MW4 3115   0.446   3.475   1.618 -0.1314  0.1166  0.1007
  766SOL     OW 3116   0.679   3.624   1.515  0.7736  0.4962  0.3874
  766SOL    HW2 3117   0.752   3.572   1.547  0.4531 -0.1292  0.1114
  766SOL    HW3 3118   0.601   3.577   1.544  0.4762  1.1189  0.6135
  766SOL    MW4 3119   0.679   3.611   1.523  0.6921  0.4957  0.3808
  767SOL     OW 3120   0.680   3.892   1.625 -0.2619 -0.3275  0.3991
  767SOL    HW2 3121   0.762   3.934   1.597 -0.1436  0.3371  1.7221
  767SOL    HW3 3122   0.681   3.807   1.581  0.6459  0.0935 -0.4167
  767SOL    MW4 3123   0.691   3.887   1.615 -0.1266 -0.1841  0.4659
  768SOL     OW 3124   0.192   3.856   1.569  0.2808 -0.0976  0.2340
  768SOL    HW2 3125   0.201   3.858   1.665  0.4944  0.2563  0.2074
  768SOL    HW3 3126   0.272   3.896   1.537  0.3695 -0.5480 -0.1052
  768SOL    MW4 3127   0.203   3.862   1.578  0.3207 -0.1104  0.1857
  769SOL     OW 3128   0.471   4.240   1.603  0.1429 -0.2434 -0.1167
  769SOL    HW2 3129   0.467   4.154   1.561 -1.0493 -0.1007 -0.2927
  769SOL    HW3 3130   0.392   4.285   1.575  1.4434  1.4620 -1.1962
  769SOL    MW4 3131   0.460   4.234   1.594  0.1572  0.0005 -0.2824
  770SOL     OW 3132   0.693   4.383   1.504  0.3709  0.0204  0.2040
  770SOL    HW2 3133   0.625   4.340   1.556 -1.2716  0.3570 -1.6240
  770SOL    HW3 3134   0.713   4.464   1.552  0.1866 -0.5495  1.2482
  770SOL    MW4 3135   0.687   4.388   1.517  0.1299 -0.0105  0.1006
  771SOL     OW 3136   1.094   4.629   1.614  0.0022 -0.1823 -0.0039
  771SOL    HW2 3137   1.070   4.626   1.707 -0.1924  0.3309 -0.0359
  771SOL    HW3 3138   1.180   4.670   1.612 -0.4193  0.7151 -0.1231
  771SOL    MW4 3139   1.102   4.634   1.626 -0.0792  0.0038 -0.0240
  772SOL     OW 3140   0.898   0.124   1.469  0.0665  0.0051 -0.7825
  772SOL    HW2 3141   0.892   0.213   1.503 -0.1386 -0.0758 -0.6020
  772SOL    HW3 3142   0.971   0.085   1.517  1.1483  0.5487 -1.9603
  772SOL    MW4 3143   0.907   0.130   1.480  0.1822  0.0661 -0.9140
  773SOL     OW 3144   0.908   0.374   1.587 -0.2842 -0.3095 -0.2923
  773SOL    HW2 3145   0.907   0.380   1.682 -0.3466 -0.6763 -0.2675
  773SOL    HW3 3146   0.834   0.426   1.558 -0.8863 -1.0446 -0.0871
  773SOL    MW4 3147   0.898   0.381   1.595 -0.3719 -0.4549 -0.2619
  774SOL     OW 3148   1.132   0.501   1.516 -0.1893  0.0503 -0.1740
  774SOL    HW2 3149   1.127   0.588   1.556  0.5814  0.2728 -0.5529
  774SOL    HW3 3150   1.056   0.455   1.550 -1.2096  1.2239 -0.8195
  774SOL    MW4 3151   1.122   0.506   1.526 -0.2221  0.2345 -0.3091
  775SOL     OW 3152   1.147   0.765   1.606 -0.1582 -0.5484 -0.3156
  775SOL    HW2 3153   1.140   0.743   1.699 -2.4070  3.4325  0.5485
  775SOL    HW3 3154   1.239   0.789   1.594 -0.1601  0.3033  1.2262
  775SOL    MW4 3155   1.158   0.765   1.617 -0.4551  0.0892  0.0018
  776SOL     OW 3156   0.936   0.923   1.536  0.4710 -0.0151  0.0323
  776SOL    HW2 3157   1.008   0.873   1.572 -0.4565 -0.0573  1.9126
  776SOL    HW3 3158   0.930   0.896   1.445  1.3121 -1.7673  0.4861
  776SOL    MW4 3159   0.945   0.913   1.529  0.4596 -0.2518  0.3402
  777SOL     OW 3160   0.962   1.185   1.623 -0.3853 -0.4292  0.4044
  777SOL    HW2 3161   0.960   1.093   1.595  0.6075 -0.2064 -0.4236
  777SOL    HW3 3162   0.889   1.226   1.577  0.3790 -0.3743 -0.7576
  777SOL    MW4 3163   0.952   1.178   1.614 -0.1534 -0.3926  0.1419
  778SOL     OW 3164   1.186   1.291   1.515  0.0723 -0.0163 -0.3679
  778SOL    HW2 3165   1.261   1.244   1.551  0.0606  0.9498  0.9380
  778SOL    HW3 3166   1.111   1.262   1.568 -0.4964 -1.0402 -1.7149
  778SOL    MW4 3167   1.186   1.281   1.527 -0.0042 -0.0240 -0.3731
  779SOL     OW 3168   1.132   1.545   1.614  0.0336  0.3349 -0.1968
  779SOL    HW2 3169   1.214   1.592   1.598  0.0960  0.4758  0.5251
  779SOL    HW3 3170   1.142   1.462   1.568  0.7635  0.1680  0.2641
  779SOL    MW4 3171   1.144   1.540   1.606  0.1383  0.3314 -0.0408
  780SOL     OW 3172   0.922   1.685   1.543  0.0529  0.0423  0.2273
  780SOL    HW2 3173   1.003   1.638   1.560 -0.4964 -0.9175  0.2292
  780SOL    HW3 3174   0.905   1.672   1.450  0.4662  1.1467 -0.0033
  780SOL    MW4 3175   0.930   1.677   1.533  0.0349  0.0614  0.1969
  781SOL     OW 3176   0.896   1.955   1.607 -0.1941  0.2282 -0.1603
  781SOL    HW2 3177   0.964   2.013   1.574 -0.4450  0.7381  0.2050
  781SOL    HW3 3178   0.919   1.869   1.574  1.6011  0.0823  1.4443
  781SOL    MW4 3179   0.908   1.952   1.598  0.0097  0.2761  0.0994
  782SOL     OW 3180   1.129   2.072   1.518 -0.2206 -0.0643  0.3652
  782SOL    HW2 3181   1.198   2.029   1.568 -0.1418 -0.4961 -0.1098
  782SOL    HW3 3182   1.147   2.165   1.526  1.5903 -0.2314 -1.4044
  782SOL    MW4 3183   1.140   2.078   1.525  0.0287 -0.1433  0.0691
  783SOL     OW 3184   1.147   2.347   1.598 -0.0390  0.3658  0.2635
  783SOL    HW2 3185   1.221   2.401   1.571 -0.3417  0.1011 -1.1197
  783SOL    HW3 3186   1.070   2.394   1.567 -0.3557 -0.3129  0.0085
  783SOL    MW4 3187   1.147   2.360   1.590 -0.1208  0.2413  0.0474
  784SOL     OW 3188   0.910   2.459   1.504  0.1021 -0.0723  0.4144
  784SOL    HW2 3189   0.902   2.551   1.529 -1.0249 -0.0579  0.0299
  784SOL    HW3 3190   0.834   2.417   1.546 -0.2113 -0.5563 -0.6152
  784SOL    MW4 3191   0.899   2.465   1.513 -0.0879 -0.1342  0.2278
  785SOL     OW 3192   0.920   2.724   1.576  0.1281 -0.3299 -0.1053
  785SOL    HW2 3193   0.928   2.718   1.672  1.0046 -0.6954 -0.1896
  785SOL    HW3 3194   0.832   2.758   1.561  0.0184 -0.1730  0.8377
  785SOL    MW4 3195   0.910   2.728   1.587  0.2294 -0.3574  0.0080
  786SOL     OW 3196   1.118   2.877   1.442 -0.2429  0.2923 -0.1425
  786SOL    HW2 3197   1.137   2.950   1.501  0.4956 -0.9683  1.2150
  786SOL    HW3 3198   1.051   2.826   1.487  2.1421 -2.0907  0.8904
  786SOL    MW4 3199   1.112   2.880   1.455  0.1692 -0.1881  0.1729
  787SOL     OW 3200   1.157   3.108   1.601 -0.1640 -0.2656 -0.3049
  787SOL    HW2 3201   1.164   3.121   1.695 -1.6541 -1.1546 -0.0654
  787SOL    HW3 3202   1.242   3.138   1.567 -0.0280  1.1094  1.1796
  787SOL    MW4 3203   1.169   3.114   1.609 -0.3426 -0.2017 -0.0774
  788SOL     OW 3204   0.907   3.226   1.526 -0.3693 -0.5824  0.0130
  788SOL    HW2 3205   0.992   3.188   1.549  0.9987  2.6556  0.5776
  788SOL    HW3 3206   0.907   3.229   1.431  0.4156 -0.0173  0.0273
  788SOL    MW4 3207   0.919   3.221   1.517 -0.0852 -0.0808  0.0894
  789SOL     OW 3208   0.900   3.479   1.616 -0.0934 -0.1594  0.0533
  789SOL    HW2 3209   0.986   3.500   1.579  0.8538 -0.3161  2.1423
  789SOL    HW3 3210   0.892   3.385   1.603  0.8149 -0.4362  1.4091
  789SOL    MW4 3211   0.910   3.469   1.609  0.1515 -0.2165  0.5078
  790SOL     OW 3212   1.140   3.613   1.490  0.4818  0.2267 -0.6829
  790SOL    HW2 3213   1.216   3.559   1.510 -1.8472 -3.7315 -1.9236
  790SOL    HW3 3214   1.140   3.620   1.394 -1.1076 -0.4983 -0.7592
  790SOL    MW4 3215   1.150   3.607   1.480 -0.0353 -0.3915 -0.8566
  791SOL     OW 3216   1.074   3.852   1.599  0.0234  0.4263 -0.2476
  791SOL    HW2 3217   1.155   3.891   1.567  0.7399 -1.2630 -0.5779
  791SOL    HW3 3218   1.082   3.759   1.576 -2.2320  0.3171 -0.7577
  791SOL    MW4 3219   1.086   3.845   1.591 -0.1798  0.1888 -0.3585
  792SOL     OW 3220   0.885   4.009   1.474 -0.5197 -0.3048 -0.1136
  792SOL    HW2 3221   0.907   4.091   1.518  0.5329 -0.5877 -0.1002
  792SOL    HW3 3222   0.946   3.945   1.511  0.0422 -0.6513 -1.6099
  792SOL    MW4 3223   0.896   4.011   1.485 -0.3066 -0.3877 -0.3093
  793SOL     OW 3224   0.918   4.249   1.608  0.1763 -1.0833  0.4932
  793SOL    HW2 3225   0.909   4.244   1.703  0.4012  0.9299  0.6476
  793SOL    HW3 3226   0.847   4.307   1.580  2.3126  1.3161 -0.1421
  793SOL    MW4 3227   0.907   4.256   1.617  0.4878 -0.5016  0.4297
  794SOL     OW 3228   1.140   4.377   1.527 -0.0218 -0.2322  0.0144
  794SOL    HW2 3229   1.062   4.334   1.562  0.9492 -1.6273  0.4888
  794SOL    HW3 3230   1.128   4.470   1.548 -0.5267 -0.7380  2.0015
  794SOL    MW4 3231   1.128   4.384   1.534  0.0398 -0.4830  0.3392
  795SOL     OW 3232   1.551   4.644   1.603 -0.4222  0.5304  0.0080
  795SOL    HW2 3233   1.559   4.655   1.698 -0.3934 -1.9656  0.3104
  795SOL    HW3 3234   1.471   4.690   1.581  0.0517  1.9298  1.0871
  795SOL    MW4 3235   1.542   4.652   1.613 -0.3560  0.3853  0.1903
  796SOL     OW 3236   1.321   0.111   1.572  0.0622  0.0715 -0.1067
  796SOL    HW2 3237   1.323   0.197   1.613 -1.0885  0.0139  0.0917
  796SOL    HW3 3238   1.325   0.129   1.478  0.8389  0.2838 -0.0417
  796SOL    MW4 3239   1.322   0.125   1.565  0.0130  0.0920 -0.0719
  797SOL     OW 3240   1.356   0.371   1.627 -0.4202 -0.1021  0.1489
  797SOL    HW2 3241   1.427   0.410   1.576  0.0511 -0.4134  0.5585
  797SOL    HW3 3242   1.276   0.413   1.594 -0.0100  0.5369 -0.0472
  797SOL    MW4 3243   1.355   0.382   1.616 -0.3041 -0.0588  0.1770
  798SOL     OW 3244   1.582   0.472   1.518  0.3724 -0.0811  0.0844
  798SOL    HW2 3245   1.638   0.402   1.551 -0.5208 -1.1241 -0.5468
  798SOL    HW3 3246   1.585   0.461   1.422 -0.3499  0.2709  0.0168
  798SOL    MW4 3247   1.590   0.461   1.510  0.1594 -0.1723 -0.0077
  799SOL     OW 3248   1.627   0.733   1.590  0.2046 -0.0709 -0.2808
  799SOL    HW2 3249   1.605   0.720   1.683  0.8402  0.6027 -0.0282
  799SOL    HW3 3250   1.645   0.645   1.557 -1.3554 -0.4664 -0.1124
  799SOL    MW4 3251   1.626   0.720   1.598  0.0829 -0.0342 -0.2253
  800SOL     OW 3252   1.396   0.867   1.555  0.0446 -0.0007 -0.0217
  800SOL    HW2 3253   1.458   0.794   1.560  1.2418  1.0159  0.2880
  800SOL    HW3 3254   1.383   0.880   1.461 -0.2821 -0.6855 -0.0791
  800SOL    MW4 3255   1.403   0.859   1.543  0.1594  0.0430  0.0116
  801SOL     OW 3256   1.389   1.122   1.633 -0.1588  0.0596 -0.4212
  801SOL    HW2 3257   1.370   1.122   1.727 -1.1550 -0.7326 -0.6116
  801SOL    HW3 3258   1.399   1.030   1.610  4.0187  0.4002 -0.3740
  801SOL    MW4 3259   1.388   1.110   1.643  0.2608  0.0000 -0.4401
  802SOL     OW 3260   1.627   1.261   1.569  0.1471  0.2245 -0.4527
  802SOL    HW2 3261   1.550   1.207   1.585  0.3863  0.5306  1.8971
  802SOL    HW3 3262   1.632   1.268   1.474 -2.8276  0.3689 -0.6316
  802SOL    MW4 3263   1.617   1.255   1.559 -0.2137  0.2837 -0.1663
  803SOL     OW 3264   1.590   1.543   1.624  0.4472  0.2292 -0.1580
  803SOL    HW2 3265   1.577   1.560   1.717  0.1736  0.4083 -0.2297
  803SOL    HW3 3266   1.583   1.447   1.616  0.5950  0.2035  0.0236
  803SOL    MW4 3267   1.587   1.532   1.635  0.4307  0.2495 -0.1435
  804SOL     OW 3268   1.355   1.673   1.520  0.5393 -0.1801  0.4561
  804SOL    HW2 3269   1.436   1.630   1.547  0.7484 -0.2906 -0.3549
  804SOL    HW3 3270   1.354   1.667   1.425 -0.1138  0.3791  0.4185
  804SOL    MW4 3271   1.365   1.667   1.511  0.4808 -0.1210  0.3444
  805SOL     OW 3272   1.355   1.933   1.605 -0.3566  0.1048  0.6214
  805SOL    HW2 3273   1.353   1.921   1.700 -0.8934 -1.1888  0.4708
  805SOL    HW3 3274   1.352   1.843   1.570 -0.9822  0.5890 -0.6141
  805SOL    MW4 3275   1.354   1.919   1.613 -0.5100 -0.0019  0.4386
  806SOL     OW 3276   1.547   2.096   1.491  0.0969  0.3874 -0.5638
  806SOL    HW2 3277   1.484   2.038   1.535 -1.8475  0.0297 -3.6941
  806SOL    HW3 3278   1.562   2.055   1.406  3.2735  1.4176 -0.5724
  806SOL    MW4 3279   1.541   2.083   1.486  0.2595  0.4759 -0.9780
  807SOL     OW 3280   1.585   2.343   1.598 -0.3238 -0.1030  0.0375
  807SOL    HW2 3281   1.680   2.356   1.588 -0.5104  0.5827 -0.9484
  807SOL    HW3 3282   1.569   2.257   1.560 -0.1644  0.0119 -0.2987
  807SOL    MW4 3283   1.596   2.334   1.592 -0.3275  0.0029 -0.1370
  808SOL     OW 3284   1.373   2.483   1.471 -0.1978 -0.3221 -0.0735
  808SOL    HW2 3285   1.358   2.565   1.518 -0.7374 -0.9062  0.8031
  808SOL    HW3 3286   1.452   2.446   1.512  0.7748  0.3547 -1.3137
  808SOL    MW4 3287   1.382   2.489   1.483 -0.1407 -0.3099 -0.1215
  809SOL     OW 3288   1.583   2.856   1.524  0.4108  0.2052 -0.7276
  809SOL    HW2 3289   1.579   2.840   1.430  0.8284 -0.8048 -0.5851
  809SOL    HW3 3290   1.502   2.818   1.558  0.9148 -0.7088 -0.5166
  809SOL    MW4 3291   1.571   2.849   1.516  0.5324 -0.0486 -0.6810
  810SOL     OW 3292   1.819   2.725   1.609 -0.3929 -0.1996  0.1787
  810SOL    HW2 3293   1.745   2.772   1.570 -0.8230  0.4046  1.6966
  810SOL    HW3 3294   1.896   2.762   1.565 -0.9682 -0.7089 -1.2866
  810SOL    MW4 3295   1.820   2.736   1.598 -0.5256 -0.1872  0.1856
  811SOL     OW 3296   1.600   3.104   1.622  0.4437  0.2266  0.0397
  811SOL    HW2 3297   1.673   3.144   1.575  1.1761  0.5930  1.4778
  811SOL    HW3 3298   1.592   3.017   1.584  0.7872  0.6558 -1.0257
  811SOL    MW4 3299   1.608   3.098   1.611  0.5856  0.3314  0.0888
  812SOL     OW 3300   1.388   3.216   1.484  0.0575  0.1488 -0.0626
  812SOL    HW2 3301   1.402   3.310   1.498  0.0804 -0.1769  2.1664
  812SOL    HW3 3302   1.460   3.174   1.531  0.6931 -0.9690 -1.9721
  812SOL    MW4 3303   1.400   3.223   1.492  0.1442 -0.0415 -0.0204
  813SOL     OW 3304   1.373   3.478   1.580  0.0206 -0.7120  0.2564
  813SOL    HW2 3305   1.370   3.476   1.675  0.1075  0.8353  0.3121
  813SOL    HW3 3306   1.458   3.518   1.560 -0.3508 -0.2562 -0.4475
  813SOL    MW4 3307   1.384   3.483   1.590 -0.0169 -0.4475  0.1707
  814SOL     OW 3308   1.605   3.626   1.530 -0.1731 -0.3814  0.1556
  814SOL    HW2 3309   1.593   3.718   1.555 -0.9824 -1.1171  2.5876
  814SOL    HW3 3310   1.603   3.628   1.434 -0.8407  2.0495  0.1629
  814SOL    MW4 3311   1.603   3.639   1.521 -0.3680 -0.1576  0.4774
  815SOL     OW 3312   1.571   3.885   1.580 -0.0312  0.0822  0.7019
  815SOL    HW2 3313   1.563   3.899   1.674 -2.0308  0.2139  0.5290
  815SOL    HW3 3314   1.482   3.893   1.546  0.3302 -2.1983 -0.9077
  815SOL    MW4 3315   1.558   3.888   1.588 -0.2474 -0.2012  0.4666
  816SOL     OW 3316   1.314   3.958   1.492  0.1966  0.0120  0.4245
  816SOL    HW2 3317   1.341   4.035   1.542  0.1363  0.3864 -0.1142
  816SOL    HW3 3318   1.317   3.987   1.401 -0.2856 -0.4864  0.2516
  816SOL    MW4 3319   1.318   3.972   1.486  0.1251 -0.0045  0.3306
  817SOL     OW 3320   1.357   4.197   1.619  0.2000  0.2769  0.3205
  817SOL    HW2 3321   1.442   4.236   1.597  0.7805 -1.9207 -1.5733
  817SOL    HW3 3322   1.292   4.255   1.579  0.9119  0.6475 -0.3027
  817SOL    MW4 3323   1.360   4.210   1.611  0.3705  0.0353 -0.0117
  818SOL     OW 3324   1.558   4.374   1.560  0.2768 -0.0969 -0.0484
  818SOL    HW2 3325   1.649   4.361   1.588  0.3191  0.7702  0.2334
  818SOL    HW3 3326   1.543   4.468   1.571 -1.0534 -0.4262  1.1082
  818SOL    MW4 3327   1.568   4.384   1.565  0.1068 -0.0257  0.1414
  819SOL     OW 3328   1.983   4.612   1.619 -0.4956  0.2104 -0.0392
  819SOL    HW2 3329   1.970   4.623   1.713 -0.5370  0.3529 -0.0609
  819SOL    HW3 3330   1.907   4.657   1.580 -0.1533  0.6893 -0.1583
  819SOL    MW4 3331   1.971   4.619   1.626 -0.4560  0.2923 -0.0578
  820SOL     OW 3332   1.762   0.094   1.470  0.1440 -0.2157 -0.2456
  820SOL    HW2 3333   1.683   0.061   1.512 -0.0760  0.2906 -0.2560
  820SOL    HW3 3334   1.755   0.063   1.379  0.3961 -0.9200 -0.0297
  820SOL    MW4 3335   1.751   0.085   1.463  0.1483 -0.2418 -0.2184
  821SOL     OW 3336   1.810   0.327   1.627 -0.0246  0.0329  0.3434
  821SOL    HW2 3337   1.870   0.387   1.582 -0.8187  1.8673  1.6776
  821SOL    HW3 3338   1.813   0.246   1.575 -0.5203  1.9084 -2.6993
  821SOL    MW4 3339   1.818   0.324   1.614 -0.1947  0.5223  0.1180
  822SOL     OW 3340   1.979   0.490   1.499 -0.4643 -0.4192  0.3643
  822SOL    HW2 3341   2.064   0.461   1.532 -0.2503 -0.0485  0.1472
  822SOL    HW3 3342   1.963   0.574   1.542  0.2206  0.4933 -1.0849
  822SOL    MW4 3343   1.989   0.497   1.509 -0.3457 -0.2499  0.1445
  823SOL     OW 3344   2.001   0.747   1.621  0.7708  0.0534 -0.1407
  823SOL    HW2 3345   2.081   0.790   1.592  1.0501  0.2420  0.8801
  823SOL    HW3 3346   1.931   0.808   1.600  1.2404  1.3784  2.0158
  823SOL    MW4 3347   2.003   0.761   1.615  0.8698  0.2531  0.2784
  824SOL     OW 3348   1.827   0.917   1.522  0.0130  0.0053 -0.3510
  824SOL    HW2 3349   1.824   0.991   1.583 -0.9923  0.6864 -1.1965
  824SOL    HW3 3350   1.751   0.864   1.546  0.3102 -0.3652 -0.2280
  824SOL    MW4 3351   1.816   0.920   1.534 -0.0805  0.0463 -0.4462
  825SOL     OW 3352   1.841   1.136   1.682 -0.1622 -0.5703 -0.2597
  825SOL    HW2 3353   1.914   1.187   1.646 -0.5518 -0.0639 -0.3376
  825SOL    HW3 3354   1.763   1.183   1.654 -0.5024 -0.7669  0.3519
  825SOL    MW4 3355   1.841   1.149   1.673 -0.2584 -0.5294 -0.1893
  826SOL     OW 3356   2.039   1.288   1.553 -0.0316 -0.3721  0.3438
  826SOL    HW2 3357   2.049   1.379   1.579  0.5222 -0.4834  0.5089
  826SOL    HW3 3358   2.037   1.290   1.457 -0.3184 -0.1595  0.3522
  826SOL    MW4 3359   2.040   1.300   1.544  0.0036 -0.3588  0.3667
  827SOL     OW 3360   2.056   1.558   1.618 -0.5311  0.2225 -0.3532
  827SOL    HW2 3361   2.134   1.592   1.575 -1.1674 -1.1202 -2.6886
  827SOL    HW3 3362   1.983   1.604   1.575 -1.0742  1.2248  1.5656
  827SOL    MW4 3363   2.057   1.569   1.607 -0.6869  0.1776 -0.4081
  828SOL     OW 3364   1.822   1.671   1.502 -0.5642  0.1182 -0.0538
  828SOL    HW2 3365   1.757   1.617   1.547 -0.6143 -0.9448 -1.3986
  828SOL    HW3 3366   1.806   1.657   1.409  1.3361  0.1302 -0.4049
  828SOL    MW4 3367   1.812   1.662   1.496 -0.3200 -0.0206 -0.2774
  829SOL     OW 3368   1.823   1.951   1.578  0.0090  0.0267  0.2640
  829SOL    HW2 3369   1.818   1.861   1.544  0.9961  0.3748 -0.8667
  829SOL    HW3 3370   1.733   1.981   1.581 -0.3678 -1.1455  1.0455
  829SOL    MW4 3371   1.811   1.943   1.574  0.0894 -0.0819  0.2178
  830SOL     OW 3372   2.286   1.928   1.618 -0.0138 -0.2528 -0.1035
  830SOL    HW2 3373   2.263   1.924   1.711 -1.6843 -2.2237 -0.5740
  830SOL    HW3 3374   2.212   1.973   1.577  0.6141  0.3995 -0.5323
  830SOL    MW4 3375   2.273   1.933   1.625 -0.1512 -0.4267 -0.2222
  831SOL     OW 3376   2.067   2.063   1.498 -0.2225 -0.4460 -0.6668
  831SOL    HW2 3377   2.065   2.154   1.527  1.7329 -0.9857  1.3196
  831SOL    HW3 3378   1.994   2.022   1.544  0.4334 -0.4072  0.4374
  831SOL    MW4 3379   2.057   2.070   1.508  0.1218 -0.5124 -0.2592
  832SOL     OW 3380   2.046   2.318   1.633  0.2781 -0.9432  0.0042
  832SOL    HW2 3381   2.057   2.294   1.725  1.3114 -1.2236 -0.1918
  832SOL    HW3 3382   1.970   2.376   1.633  0.2358 -0.9870  1.0297
  832SOL    MW4 3383   2.037   2.322   1.645  0.4084 -0.9859  0.1137
  833SOL     OW 3384   1.828   2.469   1.511 -0.0714 -0.3267  0.0055
  833SOL    HW2 3385   1.816   2.558   1.542  0.8808 -0.1391 -0.1520
  833SOL    HW3 3386   1.835   2.478   1.416  1.2868 -0.4210  0.0866
  833SOL    MW4 3387   1.827   2.482   1.502  0.2335 -0.3142 -0.0045
  834SOL     OW 3388   2.047   2.837   1.502  0.2414 -0.1970  0.6854
  834SOL    HW2 3389   2.025   2.925   1.533  2.1126 -0.0691  1.7337
  834SOL    HW3 3390   2.040   2.843   1.407  0.0727  1.0001  0.7570
  834SOL    MW4 3391   2.043   2.850   1.493  0.4656 -0.0222  0.8333
  835SOL     OW 3392   2.019   3.105   1.599  0.2585 -0.3570 -0.3576
  835SOL    HW2 3393   2.037   3.097   1.693  1.6530  1.5485 -0.4365
  835SOL    HW3 3394   2.095   3.152   1.564 -1.3784  1.1337 -2.0338
  835SOL    MW4 3395   2.032   3.110   1.607  0.2263  0.0911 -0.5891
  836SOL     OW 3396   1.801   3.254   1.511 -0.0765  0.6421  0.3876
  836SOL    HW2 3397   1.796   3.324   1.577 -0.9060 -0.2529  1.2809
  836SOL    HW3 3398   1.876   3.201   1.538  0.6766  1.2977 -0.4048
  836SOL    MW4 3399   1.810   3.256   1.523 -0.0865  0.6108  0.4010
  837SOL     OW 3400   1.825   3.501   1.647  0.0565  0.7561  0.4093
  837SOL    HW2 3401   1.809   3.513   1.740 -1.6150  0.8695  0.1264
  837SOL    HW3 3402   1.758   3.554   1.604  1.0885  1.0469 -0.8556
  837SOL    MW4 3403   1.814   3.509   1.653 -0.0280  0.8097  0.2050
  838SOL     OW 3404   2.022   3.655   1.538 -0.3619  0.2311 -0.2380
  838SOL    HW2 3405   2.103   3.609   1.557 -0.4692  0.0977 -0.1046
  838SOL    HW3 3406   1.954   3.604   1.581 -0.5903  0.0132 -0.8459
  838SOL    MW4 3407   2.023   3.642   1.546 -0.4063  0.1848 -0.3006
  839SOL     OW 3408   2.018   3.927   1.586  0.3695  0.0823 -0.0142
  839SOL    HW2 3409   2.099   3.972   1.560  1.2392 -0.8075  1.1281
  839SOL    HW3 3410   2.032   3.836   1.559  0.5959 -0.5037  2.0606
  839SOL    MW4 3411   2.031   3.921   1.579  0.5140 -0.1121  0.4103
  840SOL     OW 3412   1.770   4.055   1.466  0.1301  0.0510 -0.1778
  840SOL    HW2 3413   1.846   4.009   1.501 -0.1812  0.3892  0.9403
  840SOL    HW3 3414   1.695   4.002   1.494 -0.0579 -0.3754 -1.4178
  840SOL    MW4 3415   1.770   4.042   1.474  0.0641  0.0396 -0.1941
  841SOL     OW 3416   1.834   4.281   1.623  0.3531 -0.2149 -0.1091
  841SOL    HW2 3417   1.914   4.312   1.580  0.0629  0.0876 -0.4290
  841SOL    HW3 3418   1.805   4.207   1.570  0.2292 -0.1074 -0.1901
  841SOL    MW4 3419   1.841   4.275   1.610  0.2985 -0.1607 -0.1620
  842SOL     OW 3420   2.042   4.366   1.450  0.0195  0.1855 -0.2971
  842SOL    HW2 3421   2.116   4.340   1.505 -0.9771  0.3049  1.1013
  842SOL    HW3 3422   2.025   4.457   1.474 -1.5549 -0.3049  0.4935
  842SOL    MW4 3423   2.050   4.374   1.460 -0.3195  0.1364 -0.0083
  843SOL     OW 3424   2.431   4.630   1.599  0.4281 -0.0974  0.3689
  843SOL    HW2 3425   2.440   4.646   1.692  0.0790 -0.4933  0.4755
  843SOL    HW3 3426   2.367   4.696   1.569  0.1851 -0.2727  0.5003
  843SOL    MW4 3427   2.424   4.641   1.607  0.3500 -0.1731  0.4003
  844SOL     OW 3428   2.234   0.124   1.499  0.0262  0.2289  0.0650
  844SOL    HW2 3429   2.169   0.068   1.540 -1.2425  1.8677  0.3581
  844SOL    HW3 3430   2.241   0.093   1.409 -0.0909 -0.8645  0.4328
  844SOL    MW4 3431   2.226   0.113   1.493 -0.1566  0.3008  0.1522
  845SOL     OW 3432   2.220   0.385   1.582  0.4667  0.1955 -0.3602
  845SOL    HW2 3433   2.239   0.392   1.676 -2.4573  0.4778  0.2740
  845SOL    HW3 3434   2.214   0.291   1.565 -2.8675  0.1207  0.6876
  845SOL    MW4 3435   2.221   0.374   1.592 -0.3591  0.2229 -0.1383
  846SOL     OW 3436   2.474   0.472   1.466 -0.0202  0.2730 -0.1356
  846SOL    HW2 3437   2.544   0.417   1.503  1.0493  1.3058 -0.6097
  846SOL    HW3 3438   2.394   0.438   1.507  0.7339 -0.9715  0.3598
  846SOL    MW4 3439   2.472   0.460   1.476  0.2201  0.2451 -0.1328
  847SOL     OW 3440   2.477   0.749   1.554 -0.2951 -0.2399  0.0257
  847SOL    HW2 3441   2.390   0.789   1.549  0.4649  1.1499 -2.5673
  847SOL    HW3 3442   2.466   0.661   1.517 -0.5638 -0.0294 -0.3907
  847SOL    MW4 3443   2.464   0.743   1.549 -0.2301 -0.0287 -0.3713
  848SOL     OW 3444   2.227   0.880   1.540 -0.2280  0.0462 -0.1860
  848SOL    HW2 3445   2.251   0.972   1.555  0.1940 -0.1657  0.4904
  848SOL    HW3 3446   2.234   0.869   1.445 -1.1359  0.9415 -0.3639
  848SOL    MW4 3447   2.231   0.891   1.529 -0.2918  0.1364 -0.1204
  849SOL     OW 3448   2.263   1.139   1.603 -0.2420 -0.0517  0.2152
  849SOL    HW2 3449   2.269   1.142   1.698  0.8500  1.5372  0.1224
  849SOL    HW3 3450   2.183   1.188   1.583  0.6152  1.3890  0.2376
  849SOL    MW4 3451   2.253   1.146   1.613  0.0150  0.3479  0.2059
  850SOL     OW 3452   2.504   1.259   1.538  0.1747  0.1693  0.6180
  850SOL    HW2 3453   2.427   1.213   1.571  1.2220 -1.5928  0.6644
  850SOL    HW3 3454   2.496   1.256   1.443 -0.2279  0.7290  0.6300
  850SOL    MW4 3455   2.493   1.253   1.530  0.2596  0.0106  0.6257
  851SOL     OW 3456   2.466   1.522   1.595 -0.2164 -0.0923 -0.3862
  851SOL    HW2 3457   2.549   1.559   1.564 -0.5835  0.6017 -0.5303
  851SOL    HW3 3458   2.476   1.428   1.580  1.8542 -0.4070  2.7026
  851SOL    MW4 3459   2.478   1.514   1.589  0.0083 -0.0423  0.0023
  852SOL     OW 3460   2.227   1.686   1.213  0.3591 -0.2418 -0.6094
  852SOL    HW2 3461   2.240   1.675   1.307 -1.4555  0.7091 -0.2173
  852SOL    HW3 3462   2.250   1.777   1.195 -0.3660 -0.1026 -0.8724
  852SOL    MW4 3463   2.232   1.696   1.223  0.0241 -0.0981 -0.5925
  853SOL     OW 3464   2.275   1.678   1.486 -0.6382  0.1306 -0.1149
  853SOL    HW2 3465   2.281   1.756   1.541 -3.0563  0.0967  0.2906
  853SOL    HW3 3466   2.346   1.622   1.516  0.5962  1.8068  0.1857
  853SOL    MW4 3467   2.285   1.681   1.498 -0.7944  0.3474 -0.0217
  854SOL     OW 3468   2.515   2.046   1.532  0.1416 -0.0968 -0.4295
  854SOL    HW2 3469   2.441   2.002   1.574 -0.2858 -0.5783 -1.6411
  854SOL    HW3 3470   2.513   2.013   1.441  1.4242  0.4114 -0.6472
  854SOL    MW4 3471   2.505   2.036   1.525  0.2546 -0.0932 -0.6181
  855SOL     OW 3472   2.480   2.311   1.646  0.5896  0.3638  0.1024
  855SOL    HW2 3473   2.501   2.319   1.740 -0.3043  0.7138  0.2707
  855SOL    HW3 3474   2.496   2.219   1.626  1.9517  0.5352  0.3102
  855SOL    MW4 3475   2.485   2.300   1.656  0.6514  0.4325  0.1520
  856SOL     OW 3476   2.277   2.466   1.552  0.4307  0.4618  0.0235
  856SOL    HW2 3477   2.349   2.413   1.585  0.0152  1.0815  1.9849
  856SOL    HW3 3478   2.198   2.418   1.576  0.1113  1.0709  0.2028
  856SOL    MW4 3479   2.276   2.453   1.559  0.3340  0.6239  0.3060
  857SOL     OW 3480   2.256   2.725   1.637  0.5109 -0.6332  0.1873
  857SOL    HW2 3481   2.259   2.631   1.622  1.0007 -0.5008 -0.5563
  857SOL    HW3 3482   2.179   2.754   1.588  1.3261 -0.4039 -0.9813
  857SOL    MW4 3483   2.246   2.717   1.628  0.6831 -0.5856 -0.0650
  858SOL     OW 3484   2.453   2.837   1.476 -0.3149  0.7812 -0.1809
  858SOL    HW2 3485   2.450   2.930   1.498 -0.7463  0.7131  0.0598
  858SOL    HW3 3486   2.392   2.796   1.537  0.4683  0.2325  0.2448
  858SOL    MW4 3487   2.444   2.844   1.487 -0.2685  0.6998 -0.0929
  859SOL     OW 3488   2.441   3.073   1.612 -0.4348 -0.2745  0.6367
  859SOL    HW2 3489   2.509   3.127   1.571  0.0416 -0.6151  0.9615
  859SOL    HW3 3490   2.359   3.116   1.589 -0.0745  0.4905  0.7450
  859SOL    MW4 3491   2.439   3.086   1.604 -0.3245 -0.2182  0.6938
  860SOL     OW 3492   2.237   3.218   1.520 -0.3845 -0.4956  0.3854
  860SOL    HW2 3493   2.240   3.313   1.534  0.4787 -0.4548 -0.0219
  860SOL    HW3 3494   2.243   3.208   1.425 -0.8932 -0.9447  0.3996
  860SOL    MW4 3495   2.238   3.230   1.509 -0.3378 -0.5496  0.3335
  861SOL     OW 3496   2.249   3.494   1.586  0.2271  0.3043 -0.1728
  861SOL    HW2 3497   2.262   3.485   1.680  0.7067 -1.8285 -0.4077
  861SOL    HW3 3498   2.334   3.518   1.552  0.5002 -0.7030 -0.2368
  861SOL    MW4 3499   2.262   3.496   1.594  0.3264 -0.1099 -0.2123
  862SOL     OW 3500   2.489   3.592   1.493 -0.0030 -0.5037  0.1087
  862SOL    HW2 3501   2.571   3.557   1.528 -0.9492 -1.6703  1.2097
  862SOL    HW3 3502   2.502   3.687   1.493  1.4800 -0.6885 -0.0911
  862SOL    MW4 3503   2.502   3.600   1.498  0.0679 -0.6819  0.2276
  863SOL     OW 3504   2.476   3.875   1.559 -0.3749 -0.8334  0.0702
  863SOL    HW2 3505   2.476   3.879   1.654 -0.8525  0.3471  0.0240
  863SOL    HW3 3506   2.560   3.911   1.532 -1.0501  0.7146 -0.0172
  863SOL    MW4 3507   2.487   3.880   1.568 -0.5271 -0.4737  0.0525
  864SOL     OW 3508   2.252   4.003   1.490 -0.1140 -0.1871  0.0681
  864SOL    HW2 3509   2.331   3.955   1.517  0.6588  0.3123 -1.3010
  864SOL    HW3 3510   2.250   3.995   1.395  0.1995  2.7862 -0.2163
  864SOL    MW4 3511   2.262   3.995   1.481  0.0293  0.2713 -0.1501
  865SOL     OW 3512   2.249   4.274   1.585 -0.4664  0.0362 -0.4718
  865SOL    HW2 3513   2.330   4.305   1.544  0.9506 -2.4603  0.3100
  865SOL    HW3 3514   2.233   4.189   1.544 -1.8426 -0.1926  0.5097
  865SOL    MW4 3515   2.257   4.267   1.574 -0.4611 -0.3238 -0.2391
  866SOL     OW 3516   2.484   4.380   1.472 -0.3981  0.2760  0.3317
  866SOL    HW2 3517   2.464   4.463   1.517  0.0397  0.7950 -0.4228
  866SOL    HW3 3518   2.493   4.404   1.380 -1.0757 -0.7555 -0.0054
  866SOL    MW4 3519   2.483   4.394   1.466 -0.4299  0.2084  0.1878
  867SOL     OW 3520   2.876   0.007   1.595  0.1006 -0.0416 -0.2102
  867SOL    HW2 3521   2.853  -0.005   1.688  0.5406 -0.8009 -0.1949
  867SOL    HW3 3522   2.792   0.019   1.551 -0.4122 -3.2376 -0.2211
  867SOL    MW4 3523   2.861   0.007   1.602  0.0908 -0.5631 -0.2096
  868SOL     OW 3524   2.661   0.080   1.463 -0.2734 -0.6680 -0.0411
  868SOL    HW2 3525   2.692   0.164   1.498 -0.8287  0.0523 -1.2500
  868SOL    HW3 3526   2.580   0.063   1.510  0.0734 -0.7722  0.5360
  868SOL    MW4 3527   2.655   0.089   1.474 -0.3009 -0.5867 -0.1245
  869SOL     OW 3528   2.702   0.325   1.606 -0.2569  0.0372  0.0364
  869SOL    HW2 3529   2.704   0.327   1.702 -1.6472  2.0002  0.0573
  869SOL    HW3 3530   2.783   0.369   1.580 -0.0611 -0.1514  0.3248
  869SOL    MW4 3531   2.713   0.331   1.615 -0.4146  0.2713  0.0772
  870SOL     OW 3532   2.929   0.461   1.519 -0.3932 -0.0754 -0.3784
  870SOL    HW2 3533   2.926   0.549   1.556  0.3684 -0.6314  1.0627
  870SOL    HW3 3534   2.912   0.473   1.426 -0.1715  1.6056 -0.2162
  870SOL    MW4 3535   2.926   0.474   1.512 -0.2635  0.0730 -0.1668
  871SOL     OW 3536   2.930   0.727   1.579 -0.3538  0.0004 -0.3513
  871SOL    HW2 3537   2.921   0.743   1.673  0.5587  2.2383 -0.6074
  871SOL    HW3 3538   2.854   0.771   1.540 -0.4431 -0.4637 -0.7130
  871SOL    MW4 3539   2.919   0.735   1.586 -0.2451  0.2345 -0.4328
  872SOL     OW 3540   2.714   0.883   1.491  0.5344  0.0191 -0.2244
  872SOL    HW2 3541   2.629   0.842   1.505  0.2532  0.6296 -0.1233
  872SOL    HW3 3542   2.717   0.901   1.397  0.3668  0.4004 -0.1569
  872SOL    MW4 3543   2.703   0.880   1.481  0.4754  0.1500 -0.2022
  873SOL     OW 3544   2.723   1.113   1.626 -0.0614  0.0769 -0.0660
  873SOL    HW2 3545   2.718   1.030   1.578  1.0342 -0.9822  1.5493
  873SOL    HW3 3546   2.644   1.160   1.602 -0.2211 -1.0261 -1.7784
  873SOL    MW4 3547   2.712   1.108   1.617  0.0622 -0.2084 -0.0788
  874SOL     OW 3548   2.909   1.282   1.479  0.0817 -0.0109  0.4252
  874SOL    HW2 3549   2.993   1.243   1.505 -0.3975 -0.9244  0.6393
  874SOL    HW3 3550   2.844   1.219   1.510 -0.6304  0.2296 -0.5756
  874SOL    MW4 3551   2.912   1.268   1.487 -0.0756 -0.0997  0.3214
  875SOL     OW 3552   2.903   1.516   1.624 -0.0612  0.7984  0.4273
  875SOL    HW2 3553   2.825   1.548   1.579  0.1035 -0.6877 -0.9565
  875SOL    HW3 3554   2.920   1.431   1.585  0.8761  0.0460  2.3979
  875SOL    MW4 3555   2.895   1.509   1.613  0.0842  0.5031  0.5046
  876SOL     OW 3556   2.686   1.643   1.515 -0.2485 -0.0551  0.2768
  876SOL    HW2 3557   2.708   1.727   1.555  0.3013 -0.0328 -0.0645
  876SOL    HW3 3558   2.679   1.662   1.421 -0.0423 -0.4069  0.1889
  876SOL    MW4 3559   2.688   1.656   1.508 -0.1488 -0.0986  0.2201
  877SOL     OW 3560   2.734   1.899   1.627 -0.1409  0.0948 -0.2179
  877SOL    HW2 3561   2.730   1.904   1.722  0.1102  0.7495 -0.2447
  877SOL    HW3 3562   2.651   1.936   1.598  0.4385  1.3135 -0.3092
  877SOL    MW4 3563   2.722   1.904   1.636 -0.0315  0.3420 -0.2334
  878SOL     OW 3564   2.900   2.060   1.464 -0.3433  0.4398  0.1983
  878SOL    HW2 3565   2.895   2.151   1.495 -2.7628  0.9874 -1.6659
  878SOL    HW3 3566   2.844   2.011   1.525 -0.7483  0.5713 -0.0671
  878SOL    MW4 3567   2.892   2.065   1.476 -0.7160  0.5295 -0.0827
  879SOL     OW 3568   2.914   2.303   1.609  0.2530 -0.3001 -0.1006
  879SOL    HW2 3569   2.906   2.307   1.704 -1.7536 -1.9608 -0.1591
  879SOL    HW3 3570   2.843   2.360   1.577  1.0899  0.4680 -0.6171
  879SOL    MW4 3571   2.903   2.311   1.618  0.0987 -0.4177 -0.1765
  880SOL     OW 3572   2.692   2.452   1.548 -0.0591  0.3826 -0.3048
  880SOL    HW2 3573   2.678   2.541   1.581  0.4543 -0.0904  1.2101
  880SOL    HW3 3574   2.622   2.400   1.587  0.2535 -0.0761 -0.3500
  880SOL    MW4 3575   2.681   2.457   1.558  0.0498  0.2596 -0.1110
  881SOL     OW 3576   2.667   2.724   1.627 -0.1252 -0.0902 -0.0566
  881SOL    HW2 3577   2.756   2.746   1.598 -0.0819  0.6714  0.6187
  881SOL    HW3 3578   2.610   2.773   1.568 -0.0385  1.4187  1.0737
  881SOL    MW4 3579   2.671   2.734   1.616 -0.1078  0.2093  0.1816
  882SOL     OW 3580   2.895   2.826   1.502 -0.2537  0.2508  0.1768
  882SOL    HW2 3581   2.972   2.792   1.547 -0.3627 -0.5984 -0.2615
  882SOL    HW3 3582   2.887   2.916   1.532  1.8314  0.8466 -0.9601
  882SOL    MW4 3583   2.904   2.833   1.512  0.0072  0.2174 -0.0310
  883SOL     OW 3584   2.902   3.088   1.583 -0.2143  0.5048  0.5102
  883SOL    HW2 3585   2.916   3.099   1.677  0.7312  0.4306  0.3801
  883SOL    HW3 3586   2.972   3.138   1.542 -0.6213  0.5297 -0.1565
  883SOL    MW4 3587   2.913   3.096   1.590 -0.1433  0.4981  0.4051
  884SOL     OW 3588   2.658   3.209   1.492  0.0450  0.1761  0.0044
  884SOL    HW2 3589   2.738   3.167   1.524  2.2123  3.1061 -1.3454
  884SOL    HW3 3590   2.674   3.221   1.398 -0.9218  3.0156  0.1637
  884SOL    MW4 3591   2.671   3.205   1.484  0.2031  0.9375 -0.1527
  885SOL     OW 3592   2.722   3.487   1.572  0.4835  0.1870 -0.1404
  885SOL    HW2 3593   2.714   3.482   1.667 -0.2720 -0.3639 -0.2283
  885SOL    HW3 3594   2.702   3.398   1.542 -2.5052  1.1034 -1.0252
  885SOL    MW4 3595   2.719   3.474   1.581 -0.0107  0.2353 -0.2686
  886SOL     OW 3596   2.946   3.620   1.464 -0.1468 -0.3325 -0.0077
  886SOL    HW2 3597   2.875   3.561   1.490 -2.0436  1.1188 -1.7509
  886SOL    HW3 3598   2.953   3.609   1.369 -0.0256  1.6747 -0.2557
  886SOL    MW4 3599   2.937   3.611   1.455 -0.3810  0.1237 -0.2704
  887SOL     OW 3600   2.929   3.863   1.600  0.2017 -0.1298 -0.6526
  887SOL    HW2 3601   2.871   3.914   1.544  0.5163 -0.1890 -1.0355
  887SOL    HW3 3602   2.940   3.780   1.554 -0.3088 -0.5477 -0.0337
  887SOL    MW4 3603   2.923   3.858   1.587  0.1760 -0.1926 -0.6214
  888SOL     OW 3604   2.706   3.990   1.474  0.4333 -0.5987  0.5083
  888SOL    HW2 3605   2.709   4.084   1.491 -0.8056 -0.3425 -0.5812
  888SOL    HW3 3606   2.706   3.983   1.379  0.3340 -1.6947  0.5834
  888SOL    MW4 3607   2.706   4.001   1.464  0.2570 -0.7095  0.3746
  889SOL     OW 3608   2.696   4.279   1.612 -0.4093  0.0415  0.3181
  889SOL    HW2 3609   2.776   4.328   1.590  1.0176 -1.7197  1.4098
  889SOL    HW3 3610   2.627   4.322   1.562  0.8235  2.9985  1.0390
  889SOL    MW4 3611   2.698   4.291   1.602 -0.0582  0.1993  0.5572
  890SOL     OW 3612   2.957   4.414   1.515  0.1625 -0.2968  0.2053
  890SOL    HW2 3613   2.940   4.504   1.543 -0.3428 -0.8056  1.5441
  890SOL    HW3 3614   2.940   4.415   1.420 -1.9240  0.5285  0.5523
  890SOL    MW4 3615   2.952   4.426   1.506 -0.1793 -0.2546  0.4277
  891SOL     OW 3616   3.362   4.597   1.618 -0.1059  0.1123  0.4993
  891SOL    HW2 3617   3.448   4.634   1.597 -0.4052  0.0845 -0.8152
  891SOL    HW3 3618   3.372   4.503   1.602 -0.1168 -0.0147  1.2398
  891SOL    MW4 3619   3.375   4.590   1.613 -0.1471  0.0920  0.4237
  892SOL     OW 3620   3.142   0.055   1.479  0.5562 -0.0699 -0.0040
  892SOL    HW2 3621   3.209   0.015   1.535  0.9729  1.4327  0.5983
  892SOL    HW3 3622   3.060   0.044   1.527  0.6916 -0.0923  0.2224
  892SOL    MW4 3623   3.140   0.048   1.493  0.6289  0.1254  0.1053
  893SOL     OW 3624   3.166   0.327   1.573  0.4957 -0.1999 -0.0255
  893SOL    HW2 3625   3.165   0.234   1.548  0.3036 -0.3249  0.4378
  893SOL    HW3 3626   3.080   0.360   1.547  0.4148 -0.2509  0.1771
  893SOL    MW4 3627   3.154   0.319   1.566  0.4599 -0.2231  0.0625
  894SOL     OW 3628   3.385   0.483   1.453  0.4940 -0.0916  0.2953
  894SOL    HW2 3629   3.309   0.429   1.476  0.1588  0.7876  1.2618
  894SOL    HW3 3630   3.384   0.485   1.357 -1.1040  0.4976  0.3096
  894SOL    MW4 3631   3.375   0.476   1.443  0.2391  0.1021  0.4247
  895SOL     OW 3632   3.349   0.761   1.574 -0.1530  0.1497 -0.6387
  895SOL    HW2 3633   3.336   0.735   1.665  0.9810 -1.7614 -0.9955
  895SOL    HW3 3634   3.336   0.681   1.524 -1.1491  1.2651 -2.2055
  895SOL    MW4 3635   3.346   0.747   1.579 -0.1347  0.0448 -0.8924
  896SOL     OW 3636   3.125   0.910   1.499  0.0044 -0.4641 -0.2547
  896SOL    HW2 3637   3.200   0.856   1.524 -0.9094 -1.8796 -0.5148
  896SOL    HW3 3638   3.049   0.861   1.532 -0.9706 -0.4874 -2.5014
  896SOL    MW4 3639   3.125   0.896   1.507 -0.2446 -0.6540 -0.5856
  897SOL     OW 3640   3.159   1.176   1.563 -0.1376 -0.5321  0.5303
  897SOL    HW2 3641   3.168   1.171   1.658 -0.0106 -0.4827  0.5211
  897SOL    HW3 3642   3.150   1.085   1.534 -1.1982 -0.4887  0.6886
  897SOL    MW4 3643   3.159   1.163   1.572 -0.2608 -0.5199  0.5500
  898SOL     OW 3644   3.364   1.341   1.484  0.0304  0.0738 -0.3563
  898SOL    HW2 3645   3.291   1.285   1.512  0.9246 -1.1811 -0.4848
  898SOL    HW3 3646   3.442   1.289   1.501  0.7932  0.6852 -1.8757
  898SOL    MW4 3647   3.364   1.327   1.490  0.2491 -0.0111 -0.5735
  899SOL     OW 3648   3.333   1.570   1.627  0.1190  0.1445 -0.2792
  899SOL    HW2 3649   3.334   1.540   1.718  1.2791  1.0474  0.0208
  899SOL    HW3 3650   3.332   1.490   1.575  0.7310 -0.3876  0.5224
  899SOL    MW4 3651   3.333   1.555   1.632  0.3529  0.1935 -0.1339
  900SOL     OW 3652   3.101   1.694   1.541 -0.1768 -0.0832  0.0647
  900SOL    HW2 3653   3.183   1.671   1.584 -0.5169  0.9790  1.3172
  900SOL    HW3 3654   3.038   1.630   1.573  0.1761 -0.9572 -0.9708
  900SOL    MW4 3655   3.103   1.683   1.551 -0.1750 -0.0583  0.0933
  901SOL     OW 3656   3.138   1.956   1.607  0.0819  0.0948  0.0981
  901SOL    HW2 3657   3.130   1.862   1.588  0.5541 -0.2415  1.4919
  901SOL    HW3 3658   3.055   1.993   1.579 -0.3711 -0.8572  0.1586
  901SOL    MW4 3659   3.126   1.948   1.601  0.0844 -0.0752  0.2900
  902SOL     OW 3660   3.371   2.044   1.495 -0.2483 -0.0204  0.0719
  902SOL    HW2 3661   3.292   2.005   1.534  0.4447  0.2927  1.8376
  902SOL    HW3 3662   3.358   2.034   1.401 -2.1455 -0.4793  0.3465
  902SOL    MW4 3663   3.359   2.038   1.488 -0.4072 -0.0396  0.3411
  903SOL     OW 3664   3.351   2.301   1.576  0.0549  0.0689  0.2053
  903SOL    HW2 3665   3.436   2.336   1.549  0.5107 -0.5346  0.8499
  903SOL    HW3 3666   3.349   2.212   1.540 -0.2914  0.0697  0.2228
  903SOL    MW4 3667   3.362   2.294   1.567  0.0696 -0.0105  0.2928
  904SOL     OW 3668   3.130   2.437   1.489 -0.2816 -0.0054 -0.5742
  904SOL    HW2 3669   3.208   2.389   1.517  0.1675  0.6094 -0.7607
  904SOL    HW3 3670   3.059   2.399   1.540  0.6087  1.5134  1.8821
  904SOL    MW4 3671   3.131   2.426   1.499 -0.1049  0.2761 -0.2748
  905SOL     OW 3672   3.126   2.686   1.610  0.2695 -0.2470  0.5011
  905SOL    HW2 3673   3.204   2.729   1.575  0.4251  0.1056  1.2783
  905SOL    HW3 3674   3.126   2.599   1.569  0.1103  0.3633 -0.8559
  905SOL    MW4 3675   3.136   2.680   1.600  0.2689 -0.1204  0.4246
  906SOL     OW 3676   3.366   2.806   1.528  0.0748  0.2538 -0.1092
  906SOL    HW2 3677   3.342   2.894   1.559  0.0608  0.2744 -0.1786
  906SOL    HW3 3678   3.380   2.817   1.434 -1.1794 -0.0723 -0.3446
  906SOL    MW4 3679   3.364   2.819   1.519 -0.0925  0.2134 -0.1494
  907SOL     OW 3680   3.344   3.076   1.608 -0.6017 -0.1389  0.2753
  907SOL    HW2 3681   3.353   3.078   1.703  1.5069 -1.1309  0.1245
  907SOL    HW3 3682   3.417   3.129   1.575 -0.6435 -0.7347 -0.8120
  907SOL    MW4 3683   3.355   3.083   1.616 -0.3290 -0.3483  0.1121
  908SOL     OW 3684   3.129   3.209   1.471 -0.2441  0.1486 -0.3215
  908SOL    HW2 3685   3.203   3.169   1.517 -0.1132  0.2700 -0.4262
  908SOL    HW3 3686   3.142   3.184   1.379 -1.5151 -1.6612 -0.0382
  908SOL    MW4 3687   3.141   3.200   1.465 -0.3948 -0.0739 -0.2979
  909SOL     OW 3688   3.160   3.479   1.578  0.1391 -0.1559 -0.2345
  909SOL    HW2 3689   3.156   3.388   1.548  0.6705  0.3474 -1.8866
  909SOL    HW3 3690   3.081   3.519   1.543  0.3966  0.2612 -0.3373
  909SOL    MW4 3691   3.149   3.472   1.570  0.2432 -0.0343 -0.4661
  910SOL     OW 3692   3.380   3.612   1.469  0.2330 -0.2944 -0.1625
  910SOL    HW2 3693   3.464   3.576   1.497  0.6073  0.0156 -0.8829
  910SOL    HW3 3694   3.316   3.545   1.495  0.8060 -0.9705 -0.4785
  910SOL    MW4 3695   3.383   3.598   1.476  0.3579 -0.3426 -0.2992
  911SOL     OW 3696   3.348   3.874   1.572 -0.0096  0.2106 -0.0646
  911SOL    HW2 3697   3.298   3.947   1.534 -1.0553 -0.1409  0.6151
  911SOL    HW3 3698   3.310   3.796   1.533 -0.0698 -0.0658  0.5373
  911SOL    MW4 3699   3.337   3.874   1.562 -0.1552  0.1280  0.1044
  912SOL     OW 3700   3.137   4.033   1.492  0.4094 -0.0542 -0.1561
  912SOL    HW2 3701   3.140   4.110   1.550 -0.4381  0.8581 -1.3003
  912SOL    HW3 3702   3.094   3.966   1.545  1.3618  0.1766  0.9395
  912SOL    MW4 3703   3.131   4.035   1.507  0.4234  0.0963 -0.1624
  913SOL     OW 3704   3.170   4.273   1.635  0.2256  0.4548  0.3368
  913SOL    HW2 3705   3.149   4.268   1.728  1.1181 -0.6727  0.4815
  913SOL    HW3 3706   3.094   4.318   1.596 -0.0257  1.1904  1.6318
  913SOL    MW4 3707   3.157   4.279   1.642  0.3102  0.4034  0.5268
  914SOL     OW 3708   3.393   4.341   1.486  0.1945  0.4706 -0.4063
  914SOL    HW2 3709   3.309   4.322   1.528  0.1072  0.2484 -0.6745
  914SOL    HW3 3710   3.370   4.376   1.400  0.3669  1.3043 -0.1122
  914SOL    MW4 3711   3.379   4.343   1.480  0.2055  0.5517 -0.4030
  915SOL     OW 3712   3.839   4.598   1.599 -0.4343  0.4504  0.0932
  915SOL    HW2 3713   3.856   4.606   1.693 -0.9292  0.9795  0.1411
  915SOL    HW3 3714   3.895   4.664   1.558  0.9361 -0.8160 -0.1210
  915SOL    MW4 3715   3.848   4.608   1.606 -0.3185  0.3529  0.0713
  916SOL     OW 3716   3.608   0.065   1.555 -0.1314 -0.6430  0.7657
  916SOL    HW2 3717   3.690   0.019   1.575 -0.0990 -0.6402  0.6340
  916SOL    HW3 3718   3.609   0.078   1.461  0.0254 -0.0511  0.8490
  916SOL    MW4 3719   3.619   0.060   1.545 -0.1066 -0.5645  0.7594
  917SOL     OW 3720   3.610   0.350   1.567  0.1301  0.0898  0.4819
  917SOL    HW2 3721   3.591   0.257   1.559  1.0801 -0.0226 -0.6357
  917SOL    HW3 3722   3.533   0.394   1.533 -0.1181 -0.2902  0.5544
  917SOL    MW4 3723   3.597   0.344   1.562  0.2229  0.0248  0.3440
  918SOL     OW 3724   3.838   0.493   1.518 -0.3559 -0.1406  0.1287
  918SOL    HW2 3725   3.746   0.470   1.530 -0.5092  0.2081 -0.3657
  918SOL    HW3 3726   3.847   0.510   1.424 -0.0336  0.8827  0.3408
  918SOL    MW4 3727   3.827   0.492   1.507 -0.3335  0.0404  0.0914
  919SOL     OW 3728   3.852   0.757   1.620  0.5976 -0.1421 -0.0597
  919SOL    HW2 3729   3.765   0.789   1.597  0.2559 -0.0339  1.3348
  919SOL    HW3 3730   3.857   0.670   1.580  0.6626  0.7066 -1.9154
  919SOL    MW4 3731   3.841   0.750   1.612  0.5612 -0.0158 -0.1205
  920SOL     OW 3732   3.593   0.877   1.518  0.2908  0.3200  0.4188
  920SOL    HW2 3733   3.513   0.835   1.550 -0.6555  1.0632 -0.9033
  920SOL    HW3 3734   3.574   0.896   1.426  1.7856  1.0257  0.2513
  920SOL    MW4 3735   3.580   0.874   1.510  0.3631  0.5112  0.2222
  921SOL     OW 3736   3.579   1.153   1.613  0.4092  0.1804  0.0008
  921SOL    HW2 3737   3.659   1.190   1.576 -0.1293  1.1264 -0.2362
  921SOL    HW3 3738   3.581   1.061   1.586  1.5742  0.1086  0.2724
  921SOL    MW4 3739   3.590   1.146   1.604  0.4919  0.2956  0.0054
  922SOL     OW 3740   3.797   1.287   1.485  0.6539  0.5323 -0.6318
  922SOL    HW2 3741   3.870   1.237   1.520  1.4551  0.9915 -1.6109
  922SOL    HW3 3742   3.792   1.365   1.540  0.3251  0.0816 -0.0113
  922SOL    MW4 3743   3.806   1.290   1.497  0.7164  0.5333 -0.6790
  923SOL     OW 3744   3.824   1.540   1.609 -0.2231 -0.1716 -0.3000
  923SOL    HW2 3745   3.844   1.567   1.698  1.5746  1.6958 -1.2478
  923SOL    HW3 3746   3.743   1.587   1.587  0.0489  0.3762 -0.1191
  923SOL    MW4 3747   3.816   1.549   1.618  0.0501  0.1470 -0.4013
  924SOL     OW 3748   3.584   1.663   1.524 -0.2992 -0.3313 -0.0724
  924SOL    HW2 3749   3.507   1.655   1.580  0.4848 -0.8897  0.9346
  924SOL    HW3 3750   3.551   1.642   1.436 -0.9558 -2.2184  0.5971
  924SOL    MW4 3751   3.569   1.659   1.520 -0.2823 -0.6540  0.1487
  925SOL     OW 3752   3.612   1.927   1.610 -0.1685  0.1850 -0.2874
  925SOL    HW2 3753   3.595   1.840   1.574  1.9011 -0.5627  0.4433
  925SOL    HW3 3754   3.546   1.984   1.570 -1.1053 -1.5903 -1.2948
  925SOL    MW4 3755   3.601   1.923   1.600 -0.0188 -0.1477 -0.3239
  926SOL     OW 3756   3.824   2.067   1.449  0.0880  0.5939  0.3188
  926SOL    HW2 3757   3.825   2.143   1.507 -1.3075  0.7063  0.2184
  926SOL    HW3 3758   3.757   2.010   1.486 -1.0374  0.8089 -1.3341
  926SOL    MW4 3759   3.815   2.070   1.462 -0.2446  0.6371  0.0876
  927SOL     OW 3760   3.839   2.293   1.608  0.1952  0.0506 -0.2365
  927SOL    HW2 3761   3.839   2.302   1.703  2.4036 -0.3496 -0.1720
  927SOL    HW3 3762   3.927   2.318   1.581 -0.4039  0.1879 -2.1879
  927SOL    MW4 3763   3.851   2.297   1.617  0.4075  0.0162 -0.4853
  928SOL     OW 3764   3.583   2.413   1.515 -0.2386 -0.0972  0.3024
  928SOL    HW2 3765   3.573   2.503   1.545 -0.4958  0.6493 -1.9158
  928SOL    HW3 3766   3.665   2.384   1.553  1.0873  1.9207 -0.9108
  928SOL    MW4 3767   3.592   2.421   1.524 -0.0975  0.2675 -0.1503
  929SOL     OW 3768   3.592   2.684   1.620 -0.2216  0.1379 -0.2522
  929SOL    HW2 3769   3.594   2.679   1.716 -1.4841  0.5402 -0.1944
  929SOL    HW3 3770   3.515   2.738   1.601 -0.1147 -0.1471 -1.5013
  929SOL    MW4 3771   3.582   2.691   1.630 -0.3741  0.1535 -0.4092
  930SOL     OW 3772   3.819   2.817   1.516 -0.1033  0.1185 -0.0014
  930SOL    HW2 3773   3.901   2.778   1.545  0.0307  1.4184  1.4935
  930SOL    HW3 3774   3.752   2.751   1.534  0.3972 -0.2710  0.4142
  930SOL    MW4 3775   3.821   2.803   1.522 -0.0198  0.2387  0.2506
  931SOL     OW 3776   3.793   3.090   1.612 -0.2291  0.2240 -0.0832
  931SOL    HW2 3777   3.860   3.128   1.555 -1.3652 -0.1641 -1.7174
  931SOL    HW3 3778   3.792   2.997   1.589 -0.5051  0.0142  0.7638
  931SOL    MW4 3779   3.801   3.083   1.601 -0.4151  0.1450 -0.1872
  932SOL     OW 3780   3.569   3.217   1.533  0.6842 -0.4023  0.3484
  932SOL    HW2 3781   3.641   3.160   1.562  0.5010 -0.8499 -0.0529
  932SOL    HW3 3782   3.589   3.234   1.441 -0.5049 -1.7547 -0.1775
  932SOL    MW4 3783   3.581   3.212   1.525  0.5031 -0.6402  0.2261
  933SOL     OW 3784   3.621   3.489   1.614 -0.3902  0.3926 -0.1416
  933SOL    HW2 3785   3.701   3.529   1.581 -0.8410  1.9079  0.5667
  933SOL    HW3 3786   3.620   3.401   1.576  1.9966  0.0797  0.4639
  933SOL    MW4 3787   3.631   3.483   1.605 -0.1347  0.5510  0.0317
  934SOL     OW 3788   3.801   3.626   1.466 -0.1523  0.2211  0.0147
  934SOL    HW2 3789   3.875   3.580   1.506 -0.0399 -0.3715 -0.8565
  934SOL    HW3 3790   3.794   3.708   1.516 -0.0430 -0.5135  1.2541
  934SOL    MW4 3791   3.810   3.631   1.478 -0.1233  0.0460  0.0633
  935SOL     OW 3792   3.780   3.886   1.573 -0.2948  0.0241  0.3826
  935SOL    HW2 3793   3.858   3.933   1.542 -1.0684  2.3720  1.8776
  935SOL    HW3 3794   3.711   3.912   1.513 -0.4331 -0.2665  0.4144
  935SOL    MW4 3795   3.781   3.896   1.561 -0.4148  0.2954  0.5840
  936SOL     OW 3796   3.562   3.978   1.419 -0.0447  0.2764  0.2482
  936SOL    HW2 3797   3.581   4.059   1.466  0.5844 -1.0180  2.3412
  936SOL    HW3 3798   3.488   3.940   1.466  0.3533 -0.8714 -0.0317
  936SOL    MW4 3799   3.555   3.984   1.431  0.0908 -0.0458  0.4874
  937SOL     OW 3800   3.625   4.219   1.569  0.3230 -0.5519  0.7572
  937SOL    HW2 3801   3.630   4.211   1.664  0.2452  1.0388  0.9059
  937SOL    HW3 3802   3.548   4.274   1.554  0.8927 -0.0019 -0.1833
  937SOL    MW4 3803   3.615   4.225   1.579  0.3877 -0.2694  0.6527
  938SOL     OW 3804   3.836   4.358   1.447  0.1501  0.5375  0.0504
  938SOL    HW2 3805   3.768   4.301   1.484 -0.9585  1.2890 -0.7739
  938SOL    HW3 3806   3.818   4.444   1.485  0.6932  0.7208 -0.1105
  938SOL    MW4 3807   3.825   4.362   1.457  0.0753  0.6604 -0.0798
  939SOL     OW 3808   4.265   4.644   1.618  0.3151  0.4577  0.1132
  939SOL    HW2 3809   4.271   4.640   1.714  0.5728  0.8475  0.1156
  939SOL    HW3 3810   4.257   4.553   1.590 -0.1303  0.3665  0.5303
  939SOL    MW4 3811   4.265   4.631   1.627  0.2904  0.4973  0.1684
  940SOL     OW 3812   4.054   0.107   1.492 -0.1046  0.1087 -0.3713
  940SOL    HW2 3813   4.081   0.199   1.495  1.0483 -0.0654 -3.3739
  940SOL    HW3 3814   4.123   0.060   1.540  0.1225  0.6381 -0.1802
  940SOL    MW4 3815   4.067   0.113   1.499  0.0768  0.1555 -0.7423
  941SOL     OW 3816   4.076   0.370   1.599  0.5032  0.5625 -0.3369
  941SOL    HW2 3817   4.078   0.352   1.693  0.1025  1.0850 -0.2216
  941SOL    HW3 3818   3.989   0.408   1.584 -0.3438 -1.6714 -1.3218
  941SOL    MW4 3819   4.065   0.373   1.609  0.3386  0.3366 -0.4517
  942SOL     OW 3820   4.287   0.511   1.485 -0.1445  0.5542 -0.0981
  942SOL    HW2 3821   4.211   0.464   1.519 -0.8187 -1.1397 -3.7440
  942SOL    HW3 3822   4.363   0.462   1.517 -0.7065 -0.2861 -0.0613
  942SOL    MW4 3823   4.287   0.498   1.493 -0.3080  0.2199 -0.5742
  943SOL     OW 3824   4.303   0.768   1.586  0.3512  0.3697 -0.1124
  943SOL    HW2 3825   4.301   0.676   1.560 -0.2967  0.5518 -0.7273
  943SOL    HW3 3826   4.384   0.802   1.548  0.1738  0.2582 -0.5936
  943SOL    MW4 3827   4.313   0.761   1.577  0.2418  0.3790 -0.2571
  944SOL     OW 3828   4.048   0.914   1.491  0.5180 -0.2274  0.1455
  944SOL    HW2 3829   4.133   0.878   1.516  0.0760 -0.3031  1.5503
  944SOL    HW3 3830   3.984   0.853   1.529 -0.1767  0.0454 -0.5735
  944SOL    MW4 3831   4.050   0.901   1.499  0.3681 -0.2014  0.2358
  945SOL     OW 3832   4.034   1.179   1.607 -0.2754  0.0128  0.3418
  945SOL    HW2 3833   4.053   1.171   1.700  0.0845  1.0306  0.3629
  945SOL    HW3 3834   4.026   1.088   1.576 -2.3045 -0.3143  1.7371
  945SOL    MW4 3835   4.036   1.166   1.615 -0.4954  0.1038  0.5287
  946SOL     OW 3836   4.257   1.301   1.464 -0.2364 -0.0421  0.2523
  946SOL    HW2 3837   4.175   1.276   1.508 -0.4035  0.0606  0.0021
  946SOL    HW3 3838   4.323   1.244   1.504 -0.4107 -0.0519  0.5323
  946SOL    MW4 3839   4.255   1.290   1.475 -0.2813 -0.0298  0.2562
  947SOL     OW 3840   4.264   1.546   1.581 -0.9381 -0.4183  0.1394
  947SOL    HW2 3841   4.272   1.459   1.541  2.8342 -0.1971  0.1666
  947SOL    HW3 3842   4.345   1.591   1.556 -2.1852  2.6032  1.2949
  947SOL    MW4 3843   4.276   1.540   1.573 -0.6046  0.0095  0.2954
  948SOL     OW 3844   4.032   1.662   1.466 -0.1600 -0.1784 -0.4377
  948SOL    HW2 3845   4.110   1.613   1.494  0.8300  1.9081  0.5753
  948SOL    HW3 3846   3.961   1.627   1.520  0.3545 -1.1286 -0.3731
  948SOL    MW4 3847   4.033   1.651   1.477  0.0386 -0.0284 -0.2955
  949SOL     OW 3848   4.063   1.911   1.600 -0.1105  0.0502 -0.4983
  949SOL    HW2 3849   4.063   1.826   1.554  0.3751  0.3646 -1.0968
  949SOL    HW3 3850   3.995   1.962   1.556  0.8073  0.5828 -1.3146
  949SOL    MW4 3851   4.054   1.906   1.588  0.0749  0.1621 -0.6850
  950SOL     OW 3852   4.282   2.052   1.500  0.3290  0.0096 -0.0309
  950SOL    HW2 3853   4.211   2.011   1.550  0.6949  0.1995  0.6458
  950SOL    HW3 3854   4.256   2.041   1.409 -1.0357  0.9028  0.2317
  950SOL    MW4 3855   4.269   2.045   1.495  0.1969  0.1523  0.0931
  951SOL     OW 3856   4.307   2.313   1.589 -0.5226  0.1694  0.2186
  951SOL    HW2 3857   4.288   2.311   1.682  0.1685 -0.6392  0.3422
  951SOL    HW3 3858   4.302   2.222   1.561  0.3082  0.2854 -0.3238
  951SOL    MW4 3859   4.303   2.301   1.597 -0.3219  0.0780  0.1634
  952SOL     OW 3860   4.067   2.424   1.516 -0.7389 -0.0699 -0.0822
  952SOL    HW2 3861   4.064   2.508   1.561 -0.0198  0.0561 -0.2726
  952SOL    HW3 3862   4.150   2.385   1.543 -1.4034 -1.0584  0.6063
  952SOL    MW4 3863   4.077   2.430   1.526 -0.7315 -0.1836 -0.0165
  953SOL     OW 3864   4.064   2.679   1.610 -0.1212  0.0572 -0.0706
  953SOL    HW2 3865   4.061   2.694   1.705  0.6474 -2.3428  0.3634
  953SOL    HW3 3866   4.145   2.722   1.582 -0.5913  1.1860  0.2735
  953SOL    MW4 3867   4.074   2.687   1.619 -0.0820 -0.1104  0.0322
  954SOL     OW 3868   4.281   2.825   1.532 -0.0571  0.4090 -0.4886
  954SOL    HW2 3869   4.261   2.913   1.564  0.2625  0.0982  0.5914
  954SOL    HW3 3870   4.274   2.832   1.437  2.5672  2.2660 -0.6049
  954SOL    MW4 3871   4.277   2.838   1.524  0.3314  0.6132 -0.3613
  955SOL     OW 3872   4.220   3.079   1.591  0.3171 -0.0752  0.5873
  955SOL    HW2 3873   4.219   3.079   1.686  1.8929 -1.6791  0.6297
  955SOL    HW3 3874   4.303   3.121   1.567 -1.1789  2.6037 -0.1533
  955SOL    MW4 3875   4.231   3.084   1.600  0.3281  0.0665  0.4952
  956SOL     OW 3876   4.000   3.232   1.490 -0.0383 -0.6271 -0.1278
  956SOL    HW2 3877   4.007   3.317   1.535 -0.8817 -0.2035 -0.7641
  956SOL    HW3 3878   4.074   3.181   1.523  2.0786  1.2787 -1.6921
  956SOL    MW4 3879   4.011   3.237   1.500  0.1302 -0.3197 -0.4182
  957SOL     OW 3880   4.022   3.482   1.591 -0.6679 -0.4162 -0.1119
  957SOL    HW2 3881   4.042   3.483   1.685 -2.1499  1.0310  0.2250
  957SOL    HW3 3882   4.101   3.513   1.548 -0.7611  1.1832  0.8533
  957SOL    MW4 3883   4.035   3.486   1.598 -0.8759 -0.0143  0.0598
  958SOL     OW 3884   4.253   3.598   1.468  0.0395 -0.1968 -0.3460
  958SOL    HW2 3885   4.251   3.685   1.508  0.1395 -0.3646  0.0296
  958SOL    HW3 3886   4.216   3.611   1.381 -0.7488  0.0625  0.0219
  958SOL    MW4 3887   4.248   3.611   1.462 -0.0520 -0.1845 -0.2478
  959SOL     OW 3888   4.217   3.859   1.585  0.2503 -0.0292  0.0444
  959SOL    HW2 3889   4.146   3.902   1.537  0.7164  1.0482  0.3146
  959SOL    HW3 3890   4.296   3.900   1.551  0.7740 -1.3759 -0.4113
  959SOL    MW4 3891   4.218   3.870   1.574  0.3815 -0.0646  0.0199
  960SOL     OW 3892   4.023   4.026   1.463  0.3960 -0.3214 -0.3191
  960SOL    HW2 3893   4.054   4.112   1.492 -0.9094  0.5210 -1.3382
  960SOL    HW3 3894   4.026   4.031   1.367 -2.7798 -0.2142 -0.4527
  960SOL    MW4 3895   4.028   4.038   1.454 -0.1955 -0.1965 -0.4712
  961SOL     OW 3896   4.064   4.261   1.581  0.2229  0.4165  0.3878
  961SOL    HW2 3897   4.054   4.261   1.676  1.6405  2.2247  0.5587
  961SOL    HW3 3898   3.982   4.300   1.549 -0.1793 -0.0224  0.8661
  961SOL    MW4 3899   4.052   4.266   1.589  0.3572  0.5970  0.4735
  962SOL     OW 3900   4.274   4.396   1.493 -0.6959 -0.1444 -0.1901
  962SOL    HW2 3901   4.197   4.350   1.526 -0.3825 -1.0466 -0.7013
  962SOL    HW3 3902   4.262   4.398   1.398 -1.0091  1.3904 -0.1361
  962SOL    MW4 3903   4.262   4.390   1.485 -0.6962 -0.0606 -0.2503
  963SOL     OW 3904   0.214   0.006   1.865  0.4562  0.1246 -0.5059
  963SOL    HW2 3905   0.301   0.038   1.889  1.2378 -2.1977 -0.1609
  963SOL    HW3 3906   0.213   0.010   1.769  0.1701  2.0655 -0.4507
  963SOL    MW4 3907   0.225   0.011   1.855  0.5216  0.0739 -0.4531
  964SOL     OW 3908   4.477   0.119   1.966  0.0017 -0.2726 -0.2766
  964SOL    HW2 3909   4.467   0.202   1.919 -0.1132 -0.3958 -0.4692
  964SOL    HW3 3910   4.555   0.079   1.928 -0.5414 -0.7375 -0.9126
  964SOL    MW4 3911   4.486   0.124   1.955 -0.0850 -0.3502 -0.3859
  965SOL     OW 3912   4.472   0.382   1.862 -0.3722  0.7911  0.1582
  965SOL    HW2 3913   4.400   0.443   1.875  0.0142  1.3779 -0.4525
  965SOL    HW3 3914   4.546   0.421   1.907 -0.2117  0.5955  0.0654
  965SOL    MW4 3915   4.472   0.395   1.869 -0.3004  0.8428  0.0654
  966SOL     OW 3916   0.232   0.456   1.962  0.1906  0.6022 -0.5385
  966SOL    HW2 3917   0.316   0.417   1.938  0.5251  0.3379  1.0178
  966SOL    HW3 3918   0.236   0.545   1.927  0.7482  0.2954 -1.2629
  966SOL    MW4 3919   0.243   0.462   1.954  0.3083  0.5269 -0.4289
  967SOL     OW 3920   0.235   0.735   1.877 -0.5173  0.3167 -0.4315
  967SOL    HW2 3921   0.315   0.781   1.905  0.1821 -0.5389 -0.9865
  967SOL    HW3 3922   0.233   0.746   1.782  0.3668 -1.8845 -0.7347
  967SOL    MW4 3923   0.246   0.742   1.869 -0.3084 -0.0867 -0.5448
  968SOL     OW 3924   0.038   0.901   1.964 -0.2111 -0.3143  0.0532
  968SOL    HW2 3925  -0.038   0.855   1.928 -1.2760 -0.0910  1.8990
  968SOL    HW3 3926   0.114   0.853   1.931 -1.2074 -1.3697 -0.7424
  968SOL    MW4 3927   0.038   0.888   1.955 -0.4830 -0.4241  0.1917
  969SOL     OW 3928   4.470   1.141   1.841 -0.0157  0.1832 -0.1465
  969SOL    HW2 3929   4.432   1.212   1.894 -1.0000 -0.6954  0.3474
  969SOL    HW3 3930   4.483   1.070   1.904  2.6184  0.5089 -0.2779
  969SOL    MW4 3931   4.467   1.141   1.856  0.2017  0.1101 -0.0986
  970SOL     OW 3932   0.207   1.247   1.977  0.2677  0.0492 -0.1362
  970SOL    HW2 3933   0.214   1.333   1.936  0.6923  0.6181  1.1298
  970SOL    HW3 3934   0.129   1.208   1.938 -0.1616  1.1656 -0.3916
  970SOL    MW4 3935   0.198   1.253   1.966  0.2671  0.2714 -0.0029
  971SOL     OW 3936   0.230   1.520   1.854 -0.1017  0.0777  0.4653
  971SOL    HW2 3937   0.312   1.558   1.887  0.5956 -1.3189  0.3669
  971SOL    HW3 3938   0.163   1.585   1.876  1.1320  1.5989 -0.1411
  971SOL    MW4 3939   0.232   1.534   1.861  0.1530  0.0942  0.3723
  972SOL     OW 3940   0.013   1.678   1.939 -0.5185 -0.0177  0.4702
  972SOL    HW2 3941  -0.000   1.681   2.033 -1.5554  1.0494  0.3101
  972SOL    HW3 3942  -0.069   1.643   1.904  0.1573 -1.1592  0.0210
  972SOL    MW4 3943   0.000   1.674   1.947 -0.5662 -0.0273  0.3898
  973SOL     OW 3944   0.019   1.928   1.850  0.2814  0.2673  0.4156
  973SOL    HW2 3945  -0.045   1.981   1.897  0.3123  0.8958 -0.2472
  973SOL    HW3 3946   0.003   1.839   1.881 -0.7646  0.4549  0.4328
  973SOL    MW4 3947   0.008   1.923   1.860  0.1473  0.3750  0.3303
  974SOL     OW 3948   0.227   2.054   1.989  0.0872  0.4995 -0.4449
  974SOL    HW2 3949   0.234   2.139   1.947 -0.1578  0.1456 -1.2153
  974SOL    HW3 3950   0.147   2.016   1.953  0.9125 -0.6124 -1.1383
  974SOL    MW4 3951   0.218   2.060   1.979  0.1637  0.3059 -0.6380
  975SOL     OW 3952   0.242   2.322   1.894  0.1436 -0.3327  0.2431
  975SOL    HW2 3953   0.318   2.370   1.927 -0.3605  0.2439  0.5743
  975SOL    HW3 3954   0.167   2.378   1.915 -0.4669 -1.3474  0.7828
  975SOL    MW4 3955   0.242   2.336   1.901 -0.0035 -0.3905  0.3580
  976SOL     OW 3956   0.021   2.459   1.966 -0.2538  0.5154  0.3612
  976SOL    HW2 3957   0.004   2.450   2.060  1.1096  0.3858  0.6067
  976SOL    HW3 3958   0.021   2.553   1.951 -0.6323  0.5327  0.4508
  976SOL    MW4 3959   0.018   2.470   1.977 -0.1240  0.5004  0.4053
  977SOL     OW 3960   0.030   2.721   1.885 -0.1369 -0.2707 -0.2360
  977SOL    HW2 3961  -0.046   2.771   1.915 -0.6173 -1.5086  0.6348
  977SOL    HW3 3962   0.019   2.715   1.791 -0.2384  0.9845 -0.3200
  977SOL    MW4 3963   0.019   2.727   1.877 -0.2136 -0.2685 -0.1322
  978SOL     OW 3964   0.230   2.878   2.003 -0.5250  0.2615 -0.1240
  978SOL    HW2 3965   0.231   2.966   1.967  0.6080  0.2412 -0.1547
  978SOL    HW3 3966   0.150   2.838   1.966 -0.7988  1.1135 -0.4627
  978SOL    MW4 3967   0.219   2.884   1.993 -0.4117  0.3710 -0.1727
  979SOL     OW 3968   0.193   3.127   1.879  0.7211  0.6407 -0.1966
  979SOL    HW2 3969   0.282   3.154   1.901  1.1714  0.1690 -1.3666
  979SOL    HW3 3970   0.197   3.107   1.785 -0.6710  0.8372 -0.3050
  979SOL    MW4 3971   0.205   3.128   1.869  0.5968  0.6042 -0.3653
  980SOL     OW 3972   4.445   3.282   1.963  0.2274 -0.2753 -0.5890
  980SOL    HW2 3973   4.371   3.242   1.917 -0.4505  0.4130 -0.1065
  980SOL    HW3 3974   4.522   3.238   1.927 -0.4207 -1.0652 -1.0248
  980SOL    MW4 3975   4.445   3.271   1.952  0.0515 -0.2887 -0.5828
  981SOL     OW 3976   4.488   3.538   1.850  0.7842  0.1666 -0.1589
  981SOL    HW2 3977   4.572   3.565   1.887 -0.7530  2.4012  1.7516
  981SOL    HW3 3978   4.466   3.458   1.897  2.0804 -0.7663 -1.0815
  981SOL    MW4 3979   4.496   3.531   1.861  0.7524  0.3386 -0.0286
  982SOL     OW 3980   0.239   3.637   1.981  0.0968  0.3461  0.0122
  982SOL    HW2 3981   0.214   3.618   2.071 -0.4249  0.1629 -0.1676
  982SOL    HW3 3982   0.306   3.572   1.960 -1.1047 -0.8050 -0.3385
  982SOL    MW4 3983   0.244   3.626   1.990 -0.1306  0.1702 -0.0578
  983SOL     OW 3984   0.215   3.881   1.859 -0.2047 -0.0203  0.5537
  983SOL    HW2 3985   0.282   3.941   1.890  1.7609 -0.6686 -2.1655
  983SOL    HW3 3986   0.235   3.798   1.902 -0.2190  0.1862  0.9556
  983SOL    MW4 3987   0.227   3.878   1.869  0.0528 -0.0787  0.2478
  984SOL     OW 3988   4.488   4.000   1.954 -0.4879  0.8321 -0.4944
  984SOL    HW2 3989   4.499   4.089   1.920  1.8773  0.6166 -0.3233
  984SOL    HW3 3990   4.556   3.949   1.910 -2.0954 -0.9974 -0.9023
  984SOL    MW4 3991   4.498   4.005   1.944 -0.3881  0.5622 -0.5257
  985SOL     OW 3992   0.001   4.253   1.851  0.4746  0.0703 -0.4029
  985SOL    HW2 3993  -0.081   4.287   1.888  0.6136 -2.0200  2.0314
  985SOL    HW3 3994   0.070   4.303   1.895  0.6232 -2.0748  1.9457
  985SOL    MW4 3995  -0.001   4.264   1.862  0.5121 -0.4883  0.2280
  986SOL     OW 3996   0.205   4.413   1.959  0.4346 -0.1579 -0.4150
  986SOL    HW2 3997   0.204   4.429   2.054  0.4174 -0.6354 -0.3366
  986SOL    HW3 3998   0.203   4.501   1.921 -1.1896  0.0066  0.0132
  986SOL    MW4 3999   0.205   4.427   1.967  0.2180 -0.1998 -0.3482
  987SOL     OW 4000   0.700   4.658   1.885  0.3518 -0.0067 -0.3212
  987SOL    HW2 4001   0.705   4.564   1.902  0.6312  0.2116  0.8022
  987SOL    HW3 4002   0.717   4.665   1.791 -0.2166 -1.1215 -0.5182
  987SOL    MW4 4003   0.703   4.646   1.875  0.3137 -0.1254 -0.1990
  988SOL     OW 4004   0.457   0.115   1.975  0.0276 -0.3124 -0.3956
  988SOL    HW2 4005   0.471   0.204   1.944 -0.9996  0.4099  1.1288
  988SOL    HW3 4006   0.542   0.072   1.966  0.6331  0.9518 -0.7435
  988SOL    MW4 4007   0.470   0.121   1.970 -0.0280 -0.0503 -0.2403
  989SOL     OW 4008   0.472   0.361   1.858 -0.2535  0.2151  0.0267
  989SOL    HW2 4009   0.545   0.418   1.882 -0.5049  0.4010  0.3680
  989SOL    HW3 4010   0.467   0.367   1.763 -0.2284  0.7095  0.0528
  989SOL    MW4 4011   0.481   0.369   1.849 -0.2834  0.3048  0.0751
  990SOL     OW 4012   0.695   0.495   1.937 -0.3764  0.7559 -0.0392
  990SOL    HW2 4013   0.701   0.499   2.032 -0.7481  0.6127 -0.0088
  990SOL    HW3 4014   0.780   0.462   1.908 -0.7615 -0.5697  0.3281
  990SOL    MW4 4015   0.707   0.491   1.946 -0.4762  0.5621  0.0134
  991SOL     OW 4016   0.746   0.778   1.905 -0.0040  0.2304 -0.4882
  991SOL    HW2 4017   0.821   0.813   1.953 -0.2771 -0.3275  0.3380
  991SOL    HW3 4018   0.742   0.686   1.929 -0.0717 -0.0835 -1.6754
  991SOL    MW4 4019   0.755   0.771   1.914 -0.0491  0.1154 -0.5358
  992SOL     OW 4020   0.492   0.840   1.981  0.0798 -0.4387  0.1051
  992SOL    HW2 4021   0.474   0.929   1.951 -1.2397 -0.7905 -0.1980
  992SOL    HW3 4022   0.581   0.821   1.951  1.2241  1.5784  2.1186
  992SOL    MW4 4023   0.501   0.849   1.973  0.0567 -0.2190  0.3308
  993SOL     OW 4024   0.423   1.093   1.886  0.2146 -0.2577  0.0285
  993SOL    HW2 4025   0.341   1.134   1.913  1.5524  1.3174  1.8243
  993SOL    HW3 4026   0.423   1.099   1.791 -2.0505 -0.9107 -0.0379
  993SOL    MW4 4027   0.412   1.099   1.877  0.0922 -0.1360  0.2568
  994SOL     OW 4028   0.676   1.226   1.973 -0.2130  0.4728 -0.0407
  994SOL    HW2 4029   0.666   1.227   2.068 -0.0819  0.1007 -0.0186
  994SOL    HW3 4030   0.598   1.178   1.942 -0.2712  0.6212 -0.1217
  994SOL    MW4 4031   0.664   1.220   1.982 -0.2033  0.4433 -0.0483
  995SOL     OW 4032   0.678   1.512   1.918 -0.2004  0.2997  0.0815
  995SOL    HW2 4033   0.680   1.417   1.932  0.2222  0.3425  0.3203
  995SOL    HW3 4034   0.705   1.524   1.827 -1.6412  0.1039 -0.3872
  995SOL    MW4 4035   0.682   1.501   1.908 -0.3348  0.2794  0.0511
  996SOL     OW 4036   0.441   1.642   1.989  0.1308  0.1830 -0.8094
  996SOL    HW2 4037   0.442   1.666   2.081 -1.6590  0.4398 -0.8491
  996SOL    HW3 4038   0.519   1.588   1.978  0.5947  0.5126  0.7481
  996SOL    MW4 4039   0.452   1.638   1.999 -0.0441  0.2602 -0.6093
  997SOL     OW 4040   0.436   1.898   1.902 -0.0229 -0.2391 -0.1076
  997SOL    HW2 4041   0.442   1.807   1.931  0.1471 -0.1614  0.0996
  997SOL    HW3 4042   0.369   1.937   1.957  0.6411  0.0360  0.5163
  997SOL    MW4 4043   0.428   1.891   1.913  0.0872 -0.1925  0.0018
  998SOL     OW 4044   0.670   2.046   1.970  0.1033  0.1823 -0.4379
  998SOL    HW2 4045   0.667   2.029   2.064 -1.1208  0.6748 -0.3790
  998SOL    HW3 4046   0.608   1.984   1.932  1.4318 -0.8087 -1.0630
  998SOL    MW4 4047   0.662   2.036   1.977  0.1171  0.1163 -0.5126
  999SOL     OW 4048   0.702   2.324   1.890 -0.6415  0.0724 -0.1028
  999SOL    HW2 4049   0.686   2.233   1.917 -0.0613  0.2163  0.7333
  999SOL    HW3 4050   0.691   2.323   1.795  0.7108 -1.1583 -0.2528
  999SOL    MW4 4051   0.698   2.312   1.881 -0.3865 -0.0713 -0.0124
 1000SOL     OW 4052   0.455   2.464   1.980 -0.4382  0.3104 -0.5302
 1000SOL    HW2 4053   0.461   2.463   2.076 -0.1912 -0.0993 -0.5468
 1000SOL    HW3 4054   0.531   2.414   1.951  0.8082  2.4074 -1.0051
 1000SOL    MW4 4055   0.466   2.457   1.989 -0.2411  0.5333 -0.5950
 1001SOL     OW 4056   0.462   2.732   1.909  0.2145 -0.1761 -0.0169
 1001SOL    HW2 4057   0.452   2.641   1.939  0.1976  0.0134  0.5526
 1001SOL    HW3 4058   0.384   2.777   1.943  1.1276  0.4591  1.2273
 1001SOL    MW4 4059   0.450   2.726   1.917  0.3328 -0.0672  0.2223
 1002SOL     OW 4060   0.708   2.843   2.003  0.4666 -0.1151 -0.0953
 1002SOL    HW2 4061   0.704   2.845   2.098  0.8133  0.6963 -0.0946
 1002SOL    HW3 4062   0.632   2.791   1.977  1.2505 -1.6841  0.6807
 1002SOL    MW4 4063   0.698   2.836   2.012  0.6158 -0.2151  0.0076
 1003SOL     OW 4064   0.709   3.116   1.902 -0.2328 -0.0455 -0.3325
 1003SOL    HW2 4065   0.709   3.024   1.931 -0.3723  0.1506  0.2913
 1003SOL    HW3 4066   0.711   3.110   1.807 -0.9699 -0.7134 -0.3174
 1003SOL    MW4 4067   0.709   3.103   1.893 -0.3484 -0.1075 -0.2482
 1004SOL     OW 4068   0.460   3.191   1.998 -0.1047 -0.1488  0.6601
 1004SOL    HW2 4069   0.453   3.282   1.968  1.5713 -0.0357  0.5354
 1004SOL    HW3 4070   0.539   3.158   1.955 -1.1635 -1.9292  0.0594
 1004SOL    MW4 4071   0.469   3.199   1.988 -0.0233 -0.3686  0.5643
 1005SOL     OW 4072   0.444   3.450   1.892  0.1565  0.4550  0.0312
 1005SOL    HW2 4073   0.523   3.492   1.929  1.0902  0.0054 -1.4342
 1005SOL    HW3 4074   0.451   3.465   1.798 -1.8778  0.9963 -0.0517
 1005SOL    MW4 4075   0.456   3.458   1.885  0.0112  0.4668 -0.1731
 1006SOL     OW 4076   0.640   3.629   1.988  0.2918  0.1418  0.1959
 1006SOL    HW2 4077   0.713   3.588   1.941 -0.5123 -0.7667 -0.2556
 1006SOL    HW3 4078   0.634   3.716   1.948  0.5115 -0.1218 -0.4336
 1006SOL    MW4 4079   0.649   3.635   1.976  0.2146 -0.0129  0.0534
 1007SOL     OW 4080   0.611   3.892   1.895  0.2211 -0.2258  0.4151
 1007SOL    HW2 4081   0.691   3.934   1.925  0.6410 -0.4899 -0.3187
 1007SOL    HW3 4082   0.618   3.893   1.799 -0.2924 -0.9452  0.3653
 1007SOL    MW4 4083   0.622   3.898   1.886  0.2088 -0.3555  0.3116
 1008SOL     OW 4084   0.403   4.011   2.000 -0.2530 -0.1603  0.2753
 1008SOL    HW2 4085   0.408   4.105   1.982 -1.8934 -0.1911 -0.3942
 1008SOL    HW3 4086   0.488   3.977   1.971 -0.0491  0.9454 -0.4559
 1008SOL    MW4 4087   0.415   4.019   1.994 -0.4425 -0.0186  0.0905
 1009SOL     OW 4088   0.448   4.287   1.914  0.4251  0.2259 -0.0719
 1009SOL    HW2 4089   0.368   4.335   1.935  0.1000 -1.1130  1.9865
 1009SOL    HW3 4090   0.442   4.268   1.821 -1.3005  0.8017 -0.0889
 1009SOL    MW4 4091   0.437   4.291   1.905  0.1546  0.1254  0.1975
 1010SOL     OW 4092   0.690   4.405   1.992  0.2240  0.3232 -0.1027
 1010SOL    HW2 4093   0.763   4.354   1.956 -0.5268  0.7448 -2.2454
 1010SOL    HW3 4094   0.612   4.355   1.968 -0.2088 -0.5847  2.9318
 1010SOL    MW4 4095   0.689   4.392   1.984  0.0678  0.2589  0.0150
 1011SOL     OW 4096   1.105   4.630   1.919  0.4376 -0.0218 -0.0984
 1011SOL    HW2 4097   1.186   4.662   1.958 -0.6193 -0.1148  2.2930
 1011SOL    HW3 4098   1.098   4.539   1.949 -1.5053  0.5765  1.3728
 1011SOL    MW4 4099   1.115   4.622   1.928  0.0417  0.0453  0.4114
 1012SOL     OW 4100   0.915   0.120   2.030 -0.3975 -0.4064 -0.2301
 1012SOL    HW2 4101   0.983   0.085   1.972 -1.4516  0.0843 -1.8071
 1012SOL    HW3 4102   0.833   0.090   1.991 -1.1109 -0.5304  1.3432
 1012SOL    MW4 4103   0.913   0.111   2.017 -0.6306 -0.3580 -0.2308
 1013SOL     OW 4104   0.931   0.364   1.871 -0.5030  0.4677 -0.1022
 1013SOL    HW2 4105   0.996   0.421   1.912 -0.1403  0.9736 -1.3594
 1013SOL    HW3 4106   0.938   0.282   1.919 -0.2117  1.1052  0.9615
 1013SOL    MW4 4107   0.941   0.361   1.883 -0.4167  0.6185 -0.1278
 1014SOL     OW 4108   1.150   0.497   1.971 -0.0723  0.0517  0.2102
 1014SOL    HW2 4109   1.234   0.458   1.946 -0.3657  0.3602 -1.2978
 1014SOL    HW3 4110   1.158   0.589   1.948 -1.2550 -0.1535 -1.1524
 1014SOL    MW4 4111   1.162   0.504   1.964 -0.2669  0.0653 -0.1687
 1015SOL     OW 4112   1.138   0.746   1.891  0.5704 -0.1010  0.1662
 1015SOL    HW2 4113   1.209   0.791   1.936  3.0160 -2.6444 -0.9891
 1015SOL    HW3 4114   1.060   0.770   1.939  1.9739  3.9909  0.5906
 1015SOL    MW4 4115   1.137   0.755   1.903  1.0781  0.1033  0.0700
 1016SOL     OW 4116   0.954   0.885   2.034  0.0686 -0.3105 -0.2163
 1016SOL    HW2 4117   0.943   0.892   2.129 -0.6904  0.1054 -0.3326
 1016SOL    HW3 4118   0.965   0.975   2.004  0.6879 -0.4728 -0.4835
 1016SOL    MW4 4119   0.954   0.898   2.043  0.0501 -0.2770 -0.2668
 1017SOL     OW 4120   0.941   1.144   1.898  0.5400 -0.1363  0.2060
 1017SOL    HW2 4121   0.855   1.171   1.929  0.8589  0.4247  0.6186
 1017SOL    HW3 4122   0.939   1.161   1.804  0.7861  1.5150  0.4769
 1017SOL    MW4 4123   0.930   1.150   1.890  0.6145  0.1556  0.2961
 1018SOL     OW 4124   1.162   1.283   1.997  0.1723  0.2923 -0.5065
 1018SOL    HW2 4125   1.164   1.369   1.954  0.1708 -0.0642 -1.2261
 1018SOL    HW3 4126   1.087   1.239   1.959 -0.1288  0.1594  0.2386
 1018SOL    MW4 4127   1.153   1.289   1.986  0.1324  0.2277 -0.5031
 1019SOL     OW 4128   1.104   1.526   1.897  0.0990  0.4689  0.1091
 1019SOL    HW2 4129   1.022   1.565   1.927 -0.0575 -1.0935  1.8914
 1019SOL    HW3 4130   1.106   1.542   1.803 -1.0192  2.7343  0.4416
 1019SOL    MW4 4131   1.093   1.533   1.889 -0.0691  0.5617  0.3881
 1020SOL     OW 4132   0.897   1.674   2.029  0.0287  0.0218 -0.2775
 1020SOL    HW2 4133   0.899   1.754   1.977 -1.2259  1.7678  2.2218
 1020SOL    HW3 4134   0.813   1.633   2.006 -0.4009  0.6479  0.1585
 1020SOL    MW4 4135   0.886   1.679   2.019 -0.1935  0.3347  0.1099
 1021SOL     OW 4136   0.924   1.910   1.877 -0.2218 -0.3345 -0.2179
 1021SOL    HW2 4137   0.842   1.943   1.914  0.2559  0.8270 -0.1805
 1021SOL    HW3 4138   0.921   1.938   1.785 -0.5022 -1.5054 -0.5781
 1021SOL    MW4 4139   0.913   1.918   1.869 -0.1958 -0.3358 -0.2604
 1022SOL     OW 4140   1.153   2.043   1.989 -0.1693  0.2265  0.5101
 1022SOL    HW2 4141   1.159   2.135   1.961 -0.6442 -0.6247 -2.6695
 1022SOL    HW3 4142   1.078   2.009   1.941  1.8737 -2.6053 -0.7960
 1022SOL    MW4 4143   1.144   2.051   1.979  0.0374 -0.2596 -0.0817
 1023SOL     OW 4144   1.132   2.305   1.887  0.1723  0.1634  0.1722
 1023SOL    HW2 4145   1.204   2.367   1.902  2.2422 -2.1882  0.3919
 1023SOL    HW3 4146   1.141   2.279   1.796  0.7276 -1.4364  0.6516
 1023SOL    MW4 4147   1.143   2.309   1.877  0.5187 -0.3583  0.2644
 1024SOL     OW 4148   0.926   2.459   1.982 -0.2074 -0.0030  0.4381
 1024SOL    HW2 4149   0.996   2.402   1.951 -0.3509  0.4483 -0.7509
 1024SOL    HW3 4150   0.846   2.412   1.959 -0.3081  0.0387  0.7054
 1024SOL    MW4 4151   0.925   2.445   1.975 -0.2396  0.0622  0.3165
 1025SOL     OW 4152   0.905   2.725   1.856 -0.2067 -0.5294 -0.0423
 1025SOL    HW2 4153   0.894   2.636   1.890  1.2001 -0.1958  1.3419
 1025SOL    HW3 4154   0.838   2.775   1.902 -0.2647 -0.6617  0.0200
 1025SOL    MW4 4155   0.895   2.720   1.867 -0.0287 -0.5031  0.1487
 1026SOL     OW 4156   1.094   2.872   1.989  0.1261  0.1429 -0.1631
 1026SOL    HW2 4157   1.084   2.854   2.082 -0.6915  0.9275 -0.0868
 1026SOL    HW3 4158   1.019   2.830   1.948  0.1786  0.2748 -0.3975
 1026SOL    MW4 4159   1.083   2.864   1.996  0.0252  0.2642 -0.1837
 1027SOL     OW 4160   1.157   3.134   1.880  0.3332 -0.4190 -0.0841
 1027SOL    HW2 4161   1.086   3.186   1.918  0.0631 -0.1037 -1.0107
 1027SOL    HW3 4162   1.139   3.045   1.909  0.3354 -0.1270  0.8333
 1027SOL    MW4 4163   1.145   3.129   1.889  0.2979 -0.3390 -0.0852
 1028SOL     OW 4164   0.920   3.275   1.991 -0.8214  0.0953 -0.0243
 1028SOL    HW2 4165   0.915   3.269   2.086 -0.4717 -0.9155 -0.0631
 1028SOL    HW3 4166   0.844   3.225   1.960 -0.4761 -0.2733 -0.2843
 1028SOL    MW4 4167   0.909   3.267   1.999 -0.7297 -0.0865 -0.0637
 1029SOL     OW 4168   0.876   3.523   1.881 -0.1563  0.1428 -0.2890
 1029SOL    HW2 4169   0.906   3.442   1.922  0.2901  0.4034 -0.0975
 1029SOL    HW3 4170   0.884   3.507   1.787  0.9399  0.3439 -0.2319
 1029SOL    MW4 4171   0.881   3.511   1.874  0.0473  0.2036 -0.2563
 1030SOL     OW 4172   1.102   3.667   1.981 -0.3935 -0.4538 -0.7871
 1030SOL    HW2 4173   1.110   3.636   2.071  0.6122  0.2760 -0.6164
 1030SOL    HW3 4174   1.024   3.622   1.947 -0.0778 -1.6727  0.0550
 1030SOL    MW4 4175   1.093   3.657   1.988 -0.2192 -0.5186 -0.6534
 1031SOL     OW 4176   1.128   3.913   1.877 -0.4053  0.2262  0.6842
 1031SOL    HW2 4177   1.120   3.826   1.914 -0.2832  0.0759  0.3573
 1031SOL    HW3 4178   1.114   3.901   1.783  0.3366  0.4481  0.5419
 1031SOL    MW4 4179   1.125   3.900   1.870 -0.2913  0.2356  0.6223
 1032SOL     OW 4180   0.874   3.992   1.943  0.0379  0.2090  0.3861
 1032SOL    HW2 4181   0.879   3.984   2.038  0.0327  0.4675  0.4093
 1032SOL    HW3 4182   0.960   3.963   1.912 -0.3926 -1.0611  0.3849
 1032SOL    MW4 4183   0.886   3.987   1.951 -0.0196  0.0756  0.3889
 1033SOL     OW 4184   0.897   4.252   1.887  0.3526 -0.2707 -0.1777
 1033SOL    HW2 4185   0.984   4.277   1.919  0.4158  0.3207 -0.7780
 1033SOL    HW3 4186   0.890   4.159   1.907  0.5663 -0.0167  1.1123
 1033SOL    MW4 4187   0.908   4.243   1.894  0.3892 -0.1597 -0.0867
 1034SOL     OW 4188   1.102   4.369   2.006 -0.1373 -0.3691  0.4455
 1034SOL    HW2 4189   1.110   4.390   2.100 -0.8645  0.9859  0.2196
 1034SOL    HW3 4190   1.187   4.331   1.983  0.3219 -0.0100  1.4874
 1034SOL    MW4 4191   1.114   4.367   2.016 -0.1727 -0.1426  0.5531
 1035SOL     OW 4192   1.575   0.000   1.883 -0.0236  0.2487 -0.0735
 1035SOL    HW2 4193   1.633   0.050   1.940 -0.1855  0.0174  0.2947
 1035SOL    HW3 4194   1.575  -0.088   1.919 -0.6940  0.2745 -0.0052
 1035SOL    MW4 4195   1.583  -0.005   1.895 -0.1334  0.2217 -0.0160
 1036SOL     OW 4196   1.339   0.102   1.987 -0.1579  0.3681 -0.1091
 1036SOL    HW2 4197   1.356   0.107   2.081 -1.7502  0.6068  0.1751
 1036SOL    HW3 4198   1.414   0.054   1.952 -0.1030 -0.7273  1.4467
 1036SOL    MW4 4199   1.351   0.096   1.995 -0.3608  0.2551  0.1336
 1037SOL     OW 4200   1.398   0.372   1.900  0.0198  0.2193 -0.4710
 1037SOL    HW2 4201   1.389   0.278   1.916 -0.1933  0.2060 -0.6777
 1037SOL    HW3 4202   1.381   0.383   1.806  1.4198  0.2746 -0.7357
 1037SOL    MW4 4203   1.395   0.361   1.890  0.1764  0.2249 -0.5332
 1038SOL     OW 4204   1.608   0.509   2.020 -0.3339  0.5647  0.1277
 1038SOL    HW2 4205   1.689   0.471   1.986  0.2327  2.0378 -0.2003
 1038SOL    HW3 4206   1.539   0.457   1.979  0.4394 -1.2439  1.0662
 1038SOL    MW4 4207   1.610   0.497   2.010 -0.1571  0.5204  0.2081
 1039SOL     OW 4208   1.586   0.725   1.877  1.0139 -0.4155 -0.0883
 1039SOL    HW2 4209   1.658   0.786   1.893  0.6399 -0.4306  1.7045
 1039SOL    HW3 4210   1.613   0.644   1.918 -0.6078 -0.0199  1.8221
 1039SOL    MW4 4211   1.599   0.723   1.884  0.7505 -0.3653  0.4002
 1040SOL     OW 4212   1.366   0.863   2.013  0.4294 -1.2083  0.2438
 1040SOL    HW2 4213   1.390   0.877   2.104  1.1048 -1.7206  0.1383
 1040SOL    HW3 4214   1.439   0.815   1.975  1.6339  1.7590 -1.3686
 1040SOL    MW4 4215   1.379   0.859   2.020  0.6773 -0.8844  0.0172
 1041SOL     OW 4216   1.364   1.123   1.913  0.3874  0.1760  0.4498
 1041SOL    HW2 4217   1.362   1.039   1.958  1.6993  0.9827  2.0677
 1041SOL    HW3 4218   1.289   1.172   1.947 -0.0883 -0.1453 -0.1269
 1041SOL    MW4 4219   1.354   1.119   1.923  0.4976  0.2401  0.5872
 1042SOL     OW 4220   1.580   1.255   2.035 -0.0156 -0.0945 -0.1351
 1042SOL    HW2 4221   1.572   1.330   1.976  0.4952 -0.6033 -0.8570
 1042SOL    HW3 4222   1.515   1.193   2.005 -0.6786  0.1927  0.6807
 1042SOL    MW4 4223   1.571   1.257   2.024 -0.0356 -0.1237 -0.1225
 1043SOL     OW 4224   1.560   1.499   1.893 -0.1210  0.1011  0.2344
 1043SOL    HW2 4225   1.629   1.546   1.939 -0.7069  1.9232 -0.7296
 1043SOL    HW3 4226   1.480   1.544   1.917 -0.7690 -0.7690 -0.2534
 1043SOL    MW4 4227   1.559   1.511   1.903 -0.2837  0.2267  0.0429
 1044SOL     OW 4228   1.335   1.652   1.970  0.3736 -0.2323  0.0131
 1044SOL    HW2 4229   1.340   1.672   2.064  0.5472  2.2536 -0.4734
 1044SOL    HW3 4230   1.247   1.619   1.957 -0.4477  1.5968  0.6987
 1044SOL    MW4 4231   1.324   1.651   1.981  0.2880  0.3370  0.0395
 1045SOL     OW 4232   1.378   1.907   1.880 -0.1095 -0.2166 -0.0945
 1045SOL    HW2 4233   1.378   1.815   1.909  0.0075 -0.5644 -1.1940
 1045SOL    HW3 4234   1.298   1.943   1.917 -0.4026 -0.8896 -0.0574
 1045SOL    MW4 4235   1.367   1.899   1.889 -0.1328 -0.3513 -0.2347
 1046SOL     OW 4236   1.579   2.059   2.005  0.2223 -0.0941 -0.2237
 1046SOL    HW2 4237   1.578   2.146   1.966  0.6700 -0.7488 -1.7247
 1046SOL    HW3 4238   1.498   2.018   1.975 -0.9515  0.4588  2.0604
 1046SOL    MW4 4239   1.568   2.065   1.996  0.1265 -0.1075 -0.1204
 1047SOL     OW 4240   1.562   2.314   1.892 -0.1043  0.2213  0.3844
 1047SOL    HW2 4241   1.635   2.368   1.920 -0.8261  1.5417 -0.2323
 1047SOL    HW3 4242   1.565   2.319   1.796  0.2121 -1.3683  0.2976
 1047SOL    MW4 4243   1.572   2.322   1.883 -0.1577  0.1857  0.2916
 1048SOL     OW 4244   1.339   2.767   1.930 -0.3596 -0.1767 -0.2754
 1048SOL    HW2 4245   1.256   2.804   1.960 -0.0954  0.2090 -0.0147
 1048SOL    HW3 4246   1.334   2.675   1.956  0.6202  0.5328  2.6390
 1048SOL    MW4 4247   1.327   2.760   1.937 -0.1954 -0.0319  0.1435
 1049SOL     OW 4248   1.321   2.750   1.639 -0.4003 -0.4763 -0.2691
 1049SOL    HW2 4249   1.327   2.755   1.735  1.7383 -0.2432 -0.3861
 1049SOL    HW3 4250   1.229   2.768   1.620 -0.9829 -1.0699  1.7750
 1049SOL    MW4 4251   1.310   2.753   1.649 -0.1950 -0.5238 -0.0149
 1050SOL     OW 4252   1.578   2.880   2.014  0.0631 -0.0553  0.2178
 1050SOL    HW2 4253   1.647   2.824   1.977 -0.5487 -0.2901 -0.5811
 1050SOL    HW3 4254   1.496   2.840   1.983 -0.4600 -0.1691  1.7045
 1050SOL    MW4 4255   1.576   2.867   2.005 -0.0865 -0.1013  0.3083
 1051SOL     OW 4256   1.583   3.133   1.896  0.0259 -0.0634  0.7877
 1051SOL    HW2 4257   1.582   3.048   1.939 -1.8206 -0.2701  0.4134
 1051SOL    HW3 4258   1.589   3.114   1.803  1.5360  0.2999  0.7944
 1051SOL    MW4 4259   1.583   3.119   1.890 -0.0186 -0.0427  0.7393
 1052SOL     OW 4260   1.375   3.280   1.997 -0.0730 -0.2973 -0.6760
 1052SOL    HW2 4261   1.454   3.237   1.962 -0.7556 -2.4036  0.2804
 1052SOL    HW3 4262   1.304   3.220   1.975 -0.9374 -0.0979  1.5014
 1052SOL    MW4 4263   1.376   3.266   1.989 -0.2770 -0.5493 -0.2625
 1053SOL     OW 4264   1.336   3.499   1.856  0.3730 -0.4007 -0.1817
 1053SOL    HW2 4265   1.344   3.418   1.906  1.8790  0.0653  0.3726
 1053SOL    HW3 4266   1.267   3.548   1.901  0.0009 -1.0396 -0.0527
 1053SOL    MW4 4267   1.328   3.495   1.869  0.5226 -0.4237 -0.0914
 1054SOL     OW 4268   1.558   3.634   1.977 -0.1284  0.0275 -0.1212
 1054SOL    HW2 4269   1.559   3.635   2.073 -0.7690  1.3031 -0.1291
 1054SOL    HW3 4270   1.483   3.579   1.954  0.3168 -0.6777  0.1086
 1054SOL    MW4 4271   1.548   3.627   1.987 -0.1541  0.1028 -0.0919
 1055SOL     OW 4272   1.575   3.891   1.860 -0.1234 -0.4682 -0.2013
 1055SOL    HW2 4273   1.657   3.923   1.897  0.4313 -0.7055 -1.2230
 1055SOL    HW3 4274   1.575   3.798   1.880 -1.6875  0.0790  2.6772
 1055SOL    MW4 4275   1.586   3.883   1.868 -0.2567 -0.4275  0.0437
 1056SOL     OW 4276   1.360   3.971   2.015  0.3077  0.0279 -0.2554
 1056SOL    HW2 4277   1.433   3.950   1.956  0.3547  0.0384 -0.2004
 1056SOL    HW3 4278   1.283   3.933   1.971  0.2903  0.3465 -0.4986
 1056SOL    MW4 4279   1.359   3.963   2.001  0.3116  0.0715 -0.2804
 1057SOL     OW 4280   1.329   4.251   1.901 -0.4637 -0.1314 -0.3182
 1057SOL    HW2 4281   1.354   4.165   1.934 -2.0439 -0.4151  0.1764
 1057SOL    HW3 4282   1.344   4.245   1.806 -0.3459 -0.8598 -0.2573
 1057SOL    MW4 4283   1.335   4.239   1.893 -0.6566 -0.2656 -0.2450
 1058SOL     OW 4284   1.577   4.405   1.974 -0.3071  0.1519  0.2183
 1058SOL    HW2 4285   1.582   4.416   2.069  2.3257 -3.2581  0.6012
 1058SOL    HW3 4286   1.498   4.354   1.959  0.2230 -0.8490  0.7902
 1058SOL    MW4 4287   1.567   4.400   1.985  0.1103 -0.4301  0.3442
 1059SOL     OW 4288   1.972   4.641   1.905 -0.5699  0.0755 -0.5168
 1059SOL    HW2 4289   2.050   4.693   1.925 -1.1858  0.6823  0.3198
 1059SOL    HW3 4290   1.995   4.552   1.932  0.6492 -0.1975 -2.3498
 1059SOL    MW4 4291   1.985   4.636   1.911 -0.4904  0.1192 -0.6483
 1060SOL     OW 4292   1.767   0.132   2.022 -0.3819 -0.3077  0.3883
 1060SOL    HW2 4293   1.773   0.105   2.114  0.0526  0.3204  0.5475
 1060SOL    HW3 4294   1.832   0.078   1.977 -0.7058 -0.7275  0.4254
 1060SOL    MW4 4295   1.776   0.121   2.028 -0.3674 -0.2802  0.4141
 1061SOL     OW 4296   1.811   0.384   1.898 -0.5149 -0.1791 -0.1837
 1061SOL    HW2 4297   1.787   0.302   1.942 -0.3081 -0.3222 -0.3367
 1061SOL    HW3 4298   1.795   0.368   1.805 -0.2609 -0.1232 -0.2381
 1061SOL    MW4 4299   1.806   0.371   1.892 -0.4541 -0.1906 -0.2111
 1062SOL     OW 4300   2.052   0.497   2.015 -0.1364  0.0641  0.1341
 1062SOL    HW2 4301   2.059   0.584   1.975  0.1011 -0.1967 -0.3985
 1062SOL    HW3 4302   1.978   0.457   1.970  0.8076 -0.6351 -0.8269
 1062SOL    MW4 4303   2.043   0.503   2.003  0.0193 -0.0626 -0.0629
 1063SOL     OW 4304   2.048   0.737   1.896 -0.2552  0.4576 -0.2946
 1063SOL    HW2 4305   2.132   0.781   1.907  0.3060 -0.8261  0.7553
 1063SOL    HW3 4306   2.032   0.737   1.802  1.0891  0.4083 -0.5246
 1063SOL    MW4 4307   2.057   0.743   1.885 -0.0036  0.2816 -0.1863
 1064SOL     OW 4308   1.807   0.871   1.981  0.1877  0.1390  0.6277
 1064SOL    HW2 4309   1.823   0.965   1.972  0.2247 -0.0163 -1.1206
 1064SOL    HW3 4310   1.895   0.832   1.979  0.1150 -0.0098  0.3227
 1064SOL    MW4 4311   1.821   0.878   1.980  0.1830  0.0989  0.3568
 1065SOL     OW 4312   1.847   1.152   1.967 -0.0305  0.0119  0.2698
 1065SOL    HW2 4313   1.759   1.181   1.991  0.0451  0.8121 -0.3879
 1065SOL    HW3 4314   1.841   1.133   1.873  0.5103  0.1126  0.2126
 1065SOL    MW4 4315   1.835   1.153   1.957  0.0508  0.1309  0.1755
 1066SOL     OW 4316   2.061   1.311   1.978 -0.3760  0.3897 -0.0639
 1066SOL    HW2 4317   2.140   1.266   1.948 -0.5232  0.8103 -1.0772
 1066SOL    HW3 4318   1.990   1.249   1.960 -0.2989  0.0511  0.7580
 1066SOL    MW4 4319   2.062   1.297   1.972 -0.3850  0.4003 -0.0893
 1067SOL     OW 4320   2.017   1.557   1.895  0.4501  0.2062  0.2645
 1067SOL    HW2 4321   2.022   1.466   1.923 -0.4217  0.2527  0.5829
 1067SOL    HW3 4322   2.025   1.553   1.800 -1.7125 -0.4040  0.0698
 1067SOL    MW4 4323   2.018   1.545   1.887  0.0496  0.1318  0.2807
 1068SOL     OW 4324   1.773   1.635   2.013 -0.0187  0.0305  0.0210
 1068SOL    HW2 4325   1.759   1.717   1.966 -0.5917 -0.7046 -1.1217
 1068SOL    HW3 4326   1.863   1.611   1.993  0.5691  1.0227  1.4030
 1068SOL    MW4 4327   1.783   1.643   2.004 -0.0166  0.0643  0.0529
 1069SOL     OW 4328   1.795   1.902   1.881 -0.1576  0.2125 -0.0177
 1069SOL    HW2 4329   1.720   1.955   1.906  0.1058  0.5969 -0.0395
 1069SOL    HW3 4330   1.805   1.916   1.787 -0.3748 -0.2416 -0.1080
 1069SOL    MW4 4331   1.787   1.911   1.872 -0.1515  0.2035 -0.0324
 1070SOL     OW 4332   2.011   2.026   1.987  0.1978 -0.2993  0.3245
 1070SOL    HW2 4333   2.086   1.986   1.944  0.1483  1.6784 -1.7038
 1070SOL    HW3 4334   1.935   1.983   1.948  0.1783  0.9640 -1.1096
 1070SOL    MW4 4335   2.011   2.015   1.976  0.1888  0.1283 -0.1323
 1071SOL     OW 4336   2.021   2.317   1.908  0.3416 -0.1563  0.3745
 1071SOL    HW2 4337   2.102   2.364   1.929  0.1391  0.0478  0.7015
 1071SOL    HW3 4338   2.035   2.229   1.942  0.9201 -0.4817 -0.6844
 1071SOL    MW4 4339   2.034   2.312   1.915  0.3912 -0.1724  0.2780
 1072SOL     OW 4340   1.769   2.447   1.993 -0.4171 -0.1158  0.2380
 1072SOL    HW2 4341   1.775   2.448   2.089 -1.7053 -0.0581  0.3221
 1072SOL    HW3 4342   1.852   2.409   1.965 -0.4624 -1.1381  1.4254
 1072SOL    MW4 4343   1.781   2.442   2.002 -0.5931 -0.2432  0.4058
 1073SOL     OW 4344   1.770   2.709   1.882  0.2170 -0.1841  0.2628
 1073SOL    HW2 4345   1.754   2.619   1.911  1.7537 -0.1856  1.1248
 1073SOL    HW3 4346   1.787   2.701   1.788  0.1510 -0.7716  0.2979
 1073SOL    MW4 4347   1.770   2.696   1.874  0.4110 -0.2618  0.3812
 1074SOL     OW 4348   1.977   2.854   2.003  0.5666  0.1749  0.0548
 1074SOL    HW2 4349   1.982   2.854   2.099  0.8226  1.5116  0.0542
 1074SOL    HW3 4350   1.897   2.805   1.983  0.6448 -0.3356  0.9380
 1074SOL    MW4 4351   1.967   2.847   2.013  0.6107  0.2840  0.1714
 1075SOL     OW 4352   2.041   3.086   1.884 -0.0195  0.3674 -0.1022
 1075SOL    HW2 4353   1.980   3.145   1.928 -0.6451  0.0360 -0.5151
 1075SOL    HW3 4354   2.021   3.000   1.921 -0.2418  0.1592 -0.7047
 1075SOL    MW4 4355   2.030   3.083   1.895 -0.1314  0.2961 -0.2363
 1076SOL     OW 4356   1.834   3.225   2.003 -0.1873 -0.0144  0.0892
 1076SOL    HW2 4357   1.826   3.235   2.098  0.1633  0.7600  0.0436
 1076SOL    HW3 4358   1.752   3.185   1.975 -0.7047  0.6850  0.5976
 1076SOL    MW4 4359   1.822   3.221   2.012 -0.2095  0.1800  0.1507
 1077SOL     OW 4360   1.807   3.515   1.937  0.2820 -0.1387 -0.4513
 1077SOL    HW2 4361   1.810   3.422   1.962 -1.2698  0.2481  1.2547
 1077SOL    HW3 4362   1.717   3.542   1.955  0.8599  1.8307 -0.4426
 1077SOL    MW4 4363   1.796   3.506   1.943  0.1537  0.1719 -0.2252
 1078SOL     OW 4364   2.051   3.598   1.968 -0.2466 -0.7340  0.3728
 1078SOL    HW2 4365   2.050   3.685   1.928  1.1904 -0.3611  1.1021
 1078SOL    HW3 4366   1.963   3.564   1.954 -0.5386  0.4521 -0.7690
 1078SOL    MW4 4367   2.039   3.605   1.961 -0.0958 -0.5283  0.3184
 1079SOL     OW 4368   2.013   3.869   1.882  0.2659  0.2519  0.1765
 1079SOL    HW2 4369   2.092   3.911   1.917  0.4311 -0.6516  0.8923
 1079SOL    HW3 4370   2.022   3.878   1.787  1.3754 -0.0843  0.2394
 1079SOL    MW4 4371   2.025   3.876   1.874  0.4342  0.0885  0.2793
 1080SOL     OW 4372   1.800   3.990   2.000  0.1533 -0.1518  0.1914
 1080SOL    HW2 4373   1.806   4.077   1.960 -0.2204 -0.9729 -1.6951
 1080SOL    HW3 4374   1.871   3.941   1.959 -1.3623 -1.5326 -0.7896
 1080SOL    MW4 4375   1.810   3.995   1.989 -0.0960 -0.4423 -0.1868
 1081SOL     OW 4376   1.803   4.258   1.902 -0.1337  0.1352  0.2969
 1081SOL    HW2 4377   1.724   4.309   1.921  0.3003  1.0867 -0.3649
 1081SOL    HW3 4378   1.808   4.257   1.806  0.6834  0.1442  0.3326
 1081SOL    MW4 4379   1.793   4.265   1.892  0.0314  0.2618  0.2143
 1082SOL     OW 4380   2.018   4.383   2.002  0.0448 -0.1040  0.4096
 1082SOL    HW2 4381   2.093   4.337   1.963  0.2183  0.0328  0.5767
 1082SOL    HW3 4382   1.942   4.330   1.979  0.3304 -0.8974  1.2691
 1082SOL    MW4 4383   2.018   4.370   1.994  0.1054 -0.1907  0.5450
 1083SOL     OW 4384   2.427   4.667   1.884  0.2411 -0.2702  0.3049
 1083SOL    HW2 4385   2.518   4.694   1.898  0.4730 -0.8733  0.0098
 1083SOL    HW3 4386   2.421   4.581   1.925  0.5369 -1.4061 -1.9132
 1083SOL    MW4 4387   2.438   4.659   1.891  0.3107 -0.4997 -0.0266
 1084SOL     OW 4388   2.216   0.128   1.977  0.1957 -0.2258  0.4560
 1084SOL    HW2 4389   2.242   0.147   2.067  2.3905 -0.3729 -0.1225
 1084SOL    HW3 4390   2.290   0.079   1.941 -0.5021  0.1753 -1.5512
 1084SOL    MW4 4391   2.229   0.124   1.984  0.3934 -0.1923  0.1148
 1085SOL     OW 4392   2.261   0.366   1.867  0.4522  0.0327  0.2408
 1085SOL    HW2 4393   2.249   0.277   1.900  0.0067 -0.3061 -0.8171
 1085SOL    HW3 4394   2.194   0.417   1.911  0.8110 -0.1145  0.9731
 1085SOL    MW4 4395   2.251   0.361   1.877  0.4411 -0.0314  0.1978
 1086SOL     OW 4396   2.490   0.518   1.932 -0.1668 -0.2361  0.3198
 1086SOL    HW2 4397   2.553   0.455   1.896  0.7458  0.9610 -0.2098
 1086SOL    HW3 4398   2.405   0.477   1.917  0.2992 -0.5604 -1.6640
 1086SOL    MW4 4399   2.487   0.504   1.925  0.0153 -0.1210 -0.0119
 1087SOL     OW 4400   2.496   0.786   1.851 -0.5247 -0.2649 -0.1145
 1087SOL    HW2 4401   2.489   0.696   1.881 -0.0171 -0.4508 -0.5505
 1087SOL    HW3 4402   2.483   0.782   1.757  0.0873  0.0384 -0.2187
 1087SOL    MW4 4403   2.493   0.774   1.843 -0.3769 -0.2494 -0.1857
 1088SOL     OW 4404   2.269   0.909   1.970  0.2846 -0.1173 -0.6030
 1088SOL    HW2 4405   2.274   0.884   2.062 -0.4477  0.5083 -0.3872
 1088SOL    HW3 4406   2.343   0.865   1.929 -1.1985 -3.0380 -0.3160
 1088SOL    MW4 4407   2.279   0.900   1.977 -0.0079 -0.4201 -0.5368
 1089SOL     OW 4408   2.286   1.173   1.893 -0.2368 -0.1607  0.4505
 1089SOL    HW2 4409   2.368   1.205   1.930 -0.0471  0.3078 -0.3621
 1089SOL    HW3 4410   2.279   1.083   1.925  0.5414 -0.1696  0.6043
 1089SOL    MW4 4411   2.296   1.165   1.902 -0.1092 -0.1000  0.3637
 1090SOL     OW 4412   2.522   1.268   2.004 -0.3249 -0.0661  0.2255
 1090SOL    HW2 4413   2.514   1.275   2.100  0.7329 -0.6202  0.3524
 1090SOL    HW3 4414   2.512   1.359   1.974 -0.5542  0.1309  0.8613
 1090SOL    MW4 4415   2.519   1.281   2.013 -0.2158 -0.1131  0.3262
 1091SOL     OW 4416   2.480   1.504   1.868 -0.4668 -0.1719 -0.3044
 1091SOL    HW2 4417   2.401   1.539   1.909 -1.0407 -0.0970 -1.4693
 1091SOL    HW3 4418   2.462   1.506   1.774  1.1856  0.4881 -0.6235
 1091SOL    MW4 4419   2.467   1.509   1.861 -0.3247 -0.0750 -0.5002
 1092SOL     OW 4420   2.268   1.640   2.013  0.8663  0.3039  0.2633
 1092SOL    HW2 4421   2.260   1.640   2.109 -0.0772  0.1690  0.1862
 1092SOL    HW3 4422   2.180   1.618   1.982  0.9269  1.3250 -0.6535
 1092SOL    MW4 4423   2.255   1.637   2.022  0.7496  0.4207  0.1321
 1093SOL     OW 4424   2.238   1.911   1.904 -0.3118  0.2533 -0.0429
 1093SOL    HW2 4425   2.303   1.974   1.934  0.4387  0.2828 -1.6659
 1093SOL    HW3 4426   2.256   1.832   1.954  0.7632  0.3745 -0.2278
 1093SOL    MW4 4427   2.249   1.909   1.914 -0.0708  0.2731 -0.2815
 1094SOL     OW 4428   2.443   2.085   1.993 -0.2468 -0.1435  0.0342
 1094SOL    HW2 4429   2.522   2.039   1.964 -0.4392 -0.0688 -0.6218
 1094SOL    HW3 4430   2.457   2.176   1.965 -0.5889 -0.1423 -0.1349
 1094SOL    MW4 4431   2.455   2.091   1.985 -0.3173 -0.1333 -0.0747
 1095SOL     OW 4432   2.499   2.369   1.913  0.0213 -0.3178  0.2593
 1095SOL    HW2 4433   2.571   2.423   1.944 -0.5441  0.0093  1.0378
 1095SOL    HW3 4434   2.420   2.413   1.945 -0.5042 -0.9092 -0.1930
 1095SOL    MW4 4435   2.498   2.382   1.921 -0.1225 -0.3526  0.3022
 1096SOL     OW 4436   2.241   2.466   1.981  0.3068  0.5076 -0.5554
 1096SOL    HW2 4437   2.208   2.461   2.071 -2.2164  1.5136 -1.3535
 1096SOL    HW3 4438   2.246   2.560   1.964  0.2667  0.3109 -1.6350
 1096SOL    MW4 4439   2.237   2.478   1.991 -0.0312  0.6142 -0.8031
 1097SOL     OW 4440   2.230   2.770   1.940  0.0299  0.1161 -0.0994
 1097SOL    HW2 4441   2.137   2.791   1.949 -0.1446 -0.4625 -0.5344
 1097SOL    HW3 4442   2.249   2.783   1.847  0.4351  0.4429  0.0290
 1097SOL    MW4 4443   2.221   2.774   1.929  0.0601  0.0825 -0.1398
 1098SOL     OW 4444   2.472   2.864   2.063  0.3221  0.1301  0.1144
 1098SOL    HW2 4445   2.478   2.948   2.017  1.6950 -0.0591 -0.0706
 1098SOL    HW3 4446   2.385   2.831   2.042  0.7103  0.3227 -1.8877
 1098SOL    MW4 4447   2.462   2.871   2.054  0.5546  0.1307 -0.1740
 1099SOL     OW 4448   2.475   3.096   1.894  0.1840 -0.2979  0.4436
 1099SOL    HW2 4449   2.401   3.143   1.931 -1.3377 -0.5974 -2.0831
 1099SOL    HW3 4450   2.464   3.105   1.799  2.2063 -2.1198 -0.0041
 1099SOL    MW4 4451   2.464   3.103   1.886  0.2499 -0.5779  0.0513
 1100SOL     OW 4452   2.252   3.216   2.001  0.3278  0.1745 -0.1152
 1100SOL    HW2 4453   2.233   3.221   2.095  3.0628 -1.9184  0.6315
 1100SOL    HW3 4454   2.186   3.156   1.966 -0.3001  0.4406  0.6114
 1100SOL    MW4 4455   2.241   3.209   2.009  0.6056 -0.0663  0.0792
 1101SOL     OW 4456   2.267   3.459   1.859 -0.4803  0.0556 -0.0305
 1101SOL    HW2 4457   2.252   3.370   1.890  0.2553  0.1206  0.4994
 1101SOL    HW3 4458   2.194   3.509   1.895  0.2363  0.0819  1.4019
 1101SOL    MW4 4459   2.255   3.454   1.867 -0.2890  0.0677  0.2284
 1102SOL     OW 4460   2.494   3.604   1.964 -0.2200  0.5783  0.5025
 1102SOL    HW2 4461   2.501   3.610   2.059 -1.4669  0.3789  0.6210
 1102SOL    HW3 4462   2.414   3.554   1.949  0.3492 -0.0089 -0.6508
 1102SOL    MW4 4463   2.484   3.598   1.974 -0.3095  0.4747  0.3660
 1103SOL     OW 4464   2.472   3.864   1.860 -0.0983  0.1384 -0.2997
 1103SOL    HW2 4465   2.401   3.908   1.907 -0.8547 -1.2705 -0.0931
 1103SOL    HW3 4466   2.484   3.782   1.908 -0.3647 -0.9827 -2.1110
 1103SOL    MW4 4467   2.464   3.859   1.873 -0.2332 -0.1957 -0.5113
 1104SOL     OW 4468   2.248   4.005   1.967 -0.3207  0.6671  0.3252
 1104SOL    HW2 4469   2.248   4.010   2.062  0.8919 -0.7131  0.4058
 1104SOL    HW3 4470   2.265   4.095   1.938  1.3222  0.7328  1.4337
 1104SOL    MW4 4471   2.250   4.018   1.976  0.0560  0.4935  0.4820
 1105SOL     OW 4472   2.245   4.271   1.878 -0.2677  0.1487  0.1489
 1105SOL    HW2 4473   2.304   4.336   1.916 -2.4386  1.6048  1.0937
 1105SOL    HW3 4474   2.239   4.295   1.786 -0.0564  0.4956  0.2254
 1105SOL    MW4 4475   2.252   4.282   1.871 -0.5262  0.3867  0.2836
 1106SOL     OW 4476   2.436   4.426   2.011 -0.1761 -0.3718  0.0796
 1106SOL    HW2 4477   2.428   4.410   2.105  1.1682  0.7025  0.3823
 1106SOL    HW3 4478   2.523   4.393   1.988 -0.5761 -0.8138 -0.8312
 1106SOL    MW4 4479   2.446   4.420   2.020 -0.0515 -0.2885 -0.0005
 1107SOL     OW 4480   2.878   4.631   1.882 -0.1047  0.0212  0.2908
 1107SOL    HW2 4481   2.957   4.675   1.915  0.1697 -1.0958  1.1524
 1107SOL    HW3 4482   2.896   4.538   1.896 -0.3840 -0.4199 -2.1248
 1107SOL    MW4 4483   2.891   4.625   1.888 -0.1051 -0.1841  0.0858
 1108SOL     OW 4484   2.680   0.094   1.980 -0.0139 -0.1846 -0.1097
 1108SOL    HW2 4485   2.693   0.111   2.073  0.5788 -0.4107 -0.1526
 1108SOL    HW3 4486   2.760   0.049   1.952  0.7070  1.7227 -1.1837
 1108SOL    MW4 4487   2.692   0.090   1.989  0.1593  0.0372 -0.2570
 1109SOL     OW 4488   2.708   0.340   1.878 -0.0501 -0.2045  0.8637
 1109SOL    HW2 4489   2.795   0.365   1.908  0.3090  0.8156 -0.9959
 1109SOL    HW3 4490   2.692   0.255   1.919 -0.0163  1.5386  4.7941
 1109SOL    MW4 4491   2.717   0.332   1.887  0.0019  0.1601  1.1368
 1110SOL     OW 4492   2.945   0.478   1.992 -0.6565  0.2366  0.3859
 1110SOL    HW2 4493   3.015   0.439   1.939  0.4769 -0.1267  2.1154
 1110SOL    HW3 4494   2.928   0.563   1.951  1.5910  0.8141  0.5998
 1110SOL    MW4 4495   2.952   0.484   1.979 -0.2105  0.2649  0.6424
 1111SOL     OW 4496   2.923   0.744   1.870  0.4915 -0.5663  0.2532
 1111SOL    HW2 4497   3.004   0.785   1.900  0.9446  0.2375 -2.0111
 1111SOL    HW3 4498   2.853   0.802   1.901  0.8564 -0.5415  1.0293
 1111SOL    MW4 4499   2.924   0.757   1.878  0.5994 -0.4569  0.0570
 1112SOL     OW 4500   2.730   0.888   1.996 -0.2376  0.2206  0.0789
 1112SOL    HW2 4501   2.728   0.980   1.970  0.3994 -0.0693 -1.0196
 1112SOL    HW3 4502   2.662   0.847   1.942  0.0742 -0.1144 -0.0589
 1112SOL    MW4 4503   2.720   0.895   1.986 -0.1125  0.1381 -0.0842
 1113SOL     OW 4504   2.744   1.142   1.909  0.2201 -0.0364  0.1283
 1113SOL    HW2 4505   2.663   1.187   1.932 -0.6248 -1.5980  0.3060
 1113SOL    HW3 4506   2.742   1.135   1.813  0.8041  1.1179  0.0282
 1113SOL    MW4 4507   2.733   1.147   1.899  0.1855 -0.0901  0.1385
 1114SOL     OW 4508   2.957   1.310   1.968  0.4975  0.1135 -0.4547
 1114SOL    HW2 4509   2.935   1.402   1.956  0.0918  0.6641  3.7944
 1114SOL    HW3 4510   2.877   1.262   1.946  0.4572  0.8024 -1.8490
 1114SOL    MW4 4511   2.943   1.315   1.964  0.4387  0.2769 -0.0781
 1115SOL     OW 4512   2.902   1.561   1.902 -0.3028 -0.7596  0.0594
 1115SOL    HW2 4513   2.984   1.609   1.918 -0.7165 -0.2910  0.7596
 1115SOL    HW3 4514   2.901   1.548   1.807 -0.2833  0.7941 -0.1671
 1115SOL    MW4 4515   2.913   1.565   1.891 -0.3545 -0.4928  0.1218
 1116SOL     OW 4516   2.669   1.685   1.980  0.5716  0.1411 -0.1925
 1116SOL    HW2 4517   2.753   1.646   1.954 -0.4821 -1.5090 -1.1992
 1116SOL    HW3 4518   2.603   1.634   1.934 -1.0692  0.7677  1.3934
 1116SOL    MW4 4519   2.671   1.673   1.970  0.2162  0.0062 -0.1162
 1117SOL     OW 4520   2.665   1.956   1.893  0.3283  0.2446 -0.2751
 1117SOL    HW2 4521   2.746   1.996   1.923 -1.3172  1.4936  2.7095
 1117SOL    HW3 4522   2.665   1.868   1.933 -0.4882  0.8261  1.0420
 1117SOL    MW4 4523   2.676   1.949   1.902  0.0033  0.4859  0.2925
 1118SOL     OW 4524   2.913   2.054   1.975 -0.0710 -0.0284 -0.1210
 1118SOL    HW2 4525   2.922   2.055   2.071  1.0230  0.2030 -0.2221
 1118SOL    HW3 4526   2.987   2.002   1.944 -0.6452 -0.4351 -0.8230
 1118SOL    MW4 4527   2.924   2.047   1.984 -0.0026 -0.0515 -0.2270
 1119SOL     OW 4528   2.912   2.317   1.884  0.5105 -0.2964  0.0792
 1119SOL    HW2 4529   2.997   2.339   1.922  0.0508 -0.2882  1.1165
 1119SOL    HW3 4530   2.896   2.227   1.913  0.4747 -0.5344 -0.6779
 1119SOL    MW4 4531   2.921   2.308   1.893  0.4451 -0.3269  0.1161
 1120SOL     OW 4532   2.740   2.497   1.988  0.3167  0.1662  0.1173
 1120SOL    HW2 4533   2.738   2.582   1.943 -0.4800  0.0708 -0.0406
 1120SOL    HW3 4534   2.802   2.445   1.938 -1.2519 -0.2557 -1.4701
 1120SOL    MW4 4535   2.748   2.501   1.975  0.0048  0.0980 -0.1130
 1121SOL     OW 4536   2.685   2.756   1.888  0.0440 -0.0592  0.0506
 1121SOL    HW2 4537   2.601   2.781   1.926 -0.0403  0.5252 -0.5204
 1121SOL    HW3 4538   2.670   2.754   1.794  0.5607 -0.3596 -0.0303
 1121SOL    MW4 4539   2.672   2.759   1.881  0.1009 -0.0217 -0.0356
 1122SOL     OW 4540   2.937   2.883   1.965 -0.1068  0.3226 -0.2361
 1122SOL    HW2 4541   2.942   2.970   1.926 -0.7182  1.1805  1.5652
 1122SOL    HW3 4542   2.857   2.845   1.929 -0.8637  1.2450  0.4524
 1122SOL    MW4 4543   2.927   2.889   1.955 -0.2873  0.5577  0.0923
 1123SOL     OW 4544   2.937   3.145   1.842  0.3117 -0.2056  0.0731
 1123SOL    HW2 4545   3.014   3.186   1.881 -0.3836  1.2286 -0.0235
 1123SOL    HW3 4546   2.865   3.169   1.900  0.0147 -1.9722  0.4509
 1123SOL    MW4 4547   2.938   3.153   1.855  0.1807 -0.2494  0.1103
 1124SOL     OW 4548   2.707   3.212   1.987  0.2411 -0.4042 -0.0519
 1124SOL    HW2 4549   2.704   3.297   1.944 -0.3372 -0.4105 -0.0201
 1124SOL    HW3 4550   2.632   3.165   1.953 -0.0346 -0.5232  0.7248
 1124SOL    MW4 4551   2.697   3.217   1.977  0.1283 -0.4208  0.0548
 1125SOL     OW 4552   2.706   3.463   1.876  0.2246  0.6976 -0.4022
 1125SOL    HW2 4553   2.778   3.524   1.892  0.9663 -0.3178  0.1614
 1125SOL    HW3 4554   2.627   3.513   1.898  0.8324  1.4098  0.1704
 1125SOL    MW4 4555   2.705   3.478   1.881  0.4027  0.6576 -0.2522
 1126SOL     OW 4556   2.917   3.621   1.958 -0.1737  0.0818 -0.0760
 1126SOL    HW2 4557   2.914   3.612   2.054  0.3848  0.1851 -0.0484
 1126SOL    HW3 4558   2.995   3.572   1.932  0.1646  0.7857 -0.3954
 1126SOL    MW4 4559   2.927   3.613   1.968 -0.0553  0.1886 -0.1147
 1127SOL     OW 4560   2.922   3.892   1.875 -0.0516  0.1694  0.3825
 1127SOL    HW2 4561   2.920   3.799   1.898  1.6933  0.1449  0.4620
 1127SOL    HW3 4562   2.927   3.893   1.780 -2.8352  0.2395  0.1776
 1127SOL    MW4 4563   2.922   3.880   1.866 -0.1886  0.1755  0.3660
 1128SOL     OW 4564   2.673   4.039   1.967 -0.3897  0.0747 -0.3984
 1128SOL    HW2 4565   2.759   4.006   1.943 -0.8231  0.1419 -2.1029
 1128SOL    HW3 4566   2.612   3.984   1.918 -1.2636  0.8358 -0.1821
 1128SOL    MW4 4567   2.676   4.027   1.957 -0.5624  0.1845 -0.5947
 1129SOL     OW 4568   2.664   4.294   1.884  0.0567 -0.1705  0.0932
 1129SOL    HW2 4569   2.658   4.202   1.910  1.6640 -0.2631  0.2037
 1129SOL    HW3 4570   2.686   4.291   1.791  0.0178  0.0891  0.0772
 1129SOL    MW4 4571   2.666   4.281   1.875  0.2639 -0.1483  0.1057
 1130SOL     OW 4572   2.915   4.376   1.990 -0.0605  0.2413  0.0775
 1130SOL    HW2 4573   2.923   4.395   2.084  1.8281  1.0842 -0.2331
 1130SOL    HW3 4574   2.832   4.329   1.982 -0.4927  0.6188  2.0996
 1130SOL    MW4 4575   2.905   4.372   2.001  0.1316  0.4020  0.3033
 1131SOL     OW 4576   3.352   4.643   1.880 -0.2715 -0.1422 -0.2757
 1131SOL    HW2 4577   3.367   4.557   1.921 -0.3689  0.0006  0.0567
 1131SOL    HW3 4578   3.380   4.630   1.789 -0.1123 -0.4769 -0.1839
 1131SOL    MW4 4579   3.358   4.630   1.873 -0.2632 -0.1678 -0.2197
 1132SOL     OW 4580   3.111   0.102   1.954 -0.3399  0.1306 -0.3220
 1132SOL    HW2 4581   3.126   0.100   2.049  0.5168  0.8134 -0.4360
 1132SOL    HW3 4582   3.182   0.049   1.917 -0.5108  0.0953 -0.5996
 1132SOL    MW4 4583   3.123   0.095   1.962 -0.2494  0.2160 -0.3737
 1133SOL     OW 4584   3.153   0.358   1.846  0.4565  0.4045  0.2339
 1133SOL    HW2 4585   3.147   0.273   1.890  1.0959  0.9248  1.3521
 1133SOL    HW3 4586   3.157   0.336   1.753 -1.9888 -0.6784  0.3343
 1133SOL    MW4 4587   3.153   0.344   1.840  0.2184  0.3303  0.3947
 1134SOL     OW 4588   3.355   0.505   1.985 -0.3304  0.3608  0.1227
 1134SOL    HW2 4589   3.433   0.472   1.941 -0.1615 -0.7951  1.2650
 1134SOL    HW3 4590   3.283   0.456   1.946 -0.4297  1.0924 -0.6032
 1134SOL    MW4 4591   3.356   0.494   1.974 -0.3209  0.3048  0.1777
 1135SOL     OW 4592   3.350   0.750   1.847  0.8510 -0.0996  0.2769
 1135SOL    HW2 4593   3.287   0.817   1.876  1.2590  0.6772 -0.6251
 1135SOL    HW3 4594   3.329   0.673   1.901 -0.8634  0.1463 -0.0030
 1135SOL    MW4 4595   3.339   0.749   1.858  0.6790  0.0353  0.1209
 1136SOL     OW 4596   3.142   0.899   1.960  0.3603 -0.1339  0.0990
 1136SOL    HW2 4597   3.145   0.908   2.056 -0.8464  1.4403  0.0154
 1136SOL    HW3 4598   3.152   0.988   1.928  0.7453 -0.6632 -1.2451
 1136SOL    MW4 4599   3.143   0.912   1.969  0.2518  0.0039 -0.0893
 1137SOL     OW 4600   3.156   1.168   1.852  0.1476  0.1662  0.1339
 1137SOL    HW2 4601   3.242   1.198   1.882  0.0112 -1.4041  2.2818
 1137SOL    HW3 4602   3.094   1.226   1.895  0.1260  1.5027 -1.6724
 1137SOL    MW4 4603   3.159   1.179   1.862  0.1266  0.1353  0.1789
 1138SOL     OW 4604   3.379   1.277   1.976  0.3627  0.1555 -0.1770
 1138SOL    HW2 4605   3.390   1.301   2.068 -0.8837 -0.3214  0.1097
 1138SOL    HW3 4606   3.378   1.361   1.930  2.4627  0.3290  0.0620
 1138SOL    MW4 4607   3.380   1.291   1.982  0.4754  0.1155 -0.1076
 1139SOL     OW 4608   3.370   1.540   1.898  0.1458 -0.5973  0.2502
 1139SOL    HW2 4609   3.454   1.580   1.922  0.2926 -0.4406 -0.5115
 1139SOL    HW3 4610   3.306   1.584   1.954  0.4315  0.0190  0.0968
 1139SOL    MW4 4611   3.373   1.551   1.909  0.2027 -0.4952  0.1295
 1140SOL     OW 4612   3.138   1.678   2.003  0.3739  0.5516  0.0930
 1140SOL    HW2 4613   3.151   1.693   2.097 -0.5409 -1.5866  0.6010
 1140SOL    HW3 4614   3.142   1.765   1.963  0.0635  1.5574  2.2002
 1140SOL    MW4 4615   3.140   1.691   2.010  0.2124  0.4021  0.4382
 1141SOL     OW 4616   3.133   1.928   1.880 -0.3731 -0.4476  0.1487
 1141SOL    HW2 4617   3.218   1.953   1.917 -0.8485  0.5649  0.5510
 1141SOL    HW3 4618   3.145   1.935   1.786 -0.4036  1.0074  0.2402
 1141SOL    MW4 4619   3.146   1.932   1.873 -0.4399 -0.1221  0.2139
 1142SOL     OW 4620   3.386   2.045   1.972 -0.1220 -0.8324  0.7395
 1142SOL    HW2 4621   3.467   1.997   1.953  0.9479  0.9395  0.7116
 1142SOL    HW3 4622   3.390   2.121   1.915 -1.1686 -0.0362  1.7236
 1142SOL    MW4 4623   3.397   2.048   1.962 -0.1187 -0.4938  0.8658
 1143SOL     OW 4624   3.366   2.311   1.882  0.4239 -0.0114 -0.1143
 1143SOL    HW2 4625   3.279   2.335   1.915  0.4880 -0.3221  0.2857
 1143SOL    HW3 4626   3.353   2.295   1.789 -0.1749 -1.1621  0.1612
 1143SOL    MW4 4627   3.353   2.312   1.874  0.3533 -0.2041 -0.0252
 1144SOL     OW 4628   3.145   2.434   1.974 -0.1316  0.4863  0.0211
 1144SOL    HW2 4629   3.166   2.451   2.065  0.3881  0.3644 -0.0790
 1144SOL    HW3 4630   3.133   2.521   1.935 -0.5839  0.5333  0.2549
 1144SOL    MW4 4631   3.146   2.448   1.981 -0.1225  0.4766  0.0386
 1145SOL     OW 4632   3.169   2.728   1.878  0.8680 -0.3401  0.2269
 1145SOL    HW2 4633   3.096   2.777   1.917  0.8360  0.3082 -0.6263
 1145SOL    HW3 4634   3.142   2.712   1.788  1.4524 -0.7721  0.1266
 1145SOL    MW4 4635   3.156   2.733   1.871  0.9406 -0.3114  0.1011
 1146SOL     OW 4636   3.410   2.807   1.971 -0.0814 -0.2522  0.1246
 1146SOL    HW2 4637   3.403   2.799   2.066 -0.1068 -1.0418  0.0646
 1146SOL    HW3 4638   3.325   2.775   1.938 -0.9705  2.2226 -0.0661
 1146SOL    MW4 4639   3.398   2.802   1.979 -0.2019 -0.0300  0.0914
 1147SOL     OW 4640   3.383   3.085   1.881  0.2185 -0.1769 -0.9754
 1147SOL    HW2 4641   3.462   3.132   1.909 -0.9507  0.7708  0.7948
 1147SOL    HW3 4642   3.392   2.998   1.922 -0.9829  0.8607  1.6047
 1147SOL    MW4 4643   3.395   3.080   1.890 -0.0944  0.0851 -0.4016
 1148SOL     OW 4644   3.159   3.229   1.959 -0.2430  0.0271 -0.2338
 1148SOL    HW2 4645   3.171   3.321   1.935  1.0870  0.4177  1.7810
 1148SOL    HW3 4646   3.242   3.188   1.934 -0.7697 -0.5937 -0.9610
 1148SOL    MW4 4647   3.172   3.236   1.952 -0.1371 -0.0033 -0.0639
 1149SOL     OW 4648   3.152   3.504   1.860 -0.2709 -0.2774 -0.4116
 1149SOL    HW2 4649   3.245   3.526   1.873 -0.6318  0.3206  1.4477
 1149SOL    HW3 4650   3.138   3.511   1.766  1.3073  0.7745 -0.5915
 1149SOL    MW4 4651   3.162   3.508   1.850 -0.1101 -0.0596 -0.1900
 1150SOL     OW 4652   3.391   3.602   1.963 -0.3162  0.1763  0.6889
 1150SOL    HW2 4653   3.472   3.561   1.931 -1.5596 -0.7794 -1.4035
 1150SOL    HW3 4654   3.394   3.691   1.928  0.1545  0.3448  1.1677
 1150SOL    MW4 4655   3.402   3.608   1.954 -0.4179  0.0725  0.4760
 1151SOL     OW 4656   3.361   3.852   1.862 -0.0971  0.1136 -0.3437
 1151SOL    HW2 4657   3.282   3.891   1.899 -0.1991 -0.2613 -0.1617
 1151SOL    HW3 4658   3.363   3.882   1.772 -0.8738 -0.5126 -0.5700
 1151SOL    MW4 4659   3.351   3.861   1.855 -0.2131 -0.0181 -0.3496
 1152SOL     OW 4660   3.158   3.985   2.023  0.1045  0.2891  0.3104
 1152SOL    HW2 4661   3.142   3.978   2.117 -0.2582  0.7995  0.2855
 1152SOL    HW3 4662   3.083   3.940   1.983 -0.2584  0.9548  0.2414
 1152SOL    MW4 4663   3.146   3.978   2.030  0.0086  0.4442  0.2978
 1153SOL     OW 4664   3.137   4.234   1.898 -0.0772  0.1346 -1.0110
 1153SOL    HW2 4665   3.145   4.151   1.946 -0.0993  1.6666  1.7693
 1153SOL    HW3 4666   3.062   4.277   1.938  1.3845  2.5329 -0.8029
 1153SOL    MW4 4667   3.128   4.228   1.910  0.1130  0.6537 -0.6167
 1154SOL     OW 4668   3.383   4.385   1.978 -0.0541  0.1756  0.1727
 1154SOL    HW2 4669   3.450   4.335   1.931 -0.1472  1.8178 -1.7992
 1154SOL    HW3 4670   3.300   4.348   1.949 -0.0818  0.3831 -0.0145
 1154SOL    MW4 4671   3.381   4.374   1.968 -0.0699  0.4196 -0.1122
 1155SOL     OW 4672   3.824   0.011   1.877 -0.1882  0.3625 -0.2132
 1155SOL    HW2 4673   3.795  -0.079   1.890 -0.2073  0.4883  0.6205
 1155SOL    HW3 4674   3.750   0.065   1.904  0.4102  0.6597  0.8391
 1155SOL    MW4 4675   3.810   0.006   1.882 -0.1121  0.4182  0.0355
 1156SOL     OW 4676   3.597   0.127   1.971  0.1321  0.0978  0.6154
 1156SOL    HW2 4677   3.605   0.133   2.066  1.6696  0.1014  0.5010
 1156SOL    HW3 4678   3.510   0.091   1.956  0.7895 -2.2088  2.0915
 1156SOL    MW4 4679   3.587   0.123   1.981  0.4218 -0.2060  0.7951
 1157SOL     OW 4680   3.577   0.387   1.851 -0.1139 -0.4066 -0.0015
 1157SOL    HW2 4681   3.556   0.298   1.880  0.7931 -0.8536 -0.6531
 1157SOL    HW3 4682   3.578   0.381   1.755 -0.8298  0.4975 -0.0747
 1157SOL    MW4 4683   3.574   0.374   1.842 -0.0887 -0.3463 -0.0970
 1158SOL     OW 4684   3.826   0.461   1.977 -0.0029 -0.5988 -0.0369
 1158SOL    HW2 4685   3.838   0.545   1.932  1.3378 -0.8237 -0.1303
 1158SOL    HW3 4686   3.744   0.427   1.942 -0.3955  0.5220 -0.2389
 1158SOL    MW4 4687   3.817   0.468   1.966  0.1223 -0.4806 -0.0758
 1159SOL     OW 4688   3.853   0.731   1.903  0.2183 -0.3385 -0.2481
 1159SOL    HW2 4689   3.770   0.770   1.929  0.1734 -0.5655 -0.0530
 1159SOL    HW3 4690   3.856   0.744   1.808  0.7457  1.1895 -0.0426
 1159SOL    MW4 4691   3.842   0.738   1.894  0.2820 -0.1668 -0.1951
 1160SOL     OW 4692   3.609   0.885   1.972  0.3750  0.1352 -0.5257
 1160SOL    HW2 4693   3.615   0.979   1.958 -0.7156  0.3404  0.3023
 1160SOL    HW3 4694   3.522   0.861   1.939 -0.3784 -0.1324  1.5566
 1160SOL    MW4 4695   3.598   0.894   1.966  0.1318  0.1270 -0.1417
 1161SOL     OW 4696   3.630   1.174   1.902  0.3444  0.1571  0.3477
 1161SOL    HW2 4697   3.554   1.211   1.947  1.1144  2.0909  0.1094
 1161SOL    HW3 4698   3.602   1.162   1.812 -0.1224 -0.5010  0.5764
 1161SOL    MW4 4699   3.617   1.177   1.896  0.3846  0.3254  0.3464
 1162SOL     OW 4700   3.883   1.302   1.967  0.1386 -0.2471 -0.4190
 1162SOL    HW2 4701   3.888   1.293   2.062  0.2446  1.3184 -0.2590
 1162SOL    HW3 4702   3.803   1.257   1.943  1.6548 -3.2917  0.0344
 1162SOL    MW4 4703   3.873   1.295   1.976  0.3526 -0.4421 -0.3381
 1163SOL     OW 4704   3.870   1.563   1.895  0.5255 -0.4781 -0.6635
 1163SOL    HW2 4705   3.941   1.617   1.931  0.0447 -0.3589  0.1242
 1163SOL    HW3 4706   3.895   1.473   1.915  0.0813 -0.3910  0.3076
 1163SOL    MW4 4707   3.883   1.558   1.902  0.4034 -0.4508 -0.4314
 1164SOL     OW 4708   3.608   1.651   1.993 -0.2012 -0.0304 -0.1797
 1164SOL    HW2 4709   3.620   1.743   1.970 -2.1552  0.4670  0.6827
 1164SOL    HW3 4710   3.679   1.605   1.948  1.3323  2.0004  0.1217
 1164SOL    MW4 4711   3.619   1.657   1.984 -0.2568  0.3030 -0.0262
 1165SOL     OW 4712   3.618   1.904   1.891  0.3454  0.1095 -0.1186
 1165SOL    HW2 4713   3.697   1.945   1.926  0.1418  0.1517  0.2942
 1165SOL    HW3 4714   3.613   1.935   1.801  0.6510  0.3217 -0.0634
 1165SOL    MW4 4715   3.628   1.913   1.884  0.3591  0.1431 -0.0569
 1166SOL     OW 4716   3.830   2.047   2.012 -0.2646 -0.1892  0.3234
 1166SOL    HW2 4717   3.896   2.002   1.959 -0.7491  0.1393 -0.5862
 1166SOL    HW3 4718   3.811   2.127   1.962 -1.4791 -0.3711  0.4781
 1166SOL    MW4 4719   3.836   2.052   1.998 -0.4888 -0.1700  0.2236
 1167SOL     OW 4720   3.827   2.315   1.887  0.4133  0.1468 -1.0758
 1167SOL    HW2 4721   3.875   2.384   1.932  1.5683  0.1062 -2.2105
 1167SOL    HW3 4722   3.735   2.339   1.898  0.7697  1.4097 -0.7335
 1167SOL    MW4 4723   3.821   2.328   1.894  0.6130  0.3083 -1.1805
 1168SOL     OW 4724   3.592   2.407   1.992 -0.2791 -0.3145  0.5911
 1168SOL    HW2 4725   3.606   2.490   1.947 -1.9517 -0.6063 -0.4999
 1168SOL    HW3 4726   3.517   2.368   1.947  0.0804 -2.1043  1.5345
 1168SOL    MW4 4727   3.584   2.413   1.980 -0.4525 -0.5887  0.5716
 1169SOL     OW 4728   3.636   2.657   1.885  0.4734  0.2391  0.0801
 1169SOL    HW2 4729   3.717   2.701   1.911 -0.4601  1.5906  0.7282
 1169SOL    HW3 4730   3.566   2.705   1.930 -0.5142 -2.4395  1.5300
 1169SOL    MW4 4731   3.637   2.669   1.894  0.2196  0.0641  0.3568
 1170SOL     OW 4732   3.836   2.833   1.970 -0.0283 -0.0003 -0.0523
 1170SOL    HW2 4733   3.829   2.835   2.066  0.5189  1.2981 -0.0237
 1170SOL    HW3 4734   3.854   2.924   1.946  0.6433 -0.4660 -1.3297
 1170SOL    MW4 4735   3.837   2.845   1.980  0.1323  0.1097 -0.2172
 1171SOL     OW 4736   3.851   3.093   1.899 -0.0449  0.2375 -0.2595
 1171SOL    HW2 4737   3.769   3.115   1.945  1.0981 -0.8705  2.4109
 1171SOL    HW3 4738   3.828   3.096   1.806 -3.5606 -1.6527  0.4688
 1171SOL    MW4 4739   3.837   3.096   1.893 -0.3576 -0.1583  0.1889
 1172SOL     OW 4740   3.604   3.193   2.001 -0.2671  0.0824 -0.2343
 1172SOL    HW2 4741   3.568   3.189   2.089  0.3878  0.2968  0.0493
 1172SOL    HW3 4742   3.609   3.287   1.980 -0.2394  0.0415 -0.4159
 1172SOL    MW4 4743   3.600   3.205   2.010 -0.1769  0.1054 -0.2210
 1173SOL     OW 4744   3.630   3.480   1.879  0.3258  0.0532 -0.5156
 1173SOL    HW2 4745   3.708   3.531   1.901  0.1942 -0.2069  0.5741
 1173SOL    HW3 4746   3.629   3.479   1.783  1.1891  0.7751 -0.5428
 1173SOL    MW4 4747   3.640   3.486   1.869  0.4222  0.1142 -0.3755
 1174SOL     OW 4748   3.842   3.627   1.948 -0.2046  0.4806  0.1546
 1174SOL    HW2 4749   3.917   3.589   1.902 -0.4964  0.2736 -0.1474
 1174SOL    HW3 4750   3.832   3.714   1.910 -0.5560  0.2425 -0.2979
 1174SOL    MW4 4751   3.851   3.634   1.937 -0.2897  0.4222  0.0551
 1175SOL     OW 4752   3.780   3.898   1.845 -0.4832  0.2127 -0.3140
 1175SOL    HW2 4753   3.708   3.941   1.891  0.3739  0.7457  0.5450
 1175SOL    HW3 4754   3.761   3.912   1.752 -0.6940  1.6712 -0.0620
 1175SOL    MW4 4755   3.768   3.906   1.839 -0.3977  0.4754 -0.1673
 1176SOL     OW 4756   3.569   4.019   2.001 -0.0541  0.0844 -0.1839
 1176SOL    HW2 4757   3.559   4.002   2.095 -0.1334 -1.5523 -0.4818
 1176SOL    HW3 4758   3.493   3.977   1.961 -0.5379  1.5926 -0.9109
 1176SOL    MW4 4759   3.557   4.011   2.008 -0.1285  0.0677 -0.3190
 1177SOL     OW 4760   3.602   4.255   1.857  0.1463 -0.2548 -0.0078
 1177SOL    HW2 4761   3.656   4.311   1.912  0.5685 -0.4509 -0.2220
 1177SOL    HW3 4762   3.609   4.168   1.898 -0.0698 -0.2650  0.0091
 1177SOL    MW4 4763   3.610   4.251   1.870  0.1731 -0.2823 -0.0339
 1178SOL     OW 4764   3.787   4.418   1.970  0.2057  0.5832 -0.0270
 1178SOL    HW2 4765   3.796   4.419   2.065 -1.3027 -1.2813  0.1598
 1178SOL    HW3 4766   3.867   4.375   1.939 -0.1026 -0.3939  0.5135
 1178SOL    MW4 4767   3.799   4.412   1.978 -0.0341  0.2084  0.0690
 1179SOL     OW 4768   4.261   4.627   1.892 -0.8717  0.3974 -0.0475
 1179SOL    HW2 4769   4.184   4.668   1.931 -0.2672  0.5263  1.0381
 1179SOL    HW3 4770   4.334   4.682   1.921 -0.3335  0.0680 -0.7614
 1179SOL    MW4 4771   4.261   4.640   1.901 -0.7210  0.3710  0.0015
 1180SOL     OW 4772   4.049   0.102   1.989 -0.1226  0.4764  0.0731
 1180SOL    HW2 4773   4.036   0.095   2.084  0.4212 -0.8318  0.0636
 1180SOL    HW3 4774   3.968   0.068   1.951 -0.0736  0.3609  0.0702
 1180SOL    MW4 4775   4.037   0.096   1.997 -0.0443  0.2886  0.0714
 1181SOL     OW 4776   4.053   0.345   1.871  0.0010 -0.2328 -0.0363
 1181SOL    HW2 4777   4.056   0.261   1.918 -1.4283  0.1614  0.7829
 1181SOL    HW3 4778   3.974   0.388   1.904  0.5055  1.2658 -0.7525
 1181SOL    MW4 4779   4.043   0.339   1.882 -0.1211  0.0170 -0.0225
 1182SOL     OW 4780   4.253   0.520   1.956 -0.1298 -0.0739  0.0316
 1182SOL    HW2 4781   4.280   0.496   2.044  1.3724 -1.3645 -0.7337
 1182SOL    HW3 4782   4.184   0.458   1.934  0.3292 -0.5270 -0.1357
 1182SOL    MW4 4783   4.248   0.509   1.964  0.1292 -0.3040 -0.0914
 1183SOL     OW 4784   4.315   0.778   1.861 -0.4326  0.1623 -0.2838
 1183SOL    HW2 4785   4.300   0.691   1.897 -1.5098  0.3478 -0.2545
 1183SOL    HW3 4786   4.307   0.767   1.767 -0.2907  0.1694 -0.2956
 1183SOL    MW4 4787   4.312   0.765   1.854 -0.5565  0.1877 -0.2815
 1184SOL     OW 4788   4.078   0.882   1.968  0.2850  0.1290  0.3687
 1184SOL    HW2 4789   4.155   0.832   1.941 -0.3678 -1.4200  1.3418
 1184SOL    HW3 4790   4.005   0.820   1.960 -0.7910  1.4280 -0.0376
 1184SOL    MW4 4791   4.079   0.867   1.963  0.0572  0.0960  0.4435
 1185SOL     OW 4792   4.103   1.141   1.874  0.1088 -0.3132  0.3191
 1185SOL    HW2 4793   4.088   1.051   1.903  2.0612 -0.5451  0.6372
 1185SOL    HW3 4794   4.035   1.192   1.919  1.8372 -0.9468  3.8489
 1185SOL    MW4 4795   4.092   1.136   1.884  0.5946 -0.4274  0.8268
 1186SOL     OW 4796   4.290   1.317   1.971  0.6232  0.4236  0.2867
 1186SOL    HW2 4797   4.303   1.309   2.066 -1.3988  0.2711  0.5827
 1186SOL    HW3 4798   4.221   1.253   1.952  1.2735  0.1975 -1.3536
 1186SOL    MW4 4799   4.283   1.307   1.981  0.4420  0.3737  0.1092
 1187SOL     OW 4800   4.265   1.570   1.855  0.0828 -0.2353 -0.5412
 1187SOL    HW2 4801   4.258   1.480   1.887 -1.7572 -0.4135 -1.4083
 1187SOL    HW3 4802   4.266   1.562   1.760 -0.3044  0.6872 -0.6266
 1187SOL    MW4 4803   4.264   1.557   1.847 -0.2108 -0.1372 -0.6669
 1188SOL     OW 4804   4.078   1.731   1.992 -0.2550 -0.4709  0.4992
 1188SOL    HW2 4805   4.090   1.711   2.085 -1.1011 -0.6557  0.5759
 1188SOL    HW3 4806   4.146   1.681   1.947  0.1470 -0.3900  1.0214
 1188SOL    MW4 4807   4.088   1.722   1.998 -0.3128 -0.4847  0.5782
 1189SOL     OW 4808   4.078   1.970   1.862 -0.2666 -0.1574  0.0964
 1189SOL    HW2 4809   4.069   1.883   1.900  0.6568  0.1011  0.9227
 1189SOL    HW3 4810   4.076   1.955   1.767  1.0017 -1.2111  0.2153
 1189SOL    MW4 4811   4.077   1.957   1.854  0.0224 -0.2623  0.2210
 1190SOL     OW 4812   4.314   2.087   1.965  0.3435 -0.0611 -0.5405
 1190SOL    HW2 4813   4.301   2.074   2.059  0.4410  0.6611 -0.4228
 1190SOL    HW3 4814   4.230   2.062   1.926 -0.0585  0.6733 -0.1609
 1190SOL    MW4 4815   4.301   2.082   1.973  0.3033  0.1309 -0.4748
 1191SOL     OW 4816   4.278   2.348   1.869  0.5262  0.1296 -0.2248
 1191SOL    HW2 4817   4.301   2.264   1.908  1.9097  0.1886 -0.8733
 1191SOL    HW3 4818   4.353   2.405   1.888  0.3236  0.7337 -1.1780
 1191SOL    MW4 4819   4.291   2.345   1.877  0.6819  0.2170 -0.4361
 1192SOL     OW 4820   4.054   2.477   1.984  0.3633  0.2270 -0.2069
 1192SOL    HW2 4821   4.059   2.478   2.080 -1.3043 -0.9171 -0.0891
 1192SOL    HW3 4822   4.129   2.425   1.957  0.7199  0.3724  0.4869
 1192SOL    MW4 4823   4.064   2.471   1.993  0.1907  0.0954 -0.0997
 1193SOL     OW 4824   4.082   2.736   1.894 -0.1339 -0.7695  0.2325
 1193SOL    HW2 4825   4.090   2.651   1.938 -1.5238 -0.0973  1.8289
 1193SOL    HW3 4826   3.996   2.768   1.920  0.8775  1.6928  0.6438
 1193SOL    MW4 4827   4.071   2.729   1.904 -0.1841 -0.3560  0.4973
 1194SOL     OW 4828   4.296   2.877   1.996  0.2685 -0.1799 -0.2684
 1194SOL    HW2 4829   4.290   2.882   2.092 -0.6253  0.6865 -0.3569
 1194SOL    HW3 4830   4.221   2.823   1.970 -0.6679  1.2245 -0.5967
 1194SOL    MW4 4831   4.285   2.871   2.005  0.0272  0.1194 -0.3233
 1195SOL     OW 4832   4.231   3.120   1.860 -0.0585 -0.4829 -0.4434
 1195SOL    HW2 4833   4.160   3.164   1.906  0.4333 -1.7882  1.6223
 1195SOL    HW3 4834   4.258   3.049   1.918 -0.1008 -2.8633 -3.2001
 1195SOL    MW4 4835   4.226   3.116   1.874  0.0005 -0.9694 -0.5347
 1196SOL     OW 4836   4.037   3.263   2.002  0.4238 -0.1973  0.4630
 1196SOL    HW2 4837   4.019   3.263   2.096 -0.8901 -1.5200  0.2236
 1196SOL    HW3 4838   3.981   3.194   1.967  1.0870  0.1259 -1.2618
 1196SOL    MW4 4839   4.027   3.254   2.010  0.3381 -0.3293  0.2041
 1197SOL     OW 4840   4.068   3.483   1.864 -0.2592 -0.3933  0.3270
 1197SOL    HW2 4841   4.136   3.544   1.893 -1.3101  1.5175 -1.0992
 1197SOL    HW3 4842   4.075   3.409   1.924  1.2489  0.9906  1.9102
 1197SOL    MW4 4843   4.078   3.481   1.876 -0.1984  0.0415  0.3476
 1198SOL     OW 4844   4.276   3.649   1.977 -0.3050 -0.0604  0.5682
 1198SOL    HW2 4845   4.273   3.740   1.949 -0.9745 -0.0344  0.7351
 1198SOL    HW3 4846   4.367   3.622   1.960  0.1728  0.9331  1.4527
 1198SOL    MW4 4847   4.288   3.658   1.971 -0.3295  0.0741  0.7069
 1199SOL     OW 4848   4.212   3.940   1.871  0.2556  0.2311 -0.2154
 1199SOL    HW2 4849   4.299   3.980   1.881  0.4499  0.0853 -1.2227
 1199SOL    HW3 4850   4.210   3.912   1.779 -1.0957  0.7816 -0.3607
 1199SOL    MW4 4851   4.223   3.942   1.860  0.1030  0.2842 -0.3675
 1200SOL     OW 4852   3.972   4.047   1.967 -0.5235 -0.3506 -0.1227
 1200SOL    HW2 4853   4.057   4.014   1.937 -0.7296  0.3783 -1.5268
 1200SOL    HW3 4854   3.908   3.995   1.919 -0.8539  1.3373 -1.5161
 1200SOL    MW4 4855   3.975   4.036   1.957 -0.5944 -0.0319 -0.4917
 1201SOL     OW 4856   4.007   4.292   1.845  0.1564 -0.2093 -0.0166
 1201SOL    HW2 4857   4.089   4.324   1.883 -0.2362  0.4067  0.3459
 1201SOL    HW3 4858   3.989   4.211   1.892  0.1179  0.1043  0.5192
 1201SOL    MW4 4859   4.015   4.286   1.856  0.0997 -0.0858  0.1018
 1202SOL     OW 4860   4.265   4.358   1.944 -0.0327 -0.4161 -0.2701
 1202SOL    HW2 4861   4.256   4.350   2.039 -0.6243 -1.3668 -0.4079
 1202SOL    HW3 4862   4.270   4.453   1.929  0.4509 -0.2707  0.7371
 1202SOL    MW4 4863   4.264   4.370   1.955 -0.0463 -0.5217 -0.1554
 1203SOL     OW 4864   0.228   0.005   2.352 -0.2267  0.0166 -0.1236
 1203SOL    HW2 4865   0.226   0.018   2.446 -0.6786 -1.6035  0.1001
 1203SOL    HW3 4866   0.304   0.054   2.322  0.8189 -0.7259  1.2825
 1203SOL    MW4 4867   0.237   0.013   2.360 -0.1484 -0.2947  0.0916
 1204SOL     OW 4868   4.473   0.123   2.258 -0.3695 -0.2451 -0.2564
 1204SOL    HW2 4869   4.563   0.089   2.269 -0.2509 -0.1246 -0.8744
 1204SOL    HW3 4870   4.456   0.116   2.165 -0.9915 -0.2145 -0.1447
 1204SOL    MW4 4871   4.483   0.117   2.247 -0.4363 -0.2252 -0.3231
 1205SOL     OW 4872   4.484   0.361   2.390 -0.1167 -0.1755 -0.0425
 1205SOL    HW2 4873   4.561   0.397   2.346  0.5822 -0.2841  1.0672
 1205SOL    HW3 4874   4.469   0.277   2.347  0.3445 -0.1212 -0.3171
 1205SOL    MW4 4875   4.493   0.354   2.379  0.0364 -0.1827  0.0677
 1206SOL     OW 4876   0.209   0.496   2.251 -0.0102  0.0529  0.1040
 1206SOL    HW2 4877   0.292   0.451   2.266 -0.3022 -0.5783 -0.1527
 1206SOL    HW3 4878   0.198   0.493   2.156  1.1792  2.8523 -0.1622
 1206SOL    MW4 4879   0.219   0.489   2.240  0.1082  0.3390  0.0353
 1207SOL     OW 4880   0.207   0.759   2.317 -0.5572  0.3089 -0.2119
 1207SOL    HW2 4881   0.215   0.766   2.413  0.6335 -0.2757 -0.2585
 1207SOL    HW3 4882   0.208   0.665   2.300  1.7157  0.4424 -0.9725
 1207SOL    MW4 4883   0.208   0.748   2.328 -0.1002  0.2494 -0.3183
 1208SOL     OW 4884   4.482   0.915   2.231  0.4120  0.5764  0.0843
 1208SOL    HW2 4885   4.560   0.863   2.252  0.2575  0.8862  1.4301
 1208SOL    HW3 4886   4.487   0.926   2.136  0.1985 -2.2773 -0.3016
 1208SOL    MW4 4887   4.493   0.910   2.221  0.3634  0.2408  0.2108
 1209SOL     OW 4888   0.020   1.152   2.370 -0.1011 -0.3790 -0.1319
 1209SOL    HW2 4889  -0.006   1.125   2.458 -0.4639 -0.3028 -0.2136
 1209SOL    HW3 4890   0.017   1.072   2.318  1.8936 -0.7850  0.3240
 1209SOL    MW4 4891   0.016   1.138   2.375  0.1142 -0.4226 -0.0825
 1210SOL     OW 4892   0.234   1.288   2.260 -0.2980 -0.1878 -0.1888
 1210SOL    HW2 4893   0.161   1.241   2.299 -0.6914  0.8929  0.3891
 1210SOL    HW3 4894   0.215   1.290   2.167 -0.3093 -1.1127 -0.2098
 1210SOL    MW4 4895   0.222   1.282   2.253 -0.3514 -0.1671 -0.1156
 1211SOL     OW 4896   0.207   1.536   2.358  0.0643 -0.4835 -0.1858
 1211SOL    HW2 4897   0.221   1.519   2.451  1.4515  2.0573  0.1164
 1211SOL    HW3 4898   0.223   1.452   2.316  2.0908 -1.0527  1.6070
 1211SOL    MW4 4899   0.211   1.523   2.365  0.5147 -0.2233  0.0906
 1212SOL     OW 4900   4.476   1.674   2.216 -0.3991  0.1758  0.3289
 1212SOL    HW2 4901   4.480   1.767   2.242  1.2504  0.1675  0.1947
 1212SOL    HW3 4902   4.545   1.633   2.268 -1.0805 -0.9766  0.3240
 1212SOL    MW4 4903   4.486   1.681   2.227 -0.2714  0.0228  0.3107
 1213SOL     OW 4904   0.047   1.932   2.348  0.2385 -0.0422 -0.2084
 1213SOL    HW2 4905  -0.021   1.990   2.315  0.1731 -0.0799 -0.1417
 1213SOL    HW3 4906   0.129   1.974   2.323  0.1918  0.1276 -0.0716
 1213SOL    MW4 4907   0.049   1.945   2.340  0.2237 -0.0249 -0.1814
 1214SOL     OW 4908   0.261   2.106   2.265 -0.0916 -0.3322  0.4996
 1214SOL    HW2 4909   0.329   2.042   2.284  0.1582  0.1520  1.2337
 1214SOL    HW3 4910   0.247   2.098   2.170  1.2580 -0.1587  0.2741
 1214SOL    MW4 4911   0.268   2.096   2.255  0.1194 -0.2456  0.5667
 1215SOL     OW 4912   0.252   2.375   2.369  0.2920  0.6333 -0.2242
 1215SOL    HW2 4913   0.244   2.380   2.465  0.8526  1.6584 -0.2254
 1215SOL    HW3 4914   0.262   2.281   2.351  0.5809  0.4673  0.7596
 1215SOL    MW4 4915   0.252   2.363   2.380  0.4041  0.7467 -0.0947
 1216SOL     OW 4916   0.008   2.486   2.247  1.1425 -0.0332 -0.0497
 1216SOL    HW2 4917   0.022   2.577   2.274 -1.4967  0.0527  1.2224
 1216SOL    HW3 4918   0.085   2.439   2.281  1.6122  1.4041  0.9381
 1216SOL    MW4 4919   0.020   2.492   2.255  0.8564  0.1681  0.2487
 1217SOL     OW 4920   0.017   2.740   2.361  0.2812  0.3810  0.1788
 1217SOL    HW2 4921   0.026   2.731   2.456  1.0031  0.5907  0.1345
 1217SOL    HW3 4922   0.087   2.801   2.336 -1.1942  1.9664 -0.2159
 1217SOL    MW4 4923   0.028   2.747   2.370  0.1822  0.6177  0.1209
 1218SOL     OW 4924   0.221   2.911   2.278 -0.0118 -0.4747 -0.0519
 1218SOL    HW2 4925   0.296   2.854   2.294  0.1465 -0.3755 -0.4309
 1218SOL    HW3 4926   0.202   2.899   2.185  0.3282  0.4590 -0.2475
 1218SOL    MW4 4927   0.228   2.901   2.268  0.0539 -0.3383 -0.1278
 1219SOL     OW 4928   0.214   3.173   2.359  0.0196 -0.1685 -0.2826
 1219SOL    HW2 4929   0.148   3.211   2.301 -0.4631  0.2448  0.5344
 1219SOL    HW3 4930   0.223   3.082   2.329  0.1338  0.1817 -1.3169
 1219SOL    MW4 4931   0.206   3.166   2.347 -0.0290 -0.0675 -0.3116
 1220SOL     OW 4932   4.480   3.245   2.230 -0.0105  0.1466  0.2319
 1220SOL    HW2 4933   4.463   3.325   2.280 -0.1363  0.7414 -0.7447
 1220SOL    HW3 4934   4.468   3.271   2.139  0.8831 -0.7624 -0.1509
 1220SOL    MW4 4935   4.476   3.259   2.225  0.0906  0.1049  0.0525
 1221SOL     OW 4936   4.465   3.487   2.356  0.4338  0.2341  0.2581
 1221SOL    HW2 4937   4.464   3.477   2.452  1.0070 -1.1076  0.1390
 1221SOL    HW3 4938   4.380   3.525   2.335  0.0659 -0.0236  1.2531
 1221SOL    MW4 4939   4.454   3.490   2.366  0.4611  0.0229  0.3736
 1222SOL     OW 4940   0.200   3.616   2.245  0.4443 -0.0114  0.0512
 1222SOL    HW2 4941   0.270   3.575   2.296  0.8851 -0.5775 -0.9980
 1222SOL    HW3 4942   0.120   3.570   2.273  1.0239 -2.1638 -1.6672
 1222SOL    MW4 4943   0.199   3.604   2.256  0.5789 -0.3703 -0.3140
 1223SOL     OW 4944   0.201   3.873   2.357 -0.5212 -0.0897  0.3442
 1223SOL    HW2 4945   0.130   3.926   2.322 -1.0842  0.1174  1.7751
 1223SOL    HW3 4946   0.186   3.785   2.321  0.0016  0.5367 -1.4423
 1223SOL    MW4 4947   0.190   3.868   2.348 -0.5265  0.0203  0.2973
 1224SOL     OW 4948   4.470   3.985   2.233  0.0511 -0.2679  0.0198
 1224SOL    HW2 4949   4.482   4.076   2.261  0.7934 -0.1798 -0.5592
 1224SOL    HW3 4950   4.488   3.986   2.139  2.0156 -1.3306  0.3376
 1224SOL    MW4 4951   4.474   3.997   2.225  0.4082 -0.3965 -0.0148
 1225SOL     OW 4952   4.476   4.241   2.333  0.4438 -0.1518  0.0278
 1225SOL    HW2 4953   4.471   4.228   2.428  1.2869 -0.3551  0.0432
 1225SOL    HW3 4954   4.535   4.316   2.322 -0.3229  0.4160 -0.3007
 1225SOL    MW4 4955   4.483   4.249   2.344  0.4539 -0.1035 -0.0136
 1226SOL     OW 4956   0.193   4.415   2.238  0.1914 -0.0750  0.0840
 1226SOL    HW2 4957   0.277   4.375   2.261  0.8975  0.6278 -1.2192
 1226SOL    HW3 4958   0.197   4.502   2.277  0.3694  0.2200 -0.5900
 1226SOL    MW4 4959   0.204   4.421   2.246  0.3081  0.0567 -0.1769
 1227SOL     OW 4960   0.654   4.663   2.362  0.0591  0.3003  0.6680
 1227SOL    HW2 4961   0.654   4.648   2.456 -0.2041 -0.6753  0.5219
 1227SOL    HW3 4962   0.744   4.688   2.342  0.4710 -0.8668  0.9852
 1227SOL    MW4 4963   0.666   4.664   2.371  0.0788  0.0172  0.6907
 1228SOL     OW 4964   0.443   0.151   2.256  0.0376 -0.4449  0.1564
 1228SOL    HW2 4965   0.517   0.097   2.284  0.6789  0.6435  0.5709
 1228SOL    HW3 4966   0.433   0.131   2.163  0.4126 -1.1043  0.2517
 1228SOL    MW4 4967   0.451   0.141   2.247  0.1717 -0.3883  0.2236
 1229SOL     OW 4968   0.452   0.410   2.321 -0.0190  0.6674  0.2279
 1229SOL    HW2 4969   0.452   0.421   2.416 -0.6545  2.1170  0.0881
 1229SOL    HW3 4970   0.471   0.318   2.307  0.1494  0.4516  1.7610
 1229SOL    MW4 4971   0.454   0.400   2.332 -0.0806  0.8302  0.4117
 1230SOL     OW 4972   0.707   0.531   2.229  0.0257  0.0428 -0.0886
 1230SOL    HW2 4973   0.721   0.610   2.280  1.3624 -0.0565 -0.2690
 1230SOL    HW3 4974   0.621   0.500   2.256 -1.1743  2.3750 -1.1452
 1230SOL    MW4 4975   0.698   0.537   2.240  0.0437  0.3374 -0.2520
 1231SOL     OW 4976   0.687   0.772   2.363 -0.1826  0.2741  0.0865
 1231SOL    HW2 4977   0.685   0.771   2.459 -0.0113 -3.2070  0.1354
 1231SOL    HW3 4978   0.600   0.801   2.337 -1.0552 -1.1444  1.3461
 1231SOL    MW4 4979   0.675   0.776   2.372 -0.2751 -0.3723  0.2592
 1232SOL     OW 4980   0.454   0.848   2.253 -0.3746  0.0947  0.0401
 1232SOL    HW2 4981   0.367   0.811   2.263  0.0274 -0.8363  0.2255
 1232SOL    HW3 4982   0.467   0.853   2.158  0.1570 -1.7395 -0.0199
 1232SOL    MW4 4983   0.445   0.844   2.242 -0.2514 -0.2701  0.0565
 1233SOL     OW 4984   0.449   1.121   2.337  0.0381 -0.0364 -0.0848
 1233SOL    HW2 4985   0.437   1.027   2.321  0.4594 -0.2738  0.9246
 1233SOL    HW3 4986   0.375   1.162   2.292  0.3790 -0.7695 -1.3427
 1233SOL    MW4 4987   0.437   1.114   2.329  0.1386 -0.1644 -0.1178
 1234SOL     OW 4988   0.670   1.267   2.261  0.3277 -0.1628 -0.2213
 1234SOL    HW2 4989   0.668   1.355   2.299  0.5659 -0.2888  0.0821
 1234SOL    HW3 4990   0.595   1.223   2.300  0.0578 -0.0146 -0.5691
 1234SOL    MW4 4991   0.660   1.273   2.271  0.3235 -0.1600 -0.2272
 1235SOL     OW 4992   0.647   1.516   2.375  0.0851 -0.4451  0.2262
 1235SOL    HW2 4993   0.652   1.516   2.471 -1.3745  3.1494  0.3694
 1235SOL    HW3 4994   0.732   1.551   2.347 -1.1377  2.8002  0.4220
 1235SOL    MW4 4995   0.659   1.520   2.384 -0.2688  0.4573  0.2708
 1236SOL     OW 4996   0.450   1.659   2.268  0.4082  0.7042 -0.4547
 1236SOL    HW2 4997   0.521   1.618   2.318  0.3236 -0.6714 -1.4323
 1236SOL    HW3 4998   0.370   1.622   2.306  0.1913  2.3995  0.7731
 1236SOL    MW4 4999   0.449   1.649   2.279  0.3685  0.7464 -0.4220
 1237SOL     OW 5000   0.451   1.929   2.374 -0.3867 -0.4438  0.1392
 1237SOL    HW2 5001   0.535   1.958   2.339 -0.0437 -0.5324  0.8876
 1237SOL    HW3 5002   0.442   1.839   2.344  0.2690 -0.7756  0.9288
 1237SOL    MW4 5003   0.461   1.921   2.365 -0.2549 -0.4992  0.3424
 1238SOL     OW 5004   0.660   2.032   2.242  0.1065  0.0974  0.3001
 1238SOL    HW2 5005   0.743   2.004   2.281 -1.2316 -1.8310  1.8790
 1238SOL    HW3 5006   0.654   2.125   2.261  0.8484 -0.2220  2.2036
 1238SOL    MW4 5007   0.670   2.040   2.250  0.0279 -0.1991  0.7596
 1239SOL     OW 5008   0.690   2.288   2.303  0.2151  0.1733 -0.0165
 1239SOL    HW2 5009   0.693   2.288   2.399  1.0485 -0.0154 -0.0358
 1239SOL    HW3 5010   0.778   2.317   2.277  0.3887 -0.9635 -0.7362
 1239SOL    MW4 5011   0.702   2.292   2.312  0.3480 -0.0014 -0.1140
 1240SOL     OW 5012   0.494   2.495   2.265 -0.3982 -0.3670 -0.1532
 1240SOL    HW2 5013   0.572   2.440   2.275 -0.1455  0.4039  2.7141
 1240SOL    HW3 5014   0.425   2.448   2.313 -0.8040  0.6091  0.2459
 1240SOL    MW4 5015   0.495   2.481   2.273 -0.4185 -0.1364  0.2778
 1241SOL     OW 5016   0.413   2.735   2.350  0.5057  0.4212 -0.0918
 1241SOL    HW2 5017   0.427   2.726   2.444  2.2062  0.4210 -0.3406
 1241SOL    HW3 5018   0.428   2.648   2.315  1.1203  0.6984 -0.5187
 1241SOL    MW4 5019   0.416   2.722   2.358  0.8111  0.4578 -0.1810
 1242SOL     OW 5020   0.648   2.860   2.288  0.1372  0.3456  0.1171
 1242SOL    HW2 5021   0.714   2.810   2.336  0.2218 -0.2867 -0.6567
 1242SOL    HW3 5022   0.565   2.818   2.310  0.1750  0.0605 -0.2834
 1242SOL    MW4 5023   0.646   2.848   2.297  0.1533  0.2244 -0.0379
 1243SOL     OW 5024   0.694   3.110   2.360 -0.8569  0.0992  0.1347
 1243SOL    HW2 5025   0.618   3.161   2.329 -0.0035  1.5279  0.3284
 1243SOL    HW3 5026   0.675   3.021   2.332 -1.7419  0.7518 -1.4825
 1243SOL    MW4 5027   0.681   3.105   2.352 -0.8610  0.3738 -0.0529
 1244SOL     OW 5028   0.460   3.236   2.270  0.3412 -0.7744  0.1524
 1244SOL    HW2 5029   0.368   3.230   2.296  0.7303 -0.3766  1.6804
 1244SOL    HW3 5030   0.460   3.213   2.177 -1.1538 -1.8034  0.3874
 1244SOL    MW4 5031   0.448   3.232   2.261  0.1953 -0.8576  0.3850
 1245SOL     OW 5032   0.439   3.501   2.383  0.0238  0.0855  0.8439
 1245SOL    HW2 5033   0.521   3.542   2.357  0.6011  0.4878  3.1166
 1245SOL    HW3 5034   0.443   3.412   2.348  0.9073  0.4826 -0.0553
 1245SOL    MW4 5035   0.450   3.495   2.375  0.2165  0.1912  1.0250
 1246SOL     OW 5036   0.670   3.651   2.270  0.5479 -0.3851 -0.2488
 1246SOL    HW2 5037   0.658   3.741   2.299  2.1036  0.1395 -1.1720
 1246SOL    HW3 5038   0.664   3.655   2.174 -0.4489 -1.4317 -0.2444
 1246SOL    MW4 5039   0.668   3.663   2.261  0.6217 -0.4539 -0.3700
 1247SOL     OW 5040   0.655   3.902   2.351 -0.0529 -0.5717 -0.0003
 1247SOL    HW2 5041   0.653   3.895   2.447 -0.4851 -1.9502 -0.0977
 1247SOL    HW3 5042   0.579   3.957   2.330 -0.8158 -1.4632  0.3666
 1247SOL    MW4 5043   0.645   3.909   2.361 -0.2105 -0.8712  0.0353
 1248SOL     OW 5044   0.416   4.028   2.285  0.1121 -0.1573 -0.2655
 1248SOL    HW2 5045   0.362   3.962   2.330 -0.8086  0.1723 -0.8847
 1248SOL    HW3 5046   0.398   4.014   2.192 -0.7817  1.5463 -0.3680
 1248SOL    MW4 5047   0.406   4.017   2.279 -0.1273  0.1116 -0.3605
 1249SOL     OW 5048   0.429   4.300   2.339  0.0527  0.3658  0.1135
 1249SOL    HW2 5049   0.513   4.331   2.306  0.5708  0.7094  1.7061
 1249SOL    HW3 5050   0.429   4.206   2.318  0.9412  0.3140  0.3092
 1249SOL    MW4 5051   0.440   4.292   2.332  0.2382  0.4048  0.3495
 1250SOL     OW 5052   0.678   4.395   2.269 -0.4919 -0.3129  0.2504
 1250SOL    HW2 5053   0.661   4.487   2.289 -0.4602  0.0779 -1.4099
 1250SOL    HW3 5054   0.682   4.392   2.173  0.9698 -1.7825  0.3329
 1250SOL    MW4 5055   0.676   4.407   2.259 -0.2949 -0.4554  0.0422
 1251SOL     OW 5056   1.149   0.009   2.387 -0.1752 -0.2642  0.2477
 1251SOL    HW2 5057   1.154   0.002   2.482  1.9586  0.0426  0.2013
 1251SOL    HW3 5058   1.065   0.052   2.370 -0.3224  0.1979  2.0306
 1251SOL    MW4 5059   1.139   0.014   2.397  0.0869 -0.1626  0.4766
 1252SOL     OW 5060   0.900   0.108   2.311  0.6755  0.0910 -0.0552
 1252SOL    HW2 5061   0.877   0.200   2.328  1.0362  0.0563  0.6407
 1252SOL    HW3 5062   0.907   0.103   2.216 -2.6882 -0.0133 -0.3739
 1252SOL    MW4 5063   0.898   0.120   2.301  0.2793  0.0727 -0.0055
 1253SOL     OW 5064   0.873   0.387   2.379  0.4158  0.0274  0.0700
 1253SOL    HW2 5065   0.964   0.412   2.362  0.8030 -0.9235  0.7075
 1253SOL    HW3 5066   0.822   0.442   2.320  1.4387  0.1668 -0.7058
 1253SOL    MW4 5067   0.879   0.398   2.369  0.6018 -0.0797  0.0517
 1254SOL     OW 5068   1.102   0.487   2.236  0.3945  0.8338 -0.0820
 1254SOL    HW2 5069   1.181   0.444   2.268 -0.3446 -0.6969 -0.2629
 1254SOL    HW3 5070   1.117   0.497   2.142  0.6009  1.0558 -0.0272
 1254SOL    MW4 5071   1.115   0.482   2.228  0.3241  0.6611 -0.0985
 1255SOL     OW 5072   1.157   0.730   2.364 -0.2419  0.2263  0.4191
 1255SOL    HW2 5073   1.073   0.775   2.358  0.1587  0.8946 -0.2315
 1255SOL    HW3 5074   1.143   0.647   2.318 -0.9441 -0.2632  1.5130
 1255SOL    MW4 5075   1.144   0.725   2.357 -0.2817  0.2499  0.4773
 1256SOL     OW 5076   0.934   0.866   2.303 -0.1655 -0.1248  0.1753
 1256SOL    HW2 5077   0.952   0.954   2.337  0.7997 -0.0969 -0.3929
 1256SOL    HW3 5078   0.842   0.851   2.325 -0.5605  1.3301 -0.3692
 1256SOL    MW4 5079   0.924   0.876   2.311 -0.0904  0.0708  0.0284
 1257SOL     OW 5080   0.916   1.154   2.356 -0.2017  0.2958  0.0523
 1257SOL    HW2 5081   0.986   1.208   2.320 -0.1502  1.1608  1.4171
 1257SOL    HW3 5082   0.836   1.190   2.317 -0.1655  1.3707  0.9349
 1257SOL    MW4 5083   0.914   1.166   2.346 -0.1902  0.5517  0.3490
 1258SOL     OW 5084   1.159   1.294   2.279 -0.3858  0.1763  0.1439
 1258SOL    HW2 5085   1.224   1.227   2.302 -0.6446 -0.4137 -0.8306
 1258SOL    HW3 5086   1.166   1.302   2.184 -0.2380  1.6593  0.2825
 1258SOL    MW4 5087   1.168   1.286   2.269 -0.4005  0.2942  0.0336
 1259SOL     OW 5088   1.145   1.566   2.357 -0.1806 -0.0532  0.3721
 1259SOL    HW2 5089   1.056   1.592   2.330 -0.1296 -0.6538 -0.4143
 1259SOL    HW3 5090   1.148   1.472   2.340  0.9853  0.1660 -0.7032
 1259SOL    MW4 5091   1.133   1.557   2.351 -0.0200 -0.1034  0.1264
 1260SOL     OW 5092   0.900   1.649   2.300  0.1454  0.1228 -0.5331
 1260SOL    HW2 5093   0.892   1.741   2.328  1.7805  0.2129 -0.3523
 1260SOL    HW3 5094   0.903   1.653   2.205 -0.6467  0.1720 -0.5665
 1260SOL    MW4 5095   0.899   1.662   2.291  0.2567  0.1410 -0.5136
 1261SOL     OW 5096   0.895   1.937   2.352  0.1386 -0.2894  0.3624
 1261SOL    HW2 5097   0.897   1.952   2.447  0.2813 -1.7398  0.5939
 1261SOL    HW3 5098   0.980   1.969   2.322  0.1641  0.0097  0.7391
 1261SOL    MW4 5099   0.907   1.943   2.361  0.1609 -0.4413  0.4425
 1262SOL     OW 5100   1.115   2.067   2.293 -0.0746 -0.3762 -0.3158
 1262SOL    HW2 5101   1.198   2.021   2.309  1.2178  1.8113 -0.5532
 1262SOL    HW3 5102   1.108   2.072   2.198  0.3236  0.8284 -0.2877
 1262SOL    MW4 5103   1.125   2.061   2.283  0.1483  0.0715 -0.3433
 1263SOL     OW 5104   1.102   2.310   2.403 -0.1426 -0.0695 -0.4328
 1263SOL    HW2 5105   1.178   2.341   2.353  0.9731 -1.1400  0.5814
 1263SOL    HW3 5106   1.094   2.218   2.379 -0.1959 -0.3355  0.6076
 1263SOL    MW4 5107   1.111   2.302   2.393 -0.0025 -0.2456 -0.1616
 1264SOL     OW 5108   0.918   2.443   2.256 -0.1175 -0.2133 -0.2107
 1264SOL    HW2 5109   0.994   2.400   2.295 -0.4173 -0.0596  0.5473
 1264SOL    HW3 5110   0.938   2.447   2.163 -0.0647 -1.9593 -0.2941
 1264SOL    MW4 5111   0.930   2.438   2.249 -0.1501 -0.4234 -0.1218
 1265SOL     OW 5112   0.867   2.700   2.340 -0.2747  0.5086  0.1567
 1265SOL    HW2 5113   0.878   2.685   2.434  0.8495  0.5637  0.0386
 1265SOL    HW3 5114   0.879   2.614   2.300 -0.7867  0.4780  0.0611
 1265SOL    MW4 5115   0.870   2.687   2.347 -0.1938  0.5116  0.1287
 1266SOL     OW 5116   1.091   2.841   2.272  0.0262 -0.0354  0.0306
 1266SOL    HW2 5117   1.169   2.791   2.296 -0.1258  0.3793  1.4404
 1266SOL    HW3 5118   1.018   2.789   2.305 -0.2854 -0.2788 -1.0254
 1266SOL    MW4 5119   1.092   2.828   2.280 -0.0350 -0.0129  0.0775
 1267SOL     OW 5120   1.151   3.109   2.343 -0.0548 -0.2956  0.0260
 1267SOL    HW2 5121   1.068   3.151   2.320  0.2036 -0.0817 -0.5186
 1267SOL    HW3 5122   1.141   3.019   2.311  0.0991 -0.1461 -0.4332
 1267SOL    MW4 5123   1.139   3.102   2.336 -0.0004 -0.2477 -0.1063
 1268SOL     OW 5124   0.914   3.264   2.261  0.1792  0.6820  0.0281
 1268SOL    HW2 5125   0.884   3.350   2.291 -0.3732 -0.0992  1.7248
 1268SOL    HW3 5126   0.840   3.206   2.275  0.9672 -0.3375  0.0134
 1268SOL    MW4 5127   0.900   3.268   2.267  0.2103  0.4444  0.2499
 1269SOL     OW 5128   0.895   3.519   2.346 -0.8293 -0.0085 -0.0799
 1269SOL    HW2 5129   0.879   3.493   2.436 -1.3655 -0.0064 -0.1719
 1269SOL    HW3 5130   0.822   3.578   2.324  0.2850  1.4525  0.0763
 1269SOL    MW4 5131   0.883   3.524   2.355 -0.7531  0.1848 -0.0715
 1270SOL     OW 5132   1.133   3.605   2.243  0.0607 -0.2145  0.0639
 1270SOL    HW2 5133   1.195   3.546   2.285 -0.1383 -0.6062 -0.1918
 1270SOL    HW3 5134   1.048   3.579   2.279  0.1821  1.2020  1.4459
 1270SOL    MW4 5135   1.130   3.594   2.253  0.0505 -0.0794  0.2122
 1271SOL     OW 5136   1.111   3.869   2.326 -0.1286  0.1361  0.1790
 1271SOL    HW2 5137   1.197   3.904   2.304 -0.6691  0.2180 -1.8500
 1271SOL    HW3 5138   1.115   3.777   2.300 -0.7726  0.2211 -0.2175
 1271SOL    MW4 5139   1.123   3.861   2.320 -0.2849  0.1581 -0.1409
 1272SOL     OW 5140   0.882   3.993   2.206  0.1428 -0.2215 -0.1707
 1272SOL    HW2 5141   0.955   3.946   2.244 -0.1884  0.3091  1.1632
 1272SOL    HW3 5142   0.805   3.959   2.252 -0.1066  1.5281  0.7353
 1272SOL    MW4 5143   0.881   3.982   2.217  0.0662  0.0794  0.1247
 1273SOL     OW 5144   0.913   4.268   2.377  0.1220 -0.4618  0.1631
 1273SOL    HW2 5145   0.914   4.179   2.341  0.6006  0.3133 -1.7989
 1273SOL    HW3 5146   0.839   4.310   2.335  0.1660  0.2099  0.7465
 1273SOL    MW4 5147   0.904   4.262   2.367  0.1909 -0.2708 -0.0191
 1274SOL     OW 5148   1.149   4.391   2.282 -0.5710  0.0353 -0.0784
 1274SOL    HW2 5149   1.079   4.343   2.327  0.8144 -0.5157  1.5791
 1274SOL    HW3 5150   1.151   4.477   2.324  1.2392 -0.7449  1.5298
 1274SOL    MW4 5151   1.140   4.396   2.293 -0.1493 -0.1407  0.3526
 1275SOL     OW 5152   1.559   4.645   2.404  0.1398 -0.1542 -0.0796
 1275SOL    HW2 5153   1.645   4.678   2.378  0.2985  0.2011  0.8567
 1275SOL    HW3 5154   1.497   4.703   2.360  0.4050  0.6803  0.6246
 1275SOL    MW4 5155   1.563   4.657   2.395  0.1957  0.0029  0.1371
 1276SOL     OW 5156   1.373   0.128   2.281 -0.0572  0.2069  0.2328
 1276SOL    HW2 5157   1.360   0.220   2.302 -0.8414  0.0731  0.3540
 1276SOL    HW3 5158   1.301   0.083   2.325  0.3404 -0.4686  0.2091
 1276SOL    MW4 5159   1.362   0.134   2.290 -0.1081  0.1001  0.2456
 1277SOL     OW 5160   1.334   0.391   2.358  0.5293  0.1897 -0.5486
 1277SOL    HW2 5161   1.340   0.383   2.453  0.1999  0.5804 -0.4934
 1277SOL    HW3 5162   1.419   0.428   2.332  0.5981  0.1357 -0.4035
 1277SOL    MW4 5163   1.346   0.395   2.367  0.4951  0.2342 -0.5219
 1278SOL     OW 5164   1.595   0.479   2.289 -0.0746 -0.0773 -0.3697
 1278SOL    HW2 5165   1.672   0.425   2.309  1.4209  1.4896 -1.6862
 1278SOL    HW3 5166   1.605   0.502   2.197 -1.4241  1.2539 -0.2067
 1278SOL    MW4 5167   1.607   0.475   2.280 -0.0552  0.3051 -0.5221
 1279SOL     OW 5168   1.581   0.721   2.409  0.1513 -0.0668 -0.5884
 1279SOL    HW2 5169   1.634   0.769   2.345  0.1286  0.5701 -0.1409
 1279SOL    HW3 5170   1.572   0.633   2.372  1.8234 -0.2881 -0.5092
 1279SOL    MW4 5171   1.587   0.716   2.396  0.3691 -0.0120 -0.5186
 1280SOL     OW 5172   1.381   0.860   2.281  0.0554  0.0167  0.3772
 1280SOL    HW2 5173   1.452   0.804   2.314 -0.4646 -0.4135  0.7750
 1280SOL    HW3 5174   1.301   0.816   2.309 -0.3606  1.0962  0.9109
 1280SOL    MW4 5175   1.380   0.846   2.289 -0.0681  0.1023  0.5000
 1281SOL     OW 5176   1.364   1.122   2.386 -0.2526 -0.3735  0.2864
 1281SOL    HW2 5177   1.370   1.120   2.482 -0.0727  0.6678  0.3065
 1281SOL    HW3 5178   1.372   1.030   2.359 -1.5517 -0.8092  1.3333
 1281SOL    MW4 5179   1.366   1.109   2.395 -0.4003 -0.2936  0.4272
 1282SOL     OW 5180   1.596   1.257   2.306  0.0436 -0.0889 -0.1904
 1282SOL    HW2 5181   1.517   1.219   2.346 -0.5397  1.2811 -0.0011
 1282SOL    HW3 5182   1.577   1.257   2.212 -0.0683 -0.0226 -0.1685
 1282SOL    MW4 5183   1.583   1.252   2.299 -0.0482  0.1006 -0.1626
 1283SOL     OW 5184   1.573   1.540   2.321 -0.0936 -0.2888 -0.0424
 1283SOL    HW2 5185   1.658   1.575   2.294 -0.4180 -0.1866 -0.9318
 1283SOL    HW3 5186   1.586   1.445   2.322  0.8172 -0.1896  2.4733
 1283SOL    MW4 5187   1.586   1.532   2.318 -0.0162 -0.2623  0.1719
 1284SOL     OW 5188   1.356   1.704   2.235  0.0365  0.0373 -0.1004
 1284SOL    HW2 5189   1.431   1.662   2.277 -0.1606  0.4273  0.6545
 1284SOL    HW3 5190   1.282   1.648   2.259 -0.4077  1.3934  1.8536
 1284SOL    MW4 5191   1.356   1.691   2.244 -0.0480  0.2677  0.2570
 1285SOL     OW 5192   1.342   1.929   2.380 -0.5881  0.4044  0.0162
 1285SOL    HW2 5193   1.421   1.975   2.351 -0.9187  0.1545 -1.3029
 1285SOL    HW3 5194   1.351   1.840   2.346 -0.8874  0.0356  0.8730
 1285SOL    MW4 5195   1.353   1.924   2.372 -0.6711  0.3228 -0.0448
 1286SOL     OW 5196   1.562   2.069   2.275  0.0769  0.0379  0.0449
 1286SOL    HW2 5197   1.651   2.046   2.299  1.1263  2.6891 -1.1196
 1286SOL    HW3 5198   1.559   2.061   2.180 -1.0445 -0.3688  0.1025
 1286SOL    MW4 5199   1.573   2.065   2.266  0.0674  0.3338 -0.1011
 1287SOL     OW 5200   1.539   2.329   2.366  0.5275  0.2147 -0.1399
 1287SOL    HW2 5201   1.550   2.332   2.461 -1.2348 -0.3688  0.1111
 1287SOL    HW3 5202   1.553   2.237   2.344  0.4925  0.2701 -0.3895
 1287SOL    MW4 5203   1.542   2.317   2.376  0.2904  0.1452 -0.1397
 1288SOL     OW 5204   1.335   2.475   1.978  0.2053 -0.8933  0.4175
 1288SOL    HW2 5205   1.322   2.460   2.072 -0.5748 -1.1370  0.2692
 1288SOL    HW3 5206   1.396   2.407   1.951  0.6522 -0.6534  0.8030
 1288SOL    MW4 5207   1.342   2.464   1.987  0.1614 -0.8938  0.4488
 1289SOL     OW 5208   1.308   2.433   2.236  0.3095  0.3181 -0.0271
 1289SOL    HW2 5209   1.306   2.523   2.267  1.8622  0.3753 -0.0713
 1289SOL    HW3 5210   1.389   2.397   2.272  0.3630 -0.6641 -1.1133
 1289SOL    MW4 5211   1.319   2.440   2.245  0.5213  0.1957 -0.1764
 1290SOL     OW 5212   1.571   2.843   2.293  0.3403  0.2040 -0.1275
 1290SOL    HW2 5213   1.572   2.932   2.327  1.7148  0.4115 -0.6798
 1290SOL    HW3 5214   1.559   2.853   2.198 -0.0857 -0.2293 -0.1252
 1290SOL    MW4 5215   1.570   2.856   2.285  0.4654  0.1743 -0.2000
 1291SOL     OW 5216   1.581   3.100   2.368 -0.0681 -0.0761  0.1471
 1291SOL    HW2 5217   1.592   3.105   2.463 -0.8439 -0.1855  0.2478
 1291SOL    HW3 5218   1.516   3.168   2.348 -0.8655 -0.9132 -0.1370
 1291SOL    MW4 5219   1.574   3.110   2.378 -0.2756 -0.2007  0.1228
 1292SOL     OW 5220   1.385   3.268   2.265  0.5930  0.0830 -0.6674
 1292SOL    HW2 5221   1.319   3.205   2.292  1.1226 -0.0547  0.3664
 1292SOL    HW3 5222   1.389   3.261   2.170 -0.3496 -0.4306 -0.6731
 1292SOL    MW4 5223   1.377   3.259   2.256  0.5385 -0.0029 -0.5319
 1293SOL     OW 5224   1.351   3.512   2.371  0.2512  0.1772  0.2697
 1293SOL    HW2 5225   1.341   3.501   2.466  1.0575 -0.1406  0.3175
 1293SOL    HW3 5226   1.370   3.424   2.338  1.2719  0.4959 -0.0184
 1293SOL    MW4 5227   1.352   3.499   2.379  0.4922  0.1771  0.2379
 1294SOL     OW 5228   1.564   3.612   2.244 -0.5475 -0.0458 -0.1429
 1294SOL    HW2 5229   1.585   3.697   2.282 -1.1290  0.5892 -1.1877
 1294SOL    HW3 5230   1.478   3.590   2.280 -0.0610 -0.5542  0.7153
 1294SOL    MW4 5231   1.555   3.621   2.254 -0.5599 -0.0291 -0.1676
 1295SOL     OW 5232   1.595   3.842   2.383  0.0339  0.5600  0.5156
 1295SOL    HW2 5233   1.592   3.851   2.479  1.8524 -0.5879  0.6936
 1295SOL    HW3 5234   1.665   3.900   2.356  0.5796 -0.3154  0.0377
 1295SOL    MW4 5235   1.604   3.851   2.392  0.3459  0.2933  0.4759
 1296SOL     OW 5236   1.369   3.993   2.293  0.5610  0.1748 -0.1922
 1296SOL    HW2 5237   1.443   3.944   2.329  0.4921 -0.7615 -1.2803
 1296SOL    HW3 5238   1.371   3.973   2.200 -2.1390 -1.3628  0.0161
 1296SOL    MW4 5239   1.379   3.984   2.286  0.1956 -0.1516 -0.3083
 1297SOL     OW 5240   1.373   4.257   2.356 -0.6896 -0.5523  0.2551
 1297SOL    HW2 5241   1.369   4.167   2.324 -1.0239 -0.2508 -0.5605
 1297SOL    HW3 5242   1.290   4.296   2.330  0.2286  0.5515 -1.1403
 1297SOL    MW4 5243   1.362   4.250   2.348 -0.6126 -0.3672 -0.0367
 1298SOL     OW 5244   1.575   4.416   2.249  0.2120 -0.0697  0.2188
 1298SOL    HW2 5245   1.501   4.368   2.286  0.5377 -0.4649  0.3600
 1298SOL    HW3 5246   1.570   4.503   2.288 -0.2691 -0.0486  0.1101
 1298SOL    MW4 5247   1.565   4.421   2.259  0.1915 -0.1187  0.2229
 1299SOL     OW 5248   2.057   4.650   2.371  0.1059 -0.2055  0.4651
 1299SOL    HW2 5249   2.134   4.703   2.350  0.1485 -0.0078  1.1247
 1299SOL    HW3 5250   2.075   4.565   2.330 -0.5534  0.6683 -1.7294
 1299SOL    MW4 5251   2.070   4.645   2.362  0.0243 -0.0644  0.2627
 1300SOL     OW 5252   1.802   0.056   2.293  0.3868 -0.3047  0.1888
 1300SOL    HW2 5253   1.812   0.148   2.318  2.5420 -0.5837  0.4989
 1300SOL    HW3 5254   1.888   0.017   2.312  0.0622 -1.9758 -1.6482
 1300SOL    MW4 5255   1.815   0.063   2.299  0.6285 -0.5620 -0.0129
 1301SOL     OW 5256   1.810   0.315   2.364  0.4481  0.7908  0.5541
 1301SOL    HW2 5257   1.811   0.348   2.454  1.6656  0.5126  0.6588
 1301SOL    HW3 5258   1.888   0.353   2.324  0.5266  0.0158 -0.0529
 1301SOL    MW4 5259   1.821   0.324   2.370  0.6192  0.6518  0.4880
 1302SOL     OW 5260   2.018   0.467   2.283  0.3371  0.3268 -0.1559
 1302SOL    HW2 5261   2.011   0.554   2.322  0.3245  0.7504 -1.0869
 1302SOL    HW3 5262   2.036   0.484   2.191  1.0768 -0.6671 -0.1988
 1302SOL    MW4 5263   2.019   0.481   2.276  0.4330  0.2516 -0.2842
 1303SOL     OW 5264   1.987   0.718   2.395  0.3172  0.0816 -0.2303
 1303SOL    HW2 5265   2.059   0.777   2.370  0.3240 -0.6752 -2.0318
 1303SOL    HW3 5266   1.908   0.760   2.361  0.0416  0.2496  0.6009
 1303SOL    MW4 5267   1.986   0.732   2.387  0.2817  0.0039 -0.3583
 1304SOL     OW 5268   1.784   0.853   2.262 -0.0568 -0.1558 -0.3343
 1304SOL    HW2 5269   1.813   0.938   2.294 -1.3186  0.1922 -0.0858
 1304SOL    HW3 5270   1.793   0.858   2.167  0.9222 -0.1577 -0.2553
 1304SOL    MW4 5271   1.789   0.865   2.254 -0.0941 -0.1101 -0.2911
 1305SOL     OW 5272   1.824   1.111   2.367 -0.5710  0.3132  0.1988
 1305SOL    HW2 5273   1.897   1.165   2.335  0.0501  0.3843  1.7117
 1305SOL    HW3 5274   1.747   1.166   2.355 -0.2250  0.7089 -0.2690
 1305SOL    MW4 5275   1.824   1.125   2.361 -0.4433  0.3748  0.3366
 1306SOL     OW 5276   2.034   1.273   2.256 -0.3483 -0.1294  0.4340
 1306SOL    HW2 5277   2.010   1.352   2.305 -1.6331 -0.9124  1.1100
 1306SOL    HW3 5278   2.036   1.301   2.165  0.1893  0.9114  0.7499
 1306SOL    MW4 5279   2.031   1.287   2.251 -0.4468 -0.0954  0.5648
 1307SOL     OW 5280   1.991   1.517   2.395  0.1398  0.3599 -0.5394
 1307SOL    HW2 5281   2.014   1.520   2.488  1.3552  0.2160 -0.8244
 1307SOL    HW3 5282   1.924   1.585   2.384 -0.4792 -0.0604  0.5617
 1307SOL    MW4 5283   1.985   1.526   2.406  0.2184  0.2855 -0.4318
 1308SOL     OW 5284   1.806   1.672   2.286  0.5742 -0.0482 -0.2486
 1308SOL    HW2 5285   1.818   1.765   2.306 -1.0162 -0.0265  0.7283
 1308SOL    HW3 5286   1.788   1.670   2.192 -0.6519  0.7900 -0.0551
 1308SOL    MW4 5287   1.805   1.684   2.276  0.2025  0.0652 -0.0942
 1309SOL     OW 5288   1.794   1.954   2.347 -0.0078  0.4180 -0.1553
 1309SOL    HW2 5289   1.799   1.930   2.440 -1.4311 -0.3866 -0.2715
 1309SOL    HW3 5290   1.883   1.981   2.324  1.0068 -2.0363  0.7383
 1309SOL    MW4 5291   1.807   1.955   2.356 -0.0616 -0.0118 -0.0529
 1310SOL     OW 5292   2.035   2.072   2.253 -0.2850  0.9524 -0.6709
 1310SOL    HW2 5293   2.095   2.006   2.287 -1.3421  0.3297  0.0004
 1310SOL    HW3 5294   2.036   2.059   2.158 -0.4222  0.0220 -0.5469
 1310SOL    MW4 5295   2.043   2.062   2.245 -0.4425  0.7474 -0.5662
 1311SOL     OW 5296   1.996   2.325   2.339  0.0881  0.2216 -0.0896
 1311SOL    HW2 5297   2.071   2.376   2.308 -0.8724  2.6739  1.4462
 1311SOL    HW3 5298   2.016   2.235   2.313  1.7002  1.3908 -3.1867
 1311SOL    MW4 5299   2.009   2.320   2.331  0.1740  0.6995 -0.2956
 1312SOL     OW 5300   1.767   2.474   2.275 -0.2308  0.0771 -0.0584
 1312SOL    HW2 5301   1.833   2.417   2.315 -2.2009 -1.1197  1.6054
 1312SOL    HW3 5302   1.683   2.439   2.305 -1.6576  1.5550 -2.1167
 1312SOL    MW4 5303   1.764   2.462   2.284 -0.6790  0.1140 -0.1104
 1313SOL     OW 5304   1.803   2.724   2.411 -0.8367  0.2539  0.5283
 1313SOL    HW2 5305   1.804   2.630   2.394 -0.7148  0.3425  0.0288
 1313SOL    HW3 5306   1.730   2.757   2.359 -0.8844  0.4326  0.7110
 1313SOL    MW4 5307   1.794   2.716   2.402 -0.8268  0.2894  0.4864
 1314SOL     OW 5308   2.029   2.850   2.280  0.2896  0.1708  0.0221
 1314SOL    HW2 5309   2.104   2.792   2.297  0.4309  0.1432 -0.6848
 1314SOL    HW3 5310   1.960   2.816   2.336  0.6178 -0.1892  0.2149
 1314SOL    MW4 5311   2.030   2.838   2.290  0.3514  0.1199 -0.0458
 1315SOL     OW 5312   2.026   3.098   2.417 -0.1273  0.5105  0.3661
 1315SOL    HW2 5313   2.100   3.146   2.379  1.5187 -0.7647  1.8769
 1315SOL    HW3 5314   2.036   3.009   2.385  0.2414 -0.1569  2.2645
 1315SOL    MW4 5315   2.037   3.093   2.408  0.1383  0.2542  0.8159
 1316SOL     OW 5316   1.815   3.228   2.287  0.1698 -0.0154  0.0743
 1316SOL    HW2 5317   1.880   3.180   2.338  0.8067 -0.4231 -1.1243
 1316SOL    HW3 5318   1.735   3.176   2.294  0.2759 -0.1155  0.5754
 1316SOL    MW4 5319   1.813   3.215   2.295  0.2679 -0.0825 -0.0179
 1317SOL     OW 5320   1.803   3.498   2.361  0.1729  0.1255 -0.3846
 1317SOL    HW2 5321   1.794   3.406   2.336  2.4993 -0.1914 -0.1327
 1317SOL    HW3 5322   1.721   3.539   2.332  0.4112 -1.3795 -3.3277
 1317SOL    MW4 5323   1.791   3.492   2.354  0.5114 -0.1147 -0.7396
 1318SOL     OW 5324   2.007   3.635   2.240  0.3571  0.4642 -0.0475
 1318SOL    HW2 5325   1.949   3.564   2.266  0.7919 -0.4561 -1.5251
 1318SOL    HW3 5326   2.015   3.626   2.145  1.6608  1.5309 -0.0528
 1318SOL    MW4 5327   2.001   3.624   2.231  0.5865  0.4835 -0.2429
 1319SOL     OW 5328   1.987   3.875   2.356 -0.1231 -0.3273 -0.1302
 1319SOL    HW2 5329   1.977   3.860   2.450 -1.3237 -0.1915 -0.2268
 1319SOL    HW3 5330   1.991   3.788   2.318 -1.4058 -0.4165 -0.1121
 1319SOL    MW4 5331   1.986   3.862   2.363 -0.4507 -0.3211 -0.1404
 1320SOL     OW 5332   1.785   4.015   2.276  0.1224  0.1973 -0.2364
 1320SOL    HW2 5333   1.863   3.961   2.293 -0.2603  0.1400  1.4131
 1320SOL    HW3 5334   1.769   4.004   2.182  0.2703 -2.2980 -0.0080
 1320SOL    MW4 5335   1.793   4.006   2.266  0.0914 -0.1397  0.0112
 1321SOL     OW 5336   1.802   4.274   2.369  0.1351  0.5035 -0.2406
 1321SOL    HW2 5337   1.803   4.190   2.324  0.9842  0.5672 -0.3627
 1321SOL    HW3 5338   1.727   4.320   2.332  0.1241  0.0985 -0.7375
 1321SOL    MW4 5339   1.793   4.269   2.358  0.2456  0.4582 -0.3223
 1322SOL     OW 5340   2.038   4.386   2.289  0.4831  0.3482  0.1079
 1322SOL    HW2 5341   1.955   4.354   2.323  0.7726 -0.4720  0.0456
 1322SOL    HW3 5342   2.031   4.375   2.194  0.0137  1.8369 -0.0503
 1322SOL    MW4 5343   2.026   4.380   2.281  0.4594  0.4363  0.0787
 1323SOL     OW 5344   2.494   0.009   2.351  0.1002  0.2674 -0.3158
 1323SOL    HW2 5345   2.577   0.047   2.320 -0.2338  0.3548 -1.1341
 1323SOL    HW3 5346   2.503  -0.085   2.332 -0.3311  0.4007 -1.2336
 1323SOL    MW4 5347   2.506   0.001   2.344 -0.0010  0.2966 -0.5450
 1324SOL     OW 5348   2.267   0.159   2.271  0.0780  0.2395  0.3262
 1324SOL    HW2 5349   2.275   0.234   2.330 -0.9737 -0.7215  1.6993
 1324SOL    HW3 5350   2.335   0.098   2.299 -0.8010 -0.4739  0.9512
 1324SOL    MW4 5351   2.277   0.161   2.282 -0.1767  0.0185  0.5898
 1325SOL     OW 5352   2.240   0.405   2.415  0.9077  0.6821  0.2656
 1325SOL    HW2 5353   2.310   0.448   2.365  1.6422  0.1367  0.8208
 1325SOL    HW3 5354   2.159   0.434   2.372  1.5481 -0.4404 -1.7978
 1325SOL    MW4 5355   2.238   0.415   2.402  1.0891  0.4620  0.0665
 1326SOL     OW 5356   2.469   0.480   2.232 -0.0387 -0.0869 -0.0173
 1326SOL    HW2 5357   2.541   0.437   2.279 -0.6475 -1.1863 -0.0658
 1326SOL    HW3 5358   2.493   0.471   2.140  0.2594  0.4469  0.0081
 1326SOL    MW4 5359   2.482   0.473   2.226 -0.0796 -0.1616 -0.0205
 1327SOL     OW 5360   2.461   0.715   2.362  0.2593  0.2953 -0.4013
 1327SOL    HW2 5361   2.518   0.781   2.322  0.9885  0.5973  1.1019
 1327SOL    HW3 5362   2.486   0.633   2.321  1.6790  0.4503  0.1319
 1327SOL    MW4 5363   2.472   0.713   2.352  0.5424  0.3555 -0.1328
 1328SOL     OW 5364   2.230   0.842   2.253 -0.0126 -0.2984 -0.0511
 1328SOL    HW2 5365   2.248   0.930   2.285  1.8794  0.2440 -2.4946
 1328SOL    HW3 5366   2.298   0.787   2.291 -1.5207 -0.8697  1.9305
 1328SOL    MW4 5367   2.241   0.846   2.262  0.0381 -0.3021 -0.1121
 1329SOL     OW 5368   2.284   1.111   2.347  0.0215  0.1690 -0.6085
 1329SOL    HW2 5369   2.363   1.159   2.322  0.4665 -0.4067 -0.3098
 1329SOL    HW3 5370   2.212   1.167   2.317  0.5298  1.1856  0.0360
 1329SOL    MW4 5371   2.285   1.125   2.340  0.1471  0.2272 -0.4845
 1330SOL     OW 5372   2.495   1.266   2.284 -0.1131  0.3460 -0.1495
 1330SOL    HW2 5373   2.566   1.225   2.334 -0.8939  0.0717  0.7309
 1330SOL    HW3 5374   2.488   1.354   2.321 -0.2640  0.3592 -0.2127
 1330SOL    MW4 5375   2.504   1.273   2.295 -0.2358  0.3115 -0.0417
 1331SOL     OW 5376   2.470   1.520   2.370 -0.4363 -0.2143  0.2710
 1331SOL    HW2 5377   2.489   1.522   2.463  0.4206  1.1238  0.0788
 1331SOL    HW3 5378   2.549   1.556   2.328 -1.1746  0.0792 -0.8946
 1331SOL    MW4 5379   2.483   1.525   2.377 -0.4206  0.0010  0.0916
 1332SOL     OW 5380   2.229   1.623   2.283 -0.3028  0.3773 -0.2111
 1332SOL    HW2 5381   2.316   1.604   2.318  0.0994 -0.7193 -1.7443
 1332SOL    HW3 5382   2.171   1.562   2.329 -0.1396  0.5258  0.1985
 1332SOL    MW4 5383   2.233   1.613   2.294 -0.2282  0.2521 -0.3593
 1333SOL     OW 5384   2.212   1.917   2.370  0.0412 -0.4312 -0.1636
 1333SOL    HW2 5385   2.298   1.944   2.336  0.2094 -0.2441  0.3926
 1333SOL    HW3 5386   2.201   1.827   2.339  1.0033 -0.8956  0.7856
 1333SOL    MW4 5387   2.222   1.909   2.361  0.1905 -0.4678  0.0353
 1334SOL     OW 5388   2.453   2.014   2.255  0.0235 -0.4526 -0.3213
 1334SOL    HW2 5389   2.545   1.993   2.272 -0.2597 -1.4988 -0.0967
 1334SOL    HW3 5390   2.453   2.048   2.165  0.7372  0.3002 -0.0521
 1334SOL    MW4 5391   2.465   2.016   2.245  0.0801 -0.4914 -0.2563
 1335SOL     OW 5392   2.450   2.320   2.360 -0.0166  0.1340 -0.4600
 1335SOL    HW2 5393   2.529   2.362   2.325 -0.0736  1.1067  0.5482
 1335SOL    HW3 5394   2.452   2.231   2.323  0.8627  0.5612 -1.4712
 1335SOL    MW4 5395   2.461   2.313   2.351  0.0918  0.3188 -0.4601
 1336SOL     OW 5396   2.224   2.438   2.259 -0.1044 -0.1852  0.3222
 1336SOL    HW2 5397   2.237   2.523   2.302 -0.5359 -0.1737  0.4296
 1336SOL    HW3 5398   2.298   2.385   2.287 -0.2358 -0.0850  0.8493
 1336SOL    MW4 5399   2.236   2.442   2.268 -0.1788 -0.1707  0.4058
 1337SOL     OW 5400   2.260   2.703   2.336 -0.1317  0.3168  0.2535
 1337SOL    HW2 5401   2.245   2.714   2.430  1.7147  0.6855  0.5378
 1337SOL    HW3 5402   2.348   2.738   2.323 -0.5438  0.6407 -1.6903
 1337SOL    MW4 5403   2.270   2.709   2.347  0.0572  0.4079  0.0348
 1338SOL     OW 5404   2.518   2.850   2.347  0.0700  0.1346 -0.1413
 1338SOL    HW2 5405   2.601   2.805   2.356  0.5447  1.2415  1.1155
 1338SOL    HW3 5406   2.506   2.860   2.252  0.5907 -1.4295 -0.3767
 1338SOL    MW4 5407   2.527   2.846   2.336  0.2015  0.0744 -0.0064
 1339SOL     OW 5408   2.473   3.110   2.415  0.0610  0.1293 -0.0539
 1339SOL    HW2 5409   2.541   3.151   2.360 -0.1966 -0.3739 -0.7511
 1339SOL    HW3 5410   2.485   3.016   2.401 -0.0878  0.0080  0.6610
 1339SOL    MW4 5411   2.484   3.103   2.406  0.0076  0.0470 -0.0515
 1340SOL     OW 5412   2.249   3.225   2.288 -0.8999 -0.4118  0.2331
 1340SOL    HW2 5413   2.260   3.319   2.304 -1.0962 -0.2485 -0.5830
 1340SOL    HW3 5414   2.317   3.184   2.342  1.5332  0.3827 -2.1247
 1340SOL    MW4 5415   2.259   3.232   2.298 -0.6044 -0.2851 -0.1857
 1341SOL     OW 5416   2.263   3.525   2.325 -0.2984 -0.1195  0.1983
 1341SOL    HW2 5417   2.255   3.515   2.420 -0.0402 -0.2090  0.2091
 1341SOL    HW3 5418   2.174   3.549   2.297 -0.9813 -2.5865  0.1379
 1341SOL    MW4 5419   2.250   3.527   2.334 -0.3545 -0.4568  0.1917
 1342SOL     OW 5420   2.475   3.643   2.225  0.5981 -0.0559  0.4094
 1342SOL    HW2 5421   2.470   3.731   2.263 -1.9869  0.9644 -2.0860
 1342SOL    HW3 5422   2.398   3.598   2.260  0.6660 -0.5663 -0.1023
 1342SOL    MW4 5423   2.464   3.649   2.234  0.2661  0.0112  0.0126
 1343SOL     OW 5424   2.459   3.913   2.323 -0.1432 -0.3890 -0.3849
 1343SOL    HW2 5425   2.453   3.913   2.418  0.7889 -0.1787 -0.3221
 1343SOL    HW3 5426   2.370   3.933   2.293 -0.2849  0.2592  0.4545
 1343SOL    MW4 5427   2.447   3.916   2.331 -0.0389 -0.2759 -0.2661
 1344SOL     OW 5428   2.219   3.993   2.245 -0.2864 -0.7676  0.0028
 1344SOL    HW2 5429   2.226   4.079   2.285  0.8116 -0.1006 -1.5865
 1344SOL    HW3 5430   2.140   3.955   2.283 -0.2886  0.5811  1.3792
 1344SOL    MW4 5431   2.209   3.999   2.255 -0.1421 -0.5016 -0.0255
 1345SOL     OW 5432   2.256   4.229   2.410  0.7633  0.5302  0.0555
 1345SOL    HW2 5433   2.272   4.241   2.504 -1.2868 -1.1726  0.6654
 1345SOL    HW3 5434   2.179   4.282   2.391  0.1063 -0.5399 -0.2814
 1345SOL    MW4 5435   2.248   4.237   2.420  0.4060  0.1645  0.0918
 1346SOL     OW 5436   2.470   4.401   2.312 -0.2929  0.1181 -0.0443
 1346SOL    HW2 5437   2.551   4.358   2.339 -0.9535 -0.7296  0.5889
 1346SOL    HW3 5438   2.400   4.345   2.345 -1.1454  0.7251 -0.7780
 1346SOL    MW4 5439   2.472   4.388   2.320 -0.4926  0.0863 -0.0572
 1347SOL     OW 5440   2.951   0.008   2.355 -0.2412 -0.1487  0.6089
 1347SOL    HW2 5441   3.039   0.034   2.327 -0.0926 -1.5579 -0.2872
 1347SOL    HW3 5442   2.942  -0.082   2.324 -1.9365 -0.0771  0.8685
 1347SOL    MW4 5443   2.962  -0.000   2.347 -0.4451 -0.3252  0.5250
 1348SOL     OW 5444   2.721   0.133   2.243  0.0001  0.4944 -0.3828
 1348SOL    HW2 5445   2.715   0.217   2.289 -0.0555  1.2471 -1.7224
 1348SOL    HW3 5446   2.802   0.093   2.277  0.0301  1.0842  0.2560
 1348SOL    MW4 5447   2.731   0.139   2.254 -0.0031  0.6715 -0.4754
 1349SOL     OW 5448   2.683   0.383   2.379 -0.4591  0.0495 -0.0262
 1349SOL    HW2 5449   2.695   0.390   2.474  0.6738 -0.2799 -0.1364
 1349SOL    HW3 5450   2.759   0.428   2.342 -1.2279  0.7410 -0.7868
 1349SOL    MW4 5451   2.695   0.390   2.387 -0.4110  0.0972 -0.1414
 1350SOL     OW 5452   2.939   0.491   2.279 -0.2242  0.8113 -0.1163
 1350SOL    HW2 5453   2.933   0.584   2.297 -1.4673  0.8489 -0.6664
 1350SOL    HW3 5454   2.941   0.485   2.183 -1.8573  0.1987 -0.1249
 1350SOL    MW4 5455   2.938   0.502   2.268 -0.6037  0.7354 -0.1900
 1351SOL     OW 5456   2.897   0.802   2.325  0.3013  0.0497  0.2577
 1351SOL    HW2 5457   2.890   0.785   2.419  0.7909  1.5917  0.5861
 1351SOL    HW3 5458   2.810   0.832   2.299  0.4499  0.6154  0.4214
 1351SOL    MW4 5459   2.885   0.803   2.334  0.3855  0.3278  0.3228
 1352SOL     OW 5460   2.629   0.891   2.249  0.4833  0.0320  0.0881
 1352SOL    HW2 5461   2.667   0.974   2.278  0.1652  0.6353 -1.1851
 1352SOL    HW3 5462   2.667   0.876   2.163  0.7816 -1.3178  0.4373
 1352SOL    MW4 5463   2.639   0.900   2.241  0.4809 -0.0664 -0.0339
 1353SOL     OW 5464   2.741   1.118   2.375 -0.1653  0.2377 -0.3550
 1353SOL    HW2 5465   2.726   1.131   2.469  0.0842 -0.4119 -0.2194
 1353SOL    HW3 5466   2.804   1.186   2.351 -0.7641  0.8524 -0.2055
 1353SOL    MW4 5467   2.747   1.129   2.384 -0.2115  0.2329 -0.3173
 1354SOL     OW 5468   2.935   1.311   2.263 -0.1094  0.4544 -0.1864
 1354SOL    HW2 5469   3.019   1.275   2.292 -0.3203 -0.3274 -0.5320
 1354SOL    HW3 5470   2.941   1.314   2.168 -0.1794  1.1215 -0.1689
 1354SOL    MW4 5471   2.947   1.307   2.254 -0.1464  0.4393 -0.2301
 1355SOL     OW 5472   2.925   1.561   2.363 -0.4964  0.5877  0.2922
 1355SOL    HW2 5473   2.917   1.556   2.458  0.8723  1.6746  0.4780
 1355SOL    HW3 5474   2.950   1.472   2.336  0.4447  0.6108  1.0919
 1355SOL    MW4 5475   2.928   1.548   2.372 -0.1917  0.7343  0.4220
 1356SOL     OW 5476   2.687   1.665   2.250 -0.0305  0.1908 -0.1096
 1356SOL    HW2 5477   2.769   1.621   2.274 -0.4067 -0.3338  0.2312
 1356SOL    HW3 5478   2.683   1.659   2.155  0.2266  0.0357 -0.1094
 1356SOL    MW4 5479   2.697   1.658   2.241 -0.0463  0.1011 -0.0646
 1357SOL     OW 5480   2.691   1.925   2.326  0.2717  0.3491 -0.4300
 1357SOL    HW2 5481   2.695   1.936   2.421 -0.4689  1.0871 -0.4771
 1357SOL    HW3 5482   2.690   1.830   2.313 -0.7016  0.2362  0.3598
 1357SOL    MW4 5483   2.691   1.914   2.337  0.0455  0.4315 -0.3319
 1358SOL     OW 5484   2.912   2.091   2.253 -0.2037 -0.1674 -0.3460
 1358SOL    HW2 5485   2.995   2.055   2.283 -0.5209 -0.8956 -0.3270
 1358SOL    HW3 5486   2.847   2.027   2.281 -0.6736 -0.0508 -1.1689
 1358SOL    MW4 5487   2.914   2.078   2.261 -0.3076 -0.2480 -0.4520
 1359SOL     OW 5488   2.934   2.360   2.369 -0.1796  0.2679  0.5676
 1359SOL    HW2 5489   2.920   2.364   2.463 -0.2811 -0.1971  0.5707
 1359SOL    HW3 5490   2.928   2.267   2.347 -1.1875  0.4610 -0.0449
 1359SOL    MW4 5491   2.931   2.349   2.378 -0.3257  0.2320  0.4873
 1360SOL     OW 5492   2.696   2.437   2.255 -0.5095 -0.0019  0.2148
 1360SOL    HW2 5493   2.782   2.402   2.278 -0.8573 -0.7090  0.4281
 1360SOL    HW3 5494   2.701   2.450   2.160 -0.7256 -1.5939 -0.0303
 1360SOL    MW4 5495   2.708   2.434   2.245 -0.5839 -0.3052  0.2108
 1361SOL     OW 5496   2.732   2.675   2.369  0.0945  0.2353 -0.0232
 1361SOL    HW2 5497   2.793   2.719   2.310  0.4454 -1.0314 -0.6475
 1361SOL    HW3 5498   2.704   2.597   2.319 -0.3785 -0.3218  1.1004
 1361SOL    MW4 5499   2.736   2.670   2.354  0.0787 -0.0052  0.0427
 1362SOL     OW 5500   2.904   2.847   2.244  0.0759  0.0116 -0.5961
 1362SOL    HW2 5501   2.897   2.937   2.274  1.4957  0.3149 -1.1268
 1362SOL    HW3 5502   2.909   2.853   2.149  0.3693 -0.6111 -0.6287
 1362SOL    MW4 5503   2.904   2.859   2.235  0.3018 -0.0305 -0.6704
 1363SOL     OW 5504   2.900   3.103   2.360  0.4439 -0.0333 -0.5612
 1363SOL    HW2 5505   2.977   3.150   2.326 -0.4487  1.8432 -0.0745
 1363SOL    HW3 5506   2.825   3.156   2.331 -0.5451 -0.7095  0.7150
 1363SOL    MW4 5507   2.900   3.116   2.352  0.1955  0.1252 -0.3283
 1364SOL     OW 5508   2.690   3.239   2.265  0.3417 -0.3531 -0.2094
 1364SOL    HW2 5509   2.695   3.330   2.293 -2.6907  0.0253 -0.6449
 1364SOL    HW3 5510   2.712   3.241   2.172 -0.5097  0.1023 -0.4150
 1364SOL    MW4 5511   2.693   3.251   2.256 -0.1707 -0.2434 -0.2937
 1365SOL     OW 5512   2.668   3.502   2.359 -0.5307  0.0541  0.4111
 1365SOL    HW2 5513   2.746   3.529   2.311 -0.6842  0.7228  0.5298
 1365SOL    HW3 5514   2.597   3.550   2.318 -1.0851 -1.5808 -0.5776
 1365SOL    MW4 5515   2.669   3.512   2.347 -0.6239 -0.0734  0.2961
 1366SOL     OW 5516   2.900   3.610   2.234  0.1203  0.3710  0.3882
 1366SOL    HW2 5517   2.989   3.580   2.252  0.4779  0.8610 -0.5200
 1366SOL    HW3 5518   2.891   3.691   2.283 -0.3448 -0.4475  1.6744
 1366SOL    MW4 5519   2.911   3.617   2.243  0.1061  0.3276  0.4377
 1367SOL     OW 5520   2.875   3.857   2.374 -0.1024  0.0817  0.4694
 1367SOL    HW2 5521   2.870   3.862   2.470 -0.7127 -0.6937  0.4846
 1367SOL    HW3 5522   2.813   3.924   2.344 -0.6005 -0.3075  0.6219
 1367SOL    MW4 5523   2.866   3.866   2.383 -0.2487 -0.0722  0.4919
 1368SOL     OW 5524   2.697   4.049   2.250  0.1513  0.0538  0.1979
 1368SOL    HW2 5525   2.616   4.005   2.274  0.3682  0.2367  1.2864
 1368SOL    HW3 5526   2.696   4.050   2.154 -0.0990 -1.8437  0.1643
 1368SOL    MW4 5527   2.686   4.043   2.241  0.1469 -0.1726  0.3371
 1369SOL     OW 5528   2.706   4.274   2.398  0.2946  0.2555 -0.0113
 1369SOL    HW2 5529   2.697   4.242   2.488  0.2759 -0.1122 -0.1408
 1369SOL    HW3 5530   2.715   4.194   2.346 -0.3592  0.4470 -0.4104
 1369SOL    MW4 5531   2.706   4.259   2.403  0.2060  0.2327 -0.0811
 1370SOL     OW 5532   2.933   4.393   2.272  0.1084  0.3206  0.7263
 1370SOL    HW2 5533   3.005   4.344   2.311  0.3570 -0.8208 -1.1252
 1370SOL    HW3 5534   2.857   4.369   2.324  1.2061  2.5567  3.5673
 1370SOL    MW4 5535   2.933   4.384   2.284  0.2859  0.4649  0.8566
 1371SOL     OW 5536   3.373   4.613   2.335 -0.0798  0.0834 -0.0593
 1371SOL    HW2 5537   3.361   4.625   2.429  1.7967 -0.4698  0.2855
 1371SOL    HW3 5538   3.459   4.651   2.317 -0.6688  0.7026 -1.6694
 1371SOL    MW4 5539   3.383   4.619   2.345  0.0899  0.0920 -0.2265
 1372SOL     OW 5540   3.166   0.124   2.235 -0.1105 -0.2486 -0.2716
 1372SOL    HW2 5541   3.153   0.206   2.283 -0.7811 -1.5728  1.8743
 1372SOL    HW3 5542   3.257   0.100   2.252 -0.5282 -1.0382  0.8478
 1372SOL    MW4 5543   3.177   0.131   2.243 -0.2542 -0.5275  0.1593
 1373SOL     OW 5544   3.168   0.363   2.380  0.2637  0.0175 -0.5752
 1373SOL    HW2 5545   3.239   0.408   2.336 -0.1605  0.7329 -0.5320
 1373SOL    HW3 5546   3.089   0.411   2.355 -0.3761 -1.5988 -1.7262
 1373SOL    MW4 5547   3.167   0.375   2.371  0.1235 -0.1014 -0.7215
 1374SOL     OW 5548   3.378   0.508   2.271  0.1452  1.0228  0.1768
 1374SOL    HW2 5549   3.457   0.458   2.293 -1.0155 -1.2392 -0.6364
 1374SOL    HW3 5550   3.371   0.501   2.176 -0.9061  1.3709  0.2258
 1374SOL    MW4 5551   3.388   0.500   2.261 -0.1466  0.7703  0.0758
 1375SOL     OW 5552   3.350   0.767   2.354 -0.1409  0.1658 -0.5498
 1375SOL    HW2 5553   3.428   0.813   2.323 -0.1642  0.5789  0.0239
 1375SOL    HW3 5554   3.366   0.676   2.328  0.4528  0.2763 -0.5905
 1375SOL    MW4 5555   3.362   0.761   2.346 -0.0658  0.2348 -0.4797
 1376SOL     OW 5556   3.130   0.897   2.231  0.2187  0.0206 -0.8163
 1376SOL    HW2 5557   3.196   0.835   2.262  0.0836 -0.0853 -0.7453
 1376SOL    HW3 5558   3.047   0.865   2.266  0.2721  0.7882  0.0445
 1376SOL    MW4 5559   3.128   0.885   2.239  0.2081  0.1079 -0.6936
 1377SOL     OW 5560   3.172   1.179   2.374 -0.1951  0.1894 -0.4888
 1377SOL    HW2 5561   3.244   1.230   2.337 -0.2215  0.0759 -0.6937
 1377SOL    HW3 5562   3.170   1.099   2.322 -0.9315  0.5046 -0.9546
 1377SOL    MW4 5563   3.181   1.175   2.362 -0.2956  0.2161 -0.5774
 1378SOL     OW 5564   3.396   1.310   2.250  0.4230  0.4014  0.0497
 1378SOL    HW2 5565   3.470   1.258   2.281  0.2555 -0.7655 -1.4373
 1378SOL    HW3 5566   3.403   1.393   2.298  1.4131 -0.5164  1.5370
 1378SOL    MW4 5567   3.407   1.314   2.260  0.5317  0.1264  0.0498
 1379SOL     OW 5568   3.414   1.574   2.358  0.5549  0.0576 -0.5309
 1379SOL    HW2 5569   3.409   1.565   2.453  2.3532 -0.5629 -0.4763
 1379SOL    HW3 5570   3.331   1.616   2.334 -0.1862 -0.3332  1.2290
 1379SOL    MW4 5571   3.402   1.579   2.367  0.6943 -0.0759 -0.2911
 1380SOL     OW 5572   3.163   1.706   2.286 -0.2065  0.3075 -0.0088
 1380SOL    HW2 5573   3.153   1.799   2.305  1.7206  0.0529  2.5582
 1380SOL    HW3 5574   3.082   1.666   2.318 -0.4845  0.9406  0.0846
 1380SOL    MW4 5575   3.151   1.713   2.293  0.0112  0.3574  0.3421
 1381SOL     OW 5576   3.145   1.973   2.340 -0.2876  0.0281 -0.2410
 1381SOL    HW2 5577   3.153   1.960   2.434 -0.5122 -1.3719 -0.3962
 1381SOL    HW3 5578   3.229   2.010   2.313 -0.0776  0.0577  0.4584
 1381SOL    MW4 5579   3.158   1.976   2.349 -0.2897 -0.1527 -0.1690
 1382SOL     OW 5580   3.387   2.074   2.242  0.1530  0.5193 -0.0115
 1382SOL    HW2 5581   3.462   2.025   2.276  2.0924  2.6277 -1.0997
 1382SOL    HW3 5582   3.383   2.050   2.150 -1.4080 -0.6455  0.3435
 1382SOL    MW4 5583   3.396   2.064   2.235  0.2027  0.6437 -0.1080
 1383SOL     OW 5584   3.394   2.311   2.372 -0.5670 -0.0682 -0.0709
 1383SOL    HW2 5585   3.322   2.359   2.332 -1.4324 -1.1499  0.1570
 1383SOL    HW3 5586   3.398   2.228   2.323 -0.6501 -0.7654  1.0830
 1383SOL    MW4 5587   3.385   2.306   2.360 -0.6921 -0.3030  0.1116
 1384SOL     OW 5588   3.165   2.448   2.250  0.0878 -0.4156 -0.1195
 1384SOL    HW2 5589   3.161   2.541   2.271  1.3657 -0.1930 -0.8381
 1384SOL    HW3 5590   3.083   2.412   2.285 -0.5326  1.0155 -0.0873
 1384SOL    MW4 5591   3.154   2.455   2.258  0.1748 -0.1972 -0.2100
 1385SOL     OW 5592   3.135   2.700   2.331 -0.5010 -0.1352 -0.0497
 1385SOL    HW2 5593   3.130   2.702   2.427 -0.0728  0.4353 -0.0375
 1385SOL    HW3 5594   3.063   2.755   2.302 -0.8947 -0.6568 -0.0643
 1385SOL    MW4 5595   3.125   2.707   2.340 -0.4964 -0.1285 -0.0501
 1386SOL     OW 5596   3.374   2.796   2.241  0.0236  0.0878  0.3423
 1386SOL    HW2 5597   3.375   2.888   2.266 -0.3743  0.6467 -1.6133
 1386SOL    HW3 5598   3.296   2.760   2.283 -0.4798  0.9389  0.1431
 1386SOL    MW4 5599   3.364   2.804   2.250 -0.0951  0.2737  0.0582
 1387SOL     OW 5600   3.334   3.069   2.302 -0.6314 -0.2058 -0.1825
 1387SOL    HW2 5601   3.402   3.123   2.261 -0.2199 -0.1309  0.5980
 1387SOL    HW3 5602   3.253   3.118   2.287 -0.5444 -0.3736 -1.2561
 1387SOL    MW4 5603   3.332   3.082   2.295 -0.5655 -0.2182 -0.2210
 1388SOL     OW 5604   3.104   3.229   2.231  0.2315  0.3443  0.0144
 1388SOL    HW2 5605   3.111   3.320   2.260 -1.9781  1.0080 -1.4339
 1388SOL    HW3 5606   3.116   3.233   2.136  0.2360 -0.8937 -0.0450
 1388SOL    MW4 5607   3.107   3.242   2.222 -0.0596  0.2685 -0.1845
 1389SOL     OW 5608   3.122   3.486   2.321  0.3858 -0.4830  0.0478
 1389SOL    HW2 5609   3.114   3.488   2.416 -0.3693 -0.0602 -0.0175
 1389SOL    HW3 5610   3.203   3.534   2.302 -0.8009  1.7130  0.3359
 1389SOL    MW4 5611   3.131   3.493   2.331  0.1295 -0.1376  0.0772
 1390SOL     OW 5612   3.358   3.616   2.239 -0.3919 -0.5991 -0.0789
 1390SOL    HW2 5613   3.438   3.580   2.277  0.4721  1.9276  0.5693
 1390SOL    HW3 5614   3.381   3.634   2.147 -0.6149 -1.0977 -0.2308
 1390SOL    MW4 5615   3.372   3.614   2.232 -0.3073 -0.3316 -0.0134
 1391SOL     OW 5616   3.356   3.872   2.368  0.0336 -1.1007  0.3275
 1391SOL    HW2 5617   3.434   3.923   2.343 -0.7564 -0.5581 -1.1046
 1391SOL    HW3 5618   3.359   3.795   2.312 -0.5685 -0.9691  0.1091
 1391SOL    MW4 5619   3.367   3.869   2.357 -0.1500 -1.0118  0.1097
 1392SOL     OW 5620   3.110   3.998   2.311  0.0715  0.0796  0.1776
 1392SOL    HW2 5621   3.182   3.942   2.339 -0.3284 -1.5513 -1.9506
 1392SOL    HW3 5622   3.031   3.948   2.331 -0.3562  0.5676 -0.2869
 1392SOL    MW4 5623   3.109   3.984   2.317 -0.0374 -0.0713 -0.1643
 1393SOL     OW 5624   3.149   4.261   2.365  0.6044 -0.0564 -0.3373
 1393SOL    HW2 5625   3.231   4.284   2.322  0.4478 -0.0528 -0.6316
 1393SOL    HW3 5626   3.133   4.170   2.339  0.6377 -0.1328 -0.0905
 1393SOL    MW4 5627   3.158   4.252   2.356  0.5877 -0.0663 -0.3438
 1394SOL     OW 5628   3.394   4.351   2.263  0.2694 -0.0397  0.1575
 1394SOL    HW2 5629   3.388   4.441   2.297 -0.0261 -0.4276  1.1268
 1394SOL    HW3 5630   3.390   4.362   2.168 -1.3608  0.8503  0.3151
 1394SOL    MW4 5631   3.393   4.365   2.255  0.0155  0.0257  0.3061
 1395SOL     OW 5632   3.807   4.660   2.392  0.0562  0.4423  0.0390
 1395SOL    HW2 5633   3.829   4.657   2.485 -0.9030  2.1526  0.3464
 1395SOL    HW3 5634   3.876   4.711   2.352 -0.1451  0.6953  0.0120
 1395SOL    MW4 5635   3.819   4.666   2.399 -0.0970  0.7010  0.0761
 1396SOL     OW 5636   3.591   0.104   2.269 -0.1895 -0.1250 -0.3846
 1396SOL    HW2 5637   3.584   0.187   2.316 -1.9137 -0.1301 -0.5671
 1396SOL    HW3 5638   3.663   0.058   2.311  0.0271  0.9842  0.4835
 1396SOL    MW4 5639   3.599   0.109   2.281 -0.3886  0.0207 -0.2940
 1397SOL     OW 5640   3.612   0.360   2.353 -0.2912 -0.0101 -0.5353
 1397SOL    HW2 5641   3.605   0.380   2.446 -2.0533  0.9620 -0.8676
 1397SOL    HW3 5642   3.694   0.402   2.326 -0.3900  0.7353  0.3060
 1397SOL    MW4 5643   3.622   0.368   2.362 -0.5367  0.2165 -0.4680
 1398SOL     OW 5644   3.857   0.506   2.256 -0.5263 -0.5806 -0.0104
 1398SOL    HW2 5645   3.845   0.599   2.272  0.9227 -0.4375  0.3452
 1398SOL    HW3 5646   3.829   0.493   2.166 -0.5769  0.2344 -0.1146
 1398SOL    MW4 5647   3.852   0.516   2.246 -0.3417 -0.4541  0.0226
 1399SOL     OW 5648   3.810   0.780   2.308  0.4951  0.2884  0.1273
 1399SOL    HW2 5649   3.809   0.762   2.403  0.6425 -1.0573 -0.1154
 1399SOL    HW3 5650   3.887   0.835   2.295  0.1489  0.9677  0.8693
 1399SOL    MW4 5651   3.820   0.785   2.319  0.4692  0.2004  0.1934
 1400SOL     OW 5652   3.560   0.889   2.232 -0.5501 -0.1396  0.3298
 1400SOL    HW2 5653   3.641   0.845   2.259 -0.4923  1.4524  2.8403
 1400SOL    HW3 5654   3.561   0.883   2.137  2.9770  0.6561  0.2532
 1400SOL    MW4 5655   3.571   0.882   2.223 -0.0772  0.1755  0.6511
 1401SOL     OW 5656   3.620   1.156   2.336  0.3632  0.0579  0.2234
 1401SOL    HW2 5657   3.603   1.147   2.429 -2.0874 -0.0304 -0.2035
 1401SOL    HW3 5658   3.603   1.069   2.300  2.7159 -0.3062 -0.1485
 1401SOL    MW4 5659   3.616   1.143   2.343  0.3502 -0.0018  0.1180
 1402SOL     OW 5660   3.859   1.260   2.245  0.2108 -0.2235  0.5703
 1402SOL    HW2 5661   3.860   1.349   2.281  0.8395  0.2177 -0.4910
 1402SOL    HW3 5662   3.778   1.222   2.278 -1.8695  1.9655 -1.7621
 1402SOL    MW4 5663   3.849   1.267   2.254  0.0191  0.1235  0.1225
 1403SOL     OW 5664   3.836   1.516   2.354  0.1149  0.2664 -0.1939
 1403SOL    HW2 5665   3.854   1.524   2.448  0.3425  0.3241 -0.2427
 1403SOL    HW3 5666   3.762   1.575   2.339  2.0022  2.6160 -0.6176
 1403SOL    MW4 5667   3.829   1.525   2.364  0.3939  0.5840 -0.2561
 1404SOL     OW 5668   3.638   1.694   2.266  0.0983  0.3894  0.0784
 1404SOL    HW2 5669   3.550   1.665   2.290  1.3137 -2.9616  0.7490
 1404SOL    HW3 5670   3.643   1.680   2.171 -0.0770  0.5275  0.0498
 1404SOL    MW4 5671   3.627   1.688   2.257  0.2353 -0.0347  0.1628
 1405SOL     OW 5672   3.632   1.960   2.353 -0.2900  0.6900 -0.0160
 1405SOL    HW2 5673   3.719   1.992   2.328  0.5352  0.2928  2.2083
 1405SOL    HW3 5674   3.636   1.866   2.338  0.1693  0.4666  1.4062
 1405SOL    MW4 5675   3.644   1.952   2.348 -0.1204  0.6081  0.4649
 1406SOL     OW 5676   3.892   2.044   2.285 -0.2776 -0.1240 -0.0679
 1406SOL    HW2 5677   3.979   2.005   2.290 -0.3701 -0.2477  0.6505
 1406SOL    HW3 5678   3.870   2.043   2.192  1.0514  1.1333 -0.4147
 1406SOL    MW4 5679   3.900   2.039   2.273 -0.1144  0.0255 -0.0188
 1407SOL     OW 5680   3.871   2.308   2.393 -0.2810  0.0055 -0.3726
 1407SOL    HW2 5681   3.786   2.334   2.357 -0.2437  0.6762  0.0179
 1407SOL    HW3 5682   3.883   2.218   2.362 -1.2153 -0.1646 -0.2784
 1407SOL    MW4 5683   3.861   2.299   2.384 -0.3991  0.0715 -0.3088
 1408SOL     OW 5684   3.635   2.415   2.270 -0.0057  0.9951  0.0865
 1408SOL    HW2 5685   3.546   2.394   2.296  0.0544 -1.1590 -1.3864
 1408SOL    HW3 5686   3.636   2.406   2.175  2.1484 -0.5228  0.2060
 1408SOL    MW4 5687   3.623   2.411   2.261  0.2866  0.5107 -0.0920
 1409SOL     OW 5688   3.589   2.678   2.359  0.3173 -0.7421 -0.1534
 1409SOL    HW2 5689   3.600   2.587   2.335  0.3159 -1.1504  1.3387
 1409SOL    HW3 5690   3.499   2.699   2.333  0.0412 -1.4076  0.2441
 1409SOL    MW4 5691   3.578   2.669   2.352  0.2809 -0.8836  0.0958
 1410SOL     OW 5692   3.806   2.827   2.237  0.3609  0.0634 -0.3156
 1410SOL    HW2 5693   3.800   2.916   2.273 -0.1741 -0.3621  0.6560
 1410SOL    HW3 5694   3.733   2.780   2.277  0.8194 -0.9030 -0.6043
 1410SOL    MW4 5695   3.795   2.833   2.247  0.3510 -0.1204 -0.2253
 1411SOL     OW 5696   3.817   3.081   2.346  0.2489  0.5727 -0.2101
 1411SOL    HW2 5697   3.807   3.109   2.436  0.1665 -0.6871  0.1826
 1411SOL    HW3 5698   3.900   3.120   2.317 -0.5914  2.4541 -0.1778
 1411SOL    MW4 5699   3.827   3.090   2.354  0.1268  0.6549 -0.1540
 1412SOL     OW 5700   3.579   3.207   2.263  0.6310 -0.2367 -0.1654
 1412SOL    HW2 5701   3.587   3.298   2.289  0.7189  0.0681 -1.2547
 1412SOL    HW3 5702   3.662   3.167   2.291  0.1891 -0.2087  1.1979
 1412SOL    MW4 5703   3.591   3.213   2.270  0.5841 -0.1926 -0.1295
 1413SOL     OW 5704   3.586   3.494   2.328  0.2233  0.1369  0.9935
 1413SOL    HW2 5705   3.578   3.503   2.423  1.3457  0.7690  1.0365
 1413SOL    HW3 5706   3.668   3.538   2.306  0.2254 -0.4297 -0.2108
 1413SOL    MW4 5707   3.596   3.501   2.338  0.3717  0.1459  0.8404
 1414SOL     OW 5708   3.816   3.595   2.222  0.2339 -0.1216  0.0714
 1414SOL    HW2 5709   3.800   3.680   2.263 -0.8482  0.2615 -1.1334
 1414SOL    HW3 5710   3.814   3.612   2.128  0.2055 -1.4421 -0.1776
 1414SOL    MW4 5711   3.814   3.608   2.215  0.0873 -0.2451 -0.1202
 1415SOL     OW 5712   3.774   3.828   2.357 -0.8980 -0.4769  0.2032
 1415SOL    HW2 5713   3.788   3.825   2.452 -0.6619  1.3477  0.2468
 1415SOL    HW3 5714   3.839   3.891   2.325 -1.7139 -0.2414 -1.0215
 1415SOL    MW4 5715   3.785   3.836   2.366 -0.9744 -0.2053  0.0474
 1416SOL     OW 5716   3.581   4.000   2.289 -0.2757 -0.1109 -0.2342
 1416SOL    HW2 5717   3.610   4.089   2.309 -0.1227 -0.1505 -0.2820
 1416SOL    HW3 5718   3.648   3.944   2.326  0.4269 -0.1590 -1.5594
 1416SOL    MW4 5719   3.593   4.005   2.296 -0.1631 -0.1230 -0.4156
 1417SOL     OW 5720   3.624   4.261   2.363  0.5419 -0.7721  0.3691
 1417SOL    HW2 5721   3.692   4.320   2.329 -0.4938  0.1687 -0.1314
 1417SOL    HW3 5722   3.545   4.287   2.316 -0.5371 -0.6989  2.1564
 1417SOL    MW4 5723   3.623   4.272   2.352  0.2630 -0.6385  0.5388
 1418SOL     OW 5724   3.823   4.417   2.257 -0.1582 -0.4052 -0.0861
 1418SOL    HW2 5725   3.894   4.367   2.299  1.6537  1.2074 -1.1439
 1418SOL    HW3 5726   3.829   4.504   2.296 -1.3830 -0.1802 -0.4008
 1418SOL    MW4 5727   3.833   4.422   2.268 -0.0806 -0.1626 -0.2670
 1419SOL     OW 5728   4.268   4.609   2.323 -0.0367  0.0468  0.0229
 1419SOL    HW2 5729   4.255   4.627   2.416 -1.4452  2.1997 -0.5521
 1419SOL    HW3 5730   4.332   4.674   2.294 -0.9431  0.5443 -0.8985
 1419SOL    MW4 5731   4.275   4.620   2.331 -0.3424  0.3967 -0.1743
 1420SOL     OW 5732   4.045   0.106   2.281  0.3889  0.0920  0.2095
 1420SOL    HW2 5733   4.075   0.196   2.292  0.2652  0.1097  0.4065
 1420SOL    HW3 5734   4.124   0.053   2.295  0.2949  0.1292  0.9412
 1420SOL    MW4 5735   4.059   0.111   2.284  0.3595  0.0992  0.3319
 1421SOL     OW 5736   4.085   0.356   2.363  0.3204 -0.0162  0.4890
 1421SOL    HW2 5737   4.160   0.391   2.314 -0.2353 -0.6873 -0.8746
 1421SOL    HW3 5738   4.009   0.402   2.327  0.0082  0.2981  1.5212
 1421SOL    MW4 5739   4.085   0.367   2.352  0.2060 -0.0633  0.4451
 1422SOL     OW 5740   4.297   0.481   2.248 -0.3919 -0.1962 -0.4721
 1422SOL    HW2 5741   4.297   0.574   2.271  0.3925  0.0414 -1.3944
 1422SOL    HW3 5742   4.367   0.443   2.301 -0.1500 -0.0922 -0.7133
 1422SOL    MW4 5743   4.306   0.488   2.258 -0.2565 -0.1511 -0.6254
 1423SOL     OW 5744   4.257   0.748   2.310 -0.4653 -0.1527  0.0854
 1423SOL    HW2 5745   4.179   0.802   2.301 -0.1178  0.6810  1.8459
 1423SOL    HW3 5746   4.327   0.800   2.271 -0.8254 -1.0452 -1.8019
 1423SOL    MW4 5747   4.256   0.762   2.304 -0.4673 -0.1605  0.0687
 1424SOL     OW 5748   4.045   0.905   2.244 -0.6332 -0.2235 -0.2423
 1424SOL    HW2 5749   4.068   0.992   2.276 -0.2517 -0.7375  0.8903
 1424SOL    HW3 5750   4.056   0.910   2.149  0.1413  0.7349 -0.0955
 1424SOL    MW4 5751   4.049   0.917   2.236 -0.4811 -0.1648 -0.0732
 1425SOL     OW 5752   4.089   1.152   2.348 -0.0378 -0.3803 -0.1553
 1425SOL    HW2 5753   4.075   1.153   2.443 -1.0820 -0.6938 -0.2936
 1425SOL    HW3 5754   4.004   1.175   2.311  0.5283  0.3828 -1.0120
 1425SOL    MW4 5755   4.076   1.155   2.355 -0.1011 -0.3209 -0.2868
 1426SOL     OW 5756   4.308   1.293   2.254  0.2924 -0.3030 -0.6224
 1426SOL    HW2 5757   4.232   1.246   2.287  0.1574  0.2525 -0.1545
 1426SOL    HW3 5758   4.382   1.254   2.301  0.2639 -0.5762 -0.7991
 1426SOL    MW4 5759   4.308   1.281   2.265  0.2708 -0.2657 -0.5839
 1427SOL     OW 5760   4.284   1.535   2.357 -0.1073 -0.1971  0.6075
 1427SOL    HW2 5761   4.292   1.448   2.318  0.3482  0.1423 -0.0801
 1427SOL    HW3 5762   4.359   1.583   2.322 -1.3165  0.9852 -0.3967
 1427SOL    MW4 5763   4.295   1.530   2.347 -0.2065  0.0036  0.3843
 1428SOL     OW 5764   4.061   1.660   2.259  0.2015 -0.0281  0.2152
 1428SOL    HW2 5765   4.138   1.617   2.297  0.9545  0.5289 -0.6590
 1428SOL    HW3 5766   3.986   1.610   2.293  1.0092 -1.4592 -0.0790
 1428SOL    MW4 5767   4.061   1.648   2.269  0.4077 -0.1435  0.0610
 1429SOL     OW 5768   4.123   1.903   2.339  0.1093  0.0233  0.2562
 1429SOL    HW2 5769   4.085   1.911   2.427  0.0034 -0.4206  0.2503
 1429SOL    HW3 5770   4.104   1.813   2.313  2.0674 -0.5404  0.6861
 1429SOL    MW4 5771   4.116   1.892   2.347  0.3538 -0.1097  0.3121
 1430SOL     OW 5772   4.319   2.070   2.251 -0.3137 -0.0317  0.0353
 1430SOL    HW2 5773   4.297   2.156   2.286 -0.5648 -0.3210  0.5897
 1430SOL    HW3 5774   4.243   2.016   2.270 -0.8142  0.0124 -1.7050
 1430SOL    MW4 5775   4.306   2.074   2.258 -0.4129 -0.0641 -0.1211
 1431SOL     OW 5776   4.297   2.334   2.354  0.3054  0.0361  0.1693
 1431SOL    HW2 5777   4.213   2.374   2.333  1.1488  0.6164 -2.3648
 1431SOL    HW3 5778   4.362   2.393   2.315  1.7380 -1.8348 -0.3885
 1431SOL    MW4 5779   4.295   2.347   2.346  0.6061 -0.1342 -0.2384
 1432SOL     OW 5780   4.062   2.461   2.250  0.1189  0.3293  0.4662
 1432SOL    HW2 5781   4.054   2.550   2.283 -1.3608  0.2029  0.4559
 1432SOL    HW3 5782   4.002   2.410   2.304  1.9520 -0.9283  1.3890
 1432SOL    MW4 5783   4.053   2.466   2.261  0.1659  0.1466  0.5863
 1433SOL     OW 5784   4.045   2.723   2.347 -0.0688  0.1253  0.2337
 1433SOL    HW2 5785   4.039   2.720   2.442 -0.9461  0.6814  0.2005
 1433SOL    HW3 5786   3.958   2.750   2.318 -0.3528 -1.8481 -0.8291
 1433SOL    MW4 5787   4.033   2.726   2.356 -0.2217 -0.0615  0.0892
 1434SOL     OW 5788   4.280   2.867   2.290 -0.1466  0.0374 -0.1164
 1434SOL    HW2 5789   4.202   2.822   2.322  0.2517 -0.3034  0.4070
 1434SOL    HW3 5790   4.353   2.814   2.324  0.2907 -0.3152 -1.5763
 1434SOL    MW4 5791   4.280   2.854   2.299 -0.0362 -0.0541 -0.2398
 1435SOL     OW 5792   4.281   3.135   2.385 -0.2165 -0.2400  0.0248
 1435SOL    HW2 5793   4.280   3.046   2.349  1.1914 -0.4653  0.5062
 1435SOL    HW3 5794   4.354   3.178   2.339 -0.6225  0.5300  0.1025
 1435SOL    MW4 5795   4.291   3.129   2.374 -0.0844 -0.1681  0.0985
 1436SOL     OW 5796   4.039   3.225   2.280  0.2857  0.5198  0.2779
 1436SOL    HW2 5797   4.045   3.308   2.328 -0.4185  0.9178 -0.3090
 1436SOL    HW3 5798   4.123   3.181   2.297  0.8091  1.5119  0.2983
 1436SOL    MW4 5799   4.051   3.230   2.288  0.2613  0.7031  0.2031
 1437SOL     OW 5800   4.041   3.499   2.360  0.3242  0.1613 -0.1742
 1437SOL    HW2 5801   4.113   3.549   2.322  0.1920  0.5185  0.0353
 1437SOL    HW3 5802   3.964   3.525   2.310  0.2349  0.2585  0.0109
 1437SOL    MW4 5803   4.040   3.509   2.349  0.2952  0.2215 -0.1221
 1438SOL     OW 5804   4.243   3.636   2.249  0.0186  0.0777 -0.3823
 1438SOL    HW2 5805   4.240   3.723   2.288 -0.9886 -0.5937  1.0967
 1438SOL    HW3 5806   4.238   3.651   2.155  0.6485  1.6412 -0.1790
 1438SOL    MW4 5807   4.242   3.649   2.242 -0.0310  0.1953 -0.1605
 1439SOL     OW 5808   4.219   3.904   2.324  0.0501  0.4742  0.0654
 1439SOL    HW2 5809   4.230   3.915   2.419 -0.8973 -0.0162  0.2371
 1439SOL    HW3 5810   4.296   3.946   2.286  0.6550  0.2947  1.0734
 1439SOL    MW4 5811   4.231   3.911   2.332  0.0048  0.3858  0.2210
 1440SOL     OW 5812   3.965   4.016   2.249 -0.2191  0.1633  0.5795
 1440SOL    HW2 5813   4.053   3.983   2.265  0.3218  0.9224 -0.7893
 1440SOL    HW3 5814   3.963   4.034   2.155 -1.9575 -0.2229  0.5256
 1440SOL    MW4 5815   3.976   4.014   2.238 -0.3769  0.2122  0.3915
 1441SOL     OW 5816   4.016   4.271   2.381 -0.1356 -0.0133 -0.0429
 1441SOL    HW2 5817   4.089   4.314   2.337  0.0227 -0.0777  0.1555
 1441SOL    HW3 5818   4.013   4.183   2.344 -0.9655  0.4198 -1.0304
 1441SOL    MW4 5819   4.025   4.265   2.370 -0.2241  0.0353 -0.1471
 1442SOL     OW 5820   4.244   4.349   2.219  0.1346 -0.1176  0.4356
 1442SOL    HW2 5821   4.251   4.442   2.240  0.2677 -0.1447  0.5111
 1442SOL    HW3 5822   4.319   4.308   2.263 -0.0439 -0.2911  0.5829
 1442SOL    MW4 5823   4.255   4.356   2.228  0.1283 -0.1440  0.4654
 1443SOL     OW 5824   0.230   0.015   2.625  0.2717 -0.0311  0.0905
 1443SOL    HW2 5825   0.242  -0.077   2.647 -0.4149 -0.2314 -0.3352
 1443SOL    HW3 5826   0.144   0.038   2.662 -0.3865 -0.0707 -1.3655
 1443SOL    MW4 5827   0.220   0.006   2.632  0.0943 -0.0625 -0.1578
 1444SOL     OW 5828   4.461   0.094   2.735  0.3151  0.5949  0.2777
 1444SOL    HW2 5829   4.464   0.082   2.830 -0.4895  0.3595  0.2777
 1444SOL    HW3 5830   4.484   0.186   2.722 -0.8584  0.9637  0.7918
 1444SOL    MW4 5831   4.464   0.105   2.746  0.0544  0.6125  0.3455
 1445SOL     OW 5832   4.441   0.359   2.657 -0.3154  0.0594 -0.4885
 1445SOL    HW2 5833   4.514   0.410   2.694 -0.2556 -0.3244 -0.0751
 1445SOL    HW3 5834   4.450   0.370   2.562 -0.0839  0.5186 -0.4172
 1445SOL    MW4 5835   4.452   0.367   2.649 -0.2775  0.0694 -0.4244
 1446SOL     OW 5836   0.183   0.485   2.732  0.4801 -0.2774 -0.2773
 1446SOL    HW2 5837   0.203   0.492   2.825  0.4744  3.6173 -0.5026
 1446SOL    HW3 5838   0.265   0.455   2.692  0.9723 -0.3579  0.7828
 1446SOL    MW4 5839   0.197   0.482   2.739  0.5442  0.2258 -0.1674
 1447SOL     OW 5840   0.217   0.733   2.616  0.4698  0.1641 -0.8895
 1447SOL    HW2 5841   0.291   0.760   2.670  1.2431 -1.4423 -1.1335
 1447SOL    HW3 5842   0.197   0.644   2.644 -0.4659  0.0673 -1.8084
 1447SOL    MW4 5843   0.224   0.725   2.627  0.4484 -0.0606 -1.0428
 1448SOL     OW 5844   0.013   0.856   2.719 -0.0738  0.0249 -0.2030
 1448SOL    HW2 5845  -0.062   0.818   2.674  0.1127 -0.1780 -0.3481
 1448SOL    HW3 5846   0.088   0.807   2.685  0.0669 -0.1603  0.3595
 1448SOL    MW4 5847   0.013   0.844   2.709 -0.0315 -0.0263 -0.1476
 1449SOL     OW 5848   4.484   1.122   2.647 -0.0371 -0.1930 -0.2744
 1449SOL    HW2 5849   4.567   1.156   2.679 -0.1617 -0.2808  0.1410
 1449SOL    HW3 5850   4.487   1.028   2.666 -0.2881 -0.1740 -0.1376
 1449SOL    MW4 5851   4.495   1.114   2.654 -0.0868 -0.2021 -0.2015
 1450SOL     OW 5852   0.230   1.258   2.743 -0.1637  0.1719 -0.1780
 1450SOL    HW2 5853   0.295   1.203   2.699  0.1096  0.1899  0.2065
 1450SOL    HW3 5854   0.235   1.342   2.698 -0.6649 -0.1462 -0.8501
 1450SOL    MW4 5855   0.239   1.262   2.731 -0.1937  0.1323 -0.2160
 1451SOL     OW 5856   0.244   1.506   2.624 -0.4614 -0.3655  0.0469
 1451SOL    HW2 5857   0.314   1.558   2.665  0.0045 -0.7945 -0.2029
 1451SOL    HW3 5858   0.164   1.556   2.641  0.0521  0.7251 -0.6715
 1451SOL    MW4 5859   0.243   1.520   2.632 -0.3322 -0.2781 -0.0808
 1452SOL     OW 5860   0.028   1.655   2.685  0.0426 -0.1697 -0.1465
 1452SOL    HW2 5861   0.017   1.660   2.780  0.7765  1.2271 -0.1166
 1452SOL    HW3 5862   0.025   1.746   2.656 -0.1808 -0.5886 -1.4689
 1452SOL    MW4 5863   0.026   1.668   2.694  0.1100 -0.0409 -0.3173
 1453SOL     OW 5864   0.004   1.942   2.636 -0.1620  0.2741 -0.4569
 1453SOL    HW2 5865   0.067   1.995   2.685  0.1139 -0.6881  0.2499
 1453SOL    HW3 5866   0.032   1.949   2.545  0.6740  0.2561 -0.2059
 1453SOL    MW4 5867   0.016   1.950   2.631 -0.0153  0.1448 -0.3307
 1454SOL     OW 5868   0.224   2.088   2.754  0.4631 -0.6086  0.2975
 1454SOL    HW2 5869   0.298   2.040   2.717  0.1459 -1.3718  0.6400
 1454SOL    HW3 5870   0.239   2.179   2.729  0.5225 -1.0406 -1.2391
 1454SOL    MW4 5871   0.236   2.094   2.746  0.4291 -0.7663  0.1400
 1455SOL     OW 5872   0.244   2.351   2.641  0.3092  0.1137  0.2476
 1455SOL    HW2 5873   0.330   2.391   2.651  0.0430  0.4937  1.0220
 1455SOL    HW3 5874   0.185   2.407   2.691 -0.4469  0.0400 -0.5473
 1455SOL    MW4 5875   0.248   2.364   2.649  0.1744  0.1540  0.2449
 1456SOL     OW 5876   4.479   2.483   2.744 -0.1228  0.2548 -0.4367
 1456SOL    HW2 5877   4.473   2.466   2.838 -0.3744  1.9585 -0.1268
 1456SOL    HW3 5878   4.404   2.437   2.707 -0.9770  0.9354  0.4079
 1456SOL    MW4 5879   4.468   2.474   2.752 -0.2689  0.5693 -0.2844
 1457SOL     OW 5880   0.008   2.722   2.630 -0.3135  0.0347  0.3135
 1457SOL    HW2 5881  -0.068   2.773   2.659 -0.2369  0.2729  0.0953
 1457SOL    HW3 5882  -0.010   2.633   2.661 -1.1400 -0.1152 -0.5641
 1457SOL    MW4 5883  -0.005   2.717   2.638 -0.4120  0.0465  0.1688
 1458SOL     OW 5884   0.221   2.836   2.761 -0.0645 -0.3720  0.3669
 1458SOL    HW2 5885   0.224   2.928   2.735 -0.7312  0.0303  1.6256
 1458SOL    HW3 5886   0.147   2.799   2.712 -0.2115 -0.0700  0.3619
 1458SOL    MW4 5887   0.212   2.843   2.751 -0.1718 -0.2789  0.5326
 1459SOL     OW 5888   0.251   3.083   2.646 -0.0243  0.3855  0.5585
 1459SOL    HW2 5889   0.332   3.128   2.670 -0.0182  0.1018  1.0635
 1459SOL    HW3 5890   0.252   3.082   2.550  0.2981  0.8750  0.5522
 1459SOL    MW4 5891   0.262   3.089   2.636  0.0190  0.4125  0.6239
 1460SOL     OW 5892   0.015   3.202   2.740  0.0451 -0.0677  0.2578
 1460SOL    HW2 5893  -0.061   3.152   2.708  0.4252 -0.9485  0.7111
 1460SOL    HW3 5894   0.089   3.167   2.690  0.1969  0.5829  0.0276
 1460SOL    MW4 5895   0.014   3.191   2.729  0.1152 -0.0980  0.2873
 1461SOL     OW 5896   4.478   3.462   2.640  0.3682  0.1563  0.0999
 1461SOL    HW2 5897   4.556   3.504   2.676  1.2068 -1.5322  0.2597
 1461SOL    HW3 5898   4.485   3.370   2.665  0.4651 -0.8987 -3.4748
 1461SOL    MW4 5899   4.489   3.456   2.648  0.4916 -0.2053 -0.3505
 1462SOL     OW 5900   0.212   3.620   2.754 -0.1394 -0.0813  0.2933
 1462SOL    HW2 5901   0.205   3.609   2.849  1.7139  2.0867  0.7373
 1462SOL    HW3 5902   0.286   3.565   2.729 -0.3344 -0.2938  0.1888
 1462SOL    MW4 5903   0.221   3.611   2.763  0.0794  0.1767  0.3381
 1463SOL     OW 5904   0.196   3.882   2.652 -0.1923  0.1461 -0.3129
 1463SOL    HW2 5905   0.190   3.795   2.690 -0.6817  0.2607 -0.1306
 1463SOL    HW3 5906   0.186   3.868   2.558  0.3661 -0.0638 -0.3442
 1463SOL    MW4 5907   0.194   3.869   2.644 -0.1832  0.1338 -0.2930
 1464SOL     OW 5908   4.463   4.006   2.742 -0.0641  0.3082 -0.3127
 1464SOL    HW2 5909   4.466   4.090   2.696  3.2302  0.5411  0.1958
 1464SOL    HW3 5910   4.537   3.957   2.706  0.2291 -0.9972  1.9953
 1464SOL    MW4 5911   4.473   4.010   2.731  0.4092  0.1669  0.0591
 1465SOL     OW 5912   4.476   4.256   2.621 -0.4256  0.0588  0.4230
 1465SOL    HW2 5913   4.407   4.302   2.670 -0.5649 -1.0915  1.3307
 1465SOL    HW3 5914   4.556   4.304   2.643 -0.3294 -1.0294  2.6041
 1465SOL    MW4 5915   4.477   4.268   2.630 -0.4311 -0.2365  0.8307
 1466SOL     OW 5916   0.229   4.404   2.682  0.3777  0.0386 -0.0470
 1466SOL    HW2 5917   0.223   4.397   2.778  0.2941  0.4154 -0.0235
 1466SOL    HW3 5918   0.309   4.358   2.660 -0.0079 -0.7269  0.1308
 1466SOL    MW4 5919   0.239   4.397   2.692  0.3158 -0.0124 -0.0205
 1467SOL     OW 5920   0.651   4.630   2.626  0.0345 -0.0082 -0.3571
 1467SOL    HW2 5921   0.731   4.672   2.657 -0.2559  0.4548 -0.2291
 1467SOL    HW3 5922   0.580   4.687   2.655 -0.3589 -0.5013 -0.3200
 1467SOL    MW4 5923   0.652   4.643   2.634 -0.0558 -0.0119 -0.3352
 1468SOL     OW 5924   0.457   0.167   2.710 -0.0625  0.6629  0.4568
 1468SOL    HW2 5925   0.461   0.169   2.805 -0.7092  1.4034  0.4778
 1468SOL    HW3 5926   0.381   0.112   2.690 -0.2280  0.9117  0.3859
 1468SOL    MW4 5927   0.447   0.160   2.720 -0.1696  0.7934  0.4504
 1469SOL     OW 5928   0.451   0.422   2.606 -0.3505  0.0963  0.2795
 1469SOL    HW2 5929   0.514   0.477   2.655  0.2202  0.6260 -1.0225
 1469SOL    HW3 5930   0.468   0.333   2.636 -1.1921  0.6018  2.3234
 1469SOL    MW4 5931   0.462   0.418   2.616 -0.3863  0.2329  0.3777
 1470SOL     OW 5932   0.658   0.504   2.763 -0.4520  0.3610 -0.1874
 1470SOL    HW2 5933   0.667   0.506   2.858 -1.5086  1.5780 -0.1038
 1470SOL    HW3 5934   0.731   0.450   2.733  0.5879  0.9634  1.2236
 1470SOL    MW4 5935   0.669   0.497   2.772 -0.4542  0.6011  0.0098
 1471SOL     OW 5936   0.678   0.771   2.645  0.0606 -0.2821  0.2177
 1471SOL    HW2 5937   0.758   0.802   2.687  0.3851 -0.2560 -0.4018
 1471SOL    HW3 5938   0.661   0.685   2.684  1.1987 -0.9277 -0.6825
 1471SOL    MW4 5939   0.686   0.764   2.655  0.2536 -0.3638  0.0174
 1472SOL     OW 5940   0.418   0.853   2.743  0.1173  0.2487 -0.2770
 1472SOL    HW2 5941   0.396   0.938   2.706 -0.5039  0.5055  0.6533
 1472SOL    HW3 5942   0.509   0.839   2.718  0.2265  1.1847 -0.4389
 1472SOL    MW4 5943   0.427   0.862   2.735  0.0497  0.4061 -0.1757
 1473SOL     OW 5944   0.427   1.109   2.633 -0.1884  0.2216 -0.3510
 1473SOL    HW2 5945   0.507   1.136   2.679 -0.1079 -0.9624  0.2022
 1473SOL    HW3 5946   0.439   1.142   2.544  0.6418  0.5854 -0.1105
 1473SOL    MW4 5947   0.440   1.117   2.627 -0.0683  0.1135 -0.2463
 1474SOL     OW 5948   0.632   1.256   2.737  0.1276  0.0228  0.3530
 1474SOL    HW2 5949   0.632   1.261   2.832  1.1295  1.1464  0.2967
 1474SOL    HW3 5950   0.718   1.220   2.715 -0.2381 -0.5805 -0.1180
 1474SOL    MW4 5951   0.643   1.252   2.746  0.2115  0.0916  0.2832
 1475SOL     OW 5952   0.666   1.533   2.637 -0.0290 -0.2099 -0.0141
 1475SOL    HW2 5953   0.605   1.591   2.682 -0.5455 -0.1295 -0.8149
 1475SOL    HW3 5954   0.651   1.447   2.677 -0.2620 -0.0761  0.1867
 1475SOL    MW4 5955   0.656   1.529   2.648 -0.1279 -0.1817 -0.0930
 1476SOL     OW 5956   0.457   1.661   2.738  0.0887 -0.1300 -0.1283
 1476SOL    HW2 5957   0.466   1.662   2.833 -0.0263 -0.1244 -0.1164
 1476SOL    HW3 5958   0.448   1.754   2.715 -0.6371 -0.1803 -0.0657
 1476SOL    MW4 5959   0.457   1.674   2.747 -0.0223 -0.1359 -0.1183
 1477SOL     OW 5960   0.434   1.941   2.652 -0.1667 -0.0222  0.2640
 1477SOL    HW2 5961   0.514   1.991   2.666 -0.7497  1.0606 -0.1664
 1477SOL    HW3 5962   0.424   1.937   2.557 -0.4342 -0.4719  0.3061
 1477SOL    MW4 5963   0.443   1.947   2.642 -0.2789  0.0613  0.2131
 1478SOL     OW 5964   0.649   2.088   2.698  0.0666  0.3749  0.5339
 1478SOL    HW2 5965   0.679   2.093   2.789  0.9121  1.7769  0.2102
 1478SOL    HW3 5966   0.724   2.052   2.650 -0.3563 -0.3079  0.3821
 1478SOL    MW4 5967   0.663   2.084   2.703  0.1224  0.4699  0.4711
 1479SOL     OW 5968   0.691   2.319   2.583 -0.3232  0.3633 -0.0197
 1479SOL    HW2 5969   0.770   2.360   2.618 -0.2733 -0.0513  0.3543
 1479SOL    HW3 5970   0.686   2.235   2.628 -0.5664  0.0696 -0.5970
 1479SOL    MW4 5971   0.701   2.314   2.594 -0.3487  0.2699 -0.0463
 1480SOL     OW 5972   0.490   2.458   2.723  0.2925 -0.2306  0.0228
 1480SOL    HW2 5973   0.489   2.539   2.671  0.4103 -0.6690 -0.6646
 1480SOL    HW3 5974   0.562   2.407   2.687  0.4605 -0.4839  0.7081
 1480SOL    MW4 5975   0.499   2.462   2.711  0.3302 -0.3216  0.0229
 1481SOL     OW 5976   0.435   2.714   2.627  0.4486 -0.4727  0.4457
 1481SOL    HW2 5977   0.511   2.763   2.658 -0.0247  0.9746 -0.6532
 1481SOL    HW3 5978   0.362   2.745   2.680 -0.7003  3.2334 -3.0259
 1481SOL    MW4 5979   0.435   2.724   2.638  0.2346  0.2074 -0.1571
 1482SOL     OW 5980   0.667   2.818   2.721 -0.1080 -0.4463  0.4070
 1482SOL    HW2 5981   0.677   2.819   2.816  1.7688 -0.7929  0.2338
 1482SOL    HW3 5982   0.672   2.909   2.695 -0.1181 -0.3962  0.5783
 1482SOL    MW4 5983   0.669   2.830   2.730  0.1383 -0.4854  0.4067
 1483SOL     OW 5984   0.707   3.068   2.639  0.1671  0.5083  0.0022
 1483SOL    HW2 5985   0.777   3.122   2.674  2.0699 -0.8635 -1.5937
 1483SOL    HW3 5986   0.695   3.099   2.549 -0.7392  0.2052  0.0129
 1483SOL    MW4 5987   0.715   3.079   2.632  0.2985  0.2871 -0.2069
 1484SOL     OW 5988   0.475   3.212   2.711 -0.2385  0.0237  0.3781
 1484SOL    HW2 5989   0.480   3.238   2.803  1.5564  1.2819 -0.0405
 1484SOL    HW3 5990   0.559   3.170   2.694 -0.5280 -0.1146 -0.7160
 1484SOL    MW4 5991   0.487   3.210   2.721 -0.0399  0.1717  0.1786
 1485SOL     OW 5992   0.430   3.491   2.650 -0.3296  0.2337 -0.5338
 1485SOL    HW2 5993   0.444   3.397   2.666 -0.6616  0.3304  0.3791
 1485SOL    HW3 5994   0.429   3.499   2.555 -1.5595 -0.8962 -0.6402
 1485SOL    MW4 5995   0.432   3.479   2.640 -0.5357  0.0975 -0.4275
 1486SOL     OW 5996   0.664   3.631   2.731 -0.1121  0.5897 -0.2733
 1486SOL    HW2 5997   0.679   3.630   2.826 -1.3551  0.8193 -0.0632
 1486SOL    HW3 5998   0.596   3.566   2.718  0.6991 -0.0952 -1.1371
 1486SOL    MW4 5999   0.657   3.622   2.742 -0.1692  0.5298 -0.3595
 1487SOL     OW 6000   0.666   3.892   2.629 -0.3467 -0.2965 -0.3145
 1487SOL    HW2 6001   0.589   3.934   2.666 -0.2679  1.1065 -1.6787
 1487SOL    HW3 6002   0.661   3.801   2.658 -1.0049  0.4365  1.9328
 1487SOL    MW4 6003   0.655   3.885   2.638 -0.4231 -0.0145 -0.1979
 1488SOL     OW 6004   0.436   3.990   2.731 -0.3644 -0.0249  0.0316
 1488SOL    HW2 6005   0.411   4.079   2.705  0.9856  0.0772 -0.9918
 1488SOL    HW3 6006   0.361   3.936   2.707 -0.8671  0.7195 -0.0932
 1488SOL    MW4 6007   0.423   3.995   2.724 -0.2526  0.0868 -0.1202
 1489SOL     OW 6008   0.443   4.245   2.622 -0.6987  0.3773 -0.2168
 1489SOL    HW2 6009   0.522   4.281   2.662  0.4201 -0.4538 -1.5991
 1489SOL    HW3 6010   0.447   4.275   2.531 -1.4169 -0.5670 -0.5631
 1489SOL    MW4 6011   0.454   4.254   2.615 -0.6458  0.1435 -0.4444
 1490SOL     OW 6012   0.652   4.385   2.749  0.3729 -0.4692  0.3474
 1490SOL    HW2 6013   0.740   4.349   2.741  0.5802 -0.0992  0.9349
 1490SOL    HW3 6014   0.658   4.472   2.709  0.2596 -0.4737  0.3199
 1490SOL    MW4 6015   0.665   4.392   2.743  0.3853 -0.4210  0.4210
 1491SOL     OW 6016   1.142   4.616   2.653 -0.6885 -0.2700 -0.3918
 1491SOL    HW2 6017   1.218   4.653   2.699 -0.9317  0.7858 -0.8208
 1491SOL    HW3 6018   1.149   4.522   2.667  0.8637 -0.2118 -0.6627
 1491SOL    MW4 6019   1.153   4.609   2.661 -0.5158 -0.1230 -0.4840
 1492SOL     OW 6020   0.890   0.079   2.729  0.4023  0.0169 -0.1641
 1492SOL    HW2 6021   0.909   0.110   2.818  1.1472  0.4752 -0.4794
 1492SOL    HW3 6022   0.971   0.037   2.700  0.0759 -0.3661 -0.5280
 1492SOL    MW4 6023   0.903   0.078   2.737  0.4575  0.0268 -0.2537
 1493SOL     OW 6024   0.871   0.349   2.662  0.1030 -0.5774 -0.3008
 1493SOL    HW2 6025   0.870   0.254   2.676  3.7728 -0.7816 -0.7849
 1493SOL    HW3 6026   0.864   0.359   2.567  1.2801 -0.4595 -0.3811
 1493SOL    MW4 6027   0.870   0.338   2.651  0.7424 -0.5888 -0.3750
 1494SOL     OW 6028   1.116   0.465   2.771 -0.6141  0.3441  0.7952
 1494SOL    HW2 6029   1.119   0.550   2.726 -0.5081 -0.3998 -0.6368
 1494SOL    HW3 6030   1.042   0.420   2.731 -0.1568 -0.5538  0.9553
 1494SOL    MW4 6031   1.107   0.470   2.760 -0.5397  0.1275  0.6275
 1495SOL     OW 6032   1.161   0.717   2.657  0.4485  0.0999  0.4053
 1495SOL    HW2 6033   1.236   0.771   2.683  0.3372  0.2516  0.4112
 1495SOL    HW3 6034   1.162   0.720   2.562  0.1304  0.5406  0.4153
 1495SOL    MW4 6035   1.171   0.725   2.648  0.3918  0.1781  0.4077
 1496SOL     OW 6036   0.927   0.864   2.729  0.0019 -0.0967  0.3673
 1496SOL    HW2 6037   0.933   0.874   2.824  1.0510  1.0074  0.1968
 1496SOL    HW3 6038   0.998   0.804   2.707 -0.4871 -0.6638  0.3128
 1496SOL    MW4 6039   0.937   0.857   2.739  0.0759 -0.0259  0.3378
 1497SOL     OW 6040   0.879   1.149   2.637 -0.2856  0.1288 -0.1520
 1497SOL    HW2 6041   0.897   1.057   2.660 -2.0888 -0.6803 -1.8402
 1497SOL    HW3 6042   0.894   1.153   2.542 -0.1282  1.6184 -0.0745
 1497SOL    MW4 6043   0.883   1.137   2.627 -0.5028  0.2185 -0.3645
 1498SOL     OW 6044   1.130   1.264   2.706  0.1954 -0.0598 -0.1965
 1498SOL    HW2 6045   1.125   1.358   2.689 -1.7734 -0.0251  0.4763
 1498SOL    HW3 6046   1.040   1.232   2.695  0.2603 -1.3236  2.5252
 1498SOL    MW4 6047   1.117   1.272   2.703 -0.0558 -0.2220  0.2513
 1499SOL     OW 6048   1.134   1.540   2.642 -0.1155 -0.1836 -0.2386
 1499SOL    HW2 6049   1.059   1.579   2.687 -0.1872 -0.4439 -0.1312
 1499SOL    HW3 6050   1.126   1.572   2.552  0.3899  0.8521  0.0766
 1499SOL    MW4 6051   1.123   1.550   2.636 -0.0583 -0.0813 -0.1826
 1500SOL     OW 6052   0.894   1.676   2.719 -0.2538 -0.4313  0.2050
 1500SOL    HW2 6053   0.885   1.673   2.814  0.9023 -1.6810  0.2850
 1500SOL    HW3 6054   0.815   1.635   2.686 -0.7357  0.1542  0.6150
 1500SOL    MW4 6055   0.883   1.670   2.727 -0.1648 -0.5189  0.2699
 1501SOL     OW 6056   0.885   1.970   2.620 -0.1115  0.1608  0.3256
 1501SOL    HW2 6057   0.956   1.991   2.680 -0.2489 -0.0790  0.5726
 1501SOL    HW3 6058   0.855   1.883   2.648 -1.4662  0.8784  1.1502
 1501SOL    MW4 6059   0.890   1.961   2.632 -0.3083  0.2236  0.4671
 1502SOL     OW 6060   1.099   2.073   2.777  0.0405 -0.3564  0.7560
 1502SOL    HW2 6061   1.158   2.028   2.716  1.4423  0.6615  1.3365
 1502SOL    HW3 6062   1.099   2.164   2.748 -0.8149 -0.2399  1.1122
 1502SOL    MW4 6063   1.107   2.079   2.765  0.1125 -0.2067  0.8798
 1503SOL     OW 6064   1.123   2.318   2.682 -0.4468 -0.4274  0.1898
 1503SOL    HW2 6065   1.214   2.343   2.696 -0.1165 -1.7885  0.5495
 1503SOL    HW3 6066   1.111   2.321   2.587  0.1573 -0.8793  0.0996
 1503SOL    MW4 6067   1.134   2.321   2.672 -0.3235 -0.6664  0.2253
 1504SOL     OW 6068   0.912   2.473   2.755  0.2039  0.2513 -0.2394
 1504SOL    HW2 6069   0.911   2.557   2.708  1.1082  0.3842 -0.0247
 1504SOL    HW3 6070   1.002   2.443   2.748 -0.4272 -1.4263 -1.5891
 1504SOL    MW4 6071   0.923   2.480   2.748  0.2400  0.0477 -0.3891
 1505SOL     OW 6072   0.890   2.705   2.604  0.1735 -0.2838 -0.4230
 1505SOL    HW2 6073   0.969   2.740   2.646  0.1009 -0.4723 -0.1261
 1505SOL    HW3 6074   0.818   2.747   2.652  0.0958 -0.0493 -0.7467
 1505SOL    MW4 6075   0.891   2.715   2.616  0.1536 -0.2775 -0.4265
 1506SOL     OW 6076   1.106   2.823   2.732  0.0134  0.1494  0.2175
 1506SOL    HW2 6077   1.100   2.826   2.827 -0.2506  0.5861  0.1860
 1506SOL    HW3 6078   1.190   2.779   2.715  0.2336  0.3943  0.6498
 1506SOL    MW4 6079   1.117   2.817   2.742  0.0076  0.2394  0.2706
 1507SOL     OW 6080   1.148   3.096   2.623  0.0000  0.0000  0.0653
 1507SOL    HW2 6081   1.122   3.007   2.646  0.0000  0.0000  0.0624
 1507SOL    HW3 6082   1.136   3.101   2.528  0.0000  0.0000  0.0653
 1507SOL    MW4 6083   1.143   3.085   2.613  0.0000  0.0000  0.0646
 1508SOL     OW 6084   0.919   3.208   2.746  0.0000  0.0000  0.0684
 1508SOL    HW2 6085   0.903   3.287   2.694  0.0000  0.0000  0.0683
 1508SOL    HW3 6086   1.006   3.179   2.719  0.0000  0.0000  0.0753
 1508SOL    MW4 6087   0.928   3.215   2.736  0.0000  0.0000  0.0689
 1509SOL     OW 6088   0.887   3.462   2.623  0.0000  0.0000 -0.2078
 1509SOL    HW2 6089   0.961   3.509   2.663  0.0000  0.0000 -0.2245
 1509SOL    HW3 6090   0.810   3.512   2.651  0.0000  0.0000 -0.1893
 1509SOL    MW4 6091   0.887   3.475   2.632  0.0000  0.0000 -0.2074
 1510SOL     OW 6092   1.102   3.599   2.742  0.0000  0.0000 -0.0253
 1510SOL    HW2 6093   1.101   3.626   2.834  0.0000  0.0000 -0.0241
 1510SOL    HW3 6094   1.100   3.681   2.693  0.0000  0.0000 -0.0220
 1510SOL    MW4 6095   1.102   3.613   2.747  0.0000  0.0000 -0.0246
 1511SOL     OW 6096   1.098   3.851   2.601  0.0000  0.0000  0.3520
 1511SOL    HW2 6097   1.178   3.889   2.638  0.0000  0.0000  0.3516
 1511SOL    HW3 6098   1.110   3.859   2.506  0.0000  0.0000  0.3520
 1511SOL    MW4 6099   1.110   3.857   2.593  0.0000  0.0000  0.3519
 1512SOL     OW 6100   0.893   4.008   2.726  0.0000  0.0000 -0.3426
 1512SOL    HW2 6101   0.957   3.963   2.671  0.0000  0.0000 -0.3312
 1512SOL    HW3 6102   0.809   3.969   2.700  0.0000  0.0000 -0.3443
 1512SOL    MW4 6103   0.890   3.997   2.715  0.0000  0.0000 -0.3412
 1513SOL     OW 6104   0.888   4.266   2.659  0.0000  0.0000 -0.2532
 1513SOL    HW2 6105   0.892   4.173   2.683  0.0000  0.0000 -0.2583
 1513SOL    HW3 6106   0.884   4.265   2.563  0.0000  0.0000 -0.2531
 1513SOL    MW4 6107   0.888   4.254   2.650  0.0000  0.0000 -0.2539
 1514SOL     OW 6108   1.144   4.351   2.718  0.0000  0.0000  0.2549
 1514SOL    HW2 6109   1.137   4.378   2.810  0.0000  0.0000  0.2543
 1514SOL    HW3 6110   1.055   4.327   2.693  0.0000  0.0000  0.2581
 1514SOL    MW4 6111   1.131   4.351   2.727  0.0000  0.0000  0.2553
 1515SOL     OW 6112   1.593   4.643   2.662  0.0000  0.0000 -0.3685
 1515SOL    HW2 6113   1.588   4.549   2.679  0.0000  0.0000 -0.3642
 1515SOL    HW3 6114   1.581   4.652   2.568  0.0000  0.0000 -0.3690
 1515SOL    MW4 6115   1.591   4.632   2.652  0.0000  0.0000 -0.3681
 1516SOL     OW 6116   1.353   0.083   2.738  0.3652  0.4385 -0.6428
 1516SOL    HW2 6117   1.350   0.171   2.699  0.7732  0.1505 -1.3299
 1516SOL    HW3 6118   1.442   0.053   2.722  0.3957  0.1270  0.1093
 1516SOL    MW4 6119   1.364   0.091   2.731  0.4230  0.3594 -0.6340
 1517SOL     OW 6120   1.328   0.361   2.643  0.2577  0.1663 -0.3758
 1517SOL    HW2 6121   1.403   0.410   2.679 -0.3181 -0.2675  1.4779
 1517SOL    HW3 6122   1.251   0.407   2.678 -0.3061 -0.8938 -0.2225
 1517SOL    MW4 6123   1.328   0.374   2.652  0.1073 -0.0308 -0.1109
 1518SOL     OW 6124   1.559   0.472   2.747  0.0836  0.4415  0.2567
 1518SOL    HW2 6125   1.638   0.431   2.712  0.4079 -0.4444  1.9187
 1518SOL    HW3 6126   1.567   0.564   2.725  1.1580  0.2079 -0.3632
 1518SOL    MW4 6127   1.570   0.478   2.740  0.2681  0.2938  0.3941
 1519SOL     OW 6128   1.578   0.730   2.695 -0.0498 -0.0873  0.2124
 1519SOL    HW2 6129   1.508   0.794   2.709 -1.0548 -0.9587 -0.7110
 1519SOL    HW3 6130   1.588   0.726   2.600  0.0357 -1.2491  0.2599
 1519SOL    MW4 6131   1.570   0.738   2.684 -0.1711 -0.3555  0.0968
 1520SOL     OW 6132   1.358   0.884   2.739 -0.6590  0.0832 -0.2144
 1520SOL    HW2 6133   1.356   0.894   2.834 -1.9787 -0.4009 -0.1959
 1520SOL    HW3 6134   1.369   0.974   2.707 -0.7923  0.3098  0.3651
 1520SOL    MW4 6135   1.359   0.897   2.747 -0.8507  0.0492 -0.1357
 1521SOL     OW 6136   1.378   1.138   2.655  0.4692  0.1317  0.1900
 1521SOL    HW2 6137   1.436   1.196   2.706  0.7959 -0.4824  0.5181
 1521SOL    HW3 6138   1.293   1.182   2.657 -0.0569 -0.9265  3.0753
 1521SOL    MW4 6139   1.375   1.152   2.662  0.4430 -0.0888  0.6139
 1522SOL     OW 6140   1.596   1.278   2.722  0.1440  0.3472 -0.0008
 1522SOL    HW2 6141   1.606   1.271   2.817  0.7122  0.6871 -0.0342
 1522SOL    HW3 6142   1.673   1.234   2.686  1.1971  2.3304 -0.2633
 1522SOL    MW4 6143   1.607   1.271   2.730  0.3579  0.6537 -0.0398
 1523SOL     OW 6144   1.565   1.541   2.628 -0.2131 -0.2653 -0.1457
 1523SOL    HW2 6145   1.572   1.448   2.650  1.3424 -0.0987  0.1570
 1523SOL    HW3 6146   1.577   1.543   2.533  0.6598 -0.3101 -0.0457
 1523SOL    MW4 6147   1.568   1.529   2.618  0.1074 -0.2493 -0.0923
 1524SOL     OW 6148   1.344   1.662   2.764 -0.2392 -0.5983 -0.0927
 1524SOL    HW2 6149   1.420   1.624   2.721 -0.1015 -1.4200  0.8558
 1524SOL    HW3 6150   1.270   1.614   2.729 -0.2625 -0.2667 -0.5026
 1524SOL    MW4 6151   1.344   1.651   2.754 -0.2240 -0.6632 -0.0217
 1525SOL     OW 6152   1.332   1.939   2.661 -0.3288 -0.0941 -0.3925
 1525SOL    HW2 6153   1.337   1.849   2.695  2.5028 -0.3167 -1.2539
 1525SOL    HW3 6154   1.339   1.929   2.566 -2.6166  0.8950 -0.6898
 1525SOL    MW4 6155   1.334   1.925   2.653 -0.2570  0.0070 -0.5453
 1526SOL     OW 6156   1.558   2.060   2.726 -0.3645 -0.0260 -0.1424
 1526SOL    HW2 6157   1.631   2.003   2.704 -0.0205  0.3926 -0.1033
 1526SOL    HW3 6158   1.480   2.010   2.702 -0.1144 -1.0379  1.1328
 1526SOL    MW4 6159   1.557   2.046   2.720 -0.2863 -0.1042  0.0312
 1527SOL     OW 6160   1.612   2.316   2.637 -0.4826  0.3782  0.0968
 1527SOL    HW2 6161   1.680   2.356   2.691  0.4667  0.7042 -1.2917
 1527SOL    HW3 6162   1.605   2.226   2.670  0.4482  0.4195  0.4407
 1527SOL    MW4 6163   1.620   2.309   2.648 -0.2345  0.4270 -0.0412
 1528SOL     OW 6164   1.338   2.685   2.616  0.2309 -0.1699  0.3554
 1528SOL    HW2 6165   1.421   2.730   2.633  1.1698 -1.5655 -0.4272
 1528SOL    HW3 6166   1.347   2.601   2.662 -1.2946  0.2229  1.3988
 1528SOL    MW4 6167   1.350   2.680   2.624  0.1534 -0.3023  0.3901
 1529SOL     OW 6168   1.328   2.698   2.343  0.2112  0.0122 -0.3856
 1529SOL    HW2 6169   1.321   2.689   2.438  0.6944 -1.4529 -0.4787
 1529SOL    HW3 6170   1.409   2.748   2.330  0.1281  0.2405 -0.0377
 1529SOL    MW4 6171   1.338   2.704   2.354  0.2640 -0.1512 -0.3519
 1530SOL     OW 6172   1.575   2.828   2.720 -0.5486 -0.6794 -0.2585
 1530SOL    HW2 6173   1.553   2.814   2.812 -0.8546  1.6912  0.0578
 1530SOL    HW3 6174   1.662   2.788   2.710 -0.3977 -0.7101  1.1180
 1530SOL    MW4 6175   1.584   2.821   2.730 -0.5692 -0.3705 -0.0350
 1531SOL     OW 6176   1.577   3.099   2.634  0.6236 -0.1740 -0.3826
 1531SOL    HW2 6177   1.656   3.136   2.673 -0.4175 -0.3904  2.0288
 1531SOL    HW3 6178   1.576   3.008   2.665  0.4609 -0.7630 -2.0542
 1531SOL    MW4 6179   1.587   3.092   2.644  0.4647 -0.2801 -0.2849
 1532SOL     OW 6180   1.348   3.220   2.751  0.0359  0.1034  0.3794
 1532SOL    HW2 6181   1.427   3.182   2.713  0.1775 -0.8717  1.6247
 1532SOL    HW3 6182   1.276   3.171   2.710  0.1414 -0.0227  0.3443
 1532SOL    MW4 6183   1.349   3.208   2.740  0.0685 -0.0417  0.5391
 1533SOL     OW 6184   1.339   3.472   2.639  0.2347  0.5191 -0.3708
 1533SOL    HW2 6185   1.343   3.383   2.675  0.3024  0.4545 -0.5399
 1533SOL    HW3 6186   1.270   3.514   2.690  0.0883  0.3208 -0.4018
 1533SOL    MW4 6187   1.331   3.465   2.651  0.2242  0.4842 -0.3972
 1534SOL     OW 6188   1.566   3.567   2.745 -0.0958  0.1437  0.1483
 1534SOL    HW2 6189   1.645   3.534   2.701  0.3810  1.9863 -0.4164
 1534SOL    HW3 6190   1.494   3.523   2.700  0.5515 -0.6979 -0.0919
 1534SOL    MW4 6191   1.567   3.557   2.733  0.0526  0.2754  0.0422
 1535SOL     OW 6192   1.585   3.851   2.653  0.2897  0.4229  0.6477
 1535SOL    HW2 6193   1.501   3.889   2.681  0.6432  1.0980  0.7980
 1535SOL    HW3 6194   1.582   3.761   2.685 -0.2234  0.5555  0.9816
 1535SOL    MW4 6195   1.573   3.844   2.661  0.2688  0.5293  0.7114
 1536SOL     OW 6196   1.343   3.975   2.735  0.3592  0.0929  0.1783
 1536SOL    HW2 6197   1.361   3.987   2.828 -0.2236 -0.6075  0.3847
 1536SOL    HW3 6198   1.348   4.063   2.698 -0.8165  0.5681  1.1208
 1536SOL    MW4 6199   1.346   3.988   2.742  0.1271  0.0632  0.3300
 1537SOL     OW 6200   1.372   4.231   2.624  0.2408  0.0156  0.0290
 1537SOL    HW2 6201   1.291   4.279   2.641 -0.5241 -0.5034 -1.9348
 1537SOL    HW3 6202   1.390   4.247   2.531  1.3377 -1.4455 -0.0297
 1537SOL    MW4 6203   1.364   4.239   2.614  0.2846 -0.2465 -0.2379
 1538SOL     OW 6204   1.584   4.380   2.730  0.0139 -0.2428 -0.0370
 1538SOL    HW2 6205   1.565   4.368   2.823  2.0032 -1.8731  0.1883
 1538SOL    HW3 6206   1.521   4.324   2.685  0.4700 -1.1733  0.4541
 1538SOL    MW4 6207   1.573   4.371   2.736  0.3364 -0.5813  0.0577
 1539SOL     OW 6208   2.020   4.652   2.652 -0.1779 -0.2108 -0.1011
 1539SOL    HW2 6209   2.096   4.682   2.701  0.4790 -0.5759 -0.8799
 1539SOL    HW3 6210   2.045   4.662   2.560 -1.2603  0.1453 -0.3718
 1539SOL    MW4 6211   2.033   4.658   2.646 -0.2339 -0.2122 -0.2396
 1540SOL     OW 6212   1.807   0.134   2.759 -0.5532  0.2707  0.2415
 1540SOL    HW2 6213   1.888   0.090   2.734  0.8594  1.4718  2.5173
 1540SOL    HW3 6214   1.738   0.087   2.711  1.4598 -0.8122 -1.6596
 1540SOL    MW4 6215   1.809   0.122   2.750 -0.1011  0.2863  0.2909
 1541SOL     OW 6216   1.807   0.372   2.631 -0.0574  0.3043  0.0224
 1541SOL    HW2 6217   1.857   0.417   2.699 -0.8795  0.5821  0.4584
 1541SOL    HW3 6218   1.796   0.283   2.664  1.1953 -0.1037 -0.6394
 1541SOL    MW4 6219   1.812   0.366   2.644 -0.0006  0.2871 -0.0074
 1542SOL     OW 6220   1.972   0.502   2.803 -0.0813 -0.4345  0.4820
 1542SOL    HW2 6221   2.044   0.459   2.756  0.8206  0.0991  1.3576
 1542SOL    HW3 6222   1.976   0.593   2.773 -0.1985 -0.3375  0.7679
 1542SOL    MW4 6223   1.982   0.508   2.793  0.0223 -0.3513  0.6354
 1543SOL     OW 6224   2.001   0.753   2.681  0.0657 -0.1377  0.1330
 1543SOL    HW2 6225   1.927   0.801   2.717  1.0314  1.6745 -0.2135
 1543SOL    HW3 6226   1.975   0.733   2.591 -0.8227 -1.3556  0.6432
 1543SOL    MW4 6227   1.988   0.757   2.674  0.0759 -0.0593  0.1545
 1544SOL     OW 6228   1.790   0.887   2.803 -0.5370 -0.1544 -0.2563
 1544SOL    HW2 6229   1.800   0.963   2.746 -0.4371 -0.6273 -0.8714
 1544SOL    HW3 6230   1.721   0.834   2.762  0.3915 -1.1046 -0.6133
 1544SOL    MW4 6231   1.782   0.890   2.790 -0.4011 -0.3421 -0.3848
 1545SOL     OW 6232   1.814   1.098   2.638 -0.0341  0.2390 -0.3614
 1545SOL    HW2 6233   1.878   1.160   2.672 -1.7028  2.2974 -0.8873
 1545SOL    HW3 6234   1.830   1.097   2.543 -1.1373  1.2009 -0.5673
 1545SOL    MW4 6235   1.825   1.106   2.630 -0.3998  0.6374 -0.4580
 1546SOL     OW 6236   1.998   1.266   2.741  0.1160  0.0012 -0.0470
 1546SOL    HW2 6237   2.015   1.262   2.836  1.5247 -2.0335 -0.3513
 1546SOL    HW3 6238   2.083   1.246   2.701 -0.5740  0.3969 -1.7500
 1546SOL    MW4 6239   2.012   1.263   2.748  0.2108 -0.2152 -0.3119
 1547SOL     OW 6240   2.029   1.524   2.666 -0.2421 -0.2392  0.6161
 1547SOL    HW2 6241   1.956   1.580   2.692 -0.5174 -0.3812  0.1713
 1547SOL    HW3 6242   2.003   1.436   2.693 -0.6348 -0.4208 -0.3341
 1547SOL    MW4 6243   2.016   1.520   2.673 -0.3302 -0.2818  0.4320
 1548SOL     OW 6244   1.788   1.674   2.744  0.1576  0.1773 -0.0788
 1548SOL    HW2 6245   1.779   1.675   2.839 -0.2111 -0.0397 -0.1078
 1548SOL    HW3 6246   1.705   1.637   2.713 -0.0223  0.9332 -0.5197
 1548SOL    MW4 6247   1.776   1.669   2.752  0.0852  0.2483 -0.1409
 1549SOL     OW 6248   1.797   1.914   2.614 -0.0495 -0.0573  0.2738
 1549SOL    HW2 6249   1.856   1.957   2.675  0.4726 -0.8793  0.3577
 1549SOL    HW3 6250   1.799   1.822   2.640 -0.5168 -0.2658 -0.4169
 1549SOL    MW4 6251   1.805   1.908   2.625 -0.0423 -0.1932  0.1936
 1550SOL     OW 6252   1.965   2.088   2.741  0.0830  0.1295  0.2028
 1550SOL    HW2 6253   1.994   2.079   2.832 -2.9790  0.0204  1.2051
 1550SOL    HW3 6254   1.990   2.176   2.716  0.2258  0.4453  1.4255
 1550SOL    MW4 6255   1.972   2.098   2.750 -0.3022  0.1569  0.4964
 1551SOL     OW 6256   2.015   2.323   2.624 -0.0346 -0.4788  0.4436
 1551SOL    HW2 6257   2.091   2.365   2.664 -1.1061  1.3197  0.6330
 1551SOL    HW3 6258   2.027   2.337   2.530  0.2710 -0.8922  0.4205
 1551SOL    MW4 6259   2.027   2.331   2.617 -0.1357 -0.2961  0.4656
 1552SOL     OW 6260   1.802   2.474   2.769  0.1355  0.1247  0.4224
 1552SOL    HW2 6261   1.821   2.455   2.861 -0.6840 -1.3195  0.3043
 1552SOL    HW3 6262   1.866   2.422   2.720 -1.0152 -1.0806  0.1409
 1552SOL    MW4 6263   1.813   2.464   2.775 -0.1245 -0.2251  0.3695
 1553SOL     OW 6264   1.829   2.735   2.676 -0.4381 -0.4093 -0.1488
 1553SOL    HW2 6265   1.825   2.643   2.704 -0.4174 -0.1247  0.8163
 1553SOL    HW3 6266   1.825   2.731   2.581  0.5496 -1.4711 -0.1544
 1553SOL    MW4 6267   1.828   2.722   2.667 -0.3051 -0.5119 -0.0222
 1554SOL     OW 6268   2.069   2.834   2.774  0.0735  0.3312  0.0878
 1554SOL    HW2 6269   2.137   2.799   2.716 -0.1970 -0.3514  0.1699
 1554SOL    HW3 6270   1.987   2.804   2.735 -0.2079  1.4782 -0.2289
 1554SOL    MW4 6271   2.067   2.825   2.761  0.0007  0.3924  0.0570
 1555SOL     OW 6272   2.040   3.095   2.687 -0.2986  0.3427  0.2546
 1555SOL    HW2 6273   2.059   3.009   2.725 -1.5007 -0.1460 -0.2347
 1555SOL    HW3 6274   2.060   3.085   2.594 -1.5797  0.2388 -0.0130
 1555SOL    MW4 6275   2.046   3.083   2.679 -0.6263  0.2644  0.1545
 1556SOL     OW 6276   1.810   3.216   2.746  0.0410  0.0542 -0.0245
 1556SOL    HW2 6277   1.796   3.299   2.698  1.1274 -0.4966 -1.3256
 1556SOL    HW3 6278   1.897   3.187   2.719 -0.9690 -2.3426 -0.8357
 1556SOL    MW4 6279   1.820   3.223   2.736  0.0510 -0.3347 -0.3033
 1557SOL     OW 6280   1.790   3.464   2.626 -0.0400  0.0193 -0.5829
 1557SOL    HW2 6281   1.865   3.503   2.671  0.7030 -1.6001 -0.3692
 1557SOL    HW3 6282   1.806   3.482   2.533  0.6235 -0.3519 -0.5397
 1557SOL    MW4 6283   1.802   3.472   2.620  0.1456 -0.2432 -0.5491
 1558SOL     OW 6284   2.019   3.564   2.712 -0.0587  0.2909 -0.4749
 1558SOL    HW2 6285   2.025   3.559   2.807  1.4573 -0.5884 -0.6076
 1558SOL    HW3 6286   2.101   3.527   2.680 -1.2795 -1.0645 -2.1631
 1558SOL    MW4 6287   2.030   3.558   2.720 -0.0198 -0.0038 -0.7153
 1559SOL     OW 6288   1.988   3.829   2.629 -0.2072  0.7128 -0.2570
 1559SOL    HW2 6289   1.914   3.864   2.678  0.4093  1.8875 -0.1583
 1559SOL    HW3 6290   1.988   3.735   2.649 -1.5232  0.7433 -0.0759
 1559SOL    MW4 6291   1.978   3.821   2.638 -0.2997  0.8717 -0.2198
 1560SOL     OW 6292   1.792   3.990   2.775  0.0305 -0.0731  0.1863
 1560SOL    HW2 6293   1.806   4.075   2.733 -0.6039 -0.4842 -0.8780
 1560SOL    HW3 6294   1.712   3.956   2.734  1.1872 -1.9162 -0.6006
 1560SOL    MW4 6295   1.783   3.997   2.764  0.0994 -0.3705 -0.0579
 1561SOL     OW 6296   1.816   4.227   2.662  0.0468 -0.0321 -0.0160
 1561SOL    HW2 6297   1.746   4.282   2.699 -0.2386 -1.1918  1.2013
 1561SOL    HW3 6298   1.805   4.235   2.568 -1.5353  0.0507  0.1620
 1561SOL    MW4 6299   1.805   4.235   2.655 -0.1997 -0.1750  0.1681
 1562SOL     OW 6300   2.015   4.400   2.777  0.0923  0.2040 -0.0947
 1562SOL    HW2 6301   1.945   4.352   2.733  0.4955  0.3141 -0.8783
 1562SOL    HW3 6302   2.033   4.474   2.718  1.6134 -0.4278 -0.4445
 1562SOL    MW4 6303   2.008   4.404   2.763  0.3462  0.1354 -0.2444
 1563SOL     OW 6304   2.471   4.667   2.636  0.3823  0.4857 -0.3323
 1563SOL    HW2 6305   2.549   4.714   2.666  1.8544 -0.9298 -1.8290
 1563SOL    HW3 6306   2.469   4.682   2.542 -0.5787 -0.3199 -0.4469
 1563SOL    MW4 6307   2.481   4.675   2.628  0.4497  0.1926 -0.5448
 1564SOL     OW 6308   2.238   0.123   2.745 -0.3828 -0.4673  0.3612
 1564SOL    HW2 6309   2.244   0.108   2.840 -0.0544  0.9756  0.5694
 1564SOL    HW3 6310   2.319   0.086   2.710  0.1043  0.1849  0.7954
 1564SOL    MW4 6311   2.250   0.116   2.753 -0.2751 -0.1909  0.4463
 1565SOL     OW 6312   2.195   0.386   2.691 -0.4012 -0.2532 -0.0486
 1565SOL    HW2 6313   2.200   0.293   2.710 -1.2014 -0.2046  0.4026
 1565SOL    HW3 6314   2.214   0.393   2.598  3.0326 -0.5594  0.5592
 1565SOL    MW4 6315   2.198   0.375   2.681 -0.0539 -0.2872  0.0913
 1566SOL     OW 6316   2.418   0.512   2.790 -0.0018 -0.0001  0.0981
 1566SOL    HW2 6317   2.444   0.583   2.731  0.3299 -0.8098 -0.7464
 1566SOL    HW3 6318   2.334   0.482   2.757  0.0521 -0.2730  0.2051
 1566SOL    MW4 6319   2.410   0.518   2.778  0.0491 -0.1429  0.0010
 1567SOL     OW 6320   2.459   0.746   2.650 -0.4122 -0.1939 -0.2121
 1567SOL    HW2 6321   2.385   0.803   2.671 -1.1421 -1.1739 -0.0948
 1567SOL    HW3 6322   2.442   0.719   2.559  0.2779  0.3084 -0.4881
 1567SOL    MW4 6323   2.447   0.750   2.641 -0.4175 -0.2569 -0.2329
 1568SOL     OW 6324   2.231   0.885   2.724  0.2482  0.5107 -0.2046
 1568SOL    HW2 6325   2.251   0.885   2.818  0.6045  2.1174 -0.2556
 1568SOL    HW3 6326   2.156   0.826   2.715  1.4122 -1.1586  0.8082
 1568SOL    MW4 6327   2.224   0.877   2.735  0.4489  0.5025 -0.0777
 1569SOL     OW 6328   2.219   1.155   2.622 -0.3222 -0.3014 -0.0797
 1569SOL    HW2 6329   2.226   1.067   2.660  0.6242 -0.0960  0.2351
 1569SOL    HW3 6330   2.273   1.150   2.543 -0.3953 -0.0485 -0.1451
 1569SOL    MW4 6331   2.227   1.143   2.616 -0.2072 -0.2410 -0.0470
 1570SOL     OW 6332   2.456   1.274   2.754  0.5764 -0.3662  0.5495
 1570SOL    HW2 6333   2.522   1.210   2.725  0.6182  0.2920 -0.8359
 1570SOL    HW3 6334   2.377   1.250   2.706  0.0549 -0.5549  1.4833
 1570SOL    MW4 6335   2.455   1.262   2.744  0.5131 -0.3042  0.4902
 1571SOL     OW 6336   2.499   1.536   2.662 -0.1850  0.0248  0.0274
 1571SOL    HW2 6337   2.420   1.579   2.695  0.0710  0.9715 -0.5892
 1571SOL    HW3 6338   2.504   1.455   2.713 -1.5065 -0.0146  0.1334
 1571SOL    MW4 6339   2.489   1.531   2.673 -0.3257  0.1444 -0.0398
 1572SOL     OW 6340   2.238   1.691   2.741  0.2062  0.1089  0.6840
 1572SOL    HW2 6341   2.218   1.781   2.713 -0.8757 -0.1854  0.5166
 1572SOL    HW3 6342   2.168   1.638   2.704  0.5702 -0.7457  1.2116
 1572SOL    MW4 6343   2.226   1.696   2.732  0.1116 -0.0427  0.7312
 1573SOL     OW 6344   2.196   1.956   2.645 -0.1834 -0.4292  0.2791
 1573SOL    HW2 6345   2.121   2.008   2.672  0.6160  2.3349 -2.5047
 1573SOL    HW3 6346   2.190   1.953   2.550  1.6131 -2.6913  0.1999
 1573SOL    MW4 6347   2.186   1.962   2.636  0.1590 -0.3630 -0.0985
 1574SOL     OW 6348   2.438   2.030   2.717 -0.0887  0.3266  0.3067
 1574SOL    HW2 6349   2.444   2.121   2.687  1.2413 -0.4477 -1.9013
 1574SOL    HW3 6350   2.353   2.000   2.684  0.1426  0.3343 -0.3192
 1574SOL    MW4 6351   2.427   2.038   2.708  0.1173  0.2253 -0.0672
 1575SOL     OW 6352   2.461   2.295   2.641 -0.1555 -0.2147 -0.2363
 1575SOL    HW2 6353   2.541   2.341   2.664 -0.9704  1.1821 -0.0903
 1575SOL    HW3 6354   2.450   2.310   2.547 -1.3010  1.3675  0.1171
 1575SOL    MW4 6355   2.470   2.303   2.632 -0.4141  0.1783 -0.1707
 1576SOL     OW 6356   2.248   2.447   2.726  0.4378  0.3533 -0.3315
 1576SOL    HW2 6357   2.243   2.438   2.821  0.4854  1.3733 -0.2239
 1576SOL    HW3 6358   2.315   2.385   2.699 -0.2529 -0.6286  0.1925
 1576SOL    MW4 6359   2.256   2.438   2.735  0.3531  0.3583 -0.2482
 1577SOL     OW 6360   2.261   2.696   2.607  0.6328 -0.0288  0.0630
 1577SOL    HW2 6361   2.335   2.735   2.653  1.2949 -1.2334  0.0426
 1577SOL    HW3 6362   2.252   2.609   2.645 -1.1746  0.3274  0.4974
 1577SOL    MW4 6363   2.270   2.690   2.618  0.4818 -0.1407  0.1180
 1578SOL     OW 6364   2.450   2.829   2.750  0.6233  1.0076 -0.0708
 1578SOL    HW2 6365   2.527   2.792   2.707  0.1930  0.7638 -0.6351
 1578SOL    HW3 6366   2.452   2.922   2.727  0.0381  0.7582 -1.1609
 1578SOL    MW4 6367   2.461   2.836   2.741  0.4892  0.9427 -0.2890
 1579SOL     OW 6368   2.470   3.100   2.685  0.2337  0.1772 -0.1430
 1579SOL    HW2 6369   2.406   3.166   2.711  1.1869  1.0821 -0.0278
 1579SOL    HW3 6370   2.480   3.112   2.590  0.8799  0.6452 -0.0230
 1579SOL    MW4 6371   2.463   3.110   2.676  0.4444  0.3586 -0.1118
 1580SOL     OW 6372   2.266   3.258   2.753 -0.3596  0.4585 -0.3190
 1580SOL    HW2 6373   2.284   3.265   2.847  0.4988 -1.1275 -0.3485
 1580SOL    HW3 6374   2.196   3.194   2.747 -0.9263  1.1144 -0.7139
 1580SOL    MW4 6375   2.259   3.251   2.765 -0.3207  0.3355 -0.3750
 1581SOL     OW 6376   2.261   3.477   2.594 -0.3547  0.5436  0.0881
 1581SOL    HW2 6377   2.323   3.536   2.637 -0.8205  1.0082  0.1278
 1581SOL    HW3 6378   2.261   3.398   2.649  2.3963 -0.6443 -1.5236
 1581SOL    MW4 6379   2.269   3.474   2.607 -0.0534  0.4482 -0.1192
 1582SOL     OW 6380   2.438   3.638   2.718 -0.6081 -0.4244  0.1872
 1582SOL    HW2 6381   2.436   3.657   2.812 -1.9482 -0.0658  0.1029
 1582SOL    HW3 6382   2.438   3.724   2.676  0.9897 -0.5756 -0.1364
 1582SOL    MW4 6383   2.438   3.652   2.725 -0.5741 -0.3967  0.1338
 1583SOL     OW 6384   2.431   3.885   2.615 -0.2555 -0.0051  0.6991
 1583SOL    HW2 6385   2.500   3.925   2.668 -0.1969  0.8465 -0.0075
 1583SOL    HW3 6386   2.350   3.911   2.658 -0.1857  0.2265  0.6948
 1583SOL    MW4 6387   2.430   3.894   2.628 -0.2387  0.1378  0.6056
 1584SOL     OW 6388   2.204   3.993   2.736  0.1732  0.0933 -0.4073
 1584SOL    HW2 6389   2.199   4.007   2.830  1.1098  1.4204 -0.5311
 1584SOL    HW3 6390   2.132   3.933   2.716 -0.5747  0.4978  1.0179
 1584SOL    MW4 6391   2.194   3.987   2.745  0.1979  0.3219 -0.2353
 1585SOL     OW 6392   2.246   4.273   2.685  0.0893 -0.1544 -0.1146
 1585SOL    HW2 6393   2.229   4.187   2.722 -0.0449  0.1255  0.4788
 1585SOL    HW3 6394   2.172   4.327   2.715  1.4944  0.8309  1.6622
 1585SOL    MW4 6395   2.234   4.269   2.694  0.2570  0.0124  0.1981
 1586SOL     OW 6396   2.471   4.406   2.771  0.2755 -0.1401 -0.2816
 1586SOL    HW2 6397   2.392   4.359   2.745  0.1747  0.2530 -0.6997
 1586SOL    HW3 6398   2.477   4.479   2.709  1.5069 -0.7347 -0.9059
 1586SOL    MW4 6399   2.462   4.409   2.759  0.4246 -0.1659 -0.4194
 1587SOL     OW 6400   2.888   4.644   2.620  0.0134  0.3419  0.0261
 1587SOL    HW2 6401   2.973   4.652   2.665 -0.4709  1.8334  0.7246
 1587SOL    HW3 6402   2.908   4.661   2.528  0.4546  0.9095  0.2207
 1587SOL    MW4 6403   2.902   4.648   2.614  0.0079  0.6137  0.1440
 1588SOL     OW 6404   2.697   0.141   2.733 -0.1880  0.0899  0.0132
 1588SOL    HW2 6405   2.707   0.125   2.827  0.4382 -0.7584 -0.1902
 1588SOL    HW3 6406   2.769   0.092   2.693 -0.3518  0.5843 -0.8963
 1588SOL    MW4 6407   2.708   0.133   2.740 -0.1266  0.0432 -0.1335
 1589SOL     OW 6408   2.667   0.406   2.681  0.3843 -0.5914  0.0505
 1589SOL    HW2 6409   2.677   0.313   2.699  1.4121 -0.4781  0.0940
 1589SOL    HW3 6410   2.580   0.428   2.715 -0.7065 -1.9590 -1.7453
 1589SOL    MW4 6411   2.656   0.397   2.688  0.3762 -0.7569 -0.1807
 1590SOL     OW 6412   2.903   0.534   2.726 -0.1211  0.0845  0.1309
 1590SOL    HW2 6413   2.902   0.618   2.681 -0.6666 -0.2802 -0.5458
 1590SOL    HW3 6414   2.819   0.494   2.705  0.0593 -0.5530  0.5977
 1590SOL    MW4 6415   2.892   0.539   2.717 -0.1695 -0.0477  0.1030
 1591SOL     OW 6416   2.916   0.767   2.595 -0.3262  0.0192  0.0834
 1591SOL    HW2 6417   2.989   0.821   2.625 -0.0729 -0.6883  0.7438
 1591SOL    HW3 6418   2.840   0.799   2.644 -0.2858  0.1472  0.0629
 1591SOL    MW4 6419   2.916   0.779   2.605 -0.2875 -0.0572  0.1676
 1592SOL     OW 6420   2.697   0.873   2.711  0.2027 -0.5322 -0.2511
 1592SOL    HW2 6421   2.704   0.878   2.807  1.1442  0.2032 -0.3552
 1592SOL    HW3 6422   2.616   0.824   2.696 -0.8708  0.8620  0.9202
 1592SOL    MW4 6423   2.687   0.867   2.722  0.1855 -0.2511 -0.1101
 1593SOL     OW 6424   2.664   1.135   2.632 -0.1475  0.1563  0.2214
 1593SOL    HW2 6425   2.734   1.183   2.677  0.5349  1.2729 -1.9820
 1593SOL    HW3 6426   2.679   1.044   2.656  1.5076  0.4875  0.5172
 1593SOL    MW4 6427   2.676   1.129   2.641  0.1609  0.3474 -0.0303
 1594SOL     OW 6428   2.876   1.291   2.743 -0.3446 -0.4742 -0.3770
 1594SOL    HW2 6429   2.886   1.278   2.838 -0.7568 -0.1911 -0.2932
 1594SOL    HW3 6430   2.946   1.239   2.704  0.7736  0.6261  0.1476
 1594SOL    MW4 6431   2.886   1.282   2.751 -0.2513 -0.2917 -0.2968
 1595SOL     OW 6432   2.900   1.556   2.633 -0.1357  0.4178  0.2890
 1595SOL    HW2 6433   2.845   1.628   2.664 -0.0779  0.4229  0.3792
 1595SOL    HW3 6434   2.875   1.481   2.686 -0.5397  0.2492 -0.1338
 1595SOL    MW4 6435   2.889   1.556   2.644 -0.1814  0.3963  0.2453
 1596SOL     OW 6436   2.707   1.706   2.744  0.0906  0.5261 -0.2607
 1596SOL    HW2 6437   2.716   1.694   2.838 -0.2272  3.0066  0.1112
 1596SOL    HW3 6438   2.626   1.660   2.721 -0.7477  1.3809  0.9709
 1596SOL    MW4 6439   2.698   1.698   2.753 -0.0620  0.9662 -0.0494
 1597SOL     OW 6440   2.673   1.941   2.601 -0.1180 -0.0268 -0.4713
 1597SOL    HW2 6441   2.693   1.861   2.648 -1.2673 -0.4269 -0.6452
 1597SOL    HW3 6442   2.588   1.968   2.634 -0.8755 -0.2339 -2.1819
 1597SOL    MW4 6443   2.664   1.934   2.611 -0.3695 -0.1067 -0.7198
 1598SOL     OW 6444   2.905   2.054   2.707  0.2048  0.4016 -0.4906
 1598SOL    HW2 6445   2.906   2.146   2.682 -1.0574  0.6091  0.1737
 1598SOL    HW3 6446   2.834   2.017   2.654 -0.1353  0.0914  0.1750
 1598SOL    MW4 6447   2.895   2.061   2.696 -0.0064  0.3881 -0.3154
 1599SOL     OW 6448   2.938   2.319   2.641  0.1814 -0.2486 -0.2203
 1599SOL    HW2 6449   3.013   2.367   2.675  0.0516  0.8214 -1.4168
 1599SOL    HW3 6450   2.862   2.368   2.672 -0.0552 -1.4770  1.2128
 1599SOL    MW4 6451   2.937   2.332   2.649  0.1333 -0.2694 -0.1891
 1600SOL     OW 6452   2.703   2.441   2.723 -0.1844 -0.1836  0.6622
 1600SOL    HW2 6453   2.696   2.448   2.818  0.5373 -0.9678  0.7815
 1600SOL    HW3 6454   2.689   2.530   2.691  1.3076  0.4193  1.6200
 1600SOL    MW4 6455   2.700   2.453   2.732  0.1080 -0.2072  0.8044
 1601SOL     OW 6456   2.681   2.706   2.656 -0.1964  0.1407 -0.1126
 1601SOL    HW2 6457   2.748   2.771   2.676 -1.4055  1.0239  1.1967
 1601SOL    HW3 6458   2.700   2.678   2.566  2.1605  0.0377  0.3817
 1601SOL    MW4 6459   2.692   2.711   2.646 -0.0451  0.2439  0.1254
 1602SOL     OW 6460   2.909   2.854   2.714  0.0163 -0.0357  0.0773
 1602SOL    HW2 6461   2.919   2.852   2.809  0.9884  0.1180 -0.0210
 1602SOL    HW3 6462   2.905   2.947   2.692  0.1083 -0.0637 -0.0593
 1602SOL    MW4 6463   2.910   2.866   2.723  0.1569 -0.0191  0.0467
 1603SOL     OW 6464   2.923   3.122   2.638  0.1714  0.8853 -0.0182
 1603SOL    HW2 6465   2.848   3.180   2.654 -0.8455 -0.0314 -1.3804
 1603SOL    HW3 6466   2.928   3.115   2.543  0.6919 -0.7374  0.1153
 1603SOL    MW4 6467   2.914   3.129   2.628  0.1059  0.5503 -0.1802
 1604SOL     OW 6468   2.707   3.246   2.744  0.0208  0.3899 -0.2104
 1604SOL    HW2 6469   2.681   3.334   2.717 -0.2728  0.7488  1.2036
 1604SOL    HW3 6470   2.628   3.193   2.731  0.3087  0.2447 -1.4214
 1604SOL    MW4 6471   2.693   3.250   2.738  0.0198  0.4177 -0.1838
 1605SOL     OW 6472   2.668   3.519   2.653 -0.5544  0.0007 -0.3445
 1605SOL    HW2 6473   2.595   3.569   2.689 -0.5668 -0.2346 -0.0386
 1605SOL    HW3 6474   2.658   3.525   2.558 -1.0215 -0.1012 -0.3013
 1605SOL    MW4 6475   2.657   3.526   2.645 -0.6177 -0.0436 -0.2983
 1606SOL     OW 6476   2.918   3.630   2.736  0.6179  0.5030 -0.1240
 1606SOL    HW2 6477   2.921   3.618   2.831 -0.2448  0.5650 -0.0814
 1606SOL    HW3 6478   2.839   3.584   2.709  2.3207 -1.8385 -1.1911
 1606SOL    MW4 6479   2.908   3.623   2.745  0.7288  0.2024 -0.2592
 1607SOL     OW 6480   2.874   3.889   2.646 -0.6742 -0.1611 -0.4181
 1607SOL    HW2 6481   2.958   3.934   2.653 -0.8127  0.2568 -1.3601
 1607SOL    HW3 6482   2.891   3.801   2.678 -0.0144  0.0891 -0.0799
 1607SOL    MW4 6483   2.887   3.883   2.651 -0.6051 -0.0730 -0.4976
 1608SOL     OW 6484   2.649   3.981   2.766 -0.3728  0.4509 -0.0582
 1608SOL    HW2 6485   2.662   4.074   2.749  0.6886  0.2176 -0.5845
 1608SOL    HW3 6486   2.726   3.939   2.727  1.1458 -0.2859  3.5682
 1608SOL    MW4 6487   2.661   3.988   2.759 -0.0327  0.3228  0.3507
 1609SOL     OW 6488   2.664   4.233   2.669 -0.0305 -0.2645  0.5119
 1609SOL    HW2 6489   2.743   4.284   2.683  0.5689 -0.8077 -0.7890
 1609SOL    HW3 6490   2.593   4.287   2.704  0.8016  0.6378  0.8067
 1609SOL    MW4 6491   2.665   4.247   2.675  0.1585 -0.2170  0.3791
 1610SOL     OW 6492   2.885   4.393   2.730 -0.1808  0.5240  0.1384
 1610SOL    HW2 6493   2.896   4.416   2.822  2.3820  0.6985 -0.1680
 1610SOL    HW3 6494   2.873   4.476   2.685  1.6545  0.7180 -0.0392
 1610SOL    MW4 6495   2.885   4.407   2.736  0.3994  0.5732  0.0741
 1611SOL     OW 6496   3.358   4.646   2.631 -0.1349 -0.2364  0.5101
 1611SOL    HW2 6497   3.363   4.557   2.665 -0.2506 -0.2970  0.3650
 1611SOL    HW3 6498   3.287   4.687   2.680 -0.4619 -0.3959  0.1727
 1611SOL    MW4 6499   3.350   4.640   2.642 -0.1934 -0.2655  0.4468
 1612SOL     OW 6500   3.117   0.078   2.761  0.1223 -1.1732 -0.3136
 1612SOL    HW2 6501   3.132   0.083   2.856  0.1211  0.7425 -0.3929
 1612SOL    HW3 6502   3.091   0.166   2.736  0.6794 -1.5189 -2.2021
 1612SOL    MW4 6503   3.116   0.090   2.770  0.1957 -0.9660 -0.5732
 1613SOL     OW 6504   3.121   0.340   2.659 -0.1410  0.5454  1.2688
 1613SOL    HW2 6505   3.036   0.378   2.680 -1.0577 -0.4271 -0.6011
 1613SOL    HW3 6506   3.124   0.339   2.564  1.5651 -0.3377  1.3186
 1613SOL    MW4 6507   3.110   0.345   2.650 -0.0370  0.3006  1.0283
 1614SOL     OW 6508   3.369   0.492   2.729  0.1254 -0.3329 -0.2120
 1614SOL    HW2 6509   3.351   0.573   2.681 -0.2901 -1.5733 -2.2245
 1614SOL    HW3 6510   3.291   0.438   2.714  0.4668 -1.1766  0.9799
 1614SOL    MW4 6511   3.356   0.495   2.721  0.1156 -0.6079 -0.3202
 1615SOL     OW 6512   3.355   0.762   2.627  0.1146  0.1118 -0.2502
 1615SOL    HW2 6513   3.437   0.806   2.651 -0.3461  0.8707 -0.0469
 1615SOL    HW3 6514   3.362   0.750   2.532  0.1554  0.8173 -0.3406
 1615SOL    MW4 6515   3.367   0.766   2.618  0.0591  0.3050 -0.2351
 1616SOL     OW 6516   3.136   0.915   2.706  0.2492  0.0128 -0.0373
 1616SOL    HW2 6517   3.130   0.901   2.800  0.7378  0.5330  0.0751
 1616SOL    HW3 6518   3.216   0.870   2.680  0.2619  0.1075 -0.1608
 1616SOL    MW4 6519   3.145   0.907   2.715  0.3154  0.0939 -0.0386
 1617SOL     OW 6520   3.108   1.182   2.639  0.0579  0.2313  0.1747
 1617SOL    HW2 6521   3.114   1.088   2.656  0.8877  0.2519  0.0179
 1617SOL    HW3 6522   3.131   1.192   2.547 -0.4297  0.5483  0.0844
 1617SOL    MW4 6523   3.112   1.171   2.629  0.1030  0.2759  0.1421
 1618SOL     OW 6524   3.364   1.281   2.699 -0.7470  0.5873 -0.0045
 1618SOL    HW2 6525   3.367   1.281   2.795  0.6881 -0.3143 -0.0410
 1618SOL    HW3 6526   3.281   1.238   2.678 -0.2440 -0.8118  0.8321
 1618SOL    MW4 6527   3.353   1.275   2.709 -0.4911  0.2837  0.1009
 1619SOL     OW 6528   3.359   1.548   2.642  0.2973 -0.0583 -0.2702
 1619SOL    HW2 6529   3.277   1.591   2.665  0.1209 -0.2019 -0.6284
 1619SOL    HW3 6530   3.347   1.458   2.671  0.4567  0.0005 -0.0202
 1619SOL    MW4 6531   3.346   1.542   2.649  0.2949 -0.0695 -0.2844
 1620SOL     OW 6532   3.138   1.673   2.744  0.1107  0.1560  0.1545
 1620SOL    HW2 6533   3.137   1.752   2.690  0.3983  0.0017 -0.0787
 1620SOL    HW3 6534   3.058   1.627   2.721 -0.4934  0.8139  0.9346
 1620SOL    MW4 6535   3.127   1.677   2.734  0.0689  0.2224  0.2265
 1621SOL     OW 6536   3.139   1.927   2.621 -0.4511 -0.1598  0.7702
 1621SOL    HW2 6537   3.215   1.968   2.661  0.1405  0.0219 -0.5338
 1621SOL    HW3 6538   3.064   1.975   2.657 -0.0205 -0.7387  2.5364
 1621SOL    MW4 6539   3.139   1.938   2.631 -0.3164 -0.2122  0.8316
 1622SOL     OW 6540   3.378   2.060   2.708  0.0708  0.4400  0.1398
 1622SOL    HW2 6541   3.381   2.053   2.803 -1.2982  0.8691  0.2241
 1622SOL    HW3 6542   3.378   2.154   2.691  0.7674  0.3609 -0.3018
 1622SOL    MW4 6543   3.379   2.072   2.718 -0.0179  0.4864  0.0927
 1623SOL     OW 6544   3.367   2.324   2.650 -0.0767 -0.1052  0.0091
 1623SOL    HW2 6545   3.443   2.375   2.678 -0.8369  1.3682 -0.5570
 1623SOL    HW3 6546   3.376   2.320   2.555 -1.2612  1.0066 -0.1665
 1623SOL    MW4 6547   3.378   2.330   2.641 -0.3331  0.2358 -0.0889
 1624SOL     OW 6548   3.151   2.473   2.742 -0.4848 -0.1427 -0.1859
 1624SOL    HW2 6549   3.156   2.557   2.696  0.3331  1.0439  2.0319
 1624SOL    HW3 6550   3.218   2.419   2.700  0.2867  0.9443 -0.3667
 1624SOL    MW4 6551   3.160   2.477   2.730 -0.2751  0.1574  0.0827
 1625SOL     OW 6552   3.153   2.741   2.615  0.4474  0.2505 -0.0126
 1625SOL    HW2 6553   3.224   2.798   2.644  0.5346 -1.0224  2.3360
 1625SOL    HW3 6554   3.074   2.781   2.652  0.3572 -0.3781  0.4794
 1625SOL    MW4 6555   3.152   2.754   2.623  0.4470 -0.0005  0.3622
 1626SOL     OW 6556   3.368   2.905   2.714  0.2357 -0.1002  0.0260
 1626SOL    HW2 6557   3.376   2.885   2.807  0.5716  1.2933  0.3124
 1626SOL    HW3 6558   3.443   2.861   2.674  0.0335 -0.7866  0.3960
 1626SOL    MW4 6559   3.379   2.896   2.721  0.2534 -0.0069  0.1123
 1627SOL     OW 6560   3.333   3.141   2.583 -0.0467  0.2246 -0.2166
 1627SOL    HW2 6561   3.345   3.056   2.626  0.0515  0.3617  0.0212
 1627SOL    HW3 6562   3.321   3.118   2.490 -0.1732 -0.0604 -0.1331
 1627SOL    MW4 6563   3.333   3.126   2.576 -0.0505  0.2050 -0.1743
 1628SOL     OW 6564   3.136   3.255   2.737  0.1436 -0.0311  0.4657
 1628SOL    HW2 6565   3.210   3.221   2.688 -0.2542  0.3323 -0.3917
 1628SOL    HW3 6566   3.060   3.206   2.704 -0.0528 -0.1595  1.0902
 1628SOL    MW4 6567   3.136   3.244   2.726  0.0651  0.0000  0.4349
 1629SOL     OW 6568   3.145   3.499   2.612 -0.0849 -0.0851 -0.1844
 1629SOL    HW2 6569   3.132   3.410   2.645 -0.7541 -0.0388 -0.3191
 1629SOL    HW3 6570   3.066   3.546   2.637 -1.0135 -0.2805 -2.6497
 1629SOL    MW4 6571   3.133   3.494   2.620 -0.2956 -0.1049 -0.5271
 1630SOL     OW 6572   3.354   3.634   2.732 -0.5209  0.5761 -0.2878
 1630SOL    HW2 6573   3.344   3.624   2.826  1.9618  0.1629 -0.0238
 1630SOL    HW3 6574   3.283   3.583   2.694  0.0856 -1.5569  1.3491
 1630SOL    MW4 6575   3.343   3.626   2.739 -0.1132  0.2403 -0.0370
 1631SOL     OW 6576   3.341   3.890   2.642 -0.2368 -0.2466  0.5146
 1631SOL    HW2 6577   3.337   3.809   2.693 -0.9011 -0.1605  0.5993
 1631SOL    HW3 6578   3.349   3.860   2.551  0.1596 -0.4043  0.6003
 1631SOL    MW4 6579   3.342   3.875   2.637 -0.2723 -0.2563  0.5369
 1632SOL     OW 6580   3.096   4.014   2.706 -0.3765 -0.4231  0.6229
 1632SOL    HW2 6581   3.106   4.106   2.684 -3.3857 -0.0157  0.7424
 1632SOL    HW3 6582   3.180   3.974   2.683  0.4598  2.0645 -0.7911
 1632SOL    MW4 6583   3.108   4.021   2.700 -0.6633 -0.0405  0.4520
 1633SOL     OW 6584   3.122   4.272   2.638 -0.0896 -0.3543 -0.2102
 1633SOL    HW2 6585   3.046   4.320   2.671 -0.4299  0.0504 -1.5752
 1633SOL    HW3 6586   3.109   4.268   2.544 -0.1446 -3.2442 -0.1281
 1633SOL    MW4 6587   3.110   4.278   2.630 -0.1421 -0.6819 -0.3793
 1634SOL     OW 6588   3.370   4.382   2.708 -0.4112 -0.2587  0.3164
 1634SOL    HW2 6589   3.368   4.370   2.803 -0.9649  0.6930  0.4335
 1634SOL    HW3 6590   3.303   4.323   2.674 -0.7969  0.0144  0.5989
 1634SOL    MW4 6591   3.360   4.373   2.716 -0.5350 -0.0973  0.3691
 1635SOL     OW 6592   3.847   4.650   2.656 -0.2321  0.1776 -0.0407
 1635SOL    HW2 6593   3.840   4.556   2.677  1.1418 -0.0116 -0.4147
 1635SOL    HW3 6594   3.766   4.687   2.690 -0.6548 -1.0997  0.3987
 1635SOL    MW4 6595   3.835   4.642   2.663 -0.1068 -0.0157 -0.0319
 1636SOL     OW 6596   3.629   0.120   2.709  0.1484  0.1782  0.0239
 1636SOL    HW2 6597   3.596   0.207   2.686  0.8011  0.4199 -0.0063
 1636SOL    HW3 6598   3.554   0.062   2.699 -0.7235  0.9903  1.6038
 1636SOL    MW4 6599   3.615   0.124   2.705  0.1194  0.3173  0.2284
 1637SOL     OW 6600   3.596   0.382   2.641 -0.4495  0.1958 -0.1741
 1637SOL    HW2 6601   3.663   0.435   2.686 -0.1827  0.0109 -0.3485
 1637SOL    HW3 6602   3.513   0.420   2.669 -0.3341 -0.9481  1.7770
 1637SOL    MW4 6603   3.594   0.394   2.651 -0.3989  0.0205  0.0603
 1638SOL     OW 6604   3.807   0.532   2.746  0.0332  0.4211 -0.4377
 1638SOL    HW2 6605   3.825   0.548   2.839 -3.3175 -0.3655  0.3881
 1638SOL    HW3 6606   3.878   0.474   2.718  1.1879  0.8108  1.5589
 1638SOL    MW4 6607   3.819   0.526   2.754 -0.2565  0.3687 -0.0651
 1639SOL     OW 6608   3.790   0.758   2.596 -0.8754 -0.0556  0.3835
 1639SOL    HW2 6609   3.719   0.807   2.637 -0.6783  0.1392  0.4909
 1639SOL    HW3 6610   3.799   0.679   2.649 -0.8065  0.0657  0.5508
 1639SOL    MW4 6611   3.782   0.754   2.608 -0.8402 -0.0138  0.4196
 1640SOL     OW 6612   3.575   0.895   2.722 -0.6586  0.1946 -0.5695
 1640SOL    HW2 6613   3.598   0.902   2.814  0.8236  0.2349 -0.9307
 1640SOL    HW3 6614   3.569   0.986   2.692  0.7460  0.1634 -0.9614
 1640SOL    MW4 6615   3.577   0.908   2.730 -0.2775  0.1959 -0.6685
 1641SOL     OW 6616   3.580   1.139   2.610  0.5708 -0.1924  0.3152
 1641SOL    HW2 6617   3.660   1.172   2.652  0.3621 -0.2783  0.7838
 1641SOL    HW3 6618   3.509   1.186   2.654  0.3656 -0.0441 -0.1678
 1641SOL    MW4 6619   3.581   1.150   2.621  0.5167 -0.1842  0.3128
 1642SOL     OW 6620   3.795   1.258   2.695 -0.3224  0.0842  0.2715
 1642SOL    HW2 6621   3.873   1.206   2.676 -1.0397 -1.0785  0.5069
 1642SOL    HW3 6622   3.813   1.343   2.654  0.9134 -0.2859  0.0212
 1642SOL    MW4 6623   3.808   1.263   2.687 -0.2539 -0.1179  0.2694
 1643SOL     OW 6624   3.836   1.531   2.622  0.2230 -0.2616  0.0726
 1643SOL    HW2 6625   3.924   1.557   2.650  0.2711 -0.1567 -0.1783
 1643SOL    HW3 6626   3.777   1.588   2.672  0.2438 -1.2807  1.2914
 1643SOL    MW4 6627   3.840   1.542   2.632  0.2322 -0.3822  0.2003
 1644SOL     OW 6628   3.579   1.683   2.758  0.1600  0.2556  0.2152
 1644SOL    HW2 6629   3.586   1.763   2.706 -0.1610 -0.1174 -0.4141
 1644SOL    HW3 6630   3.500   1.640   2.725  0.7429 -0.6901  0.0211
 1644SOL    MW4 6631   3.570   1.688   2.747  0.1945  0.0815  0.1066
 1645SOL     OW 6632   3.590   1.917   2.622  0.0725 -0.4730 -0.5487
 1645SOL    HW2 6633   3.508   1.955   2.653  0.6563  0.2689  0.0957
 1645SOL    HW3 6634   3.602   1.952   2.534  1.0169  1.5156  0.3379
 1645SOL    MW4 6635   3.581   1.926   2.614  0.2742 -0.1129 -0.3469
 1646SOL     OW 6636   3.804   2.061   2.709  0.1865 -0.7401 -0.5307
 1646SOL    HW2 6637   3.872   2.017   2.658 -0.3452 -1.4710 -0.6208
 1646SOL    HW3 6638   3.723   2.019   2.682 -0.3600  0.4403 -0.7553
 1646SOL    MW4 6639   3.802   2.050   2.699  0.0439 -0.6809 -0.5720
 1647SOL     OW 6640   3.775   2.335   2.646  0.1555 -0.0474  0.4424
 1647SOL    HW2 6641   3.798   2.253   2.689  1.3217  0.5872  1.0450
 1647SOL    HW3 6642   3.808   2.325   2.556 -1.7743 -1.1435 -0.1802
 1647SOL    MW4 6643   3.782   2.323   2.639  0.0548 -0.1082  0.4399
 1648SOL     OW 6644   3.579   2.482   2.743  0.2153 -0.4422 -0.2366
 1648SOL    HW2 6645   3.579   2.465   2.837  0.0126  1.1718  0.0667
 1648SOL    HW3 6646   3.638   2.416   2.707 -0.7232 -1.9175  0.8565
 1648SOL    MW4 6647   3.587   2.471   2.751  0.0646 -0.4239 -0.0522
 1649SOL     OW 6648   3.575   2.728   2.626  0.2732  0.1354 -0.0877
 1649SOL    HW2 6649   3.581   2.642   2.668 -2.0575 -0.0779 -0.1556
 1649SOL    HW3 6650   3.579   2.709   2.532  0.6341  0.1829 -0.0825
 1649SOL    MW4 6651   3.577   2.714   2.619  0.0136  0.1135 -0.0958
 1650SOL     OW 6652   3.820   2.842   2.734 -0.1704 -0.4158  0.1763
 1650SOL    HW2 6653   3.899   2.788   2.728 -0.0690 -0.0422 -2.6459
 1650SOL    HW3 6654   3.753   2.793   2.687 -1.2783 -0.1196  1.4234
 1650SOL    MW4 6655   3.822   2.829   2.727 -0.3030 -0.3273 -0.0317
 1651SOL     OW 6656   3.800   3.112   2.622  0.3534  0.1299  0.1413
 1651SOL    HW2 6657   3.723   3.150   2.664  1.8057  0.9718  2.1141
 1651SOL    HW3 6658   3.803   3.021   2.654 -0.7387 -0.4220 -1.2641
 1651SOL    MW4 6659   3.791   3.105   2.632  0.4013  0.1683  0.2162
 1652SOL     OW 6660   3.568   3.237   2.720 -0.8095 -0.0575  0.4349
 1652SOL    HW2 6661   3.569   3.327   2.689  0.5785 -0.1417  0.1880
 1652SOL    HW3 6662   3.500   3.194   2.668 -0.9651  0.6617  0.0410
 1652SOL    MW4 6663   3.559   3.243   2.709 -0.6468  0.0262  0.3502
 1653SOL     OW 6664   3.571   3.494   2.616 -0.0358  0.2400  0.1168
 1653SOL    HW2 6665   3.648   3.518   2.669  0.4642  2.0577 -1.3789
 1653SOL    HW3 6666   3.498   3.537   2.660  0.0550 -0.0640  0.5688
 1653SOL    MW4 6667   3.572   3.503   2.629  0.0422  0.4399 -0.0210
 1654SOL     OW 6668   3.786   3.582   2.743 -0.4464 -0.2430 -0.0652
 1654SOL    HW2 6669   3.856   3.541   2.693  0.3334  1.2020 -0.1921
 1654SOL    HW3 6670   3.788   3.674   2.717 -2.4939 -0.1982 -0.1688
 1654SOL    MW4 6671   3.795   3.589   2.733 -0.6135 -0.0465 -0.0956
 1655SOL     OW 6672   3.781   3.862   2.654 -0.2358  0.1968  0.1343
 1655SOL    HW2 6673   3.863   3.905   2.679 -0.5150  1.4112 -0.9535
 1655SOL    HW3 6674   3.713   3.922   2.682 -0.6667  0.0484 -0.5742
 1655SOL    MW4 6675   3.783   3.876   2.661 -0.3297  0.3371 -0.1025
 1656SOL     OW 6676   3.565   4.023   2.785 -0.2551  0.3777  0.2018
 1656SOL    HW2 6677   3.585   4.096   2.727  0.5801  0.5350  0.6860
 1656SOL    HW3 6678   3.489   3.981   2.745  1.7621 -0.9920 -2.3603
 1656SOL    MW4 6679   3.557   4.027   2.772  0.1211  0.2174 -0.0722
 1657SOL     OW 6680   3.600   4.245   2.630 -0.1506 -0.3193  0.0526
 1657SOL    HW2 6681   3.523   4.299   2.650  0.5941  0.6025  0.5120
 1657SOL    HW3 6682   3.611   4.254   2.536  0.1220  0.5563  0.1641
 1657SOL    MW4 6683   3.591   4.254   2.621 -0.0165 -0.0825  0.1278
 1658SOL     OW 6684   3.805   4.385   2.740  0.1376 -0.4145 -0.0919
 1658SOL    HW2 6685   3.879   4.328   2.716  0.3534 -0.1071 -0.1626
 1658SOL    HW3 6686   3.728   4.342   2.703  0.2360 -0.9264  0.2872
 1658SOL    MW4 6687   3.805   4.371   2.732  0.1788 -0.4416 -0.0510
 1659SOL     OW 6688   4.242   0.005   2.606 -0.1109 -0.1580 -0.1200
 1659SOL    HW2 6689   4.175   0.055   2.652 -0.2090 -0.4790  0.0870
 1659SOL    HW3 6690   4.325   0.036   2.643 -0.2076 -0.6995  0.5612
 1659SOL    MW4 6691   4.244   0.016   2.617 -0.1364 -0.2713 -0.0029
 1660SOL     OW 6692   4.048   0.128   2.748  0.3762  0.1344  0.3269
 1660SOL    HW2 6693   4.061   0.094   2.837  0.7955  0.1864  0.2883
 1660SOL    HW3 6694   3.968   0.086   2.717  2.1187 -2.6227 -0.5969
 1660SOL    MW4 6695   4.039   0.118   2.756  0.6614 -0.2225  0.2000
 1661SOL     OW 6696   3.996   0.356   2.627 -0.3518  0.2224 -0.2762
 1661SOL    HW2 6697   4.024   0.278   2.675 -0.6101  0.2089 -0.1466
 1661SOL    HW3 6698   4.031   0.343   2.539  2.6180  1.6066  0.6349
 1661SOL    MW4 6699   4.005   0.344   2.622  0.0062  0.4033 -0.1390
 1662SOL     OW 6700   4.229   0.496   2.728  0.3355  0.0112 -0.3744
 1662SOL    HW2 6701   4.150   0.452   2.697  0.5265  0.3816 -1.4212
 1662SOL    HW3 6702   4.301   0.446   2.688  0.6714 -0.9009  1.3227
 1662SOL    MW4 6703   4.228   0.484   2.718  0.4053 -0.0603 -0.2885
 1663SOL     OW 6704   4.278   0.745   2.602  0.0758  0.0009  0.1103
 1663SOL    HW2 6705   4.282   0.659   2.644  0.3427 -0.1152 -0.1393
 1663SOL    HW3 6706   4.271   0.725   2.508  1.3034  0.2365 -0.0512
 1663SOL    MW4 6707   4.278   0.731   2.595  0.2732  0.0167  0.0563
 1664SOL     OW 6708   4.033   0.872   2.685  0.0253  0.4398  0.2131
 1664SOL    HW2 6709   4.104   0.810   2.669  0.4129  0.3956  1.9856
 1664SOL    HW3 6710   3.955   0.831   2.647  0.8039  0.1502 -1.0868
 1664SOL    MW4 6711   4.032   0.859   2.678  0.1788  0.3958  0.2754
 1665SOL     OW 6712   4.031   1.144   2.619 -0.5655  0.4567 -0.0445
 1665SOL    HW2 6713   4.110   1.180   2.659 -0.0134  0.0000 -0.7105
 1665SOL    HW3 6714   4.040   1.049   2.626 -0.5257  0.3701 -1.1040
 1665SOL    MW4 6715   4.042   1.136   2.625 -0.4873  0.3849 -0.2720
 1666SOL     OW 6716   4.258   1.271   2.711  0.3729 -0.4783 -0.0948
 1666SOL    HW2 6717   4.271   1.362   2.684  0.3118 -0.7202 -0.9655
 1666SOL    HW3 6718   4.340   1.227   2.687 -0.0288 -0.8898 -0.7281
 1666SOL    MW4 6719   4.271   1.277   2.704  0.3119 -0.5645 -0.2933
 1667SOL     OW 6720   4.282   1.542   2.622  0.2072 -0.6482 -0.2283
 1667SOL    HW2 6721   4.366   1.583   2.643 -0.3618  0.1165  0.5302
 1667SOL    HW3 6722   4.283   1.535   2.526 -0.0154  1.8033 -0.4195
 1667SOL    MW4 6723   4.293   1.546   2.612  0.1025 -0.2236 -0.1538
 1668SOL     OW 6724   4.056   1.666   2.701  0.0377 -0.2225 -0.0574
 1668SOL    HW2 6725   4.054   1.669   2.796 -0.0427 -0.0534 -0.0646
 1668SOL    HW3 6726   4.138   1.623   2.680  0.5163  0.6254  0.0701
 1668SOL    MW4 6727   4.066   1.661   2.710  0.0906 -0.0882 -0.0415
 1669SOL     OW 6728   4.026   1.939   2.599  0.5138  0.2137  0.2933
 1669SOL    HW2 6729   4.094   2.000   2.626  0.0129  0.2759  1.4899
 1669SOL    HW3 6730   4.048   1.857   2.644  0.0678  0.1042  0.3177
 1669SOL    MW4 6731   4.038   1.936   2.609  0.3891  0.2075  0.4544
 1670SOL     OW 6732   4.252   2.057   2.712 -0.2128  0.2561  0.1705
 1670SOL    HW2 6733   4.265   2.144   2.675 -1.4534  0.6227  0.5688
 1670SOL    HW3 6734   4.325   2.005   2.679  0.0585  1.2261 -0.7557
 1670SOL    MW4 6735   4.264   2.062   2.703 -0.3409  0.4325  0.1009
 1671SOL     OW 6736   4.280   2.329   2.621  0.1447 -0.5301 -0.5490
 1671SOL    HW2 6737   4.190   2.352   2.642  0.1722 -0.1388 -0.8434
 1671SOL    HW3 6738   4.284   2.335   2.525  0.5318 -0.3461 -0.5241
 1671SOL    MW4 6739   4.269   2.333   2.611  0.1993 -0.4542 -0.5846
 1672SOL     OW 6740   4.037   2.416   2.708  0.0881  0.0697 -0.0919
 1672SOL    HW2 6741   4.043   2.442   2.800  0.1572 -0.8439  0.1670
 1672SOL    HW3 6742   3.948   2.382   2.699 -0.7670  2.4364 -0.9769
 1672SOL    MW4 6743   4.026   2.415   2.719 -0.0153  0.2613 -0.1748
 1673SOL     OW 6744   4.042   2.702   2.635 -0.4388  0.7298  0.3972
 1673SOL    HW2 6745   4.118   2.745   2.675  0.2182 -0.1382  0.0881
 1673SOL    HW3 6746   4.055   2.609   2.651 -0.8504  0.4749 -0.6822
 1673SOL    MW4 6747   4.053   2.695   2.642 -0.4063  0.5817  0.2141
 1674SOL     OW 6748   4.270   2.835   2.753 -0.1306 -0.3251 -0.1913
 1674SOL    HW2 6749   4.294   2.825   2.846  0.3333  0.6870 -0.2035
 1674SOL    HW3 6750   4.270   2.929   2.738  0.5640 -0.5174 -1.4224
 1674SOL    MW4 6751   4.274   2.846   2.764  0.0219 -0.2170 -0.3552
 1675SOL     OW 6752   4.266   3.091   2.651 -0.5579 -0.4863 -0.1926
 1675SOL    HW2 6753   4.184   3.132   2.679 -0.3748  0.8412 -1.5308
 1675SOL    HW3 6754   4.266   3.098   2.556  0.8213 -1.0447 -0.2546
 1675SOL    MW4 6755   4.256   3.097   2.643 -0.3519 -0.3848 -0.3772
 1676SOL     OW 6756   4.024   3.245   2.737 -0.0318 -0.6437 -0.3576
 1676SOL    HW2 6757   4.026   3.334   2.700 -1.1536 -0.0347  0.9965
 1676SOL    HW3 6758   3.953   3.201   2.691 -1.0214 -0.0809  0.6117
 1676SOL    MW4 6759   4.015   3.251   2.726 -0.3095 -0.4892 -0.0515
 1677SOL     OW 6760   4.036   3.512   2.647  0.2334 -0.3105 -0.0746
 1677SOL    HW2 6761   4.123   3.530   2.682  0.8706 -1.3071 -1.0943
 1677SOL    HW3 6762   4.050   3.498   2.553 -1.1140  0.1164 -0.3560
 1677SOL    MW4 6763   4.049   3.512   2.639  0.1402 -0.3858 -0.2460
 1678SOL     OW 6764   4.298   3.621   2.749  0.3165  0.0614 -0.4001
 1678SOL    HW2 6765   4.296   3.615   2.845 -1.6246 -1.3957 -0.4858
 1678SOL    HW3 6766   4.371   3.566   2.723  0.8660  0.4774  0.2457
 1678SOL    MW4 6767   4.307   3.613   2.758  0.1330 -0.0758 -0.3264
 1679SOL     OW 6768   4.256   3.872   2.611 -0.3723  0.0711 -0.3606
 1679SOL    HW2 6769   4.254   3.785   2.651 -0.5761  0.2685  0.0637
 1679SOL    HW3 6770   4.329   3.916   2.654 -0.0217 -0.0251 -0.8606
 1679SOL    MW4 6771   4.266   3.866   2.622 -0.3524  0.0846 -0.3705
 1680SOL     OW 6772   4.009   3.978   2.731 -0.2222 -0.1547 -0.2517
 1680SOL    HW2 6773   4.023   3.992   2.825  0.5931  0.5569 -0.4663
 1680SOL    HW3 6774   4.091   3.939   2.701 -0.4394 -0.2715 -0.6902
 1680SOL    MW4 6775   4.022   3.975   2.739 -0.1435 -0.0765 -0.3378
 1681SOL     OW 6776   4.030   4.257   2.679  0.2754 -0.0831  0.0511
 1681SOL    HW2 6777   4.028   4.161   2.682 -0.4997 -0.0728  0.1579
 1681SOL    HW3 6778   4.026   4.278   2.585  1.8064 -0.1670 -0.0370
 1681SOL    MW4 6779   4.029   4.247   2.667  0.3748 -0.0930  0.0536
 1682SOL     OW 6780   4.263   4.385   2.741  0.2704 -0.0463  0.1471
 1682SOL    HW2 6781   4.181   4.340   2.720  0.4090  0.3023 -1.1723
 1682SOL    HW3 6782   4.252   4.473   2.704  0.4121  0.6949  1.7840
 1682SOL    MW4 6783   4.251   4.391   2.734  0.3071  0.0973  0.1891
 1683SOL     OW 6784   0.261   4.627   3.080 -0.0239 -0.7018 -0.3873
 1683SOL    HW2 6785   0.267   4.647   3.174  0.3410  0.1348 -0.5795
 1683SOL    HW3 6786   0.175   4.662   3.054  0.0257 -0.6114 -0.4324
 1683SOL    MW4 6787   0.250   4.634   3.089  0.0308 -0.5794 -0.4189
 1684SOL     OW 6788   0.033   0.101   3.005  0.4456  0.7908  0.0865
 1684SOL    HW2 6789  -0.047   0.069   3.047  1.4647  1.0164  2.2772
 1684SOL    HW3 6790   0.034   0.195   3.023  0.9273  0.8848 -0.4258
 1684SOL    MW4 6791   0.022   0.109   3.013  0.6433  0.8330  0.3080
 1685SOL     OW 6792   0.006   0.383   3.138 -0.3764  0.2430  0.2668
 1685SOL    HW2 6793  -0.001   0.362   3.231 -0.9186 -2.8294 -0.4279
 1685SOL    HW3 6794  -0.070   0.438   3.120 -0.2723  0.8419  1.6201
 1685SOL    MW4 6795  -0.005   0.388   3.148 -0.4339 -0.0833  0.3538
 1686SOL     OW 6796   0.242   0.502   3.031  0.5999  0.3174  0.2900
 1686SOL    HW2 6797   0.316   0.443   3.044 -0.5376 -0.5229  3.4689
 1686SOL    HW3 6798   0.169   0.459   3.077 -1.4302  1.9778 -1.2674
 1686SOL    MW4 6799   0.242   0.488   3.039  0.1820  0.4257  0.5038
 1687SOL     OW 6800   0.186   0.746   3.113 -0.4048 -0.0685 -0.3582
 1687SOL    HW2 6801   0.223   0.748   3.201  1.1556 -0.0203 -1.0021
 1687SOL    HW3 6802   0.208   0.659   3.080 -1.5062 -0.3015 -0.4810
 1687SOL    MW4 6803   0.194   0.735   3.120 -0.3442 -0.0929 -0.4594
 1688SOL     OW 6804   0.014   0.929   2.976  0.4380  0.0045 -0.6870
 1688SOL    HW2 6805   0.065   0.863   3.023  0.8066  0.5616 -0.2881
 1688SOL    HW3 6806   0.014   0.900   2.885 -1.5516 -1.9033 -0.1380
 1688SOL    MW4 6807   0.020   0.917   2.970  0.2246 -0.1737 -0.5620
 1689SOL     OW 6808   0.012   1.156   3.122  0.3012  0.1023  0.3331
 1689SOL    HW2 6809  -0.060   1.209   3.087  0.5759 -0.3194 -0.9241
 1689SOL    HW3 6810   0.005   1.073   3.075 -0.2879 -1.0989  2.4684
 1689SOL    MW4 6811   0.001   1.152   3.111  0.2597 -0.1118  0.4489
 1690SOL     OW 6812   0.235   1.263   3.026 -0.2087  0.3655  0.5065
 1690SOL    HW2 6813   0.153   1.227   3.060  0.2531 -1.2953 -0.0691
 1690SOL    HW3 6814   0.220   1.269   2.931  0.3796 -0.0595  0.3880
 1690SOL    MW4 6815   0.222   1.259   3.018 -0.0702  0.0904  0.4151
 1691SOL     OW 6816   0.229   1.533   3.099 -0.4923 -0.0321  0.0681
 1691SOL    HW2 6817   0.143   1.565   3.072  0.3318  1.6950 -0.6351
 1691SOL    HW3 6818   0.235   1.445   3.063 -1.8363 -0.0378 -0.1480
 1691SOL    MW4 6819   0.219   1.526   3.091 -0.5609  0.1950 -0.0532
 1692SOL     OW 6820   4.479   1.635   2.992 -0.0241  0.1523 -0.6952
 1692SOL    HW2 6821   4.417   1.601   3.056 -0.8386  1.2219 -0.9031
 1692SOL    HW3 6822   4.483   1.729   3.009  2.8331 -0.1175  0.3997
 1692SOL    MW4 6823   4.471   1.643   3.002  0.2456  0.2577 -0.5779
 1693SOL     OW 6824   0.003   1.892   3.068  0.3705 -0.3682  0.1645
 1693SOL    HW2 6825  -0.068   1.956   3.056  0.3747 -0.3913  0.0201
 1693SOL    HW3 6826   0.082   1.938   3.041  0.1217 -1.0655 -1.7921
 1693SOL    MW4 6827   0.004   1.907   3.063  0.3381 -0.4634 -0.1128
 1694SOL     OW 6828   0.209   2.060   3.016 -0.2325 -0.4224 -0.2927
 1694SOL    HW2 6829   0.197   2.146   3.057 -1.7474 -0.6875 -0.1497
 1694SOL    HW3 6830   0.210   2.079   2.922 -1.1710 -0.3182 -0.2818
 1694SOL    MW4 6831   0.208   2.074   3.009 -0.5562 -0.4437 -0.2723
 1695SOL     OW 6832   0.198   2.314   3.132  0.1620 -0.5123  0.1975
 1695SOL    HW2 6833   0.209   2.337   3.224 -0.8829  1.7439 -0.2112
 1695SOL    HW3 6834   0.257   2.375   3.086 -2.7968  1.5817 -0.9337
 1695SOL    MW4 6835   0.207   2.325   3.138 -0.3662  0.0618 -0.0057
 1696SOL     OW 6836   4.458   2.435   3.017  0.0233  0.2571 -0.3000
 1696SOL    HW2 6837   4.462   2.527   3.043  0.7362 -0.2085  1.3006
 1696SOL    HW3 6838   4.532   2.394   3.061 -0.7020 -1.2271 -0.4151
 1696SOL    MW4 6839   4.468   2.442   3.026  0.0219 -0.0005 -0.1042
 1697SOL     OW 6840   0.008   2.691   3.107 -0.2139  0.2968  0.3583
 1697SOL    HW2 6841   0.003   2.697   3.203  1.9123  0.9345  0.4740
 1697SOL    HW3 6842   0.072   2.758   3.083  1.4577 -1.7970 -1.2366
 1697SOL    MW4 6843   0.016   2.701   3.117  0.2875  0.1047  0.1633
 1698SOL     OW 6844   0.191   2.876   3.037  0.2985 -0.1223  0.2463
 1698SOL    HW2 6845   0.275   2.835   3.061  1.1870  1.6922  0.3057
 1698SOL    HW3 6846   0.187   2.868   2.942  0.6652  0.0282  0.2162
 1698SOL    MW4 6847   0.202   2.869   3.028  0.4641  0.1369  0.2499
 1699SOL     OW 6848   0.234   3.129   3.136 -0.3066  0.0819  0.2048
 1699SOL    HW2 6849   0.145   3.154   3.112 -1.0000 -0.8191  1.7371
 1699SOL    HW3 6850   0.244   3.040   3.101  0.8689  1.0972 -2.0939
 1699SOL    MW4 6851   0.224   3.120   3.128 -0.2429  0.0970  0.1037
 1700SOL     OW 6852   0.010   3.239   3.017  0.2207  0.3924  0.0763
 1700SOL    HW2 6853  -0.070   3.195   3.046  1.3248 -0.5618  1.7062
 1700SOL    HW3 6854   0.019   3.213   2.925 -0.3536 -1.0126  0.3983
 1700SOL    MW4 6855   0.001   3.230   3.008  0.2904  0.0811  0.3338
 1701SOL     OW 6856   4.483   3.470   3.149  0.3157  0.7101 -0.1559
 1701SOL    HW2 6857   4.415   3.518   3.102 -1.5322 -0.3669  1.3440
 1701SOL    HW3 6858   4.495   3.390   3.098  0.6037  0.9689 -0.5054
 1701SOL    MW4 6859   4.476   3.466   3.136  0.1101  0.6022 -0.0041
 1702SOL     OW 6860   0.217   3.593   3.027 -0.2025 -0.2361  0.1346
 1702SOL    HW2 6861   0.213   3.684   3.057  0.8041 -0.0343 -0.3141
 1702SOL    HW3 6862   0.150   3.548   3.078  0.5169  0.3857  1.6731
 1702SOL    MW4 6863   0.208   3.599   3.038  0.0253 -0.1273  0.2785
 1703SOL     OW 6864   0.239   3.854   3.131  0.5509 -0.3805 -0.3259
 1703SOL    HW2 6865   0.250   3.844   3.226  0.5925  0.1142 -0.2765
 1703SOL    HW3 6866   0.318   3.899   3.103  1.4578 -2.2764 -0.8961
 1703SOL    MW4 6867   0.251   3.858   3.140  0.6760 -0.5653 -0.3948
 1704SOL     OW 6868   0.002   3.978   3.022  0.0930 -0.0700  0.2006
 1704SOL    HW2 6869   0.085   3.940   3.048 -0.4197 -0.8433  0.7302
 1704SOL    HW3 6870   0.006   3.983   2.926  0.1652 -1.4880  0.1149
 1704SOL    MW4 6871   0.013   3.974   3.013  0.0353 -0.3593  0.2594
 1705SOL     OW 6872   4.490   4.258   3.090 -0.0230 -0.0862  0.2914
 1705SOL    HW2 6873   4.500   4.262   3.185 -1.1913 -0.4804  0.4352
 1705SOL    HW3 6874   4.479   4.165   3.071  1.9348 -0.1956 -0.4230
 1705SOL    MW4 6875   4.490   4.246   3.100  0.0815 -0.1526  0.2160
 1706SOL     OW 6876   0.225   4.381   2.962  1.1513 -0.5716  0.2236
 1706SOL    HW2 6877   0.150   4.347   3.011 -0.2302  0.1513 -1.3287
 1706SOL    HW3 6878   0.241   4.467   3.001  1.1381 -0.6953  0.5074
 1706SOL    MW4 6879   0.217   4.388   2.974  0.9673 -0.4930  0.0563
 1707SOL     OW 6880   0.699   4.661   3.116 -0.0979  0.2060  0.2494
 1707SOL    HW2 6881   0.698   4.566   3.101 -0.6196  0.5623 -2.1903
 1707SOL    HW3 6882   0.613   4.691   3.087  0.4794  1.5854 -0.0770
 1707SOL    MW4 6883   0.687   4.652   3.110 -0.0906  0.4349 -0.1156
 1708SOL     OW 6884   0.465   0.101   2.976 -0.1248  0.1337 -0.3180
 1708SOL    HW2 6885   0.456   0.183   3.025  0.3206  0.4695 -0.8029
 1708SOL    HW3 6886   0.381   0.056   2.990 -0.4806  0.8000 -0.2968
 1708SOL    MW4 6887   0.452   0.105   2.984 -0.1130  0.2659 -0.3793
 1709SOL     OW 6888   0.459   0.340   3.105 -0.2073 -0.6926  0.0965
 1709SOL    HW2 6889   0.449   0.360   3.198  0.1078 -1.3250  0.2641
 1709SOL    HW3 6890   0.533   0.393   3.078 -1.8728  1.4840 -0.3983
 1709SOL    MW4 6891   0.467   0.350   3.114 -0.3855 -0.4888  0.0532
 1710SOL     OW 6892   0.670   0.506   3.028 -0.2148  0.5362 -0.1884
 1710SOL    HW2 6893   0.745   0.460   3.064 -0.9812  0.6844  1.6743
 1710SOL    HW3 6894   0.674   0.594   3.066 -1.2654  0.5781 -0.1384
 1710SOL    MW4 6895   0.680   0.512   3.038 -0.4545  0.5613  0.0639
 1711SOL     OW 6896   0.679   0.761   3.146  0.4230  0.3258 -0.0081
 1711SOL    HW2 6897   0.665   0.759   3.240 -1.0669 -0.7442 -0.2328
 1711SOL    HW3 6898   0.606   0.811   3.111  1.3852  1.3773 -0.5398
 1711SOL    MW4 6899   0.668   0.767   3.153  0.3533  0.3234 -0.1078
 1712SOL     OW 6900   0.433   0.863   3.028  0.8715 -0.1471  0.1634
 1712SOL    HW2 6901   0.355   0.822   3.065  1.5287 -0.7980  0.8493
 1712SOL    HW3 6902   0.424   0.852   2.933  0.1159 -0.1787  0.2372
 1712SOL    MW4 6903   0.422   0.856   3.020  0.8585 -0.2372  0.2637
 1713SOL     OW 6904   0.441   1.113   3.174  0.0314  0.6771 -0.3670
 1713SOL    HW2 6905   0.435   1.027   3.133  0.9872  0.5847 -0.3203
 1713SOL    HW3 6906   0.365   1.161   3.140 -0.5332 -0.1873 -0.3604
 1713SOL    MW4 6907   0.430   1.108   3.164  0.0830  0.5509 -0.3600
 1714SOL     OW 6908   0.623   1.282   3.034  0.2886  0.7653 -0.0371
 1714SOL    HW2 6909   0.701   1.236   3.068  0.7417  1.5335 -0.0286
 1714SOL    HW3 6910   0.550   1.241   3.080  0.6365 -0.3878 -0.5003
 1714SOL    MW4 6911   0.624   1.271   3.045  0.3942  0.7147 -0.0970
 1715SOL     OW 6912   0.677   1.543   3.125 -0.2822 -0.1733 -0.0993
 1715SOL    HW2 6913   0.684   1.539   3.220  1.8208 -0.4518 -0.2487
 1715SOL    HW3 6914   0.660   1.453   3.098 -0.8915 -0.0923  0.0034
 1715SOL    MW4 6915   0.675   1.531   3.134 -0.0852 -0.1994 -0.1051
 1716SOL     OW 6916   0.455   1.679   3.029  0.1545 -0.3631 -0.0724
 1716SOL    HW2 6917   0.524   1.626   3.068  0.9874  1.0056  0.3581
 1716SOL    HW3 6918   0.374   1.635   3.055  0.8266 -1.5842  0.0045
 1716SOL    MW4 6919   0.453   1.666   3.038  0.3531 -0.3437 -0.0057
 1717SOL     OW 6920   0.469   1.970   3.065  0.5238 -0.5653 -0.3979
 1717SOL    HW2 6921   0.447   1.877   3.058  0.1124 -0.5251  0.2967
 1717SOL    HW3 6922   0.389   2.016   3.040  0.8818 -0.3921 -1.2345
 1717SOL    MW4 6923   0.456   1.964   3.061  0.5167 -0.5373 -0.4168
 1718SOL     OW 6924   0.710   2.088   2.968 -0.0829 -0.4311 -0.5252
 1718SOL    HW2 6925   0.772   2.030   3.013  1.2586  0.0829 -1.6813
 1718SOL    HW3 6926   0.624   2.052   2.989  0.4621  0.0530  2.8103
 1718SOL    MW4 6927   0.706   2.076   2.976  0.1660 -0.2992 -0.2379
 1719SOL     OW 6928   0.622   2.311   3.104  0.2779 -0.3215 -0.2126
 1719SOL    HW2 6929   0.636   2.323   3.198  0.5905  1.0452 -0.4287
 1719SOL    HW3 6930   0.663   2.227   3.084 -0.8230 -1.1942  1.0902
 1719SOL    MW4 6931   0.629   2.301   3.114  0.1739 -0.2561 -0.0694
 1720SOL     OW 6932   0.389   2.448   2.998 -0.2081 -0.0672 -0.2849
 1720SOL    HW2 6933   0.462   2.400   3.037 -0.1030 -0.0836 -0.5004
 1720SOL    HW3 6934   0.407   2.447   2.904 -0.8759 -0.7199 -0.4118
 1720SOL    MW4 6935   0.401   2.441   2.990 -0.2823 -0.1554 -0.3302
 1721SOL     OW 6936   0.419   2.724   3.103 -0.5438 -0.1083  0.0379
 1721SOL    HW2 6937   0.490   2.754   3.046 -0.6079  1.5176  0.8061
 1721SOL    HW3 6938   0.398   2.637   3.070  1.4275 -0.3939 -0.5647
 1721SOL    MW4 6939   0.426   2.716   3.091 -0.2922  0.0687  0.0601
 1722SOL     OW 6940   0.647   2.858   2.992 -0.3601 -0.2402 -0.0786
 1722SOL    HW2 6941   0.715   2.818   3.047  0.4869  0.9783 -0.2394
 1722SOL    HW3 6942   0.645   2.950   3.019 -1.2144 -0.0418 -0.8114
 1722SOL    MW4 6943   0.656   2.865   3.003 -0.3611 -0.0536 -0.1965
 1723SOL     OW 6944   0.648   3.099   3.103 -0.4032  0.1522  0.1161
 1723SOL    HW2 6945   0.653   3.101   3.198  0.7892 -1.0672  0.0818
 1723SOL    HW3 6946   0.570   3.151   3.082 -0.8052  0.2186  1.7524
 1723SOL    MW4 6947   0.638   3.106   3.113 -0.2989 -0.0002  0.3273
 1724SOL     OW 6948   0.444   3.261   2.994  0.1246 -0.0833 -0.2815
 1724SOL    HW2 6949   0.445   3.339   3.050  2.0951 -0.5255  0.3381
 1724SOL    HW3 6950   0.372   3.208   3.028  1.1968 -0.2689  1.7769
 1724SOL    MW4 6951   0.435   3.264   3.006  0.5260 -0.1662  0.0718
 1725SOL     OW 6952   0.470   3.507   3.122  0.1501 -0.1218 -0.0072
 1725SOL    HW2 6953   0.462   3.538   3.212  0.2580 -1.3647  0.4494
 1725SOL    HW3 6954   0.387   3.529   3.081 -0.0662  0.0577  0.5221
 1725SOL    MW4 6955   0.458   3.514   3.128  0.1358 -0.2623  0.1228
 1726SOL     OW 6956   0.710   3.595   3.015  0.1471  0.2501  0.3901
 1726SOL    HW2 6957   0.777   3.552   3.067  0.8498  1.6719  0.6916
 1726SOL    HW3 6958   0.627   3.563   3.052  0.6498  0.1113  1.4093
 1726SOL    MW4 6959   0.708   3.585   3.027  0.3061  0.4194  0.5643
 1727SOL     OW 6960   0.701   3.859   3.110 -0.3673  0.5518  0.1708
 1727SOL    HW2 6961   0.718   3.863   3.204 -1.9538 -0.0299  0.5057
 1727SOL    HW3 6962   0.708   3.766   3.089 -1.5384  0.4815  0.0334
 1727SOL    MW4 6963   0.704   3.847   3.119 -0.7311  0.4656  0.1967
 1728SOL     OW 6964   0.458   4.002   3.031  0.0495 -0.1231 -0.5654
 1728SOL    HW2 6965   0.547   3.969   3.044 -0.3105 -0.9676 -0.1964
 1728SOL    HW3 6966   0.450   4.016   2.937 -0.2591 -2.4454 -0.8934
 1728SOL    MW4 6967   0.469   4.000   3.020 -0.0387 -0.5412 -0.5600
 1729SOL     OW 6968   0.445   4.272   3.093  0.0265 -0.4630 -0.1707
 1729SOL    HW2 6969   0.445   4.177   3.076 -1.2526 -0.6947  1.0371
 1729SOL    HW3 6970   0.370   4.305   3.045  0.7020  0.0145 -0.9126
 1729SOL    MW4 6971   0.435   4.264   3.084 -0.0532 -0.4306 -0.1090
 1730SOL     OW 6972   0.677   4.400   3.025 -0.6998 -0.3569 -0.3302
 1730SOL    HW2 6973   0.588   4.379   3.054 -1.3380  0.8772 -1.3494
 1730SOL    HW3 6974   0.674   4.390   2.930 -0.1421  1.0038 -0.5101
 1730SOL    MW4 6975   0.664   4.396   3.016 -0.7104 -0.0148 -0.4885
 1731SOL     OW 6976   1.122   0.005   3.128 -0.2464  0.3507  0.0307
 1731SOL    HW2 6977   1.198   0.052   3.095  0.0638  0.4677  0.8914
 1731SOL    HW3 6978   1.047   0.048   3.087  0.1506  0.2346 -0.8184
 1731SOL    MW4 6979   1.122   0.017   3.118 -0.1531  0.3510  0.0322
 1732SOL     OW 6980   0.915   0.144   3.003 -0.5484 -0.1456  0.0229
 1732SOL    HW2 6981   0.914   0.227   3.050 -1.5764 -0.8339  1.2597
 1732SOL    HW3 6982   0.834   0.100   3.030 -0.4526 -1.1758 -1.2928
 1732SOL    MW4 6983   0.904   0.149   3.012 -0.6714 -0.3724  0.0122
 1733SOL     OW 6984   0.890   0.377   3.152  0.0518 -0.3826  0.0651
 1733SOL    HW2 6985   0.895   0.362   3.247 -1.4631  0.5231  0.3063
 1733SOL    HW3 6986   0.968   0.429   3.132  0.1634 -0.2171  0.8866
 1733SOL    MW4 6987   0.901   0.382   3.162 -0.1333 -0.2413  0.2055
 1734SOL     OW 6988   1.090   0.495   3.048 -0.4065 -0.2216  0.2438
 1734SOL    HW2 6989   1.172   0.457   3.080 -0.8879  0.4124  2.3698
 1734SOL    HW3 6990   1.093   0.485   2.953  2.2713  0.0531  0.2673
 1734SOL    MW4 6991   1.101   0.489   3.040 -0.1168 -0.1017  0.5274
 1735SOL     OW 6992   1.122   0.768   3.115 -0.0472  0.0741  0.0461
 1735SOL    HW2 6993   1.129   0.764   3.210 -0.1796 -1.3468 -0.0005
 1735SOL    HW3 6994   1.094   0.681   3.088  0.3381  0.3510 -1.3336
 1735SOL    MW4 6995   1.119   0.756   3.124 -0.0139 -0.0768 -0.1421
 1736SOL     OW 6996   0.900   0.906   3.009  0.1442 -0.0701 -0.1084
 1736SOL    HW2 6997   0.985   0.869   3.030  0.8848  1.5166 -0.2716
 1736SOL    HW3 6998   0.838   0.857   3.063  1.0942 -1.5611 -0.3586
 1736SOL    MW4 6999   0.903   0.894   3.019  0.3673 -0.0575 -0.1626
 1737SOL     OW 7000   0.890   1.176   3.082 -0.0581  0.2364 -0.7193
 1737SOL    HW2 7001   0.964   1.224   3.044  1.7117 -1.4800  0.4842
 1737SOL    HW3 7002   0.900   1.087   3.050 -0.0531 -0.6384  1.6289
 1737SOL    MW4 7003   0.901   1.171   3.073  0.1760 -0.1055 -0.2506
 1738SOL     OW 7004   1.125   1.285   2.991 -0.0860 -0.9453 -0.4183
 1738SOL    HW2 7005   1.203   1.254   3.036  0.1561  0.0411 -0.1279
 1738SOL    HW3 7006   1.139   1.262   2.899  0.1296 -1.5846 -0.2234
 1738SOL    MW4 7007   1.137   1.278   2.984 -0.0257 -0.8996 -0.3543
 1739SOL     OW 7008   1.107   1.557   3.077 -0.2775 -0.0678  0.0693
 1739SOL    HW2 7009   1.186   1.598   3.043 -0.2551  0.2379  0.4857
 1739SOL    HW3 7010   1.113   1.466   3.048  0.7969 -0.3336  1.0601
 1739SOL    MW4 7011   1.118   1.550   3.069 -0.1328 -0.0626  0.2549
 1740SOL     OW 7012   0.871   1.683   2.996  0.2170  0.1622 -0.0323
 1740SOL    HW2 7013   0.958   1.650   3.017  0.2022 -0.0470 -0.2968
 1740SOL    HW3 7014   0.811   1.624   3.041  0.2353  0.8941  0.9612
 1740SOL    MW4 7015   0.875   1.671   3.004  0.2174  0.2311  0.0637
 1741SOL     OW 7016   0.895   1.944   3.106  0.0142 -0.0682 -0.4493
 1741SOL    HW2 7017   0.902   1.954   3.201  0.7111 -0.1289 -0.4906
 1741SOL    HW3 7018   0.906   1.850   3.092  2.8239  0.2826 -0.8195
 1741SOL    MW4 7019   0.898   1.933   3.117  0.4769 -0.0299 -0.5038
 1742SOL     OW 7020   1.132   2.060   3.045  0.1316  0.0880 -0.0719
 1742SOL    HW2 7021   1.047   2.021   3.067  0.0405  0.7590  0.7661
 1742SOL    HW3 7022   1.124   2.082   2.952 -0.0515 -1.2825 -0.3840
 1742SOL    MW4 7023   1.120   2.058   3.035  0.0952 -0.0045 -0.0021
 1743SOL     OW 7024   1.093   2.294   3.148 -0.0424 -0.5736 -0.0600
 1743SOL    HW2 7025   1.010   2.324   3.110 -0.7542 -0.7099  1.3426
 1743SOL    HW3 7026   1.106   2.207   3.110 -0.4675 -0.4884 -0.4084
 1743SOL    MW4 7027   1.084   2.286   3.138 -0.1924 -0.5803  0.0792
 1744SOL     OW 7028   0.856   2.441   3.030  0.4594 -0.2326 -0.6225
 1744SOL    HW2 7029   0.776   2.392   3.047  0.5875 -0.2961 -0.1932
 1744SOL    HW3 7030   0.856   2.455   2.935 -1.1542  1.6674 -0.3700
 1744SOL    MW4 7031   0.846   2.436   3.020  0.2633  0.0098 -0.5326
 1745SOL     OW 7032   0.860   2.719   3.114 -0.8779 -0.5000 -0.4568
 1745SOL    HW2 7033   0.881   2.709   3.207  1.6547 -1.0575 -1.0515
 1745SOL    HW3 7034   0.844   2.630   3.083 -0.0680 -0.4867 -0.9213
 1745SOL    MW4 7035   0.860   2.706   3.122 -0.4369 -0.5717 -0.5965
 1746SOL     OW 7036   1.104   2.812   3.017  0.1109  0.1423 -0.1140
 1746SOL    HW2 7037   1.105   2.901   3.053  0.4348  0.2867 -0.4755
 1746SOL    HW3 7038   1.021   2.775   3.047 -0.7008  1.0558 -1.1539
 1746SOL    MW4 7039   1.093   2.819   3.026  0.0466  0.2818 -0.2987
 1747SOL     OW 7040   1.106   3.068   3.105 -0.2702  0.4041  0.5842
 1747SOL    HW2 7041   1.184   3.122   3.092 -0.4075  0.7121  1.0409
 1747SOL    HW3 7042   1.034   3.131   3.113 -0.6925  0.1022 -0.6424
 1747SOL    MW4 7043   1.107   3.084   3.104 -0.3439  0.4051  0.4823
 1748SOL     OW 7044   0.893   3.232   3.033  0.1476 -0.1744  0.0636
 1748SOL    HW2 7045   0.811   3.187   3.052 -0.6835  1.4098  0.3273
 1748SOL    HW3 7046   0.902   3.226   2.938 -0.6173  0.2062 -0.0393
 1748SOL    MW4 7047   0.883   3.226   3.023 -0.0630  0.0846  0.0849
 1749SOL     OW 7048   0.911   3.478   3.169  0.3207  0.0109  0.3274
 1749SOL    HW2 7049   0.964   3.529   3.108 -1.3570  0.1381 -1.0552
 1749SOL    HW3 7050   0.909   3.390   3.132  0.6811 -0.3316  1.1007
 1749SOL    MW4 7051   0.917   3.473   3.156  0.1469 -0.0176  0.2470
 1750SOL     OW 7052   1.093   3.619   3.015 -0.2454  0.0719 -0.1279
 1750SOL    HW2 7053   1.165   3.564   3.044 -1.8116 -2.0314 -0.1674
 1750SOL    HW3 7054   1.111   3.705   3.054  1.2060 -0.9412  1.4701
 1750SOL    MW4 7055   1.105   3.623   3.024 -0.2605 -0.3393  0.0777
 1751SOL     OW 7056   1.144   3.875   3.113 -0.5470 -0.0842  0.0991
 1751SOL    HW2 7057   1.151   3.891   3.207  1.0895  1.5103 -0.2627
 1751SOL    HW3 7058   1.059   3.911   3.089 -0.1209  1.2892  0.6245
 1751SOL    MW4 7059   1.134   3.882   3.123 -0.2749  0.3073  0.1206
 1752SOL     OW 7060   0.922   4.000   3.011  0.1772 -0.2836  0.1863
 1752SOL    HW2 7061   0.847   3.944   3.033  1.1460 -1.8475 -0.4102
 1752SOL    HW3 7062   0.916   4.011   2.916 -0.5961  1.5232  0.4171
 1752SOL    MW4 7063   0.911   3.994   3.002  0.2030 -0.2515  0.1383
 1753SOL     OW 7064   0.899   4.261   3.118  0.3242 -0.5697 -0.1069
 1753SOL    HW2 7065   0.912   4.175   3.079  0.0953 -0.8421  0.4151
 1753SOL    HW3 7066   0.815   4.291   3.084  0.4991 -0.4648 -0.4469
 1753SOL    MW4 7067   0.890   4.254   3.109  0.3171 -0.5918 -0.0832
 1754SOL     OW 7068   1.124   4.395   3.000 -0.3241 -0.1795  0.2372
 1754SOL    HW2 7069   1.041   4.364   3.035  0.4369 -0.7013  1.6407
 1754SOL    HW3 7070   1.126   4.488   3.023 -1.5232  0.3785 -1.8256
 1754SOL    MW4 7071   1.114   4.403   3.008 -0.3818 -0.1745  0.1502
 1755SOL     OW 7072   1.572   4.627   3.132 -0.5989  0.6263  0.1427
 1755SOL    HW2 7073   1.560   4.621   3.227 -0.8368  1.7026  0.1813
 1755SOL    HW3 7074   1.494   4.672   3.100 -0.1980  0.8839 -0.4789
 1755SOL    MW4 7075   1.560   4.632   3.140 -0.5772  0.8025  0.0658
 1756SOL     OW 7076   1.361   0.124   3.033  0.3002 -0.1056 -0.9084
 1756SOL    HW2 7077   1.368   0.219   3.046  1.5112 -0.2037 -0.8186
 1756SOL    HW3 7078   1.350   0.114   2.938  0.2975  0.1169 -0.9314
 1756SOL    MW4 7079   1.360   0.135   3.022  0.4597 -0.0891 -0.8996
 1757SOL     OW 7080   1.338   0.399   3.128  0.0312 -0.0433  0.1373
 1757SOL    HW2 7081   1.347   0.384   3.222  2.0811 -0.5073 -0.1231
 1757SOL    HW3 7082   1.422   0.433   3.100 -0.3457 -0.5059 -1.6493
 1757SOL    MW4 7083   1.350   0.401   3.137  0.2520 -0.1656 -0.1328
 1758SOL     OW 7084   1.587   0.480   3.021  0.0377 -0.6969  0.3906
 1758SOL    HW2 7085   1.589   0.576   3.029 -0.4944 -0.6304 -0.1649
 1758SOL    HW3 7086   1.578   0.465   2.927  0.2650 -1.2984  0.4662
 1758SOL    MW4 7087   1.586   0.491   3.009 -0.0025 -0.7675  0.3273
 1759SOL     OW 7088   1.583   0.746   3.111 -0.2625  0.1599  0.2280
 1759SOL    HW2 7089   1.592   0.752   3.206 -0.2840 -0.3295  0.2606
 1759SOL    HW3 7090   1.508   0.802   3.091 -0.7567 -0.3691  0.5900
 1759SOL    MW4 7091   1.574   0.754   3.121 -0.3304  0.0256  0.2801
 1760SOL     OW 7092   1.348   0.907   3.016 -0.1796 -0.0194 -0.2538
 1760SOL    HW2 7093   1.358   0.996   3.050 -0.3241  0.2682 -0.9583
 1760SOL    HW3 7094   1.270   0.873   3.061  0.1293  0.0504  0.3423
 1760SOL    MW4 7095   1.339   0.914   3.026 -0.1578  0.0278 -0.2682
 1761SOL     OW 7096   1.365   1.196   3.085 -0.1892  0.0598  0.0689
 1761SOL    HW2 7097   1.360   1.194   3.181  0.6727 -1.1245  0.0940
 1761SOL    HW3 7098   1.451   1.234   3.067 -0.3446  0.2631 -0.2416
 1761SOL    MW4 7099   1.376   1.201   3.095 -0.0961 -0.0696  0.0312
 1762SOL     OW 7100   1.611   1.282   2.998  0.0182  0.1211  0.1211
 1762SOL    HW2 7101   1.676   1.222   3.034  0.3644 -0.0334 -0.7417
 1762SOL    HW3 7102   1.607   1.354   3.061  0.0752 -0.4902  0.8278
 1762SOL    MW4 7103   1.619   1.284   3.011  0.0714  0.0200  0.1004
 1763SOL     OW 7104   1.571   1.523   3.137 -0.2803  0.0373  0.2258
 1763SOL    HW2 7105   1.643   1.572   3.098 -0.8936 -0.0643 -1.0652
 1763SOL    HW3 7106   1.492   1.564   3.102 -0.8082 -1.1185  0.0252
 1763SOL    MW4 7107   1.570   1.535   3.127 -0.4308 -0.1286  0.0291
 1764SOL     OW 7108   1.363   1.669   3.040  0.1023  0.2378  0.1692
 1764SOL    HW2 7109   1.352   1.761   3.065  2.1371  0.9152 -1.2905
 1764SOL    HW3 7110   1.372   1.671   2.945  0.4003 -1.4555  0.1502
 1764SOL    MW4 7111   1.363   1.681   3.031  0.4101  0.1040 -0.0257
 1765SOL     OW 7112   1.347   1.939   3.139 -0.0907 -0.5362 -0.0191
 1765SOL    HW2 7113   1.341   1.934   3.235  0.0150  0.2794  0.0374
 1765SOL    HW3 7114   1.272   1.993   3.114  0.5645  0.2482 -0.2915
 1765SOL    MW4 7115   1.336   1.946   3.149  0.0097 -0.3251 -0.0477
 1766SOL     OW 7116   1.572   2.068   3.014  0.3483 -0.4083  0.4284
 1766SOL    HW2 7117   1.505   2.018   3.060 -0.1814  0.5763  0.7421
 1766SOL    HW3 7118   1.548   2.062   2.922  0.5631 -1.1208  0.4097
 1766SOL    MW4 7119   1.560   2.060   3.008  0.3068 -0.3724  0.4675
 1767SOL     OW 7120   1.327   2.431   3.027 -0.2280 -0.6729 -0.3951
 1767SOL    HW2 7121   1.252   2.382   3.060 -0.8577  0.2141 -0.4955
 1767SOL    HW3 7122   1.403   2.381   3.058 -0.7974  0.0525  2.3411
 1767SOL    MW4 7123   1.327   2.418   3.036 -0.3862 -0.4601 -0.0474
 1768SOL     OW 7124   1.371   2.436   2.744  0.1843  0.1586 -0.5767
 1768SOL    HW2 7125   1.368   2.423   2.839 -2.2341 -3.2009 -1.0166
 1768SOL    HW3 7126   1.448   2.388   2.716  0.3479  0.3159 -0.3955
 1768SOL    MW4 7127   1.380   2.428   2.753 -0.1131 -0.2639 -0.6111
 1769SOL     OW 7128   1.323   2.707   3.106  0.1860  0.2177 -0.0376
 1769SOL    HW2 7129   1.329   2.618   3.069  0.7835  0.4604 -0.5309
 1769SOL    HW3 7130   1.241   2.742   3.071  0.2827  0.1066 -0.3773
 1769SOL    MW4 7131   1.313   2.700   3.096  0.2775  0.2351 -0.1473
 1770SOL     OW 7132   1.535   2.851   3.008  0.3360  0.2793 -0.6339
 1770SOL    HW2 7133   1.611   2.816   3.054  0.4141  0.4420 -0.6389
 1770SOL    HW3 7134   1.463   2.794   3.034  0.6666 -0.5390 -1.4788
 1770SOL    MW4 7135   1.535   2.839   3.017  0.3898  0.1929 -0.7460
 1771SOL     OW 7136   1.529   3.104   3.135  0.4614 -0.1322  0.4601
 1771SOL    HW2 7137   1.512   3.100   3.229 -0.7162  0.8618  0.2996
 1771SOL    HW3 7138   1.522   3.013   3.106 -0.0703 -0.3273  1.1780
 1771SOL    MW4 7139   1.526   3.091   3.144  0.2357 -0.0267  0.5336
 1772SOL     OW 7140   1.316   3.229   3.020 -0.2307  0.7585 -0.0981
 1772SOL    HW2 7141   1.402   3.204   3.054 -0.4708 -0.2447 -0.2044
 1772SOL    HW3 7142   1.325   3.225   2.925 -0.5225  0.1798 -0.1048
 1772SOL    MW4 7143   1.328   3.225   3.012 -0.3009  0.5498 -0.1128
 1773SOL     OW 7144   1.308   3.489   3.111 -0.2250 -0.1046  0.6501
 1773SOL    HW2 7145   1.332   3.492   3.204  2.6729 -1.1374 -0.0215
 1773SOL    HW3 7146   1.309   3.396   3.089 -2.6948 -0.0160 -0.0230
 1773SOL    MW4 7147   1.311   3.477   3.121 -0.1686 -0.2291  0.4725
 1774SOL     OW 7148   1.553   3.592   3.047 -0.0777  0.0107  0.0444
 1774SOL    HW2 7149   1.464   3.563   3.064 -0.3696  0.2765 -1.0034
 1774SOL    HW3 7150   1.556   3.608   2.953  1.1314 -0.1938  0.0349
 1774SOL    MW4 7151   1.542   3.591   3.037  0.0434  0.0188 -0.0951
 1775SOL     OW 7152   1.556   3.871   3.177  0.5022  0.1645 -0.0209
 1775SOL    HW2 7153   1.631   3.911   3.133  0.4250  0.8087  0.4190
 1775SOL    HW3 7154   1.556   3.780   3.147  1.7292  0.0367  0.3183
 1775SOL    MW4 7155   1.566   3.864   3.167  0.6539  0.2325  0.0820
 1776SOL     OW 7156   1.366   3.990   3.010 -0.2992 -0.1300 -0.0793
 1776SOL    HW2 7157   1.421   3.940   3.071  0.3047  1.0328  0.3554
 1776SOL    HW3 7158   1.277   3.959   3.028  0.0407 -0.9023  0.3191
 1776SOL    MW4 7159   1.362   3.979   3.021 -0.1746 -0.0784  0.0310
 1777SOL     OW 7160   1.319   4.245   3.130 -0.4377  0.0798 -0.2103
 1777SOL    HW2 7161   1.334   4.156   3.098  0.9616  1.2701 -2.9994
 1777SOL    HW3 7162   1.237   4.272   3.088 -1.0576  0.0165  0.9212
 1777SOL    MW4 7163   1.310   4.237   3.120 -0.3349  0.2289 -0.4289
 1778SOL     OW 7164   1.556   4.375   3.014 -0.0743  0.2667  0.0127
 1778SOL    HW2 7165   1.476   4.339   3.053  1.0829  0.1138  2.3315
 1778SOL    HW3 7166   1.564   4.462   3.052  1.6048 -0.2645  0.9196
 1778SOL    MW4 7167   1.546   4.381   3.024  0.2998  0.1764  0.4382
 1779SOL     OW 7168   2.044   4.658   3.145  0.0326 -0.0258  0.1416
 1779SOL    HW2 7169   2.039   4.659   3.241 -2.1548 -1.2053  0.0609
 1779SOL    HW3 7170   1.965   4.703   3.117  0.5938  0.1753 -1.1270
 1779SOL    MW4 7171   2.033   4.664   3.154 -0.1817 -0.1559 -0.0365
 1780SOL     OW 7172   1.815   0.092   3.038  0.4668 -0.2873  0.0750
 1780SOL    HW2 7173   1.735   0.047   3.064  0.3086  0.4317  0.8366
 1780SOL    HW3 7174   1.803   0.108   2.944 -0.8016  0.8547  0.4163
 1780SOL    MW4 7175   1.803   0.088   3.029  0.2786 -0.0417  0.2208
 1781SOL     OW 7176   1.779   0.338   3.171  0.1600  0.1247  0.1622
 1781SOL    HW2 7177   1.786   0.256   3.122 -1.3392  0.3310 -0.4190
 1781SOL    HW3 7178   1.720   0.392   3.119 -0.0246  1.0224  1.2896
 1781SOL    MW4 7179   1.773   0.334   3.158 -0.0622  0.2704  0.2344
 1782SOL     OW 7180   2.024   0.452   3.053  0.6352 -0.0673 -0.1575
 1782SOL    HW2 7181   1.953   0.399   3.088  1.5692 -0.9081  0.5013
 1782SOL    HW3 7182   2.005   0.461   2.959 -0.9820  0.7675  0.2420
 1782SOL    MW4 7183   2.012   0.446   3.045  0.5453 -0.0680 -0.0179
 1783SOL     OW 7184   2.085   0.720   3.143  0.6373  0.0779 -0.2814
 1783SOL    HW2 7185   2.004   0.762   3.115  0.3741 -0.5715 -0.5234
 1783SOL    HW3 7186   2.078   0.631   3.108  0.4565 -0.6527  1.5561
 1783SOL    MW4 7187   2.073   0.713   3.135  0.5786 -0.1042 -0.0710
 1784SOL     OW 7188   1.839   0.840   3.079 -0.1542  0.0967  0.1210
 1784SOL    HW2 7189   1.767   0.778   3.089  0.6640 -0.7878  0.6062
 1784SOL    HW3 7190   1.841   0.859   2.985 -0.6237 -0.3505  0.0177
 1784SOL    MW4 7191   1.830   0.835   3.068 -0.1081 -0.0791  0.1714
 1785SOL     OW 7192   1.806   1.115   3.125  0.7122  0.0323  0.3302
 1785SOL    HW2 7193   1.803   1.130   3.220  0.6974 -0.1091  0.3516
 1785SOL    HW3 7194   1.804   1.020   3.116 -0.2252  0.0632  0.1624
 1785SOL    MW4 7195   1.805   1.104   3.136  0.5867  0.0176  0.3109
 1786SOL     OW 7196   2.014   1.245   3.014 -0.4006  0.4855  0.1404
 1786SOL    HW2 7197   2.097   1.210   3.046  0.1236  0.7960 -0.8652
 1786SOL    HW3 7198   1.947   1.188   3.052  0.2209  0.6871  1.5663
 1786SOL    MW4 7199   2.016   1.233   3.023 -0.2494  0.5530  0.1957
 1787SOL     OW 7200   2.002   1.544   3.090 -0.2898  0.1096 -0.0511
 1787SOL    HW2 7201   2.014   1.551   3.184  0.4828  0.0754 -0.1416
 1787SOL    HW3 7202   2.017   1.451   3.070  0.6354  0.3150 -0.3469
 1787SOL    MW4 7203   2.005   1.532   3.099 -0.0660  0.1322 -0.1020
 1788SOL     OW 7204   1.770   1.678   3.025  0.2839  0.1266  0.4522
 1788SOL    HW2 7205   1.764   1.766   3.063  0.0082 -0.7297  2.4808
 1788SOL    HW3 7206   1.852   1.642   3.060 -1.1533 -1.5556  2.2156
 1788SOL    MW4 7207   1.780   1.685   3.035  0.0579 -0.2084  0.9527
 1789SOL     OW 7208   1.793   1.947   3.120 -0.5131  0.2734  0.5930
 1789SOL    HW2 7209   1.877   1.978   3.087 -0.1010 -1.1125  0.3223
 1789SOL    HW3 7210   1.728   2.002   3.075  0.1481 -0.0227 -0.7512
 1789SOL    MW4 7211   1.796   1.958   3.110 -0.3715  0.0516  0.3800
 1790SOL     OW 7212   2.038   2.072   3.003 -0.0490  0.2430 -0.4583
 1790SOL    HW2 7213   2.114   2.019   3.026  0.6862  1.0463 -0.9815
 1790SOL    HW3 7214   2.051   2.154   3.050  0.6642  1.3047 -2.4310
 1790SOL    MW4 7215   2.050   2.076   3.012  0.1423  0.4890 -0.7875
 1791SOL     OW 7216   2.040   2.294   3.158  0.3719  0.3826 -0.0003
 1791SOL    HW2 7217   2.121   2.337   3.128  1.2473 -0.3888  1.2368
 1791SOL    HW3 7218   1.970   2.351   3.126  1.3779  0.7664 -1.5635
 1791SOL    MW4 7219   2.041   2.307   3.150  0.6201  0.3314 -0.0434
 1792SOL     OW 7220   1.825   2.444   3.051 -0.0570 -0.2458  0.3522
 1792SOL    HW2 7221   1.797   2.534   3.064 -0.6705  0.0655 -2.6838
 1792SOL    HW3 7222   1.748   2.391   3.071 -0.4857  0.0950 -0.3665
 1792SOL    MW4 7223   1.812   2.449   3.055 -0.1944 -0.1597 -0.1433
 1793SOL     OW 7224   1.804   2.713   3.088 -0.2292  0.0987 -0.6364
 1793SOL    HW2 7225   1.808   2.700   3.183  0.2195 -0.4401 -0.7259
 1793SOL    HW3 7226   1.881   2.765   3.067  0.8955 -1.6693 -0.9953
 1793SOL    MW4 7227   1.815   2.718   3.098 -0.0217 -0.2058 -0.6955
 1794SOL     OW 7228   2.042   2.830   3.045 -0.3890  0.3381  0.0814
 1794SOL    HW2 7229   2.041   2.923   3.069 -0.4287  0.1726  0.7098
 1794SOL    HW3 7230   2.051   2.831   2.949  3.2340  0.9860  0.3371
 1794SOL    MW4 7231   2.043   2.843   3.035  0.0839  0.4020  0.1981
 1795SOL     OW 7232   2.056   3.106   3.119  0.1004 -0.0445 -0.5243
 1795SOL    HW2 7233   2.037   3.106   3.213  1.0100  1.3763 -0.3219
 1795SOL    HW3 7234   1.972   3.127   3.077 -0.2667 -0.5140 -0.0264
 1795SOL    MW4 7235   2.042   3.109   3.126  0.1719  0.0808 -0.4318
 1796SOL     OW 7236   1.800   3.193   3.033 -0.1249  0.3458  0.1450
 1796SOL    HW2 7237   1.718   3.154   3.060  0.1007 -0.1343  0.1372
 1796SOL    HW3 7238   1.792   3.203   2.938  0.5814 -1.4770 -0.1175
 1796SOL    MW4 7239   1.788   3.190   3.024 -0.0019  0.0420  0.1092
 1797SOL     OW 7240   1.811   3.446   3.132 -0.1433  0.0004 -0.4029
 1797SOL    HW2 7241   1.815   3.356   3.100 -2.0500 -0.4656  0.5606
 1797SOL    HW3 7242   1.726   3.478   3.101  0.7035  1.6313 -1.1074
 1797SOL    MW4 7243   1.800   3.439   3.123 -0.2832  0.1543 -0.3686
 1798SOL     OW 7244   2.017   3.605   3.001  0.0951 -0.2789  0.1778
 1798SOL    HW2 7245   2.005   3.694   3.033 -0.8180 -0.5190  0.5134
 1798SOL    HW3 7246   1.950   3.553   3.046 -0.5281 -0.8109 -1.3054
 1798SOL    MW4 7247   2.007   3.610   3.011 -0.1075 -0.3808  0.0262
 1799SOL     OW 7248   1.991   3.856   3.126  0.3333 -0.2033 -0.2941
 1799SOL    HW2 7249   2.002   3.879   3.218 -1.5527 -0.0507 -0.0980
 1799SOL    HW3 7250   1.908   3.896   3.100  0.8149 -0.2747 -2.0581
 1799SOL    MW4 7251   1.982   3.865   3.135  0.1481 -0.1929 -0.5009
 1800SOL     OW 7252   1.750   4.000   3.050 -0.1835  0.0492  0.6558
 1800SOL    HW2 7253   1.757   4.090   3.083 -1.5638  0.1752  0.6164
 1800SOL    HW3 7254   1.765   4.007   2.956  0.5353  0.1219  0.7726
 1800SOL    MW4 7255   1.753   4.013   3.042 -0.2706  0.0753  0.6661
 1801SOL     OW 7256   1.754   4.254   3.153 -0.0612 -0.2864  0.2042
 1801SOL    HW2 7257   1.834   4.300   3.127  0.6707 -1.7984 -0.2997
 1801SOL    HW3 7258   1.684   4.302   3.109  0.7719 -0.1914 -1.0607
 1801SOL    MW4 7259   1.755   4.266   3.144  0.1452 -0.4730 -0.0293
 1802SOL     OW 7260   1.976   4.397   3.064 -0.2050  0.3717  0.1884
 1802SOL    HW2 7261   1.996   4.485   3.096 -1.3710  0.9975 -0.7408
 1802SOL    HW3 7262   2.002   4.399   2.971  1.1807 -0.7454  0.5433
 1802SOL    MW4 7263   1.982   4.409   3.056 -0.1762  0.3071  0.1130
 1803SOL     OW 7264   2.489   0.014   3.143 -0.3988 -0.0092  0.0055
 1803SOL    HW2 7265   2.503  -0.078   3.120  0.0040  0.3322 -1.2004
 1803SOL    HW3 7266   2.410   0.039   3.094 -0.5779  0.2512  0.4272
 1803SOL    MW4 7267   2.481   0.006   3.133 -0.3693  0.0701 -0.0978
 1804SOL     OW 7268   2.257   0.094   3.020 -0.3059  0.6024  0.5044
 1804SOL    HW2 7269   2.254   0.174   3.073  1.0384  0.0832  1.3877
 1804SOL    HW3 7270   2.195   0.035   3.061  1.2179 -0.0408  1.9331
 1804SOL    MW4 7271   2.248   0.097   3.032  0.0725  0.4490  0.8097
 1805SOL     OW 7272   2.269   0.341   3.136  0.6928 -0.1541  0.3459
 1805SOL    HW2 7273   2.267   0.346   3.232  1.9267 -0.3308  0.3960
 1805SOL    HW3 7274   2.193   0.392   3.107  0.3003 -0.1196  1.4199
 1805SOL    MW4 7275   2.259   0.348   3.145  0.8037 -0.1729  0.4942
 1806SOL     OW 7276   2.468   0.534   3.070  0.1133  0.1109  0.1309
 1806SOL    HW2 7277   2.415   0.477   3.125 -1.5800  0.1501 -1.4306
 1806SOL    HW3 7278   2.454   0.502   2.981  2.3744  0.3931 -0.3752
 1806SOL    MW4 7279   2.459   0.522   3.065  0.1884  0.1533 -0.1419
 1807SOL     OW 7280   2.486   0.783   3.154  0.3713 -0.1135 -0.3568
 1807SOL    HW2 7281   2.558   0.812   3.099  0.0821  0.8108 -0.2427
 1807SOL    HW3 7282   2.469   0.693   3.125  0.9232 -0.0001 -1.0349
 1807SOL    MW4 7283   2.493   0.775   3.143  0.4060  0.0234 -0.4311
 1808SOL     OW 7284   2.264   0.872   3.011 -0.5607 -0.3187  0.1649
 1808SOL    HW2 7285   2.340   0.820   3.037  0.1463  0.2627 -0.7055
 1808SOL    HW3 7286   2.190   0.828   3.052  0.0176 -2.0372 -0.5922
 1808SOL    MW4 7287   2.264   0.860   3.020 -0.3910 -0.4687 -0.0498
 1809SOL     OW 7288   2.229   1.115   3.113 -0.1597 -0.4118  0.3845
 1809SOL    HW2 7289   2.267   1.110   3.201 -2.4568 -0.3207  1.4168
 1809SOL    HW3 7290   2.249   1.031   3.073  1.5404 -0.1774  0.7190
 1809SOL    MW4 7291   2.237   1.103   3.120 -0.2384 -0.3687  0.5651
 1810SOL     OW 7292   2.458   1.271   3.045  0.1289 -0.0586 -0.2271
 1810SOL    HW2 7293   2.376   1.228   3.068  0.4135 -0.6660 -0.3417
 1810SOL    HW3 7294   2.464   1.261   2.950 -0.0826  0.7350 -0.3293
 1810SOL    MW4 7295   2.448   1.264   3.035  0.1385 -0.0340 -0.2556
 1811SOL     OW 7296   2.502   1.528   3.116  0.0953  0.2714  0.4306
 1811SOL    HW2 7297   2.426   1.578   3.088 -0.2057  1.3560  3.0067
 1811SOL    HW3 7298   2.484   1.438   3.089 -1.3316  0.8095 -0.4510
 1811SOL    MW4 7299   2.490   1.523   3.109 -0.1328  0.4855  0.6542
 1812SOL     OW 7300   2.255   1.632   3.011 -0.1718 -0.8534 -0.0845
 1812SOL    HW2 7301   2.164   1.612   3.031 -0.6262  1.4145  0.1845
 1812SOL    HW3 7302   2.253   1.663   2.920  0.1246  0.4233  0.3327
 1812SOL    MW4 7303   2.243   1.633   3.001 -0.1924 -0.3858  0.0060
 1813SOL     OW 7304   2.233   1.895   3.096  0.2166 -0.1558 -0.0000
 1813SOL    HW2 7305   2.309   1.950   3.077  1.1636 -1.1368  0.8484
 1813SOL    HW3 7306   2.256   1.810   3.059  0.2516 -0.9154  1.7123
 1813SOL    MW4 7307   2.246   1.891   3.089  0.3459 -0.3855  0.3378
 1814SOL     OW 7308   2.455   2.030   2.999 -0.0788  0.2866  0.0375
 1814SOL    HW2 7309   2.534   1.983   3.026  0.3069  0.3847 -0.9097
 1814SOL    HW3 7310   2.457   2.028   2.904 -0.2402  1.9120 -0.0082
 1814SOL    MW4 7311   2.465   2.024   2.990 -0.0494  0.5138 -0.0935
 1815SOL     OW 7312   2.497   2.300   3.070 -0.2414  0.0306 -0.4781
 1815SOL    HW2 7313   2.474   2.312   3.162  1.1922  1.0277 -0.2221
 1815SOL    HW3 7314   2.508   2.206   3.059 -0.7365 -0.1162  0.2887
 1815SOL    MW4 7315   2.495   2.289   3.081 -0.1178  0.1428 -0.3433
 1816SOL     OW 7316   2.247   2.426   3.000 -0.3992  0.2249 -0.6562
 1816SOL    HW2 7317   2.249   2.512   3.042 -1.0702 -1.0398  2.1081
 1816SOL    HW3 7318   2.333   2.389   3.016 -1.2977 -1.0582  1.4418
 1816SOL    MW4 7319   2.258   2.432   3.008 -0.6063 -0.1111 -0.0148
 1817SOL     OW 7320   2.250   2.659   3.138  1.0125 -0.1002 -0.1891
 1817SOL    HW2 7321   2.315   2.716   3.096  1.1447 -1.4819 -1.9282
 1817SOL    HW3 7322   2.166   2.699   3.118  1.1881  0.3476 -0.0359
 1817SOL    MW4 7323   2.248   2.672   3.130  1.0533 -0.2234 -0.3984
 1818SOL     OW 7324   2.463   2.813   3.023  0.0523  0.5896  0.1861
 1818SOL    HW2 7325   2.468   2.905   3.049 -0.1357  0.8014 -0.5109
 1818SOL    HW3 7326   2.458   2.816   2.927  0.9899 -0.1783  0.1051
 1818SOL    MW4 7327   2.463   2.826   3.014  0.1509  0.5162  0.0834
 1819SOL     OW 7328   2.503   3.081   3.102 -0.2667  0.3899  0.6975
 1819SOL    HW2 7329   2.577   3.136   3.075 -0.3440  1.0622  1.8303
 1819SOL    HW3 7330   2.426   3.137   3.089 -0.5735 -0.2526 -0.3247
 1819SOL    MW4 7331   2.502   3.096   3.096 -0.3176  0.3939  0.7122
 1820SOL     OW 7332   2.291   3.250   3.048  0.1889 -0.0470 -0.2481
 1820SOL    HW2 7333   2.283   3.341   3.076  0.0574 -0.3642  0.7579
 1820SOL    HW3 7334   2.214   3.207   3.084  0.8241 -0.7873  0.2484
 1820SOL    MW4 7335   2.280   3.256   3.057  0.2553 -0.1867 -0.0498
 1821SOL     OW 7336   2.255   3.504   3.115  0.5444  0.0647  0.2670
 1821SOL    HW2 7337   2.314   3.560   3.065  0.8938  0.7257  1.4050
 1821SOL    HW3 7338   2.168   3.539   3.098  0.5900 -0.1828 -0.4777
 1821SOL    MW4 7339   2.251   3.516   3.107  0.5963  0.1194  0.3188
 1822SOL     OW 7340   2.436   3.654   2.984  0.5173 -0.2841 -0.3747
 1822SOL    HW2 7341   2.508   3.598   3.011  0.3084 -0.1982  0.3729
 1822SOL    HW3 7342   2.434   3.725   3.048  0.1842  0.0733 -0.7673
 1822SOL    MW4 7343   2.445   3.656   2.996  0.4456 -0.2255 -0.3278
 1823SOL     OW 7344   2.434   3.899   3.104 -0.1149 -0.0689 -0.3228
 1823SOL    HW2 7345   2.432   3.887   3.199 -0.8460  0.1413 -0.3092
 1823SOL    HW3 7346   2.517   3.943   3.087  0.0347 -0.1374  0.2141
 1823SOL    MW4 7347   2.445   3.903   3.114 -0.1917 -0.0501 -0.2503
 1824SOL     OW 7348   2.195   4.014   3.012 -0.0606 -0.1625  0.3172
 1824SOL    HW2 7349   2.274   3.963   3.030  0.8400  0.8622 -0.6303
 1824SOL    HW3 7350   2.123   3.958   3.041  1.0092 -1.0928  1.2422
 1824SOL    MW4 7351   2.196   4.000   3.018  0.1993 -0.1502  0.3142
 1825SOL     OW 7352   2.217   4.248   3.149 -0.1550 -0.0120 -0.5530
 1825SOL    HW2 7353   2.223   4.171   3.094 -1.6722 -0.0935 -0.6089
 1825SOL    HW3 7354   2.136   4.291   3.123  0.7605  1.7107 -0.6573
 1825SOL    MW4 7355   2.207   4.244   3.139 -0.2341  0.2046 -0.5741
 1826SOL     OW 7356   2.466   4.415   3.062  0.1644  0.0812  0.1004
 1826SOL    HW2 7357   2.388   4.378   3.105  0.4541 -0.7767 -0.1000
 1826SOL    HW3 7358   2.442   4.417   2.969  0.2255  0.2077  0.0883
 1826SOL    MW4 7359   2.452   4.411   3.055  0.2105 -0.0148  0.0722
 1827SOL     OW 7360   2.914   0.003   3.129 -0.2000 -0.2747  0.3297
 1827SOL    HW2 7361   2.992   0.050   3.099 -0.6369 -0.9021 -1.8854
 1827SOL    HW3 7362   2.931  -0.089   3.106 -1.3993 -0.4774  0.2120
 1827SOL    MW4 7363   2.927  -0.003   3.122 -0.4158 -0.3839  0.0222
 1828SOL     OW 7364   2.700   0.128   3.008 -0.6979 -0.2190 -0.4135
 1828SOL    HW2 7365   2.780   0.094   3.050 -0.0326 -0.3981 -1.8212
 1828SOL    HW3 7366   2.629   0.083   3.054 -0.0104  0.1764  1.0700
 1828SOL    MW4 7367   2.702   0.117   3.020 -0.5193 -0.1905 -0.4034
 1829SOL     OW 7368   2.720   0.407   3.096 -0.5428 -0.0088  0.7089
 1829SOL    HW2 7369   2.706   0.315   3.073 -1.3502  0.1665  0.4834
 1829SOL    HW3 7370   2.634   0.448   3.086  0.3774  1.3906 -2.0809
 1829SOL    MW4 7371   2.707   0.401   3.091 -0.5281  0.1990  0.3111
 1830SOL     OW 7372   2.959   0.529   2.996 -0.3334  0.1479  0.2155
 1830SOL    HW2 7373   2.874   0.491   3.018 -0.3516  0.1701  0.1814
 1830SOL    HW3 7374   2.961   0.531   2.901 -0.3004  0.1608  0.2166
 1830SOL    MW4 7375   2.948   0.524   2.987 -0.3314  0.1525  0.2110
 1831SOL     OW 7376   2.933   0.792   3.121 -0.1174  0.1056  0.4834
 1831SOL    HW2 7377   2.928   0.778   3.216  1.4923 -0.1568  0.5383
 1831SOL    HW3 7378   2.952   0.705   3.086 -1.1175  0.1271 -0.1239
 1831SOL    MW4 7379   2.935   0.779   3.129 -0.0370  0.0738  0.4106
 1832SOL     OW 7380   2.700   0.873   3.000  0.4649 -0.0123 -0.1902
 1832SOL    HW2 7381   2.706   0.962   3.033  1.5133 -0.1557  0.0300
 1832SOL    HW3 7382   2.769   0.825   3.046  1.5659 -0.3497 -2.0952
 1832SOL    MW4 7383   2.710   0.878   3.010  0.7486 -0.0758 -0.4125
 1833SOL     OW 7384   2.688   1.124   3.131  0.0936 -0.2045  1.2571
 1833SOL    HW2 7385   2.769   1.174   3.126 -0.0180 -0.0910  0.4872
 1833SOL    HW3 7386   2.623   1.180   3.089 -0.2100 -0.6388  1.1472
 1833SOL    MW4 7387   2.690   1.138   3.124  0.0389 -0.2469  1.1411
 1834SOL     OW 7388   2.913   1.280   3.032  0.0992  0.1598 -0.2807
 1834SOL    HW2 7389   2.987   1.227   3.063 -0.1175 -0.1331 -0.2602
 1834SOL    HW3 7390   2.924   1.363   3.078  0.1518 -0.0461  0.0913
 1834SOL    MW4 7391   2.924   1.284   3.042  0.0775  0.0939 -0.2286
 1835SOL     OW 7392   2.934   1.529   3.141  0.3913 -0.3418 -0.2862
 1835SOL    HW2 7393   2.945   1.517   3.236  1.6546 -0.5946 -0.4502
 1835SOL    HW3 7394   3.020   1.558   3.111 -0.0211 -0.2074 -1.3526
 1835SOL    MW4 7395   2.947   1.531   3.150  0.5033 -0.3575 -0.4485
 1836SOL     OW 7396   2.736   1.660   3.008 -0.0324 -0.0743 -0.1778
 1836SOL    HW2 7397   2.811   1.612   3.043 -0.1974 -0.1925  0.0107
 1836SOL    HW3 7398   2.660   1.613   3.040 -0.2493  1.6312  1.9196
 1836SOL    MW4 7399   2.736   1.647   3.017 -0.0825  0.1351  0.1240
 1837SOL     OW 7400   2.703   1.923   3.074  0.0065  0.0494  0.0388
 1837SOL    HW2 7401   2.779   1.978   3.057  0.5707 -0.6320  0.2765
 1837SOL    HW3 7402   2.733   1.835   3.050 -0.8523 -0.1555 -0.2694
 1837SOL    MW4 7403   2.717   1.918   3.069 -0.0324 -0.0675  0.0296
 1838SOL     OW 7404   2.939   2.051   3.001 -0.0562 -0.1195 -0.1721
 1838SOL    HW2 7405   2.940   2.146   3.011  0.1224 -0.1064 -0.3092
 1838SOL    HW3 7406   2.930   2.037   2.906 -0.3725 -0.2388 -0.1234
 1838SOL    MW4 7407   2.938   2.062   2.990 -0.0744 -0.1335 -0.1836
 1839SOL     OW 7408   2.957   2.310   3.086  0.0561 -0.0062  0.4019
 1839SOL    HW2 7409   3.028   2.366   3.056 -0.6133 -0.4924 -2.2355
 1839SOL    HW3 7410   2.877   2.357   3.062 -0.4955 -0.5736  1.1183
 1839SOL    MW4 7411   2.955   2.323   3.079 -0.1051 -0.1452  0.1481
 1840SOL     OW 7412   2.725   2.452   3.004 -0.0787  0.2719 -0.1582
 1840SOL    HW2 7413   2.721   2.541   3.040  2.0551  0.1698  0.3709
 1840SOL    HW3 7414   2.643   2.411   3.033 -0.4754  1.6383  0.7072
 1840SOL    MW4 7415   2.713   2.459   3.013  0.1504  0.4389  0.0257
 1841SOL     OW 7416   2.694   2.710   3.108 -0.4064  0.8332 -0.4743
 1841SOL    HW2 7417   2.680   2.711   3.202  0.5336  0.7857 -0.3351
 1841SOL    HW3 7418   2.615   2.750   3.072 -1.3092 -0.2666  0.2605
 1841SOL    MW4 7419   2.682   2.715   3.115 -0.4015  0.6821 -0.3588
 1842SOL     OW 7420   2.909   2.833   2.994 -0.2314  0.2625  0.1503
 1842SOL    HW2 7421   2.991   2.815   3.041 -0.0357 -0.9161 -0.6189
 1842SOL    HW3 7422   2.844   2.776   3.036 -0.1328 -0.5395 -0.7778
 1842SOL    MW4 7423   2.911   2.823   3.006 -0.1926  0.0012 -0.0737
 1843SOL     OW 7424   2.924   3.097   3.075  0.1140  0.3387  0.1321
 1843SOL    HW2 7425   2.844   3.147   3.063 -0.3858 -0.7228 -1.0727
 1843SOL    HW3 7426   2.901   3.008   3.049  1.6303 -0.0156 -0.0599
 1843SOL    MW4 7427   2.911   3.092   3.070  0.2480  0.1516 -0.0522
 1844SOL     OW 7428   2.716   3.252   3.036 -0.1489 -0.5884  0.0985
 1844SOL    HW2 7429   2.691   3.342   3.055  0.7168 -0.5265  1.0044
 1844SOL    HW3 7430   2.736   3.252   2.942  0.1945  0.2468  0.1683
 1844SOL    MW4 7431   2.716   3.264   3.026  0.0105 -0.4702  0.2272
 1845SOL     OW 7432   2.653   3.508   3.095  0.1542 -0.1189 -0.1880
 1845SOL    HW2 7433   2.656   3.510   3.190  0.0095  0.4794 -0.1928
 1845SOL    HW3 7434   2.731   3.556   3.067  0.0033  0.0220 -0.3677
 1845SOL    MW4 7435   2.664   3.515   3.104  0.1152 -0.0212 -0.2120
 1846SOL     OW 7436   2.889   3.613   3.014 -0.6172  0.8443  0.6115
 1846SOL    HW2 7437   2.961   3.573   3.063 -1.0985 -0.1803  0.4896
 1846SOL    HW3 7438   2.901   3.707   3.027  1.5994  0.7767 -0.6090
 1846SOL    MW4 7439   2.900   3.620   3.022 -0.3881  0.7000  0.4342
 1847SOL     OW 7440   2.910   3.866   3.096  0.2433  0.2930 -0.4664
 1847SOL    HW2 7441   2.891   3.854   3.189 -0.1568  1.1951 -0.4231
 1847SOL    HW3 7442   2.832   3.911   3.062 -0.0963 -1.0217 -1.4661
 1847SOL    MW4 7443   2.897   3.870   3.104  0.1457  0.2384 -0.5927
 1848SOL     OW 7444   2.683   3.996   3.037 -0.0434  0.2795  0.2194
 1848SOL    HW2 7445   2.681   4.084   3.074 -0.8167  0.1598  0.4799
 1848SOL    HW3 7446   2.649   4.007   2.948 -1.2928  0.0570  0.6662
 1848SOL    MW4 7447   2.678   4.009   3.030 -0.3104  0.2346  0.3130
 1849SOL     OW 7448   2.708   4.273   3.123  0.0397  0.0095 -0.2005
 1849SOL    HW2 7449   2.706   4.251   3.216 -2.5646 -0.1297 -0.2265
 1849SOL    HW3 7450   2.632   4.331   3.111 -0.3413 -0.9087 -2.4348
 1849SOL    MW4 7451   2.697   4.278   3.134 -0.3543 -0.1302 -0.4988
 1850SOL     OW 7452   2.913   4.409   3.002  0.1719 -0.1527 -0.2191
 1850SOL    HW2 7453   2.998   4.369   3.022 -0.0243  0.3817  1.8111
 1850SOL    HW3 7454   2.849   4.351   3.044 -0.3086  0.7164  0.2529
 1850SOL    MW4 7455   2.916   4.396   3.010  0.0825  0.0329  0.1111
 1851SOL     OW 7456   3.372   4.633   3.125  0.3678  0.4900 -0.5494
 1851SOL    HW2 7457   3.463   4.662   3.117  1.3798 -1.9024  1.4721
 1851SOL    HW3 7458   3.367   4.554   3.072 -0.3339  0.2094 -0.0763
 1851SOL    MW4 7459   3.383   4.627   3.117  0.4089  0.1373 -0.2201
 1852SOL     OW 7460   3.155   0.130   3.042  0.0198  0.0309 -0.0360
 1852SOL    HW2 7461   3.153   0.214   3.088  0.2665  0.2797 -0.4718
 1852SOL    HW3 7462   3.225   0.081   3.085 -0.3623 -0.0919  0.4537
 1852SOL    MW4 7463   3.164   0.134   3.053  0.0021  0.0475 -0.0288
 1853SOL     OW 7464   3.160   0.381   3.162  0.3902  0.3051 -0.0660
 1853SOL    HW2 7465   3.239   0.407   3.114  0.3905 -0.9973 -0.7873
 1853SOL    HW3 7466   3.089   0.427   3.116  0.5505  0.1976 -0.4293
 1853SOL    MW4 7467   3.161   0.390   3.149  0.4115  0.1191 -0.2096
 1854SOL     OW 7468   3.405   0.470   3.032  0.0829  0.0741  0.1087
 1854SOL    HW2 7469   3.489   0.426   3.047 -1.5478 -3.1376  0.2072
 1854SOL    HW3 7470   3.396   0.471   2.936  0.4436  0.8690  0.0791
 1854SOL    MW4 7471   3.415   0.464   3.021 -0.0849 -0.2448  0.1178
 1855SOL     OW 7472   3.374   0.747   3.071  0.3628  0.6911  0.1699
 1855SOL    HW2 7473   3.350   0.736   3.163  2.3395  0.0837  0.6349
 1855SOL    HW3 7474   3.398   0.659   3.042 -1.3003  0.6863 -1.2592
 1855SOL    MW4 7475   3.374   0.734   3.080  0.4044  0.6104  0.0427
 1856SOL     OW 7476   3.143   0.909   2.991  0.1459 -0.2416  0.2332
 1856SOL    HW2 7477   3.218   0.856   3.020 -0.4373 -0.1121  1.9848
 1856SOL    HW3 7478   3.067   0.868   3.032 -0.4911  0.9715  0.2760
 1856SOL    MW4 7479   3.143   0.897   3.000 -0.0153 -0.0644  0.4699
 1857SOL     OW 7480   3.151   1.159   3.093 -0.6469 -0.3154 -0.3858
 1857SOL    HW2 7481   3.209   1.216   3.042 -1.1549  0.4332 -0.1383
 1857SOL    HW3 7482   3.154   1.075   3.047 -0.7559  0.2275 -1.4126
 1857SOL    MW4 7483   3.159   1.156   3.080 -0.7286 -0.1451 -0.4885
 1858SOL     OW 7484   3.363   1.301   2.966 -0.2257  0.5702 -0.3685
 1858SOL    HW2 7485   3.435   1.257   3.010  0.4280  0.1477 -1.8298
 1858SOL    HW3 7486   3.349   1.381   3.017 -1.0198 -0.9941  1.9401
 1858SOL    MW4 7487   3.371   1.306   2.978 -0.2439  0.3080 -0.2570
 1859SOL     OW 7488   3.365   1.523   3.122  0.5175 -0.1303  0.1795
 1859SOL    HW2 7489   3.372   1.499   3.215  0.8699 -0.2912  0.1106
 1859SOL    HW3 7490   3.446   1.571   3.104  1.1244 -1.3619 -0.4272
 1859SOL    MW4 7491   3.377   1.526   3.132  0.6442 -0.3141  0.0904
 1860SOL     OW 7492   3.173   1.692   3.019  0.3546  0.2090 -0.4420
 1860SOL    HW2 7493   3.244   1.640   3.057  1.2360  1.7458  0.0639
 1860SOL    HW3 7494   3.187   1.686   2.925  1.1565  0.4916 -0.3449
 1860SOL    MW4 7495   3.184   1.684   3.012  0.5770  0.4489 -0.3624
 1861SOL     OW 7496   3.164   1.950   3.111  0.0713 -0.2074  0.1617
 1861SOL    HW2 7497   3.165   1.862   3.073  0.2092 -0.0263 -0.2638
 1861SOL    HW3 7498   3.085   1.991   3.074 -0.9849 -0.7628  1.7771
 1861SOL    MW4 7499   3.154   1.944   3.101 -0.0498 -0.2568  0.3188
 1862SOL     OW 7500   3.395   2.038   2.992 -0.4440 -0.0821  0.0123
 1862SOL    HW2 7501   3.472   1.996   3.031  0.0366  1.5357  0.8505
 1862SOL    HW3 7502   3.320   1.999   3.038  0.0362  0.6671  1.4473
 1862SOL    MW4 7503   3.395   2.027   3.003 -0.3171  0.2301  0.3121
 1863SOL     OW 7504   3.388   2.313   3.098 -0.1342 -0.1420 -0.5859
 1863SOL    HW2 7505   3.385   2.305   3.193 -2.1214  1.4472 -0.4666
 1863SOL    HW3 7506   3.394   2.223   3.066 -1.4066 -0.8171  1.0092
 1863SOL    MW4 7507   3.388   2.300   3.106 -0.5641 -0.0217 -0.3598
 1864SOL     OW 7508   3.175   2.480   3.020 -0.2550 -0.7651  0.3936
 1864SOL    HW2 7509   3.253   2.430   3.045  0.6607 -0.2254 -1.3157
 1864SOL    HW3 7510   3.170   2.470   2.925 -0.6775  1.4942  0.1563
 1864SOL    MW4 7511   3.185   2.472   3.011 -0.1898 -0.3958  0.1369
 1865SOL     OW 7512   3.145   2.741   3.123  0.0356 -0.2591 -0.5423
 1865SOL    HW2 7513   3.135   2.724   3.217  1.6915  0.8077 -0.1466
 1865SOL    HW3 7514   3.142   2.654   3.082  3.5189 -1.1877  0.9378
 1865SOL    MW4 7515   3.144   2.727   3.130  0.7136 -0.2408 -0.2949
 1866SOL     OW 7516   3.387   2.830   2.991  0.1239  0.3060 -0.0964
 1866SOL    HW2 7517   3.388   2.917   3.032 -0.4489  0.1886  0.1652
 1866SOL    HW3 7518   3.318   2.782   3.037  0.6750 -0.4053 -0.0149
 1866SOL    MW4 7519   3.378   2.835   3.002  0.1211  0.1965 -0.0510
 1867SOL     OW 7520   3.401   3.071   3.103 -0.1461  0.1043 -0.0909
 1867SOL    HW2 7521   3.407   3.078   3.198 -1.0130 -0.4873  0.0093
 1867SOL    HW3 7522   3.326   3.125   3.079  1.2287  1.8000 -0.6376
 1867SOL    MW4 7523   3.392   3.079   3.112 -0.0794  0.2501 -0.1500
 1868SOL     OW 7524   3.173   3.218   3.024 -0.0114 -0.2932  0.1530
 1868SOL    HW2 7525   3.096   3.167   3.052  0.7416 -0.2314  2.4002
 1868SOL    HW3 7526   3.157   3.235   2.931 -1.4099 -2.6198 -0.0774
 1868SOL    MW4 7527   3.160   3.214   3.015 -0.0966 -0.5920  0.4189
 1869SOL     OW 7528   3.114   3.466   3.116  0.4090 -0.1169 -0.7102
 1869SOL    HW2 7529   3.198   3.501   3.087  0.2335  0.0052 -1.0822
 1869SOL    HW3 7530   3.117   3.373   3.093  0.7832 -0.2938  0.0645
 1869SOL    MW4 7531   3.125   3.458   3.109  0.4351 -0.1240 -0.6571
 1870SOL     OW 7532   3.352   3.606   3.014  0.0737 -0.0887 -0.2030
 1870SOL    HW2 7533   3.421   3.562   3.063  0.3289 -0.1292 -0.5992
 1870SOL    HW3 7534   3.353   3.696   3.047 -0.3460 -0.3381  0.4961
 1870SOL    MW4 7535   3.361   3.612   3.025  0.0520 -0.1271 -0.1628
 1871SOL     OW 7536   3.372   3.890   3.106 -0.4423 -0.0385  0.2958
 1871SOL    HW2 7537   3.359   3.881   3.200 -1.8405 -0.8540  0.0405
 1871SOL    HW3 7538   3.287   3.919   3.073 -0.1355 -0.3388 -0.7901
 1871SOL    MW4 7539   3.359   3.893   3.114 -0.5863 -0.1855  0.1187
 1872SOL     OW 7540   3.124   3.970   2.990 -0.2858 -0.1363  0.4633
 1872SOL    HW2 7541   3.048   3.925   3.026 -0.5505 -0.7800 -0.8687
 1872SOL    HW3 7542   3.100   3.990   2.899  0.4100  1.3388  0.5826
 1872SOL    MW4 7543   3.111   3.967   2.983 -0.2289 -0.0265  0.3030
 1873SOL     OW 7544   3.149   4.265   3.068 -0.6244 -0.0528 -0.3738
 1873SOL    HW2 7545   3.154   4.257   3.163  0.0616  0.9039 -0.3246
 1873SOL    HW3 7546   3.154   4.174   3.036 -1.2055 -0.4005  0.5031
 1873SOL    MW4 7547   3.150   4.252   3.076 -0.6106  0.0272 -0.2518
 1874SOL     OW 7548   3.386   4.379   2.990 -0.7804 -0.0673 -0.5234
 1874SOL    HW2 7549   3.461   4.332   3.027 -0.6492 -0.5214 -1.3533
 1874SOL    HW3 7550   3.309   4.334   3.028 -0.6428 -0.1611 -0.3545
 1874SOL    MW4 7551   3.385   4.367   3.000 -0.7451 -0.1397 -0.6106
 1875SOL     OW 7552   3.861   4.639   3.090  0.2524  0.1444 -0.3235
 1875SOL    HW2 7553   3.840   4.548   3.066  0.8973 -0.2210  0.4894
 1875SOL    HW3 7554   3.776   4.684   3.090 -0.2464 -0.7797  0.6303
 1875SOL    MW4 7555   3.847   4.633   3.087  0.2716 -0.0253 -0.0904
 1876SOL     OW 7556   3.614   0.095   3.040 -0.4237  0.1753  0.2330
 1876SOL    HW2 7557   3.619   0.188   3.061 -0.8622 -0.0316  1.2959
 1876SOL    HW3 7558   3.616   0.092   2.944  1.3627  1.1526  0.2126
 1876SOL    MW4 7559   3.615   0.107   3.030 -0.2456  0.2769  0.3705
 1877SOL     OW 7560   3.661   0.365   3.114  0.3210 -0.1954 -0.2691
 1877SOL    HW2 7561   3.638   0.375   3.206 -2.6529 -2.6507 -0.6431
 1877SOL    HW3 7562   3.740   0.418   3.103 -0.5427  1.9882  3.1267
 1877SOL    MW4 7563   3.669   0.373   3.125 -0.1850 -0.2313  0.1297
 1878SOL     OW 7564   3.861   0.533   3.018 -0.4199  0.0355  0.4343
 1878SOL    HW2 7565   3.928   0.481   3.063 -0.3171  0.8507  1.2358
 1878SOL    HW3 7566   3.848   0.609   3.074 -0.7445  0.7601 -0.6105
 1878SOL    MW4 7567   3.868   0.536   3.032 -0.4494  0.2386  0.4025
 1879SOL     OW 7568   3.827   0.810   3.096 -0.2247 -0.0165 -0.0865
 1879SOL    HW2 7569   3.837   0.807   3.191  0.6286 -0.0418 -0.1755
 1879SOL    HW3 7570   3.906   0.854   3.065 -0.3230 -0.3481 -0.8130
 1879SOL    MW4 7571   3.839   0.815   3.105 -0.1252 -0.0635 -0.1938
 1880SOL     OW 7572   3.581   0.905   3.001  0.6538 -0.5240  0.5606
 1880SOL    HW2 7573   3.659   0.867   3.043  0.7451 -0.1397  0.7421
 1880SOL    HW3 7574   3.513   0.838   3.011  1.1442 -1.1630 -0.2202
 1880SOL    MW4 7575   3.582   0.891   3.008  0.7305 -0.5576  0.4816
 1881SOL     OW 7576   3.603   1.162   3.092 -0.3022  0.1688 -0.2192
 1881SOL    HW2 7577   3.689   1.192   3.065 -1.1095  0.4564 -2.5697
 1881SOL    HW3 7578   3.595   1.075   3.053 -0.3377 -0.6742  1.5953
 1881SOL    MW4 7579   3.613   1.154   3.083 -0.4129  0.0955 -0.2897
 1882SOL     OW 7580   3.831   1.282   2.987 -0.3476  0.1986  0.0621
 1882SOL    HW2 7581   3.802   1.365   3.024 -1.5595 -0.8168  1.4379
 1882SOL    HW3 7582   3.806   1.286   2.895 -0.7125  1.2123  0.2061
 1882SOL    MW4 7583   3.824   1.293   2.980 -0.5555  0.1984  0.2625
 1883SOL     OW 7584   3.838   1.542   3.101 -0.2301 -0.1189  0.5826
 1883SOL    HW2 7585   3.836   1.521   3.195  0.7793 -1.0838  0.4012
 1883SOL    HW3 7586   3.763   1.599   3.088 -0.7810 -0.5291  1.8536
 1883SOL    MW4 7587   3.828   1.547   3.112 -0.1698 -0.3003  0.7265
 1884SOL     OW 7588   3.589   1.650   3.033  0.0096 -0.0133  0.5468
 1884SOL    HW2 7589   3.593   1.745   3.047  0.3850  0.0515 -0.0087
 1884SOL    HW3 7590   3.590   1.639   2.938 -0.8978 -0.5373  0.5835
 1884SOL    MW4 7591   3.589   1.661   3.022 -0.0606 -0.0739  0.4783
 1885SOL     OW 7592   3.632   1.924   3.119  0.1870 -0.1665  0.2432
 1885SOL    HW2 7593   3.644   1.905   3.212  1.5123  0.1244  0.1415
 1885SOL    HW3 7594   3.696   1.993   3.100 -1.0302  0.7662 -0.5696
 1885SOL    MW4 7595   3.642   1.931   3.129  0.2017 -0.0050  0.1228
 1886SOL     OW 7596   3.841   2.074   2.999 -0.5563 -0.3722  0.2030
 1886SOL    HW2 7597   3.862   2.159   3.037  0.5708 -1.0607  1.1733
 1886SOL    HW3 7598   3.842   2.089   2.905 -0.1138  0.6320  0.3547
 1886SOL    MW4 7599   3.844   2.087   2.992 -0.3495 -0.3304  0.3510
 1887SOL     OW 7600   3.847   2.324   3.113  0.0702  0.4020  0.4662
 1887SOL    HW2 7601   3.833   2.307   3.207  0.7182  1.5131  0.7718
 1887SOL    HW3 7602   3.768   2.369   3.085  0.0378  0.4091  0.5673
 1887SOL    MW4 7603   3.835   2.327   3.122  0.1516  0.5498  0.5198
 1888SOL     OW 7604   3.610   2.458   3.031  0.0505 -0.4864  0.2804
 1888SOL    HW2 7605   3.591   2.547   3.060 -2.0315  0.2462 -3.0748
 1888SOL    HW3 7606   3.532   2.407   3.054  0.0086 -0.7489 -0.3997
 1888SOL    MW4 7607   3.597   2.463   3.038 -0.2296 -0.4241 -0.2522
 1889SOL     OW 7608   3.578   2.722   3.154 -0.6151  0.0426 -0.3879
 1889SOL    HW2 7609   3.662   2.754   3.121 -0.4634 -0.5001 -0.5420
 1889SOL    HW3 7610   3.512   2.764   3.099 -0.5050  1.4040  0.5083
 1889SOL    MW4 7611   3.581   2.732   3.142 -0.5805  0.1507 -0.2902
 1890SOL     OW 7612   3.784   2.857   3.031  0.1164  0.2427  0.9486
 1890SOL    HW2 7613   3.766   2.949   3.049 -0.8073  0.3051 -0.2272
 1890SOL    HW3 7614   3.792   2.852   2.936 -1.0691 -1.1095  0.9042
 1890SOL    MW4 7615   3.783   2.868   3.021 -0.1619  0.0727  0.7875
 1891SOL     OW 7616   3.827   3.143   3.126  0.0076 -0.2801 -0.0222
 1891SOL    HW2 7617   3.903   3.171   3.075 -0.0849  0.4598  0.2355
 1891SOL    HW3 7618   3.755   3.198   3.094  0.2095  1.0638  1.7326
 1891SOL    MW4 7619   3.828   3.154   3.115  0.0219 -0.0050  0.2434
 1892SOL     OW 7620   3.590   3.245   2.999 -0.1229  0.4044 -0.2053
 1892SOL    HW2 7621   3.519   3.185   3.023 -0.3643  1.2193  1.1427
 1892SOL    HW3 7622   3.584   3.252   2.903 -1.0330 -0.5418 -0.2283
 1892SOL    MW4 7623   3.580   3.238   2.989 -0.2747  0.3867 -0.0305
 1893SOL     OW 7624   3.559   3.469   3.152  0.0685 -0.8569 -0.1746
 1893SOL    HW2 7625   3.639   3.517   3.134 -0.1643 -0.3869  0.0230
 1893SOL    HW3 7626   3.558   3.398   3.088 -0.0658 -0.0239 -1.1083
 1893SOL    MW4 7627   3.569   3.466   3.142  0.0200 -0.6850 -0.2716
 1894SOL     OW 7628   3.794   3.581   3.033  0.2364 -0.2324 -0.6008
 1894SOL    HW2 7629   3.817   3.667   3.068  0.5929 -0.2565 -0.7712
 1894SOL    HW3 7630   3.788   3.595   2.938  0.5104 -0.4467 -0.6482
 1894SOL    MW4 7631   3.796   3.595   3.025  0.3197 -0.2639 -0.6294
 1895SOL     OW 7632   3.840   3.846   3.145 -0.3844  0.3633  0.5385
 1895SOL    HW2 7633   3.829   3.853   3.240 -1.0759  1.1908  0.3967
 1895SOL    HW3 7634   3.752   3.858   3.109 -0.3448 -1.1858 -0.1476
 1895SOL    MW4 7635   3.827   3.848   3.153 -0.4702  0.2682  0.4294
 1896SOL     OW 7636   3.619   3.962   3.032  0.0367 -0.2069 -0.6999
 1896SOL    HW2 7637   3.532   3.953   3.070 -0.0986  2.6839 -0.2341
 1896SOL    HW3 7638   3.603   3.983   2.940  0.2528 -0.4660 -0.7974
 1896SOL    MW4 7639   3.605   3.964   3.025  0.0474  0.1404 -0.6511
 1897SOL     OW 7640   3.575   4.228   3.093  0.0109  0.3023  0.1045
 1897SOL    HW2 7641   3.654   4.270   3.058  0.5721  0.8085  1.9233
 1897SOL    HW3 7642   3.590   4.134   3.080  0.2217  0.4788 -0.9562
 1897SOL    MW4 7643   3.588   4.221   3.087  0.1130  0.3924  0.2048
 1898SOL     OW 7644   3.794   4.381   3.017  0.2230  0.1182 -0.1937
 1898SOL    HW2 7645   3.876   4.342   3.045  0.1551  0.6401  0.7399
 1898SOL    HW3 7646   3.801   4.386   2.922  1.3402  0.3244 -0.1006
 1898SOL    MW4 7647   3.806   4.377   3.008  0.3612  0.2141 -0.0584
 1899SOL     OW 7648   4.289   4.659   3.114 -0.0534  0.2375 -0.2384
 1899SOL    HW2 7649   4.276   4.665   3.209  0.3234  0.6699 -0.2109
 1899SOL    HW3 7650   4.276   4.567   3.094 -0.5925  0.2218  0.1682
 1899SOL    MW4 7651   4.286   4.648   3.124 -0.0753  0.2918 -0.1812
 1900SOL     OW 7652   4.069   0.124   3.046 -0.0476  0.2559 -0.0482
 1900SOL    HW2 7653   4.149   0.076   3.067  0.1021  0.4774 -0.1151
 1900SOL    HW3 7654   3.999   0.059   3.056  0.1428  0.0539 -0.0241
 1900SOL    MW4 7655   4.071   0.109   3.050 -0.0024  0.2585 -0.0539
 1901SOL     OW 7656   4.048   0.383   3.137 -0.1566 -0.5869  0.2490
 1901SOL    HW2 7657   4.122   0.425   3.091  0.7395 -1.1327  1.1633
 1901SOL    HW3 7658   4.047   0.294   3.102 -0.8721 -0.3622 -0.3153
 1901SOL    MW4 7659   4.058   0.377   3.126 -0.1326 -0.6292  0.2954
 1902SOL     OW 7660   4.255   0.512   3.025  0.2286  0.1252 -0.3511
 1902SOL    HW2 7661   4.271   0.606   3.022 -0.5270  0.2468 -0.6878
 1902SOL    HW3 7662   4.250   0.485   2.933 -1.1670  0.0471 -0.2683
 1902SOL    MW4 7663   4.256   0.521   3.012 -0.0553  0.1309 -0.3846
 1903SOL     OW 7664   4.278   0.794   3.068  0.1802 -0.0656  0.5052
 1903SOL    HW2 7665   4.212   0.843   3.020 -0.7043 -0.9554  0.7765
 1903SOL    HW3 7666   4.362   0.824   3.033 -0.4048  0.3691 -0.5304
 1903SOL    MW4 7667   4.281   0.804   3.057 -0.0138 -0.1257  0.4041
 1904SOL     OW 7668   4.058   0.923   2.962  0.1923  0.1907 -0.1892
 1904SOL    HW2 7669   4.059   1.019   2.968 -1.2123  0.2545 -0.7836
 1904SOL    HW3 7670   4.055   0.905   2.868 -2.7201 -0.3853 -0.0140
 1904SOL    MW4 7671   4.058   0.933   2.950 -0.3772  0.1231 -0.2444
 1905SOL     OW 7672   4.061   1.190   3.074 -0.1250 -0.2368 -0.1294
 1905SOL    HW2 7673   4.058   1.177   3.169 -0.7015 -0.3329 -0.1576
 1905SOL    HW3 7674   3.974   1.223   3.052 -0.4059 -1.3900 -0.7939
 1905SOL    MW4 7675   4.049   1.192   3.084 -0.2375 -0.4016 -0.2208
 1906SOL     OW 7676   4.288   1.273   2.988 -0.1808  0.1151 -0.2240
 1906SOL    HW2 7677   4.203   1.233   3.010 -0.2274 -0.9849 -2.2853
 1906SOL    HW3 7678   4.286   1.282   2.893  1.7996  0.6174 -0.2295
 1906SOL    MW4 7679   4.276   1.269   2.979  0.0744  0.0361 -0.4966
 1907SOL     OW 7680   4.269   1.514   3.110  0.1017  0.0641 -0.2708
 1907SOL    HW2 7681   4.190   1.551   3.070  0.5397 -0.3922 -1.5745
 1907SOL    HW3 7682   4.284   1.432   3.064  0.5778 -0.5189  0.8949
 1907SOL    MW4 7683   4.261   1.508   3.099  0.2222 -0.0732 -0.2887
 1908SOL     OW 7684   4.045   1.665   2.976  0.4041 -1.0819  0.4745
 1908SOL    HW2 7685   4.059   1.747   3.023  0.9017 -0.6910 -0.3329
 1908SOL    HW3 7686   3.974   1.621   3.023 -0.1130 -0.0214  0.6961
 1908SOL    MW4 7687   4.038   1.670   2.988  0.4020 -0.8904  0.3972
 1909SOL     OW 7688   4.041   1.919   3.114 -0.6723  0.1343 -0.0849
 1909SOL    HW2 7689   4.113   1.967   3.072 -0.3941 -0.4667 -0.2975
 1909SOL    HW3 7690   3.962   1.952   3.070 -0.4845  0.3869 -0.2408
 1909SOL    MW4 7691   4.040   1.930   3.103 -0.6113  0.0882 -0.1335
 1910SOL     OW 7692   4.257   2.040   2.993 -0.2877 -0.7379  0.2763
 1910SOL    HW2 7693   4.239   2.131   3.018 -0.7228 -0.8713  0.4414
 1910SOL    HW3 7694   4.263   2.043   2.897 -0.9669 -0.6598  0.2389
 1910SOL    MW4 7695   4.256   2.052   2.983 -0.4344 -0.7451  0.2933
 1911SOL     OW 7696   4.225   2.303   3.098  0.2052  0.0407  0.2057
 1911SOL    HW2 7697   4.150   2.347   3.060 -0.1971 -0.7260  0.1086
 1911SOL    HW3 7698   4.299   2.360   3.077 -0.2344  0.4101 -0.3635
 1911SOL    MW4 7699   4.225   2.316   3.090  0.0935 -0.0114  0.1178
 1912SOL     OW 7700   4.016   2.482   2.984  0.3413  0.2752 -0.0232
 1912SOL    HW2 7701   4.021   2.568   3.026 -0.2915  0.8904 -1.1836
 1912SOL    HW3 7702   3.953   2.433   3.037 -1.6553  1.5743 -1.1178
 1912SOL    MW4 7703   4.009   2.487   2.997 -0.0052  0.5279 -0.3207
 1913SOL     OW 7704   4.004   2.735   3.135 -0.1513 -0.0396  0.2942
 1913SOL    HW2 7705   4.006   2.741   3.231 -1.4353 -0.1985  0.3406
 1913SOL    HW3 7706   3.925   2.783   3.110  0.2902  0.1683 -0.7026
 1913SOL    MW4 7707   3.994   2.742   3.144 -0.2623 -0.0331  0.1690
 1914SOL     OW 7708   4.272   2.847   3.041  0.1649 -0.5424 -0.0524
 1914SOL    HW2 7709   4.189   2.805   3.064 -0.0084  0.3583  0.9846
 1914SOL    HW3 7710   4.338   2.798   3.089 -0.0140  0.1927  0.9697
 1914SOL    MW4 7711   4.270   2.835   3.050  0.1192 -0.3266  0.2189
 1915SOL     OW 7712   4.289   3.115   3.123  0.1020  0.9466  0.0144
 1915SOL    HW2 7713   4.210   3.158   3.089  1.0473  0.2472 -3.2181
 1915SOL    HW3 7714   4.278   3.023   3.099  1.9481  0.8673 -0.6060
 1915SOL    MW4 7715   4.277   3.108   3.115  0.4706  0.8440 -0.4938
 1916SOL     OW 7716   4.067   3.234   3.008  0.1350 -0.4112  0.2359
 1916SOL    HW2 7717   4.062   3.327   3.028 -1.9506 -0.4223 -0.1660
 1916SOL    HW3 7718   4.054   3.228   2.913  0.8099 -1.0676  0.1769
 1916SOL    MW4 7719   4.065   3.245   2.998 -0.0510 -0.4992  0.1748
 1917SOL     OW 7720   4.046   3.499   3.091  0.0941  0.0203  0.2475
 1917SOL    HW2 7721   4.042   3.494   3.186 -1.3522  1.0812  0.2594
 1917SOL    HW3 7722   3.958   3.526   3.065  0.8564  1.0928 -1.2916
 1917SOL    MW4 7723   4.034   3.502   3.100  0.0038  0.3016  0.0460
 1918SOL     OW 7724   4.295   3.618   3.020 -0.1376 -0.5414  0.3538
 1918SOL    HW2 7725   4.302   3.702   3.065  0.6409 -0.8600  0.8378
 1918SOL    HW3 7726   4.212   3.581   3.051 -0.2419 -0.1777  0.5138
 1918SOL    MW4 7727   4.285   3.624   3.030 -0.0491 -0.5355  0.4385
 1919SOL     OW 7728   4.260   3.876   3.131  0.2496 -0.3983  0.1009
 1919SOL    HW2 7729   4.188   3.920   3.085 -0.4976 -1.3784  0.3113
 1919SOL    HW3 7730   4.338   3.923   3.103 -0.5515  1.2196  0.5265
 1919SOL    MW4 7731   4.261   3.888   3.121  0.0453 -0.3140  0.1848
 1920SOL     OW 7732   4.033   3.980   3.019 -0.0795 -0.6311 -0.0586
 1920SOL    HW2 7733   4.029   4.070   3.053  1.6414 -0.7882  0.6635
 1920SOL    HW3 7734   3.965   3.933   3.066 -1.4292  0.4396 -0.9167
 1920SOL    MW4 7735   4.024   3.986   3.030 -0.0305 -0.5105 -0.0763
 1921SOL     OW 7736   4.036   4.257   3.078 -0.4304  0.1654 -0.2053
 1921SOL    HW2 7737   4.042   4.264   3.173  0.7734 -1.8264 -0.0872
 1921SOL    HW3 7738   4.115   4.301   3.046 -0.1962 -0.2501 -0.2063
 1921SOL    MW4 7739   4.047   4.263   3.086 -0.2403 -0.1521 -0.1898
 1922SOL     OW 7740   4.270   4.408   3.025 -0.2989 -0.2769  0.0515
 1922SOL    HW2 7741   4.345   4.353   3.047  0.7168  0.7353 -0.8391
 1922SOL    HW3 7742   4.264   4.403   2.929 -0.4500  0.8312 -0.0039
 1922SOL    MW4 7743   4.279   4.400   3.015 -0.1845  0.0024 -0.0732
 1923SOL     OW 7744   0.230   0.007   3.347 -0.4705 -0.0728 -0.3727
 1923SOL    HW2 7745   0.297   0.058   3.392  0.0789 -0.4181 -0.7905
 1923SOL    HW3 7746   0.250  -0.084   3.371 -2.6092  0.0210  1.9448
 1923SOL    MW4 7747   0.242   0.002   3.356 -0.6802 -0.1059 -0.1218
 1924SOL     OW 7748   0.001   0.093   3.475  0.1190  0.1855 -0.0981
 1924SOL    HW2 7749   0.000   0.187   3.458 -0.3894  0.0592 -0.8086
 1924SOL    HW3 7750   0.084   0.063   3.436 -0.1745  0.1910 -0.7415
 1924SOL    MW4 7751   0.012   0.102   3.467  0.0132  0.1696 -0.2766
 1925SOL     OW 7752   4.486   0.384   3.411 -0.1336 -0.0189  0.4617
 1925SOL    HW2 7753   4.406   0.417   3.452 -0.4125  1.3832 -1.1523
 1925SOL    HW3 7754   4.551   0.452   3.428  0.3682 -0.5359  0.6203
 1925SOL    MW4 7755   4.484   0.397   3.419 -0.1040  0.0978  0.2699
 1926SOL     OW 7756   0.203   0.554   3.474  0.1490  0.0308 -0.1924
 1926SOL    HW2 7757   0.279   0.510   3.436  0.9757  1.7963 -0.6322
 1926SOL    HW3 7758   0.210   0.644   3.443 -1.3026  0.5611  0.9985
 1926SOL    MW4 7759   0.214   0.560   3.465  0.0666  0.3337 -0.0930
 1927SOL     OW 7760   0.286   0.810   3.379 -0.1987  0.0802 -0.0301
 1927SOL    HW2 7761   0.344   0.845   3.447 -0.4453 -1.2388  0.8962
 1927SOL    HW3 7762   0.202   0.853   3.394 -0.3314 -0.4187  0.7008
 1927SOL    MW4 7763   0.283   0.820   3.390 -0.2488 -0.1596  0.1884
 1928SOL     OW 7764   0.015   0.890   3.446 -0.1909  0.5027 -0.4279
 1928SOL    HW2 7765   0.008   0.899   3.541 -1.5043  1.4632 -0.5967
 1928SOL    HW3 7766  -0.004   0.978   3.412 -1.4277 -0.2220 -1.6575
 1928SOL    MW4 7767   0.012   0.903   3.454 -0.5274  0.5338 -0.6123
 1929SOL     OW 7768   4.478   1.140   3.391  0.4533 -0.2203 -0.3650
 1929SOL    HW2 7769   4.556   1.185   3.422  1.1034 -1.4588 -0.1858
 1929SOL    HW3 7770   4.479   1.152   3.296  0.6577  0.0945 -0.3195
 1929SOL    MW4 7771   4.488   1.147   3.382  0.5660 -0.3421 -0.3352
 1930SOL     OW 7772   0.212   1.248   3.514 -0.4440 -0.1658  0.1442
 1930SOL    HW2 7773   0.304   1.227   3.497 -0.4228 -0.0272  0.0852
 1930SOL    HW3 7774   0.197   1.331   3.468 -0.8505 -0.6497 -0.6159
 1930SOL    MW4 7775   0.222   1.256   3.506 -0.4948 -0.2114  0.0360
 1931SOL     OW 7776   0.233   1.508   3.381  0.2343  0.4078  0.0291
 1931SOL    HW2 7777   0.304   1.560   3.418  0.6922  0.1200 -0.4438
 1931SOL    HW3 7778   0.235   1.527   3.287  1.5541 -1.8116 -0.4323
 1931SOL    MW4 7779   0.243   1.518   3.373  0.4688  0.0769 -0.0942
 1932SOL     OW 7780   0.030   1.666   3.491 -0.0379  0.0789 -0.4868
 1932SOL    HW2 7781  -0.059   1.634   3.478 -0.1169  0.0305  0.1449
 1932SOL    HW3 7782   0.084   1.611   3.434 -0.1652 -1.2312  0.6268
 1932SOL    MW4 7783   0.025   1.655   3.482 -0.0650 -0.1003 -0.2565
 1933SOL     OW 7784   0.074   1.915   3.373 -0.3522 -0.3314  0.1037
 1933SOL    HW2 7785   0.038   1.833   3.407  0.3843 -1.0688 -0.8633
 1933SOL    HW3 7786   0.062   1.909   3.278  0.3865  0.3412 -0.0391
 1933SOL    MW4 7787   0.068   1.903   3.365 -0.1576 -0.3401 -0.0427
 1934SOL     OW 7788   0.233   2.116   3.484  0.0295 -0.1650 -0.1278
 1934SOL    HW2 7789   0.257   2.103   3.576  0.2815  1.9710  0.1387
 1934SOL    HW3 7790   0.169   2.048   3.466  0.7558 -1.2600  1.3274
 1934SOL    MW4 7791   0.228   2.105   3.494  0.1586 -0.0277  0.0994
 1935SOL     OW 7792   0.226   2.361   3.387  0.0341  0.2636  0.0176
 1935SOL    HW2 7793   0.140   2.395   3.410 -0.4962 -1.1603  0.2181
 1935SOL    HW3 7794   0.232   2.278   3.434  1.6962  0.5601  0.3323
 1935SOL    MW4 7795   0.215   2.354   3.396  0.1834  0.1147  0.0854
 1936SOL     OW 7796   4.462   2.459   3.489  0.4861 -0.1653  0.6230
 1936SOL    HW2 7797   4.464   2.439   3.583 -2.7298  1.0152  0.9915
 1936SOL    HW3 7798   4.393   2.402   3.455 -0.4272  1.5687 -0.4697
 1936SOL    MW4 7799   4.453   2.449   3.497 -0.0587  0.2193  0.5276
 1937SOL     OW 7800   4.467   2.730   3.385  0.3102  0.3437  0.1748
 1937SOL    HW2 7801   4.557   2.753   3.411  0.4823  0.4209 -0.4806
 1937SOL    HW3 7802   4.450   2.646   3.429  0.9985 -0.0727 -0.3376
 1937SOL    MW4 7803   4.477   2.722   3.394  0.4234  0.2987  0.0205
 1938SOL     OW 7804   0.230   2.860   3.450 -0.6751 -0.6444 -0.2974
 1938SOL    HW2 7805   0.321   2.838   3.429 -0.5112 -0.1825 -0.0564
 1938SOL    HW3 7806   0.227   2.955   3.449 -1.2079 -0.6629 -0.5177
 1938SOL    MW4 7807   0.242   2.869   3.447 -0.7238 -0.5858 -0.2947
 1939SOL     OW 7808   0.237   3.148   3.407  0.4962  0.2503 -0.4908
 1939SOL    HW2 7809   0.159   3.193   3.436 -2.4558 -3.6251 -1.9188
 1939SOL    HW3 7810   0.232   3.150   3.311  1.4912 -1.0301 -0.5937
 1939SOL    MW4 7811   0.226   3.154   3.398  0.2380 -0.4299 -0.6931
 1940SOL     OW 7812   0.027   3.269   3.524 -0.4328 -0.1275 -0.2456
 1940SOL    HW2 7813  -0.048   3.216   3.497  0.2585 -0.8358 -0.8087
 1940SOL    HW3 7814   0.020   3.349   3.472 -0.1112 -0.7200 -1.2064
 1940SOL    MW4 7815   0.016   3.272   3.514 -0.2991 -0.2992 -0.4466
 1941SOL     OW 7816   0.020   3.527   3.405  0.3268  0.3417  0.2678
 1941SOL    HW2 7817  -0.066   3.559   3.431  0.1473 -0.2535  0.4263
 1941SOL    HW3 7818   0.015   3.517   3.310  0.3547  0.7010  0.2298
 1941SOL    MW4 7819   0.008   3.530   3.396  0.3068  0.3107  0.2840
 1942SOL     OW 7820   0.251   3.609   3.563  0.4594 -0.1925 -0.5261
 1942SOL    HW2 7821   0.227   3.631   3.654 -0.3480  0.7412 -0.9599
 1942SOL    HW3 7822   0.172   3.568   3.527  0.3678  0.5397 -1.1719
 1942SOL    MW4 7823   0.238   3.607   3.571  0.3408  0.0272 -0.6685
 1943SOL     OW 7824   0.227   3.845   3.408 -0.1844 -0.3187 -0.5429
 1943SOL    HW2 7825   0.141   3.886   3.409 -0.4929 -0.9671 -0.6245
 1943SOL    HW3 7826   0.216   3.763   3.455  0.1938 -0.7883 -1.2573
 1943SOL    MW4 7827   0.214   3.840   3.414 -0.1752 -0.4661 -0.6478
 1944SOL     OW 7828   0.029   4.025   3.486 -0.2255  0.0165 -0.0160
 1944SOL    HW2 7829   0.028   4.028   3.581 -0.5194  0.5568 -0.0313
 1944SOL    HW3 7830   0.015   4.116   3.459 -0.6418 -0.2084 -0.5728
 1944SOL    MW4 7831   0.027   4.038   3.495 -0.3192  0.0587 -0.0913
 1945SOL     OW 7832   4.450   4.270   3.391 -0.0262 -0.1054  0.2867
 1945SOL    HW2 7833   4.373   4.312   3.427  0.2090  0.0208  0.6429
 1945SOL    HW3 7834   4.520   4.336   3.400  0.1840 -0.3194  0.2200
 1945SOL    MW4 7835   4.449   4.284   3.397  0.0329 -0.1173  0.3250
 1946SOL     OW 7836   0.198   4.395   3.451  0.9797  0.0743 -0.3191
 1946SOL    HW2 7837   0.201   4.398   3.547  1.6735  1.6727 -0.3817
 1946SOL    HW3 7838   0.278   4.349   3.426  0.7161 -0.4937 -0.1359
 1946SOL    MW4 7839   0.209   4.389   3.461  1.0364  0.2098 -0.3030
 1947SOL     OW 7840   0.688   0.012   3.407 -0.0523 -0.1696  0.4994
 1947SOL    HW2 7841   0.760   0.064   3.442 -0.7637  1.7349 -0.7609
 1947SOL    HW3 7842   0.708   0.004   3.314 -0.8834 -0.5935  0.3522
 1947SOL    MW4 7843   0.700   0.018   3.399 -0.2558  0.0257  0.3135
 1948SOL     OW 7844   0.454   0.124   3.473  0.2477  0.1770 -0.2248
 1948SOL    HW2 7845   0.453   0.113   3.568 -0.5602 -0.7944 -0.3395
 1948SOL    HW3 7846   0.530   0.073   3.444  0.9517  1.0998 -0.0392
 1948SOL    MW4 7847   0.464   0.116   3.481  0.2339  0.1706 -0.2155
 1949SOL     OW 7848   0.418   0.392   3.385 -0.1501  0.3432  0.0647
 1949SOL    HW2 7849   0.490   0.448   3.415 -0.4034  0.8862 -0.3186
 1949SOL    HW3 7850   0.438   0.305   3.419  1.6086  0.1050 -1.5250
 1949SOL    MW4 7851   0.430   0.388   3.394  0.0485  0.3834 -0.1955
 1950SOL     OW 7852   0.635   0.506   3.520  0.4792  0.0175 -0.2692
 1950SOL    HW2 7853   0.627   0.514   3.615 -0.0124 -0.8464 -0.2365
 1950SOL    HW3 7854   0.714   0.454   3.507  0.1878 -0.4169 -0.3132
 1950SOL    MW4 7855   0.644   0.500   3.531  0.3760 -0.1538 -0.2706
 1951SOL     OW 7856   0.679   0.752   3.422  0.0226 -0.0333 -0.1047
 1951SOL    HW2 7857   0.604   0.796   3.462 -0.1983 -1.3899  1.0017
 1951SOL    HW3 7858   0.676   0.663   3.456  1.3973 -0.4642 -1.0602
 1951SOL    MW4 7859   0.669   0.746   3.432  0.1748 -0.2691 -0.0846
 1952SOL     OW 7860   0.488   0.904   3.569  0.1958 -0.4023 -0.2156
 1952SOL    HW2 7861   0.483   0.882   3.662  2.6237  1.1973  0.3372
 1952SOL    HW3 7862   0.457   0.994   3.564  0.0426 -0.4975 -0.9770
 1952SOL    MW4 7863   0.483   0.913   3.581  0.4959 -0.2038 -0.2432
 1953SOL     OW 7864   0.468   1.165   3.452 -0.1010  0.8248  0.1037
 1953SOL    HW2 7865   0.549   1.216   3.461  0.5022 -0.2263  0.6879
 1953SOL    HW3 7866   0.463   1.145   3.358  2.2553 -2.1911  0.5436
 1953SOL    MW4 7867   0.478   1.169   3.441  0.2895  0.2882  0.2387
 1954SOL     OW 7868   0.698   1.289   3.450  0.2844 -0.1426  0.3338
 1954SOL    HW2 7869   0.773   1.238   3.421  0.2819 -0.7859  1.4457
 1954SOL    HW3 7870   0.708   1.373   3.406  1.9849 -0.0034  0.9455
 1954SOL    MW4 7871   0.709   1.294   3.440  0.5084 -0.2091  0.5612
 1955SOL     OW 7872   0.695   1.557   3.396  0.1154  0.2799  0.0537
 1955SOL    HW2 7873   0.759   1.613   3.440  1.2494  0.2518 -1.5048
 1955SOL    HW3 7874   0.611   1.591   3.424  0.7884  0.3015  2.1712
 1955SOL    MW4 7875   0.693   1.569   3.406  0.3538  0.2791  0.1276
 1956SOL     OW 7876   0.448   1.668   3.459  0.4983 -0.4039 -0.1009
 1956SOL    HW2 7877   0.459   1.669   3.555 -1.5586 -1.3772  0.1552
 1956SOL    HW3 7878   0.455   1.760   3.434  0.0069 -0.0192  1.1160
 1956SOL    MW4 7879   0.451   1.680   3.469  0.1621 -0.4816  0.0932
 1957SOL     OW 7880   0.436   1.971   3.369 -0.6214  0.0662  0.4429
 1957SOL    HW2 7881   0.360   2.020   3.399 -1.0740 -0.4099  0.0947
 1957SOL    HW3 7882   0.440   1.988   3.275 -0.5236 -0.2069  0.3955
 1957SOL    MW4 7883   0.426   1.979   3.360 -0.6682 -0.0325  0.3908
 1958SOL     OW 7884   0.655   2.070   3.503 -0.2181 -0.2498 -0.4773
 1958SOL    HW2 7885   0.633   2.073   3.596  0.5448 -0.1424 -0.2980
 1958SOL    HW3 7886   0.584   2.021   3.463 -0.1894 -0.9055  0.2667
 1958SOL    MW4 7887   0.643   2.064   3.510 -0.1137 -0.3219 -0.3555
 1959SOL     OW 7888   0.677   2.313   3.359 -0.5349 -0.4670 -0.6271
 1959SOL    HW2 7889   0.757   2.343   3.401 -0.5493 -1.1495 -0.1101
 1959SOL    HW3 7890   0.660   2.227   3.397 -1.9676  0.0282 -0.1106
 1959SOL    MW4 7891   0.685   2.306   3.369 -0.7259 -0.4919 -0.4907
 1960SOL     OW 7892   0.463   2.469   3.461  0.0986 -0.1740 -0.0066
 1960SOL    HW2 7893   0.528   2.414   3.417 -1.4658 -0.2187 -2.3742
 1960SOL    HW3 7894   0.379   2.429   3.437 -0.8596  0.7449  1.7757
 1960SOL    MW4 7895   0.460   2.457   3.452 -0.2342 -0.0587 -0.0834
 1961SOL     OW 7896   0.481   2.760   3.381 -0.0753  0.3563 -0.1197
 1961SOL    HW2 7897   0.487   2.667   3.404 -0.1821  0.3070 -0.2940
 1961SOL    HW3 7898   0.467   2.761   3.287 -0.2562  0.5446 -0.0913
 1961SOL    MW4 7899   0.480   2.748   3.372 -0.1133  0.3750 -0.1392
 1962SOL     OW 7900   0.700   2.880   3.498  0.2664  0.4110 -0.6757
 1962SOL    HW2 7901   0.780   2.828   3.490  0.3016  0.0724  1.5788
 1962SOL    HW3 7902   0.632   2.826   3.459  0.7822 -0.1487 -0.8203
 1962SOL    MW4 7903   0.702   2.866   3.492  0.3391  0.2928 -0.3972
 1963SOL     OW 7904   0.675   3.137   3.375  0.0947 -0.5943 -0.1129
 1963SOL    HW2 7905   0.603   3.180   3.422 -0.0716 -1.3804  0.3633
 1963SOL    HW3 7906   0.665   3.044   3.396  0.5393 -0.8529 -1.0063
 1963SOL    MW4 7907   0.664   3.130   3.384  0.1314 -0.7322 -0.1678
 1964SOL     OW 7908   0.466   3.265   3.508 -0.7256  0.0747 -0.3703
 1964SOL    HW2 7909   0.450   3.267   3.602 -2.6205 -0.1273 -0.6701
 1964SOL    HW3 7910   0.385   3.230   3.470 -0.5608  1.5658 -2.1887
 1964SOL    MW4 7911   0.453   3.261   3.515 -0.9539  0.2449 -0.6499
 1965SOL     OW 7912   0.466   3.534   3.400  0.1880  0.0466 -0.3192
 1965SOL    HW2 7913   0.474   3.442   3.424 -0.7046 -0.0500 -0.3923
 1965SOL    HW3 7914   0.388   3.565   3.447  0.0495  0.5705 -0.8841
 1965SOL    MW4 7915   0.457   3.526   3.409  0.0519  0.1030 -0.4029
 1966SOL     OW 7916   0.686   3.671   3.504 -0.5406  0.2721 -0.1154
 1966SOL    HW2 7917   0.754   3.603   3.503  0.5795  1.3880 -0.6645
 1966SOL    HW3 7918   0.618   3.638   3.446 -0.5800 -0.9621  0.6151
 1966SOL    MW4 7919   0.686   3.657   3.496 -0.3980  0.2565 -0.0916
 1967SOL     OW 7920   0.691   3.919   3.402  0.7489  0.1668 -0.0014
 1967SOL    HW2 7921   0.609   3.959   3.430  0.7701 -0.4169  0.9117
 1967SOL    HW3 7922   0.692   3.833   3.444  1.8706  0.2033  0.0757
 1967SOL    MW4 7923   0.680   3.913   3.411  0.8996  0.0944  0.1292
 1968SOL     OW 7924   0.433   4.008   3.507 -0.0101 -0.3995 -0.4594
 1968SOL    HW2 7925   0.423   4.093   3.465  1.4791 -0.4773 -1.0199
 1968SOL    HW3 7926   0.367   3.953   3.465 -0.7188  0.3653 -0.3709
 1968SOL    MW4 7927   0.423   4.012   3.496  0.0929 -0.3080 -0.5217
 1969SOL     OW 7928   0.432   4.243   3.366 -0.0673 -0.0463  0.3098
 1969SOL    HW2 7929   0.514   4.289   3.384  0.5228 -0.7485 -0.5560
 1969SOL    HW3 7930   0.433   4.228   3.271 -0.9519 -0.5142  0.3678
 1969SOL    MW4 7931   0.443   4.247   3.355 -0.1061 -0.2007  0.2031
 1970SOL     OW 7932   0.646   4.408   3.462 -0.0360 -0.6254  0.6623
 1970SOL    HW2 7933   0.721   4.358   3.428  1.0831 -0.1129  2.3563
 1970SOL    HW3 7934   0.673   4.499   3.457 -1.0619 -0.3453  0.0676
 1970SOL    MW4 7935   0.660   4.413   3.457 -0.0238 -0.5207  0.8073
 1971SOL     OW 7936   1.138   4.650   3.404  0.1341 -0.0001 -0.1948
 1971SOL    HW2 7937   1.222   4.693   3.421  0.2179  0.1445 -0.9241
 1971SOL    HW3 7938   1.134   4.644   3.308  0.5925 -2.5301 -0.0958
 1971SOL    MW4 7939   1.149   4.655   3.393  0.2055 -0.3147 -0.2780
 1972SOL     OW 7940   0.923   0.118   3.528  0.0635 -0.1252  0.6654
 1972SOL    HW2 7941   0.915   0.107   3.623 -0.1599  0.0284  0.6616
 1972SOL    HW3 7942   0.994   0.058   3.504  1.4031  1.2180  1.1947
 1972SOL    MW4 7943   0.932   0.108   3.537  0.2108  0.0723  0.7348
 1973SOL     OW 7944   0.881   0.374   3.436 -0.2708 -0.1064  0.2012
 1973SOL    HW2 7945   0.954   0.430   3.463  1.1549 -1.9612  0.2974
 1973SOL    HW3 7946   0.904   0.287   3.469 -0.9514 -1.3925 -2.5473
 1973SOL    MW4 7947   0.894   0.370   3.444 -0.1724 -0.5208 -0.1488
 1974SOL     OW 7948   1.132   0.492   3.494 -0.4722 -0.2863 -0.2855
 1974SOL    HW2 7949   1.115   0.489   3.588  0.4003 -0.9440 -0.1452
 1974SOL    HW3 7950   1.149   0.584   3.475 -0.9922 -0.1046  0.1371
 1974SOL    MW4 7951   1.132   0.504   3.504 -0.4257 -0.3491 -0.2112
 1975SOL     OW 7952   1.131   0.755   3.394 -0.0105  0.0601 -0.2328
 1975SOL    HW2 7953   1.199   0.823   3.400  0.3430 -0.4434  1.8174
 1975SOL    HW3 7954   1.053   0.795   3.433 -0.0429 -0.3954  0.1744
 1975SOL    MW4 7955   1.130   0.769   3.400  0.0319 -0.0665  0.0916
 1976SOL     OW 7956   0.906   0.883   3.501 -0.4385  0.0913  0.2610
 1976SOL    HW2 7957   0.918   0.956   3.441 -0.8981  1.1976  1.5000
 1976SOL    HW3 7958   0.827   0.839   3.469 -0.6188  0.6079 -0.0072
 1976SOL    MW4 7959   0.897   0.887   3.489 -0.5230  0.3055  0.3889
 1977SOL     OW 7960   0.928   1.139   3.363 -0.2164 -0.2488 -0.1814
 1977SOL    HW2 7961   0.995   1.198   3.397  1.1766 -1.4476 -0.8060
 1977SOL    HW3 7962   0.912   1.170   3.273 -1.1406  0.5737  0.2612
 1977SOL    MW4 7963   0.935   1.151   3.355 -0.1545 -0.2986 -0.2053
 1978SOL     OW 7964   1.138   1.308   3.443  0.0864 -0.1941  0.2517
 1978SOL    HW2 7965   1.142   1.312   3.538 -0.5118 -1.5383  0.3424
 1978SOL    HW3 7966   1.125   1.399   3.416  0.2495  0.1909  1.4525
 1978SOL    MW4 7967   1.137   1.321   3.452  0.0291 -0.3207  0.4220
 1979SOL     OW 7968   1.093   1.568   3.383 -0.0748 -0.1762  0.3464
 1979SOL    HW2 7969   1.171   1.607   3.423 -0.2069 -0.2780  0.6981
 1979SOL    HW3 7970   1.103   1.587   3.289 -0.3169  1.0171  0.5519
 1979SOL    MW4 7971   1.105   1.576   3.376 -0.1242 -0.0321  0.4201
 1980SOL     OW 7972   0.888   1.704   3.495 -0.0981 -0.2207  0.2507
 1980SOL    HW2 7973   0.902   1.794   3.466 -0.6349 -0.3944 -0.5662
 1980SOL    HW3 7974   0.963   1.655   3.460 -0.5846 -0.3710 -0.6046
 1980SOL    MW4 7975   0.900   1.710   3.487 -0.2331 -0.2632  0.0300
 1981SOL     OW 7976   0.903   1.990   3.395 -0.4950  0.1618  0.0134
 1981SOL    HW2 7977   0.951   2.035   3.464 -0.1569  1.9049 -1.3281
 1981SOL    HW3 7978   0.815   2.028   3.399 -0.7784 -0.5159  0.2008
 1981SOL    MW4 7979   0.897   2.001   3.404 -0.4879  0.3023 -0.1390
 1982SOL     OW 7980   1.115   2.068   3.554 -0.1495  0.0413  0.1392
 1982SOL    HW2 7981   1.185   2.022   3.508  0.8077  1.2272  0.3848
 1982SOL    HW3 7982   1.117   2.157   3.518 -1.5244  0.0946  0.1537
 1982SOL    MW4 7983   1.125   2.073   3.543 -0.2044  0.2048  0.1736
 1983SOL     OW 7984   1.097   2.296   3.416  0.2333 -0.0427 -0.6808
 1983SOL    HW2 7985   1.178   2.347   3.427  0.0647  0.3787 -1.3913
 1983SOL    HW3 7986   1.089   2.283   3.322 -0.0589 -0.8554 -0.5443
 1983SOL    MW4 7987   1.107   2.301   3.405  0.1724 -0.0944 -0.7563
 1984SOL     OW 7988   0.879   2.440   3.484  0.7091  0.1999  0.2281
 1984SOL    HW2 7989   0.874   2.427   3.579  1.6262 -1.5790  0.0540
 1984SOL    HW3 7990   0.959   2.394   3.457 -0.1868 -0.3758 -1.5597
 1984SOL    MW4 7991   0.889   2.432   3.493  0.7119 -0.1111 -0.0305
 1985SOL     OW 7992   0.903   2.697   3.392 -0.4745  0.7341  0.2560
 1985SOL    HW2 7993   0.976   2.740   3.437  0.9171  1.4590 -2.6046
 1985SOL    HW3 7994   0.899   2.610   3.432  0.1114  1.6592  2.4001
 1985SOL    MW4 7995   0.912   2.691   3.404 -0.2136  0.9520  0.1616
 1986SOL     OW 7996   1.121   2.839   3.497 -0.4050  0.2122  0.2466
 1986SOL    HW2 7997   1.120   2.832   3.593 -1.0820 -0.8388  0.1634
 1986SOL    HW3 7998   1.196   2.786   3.471 -0.9920 -0.5502  0.1102
 1986SOL    MW4 7999   1.131   2.831   3.506 -0.5717 -0.0269  0.2174
 1987SOL     OW 8000   1.126   3.104   3.377  0.2164  0.0896 -0.0085
 1987SOL    HW2 8001   1.121   3.014   3.409 -1.1794  0.6429  1.4121
 1987SOL    HW3 8002   1.101   3.098   3.285 -0.6383 -0.8907  0.2696
 1987SOL    MW4 8003   1.122   3.091   3.369 -0.0806  0.0334  0.2155
 1988SOL     OW 8004   0.903   3.229   3.504  0.5031  0.2896 -0.3426
 1988SOL    HW2 8005   0.981   3.192   3.463 -0.0097  0.6177 -1.6623
 1988SOL    HW3 8006   0.830   3.189   3.456 -0.1416 -0.0018  0.8609
 1988SOL    MW4 8007   0.904   3.219   3.492  0.3504  0.2944 -0.3581
 1989SOL     OW 8008   0.907   3.497   3.449 -0.0498  0.4175 -0.5559
 1989SOL    HW2 8009   0.902   3.408   3.483 -0.2183  0.3393 -0.7834
 1989SOL    HW3 8010   0.898   3.488   3.354  0.9789  0.5912 -0.6784
 1989SOL    MW4 8011   0.905   3.484   3.441  0.0637  0.4303 -0.6020
 1990SOL     OW 8012   1.137   3.646   3.511  0.0336  0.0370 -0.3930
 1990SOL    HW2 8013   1.151   3.644   3.605  2.6125 -2.9438 -0.7566
 1990SOL    HW3 8014   1.058   3.594   3.497 -0.3638  0.4999  0.0738
 1990SOL    MW4 8015   1.128   3.639   3.521  0.3214 -0.2954 -0.3796
 1991SOL     OW 8016   1.159   3.892   3.380  0.4120  0.1984  0.0736
 1991SOL    HW2 8017   1.213   3.931   3.449 -1.4195  0.5834  1.3377
 1991SOL    HW3 8018   1.148   3.801   3.407  0.2201  0.1851 -0.0477
 1991SOL    MW4 8019   1.165   3.885   3.393  0.1450  0.2472  0.2241
 1992SOL     OW 8020   0.938   4.024   3.501 -0.0268  0.0467  0.4426
 1992SOL    HW2 8021   1.009   3.991   3.446  0.1060 -1.3333  1.4065
 1992SOL    HW3 8022   0.862   3.971   3.476 -0.7877  1.6262 -0.6994
 1992SOL    MW4 8023   0.938   4.013   3.490 -0.1096  0.0734  0.4191
 1993SOL     OW 8024   0.886   4.303   3.394  0.2013  0.1689  0.0626
 1993SOL    HW2 8025   0.894   4.215   3.430 -1.1985 -0.1258 -0.3194
 1993SOL    HW3 8026   0.902   4.292   3.300 -0.4948  0.2423 -0.0640
 1993SOL    MW4 8027   0.889   4.290   3.386 -0.0752  0.1402 -0.0045
 1994SOL     OW 8028   1.117   4.396   3.511 -0.2201 -0.0432 -0.0668
 1994SOL    HW2 8029   1.039   4.374   3.460 -0.3277  0.6240 -0.1963
 1994SOL    HW3 8030   1.132   4.489   3.492  1.4368 -0.5039 -1.1828
 1994SOL    MW4 8031   1.108   4.406   3.502 -0.0156 -0.0162 -0.2308
 1995SOL     OW 8032   1.593   4.629   3.415  0.0495  0.0452  0.5214
 1995SOL    HW2 8033   1.584   4.542   3.455 -0.6922  0.4688  1.3018
 1995SOL    HW3 8034   1.511   4.673   3.437 -0.1422  0.4884 -1.0111
 1995SOL    MW4 8035   1.581   4.623   3.423 -0.0738  0.1593  0.4222
 1996SOL     OW 8036   1.368   0.085   3.488 -0.0449  0.1282  0.0879
 1996SOL    HW2 8037   1.358   0.086   3.583 -0.0509 -0.4504  0.0940
 1996SOL    HW3 8038   1.361   0.177   3.462 -2.2986  0.0642  0.3946
 1996SOL    MW4 8039   1.366   0.097   3.497 -0.3431  0.0434  0.1292
 1997SOL     OW 8040   1.359   0.362   3.411  0.0037 -0.0449  0.5593
 1997SOL    HW2 8041   1.433   0.399   3.460  0.2300  1.0104 -0.5712
 1997SOL    HW3 8042   1.282   0.406   3.447 -0.0908 -1.1184  1.7124
 1997SOL    MW4 8043   1.358   0.373   3.423  0.0211 -0.0473  0.5624
 1998SOL     OW 8044   1.563   0.506   3.522 -0.0141 -0.0173  0.5329
 1998SOL    HW2 8045   1.548   0.493   3.615  0.1110 -0.5320  0.4811
 1998SOL    HW3 8046   1.649   0.467   3.506 -0.6179 -1.1022 -0.0612
 1998SOL    MW4 8047   1.572   0.499   3.532 -0.0772 -0.2283  0.4475
 1999SOL     OW 8048   1.610   0.761   3.398  0.1069  0.0753 -0.1909
 1999SOL    HW2 8049   1.526   0.801   3.418  0.5250  0.3753  1.0510
 1999SOL    HW3 8050   1.604   0.672   3.433 -0.1979 -0.3720 -1.3751
 1999SOL    MW4 8051   1.598   0.755   3.406  0.1218  0.0559 -0.1833
 2000SOL     OW 8052   1.360   0.913   3.446  0.0716  0.0407 -0.4210
 2000SOL    HW2 8053   1.336   0.920   3.538  0.8352  0.1773 -0.2280
 2000SOL    HW3 8054   1.373   1.004   3.418 -1.2300  0.0786 -0.9599
 2000SOL    MW4 8055   1.358   0.926   3.454  0.0006  0.0637 -0.4668
 2001SOL     OW 8056   1.376   1.176   3.368 -0.1103  0.1355  0.1153
 2001SOL    HW2 8057   1.449   1.213   3.418 -0.8790  2.5752 -0.5100
 2001SOL    HW3 8058   1.298   1.210   3.412 -0.8262  0.1662 -1.1759
 2001SOL    MW4 8059   1.376   1.185   3.381 -0.3062  0.4615 -0.1376
 2002SOL     OW 8060   1.624   1.288   3.492 -0.1697  0.0794  0.1303
 2002SOL    HW2 8061   1.625   1.278   3.588  0.1239 -1.7707 -0.0646
 2002SOL    HW3 8062   1.705   1.247   3.463  0.0706  1.2356 -0.8752
 2002SOL    MW4 8063   1.635   1.282   3.501 -0.0993 -0.0120 -0.0281
 2003SOL     OW 8064   1.553   1.554   3.419  0.1460 -0.5226 -0.4586
 2003SOL    HW2 8065   1.571   1.467   3.455  0.1089 -0.6794 -0.8123
 2003SOL    HW3 8066   1.546   1.539   3.325  2.6919  0.2928 -0.7925
 2003SOL    MW4 8067   1.554   1.540   3.412  0.4771 -0.4357 -0.5496
 2004SOL     OW 8068   1.315   1.672   3.505  0.3084 -0.0923 -0.4958
 2004SOL    HW2 8069   1.327   1.685   3.599 -0.4773  0.6029 -0.4759
 2004SOL    HW3 8070   1.397   1.634   3.475 -0.0003 -1.7483  0.7258
 2004SOL    MW4 8071   1.327   1.669   3.514  0.1639 -0.2192 -0.3319
 2005SOL     OW 8072   1.339   1.928   3.418  0.0087 -0.4808  0.3350
 2005SOL    HW2 8073   1.417   1.969   3.456  1.6388 -1.6251 -1.6270
 2005SOL    HW3 8074   1.344   1.837   3.445  0.9401 -1.2010 -2.1449
 2005SOL    MW4 8075   1.350   1.922   3.426  0.3467 -0.7267 -0.2513
 2006SOL     OW 8076   1.550   2.041   3.524 -1.1728  0.2212 -0.3179
 2006SOL    HW2 8077   1.631   1.998   3.497 -0.5762  0.1359  1.5010
 2006SOL    HW3 8078   1.551   2.126   3.480 -0.9281 -0.4577 -1.6302
 2006SOL    MW4 8079   1.561   2.047   3.515 -1.0619  0.1202 -0.2513
 2007SOL     OW 8080   1.585   2.327   3.107  0.1192 -0.0868 -0.0907
 2007SOL    HW2 8081   1.562   2.330   3.200 -0.6242  0.7760 -0.2955
 2007SOL    HW3 8082   1.588   2.234   3.086 -1.0422 -0.2689  0.4885
 2007SOL    MW4 8083   1.582   2.315   3.116 -0.1321  0.0031 -0.0410
 2008SOL     OW 8084   1.333   2.423   3.480 -0.2691  0.1632 -0.1607
 2008SOL    HW2 8085   1.341   2.432   3.575 -1.0026  1.5611 -0.2150
 2008SOL    HW3 8086   1.340   2.513   3.447  0.5422 -0.3715 -1.4758
 2008SOL    MW4 8087   1.335   2.436   3.488 -0.2589  0.2773 -0.3414
 2009SOL     OW 8088   1.330   2.686   3.399 -0.3327 -0.2299 -0.1766
 2009SOL    HW2 8089   1.404   2.738   3.432 -0.8674  0.3035  0.2161
 2009SOL    HW3 8090   1.340   2.686   3.304  0.6849 -0.9444 -0.0706
 2009SOL    MW4 8091   1.341   2.693   3.391 -0.2691 -0.2534 -0.1106
 2010SOL     OW 8092   1.808   2.696   3.362  0.2893 -0.2830 -0.3087
 2010SOL    HW2 8093   1.876   2.748   3.403  0.5864 -0.8833 -0.0279
 2010SOL    HW3 8094   1.726   2.736   3.391  0.5085 -0.2984  0.3343
 2010SOL    MW4 8095   1.806   2.708   3.371  0.3573 -0.3643 -0.1867
 2011SOL     OW 8096   1.538   3.054   3.412  0.1639 -0.2027  0.3020
 2011SOL    HW2 8097   1.629   3.076   3.431  0.3492 -0.0693 -0.6804
 2011SOL    HW3 8098   1.487   3.123   3.454  0.5211 -0.2446  0.8030
 2011SOL    MW4 8099   1.543   3.066   3.420  0.2356 -0.1905  0.2384
 2012SOL     OW 8100   1.352   3.238   3.500 -0.3497  0.1945 -0.4882
 2012SOL    HW2 8101   1.344   3.220   3.594  0.0713  0.0365 -0.4803
 2012SOL    HW3 8102   1.279   3.190   3.460  1.3806 -2.4545 -0.5769
 2012SOL    MW4 8103   1.341   3.229   3.507 -0.0659 -0.1755 -0.4985
 2013SOL     OW 8104   1.358   3.493   3.393 -0.1613  0.1967 -0.2148
 2013SOL    HW2 8105   1.345   3.403   3.423 -0.9721  0.3215 -0.1852
 2013SOL    HW3 8106   1.285   3.541   3.431  0.9435  1.1140  0.7731
 2013SOL    MW4 8107   1.346   3.487   3.402 -0.1224  0.3343 -0.0803
 2014SOL     OW 8108   1.586   3.608   3.501 -0.0117 -0.1738  0.5673
 2014SOL    HW2 8109   1.581   3.608   3.596 -1.0513 -0.0246  0.5188
 2014SOL    HW3 8110   1.507   3.561   3.473  0.1497  0.0206 -0.2245
 2014SOL    MW4 8111   1.575   3.602   3.509 -0.1277 -0.1285  0.4563
 2015SOL     OW 8112   1.565   3.871   3.453  0.3330  0.1465 -0.0241
 2015SOL    HW2 8113   1.580   3.778   3.470  1.5573 -0.1763 -2.6023
 2015SOL    HW3 8114   1.556   3.877   3.358 -0.5028  2.5699  0.1700
 2015SOL    MW4 8115   1.566   3.859   3.442  0.3842  0.4239 -0.3390
 2016SOL     OW 8116   1.338   3.993   3.565 -0.4802  0.2844  0.6773
 2016SOL    HW2 8117   1.333   4.077   3.519 -0.8797  0.5607  1.2098
 2016SOL    HW3 8118   1.410   3.947   3.523 -0.2634  0.8882  0.3711
 2016SOL    MW4 8119   1.347   3.998   3.553 -0.5043  0.4005  0.7071
 2017SOL     OW 8120   1.331   4.220   3.416 -0.4065  0.0631  0.1982
 2017SOL    HW2 8121   1.268   4.279   3.457  0.3108  0.6954  0.3923
 2017SOL    HW3 8122   1.324   4.239   3.322  0.2660  0.8886  0.3168
 2017SOL    MW4 8123   1.322   4.230   3.409 -0.2232  0.2556  0.2396
 2018SOL     OW 8124   1.558   4.367   3.521 -0.2188 -0.3634 -0.0778
 2018SOL    HW2 8125   1.632   4.309   3.501 -0.3299 -0.8866  0.9364
 2018SOL    HW3 8126   1.483   4.324   3.482  0.1792  0.7746 -2.1277
 2018SOL    MW4 8127   1.558   4.353   3.513 -0.1810 -0.2823 -0.2143
 2019SOL     OW 8128   2.040   4.619   3.421  0.4735  0.1122 -0.1856
 2019SOL    HW2 8129   2.107   4.677   3.458 -0.2145  0.7240  0.0987
 2019SOL    HW3 8130   1.957   4.662   3.441 -0.0477 -1.0638  0.1856
 2019SOL    MW4 8131   2.038   4.633   3.429  0.3140  0.0377 -0.0992
 2020SOL     OW 8132   1.838   0.108   3.498 -0.2344  0.1703  0.1331
 2020SOL    HW2 8133   1.841   0.119   3.593  0.4014 -0.1351  0.1473
 2020SOL    HW3 8134   1.754   0.064   3.481 -0.3890  0.3098  0.5373
 2020SOL    MW4 8135   1.827   0.104   3.508 -0.1709  0.1484  0.1881
 2021SOL     OW 8136   1.793   0.391   3.452  0.2300  0.1510  0.1739
 2021SOL    HW2 8137   1.801   0.298   3.475  2.9552  0.5522  0.9523
 2021SOL    HW3 8138   1.793   0.392   3.357  4.8856 -0.3519  0.0806
 2021SOL    MW4 8139   1.794   0.379   3.443  1.2039  0.1376  0.2644
 2022SOL     OW 8140   2.045   0.483   3.519 -0.1534  0.4648 -0.7300
 2022SOL    HW2 8141   2.046   0.570   3.481 -2.0079  1.3426  1.0991
 2022SOL    HW3 8142   1.954   0.455   3.513  0.1365 -0.7070  0.0583
 2022SOL    MW4 8143   2.033   0.491   3.513 -0.3598  0.4260 -0.3846
 2023SOL     OW 8144   2.024   0.744   3.422 -0.1660 -0.4414 -0.2908
 2023SOL    HW2 8145   2.084   0.812   3.452 -1.2373 -0.5129  2.0858
 2023SOL    HW3 8146   2.041   0.737   3.328  1.7556  1.2978 -0.1046
 2023SOL    MW4 8147   2.035   0.752   3.414 -0.0539 -0.2214  0.0472
 2024SOL     OW 8148   1.827   0.892   3.512  0.0783 -0.5104 -0.0737
 2024SOL    HW2 8149   1.892   0.825   3.491  1.8378  1.5090 -1.2993
 2024SOL    HW3 8150   1.748   0.865   3.464  1.1021 -1.1330 -1.4403
 2024SOL    MW4 8151   1.825   0.880   3.503  0.4455 -0.3261 -0.4156
 2025SOL     OW 8152   1.848   1.145   3.399 -0.6792 -0.4347 -0.1402
 2025SOL    HW2 8153   1.918   1.201   3.435 -0.8969  0.3673 -0.9622
 2025SOL    HW3 8154   1.864   1.060   3.440 -0.3192  0.2015  1.0991
 2025SOL    MW4 8155   1.860   1.141   3.409 -0.6604 -0.2450 -0.0854
 2026SOL     OW 8156   2.060   1.301   3.491  0.0187 -0.1450 -0.3704
 2026SOL    HW2 8157   2.044   1.310   3.585 -0.5736 -1.2725 -0.3526
 2026SOL    HW3 8158   2.053   1.390   3.457 -0.0244  0.2352  0.6157
 2026SOL    MW4 8159   2.057   1.314   3.499 -0.0653 -0.2437 -0.2379
 2027SOL     OW 8160   2.039   1.551   3.386 -0.0978 -0.2655  0.2053
 2027SOL    HW2 8161   2.116   1.593   3.424  0.3312 -0.1223 -0.8152
 2027SOL    HW3 8162   1.965   1.605   3.416  0.2127 -0.3239  1.0679
 2027SOL    MW4 8163   2.039   1.564   3.395 -0.0005 -0.2543  0.1843
 2028SOL     OW 8164   1.816   1.676   3.507  0.0846 -0.1276  0.0706
 2028SOL    HW2 8165   1.808   1.766   3.476  0.7937  0.0830  0.4678
 2028SOL    HW3 8166   1.737   1.632   3.477 -0.1498  0.5703 -0.3324
 2028SOL    MW4 8167   1.804   1.682   3.499  0.1472 -0.0077  0.0699
 2029SOL     OW 8168   1.781   1.935   3.413 -0.0448 -0.1076  0.4570
 2029SOL    HW2 8169   1.867   1.963   3.443  0.1841 -0.8829  0.5465
 2029SOL    HW3 8170   1.788   1.936   3.317  0.6993 -2.0433  0.4703
 2029SOL    MW4 8171   1.793   1.939   3.404  0.0837 -0.4652  0.4706
 2030SOL     OW 8172   2.024   2.032   3.495  0.1723 -0.2010  0.4079
 2030SOL    HW2 8173   2.102   1.999   3.450  0.3423  0.4397  0.2339
 2030SOL    HW3 8174   2.030   2.127   3.487 -0.1849 -0.1184  1.1400
 2030SOL    MW4 8175   2.035   2.040   3.488  0.1476 -0.1056  0.4816
 2031SOL     OW 8176   2.014   2.299   3.439  0.2078 -0.4958 -0.0447
 2031SOL    HW2 8177   2.098   2.333   3.469 -0.8783  1.8411  0.5002
 2031SOL    HW3 8178   2.023   2.290   3.344  0.5853  1.2123 -0.1797
 2031SOL    MW4 8179   2.026   2.303   3.431  0.1144  0.0379  0.0093
 2032SOL     OW 8180   1.565   2.299   3.375  0.0074 -0.0006  0.3953
 2032SOL    HW2 8181   1.641   2.349   3.404 -0.3453  0.9465 -0.2784
 2032SOL    HW3 8182   1.492   2.338   3.423 -0.3450  0.4769 -0.5187
 2032SOL    MW4 8183   1.565   2.311   3.385 -0.0857  0.1874  0.1860
 2033SOL     OW 8184   1.775   2.433   3.483 -0.0650 -0.5689 -0.0443
 2033SOL    HW2 8185   1.789   2.521   3.448 -0.4143  0.0804  1.3726
 2033SOL    HW3 8186   1.860   2.389   3.472  0.3168  0.1783 -0.1295
 2033SOL    MW4 8187   1.788   2.439   3.477 -0.0607 -0.3843  0.1316
 2034SOL     OW 8188   2.027   2.848   3.482 -0.7007  0.0801  0.5280
 2034SOL    HW2 8189   2.038   2.854   3.577  0.2721  1.4079  0.3511
 2034SOL    HW3 8190   2.034   2.939   3.452 -0.6803 -0.3661 -0.8434
 2034SOL    MW4 8191   2.029   2.861   3.491 -0.5698  0.1965  0.3238
 2035SOL     OW 8192   2.014   3.111   3.390 -0.3744 -0.5372 -0.2225
 2035SOL    HW2 8193   2.088   3.154   3.432  0.1593 -0.2190 -1.4482
 2035SOL    HW3 8194   1.937   3.161   3.419  0.1231  0.5158 -0.6921
 2035SOL    MW4 8195   2.013   3.124   3.399 -0.2384 -0.3562 -0.4461
 2036SOL     OW 8196   1.770   3.206   3.454 -0.5115  0.0534  0.4670
 2036SOL    HW2 8197   1.768   3.193   3.549  1.4990  0.4752  0.5814
 2036SOL    HW3 8198   1.776   3.301   3.443 -1.0234  0.0228 -0.1017
 2036SOL    MW4 8199   1.771   3.217   3.465 -0.3139  0.1049  0.4070
 2037SOL     OW 8200   1.813   3.477   3.405 -0.8346  0.2538 -0.0282
 2037SOL    HW2 8201   1.742   3.536   3.430  0.4629  2.3313 -1.0446
 2037SOL    HW3 8202   1.815   3.481   3.309  2.8745  3.0588  0.0358
 2037SOL    MW4 8203   1.804   3.485   3.395 -0.1740  0.8979 -0.1538
 2038SOL     OW 8204   2.033   3.606   3.508  0.1866  0.5398  0.1618
 2038SOL    HW2 8205   2.103   3.552   3.473  0.8055  0.3805  1.6407
 2038SOL    HW3 8206   1.953   3.571   3.468  0.7450 -0.4666 -0.0685
 2038SOL    MW4 8207   2.032   3.594   3.498  0.3421  0.3860  0.3266
 2039SOL     OW 8208   2.043   3.859   3.397  0.0156 -0.1076  0.0352
 2039SOL    HW2 8209   1.978   3.913   3.442 -0.5189 -0.2738 -0.5294
 2039SOL    HW3 8210   2.032   3.772   3.434 -0.9196 -0.4068 -0.9170
 2039SOL    MW4 8211   2.033   3.855   3.408 -0.1786 -0.1690 -0.1650
 2040SOL     OW 8212   1.815   3.966   3.513  0.4842 -0.0470  0.0763
 2040SOL    HW2 8213   1.813   3.967   3.609  0.6275  0.8166  0.0707
 2040SOL    HW3 8214   1.726   3.941   3.487  0.3901 -0.0750  0.4280
 2040SOL    MW4 8215   1.803   3.963   3.522  0.4908  0.0632  0.1218
 2041SOL     OW 8216   1.777   4.223   3.422 -0.1726  0.0059  0.2439
 2041SOL    HW2 8217   1.796   4.129   3.431  0.2450  0.1449  0.8596
 2041SOL    HW3 8218   1.759   4.235   3.329 -0.9473 -0.8182  0.2784
 2041SOL    MW4 8219   1.777   4.212   3.411 -0.2197 -0.0839  0.3297
 2042SOL     OW 8220   2.004   4.354   3.502 -0.1566 -0.2415 -0.3872
 2042SOL    HW2 8221   1.931   4.320   3.451 -0.1445  0.8960 -1.1871
 2042SOL    HW3 8222   2.019   4.442   3.466 -0.0136  0.4970  1.4565
 2042SOL    MW4 8223   1.997   4.361   3.490 -0.1360  0.0062 -0.2496
 2043SOL     OW 8224   2.467   4.663   3.435  0.1530 -0.0355  0.3239
 2043SOL    HW2 8225   2.472   4.572   3.462  1.3109  0.0396  0.3929
 2043SOL    HW3 8226   2.458   4.659   3.339 -2.1904 -0.2592  0.5211
 2043SOL    MW4 8227   2.467   4.651   3.426 -0.0036 -0.0553  0.3588
 2044SOL     OW 8228   2.230   0.102   3.526 -0.5398  0.1967  0.5899
 2044SOL    HW2 8229   2.233   0.192   3.494 -0.4013  0.0145  0.0964
 2044SOL    HW3 8230   2.315   0.066   3.503 -0.7368 -0.1787  0.4577
 2044SOL    MW4 8231   2.241   0.109   3.519 -0.5474  0.1232  0.5074
 2045SOL     OW 8232   2.266   0.355   3.407  0.1903 -0.2698 -0.0179
 2045SOL    HW2 8233   2.343   0.390   3.452  0.2178 -0.5601  0.1673
 2045SOL    HW3 8234   2.192   0.402   3.445  0.3084  0.3086 -0.4952
 2045SOL    MW4 8235   2.266   0.366   3.418  0.2093 -0.2318 -0.0565
 2046SOL     OW 8236   2.472   0.470   3.553 -0.4344  0.1312 -0.0199
 2046SOL    HW2 8237   2.548   0.440   3.504 -0.6269  0.5038 -0.5609
 2046SOL    HW3 8238   2.467   0.564   3.533 -1.6608 -0.1036 -0.8544
 2046SOL    MW4 8239   2.481   0.479   3.544 -0.6213  0.1494 -0.2015
 2047SOL     OW 8240   2.472   0.754   3.457 -0.0695 -0.3918 -0.0666
 2047SOL    HW2 8241   2.553   0.796   3.484 -0.6526  0.6042  0.1856
 2047SOL    HW3 8242   2.478   0.747   3.362 -0.6114  1.6777 -0.2789
 2047SOL    MW4 8243   2.483   0.759   3.448 -0.2177  0.0128 -0.0613
 2048SOL     OW 8244   2.239   0.908   3.509  0.2414  0.1256  0.1082
 2048SOL    HW2 8245   2.244   0.996   3.471 -0.2118 -1.1036 -2.8917
 2048SOL    HW3 8246   2.321   0.866   3.484 -1.2909 -1.6648 -2.0511
 2048SOL    MW4 8247   2.250   0.914   3.501 -0.0205 -0.2728 -0.5724
 2049SOL     OW 8248   2.277   1.141   3.383  0.0371 -0.4637 -0.0517
 2049SOL    HW2 8249   2.351   1.197   3.407 -0.2447  0.7267 -1.9253
 2049SOL    HW3 8250   2.200   1.189   3.414 -0.1845  0.0265 -1.3666
 2049SOL    MW4 8251   2.276   1.155   3.390 -0.0291 -0.2420 -0.4725
 2050SOL     OW 8252   2.500   1.282   3.480 -0.1916 -0.0669  0.3768
 2050SOL    HW2 8253   2.486   1.287   3.575 -1.1059  0.9003  0.2004
 2050SOL    HW3 8254   2.561   1.210   3.469 -2.3739 -2.1637  1.4615
 2050SOL    MW4 8255   2.506   1.273   3.491 -0.6001 -0.2160  0.4966
 2051SOL     OW 8256   2.487   1.545   3.401  0.1241  0.1038 -0.0673
 2051SOL    HW2 8257   2.496   1.455   3.431  0.9639  0.0609 -0.4068
 2051SOL    HW3 8258   2.471   1.537   3.307 -0.2308  0.2973 -0.0238
 2051SOL    MW4 8259   2.486   1.532   3.392  0.1879  0.1236 -0.1063
 2052SOL     OW 8260   2.262   1.681   3.516  0.3186  0.7425  0.0106
 2052SOL    HW2 8261   2.260   1.682   3.611  1.7360  0.0355  0.0586
 2052SOL    HW3 8262   2.338   1.626   3.494 -0.7339 -0.1483 -1.5161
 2052SOL    MW4 8263   2.272   1.674   3.525  0.3664  0.5317 -0.1848
 2053SOL     OW 8264   2.255   1.943   3.374  0.4158 -0.0417  0.2439
 2053SOL    HW2 8265   2.261   1.851   3.401  1.3366 -0.0952 -0.1224
 2053SOL    HW3 8266   2.251   1.940   3.279 -1.2214  0.2308  0.2840
 2053SOL    MW4 8267   2.255   1.930   3.365  0.3209 -0.0129  0.2007
 2054SOL     OW 8268   2.497   2.086   3.461  0.6737 -0.4859 -0.0475
 2054SOL    HW2 8269   2.493   2.087   3.557 -0.1179  2.2537 -0.0883
 2054SOL    HW3 8270   2.415   2.046   3.434  1.0509 -1.5960  0.4021
 2054SOL    MW4 8271   2.486   2.081   3.470  0.6189 -0.2711  0.0064
 2055SOL     OW 8272   2.458   2.334   3.333  0.4719  0.0965  0.2744
 2055SOL    HW2 8273   2.512   2.398   3.379 -0.3311  0.6873  0.4062
 2055SOL    HW3 8274   2.476   2.251   3.378  1.7264  0.1618 -0.0710
 2055SOL    MW4 8275   2.468   2.331   3.345  0.5314  0.1829  0.2463
 2056SOL     OW 8276   2.247   2.392   3.511 -0.0925 -0.2315  0.1561
 2056SOL    HW2 8277   2.245   2.486   3.492  0.5583 -0.1353  0.5376
 2056SOL    HW3 8278   2.309   2.356   3.447  0.9077 -0.1472  1.0671
 2056SOL    MW4 8279   2.255   2.399   3.500  0.1249 -0.2077  0.3266
 2057SOL     OW 8280   2.229   2.653   3.430  0.1974 -0.6921  0.2070
 2057SOL    HW2 8281   2.160   2.717   3.445  0.0899 -0.9102  0.6450
 2057SOL    HW3 8282   2.240   2.651   3.335 -0.9500 -1.2501  0.0788
 2057SOL    MW4 8283   2.222   2.661   3.419  0.0319 -0.7946  0.2480
 2058SOL     OW 8284   2.454   2.859   3.509 -0.2981  0.4469  0.5143
 2058SOL    HW2 8285   2.449   2.930   3.446 -2.7116 -0.2700 -0.1956
 2058SOL    HW3 8286   2.385   2.798   3.481 -0.0197 -0.8948  2.6189
 2058SOL    MW4 8287   2.444   2.860   3.497 -0.5798  0.1755  0.6983
 2059SOL     OW 8288   2.471   3.124   3.370 -0.3866 -0.1082 -0.0764
 2059SOL    HW2 8289   2.551   3.170   3.394 -0.4292  0.2102 -0.5158
 2059SOL    HW3 8290   2.478   3.112   3.275 -0.5644 -0.6440 -0.0215
 2059SOL    MW4 8291   2.482   3.129   3.360 -0.4158 -0.1371 -0.1273
 2060SOL     OW 8292   2.250   3.221   3.481  0.2831 -0.3323  0.1173
 2060SOL    HW2 8293   2.254   3.207   3.576 -0.8477 -1.0626  0.0661
 2060SOL    HW3 8294   2.333   3.187   3.448  1.4003  1.4588  1.0265
 2060SOL    MW4 8295   2.261   3.215   3.489  0.2811 -0.1922  0.2306
 2061SOL     OW 8296   2.272   3.482   3.389  0.0581  0.2382 -0.3239
 2061SOL    HW2 8297   2.287   3.392   3.417  0.0436  0.8179  1.5810
 2061SOL    HW3 8298   2.274   3.477   3.293  1.3385 -1.5627 -0.2419
 2061SOL    MW4 8299   2.274   3.469   3.380  0.2251  0.0768 -0.0620
 2062SOL     OW 8300   2.485   3.630   3.492  0.0806 -0.3412  0.4464
 2062SOL    HW2 8301   2.483   3.722   3.466  0.7664 -0.8440 -1.4308
 2062SOL    HW3 8302   2.403   3.594   3.457 -0.1433 -0.4843  1.1062
 2062SOL    MW4 8303   2.474   3.638   3.484  0.1416 -0.4263  0.2861
 2063SOL     OW 8304   2.461   3.877   3.390  0.0351 -0.1837  0.1257
 2063SOL    HW2 8305   2.529   3.935   3.423  1.0032 -2.0572  1.5435
 2063SOL    HW3 8306   2.380   3.912   3.427  0.4448  0.9772 -0.0531
 2063SOL    MW4 8307   2.459   3.889   3.399  0.2170 -0.2773  0.2890
 2064SOL     OW 8308   2.233   3.978   3.543  0.5633  0.0345  0.2211
 2064SOL    HW2 8309   2.236   4.062   3.497  2.1674 -0.7546 -1.1742
 2064SOL    HW3 8310   2.180   3.922   3.487  2.9524 -1.0882 -1.0022
 2064SOL    MW4 8311   2.226   3.982   3.530  1.0900 -0.2179 -0.1245
 2065SOL     OW 8312   2.245   4.238   3.430  0.2519  0.0166 -0.7127
 2065SOL    HW2 8313   2.166   4.276   3.468  1.2535  1.9928 -0.5736
 2065SOL    HW3 8314   2.237   4.254   3.336  0.8200  0.8635 -0.6204
 2065SOL    MW4 8315   2.233   4.245   3.422  0.4587  0.3896 -0.6821
 2066SOL     OW 8316   2.464   4.404   3.526 -0.0290 -0.1147 -0.2532
 2066SOL    HW2 8317   2.470   4.386   3.620  0.2690  1.8662  0.1238
 2066SOL    HW3 8318   2.387   4.355   3.497  0.7384 -1.9404  0.7102
 2066SOL    MW4 8319   2.455   4.395   3.535  0.1113 -0.0944 -0.0765
 2067SOL     OW 8320   2.903   4.627   3.417 -0.1359 -0.6900  0.2409
 2067SOL    HW2 8321   2.832   4.680   3.453 -0.1544 -0.0304 -0.7718
 2067SOL    HW3 8322   2.893   4.633   3.322 -0.1470 -2.5300  0.1129
 2067SOL    MW4 8323   2.892   4.635   3.410 -0.1395 -0.8454  0.0904
 2068SOL     OW 8324   2.704   0.136   3.502  0.0381  0.1748  0.1940
 2068SOL    HW2 8325   2.688   0.218   3.456 -0.7827 -0.2098 -0.2104
 2068SOL    HW3 8326   2.621   0.089   3.497  0.3960 -0.5182  0.7493
 2068SOL    MW4 8327   2.691   0.141   3.495 -0.0229  0.0326  0.2139
 2069SOL     OW 8328   2.682   0.389   3.385 -0.2883 -0.2287 -0.0499
 2069SOL    HW2 8329   2.767   0.425   3.411 -0.2809  0.1204 -0.5376
 2069SOL    HW3 8330   2.691   0.374   3.291  0.0450 -2.4799  0.3223
 2069SOL    MW4 8331   2.694   0.392   3.376 -0.2432 -0.4797 -0.0651
 2070SOL     OW 8332   2.930   0.493   3.501 -0.3180  0.0323 -0.4683
 2070SOL    HW2 8333   2.908   0.506   3.593 -1.0727 -0.5530 -0.5571
 2070SOL    HW3 8334   2.924   0.580   3.462  0.9465  0.4390  0.2297
 2070SOL    MW4 8335   2.926   0.506   3.508 -0.2508  0.0088 -0.3881
 2071SOL     OW 8336   2.913   0.753   3.392 -0.0050  0.1324 -0.5114
 2071SOL    HW2 8337   2.984   0.813   3.413  0.4624  0.4800 -2.9038
 2071SOL    HW3 8338   2.837   0.787   3.440  0.7108  1.5395 -0.3677
 2071SOL    MW4 8339   2.912   0.765   3.401  0.1512  0.3638 -0.8082
 2072SOL     OW 8340   2.702   0.860   3.529 -0.2803  0.0821 -0.0098
 2072SOL    HW2 8341   2.711   0.895   3.618 -0.6611 -1.0482  0.4865
 2072SOL    HW3 8342   2.696   0.937   3.473 -0.5308  0.8051  1.0023
 2072SOL    MW4 8343   2.703   0.874   3.533 -0.3638  0.0284  0.1891
 2073SOL     OW 8344   2.694   1.090   3.399  0.2925  0.6231  0.1429
 2073SOL    HW2 8345   2.763   1.151   3.426  1.3742 -0.3368 -0.4348
 2073SOL    HW3 8346   2.689   1.100   3.304  1.0064 -0.7372 -0.0445
 2073SOL    MW4 8347   2.702   1.100   3.390  0.5295  0.3170  0.0420
 2074SOL     OW 8348   2.904   1.252   3.466 -0.2632  0.2275  0.7795
 2074SOL    HW2 8349   2.924   1.269   3.559  1.2197 -1.5796  0.8328
 2074SOL    HW3 8350   2.984   1.211   3.432 -1.3030 -0.3927 -0.9592
 2074SOL    MW4 8351   2.917   1.249   3.474 -0.2046 -0.0927  0.5572
 2075SOL     OW 8352   2.971   1.515   3.409  0.6782  0.0738  0.3517
 2075SOL    HW2 8353   2.895   1.564   3.442  0.1746 -0.2696 -0.2867
 2075SOL    HW3 8354   2.956   1.426   3.439  0.5314 -0.1139 -0.2814
 2075SOL    MW4 8355   2.959   1.510   3.417  0.5927  0.0037  0.1838
 2076SOL     OW 8356   2.723   1.646   3.499 -0.3432 -0.0345  0.1365
 2076SOL    HW2 8357   2.714   1.733   3.459 -0.7012 -0.8003 -1.4802
 2076SOL    HW3 8358   2.648   1.597   3.467  0.4702 -1.2997  0.1308
 2076SOL    MW4 8359   2.712   1.651   3.490 -0.2835 -0.3024 -0.0780
 2077SOL     OW 8360   2.687   1.888   3.357  0.1767 -0.1657  0.0097
 2077SOL    HW2 8361   2.626   1.950   3.396  1.7325  1.1101  0.4959
 2077SOL    HW3 8362   2.684   1.906   3.263 -1.1089 -0.9754 -0.1171
 2077SOL    MW4 8363   2.679   1.899   3.350  0.2127 -0.1042  0.0572
 2078SOL     OW 8364   2.879   2.052   3.454 -0.4475 -0.0481 -0.4908
 2078SOL    HW2 8365   2.865   2.048   3.549  0.0995  2.4797 -0.2658
 2078SOL    HW3 8366   2.809   1.998   3.417 -0.9718 -0.6544  1.3386
 2078SOL    MW4 8367   2.868   2.045   3.462 -0.4444  0.2055 -0.2201
 2079SOL     OW 8368   2.907   2.318   3.375  0.0662  0.4305 -0.8708
 2079SOL    HW2 8369   2.907   2.235   3.422 -1.0226  0.8092 -0.1882
 2079SOL    HW3 8370   2.920   2.294   3.284  0.8804 -0.4054 -0.5476
 2079SOL    MW4 8371   2.909   2.304   3.369  0.0303  0.3698 -0.7381
 2080SOL     OW 8372   2.684   2.456   3.452 -0.0822  0.0508 -0.1773
 2080SOL    HW2 8373   2.681   2.442   3.547 -0.2603 -0.2508 -0.2260
 2080SOL    HW3 8374   2.762   2.408   3.424 -1.1847 -1.6218 -0.4661
 2080SOL    MW4 8375   2.694   2.448   3.461 -0.2508 -0.2098 -0.2217
 2081SOL     OW 8376   2.685   2.754   3.384 -0.3371  0.0577  0.2310
 2081SOL    HW2 8377   2.683   2.667   3.423  0.3932  0.2043  0.5922
 2081SOL    HW3 8378   2.613   2.801   3.427 -0.8454 -0.4197 -0.0950
 2081SOL    MW4 8379   2.675   2.749   3.395 -0.3076  0.0141  0.2358
 2082SOL     OW 8380   2.935   2.871   3.459  0.3890 -0.3742 -0.1317
 2082SOL    HW2 8381   2.933   2.861   3.554 -0.0621 -1.2446 -0.2251
 2082SOL    HW3 8382   2.856   2.825   3.429  1.2493 -1.2725 -1.0321
 2082SOL    MW4 8383   2.924   2.864   3.467  0.4432 -0.6075 -0.2630
 2083SOL     OW 8384   2.910   3.139   3.390  0.2687  0.0730  0.1764
 2083SOL    HW2 8385   2.922   3.052   3.430 -0.2191 -0.3943 -0.6910
 2083SOL    HW3 8386   2.910   3.122   3.296 -0.0875  0.9919  0.0119
 2083SOL    MW4 8387   2.912   3.125   3.383  0.1574  0.1326  0.0401
 2084SOL     OW 8388   2.682   3.249   3.500  0.5903 -0.4573  0.0107
 2084SOL    HW2 8389   2.681   3.229   3.594  1.0013 -1.0530 -0.1139
 2084SOL    HW3 8390   2.761   3.207   3.467 -0.3824 -1.5892 -0.9078
 2084SOL    MW4 8391   2.692   3.241   3.508  0.5159 -0.6852 -0.1271
 2085SOL     OW 8392   2.682   3.488   3.377 -0.4112 -0.8332  0.4822
 2085SOL    HW2 8393   2.676   3.400   3.414  0.4217 -0.5989  1.1700
 2085SOL    HW3 8394   2.616   3.538   3.425 -1.3071 -1.2212 -0.3259
 2085SOL    MW4 8395   2.672   3.483   3.388 -0.4196 -0.8538  0.4663
 2086SOL     OW 8396   2.914   3.580   3.479  0.0844  0.1933  0.0368
 2086SOL    HW2 8397   2.916   3.663   3.433  2.0423 -0.5702 -1.3107
 2086SOL    HW3 8398   2.829   3.541   3.456  0.5048  0.4013 -1.8809
 2086SOL    MW4 8399   2.903   3.586   3.470  0.3984  0.1199 -0.3936
 2087SOL     OW 8400   2.890   3.854   3.385  0.0621 -0.1004 -0.0092
 2087SOL    HW2 8401   2.966   3.911   3.398 -0.5017  0.9093 -1.0735
 2087SOL    HW3 8402   2.819   3.897   3.432 -0.2538 -0.1751 -0.4190
 2087SOL    MW4 8403   2.891   3.867   3.393 -0.0539  0.0229 -0.2036
 2088SOL     OW 8404   2.682   4.012   3.506  0.0461  0.0897 -0.3152
 2088SOL    HW2 8405   2.679   4.016   3.602 -0.3853  0.2341 -0.3386
 2088SOL    HW3 8406   2.687   4.103   3.478 -1.6659  0.1322 -0.5043
 2088SOL    MW4 8407   2.683   4.024   3.515 -0.2367  0.1144 -0.3431
 2089SOL     OW 8408   2.664   4.268   3.417  0.2337 -0.5899  0.6125
 2089SOL    HW2 8409   2.738   4.317   3.451 -0.4206  1.2809 -0.5927
 2089SOL    HW3 8410   2.587   4.315   3.449 -0.4088 -1.1989 -0.0076
 2089SOL    MW4 8411   2.663   4.281   3.425  0.0625 -0.4234  0.3717
 2090SOL     OW 8412   2.899   4.369   3.513  0.3310  0.1978  0.1650
 2090SOL    HW2 8413   2.910   4.382   3.608 -0.4957 -0.8378  0.4146
 2090SOL    HW3 8414   2.893   4.457   3.478  0.7670  0.5983  1.0702
 2090SOL    MW4 8415   2.900   4.382   3.521  0.2794  0.1140  0.3176
 2091SOL     OW 8416   3.403   4.659   3.403  0.0060  0.2729  0.2150
 2091SOL    HW2 8417   3.317   4.683   3.437 -0.2218 -0.7898  0.4032
 2091SOL    HW3 8418   3.391   4.651   3.309  0.2206  1.4663  0.0831
 2091SOL    MW4 8419   3.390   4.661   3.395  0.0041  0.2904  0.2224
 2092SOL     OW 8420   3.157   0.103   3.485 -0.0209  0.1658  0.2283
 2092SOL    HW2 8421   3.154   0.195   3.461 -0.4228  0.4525  1.3666
 2092SOL    HW3 8422   3.083   0.063   3.440 -0.3648  0.5665  0.4403
 2092SOL    MW4 8423   3.147   0.110   3.476 -0.1197  0.2565  0.4065
 2093SOL     OW 8424   3.180   0.382   3.424 -0.7583  0.3983 -0.0877
 2093SOL    HW2 8425   3.107   0.431   3.462 -1.1607  0.0216 -0.3744
 2093SOL    HW3 8426   3.157   0.372   3.332 -1.0942 -1.0911  0.1527
 2093SOL    MW4 8427   3.167   0.387   3.417 -0.8559  0.1521 -0.0939
 2094SOL     OW 8428   3.398   0.553   3.478  0.3332  0.6264 -0.0546
 2094SOL    HW2 8429   3.391   0.546   3.574  0.6416 -1.7796 -0.1576
 2094SOL    HW3 8430   3.322   0.504   3.446  1.6945 -0.9108 -1.0224
 2094SOL    MW4 8431   3.387   0.545   3.487  0.5534  0.1062 -0.1957
 2095SOL     OW 8432   3.345   0.791   3.343  0.0710 -0.5724  0.3370
 2095SOL    HW2 8433   3.422   0.847   3.329 -0.0857 -0.3513  0.3633
 2095SOL    HW3 8434   3.381   0.712   3.385  0.1322  0.0192  1.4240
 2095SOL    MW4 8435   3.360   0.788   3.347  0.0584 -0.4652  0.4838
 2096SOL     OW 8436   3.147   0.890   3.497  0.4296 -0.3779 -0.3098
 2096SOL    HW2 8437   3.137   0.976   3.457 -0.4125 -0.5486 -0.4697
 2096SOL    HW3 8438   3.214   0.847   3.443  1.1968  0.3428  0.0589
 2096SOL    MW4 8439   3.155   0.895   3.484  0.4194 -0.3053 -0.2823
 2097SOL     OW 8440   3.126   1.145   3.372  0.3770  0.2432 -0.1983
 2097SOL    HW2 8441   3.203   1.196   3.397  0.3006  0.2591  0.0056
 2097SOL    HW3 8442   3.123   1.152   3.277  0.3367  0.6620 -0.1688
 2097SOL    MW4 8443   3.136   1.153   3.363  0.3619  0.3005 -0.1676
 2098SOL     OW 8444   3.338   1.262   3.489 -0.0049  0.0594  0.0254
 2098SOL    HW2 8445   3.406   1.206   3.452 -0.1322 -0.3102  0.3419
 2098SOL    HW3 8446   3.357   1.349   3.455  1.7015  0.3017  1.5314
 2098SOL    MW4 8447   3.349   1.266   3.480  0.2034  0.0426  0.2658
 2099SOL     OW 8448   3.404   1.507   3.390  0.1850  0.0674 -0.5126
 2099SOL    HW2 8449   3.489   1.544   3.415  0.1844 -0.9548  1.1019
 2099SOL    HW3 8450   3.340   1.573   3.416  0.2679 -0.5289  1.3243
 2099SOL    MW4 8451   3.407   1.520   3.397  0.1957 -0.1463 -0.0575
 2100SOL     OW 8452   3.201   1.669   3.498 -0.1635  0.2048  0.1206
 2100SOL    HW2 8453   3.172   1.746   3.449  0.3106  0.0413 -0.4118
 2100SOL    HW3 8454   3.130   1.605   3.485 -0.2002  0.2822 -0.0648
 2100SOL    MW4 8455   3.188   1.670   3.490 -0.1059  0.1935  0.0260
 2101SOL     OW 8456   3.159   1.927   3.384  0.0603 -0.1865 -0.1026
 2101SOL    HW2 8457   3.082   1.978   3.409 -2.2111 -2.5550 -2.0472
 2101SOL    HW3 8458   3.162   1.934   3.289  1.6392 -0.9917 -0.1187
 2101SOL    MW4 8459   3.149   1.935   3.375 -0.0312 -0.6052 -0.3612
 2102SOL     OW 8460   3.394   2.061   3.449 -0.2000 -0.0785 -0.0953
 2102SOL    HW2 8461   3.373   2.154   3.438 -1.1922 -0.1748  1.0086
 2102SOL    HW3 8462   3.316   2.015   3.420 -0.4118 -0.5154  1.1553
 2102SOL    MW4 8463   3.381   2.067   3.444 -0.3591 -0.1493  0.2153
 2103SOL     OW 8464   3.360   2.330   3.377  0.0334  0.1579 -0.0722
 2103SOL    HW2 8465   3.429   2.382   3.418  0.8264 -1.0665  0.1651
 2103SOL    HW3 8466   3.279   2.373   3.403  0.4889 -0.8418  3.1541
 2103SOL    MW4 8467   3.358   2.343   3.386  0.1979 -0.1357  0.3853
 2104SOL     OW 8468   3.132   2.449   3.462  0.7770  0.2761  0.4584
 2104SOL    HW2 8469   3.127   2.541   3.435  2.2515 -0.4195 -2.4307
 2104SOL    HW3 8470   3.043   2.415   3.447  0.4910  0.9703  0.5620
 2104SOL    MW4 8471   3.119   2.456   3.456  0.9339  0.2759  0.0908
 2105SOL     OW 8472   3.149   2.719   3.398 -0.4052 -0.3071  0.1250
 2105SOL    HW2 8473   3.221   2.763   3.443 -1.0971  0.6292  0.3151
 2105SOL    HW3 8474   3.071   2.771   3.419 -1.0054 -0.8274 -0.7711
 2105SOL    MW4 8475   3.148   2.731   3.407 -0.5758 -0.2520  0.0317
 2106SOL     OW 8476   3.366   2.851   3.505  0.3285  0.2876  0.3490
 2106SOL    HW2 8477   3.443   2.803   3.474 -0.1258 -1.1832  1.4411
 2106SOL    HW3 8478   3.369   2.934   3.458  2.0538 -0.1418 -0.3422
 2106SOL    MW4 8479   3.377   2.856   3.495  0.4961  0.0367  0.4020
 2107SOL     OW 8480   3.390   3.089   3.376 -0.3440 -0.3332 -0.4914
 2107SOL    HW2 8481   3.461   3.134   3.421  0.0404 -0.9847 -0.4497
 2107SOL    HW3 8482   3.310   3.131   3.409  0.0063  0.2312 -0.3595
 2107SOL    MW4 8483   3.388   3.101   3.386 -0.2470 -0.3448 -0.4687
 2108SOL     OW 8484   3.172   3.186   3.487 -0.3315 -0.2442  0.5524
 2108SOL    HW2 8485   3.170   3.277   3.457  0.9607 -0.3849 -0.0130
 2108SOL    HW3 8486   3.089   3.148   3.457 -1.5736  1.1385  2.1263
 2108SOL    MW4 8487   3.161   3.193   3.479 -0.3250 -0.0803  0.6857
 2109SOL     OW 8488   3.145   3.452   3.410  0.0285  0.0323 -0.3939
 2109SOL    HW2 8489   3.062   3.485   3.446 -0.4837 -0.7117 -0.8791
 2109SOL    HW3 8490   3.130   3.449   3.316  0.5673 -0.2196 -0.4695
 2109SOL    MW4 8491   3.132   3.456   3.402  0.0319 -0.0989 -0.4678
 2110SOL     OW 8492   3.343   3.618   3.506 -0.2921 -0.2533 -0.2408
 2110SOL    HW2 8493   3.326   3.708   3.476 -1.0939  0.2589  1.6343
 2110SOL    HW3 8494   3.271   3.567   3.469 -0.6335  0.1537 -0.1503
 2110SOL    MW4 8495   3.331   3.623   3.497 -0.4430 -0.1318  0.0184
 2111SOL     OW 8496   3.316   3.890   3.389  0.6411 -0.0594 -0.0872
 2111SOL    HW2 8497   3.387   3.942   3.427 -0.6158  1.2581  0.5059
 2111SOL    HW3 8498   3.238   3.944   3.400 -0.0468 -0.3355 -3.0877
 2111SOL    MW4 8499   3.315   3.904   3.396  0.3843  0.0782 -0.4048
 2112SOL     OW 8500   3.080   4.050   3.419 -0.2220 -0.7907  0.5723
 2112SOL    HW2 8501   3.088   4.067   3.513  1.3020 -0.4596  0.4058
 2112SOL    HW3 8502   3.104   4.133   3.378  0.5338 -1.3467 -0.1285
 2112SOL    MW4 8503   3.084   4.063   3.426  0.0789 -0.8197  0.4580
 2113SOL     OW 8504   3.128   4.299   3.355 -0.0323  0.3831  0.2566
 2113SOL    HW2 8505   3.201   4.346   3.396 -1.0143  3.2206 -1.1186
 2113SOL    HW3 8506   3.051   4.325   3.405 -0.6043  0.2948 -0.5565
 2113SOL    MW4 8507   3.127   4.309   3.367 -0.2370  0.7463 -0.0322
 2114SOL     OW 8508   3.355   4.395   3.481 -0.0484 -0.1990 -0.4085
 2114SOL    HW2 8509   3.344   4.393   3.576  2.8926  0.4700  0.0052
 2114SOL    HW3 8510   3.379   4.486   3.461  1.3761 -0.7832 -1.4891
 2114SOL    MW4 8511   3.357   4.407   3.491  0.5276 -0.1874 -0.4966
 2115SOL     OW 8512   3.869   4.652   3.382  0.1797  0.1612 -0.3547
 2115SOL    HW2 8513   3.791   4.705   3.398 -0.6313 -1.2052  0.3438
 2115SOL    HW3 8514   3.873   4.643   3.287 -0.9037 -0.2975 -0.3685
 2115SOL    MW4 8515   3.859   4.658   3.372 -0.0701 -0.0796 -0.2644
 2116SOL     OW 8516   3.643   0.130   3.459  0.1833  0.1323  0.2841
 2116SOL    HW2 8517   3.619   0.219   3.433  0.5328  0.0316 -0.3928
 2116SOL    HW3 8518   3.566   0.077   3.437  0.3788  0.0915 -0.3066
 2116SOL    MW4 8519   3.630   0.135   3.453  0.2553  0.1137  0.1168
 2117SOL     OW 8520   3.590   0.384   3.381 -0.0047 -0.1052  0.0824
 2117SOL    HW2 8521   3.667   0.432   3.413 -0.6076  0.9863 -0.0610
 2117SOL    HW3 8522   3.516   0.436   3.410 -0.6521 -0.5299 -0.7796
 2117SOL    MW4 8523   3.591   0.397   3.389 -0.1695 -0.0172 -0.0503
 2118SOL     OW 8524   3.801   0.518   3.490 -0.0535 -0.2565  0.2560
 2118SOL    HW2 8525   3.804   0.522   3.585  2.2088 -1.0782  0.2348
 2118SOL    HW3 8526   3.882   0.476   3.464 -0.3303  0.5334 -2.0878
 2118SOL    MW4 8527   3.812   0.513   3.499  0.2086 -0.2608 -0.0563
 2119SOL     OW 8528   3.858   0.769   3.366  0.1672  0.0308 -0.1619
 2119SOL    HW2 8529   3.941   0.797   3.406 -1.0385  0.2424  2.2470
 2119SOL    HW3 8530   3.843   0.682   3.401 -1.5312  0.7093  0.8331
 2119SOL    MW4 8531   3.867   0.761   3.376 -0.2162  0.1482  0.2873
 2120SOL     OW 8532   3.611   0.881   3.428  0.1790 -0.5820 -0.0239
 2120SOL    HW2 8533   3.598   0.881   3.523  0.1590  0.7749 -0.0179
 2120SOL    HW3 8534   3.705   0.869   3.417  0.7139  2.7723  0.2916
 2120SOL    MW4 8535   3.622   0.880   3.439  0.2470  0.0396  0.0186
 2121SOL     OW 8536   3.541   1.143   3.358 -0.0178 -0.2344  0.2840
 2121SOL    HW2 8537   3.564   1.051   3.363  0.8649 -0.0914 -0.7536
 2121SOL    HW3 8538   3.547   1.163   3.264  0.2314  0.9719  0.5506
 2121SOL    MW4 8539   3.545   1.134   3.346  0.1316 -0.0561  0.1819
 2122SOL     OW 8540   3.816   1.236   3.445  0.1690 -0.0458 -0.5623
 2122SOL    HW2 8541   3.827   1.250   3.539  0.0744  1.9200 -0.8167
 2122SOL    HW3 8542   3.722   1.228   3.433  0.2632 -1.7227 -0.3285
 2122SOL    MW4 8543   3.805   1.237   3.456  0.1690 -0.0076 -0.5651
 2123SOL     OW 8544   3.825   1.508   3.367  0.4971  0.0980 -0.3983
 2123SOL    HW2 8545   3.903   1.530   3.418 -1.3141  1.7028  1.7510
 2123SOL    HW3 8546   3.812   1.415   3.385  0.1229  0.5377  1.8130
 2123SOL    MW4 8547   3.834   1.498   3.376  0.2089  0.3676  0.1769
 2124SOL     OW 8548   3.616   1.645   3.490 -0.0803  0.2283 -0.3726
 2124SOL    HW2 8549   3.632   1.737   3.471 -1.0530  0.1320 -1.7233
 2124SOL    HW3 8550   3.692   1.599   3.453  0.1215  0.4436 -0.2193
 2124SOL    MW4 8551   3.628   1.651   3.482 -0.1819  0.2439 -0.5307
 2125SOL     OW 8552   3.618   1.900   3.405 -0.0021 -0.4455  0.3609
 2125SOL    HW2 8553   3.696   1.947   3.435  0.1769 -0.8093  0.4785
 2125SOL    HW3 8554   3.545   1.956   3.429  0.2549  0.1702 -0.2660
 2125SOL    MW4 8555   3.619   1.913   3.412  0.0556 -0.4121  0.2937
 2126SOL     OW 8556   3.855   2.046   3.482  0.1508  0.1318 -0.1995
 2126SOL    HW2 8557   3.833   2.055   3.574 -1.2273 -0.6366 -0.4404
 2126SOL    HW3 8558   3.921   1.977   3.479 -0.8213 -0.8319  0.0958
 2126SOL    MW4 8559   3.861   2.038   3.493 -0.1595 -0.0966 -0.1924
 2127SOL     OW 8560   3.825   2.305   3.377  0.1400 -0.0454  0.2078
 2127SOL    HW2 8561   3.898   2.357   3.411 -0.1027 -0.1443  0.8687
 2127SOL    HW3 8562   3.843   2.216   3.407 -0.1099 -0.1213  0.1321
 2127SOL    MW4 8563   3.837   2.300   3.385  0.0751 -0.0684  0.2849
 2128SOL     OW 8564   3.591   2.429   3.502  0.2244 -0.1265  0.0262
 2128SOL    HW2 8565   3.596   2.522   3.481  1.4392 -0.4469 -1.1543
 2128SOL    HW3 8566   3.660   2.388   3.449 -0.9718 -1.8381 -0.2632
 2128SOL    MW4 8567   3.600   2.436   3.492  0.2270 -0.3948 -0.1676
 2129SOL     OW 8568   3.576   2.688   3.436 -0.0023 -0.3154 -0.0675
 2129SOL    HW2 8569   3.648   2.734   3.478 -0.0016 -0.8363  0.5122
 2129SOL    HW3 8570   3.592   2.699   3.342  0.3030  0.3764  0.0656
 2129SOL    MW4 8571   3.587   2.695   3.429  0.0379 -0.2930  0.0265
 2130SOL     OW 8572   3.795   2.832   3.518  0.3463  0.1504 -0.3189
 2130SOL    HW2 8573   3.803   2.842   3.613 -0.7086 -0.6542 -0.1413
 2130SOL    HW3 8574   3.804   2.921   3.484  1.3864  0.3607  0.4761
 2130SOL    MW4 8575   3.798   2.845   3.526  0.3445  0.0720 -0.1907
 2131SOL     OW 8576   3.826   3.088   3.401 -0.2132  0.2124 -0.0610
 2131SOL    HW2 8577   3.896   3.149   3.426  1.5594 -1.5518 -0.6143
 2131SOL    HW3 8578   3.818   3.099   3.306 -0.4377  0.1421 -0.0509
 2131SOL    MW4 8579   3.834   3.098   3.392 -0.0088 -0.0298 -0.1328
 2132SOL     OW 8580   3.593   3.226   3.492  0.1328  0.1110 -0.2981
 2132SOL    HW2 8581   3.601   3.316   3.462 -0.0877  0.7116  1.3976
 2132SOL    HW3 8582   3.679   3.187   3.473  0.4762  0.8904 -0.3751
 2132SOL    MW4 8583   3.606   3.232   3.486  0.1490  0.2928 -0.0846
 2133SOL     OW 8584   3.580   3.486   3.431 -1.0135 -1.0417  0.0628
 2133SOL    HW2 8585   3.518   3.542   3.478  0.2081  0.6615 -0.3076
 2133SOL    HW3 8586   3.556   3.496   3.339  0.6451  0.7521 -0.2193
 2133SOL    MW4 8587   3.569   3.495   3.425 -0.6337 -0.5803 -0.0234
 2134SOL     OW 8588   3.828   3.597   3.512 -0.1654 -0.0193 -0.4188
 2134SOL    HW2 8589   3.816   3.628   3.602  0.8119 -2.1673  0.4839
 2134SOL    HW3 8590   3.744   3.557   3.490 -0.0553 -0.4556 -0.0582
 2134SOL    MW4 8591   3.815   3.596   3.521 -0.0219 -0.3603 -0.2522
 2135SOL     OW 8592   3.811   3.866   3.420  0.5104 -0.1860 -0.4393
 2135SOL    HW2 8593   3.720   3.890   3.436  0.9615  1.6359 -0.5240
 2135SOL    HW3 8594   3.818   3.775   3.450 -1.1867 -0.1517  0.0762
 2135SOL    MW4 8595   3.800   3.857   3.426  0.3457  0.0587 -0.3822
 2136SOL     OW 8596   3.566   3.988   3.492  0.0806 -0.6449  0.1534
 2136SOL    HW2 8597   3.571   4.017   3.583 -1.7407  0.1743  0.0153
 2136SOL    HW3 8598   3.589   4.066   3.441 -2.0339 -0.1941 -0.1498
 2136SOL    MW4 8599   3.570   4.003   3.497 -0.4389 -0.4773  0.0951
 2137SOL     OW 8600   3.585   4.258   3.361  0.7167 -0.1096  0.1968
 2137SOL    HW2 8601   3.500   4.299   3.371  0.2748 -0.8051 -0.6355
 2137SOL    HW3 8602   3.600   4.256   3.267  0.5282 -2.2351  0.1881
 2137SOL    MW4 8603   3.576   4.263   3.350  0.6337 -0.4821  0.0861
 2138SOL     OW 8604   3.822   4.384   3.498 -0.5804 -0.3896  0.1814
 2138SOL    HW2 8605   3.741   4.354   3.457 -1.5330  1.8594  0.3279
 2138SOL    HW3 8606   3.838   4.470   3.459  0.3212  0.3109  2.0363
 2138SOL    MW4 8607   3.813   4.391   3.487 -0.5870 -0.0005  0.4454
 2139SOL     OW 8608   4.247   4.640   3.384 -0.1485  0.1714  0.1167
 2139SOL    HW2 8609   4.235   4.557   3.430  0.7556 -0.5751 -0.9765
 2139SOL    HW3 8610   4.336   4.668   3.407 -0.1417  0.4164 -0.2079
 2139SOL    MW4 8611   4.257   4.633   3.393 -0.0286  0.1049 -0.0706
 2140SOL     OW 8612   4.065   0.144   3.482 -0.5782  0.1781 -0.5426
 2140SOL    HW2 8613   4.137   0.088   3.453 -0.7333  0.0646 -0.7050
 2140SOL    HW3 8614   3.986   0.100   3.451 -0.7246  0.2374 -0.2535
 2140SOL    MW4 8615   4.064   0.131   3.474 -0.6180  0.1710 -0.5260
 2141SOL     OW 8616   4.029   0.403   3.413  0.0059 -0.3453  0.7778
 2141SOL    HW2 8617   4.039   0.309   3.424 -1.6591 -0.5011  1.0807
 2141SOL    HW3 8618   4.043   0.418   3.319 -0.7504 -1.0434  0.5466
 2141SOL    MW4 8619   4.032   0.393   3.402 -0.3138 -0.4579  0.7870
 2142SOL     OW 8620   4.270   0.518   3.512  0.6483  0.0029 -0.2307
 2142SOL    HW2 8621   4.266   0.594   3.454 -1.1200  1.2752  1.5443
 2142SOL    HW3 8622   4.191   0.468   3.491 -0.1622  0.6284  1.2806
 2142SOL    MW4 8623   4.259   0.521   3.501  0.3080  0.2532  0.2027
 2143SOL     OW 8624   4.297   0.745   3.348 -0.2363  0.3521  0.0216
 2143SOL    HW2 8625   4.368   0.805   3.372 -0.0793  0.3155 -0.3497
 2143SOL    HW3 8626   4.290   0.753   3.253 -0.5592  0.1624  0.0283
 2143SOL    MW4 8627   4.305   0.754   3.339 -0.2589  0.3222 -0.0265
 2144SOL     OW 8628   4.074   0.869   3.469  0.3675 -0.0237  0.6859
 2144SOL    HW2 8629   4.075   0.951   3.419 -0.1396 -0.5094 -0.1457
 2144SOL    HW3 8630   4.147   0.818   3.433 -0.6880 -0.8331 -0.3770
 2144SOL    MW4 8631   4.084   0.873   3.458  0.1616 -0.1946  0.4358
 2145SOL     OW 8632   4.062   1.137   3.355 -0.2136 -0.2999  0.1056
 2145SOL    HW2 8633   4.125   1.195   3.399 -0.4216  0.6342 -0.8171
 2145SOL    HW3 8634   3.977   1.164   3.389 -0.2791 -0.3473 -0.0248
 2145SOL    MW4 8635   4.059   1.148   3.366 -0.2499 -0.1830 -0.0334
 2146SOL     OW 8636   4.268   1.270   3.511 -0.5334  0.4767  0.4955
 2146SOL    HW2 8637   4.285   1.356   3.474 -0.8243  0.8400  1.1835
 2146SOL    HW3 8638   4.329   1.212   3.467  0.1105  1.1523  0.4952
 2146SOL    MW4 8639   4.278   1.274   3.501 -0.4864  0.6137  0.5865
 2147SOL     OW 8640   4.280   1.523   3.388 -0.0103  0.4128 -0.0603
 2147SOL    HW2 8641   4.197   1.567   3.408 -0.4108 -0.8442  1.1383
 2147SOL    HW3 8642   4.277   1.507   3.294 -0.4219  1.7835 -0.2958
 2147SOL    MW4 8643   4.269   1.527   3.378 -0.1178  0.4278  0.0670
 2148SOL     OW 8644   4.028   1.623   3.482 -0.1679  0.0685 -0.0414
 2148SOL    HW2 8645   4.031   1.624   3.577 -1.6499  0.1658  0.0301
 2148SOL    HW3 8646   4.049   1.712   3.456  1.6640 -0.3047  0.1204
 2148SOL    MW4 8647   4.031   1.635   3.491 -0.1211  0.0321 -0.0105
 2149SOL     OW 8648   4.075   1.895   3.404 -0.4065  0.0931 -0.4869
 2149SOL    HW2 8649   4.160   1.935   3.421  1.1078 -3.0933 -0.2660
 2149SOL    HW3 8650   4.061   1.908   3.310  0.3494  0.6029 -0.5311
 2149SOL    MW4 8651   4.084   1.902   3.394 -0.1068 -0.2600 -0.4632
 2150SOL     OW 8652   4.327   2.025   3.488  0.1493  0.4261 -0.5704
 2150SOL    HW2 8653   4.316   2.114   3.453 -0.4900  0.2887 -0.7314
 2150SOL    HW3 8654   4.411   1.996   3.454 -0.4466  0.3141 -1.9833
 2150SOL    MW4 8655   4.336   2.033   3.479 -0.0138  0.3932 -0.7780
 2151SOL     OW 8656   4.250   2.278   3.389 -0.2328  0.4825 -0.3744
 2151SOL    HW2 8657   4.185   2.338   3.425  0.5738  1.5007 -0.6096
 2151SOL    HW3 8658   4.236   2.281   3.294 -0.6916 -0.2878 -0.3388
 2151SOL    MW4 8659   4.240   2.286   3.381 -0.1874  0.5155 -0.4005
 2152SOL     OW 8660   4.045   2.441   3.488 -0.0872 -0.4962  0.4232
 2152SOL    HW2 8661   4.045   2.452   3.583 -3.0897  0.7602  0.3268
 2152SOL    HW3 8662   4.041   2.531   3.454 -1.5840 -1.0243 -0.8393
 2152SOL    MW4 8663   4.045   2.455   3.496 -0.6809 -0.4001  0.2437
 2153SOL     OW 8664   4.024   2.718   3.415 -0.0585 -0.0397 -0.1446
 2153SOL    HW2 8665   4.096   2.776   3.439 -0.9131  0.7806  0.4584
 2153SOL    HW3 8666   3.948   2.752   3.463 -0.7936 -1.0481 -0.5661
 2153SOL    MW4 8667   4.024   2.730   3.424 -0.2680 -0.0646 -0.1206
 2154SOL     OW 8668   4.245   2.854   3.494 -0.3061 -0.2882 -0.4929
 2154SOL    HW2 8669   4.254   2.838   3.588 -0.1317 -1.6723 -0.7363
 2154SOL    HW3 8670   4.319   2.809   3.454 -0.2188  0.5239 -1.2855
 2154SOL    MW4 8671   4.256   2.846   3.501 -0.2713 -0.3636 -0.6297
 2155SOL     OW 8672   4.303   3.113   3.397  0.0198 -0.6880  0.4841
 2155SOL    HW2 8673   4.274   3.026   3.425 -0.1943 -0.2961  1.4814
 2155SOL    HW3 8674   4.304   3.107   3.301 -0.4418 -1.6444  0.5265
 2155SOL    MW4 8675   4.299   3.101   3.388 -0.0696 -0.7627  0.6211
 2156SOL     OW 8676   4.063   3.244   3.472 -0.1699  0.1110  0.1214
 2156SOL    HW2 8677   4.059   3.332   3.435  0.8134  1.2619  2.6645
 2156SOL    HW3 8678   4.148   3.211   3.445  0.9081  1.2759  2.0158
 2156SOL    MW4 8679   4.074   3.251   3.464  0.1020  0.4168  0.7069
 2157SOL     OW 8680   4.076   3.501   3.362  0.4041 -0.3738  0.3052
 2157SOL    HW2 8681   4.155   3.535   3.404  0.1987  1.7056 -0.9007
 2157SOL    HW3 8682   4.005   3.553   3.397  0.0128  0.1532 -1.2099
 2157SOL    MW4 8683   4.077   3.512   3.372  0.3252 -0.0298 -0.0536
 2158SOL     OW 8684   4.274   3.630   3.511 -0.5392 -0.0349  0.0240
 2158SOL    HW2 8685   4.271   3.631   3.607  2.7514 -0.1768  0.1944
 2158SOL    HW3 8686   4.284   3.722   3.486 -1.2955 -0.0076 -0.1884
 2158SOL    MW4 8687   4.275   3.642   3.520 -0.2050 -0.0498  0.0184
 2159SOL     OW 8688   4.281   3.889   3.418 -0.0079 -0.0103  0.1751
 2159SOL    HW2 8689   4.354   3.945   3.446  0.5168 -0.5504 -0.1021
 2159SOL    HW3 8690   4.282   3.895   3.322 -1.3873  1.3163  0.2256
 2159SOL    MW4 8691   4.291   3.897   3.409 -0.1206  0.0935  0.1452
 2160SOL     OW 8692   4.048   3.992   3.531 -0.2203  0.4165  0.4207
 2160SOL    HW2 8693   4.132   3.954   3.505 -0.4433  1.2184 -1.5497
 2160SOL    HW3 8694   3.983   3.944   3.480 -0.8706  0.5837  1.0806
 2160SOL    MW4 8695   4.050   3.981   3.521 -0.3357  0.5445  0.2482
 2161SOL     OW 8696   4.013   4.222   3.363  0.0109  0.6238  0.2444
 2161SOL    HW2 8697   4.029   4.141   3.411 -2.5469 -1.3193 -2.0425
 2161SOL    HW3 8698   3.939   4.263   3.408 -1.3828 -0.4257 -1.0429
 2161SOL    MW4 8699   4.005   4.217   3.375 -0.5107  0.2284 -0.2275
 2162SOL     OW 8700   4.227   4.389   3.504 -0.6277  0.3896 -0.0491
 2162SOL    HW2 8701   4.231   4.386   3.600 -1.8530 -0.0585  0.0037
 2162SOL    HW3 8702   4.158   4.326   3.482 -2.2559  2.4640 -1.0694
 2162SOL    MW4 8703   4.218   4.380   3.514 -1.0042  0.6046 -0.1767
 2163SOL     OW 8704   0.210   4.662   3.831 -0.0699 -0.3300  0.1189
 2163SOL    HW2 8705   0.235   4.660   3.923 -0.9356 -0.0280  0.3567
 2163SOL    HW3 8706   0.126   4.707   3.829 -0.8562 -1.7889 -0.6279
 2163SOL    MW4 8707   0.202   4.668   3.843 -0.2879 -0.4821  0.0513
 2164SOL     OW 8708   4.425   0.074   3.737 -0.5743 -0.0460 -0.0605
 2164SOL    HW2 8709   4.431   0.164   3.768  0.8999 -0.7675  1.8397
 2164SOL    HW3 8710   4.454   0.079   3.646 -0.1060  1.3391  0.1505
 2164SOL    MW4 8711   4.430   0.086   3.729 -0.3185  0.0416  0.2184
 2165SOL     OW 8712   4.463   0.312   3.853 -0.4832  0.3332 -0.0744
 2165SOL    HW2 8713   4.390   0.372   3.841 -0.3949  0.4205 -0.1748
 2165SOL    HW3 8714   4.538   0.358   3.816 -0.1585  0.7197  1.0276
 2165SOL    MW4 8715   4.463   0.326   3.847 -0.4288  0.3957  0.0579
 2166SOL     OW 8716   0.193   0.511   3.768  0.2515 -0.2767 -0.0009
 2166SOL    HW2 8717   0.167   0.594   3.807  0.3553 -0.6875  0.9570
 2166SOL    HW3 8718   0.202   0.530   3.675 -2.1579  0.1870 -0.1578
 2166SOL    MW4 8719   0.191   0.524   3.761 -0.0527 -0.2698  0.1049
 2167SOL     OW 8720   0.177   0.770   3.893 -0.4428 -0.3777 -0.0406
 2167SOL    HW2 8721   0.172   0.787   3.987 -1.3903  0.9022 -0.3116
 2167SOL    HW3 8722   0.119   0.835   3.854  1.4225  0.3753 -1.6542
 2167SOL    MW4 8723   0.169   0.781   3.900 -0.3217 -0.1095 -0.2892
 2168SOL     OW 8724   4.475   0.914   3.713 -0.5064  0.7001 -0.6007
 2168SOL    HW2 8725   4.406   0.871   3.763 -0.4657  0.7323 -0.5165
 2168SOL    HW3 8726   4.475   1.005   3.745  0.6763  0.2982  0.5711
 2168SOL    MW4 8727   4.466   0.921   3.724 -0.3452  0.6514 -0.4351
 2169SOL     OW 8728   4.464   1.177   3.881 -0.0708  0.1968  0.0112
 2169SOL    HW2 8729   4.409   1.249   3.849  0.1591  0.7213  0.7754
 2169SOL    HW3 8730   4.553   1.202   3.856 -0.1356 -0.4497 -0.8585
 2169SOL    MW4 8731   4.469   1.190   3.874 -0.0491  0.1806 -0.0029
 2170SOL     OW 8732   0.244   1.267   3.817  0.2520  0.2686 -0.4324
 2170SOL    HW2 8733   0.251   1.356   3.851 -0.3009  0.5407 -1.0116
 2170SOL    HW3 8734   0.232   1.278   3.722  0.2643 -0.4201 -0.5184
 2170SOL    MW4 8735   0.243   1.281   3.809  0.1807  0.2136 -0.5202
 2171SOL     OW 8736   0.222   1.577   4.167 -0.1729 -0.2391 -0.1818
 2171SOL    HW2 8737   0.225   1.486   4.195  0.3520 -0.2434 -0.2589
 2171SOL    HW3 8738   0.294   1.619   4.213 -0.4079  0.1393 -0.1516
 2171SOL    MW4 8739   0.232   1.571   4.177 -0.1346 -0.1898 -0.1884
 2172SOL     OW 8740   0.054   1.668   3.753 -0.1938  0.2024 -0.0270
 2172SOL    HW2 8741   0.059   1.763   3.766  1.3004  0.1346 -0.0312
 2172SOL    HW3 8742   0.047   1.657   3.658 -0.5035  0.3124 -0.0167
 2172SOL    MW4 8743   0.054   1.679   3.742 -0.0381  0.2079 -0.0260
 2173SOL     OW 8744   0.062   1.943   3.846  0.3171 -0.1396  0.2952
 2173SOL    HW2 8745   0.058   1.937   3.941  1.1335  1.3307  0.4436
 2173SOL    HW3 8746  -0.024   1.976   3.819 -0.7339 -2.7843  0.3004
 2173SOL    MW4 8747   0.050   1.947   3.855  0.2861 -0.2946  0.3154
 2174SOL     OW 8748   0.281   2.086   3.749  0.1415 -0.1984 -0.9352
 2174SOL    HW2 8749   0.279   2.177   3.781  0.2463 -0.4467 -0.1980
 2174SOL    HW3 8750   0.192   2.055   3.761  0.5296 -0.7840  0.6112
 2174SOL    MW4 8751   0.269   2.094   3.755  0.2066 -0.3085 -0.6340
 2175SOL     OW 8752   0.252   2.353   3.837  0.1331  0.3704 -0.1382
 2175SOL    HW2 8753   0.259   2.368   3.931 -0.2679  0.1359 -0.0723
 2175SOL    HW3 8754   0.163   2.382   3.814  0.1245  0.1443 -0.3934
 2175SOL    MW4 8755   0.241   2.359   3.846  0.0790  0.3095 -0.1633
 2176SOL     OW 8756   0.002   2.446   3.769 -0.1579  0.0562 -0.2786
 2176SOL    HW2 8757  -0.067   2.394   3.810  0.6063  0.4338  1.5508
 2176SOL    HW3 8758  -0.009   2.534   3.804  0.3273  0.4712 -1.1368
 2176SOL    MW4 8759  -0.008   2.451   3.779  0.0069  0.1607 -0.1504
 2177SOL     OW 8760   4.489   2.717   3.846 -0.0429 -0.1986  0.4908
 2177SOL    HW2 8761   4.559   2.774   3.815 -0.2559  0.7380  1.7025
 2177SOL    HW3 8762   4.502   2.713   3.941 -0.2208 -1.9143  0.4632
 2177SOL    MW4 8763   4.500   2.724   3.855 -0.0945 -0.3014  0.6466
 2178SOL     OW 8764   0.205   2.857   3.746 -0.3720  0.1761  0.2614
 2178SOL    HW2 8765   0.286   2.821   3.782  0.4654  2.1043  0.3208
 2178SOL    HW3 8766   0.212   2.843   3.652 -0.4617 -0.6254  0.3688
 2178SOL    MW4 8767   0.216   2.850   3.738 -0.2733  0.3250  0.2837
 2179SOL     OW 8768   0.215   3.122   3.884  0.2641 -0.0406 -0.3897
 2179SOL    HW2 8769   0.241   3.096   3.972 -0.4295 -1.2736 -0.5341
 2179SOL    HW3 8770   0.218   3.041   3.833 -0.9217  0.3406 -1.1064
 2179SOL    MW4 8771   0.218   3.107   3.889  0.0161 -0.1528 -0.5035
 2180SOL     OW 8772   4.462   3.222   3.811  0.3373  0.1935  0.3599
 2180SOL    HW2 8773   4.550   3.192   3.834  0.5955  0.5661 -0.1290
 2180SOL    HW3 8774   4.463   3.229   3.716 -0.1445  0.4396  0.3691
 2180SOL    MW4 8775   4.474   3.219   3.802  0.3076  0.2751  0.2968
 2181SOL     OW 8776   4.462   3.479   3.927  0.3734  0.1973  0.0083
 2181SOL    HW2 8777   4.545   3.517   3.899  0.1144  0.2378 -0.7232
 2181SOL    HW3 8778   4.461   3.392   3.888 -0.0687  0.3134 -0.2440
 2181SOL    MW4 8779   4.473   3.472   3.918  0.2809  0.2179 -0.1216
 2182SOL     OW 8780   0.197   3.620   3.840 -0.2546  0.4476  0.4143
 2182SOL    HW2 8781   0.283   3.582   3.860 -0.0351 -0.0191 -1.3331
 2182SOL    HW3 8782   0.210   3.714   3.848  0.5398  0.4054 -0.2357
 2182SOL    MW4 8783   0.210   3.627   3.844 -0.1208  0.3805  0.0980
 2183SOL     OW 8784   0.243   3.893   3.864 -0.3064 -0.1643  0.0400
 2183SOL    HW2 8785   0.234   3.897   3.959 -1.4830  0.4983 -0.0933
 2183SOL    HW3 8786   0.324   3.940   3.846  0.1989 -0.7522  0.7629
 2183SOL    MW4 8787   0.252   3.900   3.874 -0.3950 -0.1547  0.1178
 2184SOL     OW 8788   0.036   4.030   3.764 -0.2141 -0.6080  0.1420
 2184SOL    HW2 8789  -0.037   3.980   3.802  0.1175 -0.4508  1.0031
 2184SOL    HW3 8790   0.114   3.991   3.803 -0.0055  1.4377  1.8940
 2184SOL    MW4 8791   0.036   4.018   3.774 -0.1429 -0.3171  0.4869
 2185SOL     OW 8792   0.011   4.298   3.854 -0.4461 -0.2702 -0.0017
 2185SOL    HW2 8793   0.077   4.346   3.804  1.0047 -0.2152  1.8820
 2185SOL    HW3 8794   0.013   4.209   3.818 -0.3571  0.0960 -0.9079
 2185SOL    MW4 8795   0.020   4.293   3.843 -0.2429 -0.2146  0.1273
 2186SOL     OW 8796   0.237   4.407   3.735  0.2115  0.1898 -0.0838
 2186SOL    HW2 8797   0.309   4.355   3.769 -0.1251  0.3233  0.8601
 2186SOL    HW3 8798   0.249   4.493   3.775  0.0210  0.4548 -0.5999
 2186SOL    MW4 8799   0.248   4.411   3.745  0.1419  0.2418 -0.0274
 2187SOL     OW 8800   0.672   0.004   3.862  0.2863  0.0620  0.0832
 2187SOL    HW2 8801   0.654  -0.085   3.833 -1.2296  0.7118 -1.0950
 2187SOL    HW3 8802   0.597   0.055   3.830  1.3700  1.8417  0.2732
 2187SOL    MW4 8803   0.660  -0.001   3.854  0.2292  0.3829 -0.0472
 2188SOL     OW 8804   0.444   0.109   3.736 -0.0498  0.2374  0.1162
 2188SOL    HW2 8805   0.424   0.197   3.767 -0.1971 -0.2927  1.5503
 2188SOL    HW3 8806   0.371   0.056   3.768  0.5956 -0.6013  0.2049
 2188SOL    MW4 8807   0.432   0.114   3.744  0.0159  0.0568  0.3171
 2189SOL     OW 8808   0.419   0.372   3.842 -0.1005  0.2686 -0.0934
 2189SOL    HW2 8809   0.505   0.413   3.837 -0.5003  1.1553  0.2118
 2189SOL    HW3 8810   0.357   0.442   3.821 -0.7236 -0.4662 -0.7348
 2189SOL    MW4 8811   0.422   0.387   3.839 -0.2354  0.2886 -0.1378
 2190SOL     OW 8812   0.669   0.498   3.822  0.2778  0.2589  0.6206
 2190SOL    HW2 8813   0.755   0.459   3.835  1.1740  1.3355 -1.9537
 2190SOL    HW3 8814   0.672   0.580   3.870  0.5802  0.1462  0.7951
 2190SOL    MW4 8815   0.680   0.504   3.830  0.4359  0.3861  0.3040
 2191SOL     OW 8816   0.694   0.759   3.903 -0.0786  0.1960  0.1337
 2191SOL    HW2 8817   0.748   0.823   3.857 -0.5688  1.5371  1.3740
 2191SOL    HW3 8818   0.604   0.785   3.883 -0.3042 -1.4385 -1.1268
 2191SOL    MW4 8819   0.689   0.771   3.894 -0.1730  0.1573  0.1309
 2192SOL     OW 8820   0.447   0.847   3.853 -0.0737  0.1361 -0.5385
 2192SOL    HW2 8821   0.452   0.941   3.867  1.1712 -0.1072  0.7785
 2192SOL    HW3 8822   0.354   0.826   3.865 -0.4115  1.2232 -1.1714
 2192SOL    MW4 8823   0.435   0.856   3.856  0.0460  0.2475 -0.4482
 2193SOL     OW 8824   0.489   1.136   3.880 -0.0349  0.1572 -0.1887
 2193SOL    HW2 8825   0.567   1.179   3.846 -0.6186  0.6975 -0.8616
 2193SOL    HW3 8826   0.416   1.191   3.850 -0.6503 -0.1580  0.7099
 2193SOL    MW4 8827   0.489   1.149   3.872 -0.1931  0.1869 -0.1593
 2194SOL     OW 8828   0.683   1.279   3.739  0.0824  0.2802 -0.8881
 2194SOL    HW2 8829   0.767   1.237   3.760  0.7431  1.6158 -0.8113
 2194SOL    HW3 8830   0.698   1.320   3.654 -0.2224  1.2450 -0.4791
 2194SOL    MW4 8831   0.696   1.279   3.731  0.1294  0.5838 -0.8240
 2195SOL     OW 8832   0.679   1.529   3.881 -0.1094 -0.2783  0.5811
 2195SOL    HW2 8833   0.745   1.587   3.845 -0.7342  0.6713  0.9544
 2195SOL    HW3 8834   0.700   1.443   3.845  0.9221  0.1447  0.1725
 2195SOL    MW4 8835   0.690   1.525   3.872 -0.0558 -0.0972  0.5765
 2196SOL     OW 8836   0.246   1.534   3.898  1.0136 -0.1576 -0.2214
 2196SOL    HW2 8837   0.229   1.547   3.991 -1.6073 -2.2133 -0.3530
 2196SOL    HW3 8838   0.166   1.564   3.855  2.0837  0.4782 -1.8105
 2196SOL    MW4 8839   0.234   1.540   3.905  0.8090 -0.3450 -0.4487
 2197SOL     OW 8840   0.459   1.644   3.759 -0.0744  0.3010  0.4565
 2197SOL    HW2 8841   0.540   1.612   3.798 -0.0935  0.6438  0.7745
 2197SOL    HW3 8842   0.389   1.601   3.808 -0.0861 -0.3159 -0.0865
 2197SOL    MW4 8843   0.461   1.634   3.770 -0.0784  0.2649  0.4268
 2198SOL     OW 8844   0.630   2.100   3.776 -0.0994  0.1975  0.0564
 2198SOL    HW2 8845   0.638   2.190   3.804 -0.8269  0.1547  0.4183
 2198SOL    HW3 8846   0.560   2.063   3.831  0.2133 -0.5898 -0.0583
 2198SOL    MW4 8847   0.622   2.107   3.787 -0.1541  0.0882  0.0889
 2199SOL     OW 8848   0.665   2.339   3.916 -0.3976 -0.5316  0.3643
 2199SOL    HW2 8849   0.744   2.372   3.873  0.3710 -1.5829  0.9561
 2199SOL    HW3 8850   0.593   2.388   3.874  0.4688 -0.3279 -0.9230
 2199SOL    MW4 8851   0.666   2.350   3.904 -0.1819 -0.6435  0.2725
 2200SOL     OW 8852   0.472   2.489   3.745 -0.2825  0.5599 -0.3874
 2200SOL    HW2 8853   0.389   2.451   3.774  0.4075 -0.8165 -0.1888
 2200SOL    HW3 8854   0.468   2.485   3.649 -0.9139  1.5436 -0.4123
 2200SOL    MW4 8855   0.461   2.484   3.736 -0.2748  0.5081 -0.3645
 2201SOL     OW 8856   0.445   2.767   3.844  0.8417 -0.0091  0.0106
 2201SOL    HW2 8857   0.527   2.811   3.822  1.0538 -0.4510 -0.0845
 2201SOL    HW3 8858   0.457   2.678   3.812 -0.1778  0.2719 -1.1930
 2201SOL    MW4 8859   0.458   2.761   3.837  0.7351 -0.0305 -0.1609
 2202SOL     OW 8860   0.684   2.892   3.775 -0.4924  0.1632 -0.0148
 2202SOL    HW2 8861   0.753   2.833   3.803  0.6219  1.4783  0.0935
 2202SOL    HW3 8862   0.695   2.899   3.680 -0.0783  0.8348  0.0748
 2202SOL    MW4 8863   0.694   2.885   3.766 -0.2908  0.4253  0.0112
 2203SOL     OW 8864   0.653   3.150   3.869 -0.2523 -0.2416  0.1405
 2203SOL    HW2 8865   0.668   3.145   3.964  3.0764 -2.2817 -0.4327
 2203SOL    HW3 8866   0.656   3.060   3.839 -2.0910  0.3222 -1.8527
 2203SOL    MW4 8867   0.655   3.138   3.878 -0.0557 -0.4365 -0.1981
 2204SOL     OW 8868   0.411   3.267   3.769  0.0898  0.3339  0.3175
 2204SOL    HW2 8869   0.494   3.237   3.808  0.2942  0.3546 -0.1012
 2204SOL    HW3 8870   0.345   3.210   3.809  0.4656 -0.6194 -0.3862
 2204SOL    MW4 8871   0.413   3.255   3.780  0.1663  0.2108  0.1695
 2205SOL     OW 8872   0.451   3.516   3.896 -0.2191  0.4628 -0.2126
 2205SOL    HW2 8873   0.521   3.563   3.851  0.4889  0.8659  1.2954
 2205SOL    HW3 8874   0.439   3.436   3.844  1.0849  0.5719 -0.6935
 2205SOL    MW4 8875   0.458   3.511   3.883  0.0463  0.5302 -0.0770
 2206SOL     OW 8876   0.676   3.639   3.777  0.1439 -0.3256 -0.3641
 2206SOL    HW2 8877   0.669   3.720   3.827  1.0694  0.1337 -0.9632
 2206SOL    HW3 8878   0.696   3.667   3.688 -0.6503 -1.1749 -0.8104
 2206SOL    MW4 8879   0.678   3.653   3.772  0.1612 -0.3772 -0.5021
 2207SOL     OW 8880   0.694   3.867   3.920  0.0943  0.1891 -0.4503
 2207SOL    HW2 8881   0.719   3.856   4.012  0.7184  0.5253 -0.5779
 2207SOL    HW3 8882   0.766   3.917   3.881 -0.1872  0.0858 -1.1133
 2207SOL    MW4 8883   0.707   3.872   3.927  0.1395  0.2198 -0.5548
 2208SOL     OW 8884   0.488   4.028   3.794  0.1731  0.0777 -0.3204
 2208SOL    HW2 8885   0.557   3.972   3.830  1.1256  1.2308 -0.3482
 2208SOL    HW3 8886   0.484   4.003   3.701  0.1797 -0.3696 -0.2027
 2208SOL    MW4 8887   0.497   4.017   3.786  0.2997  0.1707 -0.3085
 2209SOL     OW 8888   0.425   4.283   3.891  0.6194  0.1820  0.0625
 2209SOL    HW2 8889   0.494   4.337   3.852 -1.2324  0.4217 -3.0414
 2209SOL    HW3 8890   0.447   4.194   3.865  1.1421 -0.0690  1.2986
 2209SOL    MW4 8891   0.437   4.279   3.883  0.4440  0.1807 -0.1841
 2210SOL     OW 8892   0.614   4.397   3.741  0.2879  0.0709 -0.6425
 2210SOL    HW2 8893   0.698   4.367   3.775  0.8902  1.4601 -0.8433
 2210SOL    HW3 8894   0.618   4.379   3.647  1.4877  2.5544 -1.1180
 2210SOL    MW4 8895   0.626   4.391   3.733  0.5257  0.5817 -0.7317
 2211SOL     OW 8896   1.125   4.644   3.903  0.2752 -0.0450  0.1204
 2211SOL    HW2 8897   1.201   4.690   3.867 -0.4368 -0.2514 -1.7090
 2211SOL    HW3 8898   1.132   4.555   3.869 -0.9089 -0.0012 -0.2638
 2211SOL    MW4 8899   1.136   4.639   3.894  0.0250 -0.0668 -0.1714
 2212SOL     OW 8900   0.917   0.122   3.792 -0.1410  0.5859  0.3008
 2212SOL    HW2 8901   0.987   0.064   3.821  0.4973  1.0869 -0.2287
 2212SOL    HW3 8902   0.837   0.074   3.813  0.3822 -0.5364 -0.2154
 2212SOL    MW4 8903   0.916   0.108   3.798  0.0122  0.5039  0.1631
 2213SOL     OW 8904   0.908   0.372   3.920 -0.3408  0.1705 -0.3949
 2213SOL    HW2 8905   0.904   0.367   4.016  1.2975 -0.6540 -0.3366
 2213SOL    HW3 8906   0.912   0.280   3.892 -0.1971  0.4247 -1.2085
 2213SOL    MW4 8907   0.908   0.359   3.929 -0.1056  0.0953 -0.4950
 2214SOL     OW 8908   1.120   0.482   3.776  0.4749 -0.0991 -0.1376
 2214SOL    HW2 8909   1.196   0.431   3.805 -0.2655 -2.1821 -1.7652
 2214SOL    HW3 8910   1.047   0.447   3.827  0.4660  1.4608  0.9541
 2214SOL    MW4 8911   1.121   0.471   3.786  0.3760 -0.1682 -0.2081
 2215SOL     OW 8912   1.114   0.787   4.126  0.2162  0.0787 -0.1258
 2215SOL    HW2 8913   1.100   0.708   4.178  1.0051  0.3922  0.5761
 2215SOL    HW3 8914   1.192   0.828   4.165  0.0545  0.9845 -0.7369
 2215SOL    MW4 8915   1.122   0.782   4.138  0.2990  0.2396 -0.1144
 2216SOL     OW 8916   0.895   0.921   3.778  0.1934 -0.7733 -0.1335
 2216SOL    HW2 8917   0.972   0.876   3.814  0.3742 -0.1607  0.2583
 2216SOL    HW3 8918   0.912   0.925   3.684 -0.0223 -1.8915 -0.2213
 2216SOL    MW4 8919   0.908   0.916   3.770  0.1888 -0.8400 -0.0932
 2217SOL     OW 8920   0.907   1.183   3.859  0.7998  0.5867  0.6631
 2217SOL    HW2 8921   0.888   1.186   3.953  1.5894  0.7290  0.8222
 2217SOL    HW3 8922   0.894   1.091   3.836  0.1474  0.6358  0.8091
 2217SOL    MW4 8923   0.902   1.171   3.869  0.8178  0.6119  0.7033
 2218SOL     OW 8924   1.133   1.323   3.733 -0.3078  0.2365 -0.2272
 2218SOL    HW2 8925   1.129   1.416   3.757  1.8568  0.2825  0.1253
 2218SOL    HW3 8926   1.052   1.285   3.768 -1.0643  1.9243 -0.1079
 2218SOL    MW4 8927   1.122   1.330   3.741 -0.1221  0.4652 -0.1650
 2219SOL     OW 8928   1.094   1.609   3.847  0.1588  0.6646 -0.2154
 2219SOL    HW2 8929   1.095   1.588   3.940 -0.5302  0.5667 -0.2291
 2219SOL    HW3 8930   1.178   1.653   3.832  0.2866  0.6548  0.4450
 2219SOL    MW4 8931   1.106   1.612   3.857  0.0849  0.6505 -0.1299
 2220SOL     OW 8932   0.843   1.716   3.771 -0.1137  0.3595 -0.2433
 2220SOL    HW2 8933   0.928   1.677   3.793 -0.3620 -0.2322 -0.3158
 2220SOL    HW3 8934   0.842   1.719   3.675  0.0099  0.7760 -0.2302
 2220SOL    MW4 8935   0.854   1.711   3.761 -0.1302  0.3364 -0.2513
 2221SOL     OW 8936   0.825   1.968   3.900 -0.3692  0.2263  0.4902
 2221SOL    HW2 8937   0.824   1.875   3.876  0.3769  0.5214 -0.7504
 2221SOL    HW3 8938   0.753   2.006   3.850  1.1453  0.8328 -1.2805
 2221SOL    MW4 8939   0.816   1.961   3.890 -0.0709  0.3453  0.0927
 2222SOL     OW 8940   1.105   2.036   3.831  0.4500  0.0239  0.0149
 2222SOL    HW2 8941   1.017   1.998   3.834 -0.3978  1.8481 -0.4949
 2222SOL    HW3 8942   1.123   2.049   3.738  1.2100 -0.2381  0.1225
 2222SOL    MW4 8943   1.096   2.033   3.819  0.4386  0.2301 -0.0381
 2223SOL     OW 8944   1.113   2.304   3.905 -0.0658  0.6751 -0.6398
 2223SOL    HW2 8945   1.115   2.310   4.000 -0.2444  1.2066 -0.6682
 2223SOL    HW3 8946   1.111   2.211   3.887  1.8889  0.5092 -0.1511
 2223SOL    MW4 8947   1.113   2.293   3.915  0.1686  0.7236 -0.5791
 2224SOL     OW 8948   0.890   2.433   3.780  0.4118  0.1467 -0.6456
 2224SOL    HW2 8949   0.897   2.519   3.822 -1.0659 -0.5443  1.0574
 2224SOL    HW3 8950   0.969   2.386   3.809 -0.4647 -0.2310  1.1542
 2224SOL    MW4 8951   0.902   2.438   3.789  0.1011  0.0057 -0.1836
 2225SOL     OW 8952   0.864   2.686   3.880  0.2196 -0.1556 -0.1700
 2225SOL    HW2 8953   0.875   2.702   3.973 -1.3317  0.6435 -0.1142
 2225SOL    HW3 8954   0.944   2.721   3.840  1.3118 -1.3656  0.9321
 2225SOL    MW4 8955   0.876   2.693   3.887  0.1590 -0.2100 -0.0174
 2226SOL     OW 8956   1.112   2.810   3.770  0.2989 -0.3069  0.3762
 2226SOL    HW2 8957   1.186   2.759   3.803  1.4179  0.5857 -0.7138
 2226SOL    HW3 8958   1.125   2.898   3.805  0.3764  0.1249 -0.7020
 2226SOL    MW4 8959   1.124   2.815   3.779  0.4567 -0.1321  0.0904
 2227SOL     OW 8960   1.307   3.209   3.778 -0.8036  0.4512  0.2342
 2227SOL    HW2 8961   1.314   3.285   3.835 -0.9257  1.1252 -0.6351
 2227SOL    HW3 8962   1.228   3.164   3.807 -0.5400  0.4635  0.9770
 2227SOL    MW4 8963   1.298   3.213   3.789 -0.7850  0.5417  0.2177
 2228SOL     OW 8964   0.904   3.214   3.778 -0.0822 -0.5780  0.1324
 2228SOL    HW2 8965   0.811   3.199   3.795  0.1200 -1.8590  0.1768
 2228SOL    HW3 8966   0.910   3.217   3.682 -0.4437  1.4583  0.1456
 2228SOL    MW4 8967   0.892   3.213   3.768 -0.1032 -0.4785  0.1402
 2229SOL     OW 8968   0.895   3.496   3.855  0.0259 -0.5832 -0.3857
 2229SOL    HW2 8969   0.883   3.402   3.844 -1.2492 -0.3832 -0.8134
 2229SOL    HW3 8970   0.816   3.535   3.817 -0.6723  0.5419  2.1326
 2229SOL    MW4 8971   0.883   3.489   3.848 -0.2345 -0.4084 -0.1099
 2230SOL     OW 8972   1.125   3.649   3.786  0.0672 -0.5069 -0.0862
 2230SOL    HW2 8973   1.119   3.736   3.826 -2.7504  0.1642 -1.8329
 2230SOL    HW3 8974   1.050   3.602   3.822 -0.6048 -0.9573 -2.0265
 2230SOL    MW4 8975   1.114   3.654   3.796 -0.3933 -0.4778 -0.5724
 2231SOL     OW 8976   1.125   3.885   3.943 -0.2990  0.7238 -0.3893
 2231SOL    HW2 8977   1.139   3.881   4.037 -1.7402  2.1103 -0.1074
 2231SOL    HW3 8978   1.205   3.925   3.908 -0.2805  1.3483  0.3758
 2231SOL    MW4 8979   1.137   3.890   3.951 -0.4866  0.9892 -0.2511
 2232SOL     OW 8980   0.932   4.024   3.795 -0.2090 -0.1580  0.0402
 2232SOL    HW2 8981   0.995   3.967   3.839 -0.3836  0.0831  0.6214
 2232SOL    HW3 8982   0.954   4.019   3.702  0.2513 -0.5816  0.1726
 2232SOL    MW4 8983   0.944   4.016   3.789 -0.1712 -0.1826  0.1342
 2233SOL     OW 8984   0.863   4.298   3.849 -0.2412 -0.1607  0.0038
 2233SOL    HW2 8985   0.849   4.312   3.943 -1.0920 -1.0617  0.0195
 2233SOL    HW3 8986   0.878   4.204   3.841 -1.7566 -0.3412 -0.9477
 2233SOL    MW4 8987   0.863   4.288   3.861 -0.5534 -0.3033 -0.1194
 2234SOL     OW 8988   1.132   4.393   3.797 -0.1210  0.1803  0.2593
 2234SOL    HW2 8989   1.045   4.356   3.816  0.2054 -0.9947 -0.4460
 2234SOL    HW3 8990   1.136   4.395   3.701  0.9934 -0.6872  0.2723
 2234SOL    MW4 8991   1.121   4.388   3.787  0.0690 -0.0892  0.1678
 2235SOL     OW 8992   1.586   0.009   3.901  0.0551 -0.5019  0.3470
 2235SOL    HW2 8993   1.608   0.007   3.994  2.0096 -2.1980 -0.1235
 2235SOL    HW3 8994   1.584  -0.083   3.875 -1.4915 -0.0874 -1.0737
 2235SOL    MW4 8995   1.588  -0.003   3.910  0.1090 -0.6709  0.0975
 2236SOL     OW 8996   1.357   0.091   3.767  0.3760 -0.3147  0.5021
 2236SOL    HW2 8997   1.356   0.185   3.784  1.0226 -0.1692 -0.2418
 2236SOL    HW3 8998   1.437   0.060   3.810  1.0464 -0.2458 -0.6816
 2236SOL    MW4 8999   1.368   0.099   3.775  0.5498 -0.2864  0.2477
 2237SOL     OW 9000   1.352   0.359   3.841 -0.0032 -0.3384  0.1470
 2237SOL    HW2 9001   1.339   0.370   3.935 -0.5282  0.3037  0.0021
 2237SOL    HW3 9002   1.431   0.409   3.821 -0.1783 -0.0542  0.1616
 2237SOL    MW4 9003   1.361   0.367   3.851 -0.0955 -0.2162  0.1297
 2238SOL     OW 9004   1.580   0.514   3.792  0.3072 -0.0996  0.5737
 2238SOL    HW2 9005   1.670   0.498   3.821  1.3488 -1.2759 -2.9632
 2238SOL    HW3 9006   1.564   0.605   3.814  3.2087  0.7717 -0.6427
 2238SOL    MW4 9007   1.590   0.524   3.799  0.8274 -0.1399 -0.0534
 2239SOL     OW 9008   1.304   0.906   3.749 -0.1146  0.1077  0.2539
 2239SOL    HW2 9009   1.294   0.991   3.791 -0.3865  0.0899  0.2257
 2239SOL    HW3 9010   1.238   0.850   3.790  2.2346 -1.0291  2.6290
 2239SOL    MW4 9011   1.294   0.910   3.760  0.1594 -0.0447  0.5636
 2240SOL     OW 9012   1.102   0.757   3.852 -0.5761 -0.1516 -0.4365
 2240SOL    HW2 9013   1.118   0.746   3.945  0.8272  0.1778 -0.6349
 2240SOL    HW3 9014   1.104   0.668   3.816 -0.3310 -0.2115 -0.2749
 2240SOL    MW4 9015   1.104   0.744   3.859 -0.3586 -0.1162 -0.4416
 2241SOL     OW 9016   1.318   1.164   3.849 -0.1575  0.0210 -0.3641
 2241SOL    HW2 9017   1.404   1.195   3.820 -0.8036 -0.9312 -3.4350
 2241SOL    HW3 9018   1.257   1.234   3.825 -0.4377  0.1858  0.7572
 2241SOL    MW4 9019   1.321   1.177   3.842 -0.2797 -0.0829 -0.6213
 2242SOL     OW 9020   1.582   1.274   3.762 -0.3592  0.2388  0.1236
 2242SOL    HW2 9021   1.659   1.234   3.802 -0.6776 -0.4075  0.1089
 2242SOL    HW3 9022   1.575   1.360   3.802  1.9793  1.4195 -1.8786
 2242SOL    MW4 9023   1.592   1.280   3.772 -0.0927  0.3093 -0.1426
 2243SOL     OW 9024   1.554   1.522   3.847  0.2700 -0.5848  0.4011
 2243SOL    HW2 9025   1.556   1.536   3.942  3.3024 -0.1652  0.3294
 2243SOL    HW3 9026   1.639   1.555   3.817 -1.2661  0.6781 -2.6745
 2243SOL    MW4 9027   1.566   1.528   3.856  0.4674 -0.3629 -0.0141
 2244SOL     OW 9028   1.343   1.695   3.780  0.3957  0.3946 -0.1126
 2244SOL    HW2 9029   1.353   1.778   3.827 -0.0038 -0.0871  0.8442
 2244SOL    HW3 9030   1.425   1.648   3.795  0.3736  0.3517 -0.1251
 2244SOL    MW4 9031   1.355   1.700   3.788  0.3400  0.3254  0.0122
 2245SOL     OW 9032   1.378   1.918   3.932  0.4976 -0.1751 -0.4757
 2245SOL    HW2 9033   1.390   1.920   4.027  1.4190  0.1140 -0.5898
 2245SOL    HW3 9034   1.295   1.964   3.918  0.3734 -0.1878  0.1883
 2245SOL    MW4 9035   1.368   1.925   3.943  0.6027 -0.1386 -0.4029
 2246SOL     OW 9036   1.587   2.028   3.798 -0.5133  0.2731  0.3303
 2246SOL    HW2 9037   1.513   1.995   3.851  0.5708 -1.6249  0.7168
 2246SOL    HW3 9038   1.558   2.016   3.708 -0.7161 -0.4258  0.4799
 2246SOL    MW4 9039   1.573   2.022   3.793 -0.3970 -0.0696  0.4010
 2247SOL     OW 9040   1.559   2.289   3.880 -0.5717  0.0519 -0.1469
 2247SOL    HW2 9041   1.630   2.334   3.834  0.3348 -0.7631  0.4287
 2247SOL    HW3 9042   1.573   2.196   3.860 -0.1843 -0.3180  1.7039
 2247SOL    MW4 9043   1.570   2.282   3.872 -0.4010 -0.1042  0.1731
 2248SOL     OW 9044   1.345   2.412   3.766 -0.5030 -0.1188  0.5576
 2248SOL    HW2 9045   1.419   2.384   3.819  0.7344  0.4445 -0.8205
 2248SOL    HW3 9046   1.268   2.387   3.816  0.6330  0.4136  2.5951
 2248SOL    MW4 9047   1.345   2.405   3.779 -0.1899  0.0257  0.6447
 2249SOL     OW 9048   1.351   2.694   3.820  0.0139 -0.6124 -0.5752
 2249SOL    HW2 9049   1.338   2.684   3.915 -0.7635 -0.5545 -0.6769
 2249SOL    HW3 9050   1.352   2.604   3.787 -1.6636 -0.5731 -0.7700
 2249SOL    MW4 9051   1.350   2.680   3.828 -0.3102 -0.5999 -0.6142
 2250SOL     OW 9052   1.577   2.791   3.490 -0.3422 -0.2784  0.2240
 2250SOL    HW2 9053   1.606   2.813   3.578 -2.6663 -0.0591  0.9755
 2250SOL    HW3 9054   1.560   2.876   3.449  0.1375 -0.3937 -0.2091
 2250SOL    MW4 9055   1.578   2.805   3.496 -0.5854 -0.2646  0.2661
 2251SOL     OW 9056   1.614   2.835   3.761 -0.3726 -0.1946 -0.1290
 2251SOL    HW2 9057   1.605   2.925   3.791 -1.1633  0.0789 -1.1434
 2251SOL    HW3 9058   1.527   2.797   3.772 -0.0275 -0.8585  0.3570
 2251SOL    MW4 9059   1.602   2.842   3.766 -0.4315 -0.2463 -0.1986
 2252SOL     OW 9060   1.562   3.084   3.857 -0.2950 -0.3487 -0.0315
 2252SOL    HW2 9061   1.478   3.121   3.833  0.4255  0.4747 -1.3589
 2252SOL    HW3 9062   1.573   3.105   3.950 -1.6626 -0.7109  0.2179
 2252SOL    MW4 9063   1.553   3.091   3.866 -0.3805 -0.2878 -0.1738
 2253SOL     OW 9064   1.327   3.481   3.895  0.2190 -0.0770  0.5321
 2253SOL    HW2 9065   1.408   3.516   3.858  0.3196 -1.3100 -0.4436
 2253SOL    HW3 9066   1.258   3.535   3.859  0.5062  0.1541  0.3302
 2253SOL    MW4 9067   1.329   3.492   3.886  0.2701 -0.2091  0.3767
 2254SOL     OW 9068   1.560   3.608   3.769 -0.5979  0.3603 -0.1311
 2254SOL    HW2 9069   1.634   3.565   3.811 -0.8590 -1.2530 -1.2931
 2254SOL    HW3 9070   1.557   3.696   3.808  0.3278 -0.4523  1.7842
 2254SOL    MW4 9071   1.569   3.614   3.780 -0.5102  0.0405 -0.0317
 2255SOL     OW 9072   1.587   3.856   3.921 -0.0982  0.0384  0.3587
 2255SOL    HW2 9073   1.582   3.848   4.016 -0.3029  1.7012  0.5161
 2255SOL    HW3 9074   1.506   3.900   3.896  0.8961  1.5590 -0.3211
 2255SOL    MW4 9075   1.576   3.861   3.930  0.0061  0.4587  0.2899
 2256SOL     OW 9076   1.366   3.997   3.844 -0.3670  0.0599 -0.1779
 2256SOL    HW2 9077   1.371   4.090   3.868  2.0728 -0.2754  0.7383
 2256SOL    HW3 9078   1.357   3.997   3.749 -2.0239  1.2595 -0.0404
 2256SOL    MW4 9079   1.365   4.009   3.835 -0.2638  0.1740 -0.0391
 2257SOL     OW 9080   1.352   4.255   3.900  0.3210 -0.2986 -0.0618
 2257SOL    HW2 9081   1.428   4.305   3.872  0.6904 -0.3399  0.8485
 2257SOL    HW3 9082   1.278   4.295   3.854  0.9120 -0.3390 -1.0364
 2257SOL    MW4 9083   1.352   4.267   3.890  0.4476 -0.3090 -0.0706
 2258SOL     OW 9084   1.585   4.401   3.825 -0.4318  0.0214 -0.0385
 2258SOL    HW2 9085   1.664   4.348   3.839 -0.2853  0.5530  1.1303
 2258SOL    HW3 9086   1.577   4.405   3.729 -0.3396 -1.9448 -0.1568
 2258SOL    MW4 9087   1.595   4.394   3.814 -0.4003 -0.1678  0.1001
 2259SOL     OW 9088   2.039   0.005   3.892 -0.2409  0.2687  0.4343
 2259SOL    HW2 9089   2.121   0.036   3.854 -1.1732  1.3520 -0.7562
 2259SOL    HW3 9090   2.019  -0.076   3.844  0.0152  0.1113  0.5896
 2259SOL    MW4 9091   2.047  -0.002   3.881 -0.3302  0.3909  0.2978
 2260SOL     OW 9092   1.818   0.127   3.790 -0.0533 -0.0256 -0.4559
 2260SOL    HW2 9093   1.897   0.096   3.834 -0.7216  0.8265  1.3596
 2260SOL    HW3 9094   1.747   0.077   3.828 -0.7639  1.4791  0.2518
 2260SOL    MW4 9095   1.819   0.117   3.801 -0.2351  0.2853 -0.1228
 2261SOL     OW 9096   1.802   0.402   3.892 -0.3382 -0.1855  0.2815
 2261SOL    HW2 9097   1.818   0.383   3.984 -1.0366  0.9118  0.6334
 2261SOL    HW3 9098   1.783   0.316   3.853  1.6353 -0.8922  0.7946
 2261SOL    MW4 9099   1.802   0.388   3.899 -0.1700 -0.1340  0.3958
 2262SOL     OW 9100   2.065   0.502   3.806  0.0364 -0.0083  0.1990
 2262SOL    HW2 9101   1.986   0.457   3.836  0.1528  0.0928  0.6603
 2262SOL    HW3 9102   2.056   0.504   3.710 -0.1559 -0.6595  0.1985
 2262SOL    MW4 9103   2.053   0.497   3.797  0.0265 -0.0809  0.2599
 2263SOL     OW 9104   2.019   0.770   3.879  0.2027  0.1381  0.5673
 2263SOL    HW2 9105   2.009   0.754   3.973  0.2547 -0.9170  0.3976
 2263SOL    HW3 9106   2.046   0.685   3.843 -0.0572  0.4757 -0.4360
 2263SOL    MW4 9107   2.021   0.757   3.887  0.1752  0.0435  0.4122
 2264SOL     OW 9108   1.793   0.891   3.788  0.0091  0.0975  0.1658
 2264SOL    HW2 9109   1.869   0.847   3.825 -0.7113 -1.4454 -0.1034
 2264SOL    HW3 9110   1.810   0.891   3.693 -0.2142 -0.0621  0.1244
 2264SOL    MW4 9111   1.805   0.885   3.780 -0.1154 -0.1272  0.1249
 2265SOL     OW 9112   1.817   1.163   3.836 -0.4095 -0.0437  0.0167
 2265SOL    HW2 9113   1.826   1.167   3.932  0.1749 -0.2339 -0.0252
 2265SOL    HW3 9114   1.805   1.071   3.817  1.9601 -0.3302 -0.2802
 2265SOL    MW4 9115   1.817   1.152   3.846 -0.0198 -0.1067 -0.0279
 2266SOL     OW 9116   2.055   1.293   3.780  0.0962 -0.7494  0.6232
 2266SOL    HW2 9117   2.129   1.232   3.783 -0.8193 -1.9339 -0.3850
 2266SOL    HW3 9118   1.981   1.243   3.812 -0.6666 -0.1784 -0.2149
 2266SOL    MW4 9119   2.055   1.278   3.784 -0.1256 -0.8303  0.3796
 2267SOL     OW 9120   2.033   1.563   3.865 -0.1550 -0.0612 -0.2876
 2267SOL    HW2 9121   1.945   1.590   3.838 -0.5824 -0.1829  0.9368
 2267SOL    HW3 9122   2.042   1.474   3.831 -0.7412 -0.2751  0.1105
 2267SOL    MW4 9123   2.022   1.555   3.857 -0.2887 -0.1055 -0.0734
 2268SOL     OW 9124   1.790   1.643   3.775 -0.0036  0.1840  0.5980
 2268SOL    HW2 9125   1.795   1.727   3.820  2.1806  0.4520 -0.0775
 2268SOL    HW3 9126   1.801   1.665   3.682 -1.4467 -0.6573  0.2101
 2268SOL    MW4 9127   1.792   1.657   3.768  0.0941  0.1082  0.4578
 2269SOL     OW 9128   1.821   1.902   3.874  0.3255  0.1241  0.1825
 2269SOL    HW2 9129   1.798   1.906   3.967 -1.5385  0.4495 -0.2863
 2269SOL    HW3 9130   1.749   1.946   3.829 -0.0502 -2.2440 -1.6356
 2269SOL    MW4 9131   1.809   1.908   3.880  0.0300 -0.1454 -0.1190
 2270SOL     OW 9132   2.038   2.066   3.784 -0.1845  0.1318 -0.1409
 2270SOL    HW2 9133   1.965   2.008   3.806  0.5972 -0.4546  0.9213
 2270SOL    HW3 9134   2.044   2.062   3.688  0.2344 -1.9876 -0.0413
 2270SOL    MW4 9135   2.029   2.058   3.774 -0.0262 -0.2253  0.0122
 2271SOL     OW 9136   2.007   2.327   3.866 -0.3772  0.0886  0.2852
 2271SOL    HW2 9137   1.996   2.235   3.842 -2.2544  0.2778  0.3195
 2271SOL    HW3 9138   1.921   2.366   3.852  0.7704  2.1908 -1.1326
 2271SOL    MW4 9139   1.994   2.320   3.861 -0.4735  0.3908  0.1028
 2272SOL     OW 9140   1.768   2.434   3.751 -0.0089 -0.2663  0.2035
 2272SOL    HW2 9141   1.778   2.525   3.778  1.2215 -0.3383  0.0038
 2272SOL    HW3 9142   1.758   2.437   3.656 -1.2101 -0.2575  0.3143
 2272SOL    MW4 9143   1.768   2.446   3.742 -0.0051 -0.2744  0.1915
 2273SOL     OW 9144   1.835   2.693   3.829 -0.1734 -0.0407  0.6246
 2273SOL    HW2 9145   1.846   2.704   3.923  2.2688 -1.7878  0.5742
 2273SOL    HW3 9146   1.763   2.752   3.807 -0.0038  1.2875  3.3758
 2273SOL    MW4 9147   1.827   2.702   3.838  0.1713 -0.0961  0.9809
 2274SOL     OW 9148   2.035   2.859   3.765 -0.0147  0.1148  0.1999
 2274SOL    HW2 9149   2.118   2.814   3.780  0.2274 -0.1912 -1.9824
 2274SOL    HW3 9150   1.969   2.790   3.774  0.0095  0.1855  1.0369
 2274SOL    MW4 9151   2.037   2.844   3.768  0.0203  0.0837  0.0224
 2275SOL     OW 9152   1.996   3.105   3.869 -0.3380  0.5131  0.0684
 2275SOL    HW2 9153   2.067   3.150   3.824  0.3688  1.1773  1.7994
 2275SOL    HW3 9154   2.015   3.012   3.858  1.1294  0.6820  0.9889
 2275SOL    MW4 9155   2.008   3.099   3.862 -0.0510  0.6232  0.4182
 2276SOL     OW 9156   1.785   3.226   3.743 -0.0357 -0.1969 -0.0155
 2276SOL    HW2 9157   1.857   3.178   3.784 -0.8069 -0.0718  1.5112
 2276SOL    HW3 9158   1.707   3.194   3.787 -0.7888  0.6138 -0.7590
 2276SOL    MW4 9159   1.784   3.216   3.755 -0.2369 -0.0732  0.0877
 2277SOL     OW 9160   1.786   3.467   3.863  0.2090  0.3376 -0.0656
 2277SOL    HW2 9161   1.868   3.512   3.842  1.0744 -1.0544  0.3023
 2277SOL    HW3 9162   1.800   3.377   3.835 -0.7226 -0.2106  1.2239
 2277SOL    MW4 9163   1.799   3.461   3.856  0.2003  0.0818  0.1533
 2278SOL     OW 9164   2.044   3.568   3.781 -0.4429  0.2835 -0.4330
 2278SOL    HW2 9165   2.116   3.506   3.797  0.3879  1.3272 -0.0795
 2278SOL    HW3 9166   2.037   3.571   3.685 -0.1741  0.0005 -0.4653
 2278SOL    MW4 9167   2.053   3.560   3.770 -0.2980  0.3839 -0.3908
 2279SOL     OW 9168   2.019   3.824   3.898  0.5629  0.0415  0.1423
 2279SOL    HW2 9169   2.088   3.880   3.863  1.0443 -0.5430  0.1360
 2279SOL    HW3 9170   2.032   3.739   3.855  1.4918 -0.8468  2.0544
 2279SOL    MW4 9171   2.030   3.820   3.888  0.7491 -0.1528  0.3939
 2280SOL     OW 9172   1.794   3.980   3.796 -0.1621  0.0143  0.0948
 2280SOL    HW2 9173   1.875   3.942   3.829 -0.6843 -1.2131  0.0056
 2280SOL    HW3 9174   1.725   3.936   3.846 -0.8897 -0.7262 -1.5123
 2280SOL    MW4 9175   1.796   3.969   3.807 -0.3270 -0.2451 -0.1290
 2281SOL     OW 9176   1.816   4.244   3.884 -0.1562  0.3166 -0.3298
 2281SOL    HW2 9177   1.874   4.294   3.826 -0.3847  1.0552  0.0657
 2281SOL    HW3 9178   1.805   4.160   3.841  0.8287  0.3406 -0.6497
 2281SOL    MW4 9179   1.822   4.240   3.871 -0.0565  0.4172 -0.3197
 2282SOL     OW 9180   2.007   4.403   3.781  0.3200 -0.0933 -0.5133
 2282SOL    HW2 9181   2.077   4.353   3.822  0.2758  0.0142 -0.3065
 2282SOL    HW3 9182   2.018   4.388   3.687 -0.0398 -0.9471 -0.4193
 2282SOL    MW4 9183   2.018   4.395   3.774  0.2668 -0.1917 -0.4735
 2283SOL     OW 9184   2.497   4.649   3.858 -0.5350  0.2531  0.2180
 2283SOL    HW2 9185   2.502   4.654   3.953  0.5144 -0.1390  0.1791
 2283SOL    HW3 9186   2.565   4.708   3.827 -0.7637  0.2501 -0.2997
 2283SOL    MW4 9187   2.506   4.657   3.866 -0.4268  0.2007  0.1445
 2284SOL     OW 9188   2.270   0.130   3.801 -0.0851 -0.6478  0.3070
 2284SOL    HW2 9189   2.344   0.071   3.815  1.4902  0.9721 -0.9274
 2284SOL    HW3 9190   2.248   0.120   3.708 -1.2669 -0.9399  0.6123
 2284SOL    MW4 9191   2.277   0.121   3.791 -0.0334 -0.4726  0.1845
 2285SOL     OW 9192   2.263   0.378   3.936  0.2761 -0.2377  0.1496
 2285SOL    HW2 9193   2.268   0.287   3.908 -0.2407 -0.2951  0.2399
 2285SOL    HW3 9194   2.198   0.417   3.878  1.2521  0.3318 -0.5812
 2285SOL    MW4 9195   2.255   0.371   3.925  0.3369 -0.1701  0.0651
 2286SOL     OW 9196   2.485   0.494   3.828  0.1095  0.8188 -0.7531
 2286SOL    HW2 9197   2.397   0.466   3.851  1.0750 -2.3690 -0.7979
 2286SOL    HW3 9198   2.484   0.505   3.733 -0.0204  0.0247 -0.8402
 2286SOL    MW4 9199   2.473   0.492   3.819  0.2198  0.2934 -0.7703
 2287SOL     OW 9200   2.479   0.780   3.884  0.0000 -0.5885  0.1815
 2287SOL    HW2 9201   2.390   0.803   3.856  0.0836 -0.2852  0.1653
 2287SOL    HW3 9202   2.488   0.688   3.860  0.8383  0.1982 -2.7022
 2287SOL    MW4 9203   2.468   0.771   3.877  0.1216 -0.4447 -0.2012
 2288SOL     OW 9204   2.247   0.900   3.792 -0.3214  0.3642  0.3152
 2288SOL    HW2 9205   2.160   0.872   3.822  0.0812  0.1201  1.2474
 2288SOL    HW3 9206   2.242   0.893   3.697 -1.2609  0.1580  0.3701
 2288SOL    MW4 9207   2.235   0.896   3.783 -0.3922  0.3047  0.4456
 2289SOL     OW 9208   2.283   1.152   3.846  0.0588  0.1004 -0.3491
 2289SOL    HW2 9209   2.273   1.154   3.941 -0.9272 -0.1357 -0.4417
 2289SOL    HW3 9210   2.267   1.061   3.822 -0.0628  0.2306 -0.7716
 2289SOL    MW4 9211   2.279   1.140   3.855 -0.0873  0.0865 -0.4170
 2290SOL     OW 9212   2.515   1.268   3.757 -0.1011  0.4384  0.2435
 2290SOL    HW2 9213   2.504   1.356   3.792  0.5685  0.3734  0.6189
 2290SOL    HW3 9214   2.434   1.223   3.780 -0.1212  0.7238  0.7325
 2290SOL    MW4 9215   2.503   1.274   3.764 -0.0155  0.4674  0.3576
 2291SOL     OW 9216   2.468   1.531   3.863  0.2118  0.1599 -0.0824
 2291SOL    HW2 9217   2.544   1.588   3.853 -0.7816  1.4419 -0.4648
 2291SOL    HW3 9218   2.395   1.582   3.830 -0.5536 -1.7421 -1.4458
 2291SOL    MW4 9219   2.468   1.545   3.857 -0.0200  0.0781 -0.3128
 2292SOL     OW 9220   2.261   1.705   3.797 -0.1543 -0.6535  0.0415
 2292SOL    HW2 9221   2.278   1.793   3.829 -0.5912  0.1830 -1.9663
 2292SOL    HW3 9222   2.179   1.679   3.840 -0.9745  0.6277 -0.7098
 2292SOL    MW4 9223   2.252   1.713   3.807 -0.3202 -0.3741 -0.3226
 2293SOL     OW 9224   2.274   1.965   3.886  0.3801 -0.4072 -0.0428
 2293SOL    HW2 9225   2.238   1.956   3.974  0.6038  1.4063  0.2640
 2293SOL    HW3 9226   2.210   2.018   3.839  0.7269 -0.5424 -0.6761
 2293SOL    MW4 9227   2.261   1.971   3.891  0.4556 -0.1857 -0.0856
 2294SOL     OW 9228   2.494   2.041   3.738  0.2768  0.0298 -0.1813
 2294SOL    HW2 9229   2.499   2.133   3.766 -1.3325  0.2360 -0.5010
 2294SOL    HW3 9230   2.422   2.004   3.790  2.0998 -1.5492  1.2535
 2294SOL    MW4 9231   2.485   2.048   3.749  0.3052 -0.1514 -0.0341
 2295SOL     OW 9232   2.507   2.293   3.869  0.0290  0.1782 -0.2971
 2295SOL    HW2 9233   2.568   2.359   3.836 -0.0706  0.2007 -0.4372
 2295SOL    HW3 9234   2.420   2.326   3.843  0.0396 -0.4553 -1.1551
 2295SOL    MW4 9235   2.503   2.306   3.861  0.0174  0.0975 -0.4289
 2296SOL     OW 9236   2.261   2.409   3.797 -0.2203  0.1648 -0.4094
 2296SOL    HW2 9237   2.179   2.365   3.815  0.4713 -0.4427  1.3996
 2296SOL    HW3 9238   2.269   2.408   3.702 -1.0009 -2.1495 -0.4791
 2296SOL    MW4 9239   2.251   2.403   3.787 -0.2320 -0.2205 -0.1800
 2297SOL     OW 9240   2.233   2.684   3.849  0.7215 -0.1029 -0.0194
 2297SOL    HW2 9241   2.238   2.679   3.945  2.4336 -0.4365 -0.1240
 2297SOL    HW3 9242   2.216   2.594   3.821  1.2507 -0.1841 -0.0859
 2297SOL    MW4 9243   2.231   2.671   3.858  1.0171 -0.1578 -0.0422
 2298SOL     OW 9244   2.467   2.808   3.777  0.0373 -0.3256 -0.0394
 2298SOL    HW2 9245   2.386   2.761   3.795  0.7953 -1.1854  1.1401
 2298SOL    HW3 9246   2.468   2.818   3.681 -0.5982 -1.8461 -0.2159
 2298SOL    MW4 9247   2.457   2.803   3.766  0.0532 -0.6394  0.0927
 2299SOL     OW 9248   2.446   3.074   3.842  0.0388 -0.0963  0.0063
 2299SOL    HW2 9249   2.463   3.075   3.936  0.9346  0.3716 -0.1493
 2299SOL    HW3 9250   2.461   2.984   3.815 -1.7932 -0.5778  0.5824
 2299SOL    MW4 9251   2.451   3.062   3.851 -0.0846 -0.0980  0.0618
 2300SOL     OW 9252   2.221   3.208   3.767 -0.2393  0.2100 -0.0522
 2300SOL    HW2 9253   2.237   3.289   3.815 -1.0250 -0.0369  0.6262
 2300SOL    HW3 9254   2.294   3.151   3.791 -0.8519 -0.0618  1.1682
 2300SOL    MW4 9255   2.233   3.212   3.776 -0.4239  0.1416  0.1986
 2301SOL     OW 9256   2.264   3.439   3.899 -0.4246 -0.3174  0.1427
 2301SOL    HW2 9257   2.242   3.447   3.992 -0.1395 -0.5621  0.2339
 2301SOL    HW3 9258   2.336   3.501   3.887 -0.4568 -0.2912  0.0885
 2301SOL    MW4 9259   2.271   3.448   3.910 -0.3912 -0.3467  0.1478
 2302SOL     OW 9260   2.478   3.625   3.786 -0.0454 -0.2332 -0.0678
 2302SOL    HW2 9261   2.557   3.572   3.784 -2.0032 -3.2425 -0.6455
 2302SOL    HW3 9262   2.457   3.640   3.694 -0.1431  0.6220  0.0835
 2302SOL    MW4 9263   2.486   3.620   3.773 -0.3166 -0.5171 -0.1242
 2303SOL     OW 9264   2.461   3.869   3.904  0.6757 -0.3764  0.2041
 2303SOL    HW2 9265   2.532   3.918   3.861 -0.0616 -1.0946 -1.8810
 2303SOL    HW3 9266   2.467   3.781   3.868  0.2555 -1.1066  1.8799
 2303SOL    MW4 9267   2.471   3.864   3.894  0.5229 -0.5674  0.1502
 2304SOL     OW 9268   2.230   4.003   3.821 -0.1655 -0.0827  0.5288
 2304SOL    HW2 9269   2.312   3.960   3.842 -1.7469 -3.4339  0.2524
 2304SOL    HW3 9270   2.222   3.994   3.726 -0.3765  1.0916  0.4343
 2304SOL    MW4 9271   2.240   3.996   3.811 -0.4022 -0.3698  0.4799
 2305SOL     OW 9272   2.224   4.276   3.881  0.4098 -0.3880  0.0820
 2305SOL    HW2 9273   2.241   4.272   3.975 -1.0343  0.1006  0.3828
 2305SOL    HW3 9274   2.224   4.184   3.853 -0.0446 -0.5986  0.7385
 2305SOL    MW4 9275   2.226   4.263   3.890  0.1593 -0.3514  0.2086
 2306SOL     OW 9276   2.450   4.378   3.793  0.2464 -0.2429 -0.0840
 2306SOL    HW2 9277   2.367   4.346   3.828 -0.2991 -0.3669 -1.4455
 2306SOL    HW3 9278   2.447   4.472   3.809 -0.4186 -0.1647 -0.6333
 2306SOL    MW4 9279   2.439   4.386   3.799  0.0868 -0.2484 -0.3364
 2307SOL     OW 9280   2.915   4.634   3.869  0.6653  0.1105 -0.2667
 2307SOL    HW2 9281   2.911   4.651   3.963 -1.4545  0.7436 -0.4382
 2307SOL    HW3 9282   2.983   4.693   3.836  1.4135 -0.1119  0.8657
 2307SOL    MW4 9283   2.924   4.644   3.877  0.4842  0.1650 -0.1397
 2308SOL     OW 9284   2.717   0.127   3.784  0.2002  0.5081 -0.0420
 2308SOL    HW2 9285   2.785   0.063   3.804 -0.1045  0.3408  0.4659
 2308SOL    HW3 9286   2.716   0.131   3.689 -0.8787 -1.4429 -0.1467
 2308SOL    MW4 9287   2.726   0.119   3.774  0.0179  0.2286  0.0110
 2309SOL     OW 9288   2.705   0.368   3.926 -0.0230  0.0390  0.2479
 2309SOL    HW2 9289   2.707   0.291   3.869 -0.5040  0.1044  0.1397
 2309SOL    HW3 9290   2.624   0.412   3.903  1.5151  2.0201 -1.5930
 2309SOL    MW4 9291   2.695   0.363   3.915  0.1163  0.3091 -0.0093
 2310SOL     OW 9292   2.875   0.525   3.769  0.3956 -0.3312 -0.0723
 2310SOL    HW2 9293   2.966   0.501   3.790  0.4493  0.8932  1.1915
 2310SOL    HW3 9294   2.823   0.474   3.831  0.3951  1.0923  1.1368
 2310SOL    MW4 9295   2.880   0.515   3.780  0.4025  0.0182  0.2542
 2311SOL     OW 9296   2.888   0.759   3.911 -0.2600  0.5022  0.0384
 2311SOL    HW2 9297   2.949   0.812   3.860 -1.4471  0.2091 -1.7412
 2311SOL    HW3 9298   2.889   0.673   3.868  0.3638 -0.4352  1.8535
 2311SOL    MW4 9299   2.896   0.755   3.899 -0.3343  0.3399  0.0429
 2312SOL     OW 9300   2.692   0.928   3.790 -0.2451 -0.3218 -0.1625
 2312SOL    HW2 9301   2.746   0.865   3.838 -0.9898 -0.3378  0.6458
 2312SOL    HW3 9302   2.602   0.897   3.802 -0.5483  0.4664 -0.3932
 2312SOL    MW4 9303   2.687   0.916   3.798 -0.3831 -0.2199 -0.0865
 2313SOL     OW 9304   2.730   1.181   3.903 -0.0217 -0.0139 -0.0789
 2313SOL    HW2 9305   2.735   1.093   3.866  0.1293  0.2833 -0.7703
 2313SOL    HW3 9306   2.644   1.213   3.877 -0.2370 -0.1095  0.5144
 2313SOL    MW4 9307   2.720   1.174   3.895 -0.0305  0.0126 -0.0918
 2314SOL     OW 9308   2.930   1.285   3.742  0.3657  0.2250  0.3844
 2314SOL    HW2 9309   2.934   1.378   3.766  0.3143  0.5758 -0.9171
 2314SOL    HW3 9310   2.851   1.253   3.785 -0.4041  1.1456 -0.2970
 2314SOL    MW4 9311   2.920   1.293   3.751  0.2573  0.3928  0.1230
 2315SOL     OW 9312   2.956   1.540   3.835  0.0197  0.3069  0.3768
 2315SOL    HW2 9313   2.963   1.525   3.929  0.8998 -1.7666 -0.0059
 2315SOL    HW3 9314   3.028   1.601   3.815 -0.9049  1.6832  1.2285
 2315SOL    MW4 9315   2.967   1.546   3.844  0.0136  0.2148  0.4387
 2316SOL     OW 9316   2.706   1.654   3.801  0.3506  0.0152  0.0089
 2316SOL    HW2 9317   2.784   1.605   3.828 -0.1555 -0.7849  0.0514
 2316SOL    HW3 9318   2.696   1.634   3.708  0.6147  0.6943 -0.1622
 2316SOL    MW4 9319   2.715   1.645   3.792  0.3190 -0.0008 -0.0083
 2317SOL     OW 9320   2.702   1.930   3.882 -0.0371  0.2538 -0.1936
 2317SOL    HW2 9321   2.695   1.839   3.855  1.2298  0.0060  0.2907
 2317SOL    HW3 9322   2.629   1.974   3.838  0.1988 -0.7179 -1.5755
 2317SOL    MW4 9323   2.691   1.924   3.873  0.1612  0.0929 -0.3119
 2318SOL     OW 9324   2.905   2.065   3.740  0.0721 -0.4976  0.1344
 2318SOL    HW2 9325   2.911   2.153   3.778  0.8660 -0.8294  0.8029
 2318SOL    HW3 9326   2.833   2.024   3.787  0.0659 -0.3896  0.2202
 2318SOL    MW4 9327   2.897   2.071   3.751  0.1760 -0.5271  0.2339
 2319SOL     OW 9328   2.922   2.311   3.856 -0.4682  0.3287 -0.0973
 2319SOL    HW2 9329   2.924   2.317   3.952 -1.1665  3.1655 -0.2073
 2319SOL    HW3 9330   3.006   2.348   3.829  1.1754 -3.5222 -0.5313
 2319SOL    MW4 9331   2.934   2.317   3.865 -0.3436  0.1948 -0.1690
 2320SOL     OW 9332   2.709   2.433   3.744  0.1846  0.4810  0.0469
 2320SOL    HW2 9333   2.716   2.525   3.772 -0.7900  0.5249  0.1674
 2320SOL    HW3 9334   2.791   2.393   3.773  0.6241  1.3159 -0.0203
 2320SOL    MW4 9335   2.721   2.440   3.752  0.1140  0.5970  0.0539
 2321SOL     OW 9336   2.720   2.689   3.838 -0.3501 -0.0314  0.0496
 2321SOL    HW2 9337   2.732   2.700   3.932 -1.1685  0.4395  0.1033
 2321SOL    HW3 9338   2.629   2.715   3.822  0.5864  2.7030 -1.2825
 2321SOL    MW4 9339   2.710   2.694   3.848 -0.3345  0.3912 -0.1192
 2322SOL     OW 9340   2.920   2.838   3.722  0.5670 -0.0756 -0.2057
 2322SOL    HW2 9341   2.915   2.914   3.780 -1.1397  0.5272 -1.1276
 2322SOL    HW3 9342   2.854   2.778   3.756  1.4561 -0.8801  0.1195
 2322SOL    MW4 9343   2.911   2.840   3.734  0.4594 -0.1020 -0.2844
 2323SOL     OW 9344   2.951   3.079   3.865  0.4062 -0.4037  0.0935
 2323SOL    HW2 9345   3.014   3.146   3.838 -0.1066  0.0166 -0.0973
 2323SOL    HW3 9346   2.866   3.117   3.841  0.0902 -0.9783  0.3062
 2323SOL    MW4 9347   2.948   3.093   3.858  0.2968 -0.4241  0.0961
 2324SOL     OW 9348   2.686   3.178   3.767 -0.3893  0.3276  0.1176
 2324SOL    HW2 9349   2.680   3.270   3.794 -1.0065  0.0356  1.0182
 2324SOL    HW3 9350   2.597   3.144   3.777 -0.1459 -0.3946 -0.1163
 2324SOL    MW4 9351   2.674   3.185   3.772 -0.4389  0.1941  0.2058
 2325SOL     OW 9352   2.692   3.438   3.819 -0.0514 -0.2447 -0.3087
 2325SOL    HW2 9353   2.678   3.457   3.912 -0.7773  0.9685 -0.6560
 2325SOL    HW3 9354   2.757   3.503   3.791  1.5096 -1.7506 -0.2330
 2325SOL    MW4 9355   2.699   3.449   3.827  0.0589 -0.2832 -0.3445
 2326SOL     OW 9356   2.902   3.616   3.752  0.2150 -0.0988  0.5391
 2326SOL    HW2 9357   2.971   3.554   3.773 -0.8649 -1.5952 -0.2262
 2326SOL    HW3 9358   2.901   3.620   3.657 -0.4253  0.2936  0.5570
 2326SOL    MW4 9359   2.911   3.608   3.742 -0.0119 -0.2444  0.4406
 2327SOL     OW 9360   2.957   3.878   3.835 -0.3573 -0.3000 -0.5247
 2327SOL    HW2 9361   2.958   3.885   3.930 -0.7150  1.9334 -0.6616
 2327SOL    HW3 9362   2.935   3.787   3.818 -1.5141 -0.4269  1.5194
 2327SOL    MW4 9363   2.954   3.867   3.845 -0.5569 -0.0219 -0.2728
 2328SOL     OW 9364   2.708   3.986   3.777  0.0572 -0.0081  0.0257
 2328SOL    HW2 9365   2.710   4.078   3.805  2.2739 -0.2342  0.6823
 2328SOL    HW3 9366   2.795   3.953   3.798 -0.4531 -2.0446 -0.9910
 2328SOL    MW4 9367   2.720   3.994   3.784  0.2823 -0.3068 -0.0217
 2329SOL     OW 9368   2.689   4.231   3.887  0.0019  0.2325 -0.2286
 2329SOL    HW2 9369   2.768   4.268   3.847  0.8856 -1.5123 -0.1671
 2329SOL    HW3 9370   2.618   4.286   3.855  1.0827  0.9542 -1.4502
 2329SOL    MW4 9371   2.690   4.243   3.877  0.2613  0.0978 -0.3815
 2330SOL     OW 9372   2.913   4.359   3.790 -0.0874  0.4117 -0.2762
 2330SOL    HW2 9373   2.998   4.316   3.807 -0.0630  0.5579 -0.0264
 2330SOL    HW3 9374   2.923   4.446   3.828  0.1459  0.9205 -1.5108
 2330SOL    MW4 9375   2.926   4.365   3.798 -0.0532  0.4978 -0.4060
 2331SOL     OW 9376   3.340   4.645   3.878  0.4828 -0.1265  0.1530
 2331SOL    HW2 9377   3.351   4.654   3.973  1.5756  0.1816 -0.0021
 2331SOL    HW3 9378   3.419   4.684   3.841  0.4870 -1.0784 -0.8511
 2331SOL    MW4 9379   3.352   4.651   3.886  0.6275 -0.2114  0.0000
 2332SOL     OW 9380   3.116   0.140   3.769  0.4979  0.0288  0.0110
 2332SOL    HW2 9381   3.191   0.098   3.810 -0.1664 -1.4226 -0.2408
 2332SOL    HW3 9382   3.142   0.150   3.677  1.4917  2.1403  0.4968
 2332SOL    MW4 9383   3.129   0.136   3.762  0.5412  0.1159  0.0417
 2333SOL     OW 9384   3.125   0.425   3.816 -0.4593  0.7046  0.3015
 2333SOL    HW2 9385   3.130   0.430   3.911  0.2315 -0.4692  0.3326
 2333SOL    HW3 9386   3.101   0.335   3.797  2.0148  0.2060 -0.6937
 2333SOL    MW4 9387   3.123   0.414   3.826 -0.0417  0.4839  0.1740
 2334SOL     OW 9388   3.364   0.545   3.766  0.0065  0.3611  0.1017
 2334SOL    HW2 9389   3.440   0.497   3.799 -0.5573 -1.2042 -0.8320
 2334SOL    HW3 9390   3.289   0.493   3.792 -0.5788  0.3548 -1.5100
 2334SOL    MW4 9391   3.365   0.532   3.773 -0.1452  0.1537 -0.2341
 2335SOL     OW 9392   3.340   0.798   3.869  0.0740 -0.0330 -0.2705
 2335SOL    HW2 9393   3.345   0.780   3.963  0.6231  0.1836 -0.2565
 2335SOL    HW3 9394   3.344   0.711   3.828  2.4600  0.0135 -0.1867
 2335SOL    MW4 9395   3.341   0.784   3.876  0.4616  0.0017 -0.2577
 2336SOL     OW 9396   3.096   0.898   3.772 -0.3929  0.0693  0.2326
 2336SOL    HW2 9397   3.174   0.860   3.814  0.5127  1.2442 -0.3836
 2336SOL    HW3 9398   3.106   0.876   3.679 -1.2692 -0.5672  0.2795
 2336SOL    MW4 9399   3.107   0.890   3.765 -0.3889  0.1403  0.1574
 2337SOL     OW 9400   3.152   1.156   3.879 -0.0941 -0.0903 -0.2529
 2337SOL    HW2 9401   3.122   1.073   3.841  0.9178 -1.2316  1.3248
 2337SOL    HW3 9402   3.083   1.219   3.858 -0.6025 -1.2075 -1.9744
 2337SOL    MW4 9403   3.139   1.153   3.871 -0.0277 -0.3883 -0.2720
 2338SOL     OW 9404   3.355   1.297   3.758 -0.0780 -0.0265  0.2136
 2338SOL    HW2 9405   3.277   1.251   3.791 -1.1713  1.1808 -0.6575
 2338SOL    HW3 9406   3.351   1.285   3.663 -0.8399  2.5662 -0.1094
 2338SOL    MW4 9407   3.344   1.289   3.750 -0.3228  0.4749  0.0558
 2339SOL     OW 9408   3.400   1.549   3.880  0.4607 -0.2829  0.0323
 2339SOL    HW2 9409   3.322   1.595   3.851  2.0403  1.8054 -1.0488
 2339SOL    HW3 9410   3.389   1.460   3.846 -1.6160 -0.1407  0.2641
 2339SOL    MW4 9411   3.388   1.543   3.872  0.3951  0.0113 -0.0799
 2340SOL     OW 9412   3.182   1.693   3.772 -0.3228  0.2608 -0.3426
 2340SOL    HW2 9413   3.175   1.786   3.793 -0.2172  0.2182 -0.1213
 2340SOL    HW3 9414   3.209   1.692   3.681  1.3750  0.4656  0.1507
 2340SOL    MW4 9415   3.184   1.705   3.763 -0.0846  0.2823 -0.2484
 2341SOL     OW 9416   3.158   1.960   3.814 -0.5123  0.2839  0.7230
 2341SOL    HW2 9417   3.137   1.949   3.907 -0.3079 -0.7905  0.6474
 2341SOL    HW3 9418   3.075   1.985   3.774 -0.9538 -0.7611  0.9521
 2341SOL    MW4 9419   3.144   1.962   3.821 -0.5436  0.0042  0.7434
 2342SOL     OW 9420   3.403   2.054   3.738  0.0081  0.1646  0.2915
 2342SOL    HW2 9421   3.322   2.011   3.766  1.1037 -1.7981  0.5621
 2342SOL    HW3 9422   3.394   2.062   3.643 -1.4823  2.0944  0.5646
 2342SOL    MW4 9423   3.391   2.050   3.729 -0.0439  0.1605  0.3631
 2343SOL     OW 9424   3.376   2.305   3.878  0.0129  0.6576  0.2502
 2343SOL    HW2 9425   3.300   2.355   3.847 -0.4566  0.1965  0.6457
 2343SOL    HW3 9426   3.374   2.225   3.826 -0.8130 -0.1468  1.4954
 2343SOL    MW4 9427   3.366   2.301   3.867 -0.1581  0.4907  0.4666
 2344SOL     OW 9428   3.142   2.430   3.750  0.3017 -0.3080  0.4613
 2344SOL    HW2 9429   3.155   2.521   3.775  0.9527 -0.5605  1.0395
 2344SOL    HW3 9430   3.126   2.433   3.656 -0.4289  0.4744  0.6055
 2344SOL    MW4 9431   3.141   2.442   3.741  0.2909 -0.2379  0.5565
 2345SOL     OW 9432   3.154   2.693   3.827 -0.1838  0.4159  0.1161
 2345SOL    HW2 9433   3.163   2.703   3.922  0.8667 -0.5524  0.1259
 2345SOL    HW3 9434   3.066   2.727   3.808 -1.2923 -1.4289  1.7310
 2345SOL    MW4 9435   3.143   2.699   3.837 -0.1912  0.0448  0.3304
 2346SOL     OW 9436   3.385   2.821   3.789  0.4731  0.9482  0.1207
 2346SOL    HW2 9437   3.297   2.784   3.788  1.1343 -0.7035  0.8742
 2346SOL    HW3 9438   3.414   2.815   3.697  0.5555 -0.4068  0.2206
 2346SOL    MW4 9439   3.377   2.815   3.776  0.5713  0.5515  0.2334
 2347SOL     OW 9440   3.395   3.076   3.896  0.3503 -0.4558 -0.6683
 2347SOL    HW2 9441   3.479   3.108   3.863  0.3169 -1.6593 -1.9486
 2347SOL    HW3 9442   3.387   2.988   3.860  0.0052 -1.5814  2.0059
 2347SOL    MW4 9443   3.405   3.069   3.887  0.3006 -0.7629 -0.4847
 2348SOL     OW 9444   3.189   3.220   3.775  0.3812 -0.5982  0.1292
 2348SOL    HW2 9445   3.267   3.178   3.811 -0.6551 -2.1220  0.6838
 2348SOL    HW3 9446   3.196   3.208   3.681  0.3679 -1.5807  0.2451
 2348SOL    MW4 9447   3.200   3.213   3.768  0.2427 -0.9286  0.2177
 2349SOL     OW 9448   3.107   3.470   3.855 -0.1577 -0.0955 -0.5004
 2349SOL    HW2 9449   3.189   3.516   3.836 -0.5161  0.3487 -0.9722
 2349SOL    HW3 9450   3.122   3.381   3.822  0.5512 -0.3355  0.4541
 2349SOL    MW4 9451   3.120   3.464   3.848 -0.1116 -0.0684 -0.4368
 2350SOL     OW 9452   3.323   3.604   3.788  0.4981 -0.1994  0.0128
 2350SOL    HW2 9453   3.312   3.697   3.809  0.6572 -0.1079 -0.3225
 2350SOL    HW3 9454   3.338   3.602   3.694  0.9409 -0.5301  0.0928
 2350SOL    MW4 9455   3.323   3.616   3.779  0.5777 -0.2310 -0.0207
 2351SOL     OW 9456   3.332   3.875   3.844 -0.0836 -0.0598  0.0345
 2351SOL    HW2 9457   3.415   3.916   3.821 -0.4456 -0.2435 -1.6562
 2351SOL    HW3 9458   3.265   3.927   3.799 -0.7693 -0.8181  0.1554
 2351SOL    MW4 9459   3.334   3.887   3.835 -0.2217 -0.1841 -0.1729
 2352SOL     OW 9460   3.152   4.010   3.686  0.3528  0.1976 -0.2920
 2352SOL    HW2 9461   3.159   4.077   3.754  0.3185 -0.2416  0.1448
 2352SOL    HW3 9462   3.099   3.941   3.725 -0.0806  0.1598 -0.9417
 2352SOL    MW4 9463   3.146   4.010   3.700  0.2911  0.1345 -0.3202
 2353SOL     OW 9464   3.140   4.209   3.862  0.1572 -0.2926 -0.1093
 2353SOL    HW2 9465   3.130   4.222   3.956  0.0534  0.7486 -0.2542
 2353SOL    HW3 9466   3.218   4.260   3.839 -0.2045  0.0080 -0.6852
 2353SOL    MW4 9467   3.149   4.218   3.871  0.0958 -0.1154 -0.2043
 2354SOL     OW 9468   3.350   4.390   3.794 -0.0139  0.1074 -0.9518
 2354SOL    HW2 9469   3.434   4.355   3.822 -0.8860 -0.5631  0.9317
 2354SOL    HW3 9470   3.350   4.480   3.826  0.6925  0.6958 -2.5286
 2354SOL    MW4 9471   3.361   4.398   3.802 -0.0355  0.0963 -0.9112
 2355SOL     OW 9472   3.785   0.019   3.820  0.0533  0.0492 -0.0592
 2355SOL    HW2 9473   3.878   0.037   3.807  0.1845 -0.8711 -0.4566
 2355SOL    HW3 9474   3.777  -0.075   3.805 -1.2239  0.3867 -1.5470
 2355SOL    MW4 9475   3.796   0.009   3.817 -0.0978 -0.0281 -0.3078
 2356SOL     OW 9476   3.538   0.117   3.752 -0.3794 -0.1606 -0.7563
 2356SOL    HW2 9477   3.621   0.081   3.783  0.1458  1.6446 -0.0117
 2356SOL    HW3 9478   3.538   0.100   3.658  0.7125 -0.4284 -0.7129
 2356SOL    MW4 9479   3.549   0.110   3.744 -0.1659  0.0422 -0.6523
 2357SOL     OW 9480   3.573   0.374   3.839 -0.3669  0.1231 -0.2068
 2357SOL    HW2 9481   3.649   0.423   3.807  1.1667 -1.2265  1.2437
 2357SOL    HW3 9482   3.573   0.293   3.787 -1.5501  0.6590 -1.0480
 2357SOL    MW4 9483   3.583   0.369   3.828 -0.3209  0.0158 -0.1264
 2358SOL     OW 9484   3.796   0.524   3.761  0.0013  0.3225 -0.7070
 2358SOL    HW2 9485   3.877   0.490   3.799  0.0776  1.2797 -0.0036
 2358SOL    HW3 9486   3.782   0.608   3.805 -2.5926 -0.8718  0.8561
 2358SOL    MW4 9487   3.804   0.531   3.772 -0.3309  0.2913 -0.4079
 2359SOL     OW 9488   3.784   0.779   3.859  0.0072 -0.6304  0.2312
 2359SOL    HW2 9489   3.861   0.826   3.826 -0.2410  0.4315  1.1255
 2359SOL    HW3 9490   3.711   0.812   3.807 -0.1177 -0.2736  0.6313
 2359SOL    MW4 9491   3.785   0.790   3.848 -0.0420 -0.4433  0.4017
 2360SOL     OW 9492   3.566   0.895   3.717 -0.2768  0.2159 -0.2766
 2360SOL    HW2 9493   3.572   0.979   3.762 -0.2952  0.7257 -1.2112
 2360SOL    HW3 9494   3.498   0.847   3.765 -1.4641  1.3821 -0.7511
 2360SOL    MW4 9495   3.558   0.900   3.730 -0.4358  0.4371 -0.4628
 2361SOL     OW 9496   3.594   1.144   3.841  0.2639 -0.7011  0.2358
 2361SOL    HW2 9497   3.666   1.188   3.797 -0.2023  0.1623  0.3385
 2361SOL    HW3 9498   3.517   1.199   3.824 -0.1132 -0.8843  1.2849
 2361SOL    MW4 9499   3.593   1.157   3.833  0.1526 -0.6112  0.3879
 2362SOL     OW 9500   3.821   1.271   3.727  0.2428 -0.0166  0.0468
 2362SOL    HW2 9501   3.902   1.239   3.767 -0.4439 -0.3957  1.1732
 2362SOL    HW3 9502   3.820   1.365   3.747  0.4419  0.0013 -0.0272
 2362SOL    MW4 9503   3.832   1.279   3.735  0.1783 -0.0643  0.1860
 2363SOL     OW 9504   3.824   1.529   3.869 -0.1930 -0.0480 -0.2585
 2363SOL    HW2 9505   3.816   1.527   3.964 -1.7378  0.1339 -0.3680
 2363SOL    HW3 9506   3.751   1.584   3.840  0.1222 -0.2893 -1.5618
 2363SOL    MW4 9507   3.813   1.536   3.877 -0.3552 -0.0558 -0.4449
 2364SOL     OW 9508   3.605   1.677   3.765 -0.4431  0.4528 -0.1019
 2364SOL    HW2 9509   3.535   1.625   3.804  1.4143 -1.8760  0.1973
 2364SOL    HW3 9510   3.606   1.652   3.673  0.2250  0.2033 -0.0312
 2364SOL    MW4 9511   3.596   1.667   3.758 -0.1099  0.1125 -0.0532
 2365SOL     OW 9512   3.618   1.934   3.836  0.0011 -0.2519  0.3936
 2365SOL    HW2 9513   3.612   1.846   3.799  0.4662  0.1975 -0.7629
 2365SOL    HW3 9514   3.546   1.982   3.795  0.2610  0.1349  0.3850
 2365SOL    MW4 9515   3.607   1.929   3.826  0.0968 -0.1416  0.2398
 2366SOL     OW 9516   3.834   2.085   3.770 -0.0121  0.4143  0.0064
 2366SOL    HW2 9517   3.896   2.018   3.800 -0.5561 -0.7910 -1.4935
 2366SOL    HW3 9518   3.749   2.052   3.797 -0.3439  0.1517 -1.3298
 2366SOL    MW4 9519   3.831   2.072   3.778 -0.1276  0.2205 -0.3679
 2367SOL     OW 9520   3.830   2.341   3.870  0.6541 -0.7357 -0.4646
 2367SOL    HW2 9521   3.755   2.381   3.826  1.2006 -0.2111 -0.9165
 2367SOL    HW3 9522   3.830   2.250   3.838 -0.9232 -1.2825  0.9964
 2367SOL    MW4 9523   3.820   2.334   3.860  0.5181 -0.7386 -0.3316
 2368SOL     OW 9524   3.593   2.455   3.789  0.1708 -0.4296  0.2493
 2368SOL    HW2 9525   3.516   2.418   3.834  0.0411  0.6564  0.9405
 2368SOL    HW3 9526   3.577   2.437   3.697 -0.7304 -0.5749  0.4224
 2368SOL    MW4 9527   3.581   2.447   3.783  0.0346 -0.3054  0.3631
 2369SOL     OW 9528   3.605   2.717   3.912  0.1015  0.0552  0.4436
 2369SOL    HW2 9529   3.614   2.630   3.873  0.2777  0.7910 -1.2037
 2369SOL    HW3 9530   3.520   2.750   3.880  0.7004  1.0629 -0.1572
 2369SOL    MW4 9531   3.595   2.710   3.903  0.2038  0.2851  0.1469
 2370SOL     OW 9532   3.822   2.857   3.799  0.2182  0.0449  0.5551
 2370SOL    HW2 9533   3.898   2.803   3.817  0.2324 -0.4519 -0.9943
 2370SOL    HW3 9534   3.754   2.824   3.858  0.9280 -0.0661  1.3218
 2370SOL    MW4 9535   3.823   2.846   3.809  0.3138 -0.0353  0.4518
 2371SOL     OW 9536   3.842   3.132   3.860  0.1356  0.1874  0.3218
 2371SOL    HW2 9537   3.759   3.162   3.825 -0.0255  0.2781  0.7882
 2371SOL    HW3 9538   3.846   3.039   3.836 -0.7824 -0.1909  1.6082
 2371SOL    MW4 9539   3.832   3.124   3.852 -0.0069  0.1495  0.5529
 2372SOL     OW 9540   3.594   3.240   3.768 -0.3727 -0.4252  0.0484
 2372SOL    HW2 9541   3.593   3.329   3.804 -1.2559 -0.2828 -0.3171
 2372SOL    HW3 9542   3.592   3.253   3.673 -0.9416 -0.8399  0.0023
 2372SOL    MW4 9543   3.593   3.254   3.760 -0.5643 -0.4611 -0.0057
 2373SOL     OW 9544   3.572   3.506   3.851 -0.2533 -0.0996 -0.1571
 2373SOL    HW2 9545   3.574   3.494   3.946  0.5989  0.0990 -0.1359
 2373SOL    HW3 9546   3.490   3.552   3.834 -0.9044 -1.0604  0.3603
 2373SOL    MW4 9547   3.562   3.511   3.862 -0.2267 -0.2000 -0.0863
 2374SOL     OW 9548   3.792   3.658   3.795  0.4518 -0.5475  0.1642
 2374SOL    HW2 9549   3.779   3.747   3.826  1.2653  0.3181 -1.9059
 2374SOL    HW3 9550   3.709   3.614   3.814 -0.5444  1.1006 -0.2964
 2374SOL    MW4 9551   3.779   3.664   3.802  0.4277 -0.2160 -0.1698
 2375SOL     OW 9552   3.765   3.896   3.919 -0.7837 -0.5935  0.4894
 2375SOL    HW2 9553   3.773   3.874   4.011  0.3835  1.2254  0.8572
 2375SOL    HW3 9554   3.854   3.921   3.893 -1.3603  0.2049 -0.7657
 2375SOL    MW4 9555   3.778   3.896   3.927 -0.7057 -0.2484  0.3726
 2376SOL     OW 9556   3.568   4.008   3.776  0.0877 -0.3102  0.4136
 2376SOL    HW2 9557   3.556   4.096   3.812  0.3351 -0.0265 -0.1912
 2376SOL    HW3 9558   3.637   3.969   3.829  2.0657  0.9268 -1.1973
 2376SOL    MW4 9559   3.576   4.014   3.788  0.3815 -0.1101  0.1214
 2377SOL     OW 9560   3.576   4.274   3.881  0.6814  0.4405  0.6288
 2377SOL    HW2 9561   3.577   4.286   3.976  2.3027 -0.7111  0.7738
 2377SOL    HW3 9562   3.652   4.322   3.850  0.9718 -0.3685  0.0719
 2377SOL    MW4 9563   3.586   4.282   3.889  0.9336  0.1812  0.5746
 2378SOL     OW 9564   3.788   4.413   3.760 -0.2444  0.0982  0.7169
 2378SOL    HW2 9565   3.854   4.358   3.804  0.8652  1.3420  0.6179
 2378SOL    HW3 9566   3.803   4.398   3.666 -1.1785 -0.8658  0.7114
 2378SOL    MW4 9567   3.799   4.403   3.753 -0.2213  0.1349  0.7031
 2379SOL     OW 9568   4.237   4.627   3.895 -0.1235  0.2543 -0.7520
 2379SOL    HW2 9569   4.258   4.654   3.985 -2.0657  0.8521 -0.4623
 2379SOL    HW3 9570   4.314   4.652   3.844 -0.3514  3.0179  0.1621
 2379SOL    MW4 9571   4.250   4.634   3.900 -0.4096  0.6976 -0.5934
 2380SOL     OW 9572   4.034   0.110   3.749 -0.5170  0.0314  0.0664
 2380SOL    HW2 9573   4.113   0.063   3.776 -0.6389  0.3228  0.9232
 2380SOL    HW3 9574   4.044   0.119   3.654  0.0438 -0.7321  0.0457
 2380SOL    MW4 9575   4.046   0.105   3.740 -0.4597 -0.0309  0.1771
 2381SOL     OW 9576   4.024   0.352   3.839 -0.0683 -0.4319  0.6735
 2381SOL    HW2 9577   4.039   0.334   3.932  3.4060 -2.2325 -0.1104
 2381SOL    HW3 9578   4.017   0.265   3.800  1.1510  0.2435 -1.0861
 2381SOL    MW4 9579   4.025   0.338   3.846  0.5503 -0.5804  0.3378
 2382SOL     OW 9580   4.264   0.500   3.815 -0.0294  0.0875  0.1352
 2382SOL    HW2 9581   4.191   0.439   3.829 -0.6444  1.0912  1.3944
 2382SOL    HW3 9582   4.255   0.527   3.724 -0.6235 -0.5894 -0.0145
 2382SOL    MW4 9583   4.253   0.495   3.805 -0.1884  0.1306  0.2818
 2383SOL     OW 9584   4.285   0.769   3.872  0.1719 -0.4189  0.0973
 2383SOL    HW2 9585   4.194   0.788   3.849  0.5313 -1.5087 -2.3685
 2383SOL    HW3 9586   4.292   0.673   3.865  1.0255 -0.5451  2.2075
 2383SOL    MW4 9587   4.274   0.758   3.868  0.3314 -0.5794  0.0505
 2384SOL     OW 9588   4.021   0.888   3.760 -0.3337  0.3688  0.0606
 2384SOL    HW2 9589   4.035   0.977   3.793  0.8321  0.3366 -0.3179
 2384SOL    HW3 9590   4.039   0.895   3.666  0.9131 -0.5081  0.2249
 2384SOL    MW4 9591   4.025   0.901   3.752 -0.0153  0.2488  0.0327
 2385SOL     OW 9592   4.053   1.142   3.858  0.0992 -0.3117  0.1270
 2385SOL    HW2 9593   4.052   1.155   3.952  1.9966 -1.5154  0.3504
 2385SOL    HW3 9594   4.126   1.196   3.827 -0.2808 -0.2068 -0.6073
 2385SOL    MW4 9595   4.063   1.151   3.866  0.2995 -0.4567  0.0596
 2386SOL     OW 9596   4.245   1.324   3.809  0.2599 -0.1134 -0.3341
 2386SOL    HW2 9597   4.273   1.409   3.842  0.8330  0.4568 -2.2422
 2386SOL    HW3 9598   4.246   1.334   3.714 -0.0051 -2.1409 -0.5608
 2386SOL    MW4 9599   4.249   1.337   3.801  0.3004 -0.3057 -0.6158
 2387SOL     OW 9600   4.306   1.592   3.890 -0.0321  0.2109 -0.2772
 2387SOL    HW2 9601   4.220   1.611   3.853  0.0914  1.9612  0.2696
 2387SOL    HW3 9602   4.368   1.640   3.834  0.6422 -1.4549 -0.9772
 2387SOL    MW4 9603   4.303   1.601   3.878  0.0725  0.2220 -0.2973
 2388SOL     OW 9604   4.051   1.647   3.763  0.5278  0.0590 -0.0440
 2388SOL    HW2 9605   4.036   1.739   3.786  2.1629 -0.1794  2.1451
 2388SOL    HW3 9606   3.980   1.600   3.807  0.9828  0.0759  0.7296
 2388SOL    MW4 9607   4.040   1.653   3.772  0.8035  0.0298  0.3469
 2389SOL     OW 9608   4.039   1.917   3.861 -0.0411  0.2770 -0.6757
 2389SOL    HW2 9609   4.038   1.917   3.957  0.0143  0.7539 -0.6730
 2389SOL    HW3 9610   4.128   1.945   3.838  0.7332 -2.2561 -0.8719
 2389SOL    MW4 9611   4.051   1.921   3.871  0.0682  0.0057 -0.7014
 2390SOL     OW 9612   4.287   2.028   3.763  0.0493  0.1498  0.1428
 2390SOL    HW2 9613   4.301   2.118   3.795  0.2891 -0.1299  0.8357
 2390SOL    HW3 9614   4.284   2.037   3.668 -1.3694  1.0889  0.2589
 2390SOL    MW4 9615   4.289   2.041   3.755 -0.1063  0.2372  0.2499
 2391SOL     OW 9616   4.291   2.275   3.891  0.3219 -0.3181  0.3159
 2391SOL    HW2 9617   4.294   2.298   3.984 -1.5338 -1.3972  0.6607
 2391SOL    HW3 9618   4.219   2.328   3.856  0.2880 -0.7543 -0.2741
 2391SOL    MW4 9619   4.282   2.285   3.898  0.0720 -0.5176  0.2832
 2392SOL     OW 9620   4.064   2.441   3.768 -0.4077 -0.1361  0.2491
 2392SOL    HW2 9621   4.078   2.531   3.798  0.9938 -0.3031  0.1011
 2392SOL    HW3 9622   3.983   2.414   3.813 -0.2262  0.8066  1.1699
 2392SOL    MW4 9623   4.055   2.450   3.778 -0.1979 -0.0336  0.3512
 2393SOL     OW 9624   4.037   2.709   3.868 -0.2312 -0.1313  0.3520
 2393SOL    HW2 9625   4.046   2.712   3.963  0.6976  0.0785  0.2579
 2393SOL    HW3 9626   4.113   2.757   3.834  0.0335 -1.1206 -0.5145
 2393SOL    MW4 9627   4.048   2.716   3.876 -0.0739 -0.2341  0.2251
 2394SOL     OW 9628   4.251   2.848   3.764 -0.5706  0.4164 -0.1864
 2394SOL    HW2 9629   4.255   2.938   3.796 -1.0376  0.4205 -0.1479
 2394SOL    HW3 9630   4.338   2.812   3.785 -0.9124  0.3738  1.2059
 2394SOL    MW4 9631   4.263   2.855   3.771 -0.6771  0.4113  0.0021
 2395SOL     OW 9632   4.229   3.079   3.899 -0.0643 -0.1310 -0.4143
 2395SOL    HW2 9633   4.166   3.138   3.856  0.9474  0.4334 -1.1360
 2395SOL    HW3 9634   4.314   3.122   3.888  0.7048 -1.7719 -1.0315
 2395SOL    MW4 9635   4.232   3.092   3.892  0.1707 -0.2730 -0.5910
 2396SOL     OW 9636   4.047   3.262   3.756  0.3401  0.1931 -0.1162
 2396SOL    HW2 9637   3.971   3.218   3.795  0.8026  0.3933  1.0267
 2396SOL    HW3 9638   4.038   3.245   3.663 -1.0993  0.1786 -0.0010
 2396SOL    MW4 9639   4.036   3.254   3.749  0.2112  0.2177  0.0498
 2397SOL     OW 9640   4.049   3.540   3.851  0.6434  0.3478  0.4519
 2397SOL    HW2 9641   4.043   3.450   3.818  0.2600  0.1547  1.0358
 2397SOL    HW3 9642   3.961   3.575   3.838  1.1060  1.0550 -0.9254
 2397SOL    MW4 9643   4.036   3.532   3.845  0.6537  0.4156  0.3469
 2398SOL     OW 9644   4.308   3.644   3.795  0.2676 -0.1872 -0.2259
 2398SOL    HW2 9645   4.219   3.612   3.811  0.6142 -0.2408  1.7818
 2398SOL    HW3 9646   4.365   3.583   3.843  1.2076  1.1416  0.4032
 2398SOL    MW4 9647   4.304   3.632   3.803  0.4373 -0.0186  0.1218
 2399SOL     OW 9648   4.288   3.908   3.853 -0.2169 -0.7616  0.2730
 2399SOL    HW2 9649   4.195   3.927   3.844  0.1531 -0.2608 -3.2519
 2399SOL    HW3 9650   4.295   3.815   3.831  0.1851 -0.5873 -0.3685
 2399SOL    MW4 9651   4.276   3.898   3.849 -0.1149 -0.6726 -0.2768
 2400SOL     OW 9652   4.021   3.986   3.816  0.3289  0.3521  0.1670
 2400SOL    HW2 9653   4.003   4.075   3.846 -0.4390  0.0634  0.5765
 2400SOL    HW3 9654   4.019   3.992   3.720 -0.3386  0.6557  0.1961
 2400SOL    MW4 9655   4.019   3.999   3.807  0.1397  0.3543  0.2246
 2401SOL     OW 9656   4.003   4.255   3.878 -0.0913 -0.0698 -0.3839
 2401SOL    HW2 9657   4.017   4.259   3.972 -1.1613  1.2130 -0.2584
 2401SOL    HW3 9658   4.086   4.285   3.840  0.8575 -2.0228  0.0990
 2401SOL    MW4 9659   4.016   4.259   3.885 -0.1068 -0.1583 -0.3037
 2402SOL     OW 9660   4.238   4.372   3.784  0.1227  0.2530  0.1650
 2402SOL    HW2 9661   4.232   4.455   3.831  0.9599  0.0773  0.6033
 2402SOL    HW3 9662   4.328   4.343   3.799  0.0276 -0.4147 -0.5237
 2402SOL    MW4 9663   4.249   4.379   3.792  0.2203  0.1416  0.1318
 2403SOL     OW 9664   0.071   0.108   4.275 -0.1264  0.0944  0.0606
 2403SOL    HW2 9665   0.060   0.198   4.242 -0.6726  0.0047 -0.0170
 2403SOL    HW3 9666   0.118   0.062   4.205 -0.7313  0.0652 -0.3322
 2403SOL    MW4 9667   0.076   0.114   4.261 -0.2782  0.0787 -0.0019
 2404SOL     OW 9668   0.409   0.340   4.140  0.5021  0.3455 -0.0922
 2404SOL    HW2 9669   0.348   0.405   4.174 -1.6751 -1.5658 -0.2355
 2404SOL    HW3 9670   0.409   0.354   4.046 -2.1501 -1.5853 -0.4572
 2404SOL    MW4 9671   0.401   0.350   4.132 -0.1351 -0.1614 -0.1593
 2405SOL     OW 9672   0.609   1.290   4.573 -0.2520 -0.2270  0.2567
 2405SOL    HW2 9673   0.611   1.195   4.587 -0.2846 -0.4854 -1.4140
 2405SOL    HW3 9674   0.521   1.306   4.538  0.0909  0.2908 -0.3595
 2405SOL    MW4 9675   0.597   1.279   4.570 -0.2111 -0.1926 -0.0453
 2406SOL     OW 9676   3.879   1.005   4.603  0.1477  0.3816  0.2310
 2406SOL    HW2 9677   3.894   1.022   4.697  0.2910  0.3038  0.2224
 2406SOL    HW3 9678   3.858   1.091   4.567  1.0815  0.5786  0.1488
 2406SOL    MW4 9679   3.878   1.019   4.611  0.2897  0.3973  0.2193
 2407SOL     OW 9680   4.446   0.938   4.242 -0.0405  0.4516 -0.0437
 2407SOL    HW2 9681   4.375   0.885   4.207  0.3746  0.1500 -0.4282
 2407SOL    HW3 9682   4.415   0.967   4.328 -0.3157 -0.3074  0.1108
 2407SOL    MW4 9683   4.433   0.935   4.249 -0.0224  0.3117 -0.0739
 2408SOL     OW 9684   1.563   2.076   4.579  0.0405 -0.0746 -0.2562
 2408SOL    HW2 9685   1.629   2.124   4.629  0.2589 -1.8828  1.2540
 2408SOL    HW3 9686   1.595   1.986   4.578 -2.2674 -0.9270  0.2258
 2408SOL    MW4 9687   1.576   2.070   4.585 -0.2352 -0.4258  0.0067
 2409SOL     OW 9688   4.472   1.198   4.164  0.2792 -0.1406 -0.0128
 2409SOL    HW2 9689   4.475   1.197   4.068 -2.3012  0.5321 -0.1374
 2409SOL    HW3 9690   4.481   1.106   4.189  3.0225 -0.1194 -0.7788
 2409SOL    MW4 9691   4.474   1.186   4.155  0.3009 -0.0490 -0.1302
 2410SOL     OW 9692   1.137   0.040   4.629  0.1603  0.4537 -0.5314
 2410SOL    HW2 9693   1.220  -0.002   4.606 -0.1387  0.0969 -0.9653
 2410SOL    HW3 9694   1.151   0.133   4.610  0.5656  0.4447 -0.2979
 2410SOL    MW4 9695   1.150   0.047   4.624  0.1743  0.4054 -0.5574
 2411SOL     OW 9696   3.831   4.389   4.242  0.0270  0.0803  0.4058
 2411SOL    HW2 9697   3.841   4.468   4.189  1.8218  0.2624  1.0070
 2411SOL    HW3 9698   3.903   4.332   4.215 -0.1405 -0.5891  1.3269
 2411SOL    MW4 9699   3.842   4.392   4.231  0.2420  0.0162  0.6065
 2412SOL     OW 9700   1.044   1.518   4.664 -0.4385  0.2616  0.2711
 2412SOL    HW2 9701   1.132   1.501   4.697 -1.0623 -0.2300  1.7293
 2412SOL    HW3 9702   1.045   1.610   4.641  0.5989  0.1509 -0.1675
 2412SOL    MW4 9703   1.056   1.528   4.666 -0.3840  0.1822  0.4053
 2413SOL     OW 9704   2.084   3.218   4.621  0.2762  0.0532  0.1271
 2413SOL    HW2 9705   2.100   3.309   4.594  0.4822  0.0386  0.2037
 2413SOL    HW3 9706   2.154   3.168   4.580 -1.4234 -0.4840 -2.2409
 2413SOL    MW4 9707   2.095   3.224   4.612  0.0792 -0.0196 -0.1755
 2414SOL     OW 9708   1.384   0.161   4.235  0.1638 -0.1948 -0.0917
 2414SOL    HW2 9709   1.308   0.109   4.208  0.2151  0.8875 -2.4466
 2414SOL    HW3 9710   1.460   0.108   4.211  0.1703 -0.6440  0.9211
 2414SOL    MW4 9711   1.384   0.147   4.228  0.1715 -0.1113 -0.2685
 2415SOL     OW 9712   4.357   2.797   4.528 -0.3958 -0.2780 -0.4583
 2415SOL    HW2 9713   4.413   2.719   4.526  0.4080  0.3247 -2.2204
 2415SOL    HW3 9714   4.339   2.816   4.436 -0.4288  1.7290 -0.0564
 2415SOL    MW4 9715   4.362   2.789   4.516 -0.2942  0.0660 -0.6380
 2416SOL     OW 9716   4.327   3.584   4.550  0.0151 -0.2742  0.0540
 2416SOL    HW2 9717   4.359   3.496   4.527 -0.6599 -0.4485 -0.2060
 2416SOL    HW3 9718   4.407   3.636   4.561  0.3520 -0.3498 -1.9796
 2416SOL    MW4 9719   4.342   3.579   4.549 -0.0296 -0.3068 -0.2484
 2417SOL     OW 9720   0.182   4.163   4.644  0.2731  0.1560 -0.1964
 2417SOL    HW2 9721   0.135   4.247   4.647  1.2287  0.7032 -0.4794
 2417SOL    HW3 9722   0.247   4.169   4.713 -0.6344 -0.9587  0.7866
 2417SOL    MW4 9723   0.184   4.175   4.653  0.2795  0.0815 -0.1044
 2418SOL     OW 9724   0.224   0.513   4.226 -0.0440 -0.8299 -0.2280
 2418SOL    HW2 9725   0.148   0.462   4.198 -0.1188 -1.1444  0.5291
 2418SOL    HW3 9726   0.201   0.603   4.202 -0.1786 -1.0613 -0.9959
 2418SOL    MW4 9727   0.211   0.518   4.219 -0.0716 -0.9019 -0.2298
 2419SOL     OW 9728   0.492   3.293   4.257 -0.5285  0.4729  0.4836
 2419SOL    HW2 9729   0.467   3.375   4.214  1.4885  0.8921  0.0667
 2419SOL    HW3 9730   0.531   3.320   4.340 -0.1889 -0.0727  0.5060
 2419SOL    MW4 9731   0.494   3.308   4.262 -0.2176  0.4561  0.4311
 2420SOL     OW 9732   0.264   3.115   4.156 -0.2440 -0.0505 -0.0983
 2420SOL    HW2 9733   0.336   3.170   4.188 -0.2033 -0.4677  0.5214
 2420SOL    HW3 9734   0.185   3.167   4.172 -0.2261 -0.2630  0.6989
 2420SOL    MW4 9735   0.263   3.129   4.162 -0.2363 -0.1338  0.0887
 2421SOL     OW 9736   4.477   3.518   4.197  0.2140 -0.1266 -0.3477
 2421SOL    HW2 9737   4.408   3.560   4.249 -1.1029 -1.0143 -1.3437
 2421SOL    HW3 9738   4.450   3.531   4.106  1.1556 -0.8334 -0.7395
 2421SOL    MW4 9739   4.464   3.526   4.192  0.1640 -0.3371 -0.5312
 2422SOL     OW 9740   4.023   3.959   4.217  0.4145  0.1537 -0.1388
 2422SOL    HW2 9741   4.034   3.932   4.308  0.3221 -1.3771 -0.5629
 2422SOL    HW3 9742   4.109   3.945   4.177  0.8767  2.2899  0.0713
 2422SOL    MW4 9743   4.036   3.954   4.224  0.4640  0.2337 -0.1669
 2423SOL     OW 9744   4.248   1.288   4.285  0.1344 -0.0975  0.5402
 2423SOL    HW2 9745   4.250   1.383   4.273  0.2375  0.1622  2.3779
 2423SOL    HW3 9746   4.326   1.257   4.239 -0.4908  0.5714 -1.0179
 2423SOL    MW4 9747   4.259   1.297   4.278  0.0658  0.0249  0.5774
 2424SOL     OW 9748   3.408   2.007   4.482 -0.1168  0.2410  0.1639
 2424SOL    HW2 9749   3.405   1.979   4.391  0.3303  0.9117 -0.0634
 2424SOL    HW3 9750   3.409   1.925   4.533 -2.3132 -0.1481 -0.3441
 2424SOL    MW4 9751   3.407   1.992   4.477 -0.3476  0.2781  0.0663
 2425SOL     OW 9752   4.181   2.043   4.472 -0.0758 -0.2540 -0.1482
 2425SOL    HW2 9753   4.206   1.961   4.515 -0.6703 -0.4897 -0.2526
 2425SOL    HW3 9754   4.127   2.089   4.536 -0.0579 -0.1125 -0.2342
 2425SOL    MW4 9755   4.177   2.038   4.486 -0.1516 -0.2666 -0.1731
 2426SOL     OW 9756   0.232   3.894   4.142  0.1225 -0.0848  0.4762
 2426SOL    HW2 9757   0.217   3.810   4.185  0.4303 -0.4291 -0.0797
 2426SOL    HW3 9758   0.318   3.922   4.174  0.6519 -0.6619 -0.4174
 2426SOL    MW4 9759   0.242   3.887   4.152  0.2329 -0.2062  0.2847
 2427SOL     OW 9760   1.999   3.926   4.640  0.4903 -0.1666  0.2271
 2427SOL    HW2 9761   2.090   3.933   4.613  0.6130 -0.2552  0.6173
 2427SOL    HW3 9762   1.997   3.963   4.728 -0.1752  1.5014 -0.4608
 2427SOL    MW4 9763   2.011   3.932   4.648  0.4187  0.0420  0.1879
 2428SOL     OW 9764   0.721   4.618   4.129 -0.3457 -0.0566  0.0412
 2428SOL    HW2 9765   0.735   4.523   4.120  1.5172  0.2328 -0.2988
 2428SOL    HW3 9766   0.689   4.645   4.043  0.2758 -0.1917 -0.2359
 2428SOL    MW4 9767   0.719   4.609   4.116 -0.0179 -0.0362 -0.0401
 2429SOL     OW 9768   0.437   1.655   4.309  0.1797  0.0999  0.0426
 2429SOL    HW2 9769   0.409   1.642   4.399  1.5201 -0.2092  0.4187
 2429SOL    HW3 9770   0.433   1.749   4.295 -0.9707  0.0627  0.1145
 2429SOL    MW4 9771   0.433   1.665   4.319  0.2047  0.0542  0.1020
 2430SOL     OW 9772   1.347   1.649   4.250 -0.3420 -0.5014 -0.3098
 2430SOL    HW2 9773   1.420   1.601   4.212  0.2768  0.1511  0.0377
 2430SOL    HW3 9774   1.271   1.622   4.199  0.4755  0.4015 -2.0353
 2430SOL    MW4 9775   1.347   1.639   4.238 -0.1526 -0.2961 -0.4916
 2431SOL     OW 9776   0.409   0.943   4.197  0.2932 -0.3428  0.4879
 2431SOL    HW2 9777   0.489   0.895   4.176 -0.2814 -0.9882 -0.2816
 2431SOL    HW3 9778   0.433   1.036   4.188  0.8499 -0.5419 -0.1195
 2431SOL    MW4 9779   0.423   0.949   4.193  0.2908 -0.4542  0.3061
 2432SOL     OW 9780   2.061   2.872   4.500 -0.3266 -0.2540 -0.1340
 2432SOL    HW2 9781   2.108   2.942   4.546  0.4312 -0.3468 -0.7573
 2432SOL    HW3 9782   1.971   2.878   4.533 -0.1431  0.6697  0.2177
 2432SOL    MW4 9783   2.055   2.882   4.510 -0.2024 -0.1445 -0.1698
 2433SOL     OW 9784   1.873   3.686   4.554 -0.1892  0.1105 -0.2256
 2433SOL    HW2 9785   1.927   3.762   4.576 -0.3100 -0.1514  0.9976
 2433SOL    HW3 9786   1.784   3.712   4.578 -0.3183 -0.1836 -0.3888
 2433SOL    MW4 9787   1.868   3.699   4.560 -0.2221  0.0370 -0.0858
 2434SOL     OW 9788   0.210   1.323   4.266  0.2223 -0.1169  0.1920
 2434SOL    HW2 9789   0.276   1.273   4.217  0.3221  0.5088 -0.3240
 2434SOL    HW3 9790   0.127   1.299   4.225  0.2526  0.0010  0.0597
 2434SOL    MW4 9791   0.207   1.313   4.254  0.2394 -0.0188  0.1059
 2435SOL     OW 9792   0.685   1.561   4.183 -0.4551  0.2521 -0.1451
 2435SOL    HW2 9793   0.607   1.599   4.222  0.1359  0.7860  0.5455
 2435SOL    HW3 9794   0.662   1.547   4.091 -0.7890  2.0570 -0.3605
 2435SOL    MW4 9795   0.672   1.564   4.176 -0.4211  0.5606 -0.0820
 2436SOL     OW 9796   2.126   0.763   4.575 -0.2110 -0.0038 -0.9277
 2436SOL    HW2 9797   2.110   0.669   4.584  1.3297 -0.2667 -0.6561
 2436SOL    HW3 9798   2.041   0.801   4.556 -0.6449 -1.6179 -2.2712
 2436SOL    MW4 9799   2.113   0.756   4.574 -0.0648 -0.2515 -1.0691
 2437SOL     OW 9800   1.443   1.530   4.484 -0.0848 -0.0530 -0.0192
 2437SOL    HW2 9801   1.534   1.557   4.479 -0.0957  0.1649  0.7939
 2437SOL    HW3 9802   1.402   1.569   4.407  0.3856  0.3494 -0.0661
 2437SOL    MW4 9803   1.449   1.539   4.473 -0.0243  0.0288  0.0820
 2438SOL     OW 9804   0.892   1.721   4.233  0.0842  0.7347  0.1874
 2438SOL    HW2 9805   0.905   1.725   4.328 -1.3318  2.3050  0.3385
 2438SOL    HW3 9806   0.819   1.660   4.222  0.0293  0.8156  0.1120
 2438SOL    MW4 9807   0.884   1.713   4.244 -0.1099  0.9526  0.1974
 2439SOL     OW 9808   0.675   2.316   4.178  0.2525  0.0979  0.5209
 2439SOL    HW2 9809   0.652   2.227   4.203 -2.6004  0.6327 -0.0707
 2439SOL    HW3 9810   0.680   2.315   4.083  2.0687  0.1614  0.5994
 2439SOL    MW4 9811   0.673   2.304   4.169  0.1157  0.1769  0.4535
 2440SOL     OW 9812   0.264   2.348   4.119 -0.0159 -0.5604  0.3228
 2440SOL    HW2 9813   0.240   2.261   4.152  0.5619 -0.1859  1.8064
 2440SOL    HW3 9814   0.332   2.378   4.180  2.7685 -0.7559 -2.5677
 2440SOL    MW4 9815   0.270   2.340   4.132  0.4277 -0.5369  0.1369
 2441SOL     OW 9816   0.452   2.719   4.124 -0.1441 -0.2279  0.0247
 2441SOL    HW2 9817   0.437   2.740   4.032  1.5646  0.6821 -0.0793
 2441SOL    HW3 9818   0.379   2.760   4.170  0.4001  1.5997 -0.6902
 2441SOL    MW4 9819   0.441   2.727   4.118  0.1531  0.1333 -0.0834
 2442SOL     OW 9820   0.665   2.853   4.247 -0.3121 -0.4412 -0.3710
 2442SOL    HW2 9821   0.734   2.806   4.199 -0.7604 -0.6312 -0.8423
 2442SOL    HW3 9822   0.584   2.811   4.218 -0.5873 -0.5561  0.5697
 2442SOL    MW4 9823   0.663   2.841   4.237 -0.4075 -0.4816 -0.3095
 2443SOL     OW 9824   3.291   2.212   4.785 -0.2053 -0.4780 -0.5024
 2443SOL    HW2 9825   3.263   2.176   4.701 -0.1034  0.5808 -0.9905
 2443SOL    HW3 9826   3.217   2.198   4.844 -0.2760 -1.2233 -0.7623
 2443SOL    MW4 9827   3.278   2.205   4.782 -0.2012 -0.4365 -0.6013
 2444SOL     OW 9828   1.570   2.874   4.170 -0.8637 -0.0488  0.1067
 2444SOL    HW2 9829   1.646   2.839   4.124  0.3903  0.6128  1.6550
 2444SOL    HW3 9830   1.571   2.968   4.150 -0.5166  0.1802  1.1961
 2444SOL    MW4 9831   1.580   2.882   4.161 -0.6524  0.0687  0.4549
 2445SOL     OW 9832   0.446   3.559   4.186  0.1753  0.0767 -0.4661
 2445SOL    HW2 9833   0.362   3.598   4.211 -0.4875 -0.9238 -1.1123
 2445SOL    HW3 9834   0.445   3.557   4.091  1.2175  0.6634 -0.4957
 2445SOL    MW4 9835   0.435   3.564   4.177  0.2253  0.0219 -0.5555
 2446SOL     OW 9836   0.458   4.276   4.162 -0.0023  0.3620 -0.0640
 2446SOL    HW2 9837   0.393   4.329   4.207  0.6354  0.7200  0.4419
 2446SOL    HW3 9838   0.435   4.284   4.069 -0.9775  0.0735  0.1472
 2446SOL    MW4 9839   0.447   4.284   4.155 -0.0468  0.3710  0.0305
 2447SOL     OW 9840   1.096   3.094   4.156  0.4738 -0.1952  0.2258
 2447SOL    HW2 9841   1.022   3.141   4.194 -0.1683 -0.7208 -0.3557
 2447SOL    HW3 9842   1.173   3.136   4.194 -0.1358 -0.2996  1.6333
 2447SOL    MW4 9843   1.096   3.106   4.166  0.3089 -0.2782  0.3352
 2448SOL     OW 9844   1.081   2.584   4.520 -0.3911 -0.2134  0.1246
 2448SOL    HW2 9845   1.003   2.530   4.538  0.8912 -1.2497  2.8751
 2448SOL    HW3 9846   1.153   2.521   4.515  0.7989  1.0454  1.1662
 2448SOL    MW4 9847   1.080   2.568   4.522 -0.0648 -0.1843  0.6251
 2449SOL     OW 9848   3.079   0.678   4.672  0.1652 -0.2116  0.5140
 2449SOL    HW2 9849   3.132   0.612   4.626 -1.4702 -0.1229 -1.5750
 2449SOL    HW3 9850   3.113   0.761   4.639  0.6030 -0.0610  1.3285
 2449SOL    MW4 9851   3.091   0.680   4.662  0.0072 -0.1801  0.3462
 2450SOL     OW 9852   0.237   4.406   4.257 -0.1088  0.3550  0.3074
 2450SOL    HW2 9853   0.162   4.370   4.209  0.9094 -0.2898 -0.8301
 2450SOL    HW3 9854   0.200   4.436   4.340 -1.4158 -1.0996  0.2765
 2450SOL    MW4 9855   0.222   4.405   4.262 -0.1469  0.0772  0.1531
 2451SOL     OW 9856   0.958   3.947   4.613  0.3957 -0.2141  0.4935
 2451SOL    HW2 9857   0.902   3.871   4.628  0.1327 -0.0479  0.3581
 2451SOL    HW3 9858   0.941   3.972   4.523  0.7052 -0.1759  0.4453
 2451SOL    MW4 9859   0.949   3.940   4.603  0.4018 -0.1869  0.4683
 2452SOL     OW 9860   0.921   0.037   4.309 -0.0415  0.2279  0.4651
 2452SOL    HW2 9861   0.909   0.002   4.397 -2.1357 -0.1403  0.0425
 2452SOL    HW3 9862   0.845   0.006   4.260 -0.1477  2.4589 -0.8249
 2452SOL    MW4 9863   0.910   0.028   4.314 -0.3318  0.4736  0.2389
 2453SOL     OW 9864   0.678   0.602   4.296  0.1397  0.0687 -0.0245
 2453SOL    HW2 9865   0.747   0.599   4.363 -0.9031 -1.2443  1.0499
 2453SOL    HW3 9866   0.597   0.599   4.347 -0.6672 -1.8518 -1.3643
 2453SOL    MW4 9867   0.677   0.601   4.312 -0.1043 -0.3580 -0.0596
 2454SOL     OW 9868   3.530   4.292   4.599  0.2176  0.4494 -0.1699
 2454SOL    HW2 9869   3.532   4.198   4.584  0.3183  0.3473  0.4526
 2454SOL    HW3 9870   3.621   4.320   4.588  0.5081  0.1852  1.3443
 2454SOL    MW4 9871   3.542   4.284   4.596  0.2692  0.4010  0.1125
 2455SOL     OW 9872   2.748   1.556   4.475 -0.3857 -0.5379 -0.3473
 2455SOL    HW2 9873   2.686   1.599   4.534 -0.9273 -0.1882 -1.1711
 2455SOL    HW3 9874   2.747   1.464   4.502 -0.0497 -0.2507  0.6966
 2455SOL    MW4 9875   2.740   1.550   4.487 -0.4127 -0.4538 -0.3185
 2456SOL     OW 9876   0.011   0.358   4.139 -0.1287  0.1867 -0.4508
 2456SOL    HW2 9877  -0.071   0.383   4.182 -0.3598  0.8605 -1.2564
 2456SOL    HW3 9878  -0.012   0.351   4.047  0.6613  0.1065 -0.6445
 2456SOL    MW4 9879  -0.003   0.360   4.133 -0.0550  0.2650 -0.5827
 2457SOL     OW 9880   0.856   1.183   4.126 -0.5762  0.4444 -0.0742
 2457SOL    HW2 9881   0.867   1.098   4.169 -0.7524  1.1117  1.3082
 2457SOL    HW3 9882   0.802   1.234   4.187 -1.5055  1.1360 -1.4571
 2457SOL    MW4 9883   0.851   1.178   4.140 -0.7221  0.6235 -0.0739
 2458SOL     OW 9884   1.073   1.306   4.218  0.1777 -0.2030 -0.4662
 2458SOL    HW2 9885   1.005   1.260   4.169  0.9845 -0.6992 -1.1470
 2458SOL    HW3 9886   1.044   1.301   4.309 -1.6712  1.3270 -0.9437
 2458SOL    MW4 9887   1.060   1.299   4.224  0.0403 -0.0665 -0.6189
 2459SOL     OW 9888   1.108   1.575   4.129 -0.4501  0.0299  0.1447
 2459SOL    HW2 9889   1.056   1.641   4.175  2.0188  1.8564  0.4312
 2459SOL    HW3 9890   1.090   1.494   4.176 -1.2719  1.0513  1.6575
 2459SOL    MW4 9891   1.099   1.573   4.142 -0.2327  0.4057  0.3824
 2460SOL     OW 9892   0.871   1.978   4.171 -0.0267  0.0453 -0.4050
 2460SOL    HW2 9893   0.846   1.982   4.079  1.1038 -0.6403 -0.7577
 2460SOL    HW3 9894   0.887   1.885   4.188 -0.1310  0.1790  0.4502
 2460SOL    MW4 9895   0.870   1.966   4.161  0.1088 -0.0275 -0.3381
 2461SOL     OW 9896   0.656   2.067   4.319 -0.2856 -0.0178  0.2536
 2461SOL    HW2 9897   0.746   2.053   4.289 -0.5266 -0.7407 -0.1256
 2461SOL    HW3 9898   0.665   2.122   4.397  0.6801 -2.4010  1.8897
 2461SOL    MW4 9899   0.669   2.073   4.326 -0.1899 -0.4275  0.4196
 2462SOL     OW 9900   1.126   2.342   4.185  0.1266  0.0200  0.2982
 2462SOL    HW2 9901   1.202   2.390   4.219  1.1153 -0.9308 -0.5500
 2462SOL    HW3 9902   1.051   2.399   4.205  1.0153  0.8222  1.4169
 2462SOL    MW4 9903   1.126   2.356   4.192  0.3742  0.0005  0.3338
 2463SOL     OW 9904   1.368   2.470   4.245 -0.1764  0.0980  0.4840
 2463SOL    HW2 9905   1.445   2.425   4.211 -0.5854 -0.2292  0.0015
 2463SOL    HW3 9906   1.363   2.551   4.194  0.1116  0.3387  0.8308
 2463SOL    MW4 9907   1.378   2.475   4.234 -0.1923  0.0865  0.4663
 2464SOL     OW 9908   2.522   0.023   4.645  0.3507 -0.3067 -0.2887
 2464SOL    HW2 9909   2.607   0.068   4.642  0.1892 -0.0686 -1.2708
 2464SOL    HW3 9910   2.540  -0.065   4.613  0.5177 -0.7308  0.9316
 2464SOL    MW4 9911   2.536   0.017   4.641  0.3514 -0.3312 -0.2575
 2465SOL     OW 9912   0.895   2.739   4.149  0.0185 -0.4548  0.2068
 2465SOL    HW2 9913   0.892   2.648   4.179  1.6305 -1.4124 -2.3744
 2465SOL    HW3 9914   0.979   2.773   4.181  0.2111 -0.4362 -0.3051
 2465SOL    MW4 9915   0.906   2.732   4.157  0.2567 -0.5789 -0.2017
 2466SOL     OW 9916   1.397   4.242   4.183  0.6678 -0.2325  0.9014
 2466SOL    HW2 9917   1.380   4.244   4.088  1.3699 -0.0046  0.7796
 2466SOL    HW3 9918   1.327   4.297   4.220  0.2192 -0.5547  0.5451
 2466SOL    MW4 9919   1.385   4.250   4.175  0.7012 -0.2446  0.8378
 2467SOL     OW 9920   1.111   3.070   3.880  0.4885  0.1130  0.0869
 2467SOL    HW2 9921   1.108   3.073   3.976  1.3431  0.9156  0.1056
 2467SOL    HW3 9922   1.033   3.118   3.853  0.3681  0.0905  0.3848
 2467SOL    MW4 9923   1.100   3.077   3.889  0.5853  0.2160  0.1287
 2468SOL     OW 9924   0.673   3.126   4.161  0.2031  0.2322  0.2672
 2468SOL    HW2 9925   0.599   3.176   4.196  0.7543  1.1228  0.1771
 2468SOL    HW3 9926   0.669   3.043   4.207 -0.1111  0.7435  1.1840
 2468SOL    MW4 9927   0.663   3.122   4.171  0.2345  0.4170  0.3757
 2469SOL     OW 9928   0.883   3.527   4.151  0.0703  0.4088 -0.0419
 2469SOL    HW2 9929   0.891   3.438   4.185  0.5914  1.1094  1.7436
 2469SOL    HW3 9930   0.889   3.517   4.056  2.4907 -1.2177  0.2217
 2469SOL    MW4 9931   0.885   3.514   4.143  0.4584  0.2866  0.2284
 2470SOL     OW 9932   1.095   3.647   4.280  0.0427  0.0258 -0.1799
 2470SOL    HW2 9933   1.170   3.601   4.242 -0.0954 -0.1524 -0.2393
 2470SOL    HW3 9934   1.019   3.611   4.235 -0.1335 -0.2895  0.3598
 2470SOL    MW4 9935   1.095   3.636   4.269  0.0012 -0.0389 -0.1163
 2471SOL     OW 9936   0.177   0.802   4.157  0.0490  0.2060 -0.2859
 2471SOL    HW2 9937   0.261   0.845   4.172 -0.2394  0.6808 -0.0264
 2471SOL    HW3 9938   0.115   0.850   4.211 -0.4662  0.1065 -0.7821
 2471SOL    MW4 9939   0.180   0.814   4.166 -0.0570  0.2555 -0.3171
 2472SOL     OW 9940   2.076   3.496   4.485 -0.0438  0.0413 -0.4277
 2472SOL    HW2 9941   2.004   3.534   4.536  1.6771  0.6002  1.6130
 2472SOL    HW3 9942   2.152   3.550   4.507  1.7435 -2.6166  0.0493
 2472SOL    MW4 9943   2.076   3.508   4.494  0.4189 -0.2356 -0.0954
 2473SOL     OW 9944   1.172   4.644   4.169 -0.0168  0.1819 -0.3102
 2473SOL    HW2 9945   1.085   4.667   4.203 -0.2363  0.2731 -0.9316
 2473SOL    HW3 9946   1.160   4.638   4.074  0.8594  1.1350 -0.4966
 2473SOL    MW4 9947   1.159   4.646   4.161  0.0700  0.3200 -0.4168
 2474SOL     OW 9948   0.915   4.295   4.319 -0.1370 -0.4431 -0.7908
 2474SOL    HW2 9949   0.913   4.201   4.336 -0.2381 -0.3976 -0.5517
 2474SOL    HW3 9950   0.878   4.334   4.398  1.0910 -0.1300 -0.3609
 2474SOL    MW4 9951   0.910   4.288   4.332  0.0117 -0.3958 -0.7024
 2475SOL     OW 9952   3.854   2.884   4.276  0.0010 -0.3423 -0.0731
 2475SOL    HW2 9953   3.823   2.957   4.223 -1.1855  0.1543  1.2727
 2475SOL    HW3 9954   3.785   2.818   4.268 -1.5005  0.7655  2.9354
 2475SOL    MW4 9955   3.841   2.885   4.268 -0.3538 -0.1304  0.5012
 2476SOL     OW 9956   1.128   2.071   4.252  0.0450 -0.2860 -0.0134
 2476SOL    HW2 9957   1.151   2.162   4.237 -0.5951 -0.2414 -0.7538
 2476SOL    HW3 9958   1.051   2.056   4.197  0.3988 -1.3870 -0.2271
 2476SOL    MW4 9959   1.121   2.081   4.243  0.0073 -0.4253 -0.1392
 2477SOL     OW 9960   0.559   1.726   4.700 -0.0178 -0.6671  0.3618
 2477SOL    HW2 9961   0.597   1.787   4.636  0.2778 -1.0442  0.1762
 2477SOL    HW3 9962   0.626   1.659   4.712 -0.3601 -0.9774  0.5382
 2477SOL    MW4 9963   0.573   1.725   4.693 -0.0240 -0.7579  0.3600
 2478SOL     OW 9964   1.147   3.904   4.214  0.3122 -0.1737  0.2459
 2478SOL    HW2 9965   1.134   3.814   4.244 -0.5808 -0.2720 -0.4181
 2478SOL    HW3 9966   1.235   3.927   4.245 -0.2697 -0.5376  2.2076
 2478SOL    MW4 9967   1.157   3.895   4.222  0.1175 -0.2346  0.4168
 2479SOL     OW 9968   1.538   0.782   3.850  0.0500  0.2384 -0.0381
 2479SOL    HW2 9969   1.615   0.829   3.817  0.3172 -0.4531 -0.4009
 2479SOL    HW3 9970   1.463   0.834   3.821  0.3733  0.7885  0.1157
 2479SOL    MW4 9971   1.538   0.795   3.842  0.1279  0.2198 -0.0656
 2480SOL     OW 9972   1.596   2.626   4.851 -0.3278  0.1301  0.1636
 2480SOL    HW2 9973   1.527   2.601   4.912 -0.5144 -1.5434 -0.7003
 2480SOL    HW3 9974   1.659   2.554   4.856  0.8226  1.1192  0.1391
 2480SOL    MW4 9975   1.596   2.613   4.860 -0.2006  0.0398  0.0463
 2481SOL     OW 9976   1.341   0.924   4.234  0.0297  0.6809  0.2084
 2481SOL    HW2 9977   1.333   1.008   4.188  0.7730  0.1969 -0.8244
 2481SOL    HW3 9978   1.418   0.883   4.195 -0.4873 -0.6065  0.5207
 2481SOL    MW4 9979   1.350   0.930   4.223  0.0596  0.4472  0.1130
 2482SOL     OW 9980   2.357   1.235   4.501  0.4737  0.1513 -0.5405
 2482SOL    HW2 9981   2.344   1.140   4.505  0.2745  0.2076  0.1074
 2482SOL    HW3 9982   2.433   1.251   4.557  1.9572  0.1051 -2.4680
 2482SOL    MW4 9983   2.365   1.224   4.509  0.6430  0.1527 -0.7095
 2483SOL     OW 9984   2.008   1.252   4.230  0.5863 -0.0910  0.2133
 2483SOL    HW2 9985   1.991   1.339   4.193  0.6882  0.2548  0.9891
 2483SOL    HW3 9986   1.935   1.199   4.199  0.9668  0.0533 -0.9731
 2483SOL    MW4 9987   1.997   1.257   4.221  0.6502 -0.0263  0.1588
 2484SOL     OW 9988   1.786   1.972   4.131 -0.1974 -0.0519 -0.3035
 2484SOL    HW2 9989   1.867   2.013   4.160 -0.0297 -0.6668  0.1121
 2484SOL    HW3 9990   1.718   2.010   4.188 -0.1872  0.3883 -0.5851
 2484SOL    MW4 9991   1.787   1.982   4.143 -0.1740 -0.0749 -0.2856
 2485SOL     OW 9992   1.371   1.927   4.199  0.1534 -0.4920 -0.1293
 2485SOL    HW2 9993   1.288   1.973   4.205  0.6979  0.4926 -0.0492
 2485SOL    HW3 9994   1.350   1.836   4.218 -0.8432 -0.1880  0.2270
 2485SOL    MW4 9995   1.358   1.921   4.202  0.0937 -0.3221 -0.0715
 2486SOL     OW 9996   2.054   3.845   4.177  0.0250  0.1136 -0.1192
 2486SOL    HW2 9997   2.035   3.841   4.083 -1.7249 -2.4333  0.3063
 2486SOL    HW3 9998   1.974   3.881   4.216  0.1238 -0.3963  0.5624
 2486SOL    MW4 9999   2.041   3.849   4.170 -0.1926 -0.2897  0.0267
 2487SOL     OW10000   1.818   2.498   4.230  0.3267 -0.3126  0.1816
 2487SOL    HW210001   1.755   2.433   4.199 -0.2647 -0.0161  0.7558
 2487SOL    HW310002   1.823   2.485   4.324  0.9088 -0.1375  0.1782
 2487SOL    MW410003   1.810   2.488   4.238  0.3253 -0.2503  0.2570
 2488SOL     OW10004   1.594   2.323   4.155  0.5625 -0.2664 -0.1996
 2488SOL    HW210005   1.574   2.313   4.062  1.0357 -1.7737 -0.1527
 2488SOL    HW310006   1.591   2.234   4.190  2.2302  0.0544  0.8464
 2488SOL    MW410007   1.591   2.310   4.147  0.8450 -0.4230 -0.0548
 2489SOL     OW10008   1.139   2.840   4.240 -0.0908  0.4169  0.0677
 2489SOL    HW210009   1.115   2.928   4.210  0.3448  1.2363  2.0355
 2489SOL    HW310010   1.165   2.852   4.331  0.1679 -1.7371  0.3062
 2489SOL    MW410011   1.139   2.854   4.248  0.0008  0.2410  0.3586
 2490SOL     OW10012   1.813   2.752   4.106  0.1574 -0.3038 -0.1193
 2490SOL    HW210013   1.882   2.807   4.141  1.9784 -1.1880 -2.1787
 2490SOL    HW310014   1.817   2.672   4.158  0.2565 -0.0894  0.2005
 2490SOL    MW410015   1.822   2.749   4.118  0.4109 -0.3922 -0.3486
 2491SOL     OW10016   1.564   3.162   4.136  0.4118 -0.1502  0.0968
 2491SOL    HW210017   1.485   3.186   4.184  0.4295 -1.1129  0.6097
 2491SOL    HW310018   1.636   3.190   4.192  0.4354 -1.8070  0.9275
 2491SOL    MW410019   1.563   3.169   4.149  0.4174 -0.4959  0.2742
 2492SOL     OW10020   1.315   3.221   4.262  0.1166  0.3028 -0.0724
 2492SOL    HW210021   1.318   3.216   4.357 -0.6221 -0.6738 -0.0978
 2492SOL    HW310022   1.314   3.315   4.243  2.5783  0.5325  0.7944
 2492SOL    MW410023   1.316   3.233   4.272  0.3440  0.2043  0.0391
 2493SOL     OW10024   1.578   3.866   4.222 -0.3426 -0.1145  0.3323
 2493SOL    HW210025   1.500   3.903   4.264 -0.4628 -0.0150  0.0251
 2493SOL    HW310026   1.581   3.775   4.253  0.1932  0.2710  1.4207
 2493SOL    MW410027   1.568   3.859   4.232 -0.2877 -0.0505  0.4354
 2494SOL     OW10028   3.332   4.457   4.476  0.1358  0.0222  0.3941
 2494SOL    HW210029   3.361   4.544   4.502  0.5402  0.0593 -0.1748
 2494SOL    HW310030   3.397   4.398   4.515  2.4387  0.2478 -2.9170
 2494SOL    MW410031   3.345   4.461   4.485  0.4928  0.0567 -0.1178
 2495SOL     OW10032   1.186   4.392   4.279  0.6751 -0.0333 -0.0478
 2495SOL    HW210033   1.190   4.479   4.240 -0.1558 -0.6268 -1.4979
 2495SOL    HW310034   1.096   4.364   4.265  0.7959 -0.9047  0.8958
 2495SOL    MW410035   1.175   4.400   4.272  0.5814 -0.2265 -0.1149
 2496SOL     OW10036   0.841   2.462   4.543  0.2223  1.0647 -0.2198
 2496SOL    HW210037   0.773   2.517   4.580 -0.0672  0.3719  0.2738
 2496SOL    HW310038   0.801   2.376   4.535  0.3314  1.1595 -1.9903
 2496SOL    MW410039   0.827   2.458   4.547  0.1985  0.9859 -0.3886
 2497SOL     OW10040   1.632   4.398   4.264  0.0748 -0.0907  0.0235
 2497SOL    HW210041   1.554   4.356   4.229 -0.0542  0.4567 -0.3569
 2497SOL    HW310042   1.703   4.337   4.245  0.1488  0.5821 -2.0128
 2497SOL    MW410043   1.631   4.384   4.257  0.0675  0.0696 -0.2952
 2498SOL     OW10044   3.367   0.097   4.841  0.1231 -0.1932 -0.1894
 2498SOL    HW210045   3.279   0.129   4.819 -0.1640 -0.8158  0.0082
 2498SOL    HW310046   3.356   0.057   4.927  0.3163 -1.3657 -0.6942
 2498SOL    MW410047   3.354   0.096   4.849  0.1106 -0.4300 -0.2298
 2499SOL     OW10048   1.841   4.257   4.148  0.2478  0.4286  0.0056
 2499SOL    HW210049   1.817   4.264   4.056 -1.3341 -0.7488  0.3073
 2499SOL    HW310050   1.863   4.165   4.160  0.9862  0.6854  0.6763
 2499SOL    MW410051   1.841   4.246   4.138  0.1365  0.3071  0.1340
 2500SOL     OW10052   3.418   2.402   4.624 -0.8208 -0.1516 -0.1613
 2500SOL    HW210053   3.393   2.361   4.707 -1.5648 -0.7890 -0.6857
 2500SOL    HW310054   3.423   2.495   4.644  0.7838 -0.4687  1.0215
 2500SOL    MW410055   3.415   2.409   4.637 -0.7074 -0.2773 -0.0739
 2501SOL     OW10056   0.914   0.983   4.534 -0.1589  0.4831  0.5626
 2501SOL    HW210057   0.890   0.947   4.449 -0.2652  1.5735  0.1275
 2501SOL    HW310058   0.830   1.002   4.576 -0.1139  2.6296 -0.2482
 2501SOL    MW410059   0.900   0.981   4.529 -0.1670  0.9101  0.3986
 2502SOL     OW10060   2.095   0.516   4.257 -0.0794 -0.2452  0.3904
 2502SOL    HW210061   2.180   0.482   4.229 -0.1250  0.3559 -0.4985
 2502SOL    HW310062   2.099   0.513   4.353  0.9002 -0.3125  0.3586
 2502SOL    MW410063   2.107   0.511   4.266  0.0439 -0.1748  0.2689
 2503SOL     OW10064   1.946   2.030   4.543 -0.1097 -0.2638 -0.0167
 2503SOL    HW210065   1.976   2.066   4.460  1.2736  0.6658  0.8651
 2503SOL    HW310066   2.025   2.024   4.597 -1.0925 -0.2078  1.4649
 2503SOL    MW410067   1.961   2.034   4.540 -0.0567 -0.1338  0.2956
 2504SOL     OW10068   1.795   0.843   4.248 -0.4299 -0.1384  0.0323
 2504SOL    HW210069   1.885   0.836   4.215  0.3797  0.7740  1.9645
 2504SOL    HW310070   1.803   0.826   4.342 -2.3389 -0.3370  0.1707
 2504SOL    MW410071   1.808   0.840   4.256 -0.5748 -0.0442  0.3057
 2505SOL     OW10072   1.808   1.113   4.119 -0.2644  0.0262 -0.0392
 2505SOL    HW210073   1.727   1.149   4.155 -1.0621 -1.3847 -0.3868
 2505SOL    HW310074   1.814   1.025   4.156  0.7056 -0.1638 -0.6258
 2505SOL    MW410075   1.798   1.106   4.129 -0.2418 -0.1850 -0.1631
 2506SOL     OW10076   4.214   4.072   4.589  0.1268 -0.1769  0.3396
 2506SOL    HW210077   4.204   4.157   4.548 -0.8794  0.2854  1.4928
 2506SOL    HW310078   4.175   4.083   4.676  0.1697 -1.7516  0.5728
 2506SOL    MW410079   4.207   4.085   4.595 -0.0005 -0.3238  0.5221
 2507SOL     OW10080   1.982   1.511   4.142 -0.2525  0.0005  0.4940
 2507SOL    HW210081   1.914   1.574   4.166  1.5365  1.6791  1.2416
 2507SOL    HW310082   2.001   1.531   4.050  0.2349  0.4753  0.6982
 2507SOL    MW410083   1.976   1.522   4.133  0.0478  0.2847  0.6194
 2508SOL     OW10084   4.148   0.592   4.476 -0.0280  0.4870 -0.1020
 2508SOL    HW210085   4.135   0.687   4.479  2.2268  0.8035 -0.1861
 2508SOL    HW310086   4.061   0.557   4.497 -0.6051  2.5603  1.1973
 2508SOL    MW410087   4.135   0.600   4.479  0.1931  0.8024  0.0587
 2509SOL     OW10088   0.130   2.085   4.511  0.2950 -0.2134 -0.1149
 2509SOL    HW210089   0.099   1.995   4.522  0.0585 -0.2666 -1.1088
 2509SOL    HW310090   0.061   2.139   4.549 -0.3995 -0.3918 -1.0946
 2509SOL    MW410091   0.117   2.081   4.517  0.1722 -0.2439 -0.3753
 2510SOL     OW10092   0.605   3.649   4.565  0.2955  0.2636  0.4811
 2510SOL    HW210093   0.594   3.554   4.573 -1.5024  0.3033 -1.1181
 2510SOL    HW310094   0.621   3.663   4.472 -1.1894  1.6962  0.4296
 2510SOL    MW410095   0.606   3.638   4.554 -0.1377  0.4582  0.2632
 2511SOL     OW10096   3.135   0.891   4.292  0.1567  0.0695 -0.3022
 2511SOL    HW210097   3.052   0.853   4.263 -0.0520  0.3495 -0.0608
 2511SOL    HW310098   3.143   0.972   4.241 -0.5369  0.9126  0.9115
 2511SOL    MW410099   3.125   0.897   4.281  0.0377  0.2176 -0.1106
 2512SOL     OW10100   3.192   0.441   4.528 -0.0189  0.0759 -0.7405
 2512SOL    HW210101   3.153   0.433   4.440  0.6607  0.9804 -1.1283
 2512SOL    HW310102   3.286   0.446   4.512  0.3135 -2.4217  0.2150
 2512SOL    MW410103   3.199   0.440   4.514  0.1144 -0.1343 -0.6657
 2513SOL     OW10104   1.345   2.703   4.100 -0.0940 -0.0247 -0.0050
 2513SOL    HW210105   1.261   2.735   4.132  0.1846 -0.4713  1.2218
 2513SOL    HW310106   1.408   2.769   4.129  0.0613 -0.0440 -0.3020
 2513SOL    MW410107   1.342   2.716   4.108 -0.0367 -0.0861  0.1173
 2514SOL     OW10108   2.402   1.989   4.542  0.0266 -0.3265 -0.4698
 2514SOL    HW210109   2.465   2.057   4.565  0.8334 -1.1068 -0.3775
 2514SOL    HW310110   2.325   2.009   4.596  0.4196  0.2568 -0.1229
 2514SOL    MW410111   2.400   2.001   4.552  0.1848 -0.3526 -0.4115
 2515SOL     OW10112   2.008   3.134   4.154 -0.0642  0.1393 -0.2953
 2515SOL    HW210113   2.095   3.167   4.178  0.5205 -0.7567 -1.1756
 2515SOL    HW310114   2.010   3.129   4.058 -0.9980 -0.1394 -0.3020
 2515SOL    MW410115   2.020   3.138   4.144 -0.1104 -0.0160 -0.4120
 2516SOL     OW10116   1.784   3.226   4.263  0.0285 -0.3781  0.1700
 2516SOL    HW210117   1.784   3.311   4.218 -3.0504 -1.5084 -2.2207
 2516SOL    HW310118   1.856   3.178   4.222 -1.5401 -0.7094 -2.3352
 2516SOL    MW410119   1.793   3.231   4.251 -0.5847 -0.5713 -0.4764
 2517SOL     OW10120   1.801   3.482   4.144 -0.1269  1.0190 -0.2125
 2517SOL    HW210121   1.887   3.518   4.166  1.2744 -2.6488  0.6648
 2517SOL    HW310122   1.805   3.464   4.050  0.5931 -0.3513  0.0610
 2517SOL    MW410123   1.813   3.484   4.135  0.1529  0.3538 -0.0606
 2518SOL     OW10124   1.325   1.176   4.135 -0.1788 -0.0091  0.1334
 2518SOL    HW210125   1.243   1.213   4.169 -1.9994 -4.1524  0.5744
 2518SOL    HW310126   1.309   1.162   4.042 -0.6176 -2.2546  0.5096
 2518SOL    MW410127   1.312   1.179   4.127 -0.4770 -0.8520  0.2418
 2519SOL     OW10128   1.389   4.004   4.353  0.1233 -0.0275  0.5431
 2519SOL    HW210129   1.384   4.042   4.441 -0.6312  0.1247  0.4413
 2519SOL    HW310130   1.415   4.076   4.297  1.1013 -0.2421  0.7131
 2519SOL    MW410131   1.392   4.018   4.357  0.1528 -0.0358  0.5517
 2520SOL     OW10132   1.752   3.983   4.533  0.2565  0.0719  0.6232
 2520SOL    HW210133   1.839   3.970   4.571 -0.6515 -0.0921  2.7142
 2520SOL    HW310134   1.705   3.902   4.552 -0.3637  0.1500 -0.5243
 2520SOL    MW410135   1.758   3.971   4.541  0.0550  0.0606  0.7472
 2521SOL     OW10136   1.865   0.272   4.517  0.5397  0.3148  0.3855
 2521SOL    HW210137   1.785   0.325   4.522 -0.4327 -1.2726  1.9055
 2521SOL    HW310138   1.864   0.237   4.428  0.2310  1.3636 -0.0336
 2521SOL    MW410139   1.854   0.275   4.506  0.3706  0.2437  0.5307
 2522SOL     OW10140   2.891   3.750   4.497 -0.2908  0.1109  0.0363
 2522SOL    HW210141   2.883   3.730   4.404 -1.8806  0.7604  0.0162
 2522SOL    HW310142   2.980   3.723   4.520 -0.2533 -1.0367 -1.4178
 2522SOL    MW410143   2.902   3.744   4.488 -0.4957  0.0451 -0.1583
 2523SOL     OW10144   3.515   2.032   4.782 -0.1426 -0.2029 -0.0624
 2523SOL    HW210145   3.601   2.071   4.768  0.0298  0.5225  2.6673
 2523SOL    HW310146   3.454   2.106   4.777 -0.3478 -0.3469  0.2786
 2523SOL    MW410147   3.519   2.047   4.780 -0.1471 -0.1264  0.3424
 2524SOL     OW10148   3.299   1.388   4.606  0.0586  0.2705 -0.4750
 2524SOL    HW210149   3.261   1.468   4.644  0.4993 -0.4680  1.5940
 2524SOL    HW310150   3.223   1.341   4.571 -0.2324  1.4853 -1.5198
 2524SOL    MW410151   3.284   1.393   4.607  0.0782  0.3333 -0.3400
 2525SOL     OW10152   2.772   0.372   4.204 -0.2441  0.4267  0.5676
 2525SOL    HW210153   2.704   0.430   4.239 -0.1373  0.9084 -0.0137
 2525SOL    HW310154   2.762   0.378   4.109  0.5755  0.4630  0.4810
 2525SOL    MW410155   2.762   0.380   4.196 -0.1218  0.4950  0.4797
 2526SOL     OW10156   2.488   0.758   4.157 -0.0564  0.0646 -0.3910
 2526SOL    HW210157   2.497   0.774   4.063  0.4931  0.5106 -0.2629
 2526SOL    HW310158   2.414   0.812   4.184 -0.8709 -0.8522 -0.7595
 2526SOL    MW410159   2.479   0.767   4.148 -0.0911  0.0024 -0.4225
 2527SOL     OW10160   2.048   0.769   4.141  0.2215  0.8250  0.5067
 2527SOL    HW210161   2.128   0.816   4.165 -0.5406  1.0130  2.8177
 2527SOL    HW310162   2.056   0.685   4.187  0.1826 -0.1121 -1.1849
 2527SOL    MW410163   2.060   0.764   4.150  0.1154  0.7262  0.5879
 2528SOL     OW10164   2.991   0.505   4.309  0.5350  0.0679 -0.1031
 2528SOL    HW210165   2.908   0.471   4.278  0.4852  0.1935 -0.1091
 2528SOL    HW310166   2.982   0.600   4.302 -0.3225  0.2218  2.4518
 2528SOL    MW410167   2.979   0.513   4.304  0.4153  0.1048  0.2327
 2529SOL     OW10168   2.255   4.398   4.669 -0.0910  0.1795 -0.2008
 2529SOL    HW210169   2.266   4.455   4.745 -0.2024 -0.2157  0.1161
 2529SOL    HW310170   2.166   4.416   4.637 -0.4114 -0.3728  0.3669
 2529SOL    MW410171   2.245   4.408   4.675 -0.1478  0.0544 -0.0849
 2530SOL     OW10172   2.269   0.915   4.214 -0.1913 -0.3346 -0.1527
 2530SOL    HW210173   2.286   0.909   4.308  4.5210  0.3413 -0.8402
 2530SOL    HW310174   2.274   1.008   4.194 -0.5369 -0.5247 -1.1747
 2530SOL    MW410175   2.272   0.926   4.223  0.3846 -0.2705 -0.3781
 2531SOL     OW10176   2.220   1.935   4.168  0.0313  0.3325 -0.1676
 2531SOL    HW210177   2.230   1.848   4.206 -0.6960  0.2825 -0.0759
 2531SOL    HW310178   2.306   1.976   4.177  0.8698 -0.9914 -1.7410
 2531SOL    MW410179   2.232   1.929   4.174  0.0463  0.1513 -0.3629
 2532SOL     OW10180   2.468   1.544   4.143  0.4619  0.6303  0.2898
 2532SOL    HW210181   2.466   1.522   4.050  0.4092 -1.7193  0.8172
 2532SOL    HW310182   2.556   1.580   4.158  0.0646  2.1734 -0.8785
 2532SOL    MW410183   2.479   1.546   4.132  0.4025  0.5239  0.2050
 2533SOL     OW10184   3.400   3.707   4.461 -0.1305  0.3090  0.1038
 2533SOL    HW210185   3.402   3.800   4.483  0.6138  0.4136 -0.3852
 2533SOL    HW310186   3.481   3.672   4.498 -0.2223 -0.0645 -0.0516
 2533SOL    MW410187   3.411   3.715   4.468 -0.0446  0.2735  0.0181
 2534SOL     OW10188   1.030   3.469   4.656 -0.1065 -0.1831 -0.1529
 2534SOL    HW210189   1.101   3.522   4.619  0.5868 -1.3735 -0.5571
 2534SOL    HW310190   0.965   3.533   4.685  0.1491  0.8430 -1.7824
 2534SOL    MW410191   1.031   3.484   4.655  0.0186 -0.2050 -0.4210
 2535SOL     OW10192   2.299   2.432   4.209  0.4192  0.0928  0.0336
 2535SOL    HW210193   2.310   2.522   4.177  0.8486  0.0995  0.2005
 2535SOL    HW310194   2.206   2.414   4.195  0.3154  0.5845  0.0560
 2535SOL    MW410195   2.288   2.442   4.203  0.4621  0.1585  0.0596
 2536SOL     OW10196   2.293   0.166   4.572  0.1255 -0.2659  0.0954
 2536SOL    HW210197   2.312   0.255   4.604  0.0473  0.3632 -1.5442
 2536SOL    HW310198   2.366   0.113   4.604 -0.0054  0.3137  1.3804
 2536SOL    MW410199   2.305   0.171   4.581  0.0980 -0.1065  0.0486
 2537SOL     OW10200   4.064   3.861   4.483 -0.2075 -0.0087  0.6828
 2537SOL    HW210201   4.135   3.918   4.511  1.0728 -0.7478 -0.9646
 2537SOL    HW310202   4.072   3.784   4.539 -0.1431  0.2130  0.9755
 2537SOL    MW410203   4.075   3.858   4.494 -0.0300 -0.0770  0.5045
 2538SOL     OW10204   1.365   2.938   4.645 -0.3610  0.0414  0.0078
 2538SOL    HW210205   1.348   3.027   4.616 -1.1877 -0.5286 -1.2563
 2538SOL    HW310206   1.428   2.904   4.582 -0.7853 -0.5911 -0.0773
 2538SOL    MW410207   1.371   2.945   4.633 -0.5262 -0.1173 -0.1702
 2539SOL     OW10208   2.267   3.185   4.254  0.1933 -0.1625  0.0768
 2539SOL    HW210209   2.272   3.277   4.227  0.3011 -0.5302 -1.2234
 2539SOL    HW310210   2.284   3.186   4.348  1.2503  1.0375 -0.1183
 2539SOL    MW410211   2.270   3.197   4.263  0.3469 -0.0527 -0.1206
 2540SOL     OW10212   1.537   2.565   4.580  0.2617  0.2400  0.3359
 2540SOL    HW210213   1.561   2.599   4.667 -1.6753  1.1738  0.5342
 2540SOL    HW310214   1.552   2.638   4.521 -0.5342  0.3234  0.2287
 2540SOL    MW410215   1.542   2.579   4.584 -0.0989  0.3741  0.3481
 2541SOL     OW10216   2.279   3.449   4.191  0.3861  0.3783  0.0740
 2541SOL    HW210217   2.342   3.520   4.204 -0.4821  1.0603  0.6472
 2541SOL    HW310218   2.194   3.491   4.203 -0.1577 -0.6395 -0.1938
 2541SOL    MW410219   2.276   3.464   4.194  0.2000  0.3340  0.1140
 2542SOL     OW10220   0.395   2.209   4.572 -0.3229 -0.0872  0.0443
 2542SOL    HW210221   0.369   2.300   4.564 -0.3495 -0.1527 -0.6142
 2542SOL    HW310222   0.316   2.159   4.552 -0.6635 -0.2403  1.7406
 2542SOL    MW410223   0.381   2.214   4.568 -0.3713 -0.1161  0.1812
 2543SOL     OW10224   2.799   4.003   4.546  0.0285 -0.6602 -0.0712
 2543SOL    HW210225   2.760   4.035   4.464  0.1473 -0.0981  0.0912
 2543SOL    HW310226   2.818   3.910   4.528 -1.4073 -0.9643 -0.1488
 2543SOL    MW410227   2.796   3.995   4.533 -0.1452 -0.6266 -0.0601
 2544SOL     OW10228   3.718   3.071   4.543  0.6566  0.8271 -0.3180
 2544SOL    HW210229   3.776   3.000   4.570  0.0011 -0.1037 -1.3055
 2544SOL    HW310230   3.630   3.034   4.550  0.3313  1.4382 -1.1439
 2544SOL    MW410231   3.714   3.057   4.547  0.5271  0.7851 -0.5569
 2545SOL     OW10232   2.488   3.897   4.212 -0.2115 -0.3259 -0.4067
 2545SOL    HW210233   2.409   3.936   4.249  0.4744  2.1796 -1.4748
 2545SOL    HW310234   2.480   3.911   4.118  2.6307  2.1902 -0.3247
 2545SOL    MW410235   2.477   3.904   4.205  0.2542  0.3366 -0.5369
 2546SOL     OW10236   2.235   4.261   4.171  0.4171 -0.3320 -0.3264
 2546SOL    HW210237   2.309   4.312   4.204 -0.3988  1.4191 -1.1845
 2546SOL    HW310238   2.158   4.302   4.210 -0.1006 -2.4269  0.9257
 2546SOL    MW410239   2.235   4.273   4.181  0.2410 -0.3777 -0.2742
 2547SOL     OW10240   1.582   2.090   4.296  0.1180  0.1705 -0.2754
 2547SOL    HW210241   1.499   2.048   4.274 -0.0443  0.2222  0.2264
 2547SOL    HW310242   1.584   2.091   4.391  1.3854 -1.1788 -0.2597
 2547SOL    MW410243   1.572   2.085   4.305  0.2638 -0.0007 -0.2069
 2548SOL     OW10244   2.309   3.660   4.531  0.2793  0.0690  0.2683
 2548SOL    HW210245   2.359   3.652   4.450 -0.6992 -0.9513 -0.2657
 2548SOL    HW310246   2.284   3.752   4.536  0.8956  0.2646 -0.2555
 2548SOL    MW410247   2.312   3.671   4.521  0.2313 -0.0398  0.1292
 2549SOL     OW10248   2.333   0.404   4.185 -0.2701 -0.1758 -0.0073
 2549SOL    HW210249   2.325   0.313   4.215  0.7988 -0.3455 -0.2320
 2549SOL    HW310250   2.309   0.400   4.093  0.3351 -0.3276 -0.1592
 2549SOL    MW410251   2.329   0.391   4.177 -0.0494 -0.2182 -0.0572
 2550SOL     OW10252   1.901   1.655   4.767  0.0266 -0.2316 -0.1306
 2550SOL    HW210253   1.906   1.581   4.707 -3.1138  0.5588 -1.4854
 2550SOL    HW310254   1.863   1.620   4.847 -1.5739 -0.0823 -0.8152
 2550SOL    MW410255   1.897   1.641   4.770 -0.5989 -0.1078 -0.3991
 2551SOL     OW10256   2.912   0.761   4.196 -0.6632 -0.1241 -0.3087
 2551SOL    HW210257   2.832   0.800   4.231 -0.3847 -1.2044  1.6340
 2551SOL    HW310258   2.896   0.754   4.102 -2.4399  0.6295 -0.0863
 2551SOL    MW410259   2.899   0.765   4.189 -0.8605 -0.1673 -0.0229
 2552SOL     OW10260   2.686   0.906   4.273 -0.3179 -0.0250 -0.0448
 2552SOL    HW210261   2.708   0.987   4.228  0.0185  0.4541  0.9776
 2552SOL    HW310262   2.617   0.867   4.219 -1.5512  1.6860  0.2812
 2552SOL    MW410263   2.680   0.912   4.260 -0.4363  0.2640  0.1326
 2553SOL     OW10264   2.745   1.168   4.193  0.2946  0.0647  0.1946
 2553SOL    HW210265   2.665   1.202   4.233  0.8204  2.5146 -0.7401
 2553SOL    HW310266   2.730   1.175   4.099  2.0265  1.6791 -0.0007
 2553SOL    MW410267   2.733   1.174   4.186  0.5922  0.6009  0.0448
 2554SOL     OW10268   2.413   2.292   4.868  0.7079 -0.1702 -0.2951
 2554SOL    HW210269   2.485   2.250   4.914 -0.6099 -1.2329  0.8481
 2554SOL    HW310270   2.424   2.385   4.886  1.9749 -0.2884 -0.4096
 2554SOL    MW410271   2.424   2.299   4.876  0.7012 -0.3259 -0.1597
 2555SOL     OW10272   2.963   1.496   4.098  0.1225 -0.1502  0.5596
 2555SOL    HW210273   2.878   1.537   4.115  0.1059  0.4132 -0.8217
 2555SOL    HW310274   3.026   1.553   4.142 -0.0067  0.7539 -0.4035
 2555SOL    MW410275   2.960   1.509   4.106  0.1032  0.0434  0.2508
 2556SOL     OW10276   2.899   3.052   4.475 -0.0762 -0.0364  0.1897
 2556SOL    HW210277   2.914   3.007   4.392  1.3970  2.1356 -0.7909
 2556SOL    HW310278   2.961   3.012   4.536 -1.7663 -2.2368  0.5050
 2556SOL    MW410279   2.909   3.041   4.472 -0.1049 -0.0401  0.1020
 2557SOL     OW10280   2.802   1.764   4.949 -0.0995 -0.2990 -0.1914
 2557SOL    HW210281   2.716   1.789   4.915 -0.1546 -0.6674 -0.3257
 2557SOL    HW310282   2.789   1.757   5.044 -0.8520 -2.7980 -0.4403
 2557SOL    MW410283   2.789   1.766   4.957 -0.2062 -0.6773 -0.2422
 2558SOL     OW10284   1.454   4.351   4.851  0.1372 -0.7763  0.1150
 2558SOL    HW210285   1.514   4.297   4.800 -0.1508 -0.7955 -0.2044
 2558SOL    HW310286   1.400   4.287   4.898  0.7316 -0.7584  0.8345
 2558SOL    MW410287   1.455   4.335   4.851  0.1776 -0.7763  0.1678
 2559SOL     OW10288   2.762   0.149   4.566  0.3593 -0.1053  0.0640
 2559SOL    HW210289   2.825   0.221   4.575 -1.0365  1.1394  0.1034
 2559SOL    HW310290   2.744   0.146   4.472 -0.0005 -0.0397  0.1314
 2559SOL    MW410291   2.768   0.158   4.554  0.1278  0.0676  0.0782
 2560SOL     OW10292   3.578   1.935   4.107  0.1284  0.1910 -0.0447
 2560SOL    HW210293   3.583   1.845   4.141 -0.3749  0.0308 -0.3932
 2560SOL    HW310294   3.605   1.927   4.016  1.3394  0.6001  0.2686
 2560SOL    MW410295   3.582   1.922   4.100  0.2220  0.2239 -0.0491
 2561SOL     OW10296   2.702   2.455   4.158 -0.1067  0.1162  0.0990
 2561SOL    HW210297   2.627   2.395   4.155 -0.1052 -0.1126  3.5696
 2561SOL    HW310298   2.778   2.397   4.163  0.0940  0.3905  0.1861
 2561SOL    MW410299   2.702   2.439   4.158 -0.0799  0.1223  0.5679
 2562SOL     OW10300   2.541   2.838   4.163 -0.1883 -0.2092  0.3301
 2562SOL    HW210301   2.532   2.932   4.146 -0.4935 -0.3664 -0.3697
 2562SOL    HW310302   2.537   2.831   4.259  0.8258  0.5914  0.4409
 2562SOL    MW410303   2.539   2.850   4.174 -0.0949 -0.1242  0.2527
 2563SOL     OW10304   2.992   2.851   4.217 -0.1350 -0.3527 -0.4753
 2563SOL    HW210305   2.931   2.787   4.180 -0.2043 -0.4593 -0.1796
 2563SOL    HW310306   3.005   2.823   4.307 -1.3206  0.8775  0.1017
 2563SOL    MW410307   2.985   2.839   4.224 -0.3004 -0.2046 -0.3610
 2564SOL     OW10308   2.954   3.112   4.149  0.0944 -0.5776  0.1194
 2564SOL    HW210309   2.976   3.028   4.188  1.0542 -0.9811 -1.2386
 2564SOL    HW310310   2.959   3.096   4.054 -0.8362  0.7144 -0.1623
 2564SOL    MW410311   2.957   3.099   4.142  0.0982 -0.4604 -0.0968
 2565SOL     OW10312   2.584   0.610   4.604  0.4161 -0.2929 -0.4727
 2565SOL    HW210313   2.669   0.589   4.644  0.6910 -1.3882 -1.6090
 2565SOL    HW310314   2.591   0.577   4.514 -0.9824  0.1906 -0.7705
 2565SOL    MW410315   2.596   0.603   4.597  0.2680 -0.3736 -0.6614
 2566SOL     OW10316   2.321   3.096   4.508  0.1048  0.6562 -0.0017
 2566SOL    HW210317   2.380   3.022   4.493 -0.6264  0.0429  0.0945
 2566SOL    HW310318   2.365   3.149   4.574  1.0412  0.7658 -0.7081
 2566SOL    MW410319   2.334   3.093   4.514  0.1318  0.5896 -0.0825
 2567SOL     OW10320   2.346   0.437   4.671 -0.0247 -0.2709 -0.6209
 2567SOL    HW210321   2.358   0.439   4.766 -1.9250  1.6048 -0.3974
 2567SOL    HW310322   2.420   0.488   4.637  0.4922 -0.6957 -0.1497
 2567SOL    MW410323   2.358   0.444   4.679 -0.2072 -0.0795 -0.5288
 2568SOL     OW10324   2.923   0.360   4.638  0.0253  0.1181  0.7225
 2568SOL    HW210325   2.999   0.395   4.591 -1.1741  1.3418 -0.3197
 2568SOL    HW310326   2.906   0.424   4.707  0.3478 -0.5141  1.4041
 2568SOL    MW410327   2.931   0.373   4.641 -0.0906  0.1961  0.6742
 2569SOL     OW10328   2.077   0.484   4.554  0.0327 -0.2170  0.0192
 2569SOL    HW210329   2.147   0.442   4.604 -0.3306 -0.9725 -0.1137
 2569SOL    HW310330   2.007   0.419   4.550 -0.7185  0.5705  0.2317
 2569SOL    MW410331   2.077   0.470   4.560 -0.1144 -0.2128  0.0296
 2570SOL     OW10332   3.671   0.576   4.618  0.3824  0.2219  0.0988
 2570SOL    HW210333   3.665   0.664   4.580  0.9668 -0.1232 -0.8113
 2570SOL    HW310334   3.630   0.584   4.704 -1.6548  0.8567 -0.8896
 2570SOL    MW410335   3.665   0.589   4.624  0.1907  0.2601 -0.1516
 2571SOL     OW10336   2.725   3.280   4.181  0.0534  0.0256 -0.1386
 2571SOL    HW210337   2.709   3.273   4.275 -1.3778 -0.6773 -0.4302
 2571SOL    HW310338   2.808   3.233   4.168  0.5053  0.5340  0.8345
 2571SOL    MW410339   2.734   3.273   4.192 -0.0758  0.0000 -0.0482
 2572SOL     OW10340   0.785   4.362   4.571 -0.3979 -0.2142  0.3819
 2572SOL    HW210341   0.802   4.456   4.577 -0.6008 -0.1990  0.6870
 2572SOL    HW310342   0.837   4.323   4.641  0.4802 -0.4337 -0.3745
 2572SOL    MW410343   0.794   4.369   4.581 -0.3088 -0.2418  0.3223
 2573SOL     OW10344   2.550   3.879   4.625  0.0988 -0.1517 -0.2927
 2573SOL    HW210345   2.630   3.931   4.614 -0.4899  0.6509 -0.8806
 2573SOL    HW310346   2.573   3.813   4.690  0.9542  0.6557  0.2353
 2573SOL    MW410347   2.564   3.877   4.632  0.1342  0.0608 -0.3009
 2574SOL     OW10348   4.070   3.483   4.138 -0.1833 -0.2499 -0.2181
 2574SOL    HW210349   4.132   3.540   4.183 -1.5315  1.1931 -0.1493
 2574SOL    HW310350   4.097   3.485   4.046  1.2841 -1.5131  0.1692
 2574SOL    MW410351   4.082   3.491   4.132 -0.1678 -0.2260 -0.1583
 2575SOL     OW10352   1.723   1.823   4.609  0.1788 -0.1956 -0.3654
 2575SOL    HW210353   1.782   1.788   4.675 -0.1540 -0.3131 -0.1316
 2575SOL    HW310354   1.775   1.890   4.564 -0.0795  0.9770  1.0330
 2575SOL    MW410355   1.738   1.827   4.612  0.1010 -0.0565 -0.1497
 2576SOL     OW10356   2.462   2.027   4.264  0.5978 -0.4048  0.1395
 2576SOL    HW210357   2.434   2.042   4.355 -0.5096 -1.2812 -0.0592
 2576SOL    HW310358   2.488   2.114   4.234 -0.2853  0.1326  0.8765
 2576SOL    MW410359   2.462   2.041   4.272  0.3352 -0.4497  0.2103
 2577SOL     OW10360   3.207   1.133   4.148  0.2195  0.4705 -0.2143
 2577SOL    HW210361   3.190   1.127   4.054 -0.2491 -1.2521 -0.0357
 2577SOL    HW310362   3.137   1.188   4.181 -1.1677 -1.1112 -0.4859
 2577SOL    MW410363   3.196   1.140   4.140 -0.0253  0.0346 -0.2270
 2578SOL     OW10364   3.435   1.277   4.223 -0.1978 -0.1928  0.0415
 2578SOL    HW210365   3.356   1.226   4.202 -0.7131  0.1832  0.9996
 2578SOL    HW310366   3.408   1.368   4.213  0.1252 -0.0643  0.3206
 2578SOL    MW410367   3.421   1.282   4.219 -0.2234 -0.1262  0.2046
 2579SOL     OW10368   3.384   1.563   4.162 -0.4731 -0.2079 -0.0202
 2579SOL    HW210369   3.393   1.544   4.069  0.7841 -1.6516  0.3758
 2579SOL    HW310370   3.300   1.608   4.169 -0.9301 -0.7551 -1.7416
 2579SOL    MW410371   3.374   1.567   4.151 -0.3674 -0.4705 -0.1950
 2580SOL     OW10372   2.862   0.996   4.617 -0.2335 -0.3546 -0.1172
 2580SOL    HW210373   2.771   0.966   4.612 -0.0997 -0.4867 -3.0388
 2580SOL    HW310374   2.856   1.091   4.619 -0.4651 -0.3804  0.3467
 2580SOL    MW410375   2.849   1.004   4.616 -0.2465 -0.3755 -0.4416
 2581SOL     OW10376   1.614   0.450   4.491  0.3042  0.3687  0.2456
 2581SOL    HW210377   1.552   0.382   4.519 -0.2867  0.7438 -0.1394
 2581SOL    HW310378   1.602   0.455   4.396  2.6846 -1.2820 -0.1896
 2581SOL    MW410379   1.604   0.441   4.482  0.5404  0.2004  0.1373
 2582SOL     OW10380   3.172   1.624   4.706 -0.4138  0.5809 -0.3200
 2582SOL    HW210381   3.113   1.635   4.631  0.4232  1.3170 -0.8879
 2582SOL    HW310382   3.239   1.691   4.693 -0.4037  0.8776  1.2431
 2582SOL    MW410383   3.173   1.634   4.694 -0.3021  0.7172 -0.1879
 2583SOL     OW10384   2.919   2.285   4.143  0.2617  0.3820  0.3808
 2583SOL    HW210385   2.930   2.199   4.184 -1.9017  0.6785  1.6025
 2583SOL    HW310386   2.998   2.333   4.169 -0.3388  0.0547  2.9232
 2583SOL    MW410387   2.931   2.280   4.152 -0.1030  0.3779  0.8774
 2584SOL     OW10388   3.187   2.696   4.109 -0.0403  0.4460 -0.2785
 2584SOL    HW210389   3.158   2.613   4.146 -1.1198  0.2219 -1.6005
 2584SOL    HW310390   3.126   2.761   4.143  0.4199  0.6133  0.2426
 2584SOL    MW410391   3.175   2.693   4.119 -0.1218  0.4385 -0.3843
 2585SOL     OW10392   3.898   0.482   4.495 -0.3426  0.0448  0.7298
 2585SOL    HW210393   3.818   0.501   4.544  0.5628  2.0354  1.4718
 2585SOL    HW310394   3.869   0.472   4.405 -1.4580  0.6255  1.0118
 2585SOL    MW410395   3.884   0.483   4.490 -0.3703  0.3840  0.8650
 2586SOL     OW10396   1.287   2.162   4.618 -0.1428 -0.1850  0.3389
 2586SOL    HW210397   1.299   2.254   4.594 -0.3464 -0.7517 -2.1307
 2586SOL    HW310398   1.375   2.124   4.612 -0.0360 -0.1382  1.4815
 2586SOL    MW410399   1.300   2.169   4.614 -0.1554 -0.2539  0.1636
 2587SOL     OW10400   3.465   3.078   4.156  0.7489 -0.4583 -0.5337
 2587SOL    HW210401   3.429   3.078   4.067 -1.5099 -2.1173  0.3493
 2587SOL    HW310402   3.431   2.998   4.196  2.4788 -0.1874  1.5422
 2587SOL    MW410403   3.455   3.068   4.150  0.6793 -0.6416 -0.1440
 2588SOL     OW10404   3.108   3.333   4.298 -0.3509 -0.0958 -0.2929
 2588SOL    HW210405   3.204   3.331   4.299 -0.3025  2.0923  0.2438
 2588SOL    HW310406   3.083   3.260   4.241  1.6386 -0.2810 -0.9430
 2588SOL    MW410407   3.117   3.323   4.291 -0.0820  0.1681 -0.3080
 2589SOL     OW10408   0.867   3.293   4.501 -0.4857  0.0762 -0.0053
 2589SOL    HW210409   0.906   3.211   4.533 -0.4450  0.5591  1.2129
 2589SOL    HW310410   0.913   3.362   4.549 -1.2608  0.7652 -0.2356
 2589SOL    MW410411   0.878   3.291   4.512 -0.5825  0.2310  0.1249
 2590SOL     OW10412   2.650   3.521   4.089 -0.1270 -0.0601 -0.4059
 2590SOL    HW210413   2.725   3.573   4.120  2.1775 -2.1040 -2.3353
 2590SOL    HW310414   2.669   3.432   4.119 -2.6152 -0.3422  0.4309
 2590SOL    MW410415   2.663   3.516   4.097 -0.1512 -0.3669 -0.5503
 2591SOL     OW10416   3.334   3.919   4.116 -0.5948  0.6542 -0.1726
 2591SOL    HW210417   3.333   3.828   4.145  1.3861  0.1564 -1.5656
 2591SOL    HW310418   3.337   3.914   4.021  3.3434  2.0766 -0.2194
 2591SOL    MW410419   3.334   3.906   4.107  0.1862  0.7765 -0.3629
 2592SOL     OW10420   4.265   4.405   4.235 -0.4068  0.0432  0.6681
 2592SOL    HW210421   4.344   4.375   4.191 -1.6632 -2.0242 -0.2338
 2592SOL    HW310422   4.262   4.499   4.217  2.0459  0.2430  1.0755
 2592SOL    MW410423   4.275   4.414   4.227 -0.2484 -0.2027  0.6027
 2593SOL     OW10424   2.458   4.431   4.248 -0.0447 -0.0633  0.0699
 2593SOL    HW210425   2.456   4.428   4.344  0.0558  0.2982  0.0827
 2593SOL    HW310426   2.538   4.385   4.225  0.3142  0.5115  0.1844
 2593SOL    MW410427   2.468   4.424   4.258  0.0157  0.0601  0.0873
 2594SOL     OW10428   3.100   3.994   4.224  0.1773 -0.0181 -0.5226
 2594SOL    HW210429   3.185   3.961   4.195 -0.3062 -1.5884 -0.1935
 2594SOL    HW310430   3.115   4.022   4.314 -0.1892 -2.5396  0.3734
 2594SOL    MW410431   3.113   3.993   4.232  0.0651 -0.5581 -0.3610
 2595SOL     OW10432   3.834   4.639   4.105 -0.2247 -0.2617  0.2452
 2595SOL    HW210433   3.755   4.665   4.153 -0.6218 -2.3909  0.8011
 2595SOL    HW310434   3.812   4.651   4.013 -0.3131  1.5092  0.4713
 2595SOL    MW410435   3.821   4.644   4.099 -0.2887 -0.3090  0.3486
 2596SOL     OW10436   3.345   4.665   4.154 -0.4347  0.0000  0.0334
 2596SOL    HW210437   3.434   4.697   4.166  0.1097 -0.8055 -1.7259
 2596SOL    HW310438   3.346   4.577   4.194 -0.4176 -0.0510 -0.0794
 2596SOL    MW410439   3.357   4.657   4.161 -0.3605 -0.1135 -0.2136
 2597SOL     OW10440   3.615   0.361   4.118 -0.1969  0.2398 -0.4164
 2597SOL    HW210441   3.605   0.367   4.023  0.8511  1.0106 -0.4813
 2597SOL    HW310442   3.540   0.409   4.152 -0.2002  0.5561 -0.8580
 2597SOL    MW410443   3.604   0.368   4.110 -0.0591  0.3833 -0.4835
 2598SOL     OW10444   0.898   0.357   4.616 -0.0678  0.1594  0.3353
 2598SOL    HW210445   0.904   0.354   4.712  0.8957  0.7338  0.2926
 2598SOL    HW310446   0.819   0.307   4.596 -1.0190  1.1544  1.5147
 2598SOL    MW410447   0.888   0.350   4.626 -0.0662  0.3665  0.4854
 2599SOL     OW10448   4.025   0.885   4.206 -0.2481 -0.2844 -0.1438
 2599SOL    HW210449   4.103   0.831   4.194 -0.4742 -1.4388  2.9426
 2599SOL    HW310450   3.953   0.832   4.172 -0.0666 -0.6103 -0.0204
 2599SOL    MW410451   4.026   0.871   4.200 -0.2537 -0.4797  0.2794
 2600SOL     OW10452   2.935   1.522   4.842 -0.0525  0.2140  0.1791
 2600SOL    HW210453   3.028   1.544   4.848 -0.0138  0.5772 -1.6460
 2600SOL    HW310454   2.890   1.602   4.867  0.0986 -0.1115  1.5779
 2600SOL    MW410455   2.942   1.535   4.846 -0.0274  0.2190  0.1230
 2601SOL     OW10456   3.634   1.118   4.134 -0.6343 -0.0718 -0.0053
 2601SOL    HW210457   3.569   1.182   4.163 -1.3086  0.4200 -2.5341
 2601SOL    HW310458   3.629   1.119   4.038  2.3679 -0.7706 -0.2296
 2601SOL    MW410459   3.625   1.126   4.125 -0.3271 -0.0991 -0.3686
 2602SOL     OW10460   2.727   1.620   4.183  0.3460 -0.5395  0.2186
 2602SOL    HW210461   2.718   1.613   4.278  0.4057  0.0685  0.2701
 2602SOL    HW310462   2.705   1.711   4.163  1.3642 -0.3775 -0.2239
 2602SOL    MW410463   2.723   1.631   4.193  0.4883 -0.4380  0.1669
 2603SOL     OW10464   0.266   2.699   4.635 -0.1736 -0.1377  0.1001
 2603SOL    HW210465   0.183   2.653   4.625 -0.8237  0.9495  0.4368
 2603SOL    HW310466   0.331   2.640   4.596 -0.9202 -1.5384  0.9112
 2603SOL    MW410467   0.263   2.685   4.629 -0.3579 -0.1793  0.2513
 2604SOL     OW10468   0.905   0.950   4.264  0.2535  0.4061 -0.3985
 2604SOL    HW210469   0.832   0.896   4.236 -0.3574  0.2773  1.3802
 2604SOL    HW310470   0.983   0.904   4.231 -0.3394 -0.7638 -0.2039
 2604SOL    MW410471   0.906   0.937   4.256  0.0947  0.2347 -0.1378
 2605SOL     OW10472   0.729   1.860   4.515  0.1943 -0.0339 -0.4565
 2605SOL    HW210473   0.737   1.925   4.585 -0.2094 -1.7278  1.1953
 2605SOL    HW310474   0.700   1.910   4.439 -2.8969  1.2851  1.5174
 2605SOL    MW410475   0.727   1.875   4.514 -0.2668 -0.0836  0.0219
 2606SOL     OW10476   1.160   0.318   4.550 -0.6497 -0.0899  0.2379
 2606SOL    HW210477   1.067   0.332   4.566 -0.4106  1.5251  0.2352
 2606SOL    HW310478   1.194   0.404   4.525  0.4237 -1.0731 -1.8654
 2606SOL    MW410479   1.152   0.331   4.549 -0.4766 -0.0065 -0.0401
 2607SOL     OW10480   3.842   2.334   4.150 -0.1623  0.1476  0.3380
 2607SOL    HW210481   3.839   2.343   4.055 -0.7522 -1.4988  0.1733
 2607SOL    HW310482   3.923   2.377   4.176  0.0605  0.5109 -0.9222
 2607SOL    MW410483   3.852   2.341   4.141 -0.2108 -0.0217  0.1502
 2608SOL     OW10484   4.239   3.647   4.289 -0.0246 -0.2399  0.0391
 2608SOL    HW210485   4.241   3.742   4.273 -1.1821 -0.3517 -0.8456
 2608SOL    HW310486   4.260   3.638   4.382  0.1036  0.8899  0.1305
 2608SOL    MW410487   4.242   3.659   4.299 -0.1597 -0.1056 -0.0653
 2609SOL     OW10488   3.640   2.699   4.181 -0.4149 -0.3108 -0.1861
 2609SOL    HW210489   3.617   2.609   4.205 -1.3633 -0.1784 -0.6043
 2609SOL    HW310490   3.621   2.705   4.087 -1.7579  0.7593  0.1322
 2609SOL    MW410491   3.635   2.688   4.171 -0.7172 -0.1516 -0.1988
 2610SOL     OW10492   2.723   0.117   4.279 -0.0550 -0.1783  0.0302
 2610SOL    HW210493   2.638   0.085   4.251  0.4377 -0.6764 -0.9197
 2610SOL    HW310494   2.731   0.203   4.238  0.1199 -0.3543 -0.3044
 2610SOL    MW410495   2.713   0.124   4.270  0.0331 -0.2672 -0.1388
 2611SOL     OW10496   3.761   3.102   4.134 -0.2507  0.0963 -0.2005
 2611SOL    HW210497   3.665   3.106   4.141 -0.0924  2.5532  0.8858
 2611SOL    HW310498   3.778   3.104   4.040 -1.2672 -0.8926 -0.4236
 2611SOL    MW410499   3.750   3.103   4.122 -0.3638  0.2899 -0.0868
 2612SOL     OW10500   3.387   3.331   4.281  0.0216  0.0329  0.1843
 2612SOL    HW210501   3.441   3.395   4.236  0.8693 -0.1057  0.9880
 2612SOL    HW310502   3.406   3.248   4.236 -0.4028  0.1826 -0.2779
 2612SOL    MW410503   3.397   3.328   4.269  0.0775  0.0346  0.2294
 2613SOL     OW10504   2.872   3.915   4.110 -0.0667  0.3285  0.3151
 2613SOL    HW210505   2.959   3.934   4.145  0.4555 -0.0829 -0.7400
 2613SOL    HW310506   2.812   3.961   4.169  0.8989  1.0839  0.7228
 2613SOL    MW410507   2.876   3.924   4.122  0.1295  0.3736  0.2298
 2614SOL     OW10508   0.740   1.528   4.647  0.2030 -0.2844 -0.3905
 2614SOL    HW210509   0.709   1.440   4.627  0.8286 -0.3482 -1.1153
 2614SOL    HW310510   0.834   1.518   4.662  0.2343  0.2158 -0.2262
 2614SOL    MW410511   0.748   1.515   4.646  0.2897 -0.2267 -0.4644
 2615SOL     OW10512   3.064   4.377   4.517 -0.2602 -0.0260  0.2884
 2615SOL    HW210513   3.036   4.465   4.541  1.1491  0.2464  1.0203
 2615SOL    HW310514   3.159   4.384   4.508 -0.1342 -1.4698  0.3236
 2615SOL    MW410515   3.073   4.390   4.519 -0.0575 -0.1812  0.3896
 2616SOL     OW10516   3.564   4.034   4.232  0.3050 -0.4354  0.3036
 2616SOL    HW210517   3.633   3.969   4.215  0.6021  0.7847 -3.7325
 2616SOL    HW310518   3.487   3.998   4.188 -0.7825 -0.2095  1.9904
 2616SOL    MW410519   3.563   4.020   4.224  0.2005 -0.2446 -0.0067
 2617SOL     OW10520   3.290   3.940   4.556 -0.4156 -0.1114 -0.5259
 2617SOL    HW210521   3.246   3.872   4.607 -0.1671 -0.8237 -1.2533
 2617SOL    HW310522   3.225   4.010   4.550 -0.7473 -0.3632  0.0536
 2617SOL    MW410523   3.275   3.940   4.562 -0.4268 -0.2387 -0.5450
 2618SOL     OW10524   4.052   0.076   4.250 -0.5068 -0.2597  0.3156
 2618SOL    HW210525   4.017   0.091   4.337 -0.8468  0.2206  0.0992
 2618SOL    HW310526   3.978   0.045   4.199 -0.6752  0.9445 -0.1903
 2618SOL    MW410527   4.038   0.074   4.255 -0.5736 -0.0375  0.2203
 2619SOL     OW10528   1.862   0.839   4.529 -0.1390 -0.2701 -0.0224
 2619SOL    HW210529   1.887   0.922   4.570  1.0272 -1.3542  1.5352
 2619SOL    HW310530   1.776   0.820   4.566  0.4374 -0.7043  1.1288
 2619SOL    MW410531   1.854   0.848   4.540  0.0910 -0.4704  0.3347
 2620SOL     OW10532   4.048   0.316   4.116 -0.1603  0.0392  0.0588
 2620SOL    HW210533   4.048   0.227   4.153  0.3536 -0.6401 -1.5106
 2620SOL    HW310534   3.970   0.357   4.154  0.1858 -0.7182  1.6424
 2620SOL    MW410535   4.038   0.310   4.126 -0.0472 -0.1504  0.0606
 2621SOL     OW10536   3.177   2.387   4.481  0.1617 -0.0492 -0.4521
 2621SOL    HW210537   3.264   2.399   4.519  0.3276 -1.5645 -0.3025
 2621SOL    HW310538   3.117   2.427   4.544  0.6195 -0.5214  0.2905
 2621SOL    MW410539   3.180   2.393   4.494  0.2441 -0.3114 -0.3343
 2622SOL     OW10540   4.026   4.393   4.630  0.0449 -0.3054 -0.2485
 2622SOL    HW210541   3.996   4.455   4.696 -0.2548 -0.7309  0.0179
 2622SOL    HW310542   3.947   4.372   4.579  0.0683 -0.7447 -0.1076
 2622SOL    MW410543   4.011   4.398   4.632  0.0086 -0.4196 -0.1945
 2623SOL     OW10544   4.262   0.462   4.218  0.2025  0.0447  0.5382
 2623SOL    HW210545   4.233   0.482   4.307  0.7513 -1.3094  1.0413
 2623SOL    HW310546   4.190   0.411   4.180  0.2555  0.0476  0.4332
 2623SOL    MW410547   4.248   0.457   4.225  0.2813 -0.1336  0.5913
 2624SOL     OW10548   3.617   1.724   4.518 -0.0732 -0.1290 -0.0545
 2624SOL    HW210549   3.651   1.639   4.545 -0.0264  0.2273  1.0217
 2624SOL    HW310550   3.606   1.716   4.423 -0.5373 -1.5031  0.1027
 2624SOL    MW410551   3.620   1.712   4.509 -0.1285 -0.2633  0.1082
 2625SOL     OW10552   4.052   1.153   4.130  0.1173 -0.2287 -0.1461
 2625SOL    HW210553   4.055   1.066   4.172 -0.2924 -0.7882 -1.2513
 2625SOL    HW310554   4.118   1.204   4.176  0.9942 -1.4066 -0.0748
 2625SOL    MW410555   4.061   1.148   4.142  0.1793 -0.4580 -0.2818
 2626SOL     OW10556   4.298   1.559   4.211  0.4809  0.8141 -0.1111
 2626SOL    HW210557   4.312   1.563   4.116  1.0678  1.8335  0.0110
 2626SOL    HW310558   4.372   1.606   4.248  1.5899 -1.7192  0.9934
 2626SOL    MW410559   4.309   1.566   4.203  0.7048  0.6144  0.0505
 2627SOL     OW10560   0.019   1.711   4.311  0.1047 -0.5193  0.2524
 2627SOL    HW210561   0.025   1.787   4.253 -0.5210 -0.3021  0.4680
 2627SOL    HW310562   0.092   1.655   4.285  1.5500  0.8836  1.1639
 2627SOL    MW410563   0.029   1.714   4.300  0.2127 -0.3057  0.4015
 2628SOL     OW10564   4.032   2.244   4.624  0.3583  0.1684  0.0606
 2628SOL    HW210565   3.946   2.224   4.661  0.2478  1.6816  0.6342
 2628SOL    HW310566   4.016   2.315   4.562  1.0592 -0.2006 -0.5621
 2628SOL    MW410567   4.019   2.250   4.620  0.4363  0.3192  0.0544
 2629SOL     OW10568   1.235   0.584   4.476 -0.2391  0.1546 -0.0680
 2629SOL    HW210569   1.322   0.623   4.468  0.8498 -1.5431  2.7123
 2629SOL    HW310570   1.178   0.657   4.502  0.7470  0.8903  0.0569
 2629SOL    MW410571   1.239   0.599   4.479  0.0347  0.0277  0.3152
 2630SOL     OW10572   4.232   2.062   4.202 -0.0580  0.3395  0.1963
 2630SOL    HW210573   4.219   2.051   4.296  0.3675 -1.8129  0.0403
 2630SOL    HW310574   4.164   2.009   4.161  1.0540 -0.4597 -0.6754
 2630SOL    MW410575   4.222   2.053   4.209  0.1450 -0.0498  0.0615
 2631SOL     OW10576   4.311   2.324   4.155 -0.2042 -0.0720 -0.0137
 2631SOL    HW210577   4.283   2.233   4.159 -0.7021 -0.0211 -1.9563
 2631SOL    HW310578   4.234   2.374   4.181  0.5848 -0.2434  2.7973
 2631SOL    MW410579   4.297   2.319   4.159 -0.1659 -0.0880  0.1006
 2632SOL     OW10580   0.443   1.214   4.151  0.3884  0.4847 -0.6394
 2632SOL    HW210581   0.464   1.204   4.058  0.7264 -3.0647 -0.2191
 2632SOL    HW310582   0.527   1.226   4.194  0.5862 -1.9405 -0.3311
 2632SOL    MW410583   0.457   1.214   4.144  0.4591 -0.3035 -0.5431
 2633SOL     OW10584   4.067   2.722   4.148 -0.2556  0.2328  0.2836
 2633SOL    HW210585   3.999   2.774   4.190  0.2290  1.6024 -0.5828
 2633SOL    HW310586   4.149   2.762   4.177  0.0952  0.8223 -1.4391
 2633SOL    MW410587   4.069   2.735   4.158 -0.1454  0.4914 -0.0587
 2634SOL     OW10588   3.127   0.945   4.556 -0.0920 -0.5376  0.0430
 2634SOL    HW210589   3.037   0.968   4.580 -0.1547 -0.5987 -0.1318
 2634SOL    HW310590   3.123   0.931   4.461  0.4027  0.9404 -0.2169
 2634SOL    MW410591   3.115   0.946   4.547 -0.0348 -0.3506 -0.0143
 2635SOL     OW10592   4.303   2.814   4.248 -0.2676 -0.3224  0.2424
 2635SOL    HW210593   4.379   2.784   4.198 -1.3124 -3.3634  0.3780
 2635SOL    HW310594   4.307   2.910   4.244  3.2329 -0.4384 -0.2139
 2635SOL    MW410595   4.313   2.823   4.241  0.0563 -0.7389  0.2003
 2636SOL     OW10596   4.284   3.097   4.174  0.0650 -0.4083 -0.0248
 2636SOL    HW210597   4.251   3.085   4.084  0.6564 -1.5306 -0.0988
 2636SOL    HW310598   4.217   3.151   4.216 -0.3284 -0.0458 -1.0793
 2636SOL    MW410599   4.270   3.103   4.167  0.0911 -0.5088 -0.1740
 2637SOL     OW10600   3.881   3.216   4.380 -0.1722 -0.0496  0.4047
 2637SOL    HW210601   3.838   3.156   4.441 -1.4387  0.0732 -0.3335
 2637SOL    HW310602   3.843   3.194   4.295 -1.0693  2.1548  0.2044
 2637SOL    MW410603   3.870   3.205   4.377 -0.4578  0.2575  0.2809
 2638SOL     OW10604   4.146   3.279   4.328 -0.4299  0.1808  0.2761
 2638SOL    HW210605   4.064   3.236   4.352  0.7420 -2.5461 -0.4745
 2638SOL    HW310606   4.120   3.344   4.262 -1.8929 -1.2459 -0.6111
 2638SOL    MW410607   4.131   3.282   4.322 -0.4687 -0.3669  0.0601
 2639SOL     OW10608   0.345   1.353   4.506 -0.3164  0.0479  0.1592
 2639SOL    HW210609   0.296   1.356   4.424  2.2492  1.6773 -1.3803
 2639SOL    HW310610   0.330   1.438   4.547 -2.1471 -1.0157  1.7496
 2639SOL    MW410611   0.337   1.365   4.501 -0.2194  0.1225  0.1655
 2640SOL     OW10612   1.788   2.226   4.658  0.2531  0.4926  0.0874
 2640SOL    HW210613   1.852   2.160   4.629 -0.7858 -0.1069 -0.9037
 2640SOL    HW310614   1.782   2.287   4.585 -2.9832 -1.4639 -1.4104
 2640SOL    MW410615   1.795   2.225   4.644 -0.3110  0.1552 -0.2408
 2641SOL     OW10616   2.191   1.740   4.776 -0.2703 -0.0342 -0.2012
 2641SOL    HW210617   2.229   1.729   4.689  0.0768 -1.1171  0.0822
 2641SOL    HW310618   2.105   1.698   4.770 -0.3444  0.1042 -0.1009
 2641SOL    MW410619   2.184   1.733   4.764 -0.2341 -0.1588 -0.1502
 2642SOL     OW10620   0.646   0.341   4.273 -0.6207  0.1872 -0.5111
 2642SOL    HW210621   0.672   0.431   4.294 -1.6198  0.0151  1.5287
 2642SOL    HW310622   0.566   0.350   4.222 -1.0616  0.4608  0.2148
 2642SOL    MW410623   0.639   0.354   4.269 -0.8107  0.2006 -0.1469
 2643SOL     OW10624   2.677   4.291   4.169  0.2862 -0.0896 -0.1419
 2643SOL    HW210625   2.696   4.271   4.077 -1.2756  0.8027 -0.6650
 2643SOL    HW310626   2.757   4.331   4.202  0.8201 -0.3316 -1.1311
 2643SOL    MW410627   2.690   4.294   4.161  0.1504 -0.0038 -0.3414
 2644SOL     OW10628   3.757   3.841   4.193  0.3290 -0.2899  0.3918
 2644SOL    HW210629   3.771   3.747   4.203 -0.2381 -0.4388 -0.2037
 2644SOL    HW310630   3.844   3.879   4.208  0.6956 -0.9496 -0.0156
 2644SOL    MW410631   3.771   3.833   4.197  0.3023 -0.3965  0.2594
 2645SOL     OW10632   1.225   3.618   4.541 -0.1508  0.3187 -0.2234
 2645SOL    HW210633   1.231   3.701   4.588  2.3366  0.3267 -0.4998
 2645SOL    HW310634   1.159   3.633   4.474  0.6600  2.2658 -0.6130
 2645SOL    MW410635   1.217   3.631   4.538  0.2842  0.5767 -0.3109
 2646SOL     OW10636   0.041   2.574   4.518  0.4783 -0.0124 -0.6366
 2646SOL    HW210637   0.045   2.539   4.429 -1.1209  0.9194 -1.0974
 2646SOL    HW310638  -0.008   2.509   4.568  0.1691  0.1042 -0.7813
 2646SOL    MW410639   0.035   2.561   4.513  0.2265  0.1259 -0.7162
 2647SOL     OW10640   1.306   2.430   4.515  0.0723  0.3687  0.0637
 2647SOL    HW210641   1.316   2.431   4.420  0.2178 -1.3209  0.0437
 2647SOL    HW310642   1.379   2.484   4.547  0.3965  0.4251 -0.7545
 2647SOL    MW410643   1.317   2.437   4.507  0.1342  0.1531 -0.0467
 2648SOL     OW10644   1.373   4.559   4.683  0.0273  0.2438 -0.1052
 2648SOL    HW210645   1.459   4.586   4.652  0.5338  0.8270  1.7598
 2648SOL    HW310646   1.390   4.505   4.760 -1.3146  1.2228  0.9032
 2648SOL    MW410647   1.386   4.555   4.689 -0.0830  0.4501  0.2742
 2649SOL     OW10648   0.860   4.632   4.575  0.5193 -0.0876  0.7368
 2649SOL    HW210649   0.938   4.651   4.627  1.3271  0.2395 -0.5403
 2649SOL    HW310650   0.805   4.710   4.585  1.7951  1.0749 -0.8496
 2649SOL    MW410651   0.863   4.645   4.583  0.7942  0.1082  0.3591
 2650SOL     OW10652   1.007   4.229   4.679  0.0866  0.1970 -0.0244
 2650SOL    HW210653   1.023   4.135   4.673  0.0250  0.1442  0.5580
 2650SOL    HW310654   1.073   4.269   4.623  1.4396 -0.0890  1.3295
 2650SOL    MW410655   1.017   4.222   4.671  0.2571  0.1521  0.2308
 2651SOL     OW10656   2.000   2.083   4.238 -0.1831 -0.4005 -0.5390
 2651SOL    HW210657   2.076   2.032   4.211 -0.4605 -0.6123 -0.9296
 2651SOL    HW310658   2.019   2.172   4.208  0.9627  0.0521  1.4449
 2651SOL    MW410659   2.013   2.088   4.231 -0.0687 -0.3686 -0.3285
 2652SOL     OW10660   0.024   1.955   4.132 -0.2641  0.2838  0.0609
 2652SOL    HW210661  -0.053   2.007   4.157 -1.0835 -0.9122  0.0384
 2652SOL    HW310662   0.097   1.997   4.179 -1.1103  0.6827  1.0487
 2652SOL    MW410663   0.023   1.968   4.142 -0.4839  0.1787  0.1884
 2653SOL     OW10664   1.280   1.170   4.588  0.2378 -0.2944 -0.3718
 2653SOL    HW210665   1.208   1.192   4.529  0.3197 -0.1379 -0.4139
 2653SOL    HW310666   1.287   1.074   4.583 -0.5979 -0.3879  0.3749
 2653SOL    MW410667   1.272   1.160   4.579  0.1382 -0.2861 -0.2789
 2654SOL     OW10668   3.806   1.943   4.534 -0.2703 -0.2281  0.2669
 2654SOL    HW210669   3.738   1.876   4.531  0.4109 -0.9165 -0.2505
 2654SOL    HW310670   3.803   1.984   4.447 -0.4451  0.1564  0.4569
 2654SOL    MW410671   3.797   1.939   4.522 -0.2036 -0.2682  0.2236
 2655SOL     OW10672   2.496   3.494   4.669 -0.1357  0.8158  0.2806
 2655SOL    HW210673   2.587   3.509   4.647 -0.5888 -0.8241 -3.0925
 2655SOL    HW310674   2.449   3.568   4.631 -0.5115  0.0115 -0.8570
 2655SOL    MW410675   2.502   3.505   4.661 -0.2449  0.4933 -0.3142
 2656SOL     OW10676   2.189   2.164   4.948  0.1214  0.4298  0.2065
 2656SOL    HW210677   2.267   2.214   4.924  0.4155 -0.0561  0.1300
 2656SOL    HW310678   2.132   2.226   4.992  1.0507  0.5168  1.3070
 2656SOL    MW410679   2.192   2.179   4.951  0.2828  0.3769  0.3414
 2657SOL     OW10680   1.707   4.421   4.539 -0.3256  0.0622 -0.3746
 2657SOL    HW210681   1.666   4.507   4.553 -0.8895 -0.4112  0.9186
 2657SOL    HW310682   1.671   4.391   4.455 -0.6012  0.8146 -0.5309
 2657SOL    MW410683   1.697   4.429   4.530 -0.4363  0.0987 -0.2251
 2658SOL     OW10684   3.395   0.044   4.576  0.2372 -0.1024 -0.0828
 2658SOL    HW210685   3.312   0.076   4.542  0.1729  1.7185  1.7074
 2658SOL    HW310686   3.382   0.039   4.671  2.6534  1.7917  0.3976
 2658SOL    MW410687   3.382   0.048   4.584  0.5476  0.3878  0.2165
 2659SOL     OW10688   3.829   1.281   4.241  0.2681 -0.0859  0.0267
 2659SOL    HW210689   3.907   1.248   4.196  0.1276  2.1377 -1.9337
 2659SOL    HW310690   3.759   1.221   4.215  0.3783  0.6495 -2.0404
 2659SOL    MW410691   3.830   1.268   4.232  0.2639  0.3045 -0.5050
 2660SOL     OW10692   0.036   2.486   4.258  0.0458 -0.1482 -0.1864
 2660SOL    HW210693   0.110   2.439   4.221  0.5052  0.6563 -0.3174
 2660SOL    HW310694  -0.040   2.431   4.241  0.5416 -0.7082 -0.5591
 2660SOL    MW410695   0.036   2.473   4.251  0.1718 -0.1159 -0.2532
 2661SOL     OW10696   1.789   2.437   4.865  0.2849 -0.6160 -0.2079
 2661SOL    HW210697   1.867   2.474   4.823 -0.0567 -0.3671 -0.6253
 2661SOL    HW310698   1.768   2.360   4.814  0.7883 -1.2015  0.4536
 2661SOL    MW410699   1.797   2.432   4.853  0.3064 -0.6604 -0.1755
 2662SOL     OW10700   2.999   1.269   4.260 -0.2888 -0.0185 -0.6532
 2662SOL    HW210701   2.909   1.240   4.245 -0.8503  0.8907  0.8505
 2662SOL    HW310702   3.008   1.349   4.207 -0.2593 -0.2774 -1.0432
 2662SOL    MW410703   2.988   1.276   4.251 -0.3588  0.0675 -0.5059
 2663SOL     OW10704   1.803   2.921   4.590  0.5595  0.0957  0.1061
 2663SOL    HW210705   1.759   2.913   4.675  0.4013 -0.8632 -0.0690
 2663SOL    HW310706   1.795   3.014   4.568 -0.0344  0.2118  0.7921
 2663SOL    MW410707   1.796   2.932   4.599  0.4601 -0.0153  0.1736
 2664SOL     OW10708   1.133   2.858   4.518 -0.2991 -0.0518 -0.1121
 2664SOL    HW210709   1.212   2.852   4.572 -0.3619 -1.1585 -0.1483
 2664SOL    HW310710   1.101   2.769   4.512 -0.9695  0.2443 -0.9783
 2664SOL    MW410711   1.139   2.846   4.524 -0.3958 -0.1585 -0.2313
 2665SOL     OW10712   2.246   1.662   4.232 -0.6566  0.7028 -0.4585
 2665SOL    HW210713   2.327   1.624   4.200 -0.6751 -0.5677  0.9469
 2665SOL    HW310714   2.177   1.613   4.188 -0.6687 -0.3786  0.7093
 2665SOL    MW410715   2.247   1.651   4.222 -0.6607  0.3924 -0.1187
 2666SOL     OW10716   0.680   2.215   4.539  0.3272  0.1673 -0.7467
 2666SOL    HW210717   0.588   2.242   4.542 -0.1661 -1.1509 -2.7029
 2666SOL    HW310718   0.694   2.168   4.621 -0.4204  1.3846  0.0882
 2666SOL    MW410719   0.669   2.212   4.550  0.1635  0.1543 -0.8941
 2667SOL     OW10720   2.779   3.508   4.605  0.0468 -0.3314  0.3342
 2667SOL    HW210721   2.798   3.591   4.560  0.7192 -0.8917 -0.4461
 2667SOL    HW310722   2.759   3.447   4.534 -0.6180 -0.8007  0.9159
 2667SOL    MW410723   2.779   3.511   4.589  0.0477 -0.4673  0.3085
 2668SOL     OW10724   3.590   4.298   4.169 -0.2366  0.0497  0.0582
 2668SOL    HW210725   3.681   4.311   4.194  0.4258 -1.3701 -1.5089
 2668SOL    HW310726   3.570   4.208   4.197 -0.4101 -0.4738 -1.6990
 2668SOL    MW410727   3.599   4.288   4.176 -0.1724 -0.2069 -0.3810
 2669SOL     OW10728   2.475   0.024   4.142 -0.1758 -0.0345  0.4261
 2669SOL    HW210729   2.419   0.082   4.193 -0.4614 -0.2412  0.3440
 2669SOL    HW310730   2.461  -0.063   4.179  1.3654  0.1536  1.5380
 2669SOL    MW410731   2.466   0.020   4.154 -0.0105 -0.0370  0.5622
 2670SOL     OW10732   3.384   1.803   4.662 -0.0913  0.4142 -0.4554
 2670SOL    HW210733   3.460   1.757   4.626  0.5776  0.9952  0.1850
 2670SOL    HW310734   3.422   1.872   4.717 -1.0811  0.3588  0.3189
 2670SOL    MW410735   3.399   1.806   4.665 -0.1338  0.4836 -0.2685
 2671SOL     OW10736   1.347   0.416   4.094  0.6090  0.0237 -0.0336
 2671SOL    HW210737   1.355   0.328   4.131  0.2037 -0.2900 -0.6917
 2671SOL    HW310738   1.267   0.451   4.133  0.9824  0.2563  0.5369
 2671SOL    MW410739   1.338   0.409   4.104  0.6047  0.0131 -0.0448
 2672SOL     OW10740   4.077   2.465   4.229  0.4828  0.6586  0.0058
 2672SOL    HW210741   4.047   2.473   4.320  1.2294  0.2057  0.2942
 2672SOL    HW310742   4.071   2.554   4.194 -1.6430  0.4994 -0.0876
 2672SOL    MW410743   4.072   2.478   4.237  0.3004  0.5779  0.0310
 2673SOL     OW10744   2.332   0.958   4.491  0.0385 -0.2555 -0.0770
 2673SOL    HW210745   2.279   0.899   4.545  0.2337 -0.4587 -0.1066
 2673SOL    HW310746   2.421   0.944   4.522  0.0278  0.3602  0.2293
 2673SOL    MW410747   2.336   0.948   4.503  0.0627 -0.2011 -0.0415
 2674SOL     OW10748   3.844   0.462   4.241 -0.0247 -0.2724  0.8078
 2674SOL    HW210749   3.842   0.550   4.203 -1.0308 -0.5735  0.1556
 2674SOL    HW310750   3.765   0.419   4.207  1.1678 -1.8883  0.0339
 2674SOL    MW410751   3.833   0.468   4.232  0.0000 -0.5253  0.6199
 2675SOL     OW10752   0.923   4.015   4.348 -0.7431  0.1666  0.2547
 2675SOL    HW210753   1.005   3.999   4.300 -0.8076 -2.1263  0.8792
 2675SOL    HW310754   0.856   3.972   4.296 -0.9000 -1.8166  2.0526
 2675SOL    MW410755   0.925   4.007   4.335 -0.7722 -0.3982  0.5746
 2676SOL     OW10756   0.286   2.941   4.514  0.0047 -0.2665 -0.2096
 2676SOL    HW210757   0.202   2.981   4.535  0.1147  0.0418 -0.3458
 2676SOL    HW310758   0.284   2.856   4.557 -0.1759 -0.0567  0.2015
 2676SOL    MW410759   0.275   2.935   4.522 -0.0046 -0.1979 -0.1736
 2677SOL     OW10760   1.584   1.255   4.211 -0.3538  0.0300 -0.3143
 2677SOL    HW210761   1.504   1.218   4.173  1.2636 -1.9072 -1.9456
 2677SOL    HW310762   1.576   1.237   4.305 -1.3310 -1.1371 -0.6070
 2677SOL    MW410763   1.572   1.248   4.218 -0.2694 -0.3794 -0.5684
 2678SOL     OW10764   1.740   2.888   4.877 -0.1150 -0.3611 -0.1732
 2678SOL    HW210765   1.674   2.955   4.893 -0.5424 -0.0399 -2.9730
 2678SOL    HW310766   1.691   2.807   4.871 -0.0333 -0.4019 -0.2979
 2678SOL    MW410767   1.725   2.886   4.878 -0.1607 -0.3242 -0.5598
 2679SOL     OW10768   0.901   3.266   4.246 -0.1744 -0.2631 -0.3786
 2679SOL    HW210769   0.820   3.224   4.216 -0.4462  0.9733 -1.3716
 2679SOL    HW310770   0.894   3.265   4.342 -1.2476 -0.3700 -0.4556
 2679SOL    MW410771   0.889   3.260   4.255 -0.3519 -0.1142 -0.5202
 2680SOL     OW10772   1.379   4.103   4.613  0.3917 -0.0576  0.2191
 2680SOL    HW210773   1.337   4.189   4.604  0.2428  0.0276  1.5423
 2680SOL    HW310774   1.463   4.122   4.655  0.3911 -0.5482  0.4464
 2680SOL    MW410775   1.385   4.117   4.618  0.3719 -0.1116  0.4239
 2681SOL     OW10776   3.132   2.942   4.624  0.2343  0.4432 -0.1535
 2681SOL    HW210777   3.191   3.016   4.625  0.4816  0.2416  0.5390
 2681SOL    HW310778   3.170   2.880   4.686  0.0807 -0.3011 -0.7873
 2681SOL    MW410779   3.144   2.943   4.632  0.2465  0.3188 -0.1454
 2682SOL     OW10780   2.905   4.399   4.278 -0.7479  0.1429 -0.0608
 2682SOL    HW210781   2.935   4.400   4.368 -0.7394  1.4695 -0.0727
 2682SOL    HW310782   2.958   4.330   4.236  0.6722  0.8963  0.4606
 2682SOL    MW410783   2.916   4.390   4.284 -0.5596  0.4172  0.0062
 2683SOL     OW10784   0.007   4.323   4.123  0.0570 -0.0487  0.0838
 2683SOL    HW210785   0.018   4.320   4.028 -0.4140 -0.8778  0.0508
 2683SOL    HW310786   0.014   4.231   4.151  1.8052  0.3339  1.0306
 2683SOL    MW410787   0.010   4.311   4.114  0.2255 -0.1078  0.2046
 2684SOL     OW10788   2.033   2.362   4.138 -0.5466  0.0238 -0.3252
 2684SOL    HW210789   2.010   2.354   4.045 -1.0449 -0.9975 -0.1119
 2684SOL    HW310790   1.956   2.403   4.178 -0.3335  0.4594 -0.3519
 2684SOL    MW410791   2.020   2.366   4.131 -0.5844 -0.0534 -0.3004
 2685SOL     OW10792   3.051   2.733   5.025  0.3316 -0.0059 -0.1050
 2685SOL    HW210793   3.012   2.646   5.029 -0.5985  0.4401  0.7449
 2685SOL    HW310794   3.079   2.751   5.114 -0.7674  1.1389  0.0191
 2685SOL    MW410795   3.050   2.724   5.037  0.0639  0.2036  0.0234
 2686SOL     OW10796   0.852   3.697   4.709 -0.4273  0.0096  0.1471
 2686SOL    HW210797   0.777   3.687   4.650  0.3441 -0.6561 -0.7354
 2686SOL    HW310798   0.813   3.695   4.797 -1.3067 -1.6778 -0.2537
 2686SOL    MW410799   0.837   3.695   4.713 -0.4416 -0.3006 -0.0219
 2687SOL     OW10800   3.071   4.105   4.479  0.1244 -0.0043 -0.0509
 2687SOL    HW210801   3.077   4.196   4.505  1.7524  0.2881 -1.3115
 2687SOL    HW310802   2.984   4.077   4.507 -0.3102  1.8636  0.5366
 2687SOL    MW410803   3.061   4.113   4.486  0.2816  0.2813 -0.1397
 2688SOL     OW10804   3.924   0.182   4.478 -0.2980  0.1268  0.2111
 2688SOL    HW210805   3.953   0.263   4.521 -0.9994  0.8569 -0.6742
 2688SOL    HW310806   3.832   0.175   4.502 -0.8400  0.8273 -1.5792
 2688SOL    MW410807   3.916   0.192   4.487 -0.4621  0.3155 -0.1421
 2689SOL     OW10808   3.021   2.168   4.908 -0.3048 -0.1537  0.3197
 2689SOL    HW210809   2.973   2.239   4.864  0.9687  0.3984 -0.1936
 2689SOL    HW310810   2.993   2.088   4.862 -0.3331  0.2216 -0.3200
 2689SOL    MW410811   3.011   2.167   4.896 -0.1409 -0.0312  0.1674
 2690SOL     OW10812   4.283   3.939   4.123  0.1525  0.0190 -0.3994
 2690SOL    HW210813   4.277   3.936   4.027 -0.7001 -0.7432 -0.3250
 2690SOL    HW310814   4.361   3.992   4.140  0.8266 -0.5893 -1.5155
 2690SOL    MW410815   4.293   3.946   4.112  0.1292 -0.1619 -0.5364
 2691SOL     OW10816   1.988   2.330   5.070  0.2993 -0.0779 -0.2589
 2691SOL    HW210817   2.047   2.404   5.058  0.8230 -0.5240 -0.4622
 2691SOL    HW310818   1.911   2.352   5.018 -0.3155  1.1574  1.1390
 2691SOL    MW410819   1.986   2.343   5.062  0.2874  0.0262 -0.1016
 2692SOL     OW10820   1.335   3.487   4.177 -0.3690 -0.3095  0.1928
 2692SOL    HW210821   1.420   3.529   4.194  0.0186 -0.6413 -0.8688
 2692SOL    HW310822   1.328   3.486   4.082 -0.3754 -2.6324  0.1866
 2692SOL    MW410823   1.345   3.492   4.167 -0.3188 -0.6599  0.0515
 2693SOL     OW10824   4.404   3.303   4.453  0.1513  0.3164 -0.2827
 2693SOL    HW210825   4.472   3.282   4.389 -0.1027  0.5169 -0.6241
 2693SOL    HW310826   4.323   3.273   4.412  0.3022 -2.1364  1.1714
 2693SOL    MW410827   4.403   3.297   4.439  0.1378  0.0196 -0.1359
 2694SOL     OW10828   2.263   3.938   4.583 -0.0818 -0.0068  0.1417
 2694SOL    HW210829   2.351   3.921   4.617 -0.1322  0.2512  0.4036
 2694SOL    HW310830   2.278   3.972   4.495  0.0294 -1.1162 -0.2635
 2694SOL    MW410831   2.277   3.941   4.576 -0.0737 -0.1192  0.1225
 2695SOL     OW10832   1.822   3.994   4.275  0.5612 -0.2044  0.4949
 2695SOL    HW210833   1.742   3.965   4.230  1.8318 -0.7619 -1.4685
 2695SOL    HW310834   1.798   3.993   4.368 -0.9993 -2.7083  0.1385
 2695SOL    MW410835   1.808   3.990   4.281  0.5230 -0.6082  0.1888
 2696SOL     OW10836   1.091   0.789   4.618  0.1030  0.1806 -0.4622
 2696SOL    HW210837   1.174   0.837   4.622  0.5577 -0.5818 -0.7714
 2696SOL    HW310838   1.025   0.857   4.604  0.6828  0.7796 -0.3137
 2696SOL    MW410839   1.093   0.804   4.617  0.2394  0.1591 -0.4835
 2697SOL     OW10840   0.420   0.599   4.418 -1.0224 -0.1305  0.5377
 2697SOL    HW210841   0.373   0.643   4.488 -0.6493  0.4394  0.4288
 2697SOL    HW310842   0.352   0.573   4.356 -1.1974  0.6836  0.3875
 2697SOL    MW410843   0.405   0.601   4.419 -0.9963  0.0522  0.5035
 2698SOL     OW10844   3.588   2.248   4.467 -0.2008  0.2226 -0.3395
 2698SOL    HW210845   3.548   2.161   4.468 -0.2841  0.2208 -2.4058
 2698SOL    HW310846   3.529   2.302   4.521 -0.0158 -1.0268  1.1654
 2698SOL    MW410847   3.575   2.244   4.474 -0.1872  0.0575 -0.4139
 2699SOL     OW10848   0.454   1.911   3.893 -0.1947  0.2154  0.3319
 2699SOL    HW210849   0.461   1.821   3.859 -1.6114 -0.5603  2.0098
 2699SOL    HW310850   0.393   1.954   3.834  1.1074  0.3511 -0.9641
 2699SOL    MW410851   0.447   1.905   3.881 -0.2098  0.1310  0.3819
 2700SOL     OW10852   3.815   3.570   4.232  0.1385  0.3452 -0.3657
 2700SOL    HW210853   3.891   3.552   4.177 -0.7413 -0.2113 -1.4225
 2700SOL    HW310854   3.845   3.554   4.322  1.0728 -0.5198 -0.8248
 2700SOL    MW410855   3.829   3.566   4.237  0.1459  0.1576 -0.5655
 2701SOL     OW10856   2.860   3.673   4.212  0.1988  0.2041  0.2809
 2701SOL    HW210857   2.937   3.624   4.184  0.5570  0.4935  0.7642
 2701SOL    HW310858   2.869   3.758   4.170 -0.0713  0.0952  0.0017
 2701SOL    MW410859   2.871   3.678   4.203  0.2108  0.2277  0.3085
 2702SOL     OW10860   1.875   1.438   4.603 -0.4056  0.1123 -0.5561
 2702SOL    HW210861   1.819   1.376   4.652  0.4844 -0.7846 -0.6541
 2702SOL    HW310862   1.954   1.388   4.583  0.9241  1.7212  0.5523
 2702SOL    MW410863   1.878   1.423   4.607 -0.1127  0.2062 -0.4230
 2703SOL     OW10864   3.156   0.422   4.082  0.2928  0.3441 -0.1836
 2703SOL    HW210865   3.157   0.329   4.102  1.3317 -0.0339 -1.9103
 2703SOL    HW310866   3.099   0.460   4.149  0.7619 -1.3527  1.2102
 2703SOL    MW410867   3.148   0.415   4.094  0.4919  0.0703 -0.2279
 2704SOL     OW10868   3.199   2.706   4.778  0.4283 -0.1268  0.3095
 2704SOL    HW210869   3.152   2.717   4.861 -0.7932 -0.9864 -0.2568
 2704SOL    HW310870   3.152   2.637   4.733 -0.2191  1.7924 -2.0327
 2704SOL    MW410871   3.187   2.698   4.783  0.1817  0.0131 -0.0749
 2705SOL     OW10872   4.035   1.686   4.283 -0.1751  0.5447 -0.0094
 2705SOL    HW210873   4.025   1.673   4.377  0.6697  0.6648  0.0985
 2705SOL    HW310874   4.118   1.644   4.261 -0.9197 -0.5083 -0.9107
 2705SOL    MW410875   4.044   1.679   4.292 -0.1621  0.4216 -0.1140
 2706SOL     OW10876   3.519   3.284   4.516  0.1744  0.4507 -0.2355
 2706SOL    HW210877   3.482   3.292   4.428 -0.4812 -0.1669 -0.0204
 2706SOL    HW310878   3.606   3.246   4.501 -0.1101 -0.0705 -0.5897
 2706SOL    MW410879   3.526   3.280   4.502  0.0505  0.3004 -0.2537
 2707SOL     OW10880   0.725   3.906   4.200 -0.6908 -0.6476 -0.2011
 2707SOL    HW210881   0.708   3.821   4.241  0.1812 -0.7865 -0.1140
 2707SOL    HW310882   0.641   3.951   4.202 -1.3195 -1.7725 -0.8628
 2707SOL    MW410883   0.712   3.901   4.206 -0.6587 -0.8144 -0.2766
 2708SOL     OW10884   3.062   0.138   4.822  0.2336 -0.3690  0.3665
 2708SOL    HW210885   3.013   0.069   4.778  0.8336 -0.8171  0.4014
 2708SOL    HW310886   3.014   0.218   4.801 -0.1868 -0.7319 -0.0742
 2708SOL    MW410887   3.049   0.140   4.814  0.2575 -0.4760  0.3128
 2709SOL     OW10888   1.146   3.223   4.751  0.1715 -0.0442 -0.2970
 2709SOL    HW210889   1.079   3.155   4.759  0.4492 -0.3034 -0.1623
 2709SOL    HW310890   1.097   3.304   4.738 -0.1523 -0.3332 -0.8957
 2709SOL    MW410891   1.131   3.225   4.750  0.1652 -0.1166 -0.3581
 2710SOL     OW10892   2.868   1.261   4.652 -0.3550 -0.6143  0.3251
 2710SOL    HW210893   2.945   1.263   4.596 -1.0588 -0.7037 -0.6503
 2710SOL    HW310894   2.895   1.307   4.731  0.3286  0.4130 -0.4962
 2710SOL    MW410895   2.882   1.267   4.655 -0.3574 -0.4905  0.0882
 2711SOL     OW10896   4.094   0.862   4.479 -0.3857 -0.0754  0.2077
 2711SOL    HW210897   4.062   0.880   4.391 -0.6841  1.4184  0.6102
 2711SOL    HW310898   4.021   0.888   4.536  0.2534  0.0991  0.9482
 2711SOL    MW410899   4.080   0.868   4.475 -0.3414  0.1447  0.3581
 2712SOL     OW10900   1.309   3.206   4.536 -0.0637  0.1125  0.2903
 2712SOL    HW210901   1.390   3.246   4.568 -0.0062  0.0124  0.2721
 2712SOL    HW310902   1.244   3.225   4.604 -0.4483  1.6696 -0.5027
 2712SOL    MW410903   1.311   3.214   4.549 -0.1069  0.3045  0.1831
 2713SOL     OW10904   3.169   0.152   4.483  0.1079 -0.0014 -0.5703
 2713SOL    HW210905   3.165   0.235   4.529 -0.8271  0.2676 -1.1193
 2713SOL    HW310906   3.179   0.176   4.391  1.2907 -0.5225 -0.5922
 2713SOL    MW410907   3.170   0.166   4.477  0.1407 -0.0346 -0.6456
 2714SOL     OW10908   3.827   4.053   4.480  0.1928  0.1915 -0.0966
 2714SOL    HW210909   3.878   3.974   4.498  0.1901  0.0374 -0.7640
 2714SOL    HW310910   3.737   4.028   4.502  0.2554  0.1491  0.1165
 2714SOL    MW410911   3.822   4.039   4.486  0.2007  0.1664 -0.1564
 2715SOL     OW10912   3.134   1.657   4.227  0.4200 -0.5083  0.1641
 2715SOL    HW210913   3.080   1.662   4.306 -0.7654 -1.6598 -0.5429
 2715SOL    HW310914   3.109   1.733   4.175 -0.3946 -0.9445 -0.0812
 2715SOL    MW410915   3.124   1.668   4.230  0.1564 -0.7179  0.0381
 2716SOL     OW10916   1.319   1.439   4.724  0.3951  0.4240  0.1653
 2716SOL    HW210917   1.349   1.479   4.642 -1.4513  0.0996 -0.7210
 2716SOL    HW310918   1.287   1.352   4.697 -0.7918  0.5548  1.1116
 2716SOL    MW410919   1.319   1.433   4.709 -0.0050  0.3985  0.1736
 2717SOL     OW10920   3.731   2.600   4.565 -0.0163 -0.0441  0.0909
 2717SOL    HW210921   3.644   2.636   4.583 -0.6380 -1.1544 -0.6455
 2717SOL    HW310922   3.740   2.525   4.623  0.1226 -0.4091 -0.3926
 2717SOL    MW410923   3.721   2.595   4.575 -0.0799 -0.2387 -0.0701
 2718SOL     OW10924   1.114   0.522   4.213  0.5846  0.1920  0.3918
 2718SOL    HW210925   1.146   0.526   4.304 -0.1927  0.0327  0.6748
 2718SOL    HW310926   1.062   0.442   4.210  1.6493 -0.4887 -0.5484
 2718SOL    MW410927   1.112   0.512   4.225  0.6225  0.0811  0.3052
 2719SOL     OW10928   1.608   0.017   4.579  0.0650  0.1791 -0.4142
 2719SOL    HW210929   1.562   0.096   4.550 -0.4513  0.1111  0.2041
 2719SOL    HW310930   1.698   0.046   4.594 -0.2577  0.7926  0.3849
 2719SOL    MW410931   1.614   0.031   4.577 -0.0457  0.2510 -0.2275
 2720SOL     OW10932   2.927   2.017   4.231  0.3610  0.0360 -0.0408
 2720SOL    HW210933   2.940   1.988   4.322  0.5919 -0.1494 -0.1302
 2720SOL    HW310934   2.859   1.959   4.197  0.5287 -0.1311 -0.0936
 2720SOL    MW410935   2.920   2.006   4.239  0.4137 -0.0107 -0.0596
 2721SOL     OW10936   0.268   4.639   4.097 -0.0444 -0.1876 -0.0335
 2721SOL    HW210937   0.331   4.681   4.155  1.2522 -1.2583 -0.6640
 2721SOL    HW310938   0.250   4.554   4.138  0.1054 -0.5311 -0.6813
 2721SOL    MW410939   0.274   4.633   4.110  0.1464 -0.3743 -0.2027
 2722SOL     OW10940   2.571   0.532   4.306  0.1869 -0.0988 -0.0964
 2722SOL    HW210941   2.520   0.464   4.263  1.6168 -0.8217 -0.7083
 2722SOL    HW310942   2.539   0.614   4.269 -0.3849 -0.5556 -0.6186
 2722SOL    MW410943   2.560   0.534   4.295  0.2999 -0.2545 -0.2465
 2723SOL     OW10944   2.503   1.302   4.274 -0.0168  0.2683  0.2014
 2723SOL    HW210945   2.451   1.298   4.355 -0.8146 -2.2951 -0.4091
 2723SOL    HW310946   2.501   1.394   4.249 -1.6002  0.7224  1.9239
 2723SOL    MW410947   2.496   1.314   4.282 -0.3309 -0.0099  0.3486
 2724SOL     OW10948   3.407   2.839   4.270 -0.0598 -0.1869 -0.6769
 2724SOL    HW210949   3.487   2.801   4.234 -0.1294  0.3806 -1.4317
 2724SOL    HW310950   3.336   2.785   4.234 -0.0204 -0.6554 -0.0530
 2724SOL    MW410951   3.408   2.827   4.260 -0.0639 -0.1740 -0.6943
 2725SOL     OW10952   3.068   2.734   4.454  0.3295  0.1207 -0.1389
 2725SOL    HW210953   3.094   2.799   4.519  1.7186 -0.3928 -0.1815
 2725SOL    HW310954   3.076   2.650   4.498 -0.4536 -0.1017 -0.4146
 2725SOL    MW410955   3.072   2.732   4.468  0.4096  0.0238 -0.1807
 2726SOL     OW10956   4.481   4.035   4.487 -0.3316  0.3959  0.0532
 2726SOL    HW210957   4.391   4.055   4.512 -0.3031  1.6722 -0.8200
 2726SOL    HW310958   4.534   4.100   4.533  0.2858 -1.1544  1.6013
 2726SOL    MW410959   4.476   4.046   4.496 -0.2465  0.3600  0.1421
 2727SOL     OW10960   0.871   0.597   4.506 -0.1611  1.0269  0.3366
 2727SOL    HW210961   0.889   0.512   4.547  0.0126  0.0726 -1.6635
 2727SOL    HW310962   0.937   0.656   4.542  0.3915  0.0518  0.9283
 2727SOL    MW410963   0.882   0.593   4.516 -0.0653  0.7724  0.1507
 2728SOL     OW10964   1.706   1.600   4.462  0.2040  0.1858  0.4142
 2728SOL    HW210965   1.771   1.547   4.508 -0.9041 -0.1891  1.5561
 2728SOL    HW310966   1.703   1.682   4.511 -1.1091 -0.2823  1.1284
 2728SOL    MW410967   1.714   1.604   4.474 -0.1155  0.0746  0.6590
 2729SOL     OW10968   3.448   2.933   4.531  0.1764  0.2945 -0.4764
 2729SOL    HW210969   3.417   2.903   4.446 -0.1331 -3.0336  0.7368
 2729SOL    HW310970   3.379   2.991   4.563 -0.6757 -0.0801 -1.6175
 2729SOL    MW410971   3.435   2.937   4.524  0.0234 -0.1941 -0.4663
 2730SOL     OW10972   2.030   2.863   4.217 -0.1737  0.0567 -0.4987
 2730SOL    HW210973   2.047   2.955   4.195  2.9179 -0.3756 -0.1817
 2730SOL    HW310974   2.043   2.859   4.312  0.3413 -0.8414 -0.6048
 2730SOL    MW410975   2.034   2.875   4.227  0.3018 -0.1187 -0.4706
 2731SOL     OW10976   0.475   2.476   4.260 -0.0069 -0.0185 -0.2857
 2731SOL    HW210977   0.475   2.553   4.203  0.5743  0.9484  0.9928
 2731SOL    HW310978   0.553   2.426   4.234  0.1015  0.2732 -0.5179
 2731SOL    MW410979   0.485   2.479   4.249  0.0841  0.1476 -0.1473
 2732SOL     OW10980   1.557   0.783   4.123  0.0233  0.3155 -0.2132
 2732SOL    HW210981   1.643   0.813   4.152  0.9405 -1.7402 -0.7352
 2732SOL    HW310982   1.557   0.800   4.028 -1.3704  3.1891  0.2631
 2732SOL    MW410983   1.568   0.789   4.114 -0.0396  0.4234 -0.2198
 2733SOL     OW10984   1.342   0.892   4.538 -0.3118  0.7682  0.3513
 2733SOL    HW210985   1.428   0.856   4.560 -0.6858  0.5798  1.5314
 2733SOL    HW310986   1.350   0.917   4.446  1.3704  1.8487  0.7720
 2733SOL    MW410987   1.355   0.890   4.529 -0.1391  0.8860  0.5622
 2734SOL     OW10988   3.603   3.548   4.581  0.5316  0.6346 -0.1375
 2734SOL    HW210989   3.693   3.522   4.558  0.4831 -0.8121  1.2299
 2734SOL    HW310990   3.554   3.466   4.580 -0.1947  1.0310  1.7279
 2734SOL    MW410991   3.608   3.534   4.578  0.4294  0.4959  0.2890
 2735SOL     OW10992   2.499   3.092   4.116  0.1277 -0.5190 -0.3705
 2735SOL    HW210993   2.583   3.135   4.135 -0.4543  0.5666 -0.1996
 2735SOL    HW310994   2.439   3.127   4.182 -1.2447  1.1876 -2.4554
 2735SOL    MW410995   2.502   3.103   4.127 -0.1302 -0.1509 -0.6223
 2736SOL     OW10996   3.377   2.296   4.151 -0.1694 -0.1250 -0.4437
 2736SOL    HW210997   3.394   2.299   4.057 -0.5222  1.0690 -0.4885
 2736SOL    HW310998   3.451   2.342   4.191  0.2871 -1.1671 -0.0916
 2736SOL    MW410999   3.389   2.303   4.144 -0.1559 -0.1049 -0.4034
 2737SOL     OW11000   2.324   1.867   4.988 -0.1332 -0.2509 -0.4095
 2737SOL    HW211001   2.263   1.813   4.939  0.0527 -1.5251  0.7497
 2737SOL    HW311002   2.273   1.945   5.013 -0.5825 -0.1906 -1.5013
 2737SOL    MW411003   2.309   1.870   4.985 -0.1678 -0.4113 -0.4005
 2738SOL     OW11004   1.030   1.235   4.498 -0.0052 -0.0270  0.0028
 2738SOL    HW211005   0.989   1.303   4.552  1.0027 -0.4156  1.2697
 2738SOL    HW311006   0.980   1.156   4.517 -1.9133  0.5695 -2.3393
 2738SOL    MW411007   1.018   1.234   4.507 -0.1240  0.0004 -0.1392
 2739SOL     OW11008   1.817   3.194   4.549 -0.2254 -0.4020  0.1393
 2739SOL    HW211009   1.809   3.231   4.461 -0.6953  0.0000  0.3502
 2739SOL    HW311010   1.906   3.218   4.576 -0.3515  0.1505  0.0770
 2739SOL    MW411011   1.828   3.202   4.541 -0.3040 -0.2759  0.1588
 2740SOL     OW11012   0.900   2.484   4.242  0.1667 -0.0550  0.7307
 2740SOL    HW211013   0.889   2.499   4.335  0.9172 -0.6322  0.9169
 2740SOL    HW311014   0.832   2.421   4.220  0.3630 -0.3650  1.0097
 2740SOL    MW411015   0.890   2.478   4.251  0.2916 -0.1719  0.7925
 2741SOL     OW11016   0.073   3.756   4.527  0.3507 -0.2007  0.0341
 2741SOL    HW211017   0.163   3.760   4.559 -0.0641  1.6543  1.0103
 2741SOL    HW311018   0.045   3.847   4.519 -0.5883 -0.6692 -2.8013
 2741SOL    MW411019   0.081   3.768   4.530  0.1721 -0.0181 -0.2108
 2742SOL     OW11020   1.576   3.281   4.670 -0.3353  0.0167  0.1183
 2742SOL    HW211021   1.668   3.261   4.650 -0.5129 -0.0371 -0.6728
 2742SOL    HW311022   1.555   3.225   4.745  0.2539 -0.0334  0.2494
 2742SOL    MW411023   1.586   3.271   4.677 -0.2811  0.0029  0.0315
 2743SOL     OW11024   2.045   0.016   4.184  0.2167  0.0934 -0.0364
 2743SOL    HW211025   2.061   0.013   4.089  0.6534 -0.4132  0.0494
 2743SOL    HW311026   2.039  -0.076   4.209  0.6004  0.2204  0.5160
 2743SOL    MW411027   2.046   0.003   4.175  0.3250  0.0433  0.0477
 2744SOL     OW11028   1.988   4.449   4.562  0.3994 -0.1448  0.3822
 2744SOL    HW211029   1.895   4.425   4.568  0.3956  0.1169  1.6269
 2744SOL    HW311030   1.990   4.542   4.586  0.7861  0.3057 -1.3261
 2744SOL    MW411031   1.976   4.458   4.566  0.4499 -0.0510  0.3214
 2745SOL     OW11032   1.497   3.511   4.498 -0.2695 -0.1072 -0.0562
 2745SOL    HW211033   1.410   3.539   4.526  1.0852  1.0384  3.2754
 2745SOL    HW311034   1.522   3.443   4.560  0.5555 -1.6023 -1.9950
 2745SOL    MW411035   1.489   3.506   4.510  0.0181 -0.1531  0.1278
 2746SOL     OW11036   3.472   0.442   4.449  0.0922 -0.1492  0.1391
 2746SOL    HW211037   3.536   0.496   4.495 -1.1462  0.5931  1.0180
 2746SOL    HW311038   3.463   0.484   4.363  1.3918 -0.7415 -0.2962
 2746SOL    MW411039   3.479   0.455   4.444  0.1004 -0.1294  0.1974
 2747SOL     OW11040   0.673   3.666   4.296 -0.0112  0.4496 -0.2566
 2747SOL    HW211041   0.752   3.616   4.273 -0.0745 -0.3874  1.2790
 2747SOL    HW311042   0.604   3.626   4.243  0.1539 -0.3880  0.1381
 2747SOL    MW411043   0.674   3.654   4.286  0.0021  0.2286 -0.0019
 2748SOL     OW11044   1.776   2.454   4.500  0.2788  0.1415 -0.3384
 2748SOL    HW211045   1.834   2.487   4.570 -0.6510 -1.4285  1.2027
 2748SOL    HW311046   1.688   2.479   4.528 -0.2259 -1.6694 -0.2632
 2748SOL    MW411047   1.772   2.462   4.513  0.0895 -0.3047 -0.1249
 2749SOL     OW11048   0.462   4.622   4.498  0.4230 -0.5637  0.1895
 2749SOL    HW211049   0.465   4.527   4.491  0.7818 -0.4043 -2.3034
 2749SOL    HW311050   0.495   4.653   4.414  1.4783  1.7751  1.4235
 2749SOL    MW411051   0.467   4.614   4.486  0.6095 -0.2341  0.0229
 2750SOL     OW11052   2.602   0.915   4.561 -0.3493  0.1268 -0.0239
 2750SOL    HW211053   2.599   0.825   4.593  0.2571  0.0820 -0.0893
 2750SOL    HW311054   2.648   0.909   4.477 -0.2142  0.5099  0.0202
 2750SOL    MW411055   2.608   0.903   4.554 -0.2515  0.1714 -0.0262
 2751SOL     OW11056   0.744   4.355   4.104  0.5612  0.1567  0.4437
 2751SOL    HW211057   0.659   4.312   4.099  0.2774  0.8599 -1.2851
 2751SOL    HW311058   0.794   4.304   4.167 -1.1498 -0.2481  1.5072
 2751SOL    MW411059   0.740   4.343   4.112  0.2980  0.1965  0.3557
 2752SOL     OW11060   2.267   2.701   4.130  0.7812 -0.3111 -0.0898
 2752SOL    HW211061   2.344   2.757   4.130  0.3667  0.2614  0.6802
 2752SOL    HW311062   2.204   2.746   4.185  0.4433 -1.5312  0.5410
 2752SOL    MW411063   2.269   2.714   4.137  0.6821 -0.3967  0.0954
 2753SOL     OW11064   3.751   2.161   4.669 -1.0913 -0.2280 -0.0864
 2753SOL    HW211065   3.692   2.199   4.603 -0.6660 -0.2186 -0.4651
 2753SOL    HW311066   3.779   2.078   4.630  0.8023  0.7349 -0.8489
 2753SOL    MW411067   3.747   2.155   4.655 -0.7851 -0.0999 -0.2370
 2754SOL     OW11068   1.822   0.147   4.278  0.0147 -0.1327 -0.8346
 2754SOL    HW211069   1.833   0.235   4.241 -0.2384 -0.0226 -0.6509
 2754SOL    HW311070   1.906   0.103   4.261  0.2773  0.2683 -0.5945
 2754SOL    MW411071   1.835   0.153   4.271  0.0159 -0.0652 -0.7787
 2755SOL     OW11072   4.271   4.341   4.506 -0.6274  0.3148 -0.5175
 2755SOL    HW211073   4.273   4.375   4.417  0.8868  0.4644 -0.4426
 2755SOL    HW311074   4.197   4.386   4.548 -1.1369  0.4823 -1.5942
 2755SOL    MW411075   4.261   4.351   4.500 -0.4950  0.3567 -0.6499
 2756SOL     OW11076   1.530   1.250   4.496  0.1905  0.0952 -0.0991
 2756SOL    HW211077   1.516   1.344   4.485  1.8510  0.2389 -1.0628
 2756SOL    HW311078   1.447   1.219   4.533 -0.3823  1.9249  0.2491
 2756SOL    MW411079   1.517   1.259   4.500  0.3340  0.3555 -0.1802
 2757SOL     OW11080   3.656   0.855   4.517 -0.2940 -0.3429 -0.2836
 2757SOL    HW211081   3.584   0.892   4.568 -0.6595 -0.7720 -0.4801
 2757SOL    HW311082   3.734   0.902   4.547 -0.4477 -0.8365  0.9307
 2757SOL    MW411083   3.657   0.866   4.528 -0.3624 -0.4647 -0.1493
 2758SOL     OW11084   2.581   1.343   4.647 -0.2098 -0.2094  0.0835
 2758SOL    HW211085   2.556   1.434   4.665 -0.7318  0.4209 -3.4383
 2758SOL    HW311086   2.674   1.340   4.666 -0.2241  1.0343  0.4056
 2758SOL    MW411087   2.590   1.355   4.652 -0.2806  0.0378 -0.3386
 2759SOL     OW11088   2.554   1.646   4.636 -0.3547 -0.2535  0.2424
 2759SOL    HW211089   2.465   1.660   4.604 -0.7380 -0.5761  1.1595
 2759SOL    HW311090   2.573   1.723   4.688 -1.0364 -1.3308  2.1164
 2759SOL    MW411091   2.545   1.658   4.638 -0.4950 -0.4381  0.6108
 2760SOL     OW11092   0.484   0.065   4.245  0.3971  0.1518  0.1142
 2760SOL    HW211093   0.476   0.158   4.221  2.7522  0.4501  0.3600
 2760SOL    HW311094   0.549   0.031   4.183  0.4722 -1.0317  0.8519
 2760SOL    MW411095   0.491   0.073   4.233  0.7177  0.0350  0.2437
 2761SOL     OW11096   2.948   1.940   4.492 -0.1706 -0.4486 -0.1278
 2761SOL    HW211097   3.013   2.009   4.505 -0.7340  0.1589 -0.4618
 2761SOL    HW311098   2.925   1.911   4.580  0.3068 -0.4311  0.0029
 2761SOL    MW411099   2.954   1.945   4.505 -0.1819 -0.3662 -0.1545
 2762SOL     OW11100   0.916   0.294   4.201  0.3993 -0.5408 -0.0835
 2762SOL    HW211101   0.827   0.313   4.231  0.6118  1.0234 -0.4126
 2762SOL    HW311102   0.937   0.210   4.242 -0.3638  0.2089  1.9111
 2762SOL    MW411103   0.907   0.286   4.211  0.3267 -0.2356  0.1364
 2763SOL     OW11104   4.065   4.242   4.142  0.0063  0.0472 -0.0899
 2763SOL    HW211105   4.080   4.164   4.195  0.1680 -1.5653 -2.3988
 2763SOL    HW311106   4.128   4.306   4.174 -0.6445 -0.4858  2.3554
 2763SOL    MW411107   4.075   4.240   4.153 -0.0582 -0.2360 -0.0725
 2764SOL     OW11108   1.045   2.041   4.514  0.0994  0.0929  0.3119
 2764SOL    HW211109   1.124   2.077   4.553  0.7511 -0.9920  0.0080
 2764SOL    HW311110   1.056   2.054   4.420  0.5421 -1.2933  0.1673
 2764SOL    MW411111   1.057   2.048   4.507  0.2438 -0.2332  0.2527
 2765SOL     OW11112   2.283   0.138   4.301 -0.5472  0.2588 -0.2122
 2765SOL    HW211113   2.291   0.142   4.396 -2.5922  0.1096 -0.0234
 2765SOL    HW311114   2.198   0.097   4.285 -0.7788  1.4157 -2.1094
 2765SOL    MW411115   2.273   0.133   4.311 -0.8478  0.3917 -0.4377
 2766SOL     OW11116   3.419   0.973   4.605  0.6883  0.1708  0.2969
 2766SOL    HW211117   3.437   1.058   4.565 -0.8126  1.0449  1.4484
 2766SOL    HW311118   3.325   0.959   4.591  0.5709 -0.4896  1.6498
 2766SOL    MW411119   3.409   0.982   4.598  0.4747  0.1990  0.6280
 2767SOL     OW11120   1.757   1.683   4.199 -0.2986  0.2624  0.3465
 2767SOL    HW211121   1.739   1.670   4.292 -1.1995  1.5207  0.3624
 2767SOL    HW311122   1.756   1.778   4.188 -0.6023  0.1064 -1.0232
 2767SOL    MW411123   1.755   1.694   4.210 -0.4574  0.4079  0.1683
 2768SOL     OW11124   4.121   2.687   4.648  0.0312 -0.4167 -0.0193
 2768SOL    HW211125   4.075   2.768   4.668  2.0963  0.6023  0.6303
 2768SOL    HW311126   4.200   2.714   4.602  1.2780 -1.9737  1.1563
 2768SOL    MW411127   4.125   2.701   4.645  0.4678 -0.4876  0.2217
 2769SOL     OW11128   2.650   1.870   4.152 -0.4297 -0.5720 -0.1328
 2769SOL    HW211129   2.658   1.913   4.067 -1.5563 -1.2965 -0.6295
 2769SOL    HW311130   2.584   1.922   4.199  1.0334  0.5214  0.7653
 2769SOL    MW411131   2.642   1.883   4.147 -0.3850 -0.5233 -0.0801
 2770SOL     OW11132   1.244   4.340   4.549  0.0656 -0.1065  0.0703
 2770SOL    HW211133   1.294   4.408   4.595 -0.6234 -0.3606  1.2089
 2770SOL    HW311134   1.232   4.375   4.461 -1.3199  1.8164  0.9734
 2770SOL    MW411135   1.249   4.354   4.544 -0.2080  0.1135  0.3400
 2771SOL     OW11136   1.555   2.838   4.450 -0.1601 -0.0456 -0.1478
 2771SOL    HW211137   1.541   2.850   4.356 -0.6577 -0.0311 -0.0747
 2771SOL    HW311138   1.648   2.857   4.463 -0.3714  1.2044 -0.4303
 2771SOL    MW411139   1.565   2.842   4.439 -0.2537  0.1211 -0.1760
 2772SOL     OW11140   0.399   4.074   4.493 -0.1761  0.5869 -0.1104
 2772SOL    HW211141   0.448   4.156   4.492 -0.7927  1.0044  1.5549
 2772SOL    HW311142   0.316   4.096   4.536 -0.4169 -0.8548  0.1974
 2772SOL    MW411143   0.395   4.088   4.499 -0.2892  0.4520  0.1497
 2773SOL     OW11144   4.001   1.920   4.147  0.4193  0.5301  0.5651
 2773SOL    HW211145   3.925   1.967   4.181 -0.2448  0.5580 -0.9211
 2773SOL    HW311146   4.012   1.846   4.206 -0.8388  0.4638  0.7204
 2773SOL    MW411147   3.993   1.917   4.159  0.1659  0.5250  0.3901
 2774SOL     OW11148   0.933   3.042   4.590 -0.2523 -0.1264 -0.5190
 2774SOL    HW211149   1.000   2.973   4.586 -0.1767 -0.1005  0.3325
 2774SOL    HW311150   0.850   2.995   4.579 -0.2673 -0.4819  0.9911
 2774SOL    MW411151   0.931   3.026   4.588 -0.2443 -0.1700 -0.2079
 2775SOL     OW11152   1.580   3.595   4.249  0.2284  0.2085  0.1509
 2775SOL    HW211153   1.566   3.560   4.337  0.8806 -0.3146  0.0491
 2775SOL    HW311154   1.663   3.558   4.221  0.6826  1.4493 -0.1703
 2775SOL    MW411155   1.589   3.585   4.257  0.3744  0.3028  0.0954
 2776SOL     OW11156   3.805   1.528   4.612  0.3261 -0.4025  0.3340
 2776SOL    HW211157   3.774   1.506   4.700 -0.5570 -0.7979 -0.0755
 2776SOL    HW311158   3.825   1.444   4.571 -2.0825 -0.4278 -0.8667
 2776SOL    MW411159   3.803   1.514   4.618 -0.1085 -0.4581  0.1216
 2777SOL     OW11160   0.247   2.856   4.251  0.0709 -0.0799  0.2332
 2777SOL    HW211161   0.265   2.863   4.345  0.6726  1.0302  0.0401
 2777SOL    HW311162   0.254   2.945   4.218  1.1817 -0.6350 -1.1025
 2777SOL    MW411163   0.251   2.868   4.259  0.2969 -0.0069  0.0310
 2778SOL     OW11164   3.975   2.486   4.495 -0.7279 -0.2355 -0.1546
 2778SOL    HW211165   3.883   2.511   4.490 -1.0858 -1.4471  0.1265
 2778SOL    HW311166   4.017   2.557   4.544 -1.4985  0.3407 -0.3183
 2778SOL    MW411167   3.968   2.499   4.501 -0.8767 -0.3190 -0.1388
 2779SOL     OW11168   0.019   3.032   4.558  0.4007 -0.2452  0.6525
 2779SOL    HW211169  -0.033   2.953   4.544  0.7878 -0.0380 -2.2218
 2779SOL    HW311170  -0.046   3.102   4.564  0.1794 -0.4500  0.6552
 2779SOL    MW411171   0.003   3.031   4.557  0.4230 -0.2449  0.2737
 2780SOL     OW11172   3.876   2.847   4.558  0.1230  0.5821 -0.3189
 2780SOL    HW211173   3.884   2.860   4.463  0.3791  1.8823 -0.1317
 2780SOL    HW311174   3.843   2.758   4.567  1.0803  0.0775 -1.6002
 2780SOL    MW411175   3.873   2.837   4.547  0.2832  0.6871 -0.4630
 2781SOL     OW11176   2.694   4.055   4.287  0.0981 -0.0945 -0.0960
 2781SOL    HW211177   2.617   3.999   4.280  0.2208 -0.1710 -0.7995
 2781SOL    HW311178   2.671   4.134   4.238 -0.4421  0.8916  1.6791
 2781SOL    MW411179   2.681   4.058   4.280  0.0432  0.0253  0.0453
 2782SOL     OW11180   2.481   2.880   4.436  0.0485  0.8900  0.5660
 2782SOL    HW211181   2.559   2.851   4.483  0.6183  0.5521 -0.5665
 2782SOL    HW311182   2.423   2.804   4.438  0.4096  0.5970  0.0069
 2782SOL    MW411183   2.484   2.866   4.443  0.1714  0.8066  0.3428
 2783SOL     OW11184   3.544   4.037   4.511  0.0718  0.5007 -0.0997
 2783SOL    HW211185   3.544   4.029   4.415 -0.2323 -0.3461 -0.0321
 2783SOL    HW311186   3.462   3.998   4.538 -0.7804  2.5439  0.3862
 2783SOL    MW411187   3.533   4.031   4.502 -0.0806  0.6580 -0.0267
 2784SOL     OW11188   1.564   1.486   4.843 -0.0463  0.2237 -0.6041
 2784SOL    HW211189   1.540   1.527   4.926  1.0917 -0.9197  0.2990
 2784SOL    HW311190   1.480   1.467   4.801 -0.6822 -0.9681  1.1523
 2784SOL    MW411191   1.550   1.489   4.848  0.0198 -0.0843 -0.2532
 2785SOL     OW11192   1.713   1.258   4.729 -0.1636  0.0617  0.1042
 2785SOL    HW211193   1.673   1.327   4.783 -1.1014 -0.3714 -0.0191
 2785SOL    HW311194   1.664   1.261   4.647 -0.1025 -0.6536  0.0439
 2785SOL    MW411195   1.701   1.268   4.725 -0.2792 -0.0896  0.0801
 2786SOL     OW11196   0.356   3.779   4.551  0.2644 -0.2781  0.0820
 2786SOL    HW211197   0.435   3.724   4.545 -0.8321 -1.9179  0.3548
 2786SOL    HW311198   0.386   3.866   4.526  1.6954 -1.3443 -2.1019
 2786SOL    MW411199   0.370   3.783   4.547  0.3085 -0.6351 -0.1698
 2787SOL     OW11200   3.863   3.490   4.493  0.1323  0.1275 -0.4914
 2787SOL    HW211201   3.931   3.518   4.554 -1.8170  0.8006  1.4559
 2787SOL    HW311202   3.884   3.399   4.473  1.6626  0.3722  0.0025
 2787SOL    MW411203   3.874   3.482   4.498  0.0772  0.2487 -0.1693
 2788SOL     OW11204   4.239   2.416   4.708  0.3324 -0.4892 -0.1849
 2788SOL    HW211205   4.172   2.348   4.697 -0.4959 -0.0590  2.0230
 2788SOL    HW311206   4.195   2.497   4.681  0.2623 -0.3426  0.3693
 2788SOL    MW411207   4.224   2.418   4.703  0.2146 -0.4129  0.1793
 2789SOL     OW11208   3.139   1.885   4.078 -0.6888 -0.1402  0.1486
 2789SOL    HW211209   3.074   1.941   4.122  0.9049  0.7582  1.4007
 2789SOL    HW311210   3.221   1.903   4.124  0.2179 -2.1532 -0.6478
 2789SOL    MW411211   3.141   1.895   4.090 -0.3588 -0.2872  0.2089
 2790SOL     OW11212   0.415   0.883   4.503 -0.0298 -0.3666  0.1338
 2790SOL    HW211213   0.408   0.914   4.413 -2.5118  0.3533  0.5652
 2790SOL    HW311214   0.352   0.935   4.552 -0.7629 -2.6962  1.7610
 2790SOL    MW411215   0.406   0.894   4.498 -0.4540 -0.5789  0.4058
 2791SOL     OW11216   3.579   0.872   4.247 -0.0242  0.0821  0.2522
 2791SOL    HW211217   3.599   0.956   4.205  0.0331  0.2032  0.5165
 2791SOL    HW311218   3.625   0.876   4.331  2.8194 -1.6570 -1.1781
 2791SOL    MW411219   3.588   0.884   4.252  0.3586 -0.1314  0.0982
 2792SOL     OW11220   3.339   0.774   4.149  0.4726  0.1536  0.0568
 2792SOL    HW211221   3.270   0.807   4.206  0.9680 -0.9982  1.3629
 2792SOL    HW311222   3.420   0.810   4.186  0.8963 -1.4362  0.7411
 2792SOL    MW411223   3.341   0.783   4.162  0.5937 -0.2082  0.3200
 2793SOL     OW11224   3.617   0.094   4.216  0.2052  0.0305  0.6474
 2793SOL    HW211225   3.612   0.115   4.309  1.4142  0.0504  0.7169
 2793SOL    HW311226   3.615   0.179   4.172  0.7903  0.0855  0.7196
 2793SOL    MW411227   3.617   0.108   4.222  0.4418  0.0404  0.6657
 2794SOL     OW11228   0.029   4.069   4.215  0.2194  0.1126 -0.2243
 2794SOL    HW211229   0.103   4.015   4.186  0.7739  1.1617 -0.8374
 2794SOL    HW311230   0.023   4.054   4.309  0.4182 -0.9361 -0.3735
 2794SOL    MW411231   0.038   4.060   4.224  0.3185  0.1125 -0.3252
 2795SOL     OW11232   3.140   2.127   4.546  0.3995 -0.7726 -0.1955
 2795SOL    HW211233   3.214   2.087   4.500  0.9801 -0.4153  0.4158
 2795SOL    HW311234   3.150   2.221   4.530 -0.3137 -0.7748 -0.6758
 2795SOL    MW411235   3.151   2.134   4.538  0.3817 -0.7255 -0.1783
 2796SOL     OW11236   0.239   1.092   4.587 -0.3428  0.0580 -0.4862
 2796SOL    HW211237   0.146   1.087   4.564 -0.1895 -0.0840 -1.1023
 2796SOL    HW311238   0.268   1.176   4.552 -0.0003 -0.3618 -1.2348
 2796SOL    MW411239   0.231   1.102   4.579 -0.2774 -0.0161 -0.6666
 2797SOL     OW11240   3.601   2.433   4.231 -0.5572  0.0829  0.6734
 2797SOL    HW211241   3.678   2.409   4.180 -0.9911  0.1478 -0.0238
 2797SOL    HW311242   3.616   2.394   4.317  0.6684  0.8547  0.8292
 2797SOL    MW411243   3.613   2.425   4.236 -0.4528  0.1936  0.6022
 2798SOL     OW11244   1.641   4.203   4.702 -0.3174  0.0398 -0.5227
 2798SOL    HW211245   1.667   4.278   4.649 -2.8168  0.1242 -1.7342
 2798SOL    HW311246   1.688   4.129   4.666 -0.9893  0.3369 -2.0375
 2798SOL    MW411247   1.650   4.203   4.691 -0.7359  0.0901 -0.8821
 2799SOL     OW11248   3.799   4.324   4.503 -0.0234  0.8231  0.0144
 2799SOL    HW211249   3.818   4.231   4.494 -0.3653  0.7349  0.2048
 2799SOL    HW311250   3.794   4.356   4.413  0.2129  0.6816 -0.0487
 2799SOL    MW411251   3.801   4.316   4.490 -0.0374  0.7930  0.0310
 2800SOL     OW11252   3.007   2.465   5.015 -0.2679 -0.1802  0.2071
 2800SOL    HW211253   2.942   2.424   4.958  0.4476  1.2601 -1.6703
 2800SOL    HW311254   3.060   2.392   5.046  0.3129 -0.8484 -2.2324
 2800SOL    MW411255   3.005   2.450   5.012 -0.0966 -0.0784 -0.3629
 2801SOL     OW11256   3.053   3.375   4.605 -0.4826  0.7565  0.0757
 2801SOL    HW211257   2.961   3.393   4.624 -0.3213  1.5184  0.1758
 2801SOL    HW311258   3.055   3.356   4.511 -0.8672 -0.1217  0.2492
 2801SOL    MW411259   3.042   3.375   4.595 -0.5119  0.7412  0.1121
 2802SOL     OW11260   2.242   4.002   4.314 -0.1327  0.3399 -0.3470
 2802SOL    HW211261   2.240   4.082   4.261 -0.7681 -0.3737 -1.4379
 2802SOL    HW311262   2.179   3.944   4.271 -0.7542 -0.2175  1.2950
 2802SOL    MW411263   2.233   4.005   4.301 -0.2985  0.1726 -0.2737
 2803SOL     OW11264   4.307   0.001   4.168  0.0461  0.3552  0.1607
 2803SOL    HW211265   4.372   0.044   4.224  0.4478 -0.8618  0.6436
 2803SOL    HW311266   4.223   0.036   4.199  0.4590  2.1034 -0.6186
 2803SOL    MW411267   4.305   0.012   4.180  0.1535  0.4253  0.1211
 2804SOL     OW11268   3.794   2.041   4.271  0.5487 -0.8533  0.0483
 2804SOL    HW211269   3.720   2.003   4.224  1.1109 -0.4938 -1.1494
 2804SOL    HW311270   3.789   2.135   4.253  0.4300 -0.6243  1.2067
 2804SOL    MW411271   3.784   2.049   4.263  0.6073 -0.7758  0.0434
 2805SOL     OW11272   0.663   1.304   4.301  0.0563  0.3644  0.6143
 2805SOL    HW211273   0.651   1.304   4.396  0.4524  0.8430  0.6658
 2805SOL    HW311274   0.665   1.397   4.277  0.2435  0.2496  0.1791
 2805SOL    MW411275   0.662   1.316   4.310  0.1332  0.4123  0.5636
 2806SOL     OW11276   1.230   3.861   4.690 -0.3655  0.0182 -0.5585
 2806SOL    HW211277   1.277   3.937   4.656 -0.2584 -0.5330 -1.6843
 2806SOL    HW311278   1.139   3.890   4.694  0.1472  1.4184  2.5844
 2806SOL    MW411279   1.224   3.875   4.686 -0.2837  0.1299 -0.2923
 2807SOL     OW11280   4.075   3.621   4.656 -0.0631  0.1231  0.2635
 2807SOL    HW211281   4.158   3.602   4.611 -0.3842  0.1793 -0.3577
 2807SOL    HW311282   4.093   3.601   4.748  0.7642  0.5331  0.1974
 2807SOL    MW411283   4.089   3.616   4.662  0.0033  0.1845  0.1731
 2808SOL     OW11284   2.777   2.718   4.106 -0.2166  0.0987 -0.5781
 2808SOL    HW211285   2.754   2.628   4.128  1.3719 -0.2401 -0.2576
 2808SOL    HW311286   2.703   2.770   4.136 -0.6090 -0.9802  0.3238
 2808SOL    MW411287   2.764   2.713   4.113 -0.0589 -0.0885 -0.4168
 2809SOL     OW11288   2.982   4.615   4.616 -0.4256 -0.2338  0.1597
 2809SOL    HW211289   2.899   4.656   4.593  0.2318  0.2837 -1.3462
 2809SOL    HW311290   3.048   4.665   4.568  0.7464 -0.7555  1.1941
 2809SOL    MW411291   2.980   4.627   4.607 -0.1841 -0.2341  0.0978
 2810SOL     OW11292   3.126   0.166   4.191  0.0212  0.2030  0.1089
 2810SOL    HW211293   3.201   0.109   4.178  0.3315  0.4649  0.7688
 2810SOL    HW311294   3.051   0.112   4.165  0.5134  0.2858 -1.5728
 2810SOL    MW411295   3.126   0.151   4.186  0.1271  0.2485 -0.0257
 2811SOL     OW11296   0.032   1.818   4.569  0.1865 -0.3277  0.2243
 2811SOL    HW211297   0.012   1.777   4.485 -0.4147  0.6409 -0.1069
 2811SOL    HW311298  -0.051   1.822   4.615  0.2546  0.4350  0.2933
 2811SOL    MW411299   0.019   1.813   4.564  0.1162 -0.0992  0.1893
 2812SOL     OW11300   2.835   0.593   4.797 -0.5366  0.1308 -0.1054
 2812SOL    HW211301   2.794   0.668   4.841 -1.4424 -0.6348  0.3969
 2812SOL    HW311302   2.905   0.630   4.744 -0.4262  1.2374  0.8068
 2812SOL    MW411303   2.838   0.608   4.796 -0.6413  0.1757  0.0811
 2813SOL     OW11304   1.853   0.396   4.185 -0.3650 -0.4310  0.0969
 2813SOL    HW211305   1.931   0.441   4.218 -1.3831  0.6503  1.0972
 2813SOL    HW311306   1.780   0.454   4.208 -1.4950 -1.5432 -0.5869
 2813SOL    MW411307   1.853   0.409   4.193 -0.6485 -0.4351  0.1388
 2814SOL     OW11308   2.037   4.421   4.286  0.0361  0.2650  0.2401
 2814SOL    HW211309   2.020   4.441   4.378  0.1975  3.0960 -0.2929
 2814SOL    HW311310   1.960   4.372   4.257 -1.0989  1.4020  1.2827
 2814SOL    MW411311   2.025   4.417   4.295 -0.0925  0.7877  0.3071
 2815SOL     OW11312   0.498   4.349   4.463 -0.4185  0.0697 -0.0741
 2815SOL    HW211313   0.523   4.345   4.370  0.2516 -1.0281  0.1418
 2815SOL    HW311314   0.580   4.360   4.510 -0.2766 -3.2244  0.6157
 2815SOL    MW411315   0.512   4.350   4.457 -0.3114 -0.5093  0.0458
 2816SOL     OW11316   0.201   3.662   4.263  0.0300 -0.1099  0.3774
 2816SOL    HW211317   0.128   3.606   4.237 -0.7006  1.1617 -0.3677
 2816SOL    HW311318   0.178   3.695   4.349 -0.8757  1.2538 -0.3630
 2816SOL    MW411319   0.189   3.659   4.271 -0.1859  0.2377  0.1817
 2817SOL     OW11320   3.814   1.551   4.154  0.1594 -0.2385  0.4768
 2817SOL    HW211321   3.816   1.464   4.194  2.5610  0.1193  1.1949
 2817SOL    HW311322   3.871   1.604   4.208 -0.0562  1.4156 -0.8619
 2817SOL    MW411323   3.822   1.547   4.166  0.4478  0.0271  0.3948
 2818SOL     OW11324   1.927   1.064   4.680 -0.4981  0.5763 -0.0587
 2818SOL    HW211325   2.000   1.115   4.645  0.1069 -0.4355 -0.2737
 2818SOL    HW311326   1.859   1.129   4.698 -0.2605  1.2914 -1.6889
 2818SOL    MW411327   1.928   1.079   4.678 -0.3868  0.5372 -0.3014
 2819SOL     OW11328   2.172   2.011   4.713  0.5134  0.3384 -0.1157
 2819SOL    HW211329   2.177   2.065   4.792  1.9411  0.1772 -0.0772
 2819SOL    HW311330   2.160   1.922   4.746 -0.0020  0.4050 -0.1196
 2819SOL    MW411331   2.171   2.006   4.728  0.6335  0.3259 -0.1106
 2820SOL     OW11332   0.794   2.040   4.715 -0.2642  0.3577  0.3478
 2820SOL    HW211333   0.766   2.002   4.798 -0.4335 -0.6664 -0.1711
 2820SOL    HW311334   0.890   2.040   4.719 -0.2550 -0.4868  0.1918
 2820SOL    MW411335   0.803   2.035   4.726 -0.2853  0.1111  0.2584
 2821SOL     OW11336   2.718   3.267   4.468  0.3073 -0.0598 -0.0692
 2821SOL    HW211337   2.785   3.199   4.468  0.5914  0.2124  1.2623
 2821SOL    HW311338   2.656   3.241   4.535  1.2237  1.7436  1.5345
 2821SOL    MW411339   2.719   3.255   4.477  0.4656  0.2141  0.3176
 2822SOL     OW11340   2.270   1.173   4.135  0.5335  0.0995  0.3335
 2822SOL    HW211341   2.192   1.218   4.167  1.3639  1.6208  0.2450
 2822SOL    HW311342   2.341   1.209   4.188  1.4878  0.3851 -1.1416
 2822SOL    MW411343   2.269   1.184   4.147  0.7691  0.3378  0.1273
 2823SOL     OW11344   2.527   3.218   4.633 -0.0944  0.0743 -0.0783
 2823SOL    HW211345   2.517   3.307   4.668 -1.0284 -0.0097 -0.1244
 2823SOL    HW311346   2.562   3.167   4.707 -1.1145  0.1215  0.4527
 2823SOL    MW411347   2.530   3.223   4.648 -0.3524  0.0694 -0.0138
 2824SOL     OW11348   4.383   2.249   4.537  0.7779 -0.0551  0.1799
 2824SOL    HW211349   4.327   2.309   4.586 -0.5312  0.9425 -2.4222
 2824SOL    HW311350   4.324   2.181   4.506  1.1265  0.4649 -1.7431
 2824SOL    MW411351   4.368   2.248   4.539  0.6509  0.1454 -0.4168
 2825SOL     OW11352   0.041   2.726   4.121 -0.4209  0.4362  0.3055
 2825SOL    HW211353   0.042   2.648   4.177  1.4271  0.3644  0.1937
 2825SOL    HW311354   0.109   2.783   4.158 -0.3417  1.1155 -0.8697
 2825SOL    MW411355   0.050   2.723   4.133 -0.1666  0.5162  0.1359
 2826SOL     OW11356   1.590   0.713   4.612 -0.2541 -0.1316  0.1432
 2826SOL    HW211357   1.572   0.708   4.706 -0.2218 -0.1673  0.1472
 2826SOL    HW311358   1.609   0.623   4.586 -1.0921 -0.2455 -0.0712
 2826SOL    MW411359   1.590   0.700   4.621 -0.3604 -0.1513  0.1154
 2827SOL     OW11360   2.299   1.739   4.519  0.0747  0.0133 -0.0988
 2827SOL    HW211361   2.272   1.716   4.430  1.4397 -1.4206 -0.1706
 2827SOL    HW311362   2.344   1.822   4.510 -1.8143  1.0416 -0.3822
 2827SOL    MW411363   2.301   1.747   4.506  0.0057 -0.0402 -0.1450
 2828SOL     OW11364   2.674   2.222   4.928 -0.1408  0.1183  0.1792
 2828SOL    HW211365   2.722   2.295   4.890  0.4126 -0.5666 -0.4479
 2828SOL    HW311366   2.737   2.180   4.986 -0.1914 -0.3718 -0.1181
 2828SOL    MW411367   2.688   2.226   4.931 -0.0746 -0.0367  0.0567
 2829SOL     OW11368   3.332   4.378   4.213  0.0816 -0.3393 -0.0250
 2829SOL    HW211369   3.425   4.359   4.200  0.0370 -0.2574 -0.4840
 2829SOL    HW311370   3.322   4.387   4.308  0.8524  1.1941 -0.0771
 2829SOL    MW411371   3.343   4.377   4.224  0.1774 -0.1264 -0.0925
 2830SOL     OW11372   3.493   1.224   4.482  0.1670 -0.4887  0.1998
 2830SOL    HW211373   3.478   1.252   4.392  1.2855  1.7365  0.6605
 2830SOL    HW311374   3.437   1.282   4.534 -0.7182 -1.9733  0.9235
 2830SOL    MW411375   3.483   1.235   4.477  0.1979 -0.3911  0.3562
 2831SOL     OW11376   3.102   1.227   4.501 -0.1021 -0.2650 -0.1032
 2831SOL    HW211377   3.116   1.133   4.505  0.1478 -0.2647 -1.0271
 2831SOL    HW311378   3.049   1.240   4.422 -1.5054  0.1974  0.8851
 2831SOL    MW411379   3.097   1.217   4.491 -0.2539 -0.2038 -0.0944
 2832SOL     OW11380   3.128   3.645   4.571 -0.4156  0.5043  0.1468
 2832SOL    HW211381   3.127   3.553   4.598  0.7580  0.2985 -0.4602
 2832SOL    HW311382   3.216   3.659   4.536 -1.1142  1.4117 -1.3156
 2832SOL    MW411383   3.139   3.635   4.570 -0.3531  0.5970 -0.1264
 2833SOL     OW11384   0.219   2.092   4.265  0.0169 -0.1576 -0.3554
 2833SOL    HW211385   0.181   2.095   4.352  1.5208 -0.2230  0.3274
 2833SOL    HW311386   0.302   2.046   4.276 -0.0813 -0.7795 -1.9498
 2833SOL    MW411387   0.225   2.086   4.278  0.2024 -0.2482 -0.4754
 2834SOL     OW11388   2.919   4.654   4.140  0.0836 -0.4157  0.0970
 2834SOL    HW211389   2.921   4.563   4.169 -0.1547 -0.2890  0.5131
 2834SOL    HW311390   2.854   4.696   4.196 -1.0838 -0.3915 -1.2327
 2834SOL    MW411391   2.910   4.648   4.151 -0.1020 -0.3958 -0.0234
 2835SOL     OW11392   3.091   3.570   4.130 -0.7264 -0.1481  0.3777
 2835SOL    HW211393   3.103   3.492   4.184  0.0805  0.3598  0.9327
 2835SOL    HW311394   3.114   3.541   4.041 -2.1567 -1.0087  0.2638
 2835SOL    MW411395   3.095   3.556   4.125 -0.8087 -0.1948  0.4358
 2836SOL     OW11396   3.004   1.658   4.479  0.1881 -0.1783 -0.1210
 2836SOL    HW211397   2.923   1.608   4.483  0.7698 -1.3828 -2.3523
 2836SOL    HW311398   2.976   1.749   4.471 -0.9497 -0.6155 -1.2234
 2836SOL    MW411399   2.990   1.664   4.478  0.1147 -0.3949 -0.5608
 2837SOL     OW11400   3.285   3.178   4.619 -0.3082 -0.4055 -0.5943
 2837SOL    HW211401   3.361   3.215   4.574  0.4140 -0.8153  0.2594
 2837SOL    HW311402   3.224   3.251   4.626  0.0689 -0.0291 -1.1556
 2837SOL    MW411403   3.287   3.193   4.614 -0.1633 -0.4098 -0.5560
 2838SOL     OW11404   0.458   2.767   4.829  0.2854 -0.2205  0.2187
 2838SOL    HW211405   0.378   2.731   4.789 -0.4082 -0.4260  1.7723
 2838SOL    HW311406   0.442   2.763   4.923  2.8871 -2.0519  0.6335
 2838SOL    MW411407   0.445   2.762   4.836  0.5372 -0.4895  0.4783
 2839SOL     OW11408   3.613   0.184   4.481 -0.0991  0.0667 -0.0903
 2839SOL    HW211409   3.547   0.134   4.528 -0.2341 -0.3582 -0.7170
 2839SOL    HW311410   3.579   0.273   4.479  0.3639  0.2847  1.4421
 2839SOL    MW411411   3.600   0.189   4.487 -0.0558  0.0394  0.0296
 2840SOL     OW11412   3.148   2.425   4.203  0.1617 -0.6661  0.1069
 2840SOL    HW211413   3.146   2.423   4.298 -0.8173 -1.6445  0.0788
 2840SOL    HW311414   3.228   2.378   4.179  0.5350 -0.2047  0.4460
 2840SOL    MW411415   3.158   2.419   4.212  0.0818 -0.7346  0.1483
 2841SOL     OW11416   0.998   1.765   4.535 -0.1082 -0.0742 -0.5271
 2841SOL    HW211417   0.903   1.776   4.531 -0.1225  0.3233  0.9083
 2841SOL    HW311418   1.033   1.854   4.532  0.1820 -0.1699  0.0629
 2841SOL    MW411419   0.990   1.778   4.534 -0.0718 -0.0345 -0.2599
 2842SOL     OW11420   0.022   3.241   4.195 -0.2447 -0.1994 -0.3929
 2842SOL    HW211421  -0.061   3.195   4.200 -0.4744  0.1753 -0.7765
 2842SOL    HW311422  -0.001   3.332   4.176  0.2330 -0.0291 -0.1779
 2842SOL    MW411423   0.008   3.247   4.193 -0.2120 -0.1278 -0.4148
 2843SOL     OW11424   2.083   1.283   4.499 -0.0692 -0.2300 -0.2983
 2843SOL    HW211425   2.178   1.271   4.501 -0.2585 -2.0064 -0.4105
 2843SOL    HW311426   2.061   1.277   4.406 -0.2099  0.9346 -0.3418
 2843SOL    MW411427   2.092   1.280   4.487 -0.1125 -0.3108 -0.3190
 2844SOL     OW11428   2.476   3.632   4.289  0.2502 -0.0840 -0.1647
 2844SOL    HW211429   2.494   3.726   4.278  0.2981 -0.2789 -1.9421
 2844SOL    HW311430   2.547   3.589   4.240 -0.6267 -1.0107 -0.6230
 2844SOL    MW411431   2.488   3.639   4.281  0.1409 -0.2320 -0.4592
 2845SOL     OW11432   1.513   3.069   4.863  0.9182  0.2620  0.7081
 2845SOL    HW211433   1.470   3.033   4.786  0.7327 -0.1820  1.0181
 2845SOL    HW311434   1.444   3.074   4.929  1.1893  0.1741  0.9974
 2845SOL    MW411435   1.498   3.065   4.861  0.9295  0.1922  0.7873
 2846SOL     OW11436   1.545   1.505   4.125 -0.1702  0.3176 -0.5702
 2846SOL    HW211437   1.628   1.552   4.138 -0.4788  0.2146  2.0212
 2846SOL    HW311438   1.558   1.420   4.166 -2.1476  0.9866  1.5875
 2846SOL    MW411439   1.558   1.500   4.132 -0.4718  0.3922  0.0567
 2847SOL     OW11440   1.592   0.528   4.211  0.1444 -0.1495  0.0285
 2847SOL    HW211441   1.584   0.621   4.188  0.3799  0.0401  0.7133
 2847SOL    HW311442   1.515   0.487   4.172 -1.3034  0.7492  1.8974
 2847SOL    MW411443   1.581   0.535   4.203 -0.0155 -0.0060  0.3653
 2848SOL     OW11444   3.803   0.724   4.140 -0.5731 -0.3838 -0.7043
 2848SOL    HW211445   3.806   0.741   4.046  0.1111  0.1205 -0.5987
 2848SOL    HW311446   3.732   0.779   4.173  0.2110  0.6369 -0.6961
 2848SOL    MW411447   3.794   0.733   4.132 -0.3796 -0.1826 -0.6890
 2849SOL     OW11448   4.255   0.738   4.151  0.3292 -0.1089 -0.2781
 2849SOL    HW211449   4.266   0.738   4.056 -0.4138  1.4191 -0.3702
 2849SOL    HW311450   4.259   0.645   4.176  0.4439 -0.5174 -1.8016
 2849SOL    MW411451   4.257   0.726   4.142  0.2465  0.0389 -0.4911
 2850SOL     OW11452   2.511   2.264   4.145 -0.2402  0.1920 -0.3472
 2850SOL    HW211453   2.435   2.320   4.162 -0.2355  0.9567 -2.6753
 2850SOL    HW311454   2.516   2.260   4.050  2.4963 -0.0543 -0.2169
 2850SOL    MW411455   2.501   2.271   4.135  0.1216  0.2604 -0.6371
 2851SOL     OW11456   0.691   2.912   4.524 -0.0136 -0.5093  0.1993
 2851SOL    HW211457   0.625   2.978   4.540 -0.4333 -1.1342  1.0758
 2851SOL    HW311458   0.667   2.874   4.439 -0.1991 -0.0521  0.0495
 2851SOL    MW411459   0.679   2.916   4.515 -0.0935 -0.5312  0.2956
 2852SOL     OW11460   3.347   2.012   4.214  0.2194  0.0389  0.0451
 2852SOL    HW211461   3.334   2.104   4.188  0.5441 -0.0788 -0.5424
 2852SOL    HW311462   3.428   1.986   4.170  0.9679 -0.0632  1.4867
 2852SOL    MW411463   3.356   2.021   4.205  0.3607  0.0098  0.1578
 2853SOL     OW11464   0.644   1.016   4.648  0.1228  0.4671  0.5678
 2853SOL    HW211465   0.608   1.012   4.736  2.0310 -1.6604  1.3036
 2853SOL    HW311466   0.582   0.966   4.594 -0.1596  0.3009  1.0489
 2853SOL    MW411467   0.631   1.009   4.652  0.3373  0.1646  0.7281
 2854SOL     OW11468   0.513   3.097   4.601  0.2552  0.1577 -0.6307
 2854SOL    HW211469   0.435   3.050   4.571 -0.4160  0.3261  0.8087
 2854SOL    HW311470   0.533   3.059   4.686  1.2774  0.6611 -0.6356
 2854SOL    MW411471   0.506   3.086   4.608  0.3015  0.2468 -0.4411
 2855SOL     OW11472   3.562   3.484   4.126 -0.8384  0.4153  0.2816
 2855SOL    HW211473   3.509   3.562   4.139  0.4224  1.3190  0.1038
 2855SOL    HW311474   3.640   3.498   4.180 -0.6580 -0.7747  0.3517
 2855SOL    MW411475   3.565   3.496   4.135 -0.6480  0.3777  0.2680
 2856SOL     OW11476   1.431   0.248   4.510  0.2427  0.2786  0.6228
 2856SOL    HW211477   1.346   0.271   4.548  0.0066 -0.6548  0.6692
 2856SOL    HW311478   1.410   0.214   4.423  0.4478 -1.2320  1.1554
 2856SOL    MW411479   1.417   0.246   4.503  0.2387 -0.0439  0.6990
 2857SOL     OW11480   0.683   0.174   4.534 -0.0884  0.2450 -0.3299
 2857SOL    HW211481   0.654   0.215   4.452  0.3206  0.4866 -0.3550
 2857SOL    HW311482   0.613   0.112   4.555 -1.4662  2.0181  0.4886
 2857SOL    MW411483   0.670   0.171   4.526 -0.2162  0.5109 -0.2246
 2858SOL     OW11484   0.161   4.588   4.481 -0.0136 -0.1361  0.2266
 2858SOL    HW211485   0.244   4.626   4.513 -0.6628  0.8536  0.7685
 2858SOL    HW311486   0.125   4.655   4.424 -0.0165 -0.9422 -0.7294
 2858SOL    MW411487   0.167   4.602   4.478 -0.0997 -0.1116  0.1717
 2859SOL     OW11488   0.461   4.002   4.239  0.0259  0.0075  0.1335
 2859SOL    HW211489   0.442   4.016   4.332 -0.7310 -0.2234  0.0128
 2859SOL    HW311490   0.448   4.088   4.199 -0.1136 -0.0010  0.1596
 2859SOL    MW411491   0.457   4.015   4.246 -0.0924 -0.0238  0.1206
 2860SOL     OW11492   4.241   1.834   4.662  0.1403  0.5518  0.3852
 2860SOL    HW211493   4.221   1.867   4.750  0.8453 -0.9234  1.1306
 2860SOL    HW311494   4.159   1.794   4.632 -0.0946  1.0344  0.3883
 2860SOL    MW411495   4.227   1.833   4.670  0.2017  0.4208  0.4835
 2861SOL     OW11496   1.624   4.665   4.180  0.3976 -0.2610  0.2791
 2861SOL    HW211497   1.691   4.716   4.225  1.6536 -0.9295 -0.7780
 2861SOL    HW311498   1.638   4.575   4.211  0.5590 -0.5398 -0.5777
 2861SOL    MW411499   1.635   4.660   4.190  0.5846 -0.3858  0.0267
 2862SOL     OW11500   0.672   0.845   4.168 -0.1310  0.3084  0.2900
 2862SOL    HW211501   0.699   0.822   4.079 -0.9715  0.8361 -0.1108
 2862SOL    HW311502   0.659   0.760   4.211  3.4037  0.0028  0.9227
 2862SOL    MW411503   0.674   0.830   4.162  0.2245  0.3377  0.3204
 2863SOL     OW11504   3.347   3.648   4.182 -0.1500  0.5344 -0.4031
 2863SOL    HW211505   3.350   3.660   4.277 -1.5047  0.5517 -0.3457
 2863SOL    HW311506   3.257   3.620   4.165  0.1725  0.2449 -1.6503
 2863SOL    MW411507   3.336   3.646   4.192 -0.2863  0.4983 -0.5603
 2864SOL     OW11508   2.029   0.048   4.611  0.0046  0.0644 -0.2362
 2864SOL    HW211509   2.121   0.075   4.609 -0.0385  0.5069  2.0607
 2864SOL    HW311510   1.980   0.127   4.587  0.1910  0.0876 -0.5360
 2864SOL    MW411511   2.034   0.062   4.608  0.0236  0.1258  0.0272
 2865SOL     OW11512   1.610   3.743   4.598 -0.1556 -0.8063  0.4693
 2865SOL    HW211513   1.565   3.773   4.677 -0.3635 -0.6625  0.2998
 2865SOL    HW311514   1.571   3.657   4.580 -0.0005 -0.9053  0.6099
 2865SOL    MW411515   1.599   3.736   4.606 -0.1626 -0.8004  0.4659
 2866SOL     OW11516   0.433   2.497   4.529  0.3978 -0.9066  0.1530
 2866SOL    HW211517   0.448   2.504   4.435  0.1263 -1.0957  0.0954
 2866SOL    HW311518   0.518   2.519   4.568  0.0704  0.8945 -0.0697
 2866SOL    MW411519   0.446   2.501   4.522  0.3188 -0.6938  0.1159
 2867SOL     OW11520   0.438   1.931   4.206 -0.0960  0.1478  0.2255
 2867SOL    HW211521   0.455   1.925   4.112 -0.4465  0.8487  0.1173
 2867SOL    HW311522   0.515   1.974   4.243 -0.6011  1.2187  0.0516
 2867SOL    MW411523   0.450   1.936   4.199 -0.2089  0.3815  0.1879
 2868SOL     OW11524   2.041   3.579   4.233  0.3091 -0.2058 -0.2295
 2868SOL    HW211525   2.043   3.675   4.230 -3.5735 -0.0107  0.0639
 2868SOL    HW311526   2.034   3.559   4.327  0.2834 -0.7203 -0.3417
 2868SOL    MW411527   2.040   3.589   4.245 -0.2065 -0.2480 -0.2055
 2869SOL     OW11528   3.604   1.702   4.253  0.0346  0.3165  0.1135
 2869SOL    HW211529   3.667   1.642   4.211 -0.8890  0.0761 -0.9538
 2869SOL    HW311530   3.519   1.661   4.238 -0.3340  0.3722  2.0268
 2869SOL    MW411531   3.601   1.688   4.245 -0.1359  0.2922  0.2255
 2870SOL     OW11532   0.325   1.627   4.592 -0.2108 -0.1552 -0.2408
 2870SOL    HW211533   0.255   1.676   4.635  0.6059  2.2761 -1.5951
 2870SOL    HW311534   0.405   1.658   4.635  0.2698 -0.8295 -0.6474
 2870SOL    MW411535   0.327   1.638   4.604 -0.0396  0.0765 -0.4725
 2871SOL     OW11536   2.967   1.895   4.784  0.1349 -0.0923 -0.6021
 2871SOL    HW211537   3.053   1.853   4.793  0.0969 -0.1795 -0.6428
 2871SOL    HW311538   2.911   1.846   4.844  0.2748  0.4023 -0.0596
 2871SOL    MW411539   2.971   1.883   4.793  0.1488 -0.0386 -0.5360
 2872SOL     OW11540   3.998   1.733   4.561 -0.5875 -0.0475  0.1368
 2872SOL    HW211541   3.942   1.804   4.530 -0.9047 -0.2918  0.1471
 2872SOL    HW311542   3.937   1.665   4.590 -0.2922  0.0651  1.0311
 2872SOL    MW411543   3.982   1.733   4.561 -0.5906 -0.0650  0.2561
 2873SOL     OW11544   4.322   1.050   4.453  0.5675  0.1772 -0.0643
 2873SOL    HW211545   4.287   1.139   4.442  1.5919  0.8526  1.8072
 2873SOL    HW311546   4.252   1.002   4.497  0.0847  0.1137 -0.8986
 2873SOL    MW411547   4.309   1.056   4.458  0.6385  0.2580  0.0725
 2874SOL     OW11548   3.793   1.272   4.505 -0.5714 -0.1930 -0.1027
 2874SOL    HW211549   3.818   1.277   4.412  0.4656 -1.1692  0.1047
 2874SOL    HW311550   3.700   1.253   4.504 -0.5036 -0.5129 -0.9642
 2874SOL    MW411551   3.784   1.270   4.492 -0.4256 -0.3639 -0.1888
 2875SOL     OW11552   2.567   1.868   4.819  0.2273  0.2071 -0.3192
 2875SOL    HW211553   2.486   1.869   4.871  1.0614  1.6107  0.9961
 2875SOL    HW311554   2.559   1.946   4.763  0.1899 -0.2583 -0.9685
 2875SOL    MW411555   2.555   1.879   4.818  0.3328  0.3309 -0.2317
 2876SOL     OW11556   0.642   2.652   4.648  0.5813 -0.0360  0.2770
 2876SOL    HW211557   0.675   2.729   4.602 -0.4026  0.2781  0.0999
 2876SOL    HW311558   0.598   2.686   4.726  1.9694 -0.5490  1.3173
 2876SOL    MW411559   0.641   2.666   4.652  0.6346 -0.0622  0.3910
 2877SOL     OW11560   3.450   2.666   4.629  0.4856  0.1645  0.2655
 2877SOL    HW211561   3.460   2.756   4.597 -0.4812 -0.2147 -1.1214
 2877SOL    HW311562   3.387   2.674   4.701 -0.3328  0.4814 -0.4693
 2877SOL    MW411563   3.443   2.679   4.634  0.2499  0.1562 -0.0143
 2878SOL     OW11564   0.034   4.397   4.629 -0.1308  0.1902 -0.4453
 2878SOL    HW211565   0.083   4.463   4.581  0.4494 -0.3690 -0.6334
 2878SOL    HW311566  -0.049   4.390   4.582 -0.4959  1.3156  0.0162
 2878SOL    MW411567   0.030   4.405   4.616 -0.1024  0.2651 -0.4091
 2879SOL     OW11568   2.513   4.425   4.553  0.4984  0.0534  0.4984
 2879SOL    HW211569   2.546   4.339   4.526  0.1600 -0.5659  1.9955
 2879SOL    HW311570   2.427   4.407   4.589  1.6200  0.5895  3.5615
 2879SOL    MW411571   2.506   4.411   4.554  0.6018  0.0424  1.1001
 2880SOL     OW11572   3.384   0.514   4.193 -0.2903  0.0779  0.0310
 2880SOL    HW211573   3.382   0.606   4.167  0.0110 -0.6193 -2.6901
 2880SOL    HW311574   3.298   0.480   4.170 -0.5374 -0.2257  1.3950
 2880SOL    MW411575   3.373   0.522   4.187 -0.2830 -0.0542 -0.1488
 2881SOL     OW11576   3.091   4.255   4.131 -0.0900  0.1305  0.4388
 2881SOL    HW211577   3.100   4.165   4.162 -2.1045 -0.1768  0.1625
 2881SOL    HW311578   3.170   4.299   4.163  0.5131 -1.5198  1.2758
 2881SOL    MW411579   3.103   4.249   4.139 -0.2766 -0.1278  0.5131
 2882SOL     OW11580   0.581   3.370   4.521 -0.0824 -0.2492  0.0392
 2882SOL    HW211581   0.531   3.297   4.557 -0.8426  0.8046  1.1808
 2882SOL    HW311582   0.669   3.335   4.510 -0.6621 -1.6216 -0.3592
 2882SOL    MW411583   0.586   3.356   4.524 -0.2592 -0.2913  0.1369
 2883NA      NA11584   2.695   3.485   0.650  0.0423 -0.1793 -0.2993
   4.49070   4.66690  10.00000
