Gromacs Runs On Most of All Computer Systems in water t= 30000.00000 step= 30000000
11584
    1RU5    O5'    1   2.655   2.342   4.611 -0.7047  0.2996 -0.0487
    1RU5    H5T    2   2.618   2.255   4.592 -1.3251  0.2172  1.4452
    1RU5    C5'    3   2.682   2.407   4.489 -0.2527  0.2765 -0.1385
    1RU5   H5'1    4   2.692   2.346   4.399  2.2579 -0.1538  0.4157
    1RU5   H5'2    5   2.772   2.466   4.503  0.6103 -0.7439 -1.2549
    1RU5    C4'    6   2.569   2.516   4.472 -0.6135 -0.2495  0.6797
    1RU5    H4'    7   2.585   2.574   4.381 -1.2962  2.5118  2.2479
    1RU5    O4'    8   2.442   2.456   4.457  0.1208 -0.4125 -0.2921
    1RU5    C1'    9   2.340   2.554   4.483 -0.0155  0.1400  0.2071
    1RU5    H1'   10   2.318   2.591   4.382  1.5491  1.5055  0.3407
    1RU5     N1   11   2.224   2.484   4.546 -0.2630  0.1017 -0.1989
    1RU5     C6   12   2.241   2.358   4.601 -0.7123 -0.6295 -0.4314
    1RU5     H6   13   2.341   2.320   4.620  0.3301  1.2164 -2.0422
    1RU5     C5   14   2.135   2.279   4.615 -0.2395 -0.1049  0.3046
    1RU5     H5   15   2.149   2.177   4.647  2.2993  0.2374  0.3734
    1RU5     C4   16   1.999   2.323   4.582 -0.0327 -0.1443  0.0412
    1RU5     O4   17   1.892   2.261   4.605 -0.4217 -0.0381  0.3919
    1RU5     N3   18   1.992   2.450   4.535  0.1583  0.1155 -0.5824
    1RU5     H3   19   1.897   2.486   4.534 -0.4019 -1.3428 -2.5825
    1RU5     C2   20   2.096   2.539   4.521 -0.1315 -0.0497 -0.2755
    1RU5     O2   21   2.073   2.656   4.496  0.4870  0.3362 -0.4712
    1RU5    C3'   22   2.543   2.618   4.581  0.1792  0.3412 -0.5149
    1RU5    H3'   23   2.549   2.562   4.674  2.4756  0.4780 -0.5462
    1RU5    C2'   24   2.400   2.664   4.570  0.0248  0.3106 -0.1635
    1RU5   H2'1   25   2.346   2.665   4.665 -0.2724 -2.9414 -0.2623
    1RU5    O2'   26   2.401   2.791   4.507 -0.4018 -0.1774  0.2440
    1RU5   HO'2   27   2.490   2.803   4.473 -1.0494  0.4271 -1.3197
    1RU5    O3'   28   2.646   2.718   4.576  0.6157 -0.2575 -0.3161
    2RG3      P   29   2.686   2.791   4.712  0.0036 -0.0305  0.1084
    2RG3    O1P   30   2.778   2.899   4.668  0.4020  0.0127  0.3481
    2RG3    O2P   31   2.738   2.686   4.804  0.0903 -0.0659 -0.2052
    2RG3    O5'   32   2.554   2.846   4.776 -0.1742 -0.4321 -0.2597
    2RG3    C5'   33   2.507   2.977   4.740  0.2661  0.0147  0.1217
    2RG3   H5'1   34   2.478   2.990   4.636 -1.3439  1.9745  0.8023
    2RG3   H5'2   35   2.593   3.037   4.770  0.9904 -0.0421 -1.7670
    2RG3    C4'   36   2.385   2.998   4.834  0.0656 -0.2595  0.2305
    2RG3    H4'   37   2.350   3.100   4.817  0.7508  0.4594  2.7887
    2RG3    O4'   38   2.280   2.911   4.788  0.1858  0.7202 -0.5813
    2RG3    C1'   39   2.217   2.856   4.902 -0.6664  0.2252 -0.1728
    2RG3    H1'   40   2.109   2.858   4.893 -0.7890 -0.7565  0.9168
    2RG3     N9   41   2.251   2.711   4.923  0.0176 -0.3236 -0.2067
    2RG3     C8   42   2.372   2.647   4.939 -0.0072 -0.0992  0.4302
    2RG3     H8   43   2.464   2.703   4.945 -0.9453  1.3033  2.4529
    2RG3     N7   44   2.367   2.519   4.938 -0.1497 -0.2702 -0.3396
    2RG3     C5   45   2.228   2.490   4.935 -0.0096  0.0609 -0.0170
    2RG3     C6   46   2.156   2.370   4.926  0.3498  0.1535 -0.0307
    2RG3     O6   47   2.200   2.257   4.915  0.4773  0.0482 -0.1729
    2RG3     N1   48   2.020   2.389   4.912  0.1247  0.4496 -0.4323
    2RG3     H1   49   1.958   2.309   4.919  1.7463 -0.7546  0.4396
    2RG3     C2   50   1.957   2.504   4.890 -0.3264 -1.0305 -0.2766
    2RG3     N2   51   1.831   2.504   4.861 -0.7781  0.2235 -0.9138
    2RG3    H21   52   1.779   2.418   4.858 -0.7578  0.1394  0.7519
    2RG3    H22   53   1.795   2.592   4.827  1.7463  1.1083 -1.4019
    2RG3     N3   54   2.021   2.622   4.895  0.1915  0.2344 -0.3332
    2RG3     C4   55   2.157   2.608   4.923 -0.2743 -0.2239  0.3580
    2RG3    C3'   56   2.397   2.991   4.985 -0.0621  0.1539  0.0277
    2RG3    H3'   57   2.469   2.913   5.009 -0.1470 -0.0235 -0.2979
    2RG3    C2'   58   2.257   2.941   5.031  0.0898  0.1322  0.6533
    2RG3   H2'1   59   2.257   2.877   5.119 -0.5601 -0.3547  0.3061
    2RG3    O2'   60   2.163   3.048   5.056 -0.9232 -0.2644  0.2002
    2RG3   HO'2   61   2.219   3.114   5.098  0.7985 -2.3918  1.3521
    2RG3    O3'   62   2.425   3.118   5.044 -0.0703 -0.1089 -0.0657
    2RG3    H3T   63   2.514   3.142   5.016  1.0886 -4.2564 -0.3451
    3SOL     OW   64   1.713   3.697   0.436  0.1208 -0.2617  0.0756
    3SOL    HW2   65   1.797   3.713   0.392  0.2689 -1.2240 -0.0087
    3SOL    HW3   66   1.677   3.620   0.391  0.1387 -1.0702  1.4300
    3SOL    MW4   67   1.720   3.689   0.424  0.1427 -0.4952  0.2431
    4SOL     OW   68   2.725   4.464   0.366 -0.6539  0.0648  0.1955
    4SOL    HW2   69   2.723   4.484   0.273  1.5690 -3.2022 -0.6444
    4SOL    HW3   70   2.782   4.531   0.404 -0.0346  0.2968 -1.1133
    4SOL    MW4   71   2.732   4.475   0.359 -0.2789 -0.3357 -0.0879
    5SOL     OW   72   3.288   0.934   0.490 -0.0988 -0.3708 -0.2736
    5SOL    HW2   73   3.242   0.916   0.572  0.2233  0.1002  0.0118
    5SOL    HW3   74   3.268   1.025   0.471  0.4229 -0.2705 -0.3405
    5SOL    MW4   75   3.279   0.943   0.498  0.0124 -0.2954 -0.2448
    6SOL     OW   76   0.429   0.084   0.450 -0.3273  0.1036  0.2161
    6SOL    HW2   77   0.338   0.069   0.423 -0.3503  0.1238  0.2846
    6SOL    HW3   78   0.471  -0.001   0.438 -0.6504 -0.2281  1.3825
    6SOL    MW4   79   0.422   0.071   0.444 -0.3730  0.0625  0.3790
    7SOL     OW   80   0.540   1.482   0.267  0.2395  0.0698  0.1950
    7SOL    HW2   81   0.623   1.434   0.267  0.3999  0.3452  0.1990
    7SOL    HW3   82   0.545   1.538   0.190  0.3158  0.5317  0.5356
    7SOL    MW4   83   0.551   1.483   0.257  0.2707  0.1671  0.2405
    8SOL     OW   84   0.522   3.689   0.393 -0.1489  0.5694 -0.2844
    8SOL    HW2   85   0.443   3.642   0.419  0.1597 -0.2426 -0.8019
    8SOL    HW3   86   0.540   3.659   0.305  2.0039 -0.9517  0.6371
    8SOL    MW4   87   0.514   3.679   0.385  0.1759  0.2615 -0.2311
    9SOL     OW   88   3.674   3.168   0.504  0.2311  0.6948  0.1663
    9SOL    HW2   89   3.662   3.081   0.466 -1.5035  1.1724 -0.4255
    9SOL    HW3   90   3.607   3.222   0.462 -1.5794  1.3221  3.6311
    9SOL    MW4   91   3.664   3.163   0.494 -0.2367  0.8404  0.5454
   10SOL     OW   92   1.019   0.101   0.431 -0.1307 -0.5116  0.0945
   10SOL    HW2   93   0.979   0.084   0.516 -0.2198 -1.4397 -0.1302
   10SOL    HW3   94   1.036   0.015   0.394  1.2186 -0.1266 -0.2240
   10SOL    MW4   95   1.016   0.088   0.437  0.0355 -0.5833  0.0228
   11SOL     OW   96   0.630   2.818   0.485  0.3527 -0.2416  0.0746
   11SOL    HW2   97   0.560   2.869   0.444  1.2395  1.4606  0.6316
   11SOL    HW3   98   0.707   2.839   0.432  0.3029 -2.7676 -1.0592
   11SOL    MW4   99   0.631   2.828   0.472  0.4632 -0.3502 -0.0015
   12SOL     OW  100   0.280   2.050   0.749  0.4188 -0.7743 -0.4045
   12SOL    HW2  101   0.192   2.019   0.774  0.7923 -1.5105  0.0242
   12SOL    HW3  102   0.287   2.137   0.787 -0.3818 -0.4272 -1.0191
   12SOL    MW4  103   0.269   2.057   0.757  0.3625 -0.8259 -0.4290
   13SOL     OW  104   4.097   2.405   0.468  0.4512  0.0286 -0.1774
   13SOL    HW2  105   4.079   2.414   0.561  0.0508  0.6082 -0.3076
   13SOL    HW3  106   4.032   2.461   0.425  0.3569 -0.5747 -0.8229
   13SOL    MW4  107   4.086   2.414   0.475  0.3858  0.0255 -0.2798
   14SOL     OW  108   0.109   0.582   0.382  0.1469  0.3553  0.1943
   14SOL    HW2  109   0.088   0.668   0.347  1.9868  1.0351  0.7243
   14SOL    HW3  110   0.029   0.555   0.427 -0.9382  1.1291 -1.2165
   14SOL    MW4  111   0.095   0.590   0.383  0.2465  0.5472  0.0781
   15SOL     OW  112   0.901   3.934   0.545 -0.3848 -0.1429  0.3738
   15SOL    HW2  113   0.992   3.918   0.520  0.1090  0.3114  1.8431
   15SOL    HW3  114   0.858   3.849   0.535  0.1997 -0.3608 -0.3019
   15SOL    MW4  115   0.907   3.920   0.541 -0.2425 -0.1113  0.4784
   16SOL     OW  116   0.034   1.964   0.832 -0.1250 -0.0588 -0.4122
   16SOL    HW2  117  -0.058   1.983   0.811  0.0697 -0.0304 -1.2359
   16SOL    HW3  118   0.040   1.868   0.827 -0.3182 -0.1257  0.5191
   16SOL    MW4  119   0.023   1.954   0.829 -0.1245 -0.0639 -0.3980
   17SOL     OW  120   2.493   0.649   0.370 -0.2804 -0.1286 -0.1869
   17SOL    HW2  121   2.509   0.651   0.276 -0.4590 -1.1406 -0.2487
   17SOL    HW3  122   2.474   0.557   0.389 -0.9289  0.1864  0.7249
   17SOL    MW4  123   2.493   0.637   0.360 -0.3896 -0.2206 -0.0747
   18SOL     OW  124   3.581   4.451   0.233  0.5916  0.0309  0.0470
   18SOL    HW2  125   3.526   4.418   0.162  0.2643  2.0374 -0.6714
   18SOL    HW3  126   3.520   4.492   0.294  0.8656 -1.8083  1.5665
   18SOL    MW4  127   3.566   4.452   0.232  0.5846  0.0534  0.1527
   19SOL     OW  128   2.260   0.091   0.691  0.2433 -0.1439 -0.3756
   19SOL    HW2  129   2.269   0.110   0.598  0.7244  1.7598  0.0266
   19SOL    HW3  130   2.336   0.039   0.713  0.0228 -0.7688 -1.0885
   19SOL    MW4  131   2.271   0.087   0.682  0.2778  0.0248 -0.4166
   20SOL     OW  132   2.795   2.820   0.481  0.2704  0.2140  0.6051
   20SOL    HW2  133   2.807   2.728   0.456  0.8086  0.1103  1.2397
   20SOL    HW3  134   2.700   2.829   0.491  0.1593 -0.0808 -0.1999
   20SOL    MW4  135   2.784   2.809   0.479  0.3269  0.1616  0.5826
   21SOL     OW  136   3.597   3.179   0.783 -0.8587  0.3605 -0.2410
   21SOL    HW2  137   3.508   3.152   0.806 -0.4142 -1.3608 -0.4382
   21SOL    HW3  138   3.599   3.180   0.688 -0.1997 -1.2997 -0.2601
   21SOL    MW4  139   3.586   3.176   0.774 -0.7131 -0.0856 -0.2695
   22SOL     OW  140   3.888   1.938   0.475 -0.2520 -0.2503 -0.1773
   22SOL    HW2  141   3.940   1.860   0.495 -0.8281 -0.2672  1.3137
   22SOL    HW3  142   3.804   1.904   0.445 -0.3188 -0.2189 -0.0306
   22SOL    MW4  143   3.884   1.923   0.474 -0.3369 -0.2483  0.0388
   23SOL     OW  144   4.339   4.598   0.440 -0.1549  0.3932  0.2024
   23SOL    HW2  145   4.294   4.519   0.469  1.1412  0.1339  1.5697
   23SOL    HW3  146   4.424   4.567   0.411  0.4226  1.3051  0.9128
   23SOL    MW4  147   4.344   4.583   0.440  0.0920  0.4787  0.4765
   24SOL     OW  148   2.728   3.466   0.411 -0.2335  0.5497 -0.2332
   24SOL    HW2  149   2.800   3.523   0.439 -0.9882  0.1526  2.6892
   24SOL    HW3  150   2.656   3.527   0.391  0.0107  0.7982 -0.3527
   24SOL    MW4  151   2.728   3.482   0.412 -0.3009  0.5302  0.1366
   25SOL     OW  152   4.006   3.547   0.508 -0.0701 -0.1479 -0.3262
   25SOL    HW2  153   3.959   3.579   0.586  1.2939  0.4636  0.2619
   25SOL    HW3  154   3.971   3.459   0.494 -0.2134 -0.3361  1.0882
   25SOL    MW4  155   3.995   3.540   0.517  0.0911 -0.0920 -0.0620
   26SOL     OW  156   1.855   3.139   0.361 -0.1985 -0.3944  0.1893
   26SOL    HW2  157   1.770   3.097   0.377 -1.0874  1.5248  0.5860
   26SOL    HW3  158   1.859   3.210   0.424  2.5656 -1.6263  1.4719
   26SOL    MW4  159   1.844   3.143   0.371  0.0488 -0.3037  0.4109
   27SOL     OW  160   1.548   0.495   0.735 -0.2443  0.6154 -0.1277
   27SOL    HW2  161   1.563   0.581   0.775  1.7013  0.3448 -0.2235
   27SOL    HW3  162   1.529   0.514   0.643  0.8639  0.9260 -0.3041
   27SOL    MW4  163   1.548   0.509   0.728  0.1587  0.6207 -0.1636
   28SOL     OW  164   0.664   3.860   0.874  0.4585 -0.4428 -0.3208
   28SOL    HW2  165   0.753   3.897   0.874  0.2767  0.0078 -0.9907
   28SOL    HW3  166   0.610   3.928   0.834 -0.7059  0.5069  2.7510
   28SOL    MW4  167   0.669   3.874   0.869  0.2809 -0.2580 -0.0040
   29SOL     OW  168   0.178   0.097   0.318 -0.2971  0.2138 -0.1832
   29SOL    HW2  169   0.121   0.128   0.389  0.7791 -0.4632  1.0023
   29SOL    HW3  170   0.177   0.169   0.254 -0.0443  1.5294  1.2436
   29SOL    MW4  171   0.171   0.111   0.319 -0.1217  0.2980  0.1615
   30SOL     OW  172   0.962   0.366   0.438 -0.1371 -0.4694  0.5045
   30SOL    HW2  173   0.872   0.374   0.469 -0.8281 -2.2104 -0.9677
   30SOL    HW3  174   0.980   0.272   0.441  0.6683 -0.4071 -1.8298
   30SOL    MW4  175   0.952   0.355   0.443 -0.1220 -0.6908  0.0022
   31SOL     OW  176   0.083   4.507   0.338 -0.4611 -0.0151  0.6123
   31SOL    HW2  177   0.108   4.596   0.316 -0.0708 -0.0136  1.0627
   31SOL    HW3  178   0.161   4.469   0.379 -0.4597 -0.7164 -0.0137
   31SOL    MW4  179   0.097   4.513   0.340 -0.4094 -0.1078  0.5892
   32SOL     OW  180   0.492   0.895   0.714 -0.0164 -0.2046 -0.1705
   32SOL    HW2  181   0.559   0.843   0.756  0.0026  0.6911  0.9568
   32SOL    HW3  182   0.413   0.879   0.766 -0.1163  0.5188 -0.0866
   32SOL    MW4  183   0.490   0.886   0.726 -0.0271  0.0090 -0.0107
   33SOL     OW  184   0.009   0.921   0.683  0.0352 -0.5038 -0.4968
   33SOL    HW2  185  -0.010   0.990   0.747  0.5177 -0.7260 -0.1144
   33SOL    HW3  186   0.096   0.889   0.707  0.0520 -0.8564 -1.0249
   33SOL    MW4  187   0.018   0.926   0.694  0.1011 -0.5797 -0.5161
   34SOL     OW  188   0.337   0.564   0.535  0.1339  0.0927  0.2160
   34SOL    HW2  189   0.251   0.582   0.497  0.8228  0.7064 -1.1025
   34SOL    HW3  190   0.369   0.486   0.489  1.0465  0.9331 -0.5978
   34SOL    MW4  191   0.330   0.556   0.524  0.3452  0.2846 -0.0653
   35SOL     OW  192   3.823   1.404   0.444 -0.1432  0.0468 -0.0159
   35SOL    HW2  193   3.812   1.316   0.407 -0.2162  0.3227 -0.6559
   35SOL    HW3  194   3.748   1.453   0.410 -0.2727  0.2791  0.5893
   35SOL    MW4  195   3.811   1.399   0.435 -0.1700  0.1137 -0.0205
   36SOL     OW  196   2.459   1.267   0.445 -0.3734  0.3347  0.4683
   36SOL    HW2  197   2.380   1.232   0.403 -0.7152  1.0138  0.5397
   36SOL    HW3  198   2.450   1.362   0.437  0.7309  0.3920 -0.0539
   36SOL    MW4  199   2.447   1.275   0.439 -0.2728  0.4319  0.4088
   37SOL     OW  200   3.490   3.353   0.378  0.4692  0.0326  0.7106
   37SOL    HW2  201   3.555   3.372   0.311 -1.5776 -0.3714 -1.4818
   37SOL    HW3  202   3.486   3.432   0.431  0.6217  1.1944 -0.9628
   37SOL    MW4  203   3.498   3.366   0.376  0.2191  0.1326  0.2005
   38SOL     OW  204   4.091   1.724   0.501 -0.9518  0.5735 -0.0965
   38SOL    HW2  205   4.180   1.758   0.494 -1.3115  1.5476  0.0071
   38SOL    HW3  206   4.096   1.634   0.468  0.2617  0.2963  0.8173
   38SOL    MW4  207   4.103   1.716   0.496 -0.8388  0.6655  0.0377
   39SOL     OW  208   0.462   0.805   0.447  0.3016 -0.1346  0.6191
   39SOL    HW2  209   0.405   0.730   0.464  0.1364  0.2234  1.7374
   39SOL    HW3  210   0.480   0.841   0.534  0.7290  0.8607  0.1288
   39SOL    MW4  211   0.457   0.800   0.461  0.3362  0.0439  0.7020
   40SOL     OW  212   1.797   2.707   0.647 -0.3444 -0.2954 -0.4363
   40SOL    HW2  213   1.842   2.666   0.574 -1.7160 -2.0094 -0.3498
   40SOL    HW3  214   1.790   2.637   0.713 -1.1990  0.5573  0.3951
   40SOL    MW4  215   1.802   2.692   0.646 -0.6381 -0.4091 -0.3151
   41SOL     OW  216   0.032   3.201   0.794 -0.0098 -0.0305 -0.1595
   41SOL    HW2  217   0.034   3.180   0.701  0.5639  0.0416 -0.1651
   41SOL    HW3  218  -0.050   3.163   0.826 -0.5961  0.6389 -0.8518
   41SOL    MW4  219   0.021   3.193   0.786 -0.0115  0.0672 -0.2517
   42SOL     OW  220   0.670   2.822   0.757 -0.1901 -0.3111  0.2143
   42SOL    HW2  221   0.641   2.823   0.666 -0.8291 -1.1122  0.4075
   42SOL    HW3  222   0.604   2.770   0.804 -0.5092  1.0876  1.3599
   42SOL    MW4  223   0.658   2.815   0.751 -0.3166 -0.2320  0.3909
   43SOL     OW  224   0.590   2.166   0.484 -0.3907 -0.1674  0.1676
   43SOL    HW2  225   0.600   2.147   0.577  0.4668 -2.0528 -0.2962
   43SOL    HW3  226   0.634   2.250   0.472  1.7151 -1.1224  0.9999
   43SOL    MW4  227   0.597   2.175   0.495  0.0003 -0.5422  0.2163
   44SOL     OW  228   0.964   3.205   0.447  0.3582  0.2046  0.1070
   44SOL    HW2  229   0.937   3.219   0.538 -3.0795 -0.1077 -0.7849
   44SOL    HW3  230   0.960   3.292   0.407 -1.4728 -0.1696 -0.5555
   44SOL    MW4  231   0.960   3.219   0.453 -0.3369  0.1140 -0.0981
   45SOL     OW  232   2.501   0.685   0.799  0.3863 -0.1208  0.2892
   45SOL    HW2  233   2.496   0.601   0.754 -0.5976  0.3521 -0.4800
   45SOL    HW3  234   2.582   0.725   0.766 -0.6087  0.4648 -1.4848
   45SOL    MW4  235   2.511   0.679   0.789  0.1254  0.0188 -0.0463
   46SOL     OW  236   2.494   3.648   0.445 -0.0954 -0.5764  0.3816
   46SOL    HW2  237   2.487   3.658   0.540  0.2773 -0.2610  0.3747
   46SOL    HW3  238   2.419   3.593   0.422 -0.9281  0.3986  0.7001
   46SOL    MW4  239   2.483   3.642   0.454 -0.1562 -0.4063  0.4227
   47SOL     OW  240   1.114   0.768   0.857 -0.0209  0.3168  0.3454
   47SOL    HW2  241   1.111   0.681   0.816  1.0411  1.0138 -1.2724
   47SOL    HW3  242   1.120   0.750   0.951 -0.1807 -1.3513  0.0555
   47SOL    MW4  243   1.115   0.754   0.864  0.0981  0.1886  0.0938
   48SOL     OW  244   1.884   3.922   0.178 -0.3286  0.3940  0.0413
   48SOL    HW2  245   1.864   4.012   0.203 -0.6759  0.2322  0.3484
   48SOL    HW3  246   1.886   3.923   0.083 -2.0263  0.3596  0.0019
   48SOL    MW4  247   1.882   3.934   0.169 -0.5984  0.3681  0.0766
   49SOL     OW  248   0.700   4.383   0.756  0.0030 -0.0954 -0.4196
   49SOL    HW2  249   0.681   4.473   0.782  0.7442  0.1435 -0.6770
   49SOL    HW3  250   0.731   4.391   0.665 -2.3174 -0.8906 -1.3120
   49SOL    MW4  251   0.702   4.396   0.747 -0.2053 -0.1688 -0.5713
   50SOL     OW  252   0.956   3.483   0.431  0.0994 -0.5771  0.3767
   50SOL    HW2  253   1.038   3.528   0.450  0.6798 -1.1081 -0.8723
   50SOL    HW3  254   0.888   3.548   0.450  0.9161  0.7881 -1.2992
   50SOL    MW4  255   0.958   3.497   0.436  0.2837 -0.4671 -0.0092
   51SOL     OW  256   3.833   3.064   0.859  0.4981  0.0065  0.4499
   51SOL    HW2  257   3.758   3.111   0.823  0.1645  0.4949  1.7946
   51SOL    HW3  258   3.909   3.103   0.815  0.1326  0.9608  0.6572
   51SOL    MW4  259   3.833   3.075   0.848  0.4055  0.1965  0.6546
   52SOL     OW  260   1.474   1.657   0.332 -0.6023  0.2060 -0.3306
   52SOL    HW2  261   1.462   1.688   0.422 -0.4629 -0.3328 -0.1211
   52SOL    HW3  262   1.519   1.728   0.287  1.1385 -0.3144  0.5546
   52SOL    MW4  263   1.478   1.670   0.338 -0.3543  0.0664 -0.1861
   53SOL     OW  264   0.774   3.687   0.499  0.3683 -0.2642 -0.0596
   53SOL    HW2  265   0.694   3.702   0.449  0.2777 -2.4089 -0.6231
   53SOL    HW3  266   0.744   3.650   0.582  0.8127 -2.1526 -0.7208
   53SOL    MW4  267   0.759   3.684   0.503  0.4150 -0.7966 -0.2211
   54SOL     OW  268   2.992   0.613   0.461  0.5462  0.2546 -0.1534
   54SOL    HW2  269   2.977   0.580   0.549  1.0131  0.7493  0.1126
   54SOL    HW3  270   2.911   0.660   0.439  0.8642  1.0930  0.4493
   54SOL    MW4  271   2.979   0.614   0.470  0.6497  0.4305 -0.0387
   55SOL     OW  272   3.588   2.451   0.715  0.7887 -0.3167  0.1587
   55SOL    HW2  273   3.672   2.411   0.739  0.9756 -0.3895 -0.6296
   55SOL    HW3  274   3.590   2.537   0.758  0.5261 -1.0154  1.5880
   55SOL    MW4  275   3.600   2.457   0.724  0.7787 -0.4184  0.2433
   56SOL     OW  276   1.362   4.060   0.780 -0.0182  0.6225 -0.3121
   56SOL    HW2  277   1.376   4.028   0.691 -0.1519  0.6177 -0.3323
   56SOL    HW3  278   1.288   4.008   0.812  0.4396  0.1792  0.0295
   56SOL    MW4  279   1.354   4.049   0.772  0.0244  0.5631 -0.2697
   57SOL     OW  280   3.844   2.544   0.361  0.4027 -0.3927  0.0535
   57SOL    HW2  281   3.841   2.630   0.403 -0.2856 -0.3212 -0.1218
   57SOL    HW3  282   3.847   2.564   0.267 -0.7094 -0.5602 -0.0236
   57SOL    MW4  283   3.844   2.558   0.354  0.1647 -0.4053  0.0202
   58SOL     OW  284   4.223   1.195   0.463 -0.0410  0.3800 -0.3125
   58SOL    HW2  285   4.149   1.135   0.452 -1.3306  1.4531  2.2492
   58SOL    HW3  286   4.300   1.139   0.455 -1.0550 -0.7092 -3.3080
   58SOL    MW4  287   4.224   1.180   0.460 -0.3448  0.3779 -0.3698
   59SOL     OW  288   3.376   0.404   0.514  0.3484  0.6950  0.1739
   59SOL    HW2  289   3.466   0.401   0.481  0.3708  0.6844  0.2376
   59SOL    HW3  290   3.338   0.481   0.471  0.0668  0.0894 -0.6764
   59SOL    MW4  291   3.383   0.414   0.504  0.3140  0.6137  0.0702
   60SOL     OW  292   0.672   2.328   0.872  0.0741  0.1588  0.1233
   60SOL    HW2  293   0.650   2.236   0.855 -1.3236  0.2949  1.1572
   60SOL    HW3  294   0.683   2.333   0.967  0.3483  1.0216  0.0525
   60SOL    MW4  295   0.671   2.316   0.882 -0.0741  0.2906  0.2503
   61SOL     OW  296   2.868   3.081   0.397  0.4628 -0.1716 -0.3469
   61SOL    HW2  297   2.845   2.991   0.376 -0.2765 -0.3532  1.1506
   61SOL    HW3  298   2.963   3.081   0.402  0.5261 -0.6017 -1.5002
   61SOL    MW4  299   2.877   3.070   0.395  0.3738 -0.2522 -0.3015
   62SOL     OW  300   4.077   2.438   0.736 -0.1949  0.1639  0.0279
   62SOL    HW2  301   3.994   2.397   0.757 -0.2917 -0.4138 -1.4818
   62SOL    HW3  302   4.143   2.376   0.768 -0.3349  0.2878  0.5678
   62SOL    MW4  303   4.075   2.425   0.743 -0.2265  0.1037 -0.1001
   63SOL     OW  304   3.943   0.773   0.361 -0.0382 -0.3107  0.4252
   63SOL    HW2  305   3.852   0.775   0.331  0.3222  0.0623 -0.6686
   63SOL    HW3  306   3.945   0.705   0.428 -1.7009  1.4947  2.3612
   63SOL    MW4  307   3.931   0.765   0.366 -0.2100 -0.0233  0.5363
   64SOL     OW  308   2.466   3.614   0.739 -0.0483 -0.1239  0.0112
   64SOL    HW2  309   2.543   3.575   0.780 -0.2415  0.2830  0.7617
   64SOL    HW3  310   2.394   3.592   0.798 -0.2097  1.1005  0.2650
   64SOL    MW4  311   2.467   3.606   0.752 -0.0951  0.0913  0.1437
   65SOL     OW  312   2.353   0.091   0.419  0.0827 -0.0310  0.8817
   65SOL    HW2  313   2.298   0.058   0.348 -0.1785 -0.3311  1.2242
   65SOL    HW3  314   2.405   0.015   0.447 -0.0507  0.0067  1.2319
   65SOL    MW4  315   2.353   0.076   0.413  0.0308 -0.0657  0.9731
   66SOL     OW  316   0.673   1.142   0.454  0.7768 -0.3046  0.1874
   66SOL    HW2  317   0.685   1.179   0.541 -1.0079 -1.4966  0.9857
   66SOL    HW3  318   0.579   1.152   0.437  0.9775 -0.7839 -1.2702
   66SOL    MW4  319   0.662   1.148   0.463  0.5677 -0.5252  0.1004
   67SOL     OW  320   4.130   2.121   0.441 -0.0554 -0.1552 -0.0267
   67SOL    HW2  321   4.097   2.211   0.449  0.1951  0.0589 -1.3455
   67SOL    HW3  322   4.051   2.067   0.444 -0.1848  0.0799  1.0878
   67SOL    MW4  323   4.115   2.126   0.442 -0.0396 -0.0961 -0.0536
   68SOL     OW  324   2.082   0.441   0.469 -0.6612  0.6246  0.0778
   68SOL    HW2  325   2.041   0.375   0.413  0.9129 -0.2421 -0.0959
   68SOL    HW3  326   2.062   0.524   0.427 -1.4971  0.1500 -0.4727
   68SOL    MW4  327   2.074   0.443   0.456 -0.5636  0.4476 -0.0178
   69SOL     OW  328   0.296   4.382   0.468  0.5046 -0.0713 -0.0971
   69SOL    HW2  329   0.261   4.391   0.556 -0.1253 -0.9709 -0.2513
   69SOL    HW3  330   0.389   4.403   0.477  0.2871  0.5699  0.6397
   69SOL    MW4  331   0.304   4.386   0.481  0.3928 -0.1059 -0.0202
   70SOL     OW  332   1.273   0.162   0.468  0.1659 -0.1219 -0.0650
   70SOL    HW2  333   1.283   0.254   0.445 -0.9516  0.4009  1.4377
   70SOL    HW3  334   1.180   0.145   0.459  0.0254 -0.4851  1.8290
   70SOL    MW4  335   1.262   0.172   0.464  0.0000 -0.1009  0.3831
   71SOL     OW  336   3.588   0.929   0.451 -0.0321  0.2422 -0.2171
   71SOL    HW2  337   3.496   0.953   0.459 -0.2056 -0.4402 -0.1570
   71SOL    HW3  338   3.589   0.856   0.389  0.3577 -0.4541  0.5921
   71SOL    MW4  339   3.576   0.923   0.444 -0.0033  0.0603 -0.1024
   72SOL     OW  340   2.476   2.369   0.645 -0.0671 -0.4518  0.0942
   72SOL    HW2  341   2.563   2.409   0.656 -0.3537  0.4881 -0.9046
   72SOL    HW3  342   2.435   2.421   0.576 -1.0181 -1.5715 -0.2012
   72SOL    MW4  343   2.482   2.381   0.637 -0.2306 -0.4756 -0.0766
   73SOL     OW  344   3.577   2.418   0.426 -0.0497 -0.4421 -0.3282
   73SOL    HW2  345   3.666   2.452   0.411 -0.3332  0.1988 -0.5741
   73SOL    HW3  346   3.558   2.441   0.517 -0.4694  0.6155 -0.6656
   73SOL    MW4  347   3.586   2.426   0.436 -0.1428 -0.2184 -0.4052
   74SOL     OW  348   1.344   0.891   0.777  0.3167 -0.0578 -0.2449
   74SOL    HW2  349   1.262   0.845   0.795 -0.3024  1.0221 -0.2217
   74SOL    HW3  350   1.330   0.979   0.814  1.3603  0.2337 -0.5354
   74SOL    MW4  351   1.331   0.897   0.784  0.3726  0.1232 -0.2801
   75SOL     OW  352   1.156   2.329   0.333 -0.0887 -0.1685  0.1740
   75SOL    HW2  353   1.071   2.350   0.373 -0.7154  0.4635 -1.4611
   75SOL    HW3  354   1.203   2.413   0.331 -0.1275 -0.1607 -0.5606
   75SOL    MW4  355   1.151   2.343   0.338 -0.1764 -0.0844 -0.1387
   76SOL     OW  356   3.891   0.522   0.506  0.3032  0.1651  0.4554
   76SOL    HW2  357   3.955   0.475   0.452 -0.6035 -0.8309  0.2273
   76SOL    HW3  358   3.918   0.505   0.596  1.2522  1.0203  0.3359
   76SOL    MW4  359   3.903   0.514   0.511  0.3090  0.1465  0.4095
   77SOL     OW  360   1.554   1.279   0.730  0.7005  0.5576  0.2000
   77SOL    HW2  361   1.626   1.223   0.762 -0.4869 -1.3798 -0.4310
   77SOL    HW3  362   1.573   1.291   0.637  0.6831  0.7951  0.2279
   77SOL    MW4  363   1.566   1.273   0.722  0.5416  0.3333  0.1205
   78SOL     OW  364   1.377   4.033   0.500 -0.4600  0.4716  0.6745
   78SOL    HW2  365   1.472   4.017   0.499 -0.5114  0.0230 -1.7620
   78SOL    HW3  366   1.368   4.128   0.501  0.1482  0.6842 -3.4496
   78SOL    MW4  367   1.388   4.043   0.500 -0.3866  0.4401 -0.1910
   79SOL     OW  368   1.689   0.411   0.332 -0.2945  0.2629 -0.0414
   79SOL    HW2  369   1.726   0.348   0.394  0.6276  0.8630  0.0339
   79SOL    HW3  370   1.620   0.456   0.381 -0.9814 -0.7140 -0.1096
   79SOL    MW4  371   1.685   0.409   0.347 -0.2635  0.2131 -0.0405
   80SOL     OW  372   1.821   0.873   0.475  0.7366 -0.0946  0.1091
   80SOL    HW2  373   1.838   0.965   0.454 -0.2367 -0.0028 -0.3179
   80SOL    HW3  374   1.728   0.861   0.457  0.6567 -0.9373  1.0376
   80SOL    MW4  375   1.811   0.883   0.470  0.5978 -0.1937  0.1753
   81SOL     OW  376   1.108   1.553   0.746  0.0131  0.1689  0.0121
   81SOL    HW2  377   1.045   1.625   0.746 -1.0468 -0.7403 -1.1635
   81SOL    HW3  378   1.190   1.593   0.774 -0.4488  1.9476 -1.1266
   81SOL    MW4  379   1.110   1.568   0.749 -0.1876  0.2835 -0.2933
   82SOL     OW  380   0.718   4.307   0.198 -0.0320 -0.6073  0.4116
   82SOL    HW2  381   0.727   4.236   0.261  0.0168 -0.4089  0.6301
   82SOL    HW3  382   0.675   4.267   0.122 -0.2814 -0.7971  0.6530
   82SOL    MW4  383   0.713   4.292   0.196 -0.0585 -0.6065  0.4722
   83SOL     OW  384   2.484   1.558   0.330  0.2547 -0.2237  0.0514
   83SOL    HW2  385   2.566   1.602   0.349  0.5441 -1.1152  0.9001
   83SOL    HW3  386   2.499   1.513   0.246 -0.4163  2.1838 -1.4056
   83SOL    MW4  387   2.496   1.558   0.321  0.2043 -0.0236 -0.0288
   84SOL     OW  388   0.968   1.506   0.487 -0.2400 -0.0696  0.1802
   84SOL    HW2  389   0.955   1.598   0.467  0.3292 -0.0124  0.0505
   84SOL    HW3  390   1.002   1.504   0.576  0.4209 -0.1010 -0.0652
   84SOL    MW4  391   0.971   1.518   0.496 -0.0777 -0.0662  0.1307
   85SOL     OW  392   0.853   2.954   0.361  0.1298  0.2238  0.1975
   85SOL    HW2  393   0.850   2.963   0.266  0.9309  0.0610  0.1586
   85SOL    HW3  394   0.877   3.041   0.393  0.6051  0.0879  0.2105
   85SOL    MW4  395   0.856   2.967   0.353  0.2983  0.1843  0.1941
   86SOL     OW  396   3.747   1.322   0.700  0.7375 -0.2570 -0.2350
   86SOL    HW2  397   3.767   1.363   0.616  0.3425  1.3766  0.4594
   86SOL    HW3  398   3.819   1.260   0.714 -0.2098 -1.9665 -2.6845
   86SOL    MW4  399   3.759   1.319   0.691  0.5603 -0.2670 -0.4665
   87SOL     OW  400   0.484   3.983   0.431  0.0648  0.4334  0.4627
   87SOL    HW2  401   0.479   3.983   0.527  0.8645  0.6185  0.5040
   87SOL    HW3  402   0.480   3.890   0.408  1.6420  0.2823  0.7715
   87SOL    MW4  403   0.483   3.971   0.441  0.3784  0.4380  0.5088
   88SOL     OW  404   1.374   3.376   0.434  0.7092  0.3101 -0.3577
   88SOL    HW2  405   1.385   3.353   0.526 -0.5683 -0.3106 -0.3516
   88SOL    HW3  406   1.337   3.464   0.436 -0.0218 -0.0022 -0.2690
   88SOL    MW4  407   1.371   3.384   0.446  0.4441  0.1872 -0.3451
   89SOL     OW  408   1.814   1.147   0.460 -0.3806  0.0965  0.3268
   89SOL    HW2  409   1.723   1.142   0.429 -0.0353  0.4380 -0.7703
   89SOL    HW3  410   1.838   1.239   0.448 -0.0079  0.0859  0.9759
   89SOL    MW4  411   1.805   1.159   0.454 -0.2859  0.1400  0.2677
   90SOL     OW  412   1.573   2.137   0.761 -0.5157  0.5240 -0.0583
   90SOL    HW2  413   1.551   2.121   0.669 -1.6136 -0.5061  0.3720
   90SOL    HW3  414   1.517   2.211   0.786  0.6584  1.5829 -0.5517
   90SOL    MW4  415   1.562   2.145   0.752 -0.5058  0.5279 -0.0666
   91SOL     OW  416   2.935   4.623   0.860 -0.0876 -0.1000 -0.7548
   91SOL    HW2  417   3.028   4.639   0.851  0.4370 -2.2576  0.3998
   91SOL    HW3  418   2.919   4.544   0.807 -1.2570  0.2136 -0.8951
   91SOL    MW4  419   2.945   4.615   0.851 -0.1726 -0.3438 -0.6209
   92SOL     OW  420   1.182   3.622   0.759 -0.1180  0.1716  0.2163
   92SOL    HW2  421   1.271   3.600   0.788  0.0215  0.5013  0.0466
   92SOL    HW3  422   1.175   3.716   0.774 -0.1782  0.2784 -0.4540
   92SOL    MW4  423   1.193   3.632   0.765 -0.1076  0.2291  0.1055
   93SOL     OW  424   1.415   2.323   0.897  0.1273  0.0381  0.0513
   93SOL    HW2  425   1.324   2.320   0.866  0.3463 -0.8520 -0.5312
   93SOL    HW3  426   1.440   2.415   0.888 -0.5939  0.2188 -0.1547
   93SOL    MW4  427   1.406   2.335   0.892  0.0609 -0.0556 -0.0528
   94SOL     OW  428   1.635   3.429   0.317  0.1827 -0.1922  0.1728
   94SOL    HW2  429   1.653   3.380   0.236 -0.2332  0.6689 -0.4445
   94SOL    HW3  430   1.547   3.402   0.342  1.3672 -2.6696  1.9513
   94SOL    MW4  431   1.626   3.419   0.309  0.2842 -0.4051  0.3260
   95SOL     OW  432   3.412   4.617   0.390  0.1794  0.3589  0.0993
   95SOL    HW2  433   3.335   4.662   0.425  0.4768  1.5840 -0.8054
   95SOL    HW3  434   3.485   4.677   0.406  1.0348 -0.9635  1.3150
   95SOL    MW4  435   3.412   4.630   0.397  0.3312  0.3462  0.1404
   96SOL     OW  436   2.676   1.151   0.842  0.3254  0.0867  0.3038
   96SOL    HW2  437   2.596   1.187   0.803 -0.0418 -0.0527  0.9227
   96SOL    HW3  438   2.682   1.062   0.805  0.1787  0.0858  0.2829
   96SOL    MW4  439   2.666   1.144   0.832  0.2577  0.0681  0.3828
   97SOL     OW  440   1.167   3.888   0.854 -0.2649 -0.2667  0.7344
   97SOL    HW2  441   1.078   3.918   0.838  0.1762 -0.0969 -1.6206
   97SOL    HW3  442   1.175   3.885   0.949 -2.1282  1.6530  0.9849
   97SOL    MW4  443   1.156   3.892   0.864 -0.4525  0.0093  0.4568
   98SOL     OW  444   1.659   1.872   0.331 -0.6742 -0.4465  0.0358
   98SOL    HW2  445   1.623   1.946   0.380  1.5440  0.8270 -0.1518
   98SOL    HW3  446   1.684   1.809   0.399  0.5898  0.4832  0.4759
   98SOL    MW4  447   1.658   1.874   0.347 -0.2147 -0.1558  0.0691
   99SOL     OW  448   4.312   4.143   0.412  0.5176  0.0201  0.3315
   99SOL    HW2  449   4.262   4.220   0.438  0.9098  0.1295  0.7830
   99SOL    HW3  450   4.332   4.157   0.319 -0.3672 -0.0773  0.1244
   99SOL    MW4  451   4.308   4.155   0.403  0.4530  0.0215  0.3638
  100SOL     OW  452   3.890   4.420   0.480 -0.9392  0.3465  0.0746
  100SOL    HW2  453   3.865   4.504   0.441  0.3341  0.2083 -1.0920
  100SOL    HW3  454   3.856   4.424   0.569  0.2295  2.6351  0.4525
  100SOL    MW4  455   3.882   4.432   0.486 -0.6170  0.6299 -0.0294
  101SOL     OW  456   2.079   2.066   0.496 -0.2501 -0.1657 -0.1325
  101SOL    HW2  457   2.024   2.065   0.418 -0.4305  0.2386 -0.0124
  101SOL    HW3  458   2.027   2.022   0.563 -0.3316  0.0081 -0.0820
  101SOL    MW4  459   2.065   2.060   0.495 -0.2849 -0.0894 -0.1100
  102SOL     OW  460   3.425   1.957   0.477 -0.0910 -0.0624  0.2500
  102SOL    HW2  461   3.494   1.892   0.470 -0.5073 -0.5728  0.9119
  102SOL    HW3  462   3.424   1.983   0.569 -1.0560 -0.3571  0.3261
  102SOL    MW4  463   3.434   1.952   0.488 -0.2735 -0.1687  0.3474
  103SOL     OW  464   1.042   4.484   0.345  0.2309  0.1120  0.0891
  103SOL    HW2  465   1.035   4.454   0.254 -0.2259 -0.1582  0.2098
  103SOL    HW3  466   1.117   4.436   0.381  1.8831  1.9661 -0.8131
  103SOL    MW4  467   1.051   4.474   0.338  0.3885  0.3209 -0.0140
  104SOL     OW  468   3.085   2.362   0.462  0.0969 -0.3822 -0.2011
  104SOL    HW2  469   3.094   2.389   0.553 -0.8945 -0.1712 -0.1654
  104SOL    HW3  470   3.173   2.333   0.437  0.6381  0.6487  0.4668
  104SOL    MW4  471   3.098   2.362   0.471  0.0374 -0.2182 -0.1083
  105SOL     OW  472   4.267   2.818   0.746 -0.2600  0.3116 -0.5834
  105SOL    HW2  473   4.339   2.772   0.790 -0.9186 -0.3731 -0.1963
  105SOL    HW3  474   4.291   2.816   0.653 -0.1991 -0.6941 -0.5565
  105SOL    MW4  475   4.280   2.811   0.740 -0.3386  0.0882 -0.5287
  106SOL     OW  476   2.102   2.361   0.497 -0.1280 -0.3184  0.1749
  106SOL    HW2  477   2.185   2.391   0.459 -1.1023  2.3897  0.0742
  106SOL    HW3  478   2.105   2.266   0.490  1.9933 -0.1271 -1.8833
  106SOL    MW4  479   2.113   2.352   0.491  0.0236  0.0641 -0.1099
  107SOL     OW  480   2.023   0.762   0.843  0.4119 -0.1793 -0.5686
  107SOL    HW2  481   2.025   0.668   0.822  0.1476  0.2980 -2.9444
  107SOL    HW3  482   2.111   0.793   0.819  0.4195  0.2267 -0.0117
  107SOL    MW4  483   2.035   0.754   0.837  0.3779 -0.0628 -0.8086
  108SOL     OW  484   3.214   3.411   0.431 -0.7317 -0.2203 -0.2438
  108SOL    HW2  485   3.303   3.379   0.419 -0.8726 -0.9734  0.6449
  108SOL    HW3  486   3.224   3.505   0.443 -0.1589 -0.1510 -1.1723
  108SOL    MW4  487   3.227   3.419   0.431 -0.6747 -0.3102 -0.2491
  109SOL     OW  488   1.907   1.959   0.230 -0.2550 -0.9426 -0.2373
  109SOL    HW2  489   1.880   2.001   0.148 -0.2172  1.3498  0.8792
  109SOL    HW3  490   1.825   1.941   0.275 -0.1893 -0.2020  0.1782
  109SOL    MW4  491   1.892   1.962   0.225 -0.2414 -0.5424 -0.0352
  110SOL     OW  492   1.549   0.823   0.398 -0.3703  0.4774 -0.0236
  110SOL    HW2  493   1.475   0.877   0.426 -0.2403  0.4102  0.4473
  110SOL    HW3  494   1.542   0.820   0.302 -0.6116  0.9874 -0.0191
  110SOL    MW4  495   1.538   0.829   0.389 -0.3850  0.5359  0.0391
  111SOL     OW  496   3.512   4.118   0.488  0.6227  0.1747 -0.0088
  111SOL    HW2  497   3.585   4.147   0.434  1.0357 -0.0283  0.4412
  111SOL    HW3  498   3.471   4.200   0.518  0.3361  0.2881 -0.6939
  111SOL    MW4  499   3.516   4.133   0.485  0.6394  0.1626 -0.0398
  112SOL     OW  500   4.063   3.046   0.485  0.4351  0.1774 -0.4960
  112SOL    HW2  501   4.133   3.050   0.420  0.6250 -0.3936 -0.3266
  112SOL    HW3  502   4.009   2.971   0.459  1.3723 -1.0048  0.8511
  112SOL    MW4  503   4.065   3.037   0.473  0.5832 -0.0539 -0.2959
  113SOL     OW  504   0.655   2.075   0.735  0.0048 -0.3011 -0.3334
  113SOL    HW2  505   0.747   2.049   0.740  0.3460  0.7246 -1.3029
  113SOL    HW3  506   0.609   2.007   0.784  1.2847 -0.7757  0.2301
  113SOL    MW4  507   0.661   2.063   0.742  0.2187 -0.2286 -0.3870
  114SOL     OW  508   1.117   1.147   0.467 -0.3364  0.1630  0.2788
  114SOL    HW2  509   1.034   1.100   0.477  0.0309 -0.4842  0.3415
  114SOL    HW3  510   1.100   1.212   0.400 -0.7725 -0.2529 -0.0173
  114SOL    MW4  511   1.103   1.149   0.460 -0.3456  0.0228  0.2480
  115SOL     OW  512   1.895   0.548   0.172  0.2907  0.0727  0.2927
  115SOL    HW2  513   1.827   0.502   0.220 -0.0824  0.3753  0.0580
  115SOL    HW3  514   1.899   0.504   0.087  0.2107  0.2134  0.2148
  115SOL    MW4  515   1.887   0.536   0.167  0.2308  0.1312  0.2514
  116SOL     OW  516   0.687   0.431   0.505  0.0544  0.0156 -0.6180
  116SOL    HW2  517   0.618   0.402   0.446 -1.5288  1.0977  0.6708
  116SOL    HW3  518   0.698   0.524   0.485  2.5846 -0.5674 -2.2134
  116SOL    MW4  519   0.680   0.440   0.495  0.1793  0.0814 -0.6585
  117SOL     OW  520   1.251   4.322   0.473  0.3960 -0.0927  0.0015
  117SOL    HW2  521   1.209   4.349   0.555 -0.6510  0.2591 -0.6317
  117SOL    HW3  522   1.335   4.367   0.473  0.2415  0.2103  0.7047
  117SOL    MW4  523   1.256   4.332   0.484  0.2375 -0.0062  0.0108
  118SOL     OW  524   4.490   1.081   0.456 -0.1131  0.2122  0.6524
  118SOL    HW2  525   4.511   1.014   0.520  1.1510 -0.0870 -0.0490
  118SOL    HW3  526   4.533   1.051   0.375  0.1213  1.6482  0.2302
  118SOL    MW4  527   4.498   1.068   0.454  0.0846  0.3623  0.5041
  119SOL     OW  528   2.471   4.402   0.732  0.2168 -0.0174  0.2187
  119SOL    HW2  529   2.527   4.362   0.798 -0.9118  0.0397  1.2280
  119SOL    HW3  530   2.476   4.496   0.750  0.0103  0.0064  0.1558
  119SOL    MW4  531   2.479   4.410   0.743  0.0408 -0.0072  0.3436
  120SOL     OW  532   2.494   0.430   0.680  0.2454 -0.1313 -0.5623
  120SOL    HW2  533   2.423   0.388   0.730 -0.4115  0.1470 -1.2537
  120SOL    HW3  534   2.464   0.425   0.589  1.7364 -1.2443 -1.0100
  120SOL    MW4  535   2.480   0.424   0.675  0.3552 -0.2415 -0.7126
  121SOL     OW  536   1.951   0.232   0.283  0.0397 -0.1359  0.2111
  121SOL    HW2  537   2.022   0.173   0.259 -1.2622 -1.6012 -0.1388
  121SOL    HW3  538   1.889   0.177   0.332 -0.6745  1.1906  0.8343
  121SOL    MW4  539   1.952   0.217   0.286 -0.2263 -0.1542  0.2472
  122SOL     OW  540   1.087   4.653   0.847  0.0239 -0.0736  0.2038
  122SOL    HW2  541   1.164   4.699   0.812  0.1280 -0.2755  0.1654
  122SOL    HW3  542   1.012   4.699   0.809  0.1386 -0.4316 -0.4683
  122SOL    MW4  543   1.088   4.665   0.837  0.0527 -0.1473  0.1101
  123SOL     OW  544   0.220   0.398   0.218  0.2606 -0.1369  0.1007
  123SOL    HW2  545   0.242   0.452   0.142 -0.1171  0.5717  0.4882
  123SOL    HW3  546   0.177   0.458   0.279  0.4716 -0.7196  0.8393
  123SOL    MW4  547   0.217   0.413   0.216  0.2386 -0.1203  0.2493
  124SOL     OW  548   2.833   0.047   0.467 -0.6219 -0.2000 -0.0485
  124SOL    HW2  549   2.775   0.064   0.540  1.5455 -0.6069  1.8226
  124SOL    HW3  550   2.894   0.121   0.466 -1.1691  0.2555 -2.0136
  124SOL    MW4  551   2.833   0.059   0.476 -0.4082 -0.1936 -0.0609
  125SOL     OW  552   2.514   2.839   0.385  0.9125 -0.3436  0.3128
  125SOL    HW2  553   2.443   2.820   0.446 -0.2940 -0.4507 -1.1109
  125SOL    HW3  554   2.506   2.773   0.316  1.1348  0.8912 -0.9165
  125SOL    MW4  555   2.504   2.828   0.384  0.7827 -0.1948 -0.0373
  126SOL     OW  556   4.357   1.786   0.507  0.2321 -0.0255  0.6002
  126SOL    HW2  557   4.346   1.836   0.588 -0.1638  2.0574 -0.7058
  126SOL    HW3  558   4.410   1.843   0.451  0.7683 -1.5799 -0.4879
  126SOL    MW4  559   4.363   1.800   0.511  0.2503  0.0442  0.2843
  127SOL     OW  560   0.877   1.700   0.730  0.6465  0.1506  0.1034
  127SOL    HW2  561   0.869   1.719   0.636 -0.0435 -0.3829  0.0560
  127SOL    HW3  562   0.868   1.785   0.772 -0.0558  0.2564 -0.2559
  127SOL    MW4  563   0.875   1.714   0.723  0.4628  0.0942  0.0497
  128SOL     OW  564   0.756   4.145   0.422  0.1086  0.1978  0.0661
  128SOL    HW2  565   0.679   4.088   0.426 -0.4258  0.9741  0.9148
  128SOL    HW3  566   0.829   4.087   0.445 -0.3367 -0.3146  0.2065
  128SOL    MW4  567   0.755   4.130   0.426 -0.0207  0.2322  0.1966
  129SOL     OW  568   3.121   2.716   0.837 -0.6319  0.1202 -0.0971
  129SOL    HW2  569   3.177   2.784   0.800 -0.1955 -0.4996 -0.5631
  129SOL    HW3  570   3.150   2.635   0.796 -0.5372 -0.4847  1.1633
  129SOL    MW4  571   3.132   2.714   0.827 -0.5617 -0.0415  0.0077
  130SOL     OW  572   1.847   4.621   0.167  0.4880 -0.9820  0.3317
  130SOL    HW2  573   1.785   4.694   0.177  1.2265 -0.5908  2.2108
  130SOL    HW3  574   1.855   4.610   0.072 -0.7224  0.4555  0.0364
  130SOL    MW4  575   1.840   4.629   0.156  0.4258 -0.7410  0.5407
  131SOL     OW  576   3.597   1.532   0.295 -0.0866  0.3256  0.0657
  131SOL    HW2  577   3.515   1.486   0.314 -0.4737  0.6279 -0.8615
  131SOL    HW3  578   3.603   1.533   0.200  0.2535  1.5909  0.0870
  131SOL    MW4  579   3.587   1.526   0.285 -0.0927  0.5325 -0.0538
  132SOL     OW  580   2.125   2.450   0.763 -0.3179 -0.4436 -0.0510
  132SOL    HW2  581   2.188   2.385   0.796 -0.1142 -0.4329 -0.4184
  132SOL    HW3  582   2.120   2.433   0.669  2.4791  2.4114 -0.7954
  132SOL    MW4  583   2.133   2.439   0.755  0.0777 -0.0653 -0.1976
  133SOL     OW  584   0.917   1.774   0.467 -0.2004 -0.4948  0.1911
  133SOL    HW2  585   0.831   1.816   0.462 -0.1855 -0.3073  1.4391
  133SOL    HW3  586   0.978   1.847   0.478  0.3413 -0.4592 -2.5994
  133SOL    MW4  587   0.914   1.789   0.467 -0.1270 -0.4655 -0.0124
  134SOL     OW  588   2.096   4.174   0.416 -0.2170 -0.6513 -0.1216
  134SOL    HW2  589   2.066   4.212   0.499  1.4120  0.3120  0.0420
  134SOL    HW3  590   2.166   4.114   0.442  0.3216 -0.3212 -0.7991
  134SOL    MW4  591   2.101   4.171   0.431  0.0689 -0.4802 -0.1894
  135SOL     OW  592   2.802   2.095   0.715 -0.3774 -0.6207  0.0967
  135SOL    HW2  593   2.773   2.086   0.624 -0.3767 -1.6847  0.1952
  135SOL    HW3  594   2.735   2.048   0.766 -0.5436  0.2249  0.6790
  135SOL    MW4  595   2.789   2.088   0.710 -0.3991 -0.6497  0.1864
  136SOL     OW  596   3.840   3.658   0.324 -0.3787  0.0935  0.2514
  136SOL    HW2  597   3.895   3.729   0.292  0.8752 -0.8816  0.1790
  136SOL    HW3  598   3.890   3.619   0.396 -0.4095 -1.5833 -0.6014
  136SOL    MW4  599   3.854   3.662   0.329 -0.2174 -0.2565  0.1294
  137SOL     OW  600   0.716   0.705   0.441  0.2184  0.2011 -0.0828
  137SOL    HW2  601   0.766   0.779   0.408 -0.3336  0.3856 -0.5175
  137SOL    HW3  602   0.624   0.731   0.431  0.0241 -0.3565  0.1852
  137SOL    MW4  603   0.710   0.718   0.436  0.1199  0.1519 -0.1048
  138SOL     OW  604   0.250   3.608   0.746  0.0218 -0.4137  0.0529
  138SOL    HW2  605   0.177   3.558   0.783 -0.5866  0.1118 -0.4078
  138SOL    HW3  606   0.226   3.699   0.760  0.6198 -0.2373 -0.0590
  138SOL    MW4  607   0.237   3.613   0.753  0.0205 -0.3214 -0.0226
  139SOL     OW  608   2.011   4.298   0.691  0.4182  0.1930  0.3804
  139SOL    HW2  609   2.095   4.296   0.737  0.1440  1.6372  0.9602
  139SOL    HW3  610   1.945   4.295   0.760 -0.0316 -1.1574 -0.0822
  139SOL    MW4  611   2.013   4.297   0.706  0.3228  0.2050  0.3958
  140SOL     OW  612   1.846   3.377   0.501  0.1481 -0.1628  0.0762
  140SOL    HW2  613   1.763   3.407   0.462 -0.2084  1.1658  1.7874
  140SOL    HW3  614   1.912   3.399   0.436 -0.4872  1.5599 -0.0181
  140SOL    MW4  615   1.844   3.384   0.487  0.0174  0.2398  0.2895
  141SOL     OW  616   3.734   4.227   0.354 -0.0248  0.3002  0.0824
  141SOL    HW2  617   3.799   4.272   0.408  0.2939  1.2302 -1.0660
  141SOL    HW3  618   3.685   4.297   0.310 -1.2704 -0.4108  0.3116
  141SOL    MW4  619   3.736   4.242   0.355 -0.1469  0.3285 -0.0389
  142SOL     OW  620   1.978   4.512   0.553  0.1352  0.1735  0.2456
  142SOL    HW2  621   1.983   4.434   0.607 -0.8874  0.5215  0.8550
  142SOL    HW3  622   2.063   4.517   0.509 -0.0306 -1.6321 -0.2959
  142SOL    MW4  623   1.990   4.502   0.554 -0.0215 -0.0181  0.2545
  143SOL     OW  624   1.546   0.031   0.439 -0.6425 -0.3817  0.0544
  143SOL    HW2  625   1.542  -0.062   0.462 -0.1631  0.0485  1.9654
  143SOL    HW3  626   1.460   0.065   0.462 -0.4255 -0.1073  0.4535
  143SOL    MW4  627   1.534   0.023   0.445 -0.5505 -0.2887  0.3591
  144SOL     OW  628   0.805   4.415   0.492  0.1404  0.1540 -0.4143
  144SOL    HW2  629   0.891   4.446   0.461  0.4682  0.1408  0.4576
  144SOL    HW3  630   0.800   4.324   0.461  0.9278 -0.2044  0.4673
  144SOL    MW4  631   0.816   4.407   0.484  0.2875  0.1044 -0.1829
  145SOL     OW  632   3.204   3.692   0.471  0.0384  0.0566  0.4784
  145SOL    HW2  633   3.246   3.775   0.449  1.4413 -0.4626  1.1548
  145SOL    HW3  634   3.223   3.680   0.564  0.4232 -1.3581  0.2207
  145SOL    MW4  635   3.212   3.702   0.480  0.2744 -0.1986  0.5336
  146SOL     OW  636   3.153   1.832   0.349  0.1503 -0.0788  0.5303
  146SOL    HW2  637   3.114   1.919   0.352 -0.4004 -0.3674  2.3542
  146SOL    HW3  638   3.245   1.845   0.373 -0.0036 -0.0447  1.0947
  146SOL    MW4  639   3.160   1.845   0.352  0.0572 -0.1125  0.8454
  147SOL     OW  640   2.359   0.398   0.422  0.4651 -0.4023  0.0922
  147SOL    HW2  641   2.265   0.408   0.439  0.3773 -1.0353  0.0038
  147SOL    HW3  642   2.369   0.305   0.400  1.3819 -0.7526  1.8655
  147SOL    MW4  643   2.348   0.387   0.421  0.5746 -0.5321  0.3145
  148SOL     OW  644   0.059   4.002   0.489  0.2361 -0.0242 -0.1618
  148SOL    HW2  645   0.129   4.043   0.438  0.7354  0.9586  1.2972
  148SOL    HW3  646  -0.020   4.051   0.464  0.8750  2.0525  1.7826
  148SOL    MW4  647   0.058   4.014   0.479  0.3862  0.3796  0.2872
  149SOL     OW  648   1.336   0.976   0.497  0.0937 -0.1718 -0.2639
  149SOL    HW2  649   1.340   0.957   0.591 -0.3062 -1.9013 -0.5899
  149SOL    HW3  650   1.265   1.041   0.489  0.4861  0.3856  0.6759
  149SOL    MW4  651   1.327   0.982   0.508  0.0927 -0.3264 -0.1829
  150SOL     OW  652   3.918   3.283   0.421 -0.1324  0.0027  0.1493
  150SOL    HW2  653   3.977   3.208   0.417  0.7564  0.7114 -0.0453
  150SOL    HW3  654   3.837   3.247   0.458  0.4820 -0.9185  0.6259
  150SOL    MW4  655   3.915   3.268   0.425  0.0660 -0.0253  0.1864
  151SOL     OW  656   1.592   3.030   0.398 -0.1848 -0.3600 -0.2832
  151SOL    HW2  657   1.504   3.022   0.360  0.3129 -0.0874 -1.5350
  151SOL    HW3  658   1.585   2.990   0.484 -1.2500 -1.4353 -0.8532
  151SOL    MW4  659   1.580   3.023   0.404 -0.2598 -0.4659 -0.5235
  152SOL     OW  660   2.865   4.396   0.722  0.3432  0.2531 -0.1345
  152SOL    HW2  661   2.809   4.342   0.778  0.8463 -0.9711 -0.8038
  152SOL    HW3  662   2.953   4.383   0.757  0.4188  0.9772 -0.0420
  152SOL    MW4  663   2.869   4.387   0.734  0.4194  0.1869 -0.2106
  153SOL     OW  664   2.199   4.433   0.375 -0.1373 -0.3576 -0.4865
  153SOL    HW2  665   2.193   4.340   0.354 -1.8155 -1.1940  3.1633
  153SOL    HW3  666   2.287   4.444   0.412 -0.8679 -1.0938  1.5118
  153SOL    MW4  667   2.210   4.422   0.377 -0.4549 -0.5655  0.2587
  154SOL     OW  668   1.196   2.591   0.458  0.3307 -0.6136  0.0099
  154SOL    HW2  669   1.169   2.663   0.400 -1.4174 -1.1680  0.0825
  154SOL    HW3  670   1.113   2.553   0.488  1.2335 -0.7880  2.3245
  154SOL    MW4  671   1.181   2.595   0.454  0.2192 -0.7098  0.3248
  155SOL     OW  672   1.321   0.373   0.848 -0.1886 -0.1510 -0.2773
  155SOL    HW2  673   1.326   0.374   0.944 -0.6749 -1.4996 -0.2301
  155SOL    HW3  674   1.394   0.429   0.820 -0.0857  0.3100  0.8714
  155SOL    MW4  675   1.331   0.381   0.857 -0.2391 -0.2682 -0.1195
  156SOL     OW  676   2.692   0.892   0.706  0.0889 -0.0206  0.2493
  156SOL    HW2  677   2.695   0.881   0.611 -1.4572 -0.6424  0.2621
  156SOL    HW3  678   2.771   0.848   0.738 -0.3943 -1.5767 -0.6104
  156SOL    MW4  679   2.703   0.884   0.698 -0.1791 -0.3078  0.1376
  157SOL     OW  680   2.915   2.336   0.834  0.3196  0.0187 -0.3152
  157SOL    HW2  681   2.878   2.259   0.792  1.0077 -0.8649  0.6771
  157SOL    HW3  682   2.906   2.319   0.928  3.0472 -0.1269 -0.0480
  157SOL    MW4  683   2.909   2.324   0.841  0.7706 -0.1168 -0.1490
  158SOL     OW  684   1.650   3.981   0.495  0.0518  0.1479 -0.2190
  158SOL    HW2  685   1.679   3.891   0.477 -1.0238  0.0176 -1.3931
  158SOL    HW3  686   1.693   4.034   0.428 -0.1867  0.3561 -0.2058
  158SOL    MW4  687   1.659   3.976   0.483 -0.1215  0.1581 -0.3721
  159SOL     OW  688   2.045   0.697   0.377 -0.2411 -0.1196  0.0465
  159SOL    HW2  689   1.973   0.735   0.427  0.1448  2.3046 -1.1825
  159SOL    HW3  690   2.004   0.671   0.294 -0.1847 -0.9913  0.2875
  159SOL    MW4  691   2.030   0.698   0.372 -0.1829  0.0852 -0.0838
  160SOL     OW  692   1.088   1.360   0.266  0.0340 -0.1960  0.2507
  160SOL    HW2  693   1.028   1.378   0.195 -0.2209  2.3955  1.0768
  160SOL    HW3  694   1.066   1.425   0.333  0.5048 -2.3280  2.5429
  160SOL    MW4  695   1.077   1.371   0.266  0.0625 -0.1353  0.6621
  161SOL     OW  696   1.276   2.099   0.345  0.0054  0.4819 -0.5413
  161SOL    HW2  697   1.230   2.183   0.344  1.1882  1.1367 -1.2882
  161SOL    HW3  698   1.288   2.078   0.252  0.2431 -0.2220 -0.3543
  161SOL    MW4  699   1.271   2.107   0.332  0.1929  0.4752 -0.6151
  162SOL     OW  700   3.309   3.948   0.397  0.1529  0.2890 -0.0899
  162SOL    HW2  701   3.391   3.996   0.410 -0.0525  0.4850  0.5146
  162SOL    HW3  702   3.244   3.999   0.445 -0.0790 -0.5788  0.5219
  162SOL    MW4  703   3.311   3.961   0.405  0.0951  0.2000  0.0706
  163SOL     OW  704   2.287   0.840   0.438 -0.5484  0.2520  0.1219
  163SOL    HW2  705   2.208   0.796   0.407 -0.0116 -0.5129 -0.1666
  163SOL    HW3  706   2.359   0.791   0.400  0.0844  0.6115  0.8305
  163SOL    MW4  707   2.286   0.828   0.429 -0.3941  0.1985  0.1774
  164SOL     OW  708   0.680   2.412   0.354  0.2210  0.0431 -0.2239
  164SOL    HW2  709   0.642   2.485   0.402 -0.7776 -0.1655 -0.6827
  164SOL    HW3  710   0.630   2.408   0.272  1.3758 -0.1075 -0.9301
  164SOL    MW4  711   0.668   2.421   0.350  0.2416 -0.0041 -0.3776
  165SOL     OW  712   2.724   0.085   0.721  0.0116 -0.6230  0.0548
  165SOL    HW2  713   2.729   0.174   0.754 -0.3616 -0.6651  0.2298
  165SOL    HW3  714   2.795   0.039   0.766  1.6775  0.1147 -1.7351
  165SOL    MW4  715   2.734   0.091   0.732  0.1822 -0.5312 -0.1583
  166SOL     OW  716   0.699   1.267   0.705 -0.0871  0.2298  0.0417
  166SOL    HW2  717   0.698   1.360   0.728  0.8564  0.0531  0.8241
  166SOL    HW3  718   0.623   1.230   0.750  0.5849  0.2839  1.2523
  166SOL    MW4  719   0.689   1.274   0.714  0.1259  0.2136  0.3047
  167SOL     OW  720   0.304   2.582   0.396  0.3362 -0.3227  0.0936
  167SOL    HW2  721   0.313   2.559   0.303 -1.9021  0.2542 -0.2940
  167SOL    HW3  722   0.247   2.514   0.432 -0.6550  0.7194  0.5146
  167SOL    MW4  723   0.298   2.570   0.388 -0.0899 -0.1092  0.0980
  168SOL     OW  724   2.019   3.465   0.290  0.2604 -0.1767  0.1900
  168SOL    HW2  725   1.969   3.429   0.216 -1.5064  1.6143  0.5050
  168SOL    HW3  726   2.000   3.558   0.289  0.2325 -0.1268  2.9223
  168SOL    MW4  727   2.010   3.472   0.280  0.0238  0.0660  0.5921
  169SOL     OW  728   3.189   0.138   0.781 -0.1691  0.4319 -0.3511
  169SOL    HW2  729   3.196   0.153   0.686  2.7896  1.8193  0.0256
  169SOL    HW3  730   3.180   0.226   0.818  0.8214  0.0511  0.8021
  169SOL    MW4  731   3.189   0.152   0.773  0.3519  0.5647 -0.1492
  170SOL     OW  732   1.925   1.434   0.460 -0.4511 -0.2944 -0.1507
  170SOL    HW2  733   1.942   1.513   0.410 -0.8262 -0.6482 -0.8483
  170SOL    HW3  734   1.864   1.461   0.529 -0.2435  0.1140 -0.1313
  170SOL    MW4  735   1.919   1.448   0.462 -0.4731 -0.2873 -0.2402
  171SOL     OW  736   0.143   2.835   0.510 -0.2841 -0.3306 -0.2457
  171SOL    HW2  737   0.168   2.832   0.603 -0.5109 -0.3091 -0.1851
  171SOL    HW3  738   0.176   2.753   0.474 -2.2104 -1.3883  0.3477
  171SOL    MW4  739   0.151   2.824   0.518 -0.5681 -0.4675 -0.1594
  172SOL     OW  740   2.241   1.689   0.454  0.2583 -0.1886 -0.0963
  172SOL    HW2  741   2.228   1.642   0.536  0.2748  2.2242  1.3169
  172SOL    HW3  742   2.299   1.632   0.403  1.0203 -1.2863  1.9359
  172SOL    MW4  743   2.247   1.675   0.458  0.3610 -0.0150  0.3583
  173SOL     OW  744   2.301   3.956   0.474 -0.5253 -0.1534  0.7065
  173SOL    HW2  745   2.258   3.871   0.484  0.4628 -0.7354  0.1349
  173SOL    HW3  746   2.394   3.934   0.469 -0.2236  1.0180  1.1718
  173SOL    MW4  747   2.308   3.942   0.475 -0.3550 -0.0756  0.6925
  174SOL     OW  748   1.613   4.445   0.727 -0.4175  0.5782 -0.2961
  174SOL    HW2  749   1.693   4.417   0.770 -2.2986 -1.7507  1.8175
  174SOL    HW3  750   1.586   4.524   0.774 -0.4317  0.2218  0.2903
  174SOL    MW4  751   1.620   4.452   0.739 -0.6677  0.2236  0.0602
  175SOL     OW  752   0.265   4.131   0.357  0.2267  0.1768 -0.2037
  175SOL    HW2  753   0.274   4.217   0.398  0.1106  0.7358 -1.3229
  175SOL    HW3  754   0.350   4.089   0.370 -0.1739 -0.1170  1.5983
  175SOL    MW4  755   0.277   4.137   0.364  0.1585  0.2112 -0.1136
  176SOL     OW  756   0.984   4.368   0.109 -0.1377 -0.2854  0.7053
  176SOL    HW2  757   0.986   4.413   0.024 -0.4060 -0.3039  0.6893
  176SOL    HW3  758   0.891   4.363   0.132 -0.1970 -1.9175  0.1475
  176SOL    MW4  759   0.972   4.374   0.101 -0.1808 -0.5031  0.6296
  177SOL     OW  760   1.803   2.087   0.889 -0.2635 -0.1970  0.6983
  177SOL    HW2  761   1.833   2.177   0.887 -0.9665  0.0228 -0.7422
  177SOL    HW3  762   1.711   2.092   0.861  0.0704 -1.4857 -0.6900
  177SOL    MW4  763   1.795   2.099   0.885 -0.3121 -0.3381  0.3251
  178SOL     OW  764   3.618   0.143   0.422  0.2150 -0.4150 -0.4190
  178SOL    HW2  765   3.619   0.159   0.516  0.6274  1.0733 -0.6618
  178SOL    HW3  766   3.599   0.229   0.383  1.9733 -0.6033 -1.7715
  178SOL    MW4  767   3.616   0.156   0.429  0.5014 -0.2435 -0.6295
  179SOL     OW  768   1.511   4.408   0.477 -0.2208 -0.0592 -0.2087
  179SOL    HW2  769   1.542   4.429   0.565 -3.1880  0.4208  0.8074
  179SOL    HW3  770   1.589   4.411   0.422  1.8484 -1.1991  2.5403
  179SOL    MW4  771   1.525   4.411   0.482 -0.3394 -0.1464  0.2880
  180SOL     OW  772   3.153   3.131   0.457 -0.3330  0.2590  0.2930
  180SOL    HW2  773   3.137   3.132   0.551 -0.9080  0.6065  0.1936
  180SOL    HW3  774   3.176   3.222   0.436 -3.0168  0.8416 -0.3683
  180SOL    MW4  775   3.154   3.143   0.466 -0.7632  0.3819  0.1926
  181SOL     OW  776   3.024   2.092   0.399  0.3255  0.1753 -0.1150
  181SOL    HW2  777   2.931   2.072   0.389  0.5749 -1.0034 -0.1681
  181SOL    HW3  778   3.027   2.186   0.418 -0.9350  0.0605  0.7213
  181SOL    MW4  779   3.012   2.102   0.400  0.1922  0.0048 -0.0117
  182SOL     OW  780   3.879   2.061   0.736  0.1947 -0.0551  0.5659
  182SOL    HW2  781   3.794   2.036   0.773 -1.2122  2.7932 -0.6269
  182SOL    HW3  782   3.882   2.016   0.652  0.5726 -1.3927  1.2798
  182SOL    MW4  783   3.868   2.051   0.730  0.0589  0.1442  0.5028
  183SOL     OW  784   0.666   1.889   0.452 -0.0015 -0.1529  0.1329
  183SOL    HW2  785   0.662   1.985   0.457  0.3813 -0.1555  0.5436
  183SOL    HW3  786   0.581   1.864   0.417  0.9579  0.5162 -2.8872
  183SOL    MW4  787   0.654   1.899   0.448  0.1756 -0.0651 -0.2114
  184SOL     OW  788   2.756   0.761   0.444  0.1742 -0.2631  0.1259
  184SOL    HW2  789   2.769   0.841   0.393  0.4338  0.3034  1.0691
  184SOL    HW3  790   2.680   0.719   0.404  0.5379  0.0326 -0.8986
  184SOL    MW4  791   2.748   0.766   0.432  0.2563 -0.1493  0.1152
  185SOL     OW  792   0.060   3.138   0.525 -0.1868 -0.0212 -0.4315
  185SOL    HW2  793   0.080   3.044   0.525 -1.4843 -0.3076 -1.5662
  185SOL    HW3  794   0.143   3.180   0.504 -0.2478 -1.0855 -2.8748
  185SOL    MW4  795   0.074   3.131   0.523 -0.3660 -0.1993 -0.9035
  186SOL     OW  796   2.559   3.133   0.459 -0.7312 -0.4212  0.4027
  186SOL    HW2  797   2.543   3.042   0.433  0.9358  0.1073 -2.7876
  186SOL    HW3  798   2.472   3.171   0.466 -1.3690 -1.4230 -1.6303
  186SOL    MW4  799   2.545   3.126   0.456 -0.5953 -0.4840 -0.2864
  187SOL     OW  800   2.880   2.812   0.753 -0.1976 -0.0663  0.1602
  187SOL    HW2  801   2.871   2.801   0.658  1.1708  1.8672 -0.2149
  187SOL    HW3  802   2.969   2.784   0.773 -0.3159 -0.0067  0.8004
  187SOL    MW4  803   2.890   2.807   0.743 -0.0324  0.1967  0.1952
  188SOL     OW  804   4.174   4.360   0.522  0.0865 -0.2015  0.4760
  188SOL    HW2  805   4.191   4.374   0.615 -0.4797 -0.5838  0.6374
  188SOL    HW3  806   4.079   4.369   0.513  0.0343 -1.0834  0.0991
  188SOL    MW4  807   4.164   4.363   0.533  0.0052 -0.3686  0.4476
  189SOL     OW  808   4.313   3.046   0.365  0.1334  0.1885 -0.0500
  189SOL    HW2  809   4.384   3.100   0.400 -0.3620  0.2233  0.9326
  189SOL    HW3  810   4.339   3.025   0.276  1.2812  0.3633  0.2457
  189SOL    MW4  811   4.326   3.050   0.358  0.2198  0.2160  0.1187
  190SOL     OW  812   3.795   4.631   0.317 -0.1472  0.0810  0.1307
  190SOL    HW2  813   3.731   4.578   0.271 -0.3085  0.0539  0.3868
  190SOL    HW3  814   3.744   4.700   0.359 -0.0639 -0.2116  0.7188
  190SOL    MW4  815   3.780   4.633   0.317 -0.1574  0.0386  0.2421
  191SOL     OW  816   1.638   3.673   0.706  0.2589 -0.0994 -0.1680
  191SOL    HW2  817   1.721   3.638   0.739  0.4941 -0.9203 -1.5583
  191SOL    HW3  818   1.658   3.701   0.617 -1.1595 -1.1528 -0.8434
  191SOL    MW4  819   1.652   3.672   0.699  0.1028 -0.3467 -0.4406
  192SOL     OW  820   0.017   2.430   0.764 -0.5865 -0.3653 -0.0632
  192SOL    HW2  821   0.084   2.373   0.802  0.1930  0.8565  0.4624
  192SOL    HW3  822   0.035   2.429   0.670 -1.1298 -1.6527 -0.1661
  192SOL    MW4  823   0.028   2.423   0.757 -0.5553 -0.3738 -0.0075
  193SOL     OW  824   0.457   2.455   0.766 -0.1661  0.4321  0.0429
  193SOL    HW2  825   0.495   2.498   0.689 -0.6137  2.1181  0.7311
  193SOL    HW3  826   0.530   2.407   0.804  0.4514  0.8716 -0.5556
  193SOL    MW4  827   0.472   2.455   0.761 -0.1437  0.7124  0.0548
  194SOL     OW  828   3.213   1.189   0.436 -0.1685 -0.2407 -0.5181
  194SOL    HW2  829   3.224   1.223   0.525 -1.8889  0.7000 -0.6469
  194SOL    HW3  830   3.266   1.247   0.381  0.6789 -0.6583 -0.1522
  194SOL    MW4  831   3.221   1.201   0.440 -0.2837 -0.1715 -0.4868
  195SOL     OW  832   2.694   1.707   0.425 -0.0989 -0.3405 -0.0038
  195SOL    HW2  833   2.692   1.707   0.520  0.4387  0.1776  0.0116
  195SOL    HW3  834   2.778   1.665   0.403 -0.0666 -0.1570 -0.2398
  195SOL    MW4  835   2.705   1.701   0.434 -0.0236 -0.2480 -0.0329
  196SOL     OW  836   3.622   3.089   0.125 -0.8309 -0.3676  0.1913
  196SOL    HW2  837   3.669   3.167   0.093 -2.2036 -0.7693 -3.0242
  196SOL    HW3  838   3.535   3.121   0.147 -1.2792 -0.9020 -0.7772
  196SOL    MW4  839   3.617   3.103   0.124 -1.0710 -0.4914 -0.3607
  197SOL     OW  840   2.736   0.359   0.791  0.1109  0.0585  0.0874
  197SOL    HW2  841   2.652   0.384   0.753  0.3269 -0.0095 -0.4375
  197SOL    HW3  842   2.718   0.352   0.885 -0.3351  0.5900  0.0488
  197SOL    MW4  843   2.722   0.361   0.798  0.0806  0.1197  0.0131
  198SOL     OW  844   2.268   4.030   0.755  0.6662 -0.3889 -0.0450
  198SOL    HW2  845   2.181   3.993   0.769  0.0276  1.1782  0.3136
  198SOL    HW3  846   2.284   4.020   0.661  0.1990 -0.8822 -0.0714
  198SOL    MW4  847   2.259   4.024   0.745  0.5205 -0.2470 -0.0012
  199SOL     OW  848   0.891   0.109   0.674  0.0867  0.5804  0.2683
  199SOL    HW2  849   0.877   0.201   0.694 -1.1633  0.3843  0.3406
  199SOL    HW3  850   0.814   0.065   0.710  0.3865 -0.4115 -0.2964
  199SOL    MW4  851   0.879   0.115   0.681 -0.0386  0.4237  0.2033
  200SOL     OW  852   0.471   3.987   0.700 -0.7320 -0.0155  0.6442
  200SOL    HW2  853   0.393   3.937   0.726  0.1278 -0.1268  3.1126
  200SOL    HW3  854   0.460   4.072   0.743  0.5245 -0.0326  0.9924
  200SOL    MW4  855   0.459   3.992   0.709 -0.4528 -0.0324  1.0158
  201SOL     OW  856   4.077   1.644   0.772 -0.5426  0.1399  0.2897
  201SOL    HW2  857   4.165   1.615   0.798 -0.2728  0.2273 -0.4952
  201SOL    HW3  858   4.082   1.651   0.676 -1.4458  0.0154  0.2293
  201SOL    MW4  859   4.089   1.641   0.763 -0.6266  0.1351  0.1781
  202SOL     OW  860   1.782   4.426   0.373 -0.0279  0.4591 -0.1701
  202SOL    HW2  861   1.849   4.451   0.438  0.3860  0.7210 -0.6930
  202SOL    HW3  862   1.798   4.484   0.299 -0.2024 -0.1451 -0.6907
  202SOL    MW4  863   1.793   4.437   0.372  0.0037  0.4144 -0.3078
  203SOL     OW  864   4.041   0.922   0.763 -0.2689  0.1048 -0.0226
  203SOL    HW2  865   4.034   1.014   0.788  1.1405  0.2931 -0.2585
  203SOL    HW3  866   3.959   0.882   0.792 -0.8954  1.4392  0.0500
  203SOL    MW4  867   4.029   0.929   0.770 -0.1659  0.3057 -0.0441
  204SOL     OW  868   4.379   0.423   0.482 -0.3585 -0.0357  0.3413
  204SOL    HW2  869   4.413   0.335   0.497  0.4716  0.2107 -0.0746
  204SOL    HW3  870   4.340   0.448   0.566 -0.5843 -0.7892  0.4656
  204SOL    MW4  871   4.378   0.415   0.495 -0.2785 -0.1026  0.3029
  205SOL     OW  872   0.044   1.693   0.782  0.1282 -0.4726 -0.1413
  205SOL    HW2  873   0.111   1.643   0.829 -0.9787 -0.5781  1.3199
  205SOL    HW3  874   0.033   1.646   0.699  0.7479 -1.3287  0.2589
  205SOL    MW4  875   0.052   1.681   0.777  0.0639 -0.5995  0.1042
  206SOL     OW  876   3.724   3.400   0.213 -0.3218  0.1327 -0.4566
  206SOL    HW2  877   3.731   3.496   0.213 -1.7386  0.2715  1.3972
  206SOL    HW3  878   3.801   3.370   0.261  0.3661  0.3030 -1.4363
  206SOL    MW4  879   3.735   3.409   0.220 -0.4182  0.1733 -0.3413
  207SOL     OW  880   4.267   3.682   0.475  0.6171  0.1071 -0.1021
  207SOL    HW2  881   4.193   3.623   0.486  0.7062  0.1956  1.0429
  207SOL    HW3  882   4.228   3.768   0.462  0.5271  0.4029  2.0287
  207SOL    MW4  883   4.252   3.685   0.475  0.6166  0.1581  0.3301
  208SOL     OW  884   3.515   3.546   0.595 -0.2331 -0.0488  0.1681
  208SOL    HW2  885   3.553   3.633   0.583  1.2979 -0.7150  0.0670
  208SOL    HW3  886   3.428   3.563   0.631 -0.0792  1.5321 -0.1539
  208SOL    MW4  887   3.508   3.560   0.598 -0.0105  0.0720  0.1123
  209SOL     OW  888   0.062   0.825   0.236 -0.7284  0.2345  0.0736
  209SOL    HW2  889   0.134   0.888   0.233  0.2422 -0.9306 -1.3366
  209SOL    HW3  890   0.004   0.852   0.165 -0.2016 -0.5953 -0.6716
  209SOL    MW4  891   0.064   0.837   0.227 -0.5308 -0.0287 -0.2108
  210SOL     OW  892   2.904   1.552   0.830 -0.3264 -0.7656  0.1721
  210SOL    HW2  893   2.906   1.458   0.809 -2.1276 -0.8662  0.3783
  210SOL    HW3  894   2.956   1.593   0.761 -0.5429 -1.7975 -0.6214
  210SOL    MW4  895   2.911   1.545   0.818 -0.5927 -0.9151  0.0945
  211SOL     OW  896   1.085   4.137   0.321 -0.1409  0.5273 -0.3716
  211SOL    HW2  897   1.102   4.174   0.234  1.5514 -0.7288 -0.6090
  211SOL    HW3  898   1.139   4.190   0.380  0.4544 -0.0563 -0.3926
  211SOL    MW4  899   1.094   4.149   0.317  0.1609  0.2847 -0.4056
  212SOL     OW  900   2.967   0.495   0.714  0.2024 -0.4188 -0.1799
  212SOL    HW2  901   3.041   0.470   0.770  0.2093 -1.3273 -0.5872
  212SOL    HW3  902   2.891   0.451   0.754 -0.0006 -0.0401 -0.1518
  212SOL    MW4  903   2.967   0.486   0.727  0.1767 -0.4887 -0.2300
  213SOL     OW  904   1.966   3.719   0.328  0.3862 -0.4347  0.2291
  213SOL    HW2  905   1.955   3.802   0.283  2.5736  0.2087  0.8028
  213SOL    HW3  906   2.030   3.738   0.397  0.0904 -2.3346  1.0507
  213SOL    MW4  907   1.973   3.732   0.331  0.6359 -0.6006  0.4132
  214SOL     OW  908   3.147   1.607   0.211  0.1457  0.1096 -0.3251
  214SOL    HW2  909   3.102   1.614   0.127 -1.1040 -0.0845  0.3223
  214SOL    HW3  910   3.145   1.696   0.246 -1.8535 -0.3437  0.7767
  214SOL    MW4  911   3.141   1.620   0.205 -0.2828  0.0242 -0.0943
  215SOL     OW  912   4.364   2.786   0.486 -0.1838  0.2260 -0.0074
  215SOL    HW2  913   4.456   2.798   0.511  0.3811 -0.7851 -1.5221
  215SOL    HW3  914   4.342   2.865   0.438 -0.6467  1.2374  1.8043
  215SOL    MW4  915   4.373   2.798   0.483 -0.1702  0.2260  0.0318
  216SOL     OW  916   4.094   1.913   0.878 -0.7971 -0.0701  0.5023
  216SOL    HW2  917   4.021   1.962   0.840 -0.1151  0.4204 -0.1976
  216SOL    HW3  918   4.090   1.827   0.836 -1.0005 -0.0592  0.4993
  216SOL    MW4  919   4.084   1.908   0.868 -0.7343 -0.0041  0.4095
  217SOL     OW  920   2.242   4.279   0.860  0.2006 -0.0422  0.0740
  217SOL    HW2  921   2.259   4.190   0.827  0.1876  0.0942 -0.3002
  217SOL    HW3  922   2.312   4.332   0.822  0.0195  0.1681  0.0337
  217SOL    MW4  923   2.253   4.274   0.851  0.1750  0.0029  0.0193
  218SOL     OW  924   1.475   0.543   0.485  0.0281 -0.3731  0.0217
  218SOL    HW2  925   1.382   0.524   0.471 -0.1797 -0.3154  1.2722
  218SOL    HW3  926   1.485   0.634   0.459 -0.5680  0.0475  1.2682
  218SOL    MW4  927   1.464   0.552   0.479 -0.0780 -0.3100  0.3511
  219SOL     OW  928   3.587   4.239   0.832  0.3267  0.1363 -0.0188
  219SOL    HW2  929   3.504   4.286   0.829 -0.4979 -1.3050  0.0263
  219SOL    HW3  930   3.648   4.296   0.786 -0.9842  0.6005 -1.2276
  219SOL    MW4  931   3.584   4.253   0.826  0.0451  0.0072 -0.1724
  220SOL     OW  932   2.127   4.660   0.229 -0.1759 -0.2925  0.3694
  220SOL    HW2  933   2.157   4.576   0.264 -0.3505 -0.7102 -0.4698
  220SOL    HW3  934   2.039   4.643   0.196  0.3943 -0.2066 -1.2843
  220SOL    MW4  935   2.119   4.647   0.229 -0.1237 -0.3363  0.0405
  221SOL     OW  936   0.797   1.365   0.287  0.1111  0.6879 -0.0512
  221SOL    HW2  937   0.780   1.278   0.323 -1.4777  1.2645  0.6352
  221SOL    HW3  938   0.840   1.413   0.359 -0.1982  0.8666  0.0157
  221SOL    MW4  939   0.800   1.360   0.302 -0.1394  0.7876  0.0482
  222SOL     OW  940   3.338   1.424   0.347 -0.3030 -0.1469  0.0430
  222SOL    HW2  941   3.345   1.463   0.434 -1.9719  0.0189  0.1305
  222SOL    HW3  942   3.275   1.480   0.301 -2.7248 -2.6538  0.1528
  222SOL    MW4  943   3.330   1.437   0.352 -0.8426 -0.4557  0.0690
  223SOL     OW  944   3.095   1.122   0.855 -0.0719 -0.1312  0.3185
  223SOL    HW2  945   3.103   1.149   0.946  0.7573  1.6414 -0.2481
  223SOL    HW3  946   3.163   1.171   0.809 -1.4630  0.1809 -1.4916
  223SOL    MW4  947   3.105   1.132   0.861 -0.1462  0.1436  0.0049
  224SOL     OW  948   4.357   2.499   0.403 -0.3394  0.3651 -0.0872
  224SOL    HW2  949   4.344   2.591   0.427  1.1260  0.8287 -1.0143
  224SOL    HW3  950   4.269   2.460   0.406 -0.7959  1.4830  1.5674
  224SOL    MW4  951   4.344   2.506   0.407 -0.2060  0.5741  0.0088
  225SOL     OW  952   3.625   0.466   0.406  0.0564  0.0786  0.6545
  225SOL    HW2  953   3.710   0.480   0.449 -0.3635  0.9384  1.2104
  225SOL    HW3  954   3.618   0.539   0.344  0.6350 -1.1169 -0.8709
  225SOL    MW4  955   3.636   0.478   0.403  0.0772  0.0343  0.5265
  226SOL     OW  956   1.988   2.627   0.467 -0.0818  0.3847  0.0659
  226SOL    HW2  957   2.025   2.539   0.465 -2.0467 -0.4485 -0.8571
  226SOL    HW3  958   2.065   2.685   0.468  1.2276 -1.3156  0.7043
  226SOL    MW4  959   2.003   2.623   0.467 -0.1683  0.0505  0.0283
  227SOL     OW  960   2.449   4.502   0.483  0.1946 -0.2478  0.2851
  227SOL    HW2  961   2.453   4.443   0.558  0.0342 -1.8545 -0.9510
  227SOL    HW3  962   2.536   4.497   0.443  0.1743  0.3519  0.1505
  227SOL    MW4  963   2.461   4.494   0.487  0.1707 -0.3810  0.1042
  228SOL     OW  964   1.157   1.908   0.524 -0.4871  0.0222  0.0845
  228SOL    HW2  965   1.128   1.965   0.596 -0.2169  1.2337 -0.7443
  228SOL    HW3  966   1.190   1.969   0.458  1.2608 -1.1893 -0.1739
  228SOL    MW4  967   1.157   1.924   0.525 -0.2210  0.0222 -0.0589
  229SOL     OW  968   4.098   1.444   0.484  0.5312 -0.2842  0.0735
  229SOL    HW2  969   4.140   1.359   0.468  0.7227 -0.0381 -0.7888
  229SOL    HW3  970   4.006   1.429   0.461  0.4513 -0.4142  0.4800
  229SOL    MW4  971   4.091   1.431   0.479  0.5455 -0.2689  0.0134
  230SOL     OW  972   2.235   2.786   0.483 -0.3255 -0.2668  0.2864
  230SOL    HW2  973   2.282   2.796   0.566 -0.1359  0.5411  0.0882
  230SOL    HW3  974   2.217   2.876   0.455 -1.2295 -0.5570 -0.0742
  230SOL    MW4  975   2.239   2.799   0.491 -0.4196 -0.1986  0.2127
  231SOL     OW  976   3.369   2.901   0.440  0.1029 -0.0192  0.0958
  231SOL    HW2  977   3.304   2.963   0.407 -0.8544 -0.1457  1.6903
  231SOL    HW3  978   3.334   2.815   0.417 -0.4913 -0.1014  1.2767
  231SOL    MW4  979   3.356   2.898   0.433 -0.1018 -0.0467  0.4620
  232SOL     OW  980   3.376   2.616   0.409 -0.2232 -0.1936 -0.5830
  232SOL    HW2  981   3.308   2.550   0.418 -0.6592  0.2318 -0.7714
  232SOL    HW3  982   3.456   2.566   0.393 -0.6102 -0.6629 -1.0506
  232SOL    MW4  983   3.378   2.601   0.408 -0.3319 -0.1998 -0.6695
  233SOL     OW  984   4.261   1.294   0.759  0.1420 -0.2223  0.2289
  233SOL    HW2  985   4.303   1.378   0.777 -0.2833  0.0971 -0.2846
  233SOL    HW3  986   4.250   1.292   0.664 -0.6992 -0.4564  0.3310
  233SOL    MW4  987   4.265   1.305   0.749 -0.0253 -0.2111  0.1746
  234SOL     OW  988   1.604   1.504   0.878  0.4485 -0.1292  0.6872
  234SOL    HW2  989   1.604   1.492   0.973  0.6555  0.8482  0.8229
  234SOL    HW3  990   1.586   1.418   0.842 -2.2968 -0.0140  1.6865
  234SOL    MW4  991   1.602   1.491   0.886  0.1137  0.0150  0.8370
  235SOL     OW  992   2.935   3.683   0.509 -0.0130 -0.4805 -0.6809
  235SOL    HW2  993   3.029   3.691   0.492  0.0962  0.0231  0.1496
  235SOL    HW3  994   2.900   3.771   0.498  0.1666  0.0098  2.2457
  235SOL    MW4  995   2.943   3.695   0.505  0.0250 -0.3493 -0.1852
  236SOL     OW  996   2.311   3.253   0.531  0.1922 -0.0653 -0.5781
  236SOL    HW2  997   2.235   3.202   0.502  0.6476 -0.9458 -0.2524
  236SOL    HW3  998   2.296   3.267   0.625  1.0172 -1.2870 -0.2560
  236SOL    MW4  999   2.299   3.248   0.540  0.3612 -0.3426 -0.4926
  237SOL     OW 1000   0.371   2.156   0.338 -0.0830  0.0716 -0.0216
  237SOL    HW2 1001   0.452   2.160   0.389 -1.2155  0.3680  1.8025
  237SOL    HW3 1002   0.359   2.063   0.319  2.5036  0.3451 -3.3686
  237SOL    MW4 1003   0.380   2.144   0.342  0.1088  0.1469 -0.2225
  238SOL     OW 1004   3.924   3.962   0.272  0.2589  0.1645  0.3601
  238SOL    HW2 1005   3.993   3.991   0.212 -0.2573  0.0706 -0.2789
  238SOL    HW3 1006   3.880   4.043   0.299  1.0793  0.2964  1.3442
  238SOL    MW4 1007   3.928   3.977   0.268  0.2990  0.1695  0.4056
  239SOL     OW 1008   2.572   2.458   0.326  0.3664 -0.4009 -0.2055
  239SOL    HW2 1009   2.662   2.484   0.347  0.1927  0.3463 -0.3616
  239SOL    HW3 1010   2.570   2.363   0.340  1.2851 -0.4819 -0.5681
  239SOL    MW4 1011   2.584   2.449   0.330  0.4647 -0.3126 -0.2739
  240SOL     OW 1012   2.853   4.248   0.494  0.2483 -0.1484  0.1878
  240SOL    HW2 1013   2.870   4.296   0.575  1.6169  0.7778 -0.6229
  240SOL    HW3 1014   2.813   4.313   0.436  0.7798 -0.3578 -0.4234
  240SOL    MW4 1015   2.850   4.263   0.497  0.4990 -0.0534  0.0002
  241SOL     OW 1016   0.264   0.999   0.295 -0.1251  0.3696  0.3425
  241SOL    HW2 1017   0.329   0.959   0.352  1.8365  0.5033 -1.7167
  241SOL    HW3 1018   0.290   1.091   0.290  1.5537 -0.1923 -3.0324
  241SOL    MW4 1019   0.276   1.006   0.302  0.3552  0.3132 -0.3744
  242SOL     OW 1020   4.450   4.263   0.198 -0.0235  0.8022 -0.3038
  242SOL    HW2 1021   4.537   4.223   0.198  0.1020  1.0622 -1.1083
  242SOL    HW3 1022   4.463   4.349   0.236 -0.4303 -0.1829  2.1552
  242SOL    MW4 1023   4.463   4.269   0.203 -0.0606  0.7062 -0.0855
  243SOL     OW 1024   0.257   4.656   0.862  0.3347 -0.2032  0.2693
  243SOL    HW2 1025   0.180   4.698   0.824  0.3829  0.3001  0.7298
  243SOL    HW3 1026   0.263   4.572   0.816 -0.6939 -0.4029  0.4911
  243SOL    MW4 1027   0.248   4.650   0.851  0.2053 -0.1636  0.3593
  244SOL     OW 1028   0.034   0.131   0.783  0.1244 -0.6003  0.4309
  244SOL    HW2 1029  -0.040   0.080   0.817 -0.2770 -0.3696 -0.0849
  244SOL    HW3 1030   0.027   0.216   0.827  1.0977 -1.1454  1.6869
  244SOL    MW4 1031   0.023   0.135   0.793  0.1998 -0.6418  0.5287
  245SOL     OW 1032   0.052   0.404   0.860  0.2203  0.6661  0.1065
  245SOL    HW2 1033   0.034   0.418   0.953  2.3307 -0.4653  0.7316
  245SOL    HW3 1034   0.128   0.459   0.842  1.7831 -1.4945 -0.1226
  245SOL    MW4 1035   0.060   0.413   0.870  0.7049  0.2318  0.1587
  246SOL     OW 1036   0.290   0.530   0.805 -0.2567  0.2968 -0.0938
  246SOL    HW2 1037   0.352   0.468   0.843 -0.4274  0.3434  0.2663
  246SOL    HW3 1038   0.312   0.533   0.712  0.6325  0.7141  0.1265
  246SOL    MW4 1039   0.301   0.523   0.798 -0.1619  0.3580 -0.0172
  247SOL     OW 1040   0.254   0.803   0.823 -0.0369 -0.2302 -0.0904
  247SOL    HW2 1041   0.256   0.708   0.808 -0.7696 -0.2706  0.0413
  247SOL    HW3 1042   0.216   0.813   0.910  2.4588  0.0886  0.9843
  247SOL    MW4 1043   0.249   0.792   0.832  0.1957 -0.1935  0.0688
  248SOL     OW 1044   3.984   1.192   0.802  0.1737 -0.0315  0.3396
  248SOL    HW2 1045   4.077   1.201   0.784 -0.0496 -1.5552 -1.6974
  248SOL    HW3 1046   3.978   1.198   0.898  2.3566  0.0088  0.5063
  248SOL    MW4 1047   3.996   1.194   0.813  0.4323 -0.2272  0.0928
  249SOL     OW 1048   2.919   1.556   0.364 -0.0897  0.0199 -0.1077
  249SOL    HW2 1049   2.922   1.466   0.397  0.7355  0.9051  2.3674
  249SOL    HW3 1050   2.993   1.561   0.303 -0.7487 -1.2386 -1.0386
  249SOL    MW4 1051   2.929   1.545   0.360 -0.0677 -0.0293  0.0960
  250SOL     OW 1052   4.479   1.144   0.853  0.0207  0.3344 -0.4437
  250SOL    HW2 1053   4.397   1.187   0.829 -0.5248  0.0893  0.9510
  250SOL    HW3 1054   4.479   1.143   0.949  0.7633 -1.3435 -0.4408
  250SOL    MW4 1055   4.469   1.149   0.862  0.0467  0.0806 -0.2592
  251SOL     OW 1056   0.226   1.274   0.771 -0.4514  0.4777 -0.1264
  251SOL    HW2 1057   0.139   1.248   0.801 -0.2193 -2.1141 -1.5101
  251SOL    HW3 1058   0.219   1.274   0.675  1.2057 -0.3067 -0.2647
  251SOL    MW4 1059   0.213   1.270   0.762 -0.2021  0.0322 -0.3272
  252SOL     OW 1060   0.491   1.896   0.850  0.3537  0.1322  0.1361
  252SOL    HW2 1061   0.488   1.892   0.945 -0.3255 -0.4131  0.0955
  252SOL    HW3 1062   0.433   1.969   0.827  1.2622  0.8793  0.1793
  252SOL    MW4 1063   0.483   1.905   0.859  0.3840  0.1589  0.1364
  253SOL     OW 1064   0.887   1.146   0.869 -0.1338  0.3936  0.1556
  253SOL    HW2 1065   0.824   1.199   0.820  0.0711 -0.9994 -1.6832
  253SOL    HW3 1066   0.973   1.177   0.842 -0.0104  0.7322  0.9110
  253SOL    MW4 1067   0.890   1.157   0.859 -0.0905  0.2544  0.0126
  254SOL     OW 1068   1.410   1.812   0.565  0.1822 -0.2371 -0.2226
  254SOL    HW2 1069   1.320   1.844   0.567 -0.2468 -1.2681 -1.9281
  254SOL    HW3 1070   1.416   1.753   0.640 -0.9618 -1.1380 -0.8192
  254SOL    MW4 1071   1.399   1.808   0.575 -0.0253 -0.4920 -0.5264
  255SOL     OW 1072   0.240   2.309   0.882 -0.2062  0.0780  0.1396
  255SOL    HW2 1073   0.240   2.325   0.977 -0.2983  0.2384  0.1111
  255SOL    HW3 1074   0.316   2.358   0.850 -0.4673  0.4306  0.0582
  255SOL    MW4 1075   0.250   2.317   0.891 -0.2528  0.1459  0.1251
  256SOL     OW 1076   4.298   2.298   0.827 -0.4446  0.1848 -0.4942
  256SOL    HW2 1077   4.383   2.337   0.806 -1.1747  2.0373 -0.1405
  256SOL    HW3 1078   4.295   2.217   0.777  1.0831  0.6597 -1.3688
  256SOL    MW4 1079   4.308   2.293   0.818 -0.3390  0.4916 -0.5629
  257SOL     OW 1080   4.479   2.699   0.873  0.5835 -0.0392  0.6013
  257SOL    HW2 1081   4.483   2.611   0.835  3.3790 -0.1963  1.1465
  257SOL    HW3 1082   4.499   2.686   0.965  0.2069  1.0799  0.8444
  257SOL    MW4 1083   4.482   2.686   0.880  0.9026  0.0875  0.7053
  258SOL     OW 1084   0.222   2.815   0.764 -0.7035  0.5186 -0.0039
  258SOL    HW2 1085   0.149   2.772   0.809  0.9346 -0.4704  1.8117
  258SOL    HW3 1086   0.233   2.897   0.812  0.5067 -0.1550  0.9043
  258SOL    MW4 1087   0.214   2.820   0.777 -0.3277  0.2990  0.3554
  259SOL     OW 1088   0.250   3.059   0.879 -0.1579 -0.1405 -0.2819
  259SOL    HW2 1089   0.271   3.078   0.970  1.1611  2.8761 -1.1421
  259SOL    HW3 1090   0.173   3.112   0.860 -0.1481 -0.3842 -1.0393
  259SOL    MW4 1091   0.243   3.069   0.888  0.0174  0.2253 -0.4954
  260SOL     OW 1092   0.404   2.400   0.189 -0.1197  0.4012 -0.0799
  260SOL    HW2 1093   0.369   2.381   0.102  0.1378  1.6884 -0.4662
  260SOL    HW3 1094   0.392   2.318   0.237 -0.9659 -0.0847 -1.0881
  260SOL    MW4 1095   0.398   2.387   0.184 -0.1974  0.5066 -0.2639
  261SOL     OW 1096   0.020   3.482   0.848  0.0822 -0.9377  0.2605
  261SOL    HW2 1097   0.021   3.392   0.814 -0.8147 -0.3639 -1.3450
  261SOL    HW3 1098  -0.052   3.524   0.801  0.2008  0.4889  1.3519
  261SOL    MW4 1099   0.011   3.475   0.837 -0.0205 -0.6740  0.1926
  262SOL     OW 1100   3.610   0.884   0.728 -0.0684  0.6015 -0.1157
  262SOL    HW2 1101   3.589   0.969   0.765  0.6027  0.9490 -0.5082
  262SOL    HW3 1102   3.634   0.903   0.637 -2.2598 -0.2997 -0.9143
  262SOL    MW4 1103   3.611   0.897   0.721 -0.2689  0.5284 -0.2729
  263SOL     OW 1104   3.872   3.578   0.738  0.0964 -0.0971 -0.1483
  263SOL    HW2 1105   3.790   3.549   0.777 -0.0419 -0.5624 -0.7676
  263SOL    HW3 1106   3.937   3.516   0.772  0.0285 -0.3063 -0.3920
  263SOL    MW4 1107   3.870   3.566   0.747  0.0691 -0.1864 -0.2621
  264SOL     OW 1108   0.241   3.875   0.815 -0.2497 -0.5148 -0.2000
  264SOL    HW2 1109   0.254   3.873   0.909  0.0253 -1.7825 -0.2486
  264SOL    HW3 1110   0.158   3.921   0.803  0.2536  0.6036  0.5911
  264SOL    MW4 1111   0.232   3.881   0.825 -0.1470 -0.5345 -0.1020
  265SOL     OW 1112   0.018   4.312   0.885 -0.1984 -0.3573  0.5226
  265SOL    HW2 1113   0.028   4.221   0.859 -0.5301 -0.3679  0.4248
  265SOL    HW3 1114  -0.002   4.308   0.978  0.4808 -0.3471  0.6743
  265SOL    MW4 1115   0.017   4.300   0.894 -0.1526 -0.3576  0.5297
  266SOL     OW 1116   0.224   4.400   0.731 -0.2948 -0.2775  0.4478
  266SOL    HW2 1117   0.293   4.336   0.754 -0.3893 -0.5713 -0.0733
  266SOL    HW3 1118   0.148   4.373   0.782  0.0879  0.2664  1.3013
  266SOL    MW4 1119   0.223   4.388   0.741 -0.2567 -0.2437  0.4917
  267SOL     OW 1120   0.692   4.646   0.841 -0.2488 -0.3991  0.1456
  267SOL    HW2 1121   0.681   4.662   0.935 -1.0173  0.0896 -0.0223
  267SOL    HW3 1122   0.618   4.692   0.800 -0.2675 -1.1204 -0.6502
  267SOL    MW4 1123   0.680   4.654   0.848 -0.3527 -0.4301  0.0185
  268SOL     OW 1124   0.476   0.111   0.734  0.0837  0.3059  0.2427
  268SOL    HW2 1125   0.399   0.070   0.774  1.3589  0.5267  3.0388
  268SOL    HW3 1126   0.460   0.105   0.640 -2.3649 -1.5481  0.7240
  268SOL    MW4 1127   0.464   0.105   0.727 -0.0712  0.0904  0.6751
  269SOL     OW 1128   0.478   0.343   0.881  0.1621 -0.0735 -0.1348
  269SOL    HW2 1129   0.551   0.390   0.841  0.8560  0.1645  1.3774
  269SOL    HW3 1130   0.468   0.264   0.827  0.8827  0.3788 -0.9397
  269SOL    MW4 1131   0.486   0.338   0.869  0.3487  0.0176 -0.0415
  270SOL     OW 1132   0.676   0.491   0.777  0.2348 -0.1107 -0.1527
  270SOL    HW2 1133   0.754   0.440   0.796 -0.2141 -0.7767 -0.1118
  270SOL    HW3 1134   0.664   0.482   0.683 -1.1464 -1.9363  0.1914
  270SOL    MW4 1135   0.685   0.483   0.767 -0.0066 -0.4394 -0.1019
  271SOL     OW 1136   0.680   0.754   0.852  0.5076 -0.1590  0.1588
  271SOL    HW2 1137   0.681   0.670   0.807 -0.8819  0.3193 -0.7852
  271SOL    HW3 1138   0.760   0.798   0.823  0.8667 -0.8572  0.0900
  271SOL    MW4 1139   0.691   0.749   0.842  0.3717 -0.1881  0.0252
  272SOL     OW 1140   0.890   0.976   0.470 -0.2127  0.1527  0.0864
  272SOL    HW2 1141   0.892   0.933   0.556  0.1091  0.8210  0.4148
  272SOL    HW3 1142   0.812   1.032   0.474  0.6476  1.3448  0.5149
  272SOL    MW4 1143   0.880   0.977   0.482 -0.0567  0.3982  0.1863
  273SOL     OW 1144   0.478   1.144   0.826 -0.2720  0.0809  0.0015
  273SOL    HW2 1145   0.484   1.056   0.788  1.6056  0.8307 -1.5158
  273SOL    HW3 1146   0.393   1.177   0.796  0.1876 -0.2132 -1.7192
  273SOL    MW4 1147   0.467   1.137   0.817  0.0364  0.1410 -0.4257
  274SOL     OW 1148   2.015   1.458   0.864  0.2760 -0.1274  0.1174
  274SOL    HW2 1149   2.018   1.364   0.844 -0.9557  0.2583 -2.0878
  274SOL    HW3 1150   2.089   1.495   0.818  0.2335  0.1133  0.2417
  274SOL    MW4 1151   2.025   1.450   0.855  0.1078 -0.0447 -0.1572
  275SOL     OW 1152   0.457   1.664   0.698 -0.0579  0.1078  0.2641
  275SOL    HW2 1153   0.464   1.752   0.736 -1.9260 -0.0329  0.9675
  275SOL    HW3 1154   0.533   1.617   0.732  0.1778  1.0406  1.0231
  275SOL    MW4 1155   0.468   1.669   0.708 -0.2733  0.2123  0.4570
  276SOL     OW 1156   0.245   1.543   0.885 -0.6508  0.3274 -0.6157
  276SOL    HW2 1157   0.318   1.580   0.835 -1.2231 -0.8547 -2.3910
  276SOL    HW3 1158   0.243   1.451   0.859 -1.9490  0.0496  0.4260
  276SOL    MW4 1159   0.255   1.536   0.875 -0.8976  0.1348 -0.7126
  277SOL     OW 1160   0.309   1.883   0.311 -0.0884  0.0756 -0.1592
  277SOL    HW2 1161   0.214   1.883   0.315 -0.0152  0.2526  2.2989
  277SOL    HW3 1162   0.334   1.799   0.350  0.7306 -0.5585 -2.0123
  277SOL    MW4 1163   0.300   1.872   0.317  0.0293  0.0153 -0.0794
  278SOL     OW 1164   0.664   3.118   0.836 -0.4418  0.6266 -0.5114
  278SOL    HW2 1165   0.665   3.042   0.777 -1.9799  0.3392 -0.1836
  278SOL    HW3 1166   0.582   3.162   0.816 -1.5233 -0.0854  2.1864
  278SOL    MW4 1167   0.653   3.114   0.826 -0.7874  0.4947 -0.1122
  279SOL     OW 1168   0.915   2.441   0.733 -0.2717 -0.3585  0.1706
  279SOL    HW2 1169   0.835   2.408   0.773 -0.1557 -0.6076  0.2015
  279SOL    HW3 1170   0.914   2.535   0.749  0.3855 -0.6248  1.8517
  279SOL    MW4 1171   0.904   2.449   0.740 -0.1697 -0.4265  0.3964
  280SOL     OW 1172   0.925   2.723   0.803 -0.1831 -0.3139  0.6434
  280SOL    HW2 1173   0.933   2.723   0.898  1.2238  1.7962  0.5567
  280SOL    HW3 1174   0.837   2.755   0.786  0.8291  2.9109  1.2025
  280SOL    MW4 1175   0.914   2.727   0.813  0.1361  0.3903  0.7057
  281SOL     OW 1176   0.461   2.708   0.889 -0.2516  0.0100  0.0121
  281SOL    HW2 1177   0.385   2.751   0.849  0.1823  0.8169  0.0389
  281SOL    HW3 1178   0.462   2.620   0.851 -0.9611  0.1342 -0.2970
  281SOL    MW4 1179   0.451   2.702   0.879 -0.2880  0.1328 -0.0252
  282SOL     OW 1180   1.211   3.604   0.463  0.5033 -0.1521  0.2458
  282SOL    HW2 1181   1.206   3.692   0.427  0.1197 -0.3466 -0.1731
  282SOL    HW3 1182   1.194   3.616   0.557  0.8972  0.2712  0.2649
  282SOL    MW4 1183   1.208   3.617   0.471  0.5046 -0.1221  0.1931
  283SOL     OW 1184   0.908   3.233   0.721  0.3036  0.2296 -0.6786
  283SOL    HW2 1185   0.907   3.325   0.748 -0.0877 -0.0635  0.3666
  283SOL    HW3 1186   0.828   3.197   0.759  0.7115 -0.6577 -0.6597
  283SOL    MW4 1187   0.897   3.240   0.730  0.3058  0.0737 -0.5382
  284SOL     OW 1188   0.487   3.485   0.842 -0.0167 -0.0315  0.2740
  284SOL    HW2 1189   0.477   3.500   0.936  0.1967  1.9656 -0.0081
  284SOL    HW3 1190   0.405   3.515   0.804  0.2989  0.1250 -0.2886
  284SOL    MW4 1191   0.475   3.491   0.849  0.0531  0.2527  0.1625
  285SOL     OW 1192   0.715   3.615   0.752 -0.0447  0.0212  0.0484
  285SOL    HW2 1193   0.637   3.560   0.764 -0.4756  0.3173 -1.3493
  285SOL    HW3 1194   0.691   3.700   0.788  0.5743 -0.6417  2.0907
  285SOL    MW4 1195   0.702   3.619   0.758 -0.0198 -0.0272  0.1335
  286SOL     OW 1196   0.399   2.973   0.427 -0.3092 -0.1106  0.3274
  286SOL    HW2 1197   0.313   2.939   0.454 -0.8151  0.0134 -1.0640
  286SOL    HW3 1198   0.390   3.068   0.435 -0.3093 -0.0965  0.1515
  286SOL    MW4 1199   0.386   2.981   0.432 -0.3760 -0.0925  0.1206
  287SOL     OW 1200   0.012   4.043   0.793  0.3733 -0.4302 -0.0643
  287SOL    HW2 1201   0.018   4.046   0.697  1.5851 -0.7556 -0.0041
  287SOL    HW3 1202  -0.062   3.985   0.811 -0.1118 -0.0439 -0.8113
  287SOL    MW4 1203   0.003   4.036   0.783  0.4692 -0.4220 -0.1550
  288SOL     OW 1204   1.148   0.807   0.391 -0.2465 -0.2183  0.2090
  288SOL    HW2 1205   1.065   0.852   0.409  0.5180  0.9076  0.9715
  288SOL    HW3 1206   1.216   0.872   0.411  0.8178 -1.0243 -0.7141
  288SOL    MW4 1207   1.146   0.821   0.396 -0.0052 -0.1761  0.1878
  289SOL     OW 1208   0.464   4.247   0.810 -0.2460  0.3316  0.4513
  289SOL    HW2 1209   0.462   4.229   0.904 -2.4794  2.7573  0.9158
  289SOL    HW3 1210   0.537   4.307   0.798  0.5784 -0.6584  0.4975
  289SOL    MW4 1211   0.473   4.252   0.821 -0.4319  0.5212  0.5187
  290SOL     OW 1212   3.861   0.499   0.777  0.4276  0.1406 -0.0249
  290SOL    HW2 1213   3.851   0.588   0.809  0.3800  0.4811 -0.9975
  290SOL    HW3 1214   3.780   0.455   0.803 -0.4539  0.9400 -1.4106
  290SOL    MW4 1215   3.849   0.505   0.785  0.3049  0.2910 -0.3361
  291SOL     OW 1216   0.425   1.240   0.375  0.4218 -0.2064 -0.1926
  291SOL    HW2 1217   0.349   1.266   0.428 -0.7430 -0.7627 -1.5713
  291SOL    HW3 1218   0.465   1.323   0.349 -1.1073  0.1637 -1.4365
  291SOL    MW4 1219   0.420   1.254   0.379  0.0664 -0.2310 -0.5386
  292SOL     OW 1220   4.277   0.767   0.788 -0.3173  0.2303 -0.0986
  292SOL    HW2 1221   4.209   0.834   0.792  0.0839  0.6194  0.3676
  292SOL    HW3 1222   4.350   0.809   0.743 -0.5409 -0.3283 -0.9912
  292SOL    MW4 1223   4.278   0.781   0.783 -0.2937  0.2079 -0.1549
  293SOL     OW 1224   0.905   0.356   0.833 -0.0780  0.1939  0.2666
  293SOL    HW2 1225   0.924   0.361   0.926  0.5810 -1.2516  0.2289
  293SOL    HW3 1226   0.968   0.415   0.792  0.2396  0.1317  0.6626
  293SOL    MW4 1227   0.916   0.364   0.840  0.0508 -0.0050  0.3139
  294SOL     OW 1228   0.678   1.540   0.822 -0.2355 -0.3057 -0.3762
  294SOL    HW2 1229   0.744   1.609   0.812  0.5225 -0.9158  0.2969
  294SOL    HW3 1230   0.655   1.542   0.915  0.0784 -1.2062 -0.2740
  294SOL    MW4 1231   0.684   1.549   0.833 -0.0941 -0.5050 -0.2739
  295SOL     OW 1232   1.107   0.517   0.739  0.7075 -0.5690 -0.3211
  295SOL    HW2 1233   1.132   0.505   0.648  0.3084  0.4592 -0.5660
  295SOL    HW3 1234   1.165   0.459   0.788  0.5585 -1.5212 -1.2710
  295SOL    MW4 1235   1.118   0.508   0.734  0.6351 -0.5590 -0.4787
  296SOL     OW 1236   0.907   0.907   0.748  0.5191  0.2791  0.1059
  296SOL    HW2 1237   0.981   0.860   0.786 -0.0665  0.1109  1.0748
  296SOL    HW3 1238   0.907   0.992   0.792  0.1836  0.3016  0.0676
  296SOL    MW4 1239   0.917   0.912   0.759  0.3976  0.2599  0.2287
  297SOL     OW 1240   1.188   0.528   0.466  0.3118  0.1708  0.2208
  297SOL    HW2 1241   1.174   0.620   0.444  0.9882  0.0244 -0.8556
  297SOL    HW3 1242   1.108   0.484   0.436  0.0424  0.3826  0.6208
  297SOL    MW4 1243   1.175   0.534   0.459  0.3655  0.1795  0.1316
  298SOL     OW 1244   1.803   1.522   0.694  0.0600 -0.0115  0.0985
  298SOL    HW2 1245   1.878   1.520   0.754  0.9653  2.3039 -0.8898
  298SOL    HW3 1246   1.727   1.525   0.752  0.8125 -0.2628  1.1317
  298SOL    MW4 1247   1.803   1.522   0.710  0.2787  0.2608  0.1045
  299SOL     OW 1248   1.094   1.271   0.731 -0.3985 -0.2266 -0.1185
  299SOL    HW2 1249   1.104   1.366   0.726  0.7885 -0.3558 -0.2721
  299SOL    HW3 1250   1.086   1.243   0.639 -0.7832 -0.2799 -0.0721
  299SOL    MW4 1251   1.094   1.280   0.718 -0.2927 -0.2508 -0.1327
  300SOL     OW 1252   0.542   2.568   0.528  0.0372  0.1554  0.9525
  300SOL    HW2 1253   0.454   2.574   0.491  0.0787  0.3851  0.8903
  300SOL    HW3 1254   0.575   2.658   0.527  0.8414 -0.1346 -0.4137
  300SOL    MW4 1255   0.535   2.581   0.523  0.1488  0.1476  0.7641
  301SOL     OW 1256   1.152   2.046   0.763  0.5079 -0.0162  0.3038
  301SOL    HW2 1257   1.232   2.027   0.812  0.2308 -0.6965  0.4962
  301SOL    HW3 1258   1.126   2.133   0.793  0.6161 -0.2165  1.0061
  301SOL    MW4 1259   1.159   2.055   0.774  0.4857 -0.1326  0.4218
  302SOL     OW 1260   1.763   0.190   0.502  0.1605 -0.2297 -0.1303
  302SOL    HW2 1261   1.690   0.130   0.489 -0.0228 -0.3852  1.6121
  302SOL    HW3 1262   1.788   0.179   0.593  1.0612  1.3041 -0.1759
  302SOL    MW4 1263   1.757   0.180   0.512  0.2552 -0.0478  0.0936
  303SOL     OW 1264   1.136   2.318   0.861  0.2140 -0.2251 -0.1494
  303SOL    HW2 1265   1.074   2.376   0.817 -0.3600  0.1194  1.1031
  303SOL    HW3 1266   1.127   2.338   0.954  1.9287 -0.4505  0.0863
  303SOL    MW4 1267   1.127   2.328   0.868  0.3645 -0.2093  0.0470
  304SOL     OW 1268   0.935   2.464   0.475  0.7945 -0.1347  0.0110
  304SOL    HW2 1269   0.849   2.448   0.435  1.4168 -1.3033 -0.8890
  304SOL    HW3 1270   0.924   2.439   0.567 -0.3617  1.5886  0.3592
  304SOL    MW4 1271   0.922   2.458   0.482  0.7240 -0.0613 -0.0618
  305SOL     OW 1272   1.126   2.871   0.686  0.1572  0.3476  0.2231
  305SOL    HW2 1273   1.054   2.818   0.721  0.8181 -0.7778 -0.0915
  305SOL    HW3 1274   1.107   2.877   0.592  0.5630 -0.1113  0.1077
  305SOL    MW4 1275   1.114   2.865   0.678  0.2979  0.1385  0.1663
  306SOL     OW 1276   1.226   3.145   0.364 -0.1401  0.3555 -0.0010
  306SOL    HW2 1277   1.139   3.179   0.386  0.0703 -0.4013  2.0958
  306SOL    HW3 1278   1.286   3.216   0.386 -0.1520  0.5973 -0.7320
  306SOL    MW4 1279   1.222   3.158   0.370 -0.1140  0.2878  0.1792
  307SOL     OW 1280   1.165   3.129   0.816 -0.0948  0.3830  0.5762
  307SOL    HW2 1281   1.176   3.042   0.779 -1.9888 -0.5593  2.1491
  307SOL    HW3 1282   1.085   3.163   0.775  0.7662  1.5055 -0.2193
  307SOL    MW4 1283   1.156   3.122   0.806 -0.2309  0.4067  0.6787
  308SOL     OW 1284   0.066   3.721   0.400 -0.3001 -0.3531  0.1293
  308SOL    HW2 1285  -0.027   3.700   0.408 -0.0996 -1.4122 -0.3145
  308SOL    HW3 1286   0.073   3.810   0.435 -1.4815 -0.2554  0.1428
  308SOL    MW4 1287   0.055   3.730   0.406 -0.4294 -0.4802  0.0725
  309SOL     OW 1288   0.943   3.485   0.842  0.0166  0.4454 -0.1844
  309SOL    HW2 1289   1.017   3.537   0.809  0.2440 -0.1936 -0.7002
  309SOL    HW3 1290   0.866   3.529   0.807  0.2498 -0.1279 -1.4505
  309SOL    MW4 1291   0.943   3.498   0.833  0.0774  0.2854 -0.4196
  310SOL     OW 1292   1.376   3.280   0.695  0.7617 -0.5764 -0.2495
  310SOL    HW2 1293   1.458   3.242   0.728  0.5393 -0.5006  0.3825
  310SOL    HW3 1294   1.308   3.220   0.725  0.5200 -0.2912 -0.2349
  310SOL    MW4 1295   1.378   3.267   0.703  0.7004 -0.5286 -0.1642
  311SOL     OW 1296   2.272   3.498   0.395 -0.4479  0.1036  0.2259
  311SOL    HW2 1297   2.194   3.477   0.344 -0.5012 -0.1852  0.4297
  311SOL    HW3 1298   2.286   3.422   0.452  0.5985 -0.3069 -0.5667
  311SOL    MW4 1299   2.264   3.485   0.396 -0.3166  0.0112  0.1482
  312SOL     OW 1300   0.912   3.983   0.830 -0.3029  0.4858  0.1708
  312SOL    HW2 1301   0.904   3.975   0.735 -2.9057  2.0616  0.2281
  312SOL    HW3 1302   0.913   4.077   0.846  2.3346  0.2775  1.5821
  312SOL    MW4 1303   0.911   3.994   0.819 -0.2983  0.6661  0.3645
  313SOL     OW 1304   0.921   4.262   0.880 -0.1550  0.1483  0.4701
  313SOL    HW2 1305   0.985   4.310   0.827  0.4365  1.7728  2.5989
  313SOL    HW3 1306   0.837   4.279   0.838  0.4155  0.7090 -0.4421
  313SOL    MW4 1307   0.918   4.270   0.868 -0.0016  0.4373  0.6307
  314SOL     OW 1308   2.914   0.752   0.812 -0.0452  0.2138 -0.0205
  314SOL    HW2 1309   2.909   0.756   0.908 -0.6119  0.3141 -0.0500
  314SOL    HW3 1310   2.936   0.661   0.792 -1.2151 -0.1140  0.1595
  314SOL    MW4 1311   2.916   0.741   0.822 -0.2744  0.1838 -0.0007
  315SOL     OW 1312   1.541   0.019   0.856 -0.0922  0.5383  0.2948
  315SOL    HW2 1313   1.526   0.007   0.949 -1.7463 -0.9726 -0.1498
  315SOL    HW3 1314   1.462   0.063   0.824  0.3625  0.8407 -0.4379
  315SOL    MW4 1315   1.529   0.023   0.864 -0.2505  0.3791  0.1395
  316SOL     OW 1316   1.147   4.415   0.723  0.3090  0.4254 -0.4371
  316SOL    HW2 1317   1.220   4.379   0.773 -1.1732  0.3726  1.7762
  316SOL    HW3 1318   1.122   4.494   0.771 -0.7995  0.6934 -1.4307
  316SOL    MW4 1319   1.153   4.421   0.736 -0.0329  0.4539 -0.2761
  317SOL     OW 1320   1.308   0.117   0.742 -0.3816 -0.0405 -0.0818
  317SOL    HW2 1321   1.321   0.201   0.786 -0.0561 -0.4426  0.5933
  317SOL    HW3 1322   1.296   0.140   0.650  0.3516  0.6985  0.0014
  317SOL    MW4 1323   1.308   0.131   0.736 -0.2420  0.0039  0.0182
  318SOL     OW 1324   0.437   0.348   0.397 -0.2058 -0.5450  0.1203
  318SOL    HW2 1325   0.369   0.355   0.330  0.5123  0.8694 -0.4797
  318SOL    HW3 1326   0.447   0.254   0.411  0.2728 -0.9259 -2.4565
  318SOL    MW4 1327   0.429   0.336   0.390 -0.0480 -0.4086 -0.2988
  319SOL     OW 1328   2.223   1.121   0.374 -0.0793 -0.2048 -0.1375
  319SOL    HW2 1329   2.252   1.037   0.410 -1.2391 -0.7577 -0.4791
  319SOL    HW3 1330   2.166   1.098   0.301 -0.6278  0.8786 -0.0641
  319SOL    MW4 1331   2.220   1.107   0.369 -0.3045 -0.1347 -0.1729
  320SOL     OW 1332   1.570   0.758   0.855 -0.2552 -0.3921 -0.0521
  320SOL    HW2 1333   1.644   0.807   0.817 -0.4838  0.4732  0.6080
  320SOL    HW3 1334   1.493   0.797   0.814 -0.3536 -1.2383 -0.6749
  320SOL    MW4 1335   1.570   0.770   0.844 -0.2984 -0.3896 -0.0472
  321SOL     OW 1336   1.304   1.150   0.855  0.0549 -0.0350 -0.3111
  321SOL    HW2 1337   1.376   1.195   0.812  0.1253  1.6645  1.5332
  321SOL    HW3 1338   1.225   1.192   0.822 -0.0135 -0.5784 -0.8473
  321SOL    MW4 1339   1.303   1.161   0.845  0.0551  0.1174 -0.1385
  322SOL     OW 1340   1.515   2.053   0.497  0.3959 -0.1372 -0.2916
  322SOL    HW2 1341   1.474   1.970   0.521 -1.3756  0.8240  0.1128
  322SOL    HW3 1342   1.445   2.102   0.453  1.5655  0.9431 -0.9634
  322SOL    MW4 1343   1.500   2.049   0.494  0.3167  0.1323 -0.3269
  323SOL     OW 1344   1.359   1.676   0.827 -0.0779 -0.0777 -0.0098
  323SOL    HW2 1345   1.370   1.770   0.845  0.3887  0.1661 -1.5287
  323SOL    HW3 1346   1.434   1.634   0.869  1.4101  0.5596 -1.9755
  323SOL    MW4 1347   1.370   1.683   0.835  0.1801  0.0386 -0.4695
  324SOL     OW 1348   2.336   1.954   0.500  0.0942 -0.2490  0.0364
  324SOL    HW2 1349   2.321   1.860   0.496 -0.1659 -0.1480 -1.4296
  324SOL    HW3 1350   2.249   1.992   0.493  0.1363  0.1080  1.2072
  324SOL    MW4 1351   2.323   1.947   0.499  0.0658 -0.1887 -0.0026
  325SOL     OW 1352   0.897   1.947   0.848  0.1084 -0.2545 -0.6000
  325SOL    HW2 1353   0.906   1.964   0.942 -0.7000 -1.1495 -0.3576
  325SOL    HW3 1354   0.983   1.969   0.811  0.6074 -0.4553  0.4321
  325SOL    MW4 1355   0.909   1.952   0.855  0.0677 -0.3991 -0.4319
  326SOL     OW 1356   0.320   3.245   0.510 -0.2097  0.0553  0.1245
  326SOL    HW2 1357   0.334   3.336   0.483 -1.4650  0.3998  0.5821
  326SOL    HW3 1358   0.360   3.239   0.597  1.0710 -0.2079 -0.4696
  326SOL    MW4 1359   0.327   3.256   0.518 -0.2063  0.0658  0.1065
  327SOL     OW 1360   1.813   1.758   0.547 -0.1845 -0.4488 -0.2215
  327SOL    HW2 1361   1.805   1.675   0.593  0.4275  0.2355  1.1764
  327SOL    HW3 1362   1.891   1.748   0.492  1.3767  0.0335  1.8341
  327SOL    MW4 1363   1.822   1.746   0.546  0.1023 -0.2949  0.2341
  328SOL     OW 1364   1.491   2.604   0.887 -0.2180  0.2996 -0.2691
  328SOL    HW2 1365   1.471   2.660   0.962 -0.5492 -0.4091  0.1746
  328SOL    HW3 1366   1.440   2.641   0.815 -1.4193 -0.1745  0.3273
  328SOL    MW4 1367   1.482   2.616   0.887 -0.4202  0.1435 -0.1318
  329SOL     OW 1368   2.326   2.508   0.425  0.0108 -0.3335 -0.1354
  329SOL    HW2 1369   2.292   2.598   0.427 -1.7770 -0.9896 -0.1218
  329SOL    HW3 1370   2.410   2.515   0.379  1.1914  1.7574  2.1917
  329SOL    MW4 1371   2.333   2.521   0.419 -0.0691 -0.1442  0.1734
  330SOL     OW 1372   1.576   2.886   0.661 -0.2546 -0.3233 -0.0951
  330SOL    HW2 1373   1.656   2.836   0.645  0.1505  0.4553 -0.5771
  330SOL    HW3 1374   1.507   2.821   0.668  0.2638 -0.9406 -0.7078
  330SOL    MW4 1375   1.578   2.871   0.660 -0.1329 -0.3021 -0.2395
  331SOL     OW 1376   1.587   3.139   0.786 -0.4627  0.4059  0.4666
  331SOL    HW2 1377   1.597   3.109   0.876 -1.8507  0.9559  0.8184
  331SOL    HW3 1378   1.584   3.058   0.734 -1.2823  0.0219  1.0966
  331SOL    MW4 1379   1.588   3.124   0.791 -0.7541  0.4277  0.5962
  332SOL     OW 1380   3.651   3.770   0.513  0.3539  0.4339  0.3737
  332SOL    HW2 1381   3.733   3.760   0.464 -0.1243  0.0442 -0.3589
  332SOL    HW3 1382   3.585   3.786   0.445 -0.1115  1.1497  0.9880
  332SOL    MW4 1383   3.653   3.771   0.498  0.2291  0.4771  0.3581
  333SOL     OW 1384   1.415   3.533   0.851  0.3812 -0.3013  0.2928
  333SOL    HW2 1385   1.485   3.573   0.799 -0.3299 -0.2714 -0.6498
  333SOL    HW3 1386   1.403   3.446   0.812  0.2598 -0.5079  0.7890
  333SOL    MW4 1387   1.423   3.527   0.839  0.2713 -0.3247  0.2339
  334SOL     OW 1388   1.812   3.286   0.122 -0.2208 -0.0922  0.5836
  334SOL    HW2 1389   1.829   3.231   0.198 -0.9844  0.2464  1.0066
  334SOL    HW3 1390   1.837   3.232   0.047  1.2270 -0.1626  1.1093
  334SOL    MW4 1391   1.817   3.272   0.122 -0.1304 -0.0567  0.7087
  335SOL     OW 1392   1.571   3.910   0.895  0.2825  0.4155 -0.4217
  335SOL    HW2 1393   1.583   3.829   0.845  1.0073  0.7813 -0.8487
  335SOL    HW3 1394   1.494   3.950   0.856 -1.4107 -1.1343  1.2386
  335SOL    MW4 1395   1.562   3.905   0.883  0.1550  0.2592 -0.2590
  336SOL     OW 1396   3.842   2.804   0.465  0.5967  0.4419  0.0327
  336SOL    HW2 1397   3.818   2.822   0.556 -0.0664 -0.1765 -0.0120
  336SOL    HW3 1398   3.766   2.832   0.414  0.3506 -0.6090 -0.1985
  336SOL    MW4 1399   3.829   2.810   0.470  0.4768  0.2217 -0.0037
  337SOL     OW 1400   1.410   4.327   0.862  0.5742  0.1708 -0.5138
  337SOL    HW2 1401   1.413   4.233   0.844  1.5174  0.0592  0.1925
  337SOL    HW3 1402   1.485   4.364   0.815  0.7356  0.4386 -0.0504
  337SOL    MW4 1403   1.420   4.320   0.853  0.7200  0.1922 -0.3595
  338SOL     OW 1404   0.162   2.144   0.509 -0.3859 -0.3297  0.0406
  338SOL    HW2 1405   0.234   2.148   0.446 -0.9572 -0.7004 -0.6353
  338SOL    HW3 1406   0.201   2.104   0.587  0.0046 -1.0330 -0.5111
  338SOL    MW4 1407   0.177   2.139   0.511 -0.4098 -0.4716 -0.1214
  339SOL     OW 1408   2.013   4.651   0.803 -0.2393 -0.1662  0.6568
  339SOL    HW2 1409   2.090   4.686   0.757  0.1992  0.1494  1.6340
  339SOL    HW3 1410   1.972   4.592   0.739  1.6835 -1.5547  0.6841
  339SOL    MW4 1411   2.018   4.648   0.788  0.0722 -0.3080  0.7893
  340SOL     OW 1412   1.775   0.146   0.770 -0.2660 -0.1375  0.0615
  340SOL    HW2 1413   1.853   0.101   0.803  1.7055  3.3266  0.3405
  340SOL    HW3 1414   1.702   0.104   0.816  1.5720 -2.1002  1.2824
  340SOL    MW4 1415   1.776   0.134   0.780  0.2366  0.0606  0.2593
  341SOL     OW 1416   1.792   0.413   0.839  0.2390  0.4086  0.0159
  341SOL    HW2 1417   1.780   0.321   0.814  0.5355 -0.2579  2.1510
  341SOL    HW3 1418   1.715   0.458   0.804  0.4354 -0.5265 -1.6430
  341SOL    MW4 1419   1.780   0.407   0.831  0.3040  0.1972  0.0787
  342SOL     OW 1420   2.051   0.466   0.758 -0.2240  0.0904 -0.4357
  342SOL    HW2 1421   2.061   0.455   0.664 -1.0120  0.3226 -0.5477
  342SOL    HW3 1422   1.958   0.452   0.775 -0.3354  1.3793  0.1159
  342SOL    MW4 1423   2.040   0.463   0.748 -0.3426  0.2911 -0.3777
  343SOL     OW 1424   3.350   4.361   0.527  0.0150 -0.0371  0.0053
  343SOL    HW2 1425   3.282   4.309   0.484  0.3456  0.1625 -0.7833
  343SOL    HW3 1426   3.359   4.438   0.471  1.7286 -0.6339 -0.5640
  343SOL    MW4 1427   3.342   4.364   0.514  0.2847 -0.0887 -0.1739
  344SOL     OW 1428   1.781   0.899   0.736 -0.0192  0.2577  0.2404
  344SOL    HW2 1429   1.863   0.871   0.777  0.6823  1.4299 -0.3566
  344SOL    HW3 1430   1.794   0.883   0.643 -1.0861 -1.0785  0.3175
  344SOL    MW4 1431   1.794   0.893   0.729 -0.0674  0.2360  0.1717
  345SOL     OW 1432   1.769   1.156   0.850  0.2778 -0.2277  0.4314
  345SOL    HW2 1433   1.847   1.191   0.807 -0.9321  1.3953 -0.4866
  345SOL    HW3 1434   1.764   1.065   0.822  0.5340  0.3175 -1.4029
  345SOL    MW4 1435   1.778   1.149   0.841  0.1519  0.0585  0.0682
  346SOL     OW 1436   2.038   1.205   0.799  0.5775 -0.0329  0.2196
  346SOL    HW2 1437   2.117   1.172   0.843  0.8579  2.0411  1.3600
  346SOL    HW3 1438   2.068   1.230   0.712  0.7019 -1.2685 -0.1030
  346SOL    MW4 1439   2.053   1.204   0.794  0.6311  0.0777  0.3274
  347SOL     OW 1440   1.986   1.701   0.341  0.0300 -0.1310  0.1768
  347SOL    HW2 1441   2.078   1.705   0.368 -0.3719 -0.5298  1.6540
  347SOL    HW3 1442   1.969   1.785   0.299  1.1084 -0.1143 -0.2337
  347SOL    MW4 1443   1.996   1.712   0.339  0.1193 -0.1813  0.3175
  348SOL     OW 1444   1.408   1.943   0.893  0.1625  0.0260 -0.0307
  348SOL    HW2 1445   1.471   2.010   0.867  0.4270 -0.3346 -0.3148
  348SOL    HW3 1446   1.419   1.935   0.988  0.0886  0.4214  0.0145
  348SOL    MW4 1447   1.418   1.951   0.902  0.1876  0.0306 -0.0623
  349SOL     OW 1448   1.954   1.939   0.711  0.1025  0.2987  0.6434
  349SOL    HW2 1449   1.895   1.874   0.672  1.0556 -0.3327  0.2118
  349SOL    HW3 1450   1.899   1.989   0.770 -0.7868 -0.5187  0.5273
  349SOL    MW4 1451   1.939   1.937   0.713  0.1110  0.1075  0.5711
  350SOL     OW 1452   1.536   1.214   0.458 -0.3763  0.1212  0.0656
  350SOL    HW2 1453   1.488   1.278   0.406 -2.0879 -1.4073 -0.2532
  350SOL    HW3 1454   1.469   1.158   0.496  1.1209 -2.0835 -0.4250
  350SOL    MW4 1455   1.521   1.215   0.456 -0.4046 -0.3713 -0.0412
  351SOL     OW 1456   1.922   2.332   0.928  0.3200 -0.1847  0.1001
  351SOL    HW2 1457   1.947   2.347   1.019 -0.4318 -0.1577  0.3069
  351SOL    HW3 1458   1.990   2.375   0.877  1.6136 -1.5234  0.6300
  351SOL    MW4 1459   1.934   2.339   0.934  0.3914 -0.3579  0.1974
  352SOL     OW 1460   1.147   3.891   0.408  0.1773  0.4477 -0.3003
  352SOL    HW2 1461   1.225   3.930   0.447 -0.4719  1.4224  0.0347
  352SOL    HW3 1462   1.108   3.962   0.358 -0.6909  0.0579 -0.1695
  352SOL    MW4 1463   1.152   3.905   0.407 -0.0230  0.5245 -0.2388
  353SOL     OW 1464   1.759   2.563   0.883  0.2780  0.3041 -0.4093
  353SOL    HW2 1465   1.778   2.481   0.928  1.1632  1.0366  0.5932
  353SOL    HW3 1466   1.664   2.573   0.889 -0.2052 -2.1598 -3.2398
  353SOL    MW4 1467   1.749   2.554   0.890  0.3310  0.0756 -0.6505
  354SOL     OW 1468   2.015   2.886   0.698 -0.1783  0.2046 -0.2962
  354SOL    HW2 1469   1.932   2.842   0.678  0.1288 -0.2591 -0.5407
  354SOL    HW3 1470   2.063   2.823   0.750 -0.8321  1.2594  1.6662
  354SOL    MW4 1471   2.010   2.872   0.702 -0.2239  0.2825 -0.0695
  355SOL     OW 1472   2.043   3.127   0.861  0.0508 -0.5774  0.1319
  355SOL    HW2 1473   2.029   3.042   0.820  1.2594 -0.4370 -0.5939
  355SOL    HW3 1474   1.981   3.185   0.817 -0.1304 -0.8855 -0.0170
  355SOL    MW4 1475   2.033   3.124   0.850  0.1862 -0.5991  0.0165
  356SOL     OW 1476   1.827   3.298   0.753  0.4530  0.8215 -0.2702
  356SOL    HW2 1477   1.750   3.241   0.766  0.7545  0.6364  0.8293
  356SOL    HW3 1478   1.820   3.328   0.663 -0.7045  0.4877 -0.3063
  356SOL    MW4 1479   1.816   3.294   0.743  0.3402  0.7529 -0.1298
  357SOL     OW 1480   1.816   3.527   0.891 -0.2464 -0.0472  0.4703
  357SOL    HW2 1481   1.821   3.510   0.985  1.9664 -0.9260  0.2363
  357SOL    HW3 1482   1.818   3.440   0.851  0.4864  0.3825 -0.4341
  357SOL    MW4 1483   1.817   3.514   0.898  0.1422 -0.1066  0.3201
  358SOL     OW 1484   2.035   3.668   0.766 -0.0179 -0.0922  0.3348
  358SOL    HW2 1485   2.042   3.761   0.786 -0.3921 -0.0761  0.3892
  358SOL    HW3 1486   1.963   3.637   0.821 -0.1431 -0.3309  0.0381
  358SOL    MW4 1487   2.026   3.676   0.776 -0.0839 -0.1218  0.3029
  359SOL     OW 1488   2.023   3.942   0.819  0.1030  0.5910  0.2220
  359SOL    HW2 1489   2.018   3.935   0.914 -1.3685 -0.5433  0.0795
  359SOL    HW3 1490   1.945   3.992   0.795  0.1194  0.3071 -0.4418
  359SOL    MW4 1491   2.012   3.948   0.828 -0.0892  0.4039  0.1157
  360SOL     OW 1492   1.771   4.039   0.776  0.2392 -0.6982  0.1003
  360SOL    HW2 1493   1.704   3.991   0.823 -0.1773 -1.2281 -1.0053
  360SOL    HW3 1494   1.750   4.024   0.683  0.7426  0.7284 -0.2478
  360SOL    MW4 1495   1.760   4.030   0.770  0.2508 -0.5803 -0.0914
  361SOL     OW 1496   1.810   4.314   0.868  0.1444 -0.2532  0.3444
  361SOL    HW2 1497   1.799   4.318   0.963  0.4931  0.2104  0.3681
  361SOL    HW3 1498   1.763   4.235   0.842 -2.5783  1.2448  0.5152
  361SOL    MW4 1499   1.802   4.304   0.877 -0.1689  0.0052  0.3700
  362SOL     OW 1500   1.357   2.683   0.668  0.1102 -0.6510  0.0422
  362SOL    HW2 1501   1.318   2.641   0.591 -1.6749 -1.4492  1.3661
  362SOL    HW3 1502   1.294   2.752   0.691  1.5267  0.7761 -0.2756
  362SOL    MW4 1503   1.343   2.687   0.661  0.0615 -0.5679  0.1749
  363SOL     OW 1504   2.481   4.667   0.810 -0.1622  0.4810  0.2120
  363SOL    HW2 1505   2.469   4.691   0.902  0.6797  1.7462 -0.0048
  363SOL    HW3 1506   2.570   4.695   0.789 -0.4630  0.5002 -1.0926
  363SOL    MW4 1507   2.491   4.674   0.819 -0.0908  0.6504  0.0113
  364SOL     OW 1508   1.359   1.397   0.311 -0.1826  0.1206  0.2666
  364SOL    HW2 1509   1.385   1.487   0.292  0.7436 -0.1522  0.2271
  364SOL    HW3 1510   1.267   1.392   0.283  0.0838  0.7495 -0.7529
  364SOL    MW4 1511   1.350   1.408   0.305 -0.0253  0.1676  0.1269
  365SOL     OW 1512   2.275   0.330   0.837 -0.0228  0.1655  0.0409
  365SOL    HW2 1513   2.255   0.248   0.791  0.2190 -0.8659  1.7394
  365SOL    HW3 1514   2.199   0.386   0.819  0.5144  0.1622 -2.4220
  365SOL    MW4 1515   2.262   0.326   0.829  0.0799  0.0290 -0.0600
  366SOL     OW 1516   2.724   1.098   0.393  0.0277 -0.2426  0.0075
  366SOL    HW2 1517   2.789   1.167   0.407 -0.0444  0.1727 -1.5391
  366SOL    HW3 1518   2.640   1.144   0.393 -0.1000 -0.4756 -0.0624
  366SOL    MW4 1519   2.721   1.113   0.395  0.0017 -0.2186 -0.2058
  367SOL     OW 1520   3.261   0.634   0.365  0.0820 -0.0734  0.8082
  367SOL    HW2 1521   3.267   0.715   0.416 -2.2044 -0.1057  1.2006
  367SOL    HW3 1522   3.168   0.613   0.365  0.4068 -1.6559 -0.9564
  367SOL    MW4 1523   3.250   0.642   0.372 -0.1769 -0.2864  0.6271
  368SOL     OW 1524   0.041   1.943   0.373 -0.2425  0.1338 -0.4201
  368SOL    HW2 1525   0.064   2.016   0.431 -1.1868  1.0591 -1.1914
  368SOL    HW3 1526  -0.021   1.981   0.311 -0.8084 -1.3532 -0.7720
  368SOL    MW4 1527   0.036   1.958   0.373 -0.4418  0.0597 -0.5683
  369SOL     OW 1528   2.266   1.102   0.870 -0.2883  0.3257  0.5786
  369SOL    HW2 1529   2.257   1.102   0.966 -0.6626 -0.3741  0.5412
  369SOL    HW3 1530   2.279   1.010   0.847 -2.2653  0.2448 -0.2473
  369SOL    MW4 1531   2.267   1.090   0.880 -0.5987  0.2227  0.4647
  370SOL     OW 1532   2.452   1.279   0.738 -0.0167  0.1356  0.1706
  370SOL    HW2 1533   2.385   1.224   0.777  0.5838 -0.0957  0.8826
  370SOL    HW3 1534   2.447   1.259   0.644 -0.3027 -0.5829  0.3338
  370SOL    MW4 1535   2.443   1.269   0.731  0.0248  0.0104  0.2861
  371SOL     OW 1536   2.456   1.536   0.838  0.2562  0.0394  0.3235
  371SOL    HW2 1537   2.480   1.447   0.814  1.6275  0.6485 -0.6250
  371SOL    HW3 1538   2.511   1.592   0.783  0.0293  1.4701  1.5094
  371SOL    MW4 1539   2.466   1.532   0.828  0.4075  0.3085  0.3549
  372SOL     OW 1540   2.223   1.548   0.707  0.4933  0.0143 -0.5312
  372SOL    HW2 1541   2.301   1.554   0.761  0.3359 -2.4224 -0.0040
  372SOL    HW3 1542   2.230   1.463   0.663 -1.1797  0.3676 -1.5435
  372SOL    MW4 1543   2.234   1.538   0.708  0.2518 -0.2606 -0.5953
  373SOL     OW 1544   2.144   1.834   0.857  0.0014 -0.3081 -0.3356
  373SOL    HW2 1545   2.147   1.746   0.818 -0.4810 -0.8927  0.9390
  373SOL    HW3 1546   2.069   1.876   0.815 -0.5544 -0.9547 -0.0039
  373SOL    MW4 1547   2.135   1.828   0.846 -0.1354 -0.4705 -0.1237
  374SOL     OW 1548   2.359   2.003   0.780  0.2624  0.2306  0.1849
  374SOL    HW2 1549   2.380   1.999   0.686  0.7436  1.0166  0.2529
  374SOL    HW3 1550   2.297   1.932   0.793  0.1644  0.1306 -0.7409
  374SOL    MW4 1551   2.354   1.993   0.769  0.3133  0.3210  0.0718
  375SOL     OW 1552   2.328   2.276   0.870  0.1306  0.1992 -0.0210
  375SOL    HW2 1553   2.318   2.185   0.842 -1.6055  0.3903 -0.0939
  375SOL    HW3 1554   2.386   2.315   0.805 -1.3951 -0.1440 -1.6368
  375SOL    MW4 1555   2.334   2.269   0.858 -0.2997  0.1793 -0.2438
  376SOL     OW 1556   3.082   1.936   0.648  0.2911  0.1993 -0.1762
  376SOL    HW2 1557   3.078   1.976   0.562  0.6841 -0.7352 -0.6358
  376SOL    HW3 1558   2.996   1.954   0.687  0.1367  0.6687 -0.7323
  376SOL    MW4 1559   3.070   1.944   0.642  0.3221  0.1378 -0.3102
  377SOL     OW 1560   2.214   2.725   0.834  0.2878 -0.1538 -0.1176
  377SOL    HW2 1561   2.226   2.716   0.928 -2.0318 -0.5858  0.1869
  377SOL    HW3 1562   2.185   2.638   0.805 -0.0917  0.2651 -1.0307
  377SOL    MW4 1563   2.211   2.712   0.842 -0.0679 -0.1557 -0.1979
  378SOL     OW 1564   2.442   2.852   0.739  0.2970 -0.2739  0.0016
  378SOL    HW2 1565   2.524   2.815   0.773 -0.4057 -0.5499  1.3892
  378SOL    HW3 1566   2.374   2.816   0.795 -0.5848  1.6547  0.2098
  378SOL    MW4 1567   2.444   2.842   0.751  0.0880 -0.0558  0.2120
  379SOL     OW 1568   2.468   3.115   0.846  0.6820 -0.3644 -0.0253
  379SOL    HW2 1569   2.490   3.105   0.939 -0.1392  1.0493  0.3253
  379SOL    HW3 1570   2.450   3.025   0.816  0.2425 -0.7406  1.3508
  379SOL    MW4 1571   2.469   3.102   0.854  0.5157 -0.2275  0.2025
  380SOL     OW 1572   2.258   3.302   0.795  0.1968  0.0899 -0.1901
  380SOL    HW2 1573   2.193   3.243   0.833 -0.7347  1.0541 -0.2315
  380SOL    HW3 1574   2.342   3.259   0.811 -0.4998 -1.5095 -0.7547
  380SOL    MW4 1575   2.260   3.289   0.802 -0.0179  0.0060 -0.2700
  381SOL     OW 1576   2.248   3.570   0.903  0.0837 -0.0494  0.1158
  381SOL    HW2 1577   2.245   3.477   0.879  0.2748  0.2265 -1.0100
  381SOL    HW3 1578   2.176   3.609   0.855  0.6575  0.5723 -0.2486
  381SOL    MW4 1579   2.238   3.563   0.894  0.1843  0.0691 -0.0808
  382SOL     OW 1580   1.645   0.156   0.193 -0.0405 -0.5410 -0.1211
  382SOL    HW2 1581   1.666   0.245   0.223 -2.6049  0.3456 -0.8290
  382SOL    HW3 1582   1.607   0.113   0.270 -0.3631 -0.4792 -0.2471
  382SOL    MW4 1583   1.643   0.162   0.207 -0.4214 -0.4159 -0.2311
  383SOL     OW 1584   2.959   3.379   0.577  0.1436 -0.0265 -0.3634
  383SOL    HW2 1585   3.027   3.420   0.523  1.0504 -1.3375 -0.2682
  383SOL    HW3 1586   3.009   3.327   0.642 -0.9291 -1.9517 -1.0318
  383SOL    MW4 1587   2.975   3.377   0.579  0.1214 -0.4532 -0.4390
  384SOL     OW 1588   0.181   1.295   0.509  0.3448  0.2179 -0.3010
  384SOL    HW2 1589   0.109   1.236   0.489  0.1269 -0.3702  2.0197
  384SOL    HW3 1590   0.146   1.382   0.494 -0.1646 -0.1502 -1.2472
  384SOL    MW4 1591   0.167   1.299   0.504  0.2488  0.0918 -0.1197
  385SOL     OW 1592   2.497   3.877   0.864 -0.0085  0.4157  0.4495
  385SOL    HW2 1593   2.491   3.791   0.824 -2.0518 -0.2129  2.0069
  385SOL    HW3 1594   2.422   3.925   0.830  1.8432  2.0715 -1.4377
  385SOL    MW4 1595   2.487   3.872   0.854 -0.0339  0.5512  0.4059
  386SOL     OW 1596   1.110   2.888   0.396  0.3682 -0.1374 -0.2170
  386SOL    HW2 1597   1.133   2.979   0.377  0.1303  0.0682  0.4645
  386SOL    HW3 1598   1.015   2.888   0.400  0.4290  0.1278  2.3638
  386SOL    MW4 1599   1.101   2.900   0.394  0.3448 -0.0753  0.2134
  387SOL     OW 1600   3.547   0.713   0.269 -0.0197  0.4284  0.1614
  387SOL    HW2 1601   3.459   0.680   0.286  1.1783 -2.2833  1.3794
  387SOL    HW3 1602   3.556   0.709   0.173 -0.8976 -0.1290  0.1012
  387SOL    MW4 1603   3.537   0.708   0.258  0.0224 -0.0029  0.3142
  388SOL     OW 1604   2.108   3.040   0.481 -0.3307  0.3650 -0.0489
  388SOL    HW2 1605   2.042   3.041   0.411 -1.2409  1.3176  0.8098
  388SOL    HW3 1606   2.062   3.004   0.557  0.0394  1.3552  0.6482
  388SOL    MW4 1607   2.093   3.035   0.481 -0.4020  0.6213  0.1564
  389SOL     OW 1608   3.232   0.159   0.515 -0.3370  0.2545  1.0289
  389SOL    HW2 1609   3.147   0.201   0.502  0.3816  0.8287 -2.3503
  389SOL    HW3 1610   3.296   0.231   0.506  0.7841 -1.1063 -2.6477
  389SOL    MW4 1611   3.229   0.174   0.512 -0.0947  0.1507  0.0980
  390SOL     OW 1612   2.569   3.906   0.390 -0.2338  0.0939  0.4790
  390SOL    HW2 1613   2.556   3.811   0.388 -2.5283  0.3550  1.2748
  390SOL    HW3 1614   2.527   3.938   0.310  0.4119  0.4616  0.2808
  390SOL    MW4 1615   2.562   3.898   0.379 -0.4513  0.1767  0.5579
  391SOL     OW 1616   3.159   0.882   0.742  0.0974  0.2397 -0.3314
  391SOL    HW2 1617   3.143   0.964   0.789 -0.8013  0.4682 -1.0115
  391SOL    HW3 1618   3.079   0.831   0.754  0.5025 -0.3856 -0.2416
  391SOL    MW4 1619   3.146   0.886   0.750  0.0324  0.1873 -0.4093
  392SOL     OW 1620   2.269   0.821   0.734  0.0887  0.5671 -0.1599
  392SOL    HW2 1621   2.351   0.771   0.746 -1.5962 -2.3327 -0.2062
  392SOL    HW3 1622   2.253   0.818   0.640 -0.9519 -0.3750  0.0373
  392SOL    MW4 1623   2.278   0.814   0.723 -0.2708  0.0602 -0.1400
  393SOL     OW 1624   2.934   1.280   0.445 -0.2514 -0.6783  0.6668
  393SOL    HW2 1625   2.923   1.280   0.540  0.4116 -0.6711  0.7487
  393SOL    HW3 1626   3.019   1.236   0.431  0.1098  0.1828  0.1340
  393SOL    MW4 1627   2.944   1.274   0.455 -0.1161 -0.5636  0.6073
  394SOL     OW 1628   2.637   1.701   0.710  0.1954 -0.1239  0.2818
  394SOL    HW2 1629   2.619   1.780   0.760 -0.1054 -0.2192  0.3221
  394SOL    HW3 1630   2.717   1.666   0.749  0.5694  0.3867 -0.0096
  394SOL    MW4 1631   2.646   1.707   0.722  0.2050 -0.0691  0.2487
  395SOL     OW 1632   3.051   1.668   0.601  1.1099 -0.4588  0.3109
  395SOL    HW2 1633   3.066   1.762   0.592  0.6968 -0.2134  2.1298
  395SOL    HW3 1634   3.005   1.644   0.520 -1.5666  1.5041  1.1865
  395SOL    MW4 1635   3.047   1.677   0.589  0.7021 -0.1674  0.6664
  396SOL     OW 1636   4.323   2.083   0.236 -0.6429 -0.2163 -0.4419
  396SOL    HW2 1637   4.260   2.053   0.170 -0.6008  0.0919 -0.6212
  396SOL    HW3 1638   4.269   2.107   0.312 -0.8085  0.8585 -0.8974
  396SOL    MW4 1639   4.308   2.082   0.237 -0.6595 -0.0336 -0.5257
  397SOL     OW 1640   2.615   1.939   0.855 -0.3219  0.0705  0.1997
  397SOL    HW2 1641   2.621   1.947   0.951 -1.6586 -0.6561  0.3588
  397SOL    HW3 1642   2.524   1.962   0.836 -0.2798 -0.6014 -0.8121
  397SOL    MW4 1643   2.604   1.943   0.865 -0.4928 -0.1138  0.0872
  398SOL     OW 1644   0.274   3.532   0.475 -0.0513 -0.5427 -0.0728
  398SOL    HW2 1645   0.210   3.579   0.422  2.0932  1.7146 -0.7818
  398SOL    HW3 1646   0.255   3.560   0.565 -0.5918 -0.5401 -0.1861
  398SOL    MW4 1647   0.263   3.542   0.480  0.1603 -0.2444 -0.1813
  399SOL     OW 1648   2.162   3.715   0.528  0.1257 -0.2019 -0.5721
  399SOL    HW2 1649   2.220   3.639   0.519  2.0729  0.8157  2.6733
  399SOL    HW3 1650   2.102   3.692   0.599 -1.6674 -0.1063 -2.0138
  399SOL    MW4 1651   2.162   3.702   0.536  0.1459 -0.0551 -0.3340
  400SOL     OW 1652   2.733   2.495   0.686 -0.4057 -0.0416 -0.4748
  400SOL    HW2 1653   2.694   2.556   0.748  1.5614  1.0890 -0.3037
  400SOL    HW3 1654   2.797   2.447   0.738  0.2974 -0.0255 -1.3188
  400SOL    MW4 1655   2.736   2.497   0.701 -0.0532  0.1097 -0.5635
  401SOL     OW 1656   2.642   2.690   0.856 -0.1180 -0.0272 -0.0508
  401SOL    HW2 1657   2.648   2.683   0.951 -0.1703  0.3871 -0.0155
  401SOL    HW3 1658   2.724   2.731   0.830  0.5910 -1.6060 -0.3441
  401SOL    MW4 1659   2.653   2.694   0.865 -0.0315 -0.1810 -0.0848
  402SOL     OW 1660   1.811   4.149   0.336 -0.4613  0.3542  0.1453
  402SOL    HW2 1661   1.775   4.238   0.332 -1.4209  0.0110  0.9099
  402SOL    HW3 1662   1.904   4.161   0.353 -0.5188  1.2189 -0.1336
  402SOL    MW4 1663   1.818   4.162   0.337 -0.5956  0.4230  0.2094
  403SOL     OW 1664   2.888   3.080   0.834  0.2615  0.2692  0.2918
  403SOL    HW2 1665   2.814   3.127   0.796 -0.0636  0.0774  0.6679
  403SOL    HW3 1666   2.885   2.993   0.793  0.8398  0.5702 -0.3775
  403SOL    MW4 1667   2.878   3.074   0.824  0.2949  0.2837  0.2532
  404SOL     OW 1668   2.692   3.232   0.710 -0.6044 -0.4356  0.1771
  404SOL    HW2 1669   2.687   3.318   0.753 -0.4563  0.4480 -1.5124
  404SOL    HW3 1670   2.613   3.186   0.738 -0.2750 -0.0636  1.7478
  404SOL    MW4 1671   2.681   3.238   0.719 -0.5414 -0.2701  0.1614
  405SOL     OW 1672   2.685   3.493   0.834  0.2504  0.2916 -0.4708
  405SOL    HW2 1673   2.691   3.468   0.926  0.3718 -2.1731 -1.0941
  405SOL    HW3 1674   2.772   3.526   0.812  0.9165 -1.2903 -0.2724
  405SOL    MW4 1675   2.697   3.494   0.843  0.3545 -0.2425 -0.5268
  406SOL     OW 1676   2.914   3.619   0.790 -1.0099  0.0772 -0.0863
  406SOL    HW2 1677   2.927   3.705   0.828  0.2419  0.6322 -1.6758
  406SOL    HW3 1678   2.913   3.634   0.695  2.4500 -1.9876 -0.5506
  406SOL    MW4 1679   2.916   3.632   0.782 -0.3879 -0.1221 -0.3573
  407SOL     OW 1680   2.922   3.866   0.893  0.5679  0.8672 -0.2799
  407SOL    HW2 1681   2.927   3.858   0.988  0.1236  0.6553 -0.2709
  407SOL    HW3 1682   2.844   3.919   0.878  0.2457  0.3192 -0.5492
  407SOL    MW4 1683   2.912   3.872   0.904  0.4668  0.7670 -0.3142
  408SOL     OW 1684   2.705   4.022   0.787  0.3698 -0.1545 -0.1014
  408SOL    HW2 1685   2.735   3.996   0.700 -0.3998 -0.6323 -0.2295
  408SOL    HW3 1686   2.641   3.955   0.811 -0.3723  0.6917  0.2849
  408SOL    MW4 1687   2.700   4.010   0.779  0.1705 -0.1059 -0.0673
  409SOL     OW 1688   2.684   4.282   0.887 -0.1665  0.0388  0.4421
  409SOL    HW2 1689   2.715   4.294   0.976 -1.0038  1.7871  0.5216
  409SOL    HW3 1690   2.688   4.188   0.873  1.4535 -0.1136  1.7722
  409SOL    MW4 1691   2.688   4.271   0.897 -0.0632  0.2489  0.6282
  410SOL     OW 1692   4.169   4.034   0.160  0.4400  0.0580  0.4843
  410SOL    HW2 1693   4.243   4.078   0.120 -0.4593  1.6880  0.5788
  410SOL    HW3 1694   4.200   4.009   0.247  0.8431  0.8626  0.5753
  410SOL    MW4 1695   4.183   4.036   0.167  0.3743  0.3791  0.5088
  411SOL     OW 1696   3.395   4.644   0.820 -0.3429 -0.3682 -0.0023
  411SOL    HW2 1697   3.398   4.635   0.915  2.7604  0.1111 -0.0170
  411SOL    HW3 1698   3.315   4.694   0.803 -0.5890  0.1117  2.4147
  411SOL    MW4 1699   3.385   4.650   0.830  0.0339 -0.2413  0.3147
  412SOL     OW 1700   2.820   3.959   0.538  0.6093 -0.0525  0.8417
  412SOL    HW2 1701   2.842   4.051   0.534  1.1008 -0.2326 -0.9546
  412SOL    HW3 1702   2.746   3.949   0.477  1.3119 -1.0434  0.1281
  412SOL    MW4 1703   2.813   3.970   0.529  0.7668 -0.2072  0.5106
  413SOL     OW 1704   3.143   4.166   0.491 -0.0665 -0.5293 -0.4506
  413SOL    HW2 1705   3.119   4.128   0.575 -0.5742  0.2814 -0.2218
  413SOL    HW3 1706   3.062   4.204   0.458  0.7987  1.9504  0.1715
  413SOL    MW4 1707   3.129   4.166   0.497 -0.0193 -0.0949 -0.3383
  414SOL     OW 1708   3.418   0.501   0.764  0.1732 -0.3358  0.0854
  414SOL    HW2 1709   3.408   0.483   0.671  2.0241 -0.2789 -0.1415
  414SOL    HW3 1710   3.417   0.597   0.770  1.2039 -0.3109 -0.0284
  414SOL    MW4 1711   3.417   0.511   0.753  0.5534 -0.3250  0.0404
  415SOL     OW 1712   3.390   0.761   0.824 -0.6464 -0.3609 -0.3208
  415SOL    HW2 1713   3.475   0.794   0.797 -0.4931 -0.4924 -0.0083
  415SOL    HW3 1714   3.327   0.809   0.770 -0.4297  0.4436  0.1280
  415SOL    MW4 1715   3.392   0.772   0.813 -0.5975 -0.2721 -0.2204
  416SOL     OW 1716   2.744   2.004   0.463  0.1848  0.1306  0.0030
  416SOL    HW2 1717   2.663   2.051   0.443  0.1087  0.3853  0.8887
  416SOL    HW3 1718   2.727   1.914   0.437 -0.1646  0.3094 -0.3917
  416SOL    MW4 1719   2.731   1.998   0.457  0.1287  0.1879  0.0677
  417SOL     OW 1720   2.903   1.279   0.734 -0.1757 -0.0914  0.0973
  417SOL    HW2 1721   2.822   1.247   0.774  0.2966  2.5939  3.3977
  417SOL    HW3 1722   2.972   1.228   0.776  0.1056  0.4299  0.2694
  417SOL    MW4 1723   2.901   1.268   0.745 -0.0763  0.3318  0.5555
  418SOL     OW 1724   3.294   1.245   0.693 -0.2051  0.1658  0.4659
  418SOL    HW2 1725   3.305   1.339   0.679 -0.7508  0.2676  0.7253
  418SOL    HW3 1726   3.379   1.217   0.728 -0.5119  0.8459  1.8212
  418SOL    MW4 1727   3.307   1.254   0.696 -0.3178  0.2691  0.6790
  419SOL     OW 1728   3.405   1.627   0.872  0.0665  0.5526  0.3394
  419SOL    HW2 1729   3.349   1.704   0.880  1.6256  1.5982  1.4801
  419SOL    HW3 1730   3.414   1.595   0.962 -0.5710 -0.9764 -0.1252
  419SOL    MW4 1731   3.399   1.633   0.885  0.1884  0.4888  0.4286
  420SOL     OW 1732   0.104   2.419   0.512  0.2416 -0.0596  0.3559
  420SOL    HW2 1733   0.026   2.431   0.457 -2.3041  0.5575  3.9047
  420SOL    HW3 1734   0.124   2.326   0.505 -0.0319  0.0060 -1.5672
  420SOL    MW4 1735   0.096   2.409   0.503 -0.1304  0.0303  0.5704
  421SOL     OW 1736   3.250   1.868   0.846  0.0374  0.0161  0.3454
  421SOL    HW2 1737   3.199   1.878   0.765  0.7278  0.9676  0.0217
  421SOL    HW3 1738   3.192   1.900   0.915 -0.7802 -1.3452  0.3249
  421SOL    MW4 1739   3.235   1.873   0.844  0.0207 -0.0380  0.3000
  422SOL     OW 1740   3.317   1.511   0.625  0.3732  0.6178 -0.0096
  422SOL    HW2 1741   3.357   1.549   0.703 -1.0753 -1.4068  1.7690
  422SOL    HW3 1742   3.231   1.552   0.619 -0.1265 -0.3773  0.3460
  422SOL    MW4 1743   3.311   1.521   0.634  0.1166  0.2193  0.2720
  423SOL     OW 1744   3.359   2.319   0.831 -0.1709  0.4766 -0.1965
  423SOL    HW2 1745   3.355   2.310   0.926 -1.7378  0.3580 -0.2680
  423SOL    HW3 1746   3.433   2.377   0.815  0.6039 -0.1525  1.0536
  423SOL    MW4 1747   3.368   2.325   0.841 -0.2754  0.3777 -0.0410
  424SOL     OW 1748   3.150   2.445   0.725 -0.0348  0.0870 -0.3638
  424SOL    HW2 1749   3.224   2.403   0.766 -0.0111  0.7747  0.3080
  424SOL    HW3 1750   3.073   2.401   0.761  0.0153  0.1323 -0.2008
  424SOL    MW4 1751   3.149   2.434   0.735 -0.0250  0.1838 -0.2536
  425SOL     OW 1752   3.359   2.858   0.724  0.0823  0.4872  0.0060
  425SOL    HW2 1753   3.435   2.822   0.771  0.0466  1.1484  0.5856
  425SOL    HW3 1754   3.380   2.845   0.632  0.3261 -0.4971  0.1914
  425SOL    MW4 1755   3.372   2.852   0.718  0.1097  0.4447  0.1069
  426SOL     OW 1756   3.625   2.932   0.342 -0.2282 -0.5643 -0.1439
  426SOL    HW2 1757   3.535   2.905   0.358 -0.3908  0.0290 -0.0693
  426SOL    HW3 1758   3.622   2.976   0.256 -0.5594  2.0684  1.1665
  426SOL    MW4 1759   3.613   2.934   0.332 -0.2933 -0.1388  0.0388
  427SOL     OW 1760   3.355   3.111   0.865  0.1735 -0.0382  0.4489
  427SOL    HW2 1761   3.371   3.093   0.957 -0.0263 -0.0637  0.4802
  427SOL    HW3 1762   3.352   3.025   0.824 -1.1198 -0.1028  0.6563
  427SOL    MW4 1763   3.357   3.097   0.872 -0.0234 -0.0501  0.4804
  428SOL     OW 1764   3.109   3.210   0.752  0.2497  0.4168  0.8121
  428SOL    HW2 1765   3.191   3.186   0.793  0.1679 -0.7107  0.3334
  428SOL    HW3 1766   3.043   3.157   0.797  0.3137 -1.7737 -1.5556
  428SOL    MW4 1767   3.111   3.200   0.763  0.2472 -0.0210  0.4365
  429SOL     OW 1768   3.132   3.455   0.870 -0.4485 -0.0842  0.0793
  429SOL    HW2 1769   3.128   3.379   0.813 -0.6997  0.3878 -0.5412
  429SOL    HW3 1770   3.055   3.507   0.846 -0.5364  0.1415  0.8164
  429SOL    MW4 1771   3.121   3.452   0.859 -0.4933  0.0079  0.0947
  430SOL     OW 1772   3.279   3.642   0.720 -0.5072  0.1850 -0.4415
  430SOL    HW2 1773   3.278   3.731   0.754  0.6223  0.2366 -0.5278
  430SOL    HW3 1774   3.240   3.589   0.790  1.0938  0.3968  0.6548
  430SOL    MW4 1775   3.274   3.647   0.734 -0.1469  0.2198 -0.3083
  431SOL     OW 1776   3.348   3.907   0.823  0.0475  0.0326  0.0981
  431SOL    HW2 1777   3.354   3.864   0.908 -1.5231  0.7271  0.5719
  431SOL    HW3 1778   3.439   3.917   0.795  0.4841 -2.6003  0.4550
  431SOL    MW4 1779   3.361   3.903   0.830 -0.1023 -0.2232  0.2077
  432SOL     OW 1780   3.098   4.041   0.763  0.3853  0.2452  0.5134
  432SOL    HW2 1781   3.182   4.004   0.788 -0.2085 -2.4454 -1.2157
  432SOL    HW3 1782   3.033   3.979   0.797 -0.8945  2.0475  1.4443
  432SOL    MW4 1783   3.100   4.028   0.770  0.1380  0.1278  0.4081
  433SOL     OW 1784   3.093   4.306   0.861 -0.2852  0.4555  0.4046
  433SOL    HW2 1785   3.183   4.336   0.858  0.0534 -0.5660  0.3031
  433SOL    HW3 1786   3.094   4.220   0.819 -1.3863  0.6413 -0.0316
  433SOL    MW4 1787   3.105   4.299   0.855 -0.3858  0.3452  0.3336
  434SOL     OW 1788   3.348   4.377   0.800 -0.3447 -0.2103  0.3066
  434SOL    HW2 1789   3.333   4.355   0.709 -0.7342 -1.0170  0.5627
  434SOL    HW3 1790   3.377   4.468   0.798  1.0633 -0.6593 -0.7364
  434SOL    MW4 1791   3.350   4.386   0.788 -0.2103 -0.3757  0.2028
  435SOL     OW 1792   3.814   0.008   0.848 -0.3233 -0.3940  0.0008
  435SOL    HW2 1793   3.745   0.041   0.790  1.0807  1.6176 -0.6003
  435SOL    HW3 1794   3.895   0.040   0.808  0.8235 -1.0599  1.7583
  435SOL    MW4 1795   3.816   0.017   0.835  0.0131 -0.2164  0.1534
  436SOL     OW 1796   3.616   0.126   0.705  0.1847 -0.4441  0.3528
  436SOL    HW2 1797   3.632   0.192   0.773 -0.7744 -0.5697  0.7029
  436SOL    HW3 1798   3.545   0.073   0.740 -1.1327  0.2238 -1.2836
  436SOL    MW4 1799   3.609   0.128   0.719 -0.1156 -0.3726  0.1832
  437SOL     OW 1800   3.176   0.396   0.862  0.4429 -0.1622 -0.4505
  437SOL    HW2 1801   3.264   0.423   0.836  0.3048  0.4777 -0.2748
  437SOL    HW3 1802   3.173   0.413   0.956 -0.4867  1.5917 -0.7763
  437SOL    MW4 1803   3.187   0.402   0.871  0.3018  0.1536 -0.4703
  438SOL     OW 1804   4.047   0.083   0.447 -0.5347  0.0378  0.1981
  438SOL    HW2 1805   4.127   0.041   0.416  0.2794  1.5167  0.2768
  438SOL    HW3 1806   3.980   0.059   0.382  0.3994  0.3663 -0.8978
  438SOL    MW4 1807   4.049   0.074   0.434 -0.3037  0.2763  0.0639
  439SOL     OW 1808   4.308   0.492   0.740  0.5926 -0.6248 -0.0382
  439SOL    HW2 1809   4.284   0.584   0.754  0.2424 -0.7571  0.2342
  439SOL    HW3 1810   4.390   0.482   0.789  0.7373 -0.4051 -0.2343
  439SOL    MW4 1811   4.316   0.503   0.748  0.5651 -0.6133 -0.0281
  440SOL     OW 1812   3.825   0.760   0.839 -0.2667 -0.1061 -0.3000
  440SOL    HW2 1813   3.824   0.780   0.932 -0.5701  0.5600 -0.4413
  440SOL    HW3 1814   3.744   0.798   0.805 -1.4220 -2.5939 -0.3934
  440SOL    MW4 1815   3.814   0.768   0.847 -0.4592 -0.3464 -0.3310
  441SOL     OW 1816   4.092   0.370   0.399 -0.0094 -0.1277 -0.3774
  441SOL    HW2 1817   4.182   0.389   0.425  0.2371  0.9553 -1.9119
  441SOL    HW3 1818   4.084   0.275   0.404  1.1153 -0.1971  0.1231
  441SOL    MW4 1819   4.103   0.360   0.403  0.1717  0.0060 -0.5138
  442SOL     OW 1820   2.979   0.288   0.515 -0.3340 -0.2137  0.0491
  442SOL    HW2 1821   2.991   0.348   0.441 -0.2642 -1.1102 -0.6646
  442SOL    HW3 1822   2.959   0.346   0.589 -2.0513  0.5781 -1.0108
  442SOL    MW4 1823   2.978   0.304   0.515 -0.5515 -0.2276 -0.1849
  443SOL     OW 1824   3.831   1.530   0.880  0.3371  0.0745 -0.2379
  443SOL    HW2 1825   3.919   1.541   0.844  1.1211 -2.1568  0.9275
  443SOL    HW3 1826   3.793   1.459   0.828 -0.2498  0.0406  0.2337
  443SOL    MW4 1827   3.838   1.522   0.868  0.3633 -0.2244 -0.0219
  444SOL     OW 1828   3.640   1.702   0.741 -0.1362 -0.0612  0.0848
  444SOL    HW2 1829   3.716   1.662   0.782 -0.2700 -1.5090 -1.0618
  444SOL    HW3 1830   3.566   1.671   0.793 -0.1882 -0.8719 -0.4663
  444SOL    MW4 1831   3.640   1.693   0.754 -0.1609 -0.3593 -0.1392
  445SOL     OW 1832   4.278   2.028   0.709  0.5272  0.0832  0.1305
  445SOL    HW2 1833   4.233   2.055   0.629 -1.2847 -0.0777  1.0562
  445SOL    HW3 1834   4.208   1.993   0.765  2.0236 -1.4502  1.0815
  445SOL    MW4 1835   4.263   2.027   0.706  0.4859 -0.1402  0.3781
  446SOL     OW 1836   0.433   3.226   0.751 -0.5052 -0.0047  0.5663
  446SOL    HW2 1837   0.382   3.166   0.805  0.8097 -0.0766  1.7744
  446SOL    HW3 1838   0.433   3.308   0.801  1.2356 -0.2486  1.0256
  446SOL    MW4 1839   0.426   3.229   0.765 -0.1020 -0.0463  0.7862
  447SOL     OW 1840   3.409   2.063   0.728 -0.5000  0.1565 -0.7033
  447SOL    HW2 1841   3.386   2.154   0.748 -2.3928 -0.2236 -1.1040
  447SOL    HW3 1842   3.335   2.011   0.760  0.8597 -1.3269  0.1459
  447SOL    MW4 1843   3.396   2.068   0.735 -0.5703 -0.0894 -0.6441
  448SOL     OW 1844   3.812   2.329   0.822  0.2103 -0.0148 -0.2234
  448SOL    HW2 1845   3.844   2.239   0.811  1.4557  0.4629 -0.5780
  448SOL    HW3 1846   3.787   2.334   0.914  0.1075 -0.7365 -0.2065
  448SOL    MW4 1847   3.813   2.318   0.833  0.3612 -0.0470 -0.2680
  449SOL     OW 1848   3.586   2.724   0.825  0.3337  0.3644 -0.0730
  449SOL    HW2 1849   3.587   2.717   0.920  2.7284  1.9086  0.0457
  449SOL    HW3 1850   3.670   2.764   0.802  0.0339 -0.4793 -2.8811
  449SOL    MW4 1851   3.597   2.728   0.834  0.6101  0.4566 -0.4278
  450SOL     OW 1852   2.143   1.311   0.566 -0.3471  0.0343  0.2122
  450SOL    HW2 1853   2.077   1.359   0.516  0.8078  0.4740 -0.9252
  450SOL    HW3 1854   2.168   1.238   0.509  0.4619  0.1172  0.4523
  450SOL    MW4 1855   2.138   1.307   0.552 -0.0882  0.1034  0.0939
  451SOL     OW 1856   4.072   2.684   0.859 -0.0084 -0.3841  0.4657
  451SOL    HW2 1857   4.140   2.728   0.808  1.4125 -0.7164  2.0419
  451SOL    HW3 1858   4.058   2.601   0.814 -0.6384  0.4226 -0.8634
  451SOL    MW4 1859   4.079   2.679   0.847  0.0958 -0.3214  0.4983
  452SOL     OW 1860   3.634   1.769   0.455  0.2434 -0.4921 -0.0552
  452SOL    HW2 1861   3.607   1.688   0.412 -0.1080 -0.8579  0.8539
  452SOL    HW3 1862   3.643   1.745   0.547  1.7149  0.1087 -0.0315
  452SOL    MW4 1863   3.632   1.755   0.461  0.3912 -0.4611  0.0679
  453SOL     OW 1864   3.623   3.449   0.826 -0.2939  0.5494 -0.2135
  453SOL    HW2 1865   3.610   3.355   0.811 -0.9619  0.7169 -0.6920
  453SOL    HW3 1866   3.574   3.492   0.756  2.0085  1.2214 -1.4335
  453SOL    MW4 1867   3.615   3.442   0.815 -0.0784  0.6602 -0.4376
  454SOL     OW 1868   0.545   4.485   0.401  0.1642 -0.2599  0.2777
  454SOL    HW2 1869   0.634   4.488   0.436 -0.3786  2.6589  1.5245
  454SOL    HW3 1870   0.557   4.482   0.306  1.5940  0.2441  0.4318
  454SOL    MW4 1871   0.558   4.485   0.393  0.2812  0.1917  0.4624
  455SOL     OW 1872   3.833   3.830   0.851 -0.5770  0.0270  0.1951
  455SOL    HW2 1873   3.765   3.869   0.796 -0.5034  0.2612  0.2702
  455SOL    HW3 1874   3.858   3.750   0.804  0.6244  1.0466 -0.9579
  455SOL    MW4 1875   3.827   3.825   0.838 -0.4086  0.1926  0.0529
  456SOL     OW 1876   3.611   3.978   0.734  0.0396  0.2568  0.5383
  456SOL    HW2 1877   3.585   4.003   0.645  2.2555  0.3866 -0.1065
  456SOL    HW3 1878   3.614   4.061   0.782  1.7416  0.5659 -0.0716
  456SOL    MW4 1879   3.608   3.992   0.728  0.5565  0.3147  0.3728
  457SOL     OW 1880   3.803   4.415   0.739  0.1609 -0.2888 -0.0120
  457SOL    HW2 1881   3.868   4.374   0.796 -0.3317 -0.1770  0.6445
  457SOL    HW3 1882   3.779   4.496   0.785  1.3924  0.9175 -1.4796
  457SOL    MW4 1883   3.808   4.420   0.753  0.2582 -0.1149 -0.1191
  458SOL     OW 1884   4.071   0.082   0.746 -0.2745  0.6534 -0.0680
  458SOL    HW2 1885   4.065   0.171   0.781  0.2570  0.6478  0.0469
  458SOL    HW3 1886   4.060   0.093   0.651  1.2418  1.0215 -0.2166
  458SOL    MW4 1887   4.069   0.096   0.738 -0.0048  0.7012 -0.0724
  459SOL     OW 1888   4.307   4.646   0.830 -0.4362 -0.2830 -0.1490
  459SOL    HW2 1889   4.301   4.631   0.925 -0.1396  1.0725  0.0897
  459SOL    HW3 1890   4.222   4.683   0.806  0.4688  1.9930  0.0854
  459SOL    MW4 1891   4.295   4.649   0.839 -0.2775  0.1965 -0.0866
  460SOL     OW 1892   4.073   0.342   0.821  0.2389 -0.1948  0.3901
  460SOL    HW2 1893   3.997   0.395   0.797  0.2082  0.2597  1.5180
  460SOL    HW3 1894   4.149   0.393   0.793  0.1917  0.2183  1.0116
  460SOL    MW4 1895   4.073   0.356   0.814  0.2289 -0.0804  0.6208
  461SOL     OW 1896   0.000   0.166   0.521  0.1309  0.3140  0.2782
  461SOL    HW2 1897   0.010   0.156   0.616 -0.8564 -1.6423  0.2074
  461SOL    HW3 1898  -0.063   0.099   0.497  0.2285  0.9263 -1.7534
  461SOL    MW4 1899  -0.007   0.156   0.530  0.0134  0.1367  0.0008
  462SOL     OW 1900   3.620   0.353   0.872  0.1550  0.1228 -0.0222
  462SOL    HW2 1901   3.560   0.416   0.833 -0.7166 -0.5512  0.2203
  462SOL    HW3 1902   3.610   0.365   0.967  0.6241  0.2074  0.0203
  462SOL    MW4 1903   3.611   0.363   0.879  0.1023  0.0450  0.0154
  463SOL     OW 1904   4.015   1.012   0.506  0.2147 -0.6693  0.2475
  463SOL    HW2 1905   4.016   0.971   0.592 -1.0758 -0.7188  0.2454
  463SOL    HW3 1906   4.010   0.939   0.445  0.1365 -0.5934  0.1641
  463SOL    MW4 1907   4.014   0.997   0.509  0.0343 -0.6657  0.2363
  464SOL     OW 1908   2.816   2.541   0.425  0.3822 -0.0856 -0.6716
  464SOL    HW2 1909   2.789   2.530   0.517 -0.8662  1.9568 -0.7618
  464SOL    HW3 1910   2.902   2.499   0.420 -0.3000 -1.7670  1.0057
  464SOL    MW4 1911   2.823   2.534   0.437  0.1276 -0.0377 -0.4622
  465SOL     OW 1912   0.083   1.568   0.510  0.3167 -0.0419 -0.2814
  465SOL    HW2 1913   0.021   1.634   0.479 -0.1390  0.9629  2.5623
  465SOL    HW3 1914   0.165   1.589   0.466 -0.3983  1.0224 -1.1279
  465SOL    MW4 1915   0.086   1.579   0.500  0.1622  0.2310 -0.0179
  466SOL     OW 1916   3.533   1.140   0.789 -0.1772  0.1892 -0.4677
  466SOL    HW2 1917   3.544   1.137   0.884 -0.6720 -0.2462 -0.4204
  466SOL    HW3 1918   3.593   1.209   0.760 -1.2607  1.5056  0.3477
  466SOL    MW4 1919   3.542   1.149   0.798 -0.3855  0.3054 -0.3539
  467SOL     OW 1920   4.321   1.554   0.866  0.1798  0.4217 -0.5955
  467SOL    HW2 1921   4.319   1.552   0.961 -1.5740 -1.0398 -0.6201
  467SOL    HW3 1922   4.403   1.598   0.844 -0.1409  2.2030  1.5754
  467SOL    MW4 1923   4.331   1.559   0.875 -0.0939  0.4640 -0.3124
  468SOL     OW 1924   3.349   2.254   0.398  0.2109  0.1273  0.4906
  468SOL    HW2 1925   3.354   2.162   0.424 -2.1178  0.2713  1.6069
  468SOL    HW3 1926   3.440   2.283   0.393  0.9197 -1.6535  2.3662
  468SOL    MW4 1927   3.362   2.246   0.401 -0.0031 -0.0887  0.8854
  469SOL     OW 1928   3.637   1.966   0.820  0.3190 -0.4139  0.2518
  469SOL    HW2 1929   3.637   1.875   0.788  0.9902 -0.8031  1.3172
  469SOL    HW3 1930   3.558   2.004   0.783  0.4789 -1.1890 -0.9120
  469SOL    MW4 1931   3.627   1.959   0.811  0.4289 -0.5674  0.2388
  470SOL     OW 1932   4.106   3.939   0.487 -0.3365  0.0798  0.2448
  470SOL    HW2 1933   4.046   3.954   0.414 -0.1753  0.8718  0.2767
  470SOL    HW3 1934   4.176   4.004   0.475  0.8283 -1.2047 -0.1319
  470SOL    MW4 1935   4.108   3.949   0.476 -0.1616  0.0148  0.1993
  471SOL     OW 1936   0.365   1.631   0.426  0.2745  0.0469  0.1218
  471SOL    HW2 1937   0.391   1.647   0.517  0.5242 -1.0342  0.2469
  471SOL    HW3 1938   0.432   1.572   0.392 -0.5122 -0.5650 -0.3763
  471SOL    MW4 1939   0.377   1.625   0.434  0.2036 -0.1765  0.0726
  472SOL     OW 1940   3.773   1.129   0.376 -0.4008  0.1474  0.3749
  472SOL    HW2 1941   3.850   1.092   0.417 -0.3653 -1.7339 -1.2840
  472SOL    HW3 1942   3.700   1.077   0.410 -0.8580  1.4316  1.3746
  472SOL    MW4 1943   3.773   1.117   0.386 -0.4566  0.0685  0.2880
  473SOL     OW 1944   3.840   2.817   0.755 -0.0989  0.4310  0.0668
  473SOL    HW2 1945   3.832   2.907   0.786 -1.2669  0.2930  0.2012
  473SOL    HW3 1946   3.913   2.781   0.804  0.4475  1.3360 -0.0686
  473SOL    MW4 1947   3.849   2.824   0.765 -0.1807  0.5322  0.0668
  474SOL     OW 1948   2.513   2.179   0.440 -0.3026  0.1397  0.3211
  474SOL    HW2 1949   2.512   2.227   0.523 -1.6898  0.2240  0.2591
  474SOL    HW3 1950   2.452   2.107   0.453 -0.1204 -0.1575 -0.4493
  474SOL    MW4 1951   2.505   2.176   0.452 -0.4613  0.1118  0.2113
  475SOL     OW 1952   4.285   3.082   0.849 -0.1664 -0.7356  0.0437
  475SOL    HW2 1953   4.274   2.988   0.833 -0.5165 -0.3234 -2.1714
  475SOL    HW3 1954   4.208   3.123   0.809  0.4093  0.5741  0.2462
  475SOL    MW4 1955   4.273   3.075   0.842 -0.1369 -0.5085 -0.2218
  476SOL     OW 1956   4.111   3.442   0.803  0.3339 -0.2836  0.1270
  476SOL    HW2 1957   4.115   3.466   0.895  0.1333  1.8551 -0.3842
  476SOL    HW3 1958   4.180   3.494   0.762 -0.0128 -0.7179 -1.0142
  476SOL    MW4 1959   4.120   3.452   0.810  0.2618 -0.0587 -0.0910
  477SOL     OW 1960   4.048   3.172   0.748  0.1122  0.1840  0.2540
  477SOL    HW2 1961   4.046   3.148   0.656 -1.9508  0.5672  0.1650
  477SOL    HW3 1962   4.052   3.268   0.748  0.6140  0.1664  0.5676
  477SOL    MW4 1963   4.048   3.181   0.736 -0.0939  0.2322  0.2837
  478SOL     OW 1964   4.302   3.618   0.729  0.1140 -0.4429 -0.1093
  478SOL    HW2 1965   4.303   3.703   0.773 -1.0736 -0.3470 -0.2379
  478SOL    HW3 1966   4.309   3.639   0.636  1.3630 -0.5755 -0.0489
  478SOL    MW4 1967   4.303   3.632   0.723  0.1221 -0.4475 -0.1184
  479SOL     OW 1968   4.287   3.857   0.851  0.3817 -0.0335  0.5002
  479SOL    HW2 1969   4.275   3.867   0.946 -0.0374 -0.9132  0.5450
  479SOL    HW3 1970   4.214   3.906   0.813  0.5694  0.3505  0.6272
  479SOL    MW4 1971   4.276   3.865   0.859  0.3510 -0.0987  0.5229
  480SOL     OW 1972   4.072   3.979   0.746  0.9920 -0.2421  0.2822
  480SOL    HW2 1973   4.011   3.912   0.777  1.9894 -0.7103  1.2583
  480SOL    HW3 1974   4.084   3.959   0.653 -0.2144 -0.2393  0.1174
  480SOL    MW4 1975   4.066   3.968   0.738  0.9646 -0.3035  0.3892
  481SOL     OW 1976   4.026   4.252   0.816 -0.1051  0.4209  0.5565
  481SOL    HW2 1977   4.101   4.309   0.802 -1.2465  1.8980  0.2544
  481SOL    HW3 1978   4.050   4.169   0.775  0.6410  1.4611 -1.1710
  481SOL    MW4 1979   4.039   4.249   0.809 -0.1578  0.7529  0.2887
  482SOL     OW 1980   4.279   4.384   0.786  0.6717  0.3782 -0.2930
  482SOL    HW2 1981   4.292   4.479   0.784  0.0987  0.5004  1.2099
  482SOL    HW3 1982   4.357   4.349   0.829 -0.0546  0.3739  1.0685
  482SOL    MW4 1983   4.291   4.392   0.792  0.5002  0.3939  0.0850
  483SOL     OW 1984   0.254   4.636   1.126  0.3279  0.3272  0.1298
  483SOL    HW2 1985   0.333   4.671   1.167  0.3285  0.2103  0.2268
  483SOL    HW3 1986   0.271   4.642   1.032  0.8155 -0.5519  0.1676
  483SOL    MW4 1987   0.267   4.642   1.119  0.3923  0.1960  0.1476
  484SOL     OW 1988   0.016   0.140   1.180 -0.1951  0.0538  0.6495
  484SOL    HW2 1989  -0.058   0.089   1.148 -0.2306  0.1610  0.5621
  484SOL    HW3 1990   0.092   0.085   1.162 -0.1101  0.5582 -0.5739
  484SOL    MW4 1991   0.016   0.126   1.173 -0.1886  0.1345  0.4765
  485SOL     OW 1992   4.483   0.430   1.127 -0.1425 -0.0477  0.0492
  485SOL    HW2 1993   4.403   0.480   1.146 -0.0076 -0.0863  0.7259
  485SOL    HW3 1994   4.461   0.340   1.151 -0.0564 -0.1388 -0.2178
  485SOL    MW4 1995   4.469   0.424   1.133 -0.1130 -0.0648  0.1032
  486SOL     OW 1996   0.240   0.518   1.187 -0.2305  0.0882  0.3564
  486SOL    HW2 1997   0.237   0.613   1.172 -1.4304  0.0359  0.1556
  486SOL    HW3 1998   0.149   0.490   1.177  0.2074 -1.1863 -0.2176
  486SOL    MW4 1999   0.227   0.527   1.183 -0.3310 -0.0869  0.2542
  487SOL     OW 2000   0.207   0.777   1.104  0.2510  0.2532  0.4152
  487SOL    HW2 2001   0.286   0.808   1.147  0.3393  1.4130 -0.5741
  487SOL    HW3 2002   0.136   0.824   1.148  0.4281  2.3708 -1.4921
  487SOL    MW4 2003   0.208   0.787   1.116  0.2860  0.6856  0.0329
  488SOL     OW 2004   4.481   0.907   1.248  0.1897 -0.1253  0.6680
  488SOL    HW2 2005   4.470   0.905   1.343  1.0998 -0.8290  0.7621
  488SOL    HW3 2006   4.400   0.867   1.214  0.5402 -1.3265  1.2089
  488SOL    MW4 2007   4.469   0.901   1.256  0.3567 -0.3767  0.7517
  489SOL     OW 2008   0.009   1.148   1.114  0.1890  0.4482  0.1559
  489SOL    HW2 2009  -0.064   1.202   1.143  0.3971  0.4472  0.7022
  489SOL    HW3 2010  -0.003   1.065   1.160  0.1131  0.1834 -0.3429
  489SOL    MW4 2011  -0.002   1.144   1.124  0.2064  0.4131  0.1621
  490SOL     OW 2012   0.238   1.287   1.234 -0.1450 -0.0090 -0.1367
  490SOL    HW2 2013   0.316   1.250   1.192 -0.1450  0.1533 -0.2829
  490SOL    HW3 2014   0.165   1.238   1.196 -0.0754 -0.5073  0.3829
  490SOL    MW4 2015   0.239   1.276   1.223 -0.1358 -0.0534 -0.0874
  491SOL     OW 2016   0.245   1.554   1.191 -0.0276  0.1174  0.3951
  491SOL    HW2 2017   0.251   1.461   1.212  1.7387  0.2037  0.3470
  491SOL    HW3 2018   0.239   1.557   1.095 -0.6572  0.0423  0.4277
  491SOL    MW4 2019   0.245   1.542   1.181  0.1224  0.1190  0.3929
  492SOL     OW 2020   0.005   1.666   1.274  0.2833  0.5934  0.0425
  492SOL    HW2 2021   0.020   1.755   1.242  0.7271  0.7670  0.7242
  492SOL    HW3 2022   0.082   1.616   1.245  0.9951  0.9006  1.3775
  492SOL    MW4 2023   0.017   1.671   1.266  0.4358  0.6568  0.3086
  493SOL     OW 2024   0.025   1.931   1.116  0.0620  0.0339  0.1169
  493SOL    HW2 2025  -0.030   2.000   1.155 -0.6646 -0.7395  0.4706
  493SOL    HW3 2026   0.017   1.946   1.022  0.7287  1.0636  0.2164
  493SOL    MW4 2027   0.017   1.942   1.109  0.0544  0.0677  0.1768
  494SOL     OW 2028   0.258   2.061   1.217  0.5401  0.1801  0.1780
  494SOL    HW2 2029   0.240   2.152   1.193 -0.2800  0.0145  0.1723
  494SOL    HW3 2030   0.179   2.014   1.194  0.8206 -0.4744  0.5504
  494SOL    MW4 2031   0.246   2.067   1.211  0.4690  0.0718  0.2263
  495SOL     OW 2032   0.234   2.326   1.152 -0.0485  0.3067 -0.0482
  495SOL    HW2 2033   0.309   2.367   1.195 -0.3554  0.8747 -0.0499
  495SOL    HW3 2034   0.157   2.367   1.193 -0.3823 -0.9600  0.6432
  495SOL    MW4 2035   0.234   2.337   1.163 -0.1331  0.2146  0.0429
  496SOL     OW 2036   4.487   2.451   1.237 -0.1332  0.1428  0.4467
  496SOL    HW2 2037   4.464   2.454   1.329  0.9729 -0.7058  0.7635
  496SOL    HW3 2038   4.407   2.423   1.193 -0.4208 -0.2913  1.2375
  496SOL    MW4 2039   4.473   2.448   1.243 -0.0248 -0.0267  0.5928
  497SOL     OW 2040   0.029   2.706   1.147 -0.0306  0.4129 -0.0198
  497SOL    HW2 2041  -0.043   2.746   1.196 -0.7063 -0.7201 -0.0843
  497SOL    HW3 2042   0.038   2.619   1.185 -1.2693 -0.8977 -2.6130
  497SOL    MW4 2043   0.021   2.700   1.159 -0.2832  0.0906 -0.3705
  498SOL     OW 2044   0.216   2.872   1.237  0.0926 -0.0483 -0.1052
  498SOL    HW2 2045   0.234   2.846   1.328  0.0202 -0.3682 -0.1815
  498SOL    HW3 2046   0.147   2.812   1.209  1.5177 -1.3061 -1.0390
  498SOL    MW4 2047   0.209   2.860   1.245  0.2711 -0.2565 -0.2385
  499SOL     OW 2048   0.271   3.119   1.148 -0.1130 -0.1787  0.5042
  499SOL    HW2 2049   0.358   3.135   1.185 -0.4980 -0.0964  1.3906
  499SOL    HW3 2050   0.241   3.038   1.190 -0.7459  0.1643  0.7261
  499SOL    MW4 2051   0.278   3.110   1.158 -0.2473 -0.1225  0.6504
  500SOL     OW 2052   0.051   3.265   1.221 -0.1310  0.1851 -0.4136
  500SOL    HW2 2053  -0.012   3.208   1.177  0.9190 -0.3524 -1.2493
  500SOL    HW3 2054   0.136   3.232   1.193  0.5020  2.7563 -1.6811
  500SOL    MW4 2055   0.054   3.253   1.211  0.0911  0.4537 -0.6912
  501SOL     OW 2056   0.030   3.519   1.125 -0.0988 -0.2286 -0.4282
  501SOL    HW2 2057   0.024   3.426   1.148 -0.6250 -0.2594 -0.6785
  501SOL    HW3 2058   0.032   3.519   1.029 -2.6119  0.1492 -0.5112
  501SOL    MW4 2059   0.030   3.507   1.115 -0.4998 -0.1829 -0.4722
  502SOL     OW 2060   0.268   3.637   1.236  1.1488 -0.1944  0.1537
  502SOL    HW2 2061   0.275   3.628   1.331 -0.1127 -2.0670  0.0889
  502SOL    HW3 2062   0.180   3.607   1.215  1.5427 -0.1724 -1.6530
  502SOL    MW4 2063   0.258   3.632   1.246  1.0344 -0.4389 -0.0932
  503SOL     OW 2064   0.263   3.892   1.098  0.3857  0.2561  0.1820
  503SOL    HW2 2065   0.171   3.908   1.118  0.1493 -0.1996 -0.4881
  503SOL    HW3 2066   0.285   3.813   1.147 -0.2320 -0.9406 -1.4146
  503SOL    MW4 2067   0.254   3.884   1.107  0.2730  0.0381 -0.1169
  504SOL     OW 2068   0.020   3.982   1.189  0.8520  0.1041 -0.0735
  504SOL    HW2 2069   0.016   3.983   1.285  1.7318 -2.0435 -0.0076
  504SOL    HW3 2070  -0.063   3.944   1.162  0.6896  0.5223 -0.1729
  504SOL    MW4 2071   0.008   3.977   1.198  0.9465 -0.1245 -0.0780
  505SOL     OW 2072   4.461   4.264   1.160  0.8231  0.0573  0.0976
  505SOL    HW2 2073   4.543   4.298   1.196  0.5590 -1.3483  2.1452
  505SOL    HW3 2074   4.465   4.170   1.176 -1.0688 -0.0660 -0.0387
  505SOL    MW4 2075   4.472   4.256   1.167  0.5388 -0.1445  0.3498
  506SOL     OW 2076   0.216   4.369   1.205 -0.0275  0.1087  0.2446
  506SOL    HW2 2077   0.226   4.382   1.299 -0.4595  2.0578  0.0524
  506SOL    HW3 2078   0.229   4.457   1.168 -1.6255 -0.3058 -1.3373
  506SOL    MW4 2079   0.219   4.383   1.213 -0.2954  0.3109  0.0104
  507SOL     OW 2080   0.666   4.637   1.110 -0.3945  0.1137 -0.4248
  507SOL    HW2 2081   0.746   4.666   1.154 -0.7398  0.6166 -0.1265
  507SOL    HW3 2082   0.653   4.547   1.139 -0.3855  0.3011  0.1592
  507SOL    MW4 2083   0.675   4.629   1.119 -0.4389  0.2046 -0.3083
  508SOL     OW 2084   0.460   0.097   1.256  0.1936  0.0213 -0.0838
  508SOL    HW2 2085   0.447   0.187   1.226  0.7143 -0.0856 -0.6548
  508SOL    HW3 2086   0.533   0.065   1.203 -2.0690 -1.8164 -2.2269
  508SOL    MW4 2087   0.468   0.104   1.245 -0.0362 -0.2353 -0.4418
  509SOL     OW 2088   0.475   0.353   1.146 -0.0986 -0.4928 -0.0295
  509SOL    HW2 2089   0.399   0.408   1.162 -1.0960 -2.3427  1.7341
  509SOL    HW3 2090   0.466   0.324   1.055 -0.1712  1.2675 -0.6002
  509SOL    MW4 2091   0.464   0.356   1.136 -0.2398 -0.5047  0.1278
  510SOL     OW 2092   0.701   0.486   1.238  0.1476  0.2622 -0.3785
  510SOL    HW2 2093   0.694   0.579   1.216  1.0734  0.4764  0.2012
  510SOL    HW3 2094   0.624   0.446   1.198  1.2087  0.8229 -3.0946
  510SOL    MW4 2095   0.690   0.493   1.229  0.4097  0.3645 -0.6603
  511SOL     OW 2096   0.679   0.746   1.143 -0.0180 -0.1926 -0.1466
  511SOL    HW2 2097   0.590   0.772   1.166  0.3381  0.1988  0.7978
  511SOL    HW3 2098   0.676   0.734   1.048 -1.6334 -2.3917  0.1539
  511SOL    MW4 2099   0.667   0.748   1.133 -0.1842 -0.4311  0.0176
  512SOL     OW 2100   0.439   0.863   1.216  0.3909 -0.0323  0.1229
  512SOL    HW2 2101   0.436   0.858   1.312 -0.2399 -0.2406  0.0978
  512SOL    HW3 2102   0.452   0.956   1.198 -0.0527  0.0916  0.4079
  512SOL    MW4 2103   0.440   0.875   1.226  0.2492 -0.0435  0.1572
  513SOL     OW 2104   0.469   1.116   1.119 -0.3292  0.3430  0.4934
  513SOL    HW2 2105   0.539   1.169   1.155  1.3455 -2.5254  1.6714
  513SOL    HW3 2106   0.485   1.116   1.024  1.3657 -0.3846  0.7685
  513SOL    MW4 2107   0.480   1.123   1.111  0.1154 -0.1314  0.6852
  514SOL     OW 2108   0.653   1.299   1.232  0.5240  0.1219  0.6670
  514SOL    HW2 2109   0.732   1.245   1.221  1.7075  1.9156  0.2163
  514SOL    HW3 2110   0.673   1.381   1.187 -1.4053  0.8157  1.0112
  514SOL    MW4 2111   0.666   1.302   1.225  0.4256  0.4500  0.6529
  515SOL     OW 2112   0.677   1.534   1.111  0.2432  0.0272  0.5628
  515SOL    HW2 2113   0.746   1.595   1.135 -0.9135  1.5924 -0.0308
  515SOL    HW3 2114   0.598   1.570   1.151 -0.6744 -0.4146 -0.8087
  515SOL    MW4 2115   0.676   1.547   1.119 -0.0305  0.1755  0.3035
  516SOL     OW 2116   0.487   1.675   1.253 -0.3722  0.2988 -0.5413
  516SOL    HW2 2117   0.502   1.660   1.346 -0.3138  0.8336 -0.4653
  516SOL    HW3 2118   0.401   1.635   1.236 -0.5799  0.5811 -0.1635
  516SOL    MW4 2119   0.477   1.668   1.263 -0.3919  0.4065 -0.4814
  517SOL     OW 2120   0.466   1.930   1.123  0.0139  0.0778 -0.3359
  517SOL    HW2 2121   0.486   1.853   1.176  2.7260  1.4585  0.7069
  517SOL    HW3 2122   0.393   1.971   1.169  0.1908 -0.5090  0.4968
  517SOL    MW4 2123   0.459   1.925   1.136  0.3951  0.1825 -0.0886
  518SOL     OW 2124   0.691   2.097   1.228  0.1317 -0.3031 -0.2589
  518SOL    HW2 2125   0.685   2.085   1.323 -1.8603 -0.3276 -0.3721
  518SOL    HW3 2126   0.635   2.029   1.191  2.3545 -1.5135 -1.5554
  518SOL    MW4 2127   0.683   2.086   1.236  0.1621 -0.4659 -0.4449
  519SOL     OW 2128   0.679   2.385   1.140 -0.1668 -0.1640 -0.5207
  519SOL    HW2 2129   0.606   2.435   1.175 -0.9605 -0.9802 -1.0012
  519SOL    HW3 2130   0.667   2.296   1.175  0.8783 -0.1844 -0.1792
  519SOL    MW4 2131   0.668   2.380   1.149 -0.1336 -0.2744 -0.5391
  520SOL     OW 2132   0.457   2.479   1.274 -0.0606  0.0634  0.0286
  520SOL    HW2 2133   0.450   2.486   1.369  0.1127  0.3996  0.0161
  520SOL    HW3 2134   0.436   2.566   1.242  1.5669  0.4079 -0.1427
  520SOL    MW4 2135   0.454   2.491   1.283  0.1770  0.1533  0.0043
  521SOL     OW 2136   0.434   2.728   1.167 -0.1511  0.3646 -0.1961
  521SOL    HW2 2137   0.359   2.782   1.192 -1.9785 -1.4335 -1.5040
  521SOL    HW3 2138   0.427   2.721   1.071 -0.7451 -3.1527  0.0228
  521SOL    MW4 2139   0.423   2.734   1.158 -0.4705 -0.3364 -0.3400
  522SOL     OW 2140   0.686   2.838   1.229 -0.1357 -0.0328  0.8094
  522SOL    HW2 2141   0.704   2.925   1.195 -0.3474  0.6532  2.4208
  522SOL    HW3 2142   0.594   2.822   1.206 -0.0001  0.0266  0.2197
  522SOL    MW4 2143   0.676   2.847   1.222 -0.1457  0.0658  0.9443
  523SOL     OW 2144   0.689   3.077   1.101 -0.3517 -0.2107  0.4759
  523SOL    HW2 2145   0.780   3.106   1.111 -0.4683  0.0851  0.6815
  523SOL    HW3 2146   0.675   3.075   1.007  0.1205 -1.0435  0.4102
  523SOL    MW4 2147   0.699   3.080   1.090 -0.3048 -0.2816  0.4944
  524SOL     OW 2148   0.506   3.224   1.262  0.2452  0.1925  0.1685
  524SOL    HW2 2149   0.483   3.301   1.210 -1.1168 -0.9061 -0.9391
  524SOL    HW3 2150   0.574   3.180   1.211 -0.6057 -0.5241 -0.3733
  524SOL    MW4 2151   0.512   3.228   1.249 -0.0468 -0.0470 -0.0490
  525SOL     OW 2152   0.461   3.480   1.116  0.0504  0.0133 -0.4307
  525SOL    HW2 2153   0.538   3.513   1.162  0.0526  0.0954 -0.4935
  525SOL    HW3 2154   0.387   3.522   1.160  0.0068 -0.5344  0.0247
  525SOL    MW4 2155   0.462   3.490   1.128  0.0449 -0.0482 -0.3790
  526SOL     OW 2156   0.683   3.583   1.222 -0.1708 -0.0863  0.0095
  526SOL    HW2 2157   0.693   3.574   1.317  1.6370  1.3103 -0.0216
  526SOL    HW3 2158   0.683   3.678   1.207 -1.8739 -0.2647 -1.2513
  526SOL    MW4 2159   0.684   3.594   1.233 -0.1571  0.0744 -0.1611
  527SOL     OW 2160   0.669   3.859   1.157  0.3265  0.5533  0.2816
  527SOL    HW2 2161   0.598   3.918   1.182 -0.8144 -0.7429  0.1562
  527SOL    HW3 2162   0.665   3.857   1.061 -1.3270 -1.7098  0.3543
  527SOL    MW4 2163   0.659   3.866   1.148 -0.0421  0.0837  0.2745
  528SOL     OW 2164   0.451   4.031   1.233 -0.5600 -0.3008 -0.2355
  528SOL    HW2 2165   0.483   4.108   1.186 -0.1158  0.4958  1.3331
  528SOL    HW3 2166   0.374   4.003   1.184 -1.0505  1.4988 -0.5137
  528SOL    MW4 2167   0.445   4.037   1.221 -0.5661  0.0415 -0.0653
  529SOL     OW 2168   0.454   4.256   1.071 -0.1185  0.1259  0.1876
  529SOL    HW2 2169   0.526   4.301   1.115 -0.6049 -0.0761  1.2264
  529SOL    HW3 2170   0.376   4.305   1.096 -0.3962  0.0546 -0.5319
  529SOL    MW4 2171   0.453   4.268   1.080 -0.2193  0.0896  0.2297
  530SOL     OW 2172   0.662   4.369   1.212  0.3379 -0.0164  0.7044
  530SOL    HW2 2173   0.680   4.362   1.306  0.4837  0.4907  0.7171
  530SOL    HW3 2174   0.738   4.327   1.170  0.3024 -0.1885  0.8138
  530SOL    MW4 2175   0.675   4.362   1.219  0.3524  0.0277  0.7205
  531SOL     OW 2176   1.152   4.654   1.125  0.0895  0.0702  0.3845
  531SOL    HW2 2177   1.163   4.560   1.141 -1.4043 -0.0628  0.7201
  531SOL    HW3 2178   1.116   4.659   1.036  1.5930  0.4228 -0.2217
  531SOL    MW4 2179   1.149   4.642   1.115  0.0908  0.0987  0.3487
  532SOL     OW 2180   0.902   0.076   1.215 -0.2426  0.4805 -0.3185
  532SOL    HW2 2181   0.901   0.090   1.310  1.7396  2.2492 -0.5190
  532SOL    HW3 2182   0.987   0.035   1.198 -1.2086 -1.2335 -1.1793
  532SOL    MW4 2183   0.913   0.073   1.225 -0.1085  0.4877 -0.4585
  533SOL     OW 2184   0.922   0.340   1.127 -0.2709  0.4090  0.2726
  533SOL    HW2 2185   0.905   0.252   1.159  0.3150  0.4108  0.5923
  533SOL    HW3 2186   0.843   0.390   1.149 -0.5690 -0.0158  0.1614
  533SOL    MW4 2187   0.909   0.335   1.134 -0.2329  0.3532  0.3002
  534SOL     OW 2188   1.155   0.486   1.215 -0.2032 -0.4437  0.0449
  534SOL    HW2 2189   1.139   0.496   1.308 -1.1298 -0.9160 -0.0616
  534SOL    HW3 2190   1.083   0.433   1.183 -1.0521  1.4444 -1.3177
  534SOL    MW4 2191   1.144   0.481   1.223 -0.4375 -0.2569 -0.1489
  535SOL     OW 2192   1.134   0.747   1.119  0.3206  0.3221  0.3202
  535SOL    HW2 2193   1.060   0.790   1.161  0.4257  0.0108  0.8281
  535SOL    HW3 2194   1.136   0.659   1.158 -0.1272 -0.2833 -0.9846
  535SOL    MW4 2195   1.125   0.741   1.129  0.2753  0.2012  0.2151
  536SOL     OW 2196   0.904   0.887   1.215 -0.1209 -0.2638 -0.2580
  536SOL    HW2 2197   0.893   0.982   1.214  1.0938 -0.1222 -0.9999
  536SOL    HW3 2198   0.816   0.852   1.201 -0.9519  0.7167  2.2358
  536SOL    MW4 2199   0.891   0.895   1.213 -0.0702 -0.1158 -0.0269
  537SOL     OW 2200   0.883   1.167   1.157  0.3651  0.4472  0.0144
  537SOL    HW2 2201   0.959   1.220   1.182  0.7079  0.1835 -0.4494
  537SOL    HW3 2202   0.882   1.172   1.061  0.0319  0.1265  0.0030
  537SOL    MW4 2203   0.893   1.175   1.148  0.3663  0.3700 -0.0484
  538SOL     OW 2204   1.114   1.311   1.229 -0.4721  0.3955 -0.1667
  538SOL    HW2 2205   1.114   1.309   1.325 -0.3313 -1.5068 -0.1802
  538SOL    HW3 2206   1.196   1.268   1.204 -0.7156  0.4931 -1.1433
  538SOL    MW4 2207   1.125   1.305   1.239 -0.4855  0.1576 -0.2973
  539SOL     OW 2208   1.124   1.549   1.062  0.1420  0.3339  0.0322
  539SOL    HW2 2209   1.120   1.463   1.104  3.3238  0.3510  0.5052
  539SOL    HW3 2210   1.116   1.530   0.968 -2.2003 -0.1443  0.2886
  539SOL    MW4 2211   1.122   1.535   1.055  0.2528  0.2731  0.1283
  540SOL     OW 2212   0.908   1.676   1.185 -0.5675 -0.2324  0.0878
  540SOL    HW2 2213   0.912   1.762   1.142  0.7130  1.0146  2.6152
  540SOL    HW3 2214   0.981   1.627   1.146 -0.3862  0.3346 -0.2905
  540SOL    MW4 2215   0.918   1.681   1.174 -0.3746  0.0069  0.3715
  541SOL     OW 2216   0.911   1.970   1.116 -0.2288  0.3473 -0.0799
  541SOL    HW2 2217   0.991   2.000   1.158 -0.3714 -1.5815  1.6420
  541SOL    HW3 2218   0.841   2.018   1.160 -0.0767  1.7272 -1.3033
  541SOL    MW4 2219   0.912   1.980   1.127 -0.2275  0.2749 -0.0142
  542SOL     OW 2220   1.145   2.042   1.233  0.2611 -0.1414 -0.2715
  542SOL    HW2 2221   1.140   2.033   1.329  0.2867 -0.8038 -0.3320
  542SOL    HW3 2222   1.131   2.135   1.217 -0.3418 -0.1283  0.3352
  542SOL    MW4 2223   1.143   2.053   1.244  0.1849 -0.2267 -0.1994
  543SOL     OW 2224   1.100   2.304   1.145 -0.7282  0.1548  0.3884
  543SOL    HW2 2225   1.186   2.342   1.163 -0.6851 -0.3847  1.3305
  543SOL    HW3 2226   1.038   2.373   1.171 -0.5840  0.4753 -0.1209
  543SOL    MW4 2227   1.103   2.318   1.151 -0.7033  0.1261  0.4456
  544SOL     OW 2228   0.915   2.484   1.234  0.4127 -0.6557 -0.6957
  544SOL    HW2 2229   0.919   2.459   1.327  0.4920  0.3861 -0.4108
  544SOL    HW3 2230   0.825   2.466   1.208  0.0385  0.2506 -0.0630
  544SOL    MW4 2231   0.904   2.478   1.243  0.3738 -0.3989 -0.5747
  545SOL     OW 2232   0.904   2.723   1.080  0.0656  0.1241 -0.0008
  545SOL    HW2 2233   0.911   2.649   1.141  1.5781  0.4216  0.1956
  545SOL    HW3 2234   0.846   2.785   1.125  0.8504  0.1661  0.9914
  545SOL    MW4 2235   0.897   2.721   1.094  0.3687  0.1688  0.1560
  546SOL     OW 2236   1.138   2.839   1.167 -0.1761  0.0978  0.0880
  546SOL    HW2 2237   1.158   2.825   1.260 -0.0635  1.2495  0.2433
  546SOL    HW3 2238   1.055   2.794   1.153  0.8726 -1.9432  0.2215
  546SOL    MW4 2239   1.130   2.831   1.177 -0.0228 -0.0196  0.1260
  547SOL     OW 2240   1.204   3.119   1.106  0.0862 -0.1901 -0.2217
  547SOL    HW2 2241   1.188   3.030   1.135 -0.1008  0.1538  0.7497
  547SOL    HW3 2242   1.185   3.117   1.012 -1.9698 -0.6965  0.1769
  547SOL    MW4 2243   1.199   3.107   1.098 -0.2098 -0.2115 -0.0410
  548SOL     OW 2244   0.937   3.157   1.181  0.4411 -0.3555 -0.5888
  548SOL    HW2 2245   0.925   3.251   1.165 -1.2227 -0.3206  0.7741
  548SOL    HW3 2246   1.021   3.137   1.140  1.3983  1.9738  0.1375
  548SOL    MW4 2247   0.946   3.167   1.173  0.3479 -0.0436 -0.3130
  549SOL     OW 2248   0.930   3.426   1.125 -0.3692 -0.1932 -0.0310
  549SOL    HW2 2249   0.853   3.473   1.158 -0.6434 -1.3765  1.0558
  549SOL    HW3 2250   0.938   3.455   1.034 -1.6000  0.5824  0.0930
  549SOL    MW4 2251   0.921   3.436   1.117 -0.5677 -0.2468  0.1286
  550SOL     OW 2252   1.180   3.609   1.221  0.2731  0.1861  0.2060
  550SOL    HW2 2253   1.270   3.575   1.216  0.5308  0.8285  0.4559
  550SOL    HW3 2254   1.126   3.536   1.190  0.9630  0.1507 -0.9514
  550SOL    MW4 2255   1.185   3.595   1.216  0.3982  0.2663  0.0862
  551SOL     OW 2256   1.134   3.871   1.119 -0.5030  0.3494 -0.3280
  551SOL    HW2 2257   1.065   3.900   1.177  0.8107 -1.2684  2.1334
  551SOL    HW3 2258   1.143   3.777   1.136  0.9871  0.1440 -1.9824
  551SOL    MW4 2259   1.126   3.862   1.129 -0.1332  0.1090 -0.2215
  552SOL     OW 2260   0.914   3.962   1.262 -0.1441  0.3516 -0.1552
  552SOL    HW2 2261   0.907   3.960   1.357 -0.2530  0.5126 -0.1608
  552SOL    HW3 2262   0.830   3.930   1.231 -0.2254  0.6145 -0.2017
  552SOL    MW4 2263   0.902   3.957   1.271 -0.1692  0.4077 -0.1620
  553SOL     OW 2264   0.918   4.252   1.147 -0.1797 -0.0293  0.3831
  553SOL    HW2 2265   0.957   4.168   1.169 -1.7983 -0.6683  0.8881
  553SOL    HW3 2266   0.923   4.257   1.051 -0.6832 -1.0064  0.3041
  553SOL    MW4 2267   0.924   4.242   1.137 -0.4597 -0.2427  0.4394
  554SOL     OW 2268   1.148   4.385   1.207  0.1096  0.6353 -0.3443
  554SOL    HW2 2269   1.133   4.385   1.301 -0.2838  1.8087 -0.4019
  554SOL    HW3 2270   1.079   4.330   1.171  0.8785 -0.6696  0.1361
  554SOL    MW4 2271   1.137   4.378   1.214  0.1593  0.6175 -0.2885
  555SOL     OW 2272   1.556   4.657   1.142  0.1153  0.0500  0.2843
  555SOL    HW2 2273   1.623   4.716   1.176 -0.4344  0.2137  1.0965
  555SOL    HW3 2274   1.570   4.575   1.190 -1.6336  0.7516  2.0366
  555SOL    MW4 2275   1.566   4.654   1.153 -0.1879  0.1640  0.6227
  556SOL     OW 2276   1.339   0.121   1.268  0.0548 -0.0690  0.1330
  556SOL    HW2 2277   1.410   0.064   1.238  0.3158 -0.3413  1.2392
  556SOL    HW3 2278   1.262   0.091   1.220  0.5974 -0.0570 -0.7524
  556SOL    MW4 2279   1.338   0.109   1.258  0.1607 -0.1034  0.1621
  557SOL     OW 2280   1.365   0.354   1.121  0.2883 -0.2174 -0.0113
  557SOL    HW2 2281   1.375   0.267   1.159  0.8226  0.6637  1.9415
  557SOL    HW3 2282   1.290   0.392   1.166 -0.6448 -0.0551 -1.6445
  557SOL    MW4 2283   1.357   0.348   1.132  0.2358 -0.0798  0.0308
  558SOL     OW 2284   1.558   0.520   1.242 -0.1079 -0.1191  0.3086
  558SOL    HW2 2285   1.557   0.605   1.198  1.8458 -0.0224  0.4226
  558SOL    HW3 2286   1.493   0.468   1.195 -0.5098  1.0654 -0.4831
  558SOL    MW4 2287   1.549   0.524   1.230  0.0969  0.0499  0.2192
  559SOL     OW 2288   1.569   0.784   1.131  0.1536 -0.1323  0.3811
  559SOL    HW2 2289   1.658   0.815   1.147 -0.2370  0.6619  1.0490
  559SOL    HW3 2290   1.571   0.754   1.040  0.9425  0.4532  0.1909
  559SOL    MW4 2291   1.581   0.784   1.121  0.2061  0.0498  0.4441
  560SOL     OW 2292   1.335   0.906   1.240 -0.0685 -0.0655 -0.2678
  560SOL    HW2 2293   1.410   0.850   1.219 -0.5067 -0.0979 -1.8441
  560SOL    HW3 2294   1.259   0.858   1.207 -0.7222  0.3030  0.6675
  560SOL    MW4 2295   1.335   0.892   1.233 -0.2124 -0.0213 -0.3525
  561SOL     OW 2296   1.338   1.165   1.146  0.5718 -0.1291  0.3042
  561SOL    HW2 2297   1.334   1.081   1.191  0.0242 -0.3842 -0.2158
  561SOL    HW3 2298   1.324   1.144   1.054 -0.7791  0.6590  0.3106
  561SOL    MW4 2299   1.336   1.151   1.140  0.3214 -0.0588  0.2365
  562SOL     OW 2300   1.588   1.244   1.239  0.6685 -0.4965  0.0276
  562SOL    HW2 2301   1.669   1.208   1.204  0.8917  0.9649 -1.0209
  562SOL    HW3 2302   1.519   1.204   1.186  0.9547  1.0729 -1.5680
  562SOL    MW4 2303   1.589   1.234   1.227  0.7356 -0.0967 -0.3213
  563SOL     OW 2304   1.580   1.497   1.155  0.1941 -0.1681  0.2412
  563SOL    HW2 2305   1.651   1.549   1.193 -0.4128  0.5858  0.3623
  563SOL    HW3 2306   1.586   1.413   1.199 -0.0177  0.4445  1.4572
  563SOL    MW4 2307   1.590   1.493   1.166  0.0859  0.0123  0.4177
  564SOL     OW 2308   1.361   1.654   1.181 -0.2245  0.0465 -0.2170
  564SOL    HW2 2309   1.435   1.595   1.166  1.2368  2.4452 -3.0075
  564SOL    HW3 2310   1.293   1.623   1.121 -0.4604 -0.4202  0.2847
  564SOL    MW4 2311   1.362   1.642   1.171 -0.0628  0.3015 -0.5189
  565SOL     OW 2312   1.411   1.926   1.163  0.3508  0.2710  0.1154
  565SOL    HW2 2313   1.327   1.970   1.180  0.3671  0.6805 -0.8334
  565SOL    HW3 2314   1.393   1.833   1.174 -0.4021  0.3076 -0.8061
  565SOL    MW4 2315   1.397   1.920   1.167  0.2537  0.3297 -0.1315
  566SOL     OW 2316   1.623   2.096   1.258  0.0865 -0.5780  0.1638
  566SOL    HW2 2317   1.617   2.174   1.203 -2.5616 -0.0449  1.1589
  566SOL    HW3 2318   1.555   2.038   1.225 -0.1065 -1.1377  1.5157
  566SOL    MW4 2319   1.614   2.099   1.246 -0.2882 -0.5815  0.4734
  567SOL     OW 2320   1.579   2.343   1.127  0.1598 -0.5324 -0.3109
  567SOL    HW2 2321   1.491   2.363   1.161 -0.0151 -1.4474 -0.2046
  567SOL    HW3 2322   1.565   2.323   1.035  0.3405 -0.0899 -0.4327
  567SOL    MW4 2323   1.565   2.343   1.119  0.1606 -0.5949 -0.3129
  568SOL     OW 2324   1.348   2.433   1.236 -0.1332  0.3465 -0.3143
  568SOL    HW2 2325   1.341   2.455   1.329 -0.2974  0.2713 -0.3088
  568SOL    HW3 2326   1.356   2.518   1.192 -1.3152  0.4574 -0.3430
  568SOL    MW4 2327   1.348   2.447   1.242 -0.3110  0.3512 -0.3172
  569SOL     OW 2328   1.375   2.680   1.122  0.5105 -0.6360 -0.4851
  569SOL    HW2 2329   1.441   2.736   1.163 -0.9420  0.0107  1.0627
  569SOL    HW3 2330   1.295   2.732   1.125 -0.5467 -2.2404 -0.3274
  569SOL    MW4 2331   1.373   2.694   1.128  0.1793 -0.7622 -0.2601
  570SOL     OW 2332   1.584   2.837   1.217  0.0512 -0.0572  0.9083
  570SOL    HW2 2333   1.658   2.780   1.194  0.2090 -0.1801  1.7087
  570SOL    HW3 2334   1.609   2.923   1.186 -0.0897 -0.3768 -0.1114
  570SOL    MW4 2335   1.597   2.841   1.210  0.0535 -0.1156  0.8794
  571SOL     OW 2336   1.603   3.085   1.075  0.5371  0.2115 -0.0918
  571SOL    HW2 2337   1.680   3.110   1.125  0.7078  1.1157 -0.7813
  571SOL    HW3 2338   1.534   3.145   1.104  0.7317  0.9821 -1.1755
  571SOL    MW4 2339   1.604   3.096   1.085  0.5853  0.4323 -0.3258
  572SOL     OW 2340   1.430   3.259   1.219 -0.2737 -0.0583  0.5365
  572SOL    HW2 2341   1.424   3.252   1.315 -0.2766  1.3111  0.6435
  572SOL    HW3 2342   1.352   3.214   1.187 -0.9859  0.6416  1.2368
  572SOL    MW4 2343   1.419   3.252   1.228 -0.3680  0.2148  0.6431
  573SOL     OW 2344   1.437   3.519   1.139 -0.2349  0.0521 -0.2964
  573SOL    HW2 2345   1.431   3.426   1.161 -2.8561  0.3022  0.2064
  573SOL    HW3 2346   1.445   3.520   1.044  1.7925 -0.7323 -0.1586
  573SOL    MW4 2347   1.437   3.507   1.129 -0.3133 -0.0184 -0.2117
  574SOL     OW 2348   1.638   3.625   1.274 -0.4195 -0.3586  0.3617
  574SOL    HW2 2349   1.632   3.717   1.247 -0.3171 -0.4864 -0.0987
  574SOL    HW3 2350   1.566   3.582   1.228  0.2503 -0.7341 -0.3442
  574SOL    MW4 2351   1.627   3.632   1.264 -0.3175 -0.4251  0.2078
  575SOL     OW 2352   1.627   3.893   1.157 -0.3536 -0.0175 -0.0721
  575SOL    HW2 2353   1.543   3.918   1.195  0.2898  1.1256  0.6150
  575SOL    HW3 2354   1.610   3.886   1.063 -0.5185  3.3084 -0.3576
  575SOL    MW4 2355   1.614   3.895   1.150 -0.2904  0.5722 -0.0192
  576SOL     OW 2356   1.372   3.979   1.242  0.4441  0.3758 -0.0847
  576SOL    HW2 2357   1.372   4.061   1.193  0.6651  0.0769 -0.6035
  576SOL    HW3 2358   1.312   3.922   1.194 -1.5409  1.0012  1.6272
  576SOL    MW4 2359   1.364   3.982   1.229  0.2115  0.4189  0.0728
  577SOL     OW 2360   1.369   4.248   1.145 -0.2281 -0.2948  0.1887
  577SOL    HW2 2361   1.293   4.301   1.168  0.8649  0.5626  1.9072
  577SOL    HW3 2362   1.398   4.283   1.060 -0.5140  0.7322  0.5125
  577SOL    MW4 2363   1.363   4.259   1.137 -0.1216 -0.0463  0.4581
  578SOL     OW 2364   1.593   4.412   1.271  0.0809 -0.1193  0.4214
  578SOL    HW2 2365   1.586   4.406   1.366 -0.5539  0.4166  0.4099
  578SOL    HW3 2366   1.530   4.347   1.238  0.3046 -0.3090  0.3667
  578SOL    MW4 2367   1.584   4.403   1.279  0.0266 -0.0739  0.4126
  579SOL     OW 2368   1.984   4.654   1.099  0.0387  0.3829 -0.3222
  579SOL    HW2 2369   1.983   4.561   1.118 -2.0828  0.4158 -0.1457
  579SOL    HW3 2370   2.015   4.660   1.009  1.5336 -0.3928  0.1396
  579SOL    MW4 2371   1.988   4.643   1.090 -0.0439  0.2847 -0.2379
  580SOL     OW 2372   1.776   0.131   1.233 -0.8637  0.2013  0.2069
  580SOL    HW2 2373   1.779   0.221   1.200 -2.5754 -0.3429 -1.5293
  580SOL    HW3 2374   1.842   0.085   1.181  0.0202  0.4318  1.1042
  580SOL    MW4 2375   1.785   0.137   1.222 -0.9727  0.1599  0.0964
  581SOL     OW 2376   1.836   0.399   1.129 -0.3178  0.5020 -0.0196
  581SOL    HW2 2377   1.775   0.460   1.171 -0.6573 -1.0401  1.7464
  581SOL    HW3 2378   1.821   0.412   1.035 -1.4353  2.0722  0.3514
  581SOL    MW4 2379   1.826   0.409   1.122 -0.5100  0.5057  0.2624
  582SOL     OW 2380   2.074   0.513   1.219 -0.2102  0.0925 -0.2849
  582SOL    HW2 2381   2.067   0.515   1.314 -0.1875 -0.1432 -0.2793
  582SOL    HW3 2382   1.996   0.465   1.190  0.0940 -0.3553 -0.3552
  582SOL    MW4 2383   2.063   0.507   1.227 -0.1676  0.0024 -0.2934
  583SOL     OW 2384   2.051   0.778   1.112  0.0212  0.2802  0.2781
  583SOL    HW2 2385   2.059   0.690   1.149  1.0981  0.5900  0.7999
  583SOL    HW3 2386   2.033   0.763   1.019  3.3826 -0.5144 -0.3178
  583SOL    MW4 2387   2.050   0.764   1.105  0.6068  0.2162  0.2683
  584SOL     OW 2388   1.824   0.888   1.217 -0.3963 -0.1548 -0.3775
  584SOL    HW2 2389   1.818   0.885   1.312 -1.6244  0.4362 -0.4218
  584SOL    HW3 2390   1.910   0.852   1.197  0.5671  1.2757  1.0494
  584SOL    MW4 2391   1.834   0.883   1.227 -0.4312  0.1119 -0.1950
  585SOL     OW 2392   1.811   1.142   1.135 -0.3757  0.1577 -0.1098
  585SOL    HW2 2393   1.806   1.047   1.151  0.9863  0.1758  0.5816
  585SOL    HW3 2394   1.816   1.150   1.040  0.3842 -0.5339 -0.1375
  585SOL    MW4 2395   1.811   1.130   1.124 -0.0958  0.0688 -0.0222
  586SOL     OW 2396   2.024   1.244   1.259  0.5070 -0.1689 -0.8903
  586SOL    HW2 2397   2.102   1.204   1.220  0.8768  0.1878 -0.5251
  586SOL    HW3 2398   1.950   1.197   1.220  0.9781 -3.5965  2.0690
  586SOL    MW4 2399   2.025   1.232   1.249  0.6180 -0.5741 -0.4518
  587SOL     OW 2400   2.003   1.497   1.148 -0.5084 -0.2878 -0.3417
  587SOL    HW2 2401   1.992   1.407   1.178  0.7238 -0.5064 -0.5324
  587SOL    HW3 2402   2.018   1.489   1.054  0.5677  0.0500 -0.1966
  587SOL    MW4 2403   2.003   1.484   1.139 -0.2038 -0.2720 -0.3476
  588SOL     OW 2404   1.790   1.668   1.214  0.3782  0.0913  0.4702
  588SOL    HW2 2405   1.802   1.749   1.163  0.1074 -1.1136 -1.5543
  588SOL    HW3 2406   1.868   1.616   1.193  0.2202 -0.4519  1.2495
  588SOL    MW4 2407   1.802   1.672   1.204  0.3216 -0.1392  0.3059
  589SOL     OW 2408   1.825   1.955   1.138  0.1658 -0.0145  0.4178
  589SOL    HW2 2409   1.764   2.008   1.190  0.8843  1.4812 -0.2420
  589SOL    HW3 2410   1.823   1.994   1.051  1.2989 -0.5977  0.1233
  589SOL    MW4 2411   1.816   1.967   1.134  0.4102  0.1057  0.2918
  590SOL     OW 2412   2.032   2.094   1.256  0.1814  0.2716  0.1957
  590SOL    HW2 2413   2.039   2.073   1.350 -0.8485  0.3184  0.2920
  590SOL    HW3 2414   1.955   2.045   1.227 -0.6918  1.8484 -0.1792
  590SOL    MW4 2415   2.023   2.085   1.265 -0.0694  0.4859  0.1590
  591SOL     OW 2416   1.998   2.374   1.198  0.0116  0.0319 -0.0358
  591SOL    HW2 2417   2.092   2.392   1.206 -0.0855  0.1904  0.7852
  591SOL    HW3 2418   1.989   2.282   1.224 -0.3228  0.5829  1.8580
  591SOL    MW4 2419   2.009   2.364   1.202 -0.0453  0.1256  0.3223
  592SOL     OW 2420   1.762   2.502   1.257 -0.0122  0.1834 -0.2723
  592SOL    HW2 2421   1.842   2.455   1.233  1.0389  1.9699 -0.3807
  592SOL    HW3 2422   1.691   2.445   1.228  1.1634 -2.6340  2.1114
  592SOL    MW4 2423   1.763   2.488   1.250  0.2817  0.0474  0.0280
  593SOL     OW 2424   1.828   2.718   1.112 -0.1533 -0.2248  0.0823
  593SOL    HW2 2425   1.824   2.644   1.173  0.8272 -0.6348 -0.3305
  593SOL    HW3 2426   1.815   2.679   1.026  0.1198  0.1216 -0.1171
  593SOL    MW4 2427   1.826   2.703   1.109  0.0120 -0.2329  0.0014
  594SOL     OW 2428   2.047   2.827   1.236  0.3993  0.5743 -0.5148
  594SOL    HW2 2429   2.038   2.920   1.213 -1.6612  0.4181 -0.4334
  594SOL    HW3 2430   1.970   2.785   1.199 -0.2457 -0.5947  1.9914
  594SOL    MW4 2431   2.036   2.834   1.228  0.0422  0.3998 -0.1734
  595SOL     OW 2432   2.014   3.085   1.127  0.3059 -0.0611  0.0136
  595SOL    HW2 2433   1.932   3.121   1.161  0.9690  0.6968  0.8202
  595SOL    HW3 2434   2.004   3.091   1.032 -0.7776 -0.4378  0.0919
  595SOL    MW4 2435   2.002   3.090   1.119  0.2506 -0.0107  0.1303
  596SOL     OW 2436   1.787   3.198   1.248 -0.4052  0.0561  0.0050
  596SOL    HW2 2437   1.782   3.211   1.342 -0.8503  0.2165 -0.0421
  596SOL    HW3 2438   1.809   3.285   1.213  0.4876 -0.1585  0.0217
  596SOL    MW4 2439   1.789   3.211   1.256 -0.3461  0.0489  0.0010
  597SOL     OW 2440   1.833   3.477   1.151 -0.0193 -0.1673  0.0528
  597SOL    HW2 2441   1.908   3.534   1.165 -0.6734  0.1926  2.2117
  597SOL    HW3 2442   1.763   3.514   1.205 -1.5583 -0.8862 -1.3849
  597SOL    MW4 2443   1.833   3.489   1.160 -0.3088 -0.2146  0.1479
  598SOL     OW 2444   2.037   3.646   1.225  0.3758  0.5516  0.1409
  598SOL    HW2 2445   2.026   3.654   1.320 -0.1415 -0.6207  0.1827
  598SOL    HW3 2446   2.114   3.590   1.214  0.3067  0.5059 -0.1248
  598SOL    MW4 2447   2.046   3.640   1.236  0.2985  0.3910  0.1113
  599SOL     OW 2448   2.038   3.890   1.098  0.2976 -0.6157  0.1356
  599SOL    HW2 2449   1.958   3.927   1.134  0.4197 -0.9225  0.7217
  599SOL    HW3 2450   2.037   3.798   1.125  1.9699 -0.1029  2.1456
  599SOL    MW4 2451   2.028   3.883   1.106  0.5343 -0.5887  0.4781
  600SOL     OW 2452   1.838   4.031   1.227 -0.2872  0.0913  0.2930
  600SOL    HW2 2453   1.834   4.036   1.323 -0.8712  1.2971  0.2203
  600SOL    HW3 2454   1.762   3.979   1.203 -0.9373  0.9814  0.4091
  600SOL    MW4 2455   1.827   4.025   1.237 -0.4501  0.3686  0.2989
  601SOL     OW 2456   1.804   4.281   1.137 -0.0483  0.1165  0.0915
  601SOL    HW2 2457   1.813   4.190   1.166  0.5050 -0.0661 -0.6546
  601SOL    HW3 2458   1.755   4.323   1.208 -0.3552 -0.7710  0.4188
  601SOL    MW4 2459   1.799   4.275   1.150 -0.0157 -0.0253  0.0361
  602SOL     OW 2460   2.048   4.400   1.225 -0.1097  0.0025 -0.4088
  602SOL    HW2 2461   2.045   4.422   1.319  1.8289 -1.6119  0.0396
  602SOL    HW3 2462   1.968   4.350   1.211 -0.3297  0.1053  0.4068
  602SOL    MW4 2463   2.037   4.397   1.236  0.1171 -0.1969 -0.2421
  603SOL     OW 2464   2.449   0.009   1.082  0.3069 -0.1978 -0.0430
  603SOL    HW2 2465   2.514   0.063   1.127 -1.3828  2.0780 -0.2721
  603SOL    HW3 2466   2.365   0.036   1.119 -0.8827 -0.1266 -2.6841
  603SOL    MW4 2467   2.446   0.020   1.093 -0.0730  0.1118 -0.4218
  604SOL     OW 2468   2.241   0.091   1.230  0.3853  0.4565  0.0343
  604SOL    HW2 2469   2.257   0.181   1.201 -0.1569  0.4714 -0.2273
  604SOL    HW3 2470   2.155   0.069   1.193  0.3922 -0.0710  0.3310
  604SOL    MW4 2471   2.232   0.100   1.221  0.3147  0.3889  0.0389
  605SOL     OW 2472   2.262   0.335   1.115 -0.0278 -0.0394  0.0387
  605SOL    HW2 2473   2.194   0.399   1.137  1.8460  2.2626 -0.6896
  605SOL    HW3 2474   2.270   0.340   1.020  0.5908 -0.8798  0.0449
  605SOL    MW4 2475   2.254   0.344   1.106  0.3011  0.1535 -0.0565
  606SOL     OW 2476   2.476   0.512   1.186 -0.0857  0.2075  0.3844
  606SOL    HW2 2477   2.470   0.524   1.281 -0.0941  3.1582  0.0782
  606SOL    HW3 2478   2.399   0.461   1.163 -0.9251  0.8067  1.8057
  606SOL    MW4 2479   2.465   0.507   1.196 -0.1976  0.6759  0.5317
  607SOL     OW 2480   2.481   0.759   1.073 -0.1352  0.2890  0.0427
  607SOL    HW2 2481   2.476   0.670   1.109 -1.1058  0.2369 -0.1967
  607SOL    HW3 2482   2.486   0.746   0.978  1.6413  0.4486  0.0991
  607SOL    MW4 2483   2.481   0.745   1.065 -0.0288  0.3032  0.0186
  608SOL     OW 2484   2.291   0.890   1.256  0.3566  0.0881  0.0841
  608SOL    HW2 2485   2.368   0.851   1.216  1.1595  0.0791  1.6116
  608SOL    HW3 2486   2.218   0.838   1.223  1.1717 -1.0493  0.0711
  608SOL    MW4 2487   2.291   0.878   1.246  0.5701 -0.0632  0.2840
  609SOL     OW 2488   2.238   1.133   1.133 -0.4324 -0.0229 -0.1259
  609SOL    HW2 2489   2.322   1.174   1.153 -0.4080  0.4764 -1.2289
  609SOL    HW3 2490   2.245   1.045   1.170  1.5949 -0.9317 -2.4875
  609SOL    MW4 2491   2.250   1.127   1.141 -0.1616 -0.0770 -0.5831
  610SOL     OW 2492   2.465   1.268   1.201 -0.1657 -0.1524 -0.2670
  610SOL    HW2 2493   2.541   1.219   1.169  0.0126  0.1893 -0.3721
  610SOL    HW3 2494   2.478   1.357   1.167  0.5457  0.4770  1.5337
  610SOL    MW4 2495   2.477   1.273   1.192 -0.0484 -0.0242 -0.0433
  611SOL     OW 2496   2.493   1.527   1.121 -0.2008 -0.3559 -0.2752
  611SOL    HW2 2497   2.419   1.580   1.152  0.4688  0.6940 -0.4306
  611SOL    HW3 2498   2.488   1.532   1.026  0.8121  0.8104 -0.2869
  611SOL    MW4 2499   2.483   1.535   1.113  0.0212 -0.0634 -0.2972
  612SOL     OW 2500   2.240   1.636   1.208 -0.0613 -0.0553  0.0589
  612SOL    HW2 2501   2.224   1.720   1.165  0.6575 -0.6087 -1.3216
  612SOL    HW3 2502   2.169   1.579   1.177  0.9775 -0.7183 -1.1475
  612SOL    MW4 2503   2.228   1.639   1.198  0.1705 -0.2158 -0.2823
  613SOL     OW 2504   2.206   1.908   1.122  0.0868  0.3340 -0.5061
  613SOL    HW2 2505   2.150   1.976   1.159 -2.1038 -1.7603  0.0986
  613SOL    HW3 2506   2.188   1.910   1.028 -0.3721  0.2350 -0.4201
  613SOL    MW4 2507   2.197   1.918   1.114 -0.2630  0.0446 -0.4150
  614SOL     OW 2508   2.415   2.031   1.254 -0.3399 -0.2760 -0.6261
  614SOL    HW2 2509   2.498   2.000   1.218  0.7224 -0.3482  1.7785
  614SOL    HW3 2510   2.348   1.979   1.211  1.0401 -1.9078 -0.8268
  614SOL    MW4 2511   2.417   2.020   1.244 -0.0176 -0.5007 -0.3352
  615SOL     OW 2512   2.463   2.289   1.128 -0.2147  0.5857 -0.2719
  615SOL    HW2 2513   2.464   2.202   1.170  0.7498  0.6627 -0.1097
  615SOL    HW3 2514   2.405   2.279   1.053  0.0244 -0.2523 -0.3541
  615SOL    MW4 2515   2.455   2.276   1.124 -0.0560  0.4854 -0.2613
  616SOL     OW 2516   2.271   2.465   1.234 -0.0748 -0.2088  0.2706
  616SOL    HW2 2517   2.278   2.470   1.329  0.1149  1.0591  0.1909
  616SOL    HW3 2518   2.343   2.409   1.207 -0.0608 -0.4733  0.8625
  616SOL    MW4 2519   2.281   2.458   1.243 -0.0479 -0.0765  0.3382
  617SOL     OW 2520   2.263   2.722   1.098  0.2061  0.8340 -0.1057
  617SOL    HW2 2521   2.258   2.633   1.135 -1.3714  0.0313 -2.1854
  617SOL    HW3 2522   2.191   2.769   1.140 -1.3241  0.0399 -1.7945
  617SOL    MW4 2523   2.253   2.716   1.109 -0.2038  0.6235 -0.6028
  618SOL     OW 2524   2.465   2.853   1.232 -0.0661  0.0705 -0.2849
  618SOL    HW2 2525   2.443   2.849   1.325 -0.7694  1.5655 -0.3656
  618SOL    HW3 2526   2.399   2.799   1.189 -0.2738  0.0928  0.0042
  618SOL    MW4 2527   2.454   2.845   1.238 -0.1864  0.2708 -0.2575
  619SOL     OW 2528   2.485   3.104   1.127  0.3621 -0.3025 -0.0496
  619SOL    HW2 2529   2.401   3.140   1.157  1.2680  0.2112  2.0030
  619SOL    HW3 2530   2.495   3.024   1.178  1.8110  0.4405  0.8854
  619SOL    MW4 2531   2.475   3.098   1.138  0.6728 -0.1369  0.3448
  620SOL     OW 2532   2.235   3.228   1.226  0.2324 -0.3250 -0.2406
  620SOL    HW2 2533   2.229   3.318   1.195  0.3922 -0.3436 -0.3290
  620SOL    HW3 2534   2.160   3.184   1.186  0.0463 -0.1868 -0.0434
  620SOL    MW4 2535   2.224   3.234   1.217  0.2289 -0.3090 -0.2263
  621SOL     OW 2536   2.261   3.501   1.162 -0.2527 -0.0016  0.6516
  621SOL    HW2 2537   2.342   3.540   1.195 -1.0564  0.4067  2.2038
  621SOL    HW3 2538   2.250   3.539   1.075  0.1096  1.5740  1.2776
  621SOL    MW4 2539   2.270   3.511   1.155 -0.3109  0.2599  0.9390
  622SOL     OW 2540   2.519   3.589   1.239  0.3141 -0.6886  0.3069
  622SOL    HW2 2541   2.512   3.593   1.334 -1.6563  0.0029  0.1438
  622SOL    HW3 2542   2.528   3.680   1.211  0.0353 -0.8227 -0.2331
  622SOL    MW4 2543   2.519   3.602   1.248  0.0176 -0.6151  0.2140
  623SOL     OW 2544   2.519   3.860   1.135  0.1911 -0.2450  0.4760
  623SOL    HW2 2545   2.440   3.910   1.155  0.0896  0.1343 -0.8810
  623SOL    HW3 2546   2.517   3.847   1.040  1.9902  0.1622  0.3607
  623SOL    MW4 2547   2.508   3.864   1.125  0.4148 -0.1409  0.2817
  624SOL     OW 2548   2.295   4.003   1.197  0.2609 -0.0010  0.1703
  624SOL    HW2 2549   2.281   4.097   1.206  0.8563  0.2288 -1.1248
  624SOL    HW3 2550   2.212   3.969   1.164  0.0722  0.0784  0.5598
  624SOL    MW4 2551   2.282   4.011   1.194  0.3145  0.0401  0.0508
  625SOL     OW 2552   2.280   4.283   1.125 -0.4490 -0.3963 -0.1978
  625SOL    HW2 2553   2.204   4.331   1.158 -0.6913 -0.3136 -0.8650
  625SOL    HW3 2554   2.269   4.285   1.030  0.6693  0.0888 -0.3224
  625SOL    MW4 2555   2.268   4.290   1.117 -0.3333 -0.3214 -0.3023
  626SOL     OW 2556   2.504   4.427   1.202  0.0333 -0.2874  0.2740
  626SOL    HW2 2557   2.431   4.377   1.166  0.1533  0.1244 -0.5473
  626SOL    HW3 2558   2.497   4.513   1.161 -0.2914  0.4570  1.8352
  626SOL    MW4 2559   2.493   4.432   1.192  0.0064 -0.1349  0.3716
  627SOL     OW 2560   2.912   0.002   1.132  0.0816  0.2122 -0.3341
  627SOL    HW2 2561   2.930  -0.086   1.165 -0.2994  0.6568  1.0877
  627SOL    HW3 2562   2.911  -0.008   1.036  0.5774 -1.2145 -0.2013
  627SOL    MW4 2563   2.915  -0.011   1.123  0.0966  0.0825 -0.1290
  628SOL     OW 2564   2.662   0.116   1.208  0.1784  0.6565  0.2097
  628SOL    HW2 2565   2.681   0.129   1.301 -1.3399  0.2430  0.5869
  628SOL    HW3 2566   2.734   0.061   1.177 -0.5278 -1.1701  1.6933
  628SOL    MW4 2567   2.674   0.111   1.216 -0.1154  0.3609  0.4551
  629SOL     OW 2568   2.694   0.373   1.072 -0.2343 -0.2759  0.0995
  629SOL    HW2 2569   2.683   0.286   1.110 -1.8755 -1.4096 -2.7605
  629SOL    HW3 2570   2.620   0.423   1.106  0.1165 -0.3225  0.9318
  629SOL    MW4 2571   2.683   0.368   1.081 -0.4046 -0.4316 -0.1682
  630SOL     OW 2572   2.891   0.513   1.204 -0.1982  0.0668 -0.1183
  630SOL    HW2 2573   2.873   0.602   1.174 -0.8456 -0.0797 -0.1773
  630SOL    HW3 2574   2.822   0.460   1.164 -0.2986 -0.3351  0.5765
  630SOL    MW4 2575   2.880   0.518   1.194 -0.2968 -0.0055 -0.0343
  631SOL     OW 2576   2.928   0.786   1.087 -0.2239  0.4896 -0.2331
  631SOL    HW2 2577   3.015   0.821   1.105 -0.4928  1.4721 -0.8273
  631SOL    HW3 2578   2.870   0.835   1.144 -0.2713 -0.9497  1.0013
  631SOL    MW4 2579   2.932   0.797   1.097 -0.2656  0.4293 -0.1487
  632SOL     OW 2580   2.696   0.883   1.222 -0.1311  0.0807 -0.4211
  632SOL    HW2 2581   2.710   0.975   1.197 -0.7886 -0.1196 -1.5474
  632SOL    HW3 2582   2.624   0.854   1.166  0.5124 -1.3194 -0.5420
  632SOL    MW4 2583   2.688   0.892   1.211 -0.1328 -0.1304 -0.5857
  633SOL     OW 2584   2.704   1.137   1.122  0.2107  0.0718 -0.0789
  633SOL    HW2 2585   2.783   1.187   1.139  0.1006  0.4870 -0.7491
  633SOL    HW3 2586   2.684   1.155   1.030  0.5170 -1.6910 -0.5062
  633SOL    MW4 2587   2.711   1.146   1.112  0.2365 -0.1061 -0.2236
  634SOL     OW 2588   2.917   1.288   1.216  0.4231  0.2922  0.5414
  634SOL    HW2 2589   2.911   1.296   1.311  0.7379  1.1625  0.4957
  634SOL    HW3 2590   2.919   1.378   1.185  0.4898  0.0102 -0.2837
  634SOL    MW4 2591   2.916   1.301   1.225  0.4733  0.3699  0.4265
  635SOL     OW 2592   2.953   1.557   1.108  0.3723  0.2332 -0.3554
  635SOL    HW2 2593   3.026   1.612   1.135  0.1034  0.4108  0.0118
  635SOL    HW3 2594   2.955   1.559   1.012  0.2163  1.0682 -0.3436
  635SOL    MW4 2595   2.963   1.564   1.099  0.3161  0.3668 -0.3054
  636SOL     OW 2596   2.700   1.660   1.246 -0.0290  0.3652  0.3316
  636SOL    HW2 2597   2.781   1.636   1.202  0.2623  0.5422  0.7672
  636SOL    HW3 2598   2.632   1.608   1.202  0.0661  1.5240 -1.1986
  636SOL    MW4 2599   2.702   1.650   1.234  0.0219  0.5416  0.1870
  637SOL     OW 2600   2.652   1.922   1.170 -0.3096  0.3602  0.5949
  637SOL    HW2 2601   2.729   1.974   1.191 -0.5379  0.6328  0.7643
  637SOL    HW3 2602   2.679   1.832   1.185 -0.4891  0.5527  2.1320
  637SOL    MW4 2603   2.665   1.917   1.175 -0.3631  0.4216  0.8199
  638SOL     OW 2604   2.903   2.042   1.202 -0.5667 -0.2127 -0.2101
  638SOL    HW2 2605   2.908   2.057   1.297 -0.1691 -0.4637 -0.1865
  638SOL    HW3 2606   2.908   2.129   1.164  3.1494 -0.3077 -0.1292
  638SOL    MW4 2607   2.905   2.055   1.210 -0.0238 -0.2584 -0.1963
  639SOL     OW 2608   2.903   2.306   1.124  0.6174  0.7208  0.1703
  639SOL    HW2 2609   2.985   2.335   1.162  0.1972 -0.0593  1.6866
  639SOL    HW3 2610   2.838   2.369   1.155  0.4986  0.8762 -0.3807
  639SOL    MW4 2611   2.905   2.318   1.133  0.5462  0.6382  0.2977
  640SOL     OW 2612   2.684   2.446   1.234  0.2949  0.2755  0.6095
  640SOL    HW2 2613   2.679   2.439   1.329  1.3446 -0.3666  0.6279
  640SOL    HW3 2614   2.601   2.409   1.203  0.3842 -0.4738  1.2428
  640SOL    MW4 2615   2.673   2.440   1.242  0.4451  0.0916  0.6955
  641SOL     OW 2616   2.683   2.711   1.136  0.6499  0.0362 -0.0856
  641SOL    HW2 2617   2.684   2.625   1.177 -1.1055  0.0350 -0.0138
  641SOL    HW3 2618   2.605   2.754   1.171  0.0142  0.6338 -2.1622
  641SOL    MW4 2619   2.673   2.705   1.146  0.3345  0.1152 -0.3500
  642SOL     OW 2620   2.938   2.823   1.209 -0.2338  0.4422 -0.7096
  642SOL    HW2 2621   2.936   2.807   1.303 -0.1300 -1.1096 -0.9688
  642SOL    HW3 2622   2.855   2.788   1.177 -0.0286  0.4728 -1.2734
  642SOL    MW4 2623   2.927   2.817   1.217 -0.1931  0.2413 -0.8181
  643SOL     OW 2624   2.943   3.096   1.117 -0.1113  0.3634  0.2259
  643SOL    HW2 2625   2.942   3.003   1.142 -0.9904  0.2138 -0.3360
  643SOL    HW3 2626   2.941   3.095   1.021  1.2682  0.9570  0.1721
  643SOL    MW4 2627   2.943   3.083   1.108 -0.0453  0.4220  0.1447
  644SOL     OW 2628   2.709   3.194   1.249  0.4250 -0.1659 -0.1322
  644SOL    HW2 2629   2.788   3.155   1.212 -0.6009 -2.5880  0.1406
  644SOL    HW3 2630   2.638   3.162   1.193 -0.5120  0.8472  0.4547
  644SOL    MW4 2631   2.710   3.185   1.237  0.1664 -0.3519 -0.0190
  645SOL     OW 2632   2.734   3.459   1.109 -0.8430 -0.5610  0.4729
  645SOL    HW2 2633   2.722   3.374   1.152 -1.4718  0.6669  2.7824
  645SOL    HW3 2634   2.663   3.513   1.142  0.7406  1.4911  0.5763
  645SOL    MW4 2635   2.723   3.455   1.119 -0.7167 -0.1285  0.7913
  646SOL     OW 2636   2.971   3.557   1.246  0.3652  0.6017 -0.3645
  646SOL    HW2 2637   3.046   3.508   1.210  0.4324 -0.3468  1.0186
  646SOL    HW3 2638   2.896   3.528   1.194  0.3967 -1.0374  0.4877
  646SOL    MW4 2639   2.971   3.547   1.234  0.3784  0.2604 -0.0696
  647SOL     OW 2640   2.942   3.819   1.169 -0.2610  0.1979  0.0282
  647SOL    HW2 2641   3.027   3.859   1.188 -0.1501  0.3573 -0.7858
  647SOL    HW3 2642   2.949   3.730   1.202  0.9545 -0.4407 -1.8966
  647SOL    MW4 2643   2.954   3.813   1.176 -0.0856  0.1345 -0.3333
  648SOL     OW 2644   2.743   4.016   1.223  0.4059 -0.1507 -0.4728
  648SOL    HW2 2645   2.819   3.966   1.193 -0.2308 -1.9910  0.8857
  648SOL    HW3 2646   2.668   3.967   1.192 -0.2621  1.1549 -0.9810
  648SOL    MW4 2647   2.743   4.003   1.215  0.2337 -0.2213 -0.3606
  649SOL     OW 2648   2.742   4.306   1.154  0.3403 -0.4763  0.1022
  649SOL    HW2 2649   2.745   4.213   1.179 -1.1539 -0.5777 -0.0829
  649SOL    HW3 2650   2.660   4.339   1.191 -0.0842  0.2856 -1.4737
  649SOL    MW4 2651   2.732   4.298   1.162  0.0870 -0.3891 -0.1301
  650SOL     OW 2652   2.984   4.418   1.227 -0.2059 -0.3463 -0.2780
  650SOL    HW2 2653   3.043   4.345   1.209  0.0025  0.3780 -2.7079
  650SOL    HW3 2654   2.896   4.382   1.212 -0.2381 -0.7423  0.8631
  650SOL    MW4 2655   2.980   4.404   1.223 -0.1829 -0.3028 -0.4480
  651SOL     OW 2656   3.365   4.643   1.099  0.1990  0.1858  0.2330
  651SOL    HW2 2657   3.432   4.694   1.145  0.0773  0.1418  0.4597
  651SOL    HW3 2658   3.282   4.682   1.125  0.1366  0.2608 -0.0750
  651SOL    MW4 2659   3.363   4.655   1.109  0.1748  0.1899  0.2222
  652SOL     OW 2660   3.134   0.151   1.226  0.0430 -0.0835  0.3649
  652SOL    HW2 2661   3.144   0.157   1.321  0.1875 -1.7899  0.4643
  652SOL    HW3 2662   3.060   0.093   1.212  1.0587 -1.1943 -0.5703
  652SOL    MW4 2663   3.126   0.144   1.237  0.1960 -0.4552  0.2546
  653SOL     OW 2664   3.137   0.433   1.126 -0.0870 -0.4613 -0.2489
  653SOL    HW2 2665   3.153   0.343   1.157 -0.8018 -0.2234  0.8163
  653SOL    HW3 2666   3.051   0.455   1.161  0.2976  0.8181 -0.1049
  653SOL    MW4 2667   3.128   0.424   1.135 -0.1307 -0.2612 -0.0893
  654SOL     OW 2668   3.396   0.520   1.241 -0.1118  0.5362 -0.1948
  654SOL    HW2 2669   3.388   0.609   1.206 -1.4628  0.8771  0.9373
  654SOL    HW3 2670   3.323   0.472   1.201 -0.5311  0.4471  0.6537
  654SOL    MW4 2671   3.385   0.526   1.231 -0.3455  0.5695  0.0665
  655SOL     OW 2672   3.383   0.764   1.104  0.1120 -0.0119 -0.3702
  655SOL    HW2 2673   3.309   0.822   1.120  0.1459  0.2257 -1.0667
  655SOL    HW3 2674   3.389   0.758   1.009  0.8933 -0.1469 -0.3178
  655SOL    MW4 2675   3.374   0.771   1.093  0.2193  0.0017 -0.4551
  656SOL     OW 2676   3.158   0.908   1.186 -0.5849  0.3017 -0.5371
  656SOL    HW2 2677   3.160   0.907   1.282  0.8203 -1.0090 -0.5625
  656SOL    HW3 2678   3.157   1.001   1.163  0.0726  0.6396  0.7437
  656SOL    MW4 2679   3.158   0.920   1.196 -0.3126  0.1733 -0.3713
  657SOL     OW 2680   3.131   1.161   1.122 -0.3296 -0.2631 -0.3008
  657SOL    HW2 2681   3.211   1.202   1.155 -0.1709 -1.8346  1.3197
  657SOL    HW3 2682   3.060   1.207   1.166 -0.2939  0.6100 -1.1476
  657SOL    MW4 2683   3.133   1.172   1.132 -0.3040 -0.3551 -0.1988
  658SOL     OW 2684   3.376   1.264   1.194  0.6694 -0.2885  0.2489
  658SOL    HW2 2685   3.364   1.259   1.289 -2.0558  1.5228  0.0637
  658SOL    HW3 2686   3.385   1.358   1.176  0.6732 -0.5735 -1.3568
  658SOL    MW4 2687   3.376   1.276   1.204  0.3104 -0.0873  0.0126
  659SOL     OW 2688   3.396   1.531   1.139  0.6039  0.3122  0.2226
  659SOL    HW2 2689   3.476   1.575   1.170  0.4029  0.6982  0.1967
  659SOL    HW3 2690   3.327   1.596   1.152  0.4558  0.3343 -0.6688
  659SOL    MW4 2691   3.398   1.546   1.145  0.5579  0.3661  0.1016
  660SOL     OW 2692   3.166   1.693   1.178  0.1022 -0.2603  0.2880
  660SOL    HW2 2693   3.156   1.695   1.273  2.5334 -0.0333  0.5740
  660SOL    HW3 2694   3.149   1.783   1.150 -1.8653 -0.5957  0.3413
  660SOL    MW4 2695   3.163   1.705   1.187  0.1631 -0.2747  0.3328
  661SOL     OW 2696   3.135   1.971   1.074 -0.1134 -0.0150  0.1807
  661SOL    HW2 2697   3.205   2.015   1.122  0.1428  0.5963 -0.7297
  661SOL    HW3 2698   3.054   2.001   1.117  0.1205  0.3557  0.3614
  661SOL    MW4 2699   3.133   1.981   1.086 -0.0486  0.1147  0.0845
  662SOL     OW 2700   3.366   2.045   1.202  0.5034 -0.3037 -0.5444
  662SOL    HW2 2701   3.440   2.011   1.153  0.8315  1.8278 -1.5930
  662SOL    HW3 2702   3.364   2.139   1.181 -1.3940  0.0127  0.8732
  662SOL    MW4 2703   3.375   2.053   1.193  0.2964  0.0193 -0.4957
  663SOL     OW 2704   3.386   2.306   1.120  0.1589 -0.0622  0.2769
  663SOL    HW2 2705   3.461   2.355   1.155 -0.1576  0.9111 -0.3754
  663SOL    HW3 2706   3.311   2.341   1.168  0.0745 -0.7666  0.6576
  663SOL    MW4 2707   3.386   2.317   1.131  0.1061 -0.0267  0.2413
  664SOL     OW 2708   3.132   2.407   1.214  0.2081  0.1284 -0.0190
  664SOL    HW2 2709   3.121   2.429   1.306 -0.4688  0.5648 -0.2013
  664SOL    HW3 2710   3.132   2.492   1.168 -0.4829 -0.1311 -0.5192
  664SOL    MW4 2711   3.131   2.421   1.220  0.0274  0.1519 -0.1090
  665SOL     OW 2712   3.155   2.682   1.121 -0.3247  0.3896 -0.3882
  665SOL    HW2 2713   3.075   2.722   1.153 -0.1290  1.2468 -0.9476
  665SOL    HW3 2714   3.155   2.700   1.027  0.0319 -0.4692 -0.5590
  665SOL    MW4 2715   3.145   2.690   1.112 -0.2518  0.3896 -0.4845
  666SOL     OW 2716   3.385   2.817   1.244 -0.1237  0.6486 -0.3586
  666SOL    HW2 2717   3.399   2.898   1.194  0.8078  0.1969 -0.8420
  666SOL    HW3 2718   3.306   2.779   1.207  0.0326  0.7952 -0.8393
  666SOL    MW4 2719   3.376   2.823   1.233  0.0198  0.6082 -0.4858
  667SOL     OW 2720   3.416   3.066   1.140 -0.5817  0.1179 -0.2849
  667SOL    HW2 2721   3.494   3.091   1.189 -0.1589 -1.4390 -0.1198
  667SOL    HW3 2722   3.345   3.115   1.180 -0.1555 -0.7438  1.5730
  667SOL    MW4 2723   3.417   3.076   1.152 -0.4697 -0.2010 -0.0179
  668SOL     OW 2724   3.178   3.190   1.222  0.4869  0.6793  0.3662
  668SOL    HW2 2725   3.187   3.280   1.191  0.2300  0.7735  0.5684
  668SOL    HW3 2726   3.105   3.154   1.171  0.4415  0.6548  0.4489
  668SOL    MW4 2727   3.170   3.197   1.211  0.4470  0.6886  0.4038
  669SOL     OW 2728   3.182   3.441   1.149 -0.6012 -0.0148 -0.2005
  669SOL    HW2 2729   3.259   3.497   1.162 -1.6583  1.4353 -0.0494
  669SOL    HW3 2730   3.169   3.442   1.054 -0.8473  0.3201 -0.1649
  669SOL    MW4 2731   3.191   3.449   1.138 -0.7732  0.2208 -0.1758
  670SOL     OW 2732   3.417   3.586   1.207  0.2059 -0.1937 -0.3054
  670SOL    HW2 2733   3.419   3.587   1.303  0.5232  1.2792 -0.3156
  670SOL    HW3 2734   3.498   3.542   1.181  0.2394 -0.3678  0.0964
  670SOL    MW4 2735   3.428   3.580   1.216  0.2520 -0.0224 -0.2538
  671SOL     OW 2736   3.383   3.809   1.081  1.0376  0.1359  0.1626
  671SOL    HW2 2737   3.327   3.865   1.134 -0.2078 -1.8086  0.9429
  671SOL    HW3 2738   3.399   3.732   1.135  0.5239 -1.4592 -1.8998
  671SOL    MW4 2739   3.378   3.806   1.095  0.8056 -0.3312 -0.0067
  672SOL     OW 2740   3.186   3.963   1.218 -0.2087 -0.4529  0.1491
  672SOL    HW2 2741   3.187   3.970   1.314 -0.9851 -1.0246  0.2076
  672SOL    HW3 2742   3.167   4.051   1.188 -3.4722 -0.9149  0.6475
  672SOL    MW4 2743   3.184   3.975   1.227 -0.7415 -0.5896  0.2226
  673SOL     OW 2744   3.156   4.215   1.121 -0.0635 -0.3025 -0.2295
  673SOL    HW2 2745   3.225   4.278   1.143 -0.8353  0.6081 -0.3655
  673SOL    HW3 2746   3.126   4.242   1.034 -0.2134 -1.0389 -0.4093
  673SOL    MW4 2747   3.161   4.227   1.113 -0.1850 -0.2794 -0.2711
  674SOL     OW 2748   3.362   4.384   1.223 -0.3157 -0.1801 -0.0874
  674SOL    HW2 2749   3.436   4.349   1.174 -1.4843 -1.8459 -0.7277
  674SOL    HW3 2750   3.351   4.473   1.191  2.1074  0.4788  0.8386
  674SOL    MW4 2751   3.370   4.391   1.212 -0.1504 -0.3128 -0.0496
  675SOL     OW 2752   3.834   0.017   1.127  0.2617 -0.3883 -0.2039
  675SOL    HW2 2753   3.829  -0.073   1.157 -0.4800 -0.0684  0.6611
  675SOL    HW3 2754   3.827   0.011   1.032 -0.5060 -1.1996 -0.1044
  675SOL    MW4 2755   3.832   0.005   1.118  0.0625 -0.4530 -0.0768
  676SOL     OW 2756   3.587   0.113   1.221 -0.3536 -0.3496 -0.3537
  676SOL    HW2 2757   3.589   0.206   1.197 -1.0507 -0.0233  0.8183
  676SOL    HW3 2758   3.675   0.081   1.200 -0.5928  0.1703 -2.3047
  676SOL    MW4 2759   3.599   0.121   1.215 -0.4773 -0.2379 -0.4566
  677SOL     OW 2760   3.617   0.383   1.142  0.2653  0.1134 -0.2586
  677SOL    HW2 2761   3.678   0.438   1.191  0.4708  0.1151 -0.5141
  677SOL    HW3 2762   3.531   0.417   1.165  0.3799  0.3842 -0.2214
  677SOL    MW4 2763   3.614   0.395   1.151  0.3076  0.1493 -0.2874
  678SOL     OW 2764   3.836   0.519   1.237  0.1975  0.4145 -0.4469
  678SOL    HW2 2765   3.918   0.483   1.203  0.9651  1.9563 -0.2704
  678SOL    HW3 2766   3.829   0.606   1.197 -0.4748  0.9902  0.8896
  678SOL    MW4 2767   3.846   0.526   1.227  0.2103  0.6939 -0.2472
  679SOL     OW 2768   3.813   0.784   1.112 -0.2781 -0.6241 -0.1549
  679SOL    HW2 2769   3.887   0.841   1.135 -0.0586 -0.5283 -1.0702
  679SOL    HW3 2770   3.741   0.815   1.166  0.6632 -1.5082  1.6611
  679SOL    MW4 2771   3.814   0.795   1.122 -0.1249 -0.7281 -0.0360
  680SOL     OW 2772   3.575   0.928   1.217 -0.2457  0.4629 -0.1405
  680SOL    HW2 2773   3.595   0.997   1.153  0.7682 -0.1035 -0.4440
  680SOL    HW3 2774   3.509   0.874   1.173  0.5379  0.0041 -0.7663
  680SOL    MW4 2775   3.569   0.930   1.203 -0.0086  0.3276 -0.2632
  681SOL     OW 2776   3.590   1.163   1.059  0.0462 -0.0372 -0.0302
  681SOL    HW2 2777   3.658   1.190   1.120  0.4546 -0.9169 -0.0879
  681SOL    HW3 2778   3.508   1.193   1.098  0.3695  0.0253  0.5946
  681SOL    MW4 2779   3.588   1.170   1.072  0.1426 -0.1450  0.0447
  682SOL     OW 2780   3.778   1.263   1.214 -0.7883 -0.0691  0.0686
  682SOL    HW2 2781   3.787   1.258   1.309 -1.9764 -0.9928  0.1392
  682SOL    HW3 2782   3.788   1.356   1.194 -0.7378  0.1546  1.1174
  682SOL    MW4 2783   3.781   1.275   1.224 -0.9384 -0.1614  0.2162
  683SOL     OW 2784   3.847   1.526   1.159 -0.2849  0.1061  0.7114
  683SOL    HW2 2785   3.923   1.568   1.199  0.9978 -1.0103 -0.5394
  683SOL    HW3 2786   3.868   1.522   1.066 -1.8014 -0.3857  0.3755
  683SOL    MW4 2787   3.860   1.531   1.152 -0.3159 -0.1062  0.5020
  684SOL     OW 2788   3.615   1.676   1.217  0.0111 -0.1085 -0.2808
  684SOL    HW2 2789   3.612   1.760   1.170 -0.0904 -0.4179 -0.8373
  684SOL    HW3 2790   3.691   1.631   1.180 -0.3936 -0.5825 -0.5415
  684SOL    MW4 2791   3.625   1.681   1.206 -0.0556 -0.2118 -0.3887
  685SOL     OW 2792   3.598   1.942   1.096 -0.3887 -0.7271 -0.6694
  685SOL    HW2 2793   3.684   1.975   1.123 -0.2639 -2.1718  0.7775
  685SOL    HW3 2794   3.598   1.952   1.001  0.7060  0.8558 -0.5290
  685SOL    MW4 2795   3.610   1.948   1.087 -0.2279 -0.7089 -0.4600
  686SOL     OW 2796   3.822   2.050   1.211  0.3288  0.0917 -0.2371
  686SOL    HW2 2797   3.824   2.053   1.306 -0.8977 -1.8499 -0.1347
  686SOL    HW3 2798   3.902   2.004   1.187  0.9000  1.0381 -0.1912
  686SOL    MW4 2799   3.833   2.045   1.220  0.2425 -0.0393 -0.2177
  687SOL     OW 2800   3.797   2.310   1.113  0.1375  0.2804  0.2863
  687SOL    HW2 2801   3.881   2.348   1.136  1.3835 -0.9065 -2.0852
  687SOL    HW3 2802   3.802   2.220   1.145 -0.3031  0.2636  0.3109
  687SOL    MW4 2803   3.809   2.303   1.120  0.2439  0.1218 -0.0234
  688SOL     OW 2804   3.602   2.462   1.239 -0.2765  0.1567 -0.1327
  688SOL    HW2 2805   3.602   2.463   1.335  1.1232  0.7104 -0.1173
  688SOL    HW3 2806   3.685   2.420   1.216 -0.0504  1.1064 -1.0991
  688SOL    MW4 2807   3.613   2.456   1.249 -0.0618  0.3555 -0.2582
  689SOL     OW 2808   3.587   2.701   1.103 -0.5095  0.5039  0.1836
  689SOL    HW2 2809   3.583   2.611   1.133  2.2072  0.7955  1.5583
  689SOL    HW3 2810   3.523   2.748   1.157  1.5888  0.2931  2.9463
  689SOL    MW4 2811   3.578   2.696   1.114  0.1259  0.5145  0.7296
  690SOL     OW 2812   3.855   2.793   1.230  0.2963  0.1471 -0.1705
  690SOL    HW2 2813   3.847   2.800   1.326 -1.0323 -1.1166 -0.1743
  690SOL    HW3 2814   3.771   2.756   1.202  1.0006 -0.2601 -1.7529
  690SOL    MW4 2815   3.843   2.789   1.239  0.2141 -0.0734 -0.3796
  691SOL     OW 2816   3.853   3.079   1.141  0.5320 -0.5531 -0.2206
  691SOL    HW2 2817   3.863   2.990   1.175  0.3042 -0.4035  0.2437
  691SOL    HW3 2818   3.859   3.069   1.046  0.3557 -1.0848 -0.1811
  691SOL    MW4 2819   3.855   3.066   1.133  0.4787 -0.6034 -0.1541
  692SOL     OW 2820   3.628   3.207   1.243 -0.2479  0.6097 -0.7716
  692SOL    HW2 2821   3.608   3.282   1.187 -1.2858  0.3257 -0.7965
  692SOL    HW3 2822   3.707   3.169   1.205  0.4658  1.8699 -0.5734
  692SOL    MW4 2823   3.636   3.212   1.231 -0.2906  0.7386 -0.7489
  693SOL     OW 2824   3.634   3.470   1.098 -0.1469 -0.3866 -0.1373
  693SOL    HW2 2825   3.708   3.515   1.137  0.2696 -1.8455  0.7912
  693SOL    HW3 2826   3.649   3.475   1.003  0.4353  0.4930  0.0029
  693SOL    MW4 2827   3.645   3.476   1.090 -0.0153 -0.4628  0.0037
  694SOL     OW 2828   3.846   3.599   1.189 -0.3463 -0.3073 -0.0516
  694SOL    HW2 2829   3.840   3.587   1.284 -1.2388 -0.0361 -0.0607
  694SOL    HW3 2830   3.841   3.694   1.178  0.0956 -0.3211 -0.3503
  694SOL    MW4 2831   3.844   3.610   1.200 -0.4055 -0.2732 -0.0921
  695SOL     OW 2832   3.843   3.861   1.129 -0.3603  0.2854 -0.3885
  695SOL    HW2 2833   3.771   3.924   1.137 -1.2706 -0.6188 -1.2483
  695SOL    HW3 2834   3.838   3.831   1.038  1.9527  1.1981 -0.8626
  695SOL    MW4 2835   3.833   3.866   1.118 -0.1752  0.2863 -0.5645
  696SOL     OW 2836   3.598   3.976   1.179  0.6956 -0.2205 -0.3586
  696SOL    HW2 2837   3.588   3.967   1.274 -0.8731  0.7638 -0.4253
  696SOL    HW3 2838   3.523   3.929   1.143 -0.3760  1.9623 -1.0290
  696SOL    MW4 2839   3.587   3.968   1.187  0.3469  0.1974 -0.4557
  697SOL     OW 2840   3.592   4.260   1.121  0.5846  0.4189 -0.1292
  697SOL    HW2 2841   3.591   4.169   1.149  1.7263  0.3159 -0.4251
  697SOL    HW3 2842   3.598   4.256   1.025 -1.8992  0.7838 -0.3243
  697SOL    MW4 2843   3.593   4.248   1.112  0.4077  0.4530 -0.1938
  698SOL     OW 2844   3.807   4.412   1.187  0.0726 -0.0442 -0.0306
  698SOL    HW2 2845   3.823   4.412   1.281  0.4845  0.3019 -0.0991
  698SOL    HW3 2846   3.719   4.377   1.178 -0.5151  1.2518  0.5756
  698SOL    MW4 2847   3.798   4.407   1.198  0.0496  0.1721  0.0402
  699SOL     OW 2848   4.300   4.647   1.109  0.1280 -0.3249 -0.3423
  699SOL    HW2 2849   4.273   4.563   1.146 -0.2162 -0.5028 -0.9859
  699SOL    HW3 2850   4.228   4.706   1.129 -1.0174 -0.9321 -2.5341
  699SOL    MW4 2851   4.287   4.643   1.117 -0.0682 -0.4282 -0.7166
  700SOL     OW 2852   4.073   0.121   1.204  0.0641  0.3698  0.0648
  700SOL    HW2 2853   4.066   0.127   1.300 -0.4351  1.5452 -0.0295
  700SOL    HW3 2854   3.986   0.091   1.176  1.2973 -3.5470  0.2203
  700SOL    MW4 2855   4.060   0.118   1.213  0.1612  0.0081  0.0730
  701SOL     OW 2856   4.046   0.374   1.096  0.1772 -0.2727 -0.0240
  701SOL    HW2 2857   4.069   0.288   1.130 -0.5977 -0.8895 -1.0127
  701SOL    HW3 2858   4.057   0.366   1.001 -2.9186 -0.2817 -0.4478
  701SOL    MW4 2859   4.050   0.361   1.088 -0.3338 -0.3553 -0.2103
  702SOL     OW 2860   4.251   0.562   1.170 -0.1209 -0.2641  0.0680
  702SOL    HW2 2861   4.233   0.549   1.263 -1.5237 -0.6292 -0.2365
  702SOL    HW3 2862   4.190   0.502   1.126 -0.5717  1.0536 -1.1135
  702SOL    MW4 2863   4.241   0.552   1.177 -0.3657 -0.1384 -0.1280
  703SOL     OW 2864   4.264   0.814   1.070  0.0111  0.0048  0.6322
  703SOL    HW2 2865   4.245   0.730   1.111 -1.1771 -0.1654 -0.2631
  703SOL    HW3 2866   4.291   0.792   0.981  0.4697  0.5174  0.6432
  703SOL    MW4 2867   4.265   0.800   1.064 -0.0854  0.0499  0.5155
  704SOL     OW 2868   4.028   0.916   1.187 -0.2487 -0.2156 -0.3742
  704SOL    HW2 2869   4.031   0.891   1.279 -0.7002  0.4401 -0.1838
  704SOL    HW3 2870   4.107   0.876   1.149  0.1671 -0.1254  0.3869
  704SOL    MW4 2871   4.039   0.907   1.194 -0.2537 -0.1172 -0.2487
  705SOL     OW 2872   4.019   1.179   1.072  0.0829 -0.1284  0.1902
  705SOL    HW2 2873   4.014   1.091   1.111 -0.1719 -0.8550 -1.4256
  705SOL    HW3 2874   3.947   1.227   1.112  0.6282 -0.4503  1.5778
  705SOL    MW4 2875   4.009   1.174   1.082  0.1211 -0.2668  0.1602
  706SOL     OW 2876   4.259   1.244   1.210 -0.3155  0.3366  0.3567
  706SOL    HW2 2877   4.255   1.229   1.304 -0.4250  0.1712  0.3252
  706SOL    HW3 2878   4.172   1.221   1.178 -0.7215  1.7498  0.4115
  706SOL    MW4 2879   4.247   1.239   1.218 -0.3829  0.5013  0.3599
  707SOL     OW 2880   4.295   1.513   1.152 -0.3547  0.3933  0.3244
  707SOL    HW2 2881   4.281   1.424   1.186 -1.5730  1.0087  1.4575
  707SOL    HW3 2882   4.373   1.544   1.198  0.6550 -0.4089 -0.7757
  707SOL    MW4 2883   4.304   1.505   1.162 -0.3824  0.3686  0.3288
  708SOL     OW 2884   4.092   1.677   1.233 -0.3075 -0.5056 -0.4077
  708SOL    HW2 2885   4.098   1.654   1.326 -0.3348  1.6936  0.1767
  708SOL    HW3 2886   4.167   1.633   1.193  1.6932  1.2029  1.2756
  708SOL    MW4 2887   4.103   1.668   1.240 -0.0467  0.0100 -0.1085
  709SOL     OW 2888   4.077   1.936   1.162  0.3115  0.1160  0.3812
  709SOL    HW2 2889   4.087   1.847   1.197  0.3585  0.1590  0.4742
  709SOL    HW3 2890   4.087   1.925   1.067 -2.6172 -0.4508  0.0810
  709SOL    MW4 2891   4.079   1.922   1.154 -0.0691  0.0468  0.3539
  710SOL     OW 2892   4.303   2.072   1.260  0.0785  0.5134 -0.1551
  710SOL    HW2 2893   4.288   2.166   1.249 -0.1987  0.6020  0.9934
  710SOL    HW3 2894   4.231   2.031   1.211 -1.1435  0.9187  1.2668
  710SOL    MW4 2895   4.291   2.079   1.252 -0.1197  0.5786  0.1842
  711SOL     OW 2896   4.256   2.342   1.114  0.0258  0.5040 -0.5827
  711SOL    HW2 2897   4.164   2.364   1.130 -0.0980 -0.8833  0.7244
  711SOL    HW3 2898   4.263   2.334   1.019 -1.3124  0.1846 -0.6621
  711SOL    MW4 2899   4.245   2.344   1.103 -0.1674  0.2785 -0.4207
  712SOL     OW 2900   4.022   2.449   1.194  0.1468  0.3213 -0.1935
  712SOL    HW2 2901   4.005   2.453   1.288 -0.1576 -2.5728 -0.0582
  712SOL    HW3 2902   4.051   2.537   1.170  1.0018  0.8821  2.7516
  712SOL    MW4 2903   4.023   2.461   1.203  0.2198  0.0134  0.2129
  713SOL     OW 2904   4.098   2.706   1.140 -0.3622 -0.0404 -0.4562
  713SOL    HW2 2905   4.020   2.757   1.163 -0.0664  0.2912 -0.1787
  713SOL    HW3 2906   4.093   2.697   1.044 -0.6950  0.0574 -0.4481
  713SOL    MW4 2907   4.087   2.712   1.130 -0.3672  0.0162 -0.4185
  714SOL     OW 2908   4.305   2.845   1.243  0.1762  0.6456  0.2207
  714SOL    HW2 2909   4.315   2.927   1.195 -1.1701  1.5237  1.3731
  714SOL    HW3 2910   4.231   2.802   1.201  1.1583 -0.1879 -0.6599
  714SOL    MW4 2911   4.296   2.850   1.231  0.1287  0.6516  0.2565
  715SOL     OW 2912   4.337   3.108   1.118  0.1177  0.0827 -0.6566
  715SOL    HW2 2913   4.261   3.145   1.164 -1.2684 -2.1110 -1.1391
  715SOL    HW3 2914   4.316   3.117   1.025  0.5102 -0.4185 -0.7955
  715SOL    MW4 2915   4.324   3.114   1.112 -0.0134 -0.2728 -0.7385
  716SOL     OW 2916   4.096   3.209   1.207  0.1168 -0.0064 -0.0903
  716SOL    HW2 2917   4.085   3.210   1.302 -0.4826 -0.6684 -0.1518
  716SOL    HW3 2918   4.016   3.170   1.173 -1.3392  3.6086 -1.0981
  716SOL    MW4 2919   4.084   3.204   1.215 -0.1545  0.3829 -0.2313
  717SOL     OW 2920   4.062   3.456   1.074  0.0319 -0.2283 -0.2103
  717SOL    HW2 2921   4.080   3.392   1.143  0.8375  0.3246  0.0856
  717SOL    HW3 2922   3.978   3.495   1.099  0.0373 -0.4447  0.1417
  717SOL    MW4 2923   4.053   3.453   1.086  0.1392 -0.1838 -0.1248
  718SOL     OW 2924   4.270   3.612   1.200 -0.7058 -0.4365  0.1102
  718SOL    HW2 2925   4.198   3.566   1.156 -2.1049  1.7270  0.0604
  718SOL    HW3 2926   4.348   3.565   1.172 -1.8853 -1.3438 -1.8099
  718SOL    MW4 2927   4.271   3.600   1.190 -1.0462 -0.2708 -0.1497
  719SOL     OW 2928   4.265   3.871   1.118  0.5299 -0.5478  0.1962
  719SOL    HW2 2929   4.197   3.925   1.160 -0.0790  0.7339 -2.3438
  719SOL    HW3 2930   4.256   3.785   1.159 -1.6099  0.0221  0.9821
  719SOL    MW4 2931   4.255   3.867   1.129  0.1674 -0.3035 -0.0352
  720SOL     OW 2932   4.069   4.030   1.194 -0.2060  0.1167  0.6102
  720SOL    HW2 2933   4.055   4.119   1.161  1.6070 -0.4004 -1.7065
  720SOL    HW3 2934   3.995   3.980   1.161 -1.1107  0.6936  1.7251
  720SOL    MW4 2935   4.058   4.035   1.186 -0.0858  0.1249  0.4517
  721SOL     OW 2936   4.043   4.279   1.098  0.3401 -0.1467 -0.1524
  721SOL    HW2 2937   3.965   4.324   1.132  1.9227  2.3522  0.2672
  721SOL    HW3 2938   4.021   4.261   1.006 -1.2362 -0.6552  0.2997
  721SOL    MW4 2939   4.030   4.283   1.090  0.3405  0.1159 -0.0376
  722SOL     OW 2940   4.255   4.404   1.251  0.4410 -0.2923 -0.2031
  722SOL    HW2 2941   4.187   4.355   1.203  0.5612 -1.2662  0.5966
  722SOL    HW3 2942   4.336   4.359   1.229  0.7767  0.6028 -0.8084
  722SOL    MW4 2943   4.257   4.391   1.242  0.5016 -0.3028 -0.1774
  723SOL     OW 2944   0.230   4.651   1.590 -0.2324 -0.0567 -0.3666
  723SOL    HW2 2945   0.312   4.700   1.578 -0.2289 -0.1867 -0.8766
  723SOL    HW3 2946   0.164   4.704   1.545 -0.7629  0.9757  1.5839
  723SOL    MW4 2947   0.233   4.665   1.582 -0.3019  0.0620 -0.1765
  724SOL     OW 2948   0.014   0.079   1.454  0.3113  0.2455 -0.2259
  724SOL    HW2 2949  -0.066   0.037   1.487 -0.5529  0.8047 -1.5516
  724SOL    HW3 2950  -0.004   0.093   1.361  1.0168  2.5699 -0.0321
  724SOL    MW4 2951   0.001   0.075   1.446  0.2903  0.6260 -0.3754
  725SOL     OW 2952   4.477   0.340   1.564  0.0734  0.3017  0.0170
  725SOL    HW2 2953   4.467   0.343   1.659  0.1615  0.3115  0.0267
  725SOL    HW3 2954   4.476   0.246   1.543 -1.3428  0.3435 -0.1332
  725SOL    MW4 2955   4.476   0.328   1.574 -0.1018  0.3085 -0.0014
  726SOL     OW 2956   0.243   0.474   1.482  0.0492  0.0370  0.8926
  726SOL    HW2 2957   0.175   0.407   1.493  1.4464 -1.3766  1.1969
  726SOL    HW3 2958   0.274   0.462   1.392  0.0529  0.5155  0.8306
  726SOL    MW4 2959   0.238   0.463   1.472  0.2341 -0.0864  0.9247
  727SOL     OW 2960   0.219   0.723   1.590 -0.1012  0.5541 -0.2084
  727SOL    HW2 2961   0.295   0.778   1.570  0.1726  1.0344  2.0028
  727SOL    HW3 2962   0.239   0.639   1.549  0.7600  1.2365 -1.2347
  727SOL    MW4 2963   0.232   0.719   1.582  0.0485  0.7075 -0.0521
  728SOL     OW 2964   4.470   0.871   1.516  0.2902  0.0060  0.2235
  728SOL    HW2 2965   4.484   0.959   1.552  2.6295 -0.1793 -0.1816
  728SOL    HW3 2966   4.540   0.818   1.553 -1.0315 -1.6894  0.3633
  728SOL    MW4 2967   4.481   0.876   1.526  0.4244 -0.2421  0.1885
  729SOL     OW 2968   0.012   1.137   1.607  0.1373  0.2918 -0.4085
  729SOL    HW2 2969   0.023   1.133   1.702  1.2520  2.4730 -0.4177
  729SOL    HW3 2970   0.093   1.176   1.575  0.3827 -1.7877 -2.4261
  729SOL    MW4 2971   0.024   1.142   1.615  0.3166  0.3053 -0.6759
  730SOL     OW 2972   0.219   1.273   1.515  0.1375  0.7210 -0.6445
  730SOL    HW2 2973   0.210   1.361   1.552 -1.4420 -0.0073  0.8012
  730SOL    HW3 2974   0.231   1.286   1.421  0.7679  2.5056 -0.3228
  730SOL    MW4 2975   0.220   1.286   1.508  0.0123  0.8603 -0.4113
  731SOL     OW 2976   0.198   1.515   1.614  0.0001  0.0355  0.3285
  731SOL    HW2 2977   0.188   1.505   1.708 -0.4589  1.5322  0.4495
  731SOL    HW3 2978   0.134   1.581   1.590  1.5920  1.2351 -0.7103
  731SOL    MW4 2979   0.188   1.522   1.623  0.1495  0.3912  0.2074
  732SOL     OW 2980   4.476   1.666   1.539  0.2713  0.3005 -0.1827
  732SOL    HW2 2981   4.488   1.758   1.563 -1.0104  0.2058  0.9495
  732SOL    HW3 2982   4.480   1.665   1.444 -1.1264  1.7625 -0.2831
  732SOL    MW4 2983   4.478   1.678   1.530 -0.0820  0.4810 -0.0465
  733SOL     OW 2984   0.040   1.919   1.589 -0.2576 -0.0981  0.2063
  733SOL    HW2 2985   0.038   1.913   1.684  0.0438  2.8651  0.4318
  733SOL    HW3 2986  -0.038   1.970   1.567  0.8555  1.1180 -0.9624
  733SOL    MW4 2987   0.029   1.925   1.599 -0.0708  0.4534  0.0819
  734SOL     OW 2988   0.271   2.082   1.492 -0.6139 -0.2152  0.8451
  734SOL    HW2 2989   0.199   2.024   1.517 -1.4373  0.5802  0.3888
  734SOL    HW3 2990   0.275   2.076   1.396 -0.5353  0.2713  0.8148
  734SOL    MW4 2991   0.262   2.074   1.483 -0.7122 -0.0460  0.7809
  735SOL     OW 2992   0.198   2.342   1.594 -0.0215 -0.3797  0.2156
  735SOL    HW2 2993   0.181   2.326   1.687  1.6285  0.7043  0.7378
  735SOL    HW3 2994   0.241   2.262   1.563  1.3480  0.0729  0.9220
  735SOL    MW4 2995   0.201   2.329   1.602  0.3769 -0.1769  0.3777
  736SOL     OW 2996   4.451   2.469   1.527  0.4440  0.4046  0.4583
  736SOL    HW2 2997   4.382   2.413   1.563  1.0358  0.7171  2.1004
  736SOL    HW3 2998   4.532   2.424   1.546  0.7462  0.2476 -1.1076
  736SOL    MW4 2999   4.452   2.456   1.534  0.5612  0.4253  0.4684
  737SOL     OW 3000   4.486   2.713   1.652 -0.1690 -0.1657 -0.2506
  737SOL    HW2 3001   4.419   2.770   1.614  2.1055  1.1581 -2.4185
  737SOL    HW3 3002   4.475   2.630   1.606 -0.5008 -0.0417 -0.4010
  737SOL    MW4 3003   4.476   2.710   1.641  0.0873  0.0253 -0.5565
  738SOL     OW 3004   0.214   2.818   1.516 -0.5338 -0.0140  0.0948
  738SOL    HW2 3005   0.290   2.778   1.557 -0.3109  2.5306  2.3234
  738SOL    HW3 3006   0.139   2.782   1.563 -0.6144 -1.1360 -0.8768
  738SOL    MW4 3007   0.214   2.808   1.527 -0.5150  0.1736  0.2606
  739SOL     OW 3008   0.279   3.091   1.569 -0.0412  0.1846 -0.3113
  739SOL    HW2 3009   0.214   3.148   1.527 -1.2599 -0.6381  0.4425
  739SOL    HW3 3010   0.254   3.003   1.543  0.9392 -0.1276 -0.2095
  739SOL    MW4 3011   0.267   3.087   1.560 -0.0726  0.0350 -0.1982
  740SOL     OW 3012   0.050   3.223   1.493 -0.5409 -0.0274 -0.2399
  740SOL    HW2 3013   0.049   3.313   1.526  2.4284  0.3145 -0.9101
  740SOL    HW3 3014   0.022   3.230   1.402 -2.1052 -0.0466  0.2315
  740SOL    MW4 3015   0.046   3.236   1.486 -0.3555  0.0150 -0.2661
  741SOL     OW 3016   0.004   3.506   1.594  0.2773 -0.5716  0.0211
  741SOL    HW2 3017   0.010   3.503   1.690  1.0694 -0.3610 -0.0207
  741SOL    HW3 3018  -0.079   3.551   1.577  0.4674  0.0134  0.6072
  741SOL    MW4 3019  -0.006   3.511   1.605  0.4067 -0.4668  0.0930
  742SOL     OW 3020   0.268   3.602   1.505  0.0447 -0.1025 -0.1634
  742SOL    HW2 3021   0.266   3.689   1.546  2.3088 -0.8221  1.6050
  742SOL    HW3 3022   0.187   3.560   1.534 -0.0613  0.6796  0.7035
  742SOL    MW4 3023   0.257   3.608   1.515  0.3294 -0.0942  0.1845
  743SOL     OW 3024   0.438   3.957   1.544  0.0300 -0.1213  0.1794
  743SOL    HW2 3025   0.523   3.929   1.578  1.1364  1.4456 -1.2412
  743SOL    HW3 3026   0.452   3.967   1.450 -2.0089 -0.8238 -0.2197
  743SOL    MW4 3027   0.451   3.955   1.536 -0.0930 -0.0072 -0.0607
  744SOL     OW 3028   4.489   3.996   1.475 -0.4701  0.2713 -0.0410
  744SOL    HW2 3029   4.509   4.080   1.516 -1.0231  1.5235 -2.2618
  744SOL    HW3 3030   4.558   3.937   1.506  1.0096  2.0240  0.0409
  744SOL    MW4 3031   4.501   3.999   1.485 -0.3478  0.6680 -0.3232
  745SOL     OW 3032   4.472   4.235   1.626 -0.4083  0.3728 -0.2061
  745SOL    HW2 3033   4.444   4.216   1.715 -0.6828 -1.7761 -0.7330
  745SOL    HW3 3034   4.411   4.303   1.596  0.6430  2.2103  1.7332
  745SOL    MW4 3035   4.460   4.242   1.634 -0.3057  0.3314 -0.0198
  746SOL     OW 3036   0.224   4.384   1.509  0.0529 -0.2511  0.2656
  746SOL    HW2 3037   0.153   4.335   1.550  0.1678  0.2033  1.0123
  746SOL    HW3 3038   0.212   4.474   1.539  0.1192  0.0960 -0.7280
  746SOL    MW4 3039   0.213   4.389   1.518  0.0768 -0.1454  0.2331
  747SOL     OW 3040   0.697   4.614   1.595 -0.0244  0.0949 -0.2497
  747SOL    HW2 3041   0.774   4.654   1.554 -0.0471 -0.0547 -0.4370
  747SOL    HW3 3042   0.627   4.678   1.581 -0.2175 -0.3052 -1.1346
  747SOL    MW4 3043   0.698   4.628   1.588 -0.0530  0.0219 -0.3912
  748SOL     OW 3044   0.464   0.121   1.537  0.1654  0.8609  0.1831
  748SOL    HW2 3045   0.447   0.212   1.561  0.8234  1.1634 -0.4557
  748SOL    HW3 3046   0.457   0.120   1.441 -0.9345  0.0018  0.2612
  748SOL    MW4 3047   0.461   0.132   1.528  0.1071  0.7875  0.1091
  749SOL     OW 3048   0.438   0.362   1.641 -0.3040 -0.3334  0.0839
  749SOL    HW2 3049   0.516   0.400   1.602 -0.8100  1.0000  0.3344
  749SOL    HW3 3050   0.365   0.406   1.598 -0.8866  0.0195  1.3910
  749SOL    MW4 3051   0.439   0.373   1.630 -0.4477 -0.1109  0.2894
  750SOL     OW 3052   0.653   0.469   1.518  0.0879  0.5199  0.1141
  750SOL    HW2 3053   0.654   0.562   1.540 -0.3155  0.5057  0.1876
  750SOL    HW3 3054   0.654   0.467   1.422  1.1435  0.5889  0.1215
  750SOL    MW4 3055   0.653   0.481   1.508  0.1739  0.5271  0.1247
  751SOL     OW 3056   0.683   0.751   1.589 -0.6963  0.2712  0.3082
  751SOL    HW2 3057   0.670   0.740   1.684 -0.4585 -1.2348  0.1790
  751SOL    HW3 3058   0.771   0.786   1.582 -1.5317  2.5355  0.7488
  751SOL    MW4 3059   0.693   0.754   1.601 -0.7752  0.3713  0.3492
  752SOL     OW 3060   0.442   0.853   1.487  0.4784  0.0965 -0.2268
  752SOL    HW2 3061   0.428   0.945   1.511 -0.2018 -0.4394  1.5355
  752SOL    HW3 3062   0.524   0.829   1.529 -0.0198 -0.4678  0.4418
  752SOL    MW4 3063   0.451   0.862   1.496  0.3230 -0.0486  0.0941
  753SOL     OW 3064   0.440   1.126   1.591 -0.1999  0.2755  0.4264
  753SOL    HW2 3065   0.522   1.168   1.563  0.1003 -0.6580 -0.1546
  753SOL    HW3 3066   0.371   1.182   1.557  0.1708 -0.5276 -1.7378
  753SOL    MW4 3067   0.442   1.139   1.582 -0.1113  0.0465  0.0643
  754SOL     OW 3068   0.663   1.261   1.498 -0.5804 -0.0585 -0.3138
  754SOL    HW2 3069   0.673   1.345   1.544 -1.7103  0.7031 -1.3955
  754SOL    HW3 3070   0.654   1.286   1.406  0.6771 -1.4918 -0.8414
  754SOL    MW4 3071   0.663   1.276   1.492 -0.5636 -0.1472 -0.5262
  755SOL     OW 3072   0.691   1.500   1.608 -0.1647  0.0571  0.0518
  755SOL    HW2 3073   0.767   1.545   1.571 -0.6705  1.2987  0.5097
  755SOL    HW3 3074   0.616   1.551   1.578 -0.5691  1.2692  3.0207
  755SOL    MW4 3075   0.691   1.513   1.599 -0.2849  0.3810  0.5039
  756SOL     OW 3076   0.473   1.641   1.537 -0.0825  0.5210 -0.0602
  756SOL    HW2 3077   0.463   1.727   1.578  0.3871 -0.2460  1.7403
  756SOL    HW3 3078   0.394   1.593   1.562 -0.1429  0.2893 -0.6935
  756SOL    MW4 3079   0.461   1.646   1.546 -0.0285  0.3893  0.0938
  757SOL     OW 3080   0.466   1.923   1.600  0.6376 -0.1359  0.4758
  757SOL    HW2 3081   0.454   1.918   1.695 -1.6363 -1.4076  0.1671
  757SOL    HW3 3082   0.389   1.969   1.568  0.5244 -1.2380 -0.8964
  757SOL    MW4 3083   0.454   1.928   1.609  0.3227 -0.4491  0.2540
  758SOL     OW 3084   0.664   2.081   1.495 -0.2561 -0.4800 -1.0471
  758SOL    HW2 3085   0.732   2.020   1.522 -0.3437 -0.8473 -1.6641
  758SOL    HW3 3086   0.584   2.049   1.537 -0.0066  0.0832 -0.1345
  758SOL    MW4 3087   0.662   2.069   1.504 -0.2348 -0.4542 -1.0080
  759SOL     OW 3088   0.682   2.305   1.640  0.0538 -0.3700  0.3225
  759SOL    HW2 3089   0.607   2.356   1.610 -0.3754 -1.5616 -0.6321
  759SOL    HW3 3090   0.677   2.223   1.592  1.9751 -0.4590  0.2319
  759SOL    MW4 3091   0.672   2.301   1.630  0.2507 -0.5391  0.1845
  760SOL     OW 3092   0.460   2.461   1.549  0.1738 -0.5628  0.1235
  760SOL    HW2 3093   0.466   2.552   1.579  1.0324 -0.4831 -0.2884
  760SOL    HW3 3094   0.375   2.431   1.581  0.0201  0.2911  0.5243
  760SOL    MW4 3095   0.449   2.469   1.557  0.2668 -0.4394  0.1221
  761SOL     OW 3096   0.469   2.720   1.619  0.6359  0.1977  0.3563
  761SOL    HW2 3097   0.483   2.728   1.713 -0.0333  1.4806  0.3586
  761SOL    HW3 3098   0.547   2.757   1.579  0.0169  1.5762  0.4034
  761SOL    MW4 3099   0.481   2.726   1.626  0.4659  0.5488  0.3629
  762SOL     OW 3100   0.708   2.826   1.512  0.2428  0.4655  0.2813
  762SOL    HW2 3101   0.711   2.916   1.544  2.3517  0.4970  0.0632
  762SOL    HW3 3102   0.717   2.833   1.417  2.6442 -0.0499  0.4313
  762SOL    MW4 3103   0.709   2.839   1.503  0.8379  0.4015  0.2723
  763SOL     OW 3104   0.744   3.079   1.584  0.1756 -0.4671 -0.2205
  763SOL    HW2 3105   0.820   3.118   1.540 -0.3894  3.1611  1.8049
  763SOL    HW3 3106   0.673   3.141   1.568 -1.1225 -1.3463  1.9885
  763SOL    MW4 3107   0.745   3.093   1.576 -0.0702 -0.1044  0.3382
  764SOL     OW 3108   0.520   3.239   1.545 -0.1995 -0.0054  0.1647
  764SOL    HW2 3109   0.444   3.181   1.554  1.0087 -1.7659 -0.7410
  764SOL    HW3 3110   0.534   3.245   1.450  0.6663  0.4654  0.3194
  764SOL    MW4 3111   0.512   3.232   1.534  0.0741 -0.1755  0.0656
  765SOL     OW 3112   0.497   3.490   1.630 -0.2126 -0.3572 -0.0891
  765SOL    HW2 3113   0.500   3.397   1.608 -0.6918 -0.1304 -1.1136
  765SOL    HW3 3114   0.420   3.524   1.584  0.7734  0.8500 -0.8907
  765SOL    MW4 3115   0.487   3.482   1.621 -0.1458 -0.1678 -0.3300
  766SOL     OW 3116   0.731   3.597   1.514 -0.6384  0.4128  0.1435
  766SOL    HW2 3117   0.797   3.531   1.536 -0.1263  0.8506 -0.0574
  766SOL    HW3 3118   0.651   3.568   1.558 -0.3331 -0.1763  0.3033
  766SOL    MW4 3119   0.729   3.585   1.522 -0.5305  0.3927  0.1379
  767SOL     OW 3120   0.702   3.849   1.603 -0.3860 -0.1883 -0.2762
  767SOL    HW2 3121   0.779   3.900   1.581  0.1328 -1.7311 -2.1825
  767SOL    HW3 3122   0.718   3.763   1.563 -2.1342 -1.1893  1.1118
  767SOL    MW4 3123   0.714   3.844   1.595 -0.5482 -0.5238 -0.3445
  768SOL     OW 3124   0.191   3.862   1.617 -0.3086 -0.2115 -0.1153
  768SOL    HW2 3125   0.196   3.873   1.712  0.4114 -0.1612 -0.1553
  768SOL    HW3 3126   0.270   3.904   1.584 -0.3349 -0.6200 -0.7021
  768SOL    MW4 3127   0.202   3.869   1.625 -0.2171 -0.2587 -0.1981
  769SOL     OW 3128   0.455   4.231   1.642  0.3257  0.5687 -0.1717
  769SOL    HW2 3129   0.459   4.144   1.603 -0.3361 -0.4852  1.9989
  769SOL    HW3 3130   0.381   4.274   1.598  0.2147 -0.2213 -0.7635
  769SOL    MW4 3131   0.446   4.225   1.631  0.2237  0.3262  0.0366
  770SOL     OW 3132   0.659   4.354   1.498  0.0632  0.1026  0.2113
  770SOL    HW2 3133   0.601   4.318   1.565  0.8364 -0.3855  0.6130
  770SOL    HW3 3134   0.670   4.446   1.522 -0.4116  0.1568  0.2248
  770SOL    MW4 3135   0.653   4.361   1.510  0.1026  0.0453  0.2662
  771SOL     OW 3136   1.163   4.641   1.612 -0.2399  0.1993  0.7782
  771SOL    HW2 3137   1.158   4.644   1.707  1.9641  0.0214  0.9233
  771SOL    HW3 3138   1.241   4.692   1.590 -1.7077  1.7647 -1.0494
  771SOL    MW4 3139   1.173   4.648   1.621 -0.1428  0.3824  0.5563
  772SOL     OW 3140   0.934   0.092   1.488 -0.5389  0.0148  0.0421
  772SOL    HW2 3141   0.923   0.179   1.526 -1.4227  0.1372 -0.4651
  772SOL    HW3 3142   1.005   0.052   1.539 -1.9344  0.0245  2.0948
  772SOL    MW4 3143   0.942   0.098   1.500 -0.8397  0.0322  0.2459
  773SOL     OW 3144   0.899   0.351   1.605  0.1109 -0.2415  0.3228
  773SOL    HW2 3145   0.904   0.345   1.700  1.4032  0.3803  0.3139
  773SOL    HW3 3146   0.811   0.385   1.587  0.1321  0.3594  1.3401
  773SOL    MW4 3147   0.888   0.355   1.615  0.2843 -0.0802  0.4559
  774SOL     OW 3148   1.135   0.482   1.487  0.0975  0.2804  0.4309
  774SOL    HW2 3149   1.131   0.575   1.509 -0.7413  0.6731 -1.2870
  774SOL    HW3 3150   1.052   0.446   1.520 -0.3295  0.4972 -0.3790
  774SOL    MW4 3151   1.123   0.490   1.495 -0.0697  0.3608  0.0973
  775SOL     OW 3152   1.138   0.768   1.548  0.0468 -0.2020  0.3411
  775SOL    HW2 3153   1.117   0.764   1.641  1.4392 -1.0427  0.6223
  775SOL    HW3 3154   1.222   0.814   1.544  0.4513 -0.9973 -0.4274
  775SOL    MW4 3155   1.146   0.774   1.560  0.2840 -0.4178  0.2770
  776SOL     OW 3156   0.893   0.914   1.507 -0.6934  0.9663  0.0523
  776SOL    HW2 3157   0.968   0.856   1.518 -1.3386  0.3761  1.4597
  776SOL    HW3 3158   0.871   0.906   1.414 -0.5627 -0.7881  0.1459
  776SOL    MW4 3159   0.900   0.905   1.496 -0.7613  0.6571  0.2503
  777SOL     OW 3160   0.904   1.158   1.590 -0.3675 -0.0138 -0.0822
  777SOL    HW2 3161   0.897   1.068   1.559  0.1911  0.4222 -1.5377
  777SOL    HW3 3162   0.822   1.199   1.561 -0.2990  0.1298 -0.0689
  777SOL    MW4 3163   0.892   1.151   1.582 -0.2847  0.0627 -0.2725
  778SOL     OW 3164   1.124   1.313   1.495 -0.4672 -0.9163  0.1319
  778SOL    HW2 3165   1.191   1.279   1.554 -0.8291 -1.3465  0.3048
  778SOL    HW3 3166   1.048   1.257   1.512 -0.6235 -0.9291 -0.6137
  778SOL    MW4 3167   1.123   1.301   1.505 -0.5356 -0.9747  0.0565
  779SOL     OW 3168   1.140   1.574   1.591  0.4985 -0.1893  0.3888
  779SOL    HW2 3169   1.210   1.614   1.539 -0.5329  1.3010  0.1333
  779SOL    HW3 3170   1.140   1.482   1.563  2.1108 -0.1381  0.1467
  779SOL    MW4 3171   1.149   1.567   1.580  0.5753  0.0141  0.3233
  780SOL     OW 3172   0.890   1.651   1.478  0.4347  0.3489 -0.3788
  780SOL    HW2 3173   0.978   1.627   1.506  1.0109  2.4705 -0.2312
  780SOL    HW3 3174   0.900   1.678   1.387 -0.1986 -0.1249 -0.5933
  780SOL    MW4 3175   0.903   1.652   1.470  0.4271  0.5664 -0.3874
  781SOL     OW 3176   0.867   1.914   1.567 -0.0159 -0.0614 -0.6247
  781SOL    HW2 3177   0.949   1.957   1.543  0.6931 -0.5762  0.8065
  781SOL    HW3 3178   0.880   1.822   1.545 -0.1860 -0.1563 -0.3326
  781SOL    MW4 3179   0.880   1.908   1.561  0.0552 -0.1417 -0.3972
  782SOL     OW 3180   1.100   2.044   1.513  0.1352  0.6545 -0.4197
  782SOL    HW2 3181   1.167   2.000   1.565 -1.2080 -0.8184  0.0976
  782SOL    HW3 3182   1.095   2.132   1.550  1.5673  0.6944 -0.2840
  782SOL    MW4 3183   1.108   2.050   1.525  0.1471  0.4652 -0.3334
  783SOL     OW 3184   1.121   2.299   1.629  0.1962 -0.3215  0.0553
  783SOL    HW2 3185   1.191   2.334   1.574 -0.5215 -0.4384 -0.9570
  783SOL    HW3 3186   1.041   2.325   1.585 -0.3677 -2.9306 -0.5585
  783SOL    MW4 3187   1.120   2.307   1.616  0.0271 -0.6814 -0.1594
  784SOL     OW 3188   0.901   2.435   1.527  0.0882 -0.1794  0.6725
  784SOL    HW2 3189   0.912   2.526   1.553  1.0971  0.2163 -1.0729
  784SOL    HW3 3190   0.833   2.401   1.585  0.6851  1.2930  2.2544
  784SOL    MW4 3191   0.893   2.442   1.538  0.3000  0.0672  0.6509
  785SOL     OW 3192   0.943   2.716   1.609  0.0230  0.3476 -0.4608
  785SOL    HW2 3193   0.930   2.711   1.704  1.0871 -0.4408 -0.3477
  785SOL    HW3 3194   0.862   2.756   1.576 -0.7176 -0.1634  0.6834
  785SOL    MW4 3195   0.930   2.720   1.617  0.0657  0.1760 -0.2947
  786SOL     OW 3196   1.169   2.807   1.457  0.2625  0.6091  0.5787
  786SOL    HW2 3197   1.181   2.900   1.476  0.2790  0.6602  0.3227
  786SOL    HW3 3198   1.099   2.779   1.516 -0.4539  1.0298 -0.0650
  786SOL    MW4 3199   1.161   2.815   1.467  0.1700  0.6714  0.4600
  787SOL     OW 3200   1.192   3.058   1.564  0.0152 -0.2061  0.5064
  787SOL    HW2 3201   1.185   3.049   1.659  0.5208  1.8016  0.7483
  787SOL    HW3 3202   1.258   3.126   1.551 -1.9780  1.4635 -1.2179
  787SOL    MW4 3203   1.200   3.066   1.575 -0.1812  0.2789  0.3108
  788SOL     OW 3204   0.979   3.211   1.447 -0.3474 -0.2434  0.0908
  788SOL    HW2 3205   1.054   3.160   1.478  0.2353  0.7844  0.3917
  788SOL    HW3 3206   0.970   3.186   1.355  0.0333 -0.7766  0.1945
  788SOL    MW4 3207   0.988   3.201   1.439 -0.2202 -0.1781  0.1441
  789SOL     OW 3208   0.945   3.428   1.599  0.0495  0.0097 -0.1062
  789SOL    HW2 3209   1.000   3.484   1.544  1.0415 -1.1214 -0.2872
  789SOL    HW3 3210   0.948   3.343   1.556 -0.4370 -0.4981  0.8576
  789SOL    MW4 3211   0.953   3.424   1.586  0.1162 -0.2065 -0.0029
  790SOL     OW 3212   1.122   3.614   1.503  0.2354 -0.1921 -0.0257
  790SOL    HW2 3213   1.208   3.576   1.519 -0.0612 -0.8616 -0.0322
  790SOL    HW3 3214   1.123   3.639   1.410  0.5236  0.0675  0.0473
  790SOL    MW4 3215   1.133   3.612   1.492  0.2344 -0.2465 -0.0169
  791SOL     OW 3216   1.173   3.846   1.655 -0.1515  0.2357 -0.5702
  791SOL    HW2 3217   1.244   3.890   1.608  0.8939 -0.3096  0.4678
  791SOL    HW3 3218   1.153   3.769   1.602  0.0983  0.3439 -0.8192
  791SOL    MW4 3219   1.180   3.841   1.642  0.0194  0.1779 -0.4660
  792SOL     OW 3220   0.941   3.988   1.546  0.0586 -0.1676  0.1844
  792SOL    HW2 3221   0.932   4.078   1.579  1.1056  0.2029 -0.5048
  792SOL    HW3 3222   1.022   3.956   1.585 -0.4888 -0.9559  0.7063
  792SOL    MW4 3223   0.950   3.996   1.556  0.1245 -0.2227  0.1624
  793SOL     OW 3224   0.899   4.247   1.643 -0.2044 -0.1972 -1.0354
  793SOL    HW2 3225   0.893   4.265   1.737 -0.3468 -1.9744 -0.6819
  793SOL    HW3 3226   0.824   4.293   1.605 -0.8664 -0.4785 -0.1033
  793SOL    MW4 3227   0.888   4.256   1.651 -0.3105 -0.4687 -0.8658
  794SOL     OW 3228   1.128   4.371   1.504  0.3404 -0.1300  0.0213
  794SOL    HW2 3229   1.053   4.332   1.548 -1.5670  1.3809 -1.7745
  794SOL    HW3 3230   1.128   4.462   1.532  1.0988  0.0429 -0.5089
  794SOL    MW4 3231   1.118   4.378   1.513  0.1887  0.0925 -0.2857
  795SOL     OW 3232   1.609   4.658   1.594 -0.0741 -0.3205  0.3009
  795SOL    HW2 3233   1.609   4.652   1.689 -2.2719  0.4673  0.3854
  795SOL    HW3 3234   1.526   4.701   1.573  1.5282  1.8483 -1.8307
  795SOL    MW4 3235   1.598   4.663   1.603 -0.1526  0.0696  0.0310
  796SOL     OW 3236   1.373   0.127   1.546 -0.2367 -0.2973  0.1143
  796SOL    HW2 3237   1.353   0.216   1.576 -1.1215 -1.0955  1.9737
  796SOL    HW3 3238   1.350   0.128   1.454 -0.1003  1.4422  0.0653
  796SOL    MW4 3239   1.367   0.139   1.538 -0.3356 -0.1731  0.3531
  797SOL     OW 3240   1.342   0.378   1.623 -0.0421  0.4430 -0.6896
  797SOL    HW2 3241   1.411   0.437   1.593 -1.7911  2.5555 -0.6879
  797SOL    HW3 3242   1.263   0.411   1.582 -1.6886  0.4274  2.3169
  797SOL    MW4 3243   1.341   0.390   1.614 -0.4900  0.7197 -0.2928
  798SOL     OW 3244   1.571   0.514   1.532  0.1199  0.1643 -0.4011
  798SOL    HW2 3245   1.653   0.473   1.559 -0.4040 -0.3754  0.3945
  798SOL    HW3 3246   1.574   0.513   1.437  0.9511 -0.0379 -0.3749
  798SOL    MW4 3247   1.582   0.508   1.523  0.1603  0.0665 -0.2928
  799SOL     OW 3248   1.616   0.780   1.621  0.1395  0.1264  0.7006
  799SOL    HW2 3249   1.598   0.793   1.714 -0.3950  0.8155  0.5085
  799SOL    HW3 3250   1.604   0.687   1.607 -1.6131  0.3040  0.9522
  799SOL    MW4 3251   1.612   0.770   1.631 -0.1622  0.2408  0.7086
  800SOL     OW 3252   1.376   0.902   1.522 -0.7456  0.2338  0.1381
  800SOL    HW2 3253   1.466   0.883   1.548 -0.3698  1.6266 -0.1118
  800SOL    HW3 3254   1.378   0.901   1.426 -0.9043  0.6707  0.1294
  800SOL    MW4 3255   1.388   0.899   1.513 -0.7170  0.4752  0.1040
  801SOL     OW 3256   1.333   1.163   1.622  0.4521 -0.0714  0.0103
  801SOL    HW2 3257   1.346   1.158   1.716  0.9982 -0.1366 -0.0642
  801SOL    HW3 3258   1.325   1.071   1.594 -1.0500  0.0002  0.1679
  801SOL    MW4 3259   1.334   1.150   1.631  0.3259 -0.0706  0.0213
  802SOL     OW 3260   1.566   1.276   1.532  0.1081  0.0028  0.3998
  802SOL    HW2 3261   1.485   1.241   1.570  1.0412 -2.8824 -0.1905
  802SOL    HW3 3262   1.559   1.256   1.438  1.8765 -1.0449  0.4757
  802SOL    MW4 3263   1.554   1.269   1.525  0.4646 -0.5159  0.3320
  803SOL     OW 3264   1.564   1.545   1.576  0.1226  0.5783 -0.5908
  803SOL    HW2 3265   1.565   1.544   1.672  0.0313  1.6099 -0.5705
  803SOL    HW3 3266   1.565   1.453   1.551 -0.0844  0.2985  0.4060
  803SOL    MW4 3267   1.565   1.533   1.585  0.0832  0.6776 -0.4567
  804SOL     OW 3268   1.349   1.686   1.462  0.1388 -0.1741 -0.4585
  804SOL    HW2 3269   1.413   1.630   1.507  0.4784  0.5404 -0.0389
  804SOL    HW3 3270   1.361   1.666   1.369  0.5286 -0.5074 -0.3405
  804SOL    MW4 3271   1.359   1.676   1.456  0.2351 -0.1239 -0.3875
  805SOL     OW 3272   1.326   1.936   1.624 -0.3677 -0.1393 -0.2906
  805SOL    HW2 3273   1.358   1.927   1.714 -1.5951  1.8281  0.3785
  805SOL    HW3 3274   1.341   1.850   1.585  1.7827 -0.5164  1.2548
  805SOL    MW4 3275   1.332   1.923   1.631 -0.2458  0.0706  0.0017
  806SOL     OW 3276   1.556   2.090   1.539  0.2947 -0.0028  0.1725
  806SOL    HW2 3277   1.469   2.051   1.551 -0.4739  1.5937 -0.1438
  806SOL    HW3 3278   1.562   2.106   1.444  0.3701  1.1854  0.3765
  806SOL    MW4 3279   1.545   2.087   1.528  0.2033  0.3648  0.1577
  807SOL     OW 3280   1.590   2.346   1.650  0.2702 -0.3343  0.3769
  807SOL    HW2 3281   1.670   2.392   1.624  0.4235 -0.5579  0.4500
  807SOL    HW3 3282   1.604   2.256   1.622  0.9546 -0.8539  2.2930
  807SOL    MW4 3283   1.603   2.341   1.643  0.3808 -0.4323  0.6393
  808SOL     OW 3284   1.369   2.430   1.518  0.5443  0.7442 -0.2423
  808SOL    HW2 3285   1.381   2.520   1.549  1.0576  0.7788 -0.5356
  808SOL    HW3 3286   1.455   2.390   1.525  0.8160  0.9354 -2.1527
  808SOL    MW4 3287   1.382   2.437   1.523  0.6479  0.7741 -0.5330
  809SOL     OW 3288   1.377   2.710   1.592  0.2403  0.3505 -0.5386
  809SOL    HW2 3289   1.441   2.772   1.556  0.4039 -0.2831 -1.3471
  809SOL    HW3 3290   1.293   2.736   1.553  0.2998  0.0972 -0.8363
  809SOL    MW4 3291   1.374   2.722   1.582  0.2698  0.2337 -0.6846
  810SOL     OW 3292   1.571   2.878   1.506 -0.6210 -0.4735  0.0028
  810SOL    HW2 3293   1.662   2.853   1.519 -0.2425  0.5082 -0.6368
  810SOL    HW3 3294   1.561   2.883   1.411 -1.2634 -0.3048  0.0754
  810SOL    MW4 3295   1.581   2.876   1.495 -0.6558 -0.3216 -0.0720
  811SOL     OW 3296   1.576   3.128   1.651 -0.0461 -0.2049  0.1517
  811SOL    HW2 3297   1.650   3.172   1.609 -0.0429 -0.6204 -0.2798
  811SOL    HW3 3298   1.569   3.044   1.606 -0.2723 -0.5046  0.7380
  811SOL    MW4 3299   1.584   3.123   1.639 -0.0756 -0.2995  0.1721
  812SOL     OW 3300   1.384   3.244   1.494 -0.8237  0.0511  0.2442
  812SOL    HW2 3301   1.367   3.325   1.542 -1.0568 -0.3165  0.7925
  812SOL    HW3 3302   1.452   3.200   1.545  0.0254  0.3773 -0.6128
  812SOL    MW4 3303   1.391   3.249   1.507 -0.7423  0.0455  0.2034
  813SOL     OW 3304   1.352   3.506   1.604 -0.4865  0.3321  0.2758
  813SOL    HW2 3305   1.367   3.488   1.697  0.1382 -0.6054  0.0065
  813SOL    HW3 3306   1.434   3.545   1.574 -0.5260  0.2214  0.0222
  813SOL    MW4 3307   1.365   3.509   1.612 -0.4092  0.1938  0.2067
  814SOL     OW 3308   1.571   3.641   1.538 -0.4083  0.4345  0.1727
  814SOL    HW2 3309   1.577   3.734   1.561 -1.0348  1.2527 -2.8049
  814SOL    HW3 3310   1.601   3.636   1.447  0.4764 -2.4372  0.5531
  814SOL    MW4 3311   1.576   3.653   1.529 -0.3741  0.1636 -0.1699
  815SOL     OW 3312   1.616   3.902   1.583  0.0043  0.0511  0.0537
  815SOL    HW2 3313   1.623   3.891   1.678  0.5316  1.2753  0.1641
  815SOL    HW3 3314   1.526   3.932   1.569 -0.2690 -0.7209  0.0940
  815SOL    MW4 3315   1.605   3.904   1.594  0.0378  0.1111  0.0736
  816SOL     OW 3316   1.366   3.988   1.530  0.1699 -0.3756 -0.1877
  816SOL    HW2 3317   1.352   4.079   1.556  1.0381 -0.1269 -0.5838
  816SOL    HW3 3318   1.372   3.991   1.435 -0.4163 -0.9332 -0.2418
  816SOL    MW4 3319   1.365   4.001   1.521  0.2072 -0.4163 -0.2470
  817SOL     OW 3320   1.352   4.248   1.622 -0.0105 -0.2860 -0.0590
  817SOL    HW2 3321   1.429   4.297   1.592  0.2574 -0.8607 -0.3181
  817SOL    HW3 3322   1.278   4.291   1.580  0.1313  0.4730  0.4384
  817SOL    MW4 3323   1.353   4.260   1.613  0.0435 -0.2623 -0.0275
  818SOL     OW 3324   1.582   4.383   1.547  0.0519  0.4842 -0.3699
  818SOL    HW2 3325   1.667   4.361   1.586  0.7720  0.7246 -1.7566
  818SOL    HW3 3326   1.568   4.474   1.570  0.3244  0.5367 -0.4028
  818SOL    MW4 3327   1.592   4.392   1.555  0.1829  0.5226 -0.5571
  819SOL     OW 3328   2.047   0.011   1.626 -0.4129  0.2905  0.2376
  819SOL    HW2 3329   2.035  -0.010   1.719 -0.2708 -2.0414 -0.2455
  819SOL    HW3 3330   1.963   0.045   1.598 -1.3464 -1.6996  0.5423
  819SOL    MW4 3331   2.035   0.013   1.635 -0.5176 -0.2799  0.2140
  820SOL     OW 3332   1.816   0.143   1.511  0.0970 -0.3688 -0.2325
  820SOL    HW2 3333   1.740   0.088   1.530 -1.0822  1.0761 -0.6515
  820SOL    HW3 3334   1.817   0.150   1.415  0.9718 -0.6541 -0.2517
  820SOL    MW4 3335   1.806   0.137   1.501  0.0567 -0.2158 -0.2904
  821SOL     OW 3336   1.815   0.391   1.626  0.3012  0.2220 -0.0658
  821SOL    HW2 3337   1.889   0.425   1.576  0.2716  1.0484  0.4487
  821SOL    HW3 3338   1.801   0.303   1.591 -0.5723  1.2595 -2.4274
  821SOL    MW4 3339   1.823   0.384   1.615  0.1822  0.4680 -0.3095
  822SOL     OW 3340   2.014   0.516   1.495 -0.1550 -0.4121  0.6971
  822SOL    HW2 3341   2.090   0.473   1.534  0.1501 -0.1983  0.3366
  822SOL    HW3 3342   2.000   0.594   1.550  0.5916  0.1681  0.0797
  822SOL    MW4 3343   2.022   0.521   1.508 -0.0162 -0.3074  0.5680
  823SOL     OW 3344   2.020   0.757   1.632  0.3390 -0.4793 -0.2479
  823SOL    HW2 3345   2.085   0.823   1.609 -0.9214  0.7201 -0.4291
  823SOL    HW3 3346   1.936   0.796   1.608 -0.4896 -1.8485  0.3313
  823SOL    MW4 3347   2.017   0.771   1.626  0.0634 -0.5018 -0.1955
  824SOL     OW 3348   1.828   0.911   1.495 -0.7048 -0.1989  0.1685
  824SOL    HW2 3349   1.841   1.002   1.525 -0.9141 -0.1305  0.0534
  824SOL    HW3 3350   1.755   0.879   1.548 -1.0224 -0.1047 -0.2093
  824SOL    MW4 3351   1.820   0.919   1.506 -0.7744 -0.1775  0.1035
  825SOL     OW 3352   1.786   1.157   1.647  0.1514  0.1732  0.0300
  825SOL    HW2 3353   1.864   1.196   1.608 -0.0620 -0.7539 -1.3509
  825SOL    HW3 3354   1.713   1.206   1.608 -0.0633 -0.7348 -0.7137
  825SOL    MW4 3355   1.787   1.169   1.637  0.0949 -0.0689 -0.2502
  826SOL     OW 3356   1.993   1.302   1.531  0.2762 -0.0912  0.0085
  826SOL    HW2 3357   1.975   1.395   1.542 -0.6964 -0.0879 -1.5138
  826SOL    HW3 3358   1.998   1.290   1.437  0.2836 -1.6133  0.1979
  826SOL    MW4 3359   1.991   1.313   1.520  0.1489 -0.2916 -0.1673
  827SOL     OW 3360   1.965   1.577   1.597 -0.2828  0.2240 -0.6684
  827SOL    HW2 3361   2.036   1.620   1.549 -1.4282 -0.1018 -2.7319
  827SOL    HW3 3362   1.887   1.627   1.574 -1.1457 -1.0491 -0.5760
  827SOL    MW4 3363   1.964   1.589   1.588 -0.5476  0.0131 -0.9284
  828SOL     OW 3364   1.739   1.726   1.479 -0.3851  0.2341 -0.0033
  828SOL    HW2 3365   1.669   1.664   1.497 -0.7902  0.7764  0.2853
  828SOL    HW3 3366   1.769   1.702   1.391 -0.9691  0.0361 -0.1550
  828SOL    MW4 3367   1.734   1.715   1.470 -0.5157  0.2795  0.0148
  829SOL     OW 3368   1.795   1.983   1.599  0.5728 -0.0583  0.4149
  829SOL    HW2 3369   1.790   1.897   1.557  2.4443 -0.2582  0.5742
  829SOL    HW3 3370   1.710   2.023   1.581 -0.0872 -1.6856 -0.2084
  829SOL    MW4 3371   1.783   1.977   1.591  0.7325 -0.2995  0.3537
  830SOL     OW 3372   2.046   2.097   1.525 -0.2060  0.0607 -0.3648
  830SOL    HW2 3373   2.113   2.033   1.552 -1.0632 -1.4238 -1.6307
  830SOL    HW3 3374   1.965   2.064   1.563 -0.4951  0.9471 -0.2123
  830SOL    MW4 3375   2.044   2.084   1.534 -0.3572 -0.0179 -0.5118
  831SOL     OW 3376   2.032   2.360   1.583  0.1897  0.4951  0.3908
  831SOL    HW2 3377   2.027   2.363   1.679 -0.8703 -0.8218  0.3921
  831SOL    HW3 3378   2.030   2.266   1.562 -0.6882  0.7990 -0.9722
  831SOL    MW4 3379   2.031   2.348   1.593 -0.0658  0.3614  0.2112
  832SOL     OW 3380   1.797   2.506   1.523  0.3893 -0.1095 -0.3972
  832SOL    HW2 3381   1.885   2.468   1.525 -0.6586 -2.5684  0.9686
  832SOL    HW3 3382   1.770   2.500   1.432  1.4929  0.3192 -0.7611
  832SOL    MW4 3383   1.805   2.500   1.511  0.3965 -0.3772 -0.2650
  833SOL     OW 3384   1.787   2.755   1.631  0.3704  0.4779  0.2320
  833SOL    HW2 3385   1.866   2.800   1.603 -0.0275 -0.1952 -2.1067
  833SOL    HW3 3386   1.792   2.669   1.589 -0.8383 -0.1649  1.3385
  833SOL    MW4 3387   1.798   2.749   1.622  0.1585  0.3045  0.0695
  834SOL     OW 3388   2.039   2.860   1.526 -0.7198 -0.2620  0.5150
  834SOL    HW2 3389   2.043   2.954   1.547  0.7264 -0.4349  1.1025
  834SOL    HW3 3390   2.040   2.857   1.431  1.4622  0.2715  0.4882
  834SOL    MW4 3391   2.040   2.872   1.516 -0.2410 -0.2143  0.5890
  835SOL     OW 3392   2.010   3.112   1.628 -0.2553 -0.1252 -0.1331
  835SOL    HW2 3393   2.005   3.104   1.723  0.4115 -2.7316 -0.2735
  835SOL    HW3 3394   2.093   3.157   1.612 -0.0267 -0.3090  0.5141
  835SOL    MW4 3395   2.020   3.117   1.638 -0.1373 -0.4935 -0.0663
  836SOL     OW 3396   1.800   3.244   1.514 -0.1018 -0.0302 -0.0176
  836SOL    HW2 3397   1.814   3.336   1.535  0.4818 -0.2139  0.4062
  836SOL    HW3 3398   1.876   3.199   1.551  0.8989 -0.3820 -2.3770
  836SOL    MW4 3399   1.812   3.250   1.521  0.1072 -0.1009 -0.2729
  837SOL     OW 3400   1.810   3.524   1.584  0.5565  0.3183  0.0326
  837SOL    HW2 3401   1.825   3.507   1.677  0.7111 -0.0403 -0.0564
  837SOL    HW3 3402   1.721   3.559   1.580  0.6998  0.7265  0.3599
  837SOL    MW4 3403   1.800   3.526   1.596  0.5957  0.3250  0.0640
  838SOL     OW 3404   2.008   3.687   1.487  0.0308  0.1752  0.0854
  838SOL    HW2 3405   2.076   3.629   1.519  0.5660  0.2291 -0.9588
  838SOL    HW3 3406   1.927   3.652   1.525  0.4682 -0.6538  0.2542
  838SOL    MW4 3407   2.006   3.675   1.496  0.1590  0.0727 -0.0300
  839SOL     OW 3408   2.045   3.918   1.619 -0.3183 -0.1387 -0.4323
  839SOL    HW2 3409   2.131   3.953   1.594 -0.0262 -0.1466  0.5251
  839SOL    HW3 3410   2.043   3.830   1.582  1.0448 -1.0071  1.4915
  839SOL    MW4 3411   2.056   3.911   1.611 -0.0999 -0.2544 -0.0521
  840SOL     OW 3412   1.828   4.066   1.501  0.2676  0.8530 -0.4281
  840SOL    HW2 3413   1.900   4.007   1.522 -0.2445  0.2162 -0.4553
  840SOL    HW3 3414   1.750   4.020   1.529 -0.1024  1.7327  0.0079
  840SOL    MW4 3415   1.828   4.052   1.507  0.1514  0.8850 -0.3741
  841SOL     OW 3416   1.820   4.297   1.651 -0.2142  0.2611 -0.2956
  841SOL    HW2 3417   1.885   4.352   1.608 -0.6494  0.7077 -0.3989
  841SOL    HW3 3418   1.819   4.217   1.599  1.1645 -0.2662  0.4737
  841SOL    MW4 3419   1.828   4.294   1.638 -0.0896  0.2508 -0.2077
  842SOL     OW 3420   2.046   4.421   1.520 -0.2162 -0.0763  0.3126
  842SOL    HW2 3421   2.115   4.359   1.542 -1.3803 -0.8092  1.9751
  842SOL    HW3 3422   2.072   4.502   1.565  0.4864  0.1976 -0.5665
  842SOL    MW4 3423   2.059   4.424   1.529 -0.2770 -0.1373  0.4160
  843SOL     OW 3424   2.487   4.667   1.559  0.1159  0.1132  0.0824
  843SOL    HW2 3425   2.484   4.661   1.655 -1.7429  0.7177  0.0773
  843SOL    HW3 3426   2.408   4.715   1.535  0.6554  0.1292 -1.7555
  843SOL    MW4 3427   2.476   4.672   1.569 -0.0582  0.1950 -0.1608
  844SOL     OW 3428   2.251   0.161   1.501  0.2127  0.0476  0.6267
  844SOL    HW2 3429   2.184   0.112   1.549 -0.9069  0.6206 -0.3175
  844SOL    HW3 3430   2.246   0.127   1.412  0.1131  1.1680  0.1981
  844SOL    MW4 3431   2.241   0.150   1.496  0.0517  0.2710  0.4456
  845SOL     OW 3432   2.237   0.408   1.614  0.3238 -0.1790 -0.4344
  845SOL    HW2 3433   2.253   0.393   1.707 -2.5125 -2.3316 -0.2418
  845SOL    HW3 3434   2.243   0.321   1.575  0.2515  0.5455 -2.0833
  845SOL    MW4 3435   2.240   0.395   1.621 -0.0601 -0.3674 -0.6267
  846SOL     OW 3436   2.459   0.558   1.486  0.8588 -0.2769 -0.3335
  846SOL    HW2 3437   2.535   0.511   1.520  1.4596 -0.6722 -2.1805
  846SOL    HW3 3438   2.384   0.506   1.516  1.4319 -1.3514 -0.7333
  846SOL    MW4 3439   2.459   0.545   1.494  1.0133 -0.4709 -0.6301
  847SOL     OW 3440   2.433   0.787   1.633  0.1244 -0.0818 -0.0018
  847SOL    HW2 3441   2.361   0.846   1.609 -0.5577 -0.8104  0.2274
  847SOL    HW3 3442   2.424   0.713   1.574 -0.3375 -0.9527  1.1470
  847SOL    MW4 3443   2.422   0.785   1.622 -0.0265 -0.2928  0.1799
  848SOL     OW 3444   2.221   0.936   1.524 -0.0927 -0.2414 -0.0254
  848SOL    HW2 3445   2.246   1.024   1.552 -0.6367 -0.3819  0.9089
  848SOL    HW3 3446   2.258   0.928   1.436  1.7363  0.1635  0.6843
  848SOL    MW4 3447   2.229   0.947   1.516  0.0768 -0.2065  0.1915
  849SOL     OW 3448   2.260   1.195   1.607 -0.4845 -0.0984 -0.4743
  849SOL    HW2 3449   2.261   1.174   1.700  0.9835 -0.7350 -0.6122
  849SOL    HW3 3450   2.176   1.237   1.592 -0.7307  0.0000  1.1382
  849SOL    MW4 3451   2.249   1.198   1.617 -0.3233 -0.1694 -0.2798
  850SOL     OW 3452   2.491   1.302   1.477  0.0456  0.2052 -0.1100
  850SOL    HW2 3453   2.426   1.250   1.525  0.7552 -2.0786 -1.5721
  850SOL    HW3 3454   2.476   1.280   1.385  0.5339  2.4238 -0.7412
  850SOL    MW4 3455   2.481   1.292   1.472  0.2034  0.1965 -0.3861
  851SOL     OW 3456   2.447   1.554   1.561  0.0086  0.1399 -0.6184
  851SOL    HW2 3457   2.536   1.589   1.556 -0.3716  1.0416 -1.2671
  851SOL    HW3 3458   2.452   1.469   1.518  0.5671  0.1737 -0.6240
  851SOL    MW4 3459   2.460   1.548   1.555  0.0322  0.2635 -0.7046
  852SOL     OW 3460   2.208   1.673   1.485  0.4490 -0.2757 -0.2190
  852SOL    HW2 3461   2.289   1.640   1.523 -0.1898 -1.4334  0.1848
  852SOL    HW3 3462   2.214   1.650   1.392  0.7922  0.0813 -0.2878
  852SOL    MW4 3463   2.219   1.666   1.478  0.4098 -0.3815 -0.1748
  853SOL     OW 3464   2.213   1.921   1.635  0.1338  0.0385 -0.0205
  853SOL    HW2 3465   2.185   1.910   1.725 -1.1892  0.2070 -0.3959
  853SOL    HW3 3466   2.194   1.837   1.593  0.5074  0.0411 -0.2023
  853SOL    MW4 3467   2.207   1.908   1.641  0.0086  0.0608 -0.0939
  854SOL     OW 3468   2.452   2.002   1.533 -0.0511 -0.2998  0.3427
  854SOL    HW2 3469   2.365   1.974   1.563 -1.0614  1.6287 -0.6757
  854SOL    HW3 3470   2.446   2.001   1.437  0.7364  0.7344  0.2680
  854SOL    MW4 3471   2.440   1.999   1.524 -0.0806  0.0912  0.1985
  855SOL     OW 3472   2.451   2.276   1.620  0.6141  0.4055 -0.2972
  855SOL    HW2 3473   2.462   2.279   1.715 -0.3100  1.2832 -0.2157
  855SOL    HW3 3474   2.455   2.182   1.598  1.1290  0.2254  0.5636
  855SOL    MW4 3475   2.453   2.264   1.629  0.5600  0.4973 -0.1729
  856SOL     OW 3476   2.284   2.490   1.509 -0.1275  0.1218 -0.6193
  856SOL    HW2 3477   2.342   2.426   1.550 -0.6610  0.3185  0.4765
  856SOL    HW3 3478   2.197   2.451   1.517 -0.1267 -0.2876 -2.4739
  856SOL    MW4 3479   2.280   2.476   1.516 -0.1979  0.0937 -0.7194
  857SOL     OW 3480   2.225   2.705   1.657  0.3379  0.0670 -0.1929
  857SOL    HW2 3481   2.237   2.625   1.606  1.8306 -0.2664  0.6305
  857SOL    HW3 3482   2.147   2.746   1.620 -0.6506 -1.9418 -0.3836
  857SOL    MW4 3483   2.217   2.700   1.645  0.4044 -0.2420 -0.1094
  858SOL     OW 3484   2.434   2.847   1.529  0.4335 -0.4993 -0.5891
  858SOL    HW2 3485   2.449   2.935   1.562 -0.7268  0.1591 -1.7739
  858SOL    HW3 3486   2.366   2.811   1.587 -0.1466 -0.0802 -1.0059
  858SOL    MW4 3487   2.427   2.854   1.541  0.2041 -0.3572 -0.8004
  859SOL     OW 3488   2.468   3.100   1.641 -0.2812 -0.1257 -0.1259
  859SOL    HW2 3489   2.548   3.137   1.603 -1.3746  0.0596 -2.3327
  859SOL    HW3 3490   2.397   3.142   1.592 -1.6602 -1.9384  0.2816
  859SOL    MW4 3491   2.469   3.111   1.630 -0.6075 -0.3402 -0.3632
  860SOL     OW 3492   2.250   3.212   1.513  0.0411  0.3337  0.6358
  860SOL    HW2 3493   2.260   3.307   1.518 -2.8490  0.6977 -0.0752
  860SOL    HW3 3494   2.239   3.195   1.419  0.9975 -0.7632  0.7174
  860SOL    MW4 3495   2.250   3.222   1.501 -0.2143  0.2372  0.5529
  861SOL     OW 3496   2.195   3.523   1.594 -0.0034  0.0121  0.0994
  861SOL    HW2 3497   2.187   3.516   1.689 -0.0324 -0.2882  0.0743
  861SOL    HW3 3498   2.287   3.546   1.580  0.3169 -1.2526  0.1289
  861SOL    MW4 3499   2.207   3.525   1.605  0.0350 -0.1943  0.1000
  862SOL     OW 3500   2.464   3.586   1.525 -0.0130 -0.3161 -0.2375
  862SOL    HW2 3501   2.531   3.543   1.578  0.3243 -0.7492 -1.0155
  862SOL    HW3 3502   2.474   3.679   1.544  0.6635 -0.3987 -0.1862
  862SOL    MW4 3503   2.474   3.592   1.535  0.1206 -0.3839 -0.3334
  863SOL     OW 3504   2.477   3.842   1.625  0.3533  0.2384 -0.2817
  863SOL    HW2 3505   2.464   3.842   1.720 -1.1873  0.2014 -0.4764
  863SOL    HW3 3506   2.564   3.879   1.613  1.1210 -1.0319  1.2091
  863SOL    MW4 3507   2.487   3.847   1.636  0.2513  0.0658 -0.1109
  864SOL     OW 3508   2.280   4.010   1.505 -0.2020 -0.2750 -0.7139
  864SOL    HW2 3509   2.346   3.952   1.542  1.0682  0.3260 -1.9487
  864SOL    HW3 3510   2.281   3.991   1.411 -0.6539  0.8534 -0.9637
  864SOL    MW4 3511   2.289   4.000   1.497 -0.0942 -0.0463 -0.9097
  865SOL     OW 3512   2.270   4.273   1.591  0.0618 -0.1384 -0.0358
  865SOL    HW2 3513   2.336   4.328   1.548  0.4066 -0.6932 -0.2279
  865SOL    HW3 3514   2.280   4.187   1.550 -1.8325  0.1517 -1.1678
  865SOL    MW4 3515   2.280   4.269   1.580 -0.1423 -0.1731 -0.2104
  866SOL     OW 3516   2.486   4.406   1.483 -0.7429  0.1249  0.1936
  866SOL    HW2 3517   2.451   4.492   1.505 -3.2241 -0.3900 -1.5099
  866SOL    HW3 3518   2.492   4.406   1.387 -0.5962 -1.5320  0.1811
  866SOL    MW4 3519   2.482   4.417   1.473 -1.0509 -0.1616 -0.0328
  867SOL     OW 3520   2.934   0.057   1.593 -0.1150  0.2381  0.2064
  867SOL    HW2 3521   2.918   0.054   1.687  0.4522  2.1654  0.3867
  867SOL    HW3 3522   2.855   0.096   1.556 -1.6567 -3.3931 -0.5012
  867SOL    MW4 3523   2.922   0.062   1.600 -0.2434  0.0133  0.1369
  868SOL     OW 3524   2.705   0.154   1.469 -0.1478 -0.4497 -0.6941
  868SOL    HW2 3525   2.692   0.246   1.495 -0.6576 -0.7538  0.1356
  868SOL    HW3 3526   2.625   0.110   1.498  0.2067 -1.2048 -0.8755
  868SOL    MW4 3527   2.693   0.161   1.477 -0.1683 -0.5894 -0.6087
  869SOL     OW 3528   2.690   0.427   1.565  0.1813  0.4913 -0.3710
  869SOL    HW2 3529   2.701   0.431   1.660  1.2405 -0.0503 -0.4637
  869SOL    HW3 3530   2.770   0.465   1.531  0.9431 -1.6824 -1.0678
  869SOL    MW4 3531   2.702   0.433   1.573  0.4213  0.1330 -0.4752
  870SOL     OW 3532   2.929   0.521   1.484 -0.1060  0.1319 -0.3066
  870SOL    HW2 3533   2.934   0.615   1.498 -0.2167  0.2349 -0.9470
  870SOL    HW3 3534   2.922   0.511   1.389 -0.6875 -0.4946 -0.2031
  870SOL    MW4 3535   2.929   0.532   1.473 -0.1972  0.0628 -0.3773
  871SOL     OW 3536   2.895   0.780   1.585  0.1817  0.5130  0.1212
  871SOL    HW2 3537   2.891   0.788   1.680 -1.3861  0.2159  0.1060
  871SOL    HW3 3538   2.824   0.836   1.553  0.0257 -0.1840 -0.8018
  871SOL    MW4 3539   2.885   0.788   1.593 -0.0458  0.3818 -0.0026
  872SOL     OW 3540   2.668   0.909   1.501 -0.1485  0.0964  0.0693
  872SOL    HW2 3541   2.604   0.850   1.540 -0.0275 -0.4738 -0.5887
  872SOL    HW3 3542   2.667   0.887   1.408  1.5352 -0.4073  0.1685
  872SOL    MW4 3543   2.659   0.898   1.493  0.0892 -0.0453 -0.0044
  873SOL     OW 3544   2.688   1.161   1.605 -0.1298  0.6317  0.1475
  873SOL    HW2 3545   2.678   1.079   1.557  1.3525 -0.6947  1.9769
  873SOL    HW3 3546   2.639   1.225   1.555  0.3578 -0.9410 -2.4356
  873SOL    MW4 3547   2.680   1.158   1.592  0.1302  0.2491  0.0479
  874SOL     OW 3548   2.931   1.296   1.496 -0.2286  0.3312  0.4968
  874SOL    HW2 3549   3.015   1.253   1.508  0.5200  1.5727 -0.2241
  874SOL    HW3 3550   2.868   1.238   1.539  0.9088 -0.8989  0.5221
  874SOL    MW4 3551   2.934   1.283   1.504  0.0200  0.3328  0.4050
  875SOL     OW 3552   2.966   1.564   1.601 -0.2623  0.3241 -0.3348
  875SOL    HW2 3553   2.882   1.610   1.594 -0.5089  0.2869  1.9186
  875SOL    HW3 3554   2.946   1.475   1.572 -1.3831 -0.0672  1.5439
  875SOL    MW4 3555   2.952   1.558   1.597 -0.4430  0.2674  0.2105
  876SOL     OW 3556   2.704   1.674   1.537 -0.6660  0.3954  0.3290
  876SOL    HW2 3557   2.703   1.767   1.556  0.5327  0.5604 -0.3963
  876SOL    HW3 3558   2.698   1.668   1.442  0.7716 -0.2045  0.2576
  876SOL    MW4 3559   2.703   1.685   1.527 -0.3181  0.3380  0.2239
  877SOL     OW 3560   2.724   1.927   1.620  0.1036  0.0019  0.2161
  877SOL    HW2 3561   2.731   1.932   1.715 -1.5035 -0.8007  0.3950
  877SOL    HW3 3562   2.635   1.957   1.601 -0.5394 -2.3949 -0.7907
  877SOL    MW4 3563   2.713   1.932   1.630 -0.1934 -0.4201  0.1070
  878SOL     OW 3564   2.916   2.055   1.484  0.1308  0.4802 -0.3628
  878SOL    HW2 3565   2.897   2.141   1.521  0.1639  0.6860 -0.8308
  878SOL    HW3 3566   2.856   1.996   1.530  0.3981  0.6877  0.2570
  878SOL    MW4 3567   2.906   2.058   1.495  0.1705  0.5348 -0.3427
  879SOL     OW 3568   2.877   2.307   1.587  0.5639  0.0447 -0.3706
  879SOL    HW2 3569   2.875   2.304   1.683 -0.1210 -0.8425 -0.4037
  879SOL    HW3 3570   2.806   2.367   1.564  0.8173  0.3664 -0.3280
  879SOL    MW4 3571   2.867   2.315   1.597  0.5071 -0.0298 -0.3692
  880SOL     OW 3572   2.666   2.431   1.510  0.5883 -0.2938 -0.5010
  880SOL    HW2 3573   2.656   2.522   1.538  0.6027 -0.4182 -0.0863
  880SOL    HW3 3574   2.583   2.390   1.534  0.5017 -0.3415 -0.8784
  880SOL    MW4 3575   2.654   2.437   1.517  0.5789 -0.3166 -0.4961
  881SOL     OW 3576   2.685   2.712   1.557  0.5562 -0.2395 -0.1452
  881SOL    HW2 3577   2.757   2.765   1.522  1.0685 -1.3516 -0.7979
  881SOL    HW3 3578   2.606   2.760   1.531  1.0611  1.3304  1.1421
  881SOL    MW4 3579   2.684   2.725   1.549  0.6902 -0.1793 -0.0615
  882SOL     OW 3580   2.931   2.827   1.494  0.3677 -0.3434 -0.3045
  882SOL    HW2 3581   3.000   2.776   1.536 -1.4300 -1.6414  1.1587
  882SOL    HW3 3582   2.930   2.909   1.543  1.0433 -0.2030 -0.5131
  882SOL    MW4 3583   2.940   2.831   1.506  0.2196 -0.4961 -0.1390
  883SOL     OW 3584   2.905   3.072   1.623 -0.3476  0.0126 -0.0956
  883SOL    HW2 3585   2.915   3.078   1.718  2.5761 -0.8368 -0.2989
  883SOL    HW3 3586   2.973   3.130   1.588  1.0599 -2.4670 -1.6586
  883SOL    MW4 3587   2.916   3.081   1.631  0.2239 -0.4268 -0.3287
  884SOL     OW 3588   2.688   3.210   1.526 -0.1051 -0.0576  0.1075
  884SOL    HW2 3589   2.769   3.162   1.543 -0.6473 -0.7819  0.6323
  884SOL    HW3 3590   2.685   3.219   1.431  0.6752  0.1132  0.0977
  884SOL    MW4 3591   2.698   3.205   1.515 -0.0739 -0.1309  0.1755
  885SOL     OW 3592   2.713   3.487   1.627  0.2087 -0.0557 -0.0430
  885SOL    HW2 3593   2.712   3.463   1.720  1.7780 -0.5847 -0.1380
  885SOL    HW3 3594   2.714   3.403   1.581  1.0139  0.1977 -0.4941
  885SOL    MW4 3595   2.713   3.473   1.633  0.5219 -0.0920 -0.1149
  886SOL     OW 3596   2.932   3.605   1.514 -0.2599 -0.4574 -0.0279
  886SOL    HW2 3597   2.852   3.569   1.551  0.5587 -1.6918  0.5746
  886SOL    HW3 3598   2.929   3.580   1.422 -0.3036 -0.9994  0.1157
  886SOL    MW4 3599   2.921   3.597   1.507 -0.1578 -0.6917  0.0706
  887SOL     OW 3600   2.944   3.878   1.613  0.1057  0.1170  0.0896
  887SOL    HW2 3601   2.869   3.919   1.570  0.6398  0.3156 -0.6471
  887SOL    HW3 3602   2.939   3.786   1.587  0.4104  0.2309 -0.3747
  887SOL    MW4 3603   2.933   3.871   1.604  0.2162  0.1581 -0.0688
  888SOL     OW 3604   2.711   3.986   1.507  0.1256  0.4796  0.2577
  888SOL    HW2 3605   2.699   4.075   1.540  1.1772  0.6145  0.3060
  888SOL    HW3 3606   2.722   3.996   1.413  1.0009  0.4814  0.3556
  888SOL    MW4 3607   2.711   3.999   1.499  0.3798  0.4976  0.2769
  889SOL     OW 3608   2.710   4.264   1.592  0.1400 -0.1676 -0.6304
  889SOL    HW2 3609   2.783   4.326   1.583 -0.4331  0.8940  1.4811
  889SOL    HW3 3610   2.632   4.315   1.567 -0.1607 -0.4928 -0.3617
  889SOL    MW4 3611   2.709   4.279   1.588  0.0246 -0.0706 -0.3163
  890SOL     OW 3612   2.918   4.455   1.496 -0.3286 -0.1009 -0.4921
  890SOL    HW2 3613   2.920   4.542   1.536  2.3474 -0.0232 -0.6845
  890SOL    HW3 3614   2.930   4.472   1.403 -1.4140 -0.5991 -0.7284
  890SOL    MW4 3615   2.920   4.469   1.489 -0.1190 -0.1564 -0.5486
  891SOL     OW 3616   3.362   4.654   1.607  0.1745 -0.2072  0.3125
  891SOL    HW2 3617   3.442   4.694   1.575  0.5687 -1.1819  0.0613
  891SOL    HW3 3618   3.375   4.560   1.595 -1.2907 -0.3361 -0.4173
  891SOL    MW4 3619   3.374   4.647   1.601  0.0336 -0.3527  0.1831
  892SOL     OW 3620   3.173   0.153   1.499 -0.3195 -0.8181  0.2647
  892SOL    HW2 3621   3.246   0.104   1.537 -0.2119 -0.1905  0.8804
  892SOL    HW3 3622   3.095   0.108   1.529 -0.2310 -0.3849  1.1576
  892SOL    MW4 3623   3.172   0.141   1.508 -0.2937 -0.6781  0.4638
  893SOL     OW 3624   3.156   0.432   1.594  0.2265  0.0448 -0.3207
  893SOL    HW2 3625   3.143   0.339   1.577 -0.7000  0.0337  0.4355
  893SOL    HW3 3626   3.070   0.472   1.579  0.2444  0.5537  0.8533
  893SOL    MW4 3627   3.143   0.425   1.589  0.1068  0.1105 -0.0660
  894SOL     OW 3628   3.395   0.546   1.504  0.0712 -0.0478  0.5434
  894SOL    HW2 3629   3.310   0.506   1.524 -1.2439  1.7693 -1.1944
  894SOL    HW3 3630   3.399   0.547   1.408  1.8975  0.2350  0.6049
  894SOL    MW4 3631   3.384   0.541   1.494  0.1385  0.2293  0.3223
  895SOL     OW 3632   3.366   0.788   1.626  0.1845  0.1735  0.5655
  895SOL    HW2 3633   3.347   0.791   1.720 -1.2223  0.5949  0.2928
  895SOL    HW3 3634   3.358   0.696   1.603 -0.8861  0.2494  0.6014
  895SOL    MW4 3635   3.362   0.776   1.635 -0.1423  0.2391  0.5343
  896SOL     OW 3636   3.142   0.918   1.471  0.1153  0.2559  0.0580
  896SOL    HW2 3637   3.206   0.887   1.534 -0.5157  0.9376  1.0587
  896SOL    HW3 3638   3.059   0.880   1.500  0.2836 -1.7912 -2.0599
  896SOL    MW4 3639   3.139   0.909   1.483  0.0541  0.0758 -0.0895
  897SOL     OW 3640   3.157   1.168   1.581  0.0656  0.6023 -0.2600
  897SOL    HW2 3641   3.133   1.160   1.674  0.4479  2.0812 -0.0338
  897SOL    HW3 3642   3.167   1.077   1.552  1.3813  0.1486  1.5247
  897SOL    MW4 3643   3.155   1.155   1.589  0.2899  0.7375  0.0052
  898SOL     OW 3644   3.363   1.282   1.465  0.5247 -0.0774 -0.2695
  898SOL    HW2 3645   3.291   1.243   1.514  0.7347 -1.6152 -1.1266
  898SOL    HW3 3646   3.441   1.240   1.500  0.7519 -0.4736 -1.2213
  898SOL    MW4 3647   3.363   1.271   1.476  0.5825 -0.3325 -0.5082
  899SOL     OW 3648   3.397   1.558   1.562 -0.3553 -0.3661  0.5824
  899SOL    HW2 3649   3.381   1.564   1.656 -1.7654 -0.0480  0.3405
  899SOL    HW3 3650   3.399   1.464   1.544 -1.5893 -0.4221  0.7018
  899SOL    MW4 3651   3.395   1.546   1.572 -0.7043 -0.3315  0.5662
  900SOL     OW 3652   3.181   1.690   1.454 -0.2003 -0.0890 -0.0183
  900SOL    HW2 3653   3.257   1.637   1.477 -1.3666 -2.6295 -1.6911
  900SOL    HW3 3654   3.108   1.651   1.502 -1.0573  0.0718 -1.1467
  900SOL    MW4 3655   3.181   1.678   1.463 -0.4671 -0.4032 -0.3880
  901SOL     OW 3656   3.155   1.948   1.590 -0.0895 -0.1607  0.2635
  901SOL    HW2 3657   3.169   1.862   1.551 -1.0828 -0.6974  1.0548
  901SOL    HW3 3658   3.065   1.970   1.568  0.3950  1.0111 -0.5572
  901SOL    MW4 3659   3.145   1.939   1.582 -0.1566 -0.0769  0.2596
  902SOL     OW 3660   3.371   2.085   1.474 -0.2626 -0.0764 -0.1437
  902SOL    HW2 3661   3.302   2.031   1.514 -0.9490 -0.1919 -1.4517
  902SOL    HW3 3662   3.373   2.057   1.382  1.7391 -0.2669 -0.0610
  902SOL    MW4 3663   3.362   2.074   1.467 -0.0889 -0.1168 -0.3053
  903SOL     OW 3664   3.334   2.343   1.584  0.3867  0.0099 -0.1236
  903SOL    HW2 3665   3.412   2.390   1.554 -0.4015  0.5779 -1.3145
  903SOL    HW3 3666   3.347   2.253   1.554 -0.5889  0.6621 -2.6166
  903SOL    MW4 3667   3.346   2.338   1.576  0.1538  0.1707 -0.6096
  904SOL     OW 3668   3.083   2.442   1.488 -0.4043 -0.1692 -0.1110
  904SOL    HW2 3669   3.164   2.399   1.517  0.3128  0.2642 -1.4534
  904SOL    HW3 3670   3.014   2.390   1.529  0.5576 -0.0956  1.6586
  904SOL    MW4 3671   3.085   2.429   1.497 -0.1829 -0.1023 -0.0547
  905SOL     OW 3672   3.127   2.678   1.633  0.2282  0.5169 -0.0579
  905SOL    HW2 3673   3.205   2.713   1.592  0.7624 -0.1324  0.3779
  905SOL    HW3 3674   3.111   2.595   1.588 -0.7259  1.0748 -0.7439
  905SOL    MW4 3675   3.135   2.671   1.622  0.1729  0.5050 -0.0910
  906SOL     OW 3676   3.356   2.828   1.533  0.0378  0.3284  0.2858
  906SOL    HW2 3677   3.345   2.917   1.568  0.8018  0.6787 -0.3573
  906SOL    HW3 3678   3.371   2.841   1.439  1.0828 -0.4227  0.3401
  906SOL    MW4 3679   3.356   2.841   1.525  0.2766  0.2754  0.2080
  907SOL     OW 3680   3.357   3.103   1.609  0.0752 -0.0087  0.0161
  907SOL    HW2 3681   3.365   3.103   1.704 -0.4463 -0.3506  0.0584
  907SOL    HW3 3682   3.439   3.143   1.578  0.3204 -0.0629  0.5974
  907SOL    MW4 3683   3.369   3.108   1.617  0.0389 -0.0610  0.0983
  908SOL     OW 3684   3.126   3.240   1.509 -0.1748 -0.5218 -0.0221
  908SOL    HW2 3685   3.195   3.190   1.552 -1.2443 -1.7824  0.2603
  908SOL    HW3 3686   3.147   3.234   1.416  0.6542 -0.0433  0.1277
  908SOL    MW4 3687   3.138   3.232   1.503 -0.2065 -0.6249  0.0348
  909SOL     OW 3688   3.190   3.491   1.587  0.0213 -0.3985 -0.1003
  909SOL    HW2 3689   3.164   3.403   1.557 -1.3896 -0.5094  1.4079
  909SOL    HW3 3690   3.116   3.547   1.564 -0.1934 -0.0964  1.3200
  909SOL    MW4 3691   3.177   3.487   1.580 -0.1931 -0.3731  0.2860
  910SOL     OW 3692   3.422   3.640   1.508  0.4241  0.6353  0.3727
  910SOL    HW2 3693   3.500   3.605   1.551  1.5217 -0.7212 -2.5402
  910SOL    HW3 3694   3.350   3.584   1.539  0.5369  1.9679  3.1607
  910SOL    MW4 3695   3.423   3.628   1.518  0.5836  0.6323  0.3562
  911SOL     OW 3696   3.412   3.892   1.627  0.0942 -0.0875  0.1780
  911SOL    HW2 3697   3.326   3.927   1.603  0.3805 -0.6657 -1.7851
  911SOL    HW3 3698   3.417   3.807   1.583  2.2443  0.5839 -0.9417
  911SOL    MW4 3699   3.401   3.885   1.618  0.4156 -0.0756 -0.2288
  912SOL     OW 3700   3.174   4.013   1.511  0.6186 -0.0903  0.0954
  912SOL    HW2 3701   3.158   4.107   1.520 -1.3896 -0.5753  1.7085
  912SOL    HW3 3702   3.095   3.971   1.544  1.5252 -2.3748 -0.5248
  912SOL    MW4 3703   3.162   4.020   1.516  0.4733 -0.4559  0.2265
  913SOL     OW 3704   3.149   4.294   1.569  0.4844 -0.1423  0.2246
  913SOL    HW2 3705   3.131   4.271   1.660 -0.0402 -0.3678  0.0655
  913SOL    HW3 3706   3.079   4.355   1.545  0.3686 -0.4209 -0.1583
  913SOL    MW4 3707   3.137   4.299   1.578  0.3998 -0.2084  0.1531
  914SOL     OW 3708   3.395   4.388   1.501  0.3070 -0.4004 -0.3676
  914SOL    HW2 3709   3.308   4.362   1.530 -0.2242  0.0027 -1.5625
  914SOL    HW3 3710   3.387   4.396   1.406  1.2778  1.0015 -0.3434
  914SOL    MW4 3711   3.383   4.386   1.492  0.3648 -0.1621 -0.5221
  915SOL     OW 3712   3.824   0.015   1.561 -0.1583  0.4680  0.4006
  915SOL    HW2 3713   3.815   0.016   1.657 -0.1632 -1.5587  0.4576
  915SOL    HW3 3714   3.908   0.058   1.545 -0.2543  1.0213  1.2983
  915SOL    MW4 3715   3.834   0.021   1.572 -0.1714  0.2737  0.5264
  916SOL     OW 3716   3.580   0.138   1.510 -0.0074 -0.1867 -0.9687
  916SOL    HW2 3717   3.661   0.091   1.528 -1.4529 -2.7094 -0.7083
  916SOL    HW3 3718   3.571   0.136   1.415 -0.4562 -1.1552 -0.9108
  916SOL    MW4 3719   3.589   0.132   1.500 -0.2573 -0.6473 -0.9266
  917SOL     OW 3720   3.601   0.403   1.609 -0.2379 -0.2945  0.4659
  917SOL    HW2 3721   3.602   0.319   1.562 -1.1872 -0.4783  0.7791
  917SOL    HW3 3722   3.525   0.449   1.574  1.1811  1.1149 -0.8776
  917SOL    MW4 3723   3.591   0.398   1.598 -0.1760 -0.1328  0.3300
  918SOL     OW 3724   3.831   0.503   1.521  0.3034 -0.0967 -0.1027
  918SOL    HW2 3725   3.744   0.471   1.546 -0.3569  1.8993  0.1913
  918SOL    HW3 3726   3.827   0.510   1.425  0.4679 -0.8887 -0.1756
  918SOL    MW4 3727   3.819   0.500   1.511  0.2379  0.0622 -0.0736
  919SOL     OW 3728   3.833   0.759   1.601  0.1721  0.6851 -0.0301
  919SOL    HW2 3729   3.749   0.791   1.568  0.2820 -0.0877 -1.0779
  919SOL    HW3 3730   3.832   0.665   1.584  0.6281  0.4271  1.3367
  919SOL    MW4 3731   3.822   0.751   1.595  0.2470  0.5491  0.0120
  920SOL     OW 3732   3.612   0.866   1.484  0.4410  0.4329  0.3472
  920SOL    HW2 3733   3.532   0.838   1.529  0.4952 -0.8710 -0.3606
  920SOL    HW3 3734   3.586   0.878   1.393  1.0543  0.0272  0.1167
  920SOL    MW4 3735   3.598   0.864   1.478  0.5293  0.2074  0.2233
  921SOL     OW 3736   3.565   1.142   1.572  0.0029 -0.4656 -0.0152
  921SOL    HW2 3737   3.642   1.192   1.546 -0.3805 -0.0635 -0.4004
  921SOL    HW3 3738   3.576   1.057   1.530  0.4610 -0.5679  0.3112
  921SOL    MW4 3739   3.576   1.138   1.563  0.0129 -0.4259 -0.0230
  922SOL     OW 3740   3.813   1.277   1.494  0.4965  0.1165  0.6732
  922SOL    HW2 3741   3.876   1.213   1.529  0.6856  0.0261  0.1669
  922SOL    HW3 3742   3.845   1.362   1.524  0.4267  0.0000  1.0738
  922SOL    MW4 3743   3.826   1.280   1.503  0.5121  0.0892  0.6593
  923SOL     OW 3744   3.843   1.558   1.604  0.5715  0.0406 -0.2469
  923SOL    HW2 3745   3.817   1.556   1.696  0.1195 -1.7405 -0.4130
  923SOL    HW3 3746   3.767   1.595   1.559  1.4598  2.6360  0.2927
  923SOL    MW4 3747   3.830   1.563   1.610  0.6289  0.1481 -0.1978
  924SOL     OW 3748   3.628   1.697   1.508 -0.1482  0.1765 -0.3262
  924SOL    HW2 3749   3.544   1.653   1.522 -1.1857  2.3553  0.5032
  924SOL    HW3 3750   3.638   1.698   1.413 -1.5523  0.7650 -0.4826
  924SOL    MW4 3751   3.618   1.691   1.497 -0.4702  0.5416 -0.2375
  925SOL     OW 3752   3.600   1.966   1.617 -0.0011  0.3641  0.2337
  925SOL    HW2 3753   3.611   1.874   1.590  1.1266  0.2599  1.0446
  925SOL    HW3 3754   3.522   1.995   1.570  1.1699 -0.2098 -2.1633
  925SOL    MW4 3755   3.591   1.957   1.607  0.3021  0.2745  0.0243
  926SOL     OW 3756   3.840   2.029   1.498 -0.0417 -0.2436 -0.1974
  926SOL    HW2 3757   3.850   2.120   1.524  0.0269 -0.4030  0.3371
  926SOL    HW3 3758   3.759   2.000   1.540 -0.6653 -0.1034 -1.2877
  926SOL    MW4 3759   3.831   2.037   1.507 -0.1152 -0.2465 -0.2708
  927SOL     OW 3760   3.814   2.296   1.567  0.0280  0.0646 -0.4504
  927SOL    HW2 3761   3.825   2.303   1.662  0.0649  0.1080 -0.4576
  927SOL    HW3 3762   3.886   2.347   1.531 -0.6747  1.0594 -0.4906
  927SOL    MW4 3763   3.825   2.304   1.575 -0.0598  0.2017 -0.4567
  928SOL     OW 3764   3.587   2.448   1.530 -0.0079  0.1467  0.6623
  928SOL    HW2 3765   3.607   2.532   1.573  0.3402  0.0263  0.7331
  928SOL    HW3 3766   3.663   2.393   1.548 -0.1014 -0.0846  0.3520
  928SOL    MW4 3767   3.599   2.452   1.538  0.0255  0.1004  0.6307
  929SOL     OW 3768   3.600   2.716   1.625  0.1809 -0.1732 -0.5370
  929SOL    HW2 3769   3.594   2.715   1.720 -0.1987  1.2046 -0.5297
  929SOL    HW3 3770   3.519   2.758   1.596  0.2744 -0.6096 -1.4756
  929SOL    MW4 3771   3.589   2.721   1.634  0.1431 -0.0489 -0.6598
  930SOL     OW 3772   3.813   2.822   1.492  0.1226  0.2647  0.4736
  930SOL    HW2 3773   3.887   2.775   1.530 -0.9912 -2.2527 -0.3628
  930SOL    HW3 3774   3.737   2.795   1.544 -0.5137  1.2536  0.0770
  930SOL    MW4 3775   3.813   2.812   1.504 -0.1082  0.0629  0.3109
  931SOL     OW 3776   3.839   3.071   1.583 -0.4004  0.0814 -0.1860
  931SOL    HW2 3777   3.919   3.106   1.545 -0.1480 -1.0991 -0.7648
  931SOL    HW3 3778   3.838   2.979   1.557 -0.5110 -0.6176  2.1831
  931SOL    MW4 3779   3.849   3.063   1.575 -0.3819 -0.1664  0.0502
  932SOL     OW 3780   3.621   3.254   1.525 -0.0558  0.1497 -0.1133
  932SOL    HW2 3781   3.695   3.205   1.560 -1.6323 -1.6027  0.8420
  932SOL    HW3 3782   3.624   3.238   1.430  0.5485 -0.2364 -0.0276
  932SOL    MW4 3783   3.631   3.245   1.517 -0.1843 -0.1326  0.0240
  933SOL     OW 3784   3.630   3.499   1.646 -0.5334 -0.0025  0.0356
  933SOL    HW2 3785   3.699   3.540   1.594 -0.0086 -0.3726  0.4522
  933SOL    HW3 3786   3.624   3.410   1.613 -0.0807 -0.2927  0.7216
  933SOL    MW4 3787   3.638   3.493   1.635 -0.4046 -0.0899  0.1812
  934SOL     OW 3788   3.815   3.617   1.465  0.5405 -0.0421 -0.0134
  934SOL    HW2 3789   3.890   3.568   1.499 -0.1528 -0.0273  1.5597
  934SOL    HW3 3790   3.826   3.705   1.501  1.1219  0.6791 -1.8455
  934SOL    MW4 3791   3.826   3.622   1.474  0.5257  0.0551 -0.0476
  935SOL     OW 3792   3.835   3.880   1.554 -0.3381  0.1265 -0.6870
  935SOL    HW2 3793   3.921   3.906   1.520  0.2041 -0.0086  0.5324
  935SOL    HW3 3794   3.773   3.940   1.511  0.3854  0.3752 -1.4041
  935SOL    MW4 3795   3.838   3.891   1.544 -0.1709  0.1411 -0.6207
  936SOL     OW 3796   3.604   4.003   1.457 -0.3199  0.5103 -0.3371
  936SOL    HW2 3797   3.591   4.086   1.504  0.2993 -0.0539  0.8721
  936SOL    HW3 3798   3.548   3.941   1.503  0.5061 -0.1138 -0.1540
  936SOL    MW4 3799   3.595   4.006   1.469 -0.1292  0.3538 -0.1534
  937SOL     OW 3800   3.637   4.241   1.598  0.1678  0.0036 -0.1763
  937SOL    HW2 3801   3.637   4.242   1.694  1.2317 -0.8972 -0.1579
  937SOL    HW3 3802   3.554   4.282   1.574 -0.0526  0.3483  1.1286
  937SOL    MW4 3803   3.626   4.247   1.608  0.2792 -0.0696 -0.0018
  938SOL     OW 3804   3.831   4.408   1.468  0.0747 -0.0081 -0.1377
  938SOL    HW2 3805   3.765   4.352   1.508  0.7482 -0.1433  0.7890
  938SOL    HW3 3806   3.824   4.491   1.515 -0.6040  0.5500 -1.1949
  938SOL    MW4 3807   3.821   4.412   1.479  0.0739  0.0477 -0.1549
  939SOL     OW 3808   4.273   0.005   1.592 -0.7097  0.1525 -0.0911
  939SOL    HW2 3809   4.280   0.015   1.687 -0.5460 -0.9553  0.0195
  939SOL    HW3 3810   4.259  -0.088   1.579 -0.3671  0.2509 -1.1808
  939SOL    MW4 3811   4.272  -0.006   1.603 -0.6428  0.0196 -0.2202
  940SOL     OW 3812   4.061   0.160   1.470 -0.6620  0.3610  0.0640
  940SOL    HW2 3813   4.078   0.252   1.489 -1.3310  0.5029 -0.0021
  940SOL    HW3 3814   4.125   0.112   1.522 -0.4613  0.8571  0.2732
  940SOL    MW4 3815   4.072   0.166   1.479 -0.7238  0.4452  0.0830
  941SOL     OW 3816   4.072   0.416   1.605  0.0896  0.0561 -0.4857
  941SOL    HW2 3817   4.057   0.378   1.692 -0.1432  1.0147 -0.1040
  941SOL    HW3 3818   3.985   0.442   1.575  0.1860 -0.1539 -0.9586
  941SOL    MW4 3819   4.058   0.414   1.613  0.0720  0.1549 -0.4979
  942SOL     OW 3820   4.256   0.477   1.444  0.1290  0.5430  0.2974
  942SOL    HW2 3821   4.188   0.447   1.504  1.2741 -0.7718  0.9567
  942SOL    HW3 3822   4.337   0.445   1.482  1.1919  2.5461 -0.1929
  942SOL    MW4 3823   4.258   0.469   1.457  0.4206  0.6338  0.3196
  943SOL     OW 3824   4.242   0.737   1.579 -0.0973  0.5471  0.4098
  943SOL    HW2 3825   4.258   0.661   1.523  0.3294  1.4730 -0.7477
  943SOL    HW3 3826   4.312   0.798   1.557 -0.1247  1.0565  1.7186
  943SOL    MW4 3827   4.253   0.735   1.569 -0.0448  0.7365  0.4299
  944SOL     OW 3828   4.033   0.860   1.463 -0.1495  0.2728  0.0016
  944SOL    HW2 3829   4.106   0.811   1.502  0.6421  1.5627  0.1567
  944SOL    HW3 3830   3.956   0.828   1.509  0.3702 -0.7628  0.1708
  944SOL    MW4 3831   4.033   0.849   1.474  0.0234  0.3063  0.0445
  945SOL     OW 3832   4.036   1.119   1.579 -0.1638  0.3018  0.1956
  945SOL    HW2 3833   4.043   1.106   1.674 -0.5373  1.2440  0.3628
  945SOL    HW3 3834   4.042   1.031   1.542  0.5951 -0.0141  1.0567
  945SOL    MW4 3835   4.038   1.106   1.587 -0.1135  0.3844  0.3312
  946SOL     OW 3836   4.284   1.249   1.486 -0.0420 -0.1058 -0.0483
  946SOL    HW2 3837   4.209   1.205   1.525  0.0618 -0.2044  0.0443
  946SOL    HW3 3838   4.360   1.204   1.524  0.0535 -0.6730 -0.9108
  946SOL    MW4 3839   4.284   1.237   1.496 -0.0157 -0.1937 -0.1498
  947SOL     OW 3840   4.271   1.503   1.637  0.0775  0.5180  0.0144
  947SOL    HW2 3841   4.292   1.415   1.606 -2.0854 -0.1009  0.2353
  947SOL    HW3 3842   4.340   1.559   1.600  1.2363 -1.1969 -0.4602
  947SOL    MW4 3843   4.283   1.499   1.628 -0.0553  0.2100 -0.0191
  948SOL     OW 3844   4.079   1.640   1.516  0.2494  0.5957 -0.3391
  948SOL    HW2 3845   4.141   1.576   1.549  1.1323  2.2732  1.3589
  948SOL    HW3 3846   3.994   1.610   1.547  0.6748  0.3371  0.5899
  948SOL    MW4 3847   4.076   1.628   1.524  0.4215  0.7830  0.0074
  949SOL     OW 3848   4.082   1.913   1.606  0.2611  0.2528  0.0140
  949SOL    HW2 3849   4.079   1.822   1.579 -0.0218  0.1606  0.3503
  949SOL    HW3 3850   4.000   1.951   1.573  0.9274  0.6803 -1.1656
  949SOL    MW4 3851   4.070   1.906   1.598  0.3114  0.2972 -0.0974
  950SOL     OW 3852   4.291   2.064   1.543  0.0739  0.5476  0.4441
  950SOL    HW2 3853   4.231   2.000   1.581  0.8510  0.3384  1.3369
  950SOL    HW3 3854   4.289   2.046   1.449  0.7997 -1.2567  0.7445
  950SOL    MW4 3855   4.283   2.053   1.536  0.2718  0.2818  0.6016
  951SOL     OW 3856   4.231   2.323   1.619 -0.1939  0.1887  0.2621
  951SOL    HW2 3857   4.240   2.330   1.714  0.0279 -1.4133  0.3596
  951SOL    HW3 3858   4.233   2.229   1.601 -0.2283  0.4828 -1.3319
  951SOL    MW4 3859   4.232   2.312   1.630 -0.1693  0.0162  0.0647
  952SOL     OW 3860   4.006   2.459   1.478 -0.7607  0.0125 -0.2907
  952SOL    HW2 3861   4.006   2.544   1.522 -0.9557 -0.4656  0.6497
  952SOL    HW3 3862   4.079   2.412   1.519 -1.8740 -0.9728  0.5584
  952SOL    MW4 3863   4.016   2.464   1.489 -0.9332 -0.1810 -0.0546
  953SOL     OW 3864   4.037   2.711   1.610  0.0024 -0.3366  0.3443
  953SOL    HW2 3865   4.058   2.716   1.703 -0.7089 -2.4867  0.6465
  953SOL    HW3 3866   4.113   2.750   1.566  0.4106  0.5509  1.7951
  953SOL    MW4 3867   4.050   2.717   1.617 -0.0367 -0.5031  0.5757
  954SOL     OW 3868   4.270   2.856   1.522 -0.1602  0.5518  0.1171
  954SOL    HW2 3869   4.284   2.948   1.544 -0.7261  0.8421 -0.6818
  954SOL    HW3 3870   4.280   2.852   1.426  2.1668 -0.6527  0.3679
  954SOL    MW4 3871   4.273   2.867   1.512  0.0725  0.4311  0.0448
  955SOL     OW 3872   4.317   3.115   1.594 -0.0603  0.1507 -0.0449
  955SOL    HW2 3873   4.320   3.101   1.689  0.1252 -2.5531 -0.3992
  955SOL    HW3 3874   4.405   3.147   1.573  0.6808 -1.4808  0.4231
  955SOL    MW4 3875   4.329   3.117   1.604  0.0615 -0.4213 -0.0298
  956SOL     OW 3876   4.079   3.204   1.486 -0.0957  0.0986 -0.1720
  956SOL    HW2 3877   4.043   3.279   1.534  0.0592 -0.6608  1.1625
  956SOL    HW3 3878   4.166   3.192   1.523 -0.2268 -0.8993 -0.1707
  956SOL    MW4 3879   4.086   3.212   1.497 -0.0925 -0.1333  0.0044
  957SOL     OW 3880   4.024   3.479   1.567  0.4034  0.3723 -0.0470
  957SOL    HW2 3881   4.036   3.475   1.662 -0.4168  0.1740  0.0520
  957SOL    HW3 3882   4.103   3.523   1.534  1.3633 -0.8435  0.5804
  957SOL    MW4 3883   4.036   3.484   1.575  0.4220  0.1857  0.0488
  958SOL     OW 3884   4.255   3.613   1.478  0.1179 -0.2908 -0.3505
  958SOL    HW2 3885   4.258   3.705   1.501 -3.1056  0.0723 -1.2475
  958SOL    HW3 3886   4.272   3.611   1.384 -0.3644 -0.5882 -0.4288
  958SOL    MW4 3887   4.258   3.625   1.468 -0.3715 -0.2820 -0.4791
  959SOL     OW 3888   4.291   3.858   1.593  0.2463 -0.5065 -0.1196
  959SOL    HW2 3889   4.211   3.906   1.571 -1.3441 -1.9253  2.4142
  959SOL    HW3 3890   4.360   3.905   1.547 -1.8234  1.6839 -1.0881
  959SOL    MW4 3891   4.289   3.870   1.584 -0.2370 -0.4048  0.0868
  960SOL     OW 3892   4.080   3.991   1.463  0.3459 -0.1089 -0.3624
  960SOL    HW2 3893   4.094   4.083   1.487 -0.4331  0.4232 -1.8861
  960SOL    HW3 3894   4.079   3.992   1.367  1.4932 -1.8865 -0.4097
  960SOL    MW4 3895   4.082   4.004   1.454  0.3948 -0.2732 -0.5697
  961SOL     OW 3896   4.055   4.251   1.562  0.6869 -0.0423 -0.4827
  961SOL    HW2 3897   4.036   4.253   1.656 -0.6029 -1.1388 -0.7093
  961SOL    HW3 3898   3.983   4.300   1.523  0.7152 -0.4045 -0.9873
  961SOL    MW4 3899   4.043   4.258   1.569  0.5207 -0.2346 -0.5792
  962SOL     OW 3900   4.277   4.407   1.541  0.4469 -0.1501 -0.3083
  962SOL    HW2 3901   4.191   4.367   1.555 -0.1723  1.5874  1.0140
  962SOL    HW3 3902   4.290   4.405   1.447 -0.3342 -1.8516 -0.4067
  962SOL    MW4 3903   4.268   4.401   1.531  0.2618 -0.1450 -0.1467
  963SOL     OW 3904   0.239   4.589   1.869 -0.2801  0.2339 -0.4202
  963SOL    HW2 3905   0.314   4.623   1.919 -0.6524  2.1259 -1.0833
  963SOL    HW3 3906   0.261   4.608   1.778 -1.1101 -0.1155 -0.6921
  963SOL    MW4 3907   0.252   4.596   1.864 -0.4387  0.4382 -0.5435
  964SOL     OW 3908   0.030   0.080   1.970 -0.0301 -0.2762  0.1223
  964SOL    HW2 3909   0.039   0.162   1.922 -1.6959 -1.2826 -1.9967
  964SOL    HW3 3910   0.100   0.024   1.936 -0.2464 -0.4672 -0.0102
  964SOL    MW4 3911   0.041   0.083   1.959 -0.2784 -0.4342 -0.1748
  965SOL     OW 3912   4.487   0.329   1.828 -0.3917  0.0266 -0.0717
  965SOL    HW2 3913   4.413   0.365   1.876 -0.0134  1.9327 -0.8698
  965SOL    HW3 3914   4.562   0.380   1.858  0.3030 -0.6866 -0.5787
  965SOL    MW4 3915   4.487   0.341   1.838 -0.2501  0.1840 -0.2439
  966SOL     OW 3916   0.221   0.458   1.959 -0.4002  0.5295  0.1409
  966SOL    HW2 3917   0.296   0.402   1.941  0.0455  1.1488  0.0559
  966SOL    HW3 3918   0.252   0.547   1.938 -1.4878  0.6711 -0.9441
  966SOL    MW4 3919   0.235   0.463   1.954 -0.4849  0.6299 -0.0135
  967SOL     OW 3920   0.260   0.727   1.867  0.0397 -0.4279  0.2045
  967SOL    HW2 3921   0.320   0.798   1.888  1.4353 -1.6147  0.3131
  967SOL    HW3 3922   0.253   0.728   1.771  1.2372 -1.0993  0.1126
  967SOL    MW4 3923   0.267   0.736   1.857  0.3818 -0.6731  0.2067
  968SOL     OW 3924   4.485   0.832   1.955 -0.2411  0.0783 -0.1456
  968SOL    HW2 3925   4.407   0.782   1.931 -0.8544  0.6347  0.6698
  968SOL    HW3 3926   4.558   0.773   1.934 -0.9923 -1.7283  2.1271
  968SOL    MW4 3927   4.485   0.817   1.949 -0.4210 -0.0867  0.2619
  969SOL     OW 3928   0.050   1.101   1.895  0.1605 -0.2824  0.4868
  969SOL    HW2 3929  -0.030   1.145   1.921  0.9804  0.3268  1.9957
  969SOL    HW3 3930   0.031   1.008   1.907 -1.2093 -0.3194 -1.7099
  969SOL    MW4 3931   0.037   1.094   1.900  0.0880 -0.2069  0.3960
  970SOL     OW 3932   0.273   1.228   1.983 -0.2026  0.1796  0.9235
  970SOL    HW2 3933   0.263   1.317   1.951  1.4029 -0.0987 -0.3960
  970SOL    HW3 3934   0.193   1.183   1.954 -0.1867  0.7274  0.0120
  970SOL    MW4 3935   0.261   1.234   1.975  0.0113  0.2153  0.6291
  971SOL     OW 3936   0.236   1.497   1.886  0.2776 -0.0128  0.1781
  971SOL    HW2 3937   0.311   1.549   1.916  0.4625 -1.1620  1.7967
  971SOL    HW3 3938   0.160   1.541   1.925  0.0848  1.1816 -1.5040
  971SOL    MW4 3939   0.236   1.510   1.895  0.2766 -0.0068  0.1698
  972SOL     OW 3940   0.006   1.661   1.998 -0.4227 -0.6132 -0.0964
  972SOL    HW2 3941   0.016   1.646   2.092 -1.8039  0.6067  0.2660
  972SOL    HW3 3942  -0.062   1.600   1.971 -1.2662  0.2609  0.0462
  972SOL    MW4 3943  -0.002   1.651   2.007 -0.7163 -0.3369 -0.0298
  973SOL     OW 3944   0.033   1.899   1.869 -0.2871  0.0969 -0.0377
  973SOL    HW2 3945  -0.045   1.949   1.894  0.7851  0.5647  2.5053
  973SOL    HW3 3946   0.029   1.820   1.922  0.2060 -0.5804 -0.9907
  973SOL    MW4 3947   0.022   1.895   1.880 -0.0806  0.0694  0.1720
  974SOL     OW 3948   0.229   2.055   1.985 -0.3595  0.0970  0.0659
  974SOL    HW2 3949   0.220   2.143   1.948 -0.9388  0.4091  0.9235
  974SOL    HW3 3950   0.152   2.008   1.952 -0.6576  0.2536  0.5365
  974SOL    MW4 3951   0.218   2.061   1.976 -0.4753  0.1585  0.2413
  975SOL     OW 3952   0.240   2.312   1.875 -0.1461  0.0439 -0.0156
  975SOL    HW2 3953   0.320   2.352   1.910 -0.2531 -0.1802  0.4926
  975SOL    HW3 3954   0.169   2.366   1.910 -0.2597 -0.2512  0.2206
  975SOL    MW4 3955   0.241   2.324   1.884 -0.1752 -0.0246  0.0825
  976SOL     OW 3956   0.016   2.478   1.974  0.3050  0.2954 -0.3832
  976SOL    HW2 3957   0.029   2.474   2.069 -0.8018 -0.6588 -0.2724
  976SOL    HW3 3958   0.020   2.572   1.954 -0.4563  0.5884  0.7598
  976SOL    MW4 3959   0.018   2.490   1.984  0.0586  0.2084 -0.2177
  977SOL     OW 3960   0.050   2.744   1.907 -0.2780 -0.0664 -0.0377
  977SOL    HW2 3961  -0.030   2.781   1.946 -0.8586 -0.4502 -0.8632
  977SOL    HW3 3962   0.026   2.727   1.816  1.3786  1.7560 -0.8447
  977SOL    MW4 3963   0.036   2.747   1.900 -0.1360  0.1233 -0.2532
  978SOL     OW 3964   0.265   2.893   1.972  0.4268 -0.1806 -0.1897
  978SOL    HW2 3965   0.254   2.967   1.913  1.7140 -0.1077 -0.3595
  978SOL    HW3 3966   0.189   2.837   1.956 -0.4342  0.9861 -0.2250
  978SOL    MW4 3967   0.253   2.896   1.962  0.4830 -0.0169 -0.2167
  979SOL     OW 3968   0.233   3.139   1.839 -0.0556 -0.1304  0.1265
  979SOL    HW2 3969   0.321   3.154   1.876  0.2247  1.1104 -0.9986
  979SOL    HW3 3970   0.249   3.108   1.750 -0.7518  0.8227 -0.3406
  979SOL    MW4 3971   0.247   3.137   1.832 -0.1105  0.1593 -0.0836
  980SOL     OW 3972   4.487   3.257   1.959 -0.2093  0.1652  0.3570
  980SOL    HW2 3973   4.417   3.203   1.923 -0.7247 -0.0683  1.6823
  980SOL    HW3 3974   4.567   3.207   1.942 -0.4591  0.0205 -0.3737
  980SOL    MW4 3975   4.489   3.243   1.952 -0.3102  0.1152  0.4356
  981SOL     OW 3976   0.019   3.522   1.874  0.3641 -0.3981 -0.2193
  981SOL    HW2 3977   0.097   3.547   1.923 -0.3869 -0.2691  0.9325
  981SOL    HW3 3978   0.009   3.428   1.892 -0.5939 -0.0975  0.8619
  981SOL    MW4 3979   0.028   3.513   1.882  0.1387 -0.3414  0.0753
  982SOL     OW 3980   0.241   3.577   2.022  0.1928 -0.0805  0.3579
  982SOL    HW2 3981   0.246   3.591   2.117  1.4045  0.2693  0.2547
  982SOL    HW3 3982   0.328   3.546   1.999 -0.1439 -0.2900 -0.6251
  982SOL    MW4 3983   0.253   3.575   2.032  0.3083 -0.0620  0.2148
  983SOL     OW 3984   0.226   3.863   1.910 -0.2107  0.2544 -0.0594
  983SOL    HW2 3985   0.298   3.909   1.953 -0.5462  0.4591  0.2917
  983SOL    HW3 3986   0.235   3.773   1.939  1.5291 -0.3041 -2.1786
  983SOL    MW4 3987   0.237   3.857   1.920 -0.0254  0.2077 -0.2927
  984SOL     OW 3988   4.469   3.988   1.987 -0.0565 -0.0759 -0.0956
  984SOL    HW2 3989   4.473   4.077   1.952  0.5652 -0.4892 -1.0852
  984SOL    HW3 3990   4.552   3.948   1.960  0.1883 -0.5849  1.3621
  984SOL    MW4 3991   4.481   3.995   1.979  0.0582 -0.1979 -0.0339
  985SOL     OW 3992   4.435   4.258   1.913 -0.3354 -0.2501 -0.0733
  985SOL    HW2 3993   4.365   4.321   1.929  0.1337  0.2667 -0.0420
  985SOL    HW3 3994   4.511   4.294   1.959  0.2306 -0.2732 -0.9803
  985SOL    MW4 3995   4.436   4.271   1.921 -0.1988 -0.1850 -0.1887
  986SOL     OW 3996   0.190   4.349   2.001  0.1367 -0.1376  0.1409
  986SOL    HW2 3997   0.208   4.370   2.093 -0.6972 -0.6396  0.4265
  986SOL    HW3 3998   0.180   4.434   1.958 -1.0242  0.0869  0.8328
  986SOL    MW4 3999   0.191   4.363   2.008 -0.1265 -0.1745  0.2701
  987SOL     OW 4000   0.703   4.627   1.892 -0.0185  0.2010  0.0375
  987SOL    HW2 4001   0.687   4.538   1.922 -1.4138  0.5959  0.4828
  987SOL    HW3 4002   0.689   4.623   1.797  0.3501 -0.1398 -0.0049
  987SOL    MW4 4003   0.699   4.615   1.883 -0.1540  0.2079  0.0906
  988SOL     OW 4004   0.457   0.027   2.012  0.4587  0.4677 -0.4232
  988SOL    HW2 4005   0.459   0.117   1.978  1.0108  0.4457 -0.4547
  988SOL    HW3 4006   0.542  -0.009   1.988 -0.1998 -0.4448 -1.4177
  988SOL    MW4 4007   0.468   0.034   2.004  0.4447  0.3444 -0.5586
  989SOL     OW 4008   0.435   0.285   1.914 -0.0038 -0.7767 -0.2541
  989SOL    HW2 4009   0.511   0.334   1.945 -0.9795 -0.1697  1.2623
  989SOL    HW3 4010   0.433   0.300   1.820  0.1768  1.4607  0.0761
  989SOL    MW4 4011   0.444   0.294   1.906 -0.1087 -0.4014 -0.0104
  990SOL     OW 4012   0.668   0.468   1.984 -0.4152 -0.6551 -0.2526
  990SOL    HW2 4013   0.687   0.470   2.078 -0.5560  0.5478 -0.2505
  990SOL    HW3 4014   0.750   0.438   1.945 -0.7446 -2.4030  0.3468
  990SOL    MW4 4015   0.681   0.464   1.992 -0.4773 -0.7270 -0.1732
  991SOL     OW 4016   0.668   0.744   1.886  0.3839  0.2024 -0.0905
  991SOL    HW2 4017   0.748   0.789   1.911  0.8898 -0.5601 -0.2838
  991SOL    HW3 4018   0.675   0.658   1.927 -0.8476  0.5085  0.7734
  991SOL    MW4 4019   0.680   0.738   1.894  0.2881  0.1422 -0.0020
  992SOL     OW 4020   0.444   0.886   1.985 -0.0087 -0.1894 -0.7024
  992SOL    HW2 4021   0.467   0.968   1.940  0.6565 -0.2547 -0.4966
  992SOL    HW3 4022   0.522   0.831   1.973  0.0669 -0.3029  0.3077
  992SOL    MW4 4023   0.458   0.890   1.977  0.0891 -0.2130 -0.5420
  993SOL     OW 4024   0.500   1.117   1.865 -0.0928  0.4083  0.1060
  993SOL    HW2 4025   0.425   1.158   1.907 -0.5110 -0.5902  0.3201
  993SOL    HW3 4026   0.484   1.127   1.771 -0.0113  1.0611  0.1586
  993SOL    MW4 4027   0.488   1.124   1.858 -0.1372  0.3626  0.1411
  994SOL     OW 4028   0.701   1.293   1.988  0.4197  0.3155 -0.2435
  994SOL    HW2 4029   0.698   1.264   2.080 -0.7897  0.6169 -0.1892
  994SOL    HW3 4030   0.640   1.235   1.943 -0.7026  1.6484 -0.4493
  994SOL    MW4 4031   0.693   1.281   1.994  0.1121  0.5312 -0.2633
  995SOL     OW 4032   0.668   1.549   1.883 -0.0911 -0.2847  0.1803
  995SOL    HW2 4033   0.688   1.461   1.914  0.3501 -0.6047 -0.9875
  995SOL    HW3 4034   0.667   1.541   1.788  0.5679  1.1084  0.0447
  995SOL    MW4 4035   0.670   1.536   1.875  0.0541 -0.1432  0.0082
  996SOL     OW 4036   0.429   1.667   1.981  0.1062 -0.5409 -0.4976
  996SOL    HW2 4037   0.426   1.690   2.073 -0.4966 -0.9221 -0.4245
  996SOL    HW3 4038   0.517   1.632   1.968 -0.0275 -1.0811  0.0690
  996SOL    MW4 4039   0.440   1.666   1.991  0.0091 -0.6624 -0.4132
  997SOL     OW 4040   0.444   1.913   1.870  0.1031 -0.0089 -0.2551
  997SOL    HW2 4041   0.423   1.829   1.909  0.1962  0.1566  0.1575
  997SOL    HW3 4042   0.367   1.967   1.885 -1.0215 -0.8373 -2.9030
  997SOL    MW4 4043   0.431   1.909   1.877 -0.0330 -0.0964 -0.5499
  998SOL     OW 4044   0.681   2.046   1.988  0.0833  0.1132  0.5707
  998SOL    HW2 4045   0.671   2.042   2.083 -0.7603  0.4042  0.4974
  998SOL    HW3 4046   0.600   2.011   1.953  0.7255 -0.7762 -0.0541
  998SOL    MW4 4047   0.669   2.041   1.996  0.0567  0.0341  0.4789
  999SOL     OW 4048   0.711   2.319   1.920  0.2779  0.0908 -0.2448
  999SOL    HW2 4049   0.715   2.226   1.942  0.9833  0.0987 -0.3285
  999SOL    HW3 4050   0.717   2.322   1.825  1.8586  0.3068 -0.1440
  999SOL    MW4 4051   0.712   2.307   1.910  0.5794  0.1202 -0.2425
 1000SOL     OW 4052   0.459   2.440   1.993  0.0282  0.1708  0.1960
 1000SOL    HW2 4053   0.448   2.449   2.088  0.3063 -0.0556  0.2497
 1000SOL    HW3 4054   0.536   2.384   1.983 -0.8591 -1.0139 -0.1437
 1000SOL    MW4 4055   0.468   2.434   2.005 -0.0522 -0.0153  0.1583
 1001SOL     OW 4056   0.486   2.736   1.908 -0.1600  0.4614  0.1536
 1001SOL    HW2 4057   0.477   2.644   1.933 -1.3930  0.4296 -0.3898
 1001SOL    HW3 4058   0.408   2.779   1.942 -0.9374  0.7798 -1.9611
 1001SOL    MW4 4059   0.475   2.730   1.916 -0.4252  0.4995 -0.1971
 1002SOL     OW 4060   0.751   2.829   1.973  0.0084 -0.5317  0.0425
 1002SOL    HW2 4061   0.747   2.847   2.067  0.4247  0.3434 -0.1052
 1002SOL    HW3 4062   0.662   2.800   1.951 -0.0408 -0.9282  0.7418
 1002SOL    MW4 4063   0.738   2.828   1.982  0.0569 -0.4685  0.1153
 1003SOL     OW 4064   0.737   3.087   1.858 -0.0456  0.6379 -0.3046
 1003SOL    HW2 4065   0.747   2.998   1.890 -0.6509  0.4280 -0.6851
 1003SOL    HW3 4066   0.751   3.080   1.763 -1.5141  0.7019 -0.5347
 1003SOL    MW4 4067   0.740   3.074   1.850 -0.3192  0.6187 -0.3853
 1004SOL     OW 4068   0.498   3.206   1.948 -0.1210 -0.1139 -0.5304
 1004SOL    HW2 4069   0.501   3.300   1.933  1.1449 -0.1130 -0.3486
 1004SOL    HW3 4070   0.578   3.173   1.907  0.3932 -0.8634  1.0351
 1004SOL    MW4 4071   0.509   3.214   1.941  0.1138 -0.2127 -0.2998
 1005SOL     OW 4072   0.487   3.493   1.908  0.1498 -0.2700  0.1022
 1005SOL    HW2 4073   0.572   3.528   1.933 -0.0172  0.2382 -0.0518
 1005SOL    HW3 4074   0.485   3.498   1.812  0.4802 -1.5138  0.0111
 1005SOL    MW4 4075   0.498   3.498   1.898  0.1713 -0.3672  0.0699
 1006SOL     OW 4076   0.717   3.627   2.012 -0.5056  0.3839  0.0778
 1006SOL    HW2 4077   0.782   3.581   1.958 -0.7953 -0.2804  0.2960
 1006SOL    HW3 4078   0.702   3.709   1.965 -0.0944  0.1957 -0.3913
 1006SOL    MW4 4079   0.723   3.632   1.998 -0.4896  0.2713  0.0449
 1007SOL     OW 4080   0.667   3.880   1.903  0.4455  0.2482  0.1261
 1007SOL    HW2 4081   0.753   3.917   1.922  0.5526  0.9391 -1.6119
 1007SOL    HW3 4082   0.669   3.861   1.809 -1.8664  1.8251 -0.2893
 1007SOL    MW4 4083   0.679   3.883   1.893  0.1546  0.5469 -0.1580
 1008SOL     OW 4084   0.433   3.990   2.027  0.1382 -0.5378 -0.6028
 1008SOL    HW2 4085   0.433   4.080   1.994 -1.3156  0.0695  1.0001
 1008SOL    HW3 4086   0.511   3.950   1.987  0.3525  1.1836 -1.9574
 1008SOL    MW4 4087   0.444   3.997   2.017 -0.0254 -0.2301 -0.5701
 1009SOL     OW 4088   0.451   4.244   1.922  0.0864 -0.0336  0.4772
 1009SOL    HW2 4089   0.376   4.288   1.961 -0.2297 -0.0138 -0.1437
 1009SOL    HW3 4090   0.430   4.238   1.829 -0.2371 -2.2460  0.6733
 1009SOL    MW4 4091   0.439   4.249   1.915  0.0021 -0.3233  0.4210
 1010SOL     OW 4092   0.670   4.384   2.014 -0.5501 -0.0940 -0.2521
 1010SOL    HW2 4093   0.743   4.326   1.991  0.0230  0.2782  0.5766
 1010SOL    HW3 4094   0.592   4.332   1.997 -0.0815 -0.5998 -0.8899
 1010SOL    MW4 4095   0.669   4.370   2.009 -0.4127 -0.1116 -0.2270
 1011SOL     OW 4096   1.138   4.622   1.883  0.0066 -0.2228 -0.4726
 1011SOL    HW2 4097   1.213   4.667   1.923  0.1516 -0.6534 -0.2574
 1011SOL    HW3 4098   1.145   4.532   1.914  0.2534 -0.6132 -1.6478
 1011SOL    MW4 4099   1.149   4.616   1.892  0.0584 -0.3309 -0.5994
 1012SOL     OW 4100   0.918   0.110   1.980  0.3622 -0.0032  0.1112
 1012SOL    HW2 4101   0.996   0.060   1.953 -0.1891 -1.4881  1.1865
 1012SOL    HW3 4102   0.845   0.061   1.941 -0.1870 -0.0090  1.1451
 1012SOL    MW4 4103   0.919   0.097   1.971  0.2170 -0.1999  0.3895
 1013SOL     OW 4104   0.909   0.358   1.882 -0.4441  0.0001  0.4920
 1013SOL    HW2 4105   0.974   0.413   1.926  0.8132 -1.3487  0.3452
 1013SOL    HW3 4106   0.917   0.273   1.925 -2.3312 -0.1108  0.6713
 1013SOL    MW4 4107   0.919   0.354   1.894 -0.5271 -0.1925  0.4965
 1014SOL     OW 4108   1.117   0.522   1.986 -0.3500 -0.1166  0.0408
 1014SOL    HW2 4109   1.197   0.480   1.956  0.4614  1.8266 -0.5455
 1014SOL    HW3 4110   1.116   0.607   1.942 -1.6715  0.7371  1.6708
 1014SOL    MW4 4111   1.127   0.527   1.976 -0.4171  0.2524  0.1786
 1015SOL     OW 4112   1.108   0.741   1.833 -0.1642  0.5416 -0.4223
 1015SOL    HW2 4113   1.186   0.784   1.868  0.6869 -2.3950  1.4582
 1015SOL    HW3 4114   1.035   0.782   1.879  0.6494 -0.2280  1.6023
 1015SOL    MW4 4115   1.108   0.752   1.843  0.0553  0.0527  0.0929
 1016SOL     OW 4116   0.904   0.864   1.939 -0.0034 -0.5457 -0.0078
 1016SOL    HW2 4117   0.896   0.864   2.034 -0.3180 -0.4187 -0.0330
 1016SOL    HW3 4118   0.908   0.957   1.916  1.0759 -0.5848 -0.0385
 1016SOL    MW4 4119   0.904   0.877   1.949  0.0975 -0.5342 -0.0150
 1017SOL     OW 4120   0.912   1.144   1.891  0.2020 -0.0779 -0.2978
 1017SOL    HW2 4121   0.837   1.195   1.923  0.5218  0.1758  0.0610
 1017SOL    HW3 4122   0.912   1.158   1.797  1.1954  1.8691 -0.0488
 1017SOL    MW4 4123   0.902   1.153   1.883  0.3753  0.2124 -0.2178
 1018SOL     OW 4124   1.139   1.279   2.008  0.0918 -0.3784  0.0741
 1018SOL    HW2 4125   1.142   1.358   1.955  0.2098  0.1966  0.9410
 1018SOL    HW3 4126   1.058   1.235   1.980 -0.5947  0.6329  0.4343
 1018SOL    MW4 4127   1.129   1.283   1.997  0.0169 -0.1689  0.2359
 1019SOL     OW 4128   1.140   1.531   1.867  0.3696  0.1674 -0.2148
 1019SOL    HW2 4129   1.060   1.576   1.894  0.5089 -0.2372  0.8954
 1019SOL    HW3 4130   1.148   1.551   1.773 -0.3291  1.2688 -0.0525
 1019SOL    MW4 4131   1.131   1.539   1.858  0.2959  0.2593 -0.0468
 1020SOL     OW 4132   0.915   1.687   1.948  0.4128  0.1793 -0.1256
 1020SOL    HW2 4133   0.909   1.775   1.911 -1.4057 -0.1892 -0.7511
 1020SOL    HW3 4134   0.831   1.646   1.927 -0.0066 -0.6476  2.9386
 1020SOL    MW4 4135   0.903   1.693   1.940  0.1176  0.0217  0.1961
 1021SOL     OW 4136   0.900   1.950   1.827 -0.2493  0.6413 -0.0858
 1021SOL    HW2 4137   0.818   1.979   1.869  0.4886  0.4965  1.5020
 1021SOL    HW3 4138   0.877   1.939   1.735 -2.6195 -1.5577  0.6798
 1021SOL    MW4 4139   0.886   1.952   1.820 -0.4647  0.3320  0.2246
 1022SOL     OW 4140   1.127   2.043   1.971  0.1164  0.6692 -0.0436
 1022SOL    HW2 4141   1.156   2.128   1.938  0.2034  1.0066  0.8760
 1022SOL    HW3 4142   1.049   2.022   1.919 -0.5378  1.8292  0.4512
 1022SOL    MW4 4143   1.120   2.051   1.960  0.0415  0.8667  0.1431
 1023SOL     OW 4144   1.152   2.302   1.908  0.0866 -0.0860  0.0954
 1023SOL    HW2 4145   1.219   2.368   1.930 -3.0179  3.0100  0.7230
 1023SOL    HW3 4146   1.152   2.299   1.812  0.0401  1.0820  0.0540
 1023SOL    MW4 4147   1.161   2.310   1.898 -0.3293  0.4766  0.1729
 1024SOL     OW 4148   0.933   2.441   2.040 -0.3719 -0.3426  0.2803
 1024SOL    HW2 4149   1.007   2.417   1.984  0.1776 -0.2525  0.9615
 1024SOL    HW3 4150   0.856   2.405   1.996 -0.2129  1.7048 -1.7514
 1024SOL    MW4 4151   0.933   2.433   2.027 -0.2784 -0.0606  0.1020
 1025SOL     OW 4152   0.941   2.666   1.877 -0.1325  0.3300  0.0422
 1025SOL    HW2 4153   0.954   2.594   1.938  0.8252 -0.2592 -0.8440
 1025SOL    HW3 4154   0.873   2.720   1.917 -2.2583 -2.0953 -0.1911
 1025SOL    MW4 4155   0.934   2.663   1.890 -0.2866 -0.0677 -0.1055
 1026SOL     OW 4156   1.155   2.853   1.955  0.4061  0.4677 -0.4794
 1026SOL    HW2 4157   1.131   2.847   2.047  0.1599  0.9231 -0.5146
 1026SOL    HW3 4158   1.097   2.791   1.911 -0.5899  1.4424 -0.5414
 1026SOL    MW4 4159   1.144   2.844   1.961  0.2420  0.6561 -0.4922
 1027SOL     OW 4160   1.143   3.092   1.823 -0.2358 -0.3692 -0.1631
 1027SOL    HW2 4161   1.066   3.138   1.857  0.0150 -0.6545  0.8085
 1027SOL    HW3 4162   1.143   3.009   1.870  0.8711 -0.2171  0.1030
 1027SOL    MW4 4163   1.133   3.087   1.834 -0.0566 -0.3867  0.0001
 1028SOL     OW 4164   0.946   3.224   1.979 -0.1406  0.0173 -0.0401
 1028SOL    HW2 4165   0.929   3.226   2.073  0.6583  0.8720  0.0859
 1028SOL    HW3 4166   0.867   3.186   1.941 -0.9174  0.7119  0.8690
 1028SOL    MW4 4167   0.933   3.219   1.987 -0.1377  0.2217  0.0966
 1029SOL     OW 4168   0.910   3.482   1.865 -0.1960  0.1869  0.5265
 1029SOL    HW2 4169   0.918   3.392   1.896  1.0461  0.4557  1.0114
 1029SOL    HW3 4170   0.914   3.476   1.770 -0.0052 -0.2537  0.5623
 1029SOL    MW4 4171   0.911   3.470   1.857 -0.0069  0.1643  0.5952
 1030SOL     OW 4172   1.170   3.581   1.972  0.1391 -0.3955 -0.1434
 1030SOL    HW2 4173   1.151   3.572   2.065 -1.2086  2.7633 -0.0390
 1030SOL    HW3 4174   1.087   3.562   1.928  0.3504 -0.3129 -0.5822
 1030SOL    MW4 4175   1.157   3.578   1.979 -0.0110  0.0322 -0.1875
 1031SOL     OW 4176   1.174   3.853   1.935  0.3487  0.5656 -0.0870
 1031SOL    HW2 4177   1.162   3.760   1.956  0.5712  0.7297  0.8315
 1031SOL    HW3 4178   1.179   3.857   1.840  1.8083 -0.5503 -0.0604
 1031SOL    MW4 4179   1.173   3.841   1.926  0.5707  0.4399  0.0376
 1032SOL     OW 4180   0.919   3.962   1.972  0.4139  0.1829 -0.2713
 1032SOL    HW2 4181   0.910   3.975   2.066  0.9429  1.0818 -0.3422
 1032SOL    HW3 4182   1.002   3.916   1.961  0.6849  0.6821 -0.3423
 1032SOL    MW4 4183   0.928   3.958   1.983  0.5194  0.3674 -0.2902
 1033SOL     OW 4184   0.904   4.251   1.924  0.2857  0.1826 -0.3967
 1033SOL    HW2 4185   0.983   4.295   1.954  0.7988  0.1841 -1.7439
 1033SOL    HW3 4186   0.925   4.157   1.930 -0.1618  0.1404  0.7072
 1033SOL    MW4 4187   0.917   4.244   1.929  0.2944  0.1764 -0.4288
 1034SOL     OW 4188   1.122   4.384   2.020  0.2949  0.4904  0.5262
 1034SOL    HW2 4189   1.120   4.372   2.114 -1.3875  0.5495  0.5097
 1034SOL    HW3 4190   1.200   4.337   1.991  0.0013 -0.7792  1.7667
 1034SOL    MW4 4191   1.132   4.376   2.028  0.0342  0.3309  0.6878
 1035SOL     OW 4192   1.573   4.617   1.870  0.0220  0.1380  0.0058
 1035SOL    HW2 4193   1.648   4.658   1.913 -0.3250 -0.6918  1.4047
 1035SOL    HW3 4194   1.561   4.534   1.915 -0.8831 -0.3597 -1.1272
 1035SOL    MW4 4195   1.581   4.612   1.882 -0.1433 -0.0367  0.0408
 1036SOL     OW 4196   1.362   0.109   1.969 -0.7468  0.4003 -0.1736
 1036SOL    HW2 4197   1.371   0.097   2.064  0.0494 -0.7794 -0.3857
 1036SOL    HW3 4198   1.444   0.077   1.933 -1.7903 -0.9837 -1.4008
 1036SOL    MW4 4199   1.374   0.103   1.977 -0.7794  0.0621 -0.3635
 1037SOL     OW 4200   1.363   0.398   1.912 -0.3904 -0.0342  0.2049
 1037SOL    HW2 4201   1.373   0.306   1.937 -0.6010  0.0477  0.5902
 1037SOL    HW3 4202   1.352   0.396   1.817 -0.6526 -0.4294  0.2428
 1037SOL    MW4 4203   1.363   0.386   1.903 -0.4528 -0.0755  0.2606
 1038SOL     OW 4204   1.602   0.511   2.013 -0.5977 -0.0071 -0.1266
 1038SOL    HW2 4205   1.672   0.454   1.981 -1.4464 -0.8348 -0.5291
 1038SOL    HW3 4206   1.522   0.464   1.992 -1.2764  0.9326  0.3471
 1038SOL    MW4 4207   1.601   0.498   2.006 -0.7992  0.0077 -0.1173
 1039SOL     OW 4208   1.597   0.767   1.906 -0.2905  0.0095  0.0351
 1039SOL    HW2 4209   1.664   0.817   1.953 -1.5383  0.5366  1.3131
 1039SOL    HW3 4210   1.598   0.681   1.948 -0.1499 -0.1059 -0.2043
 1039SOL    MW4 4211   1.606   0.762   1.918 -0.4365  0.0638  0.1720
 1040SOL     OW 4212   1.325   0.842   1.962  0.0663  0.3137  0.4144
 1040SOL    HW2 4213   1.328   0.870   2.054  0.1388 -0.5845  0.6864
 1040SOL    HW3 4214   1.410   0.800   1.947  0.0041  0.3423 -0.0324
 1040SOL    MW4 4215   1.337   0.840   1.972  0.0677  0.1989  0.3914
 1041SOL     OW 4216   1.350   1.135   1.886 -0.3642 -0.5656 -0.0135
 1041SOL    HW2 4217   1.368   1.045   1.915  3.0546  0.5980  1.7832
 1041SOL    HW3 4218   1.283   1.167   1.947 -0.5721 -1.4336  0.2260
 1041SOL    MW4 4219   1.344   1.127   1.898  0.0595 -0.5265  0.2552
 1042SOL     OW 4220   1.591   1.288   1.992 -0.1477  0.1741 -0.0062
 1042SOL    HW2 4221   1.616   1.370   1.950  0.7499 -1.3302 -2.5053
 1042SOL    HW3 4222   1.499   1.275   1.969  0.0107 -0.0547 -0.5121
 1042SOL    MW4 4223   1.582   1.297   1.984 -0.0085 -0.0545 -0.4027
 1043SOL     OW 4224   1.589   1.544   1.841 -0.0292  0.7696 -0.3616
 1043SOL    HW2 4225   1.670   1.586   1.872  0.5384 -0.3209 -0.3359
 1043SOL    HW3 4226   1.519   1.593   1.884  0.6641  0.9201  0.6321
 1043SOL    MW4 4227   1.591   1.556   1.851  0.1371  0.6455 -0.2270
 1044SOL     OW 4228   1.372   1.671   1.962  0.2636 -0.3639 -0.0854
 1044SOL    HW2 4229   1.383   1.671   2.057  2.1225 -0.6967 -0.2903
 1044SOL    HW3 4230   1.294   1.617   1.947  0.4954 -1.0714  1.1846
 1044SOL    MW4 4231   1.363   1.664   1.973  0.5395 -0.5013  0.0552
 1045SOL     OW 4232   1.373   1.931   1.900  0.0019 -0.3272  0.2408
 1045SOL    HW2 4233   1.383   1.838   1.920 -0.3940 -0.6989 -1.2694
 1045SOL    HW3 4234   1.279   1.947   1.909 -0.2246 -0.5597 -1.5135
 1045SOL    MW4 4235   1.362   1.921   1.904 -0.0802 -0.4070 -0.1900
 1046SOL     OW 4236   1.581   2.089   1.981  0.0198  0.0255 -0.5492
 1046SOL    HW2 4237   1.562   2.179   1.956  0.4360  0.1651 -0.3561
 1046SOL    HW3 4238   1.503   2.040   1.953 -0.2529  0.4578 -0.5532
 1046SOL    MW4 4239   1.568   2.094   1.974  0.0386  0.1009 -0.5240
 1047SOL     OW 4240   1.548   2.340   1.922  0.4191 -0.3269 -0.1369
 1047SOL    HW2 4241   1.632   2.372   1.952 -0.1775 -0.0549  1.2808
 1047SOL    HW3 4242   1.552   2.346   1.826  1.8241  0.1088 -0.0480
 1047SOL    MW4 4243   1.559   2.345   1.913  0.5257 -0.2337  0.0620
 1048SOL     OW 4244   1.327   2.482   1.984  0.4372 -0.2688 -0.3453
 1048SOL    HW2 4245   1.341   2.565   1.938 -1.3076 -0.2291 -0.8514
 1048SOL    HW3 4246   1.397   2.425   1.952  0.7777  0.5611 -1.1159
 1048SOL    MW4 4247   1.338   2.486   1.974  0.2519 -0.1540 -0.5138
 1049SOL     OW 4248   1.390   2.718   1.859 -0.1754  0.5639  0.3483
 1049SOL    HW2 4249   1.306   2.755   1.888 -0.3591  1.0450 -0.7672
 1049SOL    HW3 4250   1.384   2.718   1.764  0.7439 -0.2334  0.2868
 1049SOL    MW4 4251   1.378   2.723   1.850 -0.0784  0.5224  0.1929
 1050SOL     OW 4252   1.601   2.831   1.999  0.1094  0.2166 -0.0428
 1050SOL    HW2 4253   1.685   2.796   1.971  0.4955  0.2529  1.0787
 1050SOL    HW3 4254   1.537   2.782   1.948  0.7418 -0.7639  0.0997
 1050SOL    MW4 4255   1.603   2.820   1.988  0.2438  0.0918  0.1240
 1051SOL     OW 4256   1.623   3.118   1.947  0.7483  0.0300  0.3105
 1051SOL    HW2 4257   1.636   3.026   1.973 -0.4379 -0.1629  0.2399
 1051SOL    HW3 4258   1.632   3.118   1.852 -1.2071 -0.3693  0.1049
 1051SOL    MW4 4259   1.626   3.106   1.938  0.3337 -0.0479  0.2741
 1052SOL     OW 4260   1.347   3.207   1.986 -0.5474  0.1489  0.0622
 1052SOL    HW2 4261   1.427   3.156   1.971  0.4165  2.0645 -1.5291
 1052SOL    HW3 4262   1.281   3.164   1.930 -0.0458 -0.0432 -0.3919
 1052SOL    MW4 4263   1.349   3.194   1.976 -0.3542  0.3762 -0.2077
 1053SOL     OW 4264   1.393   3.458   1.861 -0.1149 -0.0503  0.0234
 1053SOL    HW2 4265   1.399   3.378   1.913  0.7234  0.4542  0.7163
 1053SOL    HW3 4266   1.314   3.502   1.895 -0.5481 -0.5484 -0.3260
 1053SOL    MW4 4267   1.383   3.453   1.873 -0.0616 -0.0494  0.0689
 1054SOL     OW 4268   1.581   3.619   1.962  0.4857  0.1470  0.1150
 1054SOL    HW2 4269   1.574   3.622   2.057  1.1607  1.6656  0.1319
 1054SOL    HW3 4270   1.506   3.566   1.934  0.9045 -1.2235  1.5468
 1054SOL    MW4 4271   1.570   3.612   1.971  0.6300  0.1664  0.3062
 1055SOL     OW 4272   1.599   3.900   1.851 -0.0639  0.4056  0.0169
 1055SOL    HW2 4273   1.672   3.938   1.899  1.1974 -0.1537 -1.4275
 1055SOL    HW3 4274   1.590   3.811   1.887 -0.8790  0.9154  1.0890
 1055SOL    MW4 4275   1.607   3.893   1.862 -0.0050  0.3991 -0.0323
 1056SOL     OW 4276   1.369   4.020   2.016  0.5818  0.0294 -0.1505
 1056SOL    HW2 4277   1.449   3.994   1.970  0.4168 -0.4787 -0.1513
 1056SOL    HW3 4278   1.301   3.962   1.982  0.6423 -0.9721  1.3827
 1056SOL    MW4 4279   1.371   4.009   2.006  0.5680 -0.1693  0.0517
 1057SOL     OW 4280   1.350   4.267   1.907 -0.5243  0.1333  0.6269
 1057SOL    HW2 4281   1.349   4.177   1.938  0.7734  0.2421  0.9829
 1057SOL    HW3 4282   1.353   4.260   1.811 -2.1013 -0.1893  0.5791
 1057SOL    MW4 4283   1.350   4.254   1.898 -0.5611  0.1054  0.6676
 1058SOL     OW 4284   1.591   4.380   2.023 -0.3268  0.3047  0.1337
 1058SOL    HW2 4285   1.586   4.397   2.117 -0.1040  0.5447  0.1012
 1058SOL    HW3 4286   1.501   4.361   1.997 -0.3487 -0.0221  0.4464
 1058SOL    MW4 4287   1.579   4.379   2.032 -0.3003  0.2933  0.1709
 1059SOL     OW 4288   2.018   4.609   1.909 -0.3264  0.4819 -0.5450
 1059SOL    HW2 4289   2.090   4.661   1.945  0.4437 -0.3840 -0.8099
 1059SOL    HW3 4290   2.038   4.519   1.936 -1.2948  0.2272 -0.6489
 1059SOL    MW4 4291   2.030   4.604   1.918 -0.3526  0.3338 -0.5937
 1060SOL     OW 4292   1.796   0.060   1.986 -0.2614  0.2229 -0.0104
 1060SOL    HW2 4293   1.801   0.068   2.082  0.6507 -0.0814 -0.0264
 1060SOL    HW3 4294   1.877   0.014   1.962 -1.6771 -1.9914 -0.6670
 1060SOL    MW4 4295   1.807   0.055   1.996 -0.3279 -0.1094 -0.0991
 1061SOL     OW 4296   1.775   0.332   1.907  0.5253  0.4541  0.2365
 1061SOL    HW2 4297   1.801   0.241   1.917  1.7402  0.9437  1.7431
 1061SOL    HW3 4298   1.784   0.349   1.813 -0.6263 -1.2282 -0.1886
 1061SOL    MW4 4299   1.780   0.322   1.896  0.5336  0.2968  0.3792
 1062SOL     OW 4300   2.018   0.446   1.962 -0.2743  0.0803 -0.6855
 1062SOL    HW2 4301   1.990   0.534   1.937 -1.7293 -0.5706 -1.4372
 1062SOL    HW3 4302   1.939   0.392   1.953  0.2992 -1.0724  0.9488
 1062SOL    MW4 4303   2.004   0.450   1.957 -0.3908 -0.1577 -0.5690
 1063SOL     OW 4304   2.022   0.721   1.900  0.1348  0.1237 -0.5626
 1063SOL    HW2 4305   2.112   0.741   1.924  0.1912 -0.0804 -0.6079
 1063SOL    HW3 4306   2.018   0.738   1.806 -0.2360  1.4829 -0.3147
 1063SOL    MW4 4307   2.033   0.726   1.891  0.0932  0.2761 -0.5357
 1064SOL     OW 4308   1.816   0.888   2.035 -0.4432  0.0015 -0.4398
 1064SOL    HW2 4309   1.820   0.982   2.018 -0.4714  0.2231  0.7051
 1064SOL    HW3 4310   1.898   0.853   2.002 -0.3684  0.4560 -0.7271
 1064SOL    MW4 4311   1.827   0.896   2.028 -0.4370  0.0907 -0.3266
 1065SOL     OW 4312   1.808   1.148   1.930 -0.0851 -0.1918 -0.1003
 1065SOL    HW2 4313   1.726   1.191   1.952 -0.2145 -0.9346  0.9031
 1065SOL    HW3 4314   1.812   1.151   1.834 -1.3472 -0.2833 -0.1600
 1065SOL    MW4 4315   1.798   1.154   1.920 -0.2686 -0.3020  0.0242
 1066SOL     OW 4316   2.030   1.284   2.005  0.5130  0.4107 -0.0945
 1066SOL    HW2 4317   2.108   1.239   1.973  0.2169  0.2578 -0.6049
 1066SOL    HW3 4318   1.956   1.232   1.972  0.0992  2.3699 -2.4155
 1066SOL    MW4 4319   2.030   1.271   1.997  0.4194  0.6492 -0.4684
 1067SOL     OW 4320   2.004   1.532   1.869 -0.1843 -0.4277 -0.3634
 1067SOL    HW2 4321   2.027   1.440   1.886 -0.9741 -0.7186 -0.8097
 1067SOL    HW3 4322   1.997   1.537   1.774  0.7396  0.3200 -0.3962
 1067SOL    MW4 4323   2.006   1.520   1.859 -0.1667 -0.3675 -0.4268
 1068SOL     OW 4324   1.799   1.679   1.985 -0.1963  0.1247  0.1273
 1068SOL    HW2 4325   1.810   1.765   1.944 -3.0963 -0.2107 -1.5173
 1068SOL    HW3 4326   1.874   1.628   1.954  0.0810  1.2521 -1.1055
 1068SOL    MW4 4327   1.810   1.683   1.975 -0.5423  0.2291 -0.2522
 1069SOL     OW 4328   1.799   1.948   1.883  0.2511  0.1108  0.3212
 1069SOL    HW2 4329   1.724   2.003   1.905 -0.8358 -1.4361  0.5584
 1069SOL    HW3 4330   1.812   1.962   1.789 -0.3345  0.3654  0.2759
 1069SOL    MW4 4331   1.791   1.957   1.874  0.0305 -0.0596  0.3465
 1070SOL     OW 4332   1.991   2.092   2.010 -0.0047  0.4593  0.6321
 1070SOL    HW2 4333   2.067   2.055   1.964 -0.6097  0.1579 -0.1456
 1070SOL    HW3 4334   1.919   2.034   1.985 -0.1636 -0.2869  2.7469
 1070SOL    MW4 4335   1.992   2.079   2.001 -0.1056  0.3209  0.8086
 1071SOL     OW 4336   2.003   2.350   1.880 -0.9020  0.4754  0.1384
 1071SOL    HW2 4337   2.071   2.388   1.937 -0.9619  2.0882 -0.8328
 1071SOL    HW3 4338   1.991   2.262   1.914  0.0698  0.9252  1.7608
 1071SOL    MW4 4339   2.010   2.344   1.892 -0.7815  0.7477  0.2244
 1072SOL     OW 4340   1.786   2.445   2.003  0.4139 -0.0087 -0.2485
 1072SOL    HW2 4341   1.808   2.440   2.096  0.7570  0.7691 -0.2801
 1072SOL    HW3 4342   1.860   2.403   1.958 -0.3182 -1.4639 -0.1096
 1072SOL    MW4 4343   1.799   2.439   2.009  0.3626 -0.0978 -0.2341
 1073SOL     OW 4344   1.831   2.691   1.901 -0.4743 -0.4020 -0.1900
 1073SOL    HW2 4345   1.815   2.602   1.933 -0.1819 -0.5768 -0.5339
 1073SOL    HW3 4346   1.810   2.688   1.808 -1.2670  0.0976 -0.0382
 1073SOL    MW4 4347   1.826   2.679   1.893 -0.5404 -0.3591 -0.2153
 1074SOL     OW 4348   2.031   2.865   2.010  0.3949  0.1648  0.2796
 1074SOL    HW2 4349   2.024   2.852   2.104  0.9744  0.8595  0.4255
 1074SOL    HW3 4350   1.970   2.802   1.972 -0.1605  0.1813  1.1394
 1074SOL    MW4 4351   2.022   2.855   2.017  0.3977  0.2587  0.4122
 1075SOL     OW 4352   2.037   3.113   1.902  0.1803  0.2866 -0.2827
 1075SOL    HW2 4353   1.969   3.161   1.950  1.0787  0.9545  0.3530
 1075SOL    HW3 4354   2.027   3.022   1.930  1.0963  0.7631  1.6935
 1075SOL    MW4 4355   2.026   3.107   1.912  0.4196  0.4377  0.0619
 1076SOL     OW 4356   1.843   3.273   2.015  0.0982 -0.0959 -0.5564
 1076SOL    HW2 4357   1.842   3.295   2.108  1.6448 -0.8675 -0.3431
 1076SOL    HW3 4358   1.763   3.222   2.001  0.7887 -1.5549  0.7465
 1076SOL    MW4 4359   1.832   3.269   2.025  0.3934 -0.3903 -0.3564
 1077SOL     OW 4360   1.811   3.495   1.855 -0.5715 -0.4447 -0.4035
 1077SOL    HW2 4361   1.800   3.412   1.903 -0.7053  0.1641  0.6321
 1077SOL    HW3 4362   1.733   3.545   1.877  0.1663  0.5036  0.0893
 1077SOL    MW4 4363   1.799   3.490   1.864 -0.4917 -0.2391 -0.2018
 1078SOL     OW 4364   2.038   3.612   1.989 -0.0929  0.0554  0.1348
 1078SOL    HW2 4365   2.028   3.693   1.938  0.1348  0.2366  0.3812
 1078SOL    HW3 4366   1.961   3.560   1.965  0.4660 -0.2355 -1.0843
 1078SOL    MW4 4367   2.026   3.616   1.979  0.0107  0.0410  0.0064
 1079SOL     OW 4368   2.023   3.880   1.894 -0.1703  0.1319  0.4031
 1079SOL    HW2 4369   2.106   3.905   1.935  0.4507 -2.6296  0.9189
 1079SOL    HW3 4370   2.036   3.896   1.801  0.3642  1.1787  0.6460
 1079SOL    MW4 4371   2.036   3.885   1.887 -0.0179 -0.0944  0.5032
 1080SOL     OW 4372   1.804   3.999   2.011 -0.0299 -0.0854  0.4542
 1080SOL    HW2 4373   1.818   4.089   1.984  1.0146 -0.1822  0.6658
 1080SOL    HW3 4374   1.878   3.950   1.975 -0.4149 -0.7989  0.6088
 1080SOL    MW4 4375   1.815   4.004   2.003  0.0572 -0.1922  0.5026
 1081SOL     OW 4376   1.818   4.252   1.928  0.2019  0.2053  0.6298
 1081SOL    HW2 4377   1.742   4.291   1.971 -0.4966 -0.5650  0.1191
 1081SOL    HW3 4378   1.805   4.270   1.835  1.2541  1.0955  0.6498
 1081SOL    MW4 4379   1.807   4.260   1.921  0.2486  0.2213  0.5651
 1082SOL     OW 4380   2.077   4.353   1.997 -0.3818  0.2593 -0.2099
 1082SOL    HW2 4381   2.153   4.305   1.963  0.1340  0.9025  0.0240
 1082SOL    HW3 4382   2.002   4.299   1.973  0.2746 -1.3332  1.2108
 1082SOL    MW4 4383   2.077   4.339   1.989 -0.2272  0.1335  0.0085
 1083SOL     OW 4384   2.474   4.658   1.840  0.3658 -0.1350  0.2524
 1083SOL    HW2 4385   2.543   4.714   1.875  1.0549 -0.4503 -0.5802
 1083SOL    HW3 4386   2.484   4.576   1.888  0.4009 -0.0878  0.3260
 1083SOL    MW4 4387   2.484   4.654   1.851  0.4616 -0.1704  0.1522
 1084SOL     OW 4388   2.252   0.071   1.968 -0.4968 -0.0907 -0.6004
 1084SOL    HW2 4389   2.289   0.086   2.055 -0.9487  2.0418 -0.7502
 1084SOL    HW3 4390   2.324   0.037   1.916  0.0632 -0.3092  0.3093
 1084SOL    MW4 4391   2.266   0.068   1.973 -0.4826  0.1618 -0.5001
 1085SOL     OW 4392   2.264   0.348   1.897 -0.0360 -0.6307  0.0089
 1085SOL    HW2 4393   2.262   0.254   1.919 -1.3196 -0.4089  0.9046
 1085SOL    HW3 4394   2.175   0.379   1.915  0.2960  0.6981 -0.5771
 1085SOL    MW4 4395   2.252   0.340   1.903 -0.1619 -0.4261  0.0498
 1086SOL     OW 4396   2.482   0.486   1.987 -0.4351 -0.9182  0.1016
 1086SOL    HW2 4397   2.559   0.462   1.935 -0.5622  1.4885 -1.2736
 1086SOL    HW3 4398   2.411   0.432   1.951  0.3426 -2.2477  0.5445
 1086SOL    MW4 4399   2.483   0.476   1.975 -0.3495 -0.7760 -0.0215
 1087SOL     OW 4400   2.486   0.763   1.916  0.0302 -0.7117 -0.5537
 1087SOL    HW2 4401   2.486   0.676   1.956  0.0560 -0.4272  0.0627
 1087SOL    HW3 4402   2.475   0.746   1.822 -1.1845 -1.3178 -0.3100
 1087SOL    MW4 4403   2.485   0.749   1.909 -0.1271 -0.7541 -0.4402
 1088SOL     OW 4404   2.250   0.893   1.980 -0.1774 -0.2142  0.2744
 1088SOL    HW2 4405   2.257   0.906   2.075 -0.8874 -1.3796  0.5053
 1088SOL    HW3 4406   2.320   0.831   1.959 -1.4812 -1.7727  0.4390
 1088SOL    MW4 4407   2.260   0.887   1.990 -0.4432 -0.5736  0.3266
 1089SOL     OW 4408   2.244   1.145   1.895  0.0713 -0.1705 -0.1607
 1089SOL    HW2 4409   2.326   1.189   1.917  0.5413 -0.1991 -1.8048
 1089SOL    HW3 4410   2.254   1.057   1.931 -0.1935  0.5312  1.6712
 1089SOL    MW4 4411   2.256   1.139   1.902  0.0982 -0.0818 -0.1359
 1090SOL     OW 4412   2.475   1.275   1.959 -0.1565  0.5391 -0.1457
 1090SOL    HW2 4413   2.485   1.292   2.053 -1.2691 -0.1934  0.1124
 1090SOL    HW3 4414   2.453   1.361   1.922 -2.0013  0.4237  0.6076
 1090SOL    MW4 4415   2.473   1.289   1.966 -0.5467  0.4271 -0.0122
 1091SOL     OW 4416   2.443   1.527   1.837  0.4986 -0.1022 -0.0910
 1091SOL    HW2 4417   2.366   1.577   1.866 -1.1826 -2.3025 -0.5685
 1091SOL    HW3 4418   2.447   1.541   1.743 -0.0981 -0.9786 -0.2573
 1091SOL    MW4 4419   2.433   1.536   1.829  0.1981 -0.5081 -0.1760
 1092SOL     OW 4420   2.242   1.646   1.969  0.2854  0.4447  0.0747
 1092SOL    HW2 4421   2.235   1.668   2.062  1.4701 -1.2813  0.5902
 1092SOL    HW3 4422   2.160   1.601   1.949  0.9375 -1.1604  0.8729
 1092SOL    MW4 4423   2.230   1.643   1.978  0.5279  0.0054  0.2480
 1093SOL     OW 4424   2.189   1.904   1.907  0.0285  0.1187  0.5055
 1093SOL    HW2 4425   2.277   1.942   1.909  0.0279  0.2319 -0.9340
 1093SOL    HW3 4426   2.200   1.814   1.937  0.5401  0.2938  0.8491
 1093SOL    MW4 4427   2.202   1.897   1.911  0.0961  0.1568  0.3608
 1094SOL     OW 4428   2.449   2.007   2.006  0.2364  0.0971  0.4797
 1094SOL    HW2 4429   2.521   1.971   1.953  0.9371  1.1717  0.6852
 1094SOL    HW3 4430   2.449   2.100   1.985 -0.9242  0.1543  0.7056
 1094SOL    MW4 4431   2.458   2.014   1.996  0.1757  0.2463  0.5367
 1095SOL     OW 4432   2.475   2.281   1.910  0.2602 -0.1039 -0.4664
 1095SOL    HW2 4433   2.560   2.315   1.936  0.2018 -0.3388  0.0547
 1095SOL    HW3 4434   2.412   2.347   1.940  0.3023  0.3771 -1.4267
 1095SOL    MW4 4435   2.478   2.294   1.918  0.2580 -0.0713 -0.5244
 1096SOL     OW 4436   2.248   2.461   2.010 -0.5403  0.2228  0.3664
 1096SOL    HW2 4437   2.243   2.459   2.105  0.6631  1.1824  0.4608
 1096SOL    HW3 4438   2.253   2.554   1.988  1.3964 -0.0580 -0.4951
 1096SOL    MW4 4439   2.248   2.473   2.019 -0.1261  0.3123  0.2651
 1097SOL     OW 4440   2.268   2.736   1.929  0.4265  0.1458 -0.1674
 1097SOL    HW2 4441   2.196   2.789   1.962  1.3581 -0.0994  2.3326
 1097SOL    HW3 4442   2.249   2.725   1.836 -1.5580  1.9792 -0.0062
 1097SOL    MW4 4443   2.256   2.741   1.921  0.2878  0.3550  0.1837
 1098SOL     OW 4444   2.526   2.798   2.004 -0.3416  0.0101 -0.0039
 1098SOL    HW2 4445   2.527   2.889   1.975  0.3735 -0.1895 -0.6091
 1098SOL    HW3 4446   2.444   2.762   1.969 -1.5462  0.9202  1.8144
 1098SOL    MW4 4447   2.516   2.805   1.996 -0.4063  0.1040  0.1562
 1099SOL     OW 4448   2.509   3.059   1.930 -0.4409 -0.2004 -0.2264
 1099SOL    HW2 4449   2.433   3.110   1.958 -0.2872  0.4141 -0.9014
 1099SOL    HW3 4450   2.509   3.067   1.834 -0.8181 -2.0417 -0.3990
 1099SOL    MW4 4451   2.499   3.067   1.921 -0.4704 -0.3622 -0.3382
 1100SOL     OW 4452   2.275   3.194   1.989  0.3151 -0.1558  0.4139
 1100SOL    HW2 4453   2.265   3.201   2.084  0.3148  0.0798  0.3987
 1100SOL    HW3 4454   2.193   3.156   1.959  0.2332 -0.0400  0.4881
 1100SOL    MW4 4455   2.263   3.190   1.998  0.3042 -0.1090  0.4215
 1101SOL     OW 4456   2.247   3.450   1.879 -0.1021 -0.7113  0.2970
 1101SOL    HW2 4457   2.245   3.363   1.919  0.9020  0.1942  2.3888
 1101SOL    HW3 4458   2.181   3.500   1.926  0.3025  0.0650  0.0546
 1101SOL    MW4 4459   2.238   3.445   1.890  0.0839 -0.4895  0.5409
 1102SOL     OW 4460   2.465   3.584   1.977  0.1498 -0.1870  0.2285
 1102SOL    HW2 4461   2.461   3.582   2.073  0.0227 -1.0272  0.2085
 1102SOL    HW3 4462   2.380   3.551   1.949  0.3925 -0.4697 -0.1756
 1102SOL    MW4 4463   2.453   3.579   1.986  0.1647 -0.3350  0.1726
 1103SOL     OW 4464   2.458   3.855   1.914 -0.0223  0.2717 -0.2089
 1103SOL    HW2 4465   2.381   3.889   1.960  0.8769  0.1112  1.4557
 1103SOL    HW3 4466   2.467   3.765   1.946  0.7604  0.2349 -0.5149
 1103SOL    MW4 4467   2.449   3.847   1.924  0.1996  0.2453 -0.0297
 1104SOL     OW 4468   2.255   3.990   2.003 -0.1480  0.1146 -0.3666
 1104SOL    HW2 4469   2.272   4.001   2.096  3.2010 -1.8477 -0.6545
 1104SOL    HW3 4470   2.265   4.078   1.966  0.8478  0.5106  0.8037
 1104SOL    MW4 4471   2.258   4.003   2.010  0.4251 -0.0920 -0.2499
 1105SOL     OW 4472   2.289   4.208   1.852 -0.1633 -0.1923  0.2798
 1105SOL    HW2 4473   2.356   4.270   1.882 -0.9579  0.8325 -0.0409
 1105SOL    HW3 4474   2.285   4.222   1.757 -0.4077 -0.6756  0.2200
 1105SOL    MW4 4475   2.298   4.218   1.843 -0.3004 -0.1202  0.2295
 1106SOL     OW 4476   2.469   4.405   1.954  0.1936 -0.3886  0.1457
 1106SOL    HW2 4477   2.478   4.404   2.049  0.1969 -0.7666  0.1443
 1106SOL    HW3 4478   2.543   4.353   1.923 -1.6097 -3.0441  0.0956
 1106SOL    MW4 4479   2.480   4.398   1.962 -0.0439 -0.7896  0.1389
 1107SOL     OW 4480   2.924   0.012   1.878  0.1357  0.3813 -0.0696
 1107SOL    HW2 4481   2.997   0.063   1.911 -0.0666 -0.1993  1.2994
 1107SOL    HW3 4482   2.933  -0.074   1.919 -0.4902 -0.1570 -1.0177
 1107SOL    MW4 4483   2.935   0.007   1.888  0.0265  0.2337 -0.0141
 1108SOL     OW 4484   2.694   0.162   1.952 -0.1479 -0.3001 -0.2144
 1108SOL    HW2 4485   2.684   0.166   2.047  0.6068 -0.2443 -0.1365
 1108SOL    HW3 4486   2.772   0.108   1.938 -0.5521 -0.7311 -0.8136
 1108SOL    MW4 4487   2.703   0.156   1.963 -0.1018 -0.3496 -0.2831
 1109SOL     OW 4488   2.709   0.419   1.835 -0.2084 -0.1665 -0.1754
 1109SOL    HW2 4489   2.782   0.463   1.877 -1.7297  0.9207  1.4167
 1109SOL    HW3 4490   2.711   0.330   1.870 -0.7810  0.4076  1.3761
 1109SOL    MW4 4491   2.719   0.413   1.845 -0.4847  0.0527  0.2394
 1110SOL     OW 4492   2.914   0.522   1.981 -0.0121  0.1213 -0.1161
 1110SOL    HW2 4493   3.000   0.480   1.969 -0.5376 -0.9334 -0.2707
 1110SOL    HW3 4494   2.919   0.602   1.930  0.0233 -1.1526 -2.1624
 1110SOL    MW4 4495   2.926   0.527   1.973 -0.0768 -0.1860 -0.4065
 1111SOL     OW 4496   2.921   0.787   1.876  0.4399 -0.1691 -0.6206
 1111SOL    HW2 4497   2.993   0.817   1.932 -0.1954  0.1756  0.0216
 1111SOL    HW3 4498   2.842   0.821   1.919 -0.0483  0.1351 -1.7565
 1111SOL    MW4 4499   2.920   0.796   1.889  0.2918 -0.0834 -0.6857
 1112SOL     OW 4500   2.692   0.915   2.024 -0.2783  0.5120  0.0704
 1112SOL    HW2 4501   2.697   0.996   1.975 -0.5559  0.0057 -0.7998
 1112SOL    HW3 4502   2.615   0.870   1.989  0.4693 -0.6057 -0.1884
 1112SOL    MW4 4503   2.682   0.920   2.013 -0.2162  0.2978 -0.0787
 1113SOL     OW 4504   2.720   1.149   1.878  0.0811  0.0564 -0.5497
 1113SOL    HW2 4505   2.649   1.202   1.913 -0.0012 -0.4748  0.1099
 1113SOL    HW3 4506   2.694   1.130   1.788  0.5801  1.9345 -1.1095
 1113SOL    MW4 4507   2.707   1.153   1.871  0.1359  0.2340 -0.5364
 1114SOL     OW 4508   2.953   1.269   1.994 -0.8174 -0.3286 -0.2353
 1114SOL    HW2 4509   2.943   1.361   1.968  0.7526 -0.9179 -3.1520
 1114SOL    HW3 4510   2.884   1.223   1.946 -0.6498 -0.8654  0.0330
 1114SOL    MW4 4511   2.942   1.275   1.984 -0.5879 -0.4771 -0.5847
 1115SOL     OW 4512   2.925   1.519   1.860 -0.0549 -0.2435  0.1222
 1115SOL    HW2 4513   3.008   1.550   1.896  0.3543 -2.4298  1.1397
 1115SOL    HW3 4514   2.935   1.529   1.765  1.6457 -1.1326  0.1815
 1115SOL    MW4 4515   2.937   1.525   1.852  0.2234 -0.6493  0.2644
 1116SOL     OW 4516   2.681   1.631   1.968 -0.1224 -0.1247  0.4036
 1116SOL    HW2 4517   2.757   1.604   1.916 -0.5699 -1.3033  0.3544
 1116SOL    HW3 4518   2.607   1.586   1.928 -1.0283  1.8341 -0.2099
 1116SOL    MW4 4519   2.681   1.622   1.956 -0.3009 -0.0218  0.3163
 1117SOL     OW 4520   2.686   1.905   1.894 -0.4174 -0.0673 -0.1021
 1117SOL    HW2 4521   2.765   1.942   1.932 -0.1508 -0.7648  0.0274
 1117SOL    HW3 4522   2.692   1.812   1.913 -0.7773 -0.2673 -0.9708
 1117SOL    MW4 4523   2.697   1.898   1.901 -0.4296 -0.1857 -0.1996
 1118SOL     OW 4524   2.916   2.033   1.966  0.1820 -0.0498 -0.6187
 1118SOL    HW2 4525   2.912   2.035   2.062 -0.0020 -0.7448 -0.6082
 1118SOL    HW3 4526   3.004   1.999   1.947 -0.6440 -2.2822 -0.6580
 1118SOL    MW4 4527   2.927   2.029   1.976  0.0489 -0.4365 -0.6224
 1119SOL     OW 4528   2.945   2.287   1.869  0.2783 -0.0538 -0.4405
 1119SOL    HW2 4529   3.020   2.329   1.911 -0.2211 -0.2937  0.7088
 1119SOL    HW3 4530   2.948   2.196   1.899  0.4877 -0.4879 -1.7325
 1119SOL    MW4 4531   2.955   2.281   1.878  0.2398 -0.1428 -0.4593
 1120SOL     OW 4532   2.710   2.391   1.955 -0.2252 -0.0279  0.6007
 1120SOL    HW2 4533   2.707   2.478   1.916 -1.1467 -0.2329  0.2226
 1120SOL    HW3 4534   2.791   2.353   1.922 -0.9533 -0.1769 -1.0699
 1120SOL    MW4 4535   2.720   2.397   1.946 -0.4425 -0.0746  0.3303
 1121SOL     OW 4536   2.722   2.666   1.853  0.1181  0.2599  0.0114
 1121SOL    HW2 4537   2.661   2.691   1.922 -0.6791 -2.1426  0.2352
 1121SOL    HW3 4538   2.696   2.719   1.777 -1.8242 -0.2416  0.2988
 1121SOL    MW4 4539   2.711   2.676   1.852 -0.2434 -0.1233  0.0788
 1122SOL     OW 4540   2.925   2.802   1.985 -0.2360 -0.4586  0.1760
 1122SOL    HW2 4541   2.917   2.893   1.957 -1.7618 -0.5511  0.2715
 1122SOL    HW3 4542   2.853   2.757   1.941  0.7477 -1.7047 -0.1928
 1122SOL    MW4 4543   2.914   2.808   1.976 -0.3073 -0.6351  0.1398
 1123SOL     OW 4544   2.913   3.066   1.895 -0.1946 -0.1528 -0.2155
 1123SOL    HW2 4545   2.998   3.092   1.930 -0.1864  0.2661 -0.5447
 1123SOL    HW3 4546   2.849   3.100   1.958 -0.1828  0.6442 -0.6206
 1123SOL    MW4 4547   2.915   3.074   1.908 -0.1919  0.0076 -0.3123
 1124SOL     OW 4548   2.726   3.194   2.053  0.2814  0.2517 -0.1095
 1124SOL    HW2 4549   2.726   3.272   1.997  1.4241  0.6311  0.4081
 1124SOL    HW3 4550   2.656   3.139   2.017 -0.1026  1.2226 -0.8796
 1124SOL    MW4 4551   2.717   3.197   2.041  0.3815  0.4296 -0.1428
 1125SOL     OW 4552   2.690   3.421   1.899  0.3207  0.7739  0.2315
 1125SOL    HW2 4553   2.752   3.487   1.928 -0.1062  2.5552 -2.6789
 1125SOL    HW3 4554   2.604   3.463   1.906 -0.2001 -0.3305  0.6257
 1125SOL    MW4 4555   2.687   3.435   1.903  0.1957  0.8631 -0.1006
 1126SOL     OW 4556   2.918   3.609   1.964  0.3137  0.0616 -0.0256
 1126SOL    HW2 4557   2.919   3.606   2.060  2.0064 -0.3346 -0.0405
 1126SOL    HW3 4558   2.990   3.552   1.937 -0.7473 -0.6037 -1.5723
 1126SOL    MW4 4559   2.928   3.601   1.973  0.3967 -0.0787 -0.2316
 1127SOL     OW 4560   2.891   3.869   1.888  0.3845  0.0446  0.0495
 1127SOL    HW2 4561   2.894   3.781   1.924  0.9343  0.0026 -0.0988
 1127SOL    HW3 4562   2.911   3.859   1.795  0.2595  0.3022 -0.0075
 1127SOL    MW4 4563   2.894   3.856   1.881  0.4408  0.0730  0.0225
 1128SOL     OW 4564   2.680   4.012   1.978 -0.1211 -0.2583 -0.0302
 1128SOL    HW2 4565   2.748   3.955   1.945  0.9104  0.3394  0.9943
 1128SOL    HW3 4566   2.598   3.966   1.961  0.7238 -2.3128  1.3050
 1128SOL    MW4 4567   2.678   3.999   1.972  0.1266 -0.4504  0.2811
 1129SOL     OW 4568   2.700   4.267   1.858 -0.1700 -0.1692 -0.1907
 1129SOL    HW2 4569   2.716   4.181   1.897  2.4143  0.0346 -0.7119
 1129SOL    HW3 4570   2.697   4.251   1.764 -1.3935  0.0806 -0.2050
 1129SOL    MW4 4571   2.701   4.254   1.851  0.0093 -0.1092 -0.2613
 1130SOL     OW 4572   2.914   4.421   1.963  0.4706 -0.0587 -0.5714
 1130SOL    HW2 4573   2.912   4.413   2.058  2.6547  0.6222 -0.4440
 1130SOL    HW3 4574   2.843   4.365   1.933  0.5919 -1.3127  1.4029
 1130SOL    MW4 4575   2.905   4.413   1.972  0.7749 -0.1345 -0.2941
 1131SOL     OW 4576   3.375   4.647   1.884 -0.0225 -0.0294  0.3260
 1131SOL    HW2 4577   3.354   4.555   1.899  0.8484 -0.3797 -0.4643
 1131SOL    HW3 4578   3.373   4.656   1.788 -0.0785  0.7642  0.3997
 1131SOL    MW4 4579   3.372   4.636   1.873  0.0851  0.0291  0.2314
 1132SOL     OW 4580   3.156   0.123   1.985 -0.3264  0.0286 -0.1178
 1132SOL    HW2 4581   3.161   0.129   2.081  0.6505  0.4953 -0.1972
 1132SOL    HW3 4582   3.228   0.065   1.961 -1.5824 -1.4260 -0.4481
 1132SOL    MW4 4583   3.166   0.116   1.995 -0.3631 -0.1017 -0.1719
 1133SOL     OW 4584   3.131   0.388   1.896  0.3840 -0.7946 -0.0052
 1133SOL    HW2 4585   3.121   0.301   1.935 -1.6212 -1.4780 -1.9071
 1133SOL    HW3 4586   3.151   0.370   1.803 -1.3492  0.7565 -0.6992
 1133SOL    MW4 4587   3.132   0.374   1.889 -0.1090 -0.6801 -0.3477
 1134SOL     OW 4588   3.351   0.512   2.009 -0.0426  0.3700 -0.4273
 1134SOL    HW2 4589   3.427   0.477   1.962  0.0775  1.4535 -1.0454
 1134SOL    HW3 4590   3.278   0.458   1.980  0.6252 -1.2846  0.8719
 1134SOL    MW4 4591   3.352   0.500   1.999  0.0615  0.2946 -0.3374
 1135SOL     OW 4592   3.339   0.776   1.915 -0.3002  0.4330 -0.3789
 1135SOL    HW2 4593   3.272   0.828   1.958 -0.0049  0.4560  0.0653
 1135SOL    HW3 4594   3.333   0.690   1.957 -0.2351  0.3557 -0.5273
 1135SOL    MW4 4595   3.330   0.772   1.926 -0.2525  0.4258 -0.3400
 1136SOL     OW 4596   3.128   0.931   2.026  0.8958 -0.2181 -0.3173
 1136SOL    HW2 4597   3.152   0.953   2.117 -0.4350 -0.7495  0.1671
 1136SOL    HW3 4598   3.148   1.010   1.977  1.5784  0.1005  0.4464
 1136SOL    MW4 4599   3.134   0.944   2.032  0.8101 -0.2462 -0.1526
 1137SOL     OW 4600   3.161   1.163   1.854 -0.3348 -0.2251 -0.1591
 1137SOL    HW2 4601   3.239   1.218   1.861  0.6901 -1.7906  1.2419
 1137SOL    HW3 4602   3.094   1.211   1.903  0.4638 -0.0757  0.8121
 1137SOL    MW4 4603   3.162   1.177   1.862 -0.0942 -0.4120  0.1539
 1138SOL     OW 4604   3.400   1.320   1.916  0.1332 -0.1927  0.1686
 1138SOL    HW2 4605   3.395   1.320   2.011 -0.6081 -1.9141  0.1456
 1138SOL    HW3 4606   3.386   1.411   1.891 -1.0725  0.0451  1.6423
 1138SOL    MW4 4607   3.398   1.332   1.925 -0.1237 -0.3884  0.3600
 1139SOL     OW 4608   3.371   1.580   1.838  0.0590 -0.0420  0.3495
 1139SOL    HW2 4609   3.449   1.617   1.880 -0.0476 -1.5064  1.9002
 1139SOL    HW3 4610   3.298   1.612   1.891 -0.1786 -0.8821  0.5265
 1139SOL    MW4 4611   3.372   1.589   1.850  0.0134 -0.3461  0.5774
 1140SOL     OW 4612   3.137   1.648   1.968  0.0740  0.0667 -0.2305
 1140SOL    HW2 4613   3.128   1.651   2.064  0.2626 -0.1245 -0.2070
 1140SOL    HW3 4614   3.131   1.739   1.941 -0.3464  0.0883 -0.0682
 1140SOL    MW4 4615   3.135   1.660   1.977  0.0434  0.0445 -0.2059
 1141SOL     OW 4616   3.174   1.918   1.867 -0.2202 -0.7518  0.3101
 1141SOL    HW2 4617   3.243   1.978   1.896 -0.5133  0.1118 -0.7623
 1141SOL    HW3 4618   3.169   1.931   1.772 -1.0058 -1.7205  0.2098
 1141SOL    MW4 4619   3.183   1.927   1.858 -0.3626 -0.7656  0.1554
 1142SOL     OW 4620   3.397   2.061   1.953  0.4345 -0.2591 -0.2783
 1142SOL    HW2 4621   3.480   2.021   1.926  2.1171  0.5628  3.2911
 1142SOL    HW3 4622   3.405   2.153   1.928  1.2342  0.1167  1.2832
 1142SOL    MW4 4623   3.409   2.068   1.946  0.7620 -0.1013  0.3986
 1143SOL     OW 4624   3.364   2.333   1.853 -0.2227  0.1361  0.0172
 1143SOL    HW2 4625   3.294   2.381   1.897  2.1360  2.9535  0.8235
 1143SOL    HW3 4626   3.349   2.349   1.760 -0.7283  0.6050  0.1774
 1143SOL    MW4 4627   3.353   2.342   1.847  0.0217  0.5696  0.1447
 1144SOL     OW 4628   3.151   2.429   2.011  0.1629 -0.4655 -0.2250
 1144SOL    HW2 4629   3.165   2.444   2.105  0.1999 -1.2058 -0.1116
 1144SOL    HW3 4630   3.132   2.516   1.976  1.9823  0.1163  0.1481
 1144SOL    MW4 4631   3.150   2.443   2.019  0.4077 -0.4866 -0.1609
 1145SOL     OW 4632   3.178   2.704   1.913 -0.5256  0.4021  0.3342
 1145SOL    HW2 4633   3.091   2.733   1.939 -0.7598 -0.7758  0.9152
 1145SOL    HW3 4634   3.172   2.690   1.818 -0.7327  1.1187  0.2437
 1145SOL    MW4 4635   3.166   2.706   1.904 -0.5839  0.3414  0.3989
 1146SOL     OW 4636   3.403   2.853   1.988  0.1474  0.3207  0.0939
 1146SOL    HW2 4637   3.394   2.857   2.083  0.7365 -1.8312  0.2736
 1146SOL    HW3 4638   3.320   2.816   1.957  0.6973 -0.8681 -0.0172
 1146SOL    MW4 4639   3.391   2.848   1.996  0.2978 -0.1202  0.1031
 1147SOL     OW 4640   3.381   3.100   1.885 -0.2759  0.4994 -0.0787
 1147SOL    HW2 4641   3.467   3.136   1.906 -0.8381  1.2856  0.9417
 1147SOL    HW3 4642   3.384   3.011   1.919 -0.1230  0.7760  0.6517
 1147SOL    MW4 4643   3.393   3.093   1.892 -0.3297  0.6394  0.1523
 1148SOL     OW 4644   3.135   3.197   1.969  0.1924  0.6000 -0.3582
 1148SOL    HW2 4645   3.117   3.279   1.923  1.3651  1.2899  0.3648
 1148SOL    HW3 4646   3.225   3.175   1.943 -0.1698 -0.5469 -0.6719
 1148SOL    MW4 4647   3.145   3.205   1.959  0.2992  0.5395 -0.3042
 1149SOL     OW 4648   3.120   3.458   1.871 -0.2347 -0.1508  0.0863
 1149SOL    HW2 4649   3.199   3.491   1.914  0.0271 -0.5051 -0.1167
 1149SOL    HW3 4650   3.140   3.463   1.778 -0.4315 -0.2877  0.0374
 1149SOL    MW4 4651   3.133   3.463   1.865 -0.2263 -0.2155  0.0530
 1150SOL     OW 4652   3.361   3.560   1.983 -0.1800  0.6105 -0.3497
 1150SOL    HW2 4653   3.442   3.520   1.952 -0.7725 -1.4429  0.6438
 1150SOL    HW3 4654   3.375   3.654   1.973  1.6955  0.2140 -1.6918
 1150SOL    MW4 4655   3.373   3.567   1.978 -0.0110  0.2873 -0.3957
 1151SOL     OW 4656   3.394   3.836   1.895  0.0963 -0.8747  0.2609
 1151SOL    HW2 4657   3.320   3.888   1.926  1.2709  0.3639  1.0511
 1151SOL    HW3 4658   3.407   3.865   1.804  0.5772  0.0520  0.6137
 1151SOL    MW4 4659   3.386   3.847   1.887  0.3150 -0.5891  0.4116
 1152SOL     OW 4660   3.173   3.958   1.979 -0.0026  0.0804  0.0967
 1152SOL    HW2 4661   3.167   3.976   2.073  0.4394  0.1404  0.1136
 1152SOL    HW3 4662   3.085   3.928   1.955 -0.5385  1.4665  0.2316
 1152SOL    MW4 4663   3.160   3.957   1.988 -0.0148  0.2713  0.1167
 1153SOL     OW 4664   3.116   4.263   1.853  0.1793 -0.1539 -0.1393
 1153SOL    HW2 4665   3.122   4.178   1.897 -0.7810  0.9291  2.1945
 1153SOL    HW3 4666   3.044   4.308   1.897  1.5282  2.3893 -0.3854
 1153SOL    MW4 4667   3.107   4.258   1.865  0.2306  0.3247  0.1361
 1154SOL     OW 4668   3.352   4.393   1.968 -0.5688  0.2820  0.3413
 1154SOL    HW2 4669   3.434   4.351   1.942 -0.2661 -0.2055  1.9733
 1154SOL    HW3 4670   3.284   4.329   1.947 -0.5009  0.5308 -0.6593
 1154SOL    MW4 4671   3.354   4.379   1.962 -0.5202  0.2503  0.4247
 1155SOL     OW 4672   3.801   4.651   1.856  0.2880  0.0795 -0.0053
 1155SOL    HW2 4673   3.782   4.560   1.880 -0.2301  0.5818  1.4883
 1155SOL    HW3 4674   3.722   4.699   1.880  0.8492  1.0568 -0.1036
 1155SOL    MW4 4675   3.788   4.645   1.862  0.2937  0.2751  0.1788
 1156SOL     OW 4676   3.586   0.141   1.960  0.0314 -0.3123  0.0531
 1156SOL    HW2 4677   3.598   0.132   2.054  0.4513 -1.1361 -0.0719
 1156SOL    HW3 4678   3.509   0.087   1.940 -0.8798  0.9520  0.1217
 1156SOL    MW4 4679   3.577   0.133   1.970 -0.0334 -0.2542  0.0457
 1157SOL     OW 4680   3.561   0.403   1.873  0.9744  0.2331  0.2225
 1157SOL    HW2 4681   3.561   0.312   1.903 -1.0987  0.3276  0.5785
 1157SOL    HW3 4682   3.579   0.396   1.779  1.9017 -0.4561  0.4390
 1157SOL    MW4 4683   3.563   0.390   1.864  0.8233  0.1547  0.2980
 1158SOL     OW 4684   3.801   0.521   1.984 -0.2237  0.2379  0.3558
 1158SOL    HW2 4685   3.805   0.611   1.950 -1.3050 -0.3484 -1.3478
 1158SOL    HW3 4686   3.725   0.482   1.941  0.3723 -1.5796  0.9096
 1158SOL    MW4 4687   3.791   0.528   1.974 -0.2878 -0.0792  0.2040
 1159SOL     OW 4688   3.826   0.766   1.868 -0.1830  0.4401 -0.0539
 1159SOL    HW2 4689   3.755   0.825   1.893 -2.0202 -1.6850 -0.0224
 1159SOL    HW3 4690   3.833   0.776   1.773  0.8129  2.0901  0.1895
 1159SOL    MW4 4691   3.817   0.775   1.859 -0.2940  0.3774 -0.0176
 1160SOL     OW 4692   3.605   0.885   1.983 -0.4057  0.3661 -0.3682
 1160SOL    HW2 4693   3.597   0.973   1.946  0.3787  0.8168  0.5070
 1160SOL    HW3 4694   3.526   0.840   1.956 -1.2213  1.6208 -0.1045
 1160SOL    MW4 4695   3.594   0.891   1.975 -0.4098  0.5910 -0.2179
 1161SOL     OW 4696   3.615   1.143   1.858 -0.2380 -0.5621  0.2695
 1161SOL    HW2 4697   3.544   1.206   1.869  0.9744  0.8251  0.4161
 1161SOL    HW3 4698   3.615   1.123   1.765  2.2214  3.2117 -0.6720
 1161SOL    MW4 4699   3.606   1.149   1.847  0.2465  0.1187  0.1646
 1162SOL     OW 4700   3.838   1.290   1.966  0.1931 -0.0122  0.3932
 1162SOL    HW2 4701   3.837   1.294   2.062  0.7983 -0.2964  0.4110
 1162SOL    HW3 4702   3.761   1.238   1.944 -0.1253  0.3199  0.7145
 1162SOL    MW4 4703   3.828   1.284   1.976  0.2310 -0.0060  0.4377
 1163SOL     OW 4704   3.816   1.554   1.884 -0.2973  0.0944  0.2445
 1163SOL    HW2 4705   3.898   1.588   1.919  1.0576  0.1592 -2.7967
 1163SOL    HW3 4706   3.812   1.464   1.916  1.2777 -0.0920 -0.0481
 1163SOL    MW4 4707   3.826   1.546   1.893  0.0892  0.0783 -0.1953
 1164SOL     OW 4708   3.602   1.695   1.981  0.4397 -0.3942 -0.4758
 1164SOL    HW2 4709   3.617   1.780   1.941  0.3526 -0.4822 -0.6947
 1164SOL    HW3 4710   3.681   1.644   1.961  0.6312 -0.2578 -0.0667
 1164SOL    MW4 4711   3.615   1.699   1.973  0.4535 -0.3878 -0.4508
 1165SOL     OW 4712   3.653   1.942   1.886 -0.5718  0.1972  0.0060
 1165SOL    HW2 4713   3.713   2.012   1.913  0.0768 -0.1212 -0.5912
 1165SOL    HW3 4714   3.644   1.953   1.791 -0.9265 -0.1707 -0.0053
 1165SOL    MW4 4715   3.660   1.952   1.877 -0.5329  0.1066 -0.0743
 1166SOL     OW 4716   3.870   2.120   1.981  0.0888 -0.1870  0.3408
 1166SOL    HW2 4717   3.947   2.073   1.949 -0.0797 -0.7251  0.7211
 1166SOL    HW3 4718   3.862   2.196   1.923  0.3871 -0.6046 -0.2476
 1166SOL    MW4 4719   3.879   2.124   1.969  0.1061 -0.3130  0.3134
 1167SOL     OW 4720   3.831   2.330   1.832  0.1652 -0.6787 -0.1109
 1167SOL    HW2 4721   3.903   2.376   1.874  1.2085 -1.3509 -1.1297
 1167SOL    HW3 4722   3.752   2.364   1.875  1.0680  0.1797  0.8975
 1167SOL    MW4 4723   3.830   2.341   1.844  0.4220 -0.6542 -0.1122
 1168SOL     OW 4724   3.600   2.426   1.959 -0.0511 -0.0601 -0.3153
 1168SOL    HW2 4725   3.593   2.520   1.946 -1.0809  0.0549  1.0011
 1168SOL    HW3 4726   3.519   2.390   1.920 -0.6719 -0.1954  1.0916
 1168SOL    MW4 4727   3.588   2.433   1.952 -0.2687 -0.0627  0.0439
 1169SOL     OW 4728   3.612   2.700   1.903 -0.1669 -0.1399 -0.1990
 1169SOL    HW2 4729   3.686   2.745   1.944 -1.0076  0.8053  0.3057
 1169SOL    HW3 4730   3.535   2.739   1.943 -0.9632 -0.6916 -1.1568
 1169SOL    MW4 4731   3.612   2.711   1.913 -0.3829 -0.0880 -0.2588
 1170SOL     OW 4732   3.883   2.820   1.999  0.0216  0.3181 -0.7427
 1170SOL    HW2 4733   3.883   2.813   2.095  0.9016 -1.3634 -0.8535
 1170SOL    HW3 4734   3.878   2.915   1.982  1.5355  0.7323  0.9717
 1170SOL    MW4 4735   3.882   2.832   2.010  0.3374  0.1509 -0.5312
 1171SOL     OW 4736   3.859   3.068   1.867  0.2417  0.4377 -0.2491
 1171SOL    HW2 4737   3.783   3.118   1.895  0.1364  0.6790 -0.9628
 1171SOL    HW3 4738   3.850   3.060   1.772  0.2369 -0.9690 -0.1412
 1171SOL    MW4 4739   3.848   3.074   1.858  0.2272  0.2835 -0.3291
 1172SOL     OW 4740   3.633   3.204   1.958 -0.0242  0.1551 -0.1229
 1172SOL    HW2 4741   3.617   3.199   2.052  1.5516  1.0505  0.2078
 1172SOL    HW3 4742   3.621   3.297   1.936  0.0572  0.0287 -0.7266
 1172SOL    MW4 4743   3.629   3.216   1.967  0.1943  0.2565 -0.1589
 1173SOL     OW 4744   3.625   3.479   1.912  0.0492  0.0262 -0.2866
 1173SOL    HW2 4745   3.697   3.537   1.933  1.6069 -2.1466  0.5001
 1173SOL    HW3 4746   3.624   3.476   1.816  0.0459  1.1866 -0.3318
 1173SOL    MW4 4747   3.634   3.486   1.902  0.2544 -0.1073 -0.1889
 1174SOL     OW 4748   3.861   3.614   1.974 -0.0291 -0.2211 -0.1066
 1174SOL    HW2 4749   3.942   3.572   1.947 -0.4247  0.1083 -1.8461
 1174SOL    HW3 4750   3.861   3.698   1.927 -1.0182  0.1028  0.4650
 1174SOL    MW4 4751   3.872   3.620   1.964 -0.2120 -0.1352 -0.2606
 1175SOL     OW 4752   3.824   3.865   1.859  0.2966  0.5257 -0.2876
 1175SOL    HW2 4753   3.736   3.903   1.871  0.8734  2.2400 -1.2376
 1175SOL    HW3 4754   3.843   3.879   1.766  1.0740 -0.9839 -0.3654
 1175SOL    MW4 4755   3.815   3.872   1.848  0.4752  0.5529 -0.4231
 1176SOL     OW 4756   3.592   4.000   1.965  0.1490 -0.1835  0.2926
 1176SOL    HW2 4757   3.592   4.000   2.061  0.0895 -0.9372  0.3002
 1176SOL    HW3 4758   3.519   3.943   1.942 -0.8678  1.2907 -0.2161
 1176SOL    MW4 4759   3.582   3.992   1.975  0.0072 -0.0889  0.2264
 1177SOL     OW 4760   3.592   4.253   1.859  0.1279  0.8995  0.2461
 1177SOL    HW2 4761   3.667   4.299   1.895 -0.3213  1.6200  0.2672
 1177SOL    HW3 4762   3.599   4.164   1.894  1.4661  0.7008 -0.4833
 1177SOL    MW4 4763   3.603   4.247   1.868  0.2451  0.9680  0.1527
 1178SOL     OW 4764   3.804   4.395   1.956  0.4767  0.0345  0.0537
 1178SOL    HW2 4765   3.808   4.384   2.051 -2.6300 -2.3146 -0.0053
 1178SOL    HW3 4766   3.881   4.346   1.924 -0.1290 -1.7527  1.2254
 1178SOL    MW4 4767   3.815   4.387   1.964 -0.0131 -0.5112  0.2004
 1179SOL     OW 4768   4.275   4.665   1.865  0.5810  0.1999 -0.2752
 1179SOL    HW2 4769   4.196   4.706   1.899  0.0274 -0.9018 -0.2137
 1179SOL    HW3 4770   4.346   4.704   1.916  0.1106  1.3351 -0.4622
 1179SOL    MW4 4771   4.274   4.676   1.876  0.4454  0.2043 -0.2917
 1180SOL     OW 4772   4.031   0.096   1.936  0.1765 -0.0277  0.6450
 1180SOL    HW2 4773   4.024   0.097   2.032  1.4990 -0.7025  0.7600
 1180SOL    HW3 4774   3.956   0.044   1.907  1.7197 -2.8191  1.5291
 1180SOL    MW4 4775   4.020   0.090   1.945  0.5546 -0.4850  0.7769
 1181SOL     OW 4776   3.999   0.374   1.856  0.2035  0.3605 -0.0079
 1181SOL    HW2 4777   4.005   0.284   1.888 -1.1742  0.5449  0.8305
 1181SOL    HW3 4778   3.931   0.414   1.911  0.1643  1.6492 -0.9773
 1181SOL    MW4 4779   3.991   0.368   1.868  0.0167  0.5549 -0.0253
 1182SOL     OW 4780   4.266   0.425   1.958 -0.0620  0.2668 -0.0286
 1182SOL    HW2 4781   4.263   0.442   2.052  0.8516  3.2904 -0.4980
 1182SOL    HW3 4782   4.175   0.402   1.935 -1.0293  2.7858  1.0628
 1182SOL    MW4 4783   4.253   0.425   1.967 -0.0687  0.9980  0.0534
 1183SOL     OW 4784   4.249   0.691   1.858  0.0028  0.0527  0.1118
 1183SOL    HW2 4785   4.253   0.598   1.880  2.6989  0.5057  1.9137
 1183SOL    HW3 4786   4.232   0.693   1.764  0.3392 -2.2734 -0.0382
 1183SOL    MW4 4787   4.247   0.679   1.849  0.4029 -0.1944  0.3297
 1184SOL     OW 4788   4.058   0.861   1.981 -0.0292 -0.0970  0.6856
 1184SOL    HW2 4789   4.134   0.807   1.960  0.2614 -0.3231  2.2538
 1184SOL    HW3 4790   3.985   0.819   1.935  0.7573  0.0371 -0.7003
 1184SOL    MW4 4791   4.058   0.848   1.972  0.1125 -0.1091  0.7095
 1185SOL     OW 4792   4.063   1.139   1.854 -0.0218  0.8241 -0.0048
 1185SOL    HW2 4793   4.053   1.056   1.901  0.2623  1.2176  0.7598
 1185SOL    HW3 4794   3.993   1.194   1.888  0.0224  1.0237 -0.2364
 1185SOL    MW4 4795   4.053   1.135   1.865  0.0215  0.9023  0.0656
 1186SOL     OW 4796   4.311   1.238   1.951  0.1803 -0.3635 -0.3327
 1186SOL    HW2 4797   4.299   1.233   2.046  0.0610 -0.3282 -0.3469
 1186SOL    HW3 4798   4.228   1.209   1.915  0.6054 -1.5030 -0.4305
 1186SOL    MW4 4799   4.298   1.233   1.959  0.2208 -0.5093 -0.3475
 1187SOL     OW 4800   4.273   1.502   1.913 -0.5031 -0.2649  0.0817
 1187SOL    HW2 4801   4.286   1.411   1.936 -1.3621 -0.5438 -0.4761
 1187SOL    HW3 4802   4.262   1.501   1.817 -0.9552  0.3545  0.1217
 1187SOL    MW4 4803   4.273   1.490   1.903 -0.6762 -0.2201  0.0134
 1188SOL     OW 4804   4.050   1.668   1.957  0.4457  0.2444  0.2474
 1188SOL    HW2 4805   4.042   1.674   2.052  0.3316  0.9417  0.1980
 1188SOL    HW3 4806   4.112   1.596   1.943  0.3218  0.0182  0.8406
 1188SOL    MW4 4807   4.057   1.659   1.968  0.4139  0.3066  0.3192
 1189SOL     OW 4808   4.068   1.930   1.879 -0.2807  0.3033 -0.1923
 1189SOL    HW2 4809   4.065   1.837   1.900 -2.3673  0.4130  0.0756
 1189SOL    HW3 4810   4.068   1.933   1.784  0.3580  0.0362 -0.2083
 1189SOL    MW4 4811   4.068   1.918   1.869 -0.4721  0.2826 -0.1590
 1190SOL     OW 4812   4.305   2.038   1.965 -0.1982  0.1868  0.0985
 1190SOL    HW2 4813   4.308   2.035   2.061 -1.1115 -0.2681  0.1188
 1190SOL    HW3 4814   4.224   1.992   1.942  1.0857 -1.5558 -0.9946
 1190SOL    MW4 4815   4.294   2.032   1.975 -0.1488 -0.1030 -0.0432
 1191SOL     OW 4816   4.283   2.325   1.913 -0.0545 -0.1587 -0.1278
 1191SOL    HW2 4817   4.304   2.231   1.915  0.7072 -0.0154 -1.1271
 1191SOL    HW3 4818   4.366   2.368   1.928 -0.7231  0.3541  2.2456
 1191SOL    MW4 4819   4.296   2.318   1.915 -0.0424 -0.0722  0.0535
 1192SOL     OW 4820   4.040   2.463   1.959  0.3948 -0.4762  0.2348
 1192SOL    HW2 4821   4.051   2.482   2.052  1.5294 -0.6188  0.1414
 1192SOL    HW3 4822   4.123   2.423   1.933 -0.1206 -0.9561 -0.7093
 1192SOL    MW4 4823   4.052   2.460   1.968  0.4764 -0.5586  0.0978
 1193SOL     OW 4824   4.089   2.702   1.882 -0.2495 -0.4433  0.1245
 1193SOL    HW2 4825   4.075   2.611   1.909  0.7943 -0.0742  2.0472
 1193SOL    HW3 4826   4.025   2.752   1.933  0.3698  0.0692  0.4104
 1193SOL    MW4 4827   4.079   2.697   1.892 -0.0305 -0.3269  0.4158
 1194SOL     OW 4828   4.287   2.863   1.980  0.1642 -0.1508  0.3505
 1194SOL    HW2 4829   4.258   2.863   2.071 -1.6444  0.5070 -0.2008
 1194SOL    HW3 4830   4.223   2.808   1.935 -0.8005  2.0627 -1.0533
 1194SOL    MW4 4831   4.275   2.856   1.986 -0.2017  0.2282  0.0924
 1195SOL     OW 4832   4.263   3.109   1.880 -0.3805  0.3261  0.2942
 1195SOL    HW2 4833   4.181   3.144   1.916 -1.4694 -0.6369 -1.2259
 1195SOL    HW3 4834   4.268   3.020   1.913  0.5723  0.7042  1.1968
 1195SOL    MW4 4835   4.253   3.102   1.889 -0.3991  0.2491  0.2127
 1196SOL     OW 4836   4.045   3.243   1.970 -0.6917 -0.0486  0.0410
 1196SOL    HW2 4837   4.033   3.235   2.064  0.1282 -0.6927  0.0953
 1196SOL    HW3 4838   3.985   3.179   1.932  0.3529 -1.1328  0.2002
 1196SOL    MW4 4839   4.036   3.234   1.977 -0.4458 -0.2766  0.0691
 1197SOL     OW 4840   4.079   3.498   1.855 -0.0297  0.4360 -0.0709
 1197SOL    HW2 4841   4.159   3.535   1.893 -0.0814  0.7393 -0.2605
 1197SOL    HW3 4842   4.083   3.405   1.878  0.1437  0.5416  0.3231
 1197SOL    MW4 4843   4.090   3.490   1.863 -0.0134  0.4902 -0.0440
 1198SOL     OW 4844   4.283   3.637   1.984 -0.1069  0.1435  0.1191
 1198SOL    HW2 4845   4.264   3.713   1.929  0.6163  0.4485  0.2823
 1198SOL    HW3 4846   4.363   3.601   1.947 -0.0288 -0.0883  0.5171
 1198SOL    MW4 4847   4.291   3.643   1.972 -0.0010  0.1528  0.1931
 1199SOL     OW 4848   4.253   3.880   1.867  0.4862  0.0921 -0.7479
 1199SOL    HW2 4849   4.328   3.922   1.908  0.9341 -2.2969  1.0149
 1199SOL    HW3 4850   4.278   3.868   1.775  2.5534 -1.2478 -0.0535
 1199SOL    MW4 4851   4.266   3.884   1.860  0.8183 -0.3998 -0.4238
 1200SOL     OW 4852   4.030   4.008   1.965 -0.2196  0.0741 -0.8338
 1200SOL    HW2 4853   4.111   3.965   1.938  0.1997  1.0691 -1.1856
 1200SOL    HW3 4854   3.961   3.945   1.945  0.5248 -1.0552  0.0855
 1200SOL    MW4 4855   4.031   3.994   1.959 -0.0658  0.0565 -0.7589
 1201SOL     OW 4856   4.004   4.251   1.850  0.2193  0.2440  0.1000
 1201SOL    HW2 4857   4.061   4.306   1.903  0.8776 -1.4045  1.1418
 1201SOL    HW3 4858   4.019   4.162   1.883 -0.2033 -0.6683 -2.0810
 1201SOL    MW4 4859   4.014   4.247   1.861  0.2503 -0.0939 -0.0502
 1202SOL     OW 4860   4.186   4.417   1.959  0.3106 -0.6494  0.0071
 1202SOL    HW2 4861   4.221   4.419   2.048  0.8443 -0.9837 -0.1876
 1202SOL    HW3 4862   4.230   4.489   1.915 -0.0858 -0.3755  0.0600
 1202SOL    MW4 4863   4.197   4.427   1.965  0.3285 -0.6576 -0.0116
 1203SOL     OW 4864   0.212   4.647   2.369 -0.1064 -0.1453  0.0329
 1203SOL    HW2 4865   0.211   4.656   2.464 -0.4201 -1.6001  0.1844
 1203SOL    HW3 4866   0.290   4.693   2.341  0.6019 -0.6679  1.1145
 1203SOL    MW4 4867   0.222   4.654   2.378 -0.0543 -0.4063  0.1957
 1204SOL     OW 4868   4.468   0.105   2.232 -0.3463 -0.4035  0.0384
 1204SOL    HW2 4869   4.540   0.064   2.281 -0.4565  0.1834  0.7067
 1204SOL    HW3 4870   4.491   0.094   2.140  0.5957 -0.2217  0.2539
 1204SOL    MW4 4871   4.480   0.098   2.226 -0.2370 -0.3020  0.1552
 1205SOL     OW 4872   4.480   0.383   2.306 -0.1816 -0.2198 -0.8796
 1205SOL    HW2 4873   4.569   0.413   2.287 -0.2851  0.9384  0.3924
 1205SOL    HW3 4874   4.482   0.289   2.287  1.4297 -0.2840 -0.4770
 1205SOL    MW4 4875   4.492   0.375   2.301  0.0174 -0.0754 -0.6585
 1206SOL     OW 4876   0.250   0.445   2.248 -0.4066 -0.6155 -0.1814
 1206SOL    HW2 4877   0.334   0.405   2.272 -1.1037 -2.3832 -0.5972
 1206SOL    HW3 4878   0.253   0.450   2.153  0.0687  1.2419 -0.0757
 1206SOL    MW4 4879   0.262   0.440   2.239 -0.4359 -0.6036 -0.2224
 1207SOL     OW 4880   0.210   0.714   2.342 -0.3808  0.3605  0.5375
 1207SOL    HW2 4881   0.196   0.711   2.437 -0.4966 -0.5257  0.5009
 1207SOL    HW3 4882   0.218   0.622   2.317 -0.8427  0.5763 -0.3873
 1207SOL    MW4 4883   0.209   0.702   2.351 -0.4570  0.2722  0.4110
 1208SOL     OW 4884   4.487   0.858   2.226 -0.2053 -0.2467 -0.1671
 1208SOL    HW2 4885   4.569   0.813   2.248 -0.2476 -0.8242 -1.1619
 1208SOL    HW3 4886   4.479   0.848   2.131 -1.6408 -0.5686 -0.0315
 1208SOL    MW4 4887   4.497   0.850   2.216 -0.4003 -0.3654 -0.2806
 1209SOL     OW 4888   4.471   1.114   2.299 -0.5182 -0.2025  0.2016
 1209SOL    HW2 4889   4.481   1.123   2.394 -0.2658  0.7079  0.0894
 1209SOL    HW3 4890   4.455   1.021   2.286 -1.5416 -0.1877  1.2299
 1209SOL    MW4 4891   4.470   1.103   2.310 -0.6199 -0.0803  0.3223
 1210SOL     OW 4892   0.232   1.257   2.260  0.3189 -0.0842  0.1465
 1210SOL    HW2 4893   0.151   1.207   2.270  0.3647  0.0754  1.4684
 1210SOL    HW3 4894   0.261   1.238   2.171 -1.8018  0.8055 -0.7798
 1210SOL    MW4 4895   0.225   1.248   2.250  0.0452  0.0542  0.1986
 1211SOL     OW 4896   0.283   1.525   2.328 -0.2326  0.0827  0.1981
 1211SOL    HW2 4897   0.258   1.507   2.418 -0.2647  0.1154  0.1958
 1211SOL    HW3 4898   0.271   1.442   2.282  0.4634 -0.1188  0.3723
 1211SOL    MW4 4899   0.278   1.512   2.334 -0.1450  0.0603  0.2205
 1212SOL     OW 4900   0.053   1.655   2.272 -0.0722 -0.0362  0.7783
 1212SOL    HW2 4901   0.042   1.737   2.320  1.2951  0.7148 -0.1751
 1212SOL    HW3 4902   0.144   1.630   2.286 -0.2996 -1.0636  0.5113
 1212SOL    MW4 4903   0.064   1.662   2.280  0.0782 -0.0726  0.6173
 1213SOL     OW 4904   4.477   1.895   2.358  0.2886  0.5763  0.4305
 1213SOL    HW2 4905   4.406   1.948   2.321 -0.0124  1.1712  1.8406
 1213SOL    HW3 4906   4.557   1.942   2.334  0.1884  0.1872 -0.7017
 1213SOL    MW4 4907   4.478   1.908   2.350  0.2356  0.6033  0.4671
 1214SOL     OW 4908   0.213   2.038   2.261 -0.6488 -0.2751 -0.4690
 1214SOL    HW2 4909   0.299   2.012   2.295 -0.1542  0.3524 -1.2371
 1214SOL    HW3 4910   0.222   2.032   2.166 -0.6629  2.2500 -0.6532
 1214SOL    MW4 4911   0.226   2.034   2.253 -0.5854  0.1409 -0.5946
 1215SOL     OW 4912   0.239   2.283   2.365  0.7645  0.0343 -0.5147
 1215SOL    HW2 4913   0.224   2.276   2.459 -1.6499 -0.2504 -0.8704
 1215SOL    HW3 4914   0.219   2.196   2.331 -1.1591  0.8617 -1.5930
 1215SOL    MW4 4915   0.234   2.270   2.373  0.1921  0.1056 -0.7038
 1216SOL     OW 4916   0.037   2.442   2.246  0.3282 -0.1869 -0.0747
 1216SOL    HW2 4917   0.035   2.530   2.283  0.5103 -1.1665  2.3952
 1216SOL    HW3 4918   0.116   2.402   2.282 -0.1116 -1.5907 -0.6101
 1216SOL    MW4 4919   0.047   2.448   2.256  0.2942 -0.5014  0.1807
 1217SOL     OW 4920   0.051   2.716   2.325  0.0501 -0.6225 -0.1608
 1217SOL    HW2 4921   0.072   2.707   2.418 -0.4408 -1.3389 -0.1160
 1217SOL    HW3 4922   0.118   2.776   2.291  1.1150 -1.5191  0.3421
 1217SOL    MW4 4923   0.063   2.723   2.333  0.1258 -0.8352 -0.0887
 1218SOL     OW 4924   0.240   2.902   2.255  0.7193  0.4488  0.1709
 1218SOL    HW2 4925   0.316   2.848   2.278 -0.2905 -0.2828  1.9281
 1218SOL    HW3 4926   0.244   2.911   2.160  2.3957 -0.4875  0.1431
 1218SOL    MW4 4927   0.251   2.896   2.246  0.8072  0.2286  0.3991
 1219SOL     OW 4928   0.220   3.165   2.381  0.1450 -0.3322  0.2720
 1219SOL    HW2 4929   0.143   3.209   2.344 -0.4292 -0.9562  0.7224
 1219SOL    HW3 4930   0.219   3.078   2.342  0.8959 -0.1774 -0.0877
 1219SOL    MW4 4931   0.209   3.160   2.371  0.1683 -0.3941  0.2837
 1220SOL     OW 4932   4.471   3.247   2.252  0.4425 -0.4888 -0.9444
 1220SOL    HW2 4933   4.463   3.335   2.288  0.0585 -0.5766 -0.8103
 1220SOL    HW3 4934   4.474   3.260   2.157 -1.6149 -0.4621 -1.0209
 1220SOL    MW4 4935   4.470   3.260   2.244  0.1202 -0.4973 -0.9367
 1221SOL     OW 4936   4.468   3.495   2.373  0.5390 -0.5360  0.2546
 1221SOL    HW2 4937   4.481   3.515   2.466  0.6334 -1.1157  0.3671
 1221SOL    HW3 4938   4.393   3.548   2.347  1.0598  0.3072  0.4350
 1221SOL    MW4 4939   4.460   3.505   2.382  0.6204 -0.5014  0.2933
 1222SOL     OW 4940   0.212   3.613   2.297  0.4458 -0.0119 -0.3115
 1222SOL    HW2 4941   0.284   3.553   2.313  0.1399 -0.2923  0.0163
 1222SOL    HW3 4942   0.133   3.561   2.313  0.1570  0.0397 -1.5151
 1222SOL    MW4 4943   0.211   3.598   2.301  0.3673 -0.0417 -0.4270
 1223SOL     OW 4944   0.211   3.868   2.405  0.2812 -0.2455  0.0046
 1223SOL    HW2 4945   0.142   3.916   2.360  0.9244 -0.5623 -1.3189
 1223SOL    HW3 4946   0.204   3.779   2.372  0.7253 -0.4970  0.5774
 1223SOL    MW4 4947   0.201   3.863   2.395  0.4246 -0.3207 -0.0942
 1224SOL     OW 4948   0.018   4.036   2.272 -0.4437 -0.8389  0.2031
 1224SOL    HW2 4949   0.019   4.128   2.299  0.7018 -0.9617  0.6174
 1224SOL    HW3 4950  -0.000   4.038   2.179 -0.3377 -0.1750  0.1955
 1224SOL    MW4 4951   0.016   4.048   2.264 -0.2786 -0.7677  0.2570
 1225SOL     OW 4952   4.484   4.314   2.332  0.5009 -0.5699  0.5122
 1225SOL    HW2 4953   4.471   4.309   2.427 -0.2770  0.1992  0.4545
 1225SOL    HW3 4954   4.570   4.354   2.322  0.1156  0.3834  0.9017
 1225SOL    MW4 4955   4.494   4.318   2.343  0.3471 -0.3428  0.5558
 1226SOL     OW 4956   0.257   4.396   2.273 -0.2986  0.0627 -0.5664
 1226SOL    HW2 4957   0.331   4.366   2.326  0.1580 -0.4717 -1.4994
 1226SOL    HW3 4958   0.245   4.488   2.300  0.0895 -0.1196  0.2683
 1226SOL    MW4 4959   0.265   4.404   2.284 -0.1871 -0.0319 -0.5794
 1227SOL     OW 4960   0.689   4.634   2.363  0.1970  0.5132  0.0559
 1227SOL    HW2 4961   0.693   4.647   2.458  0.8956  0.8533 -0.0160
 1227SOL    HW3 4962   0.756   4.693   2.328 -0.9226  1.3134 -0.7421
 1227SOL    MW4 4963   0.698   4.643   2.371  0.1414  0.6638 -0.0589
 1228SOL     OW 4964   0.451   0.070   2.287  0.5725 -0.4982 -1.0789
 1228SOL    HW2 4965   0.526   0.020   2.320 -0.5959 -2.2117 -0.9546
 1228SOL    HW3 4966   0.449   0.051   2.193  2.1085  1.9997 -1.6548
 1228SOL    MW4 4967   0.461   0.061   2.279  0.6210 -0.3947 -1.1384
 1229SOL     OW 4968   0.496   0.354   2.339  0.0628  0.2290  0.0984
 1229SOL    HW2 4969   0.480   0.355   2.433 -1.8886  1.0739 -0.2357
 1229SOL    HW3 4970   0.490   0.262   2.314  1.1476 -0.0662  0.8687
 1229SOL    MW4 4971   0.493   0.342   2.348 -0.0515  0.3016  0.1557
 1230SOL     OW 4972   0.706   0.504   2.252  0.5158 -0.4651 -0.2818
 1230SOL    HW2 4973   0.704   0.596   2.277  1.3961 -0.3534 -0.5971
 1230SOL    HW3 4974   0.623   0.468   2.284 -0.0665  0.5572 -0.6169
 1230SOL    MW4 4975   0.695   0.511   2.259  0.5552 -0.3155 -0.3676
 1231SOL     OW 4976   0.667   0.763   2.329  0.1135  0.0218  0.4404
 1231SOL    HW2 4977   0.659   0.777   2.423 -1.0245  2.1428  0.0704
 1231SOL    HW3 4978   0.595   0.814   2.291 -0.4415 -2.0849 -1.4961
 1231SOL    MW4 4979   0.656   0.772   2.336 -0.1098  0.0237  0.1361
 1232SOL     OW 4980   0.416   0.879   2.269  0.4417 -0.0820 -0.1840
 1232SOL    HW2 4981   0.342   0.827   2.301 -0.0953  0.4086 -0.6344
 1232SOL    HW3 4982   0.407   0.878   2.174  0.6846  0.4591 -0.2118
 1232SOL    MW4 4983   0.405   0.872   2.261  0.4029  0.0541 -0.2475
 1233SOL     OW 4984   0.462   1.123   2.362  0.7067  0.3071  0.0998
 1233SOL    HW2 4985   0.455   1.030   2.340  2.3521  0.4702 -1.1988
 1233SOL    HW3 4986   0.378   1.160   2.335  0.7882 -0.4448 -1.2344
 1233SOL    MW4 4987   0.450   1.116   2.355  0.9345  0.2295 -0.2475
 1234SOL     OW 4988   0.705   1.215   2.266  0.5142 -0.4641 -0.1055
 1234SOL    HW2 4989   0.688   1.307   2.287  0.5509 -0.6309  0.6428
 1234SOL    HW3 4990   0.624   1.170   2.289  1.2353 -0.9490  1.5647
 1234SOL    MW4 4991   0.692   1.221   2.272  0.6142 -0.5500  0.2136
 1235SOL     OW 4992   0.719   1.507   2.329 -0.1359 -0.3935  0.2226
 1235SOL    HW2 4993   0.725   1.511   2.424 -0.5238 -1.4991  0.3062
 1235SOL    HW3 4994   0.778   1.575   2.298  1.3414 -1.1880  1.2320
 1235SOL    MW4 4995   0.727   1.516   2.337  0.0078 -0.6441  0.3667
 1236SOL     OW 4996   0.498   1.676   2.266 -0.1389 -0.1644  0.1978
 1236SOL    HW2 4997   0.574   1.629   2.301 -0.2687 -1.6102 -1.3730
 1236SOL    HW3 4998   0.423   1.621   2.290 -0.4181 -0.1009 -0.5131
 1236SOL    MW4 4999   0.498   1.662   2.274 -0.1929 -0.3468 -0.1030
 1237SOL     OW 5000   0.464   1.938   2.340 -0.5316  0.2096 -0.2503
 1237SOL    HW2 5001   0.536   1.992   2.308  0.8038 -0.2451  1.9092
 1237SOL    HW3 5002   0.487   1.849   2.313 -0.4939  0.1248  0.0555
 1237SOL    MW4 5003   0.477   1.933   2.332 -0.3504  0.1384  0.0749
 1238SOL     OW 5004   0.688   2.061   2.259  0.3054  0.1623  0.2853
 1238SOL    HW2 5005   0.771   2.022   2.285  0.0296  0.5942  1.8576
 1238SOL    HW3 5006   0.691   2.150   2.294 -0.4417  0.4686 -0.4204
 1238SOL    MW4 5007   0.699   2.068   2.267  0.1704  0.2596  0.3996
 1239SOL     OW 5008   0.692   2.301   2.358  0.2271  0.5415  0.0355
 1239SOL    HW2 5009   0.674   2.300   2.452 -0.4892  0.0314 -0.1011
 1239SOL    HW3 5010   0.770   2.356   2.349 -0.2263  1.3285  0.8302
 1239SOL    MW4 5011   0.700   2.308   2.369  0.0728  0.5782  0.1225
 1240SOL     OW 5012   0.464   2.456   2.281  0.0911  0.0004 -0.4339
 1240SOL    HW2 5013   0.545   2.416   2.311 -0.0718  0.3122  0.4474
 1240SOL    HW3 5014   0.396   2.391   2.300  0.1129 -0.1932 -1.0161
 1240SOL    MW4 5015   0.466   2.442   2.287  0.0725  0.0157 -0.3946
 1241SOL     OW 5016   0.430   2.722   2.339  0.2853 -0.1708  0.3754
 1241SOL    HW2 5017   0.416   2.725   2.434  0.8990  0.4455  0.4567
 1241SOL    HW3 5018   0.434   2.629   2.318  1.6360 -0.3151  1.1908
 1241SOL    MW4 5019   0.429   2.710   2.349  0.5445 -0.1085  0.4938
 1242SOL     OW 5020   0.672   2.829   2.254  0.4993 -0.2877 -0.0125
 1242SOL    HW2 5021   0.743   2.780   2.295  1.1761 -1.3391 -2.3390
 1242SOL    HW3 5022   0.592   2.792   2.290  1.0525 -2.0046 -0.4899
 1242SOL    MW4 5023   0.671   2.818   2.264  0.6616 -0.6530 -0.3822
 1243SOL     OW 5024   0.657   3.100   2.394  0.1229 -0.2770  0.2232
 1243SOL    HW2 5025   0.582   3.132   2.343  0.3475 -1.2550 -0.7257
 1243SOL    HW3 5026   0.667   3.009   2.368  2.1035  0.0351 -0.2000
 1243SOL    MW4 5027   0.648   3.092   2.384  0.4138 -0.3650  0.0422
 1244SOL     OW 5028   0.467   3.210   2.238 -0.0759  0.5118 -0.2631
 1244SOL    HW2 5029   0.378   3.188   2.266  0.5194 -0.7304  0.7219
 1244SOL    HW3 5030   0.461   3.219   2.143 -0.6977 -2.4427 -0.5474
 1244SOL    MW4 5031   0.454   3.208   2.229 -0.0794 -0.0417 -0.1709
 1245SOL     OW 5032   0.431   3.445   2.356  0.1803  0.0993  0.2443
 1245SOL    HW2 5033   0.514   3.490   2.340  1.4605 -2.4948 -0.5259
 1245SOL    HW3 5034   0.435   3.365   2.303 -1.0791 -2.1008  3.3339
 1245SOL    MW4 5035   0.442   3.441   2.347  0.1830 -0.5336  0.5503
 1246SOL     OW 5036   0.667   3.611   2.307 -0.0029 -0.1850  0.3353
 1246SOL    HW2 5037   0.682   3.700   2.340 -1.6419  0.2700 -0.0994
 1246SOL    HW3 5038   0.669   3.619   2.212  0.8081 -0.7928  0.2956
 1246SOL    MW4 5039   0.669   3.624   2.299 -0.1121 -0.2050  0.2725
 1247SOL     OW 5040   0.677   3.906   2.415 -0.1027  0.1565  0.0187
 1247SOL    HW2 5041   0.676   3.909   2.510 -0.2435 -0.1248  0.0241
 1247SOL    HW3 5042   0.598   3.952   2.388  0.0616  0.4507  0.0321
 1247SOL    MW4 5043   0.667   3.913   2.424 -0.0996  0.1581  0.0215
 1248SOL     OW 5044   0.442   4.014   2.322  0.0329  0.2264 -0.1123
 1248SOL    HW2 5045   0.364   3.971   2.356 -0.7186  1.0388 -0.8185
 1248SOL    HW3 5046   0.442   3.994   2.228 -0.5023  2.0512 -0.5065
 1248SOL    MW4 5047   0.432   4.006   2.314 -0.1369  0.5746 -0.2575
 1249SOL     OW 5048   0.488   4.291   2.392  0.1304  0.0823 -0.4730
 1249SOL    HW2 5049   0.572   4.313   2.352  1.2791 -0.0727  1.7700
 1249SOL    HW3 5050   0.473   4.200   2.367  1.0130 -0.1220 -0.2857
 1249SOL    MW4 5051   0.497   4.282   2.384  0.3984  0.0343 -0.1523
 1250SOL     OW 5052   0.751   4.381   2.286  0.6543 -0.0065  0.0098
 1250SOL    HW2 5053   0.720   4.467   2.315 -0.2560 -0.0450 -0.8020
 1250SOL    HW3 5054   0.758   4.389   2.191  0.2993 -0.9159 -0.0964
 1250SOL    MW4 5055   0.748   4.394   2.278  0.4874 -0.1316 -0.1113
 1251SOL     OW 5056   1.122   4.660   2.380 -0.2740  0.0738  0.3318
 1251SOL    HW2 5057   1.108   4.644   2.474 -1.8055 -0.0433  0.0973
 1251SOL    HW3 5058   1.045   4.710   2.353  0.0444 -0.1160 -0.9205
 1251SOL    MW4 5059   1.110   4.664   2.389 -0.4342  0.0329  0.1354
 1252SOL     OW 5060   0.910   0.130   2.265  0.0396 -0.0962 -0.3388
 1252SOL    HW2 5061   0.921   0.222   2.287  0.2402 -0.1985 -0.0008
 1252SOL    HW3 5062   0.900   0.129   2.170 -1.5084  0.4076 -0.1965
 1252SOL    MW4 5063   0.910   0.142   2.256 -0.1382 -0.0432 -0.2756
 1253SOL     OW 5064   0.919   0.380   2.382  0.1144 -0.0826 -0.5485
 1253SOL    HW2 5065   0.992   0.435   2.355  0.0786  0.2138 -0.0439
 1253SOL    HW3 5066   0.844   0.414   2.333  0.0079  0.5827  0.0803
 1253SOL    MW4 5067   0.919   0.391   2.372  0.0956  0.0443 -0.3989
 1254SOL     OW 5068   1.142   0.515   2.294  0.0398 -0.2177 -0.3830
 1254SOL    HW2 5069   1.215   0.458   2.319  0.4032  0.5524  0.3066
 1254SOL    HW3 5070   1.149   0.522   2.199  1.0380  0.0936 -0.2852
 1254SOL    MW4 5071   1.152   0.508   2.285  0.2193 -0.0749 -0.2792
 1255SOL     OW 5072   1.114   0.776   2.371 -0.2687 -0.1485 -0.3515
 1255SOL    HW2 5073   1.048   0.817   2.314  0.7526  0.5983 -1.0065
 1255SOL    HW3 5074   1.120   0.686   2.339 -2.4880 -0.8466  1.0609
 1255SOL    MW4 5075   1.106   0.770   2.359 -0.4267 -0.1420 -0.2515
 1256SOL     OW 5076   0.894   0.870   2.214  0.1867  0.0117  0.4504
 1256SOL    HW2 5077   0.907   0.950   2.265 -2.7517  1.3594 -0.8071
 1256SOL    HW3 5078   0.816   0.830   2.251  0.8930 -1.6296  0.2240
 1256SOL    MW4 5079   0.886   0.875   2.226 -0.1078 -0.0270  0.2549
 1257SOL     OW 5080   0.921   1.111   2.374  0.0289  0.1168 -0.2884
 1257SOL    HW2 5081   0.993   1.168   2.347 -0.1003  0.7594  0.6875
 1257SOL    HW3 5082   0.842   1.156   2.343 -0.0023 -0.1894 -0.6598
 1257SOL    MW4 5083   0.920   1.125   2.366  0.0077  0.1612 -0.2086
 1258SOL     OW 5084   1.121   1.294   2.290  0.7173  0.3802 -0.0516
 1258SOL    HW2 5085   1.199   1.245   2.315  0.3679 -0.5423 -0.7381
 1258SOL    HW3 5086   1.127   1.302   2.195  0.0428  0.4020 -0.0971
 1258SOL    MW4 5087   1.132   1.288   2.281  0.5823  0.2614 -0.1481
 1259SOL     OW 5088   1.142   1.579   2.338  0.4150  0.1653 -0.4960
 1259SOL    HW2 5089   1.060   1.605   2.297  1.0978  0.9250 -1.4031
 1259SOL    HW3 5090   1.150   1.486   2.320  0.4417  0.3865 -1.6197
 1259SOL    MW4 5091   1.132   1.570   2.331  0.5087  0.2947 -0.7639
 1260SOL     OW 5092   0.906   1.695   2.220 -0.4957 -0.0565  0.3889
 1260SOL    HW2 5093   0.914   1.788   2.240 -2.2548  0.1535  0.1888
 1260SOL    HW3 5094   0.919   1.689   2.126  1.2002 -0.2267  0.6173
 1260SOL    MW4 5095   0.908   1.706   2.210 -0.5040 -0.0513  0.3927
 1261SOL     OW 5096   0.927   1.933   2.339  0.3090 -0.7112 -0.5153
 1261SOL    HW2 5097   0.918   1.923   2.433 -1.4556  0.5483 -0.5181
 1261SOL    HW3 5098   1.000   1.994   2.328 -1.0942  1.1380  0.1553
 1261SOL    MW4 5099   0.936   1.940   2.350 -0.1090 -0.3010 -0.4272
 1262SOL     OW 5100   1.123   2.097   2.248  0.3557  0.6390 -0.1817
 1262SOL    HW2 5101   1.191   2.037   2.279  0.9923  1.6493  0.3618
 1262SOL    HW3 5102   1.107   2.070   2.157 -1.4784 -2.3024  0.9337
 1262SOL    MW4 5103   1.130   2.085   2.240  0.1978  0.3841  0.0372
 1263SOL     OW 5104   1.153   2.308   2.445  0.3298  0.4134 -0.1594
 1263SOL    HW2 5105   1.220   2.365   2.406  0.2793  0.0154 -0.8479
 1263SOL    HW3 5106   1.138   2.241   2.378 -0.5698  0.3570  0.0919
 1263SOL    MW4 5107   1.160   2.307   2.431  0.2044  0.3533 -0.2172
 1264SOL     OW 5108   0.927   2.442   2.331 -0.0068 -0.1354 -0.3720
 1264SOL    HW2 5109   1.003   2.402   2.372  0.1979 -0.5674 -1.1519
 1264SOL    HW3 5110   0.947   2.443   2.238 -0.6344  0.4507 -0.5093
 1264SOL    MW4 5111   0.939   2.437   2.324 -0.0625 -0.1152 -0.4930
 1265SOL     OW 5112   0.866   2.705   2.379  0.1438  0.3683  0.3841
 1265SOL    HW2 5113   0.878   2.713   2.474 -2.2379  0.8115  0.6820
 1265SOL    HW3 5114   0.885   2.613   2.360  2.0367  0.6063  1.0575
 1265SOL    MW4 5115   0.870   2.694   2.389  0.0793  0.4580  0.5124
 1266SOL     OW 5116   1.084   2.830   2.235  0.2438 -0.0207 -0.3378
 1266SOL    HW2 5117   1.154   2.779   2.276  0.7639 -0.1786 -1.4173
 1266SOL    HW3 5118   1.004   2.798   2.277  0.8935  0.9084  1.6742
 1266SOL    MW4 5119   1.083   2.819   2.246  0.3982  0.0811 -0.2148
 1267SOL     OW 5120   1.105   3.098   2.352 -0.4366 -0.2204 -0.1943
 1267SOL    HW2 5121   1.023   3.136   2.321 -1.5283 -1.5976  0.9676
 1267SOL    HW3 5122   1.105   3.008   2.318  0.6946 -0.1750 -0.3513
 1267SOL    MW4 5123   1.094   3.091   2.343 -0.4313 -0.3960 -0.0618
 1268SOL     OW 5124   0.860   3.196   2.250  0.2456 -0.1311  0.2595
 1268SOL    HW2 5125   0.866   3.282   2.291  0.2627 -1.1694  2.5325
 1268SOL    HW3 5126   0.792   3.150   2.300 -0.1717 -1.2414 -1.2900
 1268SOL    MW4 5127   0.852   3.201   2.262  0.1928 -0.4146  0.3552
 1269SOL     OW 5128   0.904   3.447   2.379  0.0197 -0.8856 -0.4687
 1269SOL    HW2 5129   0.894   3.436   2.474  0.5162 -0.8180 -0.4109
 1269SOL    HW3 5130   0.831   3.504   2.354  1.5546  1.4770  0.3069
 1269SOL    MW4 5131   0.893   3.453   2.388  0.2878 -0.5651 -0.3586
 1270SOL     OW 5132   1.123   3.571   2.251  0.7098  0.4165  0.6857
 1270SOL    HW2 5133   1.201   3.537   2.294  0.1679 -0.6365  0.8364
 1270SOL    HW3 5134   1.050   3.526   2.294  0.0955  0.3642 -0.4002
 1270SOL    MW4 5135   1.123   3.561   2.263  0.5572  0.2706  0.5622
 1271SOL     OW 5136   1.121   3.835   2.372  0.7737  0.2297  0.5432
 1271SOL    HW2 5137   1.203   3.871   2.338  0.2304  0.7305 -0.2597
 1271SOL    HW3 5138   1.125   3.742   2.351  0.6640  0.4478 -0.4821
 1271SOL    MW4 5139   1.132   3.828   2.364  0.6877  0.3245  0.3018
 1272SOL     OW 5140   0.913   3.988   2.265 -0.1238 -0.1869 -0.1478
 1272SOL    HW2 5141   0.993   3.945   2.296 -0.1081 -0.1013 -0.0686
 1272SOL    HW3 5142   0.842   3.946   2.315 -0.1288 -0.2605 -0.2158
 1272SOL    MW4 5143   0.914   3.977   2.276 -0.1224 -0.1853 -0.1462
 1273SOL     OW 5144   0.926   4.226   2.407 -0.2336  0.3995 -0.4609
 1273SOL    HW2 5145   0.925   4.140   2.364 -1.3373  0.1196  0.1130
 1273SOL    HW3 5146   0.858   4.276   2.362 -0.9770  0.3041  0.5478
 1273SOL    MW4 5147   0.917   4.221   2.395 -0.4773  0.3500 -0.2520
 1274SOL     OW 5148   1.154   4.380   2.324 -0.1923 -0.2399 -0.5087
 1274SOL    HW2 5149   1.073   4.344   2.361  0.1766  0.9073  1.4969
 1274SOL    HW3 5150   1.153   4.472   2.348  1.0792  0.0827 -1.6288
 1274SOL    MW4 5151   1.144   4.387   2.332  0.0241 -0.0458 -0.3917
 1275SOL     OW 5152   1.583   4.652   2.396  0.4705 -0.6345 -0.0369
 1275SOL    HW2 5153   1.661   4.693   2.356 -0.2192  1.0458  0.2850
 1275SOL    HW3 5154   1.511   4.681   2.341 -0.0961 -1.0463  0.4866
 1275SOL    MW4 5155   1.584   4.661   2.383  0.3047 -0.4673  0.0744
 1276SOL     OW 5156   1.356   0.095   2.253  0.2483 -0.0355 -0.3188
 1276SOL    HW2 5157   1.352   0.184   2.287  1.0700 -0.2308  0.2954
 1276SOL    HW3 5158   1.278   0.052   2.289 -0.2275  0.4700 -0.7370
 1276SOL    MW4 5159   1.345   0.101   2.262  0.2942  0.0054 -0.2933
 1277SOL     OW 5160   1.368   0.357   2.362 -0.4537 -0.3771  0.5756
 1277SOL    HW2 5161   1.366   0.335   2.455  0.5378 -0.6190  0.5387
 1277SOL    HW3 5162   1.450   0.403   2.349 -1.2032  0.8444  0.0740
 1277SOL    MW4 5163   1.378   0.360   2.373 -0.4219 -0.2478  0.5045
 1278SOL     OW 5164   1.594   0.493   2.279  0.2702  0.0193 -0.4045
 1278SOL    HW2 5165   1.681   0.461   2.300  0.2019  0.6887  0.9639
 1278SOL    HW3 5166   1.594   0.502   2.184  1.9550  0.7401 -0.3514
 1278SOL    MW4 5167   1.606   0.490   2.269  0.4835  0.2027 -0.2170
 1279SOL     OW 5168   1.554   0.750   2.350 -0.6967 -0.2601 -0.1106
 1279SOL    HW2 5169   1.632   0.804   2.336 -0.7475 -0.0350  0.4228
 1279SOL    HW3 5170   1.582   0.661   2.329 -0.1593 -0.2473  0.5191
 1279SOL    MW4 5171   1.568   0.745   2.346 -0.6325 -0.2288  0.0427
 1280SOL     OW 5172   1.339   0.899   2.252 -0.1666  0.3600 -0.0012
 1280SOL    HW2 5173   1.415   0.851   2.285 -0.4237  1.5634  2.4836
 1280SOL    HW3 5174   1.265   0.862   2.301 -1.0205  0.0358 -1.5162
 1280SOL    MW4 5175   1.339   0.887   2.263 -0.3132  0.4760  0.1266
 1281SOL     OW 5176   1.360   1.162   2.362  0.7057  0.3851  0.0990
 1281SOL    HW2 5177   1.356   1.166   2.458  1.6171  1.4164  0.0999
 1281SOL    HW3 5178   1.355   1.069   2.342  0.6350  0.1521  1.1577
 1281SOL    MW4 5179   1.359   1.150   2.372  0.8166  0.4905  0.2389
 1282SOL     OW 5180   1.599   1.278   2.297  0.5244  0.3787 -0.0421
 1282SOL    HW2 5181   1.520   1.232   2.326 -0.5464  1.8559 -0.5301
 1282SOL    HW3 5182   1.594   1.277   2.202  1.5867 -0.3206 -0.1010
 1282SOL    MW4 5183   1.588   1.272   2.289  0.5233  0.4814 -0.1144
 1283SOL     OW 5184   1.575   1.546   2.360  0.0352 -0.0395 -0.2070
 1283SOL    HW2 5185   1.645   1.595   2.317  0.8977 -0.9211  0.1819
 1283SOL    HW3 5186   1.580   1.458   2.322 -0.4715 -0.2784  0.2703
 1283SOL    MW4 5187   1.585   1.541   2.349  0.0823 -0.1874 -0.0925
 1284SOL     OW 5188   1.368   1.691   2.217  0.2956 -0.7485  0.2000
 1284SOL    HW2 5189   1.426   1.636   2.269 -0.2661 -1.6393 -0.1056
 1284SOL    HW3 5190   1.280   1.671   2.250  0.1330  0.3890  0.4768
 1284SOL    MW4 5191   1.364   1.681   2.228  0.2002 -0.7159  0.1962
 1285SOL     OW 5192   1.317   1.934   2.360  0.5639  0.3008 -0.0359
 1285SOL    HW2 5193   1.388   1.987   2.324  0.5937 -0.8608 -1.7594
 1285SOL    HW3 5194   1.336   1.845   2.329 -1.9873  0.0828 -1.1037
 1285SOL    MW4 5195   1.329   1.929   2.351  0.2313  0.1187 -0.4041
 1286SOL     OW 5196   1.518   2.095   2.263 -0.0256 -0.3521 -0.0373
 1286SOL    HW2 5197   1.591   2.042   2.296  0.6040  0.4722 -0.0882
 1286SOL    HW3 5198   1.533   2.099   2.168 -0.8580 -1.2452 -0.2238
 1286SOL    MW4 5199   1.529   2.088   2.254 -0.0525 -0.3612 -0.0687
 1287SOL     OW 5200   1.574   2.345   2.378 -0.1326  0.0011  0.5396
 1287SOL    HW2 5201   1.539   2.338   2.466 -1.7760  0.0486 -0.0947
 1287SOL    HW3 5202   1.569   2.256   2.343 -0.6390  0.2120  0.0685
 1287SOL    MW4 5203   1.569   2.332   2.385 -0.4163  0.0353  0.3939
 1288SOL     OW 5204   1.338   2.461   2.287  0.2699 -0.3526 -0.1294
 1288SOL    HW2 5205   1.427   2.430   2.305  1.0006  0.3486 -2.3668
 1288SOL    HW3 5206   1.328   2.451   2.192 -2.0198 -0.3344  0.0727
 1288SOL    MW4 5207   1.348   2.455   2.276  0.0641 -0.2577 -0.3982
 1289SOL     OW 5208   1.320   2.723   2.363  0.4172 -0.2862  0.5638
 1289SOL    HW2 5209   1.388   2.767   2.311 -0.0832 -0.5911 -0.3734
 1289SOL    HW3 5210   1.317   2.634   2.326 -2.2476  0.4511 -1.1436
 1289SOL    MW4 5211   1.329   2.717   2.351 -0.0004 -0.2291  0.2146
 1290SOL     OW 5212   1.573   2.841   2.259  0.7019 -0.3068  0.3221
 1290SOL    HW2 5213   1.578   2.935   2.277  0.1722 -0.5733  1.8895
 1290SOL    HW3 5214   1.587   2.834   2.164  0.5590  1.3617  0.1703
 1290SOL    MW4 5215   1.576   2.852   2.249  0.6131 -0.1216  0.5090
 1291SOL     OW 5216   1.573   3.111   2.326  0.6440  0.3011 -0.2200
 1291SOL    HW2 5217   1.559   3.113   2.420 -0.3009  1.7325 -0.3764
 1291SOL    HW3 5218   1.490   3.142   2.288  1.1479  0.1328 -1.4973
 1291SOL    MW4 5219   1.560   3.116   2.333  0.5857  0.4678 -0.4091
 1292SOL     OW 5220   1.335   3.245   2.260  0.8833 -0.2880 -0.2121
 1292SOL    HW2 5221   1.253   3.198   2.274 -0.3909  2.1108  0.6834
 1292SOL    HW3 5222   1.344   3.250   2.165 -0.3698  0.0117 -0.3205
 1292SOL    MW4 5223   1.325   3.240   2.249  0.5498  0.0682 -0.1082
 1293SOL     OW 5224   1.347   3.508   2.391 -0.3728  0.3979 -0.3657
 1293SOL    HW2 5225   1.359   3.515   2.486  0.1352 -0.0221 -0.4035
 1293SOL    HW3 5226   1.371   3.418   2.370  0.3007  0.7290 -1.0159
 1293SOL    MW4 5227   1.351   3.497   2.401 -0.2170  0.3862 -0.4566
 1294SOL     OW 5228   1.557   3.636   2.271 -0.0426  0.1210 -0.2053
 1294SOL    HW2 5229   1.558   3.721   2.314 -0.0101  0.2936 -0.5493
 1294SOL    HW3 5230   1.481   3.591   2.308 -2.0615  1.5396 -2.4819
 1294SOL    MW4 5231   1.547   3.641   2.281 -0.3046  0.3309 -0.5512
 1295SOL     OW 5232   1.588   3.879   2.397  0.5337  0.0730  0.1310
 1295SOL    HW2 5233   1.600   3.874   2.492  1.4876 -0.2446  0.0016
 1295SOL    HW3 5234   1.654   3.942   2.368 -0.6073  1.1378 -0.1762
 1295SOL    MW4 5235   1.598   3.886   2.406  0.5090  0.1714  0.0734
 1296SOL     OW 5236   1.340   3.967   2.282 -0.3299 -0.3528  0.7920
 1296SOL    HW2 5237   1.423   3.933   2.317  1.2120  2.8064  0.4128
 1296SOL    HW3 5238   1.357   3.980   2.189 -1.1980  0.4011  0.7252
 1296SOL    MW4 5239   1.353   3.964   2.274 -0.2409  0.1636  0.7334
 1297SOL     OW 5240   1.383   4.227   2.410  0.6934 -0.2451  0.0272
 1297SOL    HW2 5241   1.361   4.144   2.367 -0.7894  0.8413 -1.3475
 1297SOL    HW3 5242   1.319   4.290   2.376  3.0156  1.9207 -0.4593
 1297SOL    MW4 5243   1.372   4.224   2.400  0.8042  0.1836 -0.2184
 1298SOL     OW 5244   1.589   4.392   2.290  0.0918  0.2078 -0.0437
 1298SOL    HW2 5245   1.526   4.341   2.341 -0.2992 -0.7587 -1.4783
 1298SOL    HW3 5246   1.584   4.480   2.328 -1.1032 -0.1988  0.7706
 1298SOL    MW4 5247   1.580   4.397   2.302 -0.1175  0.0267 -0.1256
 1299SOL     OW 5248   2.065   0.023   2.336  0.0917 -0.1421  0.2797
 1299SOL    HW2 5249   2.142   0.068   2.302 -0.8973  0.8622 -0.6766
 1299SOL    HW3 5250   2.076  -0.068   2.307  1.2159 -0.1307  0.6748
 1299SOL    MW4 5251   2.076   0.017   2.327  0.1094 -0.0081  0.2058
 1300SOL     OW 5252   1.810   0.114   2.286 -0.2928  0.3972 -0.1820
 1300SOL    HW2 5253   1.810   0.207   2.308 -0.3635  0.3309  0.1014
 1300SOL    HW3 5254   1.898   0.084   2.307  0.0580  0.6341 -1.2809
 1300SOL    MW4 5255   1.821   0.122   2.292 -0.2558  0.4197 -0.2897
 1301SOL     OW 5256   1.840   0.384   2.340 -0.3213  0.4159  0.2683
 1301SOL    HW2 5257   1.848   0.385   2.436  0.5374  0.3266  0.1973
 1301SOL    HW3 5258   1.920   0.424   2.308 -0.2743 -0.2250 -0.4397
 1301SOL    MW4 5259   1.851   0.389   2.349 -0.2018  0.3195  0.1652
 1302SOL     OW 5260   2.063   0.496   2.237  0.0272 -0.0830  0.0782
 1302SOL    HW2 5261   2.056   0.590   2.250 -0.5622 -0.0245 -0.6200
 1302SOL    HW3 5262   2.060   0.485   2.142  0.3605 -0.7823  0.1481
 1302SOL    MW4 5263   2.062   0.507   2.226 -0.0064 -0.1675 -0.0050
 1303SOL     OW 5264   2.038   0.758   2.327 -0.1311  0.2956 -0.6064
 1303SOL    HW2 5265   2.102   0.827   2.312  1.3831 -0.7356  0.8794
 1303SOL    HW3 5266   1.954   0.804   2.334  1.1305  2.2905  2.6244
 1303SOL    MW4 5267   2.035   0.773   2.326  0.2353  0.4228  0.0157
 1304SOL     OW 5268   1.799   0.886   2.291 -0.0521  0.0167 -0.2633
 1304SOL    HW2 5269   1.816   0.977   2.318 -1.1359  0.4234 -0.9339
 1304SOL    HW3 5270   1.793   0.889   2.196 -0.7554 -0.6509 -0.2444
 1304SOL    MW4 5271   1.800   0.898   2.282 -0.2879 -0.0176 -0.3493
 1305SOL     OW 5272   1.825   1.130   2.376  0.2108 -0.3055  0.3128
 1305SOL    HW2 5273   1.900   1.184   2.352  0.6468  0.1103  2.5113
 1305SOL    HW3 5274   1.749   1.181   2.348  0.6092  1.5691  2.5055
 1305SOL    MW4 5275   1.825   1.144   2.369  0.3209 -0.0032  0.8922
 1306SOL     OW 5276   2.019   1.291   2.294  0.0764 -0.0765 -0.2402
 1306SOL    HW2 5277   2.025   1.384   2.318 -1.5999 -0.3695  1.5254
 1306SOL    HW3 5278   2.028   1.290   2.199 -0.9904  2.0265 -0.4019
 1306SOL    MW4 5279   2.021   1.303   2.285 -0.2859  0.1624 -0.0286
 1307SOL     OW 5280   2.038   1.559   2.338 -0.3411  0.1534  0.2226
 1307SOL    HW2 5281   2.039   1.553   2.433  0.0237  1.5711  0.3207
 1307SOL    HW3 5282   1.956   1.605   2.318 -0.0486  0.5427 -0.0952
 1307SOL    MW4 5283   2.027   1.564   2.348 -0.2544  0.3917  0.1934
 1308SOL     OW 5284   1.790   1.678   2.268  0.1495  0.0255 -0.3008
 1308SOL    HW2 5285   1.748   1.757   2.301  0.8475  0.6521 -0.8892
 1308SOL    HW3 5286   1.777   1.682   2.173 -0.5817 -1.0168 -0.2487
 1308SOL    MW4 5287   1.783   1.689   2.259  0.1452 -0.0294 -0.3712
 1309SOL     OW 5288   1.739   1.945   2.365 -0.3269  0.0076 -0.2299
 1309SOL    HW2 5289   1.749   1.939   2.460  0.2767  1.2245 -0.2104
 1309SOL    HW3 5290   1.815   1.994   2.336 -0.5431 -0.3074 -1.3481
 1309SOL    MW4 5291   1.750   1.950   2.374 -0.2759  0.1267 -0.3748
 1310SOL     OW 5292   1.990   2.051   2.278 -0.4082 -0.5233  0.4820
 1310SOL    HW2 5293   2.071   2.013   2.313 -0.0324  0.1359  0.3385
 1310SOL    HW3 5294   2.004   2.052   2.184 -0.3371  0.1591  0.5028
 1310SOL    MW4 5295   2.003   2.046   2.271 -0.3493 -0.3462  0.4656
 1311SOL     OW 5296   2.017   2.315   2.357  0.1885  0.2605  0.2574
 1311SOL    HW2 5297   2.095   2.359   2.322  0.0769  0.5984  0.4345
 1311SOL    HW3 5298   2.017   2.229   2.315 -0.6623  1.1371 -1.5777
 1311SOL    MW4 5299   2.027   2.309   2.347  0.0618  0.4208  0.0389
 1312SOL     OW 5300   1.802   2.469   2.275  0.2136  0.1513 -0.0094
 1312SOL    HW2 5301   1.864   2.411   2.319  0.1392 -0.0782 -0.2061
 1312SOL    HW3 5302   1.717   2.428   2.290  0.2025  0.0035 -0.4818
 1312SOL    MW4 5303   1.799   2.456   2.283  0.2023  0.1016 -0.0973
 1313SOL     OW 5304   1.774   2.711   2.407  0.2932  0.5609  0.0759
 1313SOL    HW2 5305   1.776   2.620   2.379 -1.3654  0.0223  1.6705
 1313SOL    HW3 5306   1.702   2.750   2.357  0.4898  0.8171 -0.0110
 1313SOL    MW4 5307   1.765   2.704   2.396  0.1003  0.5236  0.2747
 1314SOL     OW 5308   1.976   2.841   2.277  0.1791  0.0630  0.2992
 1314SOL    HW2 5309   2.045   2.803   2.330  0.2094  0.6022  0.6502
 1314SOL    HW3 5310   1.896   2.796   2.304  0.3545 -0.3923  0.0623
 1314SOL    MW4 5311   1.975   2.830   2.287  0.2061  0.0739  0.3140
 1315SOL     OW 5312   2.019   3.099   2.385  0.0191  0.1036 -0.5689
 1315SOL    HW2 5313   2.082   3.139   2.326  1.6057  0.0133  1.0176
 1315SOL    HW3 5314   2.007   3.010   2.351  1.0072  0.0124 -0.6921
 1315SOL    MW4 5315   2.026   3.092   2.373  0.3583  0.0799 -0.3760
 1316SOL     OW 5316   1.801   3.237   2.281 -0.2525 -0.3298  0.3670
 1316SOL    HW2 5317   1.861   3.172   2.318 -1.2405 -1.2370  0.4013
 1316SOL    HW3 5318   1.716   3.193   2.280 -1.2735  1.5647  1.9874
 1316SOL    MW4 5319   1.798   3.223   2.286 -0.5176 -0.1996  0.5853
 1317SOL     OW 5320   1.805   3.513   2.363 -0.1293  0.3938  0.1574
 1317SOL    HW2 5321   1.796   3.419   2.351  1.9888 -0.0137  1.5450
 1317SOL    HW3 5322   1.721   3.549   2.332 -1.3452 -2.0012  0.5487
 1317SOL    MW4 5323   1.793   3.505   2.357 -0.0103  0.0241  0.3920
 1318SOL     OW 5324   2.036   3.623   2.270 -0.0967  0.2791  0.2490
 1318SOL    HW2 5325   1.955   3.575   2.286  0.0763 -0.3428 -0.7076
 1318SOL    HW3 5326   2.047   3.621   2.175  1.3437 -0.1503  0.4084
 1318SOL    MW4 5327   2.027   3.617   2.260  0.1163  0.1407  0.1440
 1319SOL     OW 5328   2.034   3.891   2.358  0.1437  0.2209 -0.2891
 1319SOL    HW2 5329   2.026   3.888   2.454  0.2906  1.4749 -0.2199
 1319SOL    HW3 5330   2.021   3.801   2.330 -0.0297 -0.1426  0.9081
 1319SOL    MW4 5331   2.031   3.879   2.367  0.1402  0.3386 -0.1218
 1320SOL     OW 5332   1.797   4.024   2.292  0.4615 -0.1228 -0.5691
 1320SOL    HW2 5333   1.882   3.986   2.315  0.1989  0.3923  1.3374
 1320SOL    HW3 5334   1.792   4.016   2.197  1.6130 -2.3123 -0.4659
 1320SOL    MW4 5335   1.808   4.018   2.283  0.5788 -0.3438 -0.3040
 1321SOL     OW 5336   1.841   4.291   2.394  0.0253 -0.1561  0.4293
 1321SOL    HW2 5337   1.836   4.201   2.362  0.0710 -0.5213  1.4429
 1321SOL    HW3 5338   1.756   4.328   2.372 -0.0435 -0.4845  0.1286
 1321SOL    MW4 5339   1.829   4.284   2.387  0.0223 -0.2475  0.5231
 1322SOL     OW 5340   2.057   4.423   2.293  0.1003 -0.4579 -0.0350
 1322SOL    HW2 5341   1.979   4.391   2.339  0.3264 -1.3426 -0.2463
 1322SOL    HW3 5342   2.049   4.385   2.205  0.7256 -0.4785 -0.0806
 1322SOL    MW4 5343   2.045   4.414   2.287  0.2127 -0.5774 -0.0689
 1323SOL     OW 5344   2.498   4.648   2.357  0.6924  0.1870  0.2486
 1323SOL    HW2 5345   2.570   4.693   2.313 -0.8591  1.2104 -1.3094
 1323SOL    HW3 5346   2.498   4.560   2.320  0.2769  0.6225 -0.8122
 1323SOL    MW4 5347   2.507   4.642   2.347  0.4332  0.3800 -0.0968
 1324SOL     OW 5348   2.303   0.113   2.239 -0.8113 -0.1614  0.1841
 1324SOL    HW2 5349   2.301   0.203   2.272  1.0635  0.1470 -0.5009
 1324SOL    HW3 5350   2.366   0.068   2.294  0.2279 -0.3644 -1.1407
 1324SOL    MW4 5351   2.311   0.119   2.251 -0.4268 -0.1475 -0.0811
 1325SOL     OW 5352   2.268   0.365   2.364 -0.5048 -0.5639 -0.2263
 1325SOL    HW2 5353   2.344   0.420   2.343 -0.3520 -0.2321  1.1312
 1325SOL    HW3 5354   2.193   0.413   2.329 -0.0818 -0.9592 -1.6973
 1325SOL    MW4 5355   2.268   0.379   2.357 -0.4292 -0.5723 -0.2415
 1326SOL     OW 5356   2.467   0.528   2.259  0.0033  0.0138  0.0641
 1326SOL    HW2 5357   2.548   0.490   2.292  0.5500  0.1886 -1.0621
 1326SOL    HW3 5358   2.462   0.499   2.168 -1.4817 -0.4690  0.2752
 1326SOL    MW4 5359   2.477   0.519   2.251 -0.1204 -0.0268 -0.0567
 1327SOL     OW 5360   2.460   0.775   2.383  0.0516  0.1556 -0.0584
 1327SOL    HW2 5361   2.542   0.814   2.352 -0.1486  1.2637  0.7680
 1327SOL    HW3 5362   2.452   0.694   2.334  1.7766 -0.0809  0.0187
 1327SOL    MW4 5363   2.470   0.770   2.373  0.2532  0.2705  0.0610
 1328SOL     OW 5364   2.246   0.939   2.245  0.1044  0.2290 -0.6452
 1328SOL    HW2 5365   2.257   1.024   2.285 -1.1473 -0.8297  2.0712
 1328SOL    HW3 5366   2.295   0.879   2.302 -1.7048 -1.3020 -0.6564
 1328SOL    MW4 5367   2.254   0.942   2.258 -0.2997 -0.1127 -0.2882
 1329SOL     OW 5368   2.263   1.179   2.374 -0.0296 -0.1558  0.0622
 1329SOL    HW2 5369   2.330   1.213   2.316 -0.4908 -2.2162 -1.7461
 1329SOL    HW3 5370   2.181   1.215   2.341 -0.2563 -1.0564 -0.3812
 1329SOL    MW4 5371   2.261   1.188   2.362 -0.1204 -0.5466 -0.2346
 1330SOL     OW 5372   2.473   1.315   2.247 -0.6416 -0.5818  0.3208
 1330SOL    HW2 5373   2.554   1.276   2.280  0.2273  1.0053  0.1133
 1330SOL    HW3 5374   2.467   1.399   2.292 -1.9573 -0.4786 -0.0149
 1330SOL    MW4 5375   2.483   1.321   2.258 -0.7005 -0.3588  0.2489
 1331SOL     OW 5376   2.480   1.555   2.375  0.5532  0.4404 -0.0243
 1331SOL    HW2 5377   2.493   1.552   2.470  0.4687 -0.1605 -0.0259
 1331SOL    HW3 5378   2.556   1.602   2.342 -0.4459  2.4777  0.5242
 1331SOL    MW4 5379   2.492   1.561   2.383  0.4103  0.6299  0.0477
 1332SOL     OW 5380   2.264   1.697   2.247  0.4380 -0.1030 -0.2577
 1332SOL    HW2 5381   2.329   1.652   2.301  1.0511  0.3441 -0.6116
 1332SOL    HW3 5382   2.182   1.650   2.262  0.9314 -0.9081 -0.1041
 1332SOL    MW4 5383   2.262   1.685   2.256  0.5841 -0.1502 -0.2842
 1333SOL     OW 5384   2.221   1.947   2.372 -0.3186  0.4896  0.7617
 1333SOL    HW2 5385   2.298   1.995   2.341 -0.2363  0.3152  0.6937
 1333SOL    HW3 5386   2.232   1.859   2.336 -2.1945  1.3355 -1.9579
 1333SOL    MW4 5387   2.233   1.942   2.363 -0.5555  0.5782  0.3941
 1334SOL     OW 5388   2.456   2.059   2.267  0.1704 -0.1510  0.2794
 1334SOL    HW2 5389   2.536   2.025   2.309 -0.1502 -0.5681  0.5568
 1334SOL    HW3 5390   2.458   2.023   2.178  0.8390  0.7124 -0.0592
 1334SOL    MW4 5391   2.467   2.050   2.261  0.2162 -0.0918  0.2713
 1335SOL     OW 5392   2.493   2.330   2.348 -0.2088  0.4180  0.0626
 1335SOL    HW2 5393   2.560   2.362   2.288 -0.2585  0.6196  0.1124
 1335SOL    HW3 5394   2.476   2.240   2.320  0.7073  0.0714  0.5931
 1335SOL    MW4 5395   2.500   2.322   2.337 -0.0947  0.3989  0.1392
 1336SOL     OW 5396   2.251   2.434   2.291  0.1026 -0.2854  0.0264
 1336SOL    HW2 5397   2.248   2.527   2.311  0.0596 -0.2811  0.0008
 1336SOL    HW3 5398   2.337   2.406   2.322  0.7107  0.0775 -1.2858
 1336SOL    MW4 5399   2.262   2.442   2.298  0.1771 -0.2367 -0.1502
 1337SOL     OW 5400   2.204   2.694   2.365  0.1253  0.4077  0.0146
 1337SOL    HW2 5401   2.224   2.688   2.458 -0.8419  0.7661  0.2487
 1337SOL    HW3 5402   2.281   2.737   2.327  1.0470 -0.8234  0.4470
 1337SOL    MW4 5403   2.217   2.699   2.372  0.1192  0.2928  0.1023
 1338SOL     OW 5404   2.446   2.819   2.278 -0.2248 -0.0947  0.0896
 1338SOL    HW2 5405   2.513   2.756   2.305 -1.3599 -1.6361 -0.6172
 1338SOL    HW3 5406   2.475   2.851   2.192  1.4131  1.9289  1.3642
 1338SOL    MW4 5407   2.458   2.815   2.270 -0.1585 -0.0312  0.1643
 1339SOL     OW 5408   2.425   3.071   2.373 -0.2222  0.1648  0.2008
 1339SOL    HW2 5409   2.505   3.120   2.353 -0.0992  0.7037  1.9663
 1339SOL    HW3 5410   2.446   2.981   2.349 -0.0100  0.7317 -1.8449
 1339SOL    MW4 5411   2.439   3.065   2.367 -0.1781  0.3104  0.1638
 1340SOL     OW 5412   2.233   3.210   2.262  0.1334 -0.0995  0.2881
 1340SOL    HW2 5413   2.240   3.294   2.308 -1.4662  0.7112 -0.9197
 1340SOL    HW3 5414   2.305   3.158   2.298  1.2096  1.8041  0.9929
 1340SOL    MW4 5415   2.244   3.214   2.273  0.0644  0.2584  0.2217
 1341SOL     OW 5416   2.259   3.465   2.359  0.0998  0.0163  0.4200
 1341SOL    HW2 5417   2.256   3.462   2.455 -1.9896 -2.8220  0.3093
 1341SOL    HW3 5418   2.185   3.521   2.335  0.1015  0.0200  0.4232
 1341SOL    MW4 5419   2.249   3.472   2.369 -0.1757 -0.3579  0.4058
 1342SOL     OW 5420   2.500   3.645   2.253  0.1778 -0.3884  0.0160
 1342SOL    HW2 5421   2.505   3.734   2.286 -0.2213 -0.9468  1.6166
 1342SOL    HW3 5422   2.430   3.604   2.303 -0.5487 -1.2323 -1.6212
 1342SOL    MW4 5423   2.491   3.651   2.264  0.0296 -0.5734  0.0114
 1343SOL     OW 5424   2.501   3.881   2.372  0.0737  0.0044  0.4716
 1343SOL    HW2 5425   2.496   3.876   2.467 -1.4980 -2.1213  0.3174
 1343SOL    HW3 5426   2.416   3.916   2.345 -0.6378 -2.1813 -0.2718
 1343SOL    MW4 5427   2.489   3.885   2.381 -0.2275 -0.5643  0.3533
 1344SOL     OW 5428   2.272   4.000   2.274 -0.3462  0.1838  0.1010
 1344SOL    HW2 5429   2.260   4.089   2.306 -0.0852  0.1722  0.2345
 1344SOL    HW3 5430   2.196   3.952   2.308 -0.2184  0.2364  0.4701
 1344SOL    MW4 5431   2.260   4.005   2.283 -0.2949  0.1893  0.1674
 1345SOL     OW 5432   2.283   4.273   2.374  0.6085  0.9669  0.2815
 1345SOL    HW2 5433   2.297   4.256   2.467  0.4975  1.3743  0.3735
 1345SOL    HW3 5434   2.202   4.323   2.371  0.1344  0.1798 -0.1066
 1345SOL    MW4 5435   2.274   4.277   2.386  0.5314  0.9170  0.2425
 1346SOL     OW 5436   2.491   4.394   2.234 -0.3345 -0.2295 -0.2063
 1346SOL    HW2 5437   2.567   4.348   2.268 -0.4043  0.7621  1.3412
 1346SOL    HW3 5438   2.417   4.356   2.280 -0.5048  0.5905  0.2166
 1346SOL    MW4 5439   2.491   4.383   2.244 -0.3662  0.0095  0.0536
 1347SOL     OW 5440   2.909   4.666   2.342  0.6063 -0.4562  0.1008
 1347SOL    HW2 5441   2.996   4.687   2.310 -0.7103  0.9940 -2.6259
 1347SOL    HW3 5442   2.896   4.574   2.317  1.2112 -0.5851  0.2507
 1347SOL    MW4 5443   2.919   4.656   2.335  0.5126 -0.2818 -0.2391
 1348SOL     OW 5444   2.700   0.151   2.220  0.0861 -0.0376 -0.3660
 1348SOL    HW2 5445   2.700   0.235   2.266 -1.5094 -0.5621  0.6008
 1348SOL    HW3 5446   2.774   0.104   2.257 -0.6944 -0.1396  1.1121
 1348SOL    MW4 5447   2.710   0.156   2.231 -0.2272 -0.1203 -0.0434
 1349SOL     OW 5448   2.703   0.404   2.331 -0.0051  0.0369 -0.4111
 1349SOL    HW2 5449   2.708   0.399   2.427 -0.1684  0.4021 -0.3851
 1349SOL    HW3 5450   2.776   0.461   2.306 -0.6373  0.8464 -0.4254
 1349SOL    MW4 5451   2.713   0.411   2.341 -0.1099  0.1919 -0.4094
 1350SOL     OW 5452   2.930   0.526   2.249 -0.0679 -0.1670 -0.0378
 1350SOL    HW2 5453   2.916   0.611   2.290  0.6017  0.1030 -0.3710
 1350SOL    HW3 5454   2.897   0.536   2.160  0.1985 -0.2028 -0.1390
 1350SOL    MW4 5455   2.924   0.538   2.243  0.0558 -0.1361 -0.0954
 1351SOL     OW 5456   2.929   0.775   2.359  0.5398 -0.2174 -0.0516
 1351SOL    HW2 5457   2.940   0.752   2.451 -0.8800 -0.2442  0.1229
 1351SOL    HW3 5458   2.850   0.829   2.356  1.8495  1.7095 -0.9585
 1351SOL    MW4 5459   2.920   0.779   2.371  0.5255  0.0333 -0.1481
 1352SOL     OW 5460   2.680   0.912   2.296 -0.0248  0.1861 -0.0446
 1352SOL    HW2 5461   2.657   1.003   2.314  1.1564  0.4613  0.1049
 1352SOL    HW3 5462   2.701   0.911   2.202 -0.1975  0.0211 -0.0835
 1352SOL    MW4 5463   2.680   0.924   2.286  0.1082  0.2006 -0.0300
 1353SOL     OW 5464   2.671   1.188   2.363  0.4298 -0.1844  0.0373
 1353SOL    HW2 5465   2.672   1.178   2.459 -0.9254  0.7810  0.1613
 1353SOL    HW3 5466   2.760   1.218   2.342  0.7693 -0.4924  0.9774
 1353SOL    MW4 5467   2.683   1.191   2.373  0.2959 -0.0976  0.1776
 1354SOL     OW 5468   2.932   1.264   2.274 -0.1701 -0.4438  0.3623
 1354SOL    HW2 5469   3.014   1.238   2.316  0.3242  0.4092 -0.0474
 1354SOL    HW3 5470   2.948   1.249   2.180  0.0425  1.0740  0.1419
 1354SOL    MW4 5471   2.945   1.258   2.267 -0.0765 -0.1311  0.2792
 1355SOL     OW 5472   2.893   1.529   2.358  0.5103 -0.2046  0.3000
 1355SOL    HW2 5473   2.903   1.530   2.453  2.0083 -0.5082  0.1653
 1355SOL    HW3 5474   2.894   1.436   2.335 -0.6252 -0.1594  0.0551
 1355SOL    MW4 5475   2.895   1.517   2.368  0.5579 -0.2388  0.2496
 1356SOL     OW 5476   2.685   1.693   2.259  0.3409 -0.0996 -0.3754
 1356SOL    HW2 5477   2.760   1.644   2.293  0.3365  0.0102 -0.2125
 1356SOL    HW3 5478   2.683   1.671   2.166  0.7013  0.0641 -0.4226
 1356SOL    MW4 5479   2.695   1.683   2.251  0.3879 -0.0635 -0.3600
 1357SOL     OW 5480   2.688   1.935   2.374  0.0601 -0.0285  0.3109
 1357SOL    HW2 5481   2.685   1.926   2.470  0.6302 -0.7813  0.2572
 1357SOL    HW3 5482   2.706   1.847   2.342 -0.1379  0.2255 -0.4944
 1357SOL    MW4 5483   2.690   1.923   2.383  0.1094 -0.0943  0.1976
 1358SOL     OW 5484   2.890   2.074   2.241 -0.3403  0.5881 -0.1890
 1358SOL    HW2 5485   2.974   2.035   2.263  0.1797  1.0704 -1.2783
 1358SOL    HW3 5486   2.827   2.032   2.301  0.4358 -0.8274 -0.3501
 1358SOL    MW4 5487   2.893   2.063   2.252 -0.1690  0.4652 -0.3541
 1359SOL     OW 5488   2.916   2.331   2.348  0.2782 -0.0578  0.5511
 1359SOL    HW2 5489   2.920   2.312   2.441 -1.9729 -1.7186  0.3490
 1359SOL    HW3 5490   2.920   2.246   2.305 -0.4727  0.5525 -0.7937
 1359SOL    MW4 5491   2.917   2.317   2.354 -0.1178 -0.1965  0.3471
 1360SOL     OW 5492   2.707   2.459   2.223 -0.0749  0.3799  0.3301
 1360SOL    HW2 5493   2.785   2.422   2.265 -0.5354 -0.7865  0.1862
 1360SOL    HW3 5494   2.711   2.426   2.133  0.0471  1.5407 -0.0969
 1360SOL    MW4 5495   2.718   2.450   2.217 -0.1192  0.3798  0.2549
 1361SOL     OW 5496   2.668   2.690   2.390  0.6435 -0.0937  0.4877
 1361SOL    HW2 5497   2.746   2.738   2.363  0.4966 -0.0837  0.0769
 1361SOL    HW3 5498   2.676   2.605   2.347 -0.5179  0.5843 -1.1135
 1361SOL    MW4 5499   2.679   2.685   2.381  0.4709 -0.0029  0.2220
 1362SOL     OW 5500   2.882   2.834   2.265  0.0010 -0.8826  0.1743
 1362SOL    HW2 5501   2.885   2.921   2.306 -0.4837 -0.3841 -0.8203
 1362SOL    HW3 5502   2.908   2.850   2.174  2.3101 -2.1648  0.5594
 1362SOL    MW4 5503   2.886   2.848   2.259  0.2418 -0.9863  0.0937
 1363SOL     OW 5504   2.913   3.086   2.406 -0.0956 -0.7209  0.0154
 1363SOL    HW2 5505   2.976   3.129   2.348  0.1830 -0.6994  0.3297
 1363SOL    HW3 5506   2.829   3.127   2.385  0.4502  1.2531  1.5766
 1363SOL    MW4 5507   2.910   3.097   2.395  0.0134 -0.4575  0.2627
 1364SOL     OW 5508   2.674   3.210   2.319  0.2057 -0.1467  0.0846
 1364SOL    HW2 5509   2.667   3.301   2.347 -0.0368 -0.2826  0.4698
 1364SOL    HW3 5510   2.699   3.215   2.226 -0.6866  0.3110 -0.1281
 1364SOL    MW4 5511   2.677   3.223   2.310  0.0563 -0.1044  0.1073
 1365SOL     OW 5512   2.694   3.480   2.352  0.2568 -0.0791  0.7517
 1365SOL    HW2 5513   2.772   3.506   2.303 -0.2050 -2.3613 -1.3380
 1365SOL    HW3 5514   2.626   3.541   2.323  0.8684  0.9022  1.3597
 1365SOL    MW4 5515   2.696   3.491   2.342  0.2766 -0.2506  0.5560
 1366SOL     OW 5516   2.919   3.602   2.250 -0.4104 -0.1709  0.1466
 1366SOL    HW2 5517   2.976   3.530   2.277  0.4334  0.1899 -0.6537
 1366SOL    HW3 5518   2.957   3.680   2.290 -0.1035  0.1292 -0.7091
 1366SOL    MW4 5519   2.931   3.603   2.259 -0.2587 -0.0837 -0.0720
 1367SOL     OW 5520   2.970   3.857   2.340  0.1977  0.1502 -0.4346
 1367SOL    HW2 5521   2.974   3.863   2.436  0.2083  0.6947 -0.4667
 1367SOL    HW3 5522   2.884   3.893   2.318 -0.0131 -0.4475 -0.5965
 1367SOL    MW4 5523   2.959   3.863   2.350  0.1712  0.1431 -0.4599
 1368SOL     OW 5524   2.745   3.973   2.248 -0.1144  0.1306 -0.0814
 1368SOL    HW2 5525   2.666   3.937   2.288 -0.1088 -0.6319 -0.7295
 1368SOL    HW3 5526   2.722   3.987   2.157  0.7349 -0.9155 -0.4832
 1368SOL    MW4 5527   2.732   3.970   2.241 -0.0014 -0.1078 -0.2196
 1369SOL     OW 5528   2.706   4.249   2.345 -0.0518  0.8097 -0.0281
 1369SOL    HW2 5529   2.691   4.239   2.439 -0.0292  1.7282  0.0809
 1369SOL    HW3 5530   2.731   4.161   2.315 -0.9590  0.3129  0.6547
 1369SOL    MW4 5531   2.708   4.236   2.354 -0.1688  0.8655  0.0765
 1370SOL     OW 5532   2.908   4.387   2.232  0.4216  0.4388 -0.0052
 1370SOL    HW2 5533   2.990   4.354   2.267  0.5174  0.6407 -0.0413
 1370SOL    HW3 5534   2.840   4.341   2.282  0.5490 -0.5918 -0.7792
 1370SOL    MW4 5535   2.910   4.377   2.244  0.4508  0.3300 -0.1121
 1371SOL     OW 5536   3.351   4.655   2.362  0.2236 -0.3327  0.0272
 1371SOL    HW2 5537   3.368   4.631   2.453 -0.8176 -0.1795  0.2668
 1371SOL    HW3 5538   3.435   4.685   2.329  0.4293  0.3590  1.1743
 1371SOL    MW4 5539   3.364   4.656   2.370  0.1135 -0.2213  0.2103
 1372SOL     OW 5540   3.155   0.147   2.249 -0.1449  0.1649 -0.5056
 1372SOL    HW2 5541   3.154   0.235   2.287 -1.0128  0.4778 -1.2352
 1372SOL    HW3 5542   3.230   0.104   2.290  0.2757  1.2381 -0.1327
 1372SOL    MW4 5543   3.165   0.153   2.260 -0.2038  0.3478 -0.5524
 1373SOL     OW 5544   3.142   0.403   2.370  0.0691 -0.5829 -0.1491
 1373SOL    HW2 5545   3.224   0.450   2.354  0.1665 -0.5492  0.4361
 1373SOL    HW3 5546   3.076   0.451   2.319  0.1128  0.3560  0.6620
 1373SOL    MW4 5547   3.144   0.416   2.361  0.0877 -0.4546  0.0350
 1374SOL     OW 5548   3.378   0.499   2.303  0.1826  0.1294  0.0386
 1374SOL    HW2 5549   3.444   0.432   2.317 -0.4966 -0.5027  0.1915
 1374SOL    HW3 5550   3.380   0.515   2.208  1.9879  1.5828  0.3025
 1374SOL    MW4 5551   3.387   0.493   2.292  0.3312  0.2378  0.0935
 1375SOL     OW 5552   3.376   0.770   2.396  0.2495  0.3644 -0.2396
 1375SOL    HW2 5553   3.452   0.792   2.342 -0.1328  0.6920 -0.6509
 1375SOL    HW3 5554   3.353   0.681   2.370  0.8811  0.0226  0.3482
 1375SOL    MW4 5555   3.383   0.762   2.386  0.2823  0.3625 -0.2165
 1376SOL     OW 5556   3.165   0.922   2.319 -0.2061 -0.0628 -0.4185
 1376SOL    HW2 5557   3.242   0.874   2.350 -0.8127 -0.1572  0.9716
 1376SOL    HW3 5558   3.094   0.858   2.323 -0.7087  0.5180 -0.0187
 1376SOL    MW4 5559   3.166   0.907   2.324 -0.3521  0.0014 -0.1824
 1377SOL     OW 5560   3.195   1.194   2.389  0.3147 -0.0615  0.3110
 1377SOL    HW2 5561   3.244   1.245   2.324  1.3579  0.8409  1.7648
 1377SOL    HW3 5562   3.191   1.106   2.353  0.2510  0.5848 -1.3116
 1377SOL    MW4 5563   3.201   1.189   2.376  0.4439  0.1428  0.2887
 1378SOL     OW 5564   3.365   1.316   2.197 -0.1933 -0.2119 -0.1192
 1378SOL    HW2 5565   3.437   1.260   2.226 -2.0336 -1.8620  1.4571
 1378SOL    HW3 5566   3.386   1.402   2.233  0.1875 -1.0563  1.7729
 1378SOL    MW4 5567   3.377   1.320   2.206 -0.3858 -0.5411  0.3386
 1379SOL     OW 5568   3.371   1.559   2.321 -0.2982  0.1139  0.1528
 1379SOL    HW2 5569   3.364   1.569   2.415 -0.3471 -1.5716  0.3463
 1379SOL    HW3 5570   3.286   1.587   2.287 -0.2018  0.9392  0.5779
 1379SOL    MW4 5571   3.359   1.564   2.329 -0.2918  0.0004  0.2346
 1380SOL     OW 5572   3.124   1.657   2.233 -0.2977 -0.3969  0.0074
 1380SOL    HW2 5573   3.130   1.746   2.268  0.5428 -0.7133  0.6930
 1380SOL    HW3 5574   3.057   1.615   2.288 -0.4700 -0.2856 -0.1151
 1380SOL    MW4 5575   3.116   1.663   2.245 -0.2093 -0.4239  0.0815
 1381SOL     OW 5576   3.125   1.916   2.319 -0.0929  0.0294  0.0354
 1381SOL    HW2 5577   3.124   1.929   2.414 -0.4841  1.0390 -0.0986
 1381SOL    HW3 5578   3.213   1.941   2.292  0.1863 -0.7693  0.1963
 1381SOL    MW4 5579   3.137   1.921   2.328 -0.1075  0.0572  0.0389
 1382SOL     OW 5580   3.383   2.025   2.222 -0.2693 -0.3543 -0.3621
 1382SOL    HW2 5581   3.467   1.986   2.249 -0.4544 -0.7119 -0.2956
 1382SOL    HW3 5582   3.390   2.029   2.126 -0.1872 -0.4048 -0.3589
 1382SOL    MW4 5583   3.395   2.020   2.213 -0.2825 -0.4082 -0.3529
 1383SOL     OW 5584   3.366   2.294   2.345 -0.2567 -0.0492 -0.2355
 1383SOL    HW2 5585   3.283   2.338   2.327 -0.7549  0.0586  2.1599
 1383SOL    HW3 5586   3.357   2.208   2.305 -0.2220  1.0958 -2.8410
 1383SOL    MW4 5587   3.354   2.289   2.337 -0.3178  0.1163 -0.2635
 1384SOL     OW 5588   3.157   2.453   2.295 -0.1020  0.3405  0.7096
 1384SOL    HW2 5589   3.153   2.546   2.317  0.5802  0.3617  0.7585
 1384SOL    HW3 5590   3.069   2.420   2.312 -0.0050  0.7001  1.9292
 1384SOL    MW4 5591   3.145   2.461   2.300  0.0010  0.3910  0.8769
 1385SOL     OW 5592   3.120   2.728   2.360  0.0944 -0.3193 -0.0685
 1385SOL    HW2 5593   3.107   2.730   2.455 -0.1611  2.3162 -0.1201
 1385SOL    HW3 5594   3.049   2.783   2.325  1.3394  0.3346 -1.6328
 1385SOL    MW4 5595   3.109   2.736   2.368  0.2248  0.1147 -0.2816
 1386SOL     OW 5596   3.358   2.845   2.274  0.3558  0.2341 -0.1379
 1386SOL    HW2 5597   3.362   2.937   2.301  1.3623 -0.3296  1.7340
 1386SOL    HW3 5598   3.273   2.815   2.305  0.1111  0.4684 -0.5721
 1386SOL    MW4 5599   3.347   2.853   2.282  0.4563  0.1907  0.0520
 1387SOL     OW 5600   3.379   3.106   2.359  0.1215 -0.2810  0.6710
 1387SOL    HW2 5601   3.447   3.152   2.310  0.7399 -0.5861  1.2278
 1387SOL    HW3 5602   3.298   3.126   2.313  0.5991  0.0385 -0.0384
 1387SOL    MW4 5603   3.377   3.115   2.346  0.2663 -0.2792  0.6509
 1388SOL     OW 5604   3.133   3.180   2.239 -0.0720  0.2871 -0.8256
 1388SOL    HW2 5605   3.153   3.271   2.264  2.0779  0.1788 -2.0689
 1388SOL    HW3 5606   3.133   3.181   2.144 -0.6224 -0.9175 -0.8482
 1388SOL    MW4 5607   3.136   3.192   2.230  0.1388  0.1137 -0.9925
 1389SOL     OW 5608   3.152   3.445   2.330 -0.3981 -0.3145 -0.2017
 1389SOL    HW2 5609   3.137   3.462   2.422  0.5900  0.4567 -0.1784
 1389SOL    HW3 5610   3.220   3.507   2.304 -0.1931 -0.9659 -1.2847
 1389SOL    MW4 5611   3.159   3.455   2.338 -0.2408 -0.2987 -0.3414
 1390SOL     OW 5612   3.378   3.624   2.257 -0.2054 -0.0514 -0.3513
 1390SOL    HW2 5613   3.444   3.560   2.284 -1.1703  0.0845  2.4902
 1390SOL    HW3 5614   3.364   3.606   2.164  1.3540 -2.3283 -0.1852
 1390SOL    MW4 5615   3.385   3.613   2.248 -0.1268 -0.3340  0.0453
 1391SOL     OW 5616   3.385   3.874   2.372 -0.2892 -0.5863 -0.2790
 1391SOL    HW2 5617   3.465   3.918   2.341 -0.8089  0.6617  0.0882
 1391SOL    HW3 5618   3.398   3.782   2.350  1.0393 -0.3230 -0.6719
 1391SOL    MW4 5619   3.397   3.868   2.365 -0.1824 -0.3867 -0.2823
 1392SOL     OW 5620   3.176   4.012   2.259  0.3078 -0.4244 -0.3464
 1392SOL    HW2 5621   3.257   3.968   2.287  0.1148  0.4958  1.7696
 1392SOL    HW3 5622   3.107   3.948   2.279  0.2376 -0.0363  0.6932
 1392SOL    MW4 5623   3.177   3.998   2.266  0.2730 -0.2515  0.0699
 1393SOL     OW 5624   3.134   4.279   2.339  0.1437  0.3220 -0.2877
 1393SOL    HW2 5625   3.220   4.319   2.325  0.2804  0.1923  0.1609
 1393SOL    HW3 5626   3.145   4.187   2.316 -0.2238  0.5791 -1.5126
 1393SOL    MW4 5627   3.147   4.272   2.334  0.1130  0.3386 -0.3901
 1394SOL     OW 5628   3.367   4.403   2.264  0.0311  0.3480 -0.0435
 1394SOL    HW2 5629   3.357   4.494   2.290 -0.1574  0.2095  0.3698
 1394SOL    HW3 5630   3.354   4.404   2.169 -0.8409  0.6247  0.0742
 1394SOL    MW4 5631   3.364   4.415   2.255 -0.1087  0.3667  0.0267
 1395SOL     OW 5632   3.802   4.605   2.340  0.2946  0.0357 -0.0570
 1395SOL    HW2 5633   3.808   4.599   2.435 -0.3323  0.6452  0.0231
 1395SOL    HW3 5634   3.864   4.674   2.316 -0.5387  0.8284  0.0405
 1395SOL    MW4 5635   3.811   4.613   2.349  0.1023  0.2198 -0.0334
 1396SOL     OW 5636   3.577   0.081   2.238  0.2770  0.5389  0.7101
 1396SOL    HW2 5637   3.607   0.161   2.281  2.7271 -0.3679  0.7418
 1396SOL    HW3 5638   3.642   0.015   2.261 -0.4420 -0.8949 -1.2238
 1396SOL    MW4 5639   3.590   0.083   2.246  0.5054  0.2301  0.4592
 1397SOL     OW 5640   3.589   0.339   2.355  0.2440  0.7407  0.0274
 1397SOL    HW2 5641   3.603   0.347   2.449 -0.3162 -0.2015  0.1974
 1397SOL    HW3 5642   3.653   0.398   2.316 -0.0860  1.7624  1.0286
 1397SOL    MW4 5643   3.599   0.348   2.362  0.1266  0.7511  0.1819
 1398SOL     OW 5644   3.780   0.516   2.251 -0.0066 -0.0911 -0.0402
 1398SOL    HW2 5645   3.795   0.609   2.268  0.6344 -0.1723 -0.1477
 1398SOL    HW3 5646   3.785   0.508   2.156  1.2680 -0.4545  0.0480
 1398SOL    MW4 5647   3.782   0.527   2.241  0.2463 -0.1497 -0.0427
 1399SOL     OW 5648   3.826   0.779   2.338 -0.1913  0.3676  0.2139
 1399SOL    HW2 5649   3.804   0.779   2.431 -0.7138  1.8130  0.0935
 1399SOL    HW3 5650   3.913   0.820   2.334 -0.3481  0.6823  0.0238
 1399SOL    MW4 5651   3.835   0.784   2.350 -0.2811  0.5999  0.1733
 1400SOL     OW 5652   3.587   0.878   2.254  0.2822 -0.4085  0.2858
 1400SOL    HW2 5653   3.677   0.852   2.275  1.0031  0.5080 -1.5553
 1400SOL    HW3 5654   3.587   0.889   2.159 -1.8338 -0.5627  0.2543
 1400SOL    MW4 5655   3.599   0.876   2.244  0.0982 -0.3079  0.0389
 1401SOL     OW 5656   3.574   1.164   2.288  0.2182 -0.4101 -0.0699
 1401SOL    HW2 5657   3.551   1.181   2.379 -0.2172 -0.9160 -0.0824
 1401SOL    HW3 5658   3.572   1.069   2.280 -0.6973 -0.3309 -0.8541
 1401SOL    MW4 5659   3.571   1.154   2.299  0.0398 -0.4663 -0.1750
 1402SOL     OW 5660   3.830   1.271   2.240  0.0272  0.1356 -0.2947
 1402SOL    HW2 5661   3.833   1.356   2.284 -0.4890  0.9864 -1.8378
 1402SOL    HW3 5662   3.743   1.237   2.259 -0.3072  0.6430 -0.8868
 1402SOL    MW4 5663   3.819   1.278   2.248 -0.0851  0.3148 -0.5765
 1403SOL     OW 5664   3.834   1.518   2.355  0.4605 -0.2148  0.3801
 1403SOL    HW2 5665   3.846   1.537   2.448  1.4704 -0.9355  0.4103
 1403SOL    HW3 5666   3.747   1.550   2.334 -0.7937 -2.2931  2.1739
 1403SOL    MW4 5667   3.824   1.524   2.365  0.4284 -0.5841  0.6211
 1404SOL     OW 5668   3.624   1.653   2.252  0.1612 -0.2388  0.1050
 1404SOL    HW2 5669   3.537   1.625   2.280 -0.0176  0.1486 -0.0538
 1404SOL    HW3 5670   3.616   1.663   2.157  0.7694 -1.5628 -0.0862
 1404SOL    MW4 5671   3.611   1.651   2.243  0.2179 -0.3623  0.0587
 1405SOL     OW 5672   3.616   1.942   2.317  0.3597  0.0354 -0.0689
 1405SOL    HW2 5673   3.700   1.979   2.289  0.3756  0.1782  0.1686
 1405SOL    HW3 5674   3.623   1.849   2.297  0.5041  0.0786 -0.2207
 1405SOL    MW4 5675   3.628   1.935   2.311  0.3808  0.0601 -0.0575
 1406SOL     OW 5676   3.864   2.071   2.240 -0.0728 -0.3324 -0.8387
 1406SOL    HW2 5677   3.937   2.015   2.266  1.4854  1.6052 -0.9976
 1406SOL    HW3 5678   3.874   2.081   2.146 -0.6635 -0.2080 -0.8893
 1406SOL    MW4 5679   3.875   2.065   2.231  0.0551 -0.0603 -0.8662
 1407SOL     OW 5680   3.837   2.330   2.342 -0.1323  0.0343  0.0273
 1407SOL    HW2 5681   3.749   2.360   2.321  0.1121  0.5631 -0.2302
 1407SOL    HW3 5682   3.835   2.236   2.324 -0.7090  0.0032  0.2425
 1407SOL    MW4 5683   3.826   2.321   2.337 -0.1760  0.1001  0.0217
 1408SOL     OW 5684   3.587   2.441   2.265 -0.8702  0.1226  0.1905
 1408SOL    HW2 5685   3.512   2.388   2.290 -1.8086  1.6386  0.6182
 1408SOL    HW3 5686   3.598   2.425   2.171 -2.5140  0.8657 -0.1381
 1408SOL    MW4 5687   3.579   2.432   2.256 -1.2109  0.4206  0.2036
 1409SOL     OW 5688   3.590   2.703   2.365 -0.5946  0.1717 -0.4016
 1409SOL    HW2 5689   3.601   2.619   2.321 -0.1414  0.5538 -1.0228
 1409SOL    HW3 5690   3.504   2.734   2.336 -0.4142  0.2961 -0.8069
 1409SOL    MW4 5691   3.580   2.696   2.356 -0.5109  0.2384 -0.5369
 1410SOL     OW 5692   3.841   2.827   2.295 -0.0196  0.2219  0.0167
 1410SOL    HW2 5693   3.832   2.917   2.329  1.4479 -0.0950  1.2806
 1410SOL    HW3 5694   3.755   2.787   2.312 -0.2996  1.0260  0.5430
 1410SOL    MW4 5695   3.828   2.834   2.302  0.1369  0.2863  0.2530
 1411SOL     OW 5696   3.787   3.107   2.379  0.0010 -0.2226 -0.3109
 1411SOL    HW2 5697   3.791   3.102   2.474  0.6485  1.3244 -0.2545
 1411SOL    HW3 5698   3.872   3.143   2.353  0.2270 -1.5627 -1.5537
 1411SOL    MW4 5699   3.799   3.111   2.388  0.1161 -0.1953 -0.4673
 1412SOL     OW 5700   3.594   3.210   2.229  0.0152 -0.4548  0.1470
 1412SOL    HW2 5701   3.599   3.301   2.258 -0.0152  0.0569 -1.4146
 1412SOL    HW3 5702   3.662   3.165   2.279  0.1482  0.4528  0.7977
 1412SOL    MW4 5703   3.604   3.216   2.239  0.0286 -0.2677  0.0269
 1413SOL     OW 5704   3.589   3.467   2.358 -0.3677 -0.0120  0.3916
 1413SOL    HW2 5705   3.602   3.470   2.453  0.0101  0.9995  0.3115
 1413SOL    HW3 5706   3.666   3.510   2.321 -0.3206 -0.7476 -0.4023
 1413SOL    MW4 5707   3.601   3.473   2.366 -0.3116  0.0243  0.2763
 1414SOL     OW 5708   3.813   3.585   2.254 -0.2415 -0.1309 -0.2021
 1414SOL    HW2 5709   3.818   3.675   2.287 -0.4889  0.0821 -0.7446
 1414SOL    HW3 5710   3.792   3.595   2.161 -1.0936 -0.7661 -0.0788
 1414SOL    MW4 5711   3.811   3.599   2.246 -0.3867 -0.1864 -0.2575
 1415SOL     OW 5712   3.819   3.838   2.350 -0.1574  0.1324 -0.1506
 1415SOL    HW2 5713   3.812   3.860   2.443 -2.1997  0.1061 -0.2749
 1415SOL    HW3 5714   3.906   3.870   2.324  0.2534  0.5169  1.6611
 1415SOL    MW4 5715   3.830   3.845   2.359 -0.3724  0.1800  0.0720
 1416SOL     OW 5716   3.612   4.009   2.262 -0.6486 -0.1478  0.4782
 1416SOL    HW2 5717   3.612   4.095   2.305 -0.8048 -0.3746  0.9263
 1416SOL    HW3 5718   3.695   3.969   2.289 -0.5058 -0.0803  0.1486
 1416SOL    MW4 5719   3.623   4.015   2.271 -0.6504 -0.1683  0.4938
 1417SOL     OW 5720   3.577   4.260   2.384  0.2336  0.0913  0.2455
 1417SOL    HW2 5721   3.648   4.294   2.330  0.0768 -0.3456 -0.2386
 1417SOL    HW3 5722   3.499   4.303   2.351 -0.0341 -1.0869 -0.6899
 1417SOL    MW4 5723   3.576   4.270   2.373  0.1779 -0.1221  0.0582
 1418SOL     OW 5724   3.779   4.367   2.211 -0.0612 -0.8296  0.5309
 1418SOL    HW2 5725   3.858   4.314   2.229 -0.1236 -0.8628  0.7058
 1418SOL    HW3 5726   3.793   4.448   2.260 -0.1127 -0.8161  0.5227
 1418SOL    MW4 5727   3.792   4.371   2.220 -0.0763 -0.8321  0.5529
 1419SOL     OW 5728   4.232   4.661   2.320  0.5392 -0.2130 -0.3131
 1419SOL    HW2 5729   4.242   4.674   2.414 -0.1127 -0.6301 -0.1831
 1419SOL    HW3 5730   4.313   4.694   2.282  0.2984  1.0965  0.2906
 1419SOL    MW4 5731   4.244   4.667   2.327  0.4215 -0.0952 -0.2165
 1420SOL     OW 5732   4.011   0.116   2.224 -0.0431 -0.2561  0.0990
 1420SOL    HW2 5733   4.002   0.198   2.273  0.6477  0.6056 -1.2043
 1420SOL    HW3 5734   4.088   0.073   2.262 -0.3179 -0.2431  0.6773
 1420SOL    MW4 5735   4.020   0.121   2.235  0.0119 -0.1407  0.0033
 1421SOL     OW 5736   4.001   0.397   2.348  0.1426 -0.2151  0.1774
 1421SOL    HW2 5737   4.078   0.437   2.308 -0.5272 -0.0714 -1.0022
 1421SOL    HW3 5738   3.927   0.434   2.300 -0.5880 -1.4440  0.3328
 1421SOL    MW4 5739   4.002   0.407   2.337 -0.0424 -0.3583  0.0424
 1422SOL     OW 5740   4.246   0.500   2.226 -0.2908 -0.2732 -0.0588
 1422SOL    HW2 5741   4.248   0.583   2.274 -0.1473  0.4056 -1.1964
 1422SOL    HW3 5742   4.336   0.467   2.232 -0.0227  0.3101 -0.6846
 1422SOL    MW4 5743   4.258   0.507   2.233 -0.2360 -0.1068 -0.2916
 1423SOL     OW 5744   4.288   0.729   2.391 -0.6465 -0.2671  0.2996
 1423SOL    HW2 5745   4.218   0.790   2.367  0.0295  1.0813  1.7202
 1423SOL    HW3 5746   4.369   0.773   2.368 -0.2088 -1.6702 -0.9707
 1423SOL    MW4 5747   4.289   0.743   2.385 -0.4997 -0.2743  0.3195
 1424SOL     OW 5748   4.087   0.877   2.286  0.2467 -0.4585  0.5053
 1424SOL    HW2 5749   4.074   0.970   2.306  0.0338 -0.5137  0.6346
 1424SOL    HW3 5750   4.105   0.875   2.192  0.0623 -0.3028  0.4657
 1424SOL    MW4 5751   4.087   0.889   2.276  0.1941 -0.4452  0.5169
 1425SOL     OW 5752   4.043   1.155   2.361 -0.5593 -0.2012 -0.0047
 1425SOL    HW2 5753   4.044   1.169   2.456  0.0233  0.1808 -0.0641
 1425SOL    HW3 5754   3.961   1.196   2.332  0.2208  1.4998  0.0845
 1425SOL    MW4 5755   4.032   1.162   2.370 -0.3796  0.0736 -0.0010
 1426SOL     OW 5756   4.255   1.281   2.222 -0.4736 -0.2060 -0.1922
 1426SOL    HW2 5757   4.179   1.244   2.266 -1.3538  2.6693  0.8664
 1426SOL    HW3 5758   4.330   1.236   2.260 -1.4792 -0.7535  1.1582
 1426SOL    MW4 5759   4.255   1.270   2.232 -0.7229  0.1012  0.1256
 1427SOL     OW 5760   4.266   1.548   2.337 -0.0066 -0.5435  1.0630
 1427SOL    HW2 5761   4.268   1.458   2.303 -1.3376 -0.1925 -0.0084
 1427SOL    HW3 5762   4.354   1.581   2.323  0.0907 -1.1898  0.0732
 1427SOL    MW4 5763   4.278   1.540   2.331 -0.1693 -0.5825  0.7908
 1428SOL     OW 5764   4.029   1.656   2.234  0.0156 -0.4432  0.4444
 1428SOL    HW2 5765   4.107   1.616   2.272 -0.1796  0.0163  1.3222
 1428SOL    HW3 5766   3.956   1.621   2.285 -0.3127 -0.4430 -0.0182
 1428SOL    MW4 5767   4.029   1.646   2.245 -0.0529 -0.3823  0.4992
 1429SOL     OW 5768   4.063   1.915   2.337 -0.2475 -0.1752 -0.1353
 1429SOL    HW2 5769   4.050   1.898   2.430 -2.9039 -0.9700 -0.5905
 1429SOL    HW3 5770   4.053   1.829   2.295 -2.5018  0.6588 -1.4232
 1429SOL    MW4 5771   4.060   1.901   2.344 -0.8950 -0.1701 -0.3650
 1430SOL     OW 5772   4.286   2.039   2.250 -0.0958 -0.0843  0.0145
 1430SOL    HW2 5773   4.278   2.132   2.270  0.2226 -0.5045  2.2111
 1430SOL    HW3 5774   4.203   2.001   2.280  1.2076 -1.0510  2.5027
 1430SOL    MW4 5775   4.274   2.046   2.256  0.1178 -0.2673  0.6325
 1431SOL     OW 5776   4.280   2.310   2.333 -0.0472 -0.1897  0.1177
 1431SOL    HW2 5777   4.214   2.372   2.302 -1.3512 -1.4612  0.2835
 1431SOL    HW3 5778   4.364   2.350   2.310 -0.9090  0.5838 -1.7640
 1431SOL    MW4 5779   4.283   2.324   2.326 -0.3333 -0.2556 -0.1087
 1432SOL     OW 5780   4.078   2.490   2.237 -0.4159  0.3584  0.3068
 1432SOL    HW2 5781   4.082   2.569   2.291  0.0509 -0.0596  0.8936
 1432SOL    HW3 5782   4.000   2.444   2.266  0.0915 -0.1020  0.9723
 1432SOL    MW4 5783   4.068   2.494   2.248 -0.2875  0.2422  0.4718
 1433SOL     OW 5784   4.055   2.702   2.400  0.1680 -0.2351  0.3555
 1433SOL    HW2 5785   4.043   2.713   2.495 -0.1988 -0.2195  0.3072
 1433SOL    HW3 5786   3.978   2.744   2.361  1.0451  1.0659 -0.0123
 1433SOL    MW4 5787   4.043   2.709   2.408  0.2356 -0.0615  0.3004
 1434SOL     OW 5788   4.290   2.836   2.276  0.1290  0.3480  0.0136
 1434SOL    HW2 5789   4.221   2.789   2.324 -0.9713  1.0662 -0.8474
 1434SOL    HW3 5790   4.368   2.783   2.291 -0.7293 -0.8284  0.4944
 1434SOL    MW4 5791   4.291   2.823   2.284 -0.1287  0.2875 -0.0370
 1435SOL     OW 5792   4.239   3.108   2.370  0.3735  0.2993  0.2091
 1435SOL    HW2 5793   4.253   3.018   2.339  0.8648 -0.6195  2.8787
 1435SOL    HW3 5794   4.319   3.154   2.347  0.1832  0.0122 -1.0521
 1435SOL    MW4 5795   4.252   3.102   2.363  0.4129  0.1404  0.3948
 1436SOL     OW 5796   4.032   3.210   2.246  0.2516 -0.5753  0.0995
 1436SOL    HW2 5797   4.020   3.300   2.275 -0.3071 -0.9535  1.0538
 1436SOL    HW3 5798   4.110   3.180   2.294  0.8456 -0.3829 -0.7382
 1436SOL    MW4 5799   4.041   3.218   2.256  0.2565 -0.5994  0.1149
 1437SOL     OW 5800   4.046   3.458   2.327 -0.5426 -0.3293  0.0700
 1437SOL    HW2 5801   4.118   3.519   2.309 -0.9226  0.1372  0.1073
 1437SOL    HW3 5802   3.968   3.504   2.297 -0.8883 -0.6103  0.5286
 1437SOL    MW4 5803   4.045   3.472   2.321 -0.6385 -0.3052  0.1357
 1438SOL     OW 5804   4.251   3.631   2.273  0.7531 -0.3100  0.1772
 1438SOL    HW2 5805   4.263   3.722   2.302  0.1767 -0.1735 -0.0160
 1438SOL    HW3 5806   4.251   3.637   2.178 -0.1050 -0.4133  0.1737
 1438SOL    MW4 5807   4.253   3.644   2.264  0.5641 -0.3059  0.1514
 1439SOL     OW 5808   4.283   3.888   2.356  0.2604 -0.0691 -0.2932
 1439SOL    HW2 5809   4.286   3.881   2.451 -0.6955  1.0860 -0.1782
 1439SOL    HW3 5810   4.355   3.946   2.334 -0.5848  1.0626 -0.1257
 1439SOL    MW4 5811   4.293   3.895   2.366  0.0219  0.2325 -0.2558
 1440SOL     OW 5812   4.030   3.995   2.268  0.0027 -0.4121  0.3429
 1440SOL    HW2 5813   4.109   3.970   2.315  0.7163  1.0711 -0.0454
 1440SOL    HW3 5814   4.053   3.988   2.176 -0.2075  0.3323  0.2263
 1440SOL    MW4 5815   4.043   3.991   2.262  0.0696 -0.1183  0.2763
 1441SOL     OW 5816   4.021   4.265   2.319 -0.3353 -0.3341  0.0165
 1441SOL    HW2 5817   4.093   4.303   2.269  0.2222  0.8861  1.6922
 1441SOL    HW3 5818   4.024   4.172   2.299  0.5170 -0.0063 -1.4201
 1441SOL    MW4 5819   4.031   4.258   2.310 -0.1493 -0.1297  0.0482
 1442SOL     OW 5820   4.252   4.406   2.221  0.3406 -0.2144 -0.1574
 1442SOL    HW2 5821   4.224   4.485   2.267  0.2829 -0.2510 -0.1297
 1442SOL    HW3 5822   4.333   4.380   2.264 -0.2204 -0.7992  0.5601
 1442SOL    MW4 5823   4.259   4.413   2.232  0.2594 -0.2961 -0.0591
 1443SOL     OW 5824   0.220   4.661   2.647 -0.0023  0.0479  0.3277
 1443SOL    HW2 5825   0.221   4.575   2.691 -0.1102 -0.1366 -0.0331
 1443SOL    HW3 5826   0.132   4.694   2.661 -0.1758 -0.2097 -0.1314
 1443SOL    MW4 5827   0.209   4.654   2.655 -0.0394 -0.0105  0.2196
 1444SOL     OW 5828   4.474   0.117   2.683  0.3675  0.3154  0.2657
 1444SOL    HW2 5829   4.466   0.131   2.777  1.1682  0.5972  0.2973
 1444SOL    HW3 5830   4.474   0.205   2.645  0.5434  0.2222  0.0446
 1444SOL    MW4 5831   4.473   0.130   2.690  0.4964  0.3403  0.2408
 1445SOL     OW 5832   4.483   0.377   2.579 -0.2543  0.1751  0.1416
 1445SOL    HW2 5833   4.562   0.420   2.612 -1.7044  1.8099  1.5724
 1445SOL    HW3 5834   4.487   0.390   2.484  1.0159  0.5639  0.2405
 1445SOL    MW4 5835   4.494   0.384   2.571 -0.2781  0.4421  0.3433
 1446SOL     OW 5836   0.216   0.490   2.701 -0.2470  0.2905 -0.0766
 1446SOL    HW2 5837   0.215   0.479   2.796  0.6783 -1.3114 -0.2522
 1446SOL    HW3 5838   0.303   0.462   2.674 -0.9435 -0.5030 -1.5471
 1446SOL    MW4 5839   0.227   0.485   2.710 -0.2169 -0.0256 -0.2940
 1447SOL     OW 5840   0.198   0.745   2.617  0.0939 -0.1218  0.3268
 1447SOL    HW2 5841   0.278   0.791   2.643  0.2442 -0.6940  0.8817
 1447SOL    HW3 5842   0.206   0.658   2.656 -0.4954 -0.4050 -0.1681
 1447SOL    MW4 5843   0.209   0.740   2.626  0.0360 -0.2347  0.3347
 1448SOL     OW 5844   0.001   0.915   2.699  0.2013 -0.2148  0.5876
 1448SOL    HW2 5845  -0.067   0.847   2.695  0.4742 -0.5174  1.0738
 1448SOL    HW3 5846   0.080   0.871   2.666  0.1063  0.2092 -0.2207
 1448SOL    MW4 5847   0.003   0.900   2.694  0.2248 -0.1988  0.5450
 1449SOL     OW 5848   4.471   1.163   2.580 -0.1173 -0.2142 -0.1421
 1449SOL    HW2 5849   4.546   1.211   2.616  0.7920 -0.0090 -2.2242
 1449SOL    HW3 5850   4.473   1.078   2.623  1.0969 -0.0676  0.1036
 1449SOL    MW4 5851   4.482   1.158   2.590  0.1631 -0.1676 -0.3843
 1450SOL     OW 5852   0.181   1.302   2.697 -0.4975 -0.5077 -0.2128
 1450SOL    HW2 5853   0.256   1.246   2.676 -0.9961 -1.6663  0.9974
 1450SOL    HW3 5854   0.200   1.386   2.655  1.6499 -0.6717  0.3893
 1450SOL    MW4 5855   0.193   1.306   2.689 -0.2800 -0.6822  0.0262
 1451SOL     OW 5856   0.233   1.551   2.594  0.4029  0.3518 -0.4768
 1451SOL    HW2 5857   0.313   1.591   2.628  0.9812 -1.7087  0.6855
 1451SOL    HW3 5858   0.163   1.588   2.648  0.9806 -0.5073  0.9019
 1451SOL    MW4 5859   0.235   1.561   2.606  0.5554 -0.0334 -0.1416
 1452SOL     OW 5860   0.013   1.670   2.732 -0.3110  0.4461  0.4280
 1452SOL    HW2 5861   0.012   1.684   2.827 -2.1049 -0.3735  0.5554
 1452SOL    HW3 5862   0.009   1.758   2.695  1.3296  0.8231  1.0833
 1452SOL    MW4 5863   0.012   1.683   2.740 -0.3309  0.3877  0.5314
 1453SOL     OW 5864   4.464   1.921   2.617 -0.1094  0.2712 -0.1347
 1453SOL    HW2 5865   4.549   1.958   2.643  0.1018  0.0214 -0.4744
 1453SOL    HW3 5866   4.469   1.912   2.522  0.3283 -1.8078  0.0519
 1453SOL    MW4 5867   4.476   1.925   2.608 -0.0243 -0.0361 -0.1550
 1454SOL     OW 5868   0.198   2.037   2.714  0.1286 -0.1420  0.0592
 1454SOL    HW2 5869   0.283   1.999   2.689 -0.1327 -0.5458 -0.2191
 1454SOL    HW3 5870   0.209   2.130   2.698  0.7664 -0.0974  0.7191
 1454SOL    MW4 5871   0.211   2.044   2.708  0.1782 -0.1895  0.1094
 1455SOL     OW 5872   0.214   2.301   2.634 -0.3655 -0.0172 -0.0654
 1455SOL    HW2 5873   0.282   2.356   2.674 -0.0881  1.0963 -1.9968
 1455SOL    HW3 5874   0.132   2.335   2.669 -0.1150  0.8483 -0.2940
 1455SOL    MW4 5875   0.212   2.313   2.644 -0.2958  0.2437 -0.3505
 1456SOL     OW 5876   4.465   2.444   2.725 -0.0382  0.1865 -0.3762
 1456SOL    HW2 5877   4.459   2.418   2.817 -1.2072 -0.3951 -0.6116
 1456SOL    HW3 5878   4.398   2.392   2.681 -0.2165  1.2528 -1.3792
 1456SOL    MW4 5879   4.455   2.434   2.731 -0.2160  0.2506 -0.5395
 1457SOL     OW 5880   0.029   2.694   2.621  0.1542 -0.1556  0.0671
 1457SOL    HW2 5881  -0.057   2.732   2.638  0.3631 -0.4267  1.7935
 1457SOL    HW3 5882   0.017   2.600   2.638  0.5046 -0.3586 -0.8091
 1457SOL    MW4 5883   0.016   2.687   2.625  0.2284 -0.2179  0.1791
 1458SOL     OW 5884   0.225   2.837   2.742 -0.0044  0.4469 -0.1683
 1458SOL    HW2 5885   0.223   2.926   2.708 -1.8913  1.3344  2.1712
 1458SOL    HW3 5886   0.151   2.794   2.698  0.3440  0.2668 -0.5916
 1458SOL    MW4 5887   0.215   2.843   2.732 -0.2073  0.5400  0.0842
 1459SOL     OW 5888   0.205   3.103   2.649  0.3386  0.3555  0.1891
 1459SOL    HW2 5889   0.279   3.150   2.686  0.4796 -0.5795  1.1076
 1459SOL    HW3 5890   0.214   3.115   2.554  1.4228  0.5918  0.3198
 1459SOL    MW4 5891   0.216   3.111   2.641  0.5002  0.2635  0.3273
 1460SOL     OW 5892   4.471   3.242   2.741  0.0892  0.4250 -0.1952
 1460SOL    HW2 5893   4.399   3.189   2.707  0.8265 -1.2447  0.7458
 1460SOL    HW3 5894   4.548   3.210   2.694  0.5302  0.6787  0.3437
 1460SOL    MW4 5895   4.472   3.231   2.731  0.2446  0.2382  0.0002
 1461SOL     OW 5896   4.476   3.505   2.647  0.3611 -0.2067 -0.2580
 1461SOL    HW2 5897   4.553   3.545   2.687 -1.2254  0.1494  2.5657
 1461SOL    HW3 5898   4.476   3.415   2.678 -0.5107 -0.1252  0.0000
 1461SOL    MW4 5899   4.486   3.499   2.656  0.0367 -0.1490  0.1485
 1462SOL     OW 5900   0.218   3.609   2.759 -0.4279 -0.4393  0.0133
 1462SOL    HW2 5901   0.228   3.599   2.854 -1.0115 -0.1566  0.1075
 1462SOL    HW3 5902   0.289   3.557   2.722 -0.6962 -1.2154  0.5880
 1462SOL    MW4 5903   0.229   3.601   2.767 -0.5403 -0.5043  0.1016
 1463SOL     OW 5904   0.239   3.874   2.697  0.2043 -0.1289 -0.2290
 1463SOL    HW2 5905   0.227   3.780   2.714 -1.1850  0.1173  0.2417
 1463SOL    HW3 5906   0.228   3.883   2.602  1.7524 -0.6315 -0.4685
 1463SOL    MW4 5907   0.236   3.863   2.687  0.2253 -0.1626 -0.1986
 1464SOL     OW 5908   4.488   4.012   2.766  0.0635 -0.5471 -0.1518
 1464SOL    HW2 5909   4.503   4.097   2.724 -0.3468 -0.2703  0.2609
 1464SOL    HW3 5910   4.571   3.965   2.756  0.3116 -0.0732 -0.3195
 1464SOL    MW4 5911   4.501   4.017   2.759  0.0420 -0.4482 -0.1197
 1465SOL     OW 5912   4.488   4.275   2.620 -0.3950  0.1621 -0.1955
 1465SOL    HW2 5913   4.412   4.320   2.657 -0.0669  0.3855  0.2206
 1465SOL    HW3 5914   4.563   4.321   2.658 -0.0525 -0.4401 -0.1371
 1465SOL    MW4 5915   4.488   4.287   2.630 -0.3066  0.1121 -0.1330
 1466SOL     OW 5916   0.222   4.397   2.753  0.1405  0.2710  0.2311
 1466SOL    HW2 5917   0.241   4.402   2.846 -0.0635  0.1127  0.2812
 1466SOL    HW3 5918   0.303   4.363   2.713 -0.4635 -1.6487  0.5958
 1466SOL    MW4 5919   0.235   4.393   2.760  0.0339 -0.0033  0.2856
 1467SOL     OW 5920   0.675   4.636   2.636  0.2857  0.8254  0.0843
 1467SOL    HW2 5921   0.748   4.680   2.679  0.2318  0.5883  0.4189
 1467SOL    HW3 5922   0.597   4.676   2.674  0.2325  0.1335  0.7190
 1467SOL    MW4 5923   0.675   4.647   2.647  0.2716  0.7024  0.2122
 1468SOL     OW 5924   0.453   0.102   2.757  0.0744 -0.2714  0.4832
 1468SOL    HW2 5925   0.465   0.085   2.850 -1.2303  0.4420  0.7852
 1468SOL    HW3 5926   0.368   0.064   2.736 -0.3595  0.9695 -0.0468
 1468SOL    MW4 5927   0.444   0.095   2.767 -0.1549 -0.0136  0.4532
 1469SOL     OW 5928   0.460   0.358   2.626 -0.7099 -0.1890  0.0453
 1469SOL    HW2 5929   0.518   0.409   2.683 -1.6402 -0.4322  1.2153
 1469SOL    HW3 5930   0.466   0.268   2.659  0.5504 -0.8040 -1.7105
 1469SOL    MW4 5931   0.468   0.353   2.638 -0.6663 -0.3022 -0.0322
 1470SOL     OW 5932   0.644   0.526   2.729  0.1765 -0.2917 -0.3386
 1470SOL    HW2 5933   0.648   0.514   2.824  0.6074  1.7427 -0.0857
 1470SOL    HW3 5934   0.726   0.488   2.697  1.1746  1.2384  0.3625
 1470SOL    MW4 5935   0.655   0.519   2.738  0.3650  0.1786 -0.2127
 1471SOL     OW 5936   0.655   0.785   2.614  0.1108  0.4923 -0.5495
 1471SOL    HW2 5937   0.729   0.821   2.662 -1.2702  0.6216  1.5876
 1471SOL    HW3 5938   0.635   0.704   2.660 -0.7589  0.2117 -1.4132
 1471SOL    MW4 5939   0.662   0.779   2.626 -0.1861  0.4723 -0.3815
 1472SOL     OW 5940   0.407   0.893   2.707  0.1606 -0.1053 -0.0089
 1472SOL    HW2 5941   0.411   0.988   2.696  0.3216  0.1011  1.7511
 1472SOL    HW3 5942   0.486   0.861   2.663  0.8465  0.6994  0.6151
 1472SOL    MW4 5943   0.418   0.901   2.699  0.2724  0.0281  0.3054
 1473SOL     OW 5944   0.430   1.183   2.635 -0.3958  0.1257 -0.2740
 1473SOL    HW2 5945   0.506   1.231   2.667  0.5732  0.5851 -3.1183
 1473SOL    HW3 5946   0.448   1.167   2.542 -2.9520 -1.3599 -0.5823
 1473SOL    MW4 5947   0.442   1.187   2.627 -0.6052 -0.0098 -0.6897
 1474SOL     OW 5948   0.691   1.294   2.718 -0.2627 -0.3564  0.2992
 1474SOL    HW2 5949   0.694   1.308   2.813  0.3947  0.5935  0.1438
 1474SOL    HW3 5950   0.765   1.237   2.699 -0.8078 -1.1205  0.4468
 1474SOL    MW4 5951   0.701   1.288   2.728 -0.2479 -0.3318  0.2983
 1475SOL     OW 5952   0.722   1.537   2.605 -0.6869  0.1657  0.3874
 1475SOL    HW2 5953   0.640   1.581   2.628 -1.6396 -0.9603 -0.8469
 1475SOL    HW3 5954   0.711   1.447   2.637 -0.1483 -0.1322 -0.2640
 1475SOL    MW4 5955   0.710   1.531   2.612 -0.7415 -0.0221  0.1388
 1476SOL     OW 5956   0.468   1.655   2.693  0.1769  0.4715  0.5683
 1476SOL    HW2 5957   0.458   1.657   2.789  1.5660  0.5335  0.7226
 1476SOL    HW3 5958   0.459   1.747   2.667  1.2814  0.6633  0.8164
 1476SOL    MW4 5959   0.466   1.668   2.702  0.5059  0.5051  0.6216
 1477SOL     OW 5960   0.451   1.928   2.622 -0.1392  0.1855  0.2379
 1477SOL    HW2 5961   0.524   1.970   2.668 -0.2490 -0.5422  1.0768
 1477SOL    HW3 5962   0.469   1.945   2.529  2.2840 -1.8207  0.2890
 1477SOL    MW4 5963   0.463   1.936   2.616  0.1660 -0.1754  0.3552
 1478SOL     OW 5964   0.681   2.046   2.736 -0.0809 -0.1778 -0.2383
 1478SOL    HW2 5965   0.682   2.041   2.832  0.1600 -0.5712 -0.2593
 1478SOL    HW3 5966   0.762   2.002   2.709 -0.3110 -0.3602 -0.6346
 1478SOL    MW4 5967   0.692   2.039   2.745 -0.0795 -0.2539 -0.2933
 1479SOL     OW 5968   0.673   2.303   2.637  0.1637 -0.0412 -0.0315
 1479SOL    HW2 5969   0.752   2.344   2.672 -1.0905  1.7378  0.8096
 1479SOL    HW3 5970   0.672   2.216   2.676 -0.0809  1.1499  2.8037
 1479SOL    MW4 5971   0.683   2.297   2.647 -0.0340  0.3505  0.4535
 1480SOL     OW 5972   0.444   2.457   2.727 -0.1869  0.3036 -0.1494
 1480SOL    HW2 5973   0.459   2.538   2.677 -0.6050  0.4544 -0.0267
 1480SOL    HW3 5974   0.519   2.401   2.704 -0.3469  0.3937 -0.9022
 1480SOL    MW4 5975   0.456   2.460   2.717 -0.2632  0.3352 -0.2325
 1481SOL     OW 5976   0.438   2.717   2.616 -0.3872  0.2680  0.4671
 1481SOL    HW2 5977   0.513   2.726   2.676 -0.8158  0.3401  1.0008
 1481SOL    HW3 5978   0.364   2.752   2.666 -0.6379  0.9121 -0.3449
 1481SOL    MW4 5979   0.438   2.723   2.631 -0.4768  0.3624  0.4301
 1482SOL     OW 5980   0.650   2.783   2.773 -0.0748 -0.1877  0.0128
 1482SOL    HW2 5981   0.645   2.790   2.868  0.1000 -0.1077  0.0158
 1482SOL    HW3 5982   0.669   2.873   2.744  0.2420 -0.2835 -0.0733
 1482SOL    MW4 5983   0.652   2.796   2.782 -0.0100 -0.1900  0.0021
 1483SOL     OW 5984   0.720   3.036   2.664  0.6013 -0.2182 -0.2710
 1483SOL    HW2 5985   0.789   3.100   2.682 -0.1030  0.6397 -0.6109
 1483SOL    HW3 5986   0.703   3.045   2.570 -0.5365  0.1310 -0.0376
 1483SOL    MW4 5987   0.727   3.045   2.654  0.3582 -0.0589 -0.2851
 1484SOL     OW 5988   0.462   3.200   2.730  0.1320  0.0879 -0.0200
 1484SOL    HW2 5989   0.454   3.199   2.825 -0.2776  0.1201 -0.0512
 1484SOL    HW3 5990   0.542   3.151   2.712  0.1721  0.0203  0.3393
 1484SOL    MW4 5991   0.471   3.193   2.740  0.0832  0.0832  0.0234
 1485SOL     OW 5992   0.429   3.462   2.641  0.2849 -0.3822 -0.4496
 1485SOL    HW2 5993   0.454   3.373   2.663 -0.5662 -0.3567  0.6549
 1485SOL    HW3 5994   0.423   3.462   2.546 -0.3567 -1.6851 -0.4252
 1485SOL    MW4 5995   0.431   3.450   2.631  0.0880 -0.5505 -0.3006
 1486SOL     OW 5996   0.658   3.584   2.725  0.6488 -0.0802  0.1823
 1486SOL    HW2 5997   0.648   3.578   2.820  2.0944 -1.6341  0.2558
 1486SOL    HW3 5998   0.573   3.555   2.691 -0.0110  0.8585  0.9831
 1486SOL    MW4 5999   0.645   3.579   2.733  0.7525 -0.1614  0.2978
 1487SOL     OW 6000   0.675   3.889   2.702 -0.1667  0.6891  0.5229
 1487SOL    HW2 6001   0.593   3.929   2.731 -0.4123  0.3174  0.3543
 1487SOL    HW3 6002   0.667   3.797   2.729 -0.0548  0.5211 -0.0157
 1487SOL    MW4 6003   0.663   3.882   2.709 -0.1844  0.6177  0.4299
 1488SOL     OW 6004   0.458   4.034   2.771 -0.1520  0.0737  0.1108
 1488SOL    HW2 6005   0.447   4.116   2.723 -1.2736  0.1553  0.4941
 1488SOL    HW3 6006   0.374   3.990   2.763 -0.1026 -0.2687  1.3537
 1488SOL    MW4 6007   0.446   4.039   2.764 -0.2935  0.0391  0.3252
 1489SOL     OW 6008   0.449   4.285   2.662 -0.3349  0.2165  0.5513
 1489SOL    HW2 6009   0.526   4.328   2.700 -0.3330  1.2343 -0.6032
 1489SOL    HW3 6010   0.461   4.292   2.568 -1.4021 -0.4189  0.3612
 1489SOL    MW4 6011   0.461   4.292   2.655 -0.4754  0.2670  0.3738
 1490SOL     OW 6012   0.680   4.396   2.778 -0.2695 -0.0272 -0.6024
 1490SOL    HW2 6013   0.759   4.358   2.738  1.2918  1.5265  0.8820
 1490SOL    HW3 6014   0.664   4.475   2.728  0.0201  0.4475  0.0496
 1490SOL    MW4 6015   0.689   4.401   2.766 -0.0253  0.2403 -0.3204
 1491SOL     OW 6016   1.115   4.606   2.654  0.2473 -0.6027 -0.3945
 1491SOL    HW2 6017   1.191   4.655   2.687  1.3494 -0.3840 -3.1353
 1491SOL    HW3 6018   1.127   4.518   2.690  0.8458 -0.1201  0.6210
 1491SOL    MW4 6019   1.127   4.600   2.663  0.4717 -0.5107 -0.6220
 1492SOL     OW 6020   0.896   0.098   2.761 -0.4006 -0.1788 -0.4626
 1492SOL    HW2 6021   0.890   0.095   2.856 -0.6384 -0.4416 -0.4859
 1492SOL    HW3 6022   0.973   0.044   2.740 -0.4014 -0.1945 -0.4245
 1492SOL    MW4 6023   0.905   0.090   2.771 -0.4320 -0.2156 -0.4606
 1493SOL     OW 6024   0.871   0.384   2.650  0.6050 -0.1920 -0.2747
 1493SOL    HW2 6025   0.863   0.298   2.692 -1.0414 -0.1432 -0.4695
 1493SOL    HW3 6026   0.873   0.364   2.557  1.2448 -0.0819 -0.2870
 1493SOL    MW4 6027   0.870   0.370   2.644  0.4722 -0.1711 -0.3021
 1494SOL     OW 6028   1.113   0.498   2.735 -0.1704 -0.3062 -0.0978
 1494SOL    HW2 6029   1.103   0.590   2.712 -1.0948 -0.6103 -0.9604
 1494SOL    HW3 6030   1.041   0.454   2.690  1.3106 -1.6974 -1.2004
 1494SOL    MW4 6031   1.103   0.504   2.726 -0.0969 -0.5299 -0.3569
 1495SOL     OW 6032   1.093   0.754   2.665  0.8614  0.2159  0.3303
 1495SOL    HW2 6033   1.184   0.775   2.685  0.7145  0.9633  0.2332
 1495SOL    HW3 6034   1.089   0.756   2.569  1.3478 -2.4291  0.2255
 1495SOL    MW4 6035   1.104   0.757   2.655  0.9063 -0.0346  0.3037
 1496SOL     OW 6036   0.875   0.903   2.755 -0.0436  0.3585 -0.4545
 1496SOL    HW2 6037   0.882   0.904   2.850 -0.5977  1.2766 -0.4179
 1496SOL    HW3 6038   0.949   0.850   2.726 -2.0702 -3.2898  0.6920
 1496SOL    MW4 6039   0.886   0.896   2.764 -0.3842 -0.0017 -0.2983
 1497SOL     OW 6040   0.920   1.171   2.673 -0.2714  0.0121 -0.0534
 1497SOL    HW2 6041   0.886   1.083   2.689 -0.9589 -0.0963 -1.9461
 1497SOL    HW3 6042   0.921   1.179   2.577 -0.4964  2.1665  0.0978
 1497SOL    MW4 6043   0.915   1.161   2.662 -0.3917  0.2819 -0.2830
 1498SOL     OW 6044   1.140   1.292   2.770 -0.3764  0.2766  0.5849
 1498SOL    HW2 6045   1.129   1.368   2.713 -0.5587  1.0053  1.5819
 1498SOL    HW3 6046   1.063   1.238   2.753 -0.6000  0.6555  0.3783
 1498SOL    MW4 6047   1.128   1.295   2.760 -0.4299  0.4225  0.6893
 1499SOL     OW 6048   1.123   1.518   2.619  0.0730  0.1358  0.0163
 1499SOL    HW2 6049   1.053   1.572   2.656 -0.3916 -0.3321 -0.1735
 1499SOL    HW3 6050   1.130   1.547   2.528  0.2945  0.3546  0.1034
 1499SOL    MW4 6051   1.115   1.529   2.612  0.0408  0.1029  0.0029
 1500SOL     OW 6052   0.924   1.662   2.730  0.9866 -0.3149  0.0635
 1500SOL    HW2 6053   0.910   1.662   2.824  1.6753  1.3424  0.1868
 1500SOL    HW3 6054   0.846   1.619   2.694 -0.3669  1.0689  1.2562
 1500SOL    MW4 6055   0.912   1.657   2.738  0.8989  0.0863  0.2372
 1501SOL     OW 6056   0.902   1.911   2.626 -0.4570  0.2144 -0.0213
 1501SOL    HW2 6057   0.979   1.953   2.662 -0.2706 -0.8566  0.8800
 1501SOL    HW3 6058   0.900   1.824   2.668 -1.9916  0.1303 -0.2173
 1501SOL    MW4 6059   0.912   1.905   2.636 -0.6349  0.0620  0.0718
 1502SOL     OW 6060   1.104   2.031   2.760 -0.0952 -0.1544  0.0087
 1502SOL    HW2 6061   1.181   2.001   2.713 -0.9282 -0.0335 -1.4773
 1502SOL    HW3 6062   1.108   2.127   2.753 -0.2918 -0.1433  0.0523
 1502SOL    MW4 6063   1.115   2.040   2.753 -0.2310 -0.1369 -0.1814
 1503SOL     OW 6064   1.110   2.300   2.705  0.0613  0.2702 -0.4609
 1503SOL    HW2 6065   1.182   2.351   2.743  0.2100  0.2666 -0.7351
 1503SOL    HW3 6066   1.128   2.299   2.611  0.0348 -0.2538 -0.4622
 1503SOL    MW4 6067   1.122   2.307   2.698  0.0775  0.2005 -0.4976
 1504SOL     OW 6068   0.880   2.430   2.755 -0.2810  0.3822 -0.0718
 1504SOL    HW2 6069   0.886   2.520   2.724 -0.9962 -0.5311 -3.0157
 1504SOL    HW3 6070   0.964   2.390   2.731  0.1093  0.2960  1.3879
 1504SOL    MW4 6071   0.892   2.436   2.748 -0.3239  0.2501 -0.2680
 1505SOL     OW 6072   0.887   2.699   2.674 -0.3721  0.0724 -0.4401
 1505SOL    HW2 6073   0.953   2.752   2.718 -0.6040  0.0408 -0.0549
 1505SOL    HW3 6074   0.805   2.723   2.716 -0.6453  0.3023 -1.0949
 1505SOL    MW4 6075   0.885   2.709   2.685 -0.4387  0.0985 -0.4759
 1506SOL     OW 6076   1.107   2.835   2.757  0.5020  0.3221 -1.0435
 1506SOL    HW2 6077   1.116   2.837   2.853 -0.0373 -0.8559 -0.9566
 1506SOL    HW3 6078   1.182   2.783   2.728  0.1253 -0.1369 -1.1884
 1506SOL    MW4 6079   1.118   2.828   2.766  0.3811  0.1061 -1.0512
 1507SOL     OW 6080   1.148   3.096   2.651  0.0000  0.0000  0.0200
 1507SOL    HW2 6081   1.122   3.007   2.673  0.0000  0.0000  0.0261
 1507SOL    HW3 6082   1.136   3.101   2.556  0.0000  0.0000  0.0204
 1507SOL    MW4 6083   1.143   3.085   2.641  0.0000  0.0000  0.0207
 1508SOL     OW 6084   0.919   3.208   2.772  0.0000  0.0000 -0.3228
 1508SOL    HW2 6085   0.903   3.287   2.720  0.0000  0.0000 -0.3150
 1508SOL    HW3 6086   1.006   3.179   2.745  0.0000  0.0000 -0.3253
 1508SOL    MW4 6087   0.928   3.215   2.762  0.0000  0.0000 -0.3223
 1509SOL     OW 6088   0.887   3.462   2.660  0.0000  0.0000  0.2947
 1509SOL    HW2 6089   0.961   3.509   2.700  0.0000  0.0000  0.3088
 1509SOL    HW3 6090   0.810   3.512   2.688  0.0000  0.0000  0.2514
 1509SOL    MW4 6091   0.887   3.475   2.669  0.0000  0.0000  0.2909
 1510SOL     OW 6092   1.102   3.599   2.749  0.0000  0.0000 -0.1972
 1510SOL    HW2 6093   1.101   3.626   2.841  0.0000  0.0000 -0.1982
 1510SOL    HW3 6094   1.100   3.681   2.701  0.0000  0.0000 -0.2002
 1510SOL    MW4 6095   1.102   3.613   2.755  0.0000  0.0000 -0.1979
 1511SOL     OW 6096   1.098   3.851   2.648  0.0000  0.0000 -0.4569
 1511SOL    HW2 6097   1.178   3.889   2.686  0.0000  0.0000 -0.4648
 1511SOL    HW3 6098   1.110   3.859   2.553  0.0000  0.0000 -0.4582
 1511SOL    MW4 6099   1.110   3.857   2.640  0.0000  0.0000 -0.4582
 1512SOL     OW 6100   0.893   4.008   2.780  0.0000  0.0000  0.0575
 1512SOL    HW2 6101   0.957   3.963   2.725  0.0000  0.0000  0.0473
 1512SOL    HW3 6102   0.809   3.969   2.754  0.0000  0.0000  0.0627
 1512SOL    MW4 6103   0.890   3.997   2.769  0.0000  0.0000  0.0567
 1513SOL     OW 6104   0.888   4.266   2.678  0.0000  0.0000  0.2648
 1513SOL    HW2 6105   0.892   4.173   2.703  0.0000  0.0000  0.2641
 1513SOL    HW3 6106   0.884   4.265   2.582  0.0000  0.0000  0.2646
 1513SOL    MW4 6107   0.888   4.254   2.669  0.0000  0.0000  0.2646
 1514SOL     OW 6108   1.144   4.351   2.769  0.0000  0.0000 -0.0543
 1514SOL    HW2 6109   1.137   4.378   2.860  0.0000  0.0000 -0.0542
 1514SOL    HW3 6110   1.055   4.327   2.743  0.0000  0.0000 -0.0599
 1514SOL    MW4 6111   1.131   4.351   2.777  0.0000  0.0000 -0.0548
 1515SOL     OW 6112   1.593   4.643   2.678  0.0000  0.0000  0.0446
 1515SOL    HW2 6113   1.588   4.549   2.694  0.0000  0.0000  0.0345
 1515SOL    HW3 6114   1.581   4.652   2.583  0.0000  0.0000  0.0451
 1515SOL    MW4 6115   1.591   4.632   2.668  0.0000  0.0000  0.0436
 1516SOL     OW 6116   1.355   0.077   2.759  0.1932 -0.4679 -0.1041
 1516SOL    HW2 6117   1.351   0.164   2.718  1.9696 -0.3776 -0.1515
 1516SOL    HW3 6118   1.441   0.043   2.734  0.5572 -1.1772  2.0252
 1516SOL    MW4 6119   1.366   0.084   2.750  0.4756 -0.5496  0.1707
 1517SOL     OW 6120   1.339   0.324   2.644 -0.0277 -0.0427  0.2463
 1517SOL    HW2 6121   1.416   0.376   2.669 -0.1803  0.8738 -1.1427
 1517SOL    HW3 6122   1.265   0.381   2.661 -0.1990  0.2048 -1.2554
 1517SOL    MW4 6123   1.340   0.338   2.649 -0.0705  0.1109 -0.1352
 1518SOL     OW 6124   1.565   0.448   2.729  0.4755  0.2190  0.0531
 1518SOL    HW2 6125   1.648   0.427   2.687  0.8111  0.8493  0.3961
 1518SOL    HW3 6126   1.554   0.542   2.714 -0.5831 -0.0143 -0.7122
 1518SOL    MW4 6127   1.575   0.458   2.721  0.3802  0.2714 -0.0026
 1519SOL     OW 6128   1.578   0.734   2.640  0.1537  0.0515  0.1002
 1519SOL    HW2 6129   1.498   0.782   2.662  0.2419 -0.6630  2.0428
 1519SOL    HW3 6130   1.569   0.715   2.547 -2.0692 -0.2395  0.3460
 1519SOL    MW4 6131   1.566   0.738   2.631 -0.1279 -0.0813  0.3889
 1520SOL     OW 6132   1.342   0.874   2.703 -0.1635  0.4618 -0.2282
 1520SOL    HW2 6133   1.345   0.890   2.797 -1.0528  0.7163 -0.2318
 1520SOL    HW3 6134   1.338   0.961   2.663  0.0923  0.3544 -0.4913
 1520SOL    MW4 6135   1.342   0.887   2.710 -0.2470  0.4812 -0.2632
 1521SOL     OW 6136   1.352   1.140   2.631  0.0449  0.7592  0.3305
 1521SOL    HW2 6137   1.433   1.171   2.671 -0.2442  1.4757  0.3737
 1521SOL    HW3 6138   1.283   1.190   2.675 -0.3899  0.4273  0.0287
 1521SOL    MW4 6139   1.353   1.151   2.642 -0.0507  0.8098  0.2961
 1522SOL     OW 6140   1.602   1.257   2.725  0.8589 -0.6667 -0.0398
 1522SOL    HW2 6141   1.596   1.266   2.820  1.7233  1.6593 -0.1832
 1522SOL    HW3 6142   1.678   1.200   2.711  1.1219 -0.4877  0.6545
 1522SOL    MW4 6143   1.612   1.250   2.735  1.0076 -0.3362  0.0329
 1523SOL     OW 6144   1.539   1.507   2.627 -0.1473  0.1618 -0.8878
 1523SOL    HW2 6145   1.565   1.418   2.649 -1.0490  0.5681  1.9650
 1523SOL    HW3 6146   1.538   1.509   2.531  0.6812 -2.6360 -0.9846
 1523SOL    MW4 6147   1.543   1.496   2.617 -0.1570 -0.1539 -0.5238
 1524SOL     OW 6148   1.342   1.661   2.709  0.0724  0.0985 -0.3224
 1524SOL    HW2 6149   1.418   1.605   2.696  0.0250 -0.2601  0.9604
 1524SOL    HW3 6150   1.267   1.605   2.690  0.1242  0.5891 -2.0869
 1524SOL    MW4 6151   1.342   1.646   2.705  0.0731  0.1160 -0.3860
 1525SOL     OW 6152   1.330   1.930   2.639  0.1950 -0.2166 -0.5780
 1525SOL    HW2 6153   1.319   1.837   2.654 -0.0408  0.0550  0.9850
 1525SOL    HW3 6154   1.339   1.938   2.544 -0.3507 -1.7583 -0.7690
 1525SOL    MW4 6155   1.330   1.919   2.628  0.0919 -0.3844 -0.3970
 1526SOL     OW 6156   1.553   2.046   2.755 -0.3568  0.2794 -0.3619
 1526SOL    HW2 6157   1.637   2.011   2.726 -0.1446  0.7317 -0.3024
 1526SOL    HW3 6158   1.488   1.988   2.716 -0.1241  1.4088 -2.5183
 1526SOL    MW4 6159   1.556   2.034   2.746 -0.2981  0.4880 -0.6385
 1527SOL     OW 6160   1.506   2.315   2.667  0.0209  0.0275 -0.4059
 1527SOL    HW2 6161   1.578   2.363   2.708 -0.6923  0.9409 -0.2152
 1527SOL    HW3 6162   1.512   2.227   2.704  2.4765 -0.6141 -2.1150
 1527SOL    MW4 6163   1.517   2.310   2.677  0.2508  0.0637 -0.6063
 1528SOL     OW 6164   1.319   2.461   2.799 -0.2518  0.2558 -0.0589
 1528SOL    HW2 6165   1.324   2.537   2.741 -0.7713 -0.1284 -0.6153
 1528SOL    HW3 6166   1.384   2.400   2.763 -1.4610 -0.4954 -1.0062
 1528SOL    MW4 6167   1.328   2.463   2.786 -0.4801  0.1059 -0.2575
 1529SOL     OW 6168   1.339   2.710   2.652  0.2925 -0.1031 -0.3189
 1529SOL    HW2 6169   1.424   2.744   2.680  0.9023 -0.9230 -1.1714
 1529SOL    HW3 6170   1.343   2.710   2.556 -0.6825 -0.1272 -0.3703
 1529SOL    MW4 6171   1.350   2.715   2.643  0.2444 -0.2143 -0.4382
 1530SOL     OW 6172   1.545   2.878   2.736 -0.1961 -0.3167 -0.2249
 1530SOL    HW2 6173   1.548   2.876   2.831  0.2623  0.1406 -0.2304
 1530SOL    HW3 6174   1.622   2.827   2.708 -0.2008 -0.2539 -0.3548
 1530SOL    MW4 6175   1.556   2.871   2.745 -0.1363 -0.2482 -0.2429
 1531SOL     OW 6176   1.575   3.121   2.625 -0.3316  0.0532  0.1622
 1531SOL    HW2 6177   1.662   3.145   2.657  0.0617 -0.5347 -0.4441
 1531SOL    HW3 6178   1.558   3.035   2.663 -0.3931 -0.0958 -0.1981
 1531SOL    MW4 6179   1.584   3.113   2.634 -0.2878 -0.0439  0.0348
 1532SOL     OW 6180   1.360   3.247   2.753  0.3735 -0.3191 -0.0467
 1532SOL    HW2 6181   1.439   3.205   2.720 -0.6290 -2.2661 -0.0199
 1532SOL    HW3 6182   1.288   3.197   2.715 -0.8531  0.7464  0.8117
 1532SOL    MW4 6183   1.361   3.235   2.744  0.0794 -0.4354  0.0701
 1533SOL     OW 6184   1.353   3.525   2.673  0.1812 -0.1346 -0.5209
 1533SOL    HW2 6185   1.357   3.434   2.702  0.0256 -0.0111 -0.1051
 1533SOL    HW3 6186   1.264   3.553   2.694  0.4758  0.3537  0.0806
 1533SOL    MW4 6187   1.341   3.516   2.680  0.1996 -0.0534 -0.3867
 1534SOL     OW 6188   1.577   3.651   2.740 -0.1614 -0.5098  0.4885
 1534SOL    HW2 6189   1.655   3.608   2.705  0.6983  1.4490 -0.0963
 1534SOL    HW3 6190   1.504   3.611   2.692  0.6657 -0.9018 -0.4671
 1534SOL    MW4 6191   1.578   3.640   2.729  0.0612 -0.3033  0.2851
 1535SOL     OW 6192   1.585   3.911   2.671 -0.1544  0.6833 -0.0424
 1535SOL    HW2 6193   1.496   3.941   2.689 -0.4873 -0.3992  0.1773
 1535SOL    HW3 6194   1.584   3.818   2.694  0.9762  0.6107 -0.2433
 1535SOL    MW4 6195   1.573   3.902   2.677 -0.0491  0.5307 -0.0398
 1536SOL     OW 6196   1.321   3.945   2.749 -0.3438  0.0256 -0.0765
 1536SOL    HW2 6197   1.341   3.925   2.840  0.2100 -1.6549 -0.5542
 1536SOL    HW3 6198   1.334   4.040   2.742 -0.6544  0.2019  1.6477
 1536SOL    MW4 6199   1.326   3.955   2.760 -0.3119 -0.1726  0.0880
 1537SOL     OW 6200   1.362   4.206   2.680 -0.4758  0.0610 -0.1534
 1537SOL    HW2 6201   1.284   4.252   2.711 -0.3983 -0.7296  1.2177
 1537SOL    HW3 6202   1.353   4.207   2.584 -0.5383  2.7983 -0.1576
 1537SOL    MW4 6203   1.351   4.212   2.671 -0.4739  0.3181  0.0269
 1538SOL     OW 6204   1.560   4.381   2.757 -0.0349 -0.1585 -0.8757
 1538SOL    HW2 6205   1.555   4.393   2.852  0.7668 -2.1659 -0.5340
 1538SOL    HW3 6206   1.487   4.323   2.736  0.2944 -0.4040 -1.3534
 1538SOL    MW4 6207   1.550   4.375   2.767  0.1143 -0.4559 -0.8936
 1539SOL     OW 6208   2.042   4.657   2.607 -0.1848  0.3971 -0.4988
 1539SOL    HW2 6209   2.112   4.692   2.662 -0.1560 -0.0775 -0.2313
 1539SOL    HW3 6210   2.068   4.680   2.518 -0.4710  1.5895 -0.2906
 1539SOL    MW4 6211   2.055   4.665   2.603 -0.2186  0.4916 -0.4358
 1540SOL     OW 6212   1.822   0.112   2.729  0.0891 -0.1767 -0.0840
 1540SOL    HW2 6213   1.893   0.073   2.679  0.2748 -2.1726  1.6676
 1540SOL    HW3 6214   1.749   0.052   2.719 -0.1669 -0.1088  1.2384
 1540SOL    MW4 6215   1.822   0.099   2.721  0.0798 -0.4311  0.3216
 1541SOL     OW 6216   1.808   0.368   2.632 -0.4483 -0.1878 -0.2571
 1541SOL    HW2 6217   1.885   0.411   2.669 -0.9938 -0.5844  1.3725
 1541SOL    HW3 6218   1.819   0.276   2.654 -1.7366 -0.1453  0.6150
 1541SOL    MW4 6219   1.820   0.362   2.640 -0.6902 -0.2345  0.0730
 1542SOL     OW 6220   2.039   0.495   2.763 -0.0360  0.0213  0.0169
 1542SOL    HW2 6221   2.111   0.453   2.716  1.8576  0.7353  2.1900
 1542SOL    HW3 6222   2.029   0.580   2.719  0.0647 -0.2966 -0.6392
 1542SOL    MW4 6223   2.048   0.501   2.751  0.2272  0.0736  0.2172
 1543SOL     OW 6224   2.053   0.745   2.629  0.2179  0.1009 -0.0889
 1543SOL    HW2 6225   1.972   0.788   2.657  0.9104  1.5913 -0.3677
 1543SOL    HW3 6226   2.046   0.740   2.534  0.1395 -0.4383 -0.0592
 1543SOL    MW4 6227   2.041   0.750   2.620  0.2990  0.2264 -0.1216
 1544SOL     OW 6228   1.822   0.847   2.763 -0.2588 -0.2744 -0.3215
 1544SOL    HW2 6229   1.829   0.938   2.736 -1.4162  0.5103  1.9359
 1544SOL    HW3 6230   1.738   0.818   2.727 -0.1875 -0.2525 -0.5041
 1544SOL    MW4 6231   1.812   0.855   2.755 -0.4021 -0.1680 -0.0477
 1545SOL     OW 6232   1.822   1.092   2.660 -0.1295  0.8066  0.3506
 1545SOL    HW2 6233   1.901   1.142   2.682  1.3518 -1.2492 -0.1759
 1545SOL    HW3 6234   1.821   1.090   2.564  0.1877 -0.7096  0.3703
 1545SOL    MW4 6235   1.832   1.098   2.650  0.1079  0.3353  0.2837
 1546SOL     OW 6236   2.015   1.298   2.744 -0.6702 -0.0136 -0.0485
 1546SOL    HW2 6237   2.012   1.310   2.839 -1.0883  1.0038 -0.1709
 1546SOL    HW3 6238   2.094   1.248   2.727 -0.4787 -0.0029  0.8227
 1546SOL    MW4 6239   2.025   1.293   2.754 -0.7002  0.1222  0.0501
 1547SOL     OW 6240   2.008   1.534   2.610 -0.3074 -0.3277  0.1578
 1547SOL    HW2 6241   1.923   1.571   2.633 -0.7588 -0.8100 -0.7409
 1547SOL    HW3 6242   2.010   1.450   2.656  0.0978  0.1121  0.9695
 1547SOL    MW4 6243   1.997   1.528   2.619 -0.3134 -0.3333  0.1464
 1548SOL     OW 6244   1.768   1.650   2.701  0.1645  0.4924  0.1953
 1548SOL    HW2 6245   1.764   1.647   2.797  0.0527 -0.9478  0.1547
 1548SOL    HW3 6246   1.686   1.610   2.672 -0.6286  2.5509 -0.5087
 1548SOL    MW4 6247   1.757   1.644   2.710  0.0449  0.5740  0.0973
 1549SOL     OW 6248   1.777   1.918   2.639  0.2425 -0.0117  0.1164
 1549SOL    HW2 6249   1.857   1.957   2.675  0.5526 -1.0293  0.5789
 1549SOL    HW3 6250   1.781   1.826   2.668 -0.9860 -0.1213 -0.0376
 1549SOL    MW4 6251   1.788   1.911   2.648  0.1214 -0.1606  0.1574
 1550SOL     OW 6252   1.993   2.047   2.733 -0.1513  0.5394  0.0430
 1550SOL    HW2 6253   1.985   2.046   2.828  1.4657  1.5463  0.2091
 1550SOL    HW3 6254   1.989   2.140   2.709 -1.5981  0.2329 -0.9762
 1550SOL    MW4 6255   1.992   2.059   2.742 -0.1287  0.6316 -0.0694
 1551SOL     OW 6256   1.977   2.337   2.644 -0.1354  0.4094 -0.5121
 1551SOL    HW2 6257   2.060   2.375   2.672  0.6268 -2.7288  1.8648
 1551SOL    HW3 6258   1.988   2.320   2.550  0.9948  2.1862 -0.7205
 1551SOL    MW4 6259   1.989   2.339   2.635  0.1144  0.2301 -0.2255
 1552SOL     OW 6260   1.738   2.446   2.768  0.0648 -0.4668  0.0690
 1552SOL    HW2 6261   1.759   2.418   2.857  0.6945  0.6052  0.2724
 1552SOL    HW3 6262   1.815   2.422   2.716 -0.5813 -1.7046 -0.3246
 1552SOL    MW4 6263   1.751   2.439   2.773  0.0626 -0.4888  0.0441
 1553SOL     OW 6264   1.753   2.709   2.668 -1.0264  0.0283  0.4251
 1553SOL    HW2 6265   1.743   2.621   2.704  0.6800 -0.4363 -0.1996
 1553SOL    HW3 6266   1.761   2.695   2.573 -0.0093  0.7854  0.3884
 1553SOL    MW4 6267   1.752   2.695   2.660 -0.6669  0.0670  0.3376
 1554SOL     OW 6268   2.010   2.832   2.728  0.6062  0.7537  0.0812
 1554SOL    HW2 6269   2.083   2.780   2.695  0.2001 -0.3594  0.8706
 1554SOL    HW3 6270   1.932   2.788   2.694  0.1914 -0.2599  2.2450
 1554SOL    MW4 6271   2.009   2.819   2.719  0.4978  0.4730  0.4709
 1555SOL     OW 6272   2.037   3.095   2.652  0.2562 -0.2374  0.2095
 1555SOL    HW2 6273   2.028   3.003   2.679  1.0724 -0.7280 -1.1480
 1555SOL    HW3 6274   2.021   3.094   2.558 -1.4526  1.2843  0.4493
 1555SOL    MW4 6275   2.034   3.083   2.643  0.1385 -0.1016  0.0622
 1556SOL     OW 6276   1.821   3.243   2.736 -0.6672 -0.2242 -0.0669
 1556SOL    HW2 6277   1.827   3.328   2.692 -0.8363  0.1917  0.7053
 1556SOL    HW3 6278   1.892   3.192   2.698  1.8680  1.5228  2.1790
 1556SOL    MW4 6279   1.831   3.247   2.725 -0.3550  0.0610  0.3314
 1557SOL     OW 6280   1.819   3.512   2.645 -0.1746  0.0484  0.3008
 1557SOL    HW2 6281   1.894   3.558   2.682  0.5922  1.2620 -2.6289
 1557SOL    HW3 6282   1.839   3.504   2.552 -2.8496 -1.2768 -0.2155
 1557SOL    MW4 6283   1.831   3.517   2.638 -0.4264  0.0339 -0.1540
 1558SOL     OW 6284   2.039   3.650   2.757  0.3759 -0.2688 -0.3579
 1558SOL    HW2 6285   2.030   3.639   2.851  1.0744 -0.2281 -0.2867
 1558SOL    HW3 6286   2.121   3.607   2.735 -1.1039 -2.6625 -1.3661
 1558SOL    MW4 6287   2.049   3.643   2.766  0.2730 -0.5794 -0.4818
 1559SOL     OW 6288   2.026   3.900   2.652 -0.1557  0.1344  0.2503
 1559SOL    HW2 6289   1.953   3.936   2.703 -0.4903  0.7167 -0.6283
 1559SOL    HW3 6290   2.028   3.807   2.677 -0.5099  0.3381  1.0821
 1559SOL    MW4 6291   2.016   3.892   2.662 -0.2465  0.2382  0.2444
 1560SOL     OW 6292   1.812   4.033   2.783 -0.0592 -0.5017 -0.3342
 1560SOL    HW2 6293   1.800   4.124   2.754 -1.3437  0.0139  1.6855
 1560SOL    HW3 6294   1.740   3.985   2.741  0.5668 -0.5845 -1.3307
 1560SOL    MW4 6295   1.801   4.039   2.774 -0.1460 -0.4444 -0.1993
 1561SOL     OW 6296   1.831   4.280   2.674 -0.1488  0.0605 -0.1163
 1561SOL    HW2 6297   1.744   4.318   2.688 -0.5977 -0.9268 -0.2042
 1561SOL    HW3 6298   1.844   4.286   2.579  0.5740  1.6969  0.0681
 1561SOL    MW4 6299   1.821   4.286   2.663 -0.1128  0.1459 -0.1037
 1562SOL     OW 6300   2.068   4.425   2.722  0.4418 -0.0161 -0.4310
 1562SOL    HW2 6301   1.982   4.383   2.723  0.3898  0.0932  0.7282
 1562SOL    HW3 6302   2.058   4.499   2.662 -0.6559  0.7662  0.6946
 1562SOL    MW4 6303   2.056   4.429   2.714  0.2897  0.1016 -0.1292
 1563SOL     OW 6304   2.542   4.596   2.649  0.0644 -0.0262  0.3201
 1563SOL    HW2 6305   2.613   4.658   2.664 -1.2368  1.5465  0.2238
 1563SOL    HW3 6306   2.530   4.597   2.554 -0.0432 -0.3225  0.3313
 1563SOL    MW4 6307   2.550   4.605   2.638 -0.1216  0.1426  0.3088
 1564SOL     OW 6308   2.282   0.083   2.723  0.8079  0.3882  0.2627
 1564SOL    HW2 6309   2.294   0.092   2.817  0.2716 -3.1193  0.7640
 1564SOL    HW3 6310   2.364   0.045   2.692  0.3705 -0.0524 -0.3748
 1564SOL    MW4 6311   2.294   0.079   2.731  0.6795 -0.1327  0.2449
 1565SOL     OW 6312   2.239   0.343   2.642  0.1170 -0.2317  0.2219
 1565SOL    HW2 6313   2.248   0.248   2.653 -1.1912 -0.3771  0.1649
 1565SOL    HW3 6314   2.247   0.356   2.547 -1.8224 -0.5581 -0.0143
 1565SOL    MW4 6315   2.241   0.332   2.631 -0.3114 -0.2939  0.1831
 1566SOL     OW 6316   2.474   0.468   2.764 -0.6075 -0.0717  0.1261
 1566SOL    HW2 6317   2.460   0.555   2.728 -0.9094 -0.2156 -0.1082
 1566SOL    HW3 6318   2.404   0.415   2.727 -0.0111 -0.5785 -0.2969
 1566SOL    MW4 6319   2.463   0.472   2.754 -0.5684 -0.1575  0.0393
 1567SOL     OW 6320   2.472   0.734   2.654  0.2334  0.1789 -0.7073
 1567SOL    HW2 6321   2.406   0.793   2.691 -0.1518  0.4895 -1.8825
 1567SOL    HW3 6322   2.462   0.743   2.559  0.2354 -1.7054 -0.8942
 1567SOL    MW4 6323   2.462   0.743   2.646  0.1829 -0.0287 -0.8872
 1568SOL     OW 6324   2.262   0.904   2.755  0.2984 -0.1112  0.3005
 1568SOL    HW2 6325   2.265   0.890   2.850 -0.5249  0.9959  0.4962
 1568SOL    HW3 6326   2.186   0.853   2.726  1.5713 -1.8556 -0.0222
 1568SOL    MW4 6327   2.252   0.895   2.764  0.3576 -0.1953  0.2837
 1569SOL     OW 6328   2.244   1.157   2.667  0.3700  0.5613 -0.1720
 1569SOL    HW2 6329   2.250   1.065   2.690  1.2101  0.7525  0.3785
 1569SOL    HW3 6330   2.260   1.160   2.572  0.7636  0.1837 -0.1175
 1569SOL    MW4 6331   2.247   1.146   2.657  0.5326  0.5368 -0.0925
 1570SOL     OW 6332   2.486   1.277   2.762  0.6848  0.0494 -0.0194
 1570SOL    HW2 6333   2.550   1.226   2.713  0.4345 -0.1943 -0.0980
 1570SOL    HW3 6334   2.402   1.234   2.743  0.3236  1.1744 -0.9909
 1570SOL    MW4 6335   2.483   1.265   2.753  0.6039  0.1657 -0.1578
 1571SOL     OW 6336   2.475   1.526   2.661  0.1419 -0.0637  0.1701
 1571SOL    HW2 6337   2.388   1.561   2.679  0.1786 -0.4271  1.0379
 1571SOL    HW3 6338   2.475   1.438   2.699 -0.1378 -1.2546 -2.4785
 1571SOL    MW4 6339   2.464   1.519   2.668  0.1097 -0.2687 -0.0646
 1572SOL     OW 6340   2.235   1.630   2.734  0.0319  0.5864  0.3428
 1572SOL    HW2 6341   2.222   1.719   2.701  0.9703 -0.0623 -1.8221
 1572SOL    HW3 6342   2.163   1.579   2.696 -0.9824  0.5537  2.2300
 1572SOL    MW4 6343   2.224   1.635   2.725  0.0219  0.4964  0.3059
 1573SOL     OW 6344   2.215   1.901   2.653 -0.1540  0.1996  0.8297
 1573SOL    HW2 6345   2.132   1.943   2.674 -1.1854 -2.5044  2.3697
 1573SOL    HW3 6346   2.230   1.924   2.561 -1.3920  2.6434  1.1902
 1573SOL    MW4 6347   2.206   1.910   2.644 -0.4535  0.1653  1.0805
 1574SOL     OW 6348   2.439   2.016   2.740 -0.2320 -0.2096  0.4309
 1574SOL    HW2 6349   2.430   2.109   2.718  0.8495 -0.0064  0.8210
 1574SOL    HW3 6350   2.357   1.977   2.711 -0.3861  0.7344 -0.4479
 1574SOL    MW4 6351   2.427   2.023   2.733 -0.1099 -0.0584  0.3667
 1575SOL     OW 6352   2.434   2.311   2.640  0.4709 -0.2764 -0.7050
 1575SOL    HW2 6353   2.522   2.336   2.669  0.6340 -1.0616 -0.5164
 1575SOL    HW3 6354   2.433   2.332   2.547  0.1688  1.6368 -0.2878
 1575SOL    MW4 6355   2.446   2.317   2.631  0.4525 -0.1276 -0.6251
 1576SOL     OW 6356   2.204   2.439   2.745  0.2205 -0.1749  0.3410
 1576SOL    HW2 6357   2.199   2.435   2.840 -0.3683 -1.4166  0.2709
 1576SOL    HW3 6358   2.284   2.392   2.723  0.4467  0.2610  0.2316
 1576SOL    MW4 6359   2.214   2.433   2.754  0.1726 -0.2816  0.3176
 1577SOL     OW 6360   2.248   2.697   2.642  0.5720  0.3109 -0.1226
 1577SOL    HW2 6361   2.312   2.746   2.695  0.8955 -0.0731 -0.1587
 1577SOL    HW3 6362   2.247   2.609   2.680  0.7263  0.0650 -0.6847
 1577SOL    MW4 6363   2.256   2.692   2.654  0.6351  0.2279 -0.2017
 1578SOL     OW 6364   2.468   2.841   2.732 -0.0872  0.4505 -0.5063
 1578SOL    HW2 6365   2.536   2.780   2.706  1.1456  1.9344 -0.8139
 1578SOL    HW3 6366   2.498   2.927   2.701 -0.7544  1.5692  1.7507
 1578SOL    MW4 6367   2.481   2.845   2.725 -0.0126  0.7939 -0.2491
 1579SOL     OW 6368   2.490   3.113   2.652 -0.1504 -0.0261  0.0131
 1579SOL    HW2 6369   2.417   3.142   2.708 -0.3575 -0.0971 -0.2193
 1579SOL    HW3 6370   2.450   3.100   2.566 -0.0201 -0.8058  0.0702
 1579SOL    MW4 6371   2.475   3.115   2.648 -0.1607 -0.1385 -0.0103
 1580SOL     OW 6372   2.262   3.227   2.759  1.1603  0.4578  0.0140
 1580SOL    HW2 6373   2.263   3.216   2.854  1.8148 -0.2576 -0.0776
 1580SOL    HW3 6374   2.182   3.183   2.731  0.7276  1.0635  0.2740
 1580SOL    MW4 6375   2.251   3.220   2.768  1.1897  0.4432  0.0362
 1581SOL     OW 6376   2.239   3.477   2.631  0.2250  0.0150 -0.2771
 1581SOL    HW2 6377   2.318   3.523   2.657  0.2736 -0.2223 -0.0039
 1581SOL    HW3 6378   2.245   3.392   2.674  0.7238 -0.7126 -1.7479
 1581SOL    MW4 6379   2.250   3.472   2.640  0.2973 -0.1123 -0.4349
 1582SOL     OW 6380   2.471   3.619   2.729 -0.0878 -0.0796 -0.2141
 1582SOL    HW2 6381   2.469   3.618   2.825 -0.8626  0.6329 -0.2230
 1582SOL    HW3 6382   2.489   3.710   2.706 -0.9122 -0.0505 -0.7663
 1582SOL    MW4 6383   2.473   3.630   2.739 -0.2987  0.0181 -0.2880
 1583SOL     OW 6384   2.485   3.871   2.644  0.3722  0.0092  0.3786
 1583SOL    HW2 6385   2.549   3.927   2.687  0.0899  0.9744 -0.4376
 1583SOL    HW3 6386   2.401   3.900   2.678  0.1631  0.6331 -0.6403
 1583SOL    MW4 6387   2.482   3.882   2.654  0.3073  0.2186  0.1366
 1584SOL     OW 6388   2.256   3.989   2.757 -0.5143  0.0291  0.1660
 1584SOL    HW2 6389   2.242   3.975   2.851  1.2028 -2.1214  0.1419
 1584SOL    HW3 6390   2.180   3.948   2.716 -0.7970  0.1447  0.5580
 1584SOL    MW4 6391   2.244   3.982   2.764 -0.3252 -0.2391  0.2143
 1585SOL     OW 6392   2.291   4.243   2.650  0.3653  0.4350 -0.1586
 1585SOL    HW2 6393   2.287   4.152   2.681  1.2539  0.7901  1.0521
 1585SOL    HW3 6394   2.213   4.284   2.686  0.3117  0.3139 -0.1385
 1585SOL    MW4 6395   2.280   4.236   2.659  0.4754  0.4659  0.0036
 1586SOL     OW 6396   2.491   4.359   2.798  0.0307 -0.3455  0.1074
 1586SOL    HW2 6397   2.417   4.324   2.749 -0.1249 -0.7079  0.5962
 1586SOL    HW3 6398   2.498   4.450   2.768 -1.5785  0.1631  1.1502
 1586SOL    MW4 6399   2.482   4.367   2.788 -0.2019 -0.3257  0.3092
 1587SOL     OW 6400   2.946   4.631   2.616 -0.2371 -0.1408 -0.1210
 1587SOL    HW2 6401   3.024   4.679   2.644  0.9383 -2.2379  0.2788
 1587SOL    HW3 6402   2.932   4.658   2.526  1.5596 -0.4824 -0.5228
 1587SOL    MW4 6403   2.955   4.641   2.608  0.1550 -0.4625 -0.1211
 1588SOL     OW 6404   2.753   0.130   2.732  0.2948  0.2990 -0.5318
 1588SOL    HW2 6405   2.761   0.128   2.827 -0.5189  0.1168 -0.4631
 1588SOL    HW3 6406   2.834   0.091   2.700  1.1778  1.6141  0.0564
 1588SOL    MW4 6407   2.765   0.124   2.740  0.3040  0.4485 -0.4451
 1589SOL     OW 6408   2.685   0.377   2.609 -0.0446 -0.7119  0.3490
 1589SOL    HW2 6409   2.693   0.289   2.646  0.7915 -1.2132 -1.0292
 1589SOL    HW3 6410   2.614   0.417   2.659  0.2639 -1.8067  1.6857
 1589SOL    MW4 6411   2.677   0.371   2.621  0.1066 -0.9225  0.3436
 1590SOL     OW 6412   2.898   0.480   2.751 -0.6992 -0.6968  0.7254
 1590SOL    HW2 6413   2.907   0.572   2.729 -0.2576 -0.8793  0.1397
 1590SOL    HW3 6414   2.821   0.450   2.702 -0.1147 -0.9383 -0.0511
 1590SOL    MW4 6415   2.889   0.488   2.742 -0.5639 -0.7527  0.5460
 1591SOL     OW 6416   2.929   0.726   2.626 -0.1243  0.6508 -0.0665
 1591SOL    HW2 6417   3.009   0.774   2.645 -0.4860  0.3924  2.2122
 1591SOL    HW3 6418   2.859   0.775   2.669 -1.0692  0.3052 -1.1543
 1591SOL    MW4 6419   2.930   0.739   2.634 -0.2968  0.5711  0.0908
 1592SOL     OW 6420   2.719   0.847   2.726  0.1242 -0.3055 -0.1204
 1592SOL    HW2 6421   2.691   0.857   2.817 -0.0033  1.8638 -0.3794
 1592SOL    HW3 6422   2.644   0.805   2.683 -0.9918  1.3445  0.1699
 1592SOL    MW4 6423   2.705   0.843   2.732 -0.0398  0.1984 -0.1163
 1593SOL     OW 6424   2.677   1.125   2.634  0.2174  0.5262 -0.6348
 1593SOL    HW2 6425   2.755   1.166   2.672  0.1121  0.2477 -0.1197
 1593SOL    HW3 6426   2.689   1.032   2.649 -1.0323  0.5964  1.0279
 1593SOL    MW4 6427   2.688   1.118   2.641  0.0386  0.4988 -0.3474
 1594SOL     OW 6428   2.881   1.264   2.733  0.0863  0.3672  0.9004
 1594SOL    HW2 6429   2.879   1.239   2.826 -1.1918  0.2460  0.8466
 1594SOL    HW3 6430   2.962   1.226   2.700 -0.3928 -1.2291  1.5151
 1594SOL    MW4 6431   2.891   1.256   2.741 -0.1454  0.1407  0.9742
 1595SOL     OW 6432   2.904   1.545   2.651 -0.2793  0.2563  0.0335
 1595SOL    HW2 6433   2.838   1.600   2.695 -0.5192  0.5030 -0.6253
 1595SOL    HW3 6434   2.903   1.463   2.700 -2.1422 -0.2891 -0.8369
 1595SOL    MW4 6435   2.895   1.541   2.663 -0.5565  0.2167 -0.1681
 1596SOL     OW 6436   2.684   1.657   2.774  0.2013 -0.6544 -0.6066
 1596SOL    HW2 6437   2.658   1.655   2.866  0.5913  0.3925 -0.4620
 1596SOL    HW3 6438   2.626   1.595   2.731 -0.0405 -1.0881  0.3317
 1596SOL    MW4 6439   2.673   1.649   2.780  0.2208 -0.5736 -0.4640
 1597SOL     OW 6440   2.689   1.920   2.649 -0.3152  0.2150  0.2488
 1597SOL    HW2 6441   2.681   1.838   2.697 -0.3703  0.2554  0.3084
 1597SOL    HW3 6442   2.609   1.968   2.669  0.0594  0.6093  0.8322
 1597SOL    MW4 6443   2.678   1.915   2.658 -0.2728  0.2723  0.3335
 1598SOL     OW 6444   2.930   2.048   2.769 -0.0226 -0.3409 -0.1420
 1598SOL    HW2 6445   2.939   2.142   2.753  0.3255 -0.2365  0.6224
 1598SOL    HW3 6446   2.840   2.028   2.743 -0.2494  0.3004  0.1237
 1598SOL    MW4 6447   2.919   2.058   2.764 -0.0064 -0.2425 -0.0062
 1599SOL     OW 6448   2.926   2.309   2.665  0.0781  0.1986 -0.0302
 1599SOL    HW2 6449   3.001   2.365   2.688 -0.7441  1.6519 -0.8225
 1599SOL    HW3 6450   2.853   2.346   2.714 -0.5225 -0.0534 -0.7352
 1599SOL    MW4 6451   2.926   2.321   2.674 -0.1097  0.3572 -0.2277
 1600SOL     OW 6452   2.679   2.403   2.766  0.3632 -0.6091  0.2691
 1600SOL    HW2 6453   2.684   2.420   2.860 -0.7675 -0.4700  0.3115
 1600SOL    HW3 6454   2.687   2.489   2.725  0.2103 -0.5974  0.2638
 1600SOL    MW4 6455   2.681   2.417   2.773  0.1943 -0.5891  0.2739
 1601SOL     OW 6456   2.687   2.654   2.664 -0.2159 -0.4022  0.0788
 1601SOL    HW2 6457   2.758   2.713   2.690 -0.1244 -0.5762  0.2238
 1601SOL    HW3 6458   2.683   2.662   2.569 -0.0850 -0.2975  0.0811
 1601SOL    MW4 6459   2.696   2.663   2.655 -0.1867 -0.4113  0.0982
 1602SOL     OW 6460   2.877   2.850   2.750 -0.3519  0.3062  0.1355
 1602SOL    HW2 6461   2.871   2.852   2.845 -3.5030  0.8879 -0.0149
 1602SOL    HW3 6462   2.900   2.940   2.726  1.7368 -0.1414  0.3771
 1602SOL    MW4 6463   2.879   2.862   2.759 -0.4921  0.3238  0.1476
 1603SOL     OW 6464   2.934   3.112   2.695 -0.0038  0.2730 -0.0802
 1603SOL    HW2 6465   2.849   3.143   2.724 -0.7265 -0.0571 -1.7613
 1603SOL    HW3 6466   2.924   3.099   2.600  2.2195  1.2165 -0.4827
 1603SOL    MW4 6467   2.922   3.114   2.686  0.1943  0.3538 -0.3555
 1604SOL     OW 6468   2.706   3.235   2.760 -0.2617 -0.3166  0.3576
 1604SOL    HW2 6469   2.698   3.319   2.714 -3.1516  0.2971  1.8273
 1604SOL    HW3 6470   2.634   3.182   2.725  0.4102 -1.5195  0.7766
 1604SOL    MW4 6471   2.695   3.239   2.750 -0.5543 -0.3946  0.6068
 1605SOL     OW 6472   2.701   3.511   2.646  0.4321 -0.0977  0.2358
 1605SOL    HW2 6473   2.615   3.544   2.675  1.2216  1.4649  0.8853
 1605SOL    HW3 6474   2.691   3.497   2.552 -0.5417  0.0961  0.3022
 1605SOL    MW4 6475   2.688   3.514   2.638  0.4079  0.1340  0.3300
 1606SOL     OW 6476   2.936   3.614   2.759 -0.4204 -0.0269 -0.1051
 1606SOL    HW2 6477   2.919   3.632   2.851 -0.8561 -0.6591 -0.0524
 1606SOL    HW3 6478   2.851   3.586   2.724 -0.2387  0.1210 -0.6747
 1606SOL    MW4 6479   2.922   3.612   2.766 -0.4539 -0.0906 -0.1736
 1607SOL     OW 6480   2.922   3.865   2.638 -0.3971 -0.4235  0.7789
 1607SOL    HW2 6481   2.991   3.912   2.684  0.5992 -0.0187 -1.0829
 1607SOL    HW3 6482   2.931   3.775   2.666  1.6526 -0.5812 -0.3197
 1607SOL    MW4 6483   2.932   3.860   2.648  0.0048 -0.3912  0.3881
 1608SOL     OW 6484   2.692   4.007   2.767 -0.4085  0.1036  0.3721
 1608SOL    HW2 6485   2.697   4.083   2.709  0.3907 -1.0431 -1.1059
 1608SOL    HW3 6486   2.755   3.945   2.730  0.1374 -0.6501  2.5066
 1608SOL    MW4 6487   2.701   4.009   2.755 -0.2310 -0.1469  0.4590
 1609SOL     OW 6488   2.677   4.254   2.619  0.4424 -0.0741 -0.2818
 1609SOL    HW2 6489   2.755   4.304   2.644  0.7890 -0.6563 -0.1812
 1609SOL    HW3 6490   2.606   4.294   2.669  0.9152 -0.4038  0.6639
 1609SOL    MW4 6491   2.678   4.266   2.629  0.5500 -0.1941 -0.1440
 1610SOL     OW 6492   2.899   4.379   2.716 -0.0900  0.1353 -0.2678
 1610SOL    HW2 6493   2.879   4.381   2.810 -1.2475 -0.0567 -0.5035
 1610SOL    HW3 6494   2.920   4.470   2.694  1.1808  0.0116  0.3771
 1610SOL    MW4 6495   2.899   4.392   2.726 -0.0749  0.0935 -0.2141
 1611SOL     OW 6496   3.402   4.653   2.638 -0.1294  0.1381  0.0084
 1611SOL    HW2 6497   3.389   4.570   2.684  0.6471 -0.2473 -0.4628
 1611SOL    HW3 6498   3.326   4.705   2.661  0.1819 -0.0960  1.6485
 1611SOL    MW4 6499   3.391   4.649   2.647  0.0141  0.0563  0.1624
 1612SOL     OW 6500   3.164   0.127   2.705  0.3621  0.3800 -0.8906
 1612SOL    HW2 6501   3.167   0.135   2.801 -0.7100  0.9613 -0.8986
 1612SOL    HW3 6502   3.156   0.217   2.674 -0.4387  0.1120 -1.4733
 1612SOL    MW4 6503   3.163   0.140   2.714  0.1152  0.4213 -0.9685
 1613SOL     OW 6504   3.140   0.378   2.642  0.3726 -0.1998 -0.6596
 1613SOL    HW2 6505   3.059   0.423   2.666  0.9261  0.5453 -0.1515
 1613SOL    HW3 6506   3.148   0.392   2.547  0.2049  0.2161 -0.6129
 1613SOL    MW4 6507   3.130   0.386   2.632  0.4237 -0.0466 -0.5863
 1614SOL     OW 6508   3.352   0.482   2.751 -0.1224  0.3267  0.4661
 1614SOL    HW2 6509   3.357   0.576   2.734  0.6824  0.0996 -0.6032
 1614SOL    HW3 6510   3.280   0.452   2.696  0.1537  0.1758  0.1905
 1614SOL    MW4 6511   3.343   0.490   2.742  0.0200  0.2768  0.2887
 1615SOL     OW 6512   3.394   0.748   2.676 -0.3485 -0.4183  0.0914
 1615SOL    HW2 6513   3.448   0.819   2.711  0.0232 -0.5700 -0.1675
 1615SOL    HW3 6514   3.402   0.757   2.581 -0.4630 -0.6830  0.0578
 1615SOL    MW4 6515   3.402   0.759   2.668 -0.3145 -0.4733  0.0532
 1616SOL     OW 6516   3.142   0.883   2.688 -0.1201 -0.1350 -0.1385
 1616SOL    HW2 6517   3.132   0.867   2.782 -0.1558  0.3325 -0.0616
 1616SOL    HW3 6518   3.232   0.859   2.668  0.3404  1.1974  0.3100
 1616SOL    MW4 6519   3.152   0.878   2.698 -0.0639  0.1025 -0.0691
 1617SOL     OW 6520   3.106   1.153   2.641 -0.8362  0.0652 -0.1119
 1617SOL    HW2 6521   3.115   1.059   2.658  1.7457  0.2653 -0.1819
 1617SOL    HW3 6522   3.114   1.161   2.546 -1.5767  0.3377 -0.1623
 1617SOL    MW4 6523   3.108   1.141   2.631 -0.5934  0.1277 -0.1280
 1618SOL     OW 6524   3.357   1.291   2.688  0.8447  0.1866  0.5169
 1618SOL    HW2 6525   3.376   1.272   2.780  0.2769  0.6718  0.7410
 1618SOL    HW3 6526   3.273   1.248   2.672  2.6716 -3.0034 -0.8101
 1618SOL    MW4 6527   3.348   1.283   2.698  1.0107 -0.1702  0.3715
 1619SOL     OW 6528   3.369   1.567   2.621  0.1053  0.1904  0.3706
 1619SOL    HW2 6529   3.301   1.615   2.668  0.1565 -0.8244  1.5105
 1619SOL    HW3 6530   3.367   1.479   2.659  0.9042 -0.3349 -0.7662
 1619SOL    MW4 6531   3.360   1.562   2.632  0.2174 -0.0128  0.3712
 1620SOL     OW 6532   3.135   1.683   2.713  0.4524  0.0919 -0.1491
 1620SOL    HW2 6533   3.115   1.769   2.677 -2.5121 -0.4696  0.0677
 1620SOL    HW3 6534   3.062   1.628   2.687  2.5218 -2.5294 -0.6827
 1620SOL    MW4 6535   3.123   1.687   2.705  0.3345 -0.3282 -0.1910
 1621SOL     OW 6536   3.131   1.958   2.596 -0.2957  0.0848  0.1914
 1621SOL    HW2 6537   3.213   1.982   2.640 -0.2595 -0.1497  0.2538
 1621SOL    HW3 6538   3.062   1.997   2.649 -0.2428 -0.0381  0.3506
 1621SOL    MW4 6539   3.133   1.966   2.609 -0.2840  0.0376  0.2208
 1622SOL     OW 6540   3.373   2.069   2.732 -0.7906 -0.2086 -0.1678
 1622SOL    HW2 6541   3.344   2.074   2.823 -0.6535  0.3592 -0.1566
 1622SOL    HW3 6542   3.361   2.158   2.697 -0.1186 -0.2402 -0.4817
 1622SOL    MW4 6543   3.368   2.081   2.739 -0.6840 -0.1378 -0.2077
 1623SOL     OW 6544   3.350   2.314   2.627  0.3994 -0.1019  0.1445
 1623SOL    HW2 6545   3.432   2.347   2.663  0.9216 -2.1140  0.8151
 1623SOL    HW3 6546   3.366   2.308   2.533  0.5987  0.6935  0.1258
 1623SOL    MW4 6547   3.363   2.318   2.619  0.4945 -0.2620  0.2306
 1624SOL     OW 6548   3.139   2.470   2.749 -0.5268  0.2139 -0.2369
 1624SOL    HW2 6549   3.118   2.557   2.716 -0.0093  0.3854 -0.1087
 1624SOL    HW3 6550   3.213   2.441   2.696  1.7378  1.3820  2.1860
 1624SOL    MW4 6551   3.146   2.478   2.738 -0.1597  0.3908  0.0997
 1625SOL     OW 6552   3.101   2.727   2.652  0.4134 -0.2836  0.2734
 1625SOL    HW2 6553   3.181   2.757   2.695  0.4228 -0.2339  0.2219
 1625SOL    HW3 6554   3.030   2.774   2.697  0.5643  1.2666 -1.0773
 1625SOL    MW4 6555   3.102   2.737   2.663  0.4344 -0.0725  0.0885
 1626SOL     OW 6556   3.347   2.848   2.716  0.1963 -0.4689 -0.0745
 1626SOL    HW2 6557   3.356   2.840   2.811 -0.4903  0.3644  0.0548
 1626SOL    HW3 6558   3.421   2.797   2.682  0.1274 -1.2419  0.8881
 1626SOL    MW4 6559   3.358   2.840   2.724  0.0966 -0.4609  0.0699
 1627SOL     OW 6560   3.405   3.113   2.647  0.0224  0.4499 -0.3917
 1627SOL    HW2 6561   3.384   3.023   2.675  1.6726 -0.1920 -1.1468
 1627SOL    HW3 6562   3.405   3.108   2.551  0.2148  1.2297 -0.4300
 1627SOL    MW4 6563   3.402   3.100   2.638  0.2656  0.4683 -0.4964
 1628SOL     OW 6564   3.166   3.239   2.722  0.4824 -0.3323  0.5779
 1628SOL    HW2 6565   3.240   3.197   2.678  0.5337 -1.1553  1.4528
 1628SOL    HW3 6566   3.095   3.175   2.717  0.6615 -0.6701  2.2048
 1628SOL    MW4 6567   3.166   3.225   2.715  0.5124 -0.4854  0.9081
 1629SOL     OW 6568   3.146   3.497   2.617 -0.0080  0.3228 -0.1351
 1629SOL    HW2 6569   3.156   3.409   2.654 -0.5324  0.4538  0.3198
 1629SOL    HW3 6570   3.070   3.533   2.662 -0.3211  0.6880 -0.9518
 1629SOL    MW4 6571   3.137   3.490   2.628 -0.1187  0.3884 -0.1829
 1630SOL     OW 6572   3.373   3.608   2.741  0.2477  0.1336 -0.3422
 1630SOL    HW2 6573   3.365   3.599   2.835  1.2777  0.3978 -0.2191
 1630SOL    HW3 6574   3.295   3.565   2.705  0.2069 -0.5775  0.5922
 1630SOL    MW4 6575   3.362   3.601   2.748  0.3781  0.0744 -0.2024
 1631SOL     OW 6576   3.378   3.874   2.666 -0.3463  0.5294 -0.0590
 1631SOL    HW2 6577   3.374   3.780   2.681 -1.6233  0.4283 -0.9399
 1631SOL    HW3 6578   3.380   3.883   2.571 -0.0980  1.3917  0.0226
 1631SOL    MW4 6579   3.377   3.863   2.656 -0.4818  0.6301 -0.1645
 1632SOL     OW 6580   3.133   3.997   2.743  0.1262 -0.0213 -0.1236
 1632SOL    HW2 6581   3.123   4.071   2.684  0.8002  1.0232  1.0545
 1632SOL    HW3 6582   3.220   3.963   2.725  0.2789  0.2122  0.1691
 1632SOL    MW4 6583   3.143   4.002   2.733  0.2356  0.1478  0.0703
 1633SOL     OW 6584   3.148   4.274   2.631 -0.1581 -0.0171  0.2135
 1633SOL    HW2 6585   3.068   4.315   2.664  0.2085  0.4625  0.5127
 1633SOL    HW3 6586   3.146   4.290   2.537 -0.4369 -0.0545  0.2105
 1633SOL    MW4 6587   3.137   4.281   2.623 -0.1466  0.0410  0.2525
 1634SOL     OW 6588   3.371   4.388   2.765 -0.4149 -0.2875  0.5834
 1634SOL    HW2 6589   3.346   4.409   2.855 -0.9001  0.0600  0.3708
 1634SOL    HW3 6590   3.301   4.331   2.733 -0.4260 -0.1234  0.3113
 1634SOL    MW4 6591   3.359   4.384   2.773 -0.4804 -0.2198  0.5195
 1635SOL     OW 6592   3.810   4.630   2.620 -0.1627  0.2602  0.2287
 1635SOL    HW2 6593   3.814   4.550   2.671 -1.7856  0.4904  0.7446
 1635SOL    HW3 6594   3.739   4.681   2.660  1.5603  2.4364  0.6008
 1635SOL    MW4 6595   3.801   4.627   2.632 -0.1497  0.5779  0.3459
 1636SOL     OW 6596   3.613   0.146   2.730  0.3306  0.2683  0.1160
 1636SOL    HW2 6597   3.593   0.232   2.695 -0.9670  0.0845  0.3957
 1636SOL    HW3 6598   3.536   0.092   2.710  1.1567 -0.8488 -0.1328
 1636SOL    MW4 6599   3.600   0.150   2.723  0.2682  0.0966  0.1204
 1637SOL     OW 6600   3.583   0.397   2.630 -0.0440 -0.0103  0.0621
 1637SOL    HW2 6601   3.647   0.455   2.673 -0.0078  0.2527 -0.3367
 1637SOL    HW3 6602   3.500   0.418   2.672  0.1524 -0.4532  0.6824
 1637SOL    MW4 6603   3.581   0.408   2.641 -0.0131 -0.0340  0.0916
 1638SOL     OW 6604   3.790   0.540   2.740 -0.4450  0.2137 -0.0483
 1638SOL    HW2 6605   3.794   0.537   2.836 -0.5855 -0.2503 -0.0532
 1638SOL    HW3 6606   3.850   0.471   2.712 -0.8080 -0.0069 -0.2828
 1638SOL    MW4 6607   3.798   0.531   2.749 -0.5114  0.1234 -0.0801
 1639SOL     OW 6608   3.829   0.778   2.625 -0.4000  0.1841  0.5840
 1639SOL    HW2 6609   3.761   0.833   2.664  0.2722  1.2275  0.3095
 1639SOL    HW3 6610   3.823   0.695   2.672  0.2302  1.3178  2.7469
 1639SOL    MW4 6611   3.820   0.775   2.636 -0.2282  0.4713  0.8333
 1640SOL     OW 6612   3.620   0.933   2.736  0.1956  0.3359 -0.4174
 1640SOL    HW2 6613   3.597   0.956   2.826  0.3307 -0.0912 -0.2730
 1640SOL    HW3 6614   3.601   1.012   2.685  1.3537  1.0141  0.1866
 1640SOL    MW4 6615   3.614   0.947   2.741  0.3664  0.3690 -0.3188
 1641SOL     OW 6616   3.575   1.165   2.574 -0.0951  0.0035  0.1602
 1641SOL    HW2 6617   3.649   1.212   2.612 -0.3245 -0.3478  1.0447
 1641SOL    HW3 6618   3.498   1.206   2.612 -0.3376 -0.0712 -0.2468
 1641SOL    MW4 6619   3.574   1.176   2.584 -0.1571 -0.0527  0.2234
 1642SOL     OW 6620   3.781   1.282   2.731 -0.2500 -0.2608  1.0434
 1642SOL    HW2 6621   3.870   1.250   2.713 -0.2592  1.1425 -1.7161
 1642SOL    HW3 6622   3.784   1.375   2.708 -2.4965 -0.2395  0.7974
 1642SOL    MW4 6623   3.793   1.290   2.726 -0.5474 -0.0730  0.6471
 1643SOL     OW 6624   3.828   1.544   2.631  0.1878 -0.0207 -0.4077
 1643SOL    HW2 6625   3.908   1.583   2.665  0.5438 -1.2202  0.1761
 1643SOL    HW3 6626   3.757   1.590   2.676  0.5457  0.9880 -0.8654
 1643SOL    MW4 6627   3.829   1.555   2.642  0.2818 -0.0458 -0.3910
 1644SOL     OW 6628   3.599   1.690   2.717  0.3091 -0.0666 -0.2184
 1644SOL    HW2 6629   3.603   1.771   2.667 -0.4198  0.5332  0.6889
 1644SOL    HW3 6630   3.527   1.641   2.679 -0.6789  0.6815  0.6645
 1644SOL    MW4 6631   3.590   1.694   2.706  0.0823  0.1111  0.0176
 1645SOL     OW 6632   3.587   1.942   2.610 -0.1841 -0.3700 -0.0819
 1645SOL    HW2 6633   3.511   1.986   2.648 -1.2187 -2.4895  0.3849
 1645SOL    HW3 6634   3.573   1.950   2.515 -1.5910 -1.7022 -0.0078
 1645SOL    MW4 6635   3.575   1.949   2.602 -0.5059 -0.8255 -0.0103
 1646SOL     OW 6636   3.818   2.048   2.710  0.1155  0.0416 -0.2700
 1646SOL    HW2 6637   3.874   1.975   2.683 -0.3872 -0.3870 -0.1546
 1646SOL    HW3 6638   3.732   2.026   2.677  0.1364  1.0194 -1.0240
 1646SOL    MW4 6639   3.814   2.036   2.702  0.0520  0.1140 -0.3543
 1647SOL     OW 6640   3.799   2.313   2.635  0.6392 -0.0233  0.0227
 1647SOL    HW2 6641   3.811   2.221   2.659 -0.1130 -0.7442 -2.2939
 1647SOL    HW3 6642   3.793   2.313   2.540 -0.2673  2.3375  0.0494
 1647SOL    MW4 6643   3.800   2.301   2.626  0.4203  0.1931 -0.2794
 1648SOL     OW 6644   3.575   2.437   2.727  0.0758  0.1293  0.4235
 1648SOL    HW2 6645   3.573   2.438   2.823  1.1053  0.0533  0.4534
 1648SOL    HW3 6646   3.653   2.387   2.705 -1.2719 -1.6399 -0.4863
 1648SOL    MW4 6647   3.585   2.431   2.737  0.0339 -0.1140  0.3073
 1649SOL     OW 6648   3.596   2.706   2.640 -0.3609 -0.3629  0.0160
 1649SOL    HW2 6649   3.597   2.620   2.682  0.8477 -0.8879 -1.0565
 1649SOL    HW3 6650   3.596   2.687   2.546  0.3338  0.8118 -0.2306
 1649SOL    MW4 6651   3.596   2.692   2.633 -0.1099 -0.2770 -0.1578
 1650SOL     OW 6652   3.797   2.827   2.764  0.5980  0.0297  0.0255
 1650SOL    HW2 6653   3.873   2.782   2.729  0.4466 -1.5550  1.6884
 1650SOL    HW3 6654   3.722   2.789   2.717  0.6571  0.1016 -0.1260
 1650SOL    MW4 6655   3.797   2.816   2.754  0.5858 -0.1698  0.2251
 1651SOL     OW 6656   3.816   3.096   2.659 -0.6163 -0.1220  0.4717
 1651SOL    HW2 6657   3.734   3.139   2.681 -0.9562 -0.9697  0.8614
 1651SOL    HW3 6658   3.802   3.004   2.681 -0.0996 -0.5493 -0.9408
 1651SOL    MW4 6659   3.804   3.090   2.665 -0.5929 -0.2904  0.3366
 1652SOL     OW 6660   3.603   3.235   2.768  0.0101 -0.1882 -0.3991
 1652SOL    HW2 6661   3.605   3.323   2.731 -0.4793 -0.5299 -1.2263
 1652SOL    HW3 6662   3.521   3.197   2.738 -0.3130 -0.5366  0.8813
 1652SOL    MW4 6663   3.593   3.241   2.759 -0.0973 -0.2792 -0.3395
 1653SOL     OW 6664   3.599   3.489   2.651  0.6957  0.3329 -0.1814
 1653SOL    HW2 6665   3.663   3.542   2.698  1.2102 -0.8167  0.4406
 1653SOL    HW3 6666   3.514   3.527   2.675  1.1462  2.0539 -1.2588
 1653SOL    MW4 6667   3.596   3.501   2.661  0.8230  0.4082 -0.2415
 1654SOL     OW 6668   3.832   3.653   2.760 -0.2465 -0.0247 -0.1708
 1654SOL    HW2 6669   3.899   3.608   2.708  0.3589 -0.0885  0.6595
 1654SOL    HW3 6670   3.829   3.742   2.724  0.0574 -0.1116 -0.4114
 1654SOL    MW4 6671   3.840   3.659   2.748 -0.1266 -0.0448 -0.0927
 1655SOL     OW 6672   3.809   3.906   2.624  0.5690  0.4332 -0.0902
 1655SOL    HW2 6673   3.889   3.947   2.657  0.7681 -0.6916  0.8578
 1655SOL    HW3 6674   3.739   3.950   2.672  0.6111  1.3454 -0.8446
 1655SOL    MW4 6675   3.810   3.917   2.635  0.6008  0.4053 -0.0648
 1656SOL     OW 6676   3.611   4.021   2.764 -0.0571  0.5600 -0.2844
 1656SOL    HW2 6677   3.594   4.110   2.733 -1.5876 -0.0167 -1.1383
 1656SOL    HW3 6678   3.531   3.973   2.744  0.0371 -0.5545  1.9232
 1656SOL    MW4 6679   3.598   4.026   2.757 -0.2468  0.3371 -0.1059
 1657SOL     OW 6680   3.616   4.284   2.655 -0.2399 -0.3500  0.6165
 1657SOL    HW2 6681   3.546   4.345   2.680  0.3276  0.3649  0.4690
 1657SOL    HW3 6682   3.602   4.268   2.562 -0.1333 -0.1209  0.5628
 1657SOL    MW4 6683   3.605   4.290   2.646 -0.1512 -0.2260  0.5898
 1658SOL     OW 6684   3.853   4.393   2.735 -0.1811 -0.0252  0.0661
 1658SOL    HW2 6685   3.937   4.375   2.692 -0.1539  1.0973 -0.3640
 1658SOL    HW3 6686   3.789   4.341   2.686  0.0865  0.0452 -0.3632
 1658SOL    MW4 6687   3.856   4.384   2.723 -0.1423  0.1326 -0.0474
 1659SOL     OW 6688   4.245   4.661   2.603 -0.1444 -0.1349 -0.0090
 1659SOL    HW2 6689   4.164   4.706   2.627 -0.9393 -1.0491 -0.9606
 1659SOL    HW3 6690   4.314   4.723   2.626 -1.1226  0.7322  0.6210
 1659SOL    MW4 6691   4.244   4.675   2.609 -0.3786 -0.1411 -0.0515
 1660SOL     OW 6692   4.028   0.126   2.701  0.2284 -0.2435  0.3923
 1660SOL    HW2 6693   4.026   0.120   2.796  1.1705  0.6106  0.4759
 1660SOL    HW3 6694   3.949   0.081   2.672 -0.8284  0.7879  1.6501
 1660SOL    MW4 6695   4.017   0.119   2.710  0.2122  0.0053  0.5696
 1661SOL     OW 6696   4.013   0.385   2.620 -0.7273  0.2922 -0.2783
 1661SOL    HW2 6697   4.027   0.293   2.640 -0.2300  0.2109 -0.9605
 1661SOL    HW3 6698   4.005   0.388   2.525  0.6807  1.1207 -0.3944
 1661SOL    MW4 6699   4.014   0.373   2.610 -0.4754  0.3908 -0.3836
 1662SOL     OW 6700   4.255   0.477   2.738 -0.1144 -0.0997 -0.3374
 1662SOL    HW2 6701   4.169   0.450   2.706  0.1756  0.7606 -1.8777
 1662SOL    HW3 6702   4.317   0.432   2.681  0.4233  0.6833 -0.3842
 1662SOL    MW4 6703   4.251   0.468   2.726 -0.0052  0.1171 -0.5469
 1663SOL     OW 6704   4.273   0.746   2.679 -0.1664 -0.2852 -0.0306
 1663SOL    HW2 6705   4.262   0.656   2.708  0.0423 -0.5359 -0.7283
 1663SOL    HW3 6706   4.279   0.741   2.584 -0.7389  0.5240 -0.1211
 1663SOL    MW4 6707   4.272   0.734   2.671 -0.2141 -0.2115 -0.1347
 1664SOL     OW 6708   4.048   0.910   2.707 -0.1265  0.1572  0.8022
 1664SOL    HW2 6709   4.124   0.851   2.702  0.5933  1.0466  1.0779
 1664SOL    HW3 6710   3.974   0.856   2.680  0.4647 -0.9797  1.4138
 1664SOL    MW4 6711   4.049   0.895   2.702  0.0458  0.1245  0.9193
 1665SOL     OW 6712   4.024   1.167   2.627 -0.3035 -0.0713 -0.4885
 1665SOL    HW2 6713   4.095   1.216   2.667 -0.2700 -0.4811 -0.0426
 1665SOL    HW3 6714   4.036   1.077   2.658 -1.3396 -0.0363  0.0626
 1665SOL    MW4 6715   4.035   1.161   2.637 -0.4358 -0.1208 -0.3572
 1666SOL     OW 6716   4.256   1.288   2.731 -0.0126 -0.3015  0.0399
 1666SOL    HW2 6717   4.259   1.379   2.701 -0.3848  0.0068  0.9175
 1666SOL    HW3 6718   4.317   1.242   2.673  2.6683  1.1088  1.6439
 1666SOL    MW4 6719   4.265   1.294   2.719  0.2923 -0.0747  0.3672
 1667SOL     OW 6720   4.257   1.540   2.627 -0.4713  0.1243  0.2597
 1667SOL    HW2 6721   4.340   1.574   2.659 -0.6325 -0.5066  1.3947
 1667SOL    HW3 6722   4.258   1.558   2.533  1.2559 -0.5119  0.1303
 1667SOL    MW4 6723   4.268   1.547   2.619 -0.2646 -0.0428  0.3922
 1668SOL     OW 6724   4.040   1.664   2.740  0.1280  0.2005  0.0714
 1668SOL    HW2 6725   4.039   1.647   2.835 -0.0889  2.3891  0.4854
 1668SOL    HW3 6726   4.120   1.621   2.709 -0.1387 -1.1053  1.1223
 1668SOL    MW4 6727   4.050   1.656   2.749  0.0644  0.3169  0.2646
 1669SOL     OW 6728   4.018   1.877   2.599 -0.0970 -0.3621  0.4644
 1669SOL    HW2 6729   4.079   1.936   2.644  0.5131 -1.0553  0.5610
 1669SOL    HW3 6730   4.028   1.793   2.645  0.3132 -1.0055 -0.7715
 1669SOL    MW4 6731   4.027   1.874   2.611  0.0367 -0.5386  0.3140
 1670SOL     OW 6732   4.224   2.018   2.718 -0.1633 -0.6252 -0.0221
 1670SOL    HW2 6733   4.245   2.106   2.687  1.2746 -0.5780  0.9988
 1670SOL    HW3 6734   4.300   1.966   2.692  0.0245 -1.0622  1.3580
 1670SOL    MW4 6735   4.237   2.023   2.711  0.0515 -0.6769  0.2947
 1671SOL     OW 6736   4.265   2.280   2.608 -0.3696 -0.1803  0.7698
 1671SOL    HW2 6737   4.182   2.321   2.635 -0.4190 -0.5157  1.1491
 1671SOL    HW3 6738   4.261   2.277   2.513 -1.9362 -2.4701  0.8590
 1671SOL    MW4 6739   4.253   2.285   2.599 -0.5832 -0.5269  0.8316
 1672SOL     OW 6740   4.040   2.428   2.708 -0.0233  0.0337 -0.2697
 1672SOL    HW2 6741   4.043   2.421   2.804  0.6673  0.0013 -0.2907
 1672SOL    HW3 6742   3.959   2.383   2.683 -1.4174  2.0967  0.4764
 1672SOL    MW4 6743   4.029   2.421   2.718 -0.1159  0.3016 -0.1738
 1673SOL     OW 6744   4.016   2.699   2.667 -0.1153 -0.3640  0.0230
 1673SOL    HW2 6745   4.094   2.742   2.702 -0.2686  0.0670 -0.1622
 1673SOL    HW3 6746   4.032   2.606   2.682  0.3520 -0.2676  0.1556
 1673SOL    MW4 6747   4.029   2.692   2.674 -0.0734 -0.2944  0.0160
 1674SOL     OW 6748   4.286   2.822   2.707 -0.0650  0.2204  0.3713
 1674SOL    HW2 6749   4.304   2.829   2.801 -0.4354  1.5928  0.3433
 1674SOL    HW3 6750   4.268   2.911   2.679 -1.1189 -0.3351 -0.7764
 1674SOL    MW4 6751   4.286   2.834   2.716 -0.2522  0.3283  0.2162
 1675SOL     OW 6752   4.249   3.084   2.653  0.5043  0.1312  0.4922
 1675SOL    HW2 6753   4.172   3.128   2.688  0.6364  0.3759  0.4792
 1675SOL    HW3 6754   4.241   3.092   2.558 -0.6721 -1.9485  0.4135
 1675SOL    MW4 6755   4.238   3.091   2.645  0.3667 -0.1106  0.4802
 1676SOL     OW 6756   4.036   3.234   2.747  0.5815  0.0293  0.2244
 1676SOL    HW2 6757   4.027   3.321   2.707  0.3674  0.5113  1.3063
 1676SOL    HW3 6758   3.963   3.183   2.711  0.4007  0.4552 -0.0164
 1676SOL    MW4 6759   4.025   3.239   2.737  0.5293  0.1493  0.3355
 1677SOL     OW 6760   4.014   3.477   2.622  0.1642 -0.2995 -0.4226
 1677SOL    HW2 6761   4.095   3.528   2.631  0.0621 -0.3998  1.0567
 1677SOL    HW3 6762   4.004   3.465   2.527  1.4478  0.4074 -0.6537
 1677SOL    MW4 6763   4.023   3.482   2.610  0.3200 -0.2196 -0.2580
 1678SOL     OW 6764   4.232   3.629   2.736  0.3908 -0.2472  0.0432
 1678SOL    HW2 6765   4.211   3.624   2.829 -0.5970 -0.6085 -0.1902
 1678SOL    HW3 6766   4.307   3.571   2.725 -0.5667 -1.5617  0.3193
 1678SOL    MW4 6767   4.239   3.621   2.747  0.1340 -0.4685  0.0489
 1679SOL     OW 6768   4.259   3.892   2.651  0.2872 -0.5497 -0.1845
 1679SOL    HW2 6769   4.274   3.805   2.687  0.6681 -0.8520 -1.0643
 1679SOL    HW3 6770   4.337   3.942   2.677  1.5244 -1.3229 -2.2814
 1679SOL    MW4 6771   4.271   3.887   2.659  0.5012 -0.6917 -0.5772
 1680SOL     OW 6772   4.027   4.030   2.747  0.4530  0.1687 -0.1989
 1680SOL    HW2 6773   4.019   4.029   2.842 -0.8726 -1.5892 -0.2788
 1680SOL    HW3 6774   4.110   3.986   2.729 -0.8264 -2.4584  0.0908
 1680SOL    MW4 6775   4.037   4.024   2.757  0.1097 -0.4091 -0.1712
 1681SOL     OW 6776   4.074   4.272   2.602  0.5231  0.1780 -0.0625
 1681SOL    HW2 6777   4.052   4.188   2.641 -0.8544  0.9596  0.9082
 1681SOL    HW3 6778   4.061   4.259   2.508 -0.7030 -0.4078  0.1746
 1681SOL    MW4 6779   4.070   4.260   2.595  0.1798  0.2041  0.0970
 1682SOL     OW 6780   4.273   4.411   2.737 -0.1790 -0.1018  0.2944
 1682SOL    HW2 6781   4.207   4.364   2.686  1.0276 -0.3190 -1.1030
 1682SOL    HW3 6782   4.274   4.499   2.698 -1.0719  0.5089  1.6381
 1682SOL    MW4 6783   4.265   4.417   2.725 -0.1373 -0.0501  0.2875
 1683SOL     OW 6784   0.214   0.011   3.092  0.2036  0.1525 -0.1925
 1683SOL    HW2 6785   0.198   0.011   3.186  0.2732 -1.1711 -0.1769
 1683SOL    HW3 6786   0.129   0.027   3.052  0.0112 -0.2490  0.0648
 1683SOL    MW4 6787   0.201   0.013   3.099  0.1874 -0.0749 -0.1564
 1684SOL     OW 6788   4.471   0.086   2.961  0.4163 -0.4794 -0.6815
 1684SOL    HW2 6789   4.397   0.041   3.002  0.4276 -0.5016 -0.6863
 1684SOL    HW3 6790   4.480   0.167   3.011  1.2647 -1.1064  0.1887
 1684SOL    MW4 6791   4.462   0.091   2.973  0.5302 -0.5651 -0.5674
 1685SOL     OW 6792   4.463   0.331   3.125 -0.4510 -0.3138  0.4158
 1685SOL    HW2 6793   4.454   0.337   3.220  0.7329  0.8613  0.4704
 1685SOL    HW3 6794   4.391   0.383   3.091  1.1388  2.2075  0.7416
 1685SOL    MW4 6795   4.453   0.338   3.133 -0.0849  0.1739  0.4659
 1686SOL     OW 6796   0.214   0.461   2.982 -0.4665  0.8529  0.1139
 1686SOL    HW2 6797   0.290   0.420   3.023 -0.6907 -0.9442 -1.2086
 1686SOL    HW3 6798   0.139   0.428   3.031 -0.7214 -1.1576 -1.5892
 1686SOL    MW4 6799   0.214   0.451   2.994 -0.5297  0.3505 -0.2851
 1687SOL     OW 6800   0.190   0.723   3.043  0.1984  0.0443  0.7040
 1687SOL    HW2 6801   0.192   0.733   3.139 -1.6898 -1.9496  0.9764
 1687SOL    HW3 6802   0.205   0.630   3.028  1.2950  0.4778 -1.0147
 1687SOL    MW4 6803   0.192   0.712   3.054  0.0940 -0.1615  0.5133
 1688SOL     OW 6804   4.475   0.891   2.968 -0.7252  0.0857 -0.8413
 1688SOL    HW2 6805   4.551   0.840   2.997 -0.5607  0.5284 -0.4780
 1688SOL    HW3 6806   4.486   0.898   2.873 -0.9430 -0.8572 -0.9419
 1688SOL    MW4 6807   4.487   0.885   2.959 -0.7323  0.0197 -0.8066
 1689SOL     OW 6808   0.024   1.155   3.082  0.0714  0.0335 -0.8448
 1689SOL    HW2 6809  -0.055   1.206   3.064  0.4197  0.4064 -1.3241
 1689SOL    HW3 6810   0.005   1.068   3.046  0.0584  0.2577 -1.3862
 1689SOL    MW4 6811   0.011   1.150   3.075  0.1157  0.1123 -0.9797
 1690SOL     OW 6812   0.254   1.243   2.954 -0.5905  0.3769 -0.2196
 1690SOL    HW2 6813   0.179   1.217   3.007 -0.1307 -3.7778 -1.4504
 1690SOL    HW3 6814   0.216   1.280   2.874 -1.3018  0.1197  0.0035
 1690SOL    MW4 6815   0.239   1.244   2.950 -0.6237 -0.2050 -0.3529
 1691SOL     OW 6816   0.225   1.507   3.082 -0.2746  0.1386  0.1567
 1691SOL    HW2 6817   0.141   1.538   3.048  0.2245  0.2389 -1.0144
 1691SOL    HW3 6818   0.232   1.417   3.049 -1.4932 -1.1351  3.1163
 1691SOL    MW4 6819   0.215   1.499   3.073 -0.3695 -0.0163  0.3927
 1692SOL     OW 6820   4.485   1.686   3.014  0.1468 -0.2115 -0.4189
 1692SOL    HW2 6821   4.415   1.632   3.052  0.2759  0.2658  0.5087
 1692SOL    HW3 6822   4.498   1.756   3.078  0.4138  0.5662 -1.3289
 1692SOL    MW4 6823   4.478   1.688   3.028  0.1991 -0.0458 -0.4168
 1693SOL     OW 6824   4.477   1.924   3.147 -0.4557  0.2948  0.2452
 1693SOL    HW2 6825   4.394   1.955   3.110 -0.3093 -0.5049 -0.7962
 1693SOL    HW3 6826   4.545   1.970   3.098 -0.2735 -0.0478  0.1671
 1693SOL    MW4 6827   4.475   1.934   3.135 -0.4120  0.1441  0.0973
 1694SOL     OW 6828   0.216   2.038   3.009  0.0250 -0.1646 -0.4752
 1694SOL    HW2 6829   0.218   2.128   3.040  1.1606 -0.0267 -0.9276
 1694SOL    HW3 6830   0.192   2.044   2.917 -1.4554 -0.4453 -0.1255
 1694SOL    MW4 6831   0.213   2.050   3.001 -0.0205 -0.1833 -0.4885
 1695SOL     OW 6832   0.237   2.317   3.084  0.4626 -0.5279 -0.5900
 1695SOL    HW2 6833   0.217   2.338   3.175 -1.1729  1.5376 -1.3942
 1695SOL    HW3 6834   0.303   2.380   3.058 -1.0058  0.6403 -1.5980
 1695SOL    MW4 6835   0.243   2.328   3.092  0.0531 -0.1013 -0.8290
 1696SOL     OW 6836   4.480   2.431   3.015 -0.1294 -0.2670  0.1720
 1696SOL    HW2 6837   4.473   2.502   3.078 -0.2476 -1.0479  1.0510
 1696SOL    HW3 6838   4.558   2.381   3.042 -0.5711 -1.0001  0.1195
 1696SOL    MW4 6839   4.489   2.433   3.027 -0.2036 -0.4668  0.2811
 1697SOL     OW 6840   0.006   2.671   3.142  0.3447 -0.3682  0.4951
 1697SOL    HW2 6841   0.019   2.685   3.236 -0.2433 -0.7848  0.6382
 1697SOL    HW3 6842   0.082   2.711   3.102  0.0606  0.7895  1.0859
 1697SOL    MW4 6843   0.018   2.678   3.150  0.2294 -0.2701  0.5922
 1698SOL     OW 6844   0.194   2.831   3.005 -0.4118  0.5832  0.2797
 1698SOL    HW2 6845   0.282   2.809   3.034 -0.8076  0.2333  1.2551
 1698SOL    HW3 6846   0.196   2.822   2.910  0.4600  0.0704  0.3487
 1698SOL    MW4 6847   0.206   2.827   2.996 -0.3490  0.4694  0.4175
 1699SOL     OW 6848   0.199   3.093   3.125  0.0268  0.1564  0.5395
 1699SOL    HW2 6849   0.122   3.140   3.093  0.0843  0.0622  0.2578
 1699SOL    HW3 6850   0.188   3.004   3.093  1.6949  0.8108 -2.0933
 1699SOL    MW4 6851   0.188   3.088   3.116  0.2545  0.2306  0.1547
 1700SOL     OW 6852   4.468   3.245   3.039 -0.1124 -0.8823  0.2641
 1700SOL    HW2 6853   4.397   3.185   3.062 -1.7129  0.5804 -0.7579
 1700SOL    HW3 6854   4.467   3.249   2.944  0.4034  0.2422  0.2913
 1700SOL    MW4 6855   4.459   3.238   3.030 -0.2556 -0.5410  0.1328
 1701SOL     OW 6856   4.487   3.496   3.143 -0.6206 -0.4561  0.3467
 1701SOL    HW2 6857   4.410   3.543   3.109 -0.2096 -0.5944 -0.8021
 1701SOL    HW3 6858   4.480   3.409   3.105 -0.1442 -0.6165  0.6266
 1701SOL    MW4 6859   4.476   3.491   3.133 -0.5035 -0.4957  0.2322
 1702SOL     OW 6860   0.233   3.631   3.042  0.0951 -0.0089  0.1423
 1702SOL    HW2 6861   0.219   3.718   3.080 -0.0125  0.9219 -1.9869
 1702SOL    HW3 6862   0.158   3.579   3.073 -0.4318  0.9645  0.5114
 1702SOL    MW4 6863   0.221   3.636   3.051  0.0114  0.2422 -0.0901
 1703SOL     OW 6864   0.229   3.885   3.132  0.3821  0.1056 -0.7780
 1703SOL    HW2 6865   0.236   3.879   3.227  1.1049 -2.0339 -0.9236
 1703SOL    HW3 6866   0.314   3.917   3.103  0.8263 -1.0821 -0.8159
 1703SOL    MW4 6867   0.241   3.888   3.141  0.5361 -0.3333 -0.8020
 1704SOL     OW 6868   4.473   3.995   3.066  0.1988  0.0838  0.1600
 1704SOL    HW2 6869   4.553   3.957   3.103  0.0826  0.1471  0.4760
 1704SOL    HW3 6870   4.483   3.983   2.972  0.8903  0.6940  0.1508
 1704SOL    MW4 6871   4.485   3.988   3.059  0.2747  0.1729  0.2007
 1705SOL     OW 6872   4.469   4.263   3.089 -0.3736  0.1444  0.3407
 1705SOL    HW2 6873   4.462   4.271   3.185 -2.4237 -0.1442  0.2162
 1705SOL    HW3 6874   4.458   4.170   3.072 -1.9948  0.4613 -0.3447
 1705SOL    MW4 6875   4.467   4.252   3.100 -0.8574  0.1478  0.2339
 1706SOL     OW 6876   0.235   4.388   3.040 -0.1514 -0.2618  0.0799
 1706SOL    HW2 6877   0.158   4.337   3.066  0.2404  0.0227  1.8537
 1706SOL    HW3 6878   0.214   4.478   3.063 -0.5125  0.2928 -2.3060
 1706SOL    MW4 6879   0.222   4.393   3.046 -0.1474 -0.1516 -0.0010
 1707SOL     OW 6880   0.693   4.656   3.164  0.2192  0.5303 -0.3620
 1707SOL    HW2 6881   0.708   4.565   3.140  0.0553  0.5737 -0.6272
 1707SOL    HW3 6882   0.618   4.684   3.111 -0.1086  0.6429  0.1515
 1707SOL    MW4 6883   0.685   4.648   3.154  0.1543  0.5507 -0.3290
 1708SOL     OW 6884   0.474   0.085   3.024 -0.7307 -0.0064 -0.1580
 1708SOL    HW2 6885   0.471   0.179   3.042 -0.1865  0.0327 -0.2399
 1708SOL    HW3 6886   0.394   0.050   3.062  0.1822  0.1417  1.9733
 1708SOL    MW4 6887   0.463   0.093   3.031 -0.5384  0.0183  0.1123
 1709SOL     OW 6888   0.430   0.345   3.099 -0.4241 -0.1092 -0.0261
 1709SOL    HW2 6889   0.422   0.362   3.193 -0.5653 -1.3185  0.1865
 1709SOL    HW3 6890   0.501   0.403   3.070 -0.4371  0.3238  0.8025
 1709SOL    MW4 6891   0.438   0.355   3.107 -0.4444 -0.2116  0.1111
 1710SOL     OW 6892   0.640   0.498   3.000 -0.1114  0.1843  0.5542
 1710SOL    HW2 6893   0.720   0.459   3.035  0.8405  1.0047 -0.6361
 1710SOL    HW3 6894   0.650   0.592   3.015 -0.0372  0.4703 -1.1496
 1710SOL    MW4 6895   0.652   0.505   3.006  0.0240  0.3303  0.1724
 1711SOL     OW 6896   0.665   0.759   3.082  0.0339  0.3670  0.0022
 1711SOL    HW2 6897   0.651   0.746   3.176 -1.4652  2.6297  0.1411
 1711SOL    HW3 6898   0.587   0.806   3.052  0.8807  0.4469 -2.2145
 1711SOL    MW4 6899   0.653   0.764   3.090 -0.0522  0.6761 -0.2720
 1712SOL     OW 6900   0.422   0.850   2.997  0.6199 -0.3231  0.2665
 1712SOL    HW2 6901   0.348   0.792   3.015 -1.0853  2.0848  1.2896
 1712SOL    HW3 6902   0.409   0.877   2.905 -0.5711  1.1262  0.8301
 1712SOL    MW4 6903   0.410   0.846   2.987  0.2378  0.1858  0.4759
 1713SOL     OW 6904   0.464   1.128   3.084 -0.4082  0.1942  0.5195
 1713SOL    HW2 6905   0.451   1.033   3.084  0.0916  0.1144  1.1755
 1713SOL    HW3 6906   0.388   1.163   3.039 -0.3169 -0.5549 -0.2305
 1713SOL    MW4 6907   0.452   1.120   3.078 -0.3302  0.0849  0.5071
 1714SOL     OW 6908   0.681   1.275   3.014 -0.2265 -0.3055 -0.0167
 1714SOL    HW2 6909   0.759   1.228   3.043 -0.2976 -0.1656  0.3984
 1714SOL    HW3 6910   0.609   1.215   3.032 -0.3641  0.1340  0.9204
 1714SOL    MW4 6911   0.682   1.261   3.020 -0.2540 -0.2290  0.1614
 1715SOL     OW 6912   0.655   1.519   3.123 -0.1322 -0.0471  0.3609
 1715SOL    HW2 6913   0.666   1.512   3.218 -0.4879 -0.4505  0.3714
 1715SOL    HW3 6914   0.648   1.429   3.093 -1.3739  0.1322  0.1051
 1715SOL    MW4 6915   0.656   1.506   3.132 -0.3430 -0.0767  0.3285
 1716SOL     OW 6916   0.426   1.640   2.963  0.0513 -0.2279 -0.5816
 1716SOL    HW2 6917   0.500   1.602   3.011 -0.4018  0.2902  0.5443
 1716SOL    HW3 6918   0.349   1.596   3.000 -0.2646 -0.2587 -1.2632
 1716SOL    MW4 6919   0.426   1.629   2.975 -0.0502 -0.1636 -0.5231
 1717SOL     OW 6920   0.423   1.877   3.121  0.0372  0.4046 -0.3427
 1717SOL    HW2 6921   0.420   1.792   3.077  0.7756  0.5338 -0.6360
 1717SOL    HW3 6922   0.353   1.928   3.080 -0.7146 -0.2162  0.1545
 1717SOL    MW4 6923   0.413   1.872   3.110  0.0354  0.3397 -0.3157
 1718SOL     OW 6924   0.664   2.034   3.020  0.0490 -0.1645 -0.3371
 1718SOL    HW2 6925   0.736   1.982   3.054 -0.5055  0.4085  1.8012
 1718SOL    HW3 6926   0.589   2.008   3.073 -0.5850  1.6108 -0.3343
 1718SOL    MW4 6927   0.664   2.024   3.031 -0.1078  0.1452 -0.0544
 1719SOL     OW 6928   0.691   2.305   3.094 -0.1426 -0.0872 -0.0371
 1719SOL    HW2 6929   0.681   2.317   3.188 -1.8735  0.9938 -0.3213
 1719SOL    HW3 6930   0.681   2.211   3.080  1.2989 -0.3943  0.9771
 1719SOL    MW4 6931   0.688   2.294   3.105 -0.1807  0.0150  0.0591
 1720SOL     OW 6932   0.470   2.469   3.013 -0.0696  0.3989  0.9186
 1720SOL    HW2 6933   0.541   2.409   3.039  0.4951  1.1686  1.1735
 1720SOL    HW3 6934   0.467   2.462   2.918 -0.2609 -0.3163  0.9708
 1720SOL    MW4 6935   0.479   2.460   3.004 -0.0203  0.4063  0.9592
 1721SOL     OW 6936   0.430   2.732   3.124  0.0521 -0.0178  0.1234
 1721SOL    HW2 6937   0.518   2.770   3.119 -0.1860  0.4143 -1.1707
 1721SOL    HW3 6938   0.438   2.647   3.081 -0.1415 -0.0003  0.0494
 1721SOL    MW4 6939   0.443   2.726   3.118 -0.0049  0.0415 -0.0572
 1722SOL     OW 6940   0.671   2.824   3.062 -0.5620  0.2256 -0.0868
 1722SOL    HW2 6941   0.750   2.794   3.107 -0.7674  1.2092  0.9530
 1722SOL    HW3 6942   0.671   2.919   3.073 -0.1986  0.5750 -2.8864
 1722SOL    MW4 6943   0.681   2.833   3.069 -0.5412  0.4015 -0.3192
 1723SOL     OW 6944   0.679   3.100   3.147  0.2242  0.0408 -0.5111
 1723SOL    HW2 6945   0.684   3.110   3.242  1.3944 -0.2774 -0.5375
 1723SOL    HW3 6946   0.601   3.150   3.122 -0.0842  0.1306  0.6128
 1723SOL    MW4 6947   0.669   3.108   3.156  0.3379  0.0105 -0.3664
 1724SOL     OW 6948   0.452   3.204   3.035  0.2617  0.6519 -0.6620
 1724SOL    HW2 6949   0.451   3.295   3.066  1.0659  0.7204 -0.8080
 1724SOL    HW3 6950   0.369   3.167   3.065  0.1825  1.2749 -0.0995
 1724SOL    MW4 6951   0.441   3.211   3.043  0.3574  0.7432 -0.6070
 1725SOL     OW 6952   0.443   3.464   3.149  0.0169 -0.0561  0.0016
 1725SOL    HW2 6953   0.442   3.472   3.245  0.4369  0.5033 -0.0453
 1725SOL    HW3 6954   0.369   3.517   3.120  0.1095  0.0640 -0.0122
 1725SOL    MW4 6955   0.433   3.472   3.158  0.0845  0.0336 -0.0064
 1726SOL     OW 6956   0.667   3.588   3.033  0.1996 -0.4999 -0.4129
 1726SOL    HW2 6957   0.749   3.550   3.063  0.6172  0.3634 -0.4476
 1726SOL    HW3 6958   0.602   3.560   3.097  0.6458 -0.6275 -0.0143
 1726SOL    MW4 6959   0.669   3.580   3.045  0.3135 -0.4027 -0.3650
 1727SOL     OW 6960   0.693   3.857   3.100 -0.6006  0.3981 -0.1191
 1727SOL    HW2 6961   0.702   3.850   3.195  0.6399 -1.3396 -0.3437
 1727SOL    HW3 6962   0.679   3.767   3.070 -1.7006  1.0110 -1.5286
 1727SOL    MW4 6963   0.692   3.844   3.108 -0.5820  0.2499 -0.3350
 1728SOL     OW 6964   0.460   4.006   3.040 -0.3116 -0.2444  0.2514
 1728SOL    HW2 6965   0.547   3.973   3.065 -0.4396 -1.1498 -0.4736
 1728SOL    HW3 6966   0.467   4.025   2.947 -1.1045 -1.0345  0.0209
 1728SOL    MW4 6967   0.473   4.004   3.031 -0.4331 -0.4683  0.1254
 1729SOL     OW 6968   0.464   4.273   3.134  0.4399 -0.0546 -0.1163
 1729SOL    HW2 6969   0.456   4.184   3.098  0.4163  0.8253 -2.3558
 1729SOL    HW3 6970   0.384   4.317   3.106  1.3455  1.2421 -0.6831
 1729SOL    MW4 6971   0.453   4.267   3.125  0.5563  0.2327 -0.4864
 1730SOL     OW 6972   0.708   4.394   3.059 -0.2940 -0.5546  0.2847
 1730SOL    HW2 6973   0.623   4.354   3.078 -0.3624 -0.1228  0.8901
 1730SOL    HW3 6974   0.709   4.404   2.964 -1.6426  1.0474  0.4176
 1730SOL    MW4 6975   0.697   4.390   3.049 -0.4810 -0.2866  0.3822
 1731SOL     OW 6976   1.114   4.631   3.171  0.4391 -0.1251 -0.3027
 1731SOL    HW2 6977   1.199   4.662   3.140 -0.4787  1.8908 -0.8996
 1731SOL    HW3 6978   1.050   4.688   3.128 -1.2430 -1.7974 -0.0938
 1731SOL    MW4 6979   1.117   4.643   3.161  0.0961 -0.0796 -0.3538
 1732SOL     OW 6980   0.913   0.100   3.042  0.1263 -0.3995  0.2578
 1732SOL    HW2 6981   0.912   0.194   3.060 -1.3540 -0.3527 -0.0606
 1732SOL    HW3 6982   0.841   0.065   3.094  0.1372 -1.2472 -0.2964
 1732SOL    MW4 6983   0.904   0.108   3.051 -0.0676 -0.5052  0.1428
 1733SOL     OW 6984   0.869   0.367   3.091  0.7299  0.1508  0.2422
 1733SOL    HW2 6985   0.880   0.363   3.186  0.4418  2.2085  0.3972
 1733SOL    HW3 6986   0.945   0.416   3.060  0.9307 -0.6874 -0.6232
 1733SOL    MW4 6987   0.881   0.373   3.099  0.7184  0.3117  0.1485
 1734SOL     OW 6988   1.104   0.499   3.008  0.2996  0.0111  0.0227
 1734SOL    HW2 6989   1.178   0.445   3.035  0.3830  0.0374 -0.1533
 1734SOL    HW3 6990   1.100   0.489   2.913 -0.9779 -1.3532  0.1910
 1734SOL    MW4 6991   1.113   0.491   2.999  0.1422 -0.1654  0.0215
 1735SOL     OW 6992   1.129   0.754   3.084  0.2198 -0.6126 -0.1157
 1735SOL    HW2 6993   1.154   0.751   3.176 -0.2476  1.0261  0.0680
 1735SOL    HW3 6994   1.119   0.662   3.059 -0.5663 -1.0387  1.7129
 1735SOL    MW4 6995   1.131   0.741   3.093  0.0546 -0.4527  0.1502
 1736SOL     OW 6996   0.907   0.899   3.036 -0.0481 -0.0631 -0.5056
 1736SOL    HW2 6997   0.982   0.845   3.063 -0.2518 -0.3666 -0.5348
 1736SOL    HW3 6998   0.831   0.850   3.067 -0.3117 -0.6190 -1.9397
 1736SOL    MW4 6999   0.907   0.885   3.043 -0.1098 -0.1764 -0.6986
 1737SOL     OW 7000   0.890   1.161   3.153  0.1927  0.1839  0.0935
 1737SOL    HW2 7001   0.971   1.200   3.121  0.3987 -1.2166 -1.1399
 1737SOL    HW3 7002   0.889   1.073   3.116 -1.6240 -0.0111  0.5356
 1737SOL    MW4 7003   0.900   1.155   3.144 -0.0197 -0.0266 -0.0110
 1738SOL     OW 7004   1.116   1.254   3.047 -0.2349 -0.1199 -0.4140
 1738SOL    HW2 7005   1.189   1.198   3.073  0.3478  0.2717 -1.1930
 1738SOL    HW3 7006   1.130   1.270   2.954 -0.4367  1.2572 -0.2135
 1738SOL    MW4 7007   1.127   1.249   3.038 -0.1848  0.1136 -0.4904
 1739SOL     OW 7008   1.099   1.526   3.125  0.1628 -0.6515  0.1923
 1739SOL    HW2 7009   1.178   1.571   3.096 -0.1984  0.0207  0.2127
 1739SOL    HW3 7010   1.107   1.437   3.092  0.4310 -0.2939 -0.7209
 1739SOL    MW4 7011   1.110   1.520   3.117  0.1506 -0.5157  0.0744
 1740SOL     OW 7012   0.878   1.657   3.014 -0.2263  0.1152  0.1500
 1740SOL    HW2 7013   0.952   1.613   3.057 -0.2825  0.7387  0.9108
 1740SOL    HW3 7014   0.801   1.613   3.050 -0.2490 -0.0274 -0.0715
 1740SOL    MW4 7015   0.878   1.645   3.025 -0.2367  0.1788  0.2210
 1741SOL     OW 7016   0.873   1.901   3.130 -0.1212  0.1505  0.2445
 1741SOL    HW2 7017   0.875   1.884   3.224 -2.8082  0.5267  0.4036
 1741SOL    HW3 7018   0.878   1.814   3.090  0.9825 -0.0128  0.7165
 1741SOL    MW4 7019   0.874   1.887   3.137 -0.3300  0.1787  0.3278
 1742SOL     OW 7020   1.108   2.029   3.044 -0.4540 -0.2968 -0.2770
 1742SOL    HW2 7021   1.022   1.998   3.072 -0.9418  1.2316 -0.0545
 1742SOL    HW3 7022   1.106   2.023   2.949 -2.0110  2.7574 -0.4931
 1742SOL    MW4 7023   1.096   2.024   3.035 -0.7238  0.3080 -0.2761
 1743SOL     OW 7024   1.084   2.285   3.149  0.1411 -0.4597  0.0208
 1743SOL    HW2 7025   1.029   2.325   3.082  0.1144 -0.3565  0.1042
 1743SOL    HW3 7026   1.098   2.195   3.118 -1.5194 -1.0320  0.8749
 1743SOL    MW4 7027   1.079   2.278   3.136 -0.0815 -0.5217  0.1447
 1744SOL     OW 7028   0.892   2.472   3.031 -0.3448  0.1289 -0.4517
 1744SOL    HW2 7029   0.821   2.413   3.056  0.9313 -1.5495 -0.7574
 1744SOL    HW3 7030   0.897   2.466   2.936  1.3118 -1.0731 -0.3055
 1744SOL    MW4 7031   0.884   2.464   3.022  0.0421 -0.2513 -0.4728
 1745SOL     OW 7032   0.904   2.714   3.156 -0.1305  0.0554  0.3752
 1745SOL    HW2 7033   0.900   2.697   3.250 -2.0212 -1.6183  0.0289
 1745SOL    HW3 7034   0.905   2.627   3.116 -0.8477  0.7546 -1.2088
 1745SOL    MW4 7035   0.904   2.700   3.163 -0.4745 -0.0734  0.1204
 1746SOL     OW 7036   1.137   2.841   3.023  0.2766  0.6569 -0.4527
 1746SOL    HW2 7037   1.157   2.926   3.062  1.4739  0.4015 -0.5052
 1746SOL    HW3 7038   1.063   2.807   3.074 -0.6444  2.0178 -0.8601
 1746SOL    MW4 7039   1.130   2.847   3.035  0.3130  0.8028 -0.5133
 1747SOL     OW 7040   1.139   3.072   3.160  0.0810 -0.3746 -0.1220
 1747SOL    HW2 7041   1.210   3.124   3.122  0.8602 -0.5802  1.0275
 1747SOL    HW3 7042   1.059   3.114   3.129  0.6950  1.3332  0.5523
 1747SOL    MW4 7043   1.138   3.084   3.151  0.2649 -0.1764  0.1187
 1748SOL     OW 7044   0.922   3.184   3.043  0.4628 -0.0697 -0.4455
 1748SOL    HW2 7045   0.844   3.137   3.074  1.5092 -1.8286 -0.4386
 1748SOL    HW3 7046   0.914   3.183   2.948  0.3388  0.0115 -0.4368
 1748SOL    MW4 7047   0.910   3.178   3.035  0.5845 -0.2913 -0.4437
 1749SOL     OW 7048   0.904   3.461   3.128 -0.0903  0.1377 -0.4268
 1749SOL    HW2 7049   0.971   3.510   3.081  0.6112  0.5627  0.9847
 1749SOL    HW3 7050   0.919   3.369   3.104 -1.0207  0.5041 -2.5948
 1749SOL    MW4 7051   0.915   3.455   3.118 -0.1205  0.2422 -0.5269
 1750SOL     OW 7052   1.097   3.610   3.022 -0.0400 -0.0311 -0.6079
 1750SOL    HW2 7053   1.170   3.560   3.057 -0.2995 -0.6089 -0.8772
 1750SOL    HW3 7054   1.105   3.697   3.061  1.0376  0.0411 -0.9833
 1750SOL    MW4 7055   1.107   3.615   3.032  0.0679 -0.0975 -0.6928
 1751SOL     OW 7056   1.139   3.878   3.147  0.0252  0.4055  0.4133
 1751SOL    HW2 7057   1.119   3.861   3.239 -0.4385  2.3490  0.7043
 1751SOL    HW3 7058   1.060   3.920   3.113 -0.1036 -1.0103 -1.0907
 1751SOL    MW4 7059   1.126   3.882   3.154 -0.0530  0.4749  0.2532
 1752SOL     OW 7060   0.914   4.004   3.041  0.1105  0.1290  0.1291
 1752SOL    HW2 7061   0.831   3.966   3.072  0.5348 -1.1862 -0.2970
 1752SOL    HW3 7062   0.903   4.011   2.946  0.2019  0.6733  0.1586
 1752SOL    MW4 7063   0.901   4.000   3.033  0.1785  0.0274  0.0768
 1753SOL     OW 7064   0.911   4.249   3.154 -0.2066 -0.0906 -0.1736
 1753SOL    HW2 7065   0.911   4.166   3.108  1.3924  1.1328 -2.4328
 1753SOL    HW3 7066   0.831   4.293   3.123 -1.0919 -0.7728  1.0775
 1753SOL    MW4 7067   0.900   4.244   3.144 -0.1124 -0.0186 -0.3066
 1754SOL     OW 7068   1.104   4.383   3.032 -0.1856 -0.0210  0.2546
 1754SOL    HW2 7069   1.036   4.322   3.062  2.7288 -2.9915  1.1843
 1754SOL    HW3 7070   1.090   4.463   3.082 -1.6409 -1.3588  2.0291
 1754SOL    MW4 7071   1.093   4.385   3.042  0.0069 -0.5894  0.6113
 1755SOL     OW 7072   1.609   4.654   3.117 -0.1703 -0.0583  0.0994
 1755SOL    HW2 7073   1.604   4.669   3.211  0.6173  0.9034  0.0093
 1755SOL    HW3 7074   1.536   4.704   3.080  0.8832  1.4933  0.0281
 1755SOL    MW4 7075   1.599   4.663   3.124  0.0726  0.2733  0.0782
 1756SOL     OW 7076   1.353   0.078   3.034  0.5971  0.3513 -0.0503
 1756SOL    HW2 7077   1.322   0.166   3.055  0.2026 -0.1197  1.3987
 1756SOL    HW3 7078   1.346   0.072   2.938  0.3025  1.7631 -0.1217
 1756SOL    MW4 7079   1.348   0.089   3.024  0.5063  0.4755  0.1316
 1757SOL     OW 7080   1.298   0.322   3.122  0.8617 -0.0587  0.2075
 1757SOL    HW2 7081   1.279   0.338   3.215  1.3359 -0.4708  0.3802
 1757SOL    HW3 7082   1.384   0.362   3.108  0.2173  1.1407 -0.3830
 1757SOL    MW4 7083   1.307   0.329   3.133  0.8394  0.0452  0.1526
 1758SOL     OW 7084   1.550   0.441   3.016  0.2120  0.4161 -0.0714
 1758SOL    HW2 7085   1.546   0.535   3.034  0.5839  0.3230  0.5375
 1758SOL    HW3 7086   1.563   0.435   2.922  1.0676  0.9986  0.0064
 1758SOL    MW4 7087   1.551   0.453   3.006  0.3741  0.4807  0.0193
 1759SOL     OW 7088   1.534   0.719   3.070 -0.5314  0.0361 -0.4839
 1759SOL    HW2 7089   1.536   0.737   3.164  0.5221  0.5902 -0.5998
 1759SOL    HW3 7090   1.478   0.788   3.033  1.3792  1.6014 -0.5972
 1759SOL    MW4 7091   1.527   0.731   3.077 -0.1403  0.3157 -0.5143
 1760SOL     OW 7092   1.338   0.892   2.978  0.2075 -0.0058  0.1977
 1760SOL    HW2 7093   1.333   0.976   3.025 -1.7508  0.8049 -1.3924
 1760SOL    HW3 7094   1.267   0.840   3.015  0.0983 -0.1874 -0.2684
 1760SOL    MW4 7095   1.328   0.896   2.989 -0.0652  0.0772 -0.0737
 1761SOL     OW 7096   1.341   1.131   3.131  0.2435  0.5505 -0.1234
 1761SOL    HW2 7097   1.349   1.137   3.226  0.7622 -0.6266 -0.0812
 1761SOL    HW3 7098   1.421   1.171   3.097  0.0024  1.0801 -0.0724
 1761SOL    MW4 7099   1.352   1.137   3.139  0.2801  0.4649 -0.1109
 1762SOL     OW 7100   1.569   1.248   3.010 -0.0279  0.0607 -0.0962
 1762SOL    HW2 7101   1.642   1.191   3.036  0.1762  0.0571 -0.6648
 1762SOL    HW3 7102   1.582   1.328   3.060 -0.0112 -0.1922  0.3069
 1762SOL    MW4 7103   1.581   1.251   3.020  0.0013  0.0268 -0.1180
 1763SOL     OW 7104   1.565   1.512   3.107 -0.3816  0.4406  0.2194
 1763SOL    HW2 7105   1.641   1.547   3.061  0.4686 -0.8106  0.6506
 1763SOL    HW3 7106   1.490   1.541   3.055  0.4194  1.2232 -0.5127
 1763SOL    MW4 7107   1.565   1.520   3.094 -0.1638  0.3787  0.1798
 1764SOL     OW 7108   1.338   1.657   3.008  0.0566 -0.5426 -0.1970
 1764SOL    HW2 7109   1.347   1.745   3.046 -0.0959 -0.5002 -0.2607
 1764SOL    HW3 7110   1.358   1.669   2.915  1.0920 -0.7632 -0.0135
 1764SOL    MW4 7111   1.342   1.670   3.000  0.1731 -0.5660 -0.1812
 1765SOL     OW 7112   1.342   1.915   3.122 -0.1552 -0.4824 -0.2512
 1765SOL    HW2 7113   1.349   1.915   3.218  0.2701 -0.9338 -0.2801
 1765SOL    HW3 7114   1.260   1.960   3.104  0.0126  0.0604  0.3120
 1765SOL    MW4 7115   1.332   1.921   3.132 -0.0769 -0.4704 -0.1807
 1766SOL     OW 7116   1.560   2.041   3.039 -0.1508  0.0538 -0.6271
 1766SOL    HW2 7117   1.493   1.978   3.066  0.1732  0.1972  0.5507
 1766SOL    HW3 7118   1.552   2.046   2.944 -0.5855 -1.3124 -0.6672
 1766SOL    MW4 7119   1.550   2.034   3.030 -0.1655 -0.1075 -0.4768
 1767SOL     OW 7120   1.525   2.277   3.175 -0.4453 -0.2867 -0.1384
 1767SOL    HW2 7121   1.450   2.329   3.147 -0.6083 -0.8394 -0.7409
 1767SOL    HW3 7122   1.518   2.196   3.125 -0.5539 -1.1666  1.2696
 1767SOL    MW4 7123   1.514   2.273   3.165 -0.4811 -0.4759 -0.0322
 1768SOL     OW 7124   1.305   2.430   3.096  0.5691  0.0927 -0.0153
 1768SOL    HW2 7125   1.226   2.378   3.107 -0.0777  0.9158 -0.6931
 1768SOL    HW3 7126   1.314   2.440   3.001  0.3668  1.6865  0.1215
 1768SOL    MW4 7127   1.296   2.424   3.085  0.4572  0.4117 -0.0868
 1769SOL     OW 7128   1.338   2.699   3.166 -0.3375 -0.2320 -0.9434
 1769SOL    HW2 7129   1.338   2.605   3.147  0.3747 -0.6788  1.2114
 1769SOL    HW3 7130   1.270   2.734   3.108 -1.1645 -2.1678 -1.2092
 1769SOL    MW4 7131   1.329   2.691   3.156 -0.3526 -0.5465 -0.6940
 1770SOL     OW 7132   1.544   2.816   3.017 -0.3630 -0.2148 -0.1339
 1770SOL    HW2 7133   1.626   2.768   3.021  0.5265  1.3135  0.6655
 1770SOL    HW3 7134   1.481   2.759   3.061  0.5074 -0.9427  0.1896
 1770SOL    MW4 7135   1.547   2.802   3.024 -0.1308 -0.1094  0.0143
 1771SOL     OW 7136   1.601   3.084   3.102 -0.4805  0.2541 -0.1151
 1771SOL    HW2 7137   1.598   3.083   3.198  1.0912  0.7205 -0.0504
 1771SOL    HW3 7138   1.575   2.995   3.077 -0.0792 -0.1285  0.7779
 1771SOL    MW4 7139   1.597   3.072   3.111 -0.2202  0.2651  0.0117
 1772SOL     OW 7140   1.357   3.209   3.048  0.2969  0.4755 -0.3103
 1772SOL    HW2 7141   1.445   3.175   3.061  0.4611  0.4124 -1.5869
 1772SOL    HW3 7142   1.353   3.234   2.956 -1.0131  0.5105 -0.2621
 1772SOL    MW4 7143   1.368   3.208   3.038  0.1457  0.4721 -0.4725
 1773SOL     OW 7144   1.342   3.489   3.099  0.2959 -0.3793 -0.0096
 1773SOL    HW2 7145   1.358   3.499   3.193 -1.7370  0.8749  0.2405
 1773SOL    HW3 7146   1.350   3.394   3.083 -0.4665 -0.7394  1.6491
 1773SOL    MW4 7147   1.345   3.477   3.109 -0.0728 -0.2611  0.2422
 1774SOL     OW 7148   1.579   3.605   3.014 -0.2535  0.1848 -0.0424
 1774SOL    HW2 7149   1.489   3.579   3.034  0.2979 -2.5716 -0.8670
 1774SOL    HW3 7150   1.578   3.626   2.921  0.2196 -1.1644 -0.3609
 1774SOL    MW4 7151   1.567   3.604   3.004 -0.1185 -0.3569 -0.1931
 1775SOL     OW 7152   1.596   3.856   3.149 -0.6331  0.0900 -0.6799
 1775SOL    HW2 7153   1.669   3.909   3.117 -0.0144  0.6207  1.4960
 1775SOL    HW3 7154   1.609   3.771   3.107  1.4640  0.0725 -0.1009
 1775SOL    MW4 7155   1.608   3.851   3.139 -0.2749  0.1576 -0.3161
 1776SOL     OW 7156   1.362   3.958   3.018  0.0054 -0.3752  0.0706
 1776SOL    HW2 7157   1.445   3.927   3.055 -0.0150  1.3782  1.6369
 1776SOL    HW3 7158   1.296   3.931   3.081 -0.2693  0.8404  0.3118
 1776SOL    MW4 7159   1.364   3.950   3.031 -0.0336  0.0165  0.3095
 1777SOL     OW 7160   1.357   4.247   3.107  0.1791  0.0898  0.1013
 1777SOL    HW2 7161   1.347   4.172   3.047  0.3357  0.5794 -0.5431
 1777SOL    HW3 7162   1.268   4.279   3.121  0.0012 -0.8537  1.2104
 1777SOL    MW4 7163   1.344   4.241   3.101  0.1763  0.0305  0.1628
 1778SOL     OW 7164   1.576   4.399   3.026  0.3595  0.1243  0.5561
 1778SOL    HW2 7165   1.494   4.365   3.061 -0.0108 -0.2605 -0.6458
 1778SOL    HW3 7166   1.577   4.492   3.051 -0.5360  0.1754  0.4230
 1778SOL    MW4 7167   1.566   4.407   3.034  0.1924  0.0801  0.3800
 1779SOL     OW 7168   2.089   4.654   3.126  0.5209  0.0499 -0.4467
 1779SOL    HW2 7169   2.080   4.671   3.220  0.3475 -0.8060 -0.3060
 1779SOL    HW3 7170   2.014   4.698   3.086  0.4141  0.1396 -0.1517
 1779SOL    MW4 7171   2.078   4.662   3.133  0.4840 -0.0515 -0.3891
 1780SOL     OW 7172   1.856   0.070   3.011  0.3362  0.6451  0.6332
 1780SOL    HW2 7173   1.774   0.025   3.029  1.4857 -1.2590  1.2301
 1780SOL    HW3 7174   1.848   0.098   2.920 -0.1514 -1.3697  0.0265
 1780SOL    MW4 7175   1.844   0.068   3.001  0.4236  0.1280  0.6320
 1781SOL     OW 7176   1.791   0.348   3.137 -0.1048  0.1218  0.3069
 1781SOL    HW2 7177   1.805   0.263   3.097  0.6278  0.2596  0.2700
 1781SOL    HW3 7178   1.707   0.377   3.102  0.0739 -0.1841 -0.3851
 1781SOL    MW4 7179   1.782   0.341   3.127  0.0155  0.0996  0.2108
 1782SOL     OW 7180   2.025   0.466   3.043  0.1481 -0.4249  0.3226
 1782SOL    HW2 7181   1.939   0.428   3.060  0.6648 -1.3285  1.0187
 1782SOL    HW3 7182   2.027   0.479   2.948  0.0646 -2.4708  0.0066
 1782SOL    MW4 7183   2.014   0.462   3.033  0.2050 -0.8141  0.3729
 1783SOL     OW 7184   2.052   0.720   3.117  0.3293  0.4618  0.0768
 1783SOL    HW2 7185   1.966   0.756   3.097  0.0855  0.7722  1.6066
 1783SOL    HW3 7186   2.043   0.626   3.100 -0.7354  0.2840  1.5160
 1783SOL    MW4 7187   2.040   0.712   3.112  0.1566  0.4793  0.4685
 1784SOL     OW 7188   1.803   0.823   3.038 -0.3252 -0.1486  0.0843
 1784SOL    HW2 7189   1.715   0.796   3.062  0.2134 -1.6937  0.4280
 1784SOL    HW3 7190   1.804   0.819   2.943 -0.8529  0.6037  0.0513
 1784SOL    MW4 7191   1.792   0.819   3.029 -0.3237 -0.2533  0.1252
 1785SOL     OW 7192   1.800   1.099   3.102 -0.4907  0.5012  0.0166
 1785SOL    HW2 7193   1.797   1.092   3.197  0.4456  0.7699  0.0701
 1785SOL    HW3 7194   1.801   1.009   3.071  1.1034  0.3916  0.3386
 1785SOL    MW4 7195   1.800   1.086   3.110 -0.1568  0.5223  0.0663
 1786SOL     OW 7196   1.998   1.275   3.015  0.1450 -0.5610 -0.4200
 1786SOL    HW2 7197   2.075   1.233   3.053 -0.7957  0.6512  2.9745
 1786SOL    HW3 7198   1.924   1.224   3.048 -0.6313 -0.8294 -2.4892
 1786SOL    MW4 7199   1.998   1.263   3.024 -0.0817 -0.4364 -0.2451
 1787SOL     OW 7200   1.989   1.543   3.094  0.3119 -0.0496 -0.0283
 1787SOL    HW2 7201   1.987   1.533   3.189 -0.2927 -0.8943 -0.1340
 1787SOL    HW3 7202   1.989   1.454   3.060  0.9670  0.2439 -0.8192
 1787SOL    MW4 7203   1.989   1.530   3.102  0.3185 -0.1223 -0.1466
 1788SOL     OW 7204   1.764   1.662   2.986  0.3694  0.1609 -0.5462
 1788SOL    HW2 7205   1.769   1.751   3.021  1.4644 -0.0954 -0.0473
 1788SOL    HW3 7206   1.838   1.616   3.025 -2.3614 -2.0637  2.3644
 1788SOL    MW4 7207   1.774   1.667   2.996  0.1537 -0.1664 -0.0963
 1789SOL     OW 7208   1.776   1.890   3.128 -0.2581  0.1944  0.5136
 1789SOL    HW2 7209   1.850   1.935   3.088 -0.3471  1.0344  1.2830
 1789SOL    HW3 7210   1.699   1.940   3.099 -0.5898 -1.0735 -0.8417
 1789SOL    MW4 7211   1.775   1.903   3.119 -0.3136  0.1378  0.4363
 1790SOL     OW 7212   2.003   1.992   2.994 -0.3580 -0.0089 -0.0937
 1790SOL    HW2 7213   2.077   1.944   3.032  0.7159  0.0316 -2.0688
 1790SOL    HW3 7214   2.002   2.075   3.042  1.2605  0.2236 -0.4117
 1790SOL    MW4 7215   2.013   1.997   3.005 -0.0026  0.0271 -0.3960
 1791SOL     OW 7216   2.006   2.254   3.104  0.2911  1.0289 -0.0011
 1791SOL    HW2 7217   2.074   2.318   3.085 -0.6297  1.7420 -0.9476
 1791SOL    HW3 7218   1.928   2.288   3.060 -0.2287 -0.6873 -0.4601
 1791SOL    MW4 7219   2.005   2.267   3.096  0.1013  0.8965 -0.1862
 1792SOL     OW 7220   1.775   2.384   3.032 -0.1535  0.2646  0.0459
 1792SOL    HW2 7221   1.764   2.476   3.055 -1.8732  0.5678 -1.8759
 1792SOL    HW3 7222   1.706   2.338   3.080  1.1203 -0.1528  1.5367
 1792SOL    MW4 7223   1.765   2.390   3.041 -0.2122  0.2496 -0.0110
 1793SOL     OW 7224   1.754   2.655   3.103  0.1659 -0.1698 -0.2624
 1793SOL    HW2 7225   1.728   2.685   3.190 -0.8832  0.4435 -0.7634
 1793SOL    HW3 7226   1.834   2.703   3.083  0.5408 -0.5008  0.4713
 1793SOL    MW4 7227   1.761   2.666   3.112  0.0769 -0.1326 -0.2315
 1794SOL     OW 7228   1.958   2.839   3.014  0.0016  0.0027  0.4901
 1794SOL    HW2 7229   1.990   2.921   3.051 -1.9051 -0.0963  2.4756
 1794SOL    HW3 7230   1.967   2.850   2.920 -0.6070  2.6498  0.7107
 1794SOL    MW4 7231   1.964   2.851   3.007 -0.3302  0.3388  0.7813
 1795SOL     OW 7232   2.025   3.091   3.141  0.2371  0.4417  0.0893
 1795SOL    HW2 7233   2.005   3.081   3.234 -1.2213 -0.4349 -0.3031
 1795SOL    HW3 7234   1.960   3.154   3.109  0.4251  0.3679 -0.4468
 1795SOL    MW4 7235   2.014   3.098   3.149  0.0694  0.3161 -0.0331
 1796SOL     OW 7236   1.827   3.224   3.018 -0.2962  0.7287  0.1951
 1796SOL    HW2 7237   1.756   3.167   3.049  0.1081  0.7178  1.0995
 1796SOL    HW3 7238   1.815   3.226   2.923  0.1747 -1.5455  0.0429
 1796SOL    MW4 7239   1.816   3.217   3.009 -0.1806  0.4272  0.2942
 1797SOL     OW 7240   1.807   3.482   3.111 -0.3725  0.3732  0.0829
 1797SOL    HW2 7241   1.809   3.391   3.081  0.1098  1.1646 -2.3472
 1797SOL    HW3 7242   1.723   3.515   3.080 -0.2722  0.9527  0.4256
 1797SOL    MW4 7243   1.796   3.474   3.103 -0.2955  0.5541 -0.1922
 1798SOL     OW 7244   2.033   3.614   3.038 -0.2610 -0.2706 -0.1217
 1798SOL    HW2 7245   2.019   3.697   3.083 -0.3666  0.2423 -1.0760
 1798SOL    HW3 7246   1.954   3.563   3.056  0.0555 -0.3751  0.9375
 1798SOL    MW4 7247   2.021   3.618   3.046 -0.2329 -0.2170 -0.1078
 1799SOL     OW 7248   1.983   3.870   3.139 -0.7554 -0.0534 -0.0031
 1799SOL    HW2 7249   1.995   3.896   3.230 -1.3192  0.7941 -0.1641
 1799SOL    HW3 7250   1.919   3.933   3.104 -1.1796 -0.8867 -0.7468
 1799SOL    MW4 7251   1.976   3.882   3.146 -0.8858 -0.0515 -0.1225
 1800SOL     OW 7252   1.788   4.035   3.067  0.2629 -0.6958  0.7248
 1800SOL    HW2 7253   1.793   4.129   3.087  1.1547 -0.9376  1.6251
 1800SOL    HW3 7254   1.775   4.032   2.972 -0.7316  0.3622  0.8141
 1800SOL    MW4 7255   1.787   4.047   3.057  0.2494 -0.5879  0.8552
 1801SOL     OW 7256   1.799   4.303   3.118 -0.0490  0.3745 -0.0363
 1801SOL    HW2 7257   1.873   4.330   3.063 -0.3056 -0.4493 -0.8035
 1801SOL    HW3 7258   1.724   4.349   3.079 -0.3121 -0.5963 -0.6865
 1801SOL    MW4 7259   1.799   4.313   3.105 -0.1175  0.1383 -0.2232
 1802SOL     OW 7260   2.024   4.407   2.990  0.6560 -0.1050  0.3321
 1802SOL    HW2 7261   2.014   4.486   3.042 -1.4570  0.5185 -0.9502
 1802SOL    HW3 7262   2.040   4.438   2.901 -0.4603 -1.0853 -0.2317
 1802SOL    MW4 7263   2.025   4.421   2.985  0.2301 -0.1526  0.0885
 1803SOL     OW 7264   2.538   4.645   3.140 -0.0489  0.0290 -0.5532
 1803SOL    HW2 7265   2.532   4.552   3.118 -0.3469 -0.2723  0.7491
 1803SOL    HW3 7266   2.467   4.686   3.089  0.6485 -0.3103 -1.8150
 1803SOL    MW4 7267   2.528   4.638   3.130  0.0038 -0.0553 -0.5479
 1804SOL     OW 7268   2.318   0.074   3.001 -0.0526  0.3675  0.1264
 1804SOL    HW2 7269   2.313   0.163   3.036 -1.7957 -0.2309  1.4509
 1804SOL    HW3 7270   2.254   0.024   3.052  0.7542 -1.6049 -0.7400
 1804SOL    MW4 7271   2.309   0.079   3.013 -0.1762  0.0283  0.1869
 1805SOL     OW 7272   2.262   0.322   3.124  0.1020  0.0341  0.4638
 1805SOL    HW2 7273   2.259   0.338   3.219 -0.3842  1.3920  0.2421
 1805SOL    HW3 7274   2.176   0.351   3.093 -0.1745 -1.5185 -0.2328
 1805SOL    MW4 7275   2.250   0.328   3.133  0.0012  0.0084  0.3428
 1806SOL     OW 7276   2.435   0.504   3.029  0.2442 -0.5051  0.3009
 1806SOL    HW2 7277   2.372   0.434   3.048 -2.1524  1.2457 -1.0034
 1806SOL    HW3 7278   2.453   0.495   2.935  0.4955  0.1613  0.2870
 1806SOL    MW4 7279   2.429   0.493   3.019 -0.0386 -0.1861  0.1271
 1807SOL     OW 7280   2.454   0.736   3.180 -0.2608 -0.1365  0.0680
 1807SOL    HW2 7281   2.532   0.770   3.137  0.0234 -0.9197 -0.0426
 1807SOL    HW3 7282   2.437   0.652   3.136 -0.7525 -0.2980  0.5612
 1807SOL    MW4 7283   2.462   0.729   3.168 -0.2880 -0.2612  0.1183
 1808SOL     OW 7284   2.270   0.863   3.022 -0.2501 -0.5074  0.1602
 1808SOL    HW2 7285   2.344   0.827   3.071  0.1861  1.2101  0.7790
 1808SOL    HW3 7286   2.196   0.807   3.048 -0.0013  0.2376  2.6659
 1808SOL    MW4 7287   2.270   0.851   3.032 -0.1595 -0.1826  0.5724
 1809SOL     OW 7288   2.218   1.118   3.103  0.0626 -0.2761 -0.0311
 1809SOL    HW2 7289   2.206   1.114   3.198 -2.6787 -2.5771 -0.4149
 1809SOL    HW3 7290   2.247   1.030   3.079 -2.2634 -0.6507 -1.6553
 1809SOL    MW4 7291   2.220   1.106   3.113 -0.6058 -0.6291 -0.2959
 1810SOL     OW 7292   2.467   1.262   3.054  0.1331 -0.2845 -0.1328
 1810SOL    HW2 7293   2.390   1.205   3.062  0.4427 -0.6233  0.4330
 1810SOL    HW3 7294   2.476   1.277   2.960  0.3595 -1.5866 -0.3313
 1810SOL    MW4 7295   2.458   1.257   3.043  0.2041 -0.5009 -0.0844
 1811SOL     OW 7296   2.443   1.507   3.163  0.1134 -0.0770  0.5472
 1811SOL    HW2 7297   2.364   1.544   3.125  0.8966  0.5243 -0.5069
 1811SOL    HW3 7298   2.458   1.426   3.114  1.5597  1.0914 -0.9981
 1811SOL    MW4 7299   2.434   1.501   3.151  0.4077  0.1566  0.2041
 1812SOL     OW 7300   2.227   1.633   3.014  0.0862 -0.3465  0.0495
 1812SOL    HW2 7301   2.139   1.616   3.046  0.6526  0.3481  2.1232
 1812SOL    HW3 7302   2.220   1.633   2.919 -2.0999 -0.4809  0.2033
 1812SOL    MW4 7303   2.215   1.631   3.006 -0.1271 -0.2726  0.3436
 1813SOL     OW 7304   2.232   1.899   3.134  0.6538 -0.1619  0.1252
 1813SOL    HW2 7305   2.289   1.965   3.094 -0.7278  0.1802 -1.3110
 1813SOL    HW3 7306   2.258   1.817   3.093  0.6999 -0.1419  0.1137
 1813SOL    MW4 7307   2.243   1.897   3.124  0.4776 -0.1141 -0.0658
 1814SOL     OW 7308   2.408   2.088   3.019  0.2699 -0.7261  0.3049
 1814SOL    HW2 7309   2.473   2.035   3.065 -0.5230 -1.6195  0.3891
 1814SOL    HW3 7310   2.416   2.063   2.927  0.5767 -0.2718  0.2046
 1814SOL    MW4 7311   2.418   2.078   3.013  0.2060 -0.7839  0.3028
 1815SOL     OW 7312   2.436   2.322   3.117  0.2501  0.5300  0.3823
 1815SOL    HW2 7313   2.425   2.305   3.210  1.3048  0.6288  0.5365
 1815SOL    HW3 7314   2.434   2.235   3.077 -0.8009  0.5295  0.4204
 1815SOL    MW4 7315   2.435   2.308   3.124  0.2508  0.5431  0.4077
 1816SOL     OW 7316   2.185   2.442   3.037 -0.1731 -0.3130 -0.0231
 1816SOL    HW2 7317   2.192   2.537   3.051 -1.1009 -0.3636  0.8040
 1816SOL    HW3 7318   2.264   2.406   3.076 -0.4036  0.0095  0.7545
 1816SOL    MW4 7319   2.196   2.450   3.044 -0.3259 -0.2770  0.1886
 1817SOL     OW 7320   2.199   2.706   3.131  0.0713  0.0768  0.3087
 1817SOL    HW2 7321   2.266   2.766   3.098  0.4434 -1.6083 -2.1015
 1817SOL    HW3 7322   2.116   2.749   3.107  0.3314 -0.0952 -0.9353
 1817SOL    MW4 7323   2.197   2.720   3.124  0.1547 -0.1683 -0.1733
 1818SOL     OW 7324   2.431   2.834   3.017 -0.4413  0.0406  0.0983
 1818SOL    HW2 7325   2.455   2.922   3.048  1.0178 -0.4479  0.3831
 1818SOL    HW3 7326   2.428   2.843   2.921  0.2191  0.2688  0.0990
 1818SOL    MW4 7327   2.433   2.847   3.008 -0.1614  0.0062  0.1357
 1819SOL     OW 7328   2.487   3.086   3.117  0.4443  0.4087  0.0082
 1819SOL    HW2 7329   2.569   3.124   3.085  0.5957  0.4114  0.4002
 1819SOL    HW3 7330   2.419   3.147   3.086  0.4228 -0.5169 -1.8147
 1819SOL    MW4 7331   2.489   3.099   3.108  0.4616  0.2866 -0.1805
 1820SOL     OW 7332   2.252   3.205   3.034 -0.0457 -0.2028  0.0015
 1820SOL    HW2 7333   2.249   3.298   3.058  0.3005  0.1022 -1.0860
 1820SOL    HW3 7334   2.174   3.168   3.074 -0.3333  0.6226  0.2235
 1820SOL    MW4 7335   2.241   3.213   3.042 -0.0379 -0.0536 -0.1128
 1821SOL     OW 7336   2.265   3.470   3.116  0.4529  0.3020  0.1006
 1821SOL    HW2 7337   2.345   3.515   3.088  0.5303  0.0260 -0.1249
 1821SOL    HW3 7338   2.195   3.533   3.098  0.6521  0.6606  0.5826
 1821SOL    MW4 7339   2.266   3.484   3.110  0.4892  0.3128  0.1345
 1822SOL     OW 7340   2.472   3.611   3.011  0.3448 -0.1534 -0.0227
 1822SOL    HW2 7341   2.542   3.566   3.058 -0.7126 -1.4789  0.3310
 1822SOL    HW3 7342   2.462   3.694   3.058  1.5110 -0.0643  0.0711
 1822SOL    MW4 7343   2.480   3.616   3.024  0.3588 -0.3164  0.0365
 1823SOL     OW 7344   2.466   3.846   3.142 -0.1528 -0.3197 -0.2831
 1823SOL    HW2 7345   2.477   3.851   3.237 -0.9729 -0.2159 -0.1886
 1823SOL    HW3 7346   2.547   3.882   3.107 -0.1384  0.3107  0.3837
 1823SOL    MW4 7347   2.478   3.851   3.150 -0.2592 -0.2227 -0.1824
 1824SOL     OW 7348   2.209   3.969   3.040  0.1571  0.2184  0.1816
 1824SOL    HW2 7349   2.278   3.926   3.091 -0.6832  0.1032  1.2248
 1824SOL    HW3 7350   2.127   3.935   3.075 -0.5030  2.1308  0.5559
 1824SOL    MW4 7351   2.207   3.959   3.051 -0.0410  0.4556  0.3686
 1825SOL     OW 7352   2.212   4.243   3.151  0.0713 -0.0501  0.2139
 1825SOL    HW2 7353   2.212   4.150   3.127 -0.5079 -0.2076  0.7970
 1825SOL    HW3 7354   2.142   4.281   3.098  1.2034  0.3309 -1.0296
 1825SOL    MW4 7355   2.203   4.236   3.141  0.1445 -0.0205  0.1266
 1826SOL     OW 7356   2.465   4.366   3.086 -0.3587  0.1225 -0.0362
 1826SOL    HW2 7357   2.384   4.332   3.123 -0.5270  1.1406  0.5574
 1826SOL    HW3 7358   2.446   4.378   2.993 -1.1136  0.9751  0.2191
 1826SOL    MW4 7359   2.452   4.363   3.079 -0.4802  0.3695  0.0756
 1827SOL     OW 7360   2.940   4.656   3.103  0.4423 -0.0475 -0.5084
 1827SOL    HW2 7361   3.016   4.695   3.060 -0.9279  0.9673 -2.0731
 1827SOL    HW3 7362   2.924   4.575   3.056  0.9574 -0.6249  0.2829
 1827SOL    MW4 7363   2.948   4.650   3.091  0.3295  0.0105 -0.6104
 1828SOL     OW 7364   2.733   0.146   3.017 -0.0564 -0.0139 -0.2800
 1828SOL    HW2 7365   2.811   0.108   3.059 -0.1211  0.8546  0.6308
 1828SOL    HW3 7366   2.662   0.087   3.042  0.5583 -1.8313 -2.5649
 1828SOL    MW4 7367   2.734   0.133   3.025  0.0162 -0.1391 -0.4611
 1829SOL     OW 7368   2.642   0.371   3.166  0.0915 -0.1500 -0.4126
 1829SOL    HW2 7369   2.664   0.301   3.103  1.5095  0.3971 -0.5449
 1829SOL    HW3 7370   2.578   0.425   3.120  1.4186  0.4796 -1.5658
 1829SOL    MW4 7371   2.636   0.369   3.152  0.4537  0.0053 -0.5822
 1830SOL     OW 7372   2.901   0.478   3.030  0.2386  0.2551  0.0834
 1830SOL    HW2 7373   2.817   0.447   3.064 -0.7409  1.2788 -1.3448
 1830SOL    HW3 7374   2.887   0.487   2.936  1.7948  0.9665 -0.0958
 1830SOL    MW4 7375   2.888   0.475   3.022  0.3145  0.4840 -0.1285
 1831SOL     OW 7376   2.904   0.738   3.106 -0.2287  0.2702  0.1289
 1831SOL    HW2 7377   2.888   0.736   3.201  0.1607 -0.7978  0.1805
 1831SOL    HW3 7378   2.896   0.647   3.079 -1.9693  0.7969 -1.1528
 1831SOL    MW4 7379   2.901   0.726   3.115 -0.4070  0.1988 -0.0334
 1832SOL     OW 7380   2.661   0.847   3.024  0.4234  0.0527 -0.2810
 1832SOL    HW2 7381   2.653   0.941   3.039  1.1010  0.1076 -0.2237
 1832SOL    HW3 7382   2.745   0.823   3.064  0.1355 -0.6240 -0.0657
 1832SOL    MW4 7383   2.671   0.856   3.032  0.4747 -0.0294 -0.2449
 1833SOL     OW 7384   2.688   1.121   3.135  0.5957 -0.0880 -0.3840
 1833SOL    HW2 7385   2.760   1.173   3.099  0.7064  0.3219  0.4389
 1833SOL    HW3 7386   2.611   1.176   3.123  0.6772  0.1656  0.2780
 1833SOL    MW4 7387   2.687   1.135   3.128  0.6211 -0.0005 -0.1881
 1834SOL     OW 7388   2.863   1.281   3.016 -0.0326  0.4042  0.0194
 1834SOL    HW2 7389   2.946   1.241   3.040  1.2246  2.1530 -1.2787
 1834SOL    HW3 7390   2.871   1.372   3.045 -2.0347  0.2584  1.1105
 1834SOL    MW4 7391   2.875   1.288   3.023 -0.1309  0.6160 -0.0076
 1835SOL     OW 7392   2.875   1.539   3.128 -0.3714  0.0473 -0.3616
 1835SOL    HW2 7393   2.899   1.542   3.221  1.3370 -0.6137 -0.7657
 1835SOL    HW3 7394   2.948   1.581   3.083  0.4821 -2.7914 -1.7157
 1835SOL    MW4 7395   2.888   1.545   3.134 -0.0334 -0.4144 -0.5937
 1836SOL     OW 7396   2.633   1.672   3.063 -0.1719 -0.0822  0.3008
 1836SOL    HW2 7397   2.712   1.627   3.093  1.1362  1.6924 -0.3567
 1836SOL    HW3 7398   2.563   1.607   3.070  1.7333 -2.3601 -1.0828
 1836SOL    MW4 7399   2.634   1.657   3.068  0.2520 -0.1485  0.0317
 1837SOL     OW 7400   2.622   1.935   3.125 -0.3865  0.3416 -0.1463
 1837SOL    HW2 7401   2.714   1.960   3.123 -0.1306 -0.6077 -0.6769
 1837SOL    HW3 7402   2.622   1.842   3.102 -1.4199  0.1671  0.5123
 1837SOL    MW4 7403   2.634   1.926   3.122 -0.4892  0.1932 -0.1290
 1838SOL     OW 7404   2.878   2.028   3.055 -0.1486 -0.2410 -0.0308
 1838SOL    HW2 7405   2.889   2.118   3.086 -0.4848 -0.1569 -0.1593
 1838SOL    HW3 7406   2.894   2.032   2.961  2.5998 -0.7912  0.3554
 1838SOL    MW4 7407   2.881   2.040   3.047  0.1698 -0.3023  0.0031
 1839SOL     OW 7408   2.883   2.287   3.126  0.0447  0.1114 -0.2031
 1839SOL    HW2 7409   2.957   2.332   3.087  0.8039 -1.1893 -0.3100
 1839SOL    HW3 7410   2.808   2.344   3.110  1.0449  1.5131  0.0410
 1839SOL    MW4 7411   2.883   2.300   3.119  0.2768  0.1247 -0.1848
 1840SOL     OW 7412   2.671   2.453   3.038  0.5687  0.1750  0.1971
 1840SOL    HW2 7413   2.658   2.545   3.062 -0.1322  0.7130 -2.0712
 1840SOL    HW3 7414   2.589   2.411   3.062  1.1025  0.0072  1.7711
 1840SOL    MW4 7415   2.658   2.460   3.045  0.5467  0.2236  0.1056
 1841SOL     OW 7416   2.663   2.726   3.120 -0.0910 -0.0573  0.2509
 1841SOL    HW2 7417   2.651   2.731   3.215 -0.3692 -0.4434  0.2377
 1841SOL    HW3 7418   2.581   2.759   3.084 -0.4841 -1.1202  0.1536
 1841SOL    MW4 7419   2.651   2.731   3.128 -0.1798 -0.2484  0.2365
 1842SOL     OW 7420   2.902   2.841   3.033 -0.0382  0.1604  0.4431
 1842SOL    HW2 7421   2.982   2.790   3.047  0.2948  0.1837 -1.2526
 1842SOL    HW3 7422   2.835   2.795   3.083  0.9087 -0.2013  1.3911
 1842SOL    MW4 7423   2.904   2.828   3.041  0.1309  0.1159  0.3448
 1843SOL     OW 7424   2.967   3.110   3.092  0.0458  0.0254  0.1109
 1843SOL    HW2 7425   2.887   3.156   3.068  0.5536  0.7332 -0.2717
 1843SOL    HW3 7426   2.957   3.022   3.055 -0.3647  0.2510 -0.3166
 1843SOL    MW4 7427   2.955   3.104   3.084  0.0587  0.1488  0.0038
 1844SOL     OW 7428   2.717   3.217   3.028  0.1584 -1.0787 -0.5260
 1844SOL    HW2 7429   2.699   3.308   3.051  0.1287 -1.0764 -0.5575
 1844SOL    HW3 7430   2.730   3.219   2.933 -0.2188 -1.1695 -0.5795
 1844SOL    MW4 7431   2.716   3.230   3.018  0.1049 -1.0903 -0.5374
 1845SOL     OW 7432   2.668   3.468   3.123 -0.1392 -0.2520  0.2646
 1845SOL    HW2 7433   2.662   3.472   3.218 -1.5883  1.4162  0.1164
 1845SOL    HW3 7434   2.745   3.521   3.101 -0.9740  1.0171  0.3822
 1845SOL    MW4 7435   2.677   3.475   3.132 -0.4408  0.1354  0.2606
 1846SOL     OW 7436   2.897   3.634   3.036  0.1616 -0.0916  0.0779
 1846SOL    HW2 7437   2.978   3.596   3.070  0.8699  1.0477 -0.3360
 1846SOL    HW3 7438   2.901   3.726   3.060 -1.3250 -0.1484  0.6235
 1846SOL    MW4 7439   2.908   3.641   3.044  0.0589  0.0513  0.0951
 1847SOL     OW 7440   2.946   3.910   3.131 -0.0880 -0.0833  0.1829
 1847SOL    HW2 7441   2.928   3.907   3.225 -1.0442  0.2308  0.0137
 1847SOL    HW3 7442   2.871   3.956   3.093  1.1210  1.3659 -0.5276
 1847SOL    MW4 7443   2.934   3.916   3.138 -0.0546  0.1493  0.0665
 1848SOL     OW 7444   2.677   3.986   3.046 -0.3002 -0.0015 -0.2754
 1848SOL    HW2 7445   2.678   4.074   3.084 -0.2697  0.0584 -0.4154
 1848SOL    HW3 7446   2.679   4.000   2.951 -1.7018 -0.1173 -0.3397
 1848SOL    MW4 7447   2.677   3.999   3.038 -0.4811 -0.0088 -0.3023
 1849SOL     OW 7448   2.710   4.251   3.157  0.3278  0.0171 -0.0505
 1849SOL    HW2 7449   2.694   4.249   3.252 -1.2376 -2.7210 -0.3346
 1849SOL    HW3 7450   2.629   4.283   3.120 -0.1694 -1.9010 -0.6570
 1849SOL    MW4 7451   2.697   4.255   3.165  0.0558 -0.5975 -0.1678
 1850SOL     OW 7452   2.908   4.395   2.995  0.0645 -0.0720 -0.2508
 1850SOL    HW2 7453   2.989   4.365   3.037 -0.3899  2.2655  2.4485
 1850SOL    HW3 7454   2.838   4.357   3.047 -0.5283  2.0899  0.5700
 1850SOL    MW4 7455   2.910   4.386   3.007 -0.0734  0.5217  0.2141
 1851SOL     OW 7456   3.364   0.017   3.165 -0.3756  0.8052 -0.1028
 1851SOL    HW2 7457   3.438   0.072   3.140  0.8061 -0.3044  0.9121
 1851SOL    HW3 7458   3.374  -0.063   3.113 -1.7549  1.2812 -1.1363
 1851SOL    MW4 7459   3.375   0.014   3.155 -0.4017  0.7216 -0.1051
 1852SOL     OW 7460   3.153   0.131   2.985 -0.0096 -0.1716  0.4233
 1852SOL    HW2 7461   3.147   0.218   3.023 -1.3300  0.1109 -0.3990
 1852SOL    HW3 7462   3.208   0.082   3.046  1.5472  1.4893  0.3890
 1852SOL    MW4 7463   3.160   0.136   2.999  0.0215  0.0848  0.3102
 1853SOL     OW 7464   3.124   0.372   3.148  0.3775 -0.1188 -0.0257
 1853SOL    HW2 7465   3.198   0.418   3.108 -0.0671  0.4366 -0.2075
 1853SOL    HW3 7466   3.047   0.407   3.105 -0.0118 -0.5631  0.2997
 1853SOL    MW4 7467   3.124   0.383   3.137  0.2673 -0.1041 -0.0069
 1854SOL     OW 7468   3.300   0.545   3.038 -0.4500 -0.1114 -0.2119
 1854SOL    HW2 7469   3.378   0.501   3.073  0.6258  1.0166 -1.1279
 1854SOL    HW3 7470   3.305   0.531   2.943 -0.9270  0.6774 -0.3532
 1854SOL    MW4 7471   3.311   0.537   3.030 -0.3710  0.1414 -0.3514
 1855SOL     OW 7472   3.344   0.805   3.124  0.3073  0.4102  0.2364
 1855SOL    HW2 7473   3.347   0.807   3.220 -2.8938 -0.1062  0.3941
 1855SOL    HW3 7474   3.335   0.712   3.103  0.2466  0.5946 -0.5512
 1855SOL    MW4 7475   3.343   0.793   3.134 -0.1228  0.3664  0.1535
 1856SOL     OW 7476   3.113   0.890   2.989 -0.1159 -0.1184  0.0830
 1856SOL    HW2 7477   3.196   0.874   3.033 -0.8995  1.9058  2.4402
 1856SOL    HW3 7478   3.051   0.831   3.033 -0.4004  0.0617 -0.0757
 1856SOL    MW4 7479   3.116   0.880   3.001 -0.2570  0.1724  0.3734
 1857SOL     OW 7480   3.123   1.170   3.077  0.3310  0.6718 -0.1793
 1857SOL    HW2 7481   3.208   1.206   3.050  0.8504 -0.2712  0.1567
 1857SOL    HW3 7482   3.125   1.079   3.046 -0.4714  0.5878  0.0176
 1857SOL    MW4 7483   3.135   1.162   3.069  0.2940  0.5363 -0.1090
 1858SOL     OW 7484   3.376   1.272   2.982  0.4046 -0.1990 -0.1952
 1858SOL    HW2 7485   3.440   1.229   3.038 -0.0057 -1.7695 -0.9162
 1858SOL    HW3 7486   3.357   1.355   3.027  2.4152 -0.0166  0.3602
 1858SOL    MW4 7487   3.382   1.277   2.996  0.6158 -0.3822 -0.2170
 1859SOL     OW 7488   3.373   1.516   3.110 -0.4133 -0.0696 -0.1817
 1859SOL    HW2 7489   3.382   1.531   3.204 -0.6833 -0.0982 -0.1505
 1859SOL    HW3 7490   3.439   1.572   3.070  0.2763 -0.6828  0.0711
 1859SOL    MW4 7491   3.383   1.525   3.117 -0.3581 -0.1543 -0.1445
 1860SOL     OW 7492   3.111   1.660   2.988 -0.3287 -0.0161 -0.2569
 1860SOL    HW2 7493   3.183   1.606   3.021 -0.4242  0.1353  0.2016
 1860SOL    HW3 7494   3.120   1.657   2.893 -0.2987 -0.7963 -0.2311
 1860SOL    MW4 7495   3.121   1.652   2.980 -0.3374 -0.0991 -0.1929
 1861SOL     OW 7496   3.128   1.931   3.123 -0.2309  0.0501  0.3940
 1861SOL    HW2 7497   3.132   1.839   3.095  0.5269 -0.0874  0.9413
 1861SOL    HW3 7498   3.042   1.960   3.095 -0.3683 -0.7486 -0.0457
 1861SOL    MW4 7499   3.117   1.922   3.116 -0.1493 -0.0733  0.4082
 1862SOL     OW 7500   3.326   2.058   3.006 -0.4938  0.4065 -0.0967
 1862SOL    HW2 7501   3.403   2.016   3.044 -0.8552 -0.0752  0.1087
 1862SOL    HW3 7502   3.252   2.012   3.045 -0.8836  0.7172 -0.4656
 1862SOL    MW4 7503   3.327   2.047   3.016 -0.5927  0.3839 -0.1185
 1863SOL     OW 7504   3.346   2.316   3.100  0.3396 -0.4457  0.2553
 1863SOL    HW2 7505   3.341   2.314   3.196 -1.0054  1.0285  0.2468
 1863SOL    HW3 7506   3.333   2.225   3.073  0.9462 -0.8983  1.4872
 1863SOL    MW4 7507   3.343   2.304   3.109  0.2422 -0.3109  0.4170
 1864SOL     OW 7508   3.087   2.429   3.034  0.3979  0.5131 -0.3866
 1864SOL    HW2 7509   3.178   2.411   3.058  0.4962 -0.4095 -1.4058
 1864SOL    HW3 7510   3.090   2.444   2.940 -0.7525 -1.2501 -0.7276
 1864SOL    MW4 7511   3.099   2.429   3.025  0.2589  0.1590 -0.5658
 1865SOL     OW 7512   3.143   2.704   3.092 -0.2300 -0.2236  0.2544
 1865SOL    HW2 7513   3.136   2.728   3.184 -0.7212 -2.0675  0.7055
 1865SOL    HW3 7514   3.125   2.610   3.089 -1.8153  0.0946 -1.9179
 1865SOL    MW4 7515   3.140   2.695   3.104 -0.5038 -0.4251  0.0269
 1866SOL     OW 7516   3.366   2.829   2.996 -0.0506  0.1416  0.3115
 1866SOL    HW2 7517   3.382   2.918   3.026  0.3936 -0.2197  1.1460
 1866SOL    HW3 7518   3.281   2.806   3.034 -0.5631  0.5130 -0.6017
 1866SOL    MW4 7519   3.357   2.837   3.005 -0.0596  0.1426  0.3011
 1867SOL     OW 7520   3.374   3.074   3.114  0.1913 -0.2750  0.0852
 1867SOL    HW2 7521   3.378   3.069   3.210  0.5383 -0.4459  0.0606
 1867SOL    HW3 7522   3.307   3.141   3.097 -0.5522 -0.9182  0.4414
 1867SOL    MW4 7523   3.365   3.083   3.125  0.1390 -0.3824  0.1287
 1868SOL     OW 7524   3.190   3.267   3.025 -0.0810 -0.0060 -0.1708
 1868SOL    HW2 7525   3.110   3.228   3.058  0.1760  0.5553  1.1611
 1868SOL    HW3 7526   3.177   3.275   2.931 -2.0146  1.0673  0.1661
 1868SOL    MW4 7527   3.178   3.263   3.017 -0.3023  0.2098  0.0496
 1869SOL     OW 7528   3.138   3.514   3.131 -0.1596 -0.1303 -0.2616
 1869SOL    HW2 7529   3.220   3.558   3.109 -0.2642  0.6520  0.8215
 1869SOL    HW3 7530   3.150   3.424   3.101  1.1849 -0.0802  0.0679
 1869SOL    MW4 7531   3.151   3.508   3.124  0.0041 -0.0205 -0.0753
 1870SOL     OW 7532   3.374   3.622   3.010  0.5121  0.0965 -0.0644
 1870SOL    HW2 7533   3.443   3.580   3.061  0.3610  1.1993  1.0644
 1870SOL    HW3 7534   3.375   3.714   3.039 -1.6416  0.0507  0.2065
 1870SOL    MW4 7535   3.383   3.629   3.021  0.2081  0.2360  0.1204
 1871SOL     OW 7536   3.381   3.881   3.098 -0.0811  0.1595 -0.1951
 1871SOL    HW2 7537   3.357   3.899   3.189  0.3512  0.3085 -0.1101
 1871SOL    HW3 7538   3.335   3.948   3.048 -0.0536  0.2830 -0.0560
 1871SOL    MW4 7539   3.372   3.892   3.104 -0.0205  0.1955 -0.1655
 1872SOL     OW 7540   3.176   4.047   3.013  0.2547 -0.3004 -0.1279
 1872SOL    HW2 7541   3.112   4.008   3.073  0.6943  1.8061  1.7857
 1872SOL    HW3 7542   3.149   4.017   2.926 -1.8604 -1.4201  0.8715
 1872SOL    MW4 7543   3.164   4.038   3.009  0.0339 -0.1702  0.2565
 1873SOL     OW 7544   3.148   4.307   3.122  0.2876 -0.5007  0.0959
 1873SOL    HW2 7545   3.152   4.292   3.217  1.0707 -0.5278  0.0649
 1873SOL    HW3 7546   3.150   4.220   3.084  0.9687 -0.4557  0.0271
 1873SOL    MW4 7547   3.149   4.294   3.130  0.4807 -0.4983  0.0827
 1874SOL     OW 7548   3.361   4.432   3.040 -0.0743 -0.5415 -0.0693
 1874SOL    HW2 7549   3.430   4.369   3.064  0.7773  0.3025 -0.2773
 1874SOL    HW3 7550   3.281   4.394   3.075  0.7660 -0.6540  1.7886
 1874SOL    MW4 7551   3.360   4.418   3.048  0.1488 -0.4454  0.1483
 1875SOL     OW 7552   3.819   0.030   3.140  0.3472  0.1505  0.9910
 1875SOL    HW2 7553   3.823  -0.053   3.092  1.3202 -0.3028  1.8322
 1875SOL    HW3 7554   3.749   0.080   3.097  0.4158 -0.7136 -0.1366
 1875SOL    MW4 7555   3.810   0.026   3.128  0.4847 -0.0233  0.9532
 1876SOL     OW 7556   3.565   0.167   3.032 -0.0570  0.0489 -0.0066
 1876SOL    HW2 7557   3.578   0.259   3.052 -0.0681  0.3309 -1.2745
 1876SOL    HW3 7558   3.576   0.160   2.937 -0.6910 -1.1404 -0.0144
 1876SOL    MW4 7559   3.568   0.178   3.022 -0.1419 -0.0708 -0.1748
 1877SOL     OW 7560   3.533   0.433   3.104  0.7795  0.1672 -0.2995
 1877SOL    HW2 7561   3.554   0.437   3.197 -0.3348  1.8961 -0.1062
 1877SOL    HW3 7562   3.612   0.462   3.059  0.6021  1.4086  0.1959
 1877SOL    MW4 7563   3.546   0.437   3.110  0.6089  0.5592 -0.2086
 1878SOL     OW 7564   3.781   0.529   3.014  0.1586 -0.0685 -0.2658
 1878SOL    HW2 7565   3.858   0.475   3.033  0.8626  0.1004 -2.4573
 1878SOL    HW3 7566   3.803   0.615   3.049  0.1251 -0.5292  0.9016
 1878SOL    MW4 7567   3.794   0.533   3.021  0.2470 -0.1070 -0.4008
 1879SOL     OW 7568   3.826   0.792   3.112  0.0700 -0.2256 -0.0045
 1879SOL    HW2 7569   3.832   0.766   3.203  1.4825  0.0189 -0.0182
 1879SOL    HW3 7570   3.900   0.852   3.099  0.0909 -0.5325 -1.3858
 1879SOL    MW4 7571   3.837   0.797   3.122  0.2592 -0.2338 -0.1888
 1880SOL     OW 7572   3.584   0.915   3.007 -0.4180  0.0535 -0.3049
 1880SOL    HW2 7573   3.663   0.874   3.042 -0.2042  0.8195  0.1297
 1880SOL    HW3 7574   3.513   0.877   3.057 -0.1064  1.1910  1.0308
 1880SOL    MW4 7575   3.585   0.905   3.018 -0.3486  0.3045 -0.0710
 1881SOL     OW 7576   3.579   1.163   3.137 -0.0778  0.0010  0.3687
 1881SOL    HW2 7577   3.657   1.213   3.113 -0.5800  0.8010  0.3715
 1881SOL    HW3 7578   3.587   1.081   3.089  1.1798 -0.2751  1.0296
 1881SOL    MW4 7579   3.590   1.159   3.128  0.0217  0.0702  0.4563
 1882SOL     OW 7580   3.827   1.305   3.020  0.2946  0.3906  0.3064
 1882SOL    HW2 7581   3.815   1.394   3.054  1.7043  0.2715  1.1740
 1882SOL    HW3 7582   3.808   1.311   2.927 -0.1261  1.4945  0.4609
 1882SOL    MW4 7583   3.823   1.317   3.012  0.4249  0.5205  0.4411
 1883SOL     OW 7584   3.782   1.564   3.105  0.1532  0.5302  0.4781
 1883SOL    HW2 7585   3.782   1.557   3.201 -0.4467 -0.7850  0.3907
 1883SOL    HW3 7586   3.703   1.613   3.085 -0.9059 -1.0856  0.5553
 1883SOL    MW4 7587   3.772   1.569   3.115 -0.0658  0.1435  0.4768
 1884SOL     OW 7588   3.550   1.688   3.002 -0.4860  0.8825  0.0998
 1884SOL    HW2 7589   3.528   1.768   3.049  2.5216  1.1598  1.2061
 1884SOL    HW3 7590   3.562   1.715   2.911 -2.2187  1.1474 -0.0542
 1884SOL    MW4 7591   3.549   1.702   2.996 -0.3181  0.9540  0.2253
 1885SOL     OW 7592   3.554   1.940   3.118  0.0893  0.0281 -0.0923
 1885SOL    HW2 7593   3.580   1.934   3.209  0.7499  0.9044 -0.2137
 1885SOL    HW3 7594   3.632   1.972   3.073 -0.3212 -0.1084 -0.9145
 1885SOL    MW4 7595   3.567   1.944   3.124  0.1223  0.1258 -0.2167
 1886SOL     OW 7596   3.799   2.007   3.003 -0.4037  0.6016 -0.1455
 1886SOL    HW2 7597   3.797   2.101   3.023  1.1200  0.7553 -0.6641
 1886SOL    HW3 7598   3.807   2.003   2.907 -0.7094 -0.0673 -0.1459
 1886SOL    MW4 7599   3.799   2.019   2.993 -0.2432  0.5336 -0.2139
 1887SOL     OW 7600   3.798   2.282   3.075  0.2025  0.2896 -0.2159
 1887SOL    HW2 7601   3.793   2.278   3.171  1.2328  1.7314 -0.0864
 1887SOL    HW3 7602   3.718   2.327   3.048  0.6117  1.1961  0.0749
 1887SOL    MW4 7603   3.787   2.287   3.084  0.3927  0.5996 -0.1602
 1888SOL     OW 7604   3.570   2.448   2.997 -0.5198  0.4124 -0.1248
 1888SOL    HW2 7605   3.566   2.536   3.035 -0.0588 -0.0412  0.9910
 1888SOL    HW3 7606   3.485   2.409   3.017 -0.6240  0.5056 -0.3836
 1888SOL    MW4 7607   3.558   2.454   3.004 -0.4728  0.3648 -0.0117
 1889SOL     OW 7608   3.579   2.699   3.162 -0.2582  0.2000 -0.1873
 1889SOL    HW2 7609   3.661   2.734   3.128 -0.5302  0.0519 -1.0062
 1889SOL    HW3 7610   3.511   2.746   3.113 -0.6782  0.9798  1.1351
 1889SOL    MW4 7611   3.580   2.710   3.151 -0.3495  0.2830 -0.1206
 1890SOL     OW 7612   3.803   2.813   3.039 -0.2192 -0.1295 -0.5993
 1890SOL    HW2 7613   3.786   2.905   3.059  1.9114  0.4603 -1.4327
 1890SOL    HW3 7614   3.803   2.809   2.943  1.1388 -0.7116 -0.5815
 1890SOL    MW4 7615   3.801   2.825   3.029  0.2410 -0.1287 -0.7067
 1891SOL     OW 7616   3.794   3.082   3.128 -0.2472 -0.0525  0.2280
 1891SOL    HW2 7617   3.876   3.116   3.093 -0.3596  0.9113  0.8629
 1891SOL    HW3 7618   3.728   3.147   3.101 -0.1302  1.4820  3.3448
 1891SOL    MW4 7619   3.796   3.095   3.120 -0.2465  0.2770  0.7234
 1892SOL     OW 7620   3.584   3.240   3.037 -0.6643 -0.1647 -0.7376
 1892SOL    HW2 7621   3.532   3.163   3.061  1.5902 -1.6682 -0.5346
 1892SOL    HW3 7622   3.589   3.237   2.942  1.2228 -1.5025 -0.6099
 1892SOL    MW4 7623   3.578   3.229   3.028 -0.1178 -0.5398 -0.6940
 1893SOL     OW 7624   3.589   3.494   3.128 -0.2272  0.0181  0.0760
 1893SOL    HW2 7625   3.674   3.511   3.085 -0.8893 -0.7187 -1.5662
 1893SOL    HW3 7626   3.566   3.405   3.101 -2.0758  0.6399 -0.4608
 1893SOL    MW4 7627   3.597   3.485   3.118 -0.5586  0.0033 -0.2115
 1894SOL     OW 7628   3.829   3.568   3.020  0.0454 -0.4764 -0.1481
 1894SOL    HW2 7629   3.818   3.653   3.062 -1.1975  0.0062 -1.4011
 1894SOL    HW3 7630   3.837   3.588   2.926 -1.3496 -1.7846 -0.5766
 1894SOL    MW4 7631   3.829   3.582   3.013 -0.3028 -0.5853 -0.3700
 1895SOL     OW 7632   3.803   3.824   3.119 -0.0475  0.1697 -0.8216
 1895SOL    HW2 7633   3.802   3.848   3.212  0.8389 -0.9139 -0.5121
 1895SOL    HW3 7634   3.736   3.879   3.079 -0.2261  0.8697  0.4097
 1895SOL    MW4 7635   3.794   3.834   3.126  0.0458  0.1190 -0.6180
 1896SOL     OW 7636   3.620   4.016   3.047  0.3628 -0.7292 -0.3623
 1896SOL    HW2 7637   3.548   3.959   3.073 -1.9214  2.0336 -0.4102
 1896SOL    HW3 7638   3.616   4.019   2.951  0.6856 -0.7467 -0.3786
 1896SOL    MW4 7639   3.610   4.009   3.037  0.1040 -0.3672 -0.3707
 1897SOL     OW 7640   3.594   4.294   3.125  0.2535 -0.3818 -0.0454
 1897SOL    HW2 7641   3.678   4.335   3.103  0.4607 -0.6503  0.2327
 1897SOL    HW3 7642   3.604   4.203   3.096  0.3591 -0.6195  0.7279
 1897SOL    MW4 7643   3.607   4.287   3.118  0.2947 -0.4492  0.0932
 1898SOL     OW 7644   3.830   4.431   3.010  0.2810 -0.0094  0.5200
 1898SOL    HW2 7645   3.890   4.367   3.048  1.1005  0.1278 -0.5410
 1898SOL    HW3 7646   3.835   4.417   2.916  0.7310  1.8457  0.2536
 1898SOL    MW4 7647   3.838   4.420   3.003  0.4485  0.2537  0.3448
 1899SOL     OW 7648   4.266   4.633   3.123 -0.7636 -0.2824 -0.0888
 1899SOL    HW2 7649   4.248   4.647   3.216  0.2337 -0.8418  0.1969
 1899SOL    HW3 7650   4.256   4.538   3.111 -1.2461 -0.1606 -0.6270
 1899SOL    MW4 7651   4.262   4.622   3.134 -0.6957 -0.3400 -0.1223
 1900SOL     OW 7652   4.055   0.111   3.010  0.0271 -0.1678 -0.6865
 1900SOL    HW2 7653   4.141   0.079   3.035  1.0113  1.4204 -1.9481
 1900SOL    HW3 7654   3.994   0.063   3.066  1.9320  0.9276  2.4204
 1900SOL    MW4 7655   4.058   0.101   3.021  0.4086  0.1862 -0.4430
 1901SOL     OW 7656   4.001   0.368   3.096 -0.2867  0.0210 -0.0530
 1901SOL    HW2 7657   4.085   0.403   3.066 -0.4013  0.1742 -0.1924
 1901SOL    HW3 7658   4.009   0.273   3.080  0.1334 -0.0614  0.5983
 1901SOL    MW4 7659   4.013   0.360   3.090 -0.2470  0.0303  0.0148
 1902SOL     OW 7660   4.256   0.479   3.020 -0.3644  0.2066  0.3638
 1902SOL    HW2 7661   4.262   0.573   3.037 -0.1568  0.1101  0.8322
 1902SOL    HW3 7662   4.259   0.472   2.925 -1.4559  0.7475  0.2866
 1902SOL    MW4 7663   4.257   0.490   3.010 -0.4807  0.2652  0.4153
 1903SOL     OW 7664   4.274   0.740   3.087  0.1345 -0.6471  0.1894
 1903SOL    HW2 7665   4.197   0.782   3.047 -0.1430  0.1941  1.5755
 1903SOL    HW3 7666   4.346   0.800   3.068  0.1645 -0.6801  0.2004
 1903SOL    MW4 7667   4.273   0.754   3.079  0.1011 -0.5404  0.3738
 1904SOL     OW 7668   4.076   0.908   2.986  0.1071  0.2697 -0.0524
 1904SOL    HW2 7669   4.074   1.001   3.008  1.4658  0.7318 -1.7463
 1904SOL    HW3 7670   4.068   0.906   2.891  0.5408 -1.3337 -0.0669
 1904SOL    MW4 7671   4.075   0.920   2.977  0.3433  0.1192 -0.2775
 1905SOL     OW 7672   4.048   1.160   3.072  0.5149  0.3575  0.3025
 1905SOL    HW2 7673   4.058   1.161   3.167 -1.5330 -1.2757  0.5676
 1905SOL    HW3 7674   3.973   1.217   3.055  0.5442  0.2304 -0.2879
 1905SOL    MW4 7675   4.039   1.168   3.082  0.2484  0.1253  0.2599
 1906SOL     OW 7676   4.281   1.295   3.009 -0.5034  0.0030 -0.4133
 1906SOL    HW2 7677   4.206   1.245   3.040 -1.6308  1.8375 -0.0878
 1906SOL    HW3 7678   4.268   1.302   2.914 -0.8846  0.5369 -0.3228
 1906SOL    MW4 7679   4.269   1.290   3.001 -0.7019  0.3154 -0.3583
 1907SOL     OW 7680   4.264   1.547   3.120 -0.2955  0.2115 -0.4049
 1907SOL    HW2 7681   4.188   1.587   3.077 -0.8011 -0.3608 -0.0380
 1907SOL    HW3 7682   4.263   1.456   3.091 -1.4175 -0.5349  1.8488
 1907SOL    MW4 7683   4.254   1.540   3.111 -0.5097  0.0374 -0.0589
 1908SOL     OW 7684   4.034   1.651   3.021 -0.2128 -0.1259 -0.1402
 1908SOL    HW2 7685   4.046   1.734   3.067 -1.0000  0.7354 -1.4437
 1908SOL    HW3 7686   3.959   1.610   3.064 -0.3388  0.2218 -0.0253
 1908SOL    MW4 7687   4.026   1.656   3.032 -0.3333  0.0337 -0.2968
 1909SOL     OW 7688   4.045   1.913   3.122 -0.4368  0.2395 -0.4917
 1909SOL    HW2 7689   4.115   1.961   3.079 -0.3796  0.6574  0.0600
 1909SOL    HW3 7690   3.964   1.948   3.085 -0.3753  0.3094 -0.5578
 1909SOL    MW4 7691   4.043   1.924   3.112 -0.4210  0.3040 -0.4277
 1910SOL     OW 7692   4.259   2.040   3.003  0.0994  0.4407 -0.0402
 1910SOL    HW2 7693   4.255   2.129   3.036  1.0543  0.5972 -0.3216
 1910SOL    HW3 7694   4.248   2.048   2.909  0.1826  0.2670 -0.0658
 1910SOL    MW4 7695   4.257   2.052   2.995  0.2365  0.4385 -0.0806
 1911SOL     OW 7696   4.240   2.303   3.096  0.0024 -0.5824 -0.3367
 1911SOL    HW2 7697   4.170   2.341   3.044  0.2388 -0.0251 -0.2478
 1911SOL    HW3 7698   4.320   2.336   3.056  0.2501 -2.0778 -1.1064
 1911SOL    MW4 7699   4.241   2.312   3.084  0.0663 -0.7060 -0.4265
 1912SOL     OW 7700   4.001   2.443   2.984  0.3559 -0.3494 -0.4905
 1912SOL    HW2 7701   4.009   2.519   3.042 -0.3523 -0.2494 -0.5224
 1912SOL    HW3 7702   3.924   2.397   3.016 -0.7328  0.3234 -2.0651
 1912SOL    MW4 7703   3.992   2.447   2.996  0.1187 -0.2475 -0.7024
 1913SOL     OW 7704   4.051   2.690   3.124 -0.4345  0.3986  0.1830
 1913SOL    HW2 7705   4.042   2.683   3.219 -0.0738  1.5177  0.3068
 1913SOL    HW3 7706   3.971   2.734   3.096 -0.4967  0.1549 -0.0294
 1913SOL    MW4 7707   4.039   2.695   3.133 -0.3948  0.5140  0.1714
 1914SOL     OW 7708   4.257   2.818   2.994 -0.2704  0.2205  0.0600
 1914SOL    HW2 7709   4.184   2.775   3.038 -0.3154 -1.1997 -1.3938
 1914SOL    HW3 7710   4.335   2.775   3.028 -0.0745  1.6534  1.5185
 1914SOL    MW4 7711   4.258   2.807   3.005 -0.2499  0.2222  0.0606
 1915SOL     OW 7712   4.245   3.095   3.123  0.1605  0.5125 -0.4701
 1915SOL    HW2 7713   4.173   3.141   3.080  1.0568  0.9897 -1.4833
 1915SOL    HW3 7714   4.246   3.008   3.083 -0.8612 -0.0548  0.6936
 1915SOL    MW4 7715   4.236   3.090   3.112  0.1440  0.5004 -0.4501
 1916SOL     OW 7716   4.021   3.201   3.016 -0.1792  0.1622  0.3327
 1916SOL    HW2 7717   4.042   3.290   3.045 -2.8495  0.6700  0.8433
 1916SOL    HW3 7718   4.018   3.207   2.921  1.4393  0.1643  0.2593
 1916SOL    MW4 7719   4.024   3.214   3.007 -0.3181  0.2296  0.3905
 1917SOL     OW 7720   4.064   3.451   3.107  0.3601  0.1813 -0.2816
 1917SOL    HW2 7721   4.052   3.454   3.202 -1.2802 -0.1282 -0.4686
 1917SOL    HW3 7722   3.982   3.484   3.071  0.7773 -0.1843 -1.6083
 1917SOL    MW4 7723   4.052   3.456   3.115  0.1988  0.0925 -0.4814
 1918SOL     OW 7724   4.269   3.621   3.037  0.4401  0.2406 -0.1292
 1918SOL    HW2 7725   4.247   3.707   3.073  2.6573  0.4343  0.8188
 1918SOL    HW3 7726   4.195   3.565   3.060 -0.5765  1.6581  0.0860
 1918SOL    MW4 7727   4.256   3.625   3.045  0.5984  0.4532  0.0243
 1919SOL     OW 7728   4.234   3.868   3.135  0.0274  0.2314  0.1615
 1919SOL    HW2 7729   4.155   3.904   3.097 -0.2404 -0.5603 -0.0382
 1919SOL    HW3 7730   4.305   3.920   3.098 -0.3534  0.5570 -0.1100
 1919SOL    MW4 7731   4.233   3.880   3.125 -0.0582  0.1698  0.0994
 1920SOL     OW 7732   4.004   3.996   3.032  0.1227 -0.2617 -0.0623
 1920SOL    HW2 7733   3.981   4.086   3.056  1.0379  0.2177 -0.9353
 1920SOL    HW3 7734   3.930   3.943   3.063 -0.5387  0.8147  0.2308
 1920SOL    MW4 7735   3.991   4.001   3.040  0.1564 -0.0563 -0.1388
 1921SOL     OW 7736   3.990   4.258   3.139  0.4619 -0.1651  0.1444
 1921SOL    HW2 7737   4.009   4.240   3.231 -1.4602  0.5436  0.6901
 1921SOL    HW3 7738   4.072   4.294   3.104  1.2548 -0.6176  1.5231
 1921SOL    MW4 7739   4.004   4.260   3.146  0.3128 -0.1311  0.3982
 1922SOL     OW 7740   4.210   4.362   3.020 -0.0909 -0.1884 -0.2749
 1922SOL    HW2 7741   4.297   4.322   3.018 -0.1674 -0.4170  0.6367
 1922SOL    HW3 7742   4.201   4.405   2.935  0.7333 -0.5423 -0.5453
 1922SOL    MW4 7743   4.220   4.362   3.008  0.0081 -0.2651 -0.1905
 1923SOL     OW 7744   0.209   4.647   3.377  0.4726 -0.2803 -0.6417
 1923SOL    HW2 7745   0.296   4.675   3.404  0.1414  0.1962 -0.0727
 1923SOL    HW3 7746   0.200   4.559   3.413  0.8555 -0.4678 -1.0007
 1923SOL    MW4 7747   0.219   4.639   3.385  0.4795 -0.2422 -0.6139
 1924SOL     OW 7748   0.037   0.104   3.540  0.1943 -0.5847 -0.5406
 1924SOL    HW2 7749   0.031   0.195   3.513 -0.4638 -0.9218 -1.5508
 1924SOL    HW3 7750   0.102   0.066   3.481  2.5759 -0.1205  1.7045
 1924SOL    MW4 7751   0.045   0.111   3.529  0.4215 -0.5679 -0.3779
 1925SOL     OW 7752   4.471   0.370   3.398  0.4127  0.0337 -0.3832
 1925SOL    HW2 7753   4.398   0.422   3.433 -0.0667  0.3931 -1.9021
 1925SOL    HW3 7754   4.549   0.420   3.423  0.0996  0.1069  0.4768
 1925SOL    MW4 7755   4.472   0.384   3.406  0.3082  0.0907 -0.4702
 1926SOL     OW 7756   0.193   0.508   3.499 -0.0580 -0.3641 -0.1144
 1926SOL    HW2 7757   0.260   0.446   3.472 -0.0563 -0.9965  1.3055
 1926SOL    HW3 7758   0.219   0.591   3.460  1.4952 -0.6280  0.3481
 1926SOL    MW4 7759   0.205   0.511   3.490  0.1471 -0.4823  0.1340
 1927SOL     OW 7760   0.249   0.756   3.360 -0.4915 -0.3331  0.2028
 1927SOL    HW2 7761   0.325   0.808   3.385 -1.0379  0.6486 -0.1727
 1927SOL    HW3 7762   0.174   0.812   3.379 -1.0633 -0.8100 -0.6087
 1927SOL    MW4 7763   0.249   0.770   3.366 -0.6390 -0.2664  0.0463
 1928SOL     OW 7764   0.024   0.888   3.446  0.1845  0.2070 -0.2132
 1928SOL    HW2 7765   0.013   0.888   3.541 -1.4415 -1.1799 -0.3761
 1928SOL    HW3 7766   0.011   0.979   3.420 -1.3263  0.2775  0.7085
 1928SOL    MW4 7767   0.021   0.900   3.455 -0.2293  0.0333 -0.1130
 1929SOL     OW 7768   4.478   1.141   3.370 -0.5168  0.2149 -0.1705
 1929SOL    HW2 7769   4.563   1.168   3.405 -1.0224  2.2230 -0.4707
 1929SOL    HW3 7770   4.490   1.143   3.275  0.3735 -3.7130 -0.2458
 1929SOL    MW4 7771   4.491   1.145   3.362 -0.4660 -0.0384 -0.2201
 1930SOL     OW 7772   0.227   1.246   3.478 -0.1125 -0.1556 -0.3555
 1930SOL    HW2 7773   0.297   1.194   3.439 -0.3207  0.2135 -1.2568
 1930SOL    HW3 7774   0.229   1.328   3.429  0.6420  0.9529  1.4838
 1930SOL    MW4 7775   0.236   1.250   3.466 -0.0405  0.0392 -0.2317
 1931SOL     OW 7776   0.230   1.503   3.382 -0.0142  0.2621 -0.2284
 1931SOL    HW2 7777   0.299   1.548   3.432  0.4062  0.3126 -0.8534
 1931SOL    HW3 7778   0.253   1.518   3.290 -1.3311  1.0061 -0.4513
 1931SOL    MW4 7779   0.242   1.511   3.377 -0.1325  0.3670 -0.3400
 1932SOL     OW 7780   0.029   1.695   3.465  0.4563  0.6803 -0.5918
 1932SOL    HW2 7781  -0.050   1.647   3.441  0.2084  0.0605  1.3095
 1932SOL    HW3 7782   0.101   1.638   3.437  0.1782 -0.0835  0.1950
 1932SOL    MW4 7783   0.028   1.681   3.458  0.3869  0.4977 -0.2370
 1933SOL     OW 7784   4.450   1.958   3.416 -0.1064 -0.0848  0.3487
 1933SOL    HW2 7785   4.484   1.876   3.454  1.2623  0.8418  1.1544
 1933SOL    HW3 7786   4.455   1.944   3.321 -0.7818 -1.2936  0.4736
 1933SOL    MW4 7787   4.455   1.945   3.409 -0.0148 -0.1221  0.4716
 1934SOL     OW 7788   0.194   2.128   3.419 -0.1783 -0.3593  0.1888
 1934SOL    HW2 7789   0.203   2.125   3.514 -1.3607  0.7892  0.3580
 1934SOL    HW3 7790   0.104   2.098   3.403 -0.6714  1.3645 -0.4030
 1934SOL    MW4 7791   0.183   2.124   3.429 -0.3994  0.0196  0.1333
 1935SOL     OW 7792   0.216   2.381   3.358 -0.0279  0.1157 -0.2784
 1935SOL    HW2 7793   0.137   2.421   3.395 -1.2150 -0.3229 -2.2460
 1935SOL    HW3 7794   0.211   2.289   3.385 -0.1924  0.0824 -0.4238
 1935SOL    MW4 7795   0.205   2.374   3.367 -0.2062  0.0532 -0.5569
 1936SOL     OW 7796   4.478   2.464   3.492 -0.5188 -0.1375 -0.0391
 1936SOL    HW2 7797   4.474   2.461   3.587 -1.9148 -1.3698 -0.1127
 1936SOL    HW3 7798   4.406   2.408   3.463 -1.1646  1.5636 -1.8256
 1936SOL    MW4 7799   4.468   2.456   3.501 -0.7882 -0.0758 -0.2847
 1937SOL     OW 7800   0.003   2.738   3.411 -0.2615 -0.0726  0.3639
 1937SOL    HW2 7801   0.090   2.768   3.438  0.7008 -0.1877 -2.5035
 1937SOL    HW3 7802  -0.007   2.652   3.451  0.6961  0.1734  1.1495
 1937SOL    MW4 7803   0.013   2.731   3.420 -0.0081 -0.0551  0.0892
 1938SOL     OW 7804   0.238   2.836   3.520  0.2861  0.6700  0.2492
 1938SOL    HW2 7805   0.306   2.788   3.473  0.3551  0.5418  0.4769
 1938SOL    HW3 7806   0.246   2.926   3.489  1.8919  1.0881  1.7323
 1938SOL    MW4 7807   0.248   2.841   3.510  0.5070  0.7081  0.4747
 1939SOL     OW 7808   0.228   3.084   3.416  0.0001 -0.1527 -0.1903
 1939SOL    HW2 7809   0.163   3.133   3.466  0.3183 -0.7751  0.8402
 1939SOL    HW3 7810   0.219   3.117   3.327  0.1712  1.7565  0.4704
 1939SOL    MW4 7811   0.218   3.095   3.411  0.0647  0.0172  0.0331
 1940SOL     OW 7812   0.004   3.208   3.499  0.2442 -0.2800  0.0978
 1940SOL    HW2 7813  -0.074   3.164   3.464  0.8257 -0.5300 -0.9188
 1940SOL    HW3 7814   0.003   3.294   3.456  2.2100 -1.4298 -2.3560
 1940SOL    MW4 7815  -0.007   3.213   3.488  0.5803 -0.4652 -0.3598
 1941SOL     OW 7816   0.005   3.488   3.418  0.1976 -0.0917  0.1688
 1941SOL    HW2 7817  -0.077   3.530   3.445  0.0550  0.5157 -1.1719
 1941SOL    HW3 7818   0.002   3.488   3.323  2.2484  0.9185  0.0754
 1941SOL    MW4 7819  -0.006   3.493   3.409  0.4497  0.1216 -0.0203
 1942SOL     OW 7820   0.217   3.620   3.513 -0.5206  0.6876 -0.8387
 1942SOL    HW2 7821   0.191   3.624   3.606  0.8277 -0.7761 -0.3859
 1942SOL    HW3 7822   0.150   3.565   3.472 -0.4171  0.2980 -0.4853
 1942SOL    MW4 7823   0.204   3.613   3.520 -0.3291  0.4432 -0.7322
 1943SOL     OW 7824   0.199   3.867   3.413  0.1310 -0.0477  0.2682
 1943SOL    HW2 7825   0.115   3.908   3.434  0.2324  0.3066 -0.0095
 1943SOL    HW3 7826   0.194   3.781   3.454 -0.5947 -0.2419 -0.2101
 1943SOL    MW4 7827   0.187   3.861   3.421  0.0486 -0.0265  0.1686
 1944SOL     OW 7828   4.454   4.020   3.479  0.1979 -0.0724 -0.1492
 1944SOL    HW2 7829   4.470   4.029   3.573  0.9970 -0.7537 -0.2122
 1944SOL    HW3 7830   4.472   4.106   3.443 -1.5831  0.6100  0.5095
 1944SOL    MW4 7831   4.458   4.032   3.486  0.0682 -0.0725 -0.0706
 1945SOL     OW 7832   4.464   4.282   3.355  0.1065  0.0855  0.1723
 1945SOL    HW2 7833   4.385   4.310   3.401  0.0256  1.1354 -0.5838
 1945SOL    HW3 7834   4.535   4.322   3.404  0.1234 -0.2635  0.4306
 1945SOL    MW4 7835   4.463   4.291   3.367  0.0978  0.1779  0.1068
 1946SOL     OW 7836   0.185   4.403   3.485 -0.8983  0.4028 -0.0339
 1946SOL    HW2 7837   0.180   4.392   3.580 -2.0995 -0.0735 -0.1380
 1946SOL    HW3 7838   0.267   4.361   3.460  0.1254  1.7754  0.9582
 1946SOL    MW4 7839   0.195   4.396   3.494 -0.9217  0.5202  0.0832
 1947SOL     OW 7840   0.700   4.656   3.438  0.3124  0.2082  0.8241
 1947SOL    HW2 7841   0.774   4.710   3.467  0.3878  0.9794 -0.7654
 1947SOL    HW3 7842   0.696   4.670   3.343 -2.2857  0.6869  0.9887
 1947SOL    MW4 7843   0.710   4.665   3.429 -0.0204  0.3734  0.6361
 1948SOL     OW 7844   0.443   0.084   3.485  0.3311 -0.3904  0.0238
 1948SOL    HW2 7845   0.442   0.100   3.579  0.0857 -0.9001  0.1098
 1948SOL    HW3 7846   0.528   0.044   3.467  1.1397  1.3645 -0.2636
 1948SOL    MW4 7847   0.454   0.081   3.495  0.4054 -0.2261 -0.0029
 1949SOL     OW 7848   0.414   0.364   3.386 -0.2303  0.3230  0.6852
 1949SOL    HW2 7849   0.484   0.412   3.431  1.4239  0.0703 -1.5524
 1949SOL    HW3 7850   0.425   0.273   3.414 -0.7118  0.5406  1.6085
 1949SOL    MW4 7851   0.424   0.358   3.396 -0.0756  0.3184  0.5116
 1950SOL     OW 7852   0.623   0.497   3.475 -0.6058 -0.0827  0.4321
 1950SOL    HW2 7853   0.651   0.521   3.563  0.7824 -0.3622  0.0846
 1950SOL    HW3 7854   0.697   0.448   3.439 -0.6616  1.0762 -1.3184
 1950SOL    MW4 7855   0.636   0.493   3.482 -0.4299  0.0333  0.1552
 1951SOL     OW 7856   0.687   0.748   3.369 -0.7143  0.2977  0.0966
 1951SOL    HW2 7857   0.615   0.800   3.404 -1.3836 -0.8408  0.4564
 1951SOL    HW3 7858   0.668   0.659   3.399  0.8860  0.0023  0.2568
 1951SOL    MW4 7859   0.675   0.743   3.378 -0.5915  0.1085  0.1652
 1952SOL     OW 7860   0.458   0.888   3.481 -0.3730  0.0490 -0.0157
 1952SOL    HW2 7861   0.464   0.883   3.576 -0.7100 -0.1937 -0.0075
 1952SOL    HW3 7862   0.448   0.982   3.463 -1.7823 -0.0314  0.2813
 1952SOL    MW4 7863   0.457   0.900   3.491 -0.6034  0.0064  0.0248
 1953SOL     OW 7864   0.447   1.136   3.375  0.2666 -0.0266 -0.0742
 1953SOL    HW2 7865   0.515   1.191   3.413  0.9152 -0.9429  0.0954
 1953SOL    HW3 7866   0.460   1.142   3.281 -0.9372  1.7279 -0.1496
 1953SOL    MW4 7867   0.458   1.144   3.368  0.1933  0.0840 -0.0618
 1954SOL     OW 7868   0.655   1.278   3.515  0.4949  0.1599  0.5871
 1954SOL    HW2 7869   0.737   1.237   3.487  0.6460 -0.1485  1.4794
 1954SOL    HW3 7870   0.657   1.365   3.475  1.4429  0.2970  0.9219
 1954SOL    MW4 7871   0.666   1.284   3.506  0.6399  0.1372  0.7489
 1955SOL     OW 7872   0.657   1.530   3.416 -0.0676 -0.0110  0.1773
 1955SOL    HW2 7873   0.742   1.559   3.448  0.4737 -0.3843 -0.9126
 1955SOL    HW3 7874   0.594   1.584   3.464  0.6606 -1.1679  2.5632
 1955SOL    MW4 7875   0.660   1.541   3.427  0.0998 -0.2127  0.3483
 1956SOL     OW 7876   0.422   1.666   3.492  0.6329 -0.2455 -0.2163
 1956SOL    HW2 7877   0.417   1.666   3.587  0.7151 -0.2553 -0.2117
 1956SOL    HW3 7878   0.432   1.758   3.469 -2.3573  0.0839 -0.3804
 1956SOL    MW4 7879   0.423   1.678   3.501  0.2492 -0.2034 -0.2375
 1957SOL     OW 7880   0.410   1.933   3.388  0.2583  0.1934 -0.5225
 1957SOL    HW2 7881   0.342   2.001   3.393 -0.6221 -0.6341 -1.0719
 1957SOL    HW3 7882   0.420   1.916   3.295 -0.5764 -1.4448 -0.3377
 1957SOL    MW4 7883   0.402   1.940   3.376  0.0320 -0.1320 -0.5705
 1958SOL     OW 7884   0.665   2.048   3.447 -0.2619  0.0592 -0.2691
 1958SOL    HW2 7885   0.654   2.059   3.541  1.1371 -0.5905 -0.0161
 1958SOL    HW3 7886   0.582   2.010   3.418 -0.1927 -1.0317  0.9200
 1958SOL    MW4 7887   0.652   2.044   3.456 -0.0682 -0.1702 -0.0789
 1959SOL     OW 7888   0.681   2.318   3.406 -0.0391  0.2449  0.1115
 1959SOL    HW2 7889   0.762   2.355   3.443  0.8313  0.0833 -1.5990
 1959SOL    HW3 7890   0.683   2.226   3.432  0.1570  0.3230  0.3749
 1959SOL    MW4 7891   0.692   2.311   3.414  0.1016  0.2339 -0.0796
 1960SOL     OW 7892   0.444   2.453   3.502 -0.0424  0.0125  0.1732
 1960SOL    HW2 7893   0.516   2.393   3.483  0.1909  0.5296 -0.5829
 1960SOL    HW3 7894   0.375   2.429   3.439  0.5890  1.4751 -1.1030
 1960SOL    MW4 7895   0.444   2.442   3.491  0.0717  0.2735 -0.0949
 1961SOL     OW 7896   0.459   2.714   3.404 -0.3024  0.2800  0.1668
 1961SOL    HW2 7897   0.454   2.625   3.437 -1.8208  0.7168  1.1385
 1961SOL    HW3 7898   0.441   2.706   3.310 -1.3599 -0.3209  0.4190
 1961SOL    MW4 7899   0.456   2.701   3.396 -0.6422  0.2582  0.3281
 1962SOL     OW 7900   0.658   2.846   3.545 -0.2627  0.0997 -0.2655
 1962SOL    HW2 7901   0.729   2.789   3.513 -0.3286 -1.4775  2.2249
 1962SOL    HW3 7902   0.578   2.805   3.513 -0.2089 -0.0423 -0.2195
 1962SOL    MW4 7903   0.657   2.833   3.537 -0.2643 -0.1271  0.0691
 1963SOL     OW 7904   0.690   3.106   3.422 -0.4586  0.4155 -0.3074
 1963SOL    HW2 7905   0.609   3.152   3.444 -1.1145 -1.1264  0.5644
 1963SOL    HW3 7906   0.689   3.028   3.476  1.2125 -0.0563 -0.9156
 1963SOL    MW4 7907   0.679   3.102   3.432 -0.3247  0.1497 -0.2728
 1964SOL     OW 7908   0.446   3.217   3.514 -0.2432  0.0306 -0.1391
 1964SOL    HW2 7909   0.437   3.208   3.609  1.5033 -0.0186  0.0489
 1964SOL    HW3 7910   0.383   3.155   3.478 -1.3157  0.4373  0.9781
 1964SOL    MW4 7911   0.437   3.208   3.522 -0.1543  0.0777  0.0334
 1965SOL     OW 7912   0.453   3.500   3.429  0.3232 -0.0758  0.9122
 1965SOL    HW2 7913   0.444   3.410   3.461 -0.5201  0.0791  1.1074
 1965SOL    HW3 7914   0.377   3.546   3.464 -0.2085  0.2823 -0.6883
 1965SOL    MW4 7915   0.442   3.494   3.438  0.1418 -0.0081  0.7267
 1966SOL     OW 7916   0.707   3.595   3.539 -0.1394  0.1166  0.1480
 1966SOL    HW2 7917   0.770   3.551   3.481  1.1788 -0.5206  2.0336
 1966SOL    HW3 7918   0.622   3.564   3.510  0.6572 -2.2132  0.2065
 1966SOL    MW4 7919   0.704   3.585   3.527  0.1397 -0.2747  0.4044
 1967SOL     OW 7920   0.676   3.844   3.377 -0.6011  0.4021 -0.4237
 1967SOL    HW2 7921   0.603   3.898   3.408  0.2569  0.9429  0.6413
 1967SOL    HW3 7922   0.676   3.769   3.435 -0.5291  0.2203 -0.6592
 1967SOL    MW4 7923   0.666   3.841   3.388 -0.4784  0.4494 -0.3145
 1968SOL     OW 7924   0.442   3.988   3.479 -0.0844 -0.3306 -0.2502
 1968SOL    HW2 7925   0.423   4.077   3.449  1.2565  0.1625  0.3211
 1968SOL    HW3 7926   0.365   3.937   3.454 -0.9834  1.0501 -0.3333
 1968SOL    MW4 7927   0.429   3.993   3.472 -0.0261 -0.0834 -0.1860
 1969SOL     OW 7928   0.426   4.260   3.412 -0.3338  0.0540 -0.5560
 1969SOL    HW2 7929   0.501   4.295   3.460 -0.8500 -0.1634  0.4262
 1969SOL    HW3 7930   0.449   4.272   3.320  0.1838  1.5146 -0.2537
 1969SOL    MW4 7931   0.439   4.267   3.406 -0.3336  0.2179 -0.3865
 1970SOL     OW 7932   0.665   4.378   3.501  0.0223  0.0369  0.5234
 1970SOL    HW2 7933   0.749   4.336   3.482  0.0820  0.3134  0.1750
 1970SOL    HW3 7934   0.683   4.472   3.493 -0.1541  0.1275  1.1154
 1970SOL    MW4 7935   0.679   4.385   3.498  0.0069  0.0854  0.5553
 1971SOL     OW 7936   1.125   4.650   3.443  0.8531  0.1519  0.0049
 1971SOL    HW2 7937   1.200   4.709   3.453 -0.1215  1.2312  1.1252
 1971SOL    HW3 7938   1.111   4.645   3.348  1.3566  1.2313 -0.1347
 1971SOL    MW4 7939   1.133   4.657   3.431  0.7910  0.4363  0.1342
 1972SOL     OW 7940   0.908   0.152   3.512 -0.0820 -0.1612  0.4809
 1972SOL    HW2 7941   0.897   0.148   3.607 -0.3105 -0.4195  0.4428
 1972SOL    HW3 7942   0.979   0.090   3.494 -0.0496 -0.1242  0.4814
 1972SOL    MW4 7943   0.916   0.143   3.523 -0.1078 -0.1904  0.4759
 1973SOL     OW 7944   0.883   0.387   3.358  0.2207  0.2427 -0.1635
 1973SOL    HW2 7945   0.931   0.445   3.416  1.0408 -1.3908  0.8346
 1973SOL    HW3 7946   0.880   0.303   3.405 -1.4165 -0.3696 -1.3165
 1973SOL    MW4 7947   0.889   0.383   3.372  0.1129 -0.0536 -0.1841
 1974SOL     OW 7948   1.083   0.547   3.494 -0.3682 -0.1142 -0.1692
 1974SOL    HW2 7949   1.065   0.564   3.586 -1.5080  0.7390 -0.5403
 1974SOL    HW3 7950   1.104   0.633   3.457 -0.0359 -0.4321 -0.7407
 1974SOL    MW4 7951   1.083   0.561   3.501 -0.4747 -0.0436 -0.2935
 1975SOL     OW 7952   1.160   0.791   3.365 -0.0498  0.6008  0.0827
 1975SOL    HW2 7953   1.228   0.822   3.425 -1.1779  2.2793  0.5243
 1975SOL    HW3 7954   1.080   0.833   3.396 -1.2724 -1.2448 -0.5201
 1975SOL    MW4 7955   1.159   0.800   3.377 -0.3599  0.5788  0.0615
 1976SOL     OW 7956   0.899   0.875   3.499 -0.3438 -0.3508  0.1448
 1976SOL    HW2 7957   0.880   0.966   3.476 -0.3612  0.2480  2.3818
 1976SOL    HW3 7958   0.826   0.825   3.463  0.0123  0.4213 -1.6996
 1976SOL    MW4 7959   0.887   0.881   3.491 -0.2992 -0.1700  0.1967
 1977SOL     OW 7960   0.884   1.132   3.422 -0.2065  0.0919  0.0069
 1977SOL    HW2 7961   0.974   1.157   3.442  0.4877 -0.5969 -2.2221
 1977SOL    HW3 7962   0.876   1.141   3.327 -2.3927 -0.1783  0.1327
 1977SOL    MW4 7963   0.895   1.136   3.412 -0.4033 -0.0346 -0.2704
 1978SOL     OW 7964   1.130   1.282   3.473  0.3182 -0.4270 -0.1910
 1978SOL    HW2 7965   1.131   1.291   3.569 -0.0383 -1.8062 -0.0401
 1978SOL    HW3 7966   1.128   1.372   3.440 -1.4838  0.0672  1.1350
 1978SOL    MW4 7967   1.130   1.295   3.482  0.0334 -0.5438  0.0038
 1979SOL     OW 7968   1.151   1.542   3.418  0.1613 -0.3844 -0.1587
 1979SOL    HW2 7969   1.231   1.593   3.432  0.8129 -1.5640  0.4931
 1979SOL    HW3 7970   1.132   1.552   3.325  0.6424  0.5340 -0.1594
 1979SOL    MW4 7971   1.159   1.550   3.408  0.3107 -0.4190 -0.0732
 1980SOL     OW 7972   0.899   1.622   3.498 -0.0594 -0.3136  0.1950
 1980SOL    HW2 7973   0.899   1.713   3.468 -1.6590 -0.2110  0.4189
 1980SOL    HW3 7974   0.982   1.586   3.468  0.2971  1.0422 -0.4688
 1980SOL    MW4 7975   0.910   1.629   3.490 -0.2234 -0.1210  0.1371
 1981SOL     OW 7976   0.880   1.888   3.426  0.0449  0.3029  0.0146
 1981SOL    HW2 7977   0.954   1.948   3.431 -0.2102  0.7028 -0.9680
 1981SOL    HW3 7978   0.804   1.941   3.449 -0.0551  0.1130  0.1290
 1981SOL    MW4 7979   0.879   1.903   3.430 -0.0020  0.3307 -0.0999
 1982SOL     OW 7980   1.110   2.029   3.447 -0.6301 -0.3837 -0.3952
 1982SOL    HW2 7981   1.202   2.019   3.420 -0.1007 -0.5599  1.4445
 1982SOL    HW3 7982   1.093   2.123   3.435 -0.3545 -0.4182 -1.1401
 1982SOL    MW4 7983   1.120   2.040   3.442 -0.5238 -0.4113 -0.2508
 1983SOL     OW 7984   1.126   2.309   3.429 -0.0172  0.5892 -0.2565
 1983SOL    HW2 7985   1.186   2.376   3.461 -0.1000  0.7565 -0.4526
 1983SOL    HW3 7986   1.122   2.324   3.335 -0.5415  0.7173 -0.2121
 1983SOL    MW4 7987   1.134   2.320   3.421 -0.0974  0.6282 -0.2766
 1984SOL     OW 7988   0.896   2.440   3.499 -0.0757  0.0891  0.4559
 1984SOL    HW2 7989   0.897   2.438   3.595  1.7854  1.7810  0.5146
 1984SOL    HW3 7990   0.974   2.391   3.473 -0.4652 -0.1983 -0.1976
 1984SOL    MW4 7991   0.907   2.433   3.508  0.1185  0.2744  0.3774
 1985SOL     OW 7992   0.858   2.699   3.440 -0.1711  0.0019 -0.0781
 1985SOL    HW2 7993   0.933   2.752   3.469 -1.9264  1.3700  2.1900
 1985SOL    HW3 7994   0.884   2.609   3.456  0.9356  0.4715  0.8136
 1985SOL    MW4 7995   0.871   2.694   3.446 -0.2568  0.2444  0.3390
 1986SOL     OW 7996   1.081   2.823   3.515  0.2183 -0.0640  0.3924
 1986SOL    HW2 7997   1.078   2.819   3.611  1.2182 -0.0796  0.4223
 1986SOL    HW3 7998   1.171   2.802   3.492 -0.0662 -0.2748 -0.5697
 1986SOL    MW4 7999   1.092   2.820   3.525  0.3128 -0.0937  0.2694
 1987SOL     OW 8000   1.158   3.093   3.435 -0.7076  0.4164  0.3180
 1987SOL    HW2 8001   1.141   3.004   3.468 -1.1682  1.4738  3.0604
 1987SOL    HW3 8002   1.147   3.085   3.340  0.0146 -2.6196  0.4219
 1987SOL    MW4 8003   1.154   3.080   3.427 -0.6731  0.1552  0.6938
 1988SOL     OW 8004   0.933   3.223   3.526 -0.2459  0.0303  0.3338
 1988SOL    HW2 8005   1.007   3.164   3.509 -0.7393 -0.5737  0.2555
 1988SOL    HW3 8006   0.860   3.184   3.478 -0.7925  0.2326  1.0013
 1988SOL    MW4 8007   0.933   3.210   3.517 -0.3830 -0.0229  0.4115
 1989SOL     OW 8008   0.908   3.471   3.409  0.2399  0.0532  0.1361
 1989SOL    HW2 8009   0.924   3.381   3.436  1.6701  0.5251  0.9400
 1989SOL    HW3 8010   0.908   3.468   3.313  0.7125 -0.7431  0.1588
 1989SOL    MW4 8011   0.910   3.459   3.400  0.4910  0.0105  0.2451
 1990SOL     OW 8012   1.146   3.601   3.490  0.2124 -0.6154 -0.1246
 1990SOL    HW2 8013   1.134   3.602   3.585 -0.6115 -1.4268 -0.2159
 1990SOL    HW3 8014   1.064   3.566   3.456  0.8756 -1.2437 -1.0881
 1990SOL    MW4 8015   1.133   3.597   3.498  0.1912 -0.8054 -0.2637
 1991SOL     OW 8016   1.137   3.853   3.411 -0.1967 -0.1702  0.1823
 1991SOL    HW2 8017   1.199   3.914   3.451 -0.5188  0.5150 -0.3585
 1991SOL    HW3 8018   1.152   3.770   3.456  1.4200 -0.1168 -0.2582
 1991SOL    MW4 8019   1.147   3.850   3.422 -0.0260 -0.0727  0.0527
 1992SOL     OW 8020   0.881   3.964   3.511 -0.6705 -0.3324  0.2561
 1992SOL    HW2 8021   0.963   3.918   3.494 -0.3493  0.9787 -1.9933
 1992SOL    HW3 8022   0.818   3.923   3.451 -1.0267  0.3267  0.1685
 1992SOL    MW4 8023   0.884   3.953   3.501 -0.6751 -0.0722 -0.0520
 1993SOL     OW 8024   0.913   4.252   3.436 -0.2030 -0.1877 -0.2995
 1993SOL    HW2 8025   0.916   4.160   3.462  0.1618 -0.0087  0.3070
 1993SOL    HW3 8026   0.916   4.250   3.340 -1.0954 -0.8374 -0.3252
 1993SOL    MW4 8027   0.914   4.240   3.427 -0.2726 -0.2499 -0.2229
 1994SOL     OW 8028   1.129   4.378   3.507  0.3089  0.5531  0.3779
 1994SOL    HW2 8029   1.041   4.344   3.491  0.2923  0.0790  1.4449
 1994SOL    HW3 8030   1.122   4.472   3.486 -0.5278  0.5834  0.7665
 1994SOL    MW4 8031   1.116   4.386   3.502  0.1965  0.4950  0.5698
 1995SOL     OW 8032   1.577   0.021   3.410 -0.0635 -0.3929  1.1134
 1995SOL    HW2 8033   1.570  -0.066   3.450  0.4211 -0.6026  0.7512
 1995SOL    HW3 8034   1.496   0.065   3.435 -0.5455 -1.1233  0.8818
 1995SOL    MW4 8035   1.565   0.015   3.419 -0.0633 -0.5170  1.0352
 1996SOL     OW 8036   1.323   0.159   3.459  0.1872 -0.0277 -0.4648
 1996SOL    HW2 8037   1.341   0.151   3.553  0.6209  0.0153 -0.5444
 1996SOL    HW3 8038   1.303   0.251   3.446 -0.3431 -0.1218 -0.3339
 1996SOL    MW4 8039   1.323   0.170   3.470  0.1745 -0.0344 -0.4582
 1997SOL     OW 8040   1.307   0.417   3.405 -0.1687  0.6410 -0.3543
 1997SOL    HW2 8041   1.386   0.470   3.416 -1.1283  1.5806  2.4942
 1997SOL    HW3 8042   1.236   0.472   3.438 -1.3826 -1.8986  1.4959
 1997SOL    MW4 8043   1.308   0.431   3.411 -0.4555  0.4299  0.2656
 1998SOL     OW 8044   1.531   0.541   3.483 -0.1049  0.2205  0.0166
 1998SOL    HW2 8045   1.522   0.531   3.578 -0.2066 -0.0520 -0.0207
 1998SOL    HW3 8046   1.606   0.485   3.461  0.5344  1.0445  0.0728
 1998SOL    MW4 8047   1.540   0.532   3.493 -0.0339  0.2933  0.0191
 1999SOL     OW 8048   1.563   0.784   3.346  0.1122 -0.1493  0.0348
 1999SOL    HW2 8049   1.504   0.844   3.392 -0.7247 -0.2746 -0.8603
 1999SOL    HW3 8050   1.557   0.702   3.395 -0.2378 -0.0769  0.1157
 1999SOL    MW4 8051   1.554   0.781   3.359 -0.0446 -0.1563 -0.0730
 2000SOL     OW 8052   1.370   0.926   3.481 -0.2521  0.1208 -0.1552
 2000SOL    HW2 8053   1.359   0.916   3.575  0.4405  1.1008  0.0396
 2000SOL    HW3 8054   1.379   1.021   3.468  0.8479 -0.1002 -1.0775
 2000SOL    MW4 8055   1.370   0.937   3.492 -0.0156  0.2210 -0.2511
 2001SOL     OW 8056   1.376   1.182   3.406 -0.0172 -0.4194  0.1234
 2001SOL    HW2 8057   1.453   1.235   3.426 -0.6958  0.4567  0.4859
 2001SOL    HW3 8058   1.303   1.233   3.442 -0.9018 -0.5593 -1.4290
 2001SOL    MW4 8059   1.377   1.196   3.413 -0.2235 -0.3223 -0.0336
 2002SOL     OW 8060   1.629   1.302   3.468  0.2503  0.7050  0.3710
 2002SOL    HW2 8061   1.629   1.298   3.564 -0.1891  0.5182  0.3676
 2002SOL    HW3 8062   1.688   1.232   3.442 -2.0044 -1.3240  0.4647
 2002SOL    MW4 8063   1.636   1.292   3.477 -0.1053  0.4127  0.3829
 2003SOL     OW 8064   1.597   1.564   3.385 -0.5739 -0.0362 -0.1701
 2003SOL    HW2 8065   1.612   1.476   3.422 -0.9480  0.2628  0.7248
 2003SOL    HW3 8066   1.571   1.548   3.295 -0.1355 -0.8240 -0.1644
 2003SOL    MW4 8067   1.595   1.550   3.378 -0.5653 -0.1006 -0.0515
 2004SOL     OW 8068   1.374   1.683   3.500 -0.2473 -0.2134  0.3417
 2004SOL    HW2 8069   1.373   1.662   3.593 -0.9400 -0.2455  0.3284
 2004SOL    HW3 8070   1.442   1.626   3.464 -0.1327 -0.3619  0.7886
 2004SOL    MW4 8071   1.383   1.673   3.507 -0.3235 -0.2372  0.3986
 2005SOL     OW 8072   1.370   1.937   3.387 -0.5849 -0.4656 -0.3625
 2005SOL    HW2 8073   1.447   1.986   3.417 -2.0508  1.2018  0.7426
 2005SOL    HW3 8074   1.373   1.856   3.437 -0.9643  0.7101  1.6085
 2005SOL    MW4 8075   1.381   1.933   3.398 -0.8285 -0.0904  0.0436
 2006SOL     OW 8076   1.581   2.054   3.518  0.1563  0.4404 -0.0401
 2006SOL    HW2 8077   1.653   2.022   3.464 -0.2466  1.3595 -1.1122
 2006SOL    HW3 8078   1.572   2.146   3.496 -0.9933  0.4691  0.4965
 2006SOL    MW4 8079   1.589   2.062   3.508 -0.0486  0.5653 -0.1111
 2007SOL     OW 8080   1.510   2.305   3.456 -0.3489  0.0693  0.1918
 2007SOL    HW2 8081   1.457   2.377   3.492 -1.1337 -0.4138  0.0006
 2007SOL    HW3 8082   1.482   2.298   3.365 -1.8543 -1.9169  0.7746
 2007SOL    MW4 8083   1.499   2.314   3.449 -0.6510 -0.2563  0.2434
 2008SOL     OW 8084   1.331   2.509   3.514 -0.5238  0.4583  0.0500
 2008SOL    HW2 8085   1.331   2.508   3.610 -0.1195 -0.7219  0.0499
 2008SOL    HW3 8086   1.341   2.601   3.490  0.9340  0.5885  1.1423
 2008SOL    MW4 8087   1.332   2.521   3.523 -0.2780  0.3200  0.1941
 2009SOL     OW 8088   1.326   2.771   3.429  0.2007 -0.0508 -0.1255
 2009SOL    HW2 8089   1.412   2.804   3.457  0.3208  0.1991 -0.7835
 2009SOL    HW3 8090   1.337   2.750   3.336 -0.4771  0.0672 -0.2378
 2009SOL    MW4 8091   1.339   2.773   3.421  0.1270 -0.0019 -0.2272
 2010SOL     OW 8092   1.564   2.869   3.515  0.3969 -0.4286 -0.2915
 2010SOL    HW2 8093   1.624   2.808   3.472 -0.7872 -0.3377 -2.1532
 2010SOL    HW3 8094   1.570   2.948   3.461  0.6448  0.5175  1.1103
 2010SOL    MW4 8095   1.573   2.872   3.502  0.2735 -0.2918 -0.3521
 2011SOL     OW 8096   1.560   3.096   3.379  0.4902 -0.3033 -0.2339
 2011SOL    HW2 8097   1.631   3.154   3.407 -0.0967 -0.4941  1.6850
 2011SOL    HW3 8098   1.481   3.132   3.419 -0.4730 -0.3421 -2.0099
 2011SOL    MW4 8099   1.559   3.108   3.388  0.2857 -0.3333 -0.2151
 2012SOL     OW 8100   1.353   3.249   3.529 -0.4976  0.3431 -0.0024
 2012SOL    HW2 8101   1.352   3.246   3.625 -1.0273 -0.4317 -0.0324
 2012SOL    HW3 8102   1.274   3.203   3.503  0.7294 -1.3299 -0.8616
 2012SOL    MW4 8103   1.343   3.242   3.538 -0.4055  0.0203 -0.1199
 2013SOL     OW 8104   1.369   3.489   3.371 -0.1277 -0.0432 -0.4659
 2013SOL    HW2 8105   1.370   3.409   3.424  2.2230  0.8758  0.9722
 2013SOL    HW3 8106   1.292   3.537   3.403  0.2359 -0.3231  0.8700
 2013SOL    MW4 8107   1.359   3.484   3.383  0.2306  0.0412 -0.0997
 2014SOL     OW 8108   1.589   3.606   3.532  0.4011 -0.3202 -0.2136
 2014SOL    HW2 8109   1.577   3.594   3.626 -0.1096 -0.2851 -0.2750
 2014SOL    HW3 8110   1.512   3.566   3.492 -0.2652  1.2160 -0.5233
 2014SOL    MW4 8111   1.578   3.599   3.539  0.2458 -0.1128 -0.2625
 2015SOL     OW 8112   1.620   3.866   3.437  0.2862 -0.4347 -0.0331
 2015SOL    HW2 8113   1.588   3.781   3.466 -1.2444 -0.0318 -0.4879
 2015SOL    HW3 8114   1.634   3.857   3.343 -1.1692  0.1927 -0.3208
 2015SOL    MW4 8115   1.618   3.854   3.429 -0.1078 -0.2987 -0.1311
 2016SOL     OW 8116   1.364   4.000   3.509  0.0891 -0.1995 -0.0372
 2016SOL    HW2 8117   1.365   4.087   3.470  0.9476 -0.3716 -0.4070
 2016SOL    HW3 8118   1.447   3.961   3.483  0.6945 -0.3114  1.9902
 2016SOL    MW4 8119   1.375   4.006   3.500  0.2823 -0.2375  0.1814
 2017SOL     OW 8120   1.355   4.256   3.401  0.1158  0.1624 -0.1352
 2017SOL    HW2 8121   1.272   4.292   3.431 -0.4913 -1.1972 -0.1583
 2017SOL    HW3 8122   1.347   4.255   3.305 -0.1439 -0.6561 -0.1097
 2017SOL    MW4 8123   1.343   4.261   3.392  0.0013 -0.1245 -0.1352
 2018SOL     OW 8124   1.549   4.431   3.526 -0.2813  0.1131  0.5937
 2018SOL    HW2 8125   1.627   4.387   3.492 -0.0361  0.5418  0.5960
 2018SOL    HW3 8126   1.477   4.372   3.504 -0.1077  0.3312 -0.5675
 2018SOL    MW4 8127   1.550   4.417   3.519 -0.2261  0.1988  0.4406
 2019SOL     OW 8128   1.992   0.040   3.397  0.3966  0.3961 -0.3003
 2019SOL    HW2 8129   2.070   0.071   3.443 -0.1318  0.4620  0.5388
 2019SOL    HW3 8130   1.919   0.062   3.454 -0.2823  0.6893 -1.2645
 2019SOL    MW4 8131   1.993   0.047   3.410  0.2376  0.4435 -0.3166
 2020SOL     OW 8132   1.788   0.144   3.546  0.2573 -0.3755 -0.2060
 2020SOL    HW2 8133   1.772   0.148   3.640 -0.2033 -0.9862 -0.2502
 2020SOL    HW3 8134   1.726   0.078   3.514 -0.1279  0.3834 -1.0510
 2020SOL    MW4 8135   1.778   0.136   3.554  0.1457 -0.3560 -0.3233
 2021SOL     OW 8136   1.758   0.388   3.413  0.5947 -0.3396 -0.1216
 2021SOL    HW2 8137   1.756   0.298   3.446 -0.1302 -0.6253 -0.9474
 2021SOL    HW3 8138   1.761   0.380   3.318  0.8405  0.5074 -0.1934
 2021SOL    MW4 8139   1.758   0.375   3.405  0.5316 -0.2656 -0.2401
 2022SOL     OW 8140   1.983   0.450   3.548 -0.2808  0.0013 -0.2430
 2022SOL    HW2 8141   1.986   0.541   3.518  0.2706 -0.3120 -1.1440
 2022SOL    HW3 8142   1.904   0.414   3.508 -0.1528 -0.0959 -0.4097
 2022SOL    MW4 8143   1.973   0.457   3.539 -0.1912 -0.0528 -0.3839
 2023SOL     OW 8144   1.998   0.692   3.408 -0.0053  0.4866 -0.0763
 2023SOL    HW2 8145   2.081   0.726   3.443 -0.7978  0.5882  1.7280
 2023SOL    HW3 8146   2.009   0.698   3.313  2.7791 -1.2208  0.0665
 2023SOL    MW4 8147   2.010   0.698   3.400  0.2575  0.2748  0.1807
 2024SOL     OW 8148   1.798   0.857   3.493  0.0399  0.1240  0.3116
 2024SOL    HW2 8149   1.862   0.794   3.459  0.9905  2.0409 -1.6094
 2024SOL    HW3 8150   1.714   0.828   3.456  0.4553 -0.0804 -0.4840
 2024SOL    MW4 8151   1.795   0.844   3.483  0.2202  0.3499 -0.0467
 2025SOL     OW 8152   1.822   1.117   3.374  0.3842 -0.2384  1.2113
 2025SOL    HW2 8153   1.897   1.171   3.400  1.1114 -0.5964 -0.1044
 2025SOL    HW3 8154   1.833   1.035   3.422  1.1530 -0.5063  0.5847
 2025SOL    MW4 8155   1.833   1.113   3.384  0.5816 -0.3211  0.9551
 2026SOL     OW 8156   2.011   1.280   3.446  0.1336  0.1222  0.2659
 2026SOL    HW2 8157   2.012   1.282   3.542  0.5686 -0.4816  0.2734
 2026SOL    HW3 8158   2.013   1.372   3.421 -0.9792  0.3244  0.8458
 2026SOL    MW4 8159   2.011   1.292   3.456  0.0441  0.0691  0.3433
 2027SOL     OW 8160   2.013   1.546   3.389 -0.1077  0.6986 -0.5883
 2027SOL    HW2 8161   2.085   1.603   3.416 -0.1020  0.5806 -0.3549
 2027SOL    HW3 8162   1.936   1.582   3.434  0.3014 -0.8466  1.3605
 2027SOL    MW4 8163   2.012   1.558   3.398 -0.0532  0.4791 -0.3004
 2028SOL     OW 8164   1.807   1.686   3.513 -0.1320  0.1555  0.0558
 2028SOL    HW2 8165   1.793   1.774   3.477  1.4880  0.3927 -0.0237
 2028SOL    HW3 8166   1.734   1.634   3.479  0.9346  0.5390 -2.9667
 2028SOL    MW4 8167   1.795   1.691   3.504  0.2226  0.2373 -0.3536
 2029SOL     OW 8168   1.812   1.935   3.408  0.1230 -0.1258  0.0920
 2029SOL    HW2 8169   1.893   1.962   3.451  0.4925  1.0755 -1.2883
 2029SOL    HW3 8170   1.840   1.906   3.321 -0.8880 -0.0161 -0.2775
 2029SOL    MW4 8171   1.826   1.935   3.402  0.0384  0.0470 -0.1388
 2030SOL     OW 8172   2.029   2.051   3.542 -0.0600 -0.6626 -0.0912
 2030SOL    HW2 8173   2.097   2.013   3.488 -0.8097 -0.8862 -0.8898
 2030SOL    HW3 8174   1.997   2.126   3.492 -0.3969 -0.5544  0.2805
 2030SOL    MW4 8175   2.033   2.056   3.528 -0.2031 -0.6781 -0.1473
 2031SOL     OW 8176   1.967   2.288   3.419 -0.0565  0.3141  0.2817
 2031SOL    HW2 8177   2.054   2.316   3.447  0.1954 -0.2976  0.1139
 2031SOL    HW3 8178   1.974   2.279   3.324  0.2995 -1.8006  0.4928
 2031SOL    MW4 8179   1.979   2.291   3.410  0.0238 -0.0455  0.2873
 2032SOL     OW 8180   1.748   2.460   3.521 -0.2990  0.1128  0.6262
 2032SOL    HW2 8181   1.820   2.406   3.488 -0.1159  0.6972  0.0532
 2032SOL    HW3 8182   1.670   2.406   3.508 -0.0093 -0.3603  0.8689
 2032SOL    MW4 8183   1.747   2.446   3.515 -0.2367  0.1273  0.5825
 2033SOL     OW 8184   1.747   2.692   3.388  0.1036 -0.1721 -0.2822
 2033SOL    HW2 8185   1.828   2.733   3.418 -0.2577 -0.1226  0.6396
 2033SOL    HW3 8186   1.750   2.604   3.425  0.8168 -0.9587 -2.1514
 2033SOL    MW4 8187   1.758   2.686   3.397  0.1500 -0.2692 -0.4070
 2034SOL     OW 8188   1.994   2.778   3.502  0.2876  0.0931  0.2491
 2034SOL    HW2 8189   2.004   2.776   3.598  0.4099  0.3371  0.2418
 2034SOL    HW3 8190   1.984   2.871   3.481 -1.9903 -0.1237  0.2614
 2034SOL    MW4 8191   1.994   2.790   3.512  0.0032  0.0966  0.2499
 2035SOL     OW 8192   1.982   3.072   3.412 -0.4800 -0.0722  0.2278
 2035SOL    HW2 8193   2.065   3.110   3.439 -0.8091 -0.1332  1.3761
 2035SOL    HW3 8194   1.915   3.130   3.448 -0.9629 -1.0567  0.9611
 2035SOL    MW4 8195   1.984   3.085   3.420 -0.5873 -0.2105  0.4759
 2036SOL     OW 8196   1.770   3.228   3.493 -0.5928 -0.3267 -0.3329
 2036SOL    HW2 8197   1.795   3.230   3.585  2.3337  1.1350 -1.1162
 2036SOL    HW3 8198   1.778   3.319   3.464 -1.8892 -0.6987 -1.9663
 2036SOL    MW4 8199   1.774   3.241   3.501 -0.3778 -0.1831 -0.6521
 2037SOL     OW 8200   1.813   3.508   3.410 -0.0204 -0.6037 -0.4753
 2037SOL    HW2 8201   1.747   3.564   3.450  0.6139 -0.6567  0.6642
 2037SOL    HW3 8202   1.796   3.513   3.316 -1.7303 -0.7305 -0.1800
 2037SOL    MW4 8203   1.802   3.516   3.403 -0.1625 -0.6273 -0.2861
 2038SOL     OW 8204   2.024   3.635   3.518  0.1670  0.3020 -0.0497
 2038SOL    HW2 8205   2.104   3.595   3.485  0.4291  0.6943  0.1054
 2038SOL    HW3 8206   1.953   3.587   3.475  0.4951  0.3405 -0.6356
 2038SOL    MW4 8207   2.025   3.623   3.508  0.2446  0.3588 -0.1066
 2039SOL     OW 8208   2.042   3.890   3.400 -0.2722  0.2812  0.1199
 2039SOL    HW2 8209   1.978   3.941   3.451 -0.4182 -0.0191  0.2398
 2039SOL    HW3 8210   2.039   3.803   3.439  0.2447  0.2761  0.1512
 2039SOL    MW4 8211   2.033   3.886   3.412 -0.2232  0.2410  0.1397
 2040SOL     OW 8212   1.854   4.051   3.519  0.0109  0.4404  0.0763
 2040SOL    HW2 8213   1.842   4.043   3.614 -0.1731  1.4427  0.1410
 2040SOL    HW3 8214   1.773   4.015   3.482 -0.5049  1.3231  0.3396
 2040SOL    MW4 8215   1.842   4.045   3.526 -0.0814  0.6895  0.1197
 2041SOL     OW 8216   1.810   4.309   3.443  0.2176 -0.0954  0.2299
 2041SOL    HW2 8217   1.819   4.218   3.472 -1.3641  0.0582  1.3033
 2041SOL    HW3 8218   1.800   4.304   3.348 -0.4841 -1.1078  0.3461
 2041SOL    MW4 8219   1.810   4.297   3.435 -0.0837 -0.2089  0.3870
 2042SOL     OW 8220   2.059   4.443   3.490 -0.0189 -0.0681  0.0411
 2042SOL    HW2 8221   1.974   4.407   3.465 -0.8645  0.6450  1.7830
 2042SOL    HW3 8222   2.067   4.523   3.438 -0.1194 -0.4694 -0.5929
 2042SOL    MW4 8223   2.049   4.449   3.480 -0.1438 -0.0272  0.1874
 2043SOL     OW 8224   2.431   4.623   3.396 -0.4365 -0.1869 -0.3556
 2043SOL    HW2 8225   2.459   4.543   3.441  0.8764  0.4112 -0.0755
 2043SOL    HW3 8226   2.468   4.615   3.308 -0.7352 -0.1317 -0.4836
 2043SOL    MW4 8227   2.440   4.612   3.391 -0.3028 -0.1006 -0.3357
 2044SOL     OW 8228   2.234   0.100   3.519  0.0309  0.1594  0.2027
 2044SOL    HW2 8229   2.234   0.181   3.469 -1.2722 -0.4744 -0.8441
 2044SOL    HW3 8230   2.300   0.045   3.477 -2.1700 -0.9807 -1.8770
 2044SOL    MW4 8231   2.243   0.103   3.507 -0.4313 -0.0746 -0.2098
 2045SOL     OW 8232   2.217   0.340   3.401 -0.0464  0.3575 -0.0611
 2045SOL    HW2 8233   2.287   0.378   3.454 -0.0662  0.1605  0.1071
 2045SOL    HW3 8234   2.138   0.387   3.429 -0.2305 -0.4636  0.8362
 2045SOL    MW4 8235   2.216   0.351   3.412 -0.0732  0.2232  0.0796
 2046SOL     OW 8236   2.447   0.460   3.514 -0.2731 -0.2390 -0.1552
 2046SOL    HW2 8237   2.524   0.408   3.491  0.5323  0.3430  1.1592
 2046SOL    HW3 8238   2.460   0.544   3.469  0.1351  0.0449  0.4746
 2046SOL    MW4 8239   2.459   0.465   3.505 -0.1130 -0.1248  0.1013
 2047SOL     OW 8240   2.441   0.756   3.450  0.0212 -0.3413 -0.1974
 2047SOL    HW2 8241   2.522   0.791   3.487 -0.3724  0.4270 -0.0531
 2047SOL    HW3 8242   2.454   0.761   3.355 -0.9472  2.4258 -0.2214
 2047SOL    MW4 8243   2.454   0.761   3.442 -0.1585  0.1251 -0.1817
 2048SOL     OW 8244   2.198   0.868   3.474 -0.4027 -0.6372 -0.2979
 2048SOL    HW2 8245   2.202   0.957   3.439 -0.3595 -0.3723  0.3669
 2048SOL    HW3 8246   2.283   0.830   3.451 -0.9605 -0.9885 -1.8221
 2048SOL    MW4 8247   2.210   0.875   3.466 -0.4706 -0.6486 -0.4113
 2049SOL     OW 8248   2.240   1.121   3.386  0.1144  0.6070  0.1184
 2049SOL    HW2 8249   2.323   1.160   3.413  0.4725 -0.8051  1.0921
 2049SOL    HW3 8250   2.173   1.177   3.427  0.5611  1.7644 -0.6970
 2049SOL    MW4 8251   2.242   1.134   3.395  0.2208  0.5734  0.1392
 2050SOL     OW 8252   2.464   1.256   3.496 -0.1499  0.4086  0.3706
 2050SOL    HW2 8253   2.475   1.261   3.591  1.5851  0.6989  0.1787
 2050SOL    HW3 8254   2.540   1.206   3.466  0.2346  1.7896 -1.0229
 2050SOL    MW4 8255   2.476   1.251   3.504  0.1297  0.6292  0.1614
 2051SOL     OW 8256   2.479   1.532   3.439 -0.2375  0.0148  0.5049
 2051SOL    HW2 8257   2.486   1.442   3.470 -0.1784 -0.0347  0.3515
 2051SOL    HW3 8258   2.483   1.524   3.343  0.0530  0.2065  0.5018
 2051SOL    MW4 8259   2.480   1.519   3.430 -0.1917  0.0335  0.4840
 2052SOL     OW 8260   2.234   1.665   3.514 -0.1689  0.3031  0.7253
 2052SOL    HW2 8261   2.258   1.672   3.606  1.3065 -0.9583  0.4567
 2052SOL    HW3 8262   2.313   1.630   3.471 -1.3122 -0.5027 -0.7687
 2052SOL    MW4 8263   2.248   1.661   3.520 -0.1249  0.0304  0.4923
 2053SOL     OW 8264   2.230   1.916   3.410 -0.0195  0.4278 -0.0860
 2053SOL    HW2 8265   2.228   1.829   3.451 -1.9097  0.0602 -0.9009
 2053SOL    HW3 8266   2.249   1.899   3.318  0.7918  0.9891 -0.0290
 2053SOL    MW4 8267   2.232   1.902   3.403 -0.1619  0.4534 -0.1860
 2054SOL     OW 8268   2.457   2.038   3.492  0.0794 -0.2543 -0.1868
 2054SOL    HW2 8269   2.465   2.058   3.586  0.7449  2.3477 -0.7517
 2054SOL    HW3 8270   2.374   1.991   3.484 -0.4914  0.4120  1.5651
 2054SOL    MW4 8271   2.447   2.035   3.503  0.0920  0.1771 -0.0303
 2055SOL     OW 8272   2.464   2.320   3.396 -0.3153 -0.1562  0.4221
 2055SOL    HW2 8273   2.544   2.365   3.424 -0.2747  0.0253  0.0161
 2055SOL    HW3 8274   2.473   2.231   3.432  0.3261 -0.3029 -0.0794
 2055SOL    MW4 8275   2.476   2.314   3.405 -0.2253 -0.1519  0.3026
 2056SOL     OW 8276   2.212   2.379   3.478  0.0354  0.0502 -0.3553
 2056SOL    HW2 8277   2.181   2.464   3.446 -0.5256 -0.2223 -0.5363
 2056SOL    HW3 8278   2.304   2.375   3.450 -0.3514 -0.0348 -1.6437
 2056SOL    MW4 8279   2.220   2.390   3.470 -0.0899  0.0031 -0.5491
 2057SOL     OW 8280   2.214   2.649   3.397 -0.1222 -0.0159  0.2122
 2057SOL    HW2 8281   2.135   2.698   3.418 -0.5275 -1.0204  1.0944
 2057SOL    HW3 8282   2.224   2.658   3.302 -1.9146 -0.7596 -0.0647
 2057SOL    MW4 8283   2.205   2.656   3.387 -0.4120 -0.2468  0.2923
 2058SOL     OW 8284   2.436   2.818   3.534  0.0410 -0.1216  0.1117
 2058SOL    HW2 8285   2.424   2.903   3.494  0.8550  0.4158  0.9868
 2058SOL    HW3 8286   2.407   2.755   3.467  0.7967  0.7738 -1.0725
 2058SOL    MW4 8287   2.431   2.821   3.520  0.2480  0.0677  0.0708
 2059SOL     OW 8288   2.492   3.062   3.399 -0.2013 -0.1472 -0.3950
 2059SOL    HW2 8289   2.566   3.119   3.422 -0.9801  0.1125  1.5164
 2059SOL    HW3 8290   2.488   3.066   3.303  2.2077 -0.0971 -0.5298
 2059SOL    MW4 8291   2.502   3.070   3.389  0.0138 -0.1066 -0.1605
 2060SOL     OW 8292   2.235   3.203   3.479 -0.2933 -0.3964 -0.7547
 2060SOL    HW2 8293   2.233   3.213   3.574 -0.0801  0.7673 -0.8599
 2060SOL    HW3 8294   2.323   3.169   3.460 -0.4141 -0.8398 -0.5216
 2060SOL    MW4 8295   2.246   3.200   3.489 -0.2813 -0.3014 -0.7379
 2061SOL     OW 8296   2.239   3.486   3.407  0.2056  0.2885 -0.2405
 2061SOL    HW2 8297   2.229   3.393   3.429 -0.8529  0.0432 -1.7036
 2061SOL    HW3 8298   2.247   3.488   3.312  1.8023  1.5833 -0.1029
 2061SOL    MW4 8299   2.239   3.474   3.397  0.2766  0.4270 -0.4153
 2062SOL     OW 8300   2.477   3.593   3.516  0.1677 -0.2801 -0.4974
 2062SOL    HW2 8301   2.473   3.686   3.495  0.8494  0.1435  1.1978
 2062SOL    HW3 8302   2.393   3.558   3.486 -1.1460  1.3683  1.1511
 2062SOL    MW4 8303   2.465   3.601   3.509  0.0844 -0.0067 -0.0563
 2063SOL     OW 8304   2.484   3.864   3.424  0.4926  0.0188 -0.5336
 2063SOL    HW2 8305   2.563   3.914   3.442  0.1825  0.8001 -1.2709
 2063SOL    HW3 8306   2.414   3.913   3.468  0.5305 -1.1432  0.8542
 2063SOL    MW4 8307   2.485   3.877   3.432  0.4566 -0.0312 -0.4478
 2064SOL     OW 8308   2.264   3.998   3.513 -0.0731  0.5533  0.2992
 2064SOL    HW2 8309   2.276   4.087   3.480  0.1910  1.0645  1.7364
 2064SOL    HW3 8310   2.184   3.967   3.471  0.2164  1.1929 -0.7658
 2064SOL    MW4 8311   2.255   4.005   3.503  0.0000  0.7052  0.3481
 2065SOL     OW 8312   2.275   4.262   3.432 -0.3172  0.0230 -0.1092
 2065SOL    HW2 8313   2.196   4.307   3.463 -2.0403 -2.6329 -0.4921
 2065SOL    HW3 8314   2.268   4.265   3.337 -0.9058 -1.7691 -0.1384
 2065SOL    MW4 8315   2.264   4.268   3.424 -0.6220 -0.5636 -0.1636
 2066SOL     OW 8316   2.502   4.385   3.539 -0.0457  0.1562  0.3187
 2066SOL    HW2 8317   2.488   4.381   3.633  0.0505 -0.2888  0.3152
 2066SOL    HW3 8318   2.422   4.348   3.502 -0.6884  1.6565  0.1886
 2066SOL    MW4 8319   2.489   4.379   3.546 -0.1180  0.2956  0.3011
 2067SOL     OW 8320   2.929   4.654   3.375 -0.1497 -0.0815  0.0551
 2067SOL    HW2 8321   2.845   4.684   3.410 -0.6808 -0.6424 -0.7142
 2067SOL    HW3 8322   2.921   4.666   3.280  0.1628 -1.2915 -0.1336
 2067SOL    MW4 8323   2.917   4.660   3.367 -0.1786 -0.3157 -0.0713
 2068SOL     OW 8324   2.683   0.049   3.475 -0.0716  0.0227  0.0086
 2068SOL    HW2 8325   2.680   0.144   3.459 -0.9126  0.2387  1.3640
 2068SOL    HW3 8326   2.596   0.018   3.448  0.3088 -0.4138 -0.7254
 2068SOL    MW4 8327   2.671   0.058   3.469 -0.1323 -0.0064  0.0906
 2069SOL     OW 8328   2.680   0.313   3.439  0.3099 -0.0154 -0.0583
 2069SOL    HW2 8329   2.762   0.352   3.469  0.5518 -1.0257  0.5853
 2069SOL    HW3 8330   2.680   0.330   3.344  1.0166  0.4259  0.0095
 2069SOL    MW4 8331   2.691   0.321   3.430  0.4349 -0.0905  0.0355
 2070SOL     OW 8332   2.902   0.454   3.500 -0.2746 -0.4951  0.1843
 2070SOL    HW2 8333   2.903   0.475   3.594 -2.1728 -0.1162  0.1400
 2070SOL    HW3 8334   2.891   0.538   3.457  1.3970 -0.5778 -0.4371
 2070SOL    MW4 8335   2.901   0.467   3.507 -0.3045 -0.4560  0.0966
 2071SOL     OW 8336   2.916   0.720   3.403 -0.3053 -0.2023  0.0966
 2071SOL    HW2 8337   2.996   0.763   3.433 -0.0209 -0.3764 -0.4051
 2071SOL    HW3 8338   2.845   0.762   3.452  0.1111 -0.1502  0.6466
 2071SOL    MW4 8339   2.917   0.731   3.413 -0.2129 -0.2184  0.1032
 2072SOL     OW 8340   2.681   0.856   3.538 -0.0343 -0.1466  0.0964
 2072SOL    HW2 8341   2.690   0.853   3.634 -0.0843 -1.4261  0.0777
 2072SOL    HW3 8342   2.683   0.949   3.516  0.7206  0.1268  1.2788
 2072SOL    MW4 8343   2.683   0.868   3.548  0.0584 -0.2794  0.2499
 2073SOL     OW 8344   2.689   1.118   3.426 -0.4430  0.5551  0.0290
 2073SOL    HW2 8345   2.755   1.185   3.444  1.3415 -1.0246 -0.4847
 2073SOL    HW3 8346   2.691   1.108   3.331  0.3932 -1.2816  0.2298
 2073SOL    MW4 8347   2.698   1.126   3.416 -0.0973  0.1043 -0.0122
 2074SOL     OW 8348   2.892   1.298   3.454 -0.1887  0.0343  0.4236
 2074SOL    HW2 8349   2.898   1.293   3.550 -0.7346 -0.4364  0.4399
 2074SOL    HW3 8350   2.959   1.238   3.422  0.3505  0.5906  0.5032
 2074SOL    MW4 8351   2.901   1.289   3.463 -0.1895  0.0455  0.4363
 2075SOL     OW 8352   2.939   1.546   3.401  0.7154 -0.2543 -0.4145
 2075SOL    HW2 8353   2.874   1.594   3.452  1.9516  0.2381  0.7331
 2075SOL    HW3 8354   2.924   1.454   3.425  0.8705 -0.0826  0.3636
 2075SOL    MW4 8355   2.929   1.540   3.411  0.8991 -0.1667 -0.1607
 2076SOL     OW 8356   2.706   1.637   3.531  0.6847 -0.4614 -0.2681
 2076SOL    HW2 8357   2.688   1.718   3.484  0.7485  0.2910  0.9912
 2076SOL    HW3 8358   2.626   1.585   3.518 -0.4037  0.8300  1.0266
 2076SOL    MW4 8359   2.693   1.641   3.523  0.5498 -0.1916  0.0689
 2077SOL     OW 8360   2.668   1.888   3.379  0.0017  0.5706 -0.0643
 2077SOL    HW2 8361   2.607   1.947   3.423  1.4169  0.6667  1.8303
 2077SOL    HW3 8362   2.641   1.891   3.287 -2.0859  1.5119  0.5391
 2077SOL    MW4 8363   2.657   1.896   3.372 -0.0868  0.7075  0.2651
 2078SOL     OW 8364   2.872   2.042   3.498  0.1526  0.0248 -0.4623
 2078SOL    HW2 8365   2.860   2.051   3.593  0.1362  0.7950 -0.5342
 2078SOL    HW3 8366   2.794   1.994   3.469 -0.0053  0.0771 -0.1339
 2078SOL    MW4 8367   2.860   2.036   3.507  0.1297  0.1333 -0.4284
 2079SOL     OW 8368   2.926   2.332   3.403 -0.0185 -0.0077  0.1380
 2079SOL    HW2 8369   2.913   2.249   3.450 -0.8825 -0.3959 -0.7696
 2079SOL    HW3 8370   2.907   2.312   3.312 -1.8834  1.5487  0.1314
 2079SOL    MW4 8371   2.922   2.319   3.397 -0.3784  0.1464  0.0172
 2080SOL     OW 8372   2.679   2.428   3.494  0.4990 -0.1403 -0.0375
 2080SOL    HW2 8373   2.693   2.410   3.587  2.1593  1.2325 -0.0091
 2080SOL    HW3 8374   2.764   2.413   3.453  0.2742  1.1456 -1.0181
 2080SOL    MW4 8375   2.692   2.424   3.501  0.6886  0.2103 -0.1631
 2081SOL     OW 8376   2.665   2.696   3.415 -0.4863 -0.1037 -0.1909
 2081SOL    HW2 8377   2.662   2.603   3.440  0.4502  0.0783  0.6590
 2081SOL    HW3 8378   2.611   2.740   3.480  1.6373  0.3228  1.3517
 2081SOL    MW4 8379   2.658   2.689   3.427 -0.0827 -0.0234  0.1245
 2082SOL     OW 8380   2.895   2.853   3.468  0.0716 -0.4012 -0.2435
 2082SOL    HW2 8381   2.901   2.846   3.563 -1.4764  0.1854 -0.0881
 2082SOL    HW3 8382   2.816   2.803   3.446  0.2985 -0.3415 -1.1937
 2082SOL    MW4 8383   2.885   2.845   3.478 -0.1025 -0.3161 -0.3486
 2083SOL     OW 8384   2.940   3.118   3.364  0.5983  0.5277 -0.7110
 2083SOL    HW2 8385   2.921   3.026   3.381 -0.0646  0.9018  0.6857
 2083SOL    HW3 8386   2.941   3.126   3.269 -1.5763 -0.4619 -0.8340
 2083SOL    MW4 8387   2.938   3.107   3.354  0.2239  0.4468 -0.5431
 2084SOL     OW 8388   2.721   3.204   3.469 -0.3200  0.2821  0.0509
 2084SOL    HW2 8389   2.734   3.190   3.563  0.8755  0.4393 -0.0813
 2084SOL    HW3 8390   2.806   3.182   3.430 -0.7803  0.3190 -0.9802
 2084SOL    MW4 8391   2.734   3.199   3.476 -0.2229  0.3078 -0.1025
 2085SOL     OW 8392   2.695   3.471   3.400 -0.4159  0.1948  0.0046
 2085SOL    HW2 8393   2.703   3.381   3.432  0.5151  0.0288 -0.6744
 2085SOL    HW3 8394   2.624   3.509   3.452 -0.3062 -0.7009  0.8147
 2085SOL    MW4 8395   2.687   3.464   3.411 -0.2785  0.0548  0.0217
 2086SOL     OW 8396   2.918   3.619   3.505  0.0001 -0.1540  0.4457
 2086SOL    HW2 8397   2.904   3.704   3.463  1.4276  0.0206  0.2755
 2086SOL    HW3 8398   2.839   3.569   3.485  0.4215  0.0963 -2.0502
 2086SOL    MW4 8399   2.906   3.624   3.497  0.2439 -0.0978  0.0939
 2087SOL     OW 8400   2.928   3.886   3.409 -0.7149 -0.3924  0.4538
 2087SOL    HW2 8401   2.989   3.937   3.462  0.1228 -0.6436 -0.2463
 2087SOL    HW3 8402   2.841   3.918   3.434 -0.1887  1.7800 -0.4014
 2087SOL    MW4 8403   2.925   3.897   3.419 -0.5350 -0.1390  0.2482
 2088SOL     OW 8404   2.694   4.004   3.530  0.2031  0.4152 -0.0233
 2088SOL    HW2 8405   2.688   4.009   3.626 -0.0643 -0.2360 -0.0082
 2088SOL    HW3 8406   2.710   4.095   3.503  0.8048  0.5254  0.6732
 2088SOL    MW4 8407   2.696   4.017   3.539  0.2472  0.3438  0.0703
 2089SOL     OW 8408   2.719   4.256   3.437  0.1405 -0.6068  0.2098
 2089SOL    HW2 8409   2.805   4.295   3.456 -0.0358 -0.2832  0.3478
 2089SOL    HW3 8410   2.658   4.307   3.490 -0.4860  0.9871 -1.9361
 2089SOL    MW4 8411   2.722   4.268   3.446  0.0346 -0.3533 -0.0551
 2090SOL     OW 8412   2.944   4.389   3.519  0.3534  0.0405 -0.5631
 2090SOL    HW2 8413   2.921   4.410   3.610  0.4281 -0.6033 -0.3857
 2090SOL    HW3 8414   2.931   4.470   3.471 -0.4935  0.1763 -0.1259
 2090SOL    MW4 8415   2.939   4.402   3.525  0.2513 -0.0262 -0.4818
 2091SOL     OW 8416   3.386   0.011   3.432 -0.4892 -0.0234 -0.4590
 2091SOL    HW2 8417   3.303   0.043   3.468 -1.6512 -2.1262 -1.2346
 2091SOL    HW3 8418   3.369  -0.004   3.339  0.2712 -1.9609 -0.3194
 2091SOL    MW4 8419   3.373   0.013   3.425 -0.5424 -0.5565 -0.5429
 2092SOL     OW 8420   3.142   0.112   3.519 -0.1164 -0.2724  0.3056
 2092SOL    HW2 8421   3.151   0.200   3.481  1.9275 -0.2386  0.8247
 2092SOL    HW3 8422   3.078   0.069   3.463 -0.4412  1.2329 -0.5247
 2092SOL    MW4 8423   3.135   0.118   3.507  0.1101 -0.0693  0.2646
 2093SOL     OW 8424   3.148   0.376   3.415  0.2727 -0.0412  0.4676
 2093SOL    HW2 8425   3.064   0.410   3.446  0.8442  1.2930  0.5929
 2093SOL    HW3 8426   3.141   0.378   3.320 -0.6694 -2.0746  0.4792
 2093SOL    MW4 8427   3.136   0.381   3.406  0.2239 -0.1335  0.4857
 2094SOL     OW 8428   3.349   0.538   3.509  0.0501 -0.2340 -0.0390
 2094SOL    HW2 8429   3.364   0.511   3.599 -0.7753 -1.0808 -0.1368
 2094SOL    HW3 8430   3.289   0.472   3.474  0.2171  0.1855 -1.1499
 2094SOL    MW4 8431   3.343   0.526   3.516 -0.0365 -0.2903 -0.1986
 2095SOL     OW 8432   3.335   0.796   3.402 -0.2799  0.2102  0.5155
 2095SOL    HW2 8433   3.418   0.836   3.427 -0.5746  0.9079  0.3756
 2095SOL    HW3 8434   3.345   0.703   3.426 -0.1810  0.6559  2.3151
 2095SOL    MW4 8435   3.347   0.789   3.409 -0.3057  0.3611  0.7348
 2096SOL     OW 8436   3.108   0.910   3.490  0.5414  0.1235  0.0734
 2096SOL    HW2 8437   3.100   0.986   3.433  1.4303 -0.0944 -0.3383
 2096SOL    HW3 8438   3.185   0.863   3.458  0.6680 -0.3424  1.0485
 2096SOL    MW4 8439   3.117   0.914   3.478  0.6752  0.0333  0.1476
 2097SOL     OW 8440   3.100   1.148   3.360 -0.0960 -0.0408  0.1388
 2097SOL    HW2 8441   3.181   1.189   3.391  0.1555 -2.1232  2.3815
 2097SOL    HW3 8442   3.104   1.156   3.265  1.3419  2.4498  0.3585
 2097SOL    MW4 8443   3.111   1.154   3.351  0.1268  0.0130  0.4637
 2098SOL     OW 8444   3.341   1.292   3.429 -0.3493 -0.4556 -0.0052
 2098SOL    HW2 8445   3.428   1.254   3.414 -0.5728 -0.6365 -0.8428
 2098SOL    HW3 8446   3.350   1.383   3.402  0.3201  0.2525  2.4580
 2098SOL    MW4 8447   3.354   1.299   3.424 -0.2906 -0.3859  0.2091
 2099SOL     OW 8448   3.368   1.575   3.392  0.2286 -0.0755  0.0909
 2099SOL    HW2 8449   3.449   1.603   3.434  1.1617 -1.1654 -0.9226
 2099SOL    HW3 8450   3.299   1.595   3.456  1.2712  1.0025  0.8997
 2099SOL    MW4 8451   3.370   1.581   3.406  0.4895 -0.0770  0.0641
 2100SOL     OW 8452   3.149   1.662   3.545  0.2746 -0.3435  0.0251
 2100SOL    HW2 8453   3.146   1.751   3.509  1.5264 -1.1279 -2.1293
 2100SOL    HW3 8454   3.079   1.616   3.498  0.3522 -0.7723  0.3349
 2100SOL    MW4 8455   3.139   1.668   3.534  0.4499 -0.5035 -0.2182
 2101SOL     OW 8456   3.112   1.912   3.410 -0.0652  0.2296 -0.1671
 2101SOL    HW2 8457   3.030   1.951   3.440 -1.5994 -1.6154 -1.8081
 2101SOL    HW3 8458   3.110   1.921   3.315  2.6024  1.9191 -0.1281
 2101SOL    MW4 8459   3.101   1.918   3.401  0.0844  0.2091 -0.3784
 2102SOL     OW 8460   3.343   2.038   3.482  0.0250 -0.4346 -0.0823
 2102SOL    HW2 8461   3.327   2.115   3.427  0.6569 -0.5713 -0.4675
 2102SOL    HW3 8462   3.262   1.987   3.475 -1.2685  1.2782  2.0024
 2102SOL    MW4 8463   3.330   2.041   3.474 -0.0622 -0.2267  0.1416
 2103SOL     OW 8464   3.326   2.289   3.362 -0.4721 -0.0341  0.5046
 2103SOL    HW2 8465   3.405   2.320   3.406  0.4311  1.2954 -1.9334
 2103SOL    HW3 8466   3.265   2.363   3.369 -0.4002  0.0998 -0.2615
 2103SOL    MW4 8467   3.328   2.303   3.369 -0.3438  0.1590  0.0820
 2104SOL     OW 8468   3.148   2.487   3.403 -0.1035 -0.2953  0.3088
 2104SOL    HW2 8469   3.133   2.577   3.375 -1.0431 -0.1214  1.3533
 2104SOL    HW3 8470   3.063   2.445   3.395  0.0369 -0.7313  1.1382
 2104SOL    MW4 8471   3.135   2.493   3.398 -0.2089 -0.3300  0.5560
 2105SOL     OW 8472   3.126   2.756   3.350 -0.3707 -0.0262  0.3164
 2105SOL    HW2 8473   3.204   2.779   3.401 -0.6576  0.8355  0.3626
 2105SOL    HW3 8474   3.053   2.790   3.401 -0.7314 -0.0997 -0.1474
 2105SOL    MW4 8475   3.127   2.763   3.364 -0.4559  0.0777  0.2611
 2106SOL     OW 8476   3.366   2.822   3.467  0.1301 -0.1327 -0.6387
 2106SOL    HW2 8477   3.442   2.766   3.449  0.3521 -0.1436  0.2733
 2106SOL    HW3 8478   3.395   2.910   3.446  0.5364 -0.0866  0.0966
 2106SOL    MW4 8479   3.380   2.826   3.462  0.2131 -0.1280 -0.4213
 2107SOL     OW 8480   3.417   3.086   3.389  0.0130  0.5887 -0.2523
 2107SOL    HW2 8481   3.498   3.117   3.428 -0.6751 -1.3132  2.8971
 2107SOL    HW3 8482   3.350   3.148   3.419 -0.1044  0.6696 -0.6768
 2107SOL    MW4 8483   3.419   3.098   3.398 -0.0930  0.3483  0.1075
 2108SOL     OW 8484   3.185   3.196   3.479  0.1050 -0.0142 -0.3053
 2108SOL    HW2 8485   3.175   3.288   3.455 -1.1444  0.1685  0.8434
 2108SOL    HW3 8486   3.112   3.152   3.437  0.6548 -0.4821 -0.7862
 2108SOL    MW4 8487   3.174   3.202   3.470  0.0126 -0.0517 -0.2172
 2109SOL     OW 8488   3.161   3.466   3.411 -0.2908  0.1366  0.0996
 2109SOL    HW2 8489   3.088   3.515   3.449  0.1381  1.3666 -0.6364
 2109SOL    HW3 8490   3.158   3.487   3.318  1.4663  0.8392  0.1729
 2109SOL    MW4 8491   3.151   3.475   3.404 -0.0024  0.3915  0.0117
 2110SOL     OW 8492   3.380   3.627   3.488  0.3918  0.1430 -0.5229
 2110SOL    HW2 8493   3.363   3.710   3.444 -1.9297  1.3869  2.4916
 2110SOL    HW3 8494   3.308   3.570   3.460  0.5128  0.0215 -0.5829
 2110SOL    MW4 8495   3.368   3.630   3.478  0.1013  0.2911 -0.1330
 2111SOL     OW 8496   3.342   3.881   3.384 -0.2989  0.2672  0.1568
 2111SOL    HW2 8497   3.414   3.938   3.414 -0.0991  0.3439 -0.4508
 2111SOL    HW3 8498   3.264   3.917   3.426 -0.0759  0.5987  0.2926
 2111SOL    MW4 8499   3.341   3.893   3.394 -0.2429  0.3209  0.0947
 2112SOL     OW 8500   3.152   4.023   3.513 -0.7116  0.0879 -0.3879
 2112SOL    HW2 8501   3.168   4.044   3.605 -4.0095 -1.6916  0.6406
 2112SOL    HW3 8502   3.157   4.108   3.468  0.6750  0.9970  1.4305
 2112SOL    MW4 8503   3.155   4.037   3.519 -0.9639 -0.0272 -0.0124
 2113SOL     OW 8504   3.158   4.275   3.390 -0.2849 -0.0069 -0.1696
 2113SOL    HW2 8505   3.234   4.319   3.427 -0.7080  0.6475 -0.0635
 2113SOL    HW3 8506   3.083   4.314   3.437 -0.5780 -1.8501  0.9617
 2113SOL    MW4 8507   3.158   4.286   3.401 -0.3793 -0.1636 -0.0062
 2114SOL     OW 8508   3.359   4.414   3.497  0.0353 -0.1513  0.1498
 2114SOL    HW2 8509   3.350   4.399   3.591 -0.6871 -0.1169  0.0871
 2114SOL    HW3 8510   3.392   4.504   3.491 -0.2717 -0.0237  0.3576
 2114SOL    MW4 8511   3.362   4.424   3.509 -0.1004 -0.1297  0.1688
 2115SOL     OW 8512   3.780   0.028   3.415 -0.3122  0.2717 -0.2487
 2115SOL    HW2 8513   3.707   0.084   3.440 -1.7608 -1.3390 -0.7871
 2115SOL    HW3 8514   3.782   0.032   3.320 -1.7854 -2.2302 -0.4199
 2115SOL    MW4 8515   3.771   0.036   3.406 -0.6974 -0.2709 -0.3421
 2116SOL     OW 8516   3.585   0.179   3.540 -0.2986 -0.0814  0.1608
 2116SOL    HW2 8517   3.572   0.269   3.509 -1.3579  0.8912  3.2825
 2116SOL    HW3 8518   3.520   0.128   3.490 -0.8028  1.1403 -0.4614
 2116SOL    MW4 8519   3.574   0.184   3.529 -0.5050  0.2081  0.4907
 2117SOL     OW 8520   3.557   0.451   3.368  0.3091 -0.2152  0.2126
 2117SOL    HW2 8521   3.633   0.481   3.416  0.1909  1.7273 -0.7808
 2117SOL    HW3 8522   3.482   0.483   3.418  0.1710 -0.0560 -0.0925
 2117SOL    MW4 8523   3.557   0.459   3.381  0.2749  0.0620  0.0412
 2118SOL     OW 8524   3.811   0.524   3.495 -0.2411 -0.4489  0.3691
 2118SOL    HW2 8525   3.804   0.497   3.586  0.8281 -0.4718  0.4438
 2118SOL    HW3 8526   3.888   0.478   3.462  0.0113  0.4087 -0.2456
 2118SOL    MW4 8527   3.820   0.515   3.502 -0.0670 -0.3387  0.2980
 2119SOL     OW 8528   3.845   0.768   3.377  0.1943 -0.4267  0.6832
 2119SOL    HW2 8529   3.928   0.803   3.409  0.0034 -0.1478  0.8824
 2119SOL    HW3 8530   3.829   0.690   3.429 -0.2139  0.1351  1.4125
 2119SOL    MW4 8531   3.854   0.763   3.388  0.1154 -0.3157  0.8056
 2120SOL     OW 8532   3.583   0.888   3.463  0.2569 -0.4386 -0.2003
 2120SOL    HW2 8533   3.588   0.896   3.558  0.6207 -0.0413 -0.2508
 2120SOL    HW3 8534   3.670   0.860   3.436  0.3877  0.2166 -0.4870
 2120SOL    MW4 8535   3.595   0.886   3.472  0.3221 -0.2997 -0.2446
 2121SOL     OW 8536   3.582   1.164   3.402 -0.0947 -0.0573  0.2057
 2121SOL    HW2 8537   3.591   1.072   3.425  0.6020 -0.4493 -1.5816
 2121SOL    HW3 8538   3.586   1.166   3.306 -1.2113  1.7073  0.1675
 2121SOL    MW4 8539   3.583   1.152   3.392 -0.1500  0.1237 -0.0350
 2122SOL     OW 8540   3.854   1.279   3.475 -0.5706 -0.2368  0.2062
 2122SOL    HW2 8541   3.854   1.269   3.571  1.6417 -2.3092  0.0433
 2122SOL    HW3 8542   3.773   1.237   3.447 -0.3260 -1.2863  1.0416
 2122SOL    MW4 8543   3.843   1.272   3.484 -0.2465 -0.6487  0.2949
 2123SOL     OW 8544   3.831   1.546   3.395 -0.5461  0.3640  0.2382
 2123SOL    HW2 8545   3.910   1.588   3.428 -1.3414  1.2502  1.0369
 2123SOL    HW3 8546   3.836   1.457   3.428  1.1920 -0.2539 -1.5310
 2123SOL    MW4 8547   3.842   1.540   3.404 -0.4218  0.3994  0.1101
 2124SOL     OW 8548   3.618   1.666   3.513 -0.2827  0.1126 -0.6117
 2124SOL    HW2 8549   3.623   1.749   3.467  2.3853  0.0353 -0.5440
 2124SOL    HW3 8550   3.687   1.613   3.474 -1.3980 -1.7965 -0.0790
 2124SOL    MW4 8551   3.627   1.670   3.502 -0.0777 -0.1495 -0.5324
 2125SOL     OW 8552   3.582   1.905   3.397 -0.2197 -0.3705  0.0326
 2125SOL    HW2 8553   3.658   1.951   3.431  0.2107  0.1154 -1.5614
 2125SOL    HW3 8554   3.507   1.950   3.436  0.2244  1.0694 -0.7631
 2125SOL    MW4 8555   3.582   1.917   3.406 -0.1044 -0.1163 -0.2825
 2126SOL     OW 8556   3.792   2.035   3.484 -0.1508  0.0198  0.6979
 2126SOL    HW2 8557   3.801   2.044   3.579 -0.1806  1.1547  0.6033
 2126SOL    HW3 8558   3.877   2.002   3.455  0.0889  0.3173  1.0496
 2126SOL    MW4 8559   3.804   2.032   3.492 -0.1233  0.2089  0.7315
 2127SOL     OW 8560   3.786   2.294   3.355  0.1740 -0.0331  0.6871
 2127SOL    HW2 8561   3.861   2.345   3.385  0.4209 -0.4527  0.7792
 2127SOL    HW3 8562   3.793   2.211   3.401  0.0280 -0.3261  0.1849
 2127SOL    MW4 8563   3.796   2.290   3.365  0.1872 -0.1273  0.6330
 2128SOL     OW 8564   3.564   2.385   3.497  0.6717  0.2266  0.0221
 2128SOL    HW2 8565   3.584   2.479   3.497  1.3932  0.0832 -0.6164
 2128SOL    HW3 8566   3.633   2.346   3.443  0.1803 -0.6306  0.0006
 2128SOL    MW4 8567   3.576   2.392   3.490  0.7019  0.0947 -0.0651
 2129SOL     OW 8568   3.578   2.669   3.437  0.1309 -0.3590  0.0652
 2129SOL    HW2 8569   3.645   2.722   3.480 -0.7711  0.3012  0.6845
 2129SOL    HW3 8570   3.588   2.688   3.344  0.2873  0.3401  0.2227
 2129SOL    MW4 8571   3.588   2.679   3.431  0.0322 -0.1798  0.1678
 2130SOL     OW 8572   3.799   2.846   3.519  0.1298 -0.2200  0.4748
 2130SOL    HW2 8573   3.804   2.862   3.613 -1.3576 -0.2343  0.5587
 2130SOL    HW3 8574   3.814   2.933   3.480  1.3768 -0.3205  0.6876
 2130SOL    MW4 8575   3.802   2.860   3.526  0.0982 -0.2348  0.5143
 2131SOL     OW 8576   3.852   3.116   3.418 -0.2014 -0.1560 -0.2324
 2131SOL    HW2 8577   3.922   3.180   3.435 -0.6112  0.5252 -1.0911
 2131SOL    HW3 8578   3.853   3.103   3.324 -1.6709  0.3696 -0.3323
 2131SOL    MW4 8579   3.862   3.123   3.408 -0.4492  0.0031 -0.3586
 2132SOL     OW 8580   3.621   3.235   3.521  0.1970 -0.4762  0.3348
 2132SOL    HW2 8581   3.616   3.328   3.498  0.7606 -0.3840  0.5824
 2132SOL    HW3 8582   3.706   3.206   3.487 -0.3424 -1.1105 -0.4991
 2132SOL    MW4 8583   3.632   3.243   3.514  0.2000 -0.5479  0.2577
 2133SOL     OW 8584   3.633   3.486   3.405 -0.0113 -0.1594  0.2031
 2133SOL    HW2 8585   3.551   3.532   3.425  0.3572  1.2028 -1.3039
 2133SOL    HW3 8586   3.630   3.473   3.310  1.3772 -0.3913  0.1800
 2133SOL    MW4 8587   3.621   3.490   3.395  0.2203 -0.0100  0.0012
 2134SOL     OW 8588   3.838   3.622   3.511 -0.1141  0.6142 -0.3368
 2134SOL    HW2 8589   3.806   3.617   3.601  0.1428  0.3008 -0.2608
 2134SOL    HW3 8590   3.768   3.582   3.458 -0.5788  1.4488 -0.3578
 2134SOL    MW4 8591   3.824   3.616   3.516 -0.1416  0.6833 -0.3297
 2135SOL     OW 8592   3.795   3.874   3.394  0.0164  0.0742 -0.2236
 2135SOL    HW2 8593   3.712   3.912   3.422 -0.1066 -0.7711  0.5572
 2135SOL    HW3 8594   3.807   3.798   3.450  0.8760 -0.3321 -0.9534
 2135SOL    MW4 8595   3.786   3.869   3.405  0.1135 -0.0908 -0.2170
 2136SOL     OW 8596   3.577   3.991   3.495  0.5868 -0.1121  0.2623
 2136SOL    HW2 8597   3.583   3.985   3.590  0.8027 -0.5963  0.2169
 2136SOL    HW3 8598   3.571   4.085   3.477  0.6738 -0.0162  0.7450
 2136SOL    MW4 8599   3.577   4.003   3.505  0.6268 -0.1631  0.3200
 2137SOL     OW 8600   3.571   4.252   3.411  0.0487  0.5055 -0.2086
 2137SOL    HW2 8601   3.500   4.306   3.444 -1.8136 -1.6058 -0.6686
 2137SOL    HW3 8602   3.575   4.272   3.317  0.2560  0.8127 -0.1369
 2137SOL    MW4 8603   3.562   4.262   3.403 -0.1698  0.2670 -0.2599
 2138SOL     OW 8604   3.781   4.422   3.510  0.2984 -0.1691  0.1346
 2138SOL    HW2 8605   3.711   4.363   3.482  1.1599 -1.3341  0.3817
 2138SOL    HW3 8606   3.769   4.501   3.458 -1.0598 -0.4518  0.0136
 2138SOL    MW4 8607   3.770   4.425   3.499  0.2327 -0.3605  0.1514
 2139SOL     OW 8608   4.267   4.627   3.425  0.3094  0.0112 -0.3736
 2139SOL    HW2 8609   4.263   4.534   3.445 -0.8549 -0.2038 -1.5803
 2139SOL    HW3 8610   4.336   4.661   3.483 -1.5910 -0.9599  2.5929
 2139SOL    MW4 8611   4.276   4.619   3.436 -0.0954 -0.1459 -0.1416
 2140SOL     OW 8612   4.032   0.109   3.521  0.4888 -0.0772 -0.4207
 2140SOL    HW2 8613   4.092   0.040   3.494  1.0086 -0.2012  0.9920
 2140SOL    HW3 8614   3.946   0.080   3.490  0.8002 -1.0367 -0.3976
 2140SOL    MW4 8615   4.029   0.096   3.513  0.5989 -0.2201 -0.2315
 2141SOL     OW 8616   4.024   0.374   3.393 -0.3812 -0.0569 -0.0435
 2141SOL    HW2 8617   4.049   0.289   3.429  0.7108  0.1049 -0.3872
 2141SOL    HW3 8618   4.004   0.356   3.301 -1.1484 -0.1160  0.1344
 2141SOL    MW4 8619   4.025   0.360   3.386 -0.3381 -0.0433 -0.0653
 2142SOL     OW 8620   4.250   0.516   3.482 -0.3116 -0.3826  0.3859
 2142SOL    HW2 8621   4.273   0.597   3.437 -0.3018 -0.3693  0.4150
 2142SOL    HW3 8622   4.168   0.488   3.443 -0.3338 -0.3391  0.4021
 2142SOL    MW4 8623   4.242   0.523   3.471 -0.3128 -0.3751  0.3920
 2143SOL     OW 8624   4.303   0.747   3.365  0.2668 -0.2259 -0.0455
 2143SOL    HW2 8625   4.380   0.796   3.395 -1.2865  2.4171 -0.2844
 2143SOL    HW3 8626   4.304   0.758   3.270 -0.6435  0.1564 -0.0092
 2143SOL    MW4 8627   4.313   0.755   3.356 -0.0582  0.1732 -0.0722
 2144SOL     OW 8628   4.089   0.876   3.441  0.3174 -0.3031 -0.2033
 2144SOL    HW2 8629   4.077   0.955   3.387 -0.7466 -1.8954 -2.3775
 2144SOL    HW3 8630   4.170   0.837   3.408 -0.2018 -1.1492 -0.4981
 2144SOL    MW4 8631   4.098   0.882   3.429  0.1087 -0.6248 -0.5291
 2145SOL     OW 8632   4.083   1.172   3.352 -0.7459  0.2306  0.2791
 2145SOL    HW2 8633   4.166   1.192   3.395 -0.5828  1.3713 -0.5487
 2145SOL    HW3 8634   4.017   1.211   3.409 -0.4576  2.7790 -1.0904
 2145SOL    MW4 8635   4.086   1.180   3.365 -0.6862  0.7174 -0.0105
 2146SOL     OW 8636   4.293   1.299   3.500  0.1418  0.4769  0.4369
 2146SOL    HW2 8637   4.310   1.384   3.460  0.3862  0.3825  0.3375
 2146SOL    HW3 8638   4.360   1.241   3.463 -0.4952  0.0567 -0.0939
 2146SOL    MW4 8639   4.304   1.302   3.490  0.0896  0.4090  0.3536
 2147SOL     OW 8640   4.300   1.555   3.403 -0.1135  0.1289 -0.6303
 2147SOL    HW2 8641   4.220   1.589   3.444  0.6876  2.5098 -1.0144
 2147SOL    HW3 8642   4.276   1.541   3.311 -0.1785  0.5066 -0.6695
 2147SOL    MW4 8643   4.286   1.557   3.396 -0.0162  0.4928 -0.6864
 2148SOL     OW 8644   4.055   1.673   3.491 -0.1089 -0.3741  0.0369
 2148SOL    HW2 8645   4.055   1.680   3.586 -0.5617 -0.3109  0.0315
 2148SOL    HW3 8646   4.053   1.763   3.460  1.0588 -0.3679 -0.0355
 2148SOL    MW4 8647   4.055   1.685   3.499 -0.0148 -0.3650  0.0267
 2149SOL     OW 8648   4.026   1.933   3.395 -0.4101 -0.3025 -0.3578
 2149SOL    HW2 8649   4.089   1.999   3.424  0.0301 -1.2716  0.9233
 2149SOL    HW3 8650   4.043   1.922   3.302 -0.4707  1.3693 -0.5887
 2149SOL    MW4 8651   4.036   1.941   3.387 -0.3600 -0.2098 -0.2191
 2150SOL     OW 8652   4.230   2.076   3.516  0.2854 -0.2029  0.2049
 2150SOL    HW2 8653   4.234   2.170   3.495  1.7947 -0.3428 -0.1978
 2150SOL    HW3 8654   4.312   2.041   3.482 -0.2300 -1.6584  0.4557
 2150SOL    MW4 8655   4.241   2.084   3.509  0.4168 -0.4134  0.1848
 2151SOL     OW 8656   4.266   2.336   3.379  0.2290  0.3579 -0.4474
 2151SOL    HW2 8657   4.181   2.367   3.410  0.9169  1.5600  0.2594
 2151SOL    HW3 8658   4.262   2.346   3.283 -0.6029 -0.0597 -0.4575
 2151SOL    MW4 8659   4.254   2.341   3.370  0.2098  0.4611 -0.3552
 2152SOL     OW 8660   4.011   2.420   3.471  0.0948 -0.0016 -0.2046
 2152SOL    HW2 8661   3.984   2.424   3.562 -1.6243  0.8095 -0.7310
 2152SOL    HW3 8662   4.041   2.508   3.450  0.6905 -0.2379 -0.3707
 2152SOL    MW4 8663   4.012   2.432   3.480 -0.0534  0.0744 -0.2959
 2153SOL     OW 8664   4.031   2.709   3.395  0.1065  0.2268 -0.8531
 2153SOL    HW2 8665   4.109   2.762   3.413  0.1694  0.0316 -0.5503
 2153SOL    HW3 8666   3.959   2.758   3.435  0.3400 -0.5478  0.5494
 2153SOL    MW4 8667   4.032   2.722   3.403  0.1450  0.0989 -0.6278
 2154SOL     OW 8668   4.250   2.866   3.496  0.0825 -0.4865  0.6111
 2154SOL    HW2 8669   4.260   2.851   3.590  0.9351  0.2058  0.6255
 2154SOL    HW3 8670   4.325   2.822   3.456  0.8780  1.0156  0.4149
 2154SOL    MW4 8671   4.261   2.858   3.503  0.2999 -0.1972  0.5870
 2155SOL     OW 8672   4.268   3.118   3.392  0.1386  0.2365 -0.5922
 2155SOL    HW2 8673   4.257   3.028   3.423  0.1487  0.4127 -0.0650
 2155SOL    HW3 8674   4.269   3.111   3.297  0.0667 -0.3134 -0.5535
 2155SOL    MW4 8675   4.267   3.105   3.384  0.1302  0.1869 -0.5176
 2156SOL     OW 8676   4.068   3.260   3.514  0.2729 -0.1678  0.1559
 2156SOL    HW2 8677   4.064   3.345   3.470  0.1226 -0.5289 -0.5210
 2156SOL    HW3 8678   4.135   3.211   3.466  0.5409 -0.3497  0.7015
 2156SOL    MW4 8679   4.076   3.265   3.502  0.2885 -0.2394  0.1383
 2157SOL     OW 8680   4.050   3.488   3.390  0.1832  0.1103  0.4430
 2157SOL    HW2 8681   4.129   3.534   3.419 -0.3177  1.4888 -0.3552
 2157SOL    HW3 8682   3.980   3.524   3.444 -0.0641 -0.3843  0.4508
 2157SOL    MW4 8683   4.051   3.499   3.401  0.0844  0.2267  0.3386
 2158SOL     OW 8684   4.276   3.639   3.513 -0.1690  0.0042  0.2173
 2158SOL    HW2 8685   4.243   3.645   3.603 -0.1909  0.2091  0.1941
 2158SOL    HW3 8686   4.276   3.729   3.480  0.7914  0.0699  0.3610
 2158SOL    MW4 8687   4.272   3.651   3.521 -0.0453  0.0398  0.2329
 2159SOL     OW 8688   4.210   3.889   3.406 -0.3426 -0.3441 -0.6028
 2159SOL    HW2 8689   4.288   3.940   3.425 -0.2324 -0.7759  0.1147
 2159SOL    HW3 8690   4.205   3.888   3.310  0.1336  0.2750 -0.6359
 2159SOL    MW4 8691   4.219   3.895   3.396 -0.2656 -0.3195 -0.5126
 2160SOL     OW 8692   3.997   4.003   3.533  0.0286 -0.0880 -0.6443
 2160SOL    HW2 8693   4.078   3.961   3.504  0.2796  0.2817 -0.4700
 2160SOL    HW3 8694   3.930   3.967   3.474  0.3666 -0.1472 -0.9955
 2160SOL    MW4 8695   3.999   3.992   3.521  0.1063 -0.0467 -0.6678
 2161SOL     OW 8696   3.998   4.263   3.410  0.6051  0.1470  0.3521
 2161SOL    HW2 8697   3.973   4.188   3.464 -0.5687 -0.9443 -1.6287
 2161SOL    HW3 8698   3.932   4.330   3.429  0.0909 -0.2998  0.1342
 2161SOL    MW4 8699   3.986   4.262   3.420  0.3822 -0.0558  0.0622
 2162SOL     OW 8700   4.247   4.364   3.491  0.1151  0.3013 -0.2276
 2162SOL    HW2 8701   4.262   4.339   3.582  1.2178  0.3062 -0.4011
 2162SOL    HW3 8702   4.157   4.335   3.473  0.2909 -0.7425  0.5063
 2162SOL    MW4 8703   4.237   4.357   3.501  0.2832  0.1645 -0.1538
 2163SOL     OW 8704   0.221   0.000   3.899 -0.3065 -0.1820 -0.1837
 2163SOL    HW2 8705   0.232  -0.020   3.992 -0.6215  2.8283  0.5637
 2163SOL    HW3 8706   0.133   0.036   3.893  0.2896  1.1324 -1.3445
 2163SOL    MW4 8707   0.211   0.002   3.910 -0.2694  0.3885 -0.2382
 2164SOL     OW 8708   4.451   0.083   3.797  0.0154  0.0200 -0.1884
 2164SOL    HW2 8709   4.424   0.174   3.809 -0.4540  0.0077 -1.0956
 2164SOL    HW3 8710   4.485   0.079   3.708 -0.8552 -0.9016 -0.4932
 2164SOL    MW4 8711   4.452   0.094   3.787 -0.1607 -0.1032 -0.3481
 2165SOL     OW 8712   4.448   0.366   3.877 -0.0166 -0.0085  0.1454
 2165SOL    HW2 8713   4.388   0.437   3.855  0.4663  0.2373 -0.3898
 2165SOL    HW3 8714   4.535   0.402   3.861  0.2523 -0.5511  0.3659
 2165SOL    MW4 8715   4.452   0.380   3.872  0.0826 -0.0477  0.1037
 2166SOL     OW 8716   0.224   0.497   3.785 -0.3384 -0.2307  0.2272
 2166SOL    HW2 8717   0.205   0.587   3.812 -0.6840 -0.0412 -0.6347
 2166SOL    HW3 8718   0.212   0.497   3.690 -1.1555 -1.3795  0.3185
 2166SOL    MW4 8719   0.220   0.509   3.776 -0.4918 -0.3572  0.1259
 2167SOL     OW 8720   0.187   0.766   3.866  0.0273 -0.2861 -0.2680
 2167SOL    HW2 8721   0.183   0.763   3.962 -0.3665 -0.1936 -0.2811
 2167SOL    HW3 8722   0.109   0.814   3.840  0.4040  0.1492 -0.6124
 2167SOL    MW4 8723   0.177   0.772   3.875  0.0251 -0.2165 -0.3152
 2168SOL     OW 8724   4.480   0.930   3.730 -0.5151  0.3588 -0.3356
 2168SOL    HW2 8725   4.411   0.887   3.779 -0.2061  0.2912  0.0400
 2168SOL    HW3 8726   4.505   1.005   3.784  1.2249 -0.8649  0.5726
 2168SOL    MW4 8727   4.474   0.934   3.743 -0.2446  0.1884 -0.1662
 2169SOL     OW 8728   0.015   1.148   3.916  0.0468  0.1463 -0.3891
 2169SOL    HW2 8729  -0.067   1.185   3.881  1.3709  3.5523 -0.0232
 2169SOL    HW3 8730   0.084   1.195   3.870  1.8287 -0.4520  1.6199
 2169SOL    MW4 8731   0.013   1.159   3.905  0.4563  0.5168 -0.0758
 2170SOL     OW 8732   0.201   1.260   3.759  0.0162 -0.3566 -0.2558
 2170SOL    HW2 8733   0.209   1.350   3.788 -1.9800 -0.7198  1.4756
 2170SOL    HW3 8734   0.199   1.266   3.663  0.9533  1.3056 -0.1964
 2170SOL    MW4 8735   0.202   1.272   3.750 -0.1236 -0.1851 -0.0196
 2171SOL     OW 8736   0.200   1.510   3.880  0.4509  0.2382  0.8874
 2171SOL    HW2 8737   0.212   1.546   3.968  0.2073  1.3603  0.4786
 2171SOL    HW3 8738   0.127   1.560   3.843 -0.0596 -0.8616  0.3814
 2171SOL    MW4 8739   0.192   1.521   3.886  0.3514  0.2412  0.7668
 2172SOL     OW 8740   0.015   1.700   3.742  0.8463  0.1035  0.2830
 2172SOL    HW2 8741   0.016   1.789   3.777  2.0250  0.3764 -0.4176
 2172SOL    HW3 8742   0.005   1.711   3.647 -1.0029 -0.5818  0.3716
 2172SOL    MW4 8743   0.014   1.713   3.734  0.7577  0.0490  0.2022
 2173SOL     OW 8744   0.003   1.958   3.857 -0.2902  0.0039  0.0587
 2173SOL    HW2 8745   0.009   1.927   3.948 -1.0679 -0.6603 -0.1120
 2173SOL    HW3 8746  -0.070   2.020   3.858  0.4747  0.9181  0.1342
 2173SOL    MW4 8747  -0.006   1.962   3.869 -0.2918  0.0368  0.0460
 2174SOL     OW 8748   0.190   2.084   3.691 -0.0761 -0.1941 -0.1142
 2174SOL    HW2 8749   0.185   2.167   3.739 -0.1186  0.1335 -0.6770
 2174SOL    HW3 8750   0.128   2.026   3.736  0.1506 -0.0025  0.4434
 2174SOL    MW4 8751   0.181   2.087   3.703 -0.0518 -0.1254 -0.1149
 2175SOL     OW 8752   0.186   2.346   3.821 -0.2926  0.4681  0.0488
 2175SOL    HW2 8753   0.181   2.350   3.916  1.0169  3.2840  0.0535
 2175SOL    HW3 8754   0.134   2.421   3.791  0.7002  0.5964 -1.4013
 2175SOL    MW4 8755   0.178   2.356   3.829  0.0112  0.8566 -0.1419
 2176SOL     OW 8756   4.471   2.512   3.759 -0.1711  0.3002 -0.4047
 2176SOL    HW2 8757   4.401   2.466   3.805  0.3745 -0.1450 -0.0281
 2176SOL    HW3 8758   4.482   2.594   3.808  0.7564 -0.3955  0.5676
 2176SOL    MW4 8759   4.463   2.517   3.772  0.0229  0.1497 -0.2267
 2177SOL     OW 8760   0.009   2.743   3.889  0.2166  0.2063 -0.0787
 2177SOL    HW2 8761   0.082   2.804   3.876 -1.0163  1.9927  1.0236
 2177SOL    HW3 8762   0.008   2.728   3.984 -0.4205 -0.3571 -0.1780
 2177SOL    MW4 8763   0.019   2.749   3.900 -0.0310  0.3674  0.0536
 2178SOL     OW 8764   0.247   2.881   3.808  0.8770 -0.7462 -0.2283
 2178SOL    HW2 8765   0.309   2.820   3.848  1.2919 -0.8464 -1.0118
 2178SOL    HW3 8766   0.262   2.871   3.714  0.3865 -0.0194 -0.3815
 2178SOL    MW4 8767   0.258   2.872   3.801  0.8670 -0.6635 -0.3517
 2179SOL     OW 8768   0.214   3.130   3.899 -0.0103  0.3660  0.3890
 2179SOL    HW2 8769   0.204   3.128   3.994 -1.3069  0.0901  0.2566
 2179SOL    HW3 8770   0.208   3.038   3.872  2.5291  0.2024  0.2291
 2179SOL    MW4 8771   0.212   3.118   3.908  0.1536  0.3083  0.3505
 2180SOL     OW 8772   4.488   3.242   3.778  0.2347 -0.0232 -0.4647
 2180SOL    HW2 8773   4.558   3.200   3.828  0.3459 -0.2730 -0.8269
 2180SOL    HW3 8774   4.522   3.247   3.689  0.0803  0.5151 -0.4967
 2180SOL    MW4 8775   4.502   3.237   3.773  0.2284  0.0148 -0.5169
 2181SOL     OW 8776   4.441   3.486   3.887 -0.3694  0.2889  0.1522
 2181SOL    HW2 8777   4.498   3.551   3.845 -1.4503  0.9545 -0.3067
 2181SOL    HW3 8778   4.460   3.404   3.841  0.9639  0.2822  0.6942
 2181SOL    MW4 8779   4.451   3.484   3.875 -0.3362  0.3757  0.1631
 2182SOL     OW 8780   0.193   3.627   3.782 -0.1607 -0.4764  0.1467
 2182SOL    HW2 8781   0.274   3.581   3.804 -0.2920 -0.7421  0.0775
 2182SOL    HW3 8782   0.197   3.708   3.834 -0.2613 -0.8930  0.8180
 2182SOL    MW4 8783   0.205   3.631   3.792 -0.1913 -0.5662  0.2260
 2183SOL     OW 8784   0.193   3.875   3.910 -0.7646  0.3683 -0.0191
 2183SOL    HW2 8785   0.224   3.882   4.000 -0.0990  1.8529 -0.3431
 2183SOL    HW3 8786   0.265   3.910   3.857 -1.4387  0.1956 -1.0651
 2183SOL    MW4 8787   0.206   3.881   3.915 -0.7657  0.5417 -0.1996
 2184SOL     OW 8788   4.487   4.013   3.762 -0.5518 -0.1066  0.1766
 2184SOL    HW2 8789   4.401   3.990   3.798 -0.2901 -1.3677  0.0242
 2184SOL    HW3 8790   4.550   3.971   3.821 -0.1123 -1.9966 -1.5444
 2184SOL    MW4 8791   4.484   4.004   3.775 -0.4592 -0.5226 -0.0706
 2185SOL     OW 8792   0.034   4.266   3.895 -0.4407 -0.2140  0.4376
 2185SOL    HW2 8793   0.090   4.317   3.836 -0.4504 -0.2938  0.3586
 2185SOL    HW3 8794   0.046   4.175   3.867 -0.8177 -0.2063  0.2453
 2185SOL    MW4 8795   0.043   4.260   3.883 -0.4917 -0.2236  0.4020
 2186SOL     OW 8796   0.226   4.401   3.766  0.3471 -0.3364 -0.0342
 2186SOL    HW2 8797   0.291   4.351   3.816  0.7930 -0.6318 -0.8942
 2186SOL    HW3 8798   0.243   4.492   3.789  0.3921 -0.4898  0.5389
 2186SOL    MW4 8799   0.237   4.406   3.775  0.4119 -0.3958 -0.0720
 2187SOL     OW 8800   0.653   4.645   3.834 -0.0721 -0.1053  0.3439
 2187SOL    HW2 8801   0.627   4.558   3.804  0.5034 -0.3555  0.5633
 2187SOL    HW3 8802   0.581   4.702   3.807 -0.3872 -0.6244  0.0754
 2187SOL    MW4 8803   0.640   4.641   3.826 -0.0378 -0.2069  0.3374
 2188SOL     OW 8804   0.435   0.137   3.754 -0.0346  0.4339  0.3523
 2188SOL    HW2 8805   0.446   0.228   3.783  0.4172  0.1483  1.0765
 2188SOL    HW3 8806   0.350   0.111   3.791  0.5355  0.0742  1.4110
 2188SOL    MW4 8807   0.425   0.146   3.763  0.1002  0.3487  0.5877
 2189SOL     OW 8808   0.481   0.389   3.845 -0.0955 -0.3986  0.1165
 2189SOL    HW2 8809   0.555   0.435   3.806  0.7500 -1.0263  0.9511
 2189SOL    HW3 8810   0.404   0.440   3.818  0.7782  1.2803  0.6866
 2189SOL    MW4 8811   0.481   0.402   3.837  0.1313 -0.2599  0.3016
 2190SOL     OW 8812   0.702   0.535   3.721  0.0287 -0.5017 -0.0506
 2190SOL    HW2 8813   0.770   0.491   3.773 -0.5005 -0.7607  0.4318
 2190SOL    HW3 8814   0.689   0.619   3.766  0.7970  0.0114 -0.7745
 2190SOL    MW4 8815   0.710   0.540   3.734  0.0603 -0.4681 -0.0823
 2191SOL     OW 8816   0.651   0.762   3.853 -0.3394  0.0385 -0.0053
 2191SOL    HW2 8817   0.721   0.817   3.818 -1.0458 -0.0138 -1.5170
 2191SOL    HW3 8818   0.570   0.807   3.827 -0.8850 -0.3944  0.9137
 2191SOL    MW4 8819   0.649   0.775   3.845 -0.5046 -0.0255 -0.0837
 2192SOL     OW 8820   0.427   0.879   3.756  0.2038  0.0108  0.0764
 2192SOL    HW2 8821   0.434   0.972   3.778  1.2545 -0.1205  0.3010
 2192SOL    HW3 8822   0.341   0.853   3.789 -0.4065  1.0696 -0.6147
 2192SOL    MW4 8823   0.416   0.888   3.763  0.2619  0.1332  0.0148
 2193SOL     OW 8824   0.432   1.143   3.883  0.0529  0.3102  0.0465
 2193SOL    HW2 8825   0.506   1.188   3.844 -0.4411  0.3084 -0.9022
 2193SOL    HW3 8826   0.355   1.181   3.840 -0.3863 -1.2620 -0.5954
 2193SOL    MW4 8827   0.431   1.154   3.872 -0.0702  0.1025 -0.1636
 2194SOL     OW 8828   0.654   1.294   3.790  0.5610 -0.4932 -0.0880
 2194SOL    HW2 8829   0.735   1.255   3.825  1.0616  0.4174 -0.2084
 2194SOL    HW3 8830   0.664   1.289   3.695 -0.1447 -1.6350 -0.1026
 2194SOL    MW4 8831   0.666   1.289   3.782  0.5340 -0.5238 -0.1059
 2195SOL     OW 8832   0.663   1.543   3.859 -0.0932 -0.2171  0.0925
 2195SOL    HW2 8833   0.748   1.577   3.829  0.2844 -0.3970  0.9299
 2195SOL    HW3 8834   0.666   1.450   3.837  0.1593 -0.3369  0.6168
 2195SOL    MW4 8835   0.675   1.536   3.852 -0.0101 -0.2565  0.2720
 2196SOL     OW 8836   0.420   1.654   3.763 -0.7584  0.2645  0.0398
 2196SOL    HW2 8837   0.501   1.617   3.798 -0.3711  1.0237 -0.0387
 2196SOL    HW3 8838   0.350   1.599   3.799 -0.1786 -0.6746 -0.2659
 2196SOL    MW4 8839   0.421   1.642   3.772 -0.6308  0.2408 -0.0107
 2197SOL     OW 8840   0.412   1.963   3.812 -0.1273 -0.2252 -0.0252
 2197SOL    HW2 8841   0.398   1.869   3.798  0.2172 -0.3929  0.7435
 2197SOL    HW3 8842   0.332   2.004   3.779 -0.7193 -0.8685  0.5887
 2197SOL    MW4 8843   0.399   1.956   3.806 -0.1600 -0.3322  0.1576
 2198SOL     OW 8844   0.636   2.078   3.717  0.1811 -0.0016  0.1781
 2198SOL    HW2 8845   0.633   2.163   3.760 -0.7876  0.8087 -1.4450
 2198SOL    HW3 8846   0.553   2.036   3.741  0.6411 -0.5014  0.9465
 2198SOL    MW4 8847   0.625   2.084   3.726  0.1140  0.0393  0.0653
 2199SOL     OW 8848   0.678   2.340   3.881  0.2528 -0.4569  0.0603
 2199SOL    HW2 8849   0.753   2.378   3.835 -0.0898  0.5482  0.3339
 2199SOL    HW3 8850   0.603   2.391   3.853 -0.1601 -0.7110  0.6958
 2199SOL    MW4 8851   0.678   2.351   3.871  0.1531 -0.3574  0.1800
 2200SOL     OW 8852   0.440   2.457   3.792  0.0961 -0.5390  0.0820
 2200SOL    HW2 8853   0.361   2.405   3.807 -0.0816 -0.4496 -0.5438
 2200SOL    HW3 8854   0.444   2.468   3.697  0.5994 -0.1350  0.1486
 2200SOL    MW4 8855   0.430   2.452   3.781  0.1390 -0.4737  0.0081
 2201SOL     OW 8856   0.427   2.710   3.919 -0.1644 -0.5878  0.0150
 2201SOL    HW2 8857   0.508   2.746   3.883  0.2642 -0.3065  1.2331
 2201SOL    HW3 8858   0.419   2.624   3.879  0.6384 -0.5454 -0.2474
 2201SOL    MW4 8859   0.437   2.704   3.909 -0.0019 -0.5453  0.1411
 2202SOL     OW 8860   0.652   2.844   3.830  0.5137 -0.5269  0.4766
 2202SOL    HW2 8861   0.731   2.798   3.858 -0.0979 -2.1565 -0.4062
 2202SOL    HW3 8862   0.655   2.842   3.734  0.4745  1.3253  0.4045
 2202SOL    MW4 8863   0.663   2.838   3.821  0.4279 -0.4976  0.3507
 2203SOL     OW 8864   0.698   3.129   3.909 -0.3868  0.2834 -0.0379
 2203SOL    HW2 8865   0.691   3.133   4.005  0.0241 -1.5530  0.0954
 2203SOL    HW3 8866   0.685   3.036   3.888 -0.9378  0.7445 -1.8085
 2203SOL    MW4 8867   0.695   3.117   3.919 -0.4053  0.1020 -0.2539
 2204SOL     OW 8868   0.459   3.217   3.787 -0.6561  0.2716 -0.3786
 2204SOL    HW2 8869   0.540   3.206   3.836 -0.8127  0.7213 -0.0257
 2204SOL    HW3 8870   0.392   3.174   3.840 -0.8622  0.9413 -0.1044
 2204SOL    MW4 8871   0.461   3.210   3.800 -0.7040  0.4196 -0.2956
 2205SOL     OW 8872   0.420   3.487   3.836 -0.4541  0.4301 -0.3633
 2205SOL    HW2 8873   0.505   3.531   3.829 -0.0317 -0.5033 -1.2916
 2205SOL    HW3 8874   0.433   3.404   3.791 -1.5408 -0.2032  0.4773
 2205SOL    MW4 8875   0.433   3.482   3.829 -0.5418  0.2234 -0.3746
 2206SOL     OW 8876   0.650   3.627   3.814 -0.1002 -0.0376 -0.3758
 2206SOL    HW2 8877   0.661   3.720   3.834  1.7469 -0.0589 -1.1787
 2206SOL    HW3 8878   0.670   3.620   3.721 -1.1420 -1.0964 -0.5242
 2206SOL    MW4 8879   0.654   3.638   3.805  0.0061 -0.1802 -0.5012
 2207SOL     OW 8880   0.672   3.890   3.869 -0.0735 -0.3375 -0.1482
 2207SOL    HW2 8881   0.657   3.904   3.963  0.5299 -1.3265  0.0974
 2207SOL    HW3 8882   0.749   3.942   3.849  0.1134 -0.5474  0.0218
 2207SOL    MW4 8883   0.680   3.899   3.879  0.0308 -0.4957 -0.0935
 2208SOL     OW 8884   0.414   3.965   3.768  0.0607 -0.0782 -0.0583
 2208SOL    HW2 8885   0.503   3.943   3.793 -0.2378 -1.0870  0.1559
 2208SOL    HW3 8886   0.416   3.967   3.673  1.0957  3.3253 -0.0202
 2208SOL    MW4 8887   0.426   3.962   3.759  0.1579  0.2377 -0.0253
 2209SOL     OW 8888   0.418   4.226   3.903 -0.2699  0.0538 -0.2760
 2209SOL    HW2 8889   0.498   4.258   3.863  0.3271 -0.3790  0.5587
 2209SOL    HW3 8890   0.408   4.137   3.868  0.3133 -0.3660  0.6166
 2209SOL    MW4 8891   0.427   4.218   3.893 -0.1142 -0.0587 -0.0482
 2210SOL     OW 8892   0.644   4.335   3.783  0.1912 -0.1335  0.7402
 2210SOL    HW2 8893   0.734   4.336   3.818  0.5714 -0.2967 -0.2164
 2210SOL    HW3 8894   0.654   4.360   3.691 -0.7540 -0.1404  0.6331
 2210SOL    MW4 8895   0.658   4.338   3.776  0.1166 -0.1559  0.5999
 2211SOL     OW 8896   1.119   0.032   3.825  0.0178  0.2182 -0.1810
 2211SOL    HW2 8897   1.193   0.078   3.786 -0.4600  1.3109  0.1734
 2211SOL    HW3 8898   1.138  -0.061   3.812  2.0888  0.4453  1.0897
 2211SOL    MW4 8899   1.131   0.026   3.818  0.2280  0.3923  0.0334
 2212SOL     OW 8900   0.867   0.133   3.770  0.6059  0.1416 -0.0361
 2212SOL    HW2 8901   0.952   0.093   3.789  0.2656 -0.1889  0.7958
 2212SOL    HW3 8902   0.803   0.068   3.796  0.0620  0.8928  0.5325
 2212SOL    MW4 8903   0.870   0.119   3.776  0.4892  0.1971  0.1488
 2213SOL     OW 8904   0.881   0.387   3.889 -0.4332  0.1131 -0.2623
 2213SOL    HW2 8905   0.888   0.371   3.983 -0.5484  0.0759 -0.2594
 2213SOL    HW3 8906   0.874   0.299   3.851 -1.8809  0.1885 -0.1789
 2213SOL    MW4 8907   0.881   0.373   3.896 -0.6394  0.1181 -0.2511
 2214SOL     OW 8908   1.086   0.533   3.769 -0.1720  0.1485 -0.0114
 2214SOL    HW2 8909   1.163   0.487   3.803 -0.4384  0.1814  0.6347
 2214SOL    HW3 8910   1.012   0.491   3.813 -0.5108  0.2803 -0.4508
 2214SOL    MW4 8911   1.087   0.521   3.779 -0.2519  0.1703  0.0160
 2215SOL     OW 8912   1.089   0.781   3.906  0.0085 -0.4999  0.0445
 2215SOL    HW2 8913   1.068   0.773   3.999 -0.4784 -2.7879 -0.2235
 2215SOL    HW3 8914   1.083   0.692   3.873  0.1384  0.3014 -2.2041
 2215SOL    MW4 8915   1.086   0.768   3.914 -0.0385 -0.6960 -0.2875
 2216SOL     OW 8916   0.878   0.914   3.775  0.5531 -0.1104 -0.1458
 2216SOL    HW2 8917   0.955   0.875   3.818  1.0492  1.7832  0.7287
 2216SOL    HW3 8918   0.894   0.901   3.681  1.3843 -0.7261  0.0746
 2216SOL    MW4 8919   0.890   0.907   3.768  0.7282  0.0582 -0.0014
 2217SOL     OW 8920   0.903   1.166   3.909 -0.6409  0.2182 -0.0635
 2217SOL    HW2 8921   0.876   1.143   3.999 -0.5153 -1.0842 -0.3460
 2217SOL    HW3 8922   0.890   1.085   3.859  0.9946  0.4110 -0.8344
 2217SOL    MW4 8923   0.898   1.152   3.915 -0.4086  0.0718 -0.2027
 2218SOL     OW 8924   1.095   1.288   3.755  0.3574  0.2452  0.1539
 2218SOL    HW2 8925   1.072   1.381   3.764 -0.4001  0.1494 -0.6817
 2218SOL    HW3 8926   1.030   1.243   3.808  1.0339  0.2197  0.9680
 2218SOL    MW4 8927   1.083   1.295   3.763  0.3467  0.2292  0.1509
 2219SOL     OW 8928   1.123   1.555   3.853  0.4988 -0.1443  0.0355
 2219SOL    HW2 8929   1.125   1.560   3.948  0.8472  1.7789 -0.0594
 2219SOL    HW3 8930   1.210   1.584   3.825 -0.0310  0.5834 -0.9055
 2219SOL    MW4 8931   1.135   1.559   3.862  0.4748  0.2054 -0.1013
 2220SOL     OW 8932   0.898   1.684   3.763  0.2861  0.4225  0.2978
 2220SOL    HW2 8933   0.982   1.647   3.792 -0.0266 -0.4240  0.1472
 2220SOL    HW3 8934   0.897   1.669   3.669 -0.5216 -0.5811  0.4597
 2220SOL    MW4 8935   0.909   1.677   3.754  0.1383  0.1783  0.2992
 2221SOL     OW 8936   0.867   1.961   3.801  0.0309  0.2077 -0.3652
 2221SOL    HW2 8937   0.862   1.868   3.778  1.3024  0.3133 -1.1557
 2221SOL    HW3 8938   0.784   1.998   3.771 -1.0303 -0.9216  1.1670
 2221SOL    MW4 8939   0.855   1.954   3.794  0.0587  0.0726 -0.2673
 2222SOL     OW 8940   1.118   2.062   3.737  0.4014  0.3534  0.4898
 2222SOL    HW2 8941   1.034   2.026   3.765  0.3388  0.8319  0.9256
 2222SOL    HW3 8942   1.117   2.054   3.642  0.7412 -1.5393  0.6340
 2222SOL    MW4 8943   1.107   2.056   3.728  0.4379  0.1667  0.5665
 2223SOL     OW 8944   1.102   2.304   3.888 -0.4637  0.3488  0.5026
 2223SOL    HW2 8945   1.137   2.302   3.977  0.5298  1.1632  0.1461
 2223SOL    HW3 8946   1.119   2.216   3.854 -0.8946  0.0175  1.1248
 2223SOL    MW4 8947   1.109   2.292   3.895 -0.3896  0.4127  0.5379
 2224SOL     OW 8948   0.900   2.460   3.787  0.4233 -0.3216  0.0510
 2224SOL    HW2 8949   0.899   2.549   3.822 -0.9268 -0.3170  0.0380
 2224SOL    HW3 8950   0.985   2.424   3.814  1.3862  1.2895 -0.8129
 2224SOL    MW4 8951   0.911   2.467   3.795  0.3723 -0.1082 -0.0646
 2225SOL     OW 8952   0.892   2.711   3.903  0.8911 -0.4832  0.5273
 2225SOL    HW2 8953   0.889   2.715   3.999  0.3442  1.5669  0.4387
 2225SOL    HW3 8954   0.971   2.758   3.880  0.9800 -0.9106 -0.0503
 2225SOL    MW4 8955   0.902   2.717   3.913  0.8307 -0.2692  0.4392
 2226SOL     OW 8956   1.111   2.831   3.797 -0.5769 -0.1604  0.2795
 2226SOL    HW2 8957   1.184   2.777   3.828  0.2501 -0.0825 -1.4621
 2226SOL    HW3 8958   1.122   2.914   3.845  0.1987 -0.3130  0.3869
 2226SOL    MW4 8959   1.122   2.835   3.808 -0.3654 -0.1705  0.0641
 2227SOL     OW 8960   1.115   3.103   3.907 -0.3418 -0.1280 -0.2750
 2227SOL    HW2 8961   1.195   3.141   3.870  0.3175 -0.0919  1.1319
 2227SOL    HW3 8962   1.046   3.166   3.887  0.3453  0.7814  0.1545
 2227SOL    MW4 8963   1.117   3.116   3.900 -0.1642 -0.0031 -0.0329
 2228SOL     OW 8964   0.898   3.266   3.808  0.1029 -0.0509 -0.0730
 2228SOL    HW2 8965   0.817   3.224   3.837  0.1499  0.1077  0.2945
 2228SOL    HW3 8966   0.907   3.242   3.716  1.4955 -3.0765  0.7763
 2228SOL    MW4 8967   0.889   3.257   3.800  0.2928 -0.4292  0.0875
 2229SOL     OW 8968   0.928   3.535   3.880 -1.2270 -0.1313  0.5173
 2229SOL    HW2 8969   0.935   3.442   3.857 -0.2362  0.4284 -1.5104
 2229SOL    HW3 8970   0.835   3.554   3.871 -1.1513 -0.4391 -1.0728
 2229SOL    MW4 8971   0.916   3.525   3.876 -1.0862 -0.0980  0.0401
 2230SOL     OW 8972   1.144   3.646   3.767  0.1216  0.5263 -0.6195
 2230SOL    HW2 8973   1.151   3.735   3.802 -0.1401 -0.5953  2.3675
 2230SOL    HW3 8974   1.059   3.615   3.796  0.4785 -0.9397 -1.1060
 2230SOL    MW4 8975   1.134   3.654   3.775  0.1341  0.1848 -0.2897
 2231SOL     OW 8976   1.116   3.913   3.873  0.0990  0.3756 -0.0605
 2231SOL    HW2 8977   1.131   3.906   3.968  0.9119 -0.1479 -0.2213
 2231SOL    HW3 8978   1.196   3.954   3.840 -0.1299  0.4304 -0.5435
 2231SOL    MW4 8979   1.129   3.918   3.881  0.1762  0.3138 -0.1454
 2232SOL     OW 8980   0.881   4.033   3.781 -0.4339  0.3927 -0.4230
 2232SOL    HW2 8981   0.963   3.986   3.795 -0.5405  0.1245 -0.7213
 2232SOL    HW3 8982   0.859   4.017   3.690  0.1079  1.9339 -0.8352
 2232SOL    MW4 8983   0.889   4.025   3.771 -0.3765  0.5612 -0.5167
 2233SOL     OW 8984   0.912   4.300   3.851  0.5929 -0.3106  0.3176
 2233SOL    HW2 8985   0.924   4.278   3.944  0.8431 -1.9857 -0.0859
 2233SOL    HW3 8986   0.904   4.215   3.808 -1.0274  0.4915 -0.9981
 2233SOL    MW4 8987   0.913   4.286   3.858  0.4122 -0.4258  0.0908
 2234SOL     OW 8988   1.157   4.407   3.791  0.0234 -0.1695 -0.1945
 2234SOL    HW2 8989   1.076   4.374   3.830  0.1493  0.4276  0.5894
 2234SOL    HW3 8990   1.143   4.399   3.696 -1.3232  0.7909 -0.0897
 2234SOL    MW4 8991   1.144   4.402   3.783 -0.1377  0.0362 -0.0772
 2235SOL     OW 8992   1.515   4.652   3.897  0.1270  0.1682  0.2582
 2235SOL    HW2 8993   1.528   4.645   3.991 -0.1571 -0.6741  0.2391
 2235SOL    HW3 8994   1.515   4.562   3.866 -1.8521  0.3215 -0.2546
 2235SOL    MW4 8995   1.516   4.639   3.905 -0.1717  0.0772  0.1881
 2236SOL     OW 8996   1.349   0.149   3.737  0.5081  0.1013 -0.0839
 2236SOL    HW2 8997   1.335   0.233   3.782 -0.4497  0.0074 -0.1961
 2236SOL    HW3 8998   1.422   0.110   3.783  0.8492  0.9228  0.0899
 2236SOL    MW4 8999   1.356   0.155   3.749  0.4267  0.1973 -0.0758
 2237SOL     OW 9000   1.305   0.392   3.862  0.0962 -0.1800 -0.1512
 2237SOL    HW2 9001   1.308   0.391   3.957  1.1888 -0.7142 -0.1765
 2237SOL    HW3 9002   1.383   0.442   3.836 -0.8150  0.9561 -0.7514
 2237SOL    MW4 9003   1.316   0.398   3.871  0.1202 -0.1006 -0.2337
 2238SOL     OW 9004   1.543   0.531   3.784 -0.1843 -0.1514 -0.0504
 2238SOL    HW2 9005   1.628   0.501   3.816  0.2999  1.3089  0.0912
 2238SOL    HW3 9006   1.532   0.618   3.823 -0.5810  0.7602 -2.0962
 2238SOL    MW4 9007   1.552   0.539   3.793 -0.1729  0.1615 -0.3014
 2239SOL     OW 9008   1.549   0.793   3.904 -0.6352 -0.3735  0.1915
 2239SOL    HW2 9009   1.637   0.812   3.871  0.0786  2.3463  3.3495
 2239SOL    HW3 9010   1.493   0.853   3.856 -0.2500  0.3734  0.6629
 2239SOL    MW4 9011   1.554   0.803   3.893 -0.4901  0.0839  0.6702
 2240SOL     OW 9012   1.301   0.903   3.756  0.2935 -0.2907  0.1818
 2240SOL    HW2 9013   1.302   0.989   3.797  0.4673 -0.7624  1.1700
 2240SOL    HW3 9014   1.246   0.850   3.813 -0.1697 -0.7248 -0.6559
 2240SOL    MW4 9015   1.294   0.907   3.769  0.2555 -0.4102  0.2019
 2241SOL     OW 9016   1.327   1.166   3.877 -0.6205  0.1471 -0.6868
 2241SOL    HW2 9017   1.405   1.208   3.841 -0.7538  0.2927 -0.8001
 2241SOL    HW3 9018   1.253   1.212   3.838 -0.7640  0.2785 -0.2631
 2241SOL    MW4 9019   1.328   1.177   3.867 -0.6572  0.1835 -0.6456
 2242SOL     OW 9020   1.566   1.289   3.742  0.3594  0.2400  0.4284
 2242SOL    HW2 9021   1.641   1.237   3.770  1.1668  0.3503 -1.4652
 2242SOL    HW3 9022   1.581   1.376   3.780  1.0999  0.2100  0.2131
 2242SOL    MW4 9023   1.578   1.294   3.751  0.5636  0.2507  0.1500
 2243SOL     OW 9024   1.602   1.549   3.858 -0.4125  0.5624 -0.2770
 2243SOL    HW2 9025   1.607   1.552   3.954  0.3673 -1.6062 -0.2420
 2243SOL    HW3 9026   1.677   1.601   3.829 -0.7746  1.4121  0.2845
 2243SOL    MW4 9027   1.612   1.556   3.867 -0.3573  0.3883 -0.1981
 2244SOL     OW 9028   1.365   1.662   3.785 -0.3969 -0.3354  0.1551
 2244SOL    HW2 9029   1.351   1.752   3.815  1.0325  0.4822 -1.4959
 2244SOL    HW3 9030   1.458   1.647   3.800 -0.6521 -1.5883  0.4994
 2244SOL    MW4 9031   1.375   1.672   3.791 -0.2421 -0.3929 -0.0176
 2245SOL     OW 9032   1.344   1.915   3.897  0.2263  0.1930  0.0556
 2245SOL    HW2 9033   1.336   1.915   3.992  1.8018  2.2187  0.2325
 2245SOL    HW3 9034   1.261   1.951   3.865 -0.1690 -0.1669  0.6736
 2245SOL    MW4 9035   1.332   1.920   3.905  0.3819  0.4127  0.1605
 2246SOL     OW 9036   1.572   2.061   3.807  0.1880  0.0465 -0.0041
 2246SOL    HW2 9037   1.489   2.018   3.825 -1.3500  3.1923  0.7691
 2246SOL    HW3 9038   1.579   2.062   3.712 -0.6502 -0.2934 -0.0713
 2246SOL    MW4 9039   1.562   2.056   3.797 -0.1255  0.4168  0.0892
 2247SOL     OW 9040   1.550   2.325   3.884  0.3577 -0.0504 -0.1255
 2247SOL    HW2 9041   1.622   2.378   3.849  1.3992 -0.2261  1.6521
 2247SOL    HW3 9042   1.555   2.242   3.836  0.3923  0.5011 -1.0715
 2247SOL    MW4 9043   1.560   2.321   3.873  0.4997 -0.0010 -0.0157
 2248SOL     OW 9044   1.326   2.459   3.794 -0.0972  0.3229 -0.0400
 2248SOL    HW2 9045   1.400   2.407   3.825 -0.2447 -0.5647 -1.1348
 2248SOL    HW3 9046   1.249   2.408   3.820 -0.2145 -0.6721 -2.2104
 2248SOL    MW4 9047   1.325   2.446   3.801 -0.1322  0.0746 -0.4709
 2249SOL     OW 9048   1.330   2.707   3.897 -0.2521 -0.1544 -0.5424
 2249SOL    HW2 9049   1.335   2.709   3.992  0.8805  0.7329 -0.6103
 2249SOL    HW3 9050   1.339   2.614   3.874  2.7748 -0.0412  0.0675
 2249SOL    MW4 9051   1.332   2.695   3.906  0.2967 -0.0224 -0.4709
 2250SOL     OW 9052   1.541   2.865   3.795 -0.2208 -0.0510 -0.0357
 2250SOL    HW2 9053   1.461   2.816   3.812 -0.5037  0.4542  0.1090
 2250SOL    HW3 9054   1.538   2.882   3.700 -0.4758  0.2932  0.0323
 2250SOL    MW4 9055   1.530   2.861   3.784 -0.2919  0.0613 -0.0079
 2251SOL     OW 9056   1.591   3.131   3.877  0.4986  0.2123  0.6721
 2251SOL    HW2 9057   1.581   3.120   3.972 -0.5328  0.3252  0.5718
 2251SOL    HW3 9058   1.594   3.042   3.843  0.2547  0.1773  0.7438
 2251SOL    MW4 9059   1.590   3.118   3.885  0.3303  0.2227  0.6685
 2252SOL     OW 9060   1.336   3.225   3.801  0.0313 -0.3519  0.0212
 2252SOL    HW2 9061   1.337   3.311   3.843 -1.4995 -0.6153  0.6373
 2252SOL    HW3 9062   1.415   3.181   3.833 -0.4296 -0.0565  1.5938
 2252SOL    MW4 9063   1.346   3.230   3.811 -0.2314 -0.3474  0.3099
 2253SOL     OW 9064   1.337   3.467   3.931  0.5035 -0.4451  0.2040
 2253SOL    HW2 9065   1.413   3.508   3.888  1.1364 -1.3115  0.4884
 2253SOL    HW3 9066   1.262   3.509   3.890  1.0962 -1.2010 -1.7454
 2253SOL    MW4 9067   1.337   3.478   3.920  0.6652 -0.6588 -0.0157
 2254SOL     OW 9068   1.558   3.594   3.805  0.2467 -0.0378 -0.0498
 2254SOL    HW2 9069   1.647   3.571   3.833 -0.0723 -0.3133  0.7601
 2254SOL    HW3 9070   1.546   3.684   3.833 -0.0979 -0.3358  0.7951
 2254SOL    MW4 9071   1.568   3.603   3.812  0.1591 -0.1132  0.1683
 2255SOL     OW 9072   1.571   3.878   3.862  0.0002 -0.3672  0.2838
 2255SOL    HW2 9073   1.563   3.858   3.956  0.8021 -1.0751  0.2120
 2255SOL    HW3 9074   1.495   3.932   3.842  1.1476  1.9356  1.9222
 2255SOL    MW4 9075   1.560   3.883   3.872  0.2573 -0.1569  0.4904
 2256SOL     OW 9076   1.348   4.005   3.784  0.5217 -0.0241 -0.7857
 2256SOL    HW2 9077   1.348   4.094   3.820 -1.8562  0.0890 -0.9416
 2256SOL    HW3 9078   1.336   4.018   3.690 -0.4096 -0.5047 -0.7430
 2256SOL    MW4 9079   1.346   4.019   3.776  0.0851 -0.0730 -0.8006
 2257SOL     OW 9080   1.352   4.258   3.926  0.4265 -0.2732  0.2691
 2257SOL    HW2 9081   1.432   4.299   3.892  0.1398  0.0801  0.0148
 2257SOL    HW3 9082   1.281   4.310   3.888  0.0803 -0.4918  0.6194
 2257SOL    MW4 9083   1.353   4.270   3.916  0.3430 -0.2551  0.2818
 2258SOL     OW 9084   1.548   4.403   3.808 -0.0358  0.3222 -0.0028
 2258SOL    HW2 9085   1.638   4.389   3.838  0.5111  0.6114 -1.4706
 2258SOL    HW3 9086   1.555   4.406   3.713 -1.4582  1.4035 -0.0779
 2258SOL    MW4 9087   1.561   4.401   3.800 -0.1513  0.5031 -0.2065
 2259SOL     OW 9088   1.992   0.008   3.926 -0.6784  0.0078  0.0970
 2259SOL    HW2 9089   2.051   0.071   3.886 -0.7854  0.0293 -0.0257
 2259SOL    HW3 9090   2.001  -0.071   3.872  0.5715 -0.5754  1.1109
 2259SOL    MW4 9091   2.001   0.006   3.914 -0.5274 -0.0658  0.2146
 2260SOL     OW 9092   1.742   0.102   3.826  0.1171  0.1339  0.3186
 2260SOL    HW2 9093   1.819   0.065   3.869  0.2680  1.5752  1.3083
 2260SOL    HW3 9094   1.669   0.048   3.856  0.8730 -2.0602 -1.6298
 2260SOL    MW4 9095   1.743   0.090   3.836  0.2367  0.0346  0.1919
 2261SOL     OW 9096   1.762   0.400   3.878  0.5867  0.3075  0.1934
 2261SOL    HW2 9097   1.778   0.402   3.972  0.7079  0.7693  0.1655
 2261SOL    HW3 9098   1.740   0.309   3.859  0.5603  0.2139  0.6680
 2261SOL    MW4 9099   1.761   0.388   3.888  0.5991  0.3561  0.2522
 2262SOL     OW 9100   2.025   0.483   3.822  0.0880 -0.0806 -0.5939
 2262SOL    HW2 9101   1.939   0.456   3.854  0.2622 -0.4361 -0.4240
 2262SOL    HW3 9102   2.026   0.454   3.731  0.3592 -0.8508 -0.3486
 2262SOL    MW4 9103   2.014   0.476   3.814  0.1471 -0.2291 -0.5393
 2263SOL     OW 9104   2.031   0.752   3.851 -0.2894 -0.1623  0.4116
 2263SOL    HW2 9105   2.036   0.744   3.946 -1.1878 -1.8542  0.3430
 2263SOL    HW3 9106   2.040   0.662   3.819  1.1292  0.5247 -1.1596
 2263SOL    MW4 9107   2.033   0.739   3.859 -0.2210 -0.2950  0.1955
 2264SOL     OW 9108   1.801   0.892   3.772 -0.5121 -0.1391  0.4247
 2264SOL    HW2 9109   1.883   0.851   3.801 -0.5589  0.1876  1.0252
 2264SOL    HW3 9110   1.795   0.870   3.679  0.9144  0.9118  0.0598
 2264SOL    MW4 9111   1.811   0.883   3.763 -0.3301  0.0427  0.4559
 2265SOL     OW 9112   1.778   1.158   3.863  0.1733 -0.5939 -0.2010
 2265SOL    HW2 9113   1.773   1.160   3.958  1.9622 -0.1610 -0.0903
 2265SOL    HW3 9114   1.785   1.065   3.841 -1.8271 -0.7909 -0.0175
 2265SOL    MW4 9115   1.779   1.146   3.873  0.1454 -0.5627 -0.1621
 2266SOL     OW 9116   1.986   1.272   3.714  0.6082  0.3122  0.0863
 2266SOL    HW2 9117   2.062   1.226   3.752  0.7437 -0.0058 -0.5512
 2266SOL    HW3 9118   1.910   1.232   3.757  0.6649 -1.3154 -1.2693
 2266SOL    MW4 9119   1.986   1.260   3.725  0.6336  0.0556 -0.1767
 2267SOL     OW 9120   2.033   1.499   3.874  0.2932  0.3618 -0.6090
 2267SOL    HW2 9121   1.969   1.561   3.839 -0.9900 -0.2135  0.6366
 2267SOL    HW3 9122   2.014   1.416   3.829 -0.5188 -0.0594  0.4891
 2267SOL    MW4 9123   2.022   1.496   3.864  0.0167  0.2304 -0.2997
 2268SOL     OW 9124   1.845   1.694   3.798 -0.2861  0.5092 -0.0018
 2268SOL    HW2 9125   1.861   1.781   3.835 -0.0075  0.2735  0.4288
 2268SOL    HW3 9126   1.823   1.711   3.706 -1.2355  1.1077  0.3292
 2268SOL    MW4 9127   1.844   1.708   3.791 -0.3746  0.5571  0.0987
 2269SOL     OW 9128   1.813   1.975   3.908  0.1515  0.1640  0.2080
 2269SOL    HW2 9129   1.791   1.978   4.001 -1.1511  1.3341 -0.1066
 2269SOL    HW3 9130   1.733   2.005   3.864  0.3592 -1.4612 -1.3500
 2269SOL    MW4 9131   1.799   1.979   3.915  0.0070  0.1038 -0.0393
 2270SOL     OW 9132   2.059   2.082   3.818 -0.1993  0.5963 -0.2988
 2270SOL    HW2 9133   1.985   2.037   3.859  0.1776  0.3228  0.0838
 2270SOL    HW3 9134   2.046   2.069   3.724  0.2465 -0.8616 -0.1678
 2270SOL    MW4 9135   2.048   2.074   3.811 -0.0906  0.3679 -0.2313
 2271SOL     OW 9136   2.003   2.327   3.905  0.5552  0.0501 -0.1906
 2271SOL    HW2 9137   1.922   2.362   3.868 -0.2327 -1.7818 -0.2177
 2271SOL    HW3 9138   2.015   2.243   3.863  0.7801 -1.1107  2.1118
 2271SOL    MW4 9139   1.994   2.321   3.895  0.4810 -0.3445  0.1097
 2272SOL     OW 9140   1.776   2.440   3.784 -0.1865  0.4827  0.0170
 2272SOL    HW2 9141   1.771   2.525   3.827  0.9400  0.6444 -0.1643
 2272SOL    HW3 9142   1.776   2.461   3.691 -1.2615  0.2029 -0.0580
 2272SOL    MW4 9143   1.775   2.454   3.777 -0.1798  0.4671 -0.0169
 2273SOL     OW 9144   1.758   2.704   3.863 -0.2409  0.3518 -0.0602
 2273SOL    HW2 9145   1.771   2.730   3.954  0.7259  1.3945 -0.4812
 2273SOL    HW3 9146   1.693   2.766   3.830 -0.5303  0.0246 -0.1058
 2273SOL    MW4 9147   1.751   2.716   3.871 -0.1515  0.4463 -0.1218
 2274SOL     OW 9148   1.998   2.796   3.773 -0.4535  0.3151  0.4195
 2274SOL    HW2 9149   2.058   2.730   3.809 -1.1077 -0.1433  0.6796
 2274SOL    HW3 9150   1.911   2.767   3.801 -0.9254  0.2333 -1.0842
 2274SOL    MW4 9151   1.995   2.783   3.781 -0.6020  0.2439  0.2551
 2275SOL     OW 9152   2.028   3.043   3.898 -0.3947 -0.1389 -0.2664
 2275SOL    HW2 9153   2.100   3.090   3.856  1.3150 -0.3657  2.3068
 2275SOL    HW3 9154   2.027   2.958   3.855  1.0399 -0.2000 -0.2296
 2275SOL    MW4 9155   2.038   3.038   3.887  0.0200 -0.1767  0.0780
 2276SOL     OW 9156   1.824   3.220   3.759 -0.6089  0.2816  0.4241
 2276SOL    HW2 9157   1.888   3.158   3.795  0.4584  1.3446  0.3934
 2276SOL    HW3 9158   1.742   3.199   3.804 -0.0490 -0.5818  1.0472
 2276SOL    MW4 9159   1.822   3.209   3.770 -0.3942  0.3078  0.5021
 2277SOL     OW 9160   1.793   3.484   3.873  0.0699 -0.1189 -0.2509
 2277SOL    HW2 9161   1.861   3.543   3.842  0.5604 -0.3201  0.4448
 2277SOL    HW3 9162   1.797   3.409   3.814  0.7822 -0.3510  0.0837
 2277SOL    MW4 9163   1.802   3.482   3.861  0.2286 -0.1760 -0.1152
 2278SOL     OW 9164   1.994   3.662   3.798  0.1947  0.5497 -0.1351
 2278SOL    HW2 9165   2.055   3.599   3.836 -0.6547 -0.0325  0.2705
 2278SOL    HW3 9166   2.006   3.652   3.703  0.7194  0.4252 -0.0556
 2278SOL    MW4 9167   2.004   3.652   3.790  0.1519  0.4566 -0.0710
 2279SOL     OW 9168   2.037   3.921   3.858  0.3427  0.1977 -0.3435
 2279SOL    HW2 9169   2.124   3.940   3.823  0.6484  0.2520  0.4370
 2279SOL    HW3 9170   2.025   3.828   3.844 -0.1535  0.4903 -1.9531
 2279SOL    MW4 9171   2.047   3.911   3.852  0.3178  0.2437 -0.4530
 2280SOL     OW 9172   1.789   4.051   3.805  0.1310 -0.0178 -0.1642
 2280SOL    HW2 9173   1.871   4.017   3.840  0.5250  0.0363 -1.0005
 2280SOL    HW3 9174   1.724   3.984   3.825  0.5650 -0.4831 -0.3010
 2280SOL    MW4 9175   1.791   4.038   3.812  0.2402 -0.0715 -0.2923
 2281SOL     OW 9176   1.816   4.330   3.875  0.2670  0.3473  0.5377
 2281SOL    HW2 9177   1.886   4.384   3.838  0.9203  0.0376  1.3080
 2281SOL    HW3 9178   1.833   4.242   3.842 -0.7179  0.5686 -0.6042
 2281SOL    MW4 9179   1.827   4.326   3.866  0.2233  0.3362  0.4885
 2282SOL     OW 9180   2.034   4.455   3.767  0.1976  0.1834  0.2291
 2282SOL    HW2 9181   2.104   4.399   3.799  0.2798  0.0160 -0.2361
 2282SOL    HW3 9182   2.056   4.471   3.675 -0.7381 -0.4459 -0.1075
 2282SOL    MW4 9183   2.046   4.450   3.759  0.0849  0.0782  0.1233
 2283SOL     OW 9184   2.416   4.663   3.856  0.2909  0.2711  0.0048
 2283SOL    HW2 9185   2.444   4.667   3.948 -0.5764  1.1332  0.2369
 2283SOL    HW3 9186   2.488   4.705   3.808  0.7181 -0.1232  0.2997
 2283SOL    MW4 9187   2.429   4.669   3.862  0.2327  0.3328  0.0739
 2284SOL     OW 9188   2.190   0.146   3.794  0.3458  0.1016 -0.3452
 2284SOL    HW2 9189   2.243   0.070   3.816  0.2904  0.6190  1.7674
 2284SOL    HW3 9190   2.197   0.155   3.699  0.9227 -2.0905 -0.5252
 2284SOL    MW4 9191   2.198   0.137   3.785  0.4146 -0.1194 -0.0904
 2285SOL     OW 9192   2.250   0.382   3.927  0.0945 -0.0409  0.1173
 2285SOL    HW2 9193   2.243   0.299   3.879  1.7240  0.7286 -1.5307
 2285SOL    HW3 9194   2.174   0.433   3.898  0.8963  0.2947 -1.4838
 2285SOL    MW4 9195   2.239   0.378   3.917  0.4148  0.1049 -0.3114
 2286SOL     OW 9196   2.447   0.518   3.788 -0.2565 -0.4731 -0.2895
 2286SOL    HW2 9197   2.375   0.472   3.829 -1.8803  1.9665 -0.2869
 2286SOL    HW3 9198   2.436   0.501   3.694 -1.0686  0.2139 -0.3194
 2286SOL    MW4 9199   2.436   0.510   3.781 -0.5779 -0.0606 -0.2930
 2287SOL     OW 9200   2.417   0.773   3.910 -0.6893 -0.8103  0.1197
 2287SOL    HW2 9201   2.362   0.828   3.854 -1.3078 -1.7783 -0.2495
 2287SOL    HW3 9202   2.430   0.693   3.858  2.5266  0.0748 -0.5257
 2287SOL    MW4 9203   2.411   0.770   3.895 -0.3464 -0.8212 -0.0143
 2288SOL     OW 9204   2.220   0.936   3.738  0.0990  0.1190 -0.0176
 2288SOL    HW2 9205   2.155   0.877   3.776  0.3842  0.6668  1.3347
 2288SOL    HW3 9206   2.225   0.910   3.646 -1.1781 -0.6981  0.1315
 2288SOL    MW4 9207   2.212   0.925   3.731 -0.0317  0.0835  0.1807
 2289SOL     OW 9208   2.202   1.176   3.845 -0.0190 -0.2896  0.5406
 2289SOL    HW2 9209   2.211   1.169   3.940 -2.1331  0.1676  0.8097
 2289SOL    HW3 9210   2.208   1.086   3.814  0.9298 -0.4174  1.0735
 2289SOL    MW4 9211   2.204   1.163   3.854 -0.1726 -0.2462  0.6464
 2290SOL     OW 9212   2.470   1.281   3.775  0.3276 -0.1861 -0.3940
 2290SOL    HW2 9213   2.474   1.374   3.796 -0.1257  0.2743 -2.3236
 2290SOL    HW3 9214   2.387   1.251   3.814 -0.0884  0.4618 -0.7826
 2290SOL    MW4 9215   2.460   1.289   3.783  0.2129 -0.0398 -0.6998
 2291SOL     OW 9216   2.517   1.543   3.834  0.8238  0.0780 -0.1028
 2291SOL    HW2 9217   2.591   1.600   3.815  0.3031  1.1900  1.1044
 2291SOL    HW3 9218   2.441   1.590   3.800  0.3368  0.3570  1.3103
 2291SOL    MW4 9219   2.516   1.556   3.827  0.6909  0.2615  0.2429
 2292SOL     OW 9220   2.260   1.684   3.787 -0.2601  0.2082 -0.7177
 2292SOL    HW2 9221   2.255   1.752   3.853  1.7188  0.1393 -0.4787
 2292SOL    HW3 9222   2.201   1.615   3.819 -0.8183  0.9881 -0.0354
 2292SOL    MW4 9223   2.251   1.684   3.800 -0.0725  0.3020 -0.5960
 2293SOL     OW 9224   2.256   1.911   3.943  0.1107 -0.6363 -0.1427
 2293SOL    HW2 9225   2.262   1.914   4.038 -0.9577  0.6661 -0.1067
 2293SOL    HW3 9226   2.183   1.969   3.921  1.8409  0.9647 -1.8938
 2293SOL    MW4 9227   2.248   1.919   3.953  0.1981 -0.2533 -0.3693
 2294SOL     OW 9228   2.453   2.069   3.787  0.1283 -0.0951 -0.3206
 2294SOL    HW2 9229   2.450   2.154   3.831  1.9961  0.9097 -2.0748
 2294SOL    HW3 9230   2.389   2.015   3.834  0.6781  1.5272  2.3490
 2294SOL    MW4 9231   2.444   2.073   3.799  0.4470  0.2515 -0.1998
 2295SOL     OW 9232   2.457   2.338   3.881  0.1592 -0.6677  0.2564
 2295SOL    HW2 9233   2.539   2.372   3.844  0.0539 -1.8676 -1.1417
 2295SOL    HW3 9234   2.388   2.378   3.827 -0.0495 -1.6370 -0.1959
 2295SOL    MW4 9235   2.459   2.348   3.869  0.1180 -0.9539  0.0124
 2296SOL     OW 9236   2.216   2.444   3.741 -0.6053 -0.2781 -0.4304
 2296SOL    HW2 9237   2.149   2.394   3.790 -0.4809 -0.7764 -0.7622
 2296SOL    HW3 9238   2.212   2.408   3.652  0.5685 -0.7892 -0.2894
 2296SOL    MW4 9239   2.206   2.432   3.736 -0.4339 -0.4115 -0.4559
 2297SOL     OW 9240   2.222   2.660   3.904  0.1452 -0.2718  0.2905
 2297SOL    HW2 9241   2.199   2.620   3.988 -2.6157  0.5364 -0.0582
 2297SOL    HW3 9242   2.230   2.586   3.844 -2.0849 -0.5505  0.3082
 2297SOL    MW4 9243   2.220   2.645   3.908 -0.5133 -0.2019  0.2468
 2298SOL     OW 9244   2.454   2.802   3.818 -0.0623  0.1476  0.0355
 2298SOL    HW2 9245   2.376   2.769   3.862 -0.5962  0.3067 -0.7684
 2298SOL    HW3 9246   2.428   2.807   3.726  1.3525 -1.1988 -0.4669
 2298SOL    MW4 9247   2.440   2.798   3.811  0.0536 -0.0088 -0.1369
 2299SOL     OW 9248   2.466   3.082   3.848 -0.4614  0.2011 -0.3219
 2299SOL    HW2 9249   2.480   3.092   3.942  1.4241  1.7326 -0.7170
 2299SOL    HW3 9250   2.469   2.987   3.833  0.6296  0.0092  0.9969
 2299SOL    MW4 9251   2.468   3.071   3.858 -0.0689  0.3779 -0.1998
 2300SOL     OW 9252   2.219   3.213   3.762 -0.1578 -0.2688 -0.2452
 2300SOL    HW2 9253   2.185   3.295   3.799 -0.9902 -0.3719 -0.7559
 2300SOL    HW3 9254   2.304   3.201   3.803 -0.0491  0.8381 -0.1267
 2300SOL    MW4 9255   2.226   3.223   3.772 -0.2532 -0.1361 -0.2973
 2301SOL     OW 9256   2.184   3.480   3.887 -0.7395 -0.2039  0.0434
 2301SOL    HW2 9257   2.207   3.470   3.979 -0.6975 -1.1914 -0.0667
 2301SOL    HW3 9258   2.262   3.517   3.846 -1.5703  2.5735  0.8229
 2301SOL    MW4 9259   2.197   3.484   3.893 -0.8435  0.0324  0.1316
 2302SOL     OW 9260   2.429   3.581   3.801  0.1260  0.5678 -0.6655
 2302SOL    HW2 9261   2.511   3.540   3.829 -0.1534  0.3388 -0.1724
 2302SOL    HW3 9262   2.434   3.582   3.705  0.8353  0.8305 -0.6324
 2302SOL    MW4 9263   2.440   3.576   3.792  0.1829  0.5722 -0.5960
 2303SOL     OW 9264   2.449   3.863   3.890  0.2258 -0.0697  0.0220
 2303SOL    HW2 9265   2.539   3.890   3.874  0.2661 -0.4069 -0.3355
 2303SOL    HW3 9266   2.447   3.770   3.868 -0.2406 -0.0352 -0.1001
 2303SOL    MW4 9267   2.460   3.854   3.885  0.1695 -0.1097 -0.0415
 2304SOL     OW 9268   2.263   4.042   3.780 -0.4760 -0.5762  0.2567
 2304SOL    HW2 9269   2.335   3.984   3.805  0.3576  0.7272  0.8674
 2304SOL    HW3 9270   2.268   4.045   3.684  0.0653 -0.7637  0.2768
 2304SOL    MW4 9271   2.273   4.034   3.770 -0.2947 -0.4292  0.3400
 2305SOL     OW 9272   2.196   4.281   3.903 -0.6356 -0.7721  0.0305
 2305SOL    HW2 9273   2.217   4.268   3.996  1.1558 -0.4667 -0.3075
 2305SOL    HW3 9274   2.218   4.196   3.863  0.9911 -0.1352 -0.4882
 2305SOL    MW4 9275   2.202   4.268   3.910 -0.1845 -0.6475 -0.0823
 2306SOL     OW 9276   2.438   4.392   3.815  0.0854  0.0339  0.1168
 2306SOL    HW2 9277   2.362   4.345   3.849  0.8546  0.6103  2.6699
 2306SOL    HW3 9278   2.414   4.484   3.822  0.4771  0.1757 -0.4056
 2306SOL    MW4 9279   2.424   4.398   3.820  0.2387  0.1292  0.3843
 2307SOL     OW 9280   2.866   0.035   3.864 -0.2534 -0.2477 -0.4161
 2307SOL    HW2 9281   2.873   0.030   3.959 -2.0016  0.6586 -0.2302
 2307SOL    HW3 9282   2.955   0.058   3.835  0.5132 -1.4661  0.9028
 2307SOL    MW4 9283   2.879   0.037   3.873 -0.3829 -0.2889 -0.2177
 2308SOL     OW 9284   2.642   0.131   3.724  0.1746 -0.5858  0.0371
 2308SOL    HW2 9285   2.718   0.098   3.772  1.1526  0.5245 -0.7248
 2308SOL    HW3 9286   2.657   0.104   3.633  0.7628  1.4990 -0.5170
 2308SOL    MW4 9287   2.654   0.123   3.718  0.3812 -0.1643 -0.1366
 2309SOL     OW 9288   2.675   0.371   3.862  0.1809  0.3711  0.2606
 2309SOL    HW2 9289   2.646   0.289   3.823  0.3288  0.0964  0.7150
 2309SOL    HW3 9290   2.604   0.433   3.845  0.9653  0.7162 -1.8937
 2309SOL    MW4 9291   2.662   0.369   3.855  0.3040  0.3804  0.0362
 2310SOL     OW 9292   2.909   0.496   3.766 -0.2535  0.6142 -0.4695
 2310SOL    HW2 9293   2.988   0.447   3.790 -0.2310  0.1429 -1.4787
 2310SOL    HW3 9294   2.838   0.446   3.806 -0.0725  0.8410  0.1435
 2310SOL    MW4 9295   2.910   0.483   3.775 -0.2265  0.5819 -0.5219
 2311SOL     OW 9296   2.902   0.768   3.895 -0.0348 -0.0949  0.0182
 2311SOL    HW2 9297   2.965   0.821   3.844 -0.4827 -0.6910 -1.1792
 2311SOL    HW3 9298   2.910   0.680   3.858 -0.7017 -0.4344  0.6854
 2311SOL    MW4 9299   2.912   0.764   3.883 -0.1819 -0.2183 -0.0517
 2312SOL     OW 9300   2.669   0.878   3.814 -0.0312  0.5677 -0.1144
 2312SOL    HW2 9301   2.743   0.826   3.847 -0.1825  0.8496  0.6833
 2312SOL    HW3 9302   2.592   0.836   3.853 -0.0466  2.3721  1.8932
 2312SOL    MW4 9303   2.669   0.865   3.824 -0.0534  0.8430  0.2561
 2313SOL     OW 9304   2.720   1.161   3.822 -0.3699 -0.0261 -0.1368
 2313SOL    HW2 9305   2.718   1.066   3.816 -1.5879 -0.0995  1.2728
 2313SOL    HW3 9306   2.631   1.189   3.803  0.2922  0.9501 -1.9736
 2313SOL    MW4 9307   2.708   1.152   3.819 -0.4435  0.0930 -0.1931
 2314SOL     OW 9308   2.955   1.276   3.746  0.0511 -0.1888 -0.2004
 2314SOL    HW2 9309   2.963   1.365   3.780 -0.0752 -1.0770  2.3182
 2314SOL    HW3 9310   2.876   1.241   3.789 -0.8945 -0.9635 -2.4825
 2314SOL    MW4 9311   2.945   1.283   3.757 -0.0901 -0.4083 -0.1690
 2315SOL     OW 9312   2.956   1.534   3.863  0.0112  0.2562  0.2268
 2315SOL    HW2 9313   2.935   1.521   3.956  1.2234  0.3995  0.5335
 2315SOL    HW3 9314   3.039   1.581   3.864  1.2581 -1.8252 -0.9373
 2315SOL    MW4 9315   2.965   1.538   3.876  0.3355  0.0005  0.1137
 2316SOL     OW 9316   2.752   1.721   3.786 -0.2591 -0.1747 -0.0027
 2316SOL    HW2 9317   2.816   1.655   3.814  2.1799  2.3158  0.6224
 2316SOL    HW3 9318   2.736   1.702   3.694  0.2849 -1.7126  0.2026
 2316SOL    MW4 9319   2.758   1.710   3.778  0.1345 -0.0489  0.1063
 2317SOL     OW 9320   2.727   1.975   3.908 -0.5097  0.4417  0.3632
 2317SOL    HW2 9321   2.734   1.884   3.881 -2.9797 -0.2337  1.8150
 2317SOL    HW3 9322   2.644   2.005   3.871 -1.3661  1.0492  2.6898
 2317SOL    MW4 9323   2.717   1.967   3.900 -0.9487  0.4328  0.8616
 2318SOL     OW 9324   2.921   2.095   3.765 -0.2400  0.0330  0.3015
 2318SOL    HW2 9325   2.929   2.186   3.794  0.2222 -0.2391  1.0440
 2318SOL    HW3 9326   2.855   2.057   3.823 -1.4993  0.2760 -0.9526
 2318SOL    MW4 9327   2.913   2.102   3.777 -0.3452  0.0293  0.2339
 2319SOL     OW 9328   2.950   2.349   3.840  0.0758  0.5298  0.0727
 2319SOL    HW2 9329   2.968   2.390   3.925  2.1982 -2.0566  0.9570
 2319SOL    HW3 9330   3.016   2.384   3.781 -0.0502  0.7021  0.0334
 2319SOL    MW4 9331   2.961   2.359   3.844  0.3393  0.2112  0.1841
 2320SOL     OW 9332   2.698   2.419   3.768 -0.7607  0.5568 -0.0563
 2320SOL    HW2 9333   2.711   2.513   3.782  0.2120  0.5413 -0.7850
 2320SOL    HW3 9334   2.782   2.380   3.792 -0.9761 -0.0663 -0.3154
 2320SOL    MW4 9335   2.711   2.426   3.773 -0.6609  0.4725 -0.1867
 2321SOL     OW 9336   2.713   2.684   3.863 -0.4907 -0.0759  0.2055
 2321SOL    HW2 9337   2.722   2.648   3.951 -0.2673  0.0282  0.2241
 2321SOL    HW3 9338   2.629   2.730   3.865 -0.8847 -0.7757  0.1174
 2321SOL    MW4 9339   2.703   2.685   3.875 -0.5131 -0.1545  0.1965
 2322SOL     OW 9340   2.913   2.837   3.745  0.7733 -0.2640  0.1275
 2322SOL    HW2 9341   2.913   2.917   3.798  1.8773 -1.4843  2.0247
 2322SOL    HW3 9342   2.834   2.790   3.774  0.1036  0.1361 -1.0145
 2322SOL    MW4 9343   2.902   2.842   3.756  0.8309 -0.3722  0.2270
 2323SOL     OW 9344   2.918   3.097   3.869 -0.0207  0.0835 -0.0240
 2323SOL    HW2 9345   2.988   3.152   3.833 -0.6808  0.9639  0.0185
 2323SOL    HW3 9346   2.837   3.136   3.835 -0.5367 -0.3745  0.6682
 2323SOL    MW4 9347   2.917   3.109   3.860 -0.1755  0.1390  0.0727
 2324SOL     OW 9348   2.689   3.221   3.751  0.1104 -0.5115  0.0546
 2324SOL    HW2 9349   2.690   3.305   3.796 -0.4162 -0.5064  0.0613
 2324SOL    HW3 9350   2.605   3.181   3.776  0.8748 -1.5419  0.9736
 2324SOL    MW4 9351   2.678   3.226   3.760  0.1419 -0.6466  0.1767
 2325SOL     OW 9352   2.698   3.483   3.870  0.2998 -0.5288  0.0582
 2325SOL    HW2 9353   2.709   3.475   3.965  0.7895  0.6858  0.1138
 2325SOL    HW3 9354   2.761   3.551   3.844 -0.5475 -0.1229 -0.9866
 2325SOL    MW4 9355   2.708   3.491   3.879  0.2527 -0.3150 -0.0722
 2326SOL     OW 9356   2.925   3.639   3.774 -0.0786  0.6105  0.1738
 2326SOL    HW2 9357   2.997   3.583   3.804 -0.6955 -0.8037 -0.9735
 2326SOL    HW3 9358   2.934   3.641   3.679 -0.6714  1.6573  0.1318
 2326SOL    MW4 9359   2.936   3.632   3.766 -0.2382  0.5620  0.0167
 2327SOL     OW 9360   2.926   3.896   3.869 -0.4453  0.2318 -0.4091
 2327SOL    HW2 9361   2.927   3.877   3.963 -0.9655  1.6567 -0.1036
 2327SOL    HW3 9362   2.944   3.812   3.827  1.1477 -0.1680  1.0023
 2327SOL    MW4 9363   2.929   3.882   3.876 -0.3037  0.3672 -0.1826
 2328SOL     OW 9364   2.672   3.997   3.801 -0.0685 -0.9616  0.1765
 2328SOL    HW2 9365   2.675   4.086   3.838 -0.2761 -1.1199  0.5834
 2328SOL    HW3 9366   2.759   3.962   3.816  0.1767 -0.6394 -0.4627
 2328SOL    MW4 9367   2.684   4.004   3.808 -0.0637 -0.9398  0.1457
 2329SOL     OW 9368   2.674   4.272   3.879  0.2303  0.1222 -0.4434
 2329SOL    HW2 9369   2.746   4.323   3.841  1.1632 -0.6205  0.3377
 2329SOL    HW3 9370   2.597   4.328   3.866  0.8701  0.7542 -1.6221
 2329SOL    MW4 9371   2.673   4.286   3.872  0.4377  0.1073 -0.4959
 2330SOL     OW 9372   2.886   4.435   3.794  0.2002  0.3827 -0.5667
 2330SOL    HW2 9373   2.960   4.397   3.840  0.1630  0.8550 -0.1021
 2330SOL    HW3 9374   2.878   4.524   3.830 -0.5673  0.3484 -0.6249
 2330SOL    MW4 9375   2.894   4.442   3.805  0.0942  0.4406 -0.5131
 2331SOL     OW 9376   3.394   4.625   3.888  0.1041  0.1638  0.0892
 2331SOL    HW2 9377   3.398   4.633   3.983 -0.2106  2.4921 -0.0701
 2331SOL    HW3 9378   3.459   4.688   3.856 -0.9992  0.6400 -1.2578
 2331SOL    MW4 9379   3.403   4.634   3.896 -0.0827  0.5341 -0.1092
 2332SOL     OW 9380   3.129   0.098   3.802 -0.0894 -0.6553 -0.1402
 2332SOL    HW2 9381   3.212   0.058   3.827  0.1929 -0.2340 -0.4151
 2332SOL    HW3 9382   3.125   0.087   3.707  0.1600  0.3031 -0.2645
 2332SOL    MW4 9383   3.139   0.091   3.793 -0.0191 -0.4733 -0.1929
 2333SOL     OW 9384   3.111   0.339   3.901 -0.4735 -0.2749  0.5158
 2333SOL    HW2 9385   3.082   0.327   3.991 -0.9813 -1.5450  0.1919
 2333SOL    HW3 9386   3.112   0.250   3.864  2.3445 -0.1166  0.0758
 2333SOL    MW4 9387   3.108   0.326   3.908 -0.1686 -0.4216  0.4148
 2334SOL     OW 9388   3.357   0.456   3.784  0.2131 -0.2055 -0.0782
 2334SOL    HW2 9389   3.432   0.437   3.840  0.7909 -0.8978 -1.0929
 2334SOL    HW3 9390   3.281   0.427   3.836  0.7201 -0.4928  0.5066
 2334SOL    MW4 9391   3.357   0.449   3.799  0.3562 -0.3347 -0.1352
 2335SOL     OW 9392   3.350   0.732   3.850 -0.1555  0.5762  0.0412
 2335SOL    HW2 9393   3.343   0.729   3.946  0.5952  1.0576  0.1156
 2335SOL    HW3 9394   3.339   0.641   3.822 -0.3081  0.4258  0.5848
 2335SOL    MW4 9395   3.347   0.720   3.859 -0.0763  0.6198  0.1228
 2336SOL     OW 9396   3.119   0.890   3.766 -0.2765  0.3442  0.2260
 2336SOL    HW2 9397   3.183   0.823   3.789 -0.4099 -0.3563 -1.4202
 2336SOL    HW3 9398   3.116   0.889   3.671 -2.7563  0.3265  0.2733
 2336SOL    MW4 9399   3.127   0.881   3.757 -0.6213  0.2494  0.0150
 2337SOL     OW 9400   3.181   1.139   3.827 -0.1489  0.3214  0.3721
 2337SOL    HW2 9401   3.176   1.045   3.810  1.0351  0.3231 -0.0306
 2337SOL    HW3 9402   3.099   1.174   3.791 -0.7398 -0.5923  0.8137
 2337SOL    MW4 9403   3.169   1.131   3.820 -0.0708  0.2010  0.3774
 2338SOL     OW 9404   3.382   1.279   3.721 -0.6070  0.1219  0.0208
 2338SOL    HW2 9405   3.308   1.228   3.753 -0.4675  0.2480  0.5415
 2338SOL    HW3 9406   3.365   1.289   3.627 -2.1515  1.6324  0.4263
 2338SOL    MW4 9407   3.370   1.274   3.713 -0.7925  0.3378  0.1433
 2339SOL     OW 9408   3.417   1.510   3.865 -0.1519 -0.4643  0.4972
 2339SOL    HW2 9409   3.351   1.575   3.843 -0.3249 -0.7167  0.2749
 2339SOL    HW3 9410   3.395   1.434   3.811  0.3626 -0.5216  0.3719
 2339SOL    MW4 9411   3.405   1.508   3.855 -0.1068 -0.5052  0.4511
 2340SOL     OW 9412   3.215   1.702   3.816  0.0858 -0.5127  0.0112
 2340SOL    HW2 9413   3.198   1.794   3.839  1.7515 -0.4096  0.9618
 2340SOL    HW3 9414   3.189   1.695   3.724  0.6428  1.1219 -0.2917
 2340SOL    MW4 9415   3.209   1.713   3.807  0.3788 -0.2832  0.0970
 2341SOL     OW 9416   3.170   1.982   3.852 -0.4557 -0.2795  0.2002
 2341SOL    HW2 9417   3.149   1.989   3.945 -0.3110 -0.4182  0.2440
 2341SOL    HW3 9418   3.090   2.008   3.807 -0.6942 -0.7295  0.3670
 2341SOL    MW4 9419   3.157   1.986   3.858 -0.4680 -0.3570  0.2282
 2342SOL     OW 9420   3.415   2.058   3.769 -0.2445  0.1305 -0.8448
 2342SOL    HW2 9421   3.335   2.022   3.806  1.4377 -2.7842  0.1375
 2342SOL    HW3 9422   3.405   2.048   3.674 -1.1847  0.1307 -0.7419
 2342SOL    MW4 9423   3.403   2.052   3.761 -0.1466 -0.2539 -0.7017
 2343SOL     OW 9424   3.381   2.336   3.881  0.1370 -0.3298  0.0724
 2343SOL    HW2 9425   3.316   2.377   3.824  1.2423  0.4886 -0.6413
 2343SOL    HW3 9426   3.391   2.247   3.847  0.7046  0.1201 -0.9389
 2343SOL    MW4 9427   3.374   2.330   3.869  0.3576 -0.1621 -0.1552
 2344SOL     OW 9428   3.164   2.441   3.694  0.1801 -0.2374 -0.2929
 2344SOL    HW2 9429   3.164   2.530   3.730  1.6295 -1.0315  1.7319
 2344SOL    HW3 9430   3.168   2.455   3.599 -0.2197  1.8581 -0.0416
 2344SOL    MW4 9431   3.164   2.455   3.686  0.3185 -0.0656  0.0074
 2345SOL     OW 9432   3.146   2.684   3.826  0.0798  0.1067  0.1015
 2345SOL    HW2 9433   3.160   2.679   3.921 -1.1202  1.8271  0.3936
 2345SOL    HW3 9434   3.073   2.744   3.816  0.0483 -0.2415 -1.9229
 2345SOL    MW4 9435   3.138   2.691   3.837 -0.0827  0.2878 -0.1271
 2346SOL     OW 9436   3.381   2.818   3.736  0.5560 -0.5099 -0.2304
 2346SOL    HW2 9437   3.309   2.759   3.759 -1.0676  1.1569 -1.0125
 2346SOL    HW3 9438   3.379   2.823   3.641  0.2396  1.3659 -0.1418
 2346SOL    MW4 9439   3.371   2.811   3.727  0.3004 -0.0424 -0.3219
 2347SOL     OW 9440   3.369   3.070   3.864  0.1014  0.3101 -0.1917
 2347SOL    HW2 9441   3.450   3.114   3.839  0.5443 -0.4506 -0.1034
 2347SOL    HW3 9442   3.382   2.979   3.839 -0.6537  0.1445 -0.0028
 2347SOL    MW4 9443   3.381   3.064   3.857  0.0606  0.1879 -0.1554
 2348SOL     OW 9444   3.161   3.198   3.748 -0.5293 -0.0452  0.0164
 2348SOL    HW2 9445   3.239   3.151   3.778 -1.5938 -1.7022  0.2316
 2348SOL    HW3 9446   3.161   3.186   3.653 -0.8948 -0.6122  0.0904
 2348SOL    MW4 9447   3.172   3.190   3.739 -0.7181 -0.3386  0.0546
 2349SOL     OW 9448   3.129   3.463   3.877  0.2840  0.7251  0.1449
 2349SOL    HW2 9449   3.201   3.515   3.840 -0.3890  1.4015 -0.2438
 2349SOL    HW3 9450   3.146   3.374   3.847  0.2077  1.1252 -1.0982
 2349SOL    MW4 9451   3.141   3.458   3.868  0.1853  0.8671 -0.0706
 2350SOL     OW 9452   3.321   3.611   3.761  0.0345 -0.1613 -0.2777
 2350SOL    HW2 9453   3.327   3.698   3.800 -1.1132  0.2836 -1.0739
 2350SOL    HW3 9454   3.350   3.623   3.671 -0.6497 -0.4881 -0.5465
 2350SOL    MW4 9455   3.326   3.624   3.754 -0.2072 -0.1454 -0.4182
 2351SOL     OW 9456   3.359   3.870   3.856  0.4099  0.3570  0.6811
 2351SOL    HW2 9457   3.432   3.919   3.819 -1.1680  1.4630 -1.0381
 2351SOL    HW3 9458   3.281   3.909   3.818 -1.0368 -1.7549  1.3471
 2351SOL    MW4 9459   3.358   3.881   3.846  0.0110  0.2241  0.5422
 2352SOL     OW 9460   3.147   4.043   3.781  0.1623  0.8117  0.0558
 2352SOL    HW2 9461   3.148   4.121   3.837 -1.3684  0.2443  0.8983
 2352SOL    HW3 9462   3.068   3.996   3.807  0.4768 -0.4576 -1.2364
 2352SOL    MW4 9463   3.137   4.047   3.792  0.0019  0.5693 -0.0033
 2353SOL     OW 9464   3.099   4.308   3.925 -0.2798  0.6079 -0.1709
 2353SOL    HW2 9465   3.120   4.317   4.018 -0.6103 -0.3612 -0.0011
 2353SOL    HW3 9466   3.181   4.327   3.880 -0.1673  1.2735  0.3011
 2353SOL    MW4 9467   3.113   4.312   3.931 -0.3090  0.5684 -0.0863
 2354SOL     OW 9468   3.339   4.365   3.802 -0.3812  0.1623  0.0774
 2354SOL    HW2 9469   3.423   4.323   3.819 -0.2661  0.0168 -0.8480
 2354SOL    HW3 9470   3.351   4.455   3.834  0.4400  0.4137 -0.8982
 2354SOL    MW4 9471   3.352   4.372   3.808 -0.2577  0.1764 -0.1736
 2355SOL     OW 9472   3.810   0.034   3.927  0.0067 -0.0053  0.0029
 2355SOL    HW2 9473   3.885   0.083   3.893  0.0187 -0.5055 -0.7155
 2355SOL    HW3 9474   3.808  -0.046   3.874  0.7318 -1.3553  1.9284
 2355SOL    MW4 9475   3.820   0.030   3.916  0.1040 -0.2494  0.1624
 2356SOL     OW 9476   3.584   0.164   3.828 -0.1360 -0.1054 -0.7251
 2356SOL    HW2 9477   3.666   0.124   3.858 -0.1520  0.0855 -0.4324
 2356SOL    HW3 9478   3.596   0.174   3.734  0.3806  0.3993 -0.6101
 2356SOL    MW4 9479   3.596   0.160   3.820 -0.0699 -0.0136 -0.6714
 2357SOL     OW 9480   3.587   0.416   3.940 -0.1946 -0.2839  0.1720
 2357SOL    HW2 9481   3.654   0.458   3.886 -0.9398  0.1574 -0.4133
 2357SOL    HW3 9482   3.603   0.322   3.928 -0.4680 -0.1954 -0.9696
 2357SOL    MW4 9483   3.598   0.409   3.931 -0.3293 -0.2140 -0.0560
 2358SOL     OW 9484   3.805   0.508   3.791 -0.1124 -0.0734  0.0913
 2358SOL    HW2 9485   3.891   0.473   3.814  0.8221  1.2480 -1.3286
 2358SOL    HW3 9486   3.804   0.596   3.829 -0.7899 -0.0327 -0.0244
 2358SOL    MW4 9487   3.816   0.515   3.799 -0.0787  0.1063 -0.1113
 2359SOL     OW 9488   3.797   0.784   3.874  0.1957  0.1352  0.1535
 2359SOL    HW2 9489   3.875   0.806   3.824 -0.5492  1.6942 -0.3219
 2359SOL    HW3 9490   3.724   0.817   3.823 -0.7024  0.0138  1.3207
 2359SOL    MW4 9491   3.798   0.791   3.861 -0.0210  0.3248  0.2449
 2360SOL     OW 9492   3.589   0.889   3.745 -0.1792  0.1506 -0.4732
 2360SOL    HW2 9493   3.585   0.979   3.776  2.8837 -0.5260  2.1038
 2360SOL    HW3 9494   3.510   0.848   3.781 -0.2147  1.1187  0.5699
 2360SOL    MW4 9495   3.578   0.895   3.754  0.2203  0.1891  0.0043
 2361SOL     OW 9496   3.592   1.141   3.812 -0.0974  0.5419 -0.1005
 2361SOL    HW2 9497   3.667   1.194   3.785 -0.5350  0.8597 -0.7061
 2361SOL    HW3 9498   3.515   1.191   3.782 -0.6740  1.6997  3.0437
 2361SOL    MW4 9499   3.591   1.154   3.805 -0.2310  0.7366  0.2344
 2362SOL     OW 9500   3.818   1.281   3.761 -0.0484 -0.1508  0.1283
 2362SOL    HW2 9501   3.900   1.238   3.787  0.3681  0.7595  0.3273
 2362SOL    HW3 9502   3.824   1.369   3.797 -0.5763  0.3185 -0.9080
 2362SOL    MW4 9503   3.830   1.287   3.769 -0.0632  0.0312  0.0179
 2363SOL     OW 9504   3.838   1.530   3.879 -0.0809 -0.1684  0.0466
 2363SOL    HW2 9505   3.833   1.537   3.974 -1.2798 -0.2357 -0.0025
 2363SOL    HW3 9506   3.757   1.571   3.847 -0.2839 -1.2459 -0.8731
 2363SOL    MW4 9507   3.826   1.536   3.887 -0.2658 -0.3195 -0.0811
 2364SOL     OW 9508   3.621   1.671   3.784  0.0152  0.0502  0.0527
 2364SOL    HW2 9509   3.542   1.622   3.808 -0.1587  0.1047 -0.3909
 2364SOL    HW3 9510   3.623   1.667   3.688  0.7597 -0.2677  0.0837
 2364SOL    MW4 9511   3.611   1.664   3.774  0.0906  0.0154 -0.0014
 2365SOL     OW 9512   3.622   1.919   3.911 -0.0478  0.3954  0.1312
 2365SOL    HW2 9513   3.614   1.835   3.865 -1.0062 -0.7695  2.3562
 2365SOL    HW3 9514   3.541   1.965   3.890  0.1890  0.5154 -0.5554
 2365SOL    MW4 9515   3.610   1.914   3.902 -0.1431  0.2576  0.3343
 2366SOL     OW 9516   3.830   2.013   3.743 -0.0575  0.2357  0.0585
 2366SOL    HW2 9517   3.907   1.980   3.789 -0.2978 -1.3247 -0.6246
 2366SOL    HW3 9518   3.756   1.983   3.795 -0.3340 -1.5668 -1.3012
 2366SOL    MW4 9519   3.830   2.005   3.756 -0.1256 -0.2079 -0.2112
 2367SOL     OW 9520   3.823   2.277   3.866  0.9693  0.0112 -0.0229
 2367SOL    HW2 9521   3.754   2.328   3.824  2.4219  0.2576 -2.1894
 2367SOL    HW3 9522   3.822   2.193   3.819  1.1600 -0.5267  0.9338
 2367SOL    MW4 9523   3.814   2.273   3.854  1.1861 -0.0274 -0.1824
 2368SOL     OW 9524   3.615   2.439   3.767 -0.0209 -1.4218  0.1983
 2368SOL    HW2 9525   3.547   2.414   3.829 -0.8431 -0.8991 -0.4825
 2368SOL    HW3 9526   3.588   2.399   3.685 -0.6036  0.4718 -0.5713
 2368SOL    MW4 9527   3.602   2.431   3.764 -0.2062 -1.1029  0.0069
 2369SOL     OW 9528   3.596   2.699   3.857 -0.7169  0.1727 -0.0002
 2369SOL    HW2 9529   3.607   2.605   3.842  0.4505  0.1568  0.9380
 2369SOL    HW3 9530   3.519   2.722   3.805 -0.1397 -1.0053 -1.4001
 2369SOL    MW4 9531   3.587   2.690   3.848 -0.4864  0.0153 -0.0610
 2370SOL     OW 9532   3.833   2.847   3.801 -0.1929 -0.0834  0.1857
 2370SOL    HW2 9533   3.901   2.781   3.816 -0.8051 -0.8904 -0.4825
 2370SOL    HW3 9534   3.751   2.797   3.803 -0.7707  0.8764  1.0051
 2370SOL    MW4 9535   3.831   2.831   3.803 -0.3498 -0.0629  0.2055
 2371SOL     OW 9536   3.825   3.116   3.860 -0.5250  0.3406 -0.2129
 2371SOL    HW2 9537   3.735   3.141   3.837 -0.7316 -0.4242 -0.2471
 2371SOL    HW3 9538   3.837   3.030   3.819  0.3084  0.5498 -0.4182
 2371SOL    MW4 9539   3.814   3.108   3.851 -0.4423  0.2673 -0.2446
 2372SOL     OW 9540   3.586   3.226   3.811 -0.0529  0.3093 -0.0948
 2372SOL    HW2 9541   3.553   3.311   3.842 -1.2950 -0.1108 -0.2390
 2372SOL    HW3 9542   3.594   3.237   3.716  0.2843  0.4311 -0.0527
 2372SOL    MW4 9543   3.583   3.239   3.802 -0.1721  0.2699 -0.1082
 2373SOL     OW 9544   3.528   3.478   3.897  0.6544 -0.1394 -0.2778
 2373SOL    HW2 9545   3.527   3.491   3.992  2.6875  1.7989 -0.4622
 2373SOL    HW3 9546   3.447   3.518   3.866  0.0819 -0.6019  0.6211
 2373SOL    MW4 9547   3.517   3.485   3.905  0.8469  0.0553 -0.1833
 2374SOL     OW 9548   3.767   3.605   3.781 -0.0078 -0.2713  0.0863
 2374SOL    HW2 9549   3.780   3.687   3.828  0.1491 -0.2169 -0.0513
 2374SOL    HW3 9550   3.686   3.569   3.817  0.0181 -0.1436  0.2715
 2374SOL    MW4 9551   3.758   3.611   3.792  0.0162 -0.2472  0.0925
 2375SOL     OW 9552   3.764   3.855   3.909  0.2841 -0.1938  0.1887
 2375SOL    HW2 9553   3.752   3.852   4.004 -0.2225 -2.5947  0.0656
 2375SOL    HW3 9554   3.846   3.903   3.897  1.1506 -1.1806  1.9102
 2375SOL    MW4 9555   3.773   3.861   3.920  0.3316 -0.6409  0.3996
 2376SOL     OW 9556   3.585   3.997   3.760 -0.1782  0.1322  0.2307
 2376SOL    HW2 9557   3.599   4.084   3.797 -0.6910 -0.5540  2.0825
 2376SOL    HW3 9558   3.654   3.943   3.798 -0.3677 -0.4725 -0.2655
 2376SOL    MW4 9559   3.596   4.001   3.770 -0.2711 -0.0377  0.4096
 2377SOL     OW 9560   3.600   4.272   3.857 -0.5914  0.0344 -0.2169
 2377SOL    HW2 9561   3.595   4.271   3.952  0.2793 -0.5955 -0.1740
 2377SOL    HW3 9562   3.656   4.347   3.837 -1.3391  0.5850 -0.2649
 2377SOL    MW4 9563   3.607   4.282   3.867 -0.5753  0.0243 -0.2174
 2378SOL     OW 9564   3.782   4.459   3.789 -0.1243 -0.0912 -0.3785
 2378SOL    HW2 9565   3.858   4.416   3.828  0.6609  0.8001 -0.8983
 2378SOL    HW3 9566   3.801   4.462   3.696 -1.3090 -0.8506 -0.6616
 2378SOL    MW4 9567   3.794   4.454   3.782 -0.1771 -0.0734 -0.4845
 2379SOL     OW 9568   4.251   4.586   3.887  0.1190 -0.4191  0.2718
 2379SOL    HW2 9569   4.260   4.549   3.975 -0.2187 -1.3647 -0.0843
 2379SOL    HW3 9570   4.333   4.634   3.872  0.4457 -0.7924  0.8504
 2379SOL    MW4 9571   4.263   4.587   3.897  0.1178 -0.5927  0.3011
 2380SOL     OW 9572   4.048   0.086   3.787  0.2471 -0.2814  0.4390
 2380SOL    HW2 9573   4.118   0.029   3.819 -0.2506 -0.6255  0.9256
 2380SOL    HW3 9574   4.058   0.086   3.692  1.0484 -0.1471  0.5230
 2380SOL    MW4 9575   4.059   0.078   3.779  0.2875 -0.3091  0.5145
 2381SOL     OW 9576   4.046   0.357   3.851 -0.9070  0.0057 -0.0612
 2381SOL    HW2 9577   4.058   0.352   3.946  0.5627  0.2083 -0.2320
 2381SOL    HW3 9578   4.053   0.266   3.821  0.0736  0.1071 -0.1431
 2381SOL    MW4 9579   4.048   0.344   3.860 -0.5836  0.0458 -0.0947
 2382SOL     OW 9580   4.265   0.534   3.775  0.1890  0.3675  0.3550
 2382SOL    HW2 9581   4.192   0.479   3.803 -1.1412  1.5157 -0.7911
 2382SOL    HW3 9582   4.280   0.509   3.683 -2.3574  3.9149 -1.1047
 2382SOL    MW4 9583   4.258   0.523   3.766 -0.3223  0.9871  0.0110
 2383SOL     OW 9584   4.264   0.814   3.847  0.7063  0.2822  0.0984
 2383SOL    HW2 9585   4.182   0.842   3.809  1.3513 -0.1469 -1.6610
 2383SOL    HW3 9586   4.275   0.723   3.817  1.6371  0.2068  0.6241
 2383SOL    MW4 9587   4.255   0.805   3.838  0.9146  0.2156 -0.0641
 2384SOL     OW 9588   4.018   0.890   3.725 -0.5845  0.2012 -0.0306
 2384SOL    HW2 9589   4.024   0.977   3.763  1.1643  0.1614 -0.1457
 2384SOL    HW3 9590   4.043   0.901   3.634  0.1774 -0.4894  0.0807
 2384SOL    MW4 9591   4.022   0.903   3.718 -0.2532  0.1048 -0.0310
 2385SOL     OW 9592   4.048   1.151   3.823  0.0334  0.0863 -0.2892
 2385SOL    HW2 9593   4.036   1.116   3.911  0.5905 -0.0228 -0.2514
 2385SOL    HW3 9594   4.138   1.184   3.823 -0.1277  0.5263 -0.6668
 2385SOL    MW4 9595   4.058   1.151   3.835  0.0854  0.1299 -0.3340
 2386SOL     OW 9596   4.296   1.263   3.783  0.0341  0.0904  0.3382
 2386SOL    HW2 9597   4.288   1.352   3.817 -2.4009  0.1518 -0.2569
 2386SOL    HW3 9598   4.282   1.273   3.688 -0.5135 -0.9298  0.3065
 2386SOL    MW4 9599   4.293   1.276   3.775 -0.3600 -0.0361  0.2551
 2387SOL     OW 9600   4.295   1.557   3.870 -0.1945 -0.1131 -0.6174
 2387SOL    HW2 9601   4.214   1.602   3.847  0.2762  1.1444  0.1389
 2387SOL    HW3 9602   4.363   1.602   3.819  0.1793 -0.4208 -0.3943
 2387SOL    MW4 9603   4.293   1.569   3.860 -0.0834  0.0120 -0.4883
 2388SOL     OW 9604   4.050   1.669   3.775 -0.3280 -0.0136 -0.1433
 2388SOL    HW2 9605   4.057   1.749   3.828 -0.7783 -0.3218  0.3820
 2388SOL    HW3 9606   3.969   1.628   3.803 -0.4984 -0.2612 -0.9706
 2388SOL    MW4 9607   4.040   1.674   3.786 -0.4101 -0.0869 -0.1831
 2389SOL     OW 9608   4.058   1.920   3.878  0.4474  0.4696  0.2245
 2389SOL    HW2 9609   4.075   1.919   3.972  1.4908  0.8747  0.0470
 2389SOL    HW3 9610   4.132   1.968   3.840 -0.1720  0.6701 -0.7616
 2389SOL    MW4 9611   4.070   1.926   3.885  0.5031  0.5496  0.0710
 2390SOL     OW 9612   4.265   2.085   3.798 -0.0200 -0.3197  0.1848
 2390SOL    HW2 9613   4.265   2.180   3.814  0.7634 -0.3628  0.4717
 2390SOL    HW3 9614   4.253   2.077   3.704 -2.1610  0.0080  0.4085
 2390SOL    MW4 9615   4.263   2.097   3.788 -0.1993 -0.2823  0.2525
 2391SOL     OW 9616   4.259   2.370   3.863 -0.4116  0.0127 -0.3952
 2391SOL    HW2 9617   4.252   2.366   3.959  3.2180  0.1921 -0.0614
 2391SOL    HW3 9618   4.169   2.365   3.832 -1.6628  0.2057  3.0477
 2391SOL    MW4 9619   4.246   2.369   3.872 -0.0978  0.0620  0.1032
 2392SOL     OW 9620   4.011   2.429   3.748  0.0757 -0.2601 -0.0606
 2392SOL    HW2 9621   4.023   2.510   3.798 -1.4324  0.0432 -0.1429
 2392SOL    HW3 9622   3.952   2.376   3.801  1.1570 -1.3799  0.0503
 2392SOL    MW4 9623   4.005   2.433   3.761  0.0200 -0.3679 -0.0565
 2393SOL     OW 9624   4.046   2.666   3.875 -0.4725 -0.0562 -0.2441
 2393SOL    HW2 9625   4.068   2.669   3.968  1.7091 -3.8840 -0.5530
 2393SOL    HW3 9626   4.122   2.705   3.831 -1.7441  2.2765 -0.4507
 2393SOL    MW4 9627   4.059   2.672   3.882 -0.3529 -0.2534 -0.3123
 2394SOL     OW 9628   4.265   2.834   3.772  0.1784  0.5973 -0.1471
 2394SOL    HW2 9629   4.255   2.926   3.796 -0.6736  0.6828 -0.7962
 2394SOL    HW3 9630   4.353   2.810   3.803  0.7855  1.8910 -0.8315
 2394SOL    MW4 9631   4.275   2.843   3.779  0.1454  0.7794 -0.3228
 2395SOL     OW 9632   4.253   3.094   3.870  0.4634  0.0597 -0.0663
 2395SOL    HW2 9633   4.175   3.137   3.837  0.2767  0.2966  0.6741
 2395SOL    HW3 9634   4.326   3.138   3.825  0.3620  2.1569  1.7367
 2395SOL    MW4 9635   4.253   3.105   3.860  0.4249  0.3676  0.2692
 2396SOL     OW 9636   4.047   3.236   3.789  0.1373 -0.3971 -0.0183
 2396SOL    HW2 9637   3.956   3.210   3.803  0.0733 -0.6270 -0.8005
 2396SOL    HW3 9638   4.057   3.238   3.693  1.2681 -1.5215  0.0614
 2396SOL    MW4 9639   4.036   3.233   3.778  0.2785 -0.5760 -0.1106
 2397SOL     OW 9640   3.988   3.472   3.930 -0.1546 -0.0241  0.4484
 2397SOL    HW2 9641   4.003   3.386   3.891  1.4757  0.2390  0.4564
 2397SOL    HW3 9642   3.912   3.507   3.884  0.8447 -0.3271 -1.4524
 2397SOL    MW4 9643   3.980   3.465   3.919  0.1924 -0.0293  0.1986
 2398SOL     OW 9644   4.206   3.619   3.802  0.7247  0.4999  0.0365
 2398SOL    HW2 9645   4.137   3.576   3.852  1.1984  0.8979  1.0510
 2398SOL    HW3 9646   4.285   3.569   3.823  1.2334  1.7055  1.0371
 2398SOL    MW4 9647   4.207   3.607   3.812  0.8540  0.7117  0.3026
 2399SOL     OW 9648   4.254   3.892   3.871 -0.0400 -0.3313 -0.1421
 2399SOL    HW2 9649   4.170   3.938   3.877  0.5425  0.6166  0.9364
 2399SOL    HW3 9650   4.233   3.808   3.830 -1.2825  0.4807 -1.1845
 2399SOL    MW4 9651   4.240   3.887   3.866 -0.1273 -0.0992 -0.1373
 2400SOL     OW 9652   4.004   4.032   3.814 -0.4694  0.1018  0.1949
 2400SOL    HW2 9653   3.994   4.126   3.828 -1.2263  0.1000 -0.3141
 2400SOL    HW3 9654   4.015   4.022   3.720 -1.3505 -0.3981  0.1392
 2400SOL    MW4 9655   4.004   4.043   3.803 -0.6852  0.0358  0.1204
 2401SOL     OW 9656   4.010   4.305   3.855  0.4704 -0.0799 -0.2461
 2401SOL    HW2 9657   4.010   4.326   3.948  0.0649  0.0932 -0.2848
 2401SOL    HW3 9658   4.099   4.325   3.826  0.5805 -0.0792  0.0898
 2401SOL    MW4 9659   4.022   4.310   3.863  0.4311 -0.0572 -0.2067
 2402SOL     OW 9660   4.276   4.328   3.774 -0.1317 -0.0919 -0.3475
 2402SOL    HW2 9661   4.279   4.422   3.788 -1.2677 -0.0362 -0.4069
 2402SOL    HW3 9662   4.350   4.294   3.825  0.3433  0.8358 -0.4132
 2402SOL    MW4 9663   4.286   4.336   3.783 -0.2189  0.0377 -0.3638
 2403SOL     OW 9664   0.254   4.633   4.192  0.4412 -0.0376  0.4224
 2403SOL    HW2 9665   0.263   4.541   4.219 -0.5596 -0.0895  0.5801
 2403SOL    HW3 9666   0.336   4.674   4.220  1.0526 -0.9608  0.0212
 2403SOL    MW4 9667   0.266   4.626   4.199  0.3899 -0.1664  0.3901
 2404SOL     OW 9668   4.475   0.061   4.237 -0.0063 -0.2641 -0.0160
 2404SOL    HW2 9669   4.458   0.073   4.330  0.6147 -1.8787  0.3258
 2404SOL    HW3 9670   4.568   0.039   4.232 -0.1864 -0.8411 -0.9409
 2404SOL    MW4 9671   4.485   0.060   4.248  0.0520 -0.5532 -0.0935
 2405SOL     OW 9672   4.483   0.344   4.158  0.4852 -0.0669 -0.2080
 2405SOL    HW2 9673   4.454   0.357   4.068 -1.1283 -0.7621  0.1881
 2405SOL    HW3 9674   4.478   0.249   4.171  0.3229  0.0619  0.7310
 2405SOL    MW4 9675   4.479   0.333   4.148  0.2508 -0.1417 -0.0315
 2406SOL     OW 9676   0.217   0.484   4.221  0.1440 -0.3109  0.2995
 2406SOL    HW2 9677   0.145   0.434   4.183 -0.6324  0.3473  0.9137
 2406SOL    HW3 9678   0.197   0.489   4.314  1.0091 -0.1593  0.4798
 2406SOL    MW4 9679   0.205   0.478   4.228  0.1557 -0.2041  0.4039
 2407SOL     OW 9680   0.191   0.746   4.142  0.1283 -0.4499  0.0798
 2407SOL    HW2 9681   0.209   0.655   4.166  1.8523  0.1799  1.3673
 2407SOL    HW3 9682   0.274   0.791   4.158 -0.4203  1.1735 -1.4732
 2407SOL    MW4 9683   0.205   0.740   4.148  0.2834 -0.1527  0.0443
 2408SOL     OW 9684   3.727   1.434   4.484  0.0070  0.6115  0.2288
 2408SOL    HW2 9685   3.649   1.425   4.539 -0.4874  1.1536 -0.3717
 2408SOL    HW3 9686   3.763   1.345   4.478 -1.0883  0.1920 -0.2414
 2408SOL    MW4 9687   3.722   1.421   4.491 -0.2027  0.6275  0.0877
 2409SOL     OW 9688   0.037   1.133   4.202  0.2188 -0.3429  0.2315
 2409SOL    HW2 9689   0.046   1.141   4.107  0.1801 -1.0108  0.1649
 2409SOL    HW3 9690   0.045   1.039   4.219  2.3998 -0.0589  1.1000
 2409SOL    MW4 9691   0.040   1.122   4.192  0.5014 -0.3936  0.3371
 2410SOL     OW 9692   0.469   1.154   4.153  0.3192 -0.3520 -0.1795
 2410SOL    HW2 9693   0.461   1.152   4.057  2.6919  0.1959 -0.4070
 2410SOL    HW3 9694   0.396   1.209   4.182 -1.0050 -1.3198 -1.5873
 2410SOL    MW4 9695   0.458   1.161   4.144  0.4576 -0.4075 -0.3953
 2411SOL     OW 9696   3.190   2.991   4.634 -0.1855 -0.4147  0.1495
 2411SOL    HW2 9697   3.237   2.955   4.709 -0.3310  1.4012  1.1402
 2411SOL    HW3 9698   3.137   2.918   4.601  0.7449 -1.5380  1.1048
 2411SOL    MW4 9699   3.189   2.976   4.639 -0.0818 -0.3233  0.4058
 2412SOL     OW 9700   0.016   1.672   4.232  0.0711 -0.3461  0.4346
 2412SOL    HW2 9701   0.014   1.685   4.326  1.4477 -0.6400  0.5171
 2412SOL    HW3 9702   0.010   1.760   4.195  0.8445 -0.1303  0.8205
 2412SOL    MW4 9703   0.015   1.685   4.239  0.3547 -0.3564  0.4969
 2413SOL     OW 9704   2.150   2.901   4.525  0.0930 -0.0959 -0.2076
 2413SOL    HW2 9705   2.094   2.824   4.526 -0.9047  0.5998 -1.0149
 2413SOL    HW3 9706   2.239   2.867   4.531 -0.4598 -1.1408  2.7965
 2413SOL    MW4 9707   2.154   2.887   4.526 -0.1116 -0.1421  0.0825
 2414SOL     OW 9708   0.218   2.175   4.513  0.3250  0.8361  0.2227
 2414SOL    HW2 9709   0.206   2.144   4.423 -0.7808 -1.4386  1.1123
 2414SOL    HW3 9710   0.276   2.111   4.553 -0.7837  0.7158  1.6855
 2414SOL    MW4 9711   0.224   2.163   4.506  0.0328  0.5200  0.5331
 2415SOL     OW 9712   0.184   2.344   4.116  0.0918 -0.1136 -0.2217
 2415SOL    HW2 9713   0.267   2.380   4.148  0.4762 -0.6024 -0.6524
 2415SOL    HW3 9714   0.117   2.392   4.164  0.6529 -0.9840  1.5008
 2415SOL    MW4 9715   0.186   2.355   4.127  0.2165 -0.2928 -0.0510
 2416SOL     OW 9716   4.204   2.538   4.560  0.4993  0.3358 -0.0949
 2416SOL    HW2 9717   4.209   2.633   4.556  0.0315  0.3880  0.4247
 2416SOL    HW3 9718   4.295   2.509   4.554  0.6371  0.8082 -0.3457
 2416SOL    MW4 9719   4.216   2.547   4.559  0.4559  0.4051 -0.0601
 2417SOL     OW 9720   4.467   2.468   4.255 -0.0724 -0.2478 -0.6993
 2417SOL    HW2 9721   4.481   2.561   4.239 -0.0783 -0.3546 -1.3550
 2417SOL    HW3 9722   4.482   2.456   4.349 -1.1273  0.6047 -0.4143
 2417SOL    MW4 9723   4.471   2.479   4.265 -0.2127 -0.1493 -0.7486
 2418SOL     OW 9724   0.355   1.284   4.502  0.0521 -0.0581  0.0859
 2418SOL    HW2 9725   0.323   1.372   4.522 -0.2653  0.1374 -1.2225
 2418SOL    HW3 9726   0.276   1.229   4.502 -0.2100  0.2528 -2.2073
 2418SOL    MW4 9727   0.340   1.288   4.504 -0.0244  0.0087 -0.3891
 2419SOL     OW 9728   0.235   3.109   4.179 -0.1654 -0.0212 -0.2708
 2419SOL    HW2 9729   0.308   3.160   4.214 -1.1180  0.3545  1.2074
 2419SOL    HW3 9730   0.157   3.159   4.203 -0.9161 -0.3359 -1.9720
 2419SOL    MW4 9731   0.234   3.122   4.187 -0.3901 -0.0129 -0.2999
 2420SOL     OW 9732   4.487   3.244   4.239  0.0787 -0.0039 -0.1132
 2420SOL    HW2 9733   4.475   3.334   4.209 -0.1938  0.0818  0.2404
 2420SOL    HW3 9734   4.409   3.198   4.206 -0.6698  0.2913  1.2043
 2420SOL    MW4 9735   4.475   3.250   4.231 -0.0558  0.0463  0.1078
 2421SOL     OW 9736   4.453   3.502   4.156 -0.2200  0.7364  0.5295
 2421SOL    HW2 9737   4.378   3.550   4.190 -0.5322 -0.6814  1.9344
 2421SOL    HW3 9738   4.445   3.509   4.061 -2.4539  0.1360  0.6399
 2421SOL    MW4 9739   4.442   3.509   4.148 -0.5555  0.4702  0.7291
 2422SOL     OW 9740   0.202   3.615   4.275 -0.3185  0.3479 -0.1843
 2422SOL    HW2 9741   0.282   3.574   4.241  0.2732  1.0914  0.3137
 2422SOL    HW3 9742   0.131   3.575   4.224  0.3147 -0.7980 -0.1724
 2422SOL    MW4 9743   0.203   3.604   4.264 -0.1569  0.2947 -0.1173
 2423SOL     OW 9744   0.248   3.868   4.172 -0.1562  0.1878  0.0915
 2423SOL    HW2 9745   0.225   3.783   4.211 -1.5831  0.2851 -0.4853
 2423SOL    HW3 9746   0.174   3.925   4.195  1.2731  1.5711  1.3645
 2423SOL    MW4 9747   0.235   3.864   4.180 -0.1559  0.3829  0.1836
 2424SOL     OW 9748   0.178   0.935   4.608 -0.3447  0.2121 -0.2516
 2424SOL    HW2 9749   0.255   0.936   4.550 -0.2492 -1.0504 -0.1653
 2424SOL    HW3 9750   0.148   1.025   4.609  1.7809  0.9605  0.5417
 2424SOL    MW4 9751   0.184   0.947   4.600 -0.0516  0.1443 -0.1354
 2425SOL     OW 9752   0.009   4.290   4.169 -0.0615  0.0674 -0.1622
 2425SOL    HW2 9753  -0.055   4.361   4.179 -1.1983 -0.6321 -2.1106
 2425SOL    HW3 9754   0.029   4.289   4.075 -0.6543 -2.6367 -0.3180
 2425SOL    MW4 9755   0.003   4.299   4.158 -0.2897 -0.3819 -0.4396
 2426SOL     OW 9756   0.233   4.371   4.294 -0.3673 -0.2116 -0.0324
 2426SOL    HW2 9757   0.229   4.347   4.387 -0.7503 -1.2114 -0.3065
 2426SOL    HW3 9758   0.158   4.327   4.254 -0.5799  0.7457 -0.7011
 2426SOL    MW4 9759   0.223   4.362   4.301 -0.4459 -0.2174 -0.1569
 2427SOL     OW 9760   0.467   4.619   4.618 -0.1742  0.3033 -0.0712
 2427SOL    HW2 9761   0.515   4.700   4.598  0.4884 -0.4455 -1.6009
 2427SOL    HW3 9762   0.535   4.558   4.648 -0.3045 -0.3973 -1.1512
 2427SOL    MW4 9763   0.482   4.622   4.619 -0.1040  0.1121 -0.4158
 2428SOL     OW 9764   0.706   4.637   4.113  0.5231  0.3721 -0.2781
 2428SOL    HW2 9765   0.628   4.645   4.167  0.1447 -2.1039 -0.4156
 2428SOL    HW3 9766   0.676   4.655   4.024 -0.2349 -2.0064 -0.5357
 2428SOL    MW4 9767   0.692   4.641   4.108  0.3732 -0.2680 -0.3300
 2429SOL     OW 9768   0.460   0.331   4.111 -0.0175 -0.0188  0.2103
 2429SOL    HW2 9769   0.390   0.387   4.143  1.0266  0.4190  1.7980
 2429SOL    HW3 9770   0.472   0.357   4.020 -0.0259  1.8533  0.7300
 2429SOL    MW4 9771   0.452   0.342   4.104  0.1191  0.2860  0.4883
 2430SOL     OW 9772   1.271   2.319   4.867  0.5173 -0.0075 -0.0742
 2430SOL    HW2 9773   1.303   2.361   4.947  1.4572 -0.9427  0.0405
 2430SOL    HW3 9774   1.209   2.382   4.831  1.5990  1.3050  0.3185
 2430SOL    MW4 9775   1.267   2.333   4.873  0.7842  0.0422 -0.0076
 2431SOL     OW 9776   0.667   0.747   4.144  0.1348  0.4251  0.3182
 2431SOL    HW2 9777   0.666   0.654   4.167 -0.8586  0.4489  0.3717
 2431SOL    HW3 9778   0.659   0.747   4.049 -0.7264  0.4825  0.3903
 2431SOL    MW4 9779   0.666   0.734   4.134 -0.1099  0.4358  0.3343
 2432SOL     OW 9780   1.303   1.453   4.616  0.2367  0.2168 -0.0595
 2432SOL    HW2 9781   1.259   1.536   4.595 -0.7545 -0.2229  0.2977
 2432SOL    HW3 9782   1.239   1.386   4.597  1.3912 -0.5503 -1.3254
 2432SOL    MW4 9783   1.289   1.455   4.611  0.2582  0.0576 -0.1793
 2433SOL     OW 9784   0.423   0.883   4.186  0.2567  0.1455  0.3884
 2433SOL    HW2 9785   0.508   0.846   4.160  0.2212  0.7446 -0.6409
 2433SOL    HW3 9786   0.441   0.976   4.198 -0.3583  0.3641 -0.3328
 2433SOL    MW4 9787   0.437   0.890   4.184  0.1709  0.2534  0.1569
 2434SOL     OW 9788   0.688   1.303   4.268  0.3483 -0.0441  0.0251
 2434SOL    HW2 9789   0.605   1.263   4.242  0.4974 -0.2992 -0.0619
 2434SOL    HW3 9790   0.689   1.387   4.222  1.0241 -0.8753 -1.5457
 2434SOL    MW4 9791   0.677   1.309   4.258  0.4571 -0.1875 -0.1936
 2435SOL     OW 9792   0.684   1.558   4.143 -0.1500 -0.3182  0.3634
 2435SOL    HW2 9793   0.769   1.594   4.170 -0.1840  0.8012 -0.9841
 2435SOL    HW3 9794   0.688   1.555   4.047 -1.4723 -0.6850  0.3067
 2435SOL    MW4 9795   0.696   1.562   4.134 -0.3290 -0.2189  0.1783
 2436SOL     OW 9796   0.253   1.572   4.130 -0.6503  0.2574 -0.7413
 2436SOL    HW2 9797   0.257   1.483   4.165  0.6305  1.1698  1.5741
 2436SOL    HW3 9798   0.173   1.609   4.167  1.0120  1.4196  1.8567
 2436SOL    MW4 9799   0.243   1.565   4.140 -0.2620  0.5311 -0.0930
 2437SOL     OW 9800   0.426   2.007   4.097 -0.0218  0.0002 -0.3131
 2437SOL    HW2 9801   0.449   1.922   4.135  0.2333  0.1482 -0.1331
 2437SOL    HW3 9802   0.420   1.991   4.003  0.0940 -0.2022 -0.2856
 2437SOL    MW4 9803   0.428   1.994   4.090  0.0271 -0.0070 -0.2856
 2438SOL     OW 9804   0.674   2.064   4.217  0.1482 -0.0151  0.1142
 2438SOL    HW2 9805   0.655   2.056   4.311  0.3332 -1.2385  0.0491
 2438SOL    HW3 9806   0.593   2.040   4.174  0.4232 -0.6460 -0.0587
 2438SOL    MW4 9807   0.661   2.060   4.224  0.2089 -0.2596  0.0830
 2439SOL     OW 9808   0.687   2.320   4.169  0.3896  0.1055  0.4001
 2439SOL    HW2 9809   0.687   2.227   4.194  1.2854 -0.2940 -1.0218
 2439SOL    HW3 9810   0.687   2.319   4.074  2.6031  1.5501  0.3531
 2439SOL    MW4 9811   0.687   2.307   4.160  0.7998  0.2432  0.2065
 2440SOL     OW 9812   0.428   2.425   4.199 -0.3685 -0.0018 -0.0484
 2440SOL    HW2 9813   0.447   2.518   4.211  1.0008 -0.5960  2.7699
 2440SOL    HW3 9814   0.515   2.385   4.186 -0.6191 -1.3161  2.1443
 2440SOL    MW4 9815   0.442   2.432   4.199 -0.2209 -0.2537  0.6123
 2441SOL     OW 9816   0.396   2.728   4.197  0.1291 -0.3770 -0.3333
 2441SOL    HW2 9817   0.476   2.776   4.218 -1.1071  1.3506  0.5987
 2441SOL    HW3 9818   0.396   2.723   4.102  0.6018  0.9774 -0.4249
 2441SOL    MW4 9819   0.407   2.734   4.187  0.0284  0.0298 -0.2227
 2442SOL     OW 9820   0.653   2.829   4.254 -0.3831  0.4221 -0.1191
 2442SOL    HW2 9821   0.736   2.793   4.223 -1.3202 -1.1859 -0.8136
 2442SOL    HW3 9822   0.652   2.919   4.220  1.2941  0.6255  0.3327
 2442SOL    MW4 9823   0.664   2.836   4.245 -0.2854  0.2367 -0.1512
 2443SOL     OW 9824   0.666   3.098   4.199  0.1849 -0.1554 -0.6658
 2443SOL    HW2 9825   0.740   3.146   4.236  1.7319 -2.4168 -0.6934
 2443SOL    HW3 9826   0.589   3.144   4.231  1.5680  1.5633  0.3290
 2443SOL    MW4 9827   0.666   3.110   4.208  0.5715 -0.2272 -0.5388
 2444SOL     OW 9828   1.309   2.675   4.637  0.1701  0.1570 -0.3042
 2444SOL    HW2 9829   1.359   2.602   4.599  0.6448  1.0467 -1.4113
 2444SOL    HW3 9830   1.227   2.635   4.666  0.5330 -0.8677 -0.6454
 2444SOL    MW4 9831   1.305   2.660   4.636  0.2806  0.1392 -0.4950
 2445SOL     OW 9832   0.428   3.509   4.128  0.2125 -0.0553  0.0802
 2445SOL    HW2 9833   0.502   3.566   4.150 -1.3013  2.4058 -1.0321
 2445SOL    HW3 9834   0.437   3.494   4.034 -1.4783  1.4226 -0.3324
 2445SOL    MW4 9835   0.439   3.514   4.119 -0.2103  0.4647 -0.1211
 2446SOL     OW 9836   0.670   3.902   4.148  0.0427 -0.0394 -0.4461
 2446SOL    HW2 9837   0.613   3.939   4.215  0.7715 -1.7233  1.1251
 2446SOL    HW3 9838   0.669   3.808   4.164  1.3702 -0.3339 -1.9075
 2446SOL    MW4 9839   0.662   3.895   4.159  0.3141 -0.3004 -0.4315
 2447SOL     OW 9840   0.646   3.639   4.231  0.2007 -0.4160 -0.0187
 2447SOL    HW2 9841   0.662   3.671   4.320  0.8015  1.8188 -0.9042
 2447SOL    HW3 9842   0.732   3.609   4.201  0.2098 -0.1381 -0.2604
 2447SOL    MW4 9843   0.659   3.639   4.239  0.2812 -0.0846 -0.1669
 2448SOL     OW 9844   0.478   2.997   4.586 -0.0501  0.2955  0.0927
 2448SOL    HW2 9845   0.395   2.951   4.603 -0.0314  0.6027  1.0792
 2448SOL    HW3 9846   0.452   3.086   4.563 -0.0709 -0.1052 -1.5116
 2448SOL    MW4 9847   0.463   3.003   4.585 -0.0504  0.2830  0.0110
 2449SOL     OW 9848   0.470   4.249   4.176 -0.0276 -0.6122 -0.0246
 2449SOL    HW2 9849   0.389   4.282   4.214 -0.1342 -0.8635 -0.0340
 2449SOL    HW3 9850   0.454   4.249   4.082  0.2367  0.0094 -0.0711
 2449SOL    MW4 9851   0.457   4.253   4.169 -0.0068 -0.5636 -0.0315
 2450SOL     OW 9852   0.708   4.371   4.230  0.4986  0.3626  0.2179
 2450SOL    HW2 9853   0.624   4.327   4.219  0.1921  0.3258  2.5401
 2450SOL    HW3 9854   0.695   4.458   4.192 -0.6053  0.3762  0.6115
 2450SOL    MW4 9855   0.695   4.376   4.223  0.3124  0.3595  0.5760
 2451SOL     OW 9856   1.163   4.642   4.129 -0.0754  0.3344 -0.1739
 2451SOL    HW2 9857   1.160   4.664   4.036 -1.3724  1.3507  0.0883
 2451SOL    HW3 9858   1.235   4.695   4.164  1.1935 -0.9412 -0.8002
 2451SOL    MW4 9859   1.172   4.652   4.122 -0.0790  0.2999 -0.2222
 2452SOL     OW 9860   0.921   0.118   4.205  0.2195 -0.0369  0.5846
 2452SOL    HW2 9861   1.004   0.081   4.176  0.5563  1.2936 -0.2214
 2452SOL    HW3 9862   0.854   0.068   4.159  0.6312 -0.2401  0.2091
 2452SOL    MW4 9863   0.923   0.107   4.195  0.3183  0.1119  0.4287
 2453SOL     OW 9864   0.906   0.398   4.170  0.0376 -0.0921  0.3845
 2453SOL    HW2 9865   0.920   0.311   4.207  0.0822  0.1742  0.9897
 2453SOL    HW3 9866   0.818   0.423   4.197 -0.0638 -0.0492  0.0143
 2453SOL    MW4 9867   0.897   0.390   4.178  0.0302 -0.0513  0.4153
 2454SOL     OW 9868   1.111   0.538   4.303 -0.5449  0.4850  0.2834
 2454SOL    HW2 9869   1.101   0.533   4.398 -1.1808 -0.6598  0.1628
 2454SOL    HW3 9870   1.035   0.492   4.268  0.4737 -0.4244 -0.7774
 2454SOL    MW4 9871   1.100   0.531   4.311 -0.4944  0.2139  0.1273
 2455SOL     OW 9872   1.066   0.793   4.208 -0.0799 -0.1904 -0.1998
 2455SOL    HW2 9873   1.149   0.831   4.236 -1.1145  0.3991  2.3373
 2455SOL    HW3 9874   1.072   0.701   4.232 -0.7127  0.1783  1.4851
 2455SOL    MW4 9875   1.077   0.786   4.215 -0.2999 -0.0640  0.3572
 2456SOL     OW 9876   0.870   0.896   4.339  0.1008 -0.3897  0.1293
 2456SOL    HW2 9877   0.939   0.863   4.282  0.0026  0.5079 -0.5265
 2456SOL    HW3 9878   0.789   0.875   4.292 -0.0214 -0.5831  0.4328
 2456SOL    MW4 9879   0.868   0.889   4.325  0.0718 -0.2968  0.0825
 2457SOL     OW 9880   0.895   1.139   4.191  0.5063  0.1912 -0.0840
 2457SOL    HW2 9881   0.897   1.062   4.248  0.8296  0.2211 -0.0507
 2457SOL    HW3 9882   0.828   1.196   4.229  1.2597  0.5559  0.7309
 2457SOL    MW4 9883   0.886   1.137   4.203  0.6483  0.2433  0.0281
 2458SOL     OW 9884   1.105   1.299   4.289  0.3799  0.0808 -0.2907
 2458SOL    HW2 9885   1.108   1.283   4.384 -1.4591  0.7048 -0.1153
 2458SOL    HW3 9886   1.039   1.238   4.256  0.2437  0.6073 -1.0139
 2458SOL    MW4 9887   1.097   1.289   4.297  0.1193  0.2327 -0.3633
 2459SOL     OW 9888   1.146   1.542   4.146  0.1490 -0.6655  0.3621
 2459SOL    HW2 9889   1.213   1.592   4.194  0.5922 -0.4242 -0.4853
 2459SOL    HW3 9890   1.136   1.461   4.195  2.2709 -1.4205 -0.3973
 2459SOL    MW4 9891   1.154   1.538   4.159  0.4873 -0.7331  0.1502
 2460SOL     OW 9892   0.913   1.682   4.237 -0.4226  0.1983 -0.0173
 2460SOL    HW2 9893   1.005   1.662   4.224 -0.5323 -1.4540  1.5161
 2460SOL    HW3 9894   0.900   1.766   4.194  1.8764  0.5997  0.0346
 2460SOL    MW4 9895   0.923   1.690   4.230 -0.1338  0.0334  0.1917
 2461SOL     OW 9896   0.897   1.918   4.101  0.2078 -0.3724 -0.1361
 2461SOL    HW2 9897   0.820   1.959   4.141 -0.2723 -0.9637 -0.4386
 2461SOL    HW3 9898   0.882   1.926   4.007  0.6927 -0.1757 -0.1988
 2461SOL    MW4 9899   0.885   1.924   4.094  0.2085 -0.4246 -0.1845
 2462SOL     OW 9900   1.102   2.011   4.309  0.3585 -0.2669 -0.1066
 2462SOL    HW2 9901   1.075   1.972   4.392 -1.3808  0.4185 -0.3183
 2462SOL    HW3 9902   1.036   1.980   4.246  0.8504  0.3576 -0.9345
 2462SOL    MW4 9903   1.090   2.002   4.311  0.1940 -0.0939 -0.2437
 2463SOL     OW 9904   1.165   2.292   4.158 -0.4191  0.1252  0.2177
 2463SOL    HW2 9905   1.230   2.356   4.186 -0.1220  0.2218 -0.6984
 2463SOL    HW3 9906   1.164   2.228   4.229 -0.8774  1.2537  1.2367
 2463SOL    MW4 9907   1.174   2.292   4.171 -0.4404  0.2868  0.2317
 2464SOL     OW 9908   0.934   2.425   4.256 -0.0531  0.3351 -0.0178
 2464SOL    HW2 9909   0.850   2.394   4.224 -0.2049 -0.1817  0.8586
 2464SOL    HW3 9910   0.998   2.369   4.212 -0.3513 -1.6788  1.9815
 2464SOL    MW4 9911   0.932   2.413   4.246 -0.1125  0.0012  0.3614
 2465SOL     OW 9912   0.878   2.699   4.174  0.0022  0.5289 -0.2139
 2465SOL    HW2 9913   0.900   2.608   4.196 -1.0201 -0.4107 -2.8482
 2465SOL    HW3 9914   0.955   2.749   4.202  1.3237 -1.3851 -0.2663
 2465SOL    MW4 9915   0.891   2.693   4.180  0.0417  0.1523 -0.5684
 2466SOL     OW 9916   1.097   2.883   4.254  0.5210 -0.2939 -0.3728
 2466SOL    HW2 9917   1.109   2.974   4.226  1.9137 -0.6534 -0.9863
 2466SOL    HW3 9918   1.106   2.885   4.349  0.6099  0.1901 -0.3915
 2466SOL    MW4 9919   1.100   2.895   4.263  0.7164 -0.2773 -0.4559
 2467SOL     OW 9920   1.126   3.147   4.171  0.3624  0.0807  0.2903
 2467SOL    HW2 9921   1.212   3.174   4.203  1.0956 -1.3057 -0.4610
 2467SOL    HW3 9922   1.140   3.129   4.078 -0.6214 -0.6268  0.2736
 2467SOL    MW4 9923   1.139   3.148   4.163  0.3294 -0.1953  0.1888
 2468SOL     OW 9924   0.885   3.256   4.247 -0.0565  0.0558 -0.2426
 2468SOL    HW2 9925   0.899   3.273   4.340  0.2987 -0.3802 -0.2153
 2468SOL    HW3 9926   0.961   3.205   4.220  0.2785  0.9233 -0.9790
 2468SOL    MW4 9927   0.897   3.252   4.256  0.0347  0.1128 -0.3366
 2469SOL     OW 9928   0.905   3.527   4.166  0.5944  0.0228  0.2420
 2469SOL    HW2 9929   0.890   3.439   4.201  0.7464  0.1575  0.6517
 2469SOL    HW3 9930   0.929   3.513   4.074  2.4800 -0.5014  0.7837
 2469SOL    MW4 9931   0.906   3.514   4.159  0.8632 -0.0284  0.3672
 2470SOL     OW 9932   1.135   3.650   4.278  0.5979 -0.1147  0.2009
 2470SOL    HW2 9933   1.053   3.616   4.243  0.3281  1.1608 -0.4673
 2470SOL    HW3 9934   1.151   3.730   4.228  0.5425  1.4414  2.5807
 2470SOL    MW4 9935   1.126   3.656   4.267  0.5550  0.2589  0.4272
 2471SOL     OW 9936   1.177   3.902   4.158 -0.0426 -0.3604  0.0411
 2471SOL    HW2 9937   1.253   3.941   4.202 -0.3609 -1.0112  1.1972
 2471SOL    HW3 9938   1.101   3.942   4.202 -0.3700 -0.3823 -0.5033
 2471SOL    MW4 9939   1.177   3.913   4.170 -0.1277 -0.4489  0.1221
 2472SOL     OW 9940   0.919   3.988   4.227  0.5668  0.4935 -0.4720
 2472SOL    HW2 9941   0.934   4.073   4.185  0.7750  0.0631 -1.2696
 2472SOL    HW3 9942   0.844   3.951   4.182  0.6085  0.1527 -0.2626
 2472SOL    MW4 9943   0.911   3.994   4.216  0.5998  0.3917 -0.5498
 2473SOL     OW 9944   0.934   4.260   4.125 -0.0527 -0.2596  0.9916
 2473SOL    HW2 9945   0.987   4.309   4.188  0.6283  1.6971 -1.0644
 2473SOL    HW3 9946   0.844   4.288   4.143  0.0907 -0.0062  1.3248
 2473SOL    MW4 9947   0.929   4.270   4.136  0.0561  0.0319  0.7644
 2474SOL     OW 9948   0.667   3.741   4.481 -0.0126  0.2451 -0.6932
 2474SOL    HW2 9949   0.730   3.811   4.497  0.4487 -0.4168  0.3845
 2474SOL    HW3 9950   0.589   3.768   4.529  0.4043 -0.3314  0.3041
 2474SOL    MW4 9951   0.665   3.754   4.489  0.1032  0.0820 -0.4196
 2475SOL     OW 9952   3.489   0.401   4.635 -0.0838 -0.1806 -0.1881
 2475SOL    HW2 9953   3.520   0.482   4.594 -0.3821  0.8331  1.5590
 2475SOL    HW3 9954   3.396   0.397   4.613 -0.2558  0.3920  0.4350
 2475SOL    MW4 9955   3.481   0.411   4.627 -0.1459  0.0287  0.1245
 2476SOL     OW 9956   1.121   4.395   4.280 -0.5730 -0.0405 -0.2607
 2476SOL    HW2 9957   1.208   4.357   4.265 -0.0338  0.8050  0.6676
 2476SOL    HW3 9958   1.113   4.463   4.214 -0.3497  0.1632 -0.0805
 2476SOL    MW4 9959   1.131   4.399   4.269 -0.4725  0.0973 -0.1144
 2477SOL     OW 9960   1.589   1.118   4.597  0.1999  0.3076 -0.0882
 2477SOL    HW2 9961   1.571   1.206   4.564 -0.6087  0.8424  1.7376
 2477SOL    HW3 9962   1.614   1.131   4.689  1.5007 -1.2435 -0.2024
 2477SOL    MW4 9963   1.590   1.131   4.605  0.2648  0.1736  0.1373
 2478SOL     OW 9964   3.283   0.086   4.525  0.0444  0.3624 -0.1760
 2478SOL    HW2 9965   3.194   0.076   4.559  0.0424  1.9090  0.2847
 2478SOL    HW3 9966   3.300   0.180   4.526  2.5695 -0.0368  2.0918
 2478SOL    MW4 9967   3.274   0.097   4.530  0.3772  0.5138  0.1841
 2479SOL     OW 9968   1.539   0.778   4.170  0.7163 -0.3931  0.0479
 2479SOL    HW2 9969   1.617   0.821   4.205  1.2247 -1.5387  0.3413
 2479SOL    HW3 9970   1.541   0.797   4.077  1.7109 -0.9747 -0.0507
 2479SOL    MW4 9971   1.549   0.786   4.163  0.9146 -0.6209  0.0734
 2480SOL     OW 9972   1.315   0.925   4.267 -0.2736 -0.4041  0.1114
 2480SOL    HW2 9973   1.390   0.876   4.232  0.6811  0.3965  1.0080
 2480SOL    HW3 9974   1.328   1.014   4.234 -1.5499 -0.5589 -0.8186
 2480SOL    MW4 9975   1.327   0.930   4.258 -0.3160 -0.3189  0.1068
 2481SOL     OW 9976   1.333   1.189   4.165 -0.1761 -0.3819 -0.4877
 2481SOL    HW2 9977   1.255   1.233   4.199 -0.2399 -0.9648  0.1337
 2481SOL    HW3 9978   1.313   1.173   4.073 -0.5138  0.0812 -0.4972
 2481SOL    MW4 9979   1.320   1.193   4.157 -0.2291 -0.3978 -0.4072
 2482SOL     OW 9980   1.559   1.329   4.237 -0.4094 -0.4142  0.3367
 2482SOL    HW2 9981   1.543   1.348   4.329 -0.5176 -1.3922  0.5297
 2482SOL    HW3 9982   1.480   1.281   4.209 -1.0226  1.1167 -0.6415
 2482SOL    MW4 9983   1.546   1.325   4.245 -0.5045 -0.3413  0.2337
 2483SOL     OW 9984   1.819   0.979   4.506  0.5612 -0.0730 -0.4264
 2483SOL    HW2 9985   1.796   0.945   4.419  0.6480 -0.1517 -0.4184
 2483SOL    HW3 9986   1.735   1.008   4.543  0.4194 -0.6837 -0.2612
 2483SOL    MW4 9987   1.805   0.978   4.499  0.5538 -0.1640 -0.4034
 2484SOL     OW 9988   1.596   1.581   4.138  0.6928 -0.0371  0.4736
 2484SOL    HW2 9989   1.595   1.487   4.152  2.0583 -0.2100 -0.5298
 2484SOL    HW3 9990   1.527   1.614   4.195  0.4451 -1.6002  1.1069
 2484SOL    MW4 9991   1.587   1.573   4.147  0.8402 -0.2662  0.4253
 2485SOL     OW 9992   1.329   1.930   4.169 -0.1179  0.3028 -0.2019
 2485SOL    HW2 9993   1.401   1.980   4.207  1.8529 -3.3033  1.1067
 2485SOL    HW3 9994   1.253   1.952   4.223  0.5569  2.1633  0.0392
 2485SOL    MW4 9995   1.328   1.939   4.181  0.2313  0.0725  0.0029
 2486SOL     OW 9996   1.721   2.233   4.818  0.3581 -0.2546  0.4400
 2486SOL    HW2 9997   1.777   2.242   4.740 -0.5916 -0.0436 -0.2236
 2486SOL    HW3 9998   1.769   2.173   4.875  0.5453 -1.2935 -0.7806
 2486SOL    MW4 9999   1.735   2.226   4.815  0.2574 -0.3641  0.1912
 2487SOL     OW10000   1.562   2.323   4.149  0.5236 -0.5775 -0.0271
 2487SOL    HW210001   1.648   2.362   4.165  0.4108 -0.7157  0.9474
 2487SOL    HW310002   1.555   2.320   4.054  1.4047 -0.1377 -0.1162
 2487SOL    MW410003   1.573   2.328   4.139  0.6249 -0.5374  0.0896
 2488SOL     OW10004   1.346   2.468   4.256 -0.0946 -0.1755  0.3243
 2488SOL    HW210005   1.425   2.434   4.214 -0.9061 -1.2240 -0.3785
 2488SOL    HW310006   1.343   2.560   4.230 -0.2796 -0.6671 -1.4902
 2488SOL    MW410007   1.356   2.476   4.247 -0.2261 -0.3786 -0.0076
 2489SOL     OW10008   1.331   2.740   4.179 -0.2275  0.2203  0.1127
 2489SOL    HW210009   1.401   2.789   4.224 -0.2759 -0.5997  1.0848
 2489SOL    HW310010   1.251   2.786   4.204 -0.3587 -0.8274  1.7073
 2489SOL    MW410011   1.330   2.753   4.188 -0.2513 -0.0260  0.4511
 2490SOL     OW10012   1.813   2.755   4.123 -0.0678  0.2507  0.0690
 2490SOL    HW210013   1.896   2.797   4.144 -0.5531  1.8104 -1.0694
 2490SOL    HW310014   1.820   2.668   4.163  2.7310 -0.2384 -1.3793
 2490SOL    MW410015   1.825   2.749   4.131  0.2375  0.3920 -0.2723
 2491SOL     OW10016   1.563   3.114   4.150  0.0133  0.3171  0.4294
 2491SOL    HW210017   1.650   3.148   4.171 -0.5595  0.8746  1.9906
 2491SOL    HW310018   1.503   3.174   4.194 -1.1150 -0.9225  0.6019
 2491SOL    MW410019   1.567   3.127   4.158 -0.2112  0.2270  0.6580
 2492SOL     OW10020   1.385   3.289   4.275 -0.1770  0.1847  0.1689
 2492SOL    HW210021   1.400   3.297   4.370 -0.1119  1.1177  0.0833
 2492SOL    HW310022   1.386   3.379   4.243  0.5904 -0.1744 -0.8462
 2492SOL    MW410023   1.387   3.302   4.284 -0.0672  0.2604  0.0238
 2493SOL     OW10024   1.391   3.570   4.179 -0.0637 -0.1783  0.1214
 2493SOL    HW210025   1.306   3.589   4.218  0.3322  0.3100  0.7732
 2493SOL    HW310026   1.371   3.535   4.093 -0.9066  1.0834 -0.2197
 2493SOL    MW410027   1.377   3.568   4.173 -0.1228  0.0525  0.1616
 2494SOL     OW10028   1.153   3.302   4.682  0.0336  0.0758 -0.2827
 2494SOL    HW210029   1.130   3.384   4.726 -0.1590 -0.0404 -0.1685
 2494SOL    HW310030   1.089   3.293   4.612  0.0352  0.0048 -0.2748
 2494SOL    MW410031   1.142   3.312   4.679  0.0085  0.0513 -0.2661
 2495SOL     OW10032   1.542   3.857   4.135 -0.3465  0.0639 -0.5864
 2495SOL    HW210033   1.477   3.903   4.187 -1.3633 -1.3837 -0.5624
 2495SOL    HW310034   1.560   3.777   4.184 -0.6478 -0.8884 -2.0094
 2495SOL    MW410035   1.536   3.853   4.148 -0.5205 -0.2527 -0.7715
 2496SOL     OW10036   1.386   4.003   4.292 -0.1362 -0.1278  0.0027
 2496SOL    HW210037   1.391   4.009   4.387 -0.5992 -0.7516  0.0744
 2496SOL    HW310038   1.361   4.091   4.263 -1.2205 -0.2371  0.5554
 2496SOL    MW410039   1.383   4.015   4.301 -0.3403 -0.2246  0.0854
 2497SOL     OW10040   1.346   4.253   4.197  0.5123  0.0729  0.1545
 2497SOL    HW210041   1.351   4.271   4.103  0.3055  0.7820  0.2803
 2497SOL    HW310042   1.430   4.284   4.232  0.4023  0.2352  0.2754
 2497SOL    MW410043   1.358   4.259   4.189  0.4706  0.1874  0.1864
 2498SOL     OW10044   1.555   4.639   4.153 -0.2780 -0.4128  0.6007
 2498SOL    HW210045   1.486   4.694   4.189 -0.9058  0.0983 -1.3267
 2498SOL    HW310046   1.633   4.695   4.156 -1.0182  0.8268 -1.8303
 2498SOL    MW410047   1.556   4.654   4.158 -0.4585 -0.1822  0.0257
 2499SOL     OW10048   2.016   0.016   4.216 -0.0875 -0.1145  0.0211
 2499SOL    HW210049   2.008  -0.077   4.238 -0.4454  0.1100  0.8737
 2499SOL    HW310050   2.016   0.018   4.121  1.7843 -1.1458 -0.0261
 2499SOL    MW410051   2.015   0.004   4.207  0.1123 -0.2208  0.1273
 2500SOL     OW10052   0.587   1.112   4.576  0.7766 -0.0062 -0.0249
 2500SOL    HW210053   0.522   1.182   4.570  0.6617  0.0120  1.4472
 2500SOL    HW310054   0.542   1.036   4.538  1.0805  0.8095 -2.0861
 2500SOL    MW410055   0.572   1.111   4.570  0.8016  0.1036 -0.1020
 2501SOL     OW10056   1.320   0.402   4.156  0.2590  0.3084  0.1168
 2501SOL    HW210057   1.251   0.436   4.213 -0.4732  0.6570 -0.9553
 2501SOL    HW310058   1.397   0.455   4.178  0.4557 -0.7189  1.9860
 2501SOL    MW410059   1.321   0.414   4.166  0.1884  0.2188  0.2217
 2502SOL     OW10060   1.790   0.428   4.165 -0.2999 -0.3044 -0.0049
 2502SOL    HW210061   1.852   0.482   4.215  0.2180 -0.0059 -0.9588
 2502SOL    HW310062   1.704   0.457   4.195  0.0060 -0.1187  0.7108
 2502SOL    MW410063   1.787   0.439   4.176 -0.1912 -0.2405 -0.0362
 2503SOL     OW10064   2.022   0.794   4.145 -0.1369 -0.1772  0.2855
 2503SOL    HW210065   2.098   0.836   4.185  0.1135 -0.1279 -0.2307
 2503SOL    HW310066   2.018   0.708   4.186  0.0275 -0.0709  0.5232
 2503SOL    MW410067   2.032   0.788   4.155 -0.0820 -0.1566  0.2489
 2504SOL     OW10068   1.780   0.892   4.254 -0.0565 -0.1379  0.0632
 2504SOL    HW210069   1.782   0.982   4.223  0.5611  0.1292  0.8701
 2504SOL    HW310070   1.865   0.856   4.230 -0.6319 -0.7803 -1.0483
 2504SOL    MW410071   1.791   0.899   4.247 -0.0511 -0.1874  0.0229
 2505SOL     OW10072   1.760   1.128   4.141  0.0552  0.1120  0.5805
 2505SOL    HW210073   1.691   1.179   4.185  0.0608 -1.2813  2.2657
 2505SOL    HW310074   1.842   1.162   4.176  0.1287  0.1220  0.4011
 2505SOL    MW410075   1.761   1.139   4.151  0.0657 -0.0705  0.7792
 2506SOL     OW10076   2.224   1.686   4.525  0.1774  0.5649  0.0812
 2506SOL    HW210077   2.157   1.617   4.523  2.1398 -1.4110  0.5166
 2506SOL    HW310078   2.261   1.685   4.436  0.1596  1.0901  0.0714
 2506SOL    MW410079   2.220   1.676   4.513  0.4342  0.3734  0.1378
 2507SOL     OW10080   2.057   1.528   4.150 -0.1599  0.1805  0.0219
 2507SOL    HW210081   1.981   1.582   4.171 -1.0257 -1.0683  0.1251
 2507SOL    HW310082   2.051   1.513   4.056 -0.7899 -1.0194  0.2398
 2507SOL    MW410083   2.046   1.533   4.140 -0.3574 -0.1426  0.0648
 2508SOL     OW10084   3.499   2.416   4.461 -0.3360 -0.1781  0.0329
 2508SOL    HW210085   3.510   2.405   4.367 -0.9687 -0.8145  0.0317
 2508SOL    HW310086   3.484   2.510   4.472 -1.0437 -0.2154 -0.5784
 2508SOL    MW410087   3.498   2.427   4.450 -0.5131 -0.2670 -0.0477
 2509SOL     OW10088   1.798   1.944   4.187  0.3192  0.0360  0.3565
 2509SOL    HW210089   1.796   1.853   4.215  1.3670 -0.2212 -0.3668
 2509SOL    HW310090   1.882   1.977   4.219  0.0182  0.6933  0.4725
 2509SOL    MW410091   1.809   1.936   4.195  0.4177  0.0887  0.2766
 2510SOL     OW10092   2.449   2.177   4.839  0.5732  0.3773  0.3154
 2510SOL    HW210093   2.509   2.225   4.896 -0.7260  3.2981 -0.7001
 2510SOL    HW310094   2.362   2.205   4.868 -0.2275 -1.4167 -0.2947
 2510SOL    MW410095   2.445   2.187   4.851  0.2961  0.5260  0.1016
 2511SOL     OW10096   2.030   2.080   4.280  0.1310 -0.0961 -0.4598
 2511SOL    HW210097   2.015   2.057   4.372 -2.0009 -1.5636 -1.1092
 2511SOL    HW310098   2.114   2.041   4.259 -0.4488 -1.8048  0.2629
 2511SOL    MW410099   2.039   2.071   4.289 -0.2267 -0.5152 -0.4506
 2512SOL     OW10100   1.761   2.509   4.235 -0.2733 -0.9029 -0.1816
 2512SOL    HW210101   1.842   2.461   4.255  1.4467  2.1931  0.6251
 2512SOL    HW310102   1.725   2.530   4.321 -0.6666 -0.1963 -0.5273
 2512SOL    MW410103   1.767   2.505   4.249 -0.0982 -0.4010 -0.1211
 2513SOL     OW10104   1.558   2.877   4.274 -0.1057 -0.2336 -0.5574
 2513SOL    HW210105   1.552   2.953   4.216 -1.1657 -0.0929 -0.2720
 2513SOL    HW310106   1.637   2.832   4.246  0.2868  0.7291 -1.0304
 2513SOL    MW410107   1.567   2.881   4.263 -0.1938 -0.0880 -0.5822
 2514SOL     OW10108   2.094   2.753   4.238 -0.9074 -0.0299 -0.0947
 2514SOL    HW210109   2.096   2.733   4.332 -0.5224  0.3154 -0.0267
 2514SOL    HW310110   2.099   2.849   4.234  0.6036 -0.1248 -0.5146
 2514SOL    MW410111   2.095   2.763   4.250 -0.6571  0.0031 -0.1411
 2515SOL     OW10112   2.056   3.014   4.175 -0.4460  0.3624  0.8450
 2515SOL    HW210113   2.116   3.085   4.195  1.0250 -0.6041 -0.0655
 2515SOL    HW310114   2.047   3.016   4.079 -0.4278 -0.6398  0.8156
 2515SOL    MW410115   2.062   3.023   4.165 -0.2496  0.1028  0.7205
 2516SOL     OW10116   1.827   3.194   4.215  0.2796  0.2473  0.7202
 2516SOL    HW210117   1.844   3.289   4.210 -0.1592  0.3319  0.8568
 2516SOL    HW310118   1.910   3.154   4.188 -0.2319  0.6583 -1.5596
 2516SOL    MW410119   1.840   3.201   4.211  0.1544  0.3126  0.4373
 2517SOL     OW10120   1.826   3.491   4.160 -0.0554 -0.4453  0.1427
 2517SOL    HW210121   1.894   3.553   4.187  0.0060 -0.5168  0.1536
 2517SOL    HW310122   1.824   3.496   4.065 -1.7846  1.4097  0.2577
 2517SOL    MW410123   1.835   3.500   4.151 -0.2756 -0.2100  0.1593
 2518SOL     OW10124   1.696   3.952   4.459 -0.0717 -0.0621 -0.2357
 2518SOL    HW210125   1.710   3.860   4.479  1.9553  0.2636 -0.0195
 2518SOL    HW310126   1.733   3.963   4.371 -0.1355  0.5719 -0.1891
 2518SOL    MW410127   1.703   3.941   4.450  0.1873  0.0648 -0.2017
 2519SOL     OW10128   2.042   3.646   4.242 -0.1355 -0.2716 -0.1780
 2519SOL    HW210129   2.060   3.735   4.214 -2.8744  0.4995  0.4045
 2519SOL    HW310130   2.072   3.643   4.333  0.3357 -0.0822 -0.3248
 2519SOL    MW410131   2.048   3.657   4.251 -0.4349 -0.1450 -0.1206
 2520SOL     OW10132   1.793   4.010   4.209 -0.2918  0.2170 -0.2060
 2520SOL    HW210133   1.794   4.104   4.191  0.3195 -0.0404 -1.5995
 2520SOL    HW310134   1.709   3.981   4.172  0.0667  0.0170 -0.8666
 2520SOL    MW410135   1.782   4.019   4.202 -0.1638  0.1564 -0.4773
 2521SOL     OW10136   1.769   4.273   4.154  0.2910  0.1075 -0.1718
 2521SOL    HW210137   1.843   4.322   4.189 -0.3463  1.2693 -0.4319
 2521SOL    HW310138   1.781   4.275   4.059  0.3057 -0.3235 -0.1815
 2521SOL    MW410139   1.780   4.279   4.146  0.2087  0.2036 -0.2074
 2522SOL     OW10140   1.999   4.394   4.278  0.0445  0.5999  0.4204
 2522SOL    HW210141   2.082   4.364   4.241  1.0857  1.7110  1.7771
 2522SOL    HW310142   2.005   4.372   4.371 -1.1509  0.7391  0.5334
 2522SOL    MW410143   2.011   4.387   4.286  0.0241  0.7653  0.6142
 2523SOL     OW10144   4.401   3.207   4.526 -0.4664 -0.4503  0.5430
 2523SOL    HW210145   4.307   3.220   4.543 -0.2023  0.0318  1.7196
 2523SOL    HW310146   4.407   3.197   4.432 -1.4356  1.9027  0.1850
 2523SOL    MW410147   4.389   3.207   4.516 -0.5593 -0.0763  0.6514
 2524SOL     OW10148   1.036   4.490   4.524 -0.0392 -0.0257  0.3145
 2524SOL    HW210149   1.068   4.459   4.439 -1.1195  1.0165 -0.5013
 2524SOL    HW310150   1.115   4.511   4.573  0.6144 -1.1214 -0.2537
 2524SOL    MW410151   1.051   4.489   4.519 -0.0955 -0.0329  0.1321
 2525SOL     OW10152   2.368   0.336   4.173  0.2123 -0.1434  0.0057
 2525SOL    HW210153   2.334   0.263   4.224  0.0146 -0.8395 -1.1194
 2525SOL    HW310154   2.309   0.343   4.098  0.1845  1.2151  0.1416
 2525SOL    MW410155   2.356   0.327   4.170  0.1826 -0.0560 -0.1249
 2526SOL     OW10156   2.242   0.931   4.256  0.4958  0.0092 -0.2862
 2526SOL    HW210157   2.242   0.962   4.347  1.3048 -0.3714 -0.1476
 2526SOL    HW310158   2.262   1.010   4.205  1.4464 -0.0410 -0.0168
 2526SOL    MW410159   2.245   0.946   4.262  0.7279 -0.0476 -0.2322
 2527SOL     OW10160   2.483   0.756   4.175 -0.3216 -0.1350 -0.4913
 2527SOL    HW210161   2.468   0.759   4.081 -1.7651  0.6481 -0.2582
 2527SOL    HW310162   2.421   0.820   4.211  0.2351 -0.4033  0.9845
 2527SOL    MW410163   2.473   0.765   4.167 -0.4385 -0.0671 -0.2656
 2528SOL     OW10164   2.738   0.177   4.516 -0.0854  0.3855 -0.0427
 2528SOL    HW210165   2.722   0.135   4.432 -0.9252  0.7671 -0.0777
 2528SOL    HW310166   2.658   0.225   4.535  0.1723  0.4704  0.8807
 2528SOL    MW410167   2.725   0.178   4.508 -0.1624  0.4470  0.0744
 2529SOL     OW10168   1.741   1.814   4.607 -0.0460  0.0914 -0.1537
 2529SOL    HW210169   1.652   1.847   4.601 -0.5508 -1.0558  0.9054
 2529SOL    HW310170   1.796   1.887   4.578 -1.2744  1.0333 -0.1334
 2529SOL    MW410171   1.737   1.828   4.602 -0.2747  0.0644 -0.0114
 2530SOL     OW10172   2.235   1.169   4.131  0.0004  0.2872  0.6264
 2530SOL    HW210173   2.152   1.179   4.178  0.2111 -0.4171  1.1608
 2530SOL    HW310174   2.290   1.239   4.164  0.3383 -0.5502  1.8553
 2530SOL    MW410175   2.231   1.180   4.141  0.0727  0.0837  0.8593
 2531SOL     OW10176   2.283   1.675   4.233 -0.0656 -0.3762  0.2409
 2531SOL    HW210177   2.354   1.641   4.178  0.4079 -1.2489  1.3468
 2531SOL    HW310178   2.207   1.623   4.209  0.2602 -1.1041  0.7485
 2531SOL    MW410179   2.282   1.664   4.223  0.0398 -0.5873  0.4539
 2532SOL     OW10180   2.517   1.577   4.131 -0.1451 -0.0580 -0.1455
 2532SOL    HW210181   2.532   1.608   4.042 -1.6580  0.6526 -0.1703
 2532SOL    HW310182   2.589   1.613   4.182 -0.0820  0.7630 -0.8071
 2532SOL    MW410183   2.528   1.586   4.126 -0.3364  0.1440 -0.2360
 2533SOL     OW10184   2.266   1.943   4.225  0.2332 -0.2830 -0.2309
 2533SOL    HW210185   2.352   1.980   4.243  0.0003  0.5924 -0.8661
 2533SOL    HW310186   2.275   1.850   4.243  1.0289 -0.0262  0.7029
 2533SOL    MW410187   2.279   1.936   4.229  0.3076 -0.1335 -0.1922
 2534SOL     OW10188   2.594   2.341   5.000  0.2763  0.2625 -0.1250
 2534SOL    HW210189   2.539   2.393   4.942  1.4744  0.6198 -0.9522
 2534SOL    HW310190   2.683   2.354   4.968  0.5689 -2.8124 -0.7743
 2534SOL    MW410191   2.598   2.349   4.988  0.4730 -0.0958 -0.3195
 2535SOL     OW10192   2.458   2.417   4.149 -0.1187 -0.2804  0.3971
 2535SOL    HW210193   2.462   2.405   4.054  0.8547 -1.3643  0.5572
 2535SOL    HW310194   2.370   2.451   4.165 -0.6964 -1.1556 -0.7826
 2535SOL    MW410195   2.447   2.420   4.138 -0.0665 -0.5391  0.2623
 2536SOL     OW10196   1.987   2.336   4.183 -0.5514 -0.1797  0.1165
 2536SOL    HW210197   2.001   2.248   4.217  0.8575 -0.1454 -0.3061
 2536SOL    HW310198   1.988   2.326   4.088  1.9897  0.5767  0.0149
 2536SOL    MW410199   1.989   2.323   4.175 -0.0304 -0.0751  0.0477
 2537SOL     OW10200   2.197   2.509   4.148 -0.0880 -0.3427  0.1471
 2537SOL    HW210201   2.154   2.585   4.187 -0.4811 -0.0986 -0.7646
 2537SOL    HW310202   2.131   2.440   4.149 -0.5269  0.0514 -1.3130
 2537SOL    MW410203   2.183   2.510   4.153 -0.1979 -0.2584 -0.1655
 2538SOL     OW10204   1.690   3.691   4.577 -0.7858  0.0818  0.1800
 2538SOL    HW210205   1.679   3.645   4.493 -1.5069  0.5912 -0.0032
 2538SOL    HW310206   1.779   3.668   4.604 -0.4073  0.2092 -0.9064
 2538SOL    MW410207   1.700   3.682   4.569 -0.8309  0.1662  0.0124
 2539SOL     OW10208   2.731   3.205   4.269 -0.3004  0.0435  0.0815
 2539SOL    HW210209   2.749   3.203   4.363  0.3066  0.8530 -0.0119
 2539SOL    HW310210   2.803   3.157   4.229  0.8305  1.9139 -0.1678
 2539SOL    MW410211   2.743   3.199   4.276 -0.0710  0.3970  0.0358
 2540SOL     OW10212   2.272   3.199   4.247  0.2373  0.1383 -0.2918
 2540SOL    HW210213   2.243   3.290   4.234  1.5708  0.4192 -1.4648
 2540SOL    HW310214   2.253   3.180   4.339 -0.2579  1.5257 -0.0950
 2540SOL    MW410215   2.265   3.209   4.257  0.3479  0.3581 -0.4210
 2541SOL     OW10216   2.231   3.467   4.156  0.0976 -0.1666  0.2148
 2541SOL    HW210217   2.307   3.524   4.149 -0.7777  1.0620  0.6292
 2541SOL    HW310218   2.158   3.525   4.176 -0.8272 -1.4098  0.5713
 2541SOL    MW410219   2.231   3.482   4.158 -0.1400 -0.1686  0.3166
 2542SOL     OW10220   2.448   3.611   4.206 -0.2339 -0.1862  0.2485
 2542SOL    HW210221   2.431   3.610   4.301  0.4675  0.0965  0.3851
 2542SOL    HW310222   2.446   3.704   4.183 -0.7038 -0.2781 -0.0698
 2542SOL    MW410223   2.445   3.623   4.216 -0.2034 -0.1607  0.2241
 2543SOL     OW10224   2.439   3.877   4.165 -0.2805  0.0794 -0.4470
 2543SOL    HW210225   2.518   3.922   4.196  1.0336 -1.9489 -0.7707
 2543SOL    HW310226   2.439   3.892   4.070  0.5556 -1.1828 -0.6564
 2543SOL    MW410227   2.449   3.885   4.157  0.0033 -0.3545 -0.5178
 2544SOL     OW10228   2.236   4.018   4.306  0.7933 -0.4526  0.3404
 2544SOL    HW210229   2.314   3.973   4.273  1.2931  1.1960 -0.7642
 2544SOL    HW310230   2.166   3.990   4.248  0.9659 -0.3595  0.0861
 2544SOL    MW410231   2.237   4.008   4.294  0.8821 -0.2227  0.1612
 2545SOL     OW10232   2.245   4.262   4.174  0.1611 -0.0828 -0.0718
 2545SOL    HW210233   2.236   4.184   4.230 -0.0826 -1.7877 -2.4189
 2545SOL    HW310234   2.326   4.303   4.204 -0.1942 -0.6976  1.8339
 2545SOL    MW410235   2.254   4.257   4.185  0.0820 -0.3886 -0.1292
 2546SOL     OW10236   2.490   4.396   4.257 -0.1107 -0.1003 -0.1658
 2546SOL    HW210237   2.564   4.355   4.211 -0.8676 -1.5371 -0.1511
 2546SOL    HW310238   2.508   4.381   4.350  0.3225  0.8767 -0.0849
 2546SOL    MW410239   2.502   4.388   4.263 -0.1535 -0.1612 -0.1535
 2547SOL     OW10240   2.045   1.479   4.571 -0.2929 -0.4396  0.1462
 2547SOL    HW210241   2.040   1.490   4.666 -1.3330  0.5715 -0.0059
 2547SOL    HW310242   2.023   1.387   4.555 -0.4956 -0.5157  0.8624
 2547SOL    MW410243   2.042   1.469   4.581 -0.4568 -0.3163  0.2208
 2548SOL     OW10244   2.688   0.121   4.264 -0.5201  0.4532 -0.0114
 2548SOL    HW210245   2.769   0.088   4.225 -0.4628  0.5638  0.0145
 2548SOL    HW310246   2.673   0.205   4.221 -0.4414  0.5893  0.2268
 2548SOL    MW410247   2.696   0.128   4.253 -0.5021  0.4857  0.0234
 2549SOL     OW10248   2.412   0.543   4.381  0.1796 -0.1612 -0.7538
 2549SOL    HW210249   2.391   0.478   4.314 -0.4277  0.1168 -0.8313
 2549SOL    HW310250   2.452   0.615   4.333  1.6274 -0.8195 -0.5702
 2549SOL    MW410251   2.414   0.544   4.366  0.2909 -0.2114 -0.7396
 2550SOL     OW10252   2.326   0.812   4.700  0.6553 -0.1281 -0.0030
 2550SOL    HW210253   2.256   0.825   4.763  0.1963  0.4159 -0.6050
 2550SOL    HW310254   2.317   0.722   4.671  0.6012 -0.2473  0.3871
 2550SOL    MW410255   2.316   0.802   4.704  0.5877 -0.0721 -0.0305
 2551SOL     OW10256   2.912   0.801   4.179  0.1060  0.8637  0.2568
 2551SOL    HW210257   2.899   0.773   4.089 -2.5008  2.5107  0.0727
 2551SOL    HW310258   2.879   0.728   4.232  1.4002  0.0084 -0.0853
 2551SOL    MW410259   2.906   0.788   4.174 -0.0675  0.9682  0.1869
 2552SOL     OW10260   2.686   0.944   4.221  0.2734 -0.3917 -0.4674
 2552SOL    HW210261   2.773   0.905   4.217 -0.4838 -2.3510  1.5107
 2552SOL    HW310262   2.626   0.871   4.203 -1.0044  0.8769 -1.5250
 2552SOL    MW410263   2.689   0.929   4.218  0.0050 -0.4828 -0.3457
 2553SOL     OW10264   2.669   1.182   4.089 -0.2190  0.1877  0.1457
 2553SOL    HW210265   2.696   1.170   3.998  0.4605  0.3360  0.3210
 2553SOL    HW310266   2.674   1.095   4.128 -0.6969  0.0905 -0.0046
 2553SOL    MW410267   2.673   1.169   4.083 -0.1922  0.1945  0.1488
 2554SOL     OW10268   3.962   0.300   4.549 -0.1400  0.3487  0.1375
 2554SOL    HW210269   3.969   0.242   4.474  1.8093 -0.7886  1.1527
 2554SOL    HW310270   4.045   0.348   4.550 -0.9972  1.8819  0.3586
 2554SOL    MW410271   3.974   0.299   4.539  0.0038  0.4010  0.3004
 2555SOL     OW10272   2.933   1.535   4.147  0.0330  0.6839 -0.1460
 2555SOL    HW210273   2.855   1.586   4.170 -0.2604  0.2822 -0.2359
 2555SOL    HW310274   2.924   1.454   4.197  0.8295  0.9883  0.5074
 2555SOL    MW410275   2.922   1.531   4.157  0.0992  0.6710 -0.0715
 2556SOL     OW10276   2.498   2.121   4.280 -0.3080  0.1093  0.0401
 2556SOL    HW210277   2.491   2.113   4.375  1.9873  0.9753  0.3129
 2556SOL    HW310278   2.477   2.213   4.262  1.1751  0.4386 -0.0649
 2556SOL    MW410279   2.495   2.132   4.290  0.1905  0.2670  0.0629
 2557SOL     OW10280   3.152   1.936   4.130  0.2042 -0.3514  0.2517
 2557SOL    HW210281   3.154   1.842   4.147 -1.0239 -0.2153  1.2056
 2557SOL    HW310282   3.241   1.966   4.153  0.2735 -1.1004  1.0041
 2557SOL    MW410283   3.164   1.928   4.135  0.0513 -0.4324  0.4768
 2558SOL     OW10284   2.341   1.656   4.903 -0.5294 -0.0962 -0.1058
 2558SOL    HW210285   2.385   1.659   4.987 -1.5205 -1.1323  0.4733
 2558SOL    HW310286   2.361   1.740   4.862  0.4210  0.1894  0.9187
 2558SOL    MW410287   2.349   1.668   4.909 -0.5345 -0.1953  0.1054
 2559SOL     OW10288   2.884   3.041   4.870  0.2469 -0.5770  0.0453
 2559SOL    HW210289   2.937   3.105   4.823 -1.0891  0.6199  0.1672
 2559SOL    HW310290   2.838   2.993   4.802  0.6448 -0.8965 -0.0036
 2559SOL    MW410291   2.885   3.043   4.855  0.1233 -0.4616  0.0553
 2560SOL     OW10292   2.954   2.490   4.094  0.5797  0.2047 -0.1674
 2560SOL    HW210293   2.988   2.435   4.164  1.6054  0.2131 -0.6580
 2560SOL    HW310294   3.006   2.570   4.099 -0.9260  1.1712  0.5690
 2560SOL    MW410295   2.965   2.493   4.104  0.5164  0.3333 -0.1349
 2561SOL     OW10296   2.697   2.574   4.123  0.5131 -0.6682  0.0208
 2561SOL    HW210297   2.784   2.537   4.110  0.0745 -1.7520  0.1398
 2561SOL    HW310298   2.639   2.498   4.127 -0.4685  0.0571 -0.2770
 2561SOL    MW410299   2.701   2.559   4.122  0.3259 -0.7150 -0.0029
 2562SOL     OW10300   2.512   3.102   4.116 -0.4026  0.3525  0.0217
 2562SOL    HW210301   2.584   3.141   4.166  0.3859 -0.7192 -0.2612
 2562SOL    HW310302   2.432   3.133   4.160  0.2383  0.9083  0.8105
 2562SOL    MW410303   2.511   3.111   4.128 -0.2136  0.2844  0.0882
 2563SOL     OW10304   2.934   2.823   4.266 -0.1362 -0.2946  0.2372
 2563SOL    HW210305   2.839   2.829   4.278 -0.1324  0.8657 -0.2139
 2563SOL    HW310306   2.968   2.816   4.355 -0.5794  0.5407  0.4836
 2563SOL    MW410307   2.926   2.823   4.280 -0.1945 -0.0312  0.2103
 2564SOL     OW10308   2.960   3.079   4.155 -0.3175  0.3532 -0.0914
 2564SOL    HW210309   2.965   2.986   4.176  0.0415  0.7656  1.7960
 2564SOL    HW310310   2.951   3.082   4.060 -1.5914 -1.6428 -0.0593
 2564SOL    MW410311   2.960   3.067   4.145 -0.4385  0.1442  0.1616
 2565SOL     OW10312   2.678   3.462   4.135  0.0981 -0.4538 -0.3940
 2565SOL    HW210313   2.677   3.377   4.178 -1.4310 -0.6039 -0.6843
 2565SOL    HW310314   2.599   3.506   4.167  0.9979  0.9593 -0.0576
 2565SOL    MW410315   2.667   3.456   4.145  0.0150 -0.2875 -0.3881
 2566SOL     OW10316   2.893   3.604   4.232  0.1030 -0.1662 -0.4037
 2566SOL    HW210317   2.881   3.582   4.325  0.2606  0.1567 -0.3035
 2566SOL    HW310318   2.829   3.551   4.186 -1.7628  1.5929  0.1231
 2566SOL    MW410319   2.883   3.594   4.238 -0.1223  0.1082 -0.3204
 2567SOL     OW10320   2.901   3.868   4.157  0.6562 -0.2489 -0.4351
 2567SOL    HW210321   2.979   3.905   4.198 -1.7504  0.6067  3.6119
 2567SOL    HW310322   2.890   3.782   4.197 -1.3409  0.2959  0.2646
 2567SOL    MW410323   2.910   3.862   4.168  0.0753 -0.0644  0.1912
 2568SOL     OW10324   2.660   4.002   4.241 -0.6243  0.3199 -0.2688
 2568SOL    HW210325   2.668   4.095   4.220 -1.1460  0.3433 -0.3773
 2568SOL    HW310326   2.742   3.963   4.209 -0.9241  0.5411 -1.3299
 2568SOL    MW410327   2.672   4.009   4.234 -0.7327  0.3529 -0.4234
 2569SOL     OW10328   2.701   4.265   4.155  0.1911 -0.4060  0.1464
 2569SOL    HW210329   2.770   4.327   4.180  0.2324 -0.6930  0.7498
 2569SOL    HW310330   2.701   4.267   4.059  0.6800 -0.0125  0.1507
 2569SOL    MW410331   2.710   4.274   4.146  0.2613 -0.3920  0.2265
 2570SOL     OW10332   0.192   4.549   4.582  0.2105  0.1126 -0.3875
 2570SOL    HW210333   0.192   4.454   4.567  0.1233  0.0524 -0.0094
 2570SOL    HW310334   0.280   4.568   4.614 -0.0885  0.0057  0.5002
 2570SOL    MW410335   0.204   4.539   4.584  0.1596  0.0901 -0.2208
 2571SOL     OW10336   2.848   4.438   4.538 -0.2492  0.5403 -0.2711
 2571SOL    HW210337   2.889   4.378   4.600 -0.7272  0.4166 -0.0744
 2571SOL    HW310338   2.755   4.429   4.554 -0.3642  0.7003 -0.8287
 2571SOL    MW410339   2.841   4.429   4.548 -0.3278  0.5455 -0.3185
 2572SOL     OW10340   3.671   0.185   4.583 -0.1014  0.5561 -0.3153
 2572SOL    HW210341   3.756   0.227   4.592  0.1324 -0.2330  1.2138
 2572SOL    HW310342   3.608   0.253   4.608  0.2120  0.4023  0.9285
 2572SOL    MW410343   3.674   0.200   4.587 -0.0293  0.4317  0.0510
 2573SOL     OW10344   1.124   3.572   4.694 -0.2966 -0.0844  0.2087
 2573SOL    HW210345   1.220   3.572   4.703 -0.3751  0.5219  1.0940
 2573SOL    HW310346   1.104   3.657   4.653 -0.5273  0.1778  0.8599
 2573SOL    MW410347   1.134   3.584   4.690 -0.3376  0.0300  0.4120
 2574SOL     OW10348   3.786   3.629   4.329 -0.2941 -0.1691 -0.6393
 2574SOL    HW210349   3.861   3.581   4.295  0.4195 -0.4345  1.2295
 2574SOL    HW310350   3.791   3.714   4.286  1.1424 -0.1537 -0.4760
 2574SOL    MW410351   3.797   3.634   4.319 -0.0105 -0.2022 -0.3710
 2575SOL     OW10352   2.234   0.165   4.592 -0.3903  0.2307 -0.3981
 2575SOL    HW210353   2.257   0.086   4.642 -0.2580 -0.2495 -1.2172
 2575SOL    HW310354   2.243   0.139   4.501  3.1878  2.2049 -0.6812
 2575SOL    MW410355   2.238   0.151   4.587  0.0994  0.4278 -0.5431
 2576SOL     OW10356   2.637   4.066   4.525 -0.2695 -0.3050 -0.2018
 2576SOL    HW210357   2.580   4.011   4.579 -0.0805  0.0478  0.3676
 2576SOL    HW310358   2.635   4.025   4.439  0.5058 -1.6658  0.4039
 2576SOL    MW410359   2.629   4.053   4.521 -0.1421 -0.4387 -0.0467
 2577SOL     OW10360   3.134   1.182   4.101  0.2322  0.4125  0.5447
 2577SOL    HW210361   3.214   1.213   4.143  0.3042  1.1789 -0.1342
 2577SOL    HW310362   3.157   1.172   4.009 -0.3096  0.1152  0.4355
 2577SOL    MW410363   3.148   1.185   4.094  0.1700  0.4745  0.4411
 2578SOL     OW10364   3.368   1.267   4.207  0.0911 -0.0158  0.0942
 2578SOL    HW210365   3.385   1.252   4.299  1.4676  0.0994 -0.1295
 2578SOL    HW310366   3.377   1.362   4.196  1.2014 -0.1790 -0.4063
 2578SOL    MW410367   3.371   1.278   4.217  0.4194 -0.0221 -0.0014
 2579SOL     OW10368   3.423   1.545   4.133  0.0553 -0.3397  0.4896
 2579SOL    HW210369   3.334   1.579   4.144  0.7091  1.4872  0.2520
 2579SOL    HW310370   3.434   1.538   4.038  1.0074  1.8250  0.3985
 2579SOL    MW410371   3.412   1.549   4.122  0.2668  0.1870  0.4458
 2580SOL     OW10372   0.662   2.522   4.558  0.3725  0.6305 -0.0118
 2580SOL    HW210373   0.572   2.493   4.552  0.2986  0.6975  0.7313
 2580SOL    HW310374   0.658   2.617   4.546  0.4468  0.5218 -0.9045
 2580SOL    MW410375   0.650   2.531   4.556  0.3725  0.6249 -0.0315
 2581SOL     OW10376   3.090   2.501   4.870  0.3922  0.3583 -0.0867
 2581SOL    HW210377   3.002   2.463   4.873  0.7529 -0.3688  1.3291
 2581SOL    HW310378   3.079   2.588   4.910  0.0749  0.7913 -1.0814
 2581SOL    MW410379   3.077   2.508   4.876  0.3977  0.3195 -0.0305
 2582SOL     OW10380   3.383   2.044   4.265  0.1728  0.0038  0.2071
 2582SOL    HW210381   3.382   2.130   4.222  0.6010 -0.3097 -0.4506
 2582SOL    HW310382   3.452   1.996   4.219 -0.9917 -1.1647 -0.3636
 2582SOL    MW410383   3.392   2.049   4.253  0.0756 -0.1917  0.0448
 2583SOL     OW10384   3.316   2.268   4.128 -0.3308 -0.4886 -0.3781
 2583SOL    HW210385   3.228   2.291   4.158 -0.0795  0.4622 -0.3771
 2583SOL    HW310386   3.322   2.303   4.039 -0.0256 -0.7478 -0.4631
 2583SOL    MW410387   3.305   2.276   4.120 -0.2573 -0.3974 -0.3896
 2584SOL     OW10388   3.058   2.318   4.274 -0.3064 -0.2952  0.2369
 2584SOL    HW210389   3.022   2.229   4.277  1.5160 -1.0767 -0.5986
 2584SOL    HW310390   3.113   2.325   4.352  0.3403 -0.2403 -0.2231
 2584SOL    MW410391   3.060   2.307   4.285  0.0196 -0.3912  0.0663
 2585SOL     OW10392   3.135   2.717   4.103 -0.2903 -0.3675  0.2749
 2585SOL    HW210393   3.213   2.731   4.157 -0.5187  1.5191  0.1416
 2585SOL    HW310394   3.066   2.767   4.147 -1.1231 -0.9919 -0.3101
 2585SOL    MW410395   3.136   2.726   4.116 -0.4301 -0.2007  0.1802
 2586SOL     OW10396   3.364   2.809   4.272  0.2746 -0.1843  0.0574
 2586SOL    HW210397   3.444   2.767   4.239 -1.2560 -2.8134 -0.4944
 2586SOL    HW310398   3.370   2.900   4.243  1.3087 -1.2467 -3.2286
 2586SOL    MW410399   3.376   2.815   4.264  0.2089 -0.6714 -0.4492
 2587SOL     OW10400   3.385   3.069   4.178 -0.5963 -0.1815  0.3281
 2587SOL    HW210401   3.311   3.127   4.200 -1.5583 -1.3908  0.3251
 2587SOL    HW310402   3.388   3.070   4.083 -1.9379 -1.7405  0.2438
 2587SOL    MW410403   3.376   3.077   4.168 -0.9000 -0.5467  0.3166
 2588SOL     OW10404   3.161   3.240   4.251 -0.0738  0.5019 -0.2891
 2588SOL    HW210405   3.136   3.325   4.214 -0.3739 -0.1829 -1.7028
 2588SOL    HW310406   3.093   3.180   4.221 -0.1838 -0.1313  1.1975
 2588SOL    MW410407   3.149   3.243   4.242 -0.1278  0.3281 -0.2789
 2589SOL     OW10408   3.135   3.503   4.149 -0.4185  0.0802 -0.5758
 2589SOL    HW210409   3.048   3.542   4.161 -0.3234  0.7224 -1.8593
 2589SOL    HW310410   3.139   3.483   4.055  1.4789  1.6843 -0.8809
 2589SOL    MW410411   3.124   3.506   4.138 -0.1554  0.3767 -0.7854
 2590SOL     OW10412   2.840   3.537   4.487 -0.0878 -0.2695 -0.1229
 2590SOL    HW210413   2.928   3.516   4.520  0.2263 -0.3539 -0.9862
 2590SOL    HW310414   2.782   3.477   4.533  0.3183 -0.2469  0.4216
 2590SOL    MW410415   2.844   3.526   4.497  0.0074 -0.2778 -0.1650
 2591SOL     OW10416   3.329   3.891   4.129  0.4802  0.3081 -0.1638
 2591SOL    HW210417   3.345   3.890   4.034  1.7758 -0.0114  0.0585
 2591SOL    HW310418   3.341   3.800   4.156  1.6462  0.6819  0.5665
 2591SOL    MW410419   3.332   3.879   4.120  0.8051  0.3154 -0.0381
 2592SOL     OW10420   4.161   4.415   4.348 -0.2194 -0.3450 -0.0723
 2592SOL    HW210421   4.208   4.360   4.410 -0.9221 -0.1739  0.6200
 2592SOL    HW310422   4.086   4.448   4.397  0.0120  0.9636 -0.5983
 2592SOL    MW410423   4.157   4.412   4.362 -0.2818 -0.1497 -0.0496
 2593SOL     OW10424   3.170   1.077   4.518  0.4932  0.1391 -0.1051
 2593SOL    HW210425   3.102   1.141   4.537  0.5635  0.1591  0.0847
 2593SOL    HW310426   3.146   1.040   4.433 -0.1222 -0.3282  0.2631
 2593SOL    MW410427   3.158   1.080   4.510  0.4210  0.0800 -0.0315
 2594SOL     OW10428   3.121   4.036   4.228  0.4516  0.3012  0.1377
 2594SOL    HW210429   3.191   3.977   4.199  0.6970  0.7684 -0.2179
 2594SOL    HW310430   3.116   4.023   4.322  1.4040  0.6934  0.2458
 2594SOL    MW410431   3.129   4.026   4.237  0.6096  0.4148  0.1054
 2595SOL     OW10432   3.778   0.003   4.199  0.0500 -0.6519  0.4496
 2595SOL    HW210433   3.712   0.063   4.232  0.7880  0.8009 -0.6368
 2595SOL    HW310434   3.786   0.025   4.106  3.8733  0.9810  1.0753
 2595SOL    MW410435   3.770   0.014   4.191  0.6518 -0.2448  0.3886
 2596SOL     OW10436   3.393   4.630   4.181 -0.1998 -0.0176  0.2155
 2596SOL    HW210437   3.458   4.675   4.235 -1.0030 -0.4276  1.5704
 2596SOL    HW310438   3.404   4.537   4.202 -0.2573 -0.2169 -0.6279
 2596SOL    MW410439   3.403   4.623   4.191 -0.3133 -0.0982  0.2832
 2597SOL     OW10440   3.561   0.421   4.234 -0.2593 -0.6345 -0.3239
 2597SOL    HW210441   3.557   0.423   4.139 -0.6361  0.1652 -0.2986
 2597SOL    HW310442   3.649   0.453   4.255 -0.7030  0.6589 -0.3714
 2597SOL    MW410443   3.572   0.426   4.224 -0.3676 -0.3584 -0.3271
 2598SOL     OW10444   0.012   0.750   4.471 -0.2781  0.1046  0.0493
 2598SOL    HW210445   0.061   0.811   4.525 -0.8273  0.9995 -0.4509
 2598SOL    HW310446  -0.006   0.798   4.390 -0.5307 -0.7885 -0.4329
 2598SOL    MW410447   0.016   0.764   4.468 -0.3839  0.1048 -0.0801
 2599SOL     OW10448   3.840   0.525   4.256  0.1981 -0.2240  0.3804
 2599SOL    HW210449   3.871   0.532   4.346  0.6862  2.3630  0.0510
 2599SOL    HW310450   3.833   0.615   4.226 -1.4311 -0.9922 -1.6921
 2599SOL    MW410451   3.843   0.538   4.264  0.0472  0.0160  0.0639
 2600SOL     OW10452   3.320   0.777   4.137 -0.1291  0.4798  0.0051
 2600SOL    HW210453   3.254   0.834   4.176  0.9553  0.8675  1.3178
 2600SOL    HW310454   3.301   0.691   4.173 -0.1564  0.5185  0.0850
 2600SOL    MW410455   3.309   0.774   4.147  0.0103  0.5361  0.1888
 2601SOL     OW10456   3.601   1.138   4.123 -0.2606 -0.5650 -0.0203
 2601SOL    HW210457   3.521   1.185   4.144  0.1180  0.2910 -0.4470
 2601SOL    HW310458   3.617   1.159   4.031  0.9910  0.0869  0.3363
 2601SOL    MW410459   3.593   1.147   4.113 -0.0458 -0.3662 -0.0300
 2602SOL     OW10460   3.865   1.235   4.179  0.6560 -0.4346 -0.0988
 2602SOL    HW210461   3.775   1.204   4.166 -0.1522  0.8678  2.0444
 2602SOL    HW310462   3.863   1.326   4.150  1.5313 -0.6589 -0.8915
 2602SOL    MW410463   3.853   1.243   4.173  0.6652 -0.2924  0.0792
 2603SOL     OW10464   4.129   0.904   4.514  0.3787  0.1444 -0.2327
 2603SOL    HW210465   4.058   0.869   4.568  0.3961  0.4629  0.0007
 2603SOL    HW310466   4.096   0.899   4.425  0.0341  0.3537 -0.1181
 2603SOL    MW410467   4.116   0.899   4.509  0.3362  0.2141 -0.1864
 2604SOL     OW10468   0.674   2.024   4.504 -0.1406  0.0911 -0.1385
 2604SOL    HW210469   0.750   2.070   4.539  0.8634  0.1918 -2.3834
 2604SOL    HW310470   0.705   1.934   4.492 -0.1441  0.3095 -1.7757
 2604SOL    MW410471   0.688   2.018   4.507 -0.0086  0.1333 -0.6509
 2605SOL     OW10472   3.598   1.888   4.181 -0.1662 -0.3116  0.1234
 2605SOL    HW210473   3.601   1.797   4.210 -1.0824 -0.1376  0.7694
 2605SOL    HW310474   3.621   1.884   4.088 -0.9397 -1.2906 -0.0334
 2605SOL    MW410475   3.601   1.875   4.172 -0.3891 -0.4178  0.1874
 2606SOL     OW10476   3.843   2.007   4.253 -0.2480  0.4525  0.3352
 2606SOL    HW210477   3.854   2.031   4.345  0.8963  1.2474  0.0038
 2606SOL    HW310478   3.758   1.962   4.249 -0.4314  0.6754  1.7204
 2606SOL    MW410479   3.833   2.004   4.264 -0.1211  0.5867  0.4740
 2607SOL     OW10480   3.774   2.255   4.143  0.0887  0.0545 -0.4355
 2607SOL    HW210481   3.810   2.176   4.183 -1.9841 -0.4364  0.5175
 2607SOL    HW310482   3.801   2.249   4.051  0.2505 -1.5894 -0.3029
 2607SOL    MW410483   3.782   2.244   4.136 -0.1633 -0.2272 -0.2918
 2608SOL     OW10484   3.537   2.444   4.186 -0.5095 -0.6099 -0.3304
 2608SOL    HW210485   3.616   2.393   4.167 -0.2826 -0.7005  0.7951
 2608SOL    HW310486   3.465   2.383   4.172 -0.4784 -0.1248 -2.7387
 2608SOL    MW410487   3.538   2.429   4.182 -0.4754 -0.5579 -0.4997
 2609SOL     OW10488   3.590   2.711   4.131 -0.3662  0.4747  0.2324
 2609SOL    HW210489   3.556   2.622   4.131  0.4102  0.1756  0.2354
 2609SOL    HW310490   3.598   2.734   4.038  1.6197 -0.3133  0.1769
 2609SOL    MW410491   3.587   2.702   4.118 -0.0014  0.3312  0.2255
 2610SOL     OW10492   3.836   2.816   4.235  0.0440  0.6879 -0.3240
 2610SOL    HW210493   3.830   2.815   4.330 -0.1765  1.6659 -0.3191
 2610SOL    HW310494   3.754   2.775   4.206  0.2123  0.1817 -0.1017
 2610SOL    MW410495   3.824   2.810   4.244  0.0370  0.7503 -0.2942
 2611SOL     OW10496   3.830   3.106   4.180  0.1875 -0.1126 -0.2607
 2611SOL    HW210497   3.837   3.013   4.203  0.4433 -0.1044 -0.3128
 2611SOL    HW310498   3.812   3.106   4.086  0.8389 -0.0862 -0.3836
 2611SOL    MW410499   3.829   3.094   4.171  0.3068 -0.1078 -0.2842
 2612SOL     OW10500   3.585   3.245   4.219 -0.2047  0.3946 -0.2356
 2612SOL    HW210501   3.510   3.188   4.201  0.9637 -0.2912 -3.2040
 2612SOL    HW310502   3.661   3.190   4.201  0.9844  2.1069 -0.5345
 2612SOL    MW410503   3.585   3.230   4.214  0.1063  0.5302 -0.6666
 2613SOL     OW10504   4.450   2.943   4.629 -0.1029  0.2319  0.3771
 2613SOL    HW210505   4.540   2.910   4.631  0.0256  0.6231  1.2674
 2613SOL    HW310506   4.459   3.036   4.608 -0.1440  0.7673  2.6099
 2613SOL    MW410507   4.463   2.950   4.626 -0.0911  0.3541  0.7892
 2614SOL     OW10508   3.581   3.507   4.176 -0.7024  0.6590  0.2286
 2614SOL    HW210509   3.658   3.543   4.219 -1.4065  0.6285  1.5680
 2614SOL    HW310510   3.577   3.416   4.206 -0.0488  0.0159 -1.5597
 2614SOL    MW410511   3.590   3.500   4.186 -0.7086  0.5701  0.1693
 2615SOL     OW10512   3.750   3.866   4.191 -0.0934  0.3599  0.0548
 2615SOL    HW210513   3.673   3.922   4.194  1.4332  2.4303  1.5865
 2615SOL    HW310514   3.823   3.923   4.216  2.0010 -1.4819 -1.6307
 2615SOL    MW410515   3.749   3.881   4.195  0.3843  0.3901  0.0343
 2616SOL     OW10516   0.496   0.083   4.243  0.0223 -0.0502 -0.3111
 2616SOL    HW210517   0.492   0.168   4.198 -0.0862 -0.2286 -0.6378
 2616SOL    HW310518   0.517   0.105   4.334  1.2046  0.2643 -0.6434
 2616SOL    MW410519   0.499   0.097   4.249  0.1639 -0.0322 -0.3982
 2617SOL     OW10520   3.384   4.355   4.319  0.0908 -0.1207  0.2512
 2617SOL    HW210521   3.439   4.315   4.252  0.9764  0.1150  0.8220
 2617SOL    HW310522   3.365   4.283   4.380 -0.4948 -0.2721 -0.1020
 2617SOL    MW410523   3.389   4.340   4.318  0.1304 -0.1092  0.2804
 2618SOL     OW10524   3.803   4.397   4.216  0.0183  0.1884  0.3083
 2618SOL    HW210525   3.889   4.368   4.185  0.0054  0.2962  0.1666
 2618SOL    HW310526   3.809   4.493   4.215  0.4067  0.1804  1.7619
 2618SOL    MW410527   3.815   4.406   4.211  0.0679  0.2017  0.4811
 2619SOL     OW10528   4.315   4.511   4.134  0.6050  0.3394 -0.3910
 2619SOL    HW210529   4.271   4.485   4.215  0.9474  0.2341 -0.2415
 2619SOL    HW310530   4.379   4.576   4.161  0.9597  0.0490 -0.5297
 2619SOL    MW410531   4.318   4.516   4.148  0.6971  0.2871 -0.3896
 2620SOL     OW10532   4.066   0.361   4.126 -0.1208  0.0660 -0.0400
 2620SOL    HW210533   4.141   0.407   4.165  0.0085 -0.0714 -0.1254
 2620SOL    HW310534   3.990   0.407   4.160 -0.0685 -0.9385  1.5136
 2620SOL    MW410535   4.066   0.373   4.136 -0.0963 -0.0846  0.1535
 2621SOL     OW10536   4.265   0.489   4.248 -0.6452  0.1014 -0.4863
 2621SOL    HW210537   4.354   0.454   4.241 -0.3251  0.1616  2.5486
 2621SOL    HW310538   4.271   0.578   4.212  0.2562 -0.2672 -1.2713
 2621SOL    MW410539   4.277   0.496   4.242 -0.4835  0.0607 -0.1898
 2622SOL     OW10540   0.680   2.793   4.524  0.8125 -0.3670  0.0226
 2622SOL    HW210541   0.604   2.845   4.552 -0.1684 -1.2753 -0.8891
 2622SOL    HW310542   0.695   2.819   4.433  2.9852  1.4044  0.8523
 2622SOL    MW410543   0.672   2.803   4.515  0.9697 -0.2532  0.0114
 2623SOL     OW10544   4.251   0.729   4.121  0.5320  0.0300 -0.0645
 2623SOL    HW210545   4.158   0.746   4.138  0.3833  0.4532 -1.2537
 2623SOL    HW310546   4.265   0.760   4.032  1.6461 -0.7456 -0.1670
 2623SOL    MW410547   4.241   0.736   4.112  0.6590 -0.0165 -0.2351
 2624SOL     OW10548   4.045   0.873   4.260 -0.0675 -0.7216 -0.2413
 2624SOL    HW210549   4.074   0.942   4.201 -0.4404 -0.7299 -0.4350
 2624SOL    HW310550   3.966   0.837   4.219 -1.1967  0.2806  1.0114
 2624SOL    MW410551   4.039   0.877   4.247 -0.2656 -0.5905 -0.1016
 2625SOL     OW10552   4.080   1.094   4.094  0.4194  0.1867 -0.3598
 2625SOL    HW210553   4.149   1.127   4.152  0.0256 -0.2267  0.3451
 2625SOL    HW310554   4.001   1.138   4.123 -0.2260 -1.8457  1.0034
 2625SOL    MW410555   4.079   1.104   4.105  0.2823 -0.1361 -0.0868
 2626SOL     OW10556   4.265   1.224   4.262 -0.0506  0.0159 -0.0259
 2626SOL    HW210557   4.352   1.184   4.267  0.1765  0.7049  1.9724
 2626SOL    HW310558   4.278   1.302   4.207  0.2912 -0.6249 -0.8661
 2626SOL    MW410559   4.278   1.229   4.255  0.0243  0.0222  0.1264
 2627SOL     OW10560   4.299   1.490   4.154  0.0099 -0.2144  0.1251
 2627SOL    HW210561   4.380   1.529   4.187 -0.1548  0.0788  0.1793
 2627SOL    HW310562   4.300   1.509   4.060  0.1954 -0.5493  0.0589
 2627SOL    MW410563   4.310   1.498   4.146  0.0129 -0.2198  0.1230
 2628SOL     OW10564   3.722   2.311   4.590 -0.4942  0.5581  0.0610
 2628SOL    HW210565   3.655   2.333   4.526 -0.5098  0.9921  0.2288
 2628SOL    HW310566   3.794   2.372   4.572 -0.2004  0.1964 -0.0203
 2628SOL    MW410567   3.723   2.322   4.579 -0.4573  0.5677  0.0730
 2629SOL     OW10568   4.262   2.028   4.283 -0.2524  0.2144  0.2349
 2629SOL    HW210569   4.179   2.008   4.239  0.0486 -0.6218  0.0487
 2629SOL    HW310570   4.278   2.120   4.264 -0.3595 -0.0283 -1.0190
 2629SOL    MW410571   4.253   2.038   4.275 -0.2270  0.0722  0.0443
 2630SOL     OW10572   4.476   1.942   4.135 -0.2964 -0.2696 -0.0970
 2630SOL    HW210573   4.394   1.962   4.180 -0.0442 -2.5851  1.4719
 2630SOL    HW310574   4.537   2.009   4.165 -0.8319 -0.2853  1.0595
 2630SOL    MW410575   4.473   1.953   4.145 -0.3337 -0.5772  0.2623
 2631SOL     OW10576   4.253   2.314   4.156  0.3498  0.3723 -0.1702
 2631SOL    HW210577   4.319   2.365   4.204 -1.2202  1.8649  0.4660
 2631SOL    HW310578   4.169   2.345   4.191 -0.7087 -1.2876 -1.1648
 2631SOL    MW410579   4.250   2.325   4.167  0.0033  0.3500 -0.2174
 2632SOL     OW10580   0.616   0.499   4.518 -0.4435 -0.0738  0.1518
 2632SOL    HW210581   0.535   0.549   4.525 -0.1546  0.4286 -0.0605
 2632SOL    HW310582   0.685   0.562   4.540  0.0567  0.0718 -1.6962
 2632SOL    MW410583   0.614   0.514   4.522 -0.3394  0.0117 -0.1197
 2633SOL     OW10584   4.049   2.660   4.155 -0.1845 -0.0885  0.7804
 2633SOL    HW210585   4.037   2.569   4.182 -1.3521 -0.7203 -1.7504
 2633SOL    HW310586   3.973   2.706   4.189 -1.2299 -0.7151 -0.6750
 2633SOL    MW410587   4.038   2.654   4.163 -0.4764 -0.2544  0.2542
 2634SOL     OW10588   3.783   4.070   4.584 -0.3685 -0.8216  0.0135
 2634SOL    HW210589   3.868   4.044   4.549 -0.6089 -1.5376 -0.0478
 2634SOL    HW310590   3.764   4.153   4.540  0.5763 -0.3444  0.4902
 2634SOL    MW410591   3.792   4.078   4.573 -0.2756 -0.8535  0.0687
 2635SOL     OW10592   4.244   2.836   4.255 -0.1345  0.4231  0.7237
 2635SOL    HW210593   4.230   2.815   4.347  2.2408 -2.3762  0.5117
 2635SOL    HW310594   4.183   2.779   4.208  1.2105 -0.8359  0.4540
 2635SOL    MW410595   4.234   2.825   4.261  0.3562 -0.1123  0.6604
 2636SOL     OW10596   4.258   3.123   4.144 -0.3627  0.0368  0.4558
 2636SOL    HW210597   4.242   3.034   4.175 -0.4566  0.1537  0.7503
 2636SOL    HW310598   4.258   3.117   4.049 -1.1589 -0.1365  0.4687
 2636SOL    MW410599   4.256   3.111   4.136 -0.4802  0.0291  0.4964
 2637SOL     OW10600   3.977   3.478   4.207  0.4011 -0.0490  0.2868
 2637SOL    HW210601   4.005   3.391   4.234  0.9876 -0.1131 -0.5319
 2637SOL    HW310602   3.993   3.481   4.113  0.2445  0.8897  0.2842
 2637SOL    MW410603   3.983   3.467   4.198  0.4578  0.0665  0.1788
 2638SOL     OW10604   4.227   3.615   4.266  0.1517 -0.0920  0.1790
 2638SOL    HW210605   4.193   3.662   4.342 -0.6206 -0.1567 -0.1189
 2638SOL    HW310606   4.152   3.565   4.233  0.6947 -0.7072 -0.1349
 2638SOL    MW410607   4.212   3.615   4.271  0.1216 -0.1817  0.0987
 2639SOL     OW10608   3.685   4.579   4.578 -0.2668 -0.0465 -0.2137
 2639SOL    HW210609   3.694   4.674   4.584 -0.9887  0.0682 -0.8885
 2639SOL    HW310610   3.591   4.563   4.586 -0.1354 -0.7130  0.0132
 2639SOL    MW410611   3.674   4.589   4.580 -0.3448 -0.1192 -0.2728
 2640SOL     OW10612   4.032   4.006   4.206  0.6565  0.0540  0.3877
 2640SOL    HW210613   4.113   3.959   4.185 -0.7108 -2.3587  0.3522
 2640SOL    HW310614   4.042   4.030   4.298  2.2720  1.6067 -0.1639
 2640SOL    MW410615   4.044   4.003   4.216  0.6890 -0.0591  0.3104
 2641SOL     OW10616   4.036   4.290   4.132  0.0145  0.1445 -0.7714
 2641SOL    HW210617   4.094   4.321   4.202  1.1995 -0.4343 -1.4852
 2641SOL    HW310618   4.037   4.195   4.140 -0.3891  0.1066 -1.1493
 2641SOL    MW410619   4.044   4.282   4.142  0.1173  0.0629 -0.9151
 2642SOL     OW10620   2.105   3.687   4.517  0.2727 -0.5084 -0.1376
 2642SOL    HW210621   2.044   3.646   4.578 -1.0969  0.1293 -1.0478
 2642SOL    HW310622   2.112   3.777   4.546 -1.5012  0.1828 -1.7066
 2642SOL    MW410623   2.098   3.693   4.529 -0.1419 -0.3331 -0.4644
 2643SOL     OW10624   2.343   4.047   4.719  0.3082  0.2571 -0.1640
 2643SOL    HW210625   2.268   4.009   4.673 -0.3395 -0.0603  1.1344
 2643SOL    HW310626   2.400   3.972   4.738  1.6675  0.6598 -2.3595
 2643SOL    MW410627   2.341   4.032   4.715  0.4022  0.2685 -0.2828
 2644SOL     OW10628   4.249   3.875   4.149  0.0646  0.0448  0.7932
 2644SOL    HW210629   4.241   3.785   4.180 -0.1055  0.5418  2.2562
 2644SOL    HW310630   4.252   3.868   4.054 -0.9542 -1.4368  0.8535
 2644SOL    MW410631   4.248   3.862   4.140 -0.0925 -0.0851  0.9942
 2645SOL     OW10632   4.299   1.902   4.533 -0.1743 -0.8186 -0.0334
 2645SOL    HW210633   4.281   1.939   4.447 -0.3812  0.7816  0.6730
 2645SOL    HW310634   4.234   1.833   4.545 -0.7521 -0.3931 -0.7409
 2645SOL    MW410635   4.288   1.898   4.524 -0.2775 -0.5513 -0.0339
 2646SOL     OW10636   1.132   1.238   4.564 -0.4449 -0.4726  0.0938
 2646SOL    HW210637   1.191   1.163   4.562 -0.2125 -0.3464  1.5292
 2646SOL    HW310638   1.045   1.200   4.573 -0.5252 -0.6343 -1.3103
 2646SOL    MW410639   1.128   1.223   4.565 -0.4249 -0.4773  0.0987
 2647SOL     OW10640   1.330   0.710   4.651  0.4415  0.3468  0.3117
 2647SOL    HW210641   1.248   0.662   4.638  1.4051 -0.8300 -1.6125
 2647SOL    HW310642   1.307   0.801   4.633 -0.5589  0.1094  0.3243
 2647SOL    MW410643   1.316   0.716   4.647  0.4365  0.1603  0.0596
 2648SOL     OW10644   0.881   2.358   4.527  0.1605  0.1329  0.1763
 2648SOL    HW210645   0.801   2.409   4.543 -0.0057 -0.1869  0.3967
 2648SOL    HW310646   0.902   2.372   4.435 -0.6547 -0.4801 -0.1128
 2648SOL    MW410647   0.873   2.366   4.517  0.0311  0.0095  0.1674
 2649SOL     OW10648   1.904   4.605   4.620 -0.1429  0.1647  0.0202
 2649SOL    HW210649   1.815   4.576   4.639 -0.3613  1.7047  1.4227
 2649SOL    HW310650   1.949   4.603   4.705  1.0252 -0.1296 -0.5914
 2649SOL    MW410651   1.898   4.601   4.634 -0.0176  0.3290  0.1245
 2650SOL     OW10652   1.940   2.101   4.948 -0.1468  0.2654  0.3091
 2650SOL    HW210653   2.032   2.120   4.963 -0.2616  0.2634  1.0205
 2650SOL    HW310654   1.940   2.012   4.911  0.2284  0.7931 -0.9916
 2650SOL    MW410655   1.952   2.092   4.945 -0.1124  0.3347  0.2308
 2651SOL     OW10656   1.558   2.073   4.259  0.0151  0.3520 -0.6741
 2651SOL    HW210657   1.641   2.035   4.229 -0.3949 -0.3395 -0.9535
 2651SOL    HW310658   1.556   2.160   4.220  0.7655  0.4926 -0.3960
 2651SOL    MW410659   1.568   2.079   4.250  0.0601  0.2792 -0.6747
 2652SOL     OW10660   4.118   2.213   4.564  0.2886  0.0763  0.2639
 2652SOL    HW210661   4.200   2.163   4.557  0.6149  0.8881 -2.1011
 2652SOL    HW310662   4.146   2.304   4.563 -0.6699  0.3678 -1.0856
 2652SOL    MW410663   4.133   2.218   4.563  0.2050  0.2217 -0.2260
 2653SOL     OW10664   1.471   4.085   4.557 -0.3039 -0.3081  0.2452
 2653SOL    HW210665   1.550   4.043   4.523 -0.8020  0.1445 -1.4923
 2653SOL    HW310666   1.417   4.012   4.588 -0.1982 -0.7804 -0.6711
 2653SOL    MW410667   1.474   4.070   4.557 -0.3556 -0.3104 -0.1054
 2654SOL     OW10668   0.476   1.731   4.179  0.0826 -0.5480  0.0324
 2654SOL    HW210669   0.402   1.673   4.159  0.2118 -1.1553  1.2851
 2654SOL    HW310670   0.554   1.677   4.164  0.2190 -0.4980  0.5514
 2654SOL    MW410671   0.476   1.716   4.174  0.1176 -0.6213  0.2661
 2655SOL     OW10672   0.248   1.537   4.556  0.0407 -0.3446  0.1068
 2655SOL    HW210673   0.171   1.592   4.569  0.1279 -0.2694  0.3148
 2655SOL    HW310674   0.316   1.597   4.528  0.0551 -0.3916  0.0417
 2655SOL    MW410675   0.247   1.552   4.554  0.0541 -0.3409  0.1254
 2656SOL     OW10676   3.579   0.876   4.678 -0.6338  0.0166  0.1641
 2656SOL    HW210677   3.592   0.806   4.614 -1.3187  0.5299 -0.5487
 2656SOL    HW310678   3.530   0.835   4.749 -0.7978 -0.2936 -0.1266
 2656SOL    MW410679   3.574   0.861   4.679 -0.7460  0.0433  0.0324
 2657SOL     OW10680   1.661   4.191   4.753  0.2712 -0.0537  0.5280
 2657SOL    HW210681   1.646   4.285   4.763  2.7126  0.5269 -0.9252
 2657SOL    HW310682   1.584   4.159   4.706 -0.4322  1.2606  0.7728
 2657SOL    MW410683   1.648   4.199   4.748  0.5006  0.1965  0.3681
 2658SOL     OW10684   0.262   1.326   4.253  0.0499 -0.6066 -0.3870
 2658SOL    HW210685   0.308   1.328   4.337 -0.7038 -0.3583  0.0251
 2658SOL    HW310686   0.194   1.260   4.264  0.5940 -1.2922 -1.1467
 2658SOL    MW410687   0.259   1.318   4.265  0.0223 -0.6644 -0.4330
 2659SOL     OW10688   3.858   1.512   4.147  0.4303  0.2844 -0.1926
 2659SOL    HW210689   3.932   1.559   4.184  0.0083 -0.5094  1.7470
 2659SOL    HW310690   3.784   1.537   4.202 -0.7033  0.8568 -1.9382
 2659SOL    MW410691   3.858   1.521   4.159  0.2248  0.2552 -0.1669
 2660SOL     OW10692   4.490   2.748   4.176  0.3236 -0.1002  0.4704
 2660SOL    HW210693   4.405   2.787   4.194  0.1140 -0.2847 -0.1068
 2660SOL    HW310694   4.553   2.805   4.220 -0.1006 -0.0300  1.0022
 2660SOL    MW410695   4.487   2.760   4.185  0.2403 -0.1154  0.4644
 2661SOL     OW10696   4.457   0.325   4.592 -0.2628 -0.0433  0.1240
 2661SOL    HW210697   4.448   0.231   4.580  0.2831 -0.1727  0.6894
 2661SOL    HW310698   4.369   0.360   4.580 -0.6214 -0.7246  0.7571
 2661SOL    MW410699   4.444   0.317   4.589 -0.2384 -0.1503  0.2818
 2662SOL     OW10700   2.320   4.331   4.614  0.8905 -0.2760 -0.1397
 2662SOL    HW210701   2.342   4.245   4.648  1.7142  0.3795  0.9926
 2662SOL    HW310702   2.225   4.328   4.601  0.7564 -0.9872  0.9564
 2662SOL    MW410703   2.310   4.320   4.617  0.9813 -0.2837  0.1545
 2663SOL     OW10704   2.021   1.198   4.505  0.0454  0.0095  0.4898
 2663SOL    HW210705   1.946   1.141   4.523 -0.8069  0.8937 -0.1948
 2663SOL    HW310706   2.097   1.141   4.511 -0.5878 -0.6862  2.2874
 2663SOL    MW410707   2.021   1.183   4.508 -0.1504  0.0345  0.6366
 2664SOL     OW10708   2.252   0.567   4.608 -0.2467 -0.1358  0.5963
 2664SOL    HW210709   2.307   0.556   4.530 -0.5422 -1.7097  0.5873
 2664SOL    HW310710   2.180   0.505   4.595 -1.2899  0.9452  1.2478
 2664SOL    MW410711   2.250   0.557   4.596 -0.4232 -0.2009  0.6809
 2665SOL     OW10712   0.869   1.111   4.524 -0.0029  0.3010  0.0253
 2665SOL    HW210713   0.775   1.125   4.538  0.0343 -1.1884  1.8088
 2665SOL    HW310714   0.874   1.031   4.473  0.3175  0.3366  0.0003
 2665SOL    MW410715   0.857   1.102   4.519  0.0443  0.1092  0.2575
 2666SOL     OW10716   4.186   3.758   4.512  0.2471  0.3731 -0.1552
 2666SOL    HW210717   4.149   3.691   4.570 -1.0773  1.2715  0.0711
 2666SOL    HW310718   4.273   3.776   4.547  0.9203 -1.7614 -0.6622
 2666SOL    MW410719   4.192   3.752   4.524  0.1616  0.2100 -0.1917
 2667SOL     OW10720   0.073   1.210   4.587 -0.3622  0.5816  0.2535
 2667SOL    HW210721   0.096   1.295   4.623 -1.2305  1.4981 -1.3219
 2667SOL    HW310722  -0.022   1.209   4.586 -0.3524 -0.0289 -0.6137
 2667SOL    MW410723   0.064   1.221   4.592 -0.4755  0.6220 -0.0687
 2668SOL     OW10724   3.550   4.037   4.253 -0.0370 -0.1672  0.1129
 2668SOL    HW210725   3.548   4.013   4.346 -1.2764 -0.1990  0.0869
 2668SOL    HW310726   3.473   3.994   4.215  0.0037  0.5029 -0.7555
 2668SOL    MW410727   3.539   4.028   4.261 -0.1950 -0.0825 -0.0048
 2669SOL     OW10728   2.469   4.661   4.154  0.0313 -0.5041  0.0319
 2669SOL    HW210729   2.473   4.575   4.197 -0.9567  0.6898  2.6296
 2669SOL    HW310730   2.541   4.710   4.192 -0.7909  0.5437  0.2608
 2669SOL    MW410731   2.479   4.656   4.165 -0.2077 -0.2084  0.4048
 2670SOL     OW10732   3.593   0.635   4.541  0.2407  0.1141  0.1115
 2670SOL    HW210733   3.573   0.655   4.449 -0.5677  0.7236  0.4152
 2670SOL    HW310734   3.681   0.599   4.539 -0.0086 -0.4660 -0.9889
 2670SOL    MW410735   3.602   0.633   4.528  0.1011  0.1180  0.0062
 2671SOL     OW10736   1.920   3.562   4.699 -0.0210 -0.1808  0.0736
 2671SOL    HW210737   1.924   3.471   4.670 -0.8778 -0.3137  0.3444
 2671SOL    HW310738   1.965   3.562   4.784  1.0496 -0.1095 -0.4879
 2671SOL    MW410739   1.927   3.550   4.707  0.0070 -0.1888  0.0353
 2672SOL     OW10740   1.023   1.887   4.546  0.1516 -0.0138  0.2664
 2672SOL    HW210741   0.943   1.836   4.537  0.1970  0.0578 -0.5628
 2672SOL    HW310742   0.996   1.967   4.590 -0.4220  0.4630 -0.9376
 2672SOL    MW410743   1.009   1.891   4.551  0.0819  0.0585 -0.0019
 2673SOL     OW10744   0.762   4.411   4.505  0.2933  0.5368  0.1853
 2673SOL    HW210745   0.853   4.438   4.514  0.3184  0.0259  1.6329
 2673SOL    HW310746   0.748   4.405   4.411  2.4624 -1.7403 -0.0404
 2673SOL    MW410747   0.772   4.414   4.494  0.5829  0.1688  0.3462
 2674SOL     OW10748   4.209   0.419   4.523  0.3212 -0.9232  0.2757
 2674SOL    HW210749   4.223   0.503   4.567  1.8798 -1.3677  0.6413
 2674SOL    HW310750   4.230   0.436   4.431 -0.9817 -0.5056  0.0426
 2674SOL    MW410751   4.213   0.433   4.517  0.3552 -0.9268  0.2937
 2675SOL     OW10752   1.294   0.166   4.507 -0.2637 -0.3031 -0.0837
 2675SOL    HW210753   1.293   0.075   4.537 -1.7608  0.0981  1.1634
 2675SOL    HW310754   1.381   0.199   4.532  0.5635 -1.5715 -1.1939
 2675SOL    MW410755   1.306   0.158   4.514 -0.3520 -0.4176 -0.0658
 2676SOL     OW10756   1.454   2.478   4.515 -0.2277  0.5218  0.0859
 2676SOL    HW210757   1.425   2.474   4.424 -0.2231  0.4826  0.0857
 2676SOL    HW310758   1.453   2.387   4.544  0.5832  0.4312 -0.1388
 2676SOL    MW410759   1.450   2.465   4.507 -0.1200  0.5047  0.0563
 2677SOL     OW10760   4.434   0.048   4.527  0.2691 -0.6030  0.4840
 2677SOL    HW210761   4.518   0.005   4.547  0.7801 -0.6322 -1.6270
 2677SOL    HW310762   4.368  -0.012   4.561  1.0387 -2.1413 -0.6731
 2677SOL    MW410763   4.437   0.034   4.534  0.4377 -0.8100  0.0529
 2678SOL     OW10764   1.049   0.281   4.563 -0.0841  0.3637 -0.2848
 2678SOL    HW210765   0.987   0.208   4.558 -1.1226  1.2782 -0.7981
 2678SOL    HW310766   1.133   0.243   4.537 -0.7033 -0.5517 -0.9738
 2678SOL    MW410767   1.052   0.266   4.559 -0.3029  0.3636 -0.4435
 2679SOL     OW10768   3.559   3.255   4.494 -0.1935  0.5449 -0.1719
 2679SOL    HW210769   3.577   3.220   4.407  0.2003 -0.9200  0.4885
 2679SOL    HW310770   3.464   3.247   4.504 -0.2461  0.7690 -0.4827
 2679SOL    MW410771   3.549   3.250   4.484 -0.1485  0.3812 -0.1254
 2680SOL     OW10772   3.540   3.973   4.526 -0.4452  0.1648 -0.5281
 2680SOL    HW210773   3.627   3.990   4.561 -0.8627  0.5256  0.3401
 2680SOL    HW310774   3.518   3.885   4.557 -0.9094  0.5752  0.3199
 2680SOL    MW410775   3.549   3.963   4.535 -0.5612  0.2666 -0.3023
 2681SOL     OW10776   3.328   4.141   4.504  0.3222  0.2819  0.0401
 2681SOL    HW210777   3.407   4.090   4.523 -0.2896 -0.2712  1.0990
 2681SOL    HW310778   3.257   4.078   4.503 -0.1754  0.8337 -0.5700
 2681SOL    MW410779   3.329   4.126   4.506  0.1760  0.2818  0.0992
 2682SOL     OW10780   0.456   3.991   4.295 -0.0332 -0.3809 -0.3478
 2682SOL    HW210781   0.380   3.950   4.254 -1.0362  0.4570  0.6473
 2682SOL    HW310782   0.460   4.079   4.257  0.2982 -0.3426 -0.2280
 2682SOL    MW410783   0.446   3.997   4.284 -0.1218 -0.2651 -0.2007
 2683SOL     OW10784   0.006   4.014   4.221 -0.4342 -0.6117 -0.0232
 2683SOL    HW210785  -0.070   3.967   4.186 -1.8382  1.0597  0.7450
 2683SOL    HW310786  -0.003   4.103   4.187 -0.2310  0.2672  2.1829
 2683SOL    MW410787  -0.005   4.019   4.212 -0.5926 -0.2756  0.3695
 2684SOL     OW10788   1.448   2.865   4.772 -0.0561 -0.0773  0.0935
 2684SOL    HW210789   1.378   2.917   4.810  0.3012  0.1021  0.5218
 2684SOL    HW310790   1.404   2.793   4.727 -0.5737  0.8224 -0.8624
 2684SOL    MW410791   1.433   2.863   4.771 -0.0771  0.0651  0.0238
 2685SOL     OW10792   3.589   1.764   4.523  0.2041  0.5108 -0.0157
 2685SOL    HW210793   3.610   1.717   4.442  0.3567 -0.3547  0.5224
 2685SOL    HW310794   3.528   1.833   4.496  0.6209  0.5236 -0.9418
 2685SOL    MW410795   3.584   1.767   4.509  0.2794  0.3982 -0.0663
 2686SOL     OW10796   4.139   3.526   4.650  0.0782 -0.1563 -0.1763
 2686SOL    HW210797   4.167   3.458   4.589  0.0797  0.2832 -0.6702
 2686SOL    HW310798   4.053   3.497   4.681  1.2236 -1.6908  1.6295
 2686SOL    MW410799   4.132   3.513   4.646  0.2298 -0.3006 -0.0029
 2687SOL     OW10800   2.386   3.383   4.904  0.0109 -0.1029  0.0949
 2687SOL    HW210801   2.417   3.312   4.959 -0.4112 -0.5912 -0.2951
 2687SOL    HW310802   2.447   3.455   4.921  1.0633 -0.8874 -0.2910
 2687SOL    MW410803   2.398   3.383   4.913  0.0939 -0.2708 -0.0072
 2688SOL     OW10804   0.202   4.255   4.541 -0.6462 -0.2411 -0.0381
 2688SOL    HW210805   0.132   4.192   4.523 -0.0554 -0.1768 -2.7182
 2688SOL    HW310806   0.270   4.204   4.583 -2.2038 -0.3355  2.4698
 2688SOL    MW410807   0.202   4.240   4.544 -0.7738 -0.2446 -0.0606
 2689SOL     OW10808   1.319   3.869   4.582  0.3241 -0.0323 -0.3975
 2689SOL    HW210809   1.355   3.783   4.604 -2.6321 -1.2896 -0.2245
 2689SOL    HW310810   1.231   3.850   4.548  0.2007  2.8142 -1.8134
 2689SOL    MW410811   1.312   3.855   4.580 -0.0821  0.1774 -0.5612
 2690SOL     OW10812   0.458   1.680   4.467 -0.3868  0.4026 -0.4391
 2690SOL    HW210813   0.458   1.681   4.371 -0.1329  0.5234 -0.4368
 2690SOL    HW310814   0.521   1.612   4.491 -0.9257 -0.0683 -0.3649
 2690SOL    MW410815   0.466   1.671   4.458 -0.4244  0.3564 -0.4292
 2691SOL     OW10816   4.089   1.343   4.469  0.0271  0.7184 -0.5829
 2691SOL    HW210817   4.009   1.290   4.474 -0.6201  1.8746  1.7603
 2691SOL    HW310818   4.136   1.307   4.394 -1.4051 -1.7869 -0.3482
 2691SOL    MW410819   4.085   1.331   4.460 -0.2470  0.5404 -0.2427
 2692SOL     OW10820   0.911   3.277   4.528 -0.0231 -0.3396 -0.5458
 2692SOL    HW210821   0.871   3.198   4.564  0.6299 -0.4011  0.0640
 2692SOL    HW310822   0.871   3.349   4.577 -0.7592 -0.2849 -1.2363
 2692SOL    MW410823   0.901   3.276   4.540 -0.0341 -0.3405 -0.5565
 2693SOL     OW10824   2.915   0.395   4.516 -0.1226 -0.0474  0.1358
 2693SOL    HW210825   2.863   0.315   4.517  1.3973 -1.0555  0.0391
 2693SOL    HW310826   2.891   0.441   4.597 -0.7738 -0.7367  0.3358
 2693SOL    MW410827   2.905   0.391   4.527 -0.0079 -0.2714  0.1493
 2694SOL     OW10828   1.920   1.839   4.832  0.2090 -0.0053 -0.3544
 2694SOL    HW210829   2.008   1.830   4.797  0.1715  0.5002 -0.5789
 2694SOL    HW310830   1.863   1.812   4.760  0.1509  0.4935 -0.4934
 2694SOL    MW410831   1.924   1.834   4.818  0.1963  0.1271 -0.4020
 2695SOL     OW10832   1.566   4.395   4.298  0.4240 -0.5115  0.0678
 2695SOL    HW210833   1.633   4.355   4.243 -0.1045 -1.2131 -0.0742
 2695SOL    HW310834   1.555   4.483   4.262  0.3128 -0.8509 -0.7569
 2695SOL    MW410835   1.574   4.401   4.286  0.3395 -0.6485 -0.0601
 2696SOL     OW10836   3.242   2.248   4.760  0.2173  0.2468  0.0254
 2696SOL    HW210837   3.205   2.327   4.799 -0.0646  0.0162  0.2301
 2696SOL    HW310838   3.309   2.221   4.822 -0.8146 -0.6013  0.7932
 2696SOL    MW410839   3.246   2.255   4.774  0.0439  0.1044  0.1545
 2697SOL     OW10840   1.539   0.551   4.534  0.2220  0.1942  0.2322
 2697SOL    HW210841   1.623   0.572   4.575 -0.5155  0.1674  1.7870
 2697SOL    HW310842   1.475   0.604   4.582 -0.9565 -1.5218  0.6050
 2697SOL    MW410843   1.541   0.561   4.546 -0.0309 -0.0356  0.4869
 2698SOL     OW10844   4.141   0.805   4.837 -0.0473 -0.2211 -0.0593
 2698SOL    HW210845   4.174   0.892   4.816  0.4002 -0.2535  0.4934
 2698SOL    HW310846   4.193   0.745   4.783  0.7545 -0.2653  0.7435
 2698SOL    MW410847   4.152   0.808   4.827  0.1173 -0.2312  0.1197
 2699SOL     OW10848   0.776   1.766   4.465 -0.1710 -0.0776  0.0187
 2699SOL    HW210849   0.702   1.711   4.490  1.2372 -1.6116  0.9495
 2699SOL    HW310850   0.807   1.727   4.383 -0.4733  0.6469 -0.4431
 2699SOL    MW410851   0.771   1.754   4.457 -0.0250 -0.1844  0.0801
 2700SOL     OW10852   3.920   0.790   4.678  0.1488 -0.4064  0.1382
 2700SOL    HW210853   3.985   0.809   4.745 -0.1448  1.2995 -0.0334
 2700SOL    HW310854   3.847   0.849   4.698  0.0823  0.1772 -1.7100
 2700SOL    MW410855   3.919   0.801   4.690  0.1013 -0.1043 -0.1283
 2701SOL     OW10856   3.716   3.117   4.704  0.2114  0.1757  0.2217
 2701SOL    HW210857   3.668   3.059   4.762 -0.9814  0.4980 -0.4325
 2701SOL    HW310858   3.653   3.143   4.637  1.6887 -0.6514 -1.5623
 2701SOL    MW410859   3.702   3.113   4.703  0.2489  0.1090 -0.1001
 2702SOL     OW10860   3.234   0.391   4.507  0.2400 -0.1036 -0.3905
 2702SOL    HW210861   3.258   0.457   4.442 -1.1835  1.0104  0.1931
 2702SOL    HW310862   3.143   0.411   4.529  0.6687 -0.5630  1.8533
 2702SOL    MW410863   3.225   0.402   4.501  0.1087 -0.0173 -0.0176
 2703SOL     OW10864   3.165   0.092   4.264  0.2963  0.2989 -0.2968
 2703SOL    HW210865   3.240   0.040   4.233 -1.1095 -2.3844  0.6176
 2703SOL    HW310866   3.160   0.074   4.358 -1.9370 -0.1921 -0.4724
 2703SOL    MW410867   3.174   0.082   4.272 -0.1841 -0.1199 -0.1993
 2704SOL     OW10868   1.159   2.885   4.531  0.3187 -0.0543 -0.1659
 2704SOL    HW210869   1.077   2.868   4.577 -1.1342  0.5889 -2.3891
 2704SOL    HW310870   1.209   2.805   4.539 -0.2320 -0.2120  1.8354
 2704SOL    MW410871   1.155   2.872   4.538  0.0542  0.0098 -0.1950
 2705SOL     OW10872   4.423   2.160   4.542  0.8057  0.4718 -0.0862
 2705SOL    HW210873   4.518   2.165   4.530  0.8442  1.1193  0.4810
 2705SOL    HW310874   4.404   2.066   4.538  1.6552  0.2319  1.1605
 2705SOL    MW410875   4.433   2.148   4.540  0.9227  0.5257  0.1531
 2706SOL     OW10876   1.541   1.376   4.510 -0.3881  0.3213 -0.0860
 2706SOL    HW210877   1.464   1.405   4.560 -0.1734  0.2577  0.2850
 2706SOL    HW310878   1.612   1.431   4.542 -0.4950  1.1103 -1.1928
 2706SOL    MW410879   1.540   1.387   4.521 -0.3741  0.4171 -0.1836
 2707SOL     OW10880   1.048   3.779   4.523  0.3053 -0.0803 -0.6361
 2707SOL    HW210881   1.062   3.745   4.435  1.7498  2.0533 -1.2604
 2707SOL    HW310882   0.979   3.844   4.514  0.1770 -0.1385 -0.1179
 2707SOL    MW410883   1.041   3.783   4.510  0.4791  0.1936 -0.6499
 2708SOL     OW10884   1.993   0.773   4.512 -0.6165 -0.6869 -0.3716
 2708SOL    HW210885   2.084   0.793   4.533 -1.1595 -1.5549  3.0123
 2708SOL    HW310886   1.948   0.858   4.519 -0.2615 -0.4374 -1.0580
 2708SOL    MW410887   1.999   0.787   4.516 -0.6412 -0.7685 -0.0157
 2709SOL     OW10888   4.450   3.815   4.615 -0.1774  0.2409  0.0651
 2709SOL    HW210889   4.440   3.802   4.709  0.0679  0.2982  0.1000
 2709SOL    HW310890   4.523   3.758   4.590 -0.3001  0.1577 -0.1064
 2709SOL    MW410891   4.458   3.806   4.624 -0.1612  0.2375  0.0477
 2710SOL     OW10892   1.414   3.314   4.560  0.1046  0.0672 -0.3173
 2710SOL    HW210893   1.446   3.224   4.557 -0.4216 -0.0905 -1.5559
 2710SOL    HW310894   1.324   3.307   4.593  0.2124  0.1797 -0.0018
 2710SOL    MW410895   1.406   3.302   4.564  0.0494  0.0613 -0.4392
 2711SOL     OW10896   0.656   0.481   4.250 -0.5757  0.2078 -0.0567
 2711SOL    HW210897   0.575   0.437   4.223  0.2641 -1.8079  0.6421
 2711SOL    HW310898   0.649   0.488   4.345 -0.0061  0.2210 -0.0138
 2711SOL    MW410899   0.644   0.476   4.259 -0.3897 -0.0564  0.0410
 2712SOL     OW10900   0.832   3.954   4.499 -0.4196  0.3525 -0.0698
 2712SOL    HW210901   0.853   3.978   4.409  0.1922  2.3512  0.5863
 2712SOL    HW310902   0.782   4.028   4.533 -2.0677 -1.0892  0.7389
 2712SOL    MW410903   0.828   3.967   4.492 -0.5564  0.4263  0.1235
 2713SOL     OW10904   1.213   3.033   4.761  0.2590  0.6194  0.2129
 2713SOL    HW210905   1.218   2.995   4.673  1.1753  0.1773  0.4464
 2713SOL    HW310906   1.216   3.128   4.746  2.0739  0.5213 -0.1474
 2713SOL    MW410907   1.214   3.041   4.747  0.6193  0.5481  0.1960
 2714SOL     OW10908   3.261   2.879   4.904 -0.2336  0.0374 -0.5000
 2714SOL    HW210909   3.261   2.940   4.977 -0.5211  1.2712 -1.5108
 2714SOL    HW310910   3.173   2.840   4.906  0.2879 -1.1316  0.7624
 2714SOL    MW410911   3.249   2.882   4.914 -0.2027  0.0458 -0.4668
 2715SOL     OW10912   1.326   1.002   4.548 -0.5070 -0.0310  0.0825
 2715SOL    HW210913   1.415   1.033   4.560 -0.2330 -1.2012  1.2573
 2715SOL    HW310914   1.323   0.969   4.458 -0.1713  1.3085 -0.4231
 2715SOL    MW410915   1.337   1.002   4.538 -0.4267 -0.0086  0.1712
 2716SOL     OW10916   3.503   3.726   4.660 -0.0036  0.9930 -0.3815
 2716SOL    HW210917   3.548   3.647   4.629 -1.5774 -0.7820  1.7447
 2716SOL    HW310918   3.569   3.770   4.714  0.1401 -0.0725  0.3318
 2716SOL    MW410919   3.518   3.721   4.663 -0.1922  0.6185 -0.0067
 2717SOL     OW10920   0.399   2.380   4.489 -0.2220 -0.0159  0.2754
 2717SOL    HW210921   0.413   2.392   4.395  1.4095 -1.1380  0.3626
 2717SOL    HW310922   0.340   2.305   4.496 -0.2587  0.0025  0.1642
 2717SOL    MW410923   0.393   2.372   4.477 -0.0116 -0.1614  0.2718
 2718SOL     OW10924   2.207   3.173   4.510  0.2836 -0.0652 -0.0523
 2718SOL    HW210925   2.194   3.078   4.510  1.6343 -0.2694 -0.9681
 2718SOL    HW310926   2.125   3.209   4.544  0.6237 -1.6632  2.5874
 2718SOL    MW410927   2.194   3.165   4.514  0.5066 -0.3030  0.1745
 2719SOL     OW10928   1.546   0.516   4.253  0.1147 -0.0772 -0.2469
 2719SOL    HW210929   1.539   0.606   4.221  0.9544 -0.3624 -1.2357
 2719SOL    HW310930   1.549   0.525   4.349  0.7331  0.9792 -0.3593
 2719SOL    MW410931   1.545   0.529   4.262  0.3071  0.0245 -0.3929
 2720SOL     OW10932   2.430   1.915   4.787  0.6482 -0.2969  0.1314
 2720SOL    HW210933   2.443   1.996   4.836  1.7714 -1.6293  2.0666
 2720SOL    HW310934   2.498   1.916   4.720 -0.4399  1.1755 -0.9958
 2720SOL    MW410935   2.441   1.926   4.784  0.6526 -0.2785  0.2384
 2721SOL     OW10936   0.444   4.068   4.572 -0.0907  0.3900  0.1896
 2721SOL    HW210937   0.519   4.126   4.579  0.5364 -0.3290 -0.4587
 2721SOL    HW310938   0.449   4.033   4.483 -0.5672 -0.5107  0.5059
 2721SOL    MW410939   0.454   4.071   4.561 -0.0708  0.1760  0.1459
 2722SOL     OW10940   3.597   1.056   4.465  0.4373  0.0559  0.1577
 2722SOL    HW210941   3.573   1.001   4.391  0.2630 -0.3881  0.5454
 2722SOL    HW310942   3.578   1.003   4.542  0.2229  0.6757  0.5346
 2722SOL    MW410943   3.591   1.042   4.465  0.3862  0.0790  0.2584
 2723SOL     OW10944   2.444   1.314   4.213 -0.1588 -0.4947  0.1945
 2723SOL    HW210945   2.519   1.267   4.175 -1.1196 -0.6595 -1.5260
 2723SOL    HW310946   2.450   1.402   4.176 -0.0092 -0.0748  1.1922
 2723SOL    MW410947   2.455   1.319   4.203 -0.2656 -0.4611  0.0992
 2724SOL     OW10948   3.552   2.927   4.813 -0.0433 -0.0676 -0.6762
 2724SOL    HW210949   3.576   2.852   4.759 -0.7034 -1.7665  1.3264
 2724SOL    HW310950   3.467   2.904   4.849  0.6436  0.7832  1.5429
 2724SOL    MW410951   3.544   2.914   4.810 -0.0396 -0.1795 -0.1192
 2725SOL     OW10952   1.774   3.107   4.481 -0.0193 -0.0833 -0.3825
 2725SOL    HW210953   1.685   3.075   4.487  0.4769 -1.6171 -0.9845
 2725SOL    HW310954   1.788   3.123   4.387 -0.2996  2.0478 -0.0886
 2725SOL    MW410955   1.764   3.105   4.469  0.0092 -0.0048 -0.4230
 2726SOL     OW10956   2.012   3.161   4.890 -0.0593 -0.0641  0.2013
 2726SOL    HW210957   1.992   3.091   4.829  0.9470  1.1904 -1.6139
 2726SOL    HW310958   2.062   3.118   4.960 -0.7287 -1.4127 -0.1292
 2726SOL    MW410959   2.016   3.146   4.891 -0.0148 -0.0765 -0.0820
 2727SOL     OW10960   0.836   3.538   4.653  0.4915  0.0095 -0.3230
 2727SOL    HW210961   0.919   3.566   4.692  0.2276 -0.0036  0.2538
 2727SOL    HW310962   0.811   3.611   4.597  0.3385  0.4987  0.3624
 2727SOL    MW410963   0.844   3.551   4.651  0.4364  0.0722 -0.1564
 2728SOL     OW10964   1.509   3.048   4.524  0.4199 -0.2741  0.4233
 2728SOL    HW210965   1.501   2.989   4.599  1.9341  0.0506  0.8626
 2728SOL    HW310966   1.502   2.990   4.448 -3.4693 -0.3103  0.7206
 2728SOL    MW410967   1.507   3.033   4.524  0.1065 -0.2363  0.5202
 2729SOL     OW10968   0.430   0.914   4.461  0.2676  0.1368  0.5888
 2729SOL    HW210969   0.424   0.824   4.491  1.3121 -0.1799 -0.1026
 2729SOL    HW310970   0.447   0.907   4.367 -0.9921  1.0760  0.2812
 2729SOL    MW410971   0.431   0.901   4.453  0.2392  0.2189  0.4563
 2730SOL     OW10972   2.385   3.371   4.619  0.2750 -0.2743  0.1351
 2730SOL    HW210973   2.362   3.364   4.712  1.1805 -0.6109  0.3422
 2730SOL    HW310974   2.337   3.299   4.577 -1.8332  1.1793 -0.0113
 2730SOL    MW410975   2.376   3.361   4.626  0.1161 -0.1268  0.1431
 2731SOL     OW10976   1.885   4.112   4.597  0.2558 -0.0463 -0.1869
 2731SOL    HW210977   1.830   4.057   4.542  0.0557  0.1016 -0.1345
 2731SOL    HW310978   1.826   4.147   4.663  0.4302  0.0420 -0.0762
 2731SOL    MW410979   1.870   4.109   4.598  0.2524 -0.0153 -0.1655
 2732SOL     OW10980   2.432   1.252   4.476 -0.3843 -0.1020  0.1808
 2732SOL    HW210981   2.395   1.319   4.534 -0.0546 -0.1715  0.4725
 2732SOL    HW310982   2.435   1.294   4.390 -1.0252 -0.0530  0.1751
 2732SOL    MW410983   2.427   1.266   4.472 -0.4251 -0.1048  0.2184
 2733SOL     OW10984   1.671   4.477   4.703  0.0565 -0.3206  0.5139
 2733SOL    HW210985   1.601   4.444   4.646  0.8820 -1.3300  0.0777
 2733SOL    HW310986   1.626   4.537   4.763 -1.2739 -1.3246  0.5524
 2733SOL    MW410987   1.656   4.481   4.704 -0.0101 -0.5865  0.4616
 2734SOL     OW10988   0.940   2.778   4.666  0.1498 -0.7546 -0.0276
 2734SOL    HW210989   0.938   2.836   4.742  0.8020  0.8378 -1.1816
 2734SOL    HW310990   0.850   2.745   4.659 -0.7597  1.6651 -0.4574
 2734SOL    MW410991   0.928   2.781   4.675  0.1159 -0.2251 -0.2370
 2735SOL     OW10992   2.663   3.386   4.641  0.0451  0.1072  0.0759
 2735SOL    HW210993   2.573   3.402   4.613  0.1259  0.3153 -0.0622
 2735SOL    HW310994   2.683   3.299   4.608 -0.5746 -0.5184  1.2849
 2735SOL    MW410995   2.654   3.377   4.633 -0.0257  0.0522  0.2170
 2736SOL     OW10996   3.319   1.833   4.856 -0.1264 -0.6750 -0.4133
 2736SOL    HW210997   3.323   1.753   4.803  0.1468 -1.1715  0.3576
 2736SOL    HW310998   3.405   1.873   4.846  0.5061 -1.6419  1.0039
 2736SOL    MW410999   3.331   1.828   4.847 -0.0069 -0.8681 -0.1245
 2737SOL     OW11000   4.152   1.616   4.581  0.3192  0.0797  0.0100
 2737SOL    HW211001   4.069   1.662   4.592  0.1324 -0.2119 -0.1977
 2737SOL    HW311002   4.128   1.532   4.543  1.0531  1.4242 -3.6223
 2737SOL    MW411003   4.138   1.611   4.578  0.3915  0.2186 -0.4969
 2738SOL     OW11004   0.451   3.267   4.247 -0.0145  0.2346 -0.2883
 2738SOL    HW211005   0.446   3.358   4.215 -1.0575  0.1443 -0.3819
 2738SOL    HW311006   0.443   3.274   4.342  0.4175  0.2816 -0.2553
 2738SOL    MW411007   0.449   3.280   4.255 -0.0951  0.2286 -0.2966
 2739SOL     OW11008   1.291   1.762   4.543  0.1073  0.5426 -0.6975
 2739SOL    HW211009   1.357   1.831   4.546  0.6499  0.0021 -0.3344
 2739SOL    HW311010   1.209   1.807   4.565  0.6331  0.8654  0.6407
 2739SOL    MW411011   1.289   1.777   4.546  0.2482  0.5139 -0.4725
 2740SOL     OW11012   1.939   2.005   4.536  0.0536  0.0442  0.0385
 2740SOL    HW211013   2.025   1.994   4.577  1.8882  2.4167 -2.9571
 2740SOL    HW311014   1.909   2.091   4.568 -0.0852  0.3227 -0.8441
 2740SOL    MW411015   1.947   2.015   4.546  0.2774  0.3939 -0.4730
 2741SOL     OW11016   2.044   3.910   4.158 -0.0870 -0.1918  0.2604
 2741SOL    HW211017   1.957   3.946   4.177 -0.3376 -0.5129 -0.2529
 2741SOL    HW311018   2.054   3.921   4.063  0.0063 -1.0979  0.1599
 2741SOL    MW411019   2.034   3.916   4.148 -0.1078 -0.3536  0.1798
 2742SOL     OW11020   4.486   4.070   4.502  0.4255 -0.0941 -0.0256
 2742SOL    HW211021   4.480   4.046   4.410 -0.9877 -2.0373  0.5146
 2742SOL    HW311022   4.473   3.987   4.549 -0.6424  1.1239  1.9219
 2742SOL    MW411023   4.483   4.056   4.496  0.0982 -0.1898  0.3018
 2743SOL     OW11024   1.989   0.550   4.339  0.4666 -0.4756 -0.2140
 2743SOL    HW211025   1.999   0.480   4.404 -0.9977 -1.0153 -0.5377
 2743SOL    HW311026   1.967   0.627   4.391 -0.2264 -0.8003 -0.0058
 2743SOL    MW411027   1.987   0.551   4.355  0.1820 -0.5896 -0.2294
 2744SOL     OW11028   2.269   0.110   4.307  0.0164  0.0097 -0.1450
 2744SOL    HW211029   2.333   0.068   4.250 -0.1608 -0.5920  0.0960
 2744SOL    HW311030   2.184   0.082   4.273 -0.1612  1.7810 -1.2092
 2744SOL    MW411031   2.266   0.101   4.295 -0.0303  0.1640 -0.2537
 2745SOL     OW11032   1.537   0.268   4.586 -0.2075 -0.7894  0.2105
 2745SOL    HW211033   1.628   0.242   4.572 -0.1303 -0.5525  0.2590
 2745SOL    HW311034   1.538   0.363   4.575 -0.0244 -0.5211  2.3546
 2745SOL    MW411035   1.549   0.277   4.583 -0.1730 -0.7228  0.4997
 2746SOL     OW11036   1.766   1.535   4.583  0.5114 -0.4175  0.0590
 2746SOL    HW211037   1.776   1.630   4.597  0.4452 -0.3692 -0.2220
 2746SOL    HW311038   1.856   1.503   4.572  0.5446 -0.4120  0.3200
 2746SOL    MW411039   1.780   1.544   4.583  0.5071 -0.4104  0.0563
 2747SOL     OW11040   3.125   3.959   4.505  0.1684  0.2968 -0.1060
 2747SOL    HW211041   3.050   3.981   4.559 -0.3247 -0.5798 -0.4265
 2747SOL    HW311042   3.148   3.870   4.531  2.0549  1.0957  1.0772
 2747SOL    MW411043   3.118   3.950   4.516  0.3524  0.2866  0.0072
 2748SOL     OW11044   0.926   2.942   4.890  0.4958 -0.2518  0.0279
 2748SOL    HW211045   0.859   3.010   4.892  0.2269 -0.5443  1.2959
 2748SOL    HW311046   1.009   2.991   4.882  0.2905  0.2152  0.7290
 2748SOL    MW411047   0.928   2.958   4.889  0.4332 -0.2286  0.2875
 2749SOL     OW11048   2.915   1.281   4.246  0.0360  0.1368 -0.0457
 2749SOL    HW211049   2.972   1.236   4.183 -0.4180 -1.6037  0.7640
 2749SOL    HW311050   2.827   1.274   4.208  0.0668  1.0145 -0.2859
 2749SOL    MW411051   2.911   1.274   4.232 -0.0198  0.0231  0.0291
 2750SOL     OW11052   1.723   2.563   4.515  0.0416 -0.3160 -0.0122
 2750SOL    HW211053   1.722   2.631   4.582  0.5514  0.1191 -0.4479
 2750SOL    HW311054   1.637   2.520   4.523 -0.4127  0.5883  0.0379
 2750SOL    MW411055   1.711   2.566   4.525  0.0489 -0.1392 -0.0629
 2751SOL     OW11056   4.255   0.683   4.602 -0.3483  0.0119 -0.0895
 2751SOL    HW211057   4.347   0.683   4.576 -0.6497 -0.5643 -1.1974
 2751SOL    HW311058   4.221   0.767   4.572 -0.4114 -0.1678 -0.5228
 2751SOL    MW411059   4.263   0.694   4.595 -0.3967 -0.0878 -0.2928
 2752SOL     OW11060   1.929   2.974   4.679 -0.2292 -0.5050  0.1986
 2752SOL    HW211061   1.867   3.006   4.614 -0.5015 -2.2258 -0.4045
 2752SOL    HW311062   2.004   2.943   4.628 -0.3043 -1.5551  0.7068
 2752SOL    MW411063   1.931   2.974   4.664 -0.2749 -0.8707  0.1864
 2753SOL     OW11064   2.688   1.618   4.539 -0.0421  0.1266 -0.4583
 2753SOL    HW211065   2.767   1.577   4.574  0.0923  0.3749 -0.4701
 2753SOL    HW311066   2.616   1.575   4.585  0.1596  0.8483  0.5561
 2753SOL    MW411067   2.689   1.607   4.550  0.0024  0.2546 -0.3262
 2754SOL     OW11068   1.074   0.570   4.572  0.4684 -0.2496  0.0338
 2754SOL    HW211069   1.078   0.478   4.598  1.2994 -0.6863 -1.5231
 2754SOL    HW311070   0.981   0.593   4.577  0.3114 -1.0406  0.8638
 2754SOL    MW411071   1.062   0.561   4.576  0.5573 -0.4116 -0.0620
 2755SOL     OW11072   1.408   3.599   4.646 -0.1845  0.4719 -0.1782
 2755SOL    HW211073   1.493   3.643   4.639  0.3353 -0.4133  0.4275
 2755SOL    HW311074   1.426   3.508   4.624 -0.6899 -0.0154  1.3040
 2755SOL    MW411075   1.422   3.593   4.642 -0.1827  0.2909  0.0968
 2756SOL     OW11076   4.245   4.506   4.636 -0.2608  0.4993 -0.0839
 2756SOL    HW211077   4.214   4.518   4.726 -1.0554  0.6197 -0.3666
 2756SOL    HW311078   4.169   4.528   4.582 -0.0283 -0.3261 -0.7604
 2756SOL    MW411079   4.231   4.510   4.641 -0.3352  0.4058 -0.2103
 2757SOL     OW11080   3.759   4.315   4.474  0.5976 -0.2061  0.0754
 2757SOL    HW211081   3.731   4.390   4.526  0.3029 -0.0754 -0.2715
 2757SOL    HW311082   3.777   4.351   4.387  1.3248 -0.3804  0.1510
 2757SOL    MW411083   3.758   4.330   4.469  0.6547 -0.2117  0.0396
 2758SOL     OW11084   2.884   4.002   4.645 -0.1947  0.2074  0.1119
 2758SOL    HW211085   2.805   4.026   4.596  0.3018 -0.6579 -1.1528
 2758SOL    HW311086   2.912   4.084   4.686 -0.5538  1.0066 -1.1811
 2758SOL    MW411087   2.877   4.016   4.644 -0.1764  0.1984 -0.2255
 2759SOL     OW11088   2.560   4.331   4.504  0.0052 -0.0466  0.1267
 2759SOL    HW211089   2.472   4.342   4.539  0.9105 -0.0888  2.5405
 2759SOL    HW311090   2.574   4.236   4.504  0.3909  0.0081  0.6531
 2759SOL    MW411091   2.550   4.320   4.509  0.1755 -0.0453  0.5145
 2760SOL     OW11092   0.919   2.119   4.660  0.5202  0.1007  0.1860
 2760SOL    HW211093   0.947   2.123   4.751  1.2929 -0.7123  0.0017
 2760SOL    HW311094   0.910   2.210   4.632  2.6582  0.4085  0.3746
 2760SOL    MW411095   0.922   2.131   4.668  0.9042  0.0341  0.1864
 2761SOL     OW11096   2.502   0.304   4.554  0.3437  0.2370  0.2557
 2761SOL    HW211097   2.420   0.260   4.574  1.3397 -0.6319  2.6418
 2761SOL    HW311098   2.479   0.396   4.543 -0.9884 -0.0602  0.5561
 2761SOL    MW411099   2.488   0.310   4.555  0.2995  0.0832  0.6099
 2762SOL     OW11100   2.935   1.256   4.520  0.1718 -0.0858  0.1527
 2762SOL    HW211101   2.859   1.199   4.528 -0.4853  0.6718 -0.6685
 2762SOL    HW311102   2.947   1.268   4.426  1.3214 -0.2015  0.2701
 2762SOL    MW411103   2.927   1.250   4.509  0.2367 -0.0010  0.0601
 2763SOL     OW11104   4.250   4.233   4.538 -0.4732 -0.1406 -0.1043
 2763SOL    HW211105   4.330   4.181   4.531 -1.2507 -1.4518  0.7176
 2763SOL    HW311106   4.280   4.316   4.575  0.6139 -0.3443 -0.4758
 2763SOL    MW411107   4.265   4.237   4.542 -0.4320 -0.3405 -0.0448
 2764SOL     OW11108   2.687   1.893   4.623  0.1087  0.2246  0.2838
 2764SOL    HW211109   2.680   1.805   4.585 -1.5589  0.5236 -0.1453
 2764SOL    HW311110   2.781   1.909   4.629  0.4250 -0.8449 -1.3835
 2764SOL    MW411111   2.699   1.883   4.619 -0.0696  0.1229  0.0072
 2765SOL     OW11112   1.075   2.536   4.662 -0.1253 -0.3713 -0.6403
 2765SOL    HW211113   1.023   2.616   4.665  0.2944 -0.1478  0.6859
 2765SOL    HW311114   1.016   2.471   4.622 -0.9299  0.2338 -0.4559
 2765SOL    MW411115   1.060   2.538   4.657 -0.1762 -0.2620 -0.4411
 2766SOL     OW11116   4.468   2.448   4.524 -0.0193 -0.0932  0.0935
 2766SOL    HW211117   4.558   2.466   4.551 -0.2497  0.6994  0.3499
 2766SOL    HW311118   4.451   2.359   4.554  1.3214 -0.9817 -1.6629
 2766SOL    MW411119   4.478   2.439   4.532  0.1273 -0.1056 -0.1044
 2767SOL     OW11120   1.838   1.666   4.259  0.2800  0.0258  0.3298
 2767SOL    HW211121   1.753   1.639   4.223  0.2331  0.8406 -0.1906
 2767SOL    HW311122   1.831   1.648   4.353 -0.7531  0.7611  0.4114
 2767SOL    MW411123   1.826   1.660   4.267  0.1376  0.2303  0.2713
 2768SOL     OW11124   3.302   0.516   4.262  0.1208 -0.0137  0.1647
 2768SOL    HW211125   3.236   0.471   4.211  0.6987 -0.5454 -0.1073
 2768SOL    HW311126   3.384   0.470   4.244  0.2616 -0.4664  1.8711
 2768SOL    MW411127   3.304   0.504   4.253  0.2155 -0.1435  0.3538
 2769SOL     OW11128   2.720   1.982   4.207 -0.3817 -0.9977 -0.3513
 2769SOL    HW211129   2.704   1.973   4.113 -1.8746  0.3352 -0.2581
 2769SOL    HW311130   2.646   2.035   4.239  1.1009  0.1798  1.2438
 2769SOL    MW411131   2.708   1.988   4.199 -0.3831 -0.6665 -0.1283
 2770SOL     OW11132   2.127   3.960   4.562 -0.1564  0.0447  0.2254
 2770SOL    HW211133   2.050   4.011   4.587 -0.7338 -0.7022  0.0053
 2770SOL    HW311134   2.159   4.002   4.482 -0.5903  0.1104  0.0840
 2770SOL    MW411135   2.121   3.972   4.555 -0.2897 -0.0451  0.1779
 2771SOL     OW11136   1.454   4.376   4.543 -0.2689  0.7590 -0.1686
 2771SOL    HW211137   1.422   4.287   4.554 -2.3045  1.4855  0.0144
 2771SOL    HW311138   1.507   4.373   4.463  1.5407 -1.0764  1.0605
 2771SOL    MW411139   1.457   4.364   4.534 -0.2989  0.6123  0.0181
 2772SOL     OW11140   0.432   3.791   4.622  0.0944 -0.0092 -0.6210
 2772SOL    HW211141   0.423   3.886   4.618  0.5303  0.0562 -0.1621
 2772SOL    HW311142   0.343   3.758   4.613 -0.1277  0.4688 -0.2347
 2772SOL    MW411143   0.419   3.799   4.621  0.1226  0.0625 -0.5093
 2773SOL     OW11144   2.266   1.046   4.512 -0.1783 -0.0768  0.0745
 2773SOL    HW211145   2.307   0.985   4.574 -0.4002  0.7522  1.0537
 2773SOL    HW311146   2.331   1.115   4.500 -0.4273  0.1378 -0.0476
 2773SOL    MW411147   2.280   1.047   4.519 -0.2406  0.0608  0.1874
 2774SOL     OW11148   1.464   2.195   4.674  0.4609 -0.4157 -0.2624
 2774SOL    HW211149   1.393   2.231   4.728  1.2017  1.2612 -0.3663
 2774SOL    HW311150   1.539   2.191   4.733  0.5096 -1.3803 -0.3864
 2774SOL    MW411151   1.465   2.199   4.689  0.5651 -0.3214 -0.2928
 2775SOL     OW11152   1.636   3.635   4.303  0.3344  0.0014 -0.3957
 2775SOL    HW211153   1.698   3.575   4.261  2.0083  0.8850  0.7444
 2775SOL    HW311154   1.550   3.603   4.276  1.2729 -1.3411 -1.9067
 2775SOL    MW411155   1.633   3.623   4.294  0.6790 -0.0591 -0.4449
 2776SOL     OW11156   2.963   1.891   4.512 -0.7256  0.1305 -0.1281
 2776SOL    HW211157   3.031   1.922   4.572 -0.0621 -0.0068 -0.8023
 2776SOL    HW311158   2.956   1.960   4.446 -2.2182  0.7887  0.6938
 2776SOL    MW411159   2.971   1.904   4.511 -0.8349  0.1992 -0.1087
 2777SOL     OW11160   0.767   3.066   4.638 -0.1116 -0.0438 -0.3198
 2777SOL    HW211161   0.678   3.085   4.666  0.3492 -0.1264  1.2669
 2777SOL    HW311162   0.759   2.988   4.584 -0.8755 -0.7082  0.7269
 2777SOL    MW411163   0.754   3.058   4.635 -0.1516 -0.1423  0.0277
 2778SOL     OW11164   3.231   2.355   4.492 -0.1280 -0.5121  0.1028
 2778SOL    HW211165   3.325   2.368   4.503 -0.5129  2.1117  0.6938
 2778SOL    HW311166   3.206   2.300   4.567  0.7530 -0.2772  0.5857
 2778SOL    MW411167   3.240   2.350   4.504 -0.0622 -0.1347  0.2446
 2779SOL     OW11168   0.137   0.514   4.466 -0.4573 -0.4163 -0.0378
 2779SOL    HW211169   0.092   0.438   4.503 -0.5814 -0.9838 -1.3341
 2779SOL    HW311170   0.076   0.586   4.478 -0.7726 -0.7305  0.2655
 2779SOL    MW411171   0.123   0.513   4.472 -0.5153 -0.5326 -0.1688
 2780SOL     OW11172   1.959   3.282   4.604 -0.0876 -0.0097 -0.0875
 2780SOL    HW211173   1.965   3.245   4.692 -0.7809  0.8407  0.3311
 2780SOL    HW311174   1.891   3.230   4.561 -0.7804  0.5149  0.3662
 2780SOL    MW411175   1.951   3.270   4.610 -0.2705  0.1719  0.0281
 2781SOL     OW11176   2.387   3.643   4.513  0.4371  0.2378 -0.2428
 2781SOL    HW211177   2.294   3.667   4.514  0.1311 -0.9201  1.9996
 2781SOL    HW311178   2.388   3.553   4.547  2.3561  0.1176 -0.5950
 2781SOL    MW411179   2.375   3.634   4.517  0.6502  0.0691  0.0067
 2782SOL     OW11180   2.653   3.488   4.893  0.1415 -0.1696  0.5997
 2782SOL    HW211181   2.707   3.564   4.873 -0.2195  0.2575  1.2392
 2782SOL    HW311182   2.655   3.436   4.813 -0.1704  0.8412 -0.0716
 2782SOL    MW411183   2.661   3.491   4.880  0.0527  0.0203  0.5956
 2783SOL     OW11184   3.395   1.236   4.493 -0.0470  0.2460  0.4830
 2783SOL    HW211185   3.469   1.175   4.489  0.3122  0.7376 -0.4276
 2783SOL    HW311186   3.321   1.181   4.521  0.3172 -0.5652 -0.1140
 2783SOL    MW411187   3.395   1.220   4.496  0.0484  0.2037  0.2847
 2784SOL     OW11188   1.717   2.738   4.746 -0.0787  0.1817 -0.2038
 2784SOL    HW211189   1.782   2.802   4.717  0.5971 -0.9618 -1.2467
 2784SOL    HW311190   1.640   2.791   4.769  0.2571  1.3267 -1.6374
 2784SOL    MW411191   1.715   2.753   4.745  0.0548  0.1822 -0.5307
 2785SOL     OW11192   2.021   0.354   4.556  0.2514 -0.3641 -0.3573
 2785SOL    HW211193   1.941   0.301   4.550  0.3785 -0.7342  1.0473
 2785SOL    HW311194   2.090   0.290   4.572  0.8044 -0.0270 -1.4267
 2785SOL    MW411195   2.019   0.338   4.558  0.3412 -0.3685 -0.3133
 2786SOL     OW11196   4.261   1.160   4.611  0.1199  0.4622 -0.7826
 2786SOL    HW211197   4.231   1.080   4.567 -2.2222  0.5846  0.4709
 2786SOL    HW311198   4.204   1.228   4.576  1.0687  1.3041 -0.6902
 2786SOL    MW411199   4.249   1.158   4.600 -0.0644  0.5895 -0.6046
 2787SOL     OW11200   3.127   1.667   4.471  0.0415  0.0847 -0.1507
 2787SOL    HW211201   3.197   1.684   4.534  0.5741 -0.4946 -0.5785
 2787SOL    HW311202   3.065   1.739   4.484 -0.5641 -0.7892  2.0169
 2787SOL    MW411203   3.129   1.679   4.481  0.0319 -0.1070  0.0787
 2788SOL     OW11204   1.757   0.143   4.243 -0.0161  0.8610 -0.6298
 2788SOL    HW211205   1.776   0.237   4.236 -0.1335  0.8698 -0.8570
 2788SOL    HW311206   1.842   0.101   4.237  0.1755  1.0196  0.8881
 2788SOL    MW411207   1.770   0.150   4.241 -0.0064  0.8831 -0.4592
 2789SOL     OW11208   2.971   2.071   4.294 -0.0638  0.0909 -0.4018
 2789SOL    HW211209   3.036   2.016   4.250  0.1164 -0.9087  1.0657
 2789SOL    HW311210   2.886   2.037   4.263  0.0707 -0.0572 -0.6117
 2789SOL    MW411211   2.968   2.059   4.284 -0.0222 -0.0606 -0.2356
 2790SOL     OW11212   4.062   1.900   4.149  0.2453  0.1447 -0.0382
 2790SOL    HW211213   3.978   1.932   4.183  1.1063  1.4227  0.8955
 2790SOL    HW311214   4.073   1.815   4.193 -1.1400 -0.6246 -1.1133
 2790SOL    MW411215   4.052   1.893   4.160  0.1760  0.2118 -0.0572
 2791SOL     OW11216   3.988   4.564   4.491 -0.0470 -0.5388  0.0895
 2791SOL    HW211217   3.899   4.551   4.524  0.0382 -0.4912  0.3448
 2791SOL    HW311218   3.982   4.640   4.433 -0.6338 -1.9868 -1.7582
 2791SOL    MW411219   3.976   4.572   4.488 -0.1132 -0.7238 -0.1211
 2792SOL     OW11220   3.127   0.958   4.267 -0.2922 -0.2167 -0.0863
 2792SOL    HW211221   3.059   0.901   4.229  1.2238 -0.4925 -2.4759
 2792SOL    HW311222   3.126   1.036   4.211  0.3981  0.3865  0.7357
 2792SOL    MW411223   3.118   0.961   4.254 -0.0010 -0.1735 -0.2928
 2793SOL     OW11224   3.575   0.141   4.309 -0.1875  0.2023  0.2592
 2793SOL    HW211225   3.594   0.146   4.403  0.0941 -1.9815  0.3352
 2793SOL    HW311226   3.567   0.232   4.282 -1.8495  0.8490  2.7210
 2793SOL    MW411227   3.576   0.154   4.318 -0.3695 -0.0005  0.5937
 2794SOL     OW11228   0.604   0.165   4.493 -0.0219  0.0303  0.2499
 2794SOL    HW211229   0.690   0.126   4.477  0.1931  0.6859 -0.2092
 2794SOL    HW311230   0.621   0.258   4.503 -0.8302  0.3422 -1.1442
 2794SOL    MW411231   0.618   0.172   4.492 -0.1001  0.1580  0.0057
 2795SOL     OW11232   2.970   2.769   4.942  0.2002  0.1812 -0.6376
 2795SOL    HW211233   2.941   2.861   4.938  0.8850  0.5476  1.7069
 2795SOL    HW311234   2.899   2.720   4.900 -2.1241  1.4336  1.6593
 2795SOL    MW411235   2.957   2.775   4.936 -0.0162  0.3948 -0.0253
 2796SOL     OW11236   0.663   1.474   4.528  0.0037 -0.0365  0.0951
 2796SOL    HW211237   0.699   1.433   4.607 -1.7575  0.9816  1.4638
 2796SOL    HW311238   0.654   1.401   4.466 -0.6414 -1.2674  1.5899
 2796SOL    MW411239   0.666   1.459   4.530 -0.3138 -0.0646  0.4730
 2797SOL     OW11240   3.559   1.980   4.791  0.2405 -0.0088 -0.8344
 2797SOL    HW211241   3.514   2.001   4.709  0.2757  0.6355 -0.6913
 2797SOL    HW311242   3.620   1.910   4.768  0.5139  0.4217 -1.4379
 2797SOL    MW411243   3.561   1.973   4.777  0.2816  0.1328 -0.8950
 2798SOL     OW11244   4.205   2.823   4.542 -0.1779 -0.0874  0.1776
 2798SOL    HW211245   4.286   2.850   4.587  0.5467 -1.1540 -0.4622
 2798SOL    HW311246   4.137   2.877   4.582  0.6149 -0.2449  1.7976
 2798SOL    MW411247   4.207   2.834   4.553  0.0234 -0.2489  0.3066
 2799SOL     OW11248   3.640   1.617   4.296 -0.4396  0.3213  0.0192
 2799SOL    HW211249   3.668   1.551   4.360 -0.4224  0.0212 -0.2975
 2799SOL    HW311250   3.550   1.592   4.275 -0.9927  1.3392  1.1091
 2799SOL    MW411251   3.632   1.605   4.302 -0.5105  0.4158  0.1216
 2800SOL     OW11252   3.598   2.465   4.784  0.4427 -0.5989 -0.0490
 2800SOL    HW211253   3.555   2.397   4.836  0.1488 -0.8204 -0.5751
 2800SOL    HW311254   3.657   2.417   4.726 -0.7055 -0.5171 -1.3170
 2800SOL    MW411255   3.600   2.449   4.783  0.2525 -0.6175 -0.2861
 2801SOL     OW11256   3.146   2.605   4.615  0.1624  0.2924 -0.6846
 2801SOL    HW211257   3.122   2.568   4.700 -0.7239  0.9904 -0.6221
 2801SOL    HW311258   3.160   2.529   4.558  1.1221 -0.1823  0.1788
 2801SOL    MW411259   3.145   2.590   4.618  0.1719  0.3219 -0.5627
 2802SOL     OW11260   0.440   3.283   4.531 -0.0839 -0.0659  0.3349
 2802SOL    HW211261   0.490   3.354   4.571  0.0544 -0.7125  1.3200
 2802SOL    HW311262   0.348   3.307   4.547 -0.0840  0.7396 -0.8167
 2802SOL    MW411263   0.434   3.296   4.538 -0.0657 -0.0448  0.3128
 2803SOL     OW11264   2.800   3.745   4.709 -0.1885 -0.0012 -0.3504
 2803SOL    HW211265   2.852   3.824   4.692  0.6017 -0.6601 -1.0464
 2803SOL    HW311266   2.815   3.690   4.632 -1.4582 -0.4523 -0.2869
 2803SOL    MW411267   2.809   3.748   4.696 -0.2515 -0.1476 -0.4334
 2804SOL     OW11268   2.155   1.887   4.689 -0.4149 -0.5150 -0.0109
 2804SOL    HW211269   2.237   1.913   4.731 -0.1781 -1.0881 -0.1187
 2804SOL    HW311270   2.180   1.816   4.630 -1.1684 -1.4612  0.7849
 2804SOL    MW411271   2.169   1.881   4.687 -0.4833 -0.7155  0.0796
 2805SOL     OW11272   0.707   4.170   4.642  0.0349  0.2514 -0.4699
 2805SOL    HW211273   0.709   4.179   4.737 -0.9846  0.5681 -0.4790
 2805SOL    HW311274   0.731   4.256   4.609  0.3103  0.1628 -0.5027
 2805SOL    MW411275   0.710   4.183   4.650 -0.0633  0.2813 -0.4754
 2806SOL     OW11276   1.355   0.149   4.222 -0.1990  1.1708  0.0051
 2806SOL    HW211277   1.340   0.147   4.316 -1.5844 -1.0454 -0.2191
 2806SOL    HW311278   1.339   0.240   4.197  0.8035  1.9062  1.9801
 2806SOL    MW411279   1.351   0.161   4.231 -0.2494  0.9755  0.2360
 2807SOL     OW11280   2.099   3.449   4.884 -0.2253 -0.2600 -0.2027
 2807SOL    HW211281   2.194   3.440   4.891 -0.1541 -0.5544 -1.3940
 2807SOL    HW311282   2.065   3.360   4.895 -0.4088 -0.0759  0.7754
 2807SOL    MW411283   2.107   3.436   4.887 -0.2396 -0.2747 -0.2303
 2808SOL     OW11284   2.642   2.807   4.259  0.0386  0.1280  0.1624
 2808SOL    HW211285   2.587   2.861   4.201  1.5036  1.2384 -0.2103
 2808SOL    HW311286   2.652   2.725   4.211  0.6427  0.7799 -0.8718
 2808SOL    MW411287   2.636   2.804   4.245  0.3116  0.3603 -0.0234
 2809SOL     OW11288   2.311   4.603   4.714  0.0276  0.2461 -0.7188
 2809SOL    HW211289   2.363   4.617   4.793 -1.2621  0.0620  0.1975
 2809SOL    HW311290   2.341   4.519   4.680 -0.6622 -0.5568  0.6150
 2809SOL    MW411291   2.322   4.594   4.720 -0.2337  0.1163 -0.4220
 2810SOL     OW11292   3.065   0.374   4.177 -0.4798  0.5898 -0.0609
 2810SOL    HW211293   2.988   0.421   4.209  0.5232  2.1339  0.1346
 2810SOL    HW311294   3.066   0.292   4.226 -0.9139  1.4175  1.3390
 2810SOL    MW411295   3.055   0.370   4.188 -0.4048  0.9028  0.1497
 2811SOL     OW11296   3.421   4.510   4.551 -0.3193  0.1071  0.4264
 2811SOL    HW211297   3.413   4.465   4.467 -0.8372  0.7067  0.1506
 2811SOL    HW311298   3.375   4.594   4.539 -0.1999  0.3006  1.2284
 2811SOL    MW411299   3.414   4.515   4.539 -0.3719  0.2117  0.4950
 2812SOL     OW11300   1.289   4.581   4.629 -0.2490  0.2673 -0.0199
 2812SOL    HW211301   1.346   4.515   4.591 -0.4753 -0.9252  1.6339
 2812SOL    HW311302   1.337   4.614   4.705 -0.8802  0.7332  0.1870
 2812SOL    MW411303   1.303   4.577   4.634 -0.3620  0.1717  0.2260
 2813SOL     OW11304   2.932   1.524   4.593 -0.4074 -0.5268 -0.2158
 2813SOL    HW211305   2.992   1.570   4.534 -0.9156  0.9185  0.3588
 2813SOL    HW311306   2.952   1.432   4.581  0.6485 -0.1554 -1.4073
 2813SOL    MW411307   2.943   1.518   4.584 -0.3347 -0.2872 -0.2971
 2814SOL     OW11308   2.676   1.135   4.473 -0.0841 -0.1465 -0.3922
 2814SOL    HW211309   2.677   1.069   4.404 -1.1900 -1.7224  1.0504
 2814SOL    HW311310   2.585   1.165   4.476 -0.1818 -0.5181  0.7419
 2814SOL    MW411311   2.664   1.130   4.464 -0.2429 -0.4034 -0.0525
 2815SOL     OW11312   3.855   1.193   4.442  0.3641  0.4096 -0.3456
 2815SOL    HW211313   3.778   1.137   4.450 -0.3530  1.4422  0.1426
 2815SOL    HW311314   3.864   1.209   4.348  0.5504 -0.4875 -0.4812
 2815SOL    MW411315   3.846   1.188   4.431  0.2940  0.4275 -0.2990
 2816SOL     OW11316   3.863   3.370   4.673 -0.5023  0.0271 -0.0796
 2816SOL    HW211317   3.788   3.423   4.645 -0.4661 -0.2914 -0.7908
 2816SOL    HW311318   3.824   3.291   4.710 -0.5020 -0.3647 -0.9206
 2816SOL    MW411319   3.848   3.366   4.674 -0.4976 -0.0668 -0.2847
 2817SOL     OW11320   0.228   2.844   4.598  0.1681 -0.2739  0.3858
 2817SOL    HW211321   0.196   2.845   4.508 -2.8779  1.1523  1.4193
 2817SOL    HW311322   0.226   2.752   4.624  0.8362 -0.6577 -0.9045
 2817SOL    MW411323   0.224   2.832   4.590 -0.1456 -0.1364  0.3519
 2818SOL     OW11324   2.955   4.269   4.778 -0.2127 -0.3330  0.0596
 2818SOL    HW211325   3.046   4.276   4.748 -0.3211  0.2543 -0.1374
 2818SOL    HW311326   2.961   4.274   4.874 -0.0325 -0.3470  0.0502
 2818SOL    MW411327   2.968   4.270   4.787 -0.2031 -0.2570  0.0324
 2819SOL     OW11328   2.730   1.706   4.271 -0.3014 -0.0586 -0.0773
 2819SOL    HW211329   2.739   1.678   4.362 -1.3226 -0.5075 -0.1005
 2819SOL    HW311330   2.728   1.802   4.275  0.6354 -0.0562  0.2732
 2819SOL    MW411331   2.731   1.715   4.284 -0.3126 -0.1174 -0.0339
 2820SOL     OW11332   3.471   2.203   4.926  0.2168  0.6087 -0.0723
 2820SOL    HW211333   3.518   2.140   4.871  0.6926  1.1673 -0.3112
 2820SOL    HW311334   3.474   2.165   5.014  1.7136  0.9537  0.0473
 2820SOL    MW411335   3.478   2.190   4.931  0.4768  0.7279 -0.0882
 2821SOL     OW11336   0.882   0.076   4.469 -0.4800  0.2299 -0.4908
 2821SOL    HW211337   0.912  -0.012   4.490  0.1081  0.4022 -0.6072
 2821SOL    HW311338   0.887   0.081   4.374 -0.5177  0.3893 -0.4846
 2821SOL    MW411339   0.886   0.065   4.460 -0.4075  0.2737 -0.5050
 2822SOL     OW11340   1.987   1.255   4.230 -0.1046  0.1931 -0.1101
 2822SOL    HW211341   1.991   1.244   4.324  0.1444 -0.1919 -0.1662
 2822SOL    HW311342   1.978   1.350   4.217  0.7244  0.3271  0.2758
 2822SOL    MW411343   1.986   1.266   4.241  0.0376  0.1601 -0.0672
 2823SOL     OW11344   3.000   2.811   4.517 -0.4008 -0.3421 -0.0632
 2823SOL    HW211345   2.915   2.832   4.557  0.1581 -1.3842  1.7299
 2823SOL    HW311346   3.035   2.740   4.571  1.2305 -0.5169 -1.3156
 2823SOL    MW411347   2.993   2.804   4.529 -0.1118 -0.5028  0.0076
 2824SOL     OW11348   3.404   2.012   4.550 -0.2522  0.2557  0.1088
 2824SOL    HW211349   3.382   2.043   4.462 -0.0007  0.3880  0.0939
 2824SOL    HW311350   3.321   2.018   4.598  0.0715  2.1332  0.4590
 2824SOL    MW411351   3.390   2.017   4.545 -0.1764  0.5207  0.1531
 2825SOL     OW11352   2.786   3.154   4.538  0.2851  0.4266 -0.5621
 2825SOL    HW211353   2.870   3.168   4.582 -0.5312 -2.0941  1.9538
 2825SOL    HW311354   2.765   3.062   4.555 -4.0238  1.5228  0.8541
 2825SOL    MW411355   2.794   3.144   4.546 -0.3912  0.2387 -0.0434
 2826SOL     OW11356   3.272   3.236   4.515  0.1336 -0.2562 -0.3872
 2826SOL    HW211357   3.254   3.151   4.556  0.2818 -0.8473 -1.5230
 2826SOL    HW311358   3.226   3.232   4.431 -1.1193  1.3835  0.1832
 2826SOL    MW411359   3.263   3.224   4.509 -0.0119 -0.1180 -0.4621
 2827SOL     OW11360   3.211   4.311   4.696 -0.2553  0.3372  0.1970
 2827SOL    HW211361   3.264   4.245   4.651 -0.4985  0.4691 -0.2985
 2827SOL    HW311362   3.265   4.389   4.699  1.0045 -0.5847  3.0396
 2827SOL    MW411363   3.225   4.313   4.690 -0.1214  0.2327  0.5069
 2828SOL     OW11364   3.639   2.709   4.656  0.3769  0.0257 -0.2477
 2828SOL    HW211365   3.633   2.627   4.705 -1.7180  0.7304  0.7655
 2828SOL    HW311366   3.562   2.710   4.600  0.2671  1.3821 -0.1046
 2828SOL    MW411367   3.628   2.698   4.655  0.0861  0.2978 -0.0949
 2829SOL     OW11368   3.961   3.005   4.623  0.0182  0.1514 -0.0936
 2829SOL    HW211369   4.000   3.087   4.592  0.3850  0.4010  1.0152
 2829SOL    HW311370   3.872   3.030   4.649  0.2433  0.2770  0.5715
 2829SOL    MW411371   3.954   3.019   4.622  0.0961  0.2007  0.1402
 2830SOL     OW11372   3.107   3.455   4.560  0.5351  0.1486  0.2124
 2830SOL    HW211373   3.167   3.381   4.548 -0.1007 -0.3119 -0.2116
 2830SOL    HW311374   3.162   3.533   4.552  1.2212 -0.2865  0.7189
 2830SOL    MW411375   3.122   3.455   4.557  0.5419  0.0303  0.2236
 2831SOL     OW11376   2.984   0.034   4.544  0.0361 -0.6348 -0.1400
 2831SOL    HW211377   2.944  -0.053   4.542 -2.9082  0.6490  0.0125
 2831SOL    HW311378   2.910   0.095   4.548  2.0378  1.8271  1.8725
 2831SOL    MW411379   2.969   0.031   4.544 -0.0885 -0.1407  0.1454
 2832SOL     OW11380   3.241   3.701   4.535  0.0453  0.2688 -0.0203
 2832SOL    HW211381   3.270   3.687   4.445  0.6216 -0.7756  0.3197
 2832SOL    HW311382   3.322   3.714   4.585 -0.2487  0.4975  0.4060
 2832SOL    MW411383   3.256   3.701   4.530  0.0827  0.1609  0.0806
 2833SOL     OW11384   0.817   0.693   4.530 -0.6310 -0.6638 -0.3123
 2833SOL    HW211385   0.816   0.755   4.604  0.2770 -1.4770  0.3956
 2833SOL    HW311386   0.841   0.747   4.455  0.7816 -0.2364  0.4108
 2833SOL    MW411387   0.820   0.709   4.530 -0.3248 -0.7147 -0.1235
 2834SOL     OW11388   2.902   0.032   4.144  0.0506  0.4892  0.4440
 2834SOL    HW211389   2.892  -0.056   4.181  0.2204  0.7813  1.1979
 2834SOL    HW311390   2.984   0.064   4.182 -0.8133  1.5887  1.4426
 2834SOL    MW411391   2.912   0.024   4.154 -0.0410  0.6728  0.6752
 2835SOL     OW11392   2.530   3.831   4.645 -0.1246 -0.1300  0.2574
 2835SOL    HW211393   2.488   3.754   4.609  0.6721  0.8414 -2.8515
 2835SOL    HW311394   2.617   3.802   4.671 -1.3386 -1.2733  3.3134
 2835SOL    MW411395   2.536   3.817   4.644 -0.1798 -0.1526  0.2503
 2836SOL     OW11396   2.652   0.365   4.144  0.0310  0.2328 -0.1736
 2836SOL    HW211397   2.680   0.351   4.053  0.5610 -0.6869  0.1186
 2836SOL    HW311398   2.557   0.374   4.139  0.0328 -0.0664 -0.8005
 2836SOL    MW411399   2.643   0.364   4.131  0.1013  0.0720 -0.2179
 2837SOL     OW11400   3.564   0.879   4.228 -0.1557  0.6853  0.3956
 2837SOL    HW211401   3.565   0.965   4.187 -0.6458 -0.2288 -1.6320
 2837SOL    HW311402   3.480   0.841   4.204  0.5312 -0.8070  0.2553
 2837SOL    MW411403   3.553   0.885   4.219 -0.1297  0.3678  0.1097
 2838SOL     OW11404   3.354   1.651   4.651  0.2982 -0.0195  0.1915
 2838SOL    HW211405   3.435   1.690   4.618  0.3901 -0.7639 -0.4710
 2838SOL    HW311406   3.377   1.561   4.670 -0.5608 -0.4332 -0.6919
 2838SOL    MW411407   3.368   1.645   4.649  0.1972 -0.1724 -0.0129
 2839SOL     OW11408   3.158   2.000   4.671 -0.0154 -0.1643  0.0256
 2839SOL    HW211409   3.167   2.083   4.717 -0.3791  0.2230 -0.5758
 2839SOL    HW311410   3.183   1.933   4.734 -0.8554  0.3301  0.8942
 2839SOL    MW411411   3.162   2.002   4.685 -0.1740 -0.0482  0.0606
 2840SOL     OW11412   3.385   2.666   4.510  0.1748 -0.6483 -0.0885
 2840SOL    HW211413   3.357   2.715   4.433  0.7855 -0.1790 -0.0184
 2840SOL    HW311414   3.306   2.655   4.562  0.1181  0.7024  0.1307
 2840SOL    MW411415   3.371   2.671   4.507  0.2480 -0.4082 -0.0501
 2841SOL     OW11416   0.224   2.545   4.622 -0.2768 -0.3366 -0.2419
 2841SOL    HW211417   0.289   2.493   4.574  0.0047  1.4463 -1.8622
 2841SOL    HW311418   0.228   2.511   4.712  1.9151 -1.1948 -0.6254
 2841SOL    MW411419   0.233   2.533   4.628  0.0495 -0.2148 -0.5064
 2842SOL     OW11420   3.664   3.516   4.544 -0.1998  0.0510  0.2476
 2842SOL    HW211421   3.710   3.556   4.470 -1.3365  0.6745 -0.1431
 2842SOL    HW311422   3.640   3.429   4.512  2.7255 -1.1719  1.2809
 2842SOL    MW411423   3.667   3.510   4.530  0.0362 -0.0279  0.3319
 2843SOL     OW11424   3.926   2.508   4.526  0.4052 -0.1173  0.0898
 2843SOL    HW211425   4.021   2.515   4.535  0.3224  1.1109  0.0903
 2843SOL    HW311426   3.895   2.599   4.523 -0.6680 -0.4989 -0.9834
 2843SOL    MW411427   3.934   2.521   4.527  0.2525 -0.0057 -0.0515
 2844SOL     OW11428   3.015   3.200   4.694  0.1393 -0.1071  0.2248
 2844SOL    HW211429   3.087   3.141   4.672  1.5692  0.9917  1.8148
 2844SOL    HW311430   3.055   3.287   4.692 -1.4115  0.6093  0.1342
 2844SOL    MW411431   3.030   3.204   4.691  0.1235  0.1321  0.4230
 2845SOL     OW11432   0.197   2.861   4.319  0.0902  0.3783  0.0951
 2845SOL    HW211433   0.262   2.794   4.296  0.9692  1.1219  0.3619
 2845SOL    HW311434   0.235   2.942   4.286 -0.7142  0.8184  0.2571
 2845SOL    MW411435   0.211   2.863   4.312  0.1000  0.5348  0.1516
 2846SOL     OW11436   1.371   1.668   4.291  0.1479  0.0853  0.6778
 2846SOL    HW211437   1.363   1.754   4.248 -0.1301 -0.5438 -0.5544
 2846SOL    HW311438   1.335   1.683   4.379 -0.3185  1.1291  0.3320
 2846SOL    MW411439   1.365   1.682   4.297  0.0497  0.1398  0.4697
 2847SOL     OW11440   0.379   0.646   4.543  0.0135 -0.1690 -0.1706
 2847SOL    HW211441   0.370   0.652   4.638 -0.5799  0.8503 -0.2823
 2847SOL    HW311442   0.295   0.611   4.513  0.1433 -0.3415 -0.3336
 2847SOL    MW411443   0.366   0.643   4.552 -0.0477 -0.0573 -0.2065
 2848SOL     OW11444   3.812   0.770   4.145 -0.2242  0.5600 -0.2563
 2848SOL    HW211445   3.726   0.803   4.171 -1.2184 -1.4509 -0.8886
 2848SOL    HW311446   3.813   0.776   4.049 -0.6334 -1.6279 -0.4357
 2848SOL    MW411447   3.801   0.775   4.136 -0.4091  0.0060 -0.3638
 2849SOL     OW11448   4.470   0.873   4.237 -0.3648 -0.2892 -0.3466
 2849SOL    HW211449   4.393   0.821   4.215 -0.2991 -0.0057 -1.2857
 2849SOL    HW311450   4.544   0.817   4.213 -0.2909 -0.1676 -0.4031
 2849SOL    MW411451   4.470   0.859   4.231 -0.3462 -0.2357 -0.4778
 2850SOL     OW11452   2.509   2.102   4.555  0.3762 -0.2068  0.0162
 2850SOL    HW211453   2.571   2.030   4.569 -0.0837 -0.6176 -0.0380
 2850SOL    HW311454   2.479   2.126   4.643 -1.1800 -1.6062 -0.1040
 2850SOL    MW411455   2.513   2.096   4.569  0.1104 -0.4458 -0.0072
 2851SOL     OW11456   2.423   1.516   4.644 -0.1393  0.5698 -0.4526
 2851SOL    HW211457   2.427   1.521   4.740 -1.6670 -3.4691 -0.0689
 2851SOL    HW311458   2.353   1.575   4.620  1.2047  2.7304  0.7493
 2851SOL    MW411459   2.415   1.524   4.654 -0.1638  0.3220 -0.2437
 2852SOL     OW11460   3.517   1.409   4.661  0.3524  0.2401 -0.0700
 2852SOL    HW211461   3.550   1.356   4.733  1.0538 -0.5178 -0.9350
 2852SOL    HW311462   3.457   1.351   4.614 -1.8646  1.4387  1.1902
 2852SOL    MW411463   3.513   1.394   4.664  0.1526  0.2983 -0.0181
 2853SOL     OW11464   3.878   1.700   4.564 -0.6589 -0.0965 -0.0981
 2853SOL    HW211465   3.827   1.625   4.593 -1.2868 -0.0748 -1.1379
 2853SOL    HW311466   3.816   1.772   4.560 -0.1178  0.4231  0.6127
 2853SOL    MW411467   3.863   1.699   4.567 -0.6707 -0.0252 -0.1416
 2854SOL     OW11468   3.867   0.575   4.525  0.2202 -0.1883 -0.0539
 2854SOL    HW211469   3.904   0.645   4.578  1.0375  0.5447 -1.5610
 2854SOL    HW311470   3.905   0.494   4.561  1.9053  0.4126 -0.4418
 2854SOL    MW411471   3.877   0.573   4.537  0.5503 -0.0123 -0.3042
 2855SOL     OW11472   3.350   3.650   4.272 -0.2075  0.1334  0.3370
 2855SOL    HW211473   3.274   3.595   4.250 -0.3087  1.0345 -1.6632
 2855SOL    HW311474   3.425   3.590   4.268 -0.5112 -0.2180 -0.1753
 2855SOL    MW411475   3.350   3.635   4.269 -0.2608  0.2058  0.0057
 2856SOL     OW11476   0.539   3.510   4.662 -0.3852  0.0831  0.4355
 2856SOL    HW211477   0.505   3.600   4.668 -1.5445 -0.2608 -0.5167
 2856SOL    HW311478   0.634   3.519   4.668 -0.4944  1.3759  0.3641
 2856SOL    MW411479   0.547   3.523   4.663 -0.5525  0.2081  0.3004
 2857SOL     OW11480   1.497   1.971   4.517  0.3667  0.1417 -0.0874
 2857SOL    HW211481   1.481   2.042   4.580  1.6658 -0.9377  1.4836
 2857SOL    HW311482   1.530   2.016   4.439  1.1761  1.2941  0.8875
 2857SOL    MW411483   1.499   1.986   4.515  0.6448  0.1513  0.2484
 2858SOL     OW11484   2.660   3.205   4.972 -0.5242 -0.0946  0.0090
 2858SOL    HW211485   2.735   3.149   4.949 -0.2285  0.2874  0.0482
 2858SOL    HW311486   2.696   3.294   4.973 -1.0572  0.1240 -0.3214
 2858SOL    MW411487   2.675   3.209   4.969 -0.5555 -0.0153 -0.0296
 2859SOL     OW11488   2.055   1.539   4.840  0.2556 -0.2277 -0.2377
 2859SOL    HW211489   2.139   1.564   4.878  0.3888 -0.0552 -0.6453
 2859SOL    HW311490   1.997   1.611   4.861  0.2457 -0.2789 -0.0864
 2859SOL    MW411491   2.059   1.551   4.848  0.2718 -0.2117 -0.2723
 2860SOL     OW11492   2.040   4.346   4.554 -0.6117  0.0368 -0.7276
 2860SOL    HW211493   1.982   4.418   4.578  0.9718  0.6366  1.5751
 2860SOL    HW311494   1.991   4.267   4.576 -1.7122  0.4448 -1.6877
 2860SOL    MW411495   2.026   4.345   4.560 -0.5479  0.1698 -0.5507
 2861SOL     OW11496   2.859   0.534   4.270 -0.3708  0.1636 -0.0834
 2861SOL    HW211497   2.866   0.496   4.357  0.0338  0.0901 -0.1503
 2861SOL    HW311498   2.783   0.490   4.231  1.2136 -1.9789 -0.8650
 2861SOL    MW411499   2.850   0.523   4.276 -0.1085 -0.1288 -0.1950
 2862SOL     OW11500   3.847   2.776   4.497 -0.3598 -0.2143 -0.0109
 2862SOL    HW211501   3.773   2.758   4.556 -0.3800 -2.3553 -0.6373
 2862SOL    HW311502   3.895   2.847   4.540 -1.8992  0.1413  1.1948
 2862SOL    MW411503   3.844   2.783   4.511 -0.5658 -0.4499  0.0648
 2863SOL     OW11504   1.807   0.178   4.519  0.2306 -0.0588  0.2847
 2863SOL    HW211505   1.783   0.138   4.436 -0.6694  3.2962 -1.1086
 2863SOL    HW311506   1.857   0.109   4.565 -1.3614 -2.7872 -1.9438
 2863SOL    MW411507   1.811   0.163   4.514 -0.0983  0.0238 -0.1931
 2864SOL     OW11508   1.834   0.558   4.634  0.1342 -0.0177 -0.0237
 2864SOL    HW211509   1.892   0.483   4.623  0.7361  0.3171  0.7963
 2864SOL    HW311510   1.885   0.632   4.601  0.5320  0.4207  1.5719
 2864SOL    MW411511   1.849   0.558   4.628  0.2662  0.0843  0.2952
 2865SOL     OW11512   4.104   3.244   4.548 -0.5266 -0.0811  0.8750
 2865SOL    HW211513   4.084   3.225   4.457  0.0916 -0.8256  0.8838
 2865SOL    HW311514   4.022   3.278   4.585 -0.4126  1.5265 -0.2925
 2865SOL    MW411515   4.091   3.246   4.541 -0.4301  0.0329  0.7219
 2866SOL     OW11516   3.876   2.087   4.515 -0.4086  0.2357  0.0585
 2866SOL    HW211517   3.815   2.152   4.549 -1.0975 -0.4650  0.1711
 2866SOL    HW311518   3.960   2.132   4.513 -0.9911  1.3448 -0.4714
 2866SOL    MW411519   3.879   2.102   4.519 -0.5765  0.2894  0.0038
 2867SOL     OW11520   0.197   2.099   4.227  0.1117  0.1219 -0.6133
 2867SOL    HW211521   0.181   2.179   4.177  1.4806  1.3600  0.8626
 2867SOL    HW311522   0.278   2.063   4.191  0.4386  0.3579 -0.1256
 2867SOL    MW411523   0.205   2.105   4.216  0.3354  0.3164 -0.3538
 2868SOL     OW11524   2.820   2.423   4.852 -0.1503 -0.4051  0.0092
 2868SOL    HW211525   2.776   2.507   4.847 -0.1802 -0.3578  0.9338
 2868SOL    HW311526   2.784   2.372   4.779  0.1403  0.4955 -0.7746
 2868SOL    MW411527   2.809   2.427   4.842 -0.1159 -0.2799  0.0281
 2869SOL     OW11528   0.409   1.980   4.561 -0.1604  0.1896  0.3132
 2869SOL    HW211529   0.492   2.021   4.538 -0.0936  0.2875  0.7225
 2869SOL    HW311530   0.421   1.887   4.542 -0.1320  0.2765 -0.1095
 2869SOL    MW411531   0.421   1.973   4.555 -0.1479  0.2140  0.3114
 2870SOL     OW11532   4.069   1.641   4.268 -0.5218  0.8470  0.1813
 2870SOL    HW211533   4.058   1.637   4.363 -0.8789 -0.4289  0.0933
 2870SOL    HW311534   4.149   1.592   4.251 -1.4262 -0.4580 -0.3403
 2870SOL    MW411535   4.078   1.634   4.278 -0.6886  0.5065  0.1006
 2871SOL     OW11536   4.481   1.687   4.515  0.2388  0.2667  0.1008
 2871SOL    HW211537   4.444   1.772   4.539  1.9474  0.8692  0.7290
 2871SOL    HW311538   4.409   1.626   4.525 -1.2975  1.7848 -1.3590
 2871SOL    MW411539   4.467   1.690   4.520  0.2613  0.5465 -0.0086
 2872SOL     OW11540   4.005   2.394   4.252  0.3943 -0.3966  0.3500
 2872SOL    HW211541   3.977   2.413   4.341 -0.7118 -0.8072  0.0924
 2872SOL    HW311542   3.937   2.337   4.217  0.5942  0.1237 -0.9057
 2872SOL    MW411543   3.993   2.389   4.259  0.2754 -0.3822  0.1507
 2873SOL     OW11544   1.495   0.035   4.791 -0.1422 -0.1380  0.2293
 2873SOL    HW211545   1.534   0.109   4.745 -0.4152 -0.5343 -0.6554
 2873SOL    HW311546   1.487   0.065   4.882  0.6465  0.5566  0.0826
 2873SOL    MW411547   1.499   0.049   4.797 -0.0741 -0.0987  0.0935
 2874SOL     OW11548   4.053   3.217   4.280 -0.2254  0.0995 -0.0770
 2874SOL    HW211549   4.125   3.177   4.232 -0.5727  0.3641 -0.8197
 2874SOL    HW311550   3.975   3.171   4.249 -0.4980  0.5712 -0.0946
 2874SOL    MW411551   4.052   3.205   4.270 -0.3071  0.1967 -0.1769
 2875SOL     OW11552   0.194   3.665   4.546  0.5160  0.3793 -0.1937
 2875SOL    HW211553   0.204   3.656   4.451 -1.3973  0.0255 -0.3813
 2875SOL    HW311554   0.182   3.575   4.577 -0.4110  0.6258  0.1840
 2875SOL    MW411555   0.193   3.652   4.538  0.1413  0.3653 -0.1688
 2876SOL     OW11556   0.150   3.380   4.503  0.3105  0.0364 -0.1415
 2876SOL    HW211557   0.075   3.321   4.508  0.3758 -0.0488 -0.1799
 2876SOL    HW311558   0.133   3.433   4.424 -0.0667  0.5017  0.2505
 2876SOL    MW411559   0.138   3.379   4.493  0.2693  0.0863 -0.0944
 2877SOL     OW11560   4.045   3.999   4.492  0.0828 -0.2098  0.4257
 2877SOL    HW211561   4.091   3.918   4.514  0.2056  0.3181  2.2021
 2877SOL    HW311562   4.108   4.069   4.511 -0.6718  0.3980  0.7661
 2877SOL    MW411563   4.059   3.998   4.497 -0.0005 -0.0601  0.7048
 2878SOL     OW11564   3.579   4.266   4.120  0.2643 -0.4738  0.3332
 2878SOL    HW211565   3.569   4.182   4.163 -0.6118 -0.1060  0.8695
 2878SOL    HW311566   3.658   4.304   4.158  0.3629 -0.8251  0.4719
 2878SOL    MW411567   3.588   4.260   4.130  0.1616 -0.4716  0.4220
 2879SOL     OW11568   2.883   4.441   4.272  0.1557  0.0044 -0.1524
 2879SOL    HW211569   2.885   4.430   4.367  1.3333 -1.2000 -0.3008
 2879SOL    HW311570   2.972   4.420   4.243 -0.2483  0.1483 -1.5437
 2879SOL    MW411571   2.895   4.437   4.280  0.2575 -0.1349 -0.3557
 2880SOL     OW11572   3.184   1.653   4.209 -0.3891 -0.2995  0.5852
 2880SOL    HW211573   3.178   1.674   4.302  0.5382 -1.3413  0.8895
 2880SOL    HW311574   3.103   1.606   4.190 -0.2131 -0.8254  1.0841
 2880SOL    MW411575   3.173   1.649   4.219 -0.2434 -0.5064  0.6914
 2881SOL     OW11576   3.119   4.322   4.208  0.0212 -0.3421  0.7893
 2881SOL    HW211577   3.112   4.226   4.205  0.7354 -0.4034  1.0168
 2881SOL    HW311578   3.198   4.338   4.260 -0.4697  0.3826  1.3038
 2881SOL    MW411579   3.129   4.311   4.215  0.0505 -0.2546  0.8874
 2882SOL     OW11580   3.990   0.120   4.309  0.0095  0.6379  0.1117
 2882SOL    HW211581   4.030   0.183   4.247 -0.9097  0.3627 -0.7751
 2882SOL    HW311582   3.922   0.076   4.257  0.2580 -0.6818  0.8970
 2882SOL    MW411583   3.986   0.123   4.294 -0.0792  0.4275  0.0987
 2883NA      NA11584   2.766   3.264   0.491  0.2075  0.1873  0.0666
   4.49070   4.66690  10.00000
