Gromacs Runs On Most of All Computer Systems in water t=   0.00000 step= 0
11584
    1RU5    O5'    1   2.539   2.355   5.411 -0.5381 -0.0869  0.5124
    1RU5    H5T    2   2.627   2.351   5.450 -0.8873 -0.1041  1.2949
    1RU5    C5'    3   2.507   2.488   5.377  0.3153  0.3751  0.2346
    1RU5   H5'1    4   2.583   2.524   5.307 -1.1808  3.2425 -0.0073
    1RU5   H5'2    5   2.512   2.548   5.468 -0.6781 -1.3123  1.4327
    1RU5    C4'    6   2.370   2.494   5.315  0.3269 -0.3133  0.5708
    1RU5    H4'    7   2.343   2.598   5.297 -0.6259 -0.3925  1.4838
    1RU5    O4'    8   2.371   2.421   5.190  0.1991  0.0049  0.1396
    1RU5    C1'    9   2.235   2.369   5.178 -0.0853  0.2821  0.2409
    1RU5    H1'   10   2.187   2.425   5.098 -0.9674 -2.7694 -1.4830
    1RU5     N1   11   2.238   2.227   5.138 -0.8080  0.3603  0.3499
    1RU5     C6   12   2.321   2.154   5.217  0.3521  0.1485 -0.5006
    1RU5     H6   13   2.375   2.202   5.296 -0.9142  1.2522 -0.2986
    1RU5     C5   14   2.337   2.021   5.196 -0.7316  0.3645 -1.0251
    1RU5     H5   15   2.403   1.962   5.257 -0.2393  0.7372 -1.1890
    1RU5     C4   16   2.262   1.963   5.089 -0.3018 -0.1348  0.3168
    1RU5     O4   17   2.273   1.832   5.064 -0.5071  0.3542 -0.2323
    1RU5     N3   18   2.180   2.037   5.013 -0.0316  0.0309  0.6503
    1RU5     H3   19   2.128   1.993   4.938  0.1571 -0.2808  0.7003
    1RU5     C2   20   2.166   2.170   5.035  0.0840  0.2014 -0.3545
    1RU5     O2   21   2.091   2.238   4.965  0.4167 -0.1737 -0.2052
    1RU5    C3'   22   2.271   2.422   5.405  0.3733  0.6748 -0.4800
    1RU5    H3'   23   2.311   2.339   5.463 -0.6518  0.7315  0.3316
    1RU5    C2'   24   2.159   2.386   5.308  0.3917  0.1171  0.1612
    1RU5   H2'1   25   2.096   2.301   5.336  1.4100 -1.2997 -1.6524
    1RU5    O2'   26   2.069   2.494   5.298 -0.2871 -0.5343  0.0833
    1RU5   HO'2   27   2.021   2.504   5.381  0.5316 -2.7696  0.8579
    1RU5    O3'   28   2.222   2.510   5.504 -0.2198  0.2782  0.2083
    2RG3      P   29   2.248   2.478   5.660 -0.1340 -0.2631 -0.2500
    2RG3    O1P   30   2.208   2.597   5.738  0.0843  0.0268 -0.3564
    2RG3    O2P   31   2.386   2.424   5.673  0.2668 -0.2579 -0.3648
    2RG3    O5'   32   2.145   2.359   5.693 -0.1820  0.2324  0.4344
    2RG3    C5'   33   2.008   2.386   5.723  0.3325  0.4578  0.0889
    2RG3   H5'1   34   1.967   2.446   5.642 -0.2708 -0.3958 -0.2328
    2RG3   H5'2   35   2.004   2.444   5.815  1.6555  0.5424  0.1117
    2RG3    C4'   36   1.934   2.257   5.739 -0.4385  0.2424 -0.1599
    2RG3    H4'   37   1.830   2.279   5.764 -0.1724 -0.1266  1.3069
    2RG3    O4'   38   1.937   2.182   5.615  0.0496 -0.0031 -0.3614
    2RG3    C1'   39   1.947   2.044   5.650  0.1700 -0.3788  0.3829
    2RG3    H1'   40   1.855   1.997   5.614  1.7342 -2.2934 -1.1644
    2RG3     N9   41   2.064   1.987   5.583 -0.5634  0.1302  0.0261
    2RG3     C8   42   2.194   2.034   5.583  0.0772 -0.1818 -0.0527
    2RG3     H8   43   2.225   2.123   5.635  1.0796 -0.1012 -0.7675
    2RG3     N7   44   2.276   1.960   5.513  0.2031  0.3738  0.4387
    2RG3     C5   45   2.195   1.858   5.464 -0.0438  0.0157  0.4725
    2RG3     C6   46   2.223   1.747   5.382  1.1517 -0.4129  0.5355
    2RG3     O6   47   2.335   1.723   5.338 -0.1609 -0.9436 -0.4418
    2RG3     N1   48   2.112   1.667   5.355  0.3006 -0.2559 -0.1633
    2RG3     H1   49   2.127   1.586   5.296  0.6203 -0.1209 -0.2687
    2RG3     C2   50   1.979   1.688   5.401  0.6100 -0.1124 -0.3067
    2RG3     N2   51   1.876   1.607   5.372 -0.2837 -0.5704  0.1291
    2RG3    H21   52   1.890   1.525   5.314  0.9062  0.1850 -0.6769
    2RG3    H22   53   1.784   1.627   5.408  0.4745  1.6605  0.8945
    2RG3     N3   54   1.960   1.794   5.478 -0.2816  0.1531 -0.1615
    2RG3     C4   55   2.066   1.874   5.506 -0.3541  0.4275 -0.1843
    2RG3    C3'   56   2.003   2.170   5.842  0.4943 -0.6328  0.5873
    2RG3    H3'   57   2.111   2.186   5.851  0.0856  1.9040  1.2381
    2RG3    C2'   58   1.962   2.030   5.801 -0.1493  0.2075 -0.3717
    2RG3   H2'1   59   2.026   1.948   5.834 -1.3001 -0.5604 -0.0090
    2RG3    O2'   60   1.836   2.000   5.858 -0.2421  0.0878 -0.1887
    2RG3   HO'2   61   1.846   1.990   5.953 -0.1871 -1.0662 -0.3038
    2RG3    O3'   62   1.954   2.199   5.972  0.2769  0.0617 -0.3844
    2RG3    H3T   63   1.999   2.144   6.037 -0.3650  0.3209  0.2935
    3SOL     OW   64   0.355   0.147   0.481  0.6476 -0.0007  0.3900
    3SOL    HW2   65   0.448   0.161   0.466  0.7274 -0.5033  0.4086
    3SOL    HW3   66   0.312   0.218   0.433  1.1233  1.5224  2.1577
    3SOL    MW4   67   0.362   0.158   0.473  0.0005  0.0001 -0.0000
    4SOL     OW   68   3.984   0.231   0.489  0.5793  0.0895  0.5948
    4SOL    HW2   69   4.063   0.181   0.469  1.0731  1.0153  0.1796
    4SOL    HW3   70   3.990   0.309   0.433 -1.6004 -0.7541 -0.8858
    4SOL    MW4   71   3.995   0.235   0.479  0.0005  0.0001 -0.0000
    5SOL     OW   72   3.790   0.311   0.132 -0.5243  0.2636  0.0911
    5SOL    HW2   73   3.715   0.293   0.075 -0.9484  1.0878  0.3880
    5SOL    HW3   74   3.773   0.260   0.211 -1.2278  1.1555  0.5251
    5SOL    MW4   75   3.778   0.302   0.135  0.0005  0.0001 -0.0000
    6SOL     OW   76   4.462   1.673   0.514  0.2483 -0.2020 -0.6427
    6SOL    HW2   77   4.486   1.657   0.605 -2.0161 -2.5755 -0.4069
    6SOL    HW3   78   4.537   1.641   0.464  1.0367  0.0871  0.3351
    6SOL    MW4   79   4.475   1.667   0.519  0.0005  0.0001 -0.0000
    7SOL     OW   80   1.324   0.826   0.288  0.0482  0.2381 -0.0709
    7SOL    HW2   81   1.230   0.835   0.306  0.2103 -0.6533  1.2930
    7SOL    HW3   82   1.328   0.792   0.199 -1.0136 -1.8605  0.6481
    7SOL    MW4   83   1.312   0.823   0.279  0.0005  0.0001 -0.0000
    8SOL     OW   84   0.166   0.552   0.486  0.5811 -0.2492 -0.1036
    8SOL    HW2   85   0.179   0.549   0.581  0.9377  0.4369 -0.1297
    8SOL    HW3   86   0.146   0.461   0.462 -1.3117 -0.1190  0.8767
    8SOL    MW4   87   0.165   0.540   0.495  0.0005  0.0001 -0.0000
    9SOL     OW   88   0.416   0.913   0.476 -0.2601 -0.1185 -0.2420
    9SOL    HW2   89   0.438   0.886   0.565  0.9199  0.2301 -0.4194
    9SOL    HW3   90   0.397   0.831   0.430 -0.7832 -0.3058  0.3014
    9SOL    MW4   91   0.416   0.899   0.482  0.0005  0.0001 -0.0000
   10SOL     OW   92   0.782   0.858   0.443 -0.0706 -0.0155  0.1209
   10SOL    HW2   93   0.823   0.895   0.521 -1.5613 -0.4771  1.1432
   10SOL    HW3   94   0.748   0.934   0.396 -1.6046  0.0818  1.3444
   10SOL    MW4   95   0.783   0.873   0.447  0.0005  0.0001 -0.0000
   11SOL     OW   96   0.624   1.042   0.308 -0.4263  0.4450 -0.3953
   11SOL    HW2   97   0.594   1.056   0.218  0.3978 -0.2789 -0.7961
   11SOL    HW3   98   0.545   1.018   0.357 -0.8390  0.6149 -0.9757
   11SOL    MW4   99   0.610   1.041   0.303  0.0005  0.0001 -0.0000
   12SOL     OW  100   4.284   1.808   0.172 -0.1639  0.0523 -0.5143
   12SOL    HW2  101   4.260   1.753   0.247  0.0497  1.5293  0.6680
   12SOL    HW3  102   4.248   1.894   0.194 -0.9918  0.2618 -2.6019
   12SOL    MW4  103   4.276   1.812   0.185  0.0005  0.0001 -0.0000
   13SOL     OW  104   4.213   1.628   0.400  0.2708 -0.0573  0.2510
   13SOL    HW2  105   4.153   1.695   0.432 -0.0467  0.6317 -1.7037
   13SOL    HW3  106   4.294   1.643   0.448 -0.0330  1.2457  0.3716
   13SOL    MW4  107   4.216   1.639   0.411  0.0005  0.0001 -0.0000
   14SOL     OW  108   0.051   1.930   0.377  0.2859 -0.4461  0.4073
   14SOL    HW2  109   0.014   1.862   0.433 -2.5496  1.1708  0.5945
   14SOL    HW3  110   0.037   1.899   0.288  0.8254 -1.0125  0.5174
   14SOL    MW4  111   0.044   1.917   0.373  0.0005  0.0001 -0.0000
   15SOL     OW  112   0.157   2.495   0.334 -0.3503  0.4861 -0.2971
   15SOL    HW2  113   0.106   2.477   0.255 -0.4234 -1.2061  0.1159
   15SOL    HW3  114   0.248   2.491   0.306 -0.3764 -0.1238 -0.2997
   15SOL    MW4  115   0.162   2.492   0.320  0.0005  0.0001 -0.0000
   16SOL     OW  116   4.310   2.814   0.476  0.0063 -0.5026 -0.3331
   16SOL    HW2  117   4.402   2.787   0.475 -0.0482 -0.7140  0.2675
   16SOL    HW3  118   4.314   2.910   0.479  0.2042 -0.4974 -0.7029
   16SOL    MW4  119   4.323   2.823   0.476  0.0005  0.0001 -0.0000
   17SOL     OW  120   4.284   3.411   0.438  0.0490  0.3542 -0.5252
   17SOL    HW2  121   4.223   3.344   0.468 -1.0586  0.2646 -2.8664
   17SOL    HW3  122   4.356   3.362   0.399  0.6902  0.4960  0.4637
   17SOL    MW4  123   4.285   3.396   0.437  0.0005  0.0001 -0.0000
   18SOL     OW  124   0.328   3.212   0.323  0.7615 -0.1854  0.2360
   18SOL    HW2  125   0.357   3.204   0.414  0.8331  1.1972  0.3439
   18SOL    HW3  126   0.404   3.247   0.276  0.0346  1.2188  0.0764
   18SOL    MW4  127   0.342   3.216   0.329  0.0005  0.0001 -0.0000
   19SOL     OW  128   0.844   3.411   0.387 -0.4923 -0.8555  0.2354
   19SOL    HW2  129   0.892   3.457   0.318  1.2226 -2.1959  0.4926
   19SOL    HW3  130   0.818   3.480   0.448 -1.0689  0.1984 -1.1768
   19SOL    MW4  131   0.847   3.426   0.386  0.0005  0.0001 -0.0000
   20SOL     OW  132   0.972   3.808   0.287 -0.2421 -0.2279 -0.5627
   20SOL    HW2  133   1.030   3.884   0.296 -0.0592 -0.3305 -0.8586
   20SOL    HW3  134   0.890   3.835   0.328 -0.1155  0.0634 -0.5015
   20SOL    MW4  135   0.969   3.822   0.294  0.0005  0.0001 -0.0000
   21SOL     OW  136   3.815   3.350   0.431  0.0624 -0.0856  0.4282
   21SOL    HW2  137   3.817   3.438   0.468  2.0721  0.2325 -0.3717
   21SOL    HW3  138   3.905   3.334   0.403  0.0896 -3.0104  2.0043
   21SOL    MW4  139   3.827   3.360   0.432  0.0005  0.0001 -0.0000
   22SOL     OW  140   4.479   3.850   0.448  0.3779  0.2599  0.1078
   22SOL    HW2  141   4.403   3.795   0.467  0.2570  0.2500 -0.3964
   22SOL    HW3  142   4.446   3.940   0.455  0.6917  0.2836  1.4165
   22SOL    MW4  143   4.465   3.855   0.451  0.0005  0.0001 -0.0000
   23SOL     OW  144   0.203   4.545   0.507 -0.3506 -0.6681  0.1366
   23SOL    HW2  145   0.251   4.623   0.480  0.1249 -0.6724  0.9403
   23SOL    HW3  146   0.199   4.490   0.429  1.0116 -0.6947  0.0779
   23SOL    MW4  147   0.209   4.548   0.493  0.0005  0.0001 -0.0000
   24SOL     OW  148   0.108   4.393   0.282 -0.2724  0.3874  0.2873
   24SOL    HW2  149   0.020   4.370   0.312  0.3706 -2.6452  0.0105
   24SOL    HW3  150   0.100   4.402   0.187  0.2411 -2.8071 -0.1139
   24SOL    MW4  151   0.095   4.391   0.273  0.0005  0.0001 -0.0000
   25SOL     OW  152   4.335   4.323   0.397 -0.0883 -0.0551  0.2544
   25SOL    HW2  153   4.310   4.244   0.445 -0.0099  0.0960  0.5452
   25SOL    HW3  154   4.254   4.374   0.391 -0.6378 -1.1136 -1.7834
   25SOL    MW4  155   4.321   4.319   0.403  0.0005  0.0001 -0.0000
   26SOL     OW  156   0.432   3.669   0.499 -0.3158  0.3875 -0.4061
   26SOL    HW2  157   0.526   3.654   0.501 -0.2908  0.6754  1.4776
   26SOL    HW3  158   0.423   3.763   0.483 -0.2662  0.4808  0.1046
   26SOL    MW4  159   0.443   3.679   0.497  0.0005  0.0001 -0.0000
   27SOL     OW  160   0.737   0.008   0.357 -0.5617 -0.3810 -0.6034
   27SOL    HW2  161   0.830   0.006   0.378 -0.1668  1.6623 -2.0068
   27SOL    HW3  162   0.727  -0.055   0.285 -0.3546 -0.9268 -0.1579
   27SOL    MW4  163   0.748  -0.001   0.350  0.0005  0.0001 -0.0000
   28SOL     OW  164   0.106   0.263   0.398  0.3230 -0.2358  0.5034
   28SOL    HW2  165   0.069   0.199   0.459 -0.2571 -0.3168  0.0714
   28SOL    HW3  166   0.041   0.270   0.328  0.0191  1.3769  0.9146
   28SOL    MW4  167   0.093   0.255   0.397  0.0005  0.0001 -0.0000
   29SOL     OW  168   4.378   0.566   0.482  0.5046  0.1743 -0.6936
   29SOL    HW2  169   4.474   0.565   0.479  0.5604  1.7164  0.1600
   29SOL    HW3  170   4.354   0.657   0.463 -0.6419  0.5546  2.2709
   29SOL    MW4  171   4.387   0.578   0.479  0.0005  0.0001 -0.0000
   30SOL     OW  172   1.049   4.435   0.524 -0.0066  0.8410 -0.2462
   30SOL    HW2  173   0.966   4.387   0.526 -0.1879  1.1511 -0.2715
   30SOL    HW3  174   1.096   4.405   0.602 -0.5448  1.3734  0.2950
   30SOL    MW4  175   1.044   4.425   0.534  0.0005  0.0001 -0.0000
   31SOL     OW  176   1.062   0.803   0.358  0.2775  0.0412 -0.0187
   31SOL    HW2  177   0.968   0.813   0.374  0.5965  2.2601  0.6175
   31SOL    HW3  178   1.087   0.727   0.411 -1.0539 -0.2530  0.2116
   31SOL    MW4  179   1.053   0.794   0.367  0.0005  0.0001 -0.0000
   32SOL     OW  180   0.583   0.469   0.258  0.2520 -0.0768 -0.3227
   32SOL    HW2  181   0.666   0.496   0.219  0.4446 -1.3618 -0.8293
   32SOL    HW3  182   0.606   0.395   0.314 -0.7166 -1.2054 -1.3876
   32SOL    MW4  183   0.597   0.463   0.260  0.0005  0.0001 -0.0000
   33SOL     OW  184   0.180   1.083   0.496 -0.1067  0.3103  0.3448
   33SOL    HW2  185   0.101   1.029   0.496 -0.1689  0.3993  0.6971
   33SOL    HW3  186   0.252   1.021   0.485 -0.2012  0.1913  0.3988
   33SOL    MW4  187   0.179   1.068   0.495  0.0005  0.0001 -0.0000
   34SOL     OW  188   0.459   1.626   0.480  0.0272 -0.5122 -0.2658
   34SOL    HW2  189   0.526   1.557   0.476  0.1119 -0.4052 -0.7236
   34SOL    HW3  190   0.389   1.595   0.422  0.6171  0.3718 -1.4726
   34SOL    MW4  191   0.459   1.613   0.472  0.0005  0.0001 -0.0000
   35SOL     OW  192   0.205   1.625   0.337 -0.0055  0.2574  0.4070
   35SOL    HW2  193   0.162   1.539   0.338  0.0653  0.2267  1.0229
   35SOL    HW3  194   0.173   1.667   0.257 -0.3650 -0.1792  0.3196
   35SOL    MW4  195   0.195   1.619   0.327  0.0005  0.0001 -0.0000
   36SOL     OW  196   0.418   2.496   0.222  0.1588 -0.7289 -0.7772
   36SOL    HW2  197   0.496   2.449   0.253  0.7374  0.0976 -0.9588
   36SOL    HW3  198   0.440   2.588   0.233 -0.9561 -0.4946 -0.4605
   36SOL    MW4  199   0.431   2.502   0.228  0.0005  0.0001 -0.0000
   37SOL     OW  200   0.072   2.732   0.489  0.4206 -0.2375  0.2871
   37SOL    HW2  201   0.086   2.654   0.435  0.6118 -0.2954  0.4196
   37SOL    HW3  202   0.135   2.796   0.456 -1.5026  0.7621 -1.5691
   37SOL    MW4  203   0.082   2.730   0.478  0.0005  0.0001 -0.0000
   38SOL     OW  204   3.868   2.281   0.268 -0.0640 -0.0281 -0.1370
   38SOL    HW2  205   3.893   2.371   0.289 -0.7754  0.0186  0.5237
   38SOL    HW3  206   3.882   2.274   0.174  1.0303  0.4400 -0.0193
   38SOL    MW4  207   3.873   2.292   0.258  0.0005  0.0001 -0.0000
   39SOL     OW  208   0.589   2.540   0.526 -0.2492  0.0822  0.0435
   39SOL    HW2  209   0.563   2.462   0.477  0.8746  0.4266 -1.1398
   39SOL    HW3  210   0.679   2.557   0.497 -0.4429  1.7406  0.3805
   39SOL    MW4  211   0.597   2.532   0.516  0.0005  0.0001 -0.0000
   40SOL     OW  212   0.499   2.739   0.330 -0.5109 -0.0021  0.6947
   40SOL    HW2  213   0.528   2.680   0.400  0.2014 -0.3634  0.1022
   40SOL    HW3  214   0.555   2.816   0.339  2.1589 -1.5555 -1.7611
   40SOL    MW4  215   0.510   2.741   0.340  0.0005  0.0001 -0.0000
   41SOL     OW  216   4.342   3.085   0.482 -0.3136 -0.0671 -0.2518
   41SOL    HW2  217   4.259   3.131   0.491  0.1458  0.2966  2.5765
   41SOL    HW3  218   4.404   3.137   0.533  1.4786 -0.7851 -1.6412
   41SOL    MW4  219   4.339   3.098   0.490  0.0005  0.0001 -0.0000
   42SOL     OW  220   0.288   2.917   0.374  0.0209 -0.0716  0.2059
   42SOL    HW2  221   0.305   3.000   0.329 -0.4469 -0.2693 -0.3412
   42SOL    HW3  222   0.366   2.864   0.357 -0.0994 -0.0988 -0.2687
   42SOL    MW4  223   0.301   2.921   0.366  0.0005  0.0001 -0.0000
   43SOL     OW  224   0.802   4.452   0.208 -0.3284  0.4968  0.0350
   43SOL    HW2  225   0.784   4.429   0.117  0.0886  0.1672  0.0338
   43SOL    HW3  226   0.895   4.434   0.219 -0.7687 -1.2705  1.0568
   43SOL    MW4  227   0.812   4.447   0.197  0.0005  0.0001 -0.0000
   44SOL     OW  228   0.105   3.350   0.414 -0.0332 -0.3854 -0.2363
   44SOL    HW2  229   0.125   3.443   0.423 -0.7503 -0.3215  0.8374
   44SOL    HW3  230   0.176   3.315   0.360  0.0176  0.8613 -0.9910
   44SOL    MW4  231   0.117   3.358   0.408  0.0005  0.0001 -0.0000
   45SOL     OW  232   0.722   3.623   0.529  0.5869  0.2790 -0.1402
   45SOL    HW2  233   0.714   3.712   0.494 -0.7836  1.0154  1.9573
   45SOL    HW3  234   0.704   3.632   0.623 -0.4563 -2.3449 -0.0431
   45SOL    MW4  235   0.719   3.636   0.537  0.0005  0.0001 -0.0000
   46SOL     OW  236   1.156   3.639   0.447 -0.1601  0.8117  0.2529
   46SOL    HW2  237   1.071   3.672   0.417  1.7768  3.9089 -2.1425
   46SOL    HW3  238   1.173   3.563   0.391 -0.5155  1.3191 -0.5556
   46SOL    MW4  239   1.147   3.633   0.436  0.0005  0.0001 -0.0000
   47SOL     OW  240   0.450   3.956   0.441 -0.1882  0.1509  0.0549
   47SOL    HW2  241   0.436   3.994   0.527  0.1463  0.9020 -0.2180
   47SOL    HW3  242   0.367   3.968   0.395 -0.2148  0.1774  0.1103
   47SOL    MW4  243   0.437   3.963   0.446  0.0005  0.0001 -0.0000
   48SOL     OW  244   0.987   3.567   0.198  0.0236 -0.1768  0.2017
   48SOL    HW2  245   0.954   3.557   0.109  1.3810  0.2312 -0.3553
   48SOL    HW3  246   0.980   3.661   0.215  0.7538 -0.1079  0.1311
   48SOL    MW4  247   0.982   3.578   0.188  0.0005  0.0001 -0.0000
   49SOL     OW  248   0.746   4.395   0.504  0.0172  0.0368  0.2530
   49SOL    HW2  249   0.712   4.462   0.445 -1.9849 -0.3676  0.9088
   49SOL    HW3  250   0.725   4.427   0.592 -0.1188 -0.9986  0.6077
   49SOL    MW4  251   0.739   4.408   0.508  0.0005  0.0001 -0.0000
   50SOL     OW  252   0.613   0.237   0.450 -0.0616 -0.0414 -0.0164
   50SOL    HW2  253   0.665   0.165   0.415  1.4735  2.0594 -2.2198
   50SOL    HW3  254   0.662   0.266   0.527  0.4056 -0.0448 -0.3090
   50SOL    MW4  255   0.626   0.231   0.456  0.0005  0.0001 -0.0000
   51SOL     OW  256   0.681   0.602   0.514  0.2606  0.2336  0.7281
   51SOL    HW2  257   0.717   0.688   0.495  0.1586  0.5183  1.7814
   51SOL    HW3  258   0.628   0.580   0.437 -1.4095  2.0246  1.3278
   51SOL    MW4  259   0.679   0.611   0.501  0.0005  0.0001 -0.0000
   52SOL     OW  260   0.363   0.665   0.328  0.0235  0.7855  0.5729
   52SOL    HW2  261   0.289   0.635   0.381 -0.1436  1.2912  0.6270
   52SOL    HW3  262   0.420   0.588   0.321 -1.0640  0.0540 -0.4448
   52SOL    MW4  263   0.361   0.651   0.334  0.0005  0.0001 -0.0000
   53SOL     OW  264   1.378   0.555   0.329 -0.4951 -0.0806  0.3697
   53SOL    HW2  265   1.365   0.650   0.329  0.0166  0.0154 -1.7900
   53SOL    HW3  266   1.469   0.543   0.358 -0.5751  0.0814  0.6898
   53SOL    MW4  267   1.388   0.566   0.333  0.0005  0.0001 -0.0000
   54SOL     OW  268   1.799   0.693   0.263  0.1854 -0.0026  0.0358
   54SOL    HW2  269   1.782   0.787   0.271  0.6335  0.0506  0.3736
   54SOL    HW3  270   1.736   0.653   0.322  1.3096  0.2065  1.4023
   54SOL    MW4  271   1.788   0.700   0.272  0.0005  0.0001 -0.0000
   55SOL     OW  272   1.487   0.972   0.458 -0.2432 -0.1326  0.0221
   55SOL    HW2  273   1.427   0.935   0.393  0.8544 -0.2914 -0.9192
   55SOL    HW3  274   1.445   0.955   0.542 -1.8392  0.3580 -0.6585
   55SOL    MW4  275   1.474   0.965   0.461  0.0005  0.0001 -0.0000
   56SOL     OW  276   0.678   1.451   0.522 -0.2642 -0.0518  0.3449
   56SOL    HW2  277   0.693   1.362   0.489  0.1753  0.3818 -0.6398
   56SOL    HW3  278   0.766   1.488   0.532 -0.4862  0.7200 -0.5141
   56SOL    MW4  279   0.692   1.444   0.519  0.0005  0.0001 -0.0000
   57SOL     OW  280   0.781   1.202   0.487  0.3629  0.1440  0.7700
   57SOL    HW2  281   0.745   1.160   0.409  0.2788  1.9630 -0.1972
   57SOL    HW3  282   0.869   1.230   0.461 -0.0280  1.6282  0.9968
   57SOL    MW4  283   0.788   1.200   0.473  0.0005  0.0001 -0.0000
   58SOL     OW  284   1.737   1.395   0.446  0.2823  0.3185  0.0069
   58SOL    HW2  285   1.776   1.482   0.440  0.4196  0.2591  0.0359
   58SOL    HW3  286   1.812   1.335   0.446  0.2082  0.2240  0.4509
   58SOL    MW4  287   1.752   1.399   0.445  0.0005  0.0001 -0.0000
   59SOL     OW  288   1.036   1.368   0.480  0.5852 -0.1840  0.2995
   59SOL    HW2  289   1.125   1.377   0.445  0.6164  0.0846  0.4426
   59SOL    HW3  290   1.005   1.458   0.489  0.4784 -0.2608  0.7078
   59SOL    MW4  291   1.044   1.381   0.477  0.0005  0.0001 -0.0000
   60SOL     OW  292   0.928   1.619   0.533 -0.0973 -0.1275  0.5228
   60SOL    HW2  293   1.016   1.654   0.518 -0.2579  0.9478  1.9604
   60SOL    HW3  294   0.916   1.625   0.628 -0.7034 -2.7614  0.6481
   60SOL    MW4  295   0.938   1.624   0.544  0.0005  0.0001 -0.0000
   61SOL     OW  296   0.315   1.900   0.430  0.0788  0.5002  0.0969
   61SOL    HW2  297   0.223   1.905   0.406 -0.1913  0.0459  1.0087
   61SOL    HW3  298   0.331   1.806   0.443  0.4752  0.6446  0.6642
   61SOL    MW4  299   0.305   1.888   0.429  0.0005  0.0001 -0.0000
   62SOL     OW  300   0.700   1.790   0.465 -0.1755  0.1002 -0.4546
   62SOL    HW2  301   0.770   1.728   0.486  0.3398  0.1800 -1.8653
   62SOL    HW3  302   0.620   1.737   0.465  0.0410 -0.2322 -0.0258
   62SOL    MW4  303   0.699   1.775   0.468  0.0005  0.0001 -0.0000
   63SOL     OW  304   0.856   2.546   0.468  0.2279  0.0403  0.1522
   63SOL    HW2  305   0.863   2.459   0.428 -2.5074 -0.7806  1.3201
   63SOL    HW3  306   0.893   2.535   0.555  1.8089  0.6122 -0.4296
   63SOL    MW4  307   0.862   2.533   0.474  0.0005  0.0001 -0.0000
   64SOL     OW  308   0.565   2.041   0.464  0.3920 -0.8184 -0.1805
   64SOL    HW2  309   0.620   1.966   0.440  0.6120 -0.1751 -1.7468
   64SOL    HW3  310   0.476   2.015   0.439  0.0916 -1.4976  1.5153
   64SOL    MW4  311   0.561   2.028   0.458  0.0005  0.0001 -0.0000
   65SOL     OW  312   1.096   2.685   0.417 -0.5926 -0.2125 -0.5753
   65SOL    HW2  313   1.023   2.624   0.410 -1.7337  1.0254  0.3392
   65SOL    HW3  314   1.058   2.771   0.399  0.8766  0.3145 -1.2660
   65SOL    MW4  315   1.081   2.688   0.414  0.0005  0.0001 -0.0000
   66SOL     OW  316   0.608   2.314   0.346 -0.2376 -0.1897  0.3391
   66SOL    HW2  317   0.694   2.302   0.306 -0.2838 -0.4011  0.3047
   66SOL    HW3  318   0.581   2.226   0.372  0.0512  0.0183  1.3699
   66SOL    MW4  319   0.616   2.301   0.344  0.0005  0.0001 -0.0000
   67SOL     OW  320   0.695   2.937   0.454  0.0879 -0.4719 -0.1104
   67SOL    HW2  321   0.731   2.915   0.540  1.4437  1.6802 -0.0889
   67SOL    HW3  322   0.674   3.030   0.460 -1.2755 -0.6614 -1.6179
   67SOL    MW4  323   0.697   2.946   0.466  0.0005  0.0001 -0.0000
   68SOL     OW  324   1.014   3.236   0.479  0.2769  0.5573  0.3904
   68SOL    HW2  325   0.989   3.217   0.569  0.9676  1.1252  0.7075
   68SOL    HW3  326   0.948   3.298   0.448 -0.8071 -0.7592  0.0171
   68SOL    MW4  327   1.002   3.242   0.487  0.0005  0.0001 -0.0000
   69SOL     OW  328   1.395   3.779   0.506  0.0978 -0.0123 -0.4445
   69SOL    HW2  329   1.465   3.717   0.486  0.2732 -0.2625  0.9039
   69SOL    HW3  330   1.316   3.737   0.472  0.4817 -0.0966 -1.2482
   69SOL    MW4  331   1.394   3.765   0.499  0.0005  0.0001 -0.0000
   70SOL     OW  332   1.079   4.063   0.381  0.4233  0.1660 -0.3745
   70SOL    HW2  333   1.097   4.137   0.323 -1.0312  0.3623 -0.5943
   70SOL    HW3  334   1.000   4.088   0.428 -1.5173 -2.2400 -2.2244
   70SOL    MW4  335   1.071   4.076   0.380  0.0005  0.0001 -0.0000
   71SOL     OW  336   0.711   3.890   0.411 -0.4581  0.0076  0.0294
   71SOL    HW2  337   0.767   3.958   0.448  0.2629  0.1550 -1.2961
   71SOL    HW3  338   0.622   3.924   0.420 -0.3208 -0.0628  1.8084
   71SOL    MW4  339   0.707   3.903   0.417  0.0005  0.0001 -0.0000
   72SOL     OW  340   1.088   4.422   0.261 -0.3116  0.5214  0.4703
   72SOL    HW2  341   1.169   4.448   0.217 -0.3637  2.1139  1.2881
   72SOL    HW3  342   1.108   4.426   0.354 -0.3479 -2.3785  0.6523
   72SOL    MW4  343   1.101   4.426   0.268  0.0005  0.0001 -0.0000
   73SOL     OW  344   1.145   0.505   0.461  0.3492  0.0480  0.0815
   73SOL    HW2  345   1.139   0.410   0.468  0.8050  0.0983  1.2717
   73SOL    HW3  346   1.229   0.520   0.417  0.9181 -0.0675  1.1108
   73SOL    MW4  347   1.155   0.494   0.456  0.0005  0.0001 -0.0000
   74SOL     OW  348   0.982   0.037   0.485  0.1488  0.4133 -0.1437
   74SOL    HW2  349   1.020  -0.051   0.490 -1.1988 -0.3189 -2.1291
   74SOL    HW3  350   0.947   0.053   0.573  0.5357 -0.9655  0.2773
   74SOL    MW4  351   0.982   0.028   0.497  0.0005  0.0001 -0.0000
   75SOL     OW  352   1.449   0.272   0.283 -0.1579  0.3260 -0.0350
   75SOL    HW2  353   1.544   0.281   0.293  0.0119 -0.9666 -0.3501
   75SOL    HW3  354   1.418   0.361   0.268  1.1247  0.6492 -0.8850
   75SOL    MW4  355   1.457   0.285   0.282  0.0005  0.0001 -0.0000
   76SOL     OW  356   1.635   0.537   0.443 -0.0968 -0.6082 -0.3690
   76SOL    HW2  357   1.678   0.456   0.416  1.5476  0.1635 -0.1276
   76SOL    HW3  358   1.623   0.528   0.537 -2.1646 -1.5929 -0.6990
   76SOL    MW4  359   1.639   0.525   0.452  0.0005  0.0001 -0.0000
   77SOL     OW  360   1.178   0.226   0.482 -0.4307 -0.2912  0.2887
   77SOL    HW2  361   1.106   0.163   0.478 -0.8217  0.0989  1.0096
   77SOL    HW3  362   1.238   0.199   0.413  1.0136 -3.4247  2.6485
   77SOL    MW4  363   1.176   0.214   0.472  0.0005  0.0001 -0.0000
   78SOL     OW  364   1.969   0.469   0.244  0.3051 -0.2270 -0.1573
   78SOL    HW2  365   2.014   0.437   0.166  0.2409  0.0390 -0.3026
   78SOL    HW3  366   1.920   0.546   0.214 -0.7683 -0.8941 -0.1417
   78SOL    MW4  367   1.968   0.475   0.230  0.0005  0.0001 -0.0000
   79SOL     OW  368   2.214   0.802   0.477  0.2798  0.0327  0.0482
   79SOL    HW2  369   2.178   0.713   0.471  0.5303 -0.0341 -0.4905
   79SOL    HW3  370   2.298   0.797   0.432  0.1388  0.6278 -0.2869
   79SOL    MW4  371   2.220   0.790   0.470  0.0005  0.0001 -0.0000
   80SOL     OW  372   1.761   0.950   0.439  0.0560  0.4890 -0.3079
   80SOL    HW2  373   1.784   0.904   0.520  1.2380  2.5476  0.5596
   80SOL    HW3  374   1.665   0.949   0.438  0.0464 -0.7851  0.3824
   80SOL    MW4  375   1.751   0.944   0.450  0.0005  0.0001 -0.0000
   81SOL     OW  376   1.483   1.269   0.461 -0.1300 -0.0507  0.0278
   81SOL    HW2  377   1.474   1.174   0.464 -0.5601  0.0023  0.4292
   81SOL    HW3  378   1.570   1.283   0.425 -0.7276 -0.5830 -1.6790
   81SOL    MW4  379   1.493   1.258   0.457  0.0005  0.0001 -0.0000
   82SOL     OW  380   1.304   1.462   0.361 -0.4887  0.5783  0.5287
   82SOL    HW2  381   1.374   1.411   0.401 -1.3875 -0.2501  1.0661
   82SOL    HW3  382   1.303   1.433   0.270  0.3869  1.1750  0.3217
   82SOL    MW4  383   1.313   1.451   0.354  0.0005  0.0001 -0.0000
   83SOL     OW  384   1.200   1.694   0.486 -0.1272  0.2914 -0.0752
   83SOL    HW2  385   1.248   1.659   0.561 -0.6423  1.2218  0.6990
   83SOL    HW3  386   1.221   1.634   0.414  0.5707 -0.4646  0.7453
   83SOL    MW4  387   1.209   1.681   0.486  0.0005  0.0001 -0.0000
   84SOL     OW  388   1.151   2.178   0.286  0.0300 -0.2536 -0.5586
   84SOL    HW2  389   1.225   2.233   0.312  0.1882 -0.5345 -0.4138
   84SOL    HW3  390   1.174   2.090   0.317 -1.4936  0.1139  1.7412
   84SOL    MW4  391   1.164   2.174   0.294  0.0005  0.0001 -0.0000
   85SOL     OW  392   1.340   2.548   0.466  0.9345 -0.0151  0.3475
   85SOL    HW2  393   1.258   2.596   0.452  0.3992 -0.7585  0.8956
   85SOL    HW3  394   1.408   2.615   0.461  0.1839  0.8298  1.2357
   85SOL    MW4  395   1.338   2.563   0.463  0.0005  0.0001 -0.0000
   86SOL     OW  396   1.950   2.149   0.450  0.1182  0.2637  0.6088
   86SOL    HW2  397   1.960   2.114   0.538  1.2795  1.6869  1.0624
   86SOL    HW3  398   2.007   2.094   0.396  0.0215 -0.1060  0.8800
   86SOL    MW4  399   1.959   2.137   0.455  0.0005  0.0001 -0.0000
   87SOL     OW  400   1.517   2.044   0.487  0.4921 -0.4236  0.1235
   87SOL    HW2  401   1.511   2.130   0.444  0.3334  0.3335  1.6291
   87SOL    HW3  402   1.430   2.005   0.474 -0.1756  0.6031  1.3831
   87SOL    MW4  403   1.505   2.050   0.480  0.0005  0.0001 -0.0000
   88SOL     OW  404   0.898   2.280   0.359 -0.2596  1.1596 -0.5432
   88SOL    HW2  405   0.905   2.227   0.438 -0.6913  0.9684 -0.6335
   88SOL    HW3  406   0.982   2.268   0.315  0.5477  2.4244  0.6107
   88SOL    MW4  407   0.910   2.271   0.364  0.0005  0.0001 -0.0000
   89SOL     OW  408   1.007   2.961   0.405 -0.1489 -0.1598  0.0104
   89SOL    HW2  409   0.921   2.946   0.366  0.0406 -2.2177  0.3239
   89SOL    HW3  410   1.006   3.053   0.431 -2.3994 -0.2576  0.3635
   89SOL    MW4  411   0.996   2.971   0.403  0.0005  0.0001 -0.0000
   90SOL     OW  412   2.107   2.419   0.433  0.6058  0.2113  0.1981
   90SOL    HW2  413   2.199   2.405   0.453  0.2879  0.2049  1.7125
   90SOL    HW3  414   2.067   2.332   0.439  0.0919  0.5412  1.8134
   90SOL    MW4  415   2.114   2.406   0.436  0.0005  0.0001 -0.0000
   91SOL     OW  416   1.720   4.107   0.510  0.0162 -0.1729 -0.7469
   91SOL    HW2  417   1.656   4.160   0.463 -2.2486 -1.1000  1.1878
   91SOL    HW3  418   1.710   4.019   0.473 -1.6568 -0.8685  1.2608
   91SOL    MW4  419   1.710   4.102   0.499  0.0005  0.0001 -0.0000
   92SOL     OW  420   1.350   4.038   0.434  0.3987  0.3688 -0.3479
   92SOL    HW2  421   1.368   3.950   0.467  0.6606 -0.1452 -1.8248
   92SOL    HW3  422   1.257   4.037   0.412 -0.1388  1.1911  1.7631
   92SOL    MW4  423   1.340   4.026   0.435  0.0005  0.0001 -0.0000
   93SOL     OW  424   1.748   2.837   0.347  0.0394  0.6042  0.3606
   93SOL    HW2  425   1.661   2.804   0.368 -0.7151  0.3815 -2.8659
   93SOL    HW3  426   1.808   2.778   0.394 -1.4954  0.3194  2.0210
   93SOL    MW4  427   1.744   2.825   0.356  0.0005  0.0001 -0.0000
   94SOL     OW  428   1.678   3.620   0.256 -0.1829 -0.0938  0.3543
   94SOL    HW2  429   1.763   3.578   0.243 -0.6106 -0.6683 -0.6424
   94SOL    HW3  430   1.621   3.550   0.286 -0.5381  0.0880  0.1074
   94SOL    MW4  431   1.682   3.605   0.258  0.0005  0.0001 -0.0000
   95SOL     OW  432   1.294   3.251   0.476 -0.0563  0.6865  0.2589
   95SOL    HW2  433   1.315   3.163   0.444  0.7690  0.5187  1.2207
   95SOL    HW3  434   1.199   3.258   0.468 -0.3292 -0.9571  1.7894
   95SOL    MW4  435   1.284   3.240   0.471  0.0005  0.0001 -0.0000
   96SOL     OW  436   1.583   3.392   0.440 -0.0718 -0.4351  0.3714
   96SOL    HW2  437   1.503   3.371   0.488  1.3490 -2.0649  2.0728
   96SOL    HW3  438   1.616   3.307   0.409  1.4200  0.1254  0.3750
   96SOL    MW4  439   1.577   3.378   0.442  0.0005  0.0001 -0.0000
   97SOL     OW  440   0.846   4.128   0.489  0.3296 -0.2229  0.4524
   97SOL    HW2  441   0.831   4.096   0.578 -0.0503 -0.1008  0.4341
   97SOL    HW3  442   0.797   4.210   0.485 -0.5901 -0.7963 -0.2285
   97SOL    MW4  443   0.838   4.135   0.500  0.0005  0.0001 -0.0000
   98SOL     OW  444   2.274   0.001   0.605  0.5615 -0.5568  0.0747
   98SOL    HW2  445   2.242  -0.085   0.578  0.4948 -0.8465  1.0564
   98SOL    HW3  446   2.369  -0.005   0.597  0.5063 -0.4184 -0.7293
   98SOL    MW4  447   2.282  -0.011   0.600  0.0005  0.0001 -0.0000
   99SOL     OW  448   1.840   4.515   0.398 -0.0078 -0.2781  0.0505
   99SOL    HW2  449   1.748   4.492   0.409 -0.6260  1.2886 -1.6018
   99SOL    HW3  450   1.884   4.431   0.382 -1.3284 -0.9115 -0.3304
   99SOL    MW4  451   1.834   4.501   0.397  0.0005  0.0001 -0.0000
  100SOL     OW  452   1.888   0.112   0.465 -0.0329 -0.0530  0.0941
  100SOL    HW2  453   1.860   0.119   0.556  0.1862 -0.8440  0.2238
  100SOL    HW3  454   1.871   0.021   0.441  0.5938 -0.0383 -0.4282
  100SOL    MW4  455   1.882   0.101   0.474  0.0005  0.0001 -0.0000
  101SOL     OW  456   1.398   0.015   0.351 -0.1686 -0.0904 -0.2524
  101SOL    HW2  457   1.423   0.103   0.322  0.0258 -0.3374 -0.8349
  101SOL    HW3  458   1.468  -0.012   0.411  0.0435 -0.0604 -0.4863
  101SOL    MW4  459   1.411   0.023   0.355  0.0005  0.0001 -0.0000
  102SOL     OW  460   2.149   0.458   0.451 -0.1534  0.7986  0.1232
  102SOL    HW2  461   2.135   0.366   0.474 -0.3911  1.2700  1.9462
  102SOL    HW3  462   2.109   0.467   0.365 -1.3039 -0.5022  0.4974
  102SOL    MW4  463   2.142   0.447   0.443  0.0005  0.0001 -0.0000
  103SOL     OW  464   2.382   1.531   0.435 -0.1020  0.0708  0.6824
  103SOL    HW2  465   2.325   1.475   0.488 -0.4668 -0.5731 -0.3749
  103SOL    HW3  466   2.326   1.604   0.408 -0.2785 -0.2741  0.1071
  103SOL    MW4  467   2.367   1.533   0.438  0.0005  0.0001 -0.0000
  104SOL     OW  468   2.182   1.082   0.447 -0.0530  0.0538  0.4023
  104SOL    HW2  469   2.275   1.097   0.466 -0.2490  1.6000  0.2320
  104SOL    HW3  470   2.172   0.987   0.447  1.5024 -0.1185  0.5667
  104SOL    MW4  471   2.193   1.071   0.450  0.0005  0.0001 -0.0000
  105SOL     OW  472   1.918   1.169   0.487 -0.1449 -0.1183 -0.3219
  105SOL    HW2  473   1.865   1.091   0.472 -0.0371 -0.2732  0.0962
  105SOL    HW3  474   2.005   1.146   0.455 -0.4418  0.3032 -1.4562
  105SOL    MW4  475   1.923   1.156   0.481  0.0005  0.0001 -0.0000
  106SOL     OW  476   2.598   1.349   0.364  0.1636 -0.0366 -0.0875
  106SOL    HW2  477   2.675   1.403   0.345  0.2853 -1.1087 -2.8767
  106SOL    HW3  478   2.530   1.412   0.389  0.8733  1.2497 -1.3250
  106SOL    MW4  479   2.599   1.364   0.365  0.0005  0.0001 -0.0000
  107SOL     OW  480   2.160   1.719   0.471  0.2452  0.1067  0.4171
  107SOL    HW2  481   2.164   1.811   0.446  0.3315 -0.0317 -0.0854
  107SOL    HW3  482   2.067   1.701   0.483  0.3112  0.5702  1.6989
  107SOL    MW4  483   2.148   1.729   0.469  0.0005  0.0001 -0.0000
  108SOL     OW  484   1.773   1.930   0.412  0.2511 -0.0164  0.4560
  108SOL    HW2  485   1.811   2.017   0.402 -1.0322  0.4096 -0.8329
  108SOL    HW3  486   1.680   1.945   0.425  0.1019 -1.1756  0.8233
  108SOL    MW4  487   1.766   1.944   0.412  0.0005  0.0001 -0.0000
  109SOL     OW  488   2.373   2.406   0.534 -0.7525  0.3123 -0.1769
  109SOL    HW2  489   2.450   2.462   0.525  1.3684 -2.3928  0.5477
  109SOL    HW3  490   2.328   2.440   0.611  0.2071  1.3602 -0.0703
  109SOL    MW4  491   2.377   2.418   0.543  0.0005  0.0001 -0.0000
  110SOL     OW  492   1.914   3.262   0.484  0.3857  0.0078  0.3501
  110SOL    HW2  493   1.976   3.193   0.460 -1.2053 -0.5220 -2.5147
  110SOL    HW3  494   1.929   3.331   0.419 -0.7106  0.6792  0.8046
  110SOL    MW4  495   1.924   3.262   0.472  0.0005  0.0001 -0.0000
  111SOL     OW  496   1.495   2.771   0.443  0.3049  0.1681  0.2389
  111SOL    HW2  497   1.444   2.851   0.433  0.6187  0.2576 -0.6787
  111SOL    HW3  498   1.535   2.779   0.530 -0.6321  0.4403  0.6523
  111SOL    MW4  499   1.494   2.783   0.453  0.0005  0.0001 -0.0000
  112SOL     OW  500   1.318   2.993   0.370 -0.3192  0.0019 -0.4134
  112SOL    HW2  501   1.364   3.010   0.288  0.7418 -0.6719  0.0252
  112SOL    HW3  502   1.227   2.976   0.344 -0.3127  1.2515 -1.3014
  112SOL    MW4  503   1.312   2.993   0.356  0.0005  0.0001 -0.0000
  113SOL     OW  504   1.245   1.977   0.479 -0.2197  0.2271 -0.5686
  113SOL    HW2  505   1.191   1.987   0.557 -0.7575 -1.8809 -0.6375
  113SOL    HW3  506   1.245   1.883   0.462  2.9477  0.2447 -0.9519
  113SOL    MW4  507   1.238   1.966   0.487  0.0005  0.0001 -0.0000
  114SOL     OW  508   3.601   2.339   0.388 -0.0598  0.0389 -0.1826
  114SOL    HW2  509   3.662   2.301   0.325 -1.1090  0.0519 -1.2243
  114SOL    HW3  510   3.595   2.274   0.458  1.4095  0.1964  0.1050
  114SOL    MW4  511   3.608   2.325   0.389  0.0005  0.0001 -0.0000
  115SOL     OW  512   1.923   2.661   0.473 -0.1259  0.1289 -0.1149
  115SOL    HW2  513   1.956   2.713   0.547 -0.0937 -1.4771  1.0253
  115SOL    HW3  514   1.992   2.596   0.457 -0.6735 -0.2918 -0.7707
  115SOL    MW4  515   1.936   2.659   0.481  0.0005  0.0001 -0.0000
  116SOL     OW  516   1.513   2.305   0.402 -0.7325  0.4005  0.1747
  116SOL    HW2  517   1.606   2.325   0.409 -0.6566 -0.1598  0.7950
  116SOL    HW3  518   1.470   2.388   0.420 -0.3804  0.3598  1.2445
  116SOL    MW4  519   1.520   2.319   0.405  0.0005  0.0001 -0.0000
  117SOL     OW  520   1.673   3.113   0.414  0.0441 -0.0831 -0.0491
  117SOL    HW2  521   1.699   3.025   0.387 -0.0968  0.2380 -1.2674
  117SOL    HW3  522   1.753   3.153   0.449  0.2018 -0.5490  0.1207
  117SOL    MW4  523   1.687   3.107   0.415  0.0005  0.0001 -0.0000
  118SOL     OW  524   2.273   3.191   0.479  0.1822  0.0213  0.0922
  118SOL    HW2  525   2.206   3.124   0.467  0.6039 -0.3134 -0.4001
  118SOL    HW3  526   2.255   3.227   0.566 -0.0831 -0.6862  0.3355
  118SOL    MW4  527   2.262   3.187   0.489  0.0005  0.0001 -0.0000
  119SOL     OW  528   1.788   3.836   0.420 -0.3129  0.0899  0.0051
  119SOL    HW2  529   1.756   3.789   0.343  0.0152 -0.4525  0.1979
  119SOL    HW3  530   1.883   3.821   0.420 -0.4221 -0.6597  1.0090
  119SOL    MW4  531   1.796   3.828   0.410  0.0005  0.0001 -0.0000
  120SOL     OW  532   1.508   4.249   0.352  0.0652  0.0203 -0.2022
  120SOL    HW2  533   1.464   4.177   0.397 -1.1038  0.8989  0.0832
  120SOL    HW3  534   1.442   4.284   0.292  0.4610  1.1646  0.0156
  120SOL    MW4  535   1.493   4.244   0.350  0.0005  0.0001 -0.0000
  121SOL     OW  536   1.580   4.497   0.469 -0.2921  0.5336  0.4847
  121SOL    HW2  537   1.588   4.475   0.562  0.9137 -1.4285 -0.0440
  121SOL    HW3  538   1.559   4.414   0.427 -1.2816  1.4892 -0.9612
  121SOL    MW4  539   1.578   4.483   0.476  0.0005  0.0001 -0.0000
  122SOL     OW  540   1.351   4.471   0.188  0.5102  0.1640 -0.1325
  122SOL    HW2  541   1.370   4.533   0.258  0.4454  1.4489 -1.2303
  122SOL    HW3  542   1.369   4.520   0.107  0.6345 -1.3049 -1.0108
  122SOL    MW4  543   1.356   4.486   0.187  0.0005  0.0001 -0.0000
  123SOL     OW  544   2.419   0.193   0.351  0.0327 -0.1210 -0.0647
  123SOL    HW2  545   2.453   0.136   0.420 -0.9530 -1.2781 -0.5226
  123SOL    HW3  546   2.324   0.190   0.361 -0.0804  0.4622 -0.8736
  123SOL    MW4  547   2.411   0.185   0.361  0.0005  0.0001 -0.0000
  124SOL     OW  548   2.151   0.178   0.458 -0.0259 -0.0096  0.0964
  124SOL    HW2  549   2.175   0.107   0.518  0.2916  0.6472  0.7518
  124SOL    HW3  550   2.056   0.169   0.448 -0.2206  0.4334  1.4281
  124SOL    MW4  551   2.142   0.167   0.465  0.0005  0.0001 -0.0000
  125SOL     OW  552   2.690   0.929   0.499  0.0420  0.1033  0.3200
  125SOL    HW2  553   2.640   0.855   0.465  0.2090  0.0788  0.1268
  125SOL    HW3  554   2.772   0.927   0.450  0.2238  0.1531  0.6241
  125SOL    MW4  555   2.694   0.919   0.488  0.0005  0.0001 -0.0000
  126SOL     OW  556   2.477   0.746   0.390  0.1306  0.0830 -0.3639
  126SOL    HW2  557   2.468   0.653   0.409  0.5188  0.4654  1.7848
  126SOL    HW3  558   2.522   0.749   0.305 -0.3051 -1.6724 -0.6685
  126SOL    MW4  559   2.482   0.734   0.381  0.0005  0.0001 -0.0000
  127SOL     OW  560   2.905   0.897   0.131  0.5517  0.3667 -0.1410
  127SOL    HW2  561   2.915   0.933   0.219 -0.2076 -1.2849  0.6421
  127SOL    HW3  562   2.982   0.842   0.118 -0.9280 -2.0111  0.8133
  127SOL    MW4  563   2.917   0.894   0.141  0.0005  0.0001 -0.0000
  128SOL     OW  564   2.946   1.000   0.397 -0.1557 -0.4398  0.3021
  128SOL    HW2  565   3.017   0.981   0.458 -2.0961 -1.6239  2.2651
  128SOL    HW3  566   2.914   1.086   0.423  0.6494  0.1747 -0.6992
  128SOL    MW4  567   2.951   1.009   0.409  0.0005  0.0001 -0.0000
  129SOL     OW  568   2.960   1.247   0.503 -0.3585 -0.2393 -0.3623
  129SOL    HW2  569   2.934   1.336   0.479  0.6658  0.3302  0.5931
  129SOL    HW3  570   2.926   1.235   0.592  0.6402 -0.3164  0.0158
  129SOL    MW4  571   2.952   1.257   0.512  0.0005  0.0001 -0.0000
  130SOL     OW  572   2.732   1.664   0.429  0.2526 -0.7878 -0.2005
  130SOL    HW2  573   2.717   1.696   0.518 -0.8412 -0.9141 -0.3308
  130SOL    HW3  574   2.694   1.732   0.373 -0.2212 -1.3235 -0.5323
  130SOL    MW4  575   2.725   1.677   0.433  0.0005  0.0001 -0.0000
  131SOL     OW  576   2.809   0.674   0.366 -0.2470  0.4653 -0.1419
  131SOL    HW2  577   2.892   0.714   0.341  0.0978  0.6256  1.2028
  131SOL    HW3  578   2.750   0.692   0.293  1.0849 -0.2400 -1.4130
  131SOL    MW4  579   2.812   0.682   0.353  0.0005  0.0001 -0.0000
  132SOL     OW  580   2.212   2.003   0.336  0.0430 -0.2122 -0.5676
  132SOL    HW2  581   2.287   2.045   0.378 -0.2876  0.1686 -0.3498
  132SOL    HW3  582   2.235   1.999   0.243  0.3195 -0.0743 -0.5061
  132SOL    MW4  583   2.225   2.008   0.329  0.0005  0.0001 -0.0000
  133SOL     OW  584   1.890   1.675   0.481 -0.3952  0.0084 -0.2685
  133SOL    HW2  585   1.850   1.675   0.568  1.1830 -0.7458  0.4732
  133SOL    HW3  586   1.870   1.762   0.446 -1.1615  0.2712  0.7857
  133SOL    MW4  587   1.882   1.686   0.488  0.0005  0.0001 -0.0000
  134SOL     OW  588   2.425   2.138   0.475 -0.2235  0.0246 -0.1109
  134SOL    HW2  589   2.405   2.228   0.501 -0.7356 -0.2492  0.4590
  134SOL    HW3  590   2.519   2.138   0.458 -0.1228  0.5325  0.4404
  134SOL    MW4  591   2.435   2.150   0.476  0.0005  0.0001 -0.0000
  135SOL     OW  592   2.706   2.165   0.441  0.0454  0.9916 -0.5122
  135SOL    HW2  593   2.737   2.251   0.413 -0.8857  1.6230  0.3858
  135SOL    HW3  594   2.774   2.134   0.500  0.3733  1.1183 -0.8198
  135SOL    MW4  595   2.719   2.172   0.445  0.0005  0.0001 -0.0000
  136SOL     OW  596   2.577   2.793   0.462 -0.5946 -0.5812  0.0188
  136SOL    HW2  597   2.577   2.864   0.398  0.4295 -1.1094 -0.5906
  136SOL    HW3  598   2.526   2.826   0.536 -0.6061  0.5625 -0.4976
  136SOL    MW4  599   2.570   2.807   0.463  0.0005  0.0001 -0.0000
  137SOL     OW  600   1.769   2.407   0.441  0.1914  0.1562  0.0639
  137SOL    HW2  601   1.837   2.341   0.428 -0.4111 -0.0103 -2.5010
  137SOL    HW3  602   1.807   2.488   0.408 -0.3775  0.3345 -0.1632
  137SOL    MW4  603   1.783   2.409   0.435  0.0005  0.0001 -0.0000
  138SOL     OW  604   2.050   3.014   0.468 -0.1027  0.2441  0.1229
  138SOL    HW2  605   2.034   2.964   0.548 -1.1249  0.7677  0.2538
  138SOL    HW3  606   2.000   2.968   0.400 -2.9009  2.3183  0.6845
  138SOL    MW4  607   2.041   3.001   0.470  0.0005  0.0001 -0.0000
  139SOL     OW  608   2.034   3.702   0.485  0.0231  0.0020  0.2181
  139SOL    HW2  609   2.129   3.711   0.477  0.0521 -0.0202  0.5464
  139SOL    HW3  610   2.019   3.680   0.577 -0.2730 -0.3583  0.0860
  139SOL    MW4  611   2.045   3.700   0.496  0.0005  0.0001 -0.0000
  140SOL     OW  612   2.188   4.063   0.445  0.6679 -0.3673  0.3053
  140SOL    HW2  613   2.199   3.995   0.379 -1.0552 -0.4734  0.1098
  140SOL    HW3  614   2.264   4.120   0.433 -0.2499  0.3313 -2.6322
  140SOL    MW4  615   2.199   4.062   0.435  0.0005  0.0001 -0.0000
  141SOL     OW  616   1.628   3.631   0.564 -0.3070 -0.1597  0.1376
  141SOL    HW2  617   1.635   3.538   0.541 -1.8685 -0.1355 -0.4976
  141SOL    HW3  618   1.705   3.671   0.525  0.2297 -1.1438  0.1701
  141SOL    MW4  619   1.639   3.624   0.556  0.0005  0.0001 -0.0000
  142SOL     OW  620   1.921   3.494   0.315  0.2055 -0.5637  0.2348
  142SOL    HW2  621   1.990   3.471   0.253 -0.0676  0.5552 -0.5007
  142SOL    HW3  622   1.957   3.568   0.364 -0.5939  0.2474 -0.3871
  142SOL    MW4  623   1.935   3.501   0.313  0.0005  0.0001 -0.0000
  143SOL     OW  624   2.098   4.472   0.519 -0.3645 -0.3344  0.0662
  143SOL    HW2  625   2.085   4.377   0.514 -0.8711 -0.1702 -2.0772
  143SOL    HW3  626   2.019   4.510   0.481  0.4163  0.9236 -0.3458
  143SOL    MW4  627   2.086   4.465   0.513  0.0005  0.0001 -0.0000
  144SOL     OW  628   1.976   4.232   0.451  0.2434  0.5299 -0.6692
  144SOL    HW2  629   1.902   4.173   0.464 -0.2091  1.4448  1.0757
  144SOL    HW3  630   2.051   4.174   0.436 -0.3070 -0.4750  0.3938
  144SOL    MW4  631   1.976   4.217   0.451  0.0005  0.0001 -0.0000
  145SOL     OW  632   2.400   4.266   0.427  0.2408  0.3579 -0.2604
  145SOL    HW2  633   2.405   4.303   0.515  0.6504 -0.8332  0.2205
  145SOL    HW3  634   2.443   4.331   0.372  0.4995  0.8455  0.5077
  145SOL    MW4  635   2.406   4.280   0.431  0.0005  0.0001 -0.0000
  146SOL     OW  636   2.329   3.898   0.261  0.3186  0.2005 -0.0994
  146SOL    HW2  637   2.300   3.866   0.176  0.4834 -0.6608  0.1615
  146SOL    HW3  638   2.310   3.826   0.321  0.5751  0.6475  0.5210
  146SOL    MW4  639   2.323   3.884   0.258  0.0005  0.0001 -0.0000
  147SOL     OW  640   2.773   3.919   0.507  0.3422  0.5967  0.0512
  147SOL    HW2  641   2.692   3.948   0.465 -0.9692 -1.0896  1.3567
  147SOL    HW3  642   2.835   3.990   0.490 -0.9029  1.1588 -2.4130
  147SOL    MW4  643   2.770   3.932   0.499  0.0005  0.0001 -0.0000
  148SOL     OW  644   2.443   0.470   0.445 -0.2832  0.1761 -0.4262
  148SOL    HW2  645   2.348   0.474   0.435 -0.0237 -0.3392 -3.7082
  148SOL    HW3  646   2.466   0.382   0.415  1.3354  0.7061 -0.7733
  148SOL    MW4  647   2.434   0.459   0.440  0.0005  0.0001 -0.0000
  149SOL     OW  648   1.740   0.305   0.341 -0.3282  0.1604  0.9488
  149SOL    HW2  649   1.811   0.356   0.302 -0.0268  0.0764  1.3846
  149SOL    HW3  650   1.784   0.231   0.384 -0.8013 -0.7697 -0.1401
  149SOL    MW4  651   1.755   0.302   0.342  0.0005  0.0001 -0.0000
  150SOL     OW  652   3.138   0.373   0.376  0.1751 -0.0406  0.2789
  150SOL    HW2  653   3.229   0.402   0.372  0.2633 -0.3028  0.3921
  150SOL    HW3  654   3.143   0.279   0.391 -0.1144 -0.0764  0.1587
  150SOL    MW4  655   3.151   0.364   0.377  0.0005  0.0001 -0.0000
  151SOL     OW  656   2.467   1.115   0.474  0.2620 -0.8311 -0.1471
  151SOL    HW2  657   2.515   1.180   0.422 -0.1953 -1.6647 -1.6282
  151SOL    HW3  658   2.526   1.040   0.480 -0.0367 -1.0750 -0.2173
  151SOL    MW4  659   2.481   1.114   0.468  0.0005  0.0001 -0.0000
  152SOL     OW  660   3.261   0.784   0.429  0.3556  0.2278  0.4438
  152SOL    HW2  661   3.336   0.841   0.414  0.4271  0.2134  0.7472
  152SOL    HW3  662   3.219   0.819   0.507 -1.5624  1.9287 -1.2904
  152SOL    MW4  663   3.265   0.796   0.437  0.0005  0.0001 -0.0000
  153SOL     OW  664   3.198   1.614   0.475 -0.0624  0.1601  0.0812
  153SOL    HW2  665   3.212   1.519   0.478 -0.7860  0.0854  1.5104
  153SOL    HW3  666   3.283   1.650   0.448  0.4172 -0.8450  0.2267
  153SOL    MW4  667   3.211   1.606   0.472  0.0005  0.0001 -0.0000
  154SOL     OW  668   3.195   1.192   0.366 -0.3531 -0.2647 -0.1221
  154SOL    HW2  669   3.158   1.161   0.284 -0.2280  1.3659 -0.8147
  154SOL    HW3  670   3.119   1.213   0.421 -0.4397 -0.4700 -0.1631
  154SOL    MW4  671   3.180   1.191   0.362  0.0005  0.0001 -0.0000
  155SOL     OW  672   3.430   1.770   0.426 -0.1120  0.3818 -0.3461
  155SOL    HW2  673   3.399   1.846   0.376  0.4629  0.3010 -0.8291
  155SOL    HW3  674   3.512   1.799   0.467  0.1243  0.0158 -0.5545
  155SOL    MW4  675   3.437   1.784   0.425  0.0005  0.0001 -0.0000
  156SOL     OW  676   2.763   0.195   0.617  0.7388 -0.2635 -0.2296
  156SOL    HW2  677   2.756   0.258   0.688  0.2384  0.2888 -0.7641
  156SOL    HW3  678   2.801   0.244   0.545 -4.3295  0.8822 -2.3425
  156SOL    MW4  679   2.767   0.210   0.617  0.0005  0.0001 -0.0000
  157SOL     OW  680   3.165   2.071   0.619 -0.4650  0.0700 -0.0804
  157SOL    HW2  681   3.070   2.084   0.618 -0.6285 -0.9546  1.1133
  157SOL    HW3  682   3.179   2.000   0.681  0.9729 -0.7651 -1.3237
  157SOL    MW4  683   3.154   2.063   0.627  0.0005  0.0001 -0.0000
  158SOL     OW  684   2.825   2.416   0.303 -0.0148 -0.1097 -0.0985
  158SOL    HW2  685   2.851   2.399   0.212  0.2527 -1.3283  0.1959
  158SOL    HW3  686   2.908   2.418   0.352 -0.0055  2.4196 -0.1601
  158SOL    MW4  687   2.839   2.414   0.297  0.0005  0.0001 -0.0000
  159SOL     OW  688   2.947   1.496   0.379  0.5527  0.1093  0.0666
  159SOL    HW2  689   2.866   1.545   0.393  0.8415  0.7278 -0.4019
  159SOL    HW3  690   3.016   1.553   0.414  0.9819  0.4349 -1.2794
  159SOL    MW4  691   2.945   1.510   0.385  0.0005  0.0001 -0.0000
  160SOL     OW  692   2.620   2.521   0.471  0.2315 -0.1102  0.0121
  160SOL    HW2  693   2.598   2.612   0.451 -1.5149 -0.8416 -1.5447
  160SOL    HW3  694   2.682   2.496   0.403 -0.5800 -0.5790 -0.5643
  160SOL    MW4  695   2.625   2.530   0.459  0.0005  0.0001 -0.0000
  161SOL     OW  696   2.736   3.193   0.572 -0.4793 -0.1147 -0.2468
  161SOL    HW2  697   2.786   3.262   0.529 -2.2333  0.8336 -0.8202
  161SOL    HW3  698   2.741   3.213   0.665 -0.6895  0.5930 -0.3871
  161SOL    MW4  699   2.743   3.205   0.579  0.0005  0.0001 -0.0000
  162SOL     OW  700   2.856   3.393   0.422 -0.3195 -0.1363 -0.6180
  162SOL    HW2  701   2.946   3.361   0.422 -0.4470 -0.4986 -0.6633
  162SOL    HW3  702   2.864   3.488   0.434  0.0452 -0.2285 -0.1169
  162SOL    MW4  703   2.869   3.401   0.424  0.0005  0.0001 -0.0000
  163SOL     OW  704   3.095   3.249   0.482 -0.1777  0.6808 -0.1691
  163SOL    HW2  705   3.109   3.155   0.470 -1.8197  0.4838 -0.6834
  163SOL    HW3  706   3.095   3.262   0.577 -1.2388 -0.0570 -0.0612
  163SOL    MW4  707   3.097   3.238   0.493  0.0005  0.0001 -0.0000
  164SOL     OW  708   2.355   3.461   0.360  0.1051  0.1840 -0.3969
  164SOL    HW2  709   2.447   3.451   0.334  0.2482  0.3937  0.0204
  164SOL    HW3  710   2.341   3.394   0.427  0.7060  1.8725  1.4673
  164SOL    MW4  711   2.365   3.451   0.365  0.0005  0.0001 -0.0000
  165SOL     OW  712   2.164   3.460   0.116  0.1478 -0.4883  0.2323
  165SOL    HW2  713   2.233   3.478   0.180  0.4399 -1.1634  0.1133
  165SOL    HW3  714   2.210   3.422   0.041 -0.2512 -0.1582 -0.1856
  165SOL    MW4  715   2.179   3.457   0.115  0.0005  0.0001 -0.0000
  166SOL     OW  716   3.626   3.473   0.241  0.0301  0.2757 -0.0664
  166SOL    HW2  717   3.668   3.416   0.305 -0.9913 -1.7144 -1.1246
  166SOL    HW3  718   3.532   3.456   0.251 -0.1697  0.2953 -1.7400
  166SOL    MW4  719   3.619   3.463   0.251  0.0005  0.0001 -0.0000
  167SOL     OW  720   2.567   4.031   0.352 -0.0365 -0.2899  0.0546
  167SOL    HW2  721   2.535   4.121   0.359 -0.0881 -0.0649 -2.5136
  167SOL    HW3  722   2.499   3.986   0.301  0.3029 -1.6243  0.7671
  167SOL    MW4  723   2.554   4.037   0.346  0.0005  0.0001 -0.0000
  168SOL     OW  724   2.304   3.705   0.463 -0.1207  0.3453  0.2027
  168SOL    HW2  725   2.334   3.694   0.553 -0.5921  0.4246  0.3700
  168SOL    HW3  726   2.335   3.626   0.418 -1.3739 -0.5250  0.8349
  168SOL    MW4  727   2.312   3.693   0.469  0.0005  0.0001 -0.0000
  169SOL     OW  728   3.615   3.995   0.456  0.1234 -0.4176 -0.4131
  169SOL    HW2  729   3.541   4.048   0.427  0.4671 -0.4132 -1.2962
  169SOL    HW3  730   3.597   3.907   0.422  0.0993 -0.6158  0.1065
  169SOL    MW4  731   3.603   3.990   0.448  0.0005  0.0001 -0.0000
  170SOL     OW  732   2.937   4.391   0.416 -0.3251  0.9979 -0.2703
  170SOL    HW2  733   2.915   4.414   0.506  1.0876 -0.7543  0.5557
  170SOL    HW3  734   2.900   4.304   0.404  0.1869  0.8927 -1.1208
  170SOL    MW4  735   2.929   4.383   0.426  0.0005  0.0001 -0.0000
  171SOL     OW  736   3.394   4.408   0.464 -0.6695 -0.1847  0.2071
  171SOL    HW2  737   3.461   4.464   0.424  0.0841 -0.8301  0.5533
  171SOL    HW3  738   3.311   4.442   0.430 -0.2964  1.7729  1.1787
  171SOL    MW4  739   3.392   4.420   0.454  0.0005  0.0001 -0.0000
  172SOL     OW  740   3.161   4.522   0.339 -0.3114 -0.1670 -0.1115
  172SOL    HW2  741   3.080   4.479   0.365  0.7032 -3.0324 -1.4773
  172SOL    HW3  742   3.155   4.529   0.244  1.5605 -1.5858 -0.3639
  172SOL    MW4  743   3.149   4.517   0.330  0.0005  0.0001 -0.0000
  173SOL     OW  744   2.901   4.124   0.329 -0.5137 -0.1694  0.1275
  173SOL    HW2  745   2.841   4.085   0.265  0.2842  1.4769 -1.6763
  173SOL    HW3  746   2.988   4.098   0.299 -0.1720 -0.1301  1.0702
  173SOL    MW4  747   2.905   4.115   0.317  0.0005  0.0001 -0.0000
  174SOL     OW  748   2.636   0.798   0.160  0.4916  0.1421 -0.2663
  174SOL    HW2  749   2.593   0.800   0.075 -0.1339 -0.2230  0.0374
  174SOL    HW3  750   2.710   0.858   0.151  0.1459  0.4753 -0.9132
  174SOL    MW4  751   2.640   0.806   0.148  0.0005  0.0001 -0.0000
  175SOL     OW  752   3.370   0.538   0.407 -0.0383  0.2439 -0.3498
  175SOL    HW2  753   3.460   0.549   0.376 -0.6046  1.0027 -1.7665
  175SOL    HW3  754   3.335   0.627   0.411  0.3368  0.3036  3.5850
  175SOL    MW4  755   3.377   0.551   0.403  0.0005  0.0001 -0.0000
  176SOL     OW  756   2.893   0.430   0.499  0.1329  0.3292 -0.7063
  176SOL    HW2  757   2.854   0.495   0.441 -0.0490  0.9927  0.1436
  176SOL    HW3  758   2.979   0.412   0.462  0.6545  1.9305 -0.3041
  176SOL    MW4  759   2.899   0.436   0.486  0.0005  0.0001 -0.0000
  177SOL     OW  760   3.626   0.476   0.334  0.1604 -0.4077  0.4542
  177SOL    HW2  761   3.696   0.497   0.395 -0.4812 -1.0342  1.4208
  177SOL    HW3  762   3.671   0.457   0.252  1.1789 -1.4370  1.2270
  177SOL    MW4  763   3.641   0.476   0.331  0.0005  0.0001 -0.0000
  178SOL     OW  764   3.080   0.698   0.229  0.5622 -0.3964 -0.3646
  178SOL    HW2  765   3.155   0.729   0.281  0.0334  0.7505 -0.2691
  178SOL    HW3  766   3.073   0.605   0.250  0.1949  0.1018  1.8442
  178SOL    MW4  767   3.089   0.690   0.239  0.0005  0.0001 -0.0000
  179SOL     OW  768   3.672   1.870   0.534 -0.0149 -0.6651  0.4821
  179SOL    HW2  769   3.660   1.830   0.620  1.2149  0.1320  1.0387
  179SOL    HW3  770   3.624   1.953   0.539  0.0385 -0.6289  0.3919
  179SOL    MW4  771   3.664   1.876   0.546  0.0005  0.0001 -0.0000
  180SOL     OW  772   3.318   2.062   0.393 -0.6218  0.1967 -0.6235
  180SOL    HW2  773   3.264   2.045   0.470  0.6772 -0.7908  0.0903
  180SOL    HW3  774   3.294   2.151   0.366 -2.2461 -0.0509 -0.0441
  180SOL    MW4  775   3.308   2.071   0.400  0.0005  0.0001 -0.0000
  181SOL     OW  776   3.461   0.993   0.406  0.1074 -0.2369  0.1123
  181SOL    HW2  777   3.407   1.069   0.384 -0.3404 -0.2229  1.2222
  181SOL    HW3  778   3.470   0.997   0.501 -0.8938 -2.2200  0.3154
  181SOL    MW4  779   3.455   1.004   0.416  0.0005  0.0001 -0.0000
  182SOL     OW  780   3.546   2.110   0.541  0.0821 -0.5779 -0.2028
  182SOL    HW2  781   3.466   2.100   0.489 -0.2713 -2.9573  0.7380
  182SOL    HW3  782   3.517   2.102   0.632  1.2018 -0.0603  0.2108
  182SOL    MW4  783   3.532   2.108   0.546  0.0005  0.0001 -0.0000
  183SOL     OW  784   3.278   2.321   0.664 -0.4149  0.0185  0.0579
  183SOL    HW2  785   3.235   2.236   0.652 -0.2219 -0.1672  0.6495
  183SOL    HW3  786   3.325   2.312   0.747  0.8453  0.1854 -0.6274
  183SOL    MW4  787   3.279   2.309   0.673  0.0005  0.0001 -0.0000
  184SOL     OW  788   3.573   2.739   0.600 -0.3615 -0.2421  0.5651
  184SOL    HW2  789   3.596   2.753   0.692  0.5346  0.6964  0.2066
  184SOL    HW3  790   3.622   2.660   0.576 -1.6114 -1.2434  1.2397
  184SOL    MW4  791   3.582   2.730   0.609  0.0005  0.0001 -0.0000
  185SOL     OW  792   2.530   3.082   0.413  0.0797  0.0671 -0.4766
  185SOL    HW2  793   2.452   3.131   0.438 -0.4753 -1.2466  0.4229
  185SOL    HW3  794   2.595   3.105   0.480  0.5876  1.4149 -1.4097
  185SOL    MW4  795   2.528   3.091   0.425  0.0005  0.0001 -0.0000
  186SOL     OW  796   3.138   2.752   0.277  0.4504 -0.1200 -0.0852
  186SOL    HW2  797   3.125   2.664   0.312  0.9246  0.1360  0.7439
  186SOL    HW3  798   3.143   2.739   0.182  0.7456 -1.0133  0.0433
  186SOL    MW4  799   3.137   2.739   0.269  0.0005  0.0001 -0.0000
  187SOL     OW  800   2.928   2.855   0.836  0.0187 -0.1515 -0.3229
  187SOL    HW2  801   2.928   2.861   0.740  0.4222 -0.5367 -0.3499
  187SOL    HW3  802   3.012   2.814   0.857  0.0907  0.2713  0.2186
  187SOL    MW4  803   2.939   2.850   0.826  0.0005  0.0001 -0.0000
  188SOL     OW  804   3.210   0.105   0.456 -0.2073 -0.0794 -0.0712
  188SOL    HW2  805   3.191   0.089   0.548 -0.6816 -0.1643 -0.1824
  188SOL    HW3  806   3.185   0.024   0.412  0.6470 -0.2831 -0.1904
  188SOL    MW4  807   3.204   0.092   0.462  0.0005  0.0001 -0.0000
  189SOL     OW  808   3.168   3.806   0.442 -0.0952 -0.3007 -0.4389
  189SOL    HW2  809   3.230   3.738   0.468 -1.5597 -0.8687  1.6734
  189SOL    HW3  810   3.158   3.861   0.520 -2.0329 -0.0804 -0.8141
  189SOL    MW4  811   3.175   3.804   0.456  0.0005  0.0001 -0.0000
  190SOL     OW  812   3.586   3.713   0.406  0.3547  0.3036  0.4161
  190SOL    HW2  813   3.597   3.664   0.324 -1.3954  0.1120  0.2778
  190SOL    HW3  814   3.504   3.680   0.443  0.4377  1.3569  1.5748
  190SOL    MW4  815   3.577   3.702   0.400  0.0005  0.0001 -0.0000
  191SOL     OW  816   3.575   3.244   0.455  0.1119 -0.0145 -0.3260
  191SOL    HW2  817   3.664   3.277   0.445 -0.0080 -0.3614 -2.8472
  191SOL    HW3  818   3.583   3.150   0.439 -0.9378  0.1969 -2.1999
  191SOL    MW4  819   3.588   3.236   0.452  0.0005  0.0001 -0.0000
  192SOL     OW  820   3.348   3.374   0.376  0.4866 -0.1212 -0.1812
  192SOL    HW2  821   3.271   3.318   0.388  0.7715 -0.4314  0.2006
  192SOL    HW3  822   3.419   3.326   0.418  0.8061  0.3585 -0.1780
  192SOL    MW4  823   3.347   3.360   0.383  0.0005  0.0001 -0.0000
  193SOL     OW  824   3.154   4.035   0.227  0.3591  0.2941 -0.2303
  193SOL    HW2  825   3.152   3.958   0.284  0.7144  0.3527 -0.1381
  193SOL    HW3  826   3.176   4.001   0.140 -1.0397  0.0965 -0.5185
  193SOL    MW4  827   3.157   4.020   0.223  0.0005  0.0001 -0.0000
  194SOL     OW  828   2.601   3.343   0.297  0.5884  0.1135  0.1637
  194SOL    HW2  829   2.697   3.345   0.297  0.5779  1.2478 -0.9760
  194SOL    HW3  830   2.579   3.253   0.320  1.9310 -0.1889  0.3086
  194SOL    MW4  831   2.611   3.331   0.300  0.0005  0.0001 -0.0000
  195SOL     OW  832   4.220   0.086   0.423 -0.3300 -0.1371 -0.6765
  195SOL    HW2  833   4.306   0.067   0.459 -0.7615 -0.8278 -0.0054
  195SOL    HW3  834   4.169   0.006   0.437 -0.4958 -0.4506 -2.8669
  195SOL    MW4  835   4.225   0.073   0.430  0.0005  0.0001 -0.0000
  196SOL     OW  836   3.734   0.168   0.364  0.0387  0.5028  0.0956
  196SOL    HW2  837   3.665   0.202   0.421 -0.1189 -1.1305  0.9075
  196SOL    HW3  838   3.815   0.189   0.411 -0.0330  0.2016  0.3568
  196SOL    MW4  839   3.736   0.175   0.378  0.0005  0.0001 -0.0000
  197SOL     OW  840   3.514   0.260   0.492  0.1387 -0.5250  0.0256
  197SOL    HW2  841   3.425   0.225   0.486 -0.5539  0.9033  1.5815
  197SOL    HW3  842   3.510   0.345   0.448  0.6638 -0.3333  0.3395
  197SOL    MW4  843   3.502   0.267   0.485  0.0005  0.0001 -0.0000
  198SOL     OW  844   3.858   0.583   0.506  0.0571  0.1359 -0.0958
  198SOL    HW2  845   3.848   0.570   0.600  1.0193  1.6278  0.2296
  198SOL    HW3  846   3.927   0.522   0.481 -0.6847 -0.7661  0.0276
  198SOL    MW4  847   3.866   0.573   0.515  0.0005  0.0001 -0.0000
  199SOL     OW  848   4.009   0.425   0.301  0.3647  0.1670 -0.1837
  199SOL    HW2  849   4.098   0.405   0.273  0.2143 -0.6272 -0.1053
  199SOL    HW3  850   3.953   0.389   0.232  0.0986  0.5473 -0.1685
  199SOL    MW4  851   4.013   0.418   0.288  0.0005  0.0001 -0.0000
  200SOL     OW  852   4.227   0.822   0.434 -0.1625 -0.4189 -0.0795
  200SOL    HW2  853   4.143   0.819   0.480  0.1759 -0.8049  0.5175
  200SOL    HW3  854   4.204   0.807   0.342 -0.8451  0.3937 -0.0493
  200SOL    MW4  855   4.213   0.820   0.428  0.0005  0.0001 -0.0000
  201SOL     OW  856   3.757   1.032   0.449  0.2690 -0.3515  0.2414
  201SOL    HW2  857   3.757   1.127   0.462  1.9886 -0.0931 -1.4484
  201SOL    HW3  858   3.665   1.010   0.437 -0.0290  1.3171 -0.7244
  201SOL    MW4  859   3.745   1.042   0.449  0.0005  0.0001 -0.0000
  202SOL     OW  860   4.091   1.387   0.364  0.2295 -0.2571 -0.0648
  202SOL    HW2  861   4.067   1.403   0.273  0.4902 -0.0167 -0.0919
  202SOL    HW3  862   4.125   1.471   0.395  1.2244 -0.6444 -0.0882
  202SOL    MW4  863   4.092   1.400   0.356  0.0005  0.0001 -0.0000
  203SOL     OW  864   3.820   1.313   0.466  0.4084  0.6282  0.0774
  203SOL    HW2  865   3.909   1.343   0.448  0.4944  0.4129  0.1452
  203SOL    HW3  866   3.766   1.391   0.454  0.4838  0.5302 -0.9464
  203SOL    MW4  867   3.825   1.327   0.462  0.0005  0.0001 -0.0000
  204SOL     OW  868   3.371   1.394   0.484 -0.8450 -0.3338  0.1243
  204SOL    HW2  869   3.381   1.369   0.576  1.4511 -0.7956 -0.2194
  204SOL    HW3  870   3.328   1.319   0.443 -0.8207 -0.6048  0.5929
  204SOL    MW4  871   3.367   1.381   0.491  0.0005  0.0001 -0.0000
  205SOL     OW  872   3.670   1.568   0.494 -0.5000  0.3532  0.1514
  205SOL    HW2  873   3.579   1.548   0.473 -0.0230 -0.5085 -1.1622
  205SOL    HW3  874   3.676   1.663   0.487 -0.8471  0.2573 -1.6914
  205SOL    MW4  875   3.659   1.578   0.490  0.0005  0.0001 -0.0000
  206SOL     OW  876   3.731   2.521   0.539  0.2107  0.2978 -0.6736
  206SOL    HW2  877   3.684   2.456   0.487 -0.1159  0.1022 -0.1365
  206SOL    HW3  878   3.722   2.491   0.629  1.7857 -0.0092 -0.6033
  206SOL    MW4  879   3.724   2.508   0.544  0.0005  0.0001 -0.0000
  207SOL     OW  880   3.949   2.519   0.378  0.1117 -0.5396 -0.0945
  207SOL    HW2  881   3.873   2.517   0.436 -0.1071  0.7906 -0.3167
  207SOL    HW3  882   4.017   2.473   0.427 -0.7434 -1.4728  0.2328
  207SOL    MW4  883   3.948   2.513   0.392  0.0005  0.0001 -0.0000
  208SOL     OW  884   3.070   2.489   0.401  0.2385  0.4285 -0.1059
  208SOL    HW2  885   3.147   2.444   0.366 -0.2761 -0.2963 -0.3150
  208SOL    HW3  886   3.086   2.493   0.495  0.3539 -0.0677 -0.1023
  208SOL    MW4  887   3.082   2.484   0.409  0.0005  0.0001 -0.0000
  209SOL     OW  888   2.907   3.661   0.498  0.3680  0.1217 -0.0474
  209SOL    HW2  889   2.993   3.699   0.481  0.8359  0.1063  2.1319
  209SOL    HW3  890   2.846   3.735   0.494  0.3957  0.0622 -2.0341
  209SOL    MW4  891   2.910   3.676   0.495  0.0005  0.0001 -0.0000
  210SOL     OW  892   3.092   2.954   0.441 -0.6784  0.6153 -0.4098
  210SOL    HW2  893   3.109   2.892   0.370  0.4266  0.0165  0.3644
  210SOL    HW3  894   3.007   2.927   0.476 -0.4177 -0.1806 -0.3768
  210SOL    MW4  895   3.083   2.942   0.436  0.0005  0.0001 -0.0000
  211SOL     OW  896   4.037   2.784   0.411  0.0195  0.0965 -0.0215
  211SOL    HW2  897   4.132   2.789   0.425 -0.1861 -0.6872  1.7761
  211SOL    HW3  898   4.022   2.695   0.379 -0.2841 -0.3297  1.2743
  211SOL    MW4  899   4.047   2.773   0.409  0.0005  0.0001 -0.0000
  212SOL     OW  900   3.689   2.980   0.520  0.0145  0.2639 -0.0312
  212SOL    HW2  901   3.763   2.979   0.580 -0.3019  2.3142  0.4287
  212SOL    HW3  902   3.640   2.900   0.541  1.4072 -0.4666  0.5043
  212SOL    MW4  903   3.692   2.969   0.531  0.0005  0.0001 -0.0000
  213SOL     OW  904   3.982   3.751   0.388  0.1408  0.2781 -0.4869
  213SOL    HW2  905   3.954   3.691   0.457 -0.9344  0.8722 -0.3957
  213SOL    HW3  906   3.949   3.712   0.307  0.4893  0.1254 -0.5564
  213SOL    MW4  907   3.974   3.738   0.386  0.0005  0.0001 -0.0000
  214SOL     OW  908   3.307   2.352   0.360 -0.2753  0.0861  0.0470
  214SOL    HW2  909   3.317   2.338   0.454  0.6414  0.2825 -0.0176
  214SOL    HW3  910   3.395   2.371   0.329 -0.7276  1.0238 -0.6913
  214SOL    MW4  911   3.320   2.353   0.368  0.0005  0.0001 -0.0000
  215SOL     OW  912   3.349   3.613   0.514  0.0022  0.5664  0.1000
  215SOL    HW2  913   3.333   3.524   0.482 -1.6093  0.9611 -0.2234
  215SOL    HW3  914   3.374   3.601   0.606  0.6140 -0.2730 -0.1697
  215SOL    MW4  915   3.350   3.600   0.522  0.0005  0.0001 -0.0000
  216SOL     OW  916   4.239   3.695   0.479 -0.2546 -0.4276 -0.2010
  216SOL    HW2  917   4.153   3.720   0.446 -0.4584 -0.6905  0.1279
  216SOL    HW3  918   4.257   3.611   0.438 -0.4691 -0.7127  0.2843
  216SOL    MW4  919   4.230   3.687   0.469  0.0005  0.0001 -0.0000
  217SOL     OW  920   3.376   4.134   0.376 -0.1620  0.0448  0.6376
  217SOL    HW2  921   3.377   4.228   0.395 -0.6995 -0.0369  1.0746
  217SOL    HW3  922   3.303   4.122   0.316  0.0745 -0.0549  0.3676
  217SOL    MW4  923   3.366   4.145   0.371  0.0005  0.0001 -0.0000
  218SOL     OW  924   3.803   4.425   0.565  0.0388  0.3164 -0.2370
  218SOL    HW2  925   3.831   4.343   0.524  1.2152  0.8996 -0.6178
  218SOL    HW3  926   3.805   4.406   0.659  1.5847  0.2903 -0.2602
  218SOL    MW4  927   3.807   4.412   0.572  0.0005  0.0001 -0.0000
  219SOL     OW  928   4.487   0.051   0.552  0.0116 -0.0836 -0.1776
  219SOL    HW2  929   4.539  -0.029   0.539  2.1340  1.3868 -1.0235
  219SOL    HW3  930   4.486   0.064   0.647  0.4705 -0.5949 -0.1007
  219SOL    MW4  931   4.494   0.042   0.563  0.0005  0.0001 -0.0000
  220SOL     OW  932   3.957   0.838   0.508  0.2611  0.1669 -0.0414
  220SOL    HW2  933   3.897   0.900   0.467  0.3512  0.7105  0.6358
  220SOL    HW3  934   3.906   0.758   0.519  0.2479  0.0037 -1.2380
  220SOL    MW4  935   3.942   0.836   0.504  0.0005  0.0001 -0.0000
  221SOL     OW  936   0.055   1.764   0.115 -0.1230  0.0401  0.1421
  221SOL    HW2  937  -0.040   1.768   0.108 -0.1887 -0.3649  0.7841
  221SOL    HW3  938   0.087   1.801   0.033 -0.8473 -0.7324 -0.4924
  221SOL    MW4  939   0.047   1.769   0.103  0.0005  0.0001 -0.0000
  222SOL     OW  940   4.288   0.339   0.316  0.3994 -0.1570  0.1872
  222SOL    HW2  941   4.282   0.253   0.359  1.3957  0.0573  0.7747
  222SOL    HW3  942   4.330   0.395   0.381 -1.0736  1.0204  0.1487
  222SOL    MW4  943   4.293   0.335   0.330  0.0005  0.0001 -0.0000
  223SOL     OW  944   4.423   0.996   0.519 -0.2752 -0.0622  0.1315
  223SOL    HW2  945   4.413   1.089   0.498  1.0713 -0.1598 -1.0240
  223SOL    HW3  946   4.347   0.954   0.480 -1.5210  0.6934  1.6897
  223SOL    MW4  947   4.412   1.003   0.511  0.0005  0.0001 -0.0000
  224SOL     OW  948   3.626   4.620   0.484 -0.2678  0.1752  0.1425
  224SOL    HW2  949   3.697   4.560   0.507 -1.2581 -0.6779  1.0461
  224SOL    HW3  950   3.668   4.687   0.430  0.9427 -1.1025 -0.5469
  224SOL    MW4  951   3.641   4.621   0.480  0.0005  0.0001 -0.0000
  225SOL     OW  952   4.321   1.253   0.438 -0.1240 -0.9371  0.1658
  225SOL    HW2  953   4.295   1.266   0.529 -0.6868  1.9371 -0.3566
  225SOL    HW3  954   4.248   1.288   0.387  1.0780 -0.6177 -1.3723
  225SOL    MW4  955   4.308   1.259   0.443  0.0005  0.0001 -0.0000
  226SOL     OW  956   0.064   1.376   0.431 -0.2078  0.1349 -0.1612
  226SOL    HW2  957  -0.028   1.360   0.453 -0.4615 -0.1854 -1.4150
  226SOL    HW3  958   0.108   1.292   0.446 -0.8486 -0.8040 -3.1918
  226SOL    MW4  959   0.058   1.363   0.436  0.0005  0.0001 -0.0000
  227SOL     OW  960   4.001   2.123   0.475  0.1053  0.0505 -0.4599
  227SOL    HW2  961   3.944   2.163   0.409  1.4030  0.9125 -1.0682
  227SOL    HW3  962   4.055   2.195   0.508  0.4302 -0.6425  0.5485
  227SOL    MW4  963   4.001   2.138   0.471  0.0005  0.0001 -0.0000
  228SOL     OW  964   4.084   1.845   0.531  0.3455 -0.2363 -0.4122
  228SOL    HW2  965   4.153   1.912   0.529 -0.6377  0.8168  0.2142
  228SOL    HW3  966   4.005   1.892   0.506 -0.8548 -0.5498  2.5921
  228SOL    MW4  967   4.083   1.860   0.527  0.0005  0.0001 -0.0000
  229SOL     OW  968   4.389   2.139   0.438  0.1873 -0.2883  0.0713
  229SOL    HW2  969   4.430   2.224   0.455 -0.3494  0.4170 -2.0035
  229SOL    HW3  970   4.462   2.080   0.418  0.5162 -0.1819  0.9415
  229SOL    MW4  971   4.404   2.142   0.438  0.0005  0.0001 -0.0000
  230SOL     OW  972   4.195   2.081   0.251  0.0872 -0.1644  0.2501
  230SOL    HW2  973   4.117   2.106   0.301  0.1515  0.3914  0.0746
  230SOL    HW3  974   4.268   2.116   0.301  0.1629  0.2346 -0.1354
  230SOL    MW4  975   4.194   2.089   0.264  0.0005  0.0001 -0.0000
  231SOL     OW  976   4.449   2.405   0.513 -0.3864  0.6150  0.3295
  231SOL    HW2  977   4.520   2.443   0.461 -0.7585  0.0810 -0.5776
  231SOL    HW3  978   4.458   2.446   0.599  2.1697 -0.8154  0.7969
  231SOL    MW4  979   4.460   2.415   0.517  0.0005  0.0001 -0.0000
  232SOL     OW  980   3.927   3.032   0.329  0.7440 -0.2706  0.1816
  232SOL    HW2  981   3.971   2.947   0.333  0.0674 -0.6299  0.0495
  232SOL    HW3  982   3.834   3.012   0.342  0.4302  0.3088 -1.0677
  232SOL    MW4  983   3.921   3.018   0.331  0.0005  0.0001 -0.0000
  233SOL     OW  984   4.166   2.360   0.541  0.4350  0.4812  0.2082
  233SOL    HW2  985   4.147   2.400   0.626  0.3254  0.4805  0.1843
  233SOL    HW3  986   4.261   2.351   0.539  0.4099  0.1492  0.4815
  233SOL    MW4  987   4.176   2.364   0.552  0.0005  0.0001 -0.0000
  234SOL     OW  988   0.166   3.630   0.453 -0.5411  0.2261  0.0799
  234SOL    HW2  989   0.117   3.710   0.434 -0.8469  0.3412  1.3181
  234SOL    HW3  990   0.257   3.658   0.456 -0.4224  0.0998 -1.7561
  234SOL    MW4  991   0.172   3.644   0.451  0.0005  0.0001 -0.0000
  235SOL     OW  992   3.829   3.631   0.155  0.1515 -0.7399  0.1023
  235SOL    HW2  993   3.764   3.565   0.180 -0.9689  0.9839  1.8832
  235SOL    HW3  994   3.801   3.660   0.068 -1.3921 -0.1398  0.7787
  235SOL    MW4  995   3.817   3.626   0.147  0.0005  0.0001 -0.0000
  236SOL     OW  996   0.604   3.221   0.451 -0.1591 -0.3400  0.2500
  236SOL    HW2  997   0.560   3.265   0.524  0.5229  0.0516  0.4317
  236SOL    HW3  998   0.669   3.284   0.420 -0.0008 -0.7539 -0.2800
  236SOL    MW4  999   0.607   3.235   0.456  0.0005  0.0001 -0.0000
  237SOL     OW 1000   3.803   3.602   0.543 -0.1324  0.2895  0.5136
  237SOL    HW2 1001   3.730   3.645   0.498  1.2989  0.3626 -1.7943
  237SOL    HW3 1002   3.782   3.612   0.636 -3.7866 -0.9524 -0.0832
  237SOL    MW4 1003   3.791   3.609   0.549  0.0005  0.0001 -0.0000
  238SOL     OW 1004   4.083   3.204   0.489 -0.2912  0.3240  0.3758
  238SOL    HW2 1005   4.048   3.186   0.577  1.4587 -2.7792  0.5131
  238SOL    HW3 1006   4.035   3.144   0.432  0.1814  0.7196 -0.4416
  238SOL    MW4 1007   4.072   3.194   0.493  0.0005  0.0001 -0.0000
  239SOL     OW 1008   4.304   4.081   0.523 -0.3912 -0.6681  0.4850
  239SOL    HW2 1009   4.224   4.029   0.532 -0.7730 -0.1505  0.0993
  239SOL    HW3 1010   4.359   4.053   0.596 -1.5257  0.0413  1.6192
  239SOL    MW4 1011   4.301   4.070   0.534  0.0005  0.0001 -0.0000
  240SOL     OW 1012   4.010   3.999   0.512 -0.5873 -0.1433  0.2483
  240SOL    HW2 1013   3.992   3.915   0.469  0.3625 -0.1939 -0.0620
  240SOL    HW3 1014   3.941   4.057   0.481 -0.4320 -0.4292 -0.6469
  240SOL    MW4 1015   3.999   3.996   0.502  0.0005  0.0001 -0.0000
  241SOL     OW 1016   3.846   4.195   0.413 -0.1010  0.0660  0.1561
  241SOL    HW2 1017   3.757   4.160   0.408 -0.3807  0.8229 -0.3094
  241SOL    HW3 1018   3.868   4.215   0.322  0.2023  0.7216  0.3735
  241SOL    MW4 1019   3.837   4.193   0.400  0.0005  0.0001 -0.0000
  242SOL     OW 1020   4.083   4.504   0.485  0.1058  0.2699 -0.0833
  242SOL    HW2 1021   4.126   4.455   0.555  0.1842 -0.3217 -0.5416
  242SOL    HW3 1022   3.990   4.482   0.495  0.1023  0.2849 -0.0877
  242SOL    MW4 1023   4.076   4.495   0.496  0.0005  0.0001 -0.0000
  243SOL     OW 1024   0.237   4.639   0.905 -0.0999 -0.6775  0.3311
  243SOL    HW2 1025   0.240   4.549   0.873 -0.1251 -0.8444  0.7930
  243SOL    HW3 1026   0.154   4.673   0.873  0.4488 -0.4334 -0.8605
  243SOL    MW4 1027   0.226   4.632   0.897  0.0005  0.0001 -0.0000
  244SOL     OW 1028   0.013   0.085   0.819  0.2903  0.0009  0.1584
  244SOL    HW2 1029  -0.079   0.063   0.806  0.5223 -0.8345 -0.0900
  244SOL    HW3 1030   0.015   0.181   0.817 -0.4551  0.0073 -0.6388
  244SOL    MW4 1031   0.001   0.095   0.817  0.0005  0.0001 -0.0000
  245SOL     OW 1032   4.487   0.362   0.829 -0.0245  0.0902 -0.1649
  245SOL    HW2 1033   4.479   0.373   0.924  0.5921  0.5437 -0.1618
  245SOL    HW3 1034   4.567   0.410   0.806 -1.1367  1.5052 -1.1701
  245SOL    MW4 1035   4.496   0.370   0.838  0.0005  0.0001 -0.0000
  246SOL     OW 1036   0.196   0.537   0.755  0.2491 -0.1235  0.2190
  246SOL    HW2 1037   0.269   0.487   0.792  0.5191  1.1983  1.4962
  246SOL    HW3 1038   0.206   0.625   0.790 -1.3146  0.3693 -0.5051
  246SOL    MW4 1039   0.207   0.542   0.765  0.0005  0.0001 -0.0000
  247SOL     OW 1040   0.197   0.791   0.846  0.6238 -0.2635 -0.2894
  247SOL    HW2 1041   0.193   0.772   0.940  0.0856 -1.1674 -0.4914
  247SOL    HW3 1042   0.111   0.828   0.825  1.8015  2.9036  0.1879
  247SOL    MW4 1043   0.185   0.793   0.856  0.0005  0.0001 -0.0000
  248SOL     OW 1044   4.443   0.893   0.781  0.0711 -0.4351  0.3350
  248SOL    HW2 1045   4.360   0.857   0.811 -0.2861  0.4366  0.4082
  248SOL    HW3 1046   4.432   0.903   0.686  0.7545 -2.0286  0.0718
  248SOL    MW4 1047   4.431   0.890   0.772  0.0005  0.0001 -0.0000
  249SOL     OW 1048   0.014   1.152   0.856 -0.0026 -0.4257  0.1694
  249SOL    HW2 1049   0.001   1.160   0.951  0.1387  0.9390  0.0824
  249SOL    HW3 1050   0.001   1.059   0.838  1.8317 -1.0366  1.8117
  249SOL    MW4 1051   0.011   1.141   0.866  0.0005  0.0001 -0.0000
  250SOL     OW 1052   0.244   1.232   0.731  0.1430  0.1403  0.3063
  250SOL    HW2 1053   0.160   1.207   0.771  0.3510 -0.2239  0.5180
  250SOL    HW3 1054   0.251   1.177   0.653  0.8224 -0.8139  1.0278
  250SOL    MW4 1055   0.234   1.221   0.726  0.0005  0.0001 -0.0000
  251SOL     OW 1056   0.239   1.505   0.842 -0.2665  0.2978  0.0121
  251SOL    HW2 1057   0.329   1.537   0.832 -0.4420 -0.0559 -3.0468
  251SOL    HW3 1058   0.240   1.418   0.803 -1.9715  0.3363 -0.1388
  251SOL    MW4 1059   0.251   1.498   0.835  0.0005  0.0001 -0.0000
  252SOL     OW 1060   0.017   1.651   0.793 -0.1766 -0.4342 -0.2077
  252SOL    HW2 1061  -0.064   1.605   0.815  0.1422 -1.0889 -0.4002
  252SOL    HW3 1062   0.087   1.596   0.828  0.1784  0.2717  0.2095
  252SOL    MW4 1063   0.016   1.638   0.801  0.0005  0.0001 -0.0000
  253SOL     OW 1064   0.011   1.943   0.816 -0.1074  0.2142  0.4683
  253SOL    HW2 1065   0.088   1.974   0.769 -0.8002 -0.2851 -1.0248
  253SOL    HW3 1066   0.013   1.848   0.806 -0.3886  0.1198  1.2607
  253SOL    MW4 1067   0.021   1.935   0.808  0.0005  0.0001 -0.0000
  254SOL     OW 1068   0.252   2.026   0.679  0.1222  0.4057 -0.0915
  254SOL    HW2 1069   0.255   2.122   0.675 -0.1916  0.3568 -1.7953
  254SOL    HW3 1070   0.289   1.997   0.596 -1.3142 -0.9263 -0.2932
  254SOL    MW4 1071   0.257   2.035   0.667  0.0005  0.0001 -0.0000
  255SOL     OW 1072   0.291   2.305   0.790 -0.1809 -0.3896  0.4872
  255SOL    HW2 1073   0.279   2.288   0.883  0.8824 -1.3190  0.4638
  255SOL    HW3 1074   0.364   2.366   0.785  0.7123 -1.4638  0.2004
  255SOL    MW4 1075   0.299   2.311   0.802  0.0005  0.0001 -0.0000
  256SOL     OW 1076   0.058   2.471   0.770 -0.5138 -0.4855 -0.1063
  256SOL    HW2 1077  -0.006   2.404   0.794  0.5998 -1.5569 -0.1053
  256SOL    HW3 1078   0.142   2.426   0.770  0.3191  1.0208  0.3580
  256SOL    MW4 1079   0.061   2.456   0.773  0.0005  0.0001 -0.0000
  257SOL     OW 1080   0.078   2.742   0.831  0.0545 -0.0206 -0.2652
  257SOL    HW2 1081   0.077   2.745   0.927  1.7700 -1.3328 -0.1815
  257SOL    HW3 1082   0.074   2.649   0.810 -3.4198  0.3496 -1.5705
  257SOL    MW4 1083   0.077   2.730   0.841  0.0005  0.0001 -0.0000
  258SOL     OW 1084   0.285   2.860   0.706 -0.1333  0.3739 -0.6321
  258SOL    HW2 1085   0.209   2.810   0.736  0.7080 -1.0746 -0.8397
  258SOL    HW3 1086   0.278   2.860   0.611  1.1877 -1.5337 -0.7577
  258SOL    MW4 1087   0.274   2.853   0.697  0.0005  0.0001 -0.0000
  259SOL     OW 1088   0.240   3.114   0.787 -0.0689  0.1367  0.0337
  259SOL    HW2 1089   0.247   3.115   0.882  1.2422  2.3218 -0.0470
  259SOL    HW3 1090   0.249   3.022   0.763 -0.9572 -0.4999  2.0429
  259SOL    MW4 1091   0.242   3.102   0.796  0.0005  0.0001 -0.0000
  260SOL     OW 1092   0.026   3.228   0.656 -0.3450 -0.0682 -0.2897
  260SOL    HW2 1093   0.103   3.187   0.696 -0.9048  1.1486  2.1259
  260SOL    HW3 1094   0.061   3.277   0.581  0.9843 -0.9154 -0.2331
  260SOL    MW4 1095   0.041   3.229   0.651  0.0005  0.0001 -0.0000
  261SOL     OW 1096   4.471   3.444   0.831  0.4625  0.5239  0.2569
  261SOL    HW2 1097   4.401   3.497   0.793  1.5922  1.4843 -0.4921
  261SOL    HW3 1098   4.481   3.370   0.771  0.0108  0.3216  0.4295
  261SOL    MW4 1099   4.463   3.441   0.818  0.0005  0.0001 -0.0000
  262SOL     OW 1100   0.163   3.609   0.734 -0.1010 -0.5944  0.1190
  262SOL    HW2 1101   0.105   3.543   0.772 -1.1561  0.2562  0.0103
  262SOL    HW3 1102   0.161   3.592   0.640 -2.3201  1.0933 -0.1807
  262SOL    MW4 1103   0.155   3.598   0.727  0.0005  0.0001 -0.0000
  263SOL     OW 1104   0.219   3.897   0.814  0.4186 -0.6342  0.1366
  263SOL    HW2 1105   0.225   3.923   0.906 -1.4008  0.7977 -0.1189
  263SOL    HW3 1106   0.181   3.809   0.816  2.3605 -1.4945  0.8129
  263SOL    MW4 1107   0.215   3.889   0.826  0.0005  0.0001 -0.0000
  264SOL     OW 1108   4.470   4.012   0.726  0.0416  0.6720  0.3191
  264SOL    HW2 1109   4.415   3.950   0.773 -0.1791 -1.4807 -2.6370
  264SOL    HW3 1110   4.559   3.981   0.741 -0.0316 -0.0444 -0.6711
  264SOL    MW4 1111   4.475   4.000   0.734  0.0005  0.0001 -0.0000
  265SOL     OW 1112   4.440   4.281   0.798  0.5357  0.1297 -0.1372
  265SOL    HW2 1113   4.433   4.276   0.893  1.0565  0.5923 -0.0744
  265SOL    HW3 1114   4.443   4.190   0.770  3.0819 -0.0237  0.5025
  265SOL    MW4 1115   4.439   4.268   0.807  0.0005  0.0001 -0.0000
  266SOL     OW 1116   0.215   4.407   0.757  0.8104  0.2519  0.0373
  266SOL    HW2 1117   0.130   4.363   0.760  0.4171  1.0835  1.4849
  266SOL    HW3 1118   0.217   4.448   0.671  0.4758 -1.1857 -0.6749
  266SOL    MW4 1119   0.204   4.407   0.746  0.0005  0.0001 -0.0000
  267SOL     OW 1120   0.674   0.053   0.869  0.6625 -0.1833  0.7152
  267SOL    HW2 1121   0.669   0.046   0.964  0.2183 -2.9088  0.5329
  267SOL    HW3 1122   0.588   0.084   0.842  1.0812  1.4871  1.2452
  267SOL    MW4 1123   0.662   0.056   0.878  0.0005  0.0001 -0.0000
  268SOL     OW 1124   0.414   0.150   0.764  0.0314 -0.0576  0.4021
  268SOL    HW2 1125   0.352   0.083   0.793  1.0233 -0.3173  2.0049
  268SOL    HW3 1126   0.427   0.133   0.671 -2.1390 -0.1185  0.0898
  268SOL    MW4 1127   0.408   0.139   0.756  0.0005  0.0001 -0.0000
  269SOL     OW 1128   0.414   0.402   0.886 -0.0044 -0.0576 -0.1281
  269SOL    HW2 1129   0.503   0.424   0.859 -0.4439  0.4545 -1.2108
  269SOL    HW3 1130   0.392   0.326   0.833 -0.0451 -0.4745  0.4842
  269SOL    MW4 1131   0.423   0.395   0.875  0.0005  0.0001 -0.0000
  270SOL     OW 1132   0.655   0.493   0.766  0.0043  0.1031 -0.4217
  270SOL    HW2 1133   0.745   0.463   0.778  0.1449  0.4927 -0.5022
  270SOL    HW3 1134   0.652   0.527   0.677  0.2569  1.7493  0.1801
  270SOL    MW4 1135   0.667   0.494   0.756  0.0005  0.0001 -0.0000
  271SOL     OW 1136   0.708   0.765   0.803  0.3225 -0.3823  0.2776
  271SOL    HW2 1137   0.629   0.803   0.764  0.2982 -0.7741 -0.0592
  271SOL    HW3 1138   0.693   0.671   0.800  0.7659 -0.4542  0.2960
  271SOL    MW4 1139   0.696   0.758   0.797  0.0005  0.0001 -0.0000
  272SOL     OW 1140   0.452   0.872   0.749 -0.6192  0.1526  0.6786
  272SOL    HW2 1141   0.473   0.958   0.785 -0.7462 -0.0800  1.3148
  272SOL    HW3 1142   0.368   0.849   0.789  0.1361 -0.9231  1.6809
  272SOL    MW4 1143   0.444   0.880   0.759  0.0005  0.0001 -0.0000
  273SOL     OW 1144   0.481   1.132   0.844  0.4337  0.9128 -0.1677
  273SOL    HW2 1145   0.559   1.167   0.801  0.2670 -0.5168 -1.6839
  273SOL    HW3 1146   0.408   1.177   0.802  0.2422 -0.8698 -1.8153
  273SOL    MW4 1147   0.482   1.143   0.833  0.0005  0.0001 -0.0000
  274SOL     OW 1148   0.708   1.261   0.756 -0.4776  0.2548 -0.4683
  274SOL    HW2 1149   0.705   1.356   0.767 -1.7893  0.1174  0.4331
  274SOL    HW3 1150   0.728   1.249   0.663  0.5867  1.4045 -0.4060
  274SOL    MW4 1151   0.710   1.272   0.745  0.0005  0.0001 -0.0000
  275SOL     OW 1152   0.716   1.533   0.849  0.1032 -0.3277 -0.0117
  275SOL    HW2 1153   0.706   1.528   0.944 -0.3084 -1.9463 -0.1253
  275SOL    HW3 1154   0.628   1.550   0.817  0.2356  0.1780 -0.1108
  275SOL    MW4 1155   0.703   1.535   0.857  0.0005  0.0001 -0.0000
  276SOL     OW 1156   0.480   1.623   0.753  0.2411  0.6971 -0.0509
  276SOL    HW2 1157   0.494   1.714   0.778  0.8319  1.1754 -2.0330
  276SOL    HW3 1158   0.474   1.625   0.658 -0.7230 -1.2146 -0.0540
  276SOL    MW4 1159   0.481   1.635   0.744  0.0005  0.0001 -0.0000
  277SOL     OW 1160   0.445   1.909   0.866 -0.6374 -0.9026 -0.4953
  277SOL    HW2 1161   0.446   1.926   0.960 -1.4228 -1.8029 -0.3165
  277SOL    HW3 1162   0.368   1.955   0.834 -0.8283 -1.2679 -0.5646
  277SOL    MW4 1163   0.435   1.917   0.874  0.0005  0.0001 -0.0000
  278SOL     OW 1164   0.623   2.093   0.753 -0.1353  0.0490  0.1487
  278SOL    HW2 1165   0.571   2.028   0.800  1.3278 -1.9956 -0.9749
  278SOL    HW3 1166   0.596   2.083   0.662  0.5248  0.6189 -0.1096
  278SOL    MW4 1167   0.613   2.083   0.747  0.0005  0.0001 -0.0000
  279SOL     OW 1168   0.692   2.360   0.850  0.4511 -0.0388  0.5293
  279SOL    HW2 1169   0.713   2.351   0.943  1.7475 -0.8484  0.1745
  279SOL    HW3 1170   0.671   2.271   0.822  2.1037 -0.1473 -0.4192
  279SOL    MW4 1171   0.692   2.347   0.859  0.0005  0.0001 -0.0000
  280SOL     OW 1172   0.469   2.496   0.773 -0.2848 -0.5355  0.3796
  280SOL    HW2 1173   0.546   2.448   0.804  0.3099  0.0327 -0.1950
  280SOL    HW3 1174   0.489   2.516   0.681 -1.7734 -1.7044 -0.2178
  280SOL    MW4 1175   0.482   2.492   0.765  0.0005  0.0001 -0.0000
  281SOL     OW 1176   0.492   2.763   0.873  0.0578 -0.1996 -0.2177
  281SOL    HW2 1177   0.473   2.671   0.856  1.3875 -0.4861 -0.2252
  281SOL    HW3 1178   0.423   2.811   0.826 -1.5656 -1.2058  1.0857
  281SOL    MW4 1179   0.480   2.757   0.865  0.0005  0.0001 -0.0000
  282SOL     OW 1180   0.713   2.858   0.731  0.1056 -0.4717  0.1357
  282SOL    HW2 1181   0.795   2.811   0.749 -0.2235 -0.5435  1.4970
  282SOL    HW3 1182   0.646   2.807   0.775 -0.4759  0.4072  0.2826
  282SOL    MW4 1183   0.715   2.845   0.739  0.0005  0.0001 -0.0000
  283SOL     OW 1184   0.675   3.118   0.808  0.1882 -0.2394  0.4504
  283SOL    HW2 1185   0.602   3.159   0.763 -0.1761 -0.7272  0.5928
  283SOL    HW3 1186   0.686   3.034   0.764  1.5806  0.4159 -0.5057
  283SOL    MW4 1187   0.667   3.112   0.796  0.0005  0.0001 -0.0000
  284SOL     OW 1188   0.460   3.252   0.710  0.1149  0.1011 -0.2668
  284SOL    HW2 1189   0.443   3.339   0.746  0.3023 -0.3975  1.0591
  284SOL    HW3 1190   0.382   3.201   0.734  0.8121 -0.5812  0.5784
  284SOL    MW4 1191   0.448   3.257   0.718  0.0005  0.0001 -0.0000
  285SOL     OW 1192   0.406   3.495   0.834  0.4206  0.2547  0.2505
  285SOL    HW2 1193   0.414   3.508   0.929 -0.4518  1.2149  0.1962
  285SOL    HW3 1194   0.327   3.543   0.809  0.1924 -0.6586 -0.8426
  285SOL    MW4 1195   0.397   3.503   0.843  0.0005  0.0001 -0.0000
  286SOL     OW 1196   0.651   3.614   0.791 -0.3305  0.3649  0.2364
  286SOL    HW2 1197   0.571   3.562   0.801 -0.9174  0.8412 -1.7580
  286SOL    HW3 1198   0.623   3.704   0.805  0.2884  0.3519  1.6434
  286SOL    MW4 1199   0.637   3.619   0.794  0.0005  0.0001 -0.0000
  287SOL     OW 1200   0.628   3.891   0.838  0.3571 -0.0571 -0.2791
  287SOL    HW2 1201   0.707   3.919   0.791  0.7567  1.1364  1.0672
  287SOL    HW3 1202   0.559   3.947   0.804  0.8579  1.5656  1.2981
  287SOL    MW4 1203   0.629   3.902   0.827  0.0005  0.0001 -0.0000
  288SOL     OW 1204   0.448   4.053   0.710  0.1105 -0.0136  0.0124
  288SOL    HW2 1205   0.438   4.141   0.747 -1.6592  0.3624 -1.2838
  288SOL    HW3 1206   0.376   4.003   0.748  0.1133 -0.4487 -0.5419
  288SOL    MW4 1207   0.437   4.058   0.720  0.0005  0.0001 -0.0000
  289SOL     OW 1208   0.462   4.311   0.836  0.1490  0.4778 -0.0387
  289SOL    HW2 1209   0.451   4.301   0.931  0.3807 -1.2944 -0.1827
  289SOL    HW3 1210   0.381   4.354   0.807 -0.4946 -0.1594  0.7846
  289SOL    MW4 1211   0.450   4.315   0.845  0.0005  0.0001 -0.0000
  290SOL     OW 1212   0.700   4.456   0.785  0.3342 -0.0146  0.1031
  290SOL    HW2 1213   0.628   4.396   0.805  1.2777 -0.8825  0.9213
  290SOL    HW3 1214   0.678   4.537   0.831 -0.8152  0.1943 -0.7976
  290SOL    MW4 1215   0.688   4.459   0.794  0.0005  0.0001 -0.0000
  291SOL     OW 1216   1.152   0.023   0.892 -0.1113  0.0535 -0.1980
  291SOL    HW2 1217   1.215   0.081   0.849 -0.2522 -0.0826 -0.5898
  291SOL    HW3 1218   1.067   0.052   0.860 -0.3396  0.9618  1.1880
  291SOL    MW4 1219   1.149   0.034   0.882  0.0005  0.0001 -0.0000
  292SOL     OW 1220   0.921   0.108   0.748 -0.2072  0.3656 -0.5489
  292SOL    HW2 1221   0.943   0.197   0.774 -1.0297  0.7103 -1.0224
  292SOL    HW3 1222   0.834   0.092   0.785 -0.9673  0.5158 -2.2187
  292SOL    MW4 1223   0.912   0.118   0.756  0.0005  0.0001 -0.0000
  293SOL     OW 1224   0.899   0.368   0.840  0.0306 -0.0812 -0.3192
  293SOL    HW2 1225   0.900   0.375   0.935 -0.7649 -1.8005 -0.1672
  293SOL    HW3 1226   0.981   0.410   0.812 -0.9012  2.6884  0.9222
  293SOL    MW4 1227   0.910   0.374   0.849  0.0005  0.0001 -0.0000
  294SOL     OW 1228   1.130   0.504   0.746  0.0516  0.0354  0.3768
  294SOL    HW2 1229   1.204   0.456   0.784  0.5736  0.8281  0.3733
  294SOL    HW3 1230   1.149   0.507   0.652 -0.1788 -0.0924  0.3257
  294SOL    MW4 1231   1.142   0.498   0.739  0.0005  0.0001 -0.0000
  295SOL     OW 1232   1.153   0.777   0.807 -0.5029 -0.1321 -0.1642
  295SOL    HW2 1233   1.140   0.770   0.901  1.1893  0.0726  0.1016
  295SOL    HW3 1234   1.158   0.687   0.776 -3.5722 -0.2525 -0.4606
  295SOL    MW4 1235   1.152   0.764   0.815  0.0005  0.0001 -0.0000
  296SOL     OW 1236   0.910   0.914   0.692  0.1007  0.1654 -0.2615
  296SOL    HW2 1237   0.998   0.880   0.708 -0.3067 -0.6766  0.2414
  296SOL    HW3 1238   0.852   0.847   0.728 -0.7357  0.9850 -0.0716
  296SOL    MW4 1239   0.914   0.901   0.699  0.0005  0.0001 -0.0000
  297SOL     OW 1240   0.906   1.123   0.880  0.1660  0.9339 -0.2037
  297SOL    HW2 1241   0.915   1.045   0.826  0.5342  0.6205  0.3040
  297SOL    HW3 1242   0.835   1.173   0.839 -1.7037 -0.7996  0.8308
  297SOL    MW4 1243   0.898   1.119   0.867  0.0005  0.0001 -0.0000
  298SOL     OW 1244   1.116   1.310   0.748 -0.1074  0.1284  0.3808
  298SOL    HW2 1245   1.057   1.250   0.794 -0.9403  0.5452 -0.1320
  298SOL    HW3 1246   1.096   1.297   0.655  0.3628  0.5270  0.2214
  298SOL    MW4 1247   1.106   1.300   0.742  0.0005  0.0001 -0.0000
  299SOL     OW 1248   1.140   1.545   0.899 -0.5468 -0.1627 -0.2391
  299SOL    HW2 1249   1.069   1.606   0.880  0.3124  1.2415  0.9173
  299SOL    HW3 1250   1.122   1.469   0.845 -2.1873  0.7275 -0.9708
  299SOL    MW4 1251   1.128   1.543   0.889  0.0005  0.0001 -0.0000
  300SOL     OW 1252   0.936   1.697   0.804 -0.6739  0.4500 -0.3705
  300SOL    HW2 1253   0.922   1.791   0.811 -1.2999  0.4288 -1.2685
  300SOL    HW3 1254   0.851   1.658   0.824 -0.4774  0.0844 -0.2382
  300SOL    MW4 1255   0.923   1.704   0.808  0.0005  0.0001 -0.0000
  301SOL     OW 1256   0.883   1.964   0.844 -0.5225 -0.0743  0.0368
  301SOL    HW2 1257   0.879   1.973   0.939 -1.2933  1.8355 -0.1510
  301SOL    HW3 1258   0.800   2.001   0.813  0.5251  1.0658 -1.4794
  301SOL    MW4 1259   0.872   1.970   0.853  0.0005  0.0001 -0.0000
  302SOL     OW 1260   1.143   2.055   0.719  0.3609  0.0360  0.0681
  302SOL    HW2 1261   1.144   2.141   0.762 -0.5802  0.3749 -0.5739
  302SOL    HW3 1262   1.067   2.010   0.756  0.5255 -0.3093 -0.0097
  302SOL    MW4 1263   1.133   2.060   0.730  0.0005  0.0001 -0.0000
  303SOL     OW 1264   1.105   2.307   0.882 -0.0140 -0.0765 -0.5474
  303SOL    HW2 1265   1.113   2.302   0.977 -1.8727 -1.7983 -0.4436
  303SOL    HW3 1266   1.176   2.366   0.855  1.1814 -0.3779  1.7871
  303SOL    MW4 1267   1.115   2.314   0.891  0.0005  0.0001 -0.0000
  304SOL     OW 1268   0.904   2.439   0.720 -0.2281 -0.0993  0.3499
  304SOL    HW2 1269   0.969   2.399   0.779  0.5961 -1.1098 -1.2090
  304SOL    HW3 1270   0.820   2.407   0.752  0.2948 -1.5561  0.3068
  304SOL    MW4 1271   0.901   2.430   0.732  0.0005  0.0001 -0.0000
  305SOL     OW 1272   0.922   2.697   0.842 -0.1767 -0.3756 -0.4658
  305SOL    HW2 1273   0.921   2.680   0.936  0.5470  1.2966 -0.1485
  305SOL    HW3 1274   0.900   2.612   0.803 -0.0115 -1.2058  1.1811
  305SOL    MW4 1275   0.919   2.684   0.849  0.0005  0.0001 -0.0000
  306SOL     OW 1276   1.159   2.766   0.696 -1.0624  0.0821  0.0840
  306SOL    HW2 1277   1.076   2.747   0.739 -0.9627 -0.6130 -0.0276
  306SOL    HW3 1278   1.145   2.744   0.604 -0.2220 -1.7442  0.3691
  306SOL    MW4 1279   1.146   2.761   0.690  0.0005  0.0001 -0.0000
  307SOL     OW 1280   1.154   3.037   0.816  0.7294  0.2363 -0.4128
  307SOL    HW2 1281   1.073   3.083   0.796 -0.4092 -0.5457  2.1699
  307SOL    HW3 1282   1.150   2.956   0.765 -0.9657 -0.6113  1.0187
  307SOL    MW4 1283   1.143   3.032   0.807  0.0005  0.0001 -0.0000
  308SOL     OW 1284   0.932   3.214   0.764  0.1726 -0.0720 -0.1475
  308SOL    HW2 1285   0.934   3.307   0.787 -0.2455 -0.4849  1.6331
  308SOL    HW3 1286   0.841   3.188   0.777  0.3173 -0.7681 -0.5004
  308SOL    MW4 1287   0.920   3.223   0.769  0.0005  0.0001 -0.0000
  309SOL     OW 1288   0.912   3.485   0.840 -0.1019 -0.0717 -0.4764
  309SOL    HW2 1289   0.970   3.548   0.796 -0.4933  0.8136  0.2552
  309SOL    HW3 1290   0.825   3.523   0.831 -0.3745 -0.6395 -0.2413
  309SOL    MW4 1291   0.908   3.498   0.833  0.0005  0.0001 -0.0000
  310SOL     OW 1292   1.107   3.634   0.719  0.1596  0.6558 -0.2059
  310SOL    HW2 1293   1.185   3.593   0.756 -0.4607 -0.4872 -0.1434
  310SOL    HW3 1294   1.109   3.611   0.626 -0.0175  0.7599 -0.2363
  310SOL    MW4 1295   1.118   3.626   0.712  0.0005  0.0001 -0.0000
  311SOL     OW 1296   1.124   3.888   0.832  0.2285 -0.0884 -0.4255
  311SOL    HW2 1297   1.129   3.873   0.926  0.8891  2.2477 -0.0650
  311SOL    HW3 1298   1.118   3.800   0.794  0.4689 -1.0718  1.7516
  311SOL    MW4 1299   1.124   3.875   0.839  0.0005  0.0001 -0.0000
  312SOL     OW 1300   0.879   4.006   0.755 -0.1291  0.4238  0.0228
  312SOL    HW2 1301   0.877   4.092   0.797 -0.3391  1.1825 -1.4993
  312SOL    HW3 1302   0.955   3.962   0.793  0.8256  1.8296 -0.2276
  312SOL    MW4 1303   0.889   4.012   0.766  0.0005  0.0001 -0.0000
  313SOL     OW 1304   0.895   4.257   0.873 -0.0258  0.3988  0.4114
  313SOL    HW2 1305   0.980   4.300   0.861  1.0659 -2.0029 -0.7918
  313SOL    HW3 1306   0.833   4.315   0.830  1.1162  1.7767  0.5787
  313SOL    MW4 1307   0.898   4.270   0.866  0.0005  0.0001 -0.0000
  314SOL     OW 1308   1.117   4.418   0.815  0.2734 -0.0550  0.0044
  314SOL    HW2 1309   1.200   4.377   0.839  0.5544  0.2205 -0.4842
  314SOL    HW3 1310   1.127   4.509   0.844  0.0125 -0.1038  0.2457
  314SOL    MW4 1311   1.129   4.425   0.822  0.0005  0.0001 -0.0000
  315SOL     OW 1312   1.595   0.041   0.859 -0.0143  0.2669 -0.2339
  315SOL    HW2 1313   1.574   0.006   0.946  0.6733  0.9337  0.2062
  315SOL    HW3 1314   1.515   0.084   0.831 -0.3513 -0.2542 -0.0814
  315SOL    MW4 1315   1.582   0.042   0.867  0.0005  0.0001 -0.0000
  316SOL     OW 1316   1.339   0.145   0.716  0.2074 -0.2578  0.2777
  316SOL    HW2 1317   1.343   0.239   0.736 -0.5684  0.1117 -1.1897
  316SOL    HW3 1318   1.307   0.142   0.626 -0.6376 -1.9684  0.6241
  316SOL    MW4 1319   1.335   0.157   0.707  0.0005  0.0001 -0.0000
  317SOL     OW 1320   1.358   0.391   0.861 -0.4735 -0.0832 -0.1629
  317SOL    HW2 1321   1.363   0.386   0.956 -0.5377  0.0315 -0.1533
  317SOL    HW3 1322   1.436   0.440   0.835  0.2302 -1.2395 -0.2665
  317SOL    MW4 1323   1.369   0.397   0.870  0.0005  0.0001 -0.0000
  318SOL     OW 1324   1.602   0.515   0.734  0.4049  0.2195 -0.1355
  318SOL    HW2 1325   1.592   0.607   0.757 -0.3987  0.0731  0.1229
  318SOL    HW3 1326   1.684   0.489   0.775  0.3308  0.6646  0.3007
  318SOL    MW4 1327   1.612   0.524   0.742  0.0005  0.0001 -0.0000
  319SOL     OW 1328   1.558   0.789   0.824 -0.2714  0.2136  0.1698
  319SOL    HW2 1329   1.634   0.832   0.786  0.5853 -0.2198  1.3569
  319SOL    HW3 1330   1.483   0.836   0.788  0.5880  1.3381 -0.1755
  319SOL    MW4 1331   1.558   0.801   0.814  0.0005  0.0001 -0.0000
  320SOL     OW 1332   1.361   0.951   0.721  0.2108 -0.3542 -0.1885
  320SOL    HW2 1333   1.367   1.023   0.784 -0.3519 -0.0825 -0.4435
  320SOL    HW3 1334   1.284   0.901   0.748 -0.3916  0.1065 -1.0046
  320SOL    MW4 1335   1.352   0.954   0.733  0.0005  0.0001 -0.0000
  321SOL     OW 1336   1.342   1.184   0.860 -0.1998 -0.2881 -0.3383
  321SOL    HW2 1337   1.426   1.218   0.830 -0.4958 -0.1016 -0.9688
  321SOL    HW3 1338   1.277   1.233   0.809 -0.6869 -0.4558  0.1190
  321SOL    MW4 1339   1.345   1.195   0.849  0.0005  0.0001 -0.0000
  322SOL     OW 1340   1.562   1.293   0.725 -0.1797 -0.2832 -0.1597
  322SOL    HW2 1341   1.584   1.381   0.756  0.5327 -0.9187  1.1499
  322SOL    HW3 1342   1.544   1.305   0.632  1.2813  1.0208 -0.2957
  322SOL    MW4 1343   1.563   1.306   0.717  0.0005  0.0001 -0.0000
  323SOL     OW 1344   1.575   1.563   0.805  0.4696 -0.1955  0.1644
  323SOL    HW2 1345   1.562   1.568   0.900 -0.7696  0.9749 -0.0575
  323SOL    HW3 1346   1.491   1.590   0.767  0.8738 -0.8860 -1.2709
  323SOL    MW4 1347   1.562   1.567   0.813  0.0005  0.0001 -0.0000
  324SOL     OW 1348   1.331   1.644   0.721 -0.2531 -0.3082  0.7910
  324SOL    HW2 1349   1.319   1.736   0.744 -0.4135 -0.3564  0.9022
  324SOL    HW3 1350   1.285   1.596   0.790  0.2513 -0.4851  1.0065
  324SOL    MW4 1351   1.323   1.650   0.733  0.0005  0.0001 -0.0000
  325SOL     OW 1352   1.344   1.898   0.811 -0.2572 -0.1936 -0.1279
  325SOL    HW2 1353   1.329   1.891   0.905  1.6416 -0.3698  0.1828
  325SOL    HW3 1354   1.272   1.953   0.779 -0.4232  0.5987  1.5575
  325SOL    MW4 1355   1.333   1.904   0.819  0.0005  0.0001 -0.0000
  326SOL     OW 1356   1.557   2.055   0.762  0.5388  0.7342  0.0244
  326SOL    HW2 1357   1.481   2.002   0.788  0.1279  1.2017 -0.2136
  326SOL    HW3 1358   1.557   2.051   0.666  0.8599  0.6747  0.0268
  326SOL    MW4 1359   1.547   2.048   0.753  0.0005  0.0001 -0.0000
  327SOL     OW 1360   1.535   2.312   0.872 -0.0144 -0.2059 -0.1582
  327SOL    HW2 1361   1.466   2.361   0.828  0.1137 -1.3545 -1.6665
  327SOL    HW3 1362   1.525   2.222   0.840  0.8659 -0.8033  1.2144
  327SOL    MW4 1363   1.525   2.307   0.862  0.0005  0.0001 -0.0000
  328SOL     OW 1364   1.315   2.445   0.780 -0.3125  0.0886  0.3272
  328SOL    HW2 1365   1.342   2.533   0.805 -0.1892 -0.3778  1.8915
  328SOL    HW3 1366   1.305   2.449   0.685 -2.3050  2.3368  0.5846
  328SOL    MW4 1367   1.317   2.457   0.771  0.0005  0.0001 -0.0000
  329SOL     OW 1368   1.387   2.719   0.853  0.1267 -0.0601 -0.2146
  329SOL    HW2 1369   1.357   2.728   0.944 -1.1234 -0.7005 -0.5487
  329SOL    HW3 1370   1.314   2.752   0.801  0.5830 -0.3013 -1.0107
  329SOL    MW4 1371   1.373   2.725   0.858  0.0005  0.0001 -0.0000
  330SOL     OW 1372   1.586   2.822   0.706 -0.3761 -0.0485  0.1586
  330SOL    HW2 1373   1.588   2.912   0.738  1.2091 -0.5736  1.6128
  330SOL    HW3 1374   1.523   2.777   0.762 -0.4895 -0.0596  0.0226
  330SOL    MW4 1375   1.578   2.828   0.718  0.0005  0.0001 -0.0000
  331SOL     OW 1376   1.569   3.076   0.797  0.0025  0.8130 -0.0630
  331SOL    HW2 1377   1.571   3.080   0.893 -1.8837 -0.9498  0.0859
  331SOL    HW3 1378   1.484   3.114   0.773  0.0170  0.2898 -0.9683
  331SOL    MW4 1379   1.558   3.082   0.806  0.0005  0.0001 -0.0000
  332SOL     OW 1380   1.338   3.223   0.749 -0.8992 -0.6056 -0.0527
  332SOL    HW2 1381   1.268   3.169   0.786 -0.2385 -1.6808 -0.3507
  332SOL    HW3 1382   1.323   3.221   0.655 -0.7401 -0.4531 -0.0820
  332SOL    MW4 1383   1.327   3.216   0.741  0.0005  0.0001 -0.0000
  333SOL     OW 1384   1.326   3.514   0.841  0.1013 -0.1614 -0.5823
  333SOL    HW2 1385   1.398   3.576   0.850 -0.2268  0.2112 -0.5153
  333SOL    HW3 1386   1.364   3.440   0.793  0.3730  0.2871 -1.0647
  333SOL    MW4 1387   1.341   3.512   0.836  0.0005  0.0001 -0.0000
  334SOL     OW 1388   1.552   3.666   0.830  0.7335 -0.0378  0.2796
  334SOL    HW2 1389   1.620   3.610   0.868  0.9384  0.2066  0.2744
  334SOL    HW3 1390   1.571   3.666   0.736  1.2524  0.7333  0.3799
  334SOL    MW4 1391   1.563   3.659   0.823  0.0005  0.0001 -0.0000
  335SOL     OW 1392   1.543   3.927   0.906  0.2239  0.1349 -0.0187
  335SOL    HW2 1393   1.460   3.952   0.866 -0.3250 -0.6814  0.6045
  335SOL    HW3 1394   1.557   3.837   0.877  1.2852  0.5311 -0.7636
  335SOL    MW4 1395   1.534   3.918   0.897  0.0005  0.0001 -0.0000
  336SOL     OW 1396   1.326   4.057   0.725 -0.6237  0.7594 -0.4871
  336SOL    HW2 1397   1.241   4.020   0.749 -0.7696  1.4416  0.0637
  336SOL    HW3 1398   1.326   4.057   0.629 -0.8301 -0.1788 -0.4919
  336SOL    MW4 1399   1.315   4.052   0.716  0.0005  0.0001 -0.0000
  337SOL     OW 1400   1.371   4.280   0.868  0.6466 -0.1940  0.1932
  337SOL    HW2 1401   1.457   4.303   0.832  0.2965  0.0397 -0.5038
  337SOL    HW3 1402   1.348   4.198   0.824  0.7115 -0.4932  0.7133
  337SOL    MW4 1403   1.379   4.272   0.857  0.0005  0.0001 -0.0000
  338SOL     OW 1404   1.587   4.460   0.742 -0.2379  0.8049 -0.1272
  338SOL    HW2 1405   1.653   4.411   0.790  0.1413  1.2789 -0.1586
  338SOL    HW3 1406   1.593   4.549   0.776 -1.5572  0.6356  0.5928
  338SOL    MW4 1407   1.597   4.465   0.753  0.0005  0.0001 -0.0000
  339SOL     OW 1408   2.044   0.014   0.887 -0.0932  0.0606 -0.1880
  339SOL    HW2 1409   2.138   0.030   0.893 -0.3397  1.1211  1.0652
  339SOL    HW3 1410   2.037  -0.077   0.857  1.3281 -0.5592  1.2828
  339SOL    MW4 1411   2.055   0.004   0.884  0.0005  0.0001 -0.0000
  340SOL     OW 1412   1.835   0.140   0.742  0.3351  0.8169  0.1797
  340SOL    HW2 1413   1.913   0.107   0.786  0.4326  0.7673 -0.0284
  340SOL    HW3 1414   1.763   0.089   0.778  0.6525 -0.6403 -1.1945
  340SOL    MW4 1415   1.836   0.129   0.753  0.0005  0.0001 -0.0000
  341SOL     OW 1416   1.858   0.402   0.835  0.4738 -0.1056  0.8043
  341SOL    HW2 1417   1.866   0.322   0.783 -1.2929  0.4172 -0.3179
  341SOL    HW3 1418   1.936   0.453   0.813  0.8840 -0.8893  0.4242
  341SOL    MW4 1419   1.869   0.398   0.825  0.0005  0.0001 -0.0000
  342SOL     OW 1420   2.079   0.525   0.733 -0.3411 -0.5131  0.4096
  342SOL    HW2 1421   2.158   0.491   0.775  0.6657  0.4068 -0.6982
  342SOL    HW3 1422   2.083   0.490   0.644 -0.0685  1.2634 -0.2883
  342SOL    MW4 1423   2.090   0.516   0.727  0.0005  0.0001 -0.0000
  343SOL     OW 1424   2.036   0.794   0.825  0.0398 -0.1871  0.0332
  343SOL    HW2 1425   2.104   0.854   0.796  1.2418 -1.5375 -0.0027
  343SOL    HW3 1426   2.059   0.710   0.784 -2.6003 -0.2758 -1.3747
  343SOL    MW4 1427   2.048   0.791   0.816  0.0005  0.0001 -0.0000
  344SOL     OW 1428   1.799   0.908   0.737  0.5806 -0.1403 -0.6093
  344SOL    HW2 1429   1.814   0.999   0.762  0.3558 -0.2987  0.1129
  344SOL    HW3 1430   1.875   0.861   0.770  0.0962 -0.4130  0.1313
  344SOL    MW4 1431   1.811   0.914   0.745  0.0005  0.0001 -0.0000
  345SOL     OW 1432   1.800   1.178   0.854  0.0458  0.3748 -0.0591
  345SOL    HW2 1433   1.877   1.218   0.813 -0.4209  1.1275 -0.2042
  345SOL    HW3 1434   1.725   1.218   0.809 -0.4203 -1.4649 -0.9638
  345SOL    MW4 1435   1.800   1.189   0.843  0.0005  0.0001 -0.0000
  346SOL     OW 1436   1.997   1.317   0.734 -0.4180  0.2371 -0.1712
  346SOL    HW2 1437   2.080   1.278   0.762 -0.3008  1.2741  0.9951
  346SOL    HW3 1438   1.982   1.283   0.646  1.2307  0.0136 -0.3739
  346SOL    MW4 1439   2.006   1.307   0.726  0.0005  0.0001 -0.0000
  347SOL     OW 1440   2.017   1.545   0.886  0.1866  0.5592  0.1708
  347SOL    HW2 1441   2.098   1.581   0.850 -0.0022  0.8371  0.0205
  347SOL    HW3 1442   2.002   1.464   0.837  1.5832 -0.6893  1.7468
  347SOL    MW4 1443   2.026   1.539   0.875  0.0005  0.0001 -0.0000
  348SOL     OW 1444   1.796   1.696   0.749  0.1308 -0.3260  0.0867
  348SOL    HW2 1445   1.855   1.635   0.794 -0.6534 -1.2232 -0.0822
  348SOL    HW3 1446   1.709   1.656   0.757 -0.4997  1.0995  0.5275
  348SOL    MW4 1447   1.792   1.683   0.756  0.0005  0.0001 -0.0000
  349SOL     OW 1448   1.814   1.964   0.815  0.1181 -0.4079 -0.1205
  349SOL    HW2 1449   1.811   1.873   0.786 -0.2850 -0.5307  0.3052
  349SOL    HW3 1450   1.724   1.996   0.806 -0.0425 -0.4869  1.1029
  349SOL    MW4 1451   1.802   1.956   0.810  0.0005  0.0001 -0.0000
  350SOL     OW 1452   2.047   2.074   0.721 -0.6536 -0.0071  0.2072
  350SOL    HW2 1453   2.040   2.160   0.761 -0.3125  0.8393 -1.4986
  350SOL    HW3 1454   1.965   2.030   0.743 -0.7114  0.6441  1.3181
  350SOL    MW4 1455   2.035   2.080   0.729  0.0005  0.0001 -0.0000
  351SOL     OW 1456   1.998   2.325   0.857  0.0596  0.0516  0.3607
  351SOL    HW2 1457   1.979   2.312   0.950 -1.5437 -0.6063 -0.0329
  351SOL    HW3 1458   1.912   2.341   0.818  0.7301  0.3550 -1.0027
  351SOL    MW4 1459   1.984   2.325   0.864  0.0005  0.0001 -0.0000
  352SOL     OW 1460   1.749   2.409   0.724 -0.3081  0.0417  0.4867
  352SOL    HW2 1461   1.666   2.376   0.758 -1.0670  1.4310  0.0278
  352SOL    HW3 1462   1.733   2.421   0.630  0.6053 -0.2604  0.2891
  352SOL    MW4 1463   1.736   2.406   0.716  0.0005  0.0001 -0.0000
  353SOL     OW 1464   1.801   2.666   0.832  0.5532  0.4653 -0.5614
  353SOL    HW2 1465   1.800   2.574   0.806 -0.4571 -0.4031  2.3390
  353SOL    HW3 1466   1.732   2.707   0.780  0.1514 -0.6920 -0.9487
  353SOL    MW4 1467   1.792   2.659   0.822  0.0005  0.0001 -0.0000
  354SOL     OW 1468   1.984   2.817   0.688  0.1474 -0.2138 -0.2136
  354SOL    HW2 1469   2.075   2.799   0.713 -0.1144 -2.9372 -1.0421
  354SOL    HW3 1470   1.932   2.769   0.753 -0.6843  0.4560 -0.3812
  354SOL    MW4 1471   1.989   2.808   0.700  0.0005  0.0001 -0.0000
  355SOL     OW 1472   1.990   3.043   0.869  0.8881 -0.0698  0.1908
  355SOL    HW2 1473   1.911   3.095   0.854  1.7948  1.1757 -0.3533
  355SOL    HW3 1474   1.973   2.960   0.824  0.1927  0.4745 -0.5664
  355SOL    MW4 1475   1.977   3.039   0.861  0.0005  0.0001 -0.0000
  356SOL     OW 1476   1.821   3.259   0.764  0.1646 -0.2037  0.3222
  356SOL    HW2 1477   1.733   3.223   0.749 -0.2478  0.9895 -0.1582
  356SOL    HW3 1478   1.865   3.250   0.680 -0.3302  1.4707 -0.1297
  356SOL    MW4 1479   1.815   3.253   0.751  0.0005  0.0001 -0.0000
  357SOL     OW 1480   1.768   3.496   0.889 -0.8752  0.1395  0.1546
  357SOL    HW2 1481   1.757   3.479   0.983 -1.7493  0.7795  0.1739
  357SOL    HW3 1482   1.787   3.410   0.851  2.7047  0.3186  1.3510
  357SOL    MW4 1483   1.769   3.482   0.896  0.0005  0.0001 -0.0000
  358SOL     OW 1484   1.977   3.641   0.764  0.1243 -0.0236 -0.2164
  358SOL    HW2 1485   1.960   3.730   0.794  0.0002 -0.4283  0.9337
  358SOL    HW3 1486   1.901   3.591   0.792 -0.2505 -0.3102 -1.6980
  358SOL    MW4 1487   1.965   3.646   0.772  0.0005  0.0001 -0.0000
  359SOL     OW 1488   1.964   3.898   0.846  0.0719 -0.0342  0.1924
  359SOL    HW2 1489   1.978   3.915   0.939 -0.9368 -1.2476  0.5768
  359SOL    HW3 1490   1.885   3.948   0.824 -0.2038 -0.4551  0.2108
  359SOL    MW4 1491   1.956   3.907   0.856  0.0005  0.0001 -0.0000
  360SOL     OW 1492   1.754   4.054   0.781  0.1164 -0.4086  0.0154
  360SOL    HW2 1493   1.669   4.014   0.800 -0.0272 -0.5325 -0.8565
  360SOL    HW3 1494   1.755   4.063   0.686  0.9751 -0.1662  0.0455
  360SOL    MW4 1495   1.743   4.050   0.771  0.0005  0.0001 -0.0000
  361SOL     OW 1496   1.777   4.316   0.878  0.1832 -0.4332  0.2681
  361SOL    HW2 1497   1.764   4.301   0.972  0.2002 -0.9583  0.1871
  361SOL    HW3 1498   1.759   4.231   0.837 -0.5964 -0.0106 -0.2815
  361SOL    MW4 1499   1.773   4.303   0.885  0.0005  0.0001 -0.0000
  362SOL     OW 1500   2.023   4.402   0.794 -0.2539 -0.0136 -0.4061
  362SOL    HW2 1501   1.939   4.366   0.821  0.0048  1.2873  2.3084
  362SOL    HW3 1502   2.010   4.428   0.703 -2.0829 -1.8717 -0.7108
  362SOL    MW4 1503   2.010   4.401   0.786  0.0005  0.0001 -0.0000
  363SOL     OW 1504   2.559   4.583   0.840 -0.3533 -0.2052 -0.2410
  363SOL    HW2 1505   2.598   4.581   0.928  0.2957  0.7285 -0.4958
  363SOL    HW3 1506   2.539   4.492   0.820 -0.8320 -0.3847  1.0233
  363SOL    MW4 1507   2.561   4.571   0.849  0.0005  0.0001 -0.0000
  364SOL     OW 1508   2.320   0.088   0.871 -0.1562  0.1123  0.1512
  364SOL    HW2 1509   2.394   0.032   0.895  0.8130  1.7216  1.0010
  364SOL    HW3 1510   2.295   0.059   0.783  0.3209 -1.6552  0.5876
  364SOL    MW4 1511   2.326   0.077   0.863  0.0005  0.0001 -0.0000
  365SOL     OW 1512   2.271   0.369   0.877  0.1151  0.0195 -0.6056
  365SOL    HW2 1513   2.349   0.408   0.837 -0.2901  1.6534  0.1547
  365SOL    HW3 1514   2.289   0.275   0.878  2.4056  0.4343  0.2431
  365SOL    MW4 1515   2.284   0.362   0.872  0.0005  0.0001 -0.0000
  366SOL     OW 1516   2.461   0.495   0.721  0.0079  0.4263  0.2566
  366SOL    HW2 1517   2.553   0.471   0.736 -0.1470 -0.3048  0.0596
  366SOL    HW3 1518   2.449   0.485   0.627 -0.9362 -1.8940  0.5906
  366SOL    MW4 1519   2.471   0.491   0.711  0.0005  0.0001 -0.0000
  367SOL     OW 1520   2.447   0.788   0.813  0.1605  0.0068  0.1441
  367SOL    HW2 1521   2.542   0.802   0.810 -0.1764  2.2452 -1.1318
  367SOL    HW3 1522   2.435   0.698   0.783  1.8799 -0.3014  0.3360
  367SOL    MW4 1523   2.458   0.778   0.809  0.0005  0.0001 -0.0000
  368SOL     OW 1524   2.244   0.941   0.735 -0.1327  0.4019  0.0545
  368SOL    HW2 1525   2.323   0.901   0.771  1.3183  2.8465 -0.3029
  368SOL    HW3 1526   2.244   0.914   0.643 -0.0438 -0.0923  0.1968
  368SOL    MW4 1527   2.254   0.932   0.728  0.0005  0.0001 -0.0000
  369SOL     OW 1528   2.209   1.192   0.833  0.0220  0.3157  0.4463
  369SOL    HW2 1529   2.215   1.180   0.928  2.4903  2.4454  0.6254
  369SOL    HW3 1530   2.222   1.105   0.796  2.4532 -0.0196  1.9998
  369SOL    MW4 1531   2.212   1.179   0.841  0.0005  0.0001 -0.0000
  370SOL     OW 1532   2.469   1.233   0.725 -0.0688  0.0098 -0.3286
  370SOL    HW2 1533   2.382   1.223   0.764 -0.9325  0.8103 -1.9958
  370SOL    HW3 1534   2.465   1.182   0.644  1.1937 -0.3744 -0.1598
  370SOL    MW4 1535   2.457   1.225   0.719  0.0005  0.0001 -0.0000
  371SOL     OW 1536   2.457   1.537   0.783 -0.1244  0.3475  0.5010
  371SOL    HW2 1537   2.538   1.584   0.764  1.2132 -1.7483  0.8630
  371SOL    HW3 1538   2.472   1.449   0.750 -1.3846 -0.7069  2.6276
  371SOL    MW4 1539   2.470   1.532   0.776  0.0005  0.0001 -0.0000
  372SOL     OW 1540   2.222   1.678   0.740 -0.1088 -0.2459  0.9609
  372SOL    HW2 1541   2.308   1.637   0.733 -0.0279  0.0169  0.3881
  372SOL    HW3 1542   2.191   1.685   0.650  0.2743  1.7880  0.9627
  372SOL    MW4 1543   2.229   1.674   0.727  0.0005  0.0001 -0.0000
  373SOL     OW 1544   2.253   1.932   0.832  0.1979 -0.0807 -0.0587
  373SOL    HW2 1545   2.242   1.840   0.810  0.6927 -0.0073 -0.6256
  373SOL    HW3 1546   2.185   1.977   0.781  0.0918 -0.1097  0.0570
  373SOL    MW4 1547   2.243   1.926   0.822  0.0005  0.0001 -0.0000
  374SOL     OW 1548   2.479   2.084   0.761 -0.4675 -0.5565  0.0615
  374SOL    HW2 1549   2.414   2.017   0.784  0.3141 -1.5920 -0.7048
  374SOL    HW3 1550   2.466   2.100   0.668  0.6409 -1.0719 -0.1922
  374SOL    MW4 1551   2.469   2.077   0.752  0.0005  0.0001 -0.0000
  375SOL     OW 1552   2.472   2.325   0.890  0.0162 -0.5135 -0.6567
  375SOL    HW2 1553   2.534   2.382   0.844  2.0369 -1.0712  1.2882
  375SOL    HW3 1554   2.480   2.241   0.845  0.1976 -0.4165 -0.8099
  375SOL    MW4 1555   2.481   2.321   0.878  0.0005  0.0001 -0.0000
  376SOL     OW 1556   2.237   2.463   0.782 -0.2458 -0.7209 -0.0060
  376SOL    HW2 1557   2.308   2.422   0.832 -0.2175  0.8015  1.2392
  376SOL    HW3 1558   2.158   2.421   0.815 -0.1094 -0.7503  0.2873
  376SOL    MW4 1559   2.236   2.452   0.793  0.0005  0.0001 -0.0000
  377SOL     OW 1560   2.210   2.737   0.834  0.0676 -0.0645  0.1234
  377SOL    HW2 1561   2.222   2.743   0.929  0.1496  1.3625  0.0280
  377SOL    HW3 1562   2.206   2.643   0.817 -1.9662 -0.3228  1.7924
  377SOL    MW4 1563   2.211   2.725   0.844  0.0005  0.0001 -0.0000
  378SOL     OW 1564   2.457   2.843   0.724  0.1860 -0.0692  0.0538
  378SOL    HW2 1565   2.523   2.811   0.786 -0.6785 -0.1576  0.9410
  378SOL    HW3 1566   2.376   2.800   0.751  0.1454 -1.5469 -2.2814
  378SOL    MW4 1567   2.455   2.833   0.736  0.0005  0.0001 -0.0000
  379SOL     OW 1568   2.415   3.107   0.854  0.2789  0.4069  0.3305
  379SOL    HW2 1569   2.422   3.089   0.948  0.0873 -0.6321  0.1504
  379SOL    HW3 1570   2.428   3.022   0.812 -1.4418  0.5358 -0.5093
  379SOL    MW4 1571   2.418   3.093   0.861  0.0005  0.0001 -0.0000
  380SOL     OW 1572   2.184   3.234   0.750 -0.4112  0.1599  0.6205
  380SOL    HW2 1573   2.119   3.177   0.792 -1.0923 -0.6131 -1.4291
  380SOL    HW3 1574   2.268   3.196   0.775 -0.8156 -0.5996  0.8410
  380SOL    MW4 1575   2.187   3.221   0.759  0.0005  0.0001 -0.0000
  381SOL     OW 1576   2.211   3.502   0.834 -0.1809 -0.1173 -0.1821
  381SOL    HW2 1577   2.201   3.411   0.805 -0.6343 -0.0701 -0.1828
  381SOL    HW3 1578   2.125   3.541   0.820 -0.2599  0.0459  0.7424
  381SOL    MW4 1579   2.198   3.495   0.828  0.0005  0.0001 -0.0000
  382SOL     OW 1580   2.429   3.647   0.701  0.4767  0.2588 -0.0839
  382SOL    HW2 1581   2.512   3.604   0.723  0.7812  1.8019  1.9401
  382SOL    HW3 1582   2.362   3.591   0.740  0.5999 -0.6239 -1.1227
  382SOL    MW4 1583   2.431   3.634   0.709  0.0005  0.0001 -0.0000
  383SOL     OW 1584   2.432   3.882   0.874 -0.2257  0.7149  0.3201
  383SOL    HW2 1585   2.361   3.932   0.835 -0.7452  0.6245  1.1346
  383SOL    HW3 1586   2.428   3.796   0.831 -0.3575  0.8370  0.0883
  383SOL    MW4 1587   2.422   3.877   0.863  0.0005  0.0001 -0.0000
  384SOL     OW 1588   2.182   4.010   0.733 -0.1565  0.2493  0.2034
  384SOL    HW2 1589   2.104   3.963   0.762 -0.9481  1.8629  0.7558
  384SOL    HW3 1590   2.170   4.023   0.639 -0.9325  1.1693  0.4233
  384SOL    MW4 1591   2.170   4.005   0.724  0.0005  0.0001 -0.0000
  385SOL     OW 1592   2.240   4.268   0.859 -0.2800  0.0503 -0.2622
  385SOL    HW2 1593   2.219   4.185   0.816 -0.2872  0.6314 -1.3989
  385SOL    HW3 1594   2.174   4.329   0.827 -0.7568  0.3139  1.1860
  385SOL    MW4 1595   2.229   4.265   0.849  0.0005  0.0001 -0.0000
  386SOL     OW 1596   2.452   4.369   0.688 -0.2163  0.1682 -0.6342
  386SOL    HW2 1597   2.534   4.323   0.705  0.5396  1.3887 -0.8790
  386SOL    HW3 1598   2.390   4.333   0.751  0.5296 -0.7195 -0.4098
  386SOL    MW4 1599   2.455   4.358   0.699  0.0005  0.0001 -0.0000
  387SOL     OW 1600   2.898   0.016   0.784  0.5668 -0.0439 -0.4551
  387SOL    HW2 1601   2.903  -0.072   0.747 -1.1866  0.4290 -1.8819
  387SOL    HW3 1602   2.845   0.066   0.721  0.8617  1.8184  0.7297
  387SOL    MW4 1603   2.892   0.011   0.771  0.0005  0.0001 -0.0000
  388SOL     OW 1604   2.570   4.651   0.548  0.1187 -0.3546  0.5388
  388SOL    HW2 1605   2.637   4.719   0.557 -1.7685  1.4638  1.2726
  388SOL    HW3 1606   2.559   4.617   0.637  0.5154 -1.1048  0.3046
  388SOL    MW4 1607   2.577   4.655   0.561  0.0005  0.0001 -0.0000
  389SOL     OW 1608   2.717   0.369   0.820 -0.2940 -0.4352 -0.1178
  389SOL    HW2 1609   2.725   0.355   0.914 -1.0824  2.4058  0.4183
  389SOL    HW3 1610   2.789   0.428   0.799 -0.6227 -0.3960 -1.1445
  389SOL    MW4 1611   2.728   0.375   0.830  0.0005  0.0001 -0.0000
  390SOL     OW 1612   2.944   0.493   0.755  0.2236  0.3085  0.2787
  390SOL    HW2 1613   3.012   0.430   0.780 -1.5444 -1.3868  0.9443
  390SOL    HW3 1614   2.923   0.471   0.664 -0.3532 -0.0369  0.4926
  390SOL    MW4 1615   2.950   0.482   0.746  0.0005  0.0001 -0.0000
  391SOL     OW 1616   3.027   0.743   0.789 -0.0816  0.4937 -0.5516
  391SOL    HW2 1617   2.987   0.766   0.873  0.8986 -1.2250  0.4310
  391SOL    HW3 1618   3.003   0.651   0.776  0.9916  0.3315 -1.4365
  391SOL    MW4 1619   3.019   0.734   0.798  0.0005  0.0001 -0.0000
  392SOL     OW 1620   2.697   0.892   0.775 -0.1229 -0.1383 -0.1790
  392SOL    HW2 1621   2.778   0.842   0.785 -1.2371 -2.1994 -1.1323
  392SOL    HW3 1622   2.696   0.917   0.683 -0.4486  0.1002 -0.1105
  392SOL    MW4 1623   2.708   0.889   0.764  0.0005  0.0001 -0.0000
  393SOL     OW 1624   2.672   1.140   0.895  0.2363 -0.3261 -0.0620
  393SOL    HW2 1625   2.673   1.048   0.868 -1.5671 -0.5806  0.6662
  393SOL    HW3 1626   2.624   1.185   0.825 -0.7512 -0.3003  0.6215
  393SOL    MW4 1627   2.666   1.134   0.882  0.0005  0.0001 -0.0000
  394SOL     OW 1628   2.878   1.253   0.770 -0.2759  0.3423 -0.4027
  394SOL    HW2 1629   2.956   1.218   0.813  0.6039  0.2289 -2.0470
  394SOL    HW3 1630   2.805   1.215   0.818  0.6817 -0.4896  0.4166
  394SOL    MW4 1631   2.879   1.243   0.782  0.0005  0.0001 -0.0000
  395SOL     OW 1632   2.915   1.540   0.825  0.1406 -0.0700 -0.0716
  395SOL    HW2 1633   2.998   1.572   0.789 -0.2707 -0.3252 -1.2697
  395SOL    HW3 1634   2.908   1.450   0.793 -0.5731 -0.0673  0.0685
  395SOL    MW4 1635   2.925   1.532   0.816  0.0005  0.0001 -0.0000
  396SOL     OW 1636   2.689   1.686   0.734 -0.2892 -0.1808 -0.1110
  396SOL    HW2 1637   2.689   1.766   0.787 -0.5484  0.6583 -1.3692
  396SOL    HW3 1638   2.768   1.639   0.761 -0.3917  0.2696  0.9790
  396SOL    MW4 1639   2.699   1.690   0.745  0.0005  0.0001 -0.0000
  397SOL     OW 1640   2.713   1.950   0.814 -0.4516 -0.0228  0.2075
  397SOL    HW2 1641   2.719   1.955   0.909  1.3855  0.3511  0.0908
  397SOL    HW3 1642   2.631   1.994   0.793 -0.4854  0.5895  1.5632
  397SOL    MW4 1643   2.703   1.956   0.824  0.0005  0.0001 -0.0000
  398SOL     OW 1644   2.881   2.099   0.640 -0.2885  0.7665 -0.6959
  398SOL    HW2 1645   2.882   2.176   0.697  1.2945  0.3314 -0.1101
  398SOL    HW3 1646   2.836   2.032   0.692  1.0898  0.3913  0.0392
  398SOL    MW4 1647   2.875   2.100   0.654  0.0005  0.0001 -0.0000
  399SOL     OW 1648   2.867   2.342   0.774  0.3946 -0.1767  0.2224
  399SOL    HW2 1649   2.886   2.331   0.867 -0.7105  1.3822  0.6448
  399SOL    HW3 1650   2.780   2.382   0.771  0.7781  0.5833 -1.4560
  399SOL    MW4 1651   2.858   2.346   0.786  0.0005  0.0001 -0.0000
  400SOL     OW 1652   2.645   2.503   0.751  0.6442 -0.5288  0.2529
  400SOL    HW2 1653   2.644   2.522   0.657 -0.6424 -1.2074  0.1196
  400SOL    HW3 1654   2.667   2.587   0.792 -0.7867  0.2605 -0.5521
  400SOL    MW4 1655   2.648   2.517   0.744  0.0005  0.0001 -0.0000
  401SOL     OW 1656   2.681   2.757   0.873  0.0026 -0.0899  0.4349
  401SOL    HW2 1657   2.688   2.742   0.967  1.1788  1.7211  0.6648
  401SOL    HW3 1658   2.769   2.782   0.847 -0.0344 -1.7590 -1.3867
  401SOL    MW4 1659   2.694   2.758   0.882  0.0005  0.0001 -0.0000
  402SOL     OW 1660   2.824   2.912   0.566  0.3986  0.0497  0.0820
  402SOL    HW2 1661   2.758   2.859   0.522  1.0684 -1.7911  1.2282
  402SOL    HW3 1662   2.786   3.000   0.570 -1.4552 -0.7126 -0.3435
  402SOL    MW4 1663   2.810   2.917   0.561  0.0005  0.0001 -0.0000
  403SOL     OW 1664   2.923   3.126   0.930 -0.0904 -0.0791  0.1112
  403SOL    HW2 1665   2.830   3.139   0.913  0.4501  1.3288 -2.0036
  403SOL    HW3 1666   2.945   3.044   0.886 -0.2421 -0.2034  0.2673
  403SOL    MW4 1667   2.914   3.117   0.922  0.0005  0.0001 -0.0000
  404SOL     OW 1668   2.677   3.209   0.850  0.8219  0.0306  0.3690
  404SOL    HW2 1669   2.654   3.301   0.836  2.3509  0.4253  0.4073
  404SOL    HW3 1670   2.593   3.163   0.845  0.1538  1.3077 -0.5809
  404SOL    MW4 1671   2.663   3.215   0.848  0.0005  0.0001 -0.0000
  405SOL     OW 1672   2.624   3.480   0.817  0.1715 -0.3843 -0.1315
  405SOL    HW2 1673   2.633   3.484   0.912  0.5177 -2.7340 -0.0372
  405SOL    HW3 1674   2.710   3.505   0.784  0.4007 -0.7320  0.2024
  405SOL    MW4 1675   2.637   3.484   0.825  0.0005  0.0001 -0.0000
  406SOL     OW 1676   2.870   3.568   0.766 -0.2418  0.3552  0.3543
  406SOL    HW2 1677   2.876   3.654   0.807  1.3979  0.1541  0.5768
  406SOL    HW3 1678   2.901   3.582   0.676  1.5819 -0.2936  0.8598
  406SOL    MW4 1679   2.875   3.581   0.760  0.0005  0.0001 -0.0000
  407SOL     OW 1680   2.910   3.843   0.846 -0.1976  0.0396  0.2667
  407SOL    HW2 1681   2.920   3.838   0.941  0.3811  0.8766  0.2552
  407SOL    HW3 1682   2.829   3.892   0.833  0.7537  1.6881  0.3396
  407SOL    MW4 1683   2.901   3.849   0.857  0.0005  0.0001 -0.0000
  408SOL     OW 1684   2.675   3.993   0.773 -0.4023 -0.0812  0.1318
  408SOL    HW2 1685   2.594   3.951   0.803 -1.4195  1.3539 -0.5459
  408SOL    HW3 1686   2.688   3.959   0.685  1.0497 -2.1288  1.0966
  408SOL    MW4 1687   2.666   3.983   0.765  0.0005  0.0001 -0.0000
  409SOL     OW 1688   2.684   4.256   0.803 -0.3951 -0.0679 -0.5324
  409SOL    HW2 1689   2.672   4.267   0.897  0.7480  0.2840 -0.4197
  409SOL    HW3 1690   2.688   4.161   0.790 -0.3071 -0.1105 -0.1943
  409SOL    MW4 1691   2.683   4.245   0.814  0.0005  0.0001 -0.0000
  410SOL     OW 1692   2.881   4.401   0.691  0.1495 -0.1722  0.0337
  410SOL    HW2 1693   2.958   4.348   0.714  0.9846  1.0784  0.1589
  410SOL    HW3 1694   2.807   4.353   0.729  0.8319 -1.5162 -0.2964
  410SOL    MW4 1695   2.881   4.388   0.699  0.0005  0.0001 -0.0000
  411SOL     OW 1696   3.337   4.582   0.848  0.6465 -0.0038  0.1250
  411SOL    HW2 1697   3.323   4.596   0.942  0.4127  1.1893 -0.0765
  411SOL    HW3 1698   3.282   4.648   0.806  1.8797  0.4371 -0.8215
  411SOL    MW4 1699   3.328   4.593   0.855  0.0005  0.0001 -0.0000
  412SOL     OW 1700   3.168   0.093   0.725  0.0126 -0.2899 -0.5014
  412SOL    HW2 1701   3.168   0.185   0.752  2.0558 -0.2139 -0.6538
  412SOL    HW3 1702   3.078   0.063   0.739 -0.7614  1.8324 -0.8004
  412SOL    MW4 1703   3.156   0.101   0.730  0.0005  0.0001 -0.0000
  413SOL     OW 1704   3.186   0.370   0.822  0.4025 -0.2329 -0.5434
  413SOL    HW2 1705   3.196   0.389   0.915 -1.4481  0.1468 -0.4012
  413SOL    HW3 1706   3.251   0.425   0.779  0.7945  0.1096  0.4750
  413SOL    MW4 1707   3.196   0.380   0.829  0.0005  0.0001 -0.0000
  414SOL     OW 1708   3.367   0.532   0.691  0.1651 -0.4791  0.2493
  414SOL    HW2 1709   3.440   0.477   0.721  0.7038  0.6869  1.0999
  414SOL    HW3 1710   3.376   0.532   0.596  1.1009 -0.5941  0.3280
  414SOL    MW4 1711   3.378   0.525   0.682  0.0005  0.0001 -0.0000
  415SOL     OW 1712   3.313   0.775   0.817 -0.0439 -0.0906 -0.0809
  415SOL    HW2 1713   3.218   0.779   0.804  0.1626  1.0876 -1.3370
  415SOL    HW3 1714   3.340   0.693   0.776 -0.3548  0.1945 -0.8620
  415SOL    MW4 1715   3.304   0.765   0.810  0.0005  0.0001 -0.0000
  416SOL     OW 1716   3.115   0.940   0.605 -0.2563 -0.2412  0.1957
  416SOL    HW2 1717   3.123   1.008   0.671  0.3330 -0.8939  0.8045
  416SOL    HW3 1718   3.057   0.875   0.644 -0.1563 -0.4807 -0.0516
  416SOL    MW4 1719   3.108   0.940   0.619  0.0005  0.0001 -0.0000
  417SOL     OW 1720   3.160   1.147   0.809  0.1138  0.3323  0.1486
  417SOL    HW2 1721   3.183   1.147   0.902  0.3876  3.1350  0.1161
  417SOL    HW3 1722   3.231   1.194   0.766 -0.8036  0.4638 -1.2706
  417SOL    MW4 1723   3.172   1.153   0.816  0.0005  0.0001 -0.0000
  418SOL     OW 1724   3.399   1.287   0.731  0.4194  0.0240  0.2842
  418SOL    HW2 1725   3.477   1.235   0.749  0.0341  0.1867  2.6521
  418SOL    HW3 1726   3.411   1.366   0.784 -1.0427  0.3347  0.1574
  418SOL    MW4 1727   3.411   1.291   0.740  0.0005  0.0001 -0.0000
  419SOL     OW 1728   3.409   1.537   0.839 -0.1268 -0.6525 -0.7806
  419SOL    HW2 1729   3.421   1.526   0.933 -2.0086  1.0033 -0.3166
  419SOL    HW3 1730   3.470   1.606   0.815 -0.4187 -0.3187 -0.5680
  419SOL    MW4 1731   3.419   1.545   0.848  0.0005  0.0001 -0.0000
  420SOL     OW 1732   3.166   1.631   0.746 -0.2477 -0.1436 -0.0732
  420SOL    HW2 1733   3.256   1.604   0.765  0.0759  0.6283 -0.4985
  420SOL    HW3 1734   3.166   1.653   0.653 -1.0402 -0.7680 -0.2288
  420SOL    MW4 1735   3.178   1.630   0.736  0.0005  0.0001 -0.0000
  421SOL     OW 1736   3.235   1.884   0.825 -0.0014 -0.5889 -0.3152
  421SOL    HW2 1737   3.183   1.897   0.904  1.2978  1.1129  0.2943
  421SOL    HW3 1738   3.208   1.798   0.792 -1.8567 -0.5263  0.9714
  421SOL    MW4 1739   3.225   1.874   0.831  0.0005  0.0001 -0.0000
  422SOL     OW 1740   3.459   2.047   0.797  0.0132 -0.1830 -0.6644
  422SOL    HW2 1741   3.445   2.131   0.841  0.4033 -0.4138 -0.0920
  422SOL    HW3 1742   3.379   1.997   0.813  0.1780 -0.2881 -0.1643
  422SOL    MW4 1743   3.447   2.051   0.805  0.0005  0.0001 -0.0000
  423SOL     OW 1744   3.453   2.299   0.888 -0.0211 -0.1880  0.4151
  423SOL    HW2 1745   3.421   2.323   0.975  0.0523 -0.2882  0.4695
  423SOL    HW3 1746   3.513   2.370   0.865 -2.7190  1.7068 -1.0595
  423SOL    MW4 1747   3.457   2.311   0.896  0.0005  0.0001 -0.0000
  424SOL     OW 1748   3.085   2.522   0.680  0.6390 -0.2169  0.0911
  424SOL    HW2 1749   3.154   2.456   0.673 -0.1316 -1.1924  1.4490
  424SOL    HW3 1750   3.007   2.472   0.705 -0.0748  1.1370  0.5994
  424SOL    MW4 1751   3.084   2.507   0.682  0.0005  0.0001 -0.0000
  425SOL     OW 1752   3.160   2.733   0.883  0.1364 -0.2785 -0.0881
  425SOL    HW2 1753   3.126   2.656   0.837 -0.2936 -0.5504  0.6761
  425SOL    HW3 1754   3.225   2.770   0.823 -0.1430 -0.8469 -0.7488
  425SOL    MW4 1755   3.164   2.728   0.869  0.0005  0.0001 -0.0000
  426SOL     OW 1756   3.291   2.890   0.651 -0.2115 -0.1692  0.1368
  426SOL    HW2 1757   3.232   2.923   0.584  0.3500 -1.1738 -0.8720
  426SOL    HW3 1758   3.360   2.845   0.602  1.0169  0.3889  1.3229
  426SOL    MW4 1759   3.292   2.888   0.636  0.0005  0.0001 -0.0000
  427SOL     OW 1760   3.339   3.087   0.843 -0.6085 -0.5364 -0.0958
  427SOL    HW2 1761   3.362   3.059   0.932 -1.2922 -0.2112  0.1881
  427SOL    HW3 1762   3.326   3.005   0.795 -0.9387 -0.7141  0.2893
  427SOL    MW4 1763   3.340   3.072   0.848  0.0005  0.0001 -0.0000
  428SOL     OW 1764   3.111   3.249   0.779 -0.1086  0.4682  0.5584
  428SOL    HW2 1765   3.182   3.185   0.782 -1.0491 -0.6186  0.3008
  428SOL    HW3 1766   3.039   3.207   0.827 -1.3222  0.5809 -1.1136
  428SOL    MW4 1767   3.111   3.235   0.786  0.0005  0.0001 -0.0000
  429SOL     OW 1768   3.108   3.487   0.905 -0.1882  0.0658 -0.3366
  429SOL    HW2 1769   3.118   3.398   0.872 -1.2583 -0.2702  0.2327
  429SOL    HW3 1770   3.024   3.517   0.871  0.7735  1.3623 -1.6428
  429SOL    MW4 1771   3.098   3.479   0.896  0.0005  0.0001 -0.0000
  430SOL     OW 1772   3.347   3.577   0.784 -0.1421 -0.1409  0.1296
  430SOL    HW2 1773   3.332   3.672   0.779 -0.0819 -0.1793 -0.8368
  430SOL    HW3 1774   3.267   3.543   0.825 -0.4652  0.2502 -0.1675
  430SOL    MW4 1775   3.335   3.585   0.789  0.0005  0.0001 -0.0000
  431SOL     OW 1776   3.323   3.858   0.838 -0.3242  0.0719  0.3365
  431SOL    HW2 1777   3.337   3.859   0.933 -1.5409  1.9222  0.5222
  431SOL    HW3 1778   3.395   3.910   0.802  0.0605 -0.5178  0.2359
  431SOL    MW4 1779   3.334   3.865   0.846  0.0005  0.0001 -0.0000
  432SOL     OW 1780   3.105   3.970   0.691  0.0174  0.0529  0.3055
  432SOL    HW2 1781   3.188   3.949   0.734 -0.9391 -0.1376  2.0754
  432SOL    HW3 1782   3.039   3.919   0.738 -1.2035  0.7049 -0.6621
  432SOL    MW4 1783   3.107   3.960   0.703  0.0005  0.0001 -0.0000
  433SOL     OW 1784   3.088   4.239   0.793 -0.3566  0.0954 -0.3964
  433SOL    HW2 1785   3.180   4.264   0.780 -0.9025  1.4463 -1.8095
  433SOL    HW3 1786   3.079   4.157   0.744  0.3655 -0.6470  0.6872
  433SOL    MW4 1787   3.099   4.232   0.785  0.0005  0.0001 -0.0000
  434SOL     OW 1788   3.322   4.355   0.714 -0.0947 -0.4286 -0.4601
  434SOL    HW2 1789   3.319   4.438   0.762 -2.4463 -0.8435  0.1828
  434SOL    HW3 1790   3.355   4.378   0.627  2.2920  0.6494  0.6932
  434SOL    MW4 1791   3.326   4.369   0.709  0.0005  0.0001 -0.0000
  435SOL     OW 1792   3.789   4.664   0.843 -0.2461  0.5011  0.4808
  435SOL    HW2 1793   3.860   4.709   0.798 -0.8570 -0.8076 -1.8784
  435SOL    HW3 1794   3.711   4.716   0.822 -0.6547 -0.5532 -0.6710
  435SOL    MW4 1795   3.788   4.677   0.834  0.0005  0.0001 -0.0000
  436SOL     OW 1796   3.541   0.107   0.757  0.0874  0.3894 -0.0521
  436SOL    HW2 1797   3.484   0.040   0.795 -0.2538  0.6272 -0.1424
  436SOL    HW3 1798   3.558   0.076   0.668  0.6366 -0.0128  0.1898
  436SOL    MW4 1799   3.536   0.094   0.750  0.0005  0.0001 -0.0000
  437SOL     OW 1800   3.606   0.375   0.790 -0.2180  0.3237  0.8066
  437SOL    HW2 1801   3.585   0.379   0.883 -0.1639 -1.8173  0.9303
  437SOL    HW3 1802   3.577   0.288   0.762  0.8972  0.4687 -0.8924
  437SOL    MW4 1803   3.599   0.364   0.799  0.0005  0.0001 -0.0000
  438SOL     OW 1804   3.818   0.560   0.772  0.2041 -0.3871  0.1663
  438SOL    HW2 1805   3.789   0.645   0.804 -0.2287 -0.9067  1.1854
  438SOL    HW3 1806   3.747   0.500   0.795  0.0972 -0.8694 -1.3539
  438SOL    MW4 1807   3.805   0.563   0.779  0.0005  0.0001 -0.0000
  439SOL     OW 1808   3.748   0.811   0.846 -0.5054 -0.0651  0.3471
  439SOL    HW2 1809   3.746   0.812   0.942  0.4913 -0.3915  0.3755
  439SOL    HW3 1810   3.834   0.847   0.823 -0.7617  0.0670 -0.4265
  439SOL    MW4 1811   3.759   0.816   0.856  0.0005  0.0001 -0.0000
  440SOL     OW 1812   3.487   0.950   0.674 -0.3467  0.0323 -0.4958
  440SOL    HW2 1813   3.565   0.895   0.680 -0.8780 -0.7715 -0.8497
  440SOL    HW3 1814   3.422   0.906   0.729 -1.0844 -0.2357 -1.5551
  440SOL    MW4 1815   3.489   0.937   0.682  0.0005  0.0001 -0.0000
  441SOL     OW 1816   3.632   1.139   0.834  0.0209  0.3517 -0.2097
  441SOL    HW2 1817   3.608   1.131   0.926  0.8717 -0.4098 -0.0460
  441SOL    HW3 1818   3.594   1.061   0.793  1.0878 -0.1901 -0.1839
  441SOL    MW4 1819   3.624   1.128   0.841  0.0005  0.0001 -0.0000
  442SOL     OW 1820   3.853   1.303   0.756  0.0459  0.2505  0.1541
  442SOL    HW2 1821   3.777   1.249   0.777 -1.0771  1.4010 -0.8566
  442SOL    HW3 1822   3.850   1.312   0.661  1.0370  0.9070  0.1798
  442SOL    MW4 1823   3.843   1.297   0.746  0.0005  0.0001 -0.0000
  443SOL     OW 1824   3.825   1.567   0.846  0.0160 -0.0516  0.0928
  443SOL    HW2 1825   3.901   1.618   0.818  0.8622 -0.5468  1.4391
  443SOL    HW3 1826   3.841   1.479   0.812  0.4238 -0.3408  1.0163
  443SOL    MW4 1827   3.837   1.562   0.838  0.0005  0.0001 -0.0000
  444SOL     OW 1828   3.601   1.722   0.771 -0.5696  0.1264  0.1511
  444SOL    HW2 1829   3.630   1.795   0.825 -1.9785  0.4699  0.4622
  444SOL    HW3 1830   3.671   1.657   0.779 -0.1788  0.6819  1.3723
  444SOL    MW4 1831   3.614   1.723   0.779  0.0005  0.0001 -0.0000
  445SOL     OW 1832   3.682   1.946   0.922  0.3003  0.3686  0.5281
  445SOL    HW2 1833   3.747   1.999   0.876  0.7437 -0.0894  0.6255
  445SOL    HW3 1834   3.598   1.978   0.889  0.6398 -0.9998 -1.7780
  445SOL    MW4 1835   3.680   1.957   0.912  0.0005  0.0001 -0.0000
  446SOL     OW 1836   3.874   2.062   0.730  0.3296 -0.4177 -0.4197
  446SOL    HW2 1837   3.960   2.031   0.760  0.8733 -0.3334 -1.8459
  446SOL    HW3 1838   3.888   2.086   0.638 -1.0840  0.1525 -0.4968
  446SOL    MW4 1839   3.887   2.061   0.722  0.0005  0.0001 -0.0000
  447SOL     OW 1840   3.861   2.319   0.857 -0.2432  0.1724 -0.1625
  447SOL    HW2 1841   3.844   2.301   0.949  1.0834 -0.0931  0.0406
  447SOL    HW3 1842   3.860   2.233   0.815  2.0094 -0.0169  0.1095
  447SOL    MW4 1843   3.859   2.305   0.864  0.0005  0.0001 -0.0000
  448SOL     OW 1844   3.653   2.494   0.812 -0.4324 -0.0636 -0.2085
  448SOL    HW2 1845   3.659   2.583   0.848  1.4958 -1.2771  2.6306
  448SOL    HW3 1846   3.734   2.451   0.840 -1.4850 -2.8371 -1.2596
  448SOL    MW4 1847   3.664   2.500   0.820  0.0005  0.0001 -0.0000
  449SOL     OW 1848   3.678   2.783   0.867  0.1040 -0.1388 -0.0364
  449SOL    HW2 1849   3.668   2.776   0.962  0.9236 -1.6279 -0.0450
  449SOL    HW3 1850   3.728   2.864   0.854  0.4478 -0.2058  0.8334
  449SOL    MW4 1851   3.683   2.793   0.878  0.0005  0.0001 -0.0000
  450SOL     OW 1852   3.872   2.781   0.643  0.0462 -0.2873 -0.0487
  450SOL    HW2 1853   3.784   2.745   0.631  0.2574 -0.6461 -0.5282
  450SOL    HW3 1854   3.908   2.788   0.554 -0.4035  2.1654 -0.0636
  450SOL    MW4 1855   3.865   2.777   0.630  0.0005  0.0001 -0.0000
  451SOL     OW 1856   3.794   3.037   0.872  0.6001 -0.2164 -0.2000
  451SOL    HW2 1857   3.869   3.090   0.844  1.0602 -0.7985 -0.0799
  451SOL    HW3 1858   3.718   3.084   0.839  0.9024  1.4388  1.3795
  451SOL    MW4 1859   3.794   3.050   0.864  0.0005  0.0001 -0.0000
  452SOL     OW 1860   3.573   3.179   0.746 -0.0823  0.3448 -0.7841
  452SOL    HW2 1861   3.490   3.137   0.767 -0.0041  0.3024 -0.5593
  452SOL    HW3 1862   3.574   3.183   0.650  1.0413 -2.4691 -0.9381
  452SOL    MW4 1863   3.562   3.174   0.736  0.0005  0.0001 -0.0000
  453SOL     OW 1864   3.579   3.445   0.856 -0.8466 -0.0871  0.5379
  453SOL    HW2 1865   3.562   3.354   0.830 -1.6352  0.4251 -0.8028
  453SOL    HW3 1866   3.499   3.492   0.831  0.6967  1.5217 -1.5508
  453SOL    MW4 1867   3.566   3.439   0.849  0.0005  0.0001 -0.0000
  454SOL     OW 1868   3.804   3.595   0.867 -0.1908 -0.3815 -0.0781
  454SOL    HW2 1869   3.887   3.548   0.860  0.1252  0.3370 -1.2619
  454SOL    HW3 1870   3.737   3.527   0.856  0.2303 -0.9597  0.8791
  454SOL    MW4 1871   3.806   3.580   0.865  0.0005  0.0001 -0.0000
  455SOL     OW 1872   3.767   3.863   0.852 -0.1864  0.0643  0.0538
  455SOL    HW2 1873   3.693   3.888   0.796 -0.4425 -1.5108 -0.3369
  455SOL    HW3 1874   3.762   3.768   0.857  1.7303 -0.0486  0.1606
  455SOL    MW4 1875   3.757   3.854   0.845  0.0005  0.0001 -0.0000
  456SOL     OW 1876   3.541   3.979   0.723 -0.4291 -0.7161 -0.3136
  456SOL    HW2 1877   3.536   4.069   0.755 -0.5267 -0.2391 -1.6558
  456SOL    HW3 1878   3.558   3.987   0.629 -0.2637 -2.0987 -0.4177
  456SOL    MW4 1879   3.543   3.992   0.715  0.0005  0.0001 -0.0000
  457SOL     OW 1880   3.562   4.248   0.838 -0.7601 -0.0023  0.1857
  457SOL    HW2 1881   3.646   4.294   0.833 -0.7185  0.0225  1.0243
  457SOL    HW3 1882   3.498   4.312   0.807 -0.5743  0.2769  0.3688
  457SOL    MW4 1883   3.565   4.262   0.833  0.0005  0.0001 -0.0000
  458SOL     OW 1884   3.796   4.400   0.844 -0.5696  0.2399  0.1650
  458SOL    HW2 1885   3.880   4.359   0.864 -0.4828 -0.0608 -0.7874
  458SOL    HW3 1886   3.815   4.494   0.840 -0.3785  0.2125  0.4304
  458SOL    MW4 1887   3.810   4.407   0.846  0.0005  0.0001 -0.0000
  459SOL     OW 1888   4.247   4.661   0.823 -0.2422 -0.2598 -0.0822
  459SOL    HW2 1889   4.249   4.656   0.919  0.0827  1.4214  0.0144
  459SOL    HW3 1890   4.167   4.710   0.803  0.2170  0.2791 -0.6217
  459SOL    MW4 1891   4.237   4.667   0.833  0.0005  0.0001 -0.0000
  460SOL     OW 1892   4.013   0.145   0.742 -0.5278 -0.3601  0.0176
  460SOL    HW2 1893   4.015   0.213   0.810 -1.2312 -0.4642  0.1462
  460SOL    HW3 1894   3.999   0.193   0.661 -0.0886 -0.2709 -0.0067
  460SOL    MW4 1895   4.011   0.160   0.740  0.0005  0.0001 -0.0000
  461SOL     OW 1896   4.035   0.398   0.857  0.0908 -0.0387  0.3896
  461SOL    HW2 1897   4.112   0.432   0.811  0.0700  0.4414  0.7062
  461SOL    HW3 1898   3.961   0.444   0.818 -0.0195 -0.3592  0.2196
  461SOL    MW4 1899   4.035   0.409   0.846  0.0005  0.0001 -0.0000
  462SOL     OW 1900   4.271   0.496   0.726 -0.0684 -0.1630  0.0193
  462SOL    HW2 1901   4.340   0.464   0.784  0.4297 -1.2640 -1.1537
  462SOL    HW3 1902   4.316   0.516   0.644 -1.0030 -0.0532 -0.4780
  462SOL    MW4 1903   4.286   0.494   0.723  0.0005  0.0001 -0.0000
  463SOL     OW 1904   4.224   0.763   0.865 -0.0677  0.1174 -0.0704
  463SOL    HW2 1905   4.141   0.804   0.840 -0.1308  0.0668  0.0563
  463SOL    HW3 1906   4.212   0.670   0.845  0.5961  0.3709 -1.7293
  463SOL    MW4 1907   4.211   0.756   0.859  0.0005  0.0001 -0.0000
  464SOL     OW 1908   4.002   0.895   0.770  0.1901  0.1262  0.4012
  464SOL    HW2 1909   4.023   0.985   0.794  0.9725  0.0750 -0.0692
  464SOL    HW3 1910   4.008   0.894   0.674 -0.4200 -0.2773  0.3654
  464SOL    MW4 1911   4.006   0.907   0.761  0.0005  0.0001 -0.0000
  465SOL     OW 1912   4.075   1.158   0.831  0.0784  0.0728 -0.0407
  465SOL    HW2 1913   4.059   1.140   0.924  0.4732  0.3090  0.0740
  465SOL    HW3 1914   3.997   1.205   0.802  0.5040  1.1225  0.4894
  465SOL    MW4 1915   4.063   1.162   0.839  0.0005  0.0001 -0.0000
  466SOL     OW 1916   4.292   1.285   0.730  0.2134 -0.2241 -0.3654
  466SOL    HW2 1917   4.209   1.242   0.751  0.3044  0.2107  0.9582
  466SOL    HW3 1918   4.359   1.225   0.763  0.3341  0.9972  1.6947
  466SOL    MW4 1919   4.290   1.271   0.737  0.0005  0.0001 -0.0000
  467SOL     OW 1920   4.257   1.537   0.853 -0.2761 -0.4500  0.6479
  467SOL    HW2 1921   4.280   1.530   0.946 -0.6886 -0.5757  0.7417
  467SOL    HW3 1922   4.271   1.449   0.819  0.6074 -0.2281  0.4180
  467SOL    MW4 1923   4.262   1.524   0.861  0.0005  0.0001 -0.0000
  468SOL     OW 1924   4.068   1.716   0.797 -0.4760 -0.1582  0.2036
  468SOL    HW2 1925   4.130   1.645   0.813 -0.8492 -0.7032 -0.7228
  468SOL    HW3 1926   4.076   1.734   0.703 -1.2178  0.2372  0.2130
  468SOL    MW4 1927   4.077   1.709   0.787  0.0005  0.0001 -0.0000
  469SOL     OW 1928   4.123   1.978   0.870 -0.7696  0.5789 -0.1995
  469SOL    HW2 1929   4.204   2.016   0.836 -0.8794  0.5291 -0.5180
  469SOL    HW3 1930   4.129   1.885   0.849  0.0026  0.2104  1.5613
  469SOL    MW4 1931   4.135   1.971   0.863  0.0005  0.0001 -0.0000
  470SOL     OW 1932   4.278   2.049   0.661 -0.2779 -0.3365  0.1996
  470SOL    HW2 1933   4.349   1.993   0.693  0.6115  0.8447  0.3250
  470SOL    HW3 1934   4.311   2.085   0.578 -0.6796  0.3066  0.3146
  470SOL    MW4 1935   4.292   2.046   0.654  0.0005  0.0001 -0.0000
  471SOL     OW 1936   4.348   2.298   0.800  0.5669  0.2263 -0.4858
  471SOL    HW2 1937   4.261   2.337   0.808  0.0469 -0.7555 -1.2878
  471SOL    HW3 1938   4.332   2.209   0.768  1.9151  0.3410 -1.5131
  471SOL    MW4 1939   4.334   2.291   0.797  0.0005  0.0001 -0.0000
  472SOL     OW 1940   4.108   2.438   0.802 -0.2713 -0.1581 -0.6104
  472SOL    HW2 1941   4.093   2.531   0.818  0.4795 -0.2514  0.7127
  472SOL    HW3 1942   4.028   2.395   0.831  0.0653 -0.0789  0.4560
  472SOL    MW4 1943   4.095   2.445   0.808  0.0005  0.0001 -0.0000
  473SOL     OW 1944   4.076   2.702   0.819 -0.1071  0.0913 -0.1155
  473SOL    HW2 1945   4.153   2.754   0.797  0.0302  0.2941  0.8336
  473SOL    HW3 1946   4.011   2.728   0.754  0.0319  1.2903  0.2092
  473SOL    MW4 1947   4.078   2.712   0.808  0.0005  0.0001 -0.0000
  474SOL     OW 1948   4.311   2.835   0.768 -0.1591  0.1005  0.0639
  474SOL    HW2 1949   4.395   2.810   0.805 -1.0090 -2.0623  0.6051
  474SOL    HW3 1950   4.323   2.825   0.673 -0.1215 -1.2679  0.2019
  474SOL    MW4 1951   4.324   2.830   0.760  0.0005  0.0001 -0.0000
  475SOL     OW 1952   4.304   3.112   0.838  0.4244 -0.5179 -0.1029
  475SOL    HW2 1953   4.317   3.024   0.803  0.9479  0.3923 -2.2585
  475SOL    HW3 1954   4.355   3.169   0.780  0.1036  1.2079  1.2690
  475SOL    MW4 1955   4.312   3.108   0.826  0.0005  0.0001 -0.0000
  476SOL     OW 1956   4.012   3.164   0.760 -0.0113  0.0871  0.0894
  476SOL    HW2 1957   4.015   3.256   0.786 -0.8081 -0.2696  1.4958
  476SOL    HW3 1958   4.099   3.130   0.782 -0.1584  0.1797  0.8268
  476SOL    MW4 1959   4.024   3.172   0.766  0.0005  0.0001 -0.0000
  477SOL     OW 1960   4.041   3.450   0.840 -0.1875  0.2994  0.1946
  477SOL    HW2 1961   4.056   3.464   0.933  0.4835 -0.4721  0.2074
  477SOL    HW3 1962   4.114   3.495   0.797 -0.1359  0.0945  0.0698
  477SOL    MW4 1963   4.053   3.458   0.847  0.0005  0.0001 -0.0000
  478SOL     OW 1964   4.269   3.593   0.733  0.0055 -0.2470 -0.5146
  478SOL    HW2 1965   4.272   3.675   0.783  0.1571 -0.4063 -0.2610
  478SOL    HW3 1966   4.266   3.621   0.641 -0.3866  0.0490 -0.4135
  478SOL    MW4 1967   4.269   3.607   0.728  0.0005  0.0001 -0.0000
  479SOL     OW 1968   4.267   3.845   0.853 -0.1623 -0.1744  0.1160
  479SOL    HW2 1969   4.261   3.855   0.948 -1.7012 -1.7242  0.2083
  479SOL    HW3 1970   4.181   3.871   0.821  0.3664  0.3854 -0.8693
  479SOL    MW4 1971   4.255   3.850   0.861  0.0005  0.0001 -0.0000
  480SOL     OW 1972   4.020   3.974   0.780 -0.2901 -0.0074  0.1017
  480SOL    HW2 1973   3.945   3.930   0.820 -0.8110  0.0215 -0.8402
  480SOL    HW3 1974   3.998   3.981   0.687  0.3288  1.1279  0.0268
  480SOL    MW4 1975   4.007   3.969   0.773  0.0005  0.0001 -0.0000
  481SOL     OW 1976   4.035   4.236   0.843 -0.1948 -0.4555 -0.1154
  481SOL    HW2 1977   4.100   4.293   0.802 -0.0984  0.2075  0.9261
  481SOL    HW3 1978   4.047   4.151   0.801  0.5421 -0.0399 -0.7620
  481SOL    MW4 1979   4.045   4.232   0.832  0.0005  0.0001 -0.0000
  482SOL     OW 1980   4.216   4.402   0.699 -0.1379  0.5054 -0.0552
  482SOL    HW2 1981   4.224   4.493   0.727  1.4938  0.0950  0.9020
  482SOL    HW3 1982   4.304   4.366   0.710 -0.3761 -0.7434 -2.0125
  482SOL    MW4 1983   4.229   4.409   0.704  0.0005  0.0001 -0.0000
  483SOL     OW 1984   0.211   0.018   1.182 -0.0704 -0.1076 -0.1580
  483SOL    HW2 1985   0.295   0.049   1.216  0.6227  0.9314 -2.6903
  483SOL    HW3 1986   0.226   0.007   1.088 -2.0159 -2.5112 -0.2345
  483SOL    MW4 1987   0.224   0.021   1.174  0.0005  0.0001 -0.0000
  484SOL     OW 1988   4.461   0.140   1.251 -0.1789 -0.2742 -0.1706
  484SOL    HW2 1989   4.389   0.091   1.211 -0.0430  0.7675 -1.7350
  484SOL    HW3 1990   4.539   0.087   1.233 -0.3491 -0.6642  0.2290
  484SOL    MW4 1991   4.462   0.127   1.243  0.0005  0.0001 -0.0000
  485SOL     OW 1992   4.465   0.391   1.121 -0.0221  0.1976  0.1895
  485SOL    HW2 1993   4.387   0.429   1.161 -0.3239 -0.3151  0.0926
  485SOL    HW3 1994   4.469   0.302   1.156  1.2483  0.6385  1.2061
  485SOL    MW4 1995   4.455   0.384   1.131  0.0005  0.0001 -0.0000
  486SOL     OW 1996   0.187   0.514   1.246 -0.3732  0.2563  0.3943
  486SOL    HW2 1997   0.196   0.590   1.189 -0.1883  0.8562  1.2078
  486SOL    HW3 1998   0.118   0.461   1.206 -0.6978  0.9930 -0.0233
  486SOL    MW4 1999   0.179   0.517   1.233  0.0005  0.0001 -0.0000
  487SOL     OW 2000   0.217   0.752   1.111 -0.0240  0.0653  0.0409
  487SOL    HW2 2001   0.301   0.781   1.146 -0.3442  0.5475  0.4050
  487SOL    HW3 2002   0.151   0.800   1.161 -0.4874  0.7280 -1.1778
  487SOL    MW4 2003   0.219   0.762   1.122  0.0005  0.0001 -0.0000
  488SOL     OW 2004   4.483   0.912   1.241 -0.2708  0.3645  0.1420
  488SOL    HW2 2005   4.486   0.895   1.335  2.7151  0.0051  0.0360
  488SOL    HW3 2006   4.412   0.856   1.208 -0.2544 -0.7406  1.9338
  488SOL    MW4 2007   4.474   0.902   1.249  0.0005  0.0001 -0.0000
  489SOL     OW 2008   4.453   1.161   1.124 -0.3765 -0.0086 -0.2024
  489SOL    HW2 2009   4.372   1.196   1.160  0.4839  0.6506  1.1292
  489SOL    HW3 2010   4.465   1.077   1.168  0.4258  0.5753  0.6978
  489SOL    MW4 2011   4.444   1.155   1.135  0.0005  0.0001 -0.0000
  490SOL     OW 2012   0.199   1.262   1.230 -0.2200 -0.1894 -0.4049
  490SOL    HW2 2013   0.259   1.202   1.185 -0.4538 -0.9384  0.2690
  490SOL    HW3 2014   0.112   1.236   1.199 -0.4443 -1.1973  1.0213
  490SOL    MW4 2015   0.195   1.251   1.220  0.0005  0.0001 -0.0000
  491SOL     OW 2016   0.238   1.516   1.129 -0.0469 -0.4555  0.1481
  491SOL    HW2 2017   0.254   1.426   1.159  0.8245 -0.8556 -1.4627
  491SOL    HW3 2018   0.225   1.508   1.034 -0.2135  1.0906  0.0264
  491SOL    MW4 2019   0.238   1.503   1.120  0.0005  0.0001 -0.0000
  492SOL     OW 2020   0.023   1.663   1.235 -0.4425  0.2693 -0.1062
  492SOL    HW2 2021   0.033   1.746   1.188  1.0396 -0.1869 -0.6227
  492SOL    HW3 2022   0.098   1.611   1.208 -1.0840 -1.0586  0.6181
  492SOL    MW4 2023   0.034   1.667   1.225  0.0005  0.0001 -0.0000
  493SOL     OW 2024   0.007   1.911   1.121 -0.1102 -0.0607 -0.1209
  493SOL    HW2 2025  -0.064   1.963   1.159 -0.1050 -0.0168 -0.1709
  493SOL    HW3 2026   0.001   1.928   1.027  0.7209  0.8903 -0.0104
  493SOL    MW4 2027  -0.003   1.920   1.114  0.0005  0.0001 -0.0000
  494SOL     OW 2028   0.198   2.064   1.249  0.2639 -0.1462  0.3156
  494SOL    HW2 2029   0.202   2.136   1.186  0.5640  0.7398  1.3411
  494SOL    HW3 2030   0.140   2.000   1.208  0.1092  0.6116 -0.6728
  494SOL    MW4 2031   0.191   2.065   1.235  0.0005  0.0001 -0.0000
  495SOL     OW 2032   0.230   2.289   1.070  0.4620 -0.0754  0.1834
  495SOL    HW2 2033   0.314   2.335   1.076  0.1985  0.6425 -1.3791
  495SOL    HW3 2034   0.165   2.354   1.098  0.3167 -0.2385  0.2232
  495SOL    MW4 2035   0.233   2.304   1.075  0.0005  0.0001 -0.0000
  496SOL     OW 2036   0.033   2.432   1.194 -0.5804 -0.4897  0.2516
  496SOL    HW2 2037   0.029   2.425   1.289 -0.4793  0.2303  0.3131
  496SOL    HW3 2038  -0.034   2.371   1.162 -1.5666  0.2814  0.8220
  496SOL    MW4 2039   0.024   2.423   1.202  0.0005  0.0001 -0.0000
  497SOL     OW 2040   0.033   2.718   1.111 -0.2175 -0.5948 -0.0348
  497SOL    HW2 2041  -0.033   2.745   1.174 -0.2324  0.2524 -0.4052
  497SOL    HW3 2042   0.014   2.626   1.094 -0.3638 -0.7597  1.0053
  497SOL    MW4 2043   0.022   2.709   1.117  0.0005  0.0001 -0.0000
  498SOL     OW 2044   0.246   2.855   1.221 -0.2025 -0.0965 -0.1439
  498SOL    HW2 2045   0.226   2.841   1.314 -1.3327 -1.5152 -0.5856
  498SOL    HW3 2046   0.178   2.807   1.174  0.9230 -0.1987 -1.7142
  498SOL    MW4 2047   0.234   2.847   1.227  0.0005  0.0001 -0.0000
  499SOL     OW 2048   0.205   3.090   1.077  0.1679  0.0474  0.0622
  499SOL    HW2 2049   0.276   3.148   1.104  0.2903 -0.4091  0.7267
  499SOL    HW3 2050   0.216   3.011   1.130 -0.6925 -0.1237 -0.0010
  499SOL    MW4 2051   0.216   3.087   1.088  0.0005  0.0001 -0.0000
  500SOL     OW 2052   4.484   3.233   1.210  0.1828  0.0982  0.4409
  500SOL    HW2 2053   4.416   3.169   1.188 -0.0847  0.0992  1.2440
  500SOL    HW3 2054   4.563   3.200   1.167 -0.3889  0.2557 -0.7547
  500SOL    MW4 2055   4.486   3.220   1.201  0.0005  0.0001 -0.0000
  501SOL     OW 2056   4.449   3.500   1.107  0.0770 -0.0889 -0.4433
  501SOL    HW2 2057   4.461   3.416   1.150  0.4033 -0.3733 -1.0835
  501SOL    HW3 2058   4.465   3.482   1.014  1.9784  1.0455 -0.3624
  501SOL    MW4 2059   4.453   3.487   1.100  0.0005  0.0001 -0.0000
  502SOL     OW 2060   0.185   3.647   1.191 -0.2549  0.4557  0.2530
  502SOL    HW2 2061   0.189   3.635   1.286  0.0171  0.2951  0.2216
  502SOL    HW3 2062   0.105   3.602   1.164  0.4912 -0.8644  0.2014
  502SOL    MW4 2063   0.175   3.639   1.200  0.0005  0.0001 -0.0000
  503SOL     OW 2064   0.212   3.915   1.098 -0.0576  0.7333  0.4867
  503SOL    HW2 2065   0.142   3.952   1.152 -1.0216 -0.2101 -0.1109
  503SOL    HW3 2066   0.204   3.820   1.110  0.6071  0.5844 -0.2159
  503SOL    MW4 2067   0.202   3.907   1.107  0.0005  0.0001 -0.0000
  504SOL     OW 2068   4.465   4.002   1.203  0.2921  0.5613 -0.0088
  504SOL    HW2 2069   4.451   3.996   1.297  1.1516 -1.4960  0.0123
  504SOL    HW3 2070   4.393   3.953   1.164  1.3249 -0.7539 -0.3051
  504SOL    MW4 2071   4.454   3.995   1.210  0.0005  0.0001 -0.0000
  505SOL     OW 2072   4.449   4.264   1.094 -0.0444  0.1416 -0.0231
  505SOL    HW2 2073   4.534   4.293   1.127  1.0705  0.1920 -2.7994
  505SOL    HW3 2074   4.450   4.169   1.104  1.4548 -0.1381 -2.4328
  505SOL    MW4 2075   4.460   4.255   1.100  0.0005  0.0001 -0.0000
  506SOL     OW 2076   0.149   4.414   1.236 -0.0759 -0.5863 -0.0486
  506SOL    HW2 2077   0.180   4.409   1.326  2.1794 -2.0574 -0.8621
  506SOL    HW3 2078   0.159   4.506   1.212  1.3142 -0.5741  0.5356
  506SOL    MW4 2079   0.154   4.425   1.245  0.0005  0.0001 -0.0000
  507SOL     OW 2080   0.679   4.653   1.144  0.4166  0.2326  0.1058
  507SOL    HW2 2081   0.751   4.687   1.198  0.7070  0.3109 -0.3295
  507SOL    HW3 2082   0.664   4.565   1.178  1.9483 -0.4704 -0.9958
  507SOL    MW4 2083   0.686   4.646   1.156  0.0005  0.0001 -0.0000
  508SOL     OW 2084   0.472   0.120   1.268 -0.5141  0.2748  0.3245
  508SOL    HW2 2085   0.458   0.206   1.228 -0.2255  0.3869  0.4633
  508SOL    HW3 2086   0.548   0.084   1.222 -1.1001 -0.2297 -0.2594
  508SOL    MW4 2087   0.480   0.127   1.257  0.0005  0.0001 -0.0000
  509SOL     OW 2088   0.416   0.379   1.166 -0.4391 -0.6043 -0.0810
  509SOL    HW2 2089   0.330   0.408   1.196 -0.1100  0.3994 -0.0888
  509SOL    HW3 2090   0.411   0.386   1.071 -0.5247 -1.0538 -0.1103
  509SOL    MW4 2091   0.404   0.384   1.157  0.0005  0.0001 -0.0000
  510SOL     OW 2092   0.653   0.489   1.248  0.0016 -0.3590 -0.0625
  510SOL    HW2 2093   0.652   0.576   1.209 -1.2424  0.2907  1.3732
  510SOL    HW3 2094   0.569   0.450   1.224 -0.4668 -0.2296  1.3136
  510SOL    MW4 2095   0.642   0.495   1.240  0.0005  0.0001 -0.0000
  511SOL     OW 2096   0.649   0.731   1.092 -0.5633 -0.3041  0.3568
  511SOL    HW2 2097   0.578   0.791   1.116 -0.1006  0.3560  0.0857
  511SOL    HW3 2098   0.665   0.748   0.999  0.8610  0.5122  0.7392
  511SOL    MW4 2099   0.642   0.741   1.083  0.0005  0.0001 -0.0000
  512SOL     OW 2100   0.444   0.885   1.210 -0.1110 -0.2336 -0.1603
  512SOL    HW2 2101   0.426   0.908   1.301 -1.9327  0.0557 -0.5696
  512SOL    HW3 2102   0.432   0.967   1.162  0.7294 -0.4099 -0.6815
  512SOL    MW4 2103   0.440   0.899   1.216  0.0005  0.0001 -0.0000
  513SOL     OW 2104   0.422   1.138   1.117  0.8720  0.2031  0.6840
  513SOL    HW2 2105   0.499   1.161   1.169  1.3943  2.5934 -1.0519
  513SOL    HW3 2106   0.451   1.148   1.026 -0.7695 -1.3537 -0.0369
  513SOL    MW4 2107   0.436   1.142   1.112  0.0005  0.0001 -0.0000
  514SOL     OW 2108   0.627   1.254   1.251  0.3226  0.0743 -0.0734
  514SOL    HW2 2109   0.705   1.198   1.250  0.4112  0.1371  1.8961
  514SOL    HW3 2110   0.656   1.337   1.213  1.1151 -0.0327  0.2972
  514SOL    MW4 2111   0.641   1.258   1.246  0.0005  0.0001 -0.0000
  515SOL     OW 2112   0.683   1.546   1.133  0.0471  0.1771  0.4156
  515SOL    HW2 2113   0.751   1.603   1.167  1.1945 -0.6555 -0.4433
  515SOL    HW3 2114   0.602   1.597   1.142  0.8964  1.5110  0.6328
  515SOL    MW4 2115   0.681   1.560   1.139  0.0005  0.0001 -0.0000
  516SOL     OW 2116   0.446   1.666   1.227 -0.5922 -0.0379 -0.3043
  516SOL    HW2 2117   0.436   1.648   1.320  0.9024 -0.9403 -0.3030
  516SOL    HW3 2118   0.374   1.619   1.186 -1.6288  0.8751  0.4370
  516SOL    MW4 2119   0.435   1.657   1.234  0.0005  0.0001 -0.0000
  517SOL     OW 2120   0.430   1.935   1.141  0.1048  0.4905  0.2291
  517SOL    HW2 2121   0.436   1.844   1.170 -1.0348 -0.0480 -1.1536
  517SOL    HW3 2122   0.341   1.961   1.165 -0.3410  0.5084 -1.3959
  517SOL    MW4 2123   0.419   1.926   1.148  0.0005  0.0001 -0.0000
  518SOL     OW 2124   0.654   2.050   1.220 -0.0438  0.2335 -0.3625
  518SOL    HW2 2125   0.645   2.055   1.315 -0.7942 -1.4398 -0.3296
  518SOL    HW3 2126   0.581   1.995   1.192  0.1481  0.7501 -1.9219
  518SOL    MW4 2127   0.643   2.043   1.229  0.0005  0.0001 -0.0000
  519SOL     OW 2128   0.705   2.310   1.128 -0.5805 -0.1405 -0.2930
  519SOL    HW2 2129   0.622   2.358   1.133 -0.1190  0.7373 -0.9693
  519SOL    HW3 2130   0.686   2.226   1.169 -1.6998  0.2054 -0.0775
  519SOL    MW4 2131   0.692   2.305   1.134  0.0005  0.0001 -0.0000
  520SOL     OW 2132   0.445   2.424   1.176 -0.7019  0.1402  0.0284
  520SOL    HW2 2133   0.442   2.408   1.270  1.6592  0.8899  0.2642
  520SOL    HW3 2134   0.450   2.519   1.168  1.3584 -0.0078 -0.7451
  520SOL    MW4 2135   0.445   2.434   1.187  0.0005  0.0001 -0.0000
  521SOL     OW 2136   0.480   2.704   1.160 -0.1190  0.2673  0.0260
  521SOL    HW2 2137   0.401   2.752   1.186  0.3742  1.4297 -0.5735
  521SOL    HW3 2138   0.490   2.724   1.067 -0.3708 -1.6933 -0.4419
  521SOL    MW4 2139   0.471   2.713   1.151  0.0005  0.0001 -0.0000
  522SOL     OW 2140   0.695   2.884   1.211  0.0915 -0.9497 -0.3392
  522SOL    HW2 2141   0.680   2.970   1.173  1.1607 -0.9430 -0.7680
  522SOL    HW3 2142   0.618   2.833   1.187 -0.3501 -0.2377 -0.4429
  522SOL    MW4 2143   0.683   2.889   1.203  0.0005  0.0001 -0.0000
  523SOL     OW 2144   0.668   3.126   1.086 -0.0602  0.0502 -0.0223
  523SOL    HW2 2145   0.755   3.145   1.121 -0.0667  0.8988 -0.4488
  523SOL    HW3 2146   0.682   3.120   0.991 -0.3666 -0.3822 -0.0399
  523SOL    MW4 2147   0.681   3.128   1.078  0.0005  0.0001 -0.0000
  524SOL     OW 2148   0.418   3.264   1.170  0.6528 -0.0590  0.2225
  524SOL    HW2 2149   0.426   3.357   1.147 -0.2794 -0.3932 -1.5267
  524SOL    HW3 2150   0.496   3.223   1.133  0.0347 -0.2979 -0.8538
  524SOL    MW4 2151   0.429   3.271   1.162  0.0005  0.0001 -0.0000
  525SOL     OW 2152   0.433   3.540   1.104  0.6687 -0.0138  0.0404
  525SOL    HW2 2153   0.517   3.578   1.132  0.6414  0.2095 -0.1788
  525SOL    HW3 2154   0.367   3.597   1.143  0.5841 -1.1230  1.5638
  525SOL    MW4 2155   0.435   3.553   1.113  0.0005  0.0001 -0.0000
  526SOL     OW 2156   0.667   3.673   1.183  0.5661  0.3366 -0.1529
  526SOL    HW2 2157   0.675   3.678   1.278 -1.2432 -0.6367  0.0748
  526SOL    HW3 2158   0.665   3.764   1.154 -0.4999  0.6604  0.9022
  526SOL    MW4 2159   0.668   3.686   1.192  0.0005  0.0001 -0.0000
  527SOL     OW 2160   0.679   3.933   1.096 -0.7094 -0.1492 -0.1027
  527SOL    HW2 2161   0.603   3.972   1.139 -1.8020 -2.0243 -0.2978
  527SOL    HW3 2162   0.656   3.933   1.003 -0.7128 -1.2170 -0.1057
  527SOL    MW4 2163   0.666   3.938   1.089  0.0005  0.0001 -0.0000
  528SOL     OW 2164   0.446   4.056   1.204  0.1077  0.1552  0.2923
  528SOL    HW2 2165   0.437   4.151   1.208 -1.1526  0.0088  1.1981
  528SOL    HW3 2166   0.368   4.026   1.158  1.1609 -0.3529 -1.2052
  528SOL    MW4 2167   0.434   4.065   1.198  0.0005  0.0001 -0.0000
  529SOL     OW 2168   0.391   4.312   1.119 -0.1018  0.1864  0.2602
  529SOL    HW2 2169   0.464   4.354   1.164  0.0413  0.7280 -0.4665
  529SOL    HW3 2170   0.313   4.348   1.160  0.0340  0.0158  0.6693
  529SOL    MW4 2171   0.390   4.322   1.130  0.0005  0.0001 -0.0000
  530SOL     OW 2172   0.642   4.394   1.226 -0.0772 -0.1154  0.0370
  530SOL    HW2 2173   0.640   4.387   1.321 -1.5274 -1.6087 -0.0808
  530SOL    HW3 2174   0.730   4.365   1.202 -0.2199 -1.2394  0.8248
  530SOL    MW4 2175   0.653   4.389   1.235  0.0005  0.0001 -0.0000
  531SOL     OW 2176   1.100   0.038   1.170 -0.1052 -0.0103 -0.1136
  531SOL    HW2 2177   1.102  -0.057   1.185  1.0329 -0.3323 -2.1171
  531SOL    HW3 2178   1.121   0.048   1.077 -0.3298  2.2109  0.0490
  531SOL    MW4 2179   1.103   0.027   1.160  0.0005  0.0001 -0.0000
  532SOL     OW 2180   0.878   0.144   1.263 -0.2656 -0.3097  0.2515
  532SOL    HW2 2181   0.886   0.120   1.355 -0.0109 -0.1886  0.2605
  532SOL    HW3 2182   0.956   0.108   1.221 -0.2265 -0.0976  0.1397
  532SOL    MW4 2183   0.889   0.136   1.270  0.0005  0.0001 -0.0000
  533SOL     OW 2184   0.885   0.375   1.123  0.1995 -0.3057 -0.1002
  533SOL    HW2 2185   0.870   0.293   1.170  0.9654 -0.2166  0.3116
  533SOL    HW3 2186   0.815   0.433   1.153 -0.1182 -0.6859 -0.1048
  533SOL    MW4 2187   0.874   0.372   1.133  0.0005  0.0001 -0.0000
  534SOL     OW 2188   1.147   0.473   1.226  0.1994 -0.2501 -0.2635
  534SOL    HW2 2189   1.135   0.481   1.321  2.0629 -1.9412  0.1427
  534SOL    HW3 2190   1.062   0.444   1.194 -0.5539  0.7005  0.8401
  534SOL    MW4 2191   1.134   0.470   1.234  0.0005  0.0001 -0.0000
  535SOL     OW 2192   1.133   0.756   1.103 -0.3041 -0.0329 -0.3305
  535SOL    HW2 2193   1.049   0.787   1.137 -0.3264 -1.5958  1.1054
  535SOL    HW3 2194   1.143   0.668   1.140  2.0314  0.1877 -0.3715
  535SOL    MW4 2195   1.123   0.749   1.112  0.0005  0.0001 -0.0000
  536SOL     OW 2196   0.882   0.829   1.186  0.0560  0.2035 -0.2044
  536SOL    HW2 2197   0.870   0.924   1.179 -0.8024  0.1782  0.8936
  536SOL    HW3 2198   0.808   0.792   1.138 -0.5132  0.0815  0.7671
  536SOL    MW4 2199   0.870   0.837   1.179  0.0005  0.0001 -0.0000
  537SOL     OW 2200   0.868   1.109   1.163  0.4638  0.3452  0.4803
  537SOL    HW2 2201   0.937   1.170   1.188  0.3442  0.4785  0.4857
  537SOL    HW3 2202   0.864   1.115   1.068  0.4064  0.3955  0.4857
  537SOL    MW4 2203   0.877   1.118   1.154  0.0005  0.0001 -0.0000
  538SOL     OW 2204   1.074   1.273   1.266 -0.0912 -0.1803 -0.2944
  538SOL    HW2 2205   1.086   1.288   1.360  0.3348  2.9030 -0.7972
  538SOL    HW3 2206   1.157   1.236   1.237 -0.1097 -0.8433  0.4649
  538SOL    MW4 2207   1.087   1.270   1.275  0.0005  0.0001 -0.0000
  539SOL     OW 2208   1.105   1.529   1.175 -0.0067  0.4887 -0.2778
  539SOL    HW2 2209   1.072   1.444   1.203 -0.5620  0.3893 -1.2028
  539SOL    HW3 2210   1.128   1.516   1.083 -0.7188  1.5093 -0.6046
  539SOL    MW4 2211   1.104   1.516   1.167  0.0005  0.0001 -0.0000
  540SOL     OW 2212   0.891   1.686   1.230  0.0014  0.4680 -0.0759
  540SOL    HW2 2213   0.902   1.764   1.176 -0.8691 -0.1146 -1.1150
  540SOL    HW3 2214   0.972   1.636   1.217 -1.1377 -0.7889 -2.7190
  540SOL    MW4 2215   0.903   1.690   1.221  0.0005  0.0001 -0.0000
  541SOL     OW 2216   0.890   1.940   1.125 -0.1730  0.2034  0.1975
  541SOL    HW2 2217   0.961   1.984   1.172  0.2256  0.9236 -1.0559
  541SOL    HW3 2218   0.812   1.990   1.148 -0.1132  0.0487  0.7464
  541SOL    MW4 2219   0.889   1.952   1.134  0.0005  0.0001 -0.0000
  542SOL     OW 2220   1.105   2.060   1.251 -0.1064 -0.0699 -0.2850
  542SOL    HW2 2221   1.109   2.053   1.346  1.1466  1.2550 -0.2282
  542SOL    HW3 2222   1.130   2.150   1.232  0.6288 -0.5965 -1.9262
  542SOL    MW4 2223   1.109   2.071   1.261  0.0005  0.0001 -0.0000
  543SOL     OW 2224   1.148   2.327   1.170  0.0853  0.5183  0.0734
  543SOL    HW2 2225   1.219   2.382   1.202 -1.2297  2.3725 -0.1047
  543SOL    HW3 2226   1.069   2.377   1.189 -1.0661 -0.7781 -1.1978
  543SOL    MW4 2227   1.147   2.341   1.177  0.0005  0.0001 -0.0000
  544SOL     OW 2228   0.897   2.483   1.234 -0.0318 -0.1428 -0.2848
  544SOL    HW2 2229   0.888   2.481   1.329 -2.1582 -0.8470 -0.4657
  544SOL    HW3 2230   0.833   2.418   1.203  1.7560 -1.0751 -2.1207
  544SOL    MW4 2231   0.887   2.474   1.243  0.0005  0.0001 -0.0000
  545SOL     OW 2232   0.901   2.719   1.115 -0.0505  0.0662 -0.1599
  545SOL    HW2 2233   0.881   2.636   1.158 -0.7694  0.5765  0.5130
  545SOL    HW3 2234   0.830   2.777   1.142  0.3738  0.8589 -0.7382
  545SOL    MW4 2235   0.889   2.716   1.124  0.0005  0.0001 -0.0000
  546SOL     OW 2236   1.113   2.823   1.254  0.4137  0.1587  0.2347
  546SOL    HW2 2237   1.102   2.809   1.348 -1.4266  1.9395  0.3189
  546SOL    HW3 2238   1.034   2.787   1.215  0.5011  0.7422 -0.4933
  546SOL    MW4 2239   1.101   2.816   1.261  0.0005  0.0001 -0.0000
  547SOL     OW 2240   1.148   3.075   1.116  0.5986 -0.3793 -0.5193
  547SOL    HW2 2241   1.147   2.994   1.167 -0.8024  0.2569  0.5005
  547SOL    HW3 2242   1.126   3.048   1.027 -1.7138 -0.9085  0.1804
  547SOL    MW4 2243   1.145   3.061   1.111  0.0005  0.0001 -0.0000
  548SOL     OW 2244   0.892   3.209   1.232 -0.1850 -0.2783  0.3674
  548SOL    HW2 2245   0.895   3.300   1.202 -1.3338  0.4763  2.4564
  548SOL    HW3 2246   0.979   3.175   1.212  0.0268  1.0510 -1.1015
  548SOL    MW4 2247   0.904   3.216   1.225  0.0005  0.0001 -0.0000
  549SOL     OW 2248   0.840   3.441   1.110  0.0259  0.3198 -0.2021
  549SOL    HW2 2249   0.773   3.507   1.128 -0.0935  0.2598 -0.4236
  549SOL    HW3 2250   0.859   3.451   1.017 -0.3555 -0.2948 -0.3489
  549SOL    MW4 2251   0.834   3.451   1.100  0.0005  0.0001 -0.0000
  550SOL     OW 2252   1.069   3.593   1.191 -0.1643 -0.3272 -0.5803
  550SOL    HW2 2253   1.147   3.551   1.155  0.6259  2.2194 -1.9923
  550SOL    HW3 2254   0.995   3.545   1.154  0.7150 -1.3250 -1.0444
  550SOL    MW4 2255   1.070   3.581   1.181  0.0005  0.0001 -0.0000
  551SOL     OW 2256   1.139   3.847   1.111  0.7665 -0.6909 -0.2898
  551SOL    HW2 2257   1.062   3.889   1.150  0.7311 -1.5757  0.6119
  551SOL    HW3 2258   1.125   3.753   1.125  1.1281 -0.9776 -1.7621
  551SOL    MW4 2259   1.127   3.840   1.118  0.0005  0.0001 -0.0000
  552SOL     OW 2260   0.929   4.014   1.205  0.0470  0.3519  0.1105
  552SOL    HW2 2261   0.915   4.029   1.299 -0.1434  1.3287 -0.0686
  552SOL    HW3 2262   0.844   3.985   1.173  0.5422 -1.6844  0.5523
  552SOL    MW4 2263   0.916   4.012   1.213  0.0005  0.0001 -0.0000
  553SOL     OW 2264   0.895   4.308   1.161 -0.6077 -0.2506  0.0703
  553SOL    HW2 2265   0.905   4.215   1.179  0.2240 -0.1075  0.3676
  553SOL    HW3 2266   0.897   4.314   1.065 -1.5687 -0.6312  0.0205
  553SOL    MW4 2267   0.897   4.296   1.151  0.0005  0.0001 -0.0000
  554SOL     OW 2268   1.118   4.442   1.232  0.7021  0.4261 -0.3328
  554SOL    HW2 2269   1.121   4.427   1.327  0.4828 -0.5893 -0.4781
  554SOL    HW3 2270   1.034   4.405   1.204  0.4405  1.3719 -0.8204
  554SOL    MW4 2271   1.107   4.435   1.241  0.0005  0.0001 -0.0000
  555SOL     OW 2272   1.616   4.615   1.115  0.0402  0.2170 -0.0746
  555SOL    HW2 2273   1.665   4.670   1.176  0.7976 -0.5335  0.0024
  555SOL    HW3 2274   1.581   4.544   1.169 -1.2062  0.7861 -0.1159
  555SOL    MW4 2275   1.618   4.613   1.130  0.0005  0.0001 -0.0000
  556SOL     OW 2276   1.385   0.123   1.204 -0.1881  0.8170 -0.5297
  556SOL    HW2 2277   1.443   0.059   1.164  0.0051  0.5832  0.1178
  556SOL    HW3 2278   1.297   0.088   1.190 -0.0674  0.2644  0.0712
  556SOL    MW4 2279   1.381   0.110   1.197  0.0005  0.0001 -0.0000
  557SOL     OW 2280   1.397   0.406   1.127 -0.0813 -0.7615  0.2479
  557SOL    HW2 2281   1.402   0.315   1.157 -1.4401 -0.8627  0.1947
  557SOL    HW3 2282   1.318   0.441   1.168  0.6454  0.5251  0.5840
  557SOL    MW4 2283   1.387   0.399   1.136  0.0005  0.0001 -0.0000
  558SOL     OW 2284   1.636   0.516   1.209 -0.4101 -0.3186  0.1581
  558SOL    HW2 2285   1.622   0.598   1.162  0.2260 -0.6499 -0.6215
  558SOL    HW3 2286   1.556   0.465   1.193  0.0842 -0.7045 -1.1484
  558SOL    MW4 2287   1.624   0.520   1.201  0.0005  0.0001 -0.0000
  559SOL     OW 2288   1.566   0.748   1.099 -0.1257 -0.2049  0.1965
  559SOL    HW2 2289   1.651   0.787   1.118 -0.0782  0.5092 -1.3997
  559SOL    HW3 2290   1.564   0.740   1.004 -2.0585  0.2989  0.1755
  559SOL    MW4 2291   1.577   0.752   1.089  0.0005  0.0001 -0.0000
  560SOL     OW 2292   1.335   0.878   1.254  0.3035 -0.4826  0.1700
  560SOL    HW2 2293   1.407   0.837   1.207  0.8781 -0.7078  1.2239
  560SOL    HW3 2294   1.256   0.837   1.219  0.6141  0.4445 -1.6691
  560SOL    MW4 2295   1.334   0.867   1.243  0.0005  0.0001 -0.0000
  561SOL     OW 2296   1.322   1.156   1.173  1.0135  0.2856  0.1131
  561SOL    HW2 2297   1.308   1.062   1.186 -1.3578  0.7396  1.1207
  561SOL    HW3 2298   1.314   1.169   1.079  0.5587 -0.4106  0.0536
  561SOL    MW4 2299   1.319   1.145   1.162  0.0005  0.0001 -0.0000
  562SOL     OW 2300   1.558   1.317   1.215 -0.2045 -0.2581  0.1269
  562SOL    HW2 2301   1.618   1.261   1.166 -0.6585 -0.2756 -0.4145
  562SOL    HW3 2302   1.475   1.269   1.215 -0.6980  0.5791 -0.6633
  562SOL    MW4 2303   1.555   1.303   1.209  0.0005  0.0001 -0.0000
  563SOL     OW 2304   1.546   1.555   1.082 -0.4801 -0.3929 -0.1847
  563SOL    HW2 2305   1.619   1.607   1.116 -2.1049  1.1457  1.0661
  563SOL    HW3 2306   1.566   1.465   1.107  1.4259 -0.1193 -0.6690
  563SOL    MW4 2307   1.558   1.550   1.090  0.0005  0.0001 -0.0000
  564SOL     OW 2308   1.342   1.671   1.230  0.0349 -0.0663  0.1636
  564SOL    HW2 2309   1.416   1.624   1.192 -0.0302 -1.2065  1.4017
  564SOL    HW3 2310   1.269   1.609   1.223  0.3830 -0.9549  3.5516
  564SOL    MW4 2311   1.342   1.657   1.224  0.0005  0.0001 -0.0000
  565SOL     OW 2312   1.299   1.926   1.107  0.1538 -0.0077 -0.1217
  565SOL    HW2 2313   1.320   1.839   1.141  1.7057  1.3744  2.6176
  565SOL    HW3 2314   1.232   1.960   1.166 -0.6067  0.5931 -1.3049
  565SOL    MW4 2315   1.293   1.919   1.119  0.0005  0.0001 -0.0000
  566SOL     OW 2316   1.535   2.058   1.195  0.5599  0.7145  0.0512
  566SOL    HW2 2317   1.552   2.151   1.181  0.5672  0.7714  0.4338
  566SOL    HW3 2318   1.457   2.040   1.143  0.1719  1.0862  0.4993
  566SOL    MW4 2319   1.527   2.068   1.186  0.0005  0.0001 -0.0000
  567SOL     OW 2320   1.561   2.332   1.144  0.6380  0.1010  0.3059
  567SOL    HW2 2321   1.489   2.385   1.177 -0.7781 -1.6598  0.1222
  567SOL    HW3 2322   1.554   2.339   1.049  0.3338 -0.5490  0.2781
  567SOL    MW4 2323   1.551   2.340   1.136  0.0005  0.0001 -0.0000
  568SOL     OW 2324   1.370   2.480   1.251  0.3177  0.1083 -0.0761
  568SOL    HW2 2325   1.339   2.477   1.342 -1.2146  0.8388 -0.5566
  568SOL    HW3 2326   1.347   2.568   1.221 -0.0137 -0.4418 -1.4492
  568SOL    MW4 2327   1.363   2.491   1.259  0.0005  0.0001 -0.0000
  569SOL     OW 2328   1.331   2.726   1.136  0.1333 -0.1076  0.4763
  569SOL    HW2 2329   1.409   2.764   1.176  0.1500  0.2838  0.0667
  569SOL    HW3 2330   1.258   2.762   1.186  0.1813  0.0102  0.4610
  569SOL    MW4 2331   1.332   2.736   1.148  0.0005  0.0001 -0.0000
  570SOL     OW 2332   1.567   2.853   1.207 -0.0011 -0.7005 -0.3115
  570SOL    HW2 2333   1.642   2.801   1.179  0.9950  0.1028  0.8107
  570SOL    HW3 2334   1.563   2.926   1.145  0.9880  0.0036  0.4512
  570SOL    MW4 2335   1.576   2.856   1.195  0.0005  0.0001 -0.0000
  571SOL     OW 2336   1.552   3.106   1.073  0.1726 -0.2184 -0.0773
  571SOL    HW2 2337   1.638   3.131   1.106  0.1420 -1.4347  0.9611
  571SOL    HW3 2338   1.491   3.160   1.123  0.3046  0.3634 -0.5386
  571SOL    MW4 2339   1.555   3.116   1.084  0.0005  0.0001 -0.0000
  572SOL     OW 2340   1.342   3.225   1.220  0.1536 -0.0537 -0.1188
  572SOL    HW2 2341   1.328   3.226   1.315  1.6956 -0.4932  0.1280
  572SOL    HW3 2342   1.273   3.168   1.186 -0.0098 -0.4176  0.8101
  572SOL    MW4 2343   1.331   3.218   1.228  0.0005  0.0001 -0.0000
  573SOL     OW 2344   1.301   3.477   1.116  0.4755 -0.5897  0.2334
  573SOL    HW2 2345   1.318   3.386   1.140  0.3161 -0.6036  0.2930
  573SOL    HW3 2346   1.312   3.479   1.021 -1.0941 -1.0214  0.0284
  573SOL    MW4 2347   1.305   3.465   1.107  0.0005  0.0001 -0.0000
  574SOL     OW 2348   1.518   3.583   1.234 -0.1964  0.1615  0.3965
  574SOL    HW2 2349   1.529   3.677   1.217 -0.8990  0.2043  0.1837
  574SOL    HW3 2350   1.425   3.566   1.221 -0.3067 -0.3125  1.6979
  574SOL    MW4 2351   1.507   3.593   1.230  0.0005  0.0001 -0.0000
  575SOL     OW 2352   1.530   3.846   1.181  0.1115  0.8255 -0.0977
  575SOL    HW2 2353   1.462   3.902   1.219 -1.3439 -0.9576 -0.0045
  575SOL    HW3 2354   1.529   3.867   1.088 -1.1051  0.2806 -0.2175
  575SOL    MW4 2355   1.521   3.856   1.174  0.0005  0.0001 -0.0000
  576SOL     OW 2356   1.319   4.010   1.262  0.0832 -0.3968  0.3178
  576SOL    HW2 2357   1.321   4.090   1.210 -1.6619 -0.9895 -0.6992
  576SOL    HW3 2358   1.253   3.955   1.220  0.2660 -1.8228  1.8148
  576SOL    MW4 2359   1.311   4.013   1.250  0.0005  0.0001 -0.0000
  577SOL     OW 2360   1.293   4.247   1.127 -0.4650  0.1373 -0.0524
  577SOL    HW2 2361   1.230   4.316   1.147 -0.2421  0.3446 -0.0607
  577SOL    HW3 2362   1.323   4.268   1.038  0.3919  0.6379  0.3487
  577SOL    MW4 2363   1.289   4.259   1.118  0.0005  0.0001 -0.0000
  578SOL     OW 2364   1.490   4.408   1.242 -0.0104  0.0025  0.2631
  578SOL    HW2 2365   1.496   4.392   1.336 -0.9523 -2.9459 -0.1273
  578SOL    HW3 2366   1.425   4.345   1.211 -0.4473  1.6049 -2.2237
  578SOL    MW4 2367   1.482   4.398   1.250  0.0005  0.0001 -0.0000
  579SOL     OW 2368   1.995   4.646   1.162 -0.8385  0.0592 -0.3765
  579SOL    HW2 2369   2.009   4.556   1.191  1.4617  0.5598  0.1828
  579SOL    HW3 2370   1.983   4.640   1.067  2.6999 -0.5582 -0.8539
  579SOL    MW4 2371   1.995   4.633   1.153  0.0005  0.0001 -0.0000
  580SOL     OW 2372   1.801   0.128   1.265  0.1214  0.3747  0.2359
  580SOL    HW2 2373   1.823   0.211   1.222 -0.3951  0.4425  0.0996
  580SOL    HW3 2374   1.866   0.066   1.232  0.1914  0.6047 -0.0610
  580SOL    MW4 2375   1.812   0.131   1.255  0.0005  0.0001 -0.0000
  581SOL     OW 2376   1.840   0.370   1.125 -0.4712 -0.2549  0.2509
  581SOL    HW2 2377   1.772   0.435   1.144 -0.8731 -0.7735  0.6016
  581SOL    HW3 2378   1.836   0.358   1.030 -1.2167 -0.6568  0.3293
  581SOL    MW4 2379   1.831   0.377   1.115  0.0005  0.0001 -0.0000
  582SOL     OW 2380   2.030   0.548   1.212 -0.3470  0.1051 -0.7247
  582SOL    HW2 2381   2.035   0.548   1.308  1.4797 -0.5457 -0.7960
  582SOL    HW3 2382   1.966   0.480   1.191  0.2096 -0.6568  0.0031
  582SOL    MW4 2383   2.022   0.539   1.222  0.0005  0.0001 -0.0000
  583SOL     OW 2384   2.031   0.802   1.099  0.6495 -0.0353 -0.2367
  583SOL    HW2 2385   2.036   0.709   1.122  0.0335  0.0867  0.4068
  583SOL    HW3 2386   2.031   0.803   1.003 -2.4017 -0.8958 -0.2985
  583SOL    MW4 2387   2.032   0.790   1.089  0.0005  0.0001 -0.0000
  584SOL     OW 2388   1.788   0.896   1.186  0.0902 -0.1476 -0.3418
  584SOL    HW2 2389   1.793   0.917   1.279  0.2336  0.8150 -0.5593
  584SOL    HW3 2390   1.878   0.874   1.162  0.3769  1.2877 -0.6291
  584SOL    MW4 2391   1.801   0.896   1.195  0.0005  0.0001 -0.0000
  585SOL     OW 2392   1.777   1.185   1.126 -0.1681  0.2183 -0.1311
  585SOL    HW2 2393   1.774   1.092   1.148 -2.2337  0.3065  0.0505
  585SOL    HW3 2394   1.787   1.186   1.031 -2.3432 -0.2282 -0.3930
  585SOL    MW4 2395   1.778   1.173   1.116  0.0005  0.0001 -0.0000
  586SOL     OW 2396   1.986   1.307   1.244 -0.1184 -0.2329  0.1615
  586SOL    HW2 2397   2.062   1.258   1.214 -0.3593 -1.3292  1.3000
  586SOL    HW3 2398   1.911   1.261   1.206 -0.3868 -1.2351  1.8520
  586SOL    MW4 2399   1.986   1.294   1.235  0.0005  0.0001 -0.0000
  587SOL     OW 2400   2.005   1.582   1.147  0.2664  0.6103 -0.0597
  587SOL    HW2 2401   2.012   1.493   1.182 -0.5663  0.4237 -0.3521
  587SOL    HW3 2402   2.010   1.570   1.052 -2.0082  0.6410 -0.2095
  587SOL    MW4 2403   2.007   1.569   1.139  0.0005  0.0001 -0.0000
  588SOL     OW 2404   1.757   1.680   1.223 -0.4411  0.0408 -0.1569
  588SOL    HW2 2405   1.764   1.770   1.190  0.2121 -0.1319 -0.5014
  588SOL    HW3 2406   1.834   1.636   1.188 -0.5279 -0.5411  0.3786
  588SOL    MW4 2407   1.768   1.686   1.214  0.0005  0.0001 -0.0000
  589SOL     OW 2408   1.787   1.950   1.117  0.0254 -0.2689 -0.1565
  589SOL    HW2 2409   1.696   1.978   1.119  0.1299  0.1897 -1.4246
  589SOL    HW3 2410   1.810   1.949   1.024  1.1376 -0.9489  0.1146
  589SOL    MW4 2411   1.778   1.954   1.105  0.0005  0.0001 -0.0000
  590SOL     OW 2412   2.043   2.082   1.201  0.5760 -0.2727 -0.1335
  590SOL    HW2 2413   2.044   2.069   1.296  1.1274 -0.4559 -0.1608
  590SOL    HW3 2414   1.957   2.051   1.173 -0.1707  1.1639  0.4944
  590SOL    MW4 2415   2.032   2.076   1.210  0.0005  0.0001 -0.0000
  591SOL     OW 2416   2.010   2.357   1.153 -0.4985 -0.3228 -0.0246
  591SOL    HW2 2417   2.096   2.395   1.172 -1.6522  2.2366  0.3514
  591SOL    HW3 2418   2.018   2.265   1.176  2.0497 -0.0461  0.2940
  591SOL    MW4 2419   2.022   2.350   1.159  0.0005  0.0001 -0.0000
  592SOL     OW 2420   1.782   2.453   1.261  0.4871 -0.3437  0.1023
  592SOL    HW2 2421   1.868   2.416   1.241  0.3564 -1.6415  1.8305
  592SOL    HW3 2422   1.720   2.400   1.211  0.4646 -1.2567  1.0807
  592SOL    MW4 2423   1.785   2.441   1.252  0.0005  0.0001 -0.0000
  593SOL     OW 2424   1.803   2.700   1.121 -0.0546 -0.2134  0.5415
  593SOL    HW2 2425   1.798   2.614   1.163 -1.3890  0.3745  1.6152
  593SOL    HW3 2426   1.792   2.681   1.028 -0.5561 -1.1912  0.7889
  593SOL    MW4 2427   1.801   2.686   1.114  0.0005  0.0001 -0.0000
  594SOL     OW 2428   2.044   2.790   1.242  0.5023  0.1635  0.3743
  594SOL    HW2 2429   2.036   2.876   1.201 -1.3878 -0.3452 -0.3988
  594SOL    HW3 2430   1.969   2.741   1.208  1.5285 -1.7695  0.8478
  594SOL    MW4 2431   2.033   2.795   1.232  0.0005  0.0001 -0.0000
  595SOL     OW 2432   2.015   3.060   1.137  0.1481  0.0335  0.1535
  595SOL    HW2 2433   1.931   3.089   1.172 -0.1406 -1.4408  0.7241
  595SOL    HW3 2434   2.002   3.055   1.042 -0.7699 -1.2908  0.3374
  595SOL    MW4 2435   2.002   3.063   1.129  0.0005  0.0001 -0.0000
  596SOL     OW 2436   1.784   3.185   1.216 -0.0217  0.1489  0.2824
  596SOL    HW2 2437   1.776   3.191   1.311  1.8167 -1.1884  0.5541
  596SOL    HW3 2438   1.773   3.275   1.185 -0.4425  0.6253  1.7710
  596SOL    MW4 2439   1.781   3.198   1.224  0.0005  0.0001 -0.0000
  597SOL     OW 2440   1.743   3.469   1.156 -0.2529 -0.2678  0.5836
  597SOL    HW2 2441   1.801   3.545   1.167 -0.4688 -0.0595  0.2945
  597SOL    HW3 2442   1.655   3.504   1.171 -0.6281  0.1645 -2.3343
  597SOL    MW4 2443   1.739   3.484   1.159  0.0005  0.0001 -0.0000
  598SOL     OW 2444   1.981   3.648   1.213  0.4539 -0.1261 -0.5868
  598SOL    HW2 2445   1.994   3.643   1.308 -0.7527  0.6771 -0.3599
  598SOL    HW3 2446   2.056   3.602   1.176  1.5026  0.4772  0.7308
  598SOL    MW4 2447   1.993   3.641   1.221  0.0005  0.0001 -0.0000
  599SOL     OW 2448   2.005   3.915   1.123 -0.1736  0.2021  0.3256
  599SOL    HW2 2449   1.929   3.966   1.150  0.2305  0.6476  0.6278
  599SOL    HW3 2450   1.989   3.828   1.159 -0.6549  0.2292  0.1826
  599SOL    MW4 2451   1.993   3.910   1.131  0.0005  0.0001 -0.0000
  600SOL     OW 2452   1.758   4.001   1.214  0.1282 -0.7998 -0.4606
  600SOL    HW2 2453   1.771   4.011   1.308 -1.4533 -0.2923 -0.2775
  600SOL    HW3 2454   1.680   3.947   1.207  0.2567 -0.8559 -1.4868
  600SOL    MW4 2455   1.749   3.995   1.225  0.0005  0.0001 -0.0000
  601SOL     OW 2456   1.737   4.276   1.155  0.0863  0.4147 -0.3340
  601SOL    HW2 2457   1.733   4.181   1.169  1.6135  0.0271 -2.3230
  601SOL    HW3 2458   1.652   4.308   1.186  0.3832 -1.2902  2.4314
  601SOL    MW4 2459   1.725   4.268   1.161  0.0005  0.0001 -0.0000
  602SOL     OW 2460   1.993   4.383   1.218  1.0548 -0.2007  0.0045
  602SOL    HW2 2461   1.975   4.385   1.312  1.1339  0.2557  0.0108
  602SOL    HW3 2462   1.912   4.351   1.179  0.3792  1.3766  0.0754
  602SOL    MW4 2463   1.980   4.379   1.225  0.0005  0.0001 -0.0000
  603SOL     OW 2464   2.496   4.663   1.121  0.0065  0.0580  0.2935
  603SOL    HW2 2465   2.569   4.719   1.146 -1.1420  2.7799 -2.1668
  603SOL    HW3 2466   2.418   4.709   1.153 -0.8724 -0.6922 -0.7213
  603SOL    MW4 2467   2.495   4.676   1.129  0.0005  0.0001 -0.0000
  604SOL     OW 2468   2.239   0.077   1.207 -0.5191  0.5191  0.1976
  604SOL    HW2 2469   2.240   0.170   1.186 -0.0647  0.2921 -0.8151
  604SOL    HW3 2470   2.150   0.049   1.186 -0.5002  0.6118 -0.0088
  604SOL    MW4 2471   2.227   0.086   1.201  0.0005  0.0001 -0.0000
  605SOL     OW 2472   2.241   0.357   1.146 -0.0513  0.4138  0.1710
  605SOL    HW2 2473   2.171   0.420   1.163  1.0115  1.4844  0.6532
  605SOL    HW3 2474   2.245   0.351   1.051 -0.9041  0.2212  0.1428
  605SOL    MW4 2475   2.232   0.365   1.136  0.0005  0.0001 -0.0000
  606SOL     OW 2476   2.475   0.503   1.219 -0.3180  0.2852 -0.6848
  606SOL    HW2 2477   2.482   0.521   1.313  0.3418 -1.1542 -0.4436
  606SOL    HW3 2478   2.400   0.444   1.211 -0.4966  0.5608 -1.0987
  606SOL    MW4 2479   2.466   0.498   1.230  0.0005  0.0001 -0.0000
  607SOL     OW 2480   2.452   0.763   1.100 -0.4595 -0.0184  0.5159
  607SOL    HW2 2481   2.455   0.670   1.122 -0.4979 -0.1147  0.1174
  607SOL    HW3 2482   2.431   0.765   1.007 -2.1844  0.4227  0.8927
  607SOL    MW4 2483   2.450   0.751   1.091  0.0005  0.0001 -0.0000
  608SOL     OW 2484   2.249   0.920   1.204  0.2627  0.5476  0.5973
  608SOL    HW2 2485   2.324   0.870   1.172  0.0954 -0.1670  1.3040
  608SOL    HW3 2486   2.173   0.872   1.171  0.0931 -0.0372  1.8121
  608SOL    MW4 2487   2.249   0.907   1.195  0.0005  0.0001 -0.0000
  609SOL     OW 2488   2.209   1.195   1.116 -0.3474  0.4069 -0.1227
  609SOL    HW2 2489   2.296   1.231   1.134 -0.2038 -0.2906  0.6008
  609SOL    HW3 2490   2.213   1.105   1.148 -1.3433  0.3753 -0.0690
  609SOL    MW4 2491   2.221   1.188   1.123  0.0005  0.0001 -0.0000
  610SOL     OW 2492   2.454   1.319   1.200 -0.0178 -0.2701  0.0194
  610SOL    HW2 2493   2.534   1.271   1.178 -0.2135 -0.4217 -0.3575
  610SOL    HW3 2494   2.470   1.408   1.169 -0.7997 -0.7840 -1.9349
  610SOL    MW4 2495   2.467   1.324   1.193  0.0005  0.0001 -0.0000
  611SOL     OW 2496   2.472   1.553   1.063 -0.5090  0.0816  0.1467
  611SOL    HW2 2497   2.388   1.593   1.084 -0.0830  1.0746 -0.0135
  611SOL    HW3 2498   2.470   1.540   0.968  0.1466  1.5908 -0.0883
  611SOL    MW4 2499   2.461   1.557   1.053  0.0005  0.0001 -0.0000
  612SOL     OW 2500   2.263   1.679   1.202  0.5357  0.8498  0.0674
  612SOL    HW2 2501   2.263   1.765   1.160 -0.8530  0.5422 -0.5937
  612SOL    HW3 2502   2.172   1.650   1.197  0.5350  0.3567  2.3932
  612SOL    MW4 2503   2.251   1.687   1.196  0.0005  0.0001 -0.0000
  613SOL     OW 2504   2.267   1.946   1.113  0.0699  0.4957 -0.3773
  613SOL    HW2 2505   2.187   1.995   1.132 -0.0038  0.1588  0.1774
  613SOL    HW3 2506   2.265   1.934   1.018 -0.2055  1.0613 -0.4477
  613SOL    MW4 2507   2.256   1.951   1.103  0.0005  0.0001 -0.0000
  614SOL     OW 2508   2.474   2.090   1.224  0.1339  0.0746 -0.1078
  614SOL    HW2 2509   2.549   2.048   1.182 -0.5480 -1.4155  0.1432
  614SOL    HW3 2510   2.399   2.037   1.199 -0.5179  0.1541  1.5946
  614SOL    MW4 2511   2.474   2.077   1.215  0.0005  0.0001 -0.0000
  615SOL     OW 2512   2.477   2.338   1.149  0.2879  0.2894 -0.2272
  615SOL    HW2 2513   2.489   2.250   1.183 -2.5929  0.1660  0.5786
  615SOL    HW3 2514   2.453   2.325   1.057  1.6130  0.3404 -0.5937
  615SOL    MW4 2515   2.475   2.325   1.142  0.0005  0.0001 -0.0000
  616SOL     OW 2516   2.264   2.485   1.229  0.0477  0.0115 -0.5210
  616SOL    HW2 2517   2.258   2.483   1.324  0.5611  0.6813 -0.4707
  616SOL    HW3 2518   2.338   2.428   1.208  0.6661  0.7779 -0.4442
  616SOL    MW4 2519   2.273   2.477   1.239  0.0005  0.0001 -0.0000
  617SOL     OW 2520   2.274   2.753   1.107  0.2335 -0.4720 -0.1626
  617SOL    HW2 2521   2.281   2.658   1.104  1.0165 -0.4315  0.2168
  617SOL    HW3 2522   2.193   2.770   1.155 -0.5038 -0.9492 -1.2204
  617SOL    MW4 2523   2.264   2.743   1.113  0.0005  0.0001 -0.0000
  618SOL     OW 2524   2.514   2.841   1.234  0.1112  0.4084  0.4210
  618SOL    HW2 2525   2.509   2.832   1.329 -0.2801 -0.9003  0.2835
  618SOL    HW3 2526   2.437   2.795   1.201  0.0593  1.1485 -0.5188
  618SOL    MW4 2527   2.503   2.834   1.242  0.0005  0.0001 -0.0000
  619SOL     OW 2528   2.436   3.099   1.138 -0.0559  0.1378 -0.1288
  619SOL    HW2 2529   2.359   3.147   1.168 -0.2650  0.5830 -1.3573
  619SOL    HW3 2530   2.437   3.020   1.192 -0.5213  0.8340  0.9195
  619SOL    MW4 2531   2.426   3.095   1.149  0.0005  0.0001 -0.0000
  620SOL     OW 2532   2.214   3.232   1.219  0.0307  0.4844 -0.2485
  620SOL    HW2 2533   2.199   3.310   1.166  0.5373  1.2225  0.6716
  620SOL    HW3 2534   2.149   3.169   1.188  0.0932  1.0188 -1.4988
  620SOL    MW4 2535   2.203   3.234   1.208  0.0005  0.0001 -0.0000
  621SOL     OW 2536   2.200   3.493   1.113 -0.2554 -0.2930  0.4255
  621SOL    HW2 2537   2.285   3.527   1.140 -0.1960  0.4486 -0.6744
  621SOL    HW3 2538   2.204   3.490   1.017 -1.1472 -1.0896  0.4021
  621SOL    MW4 2539   2.212   3.497   1.104  0.0005  0.0001 -0.0000
  622SOL     OW 2540   2.452   3.617   1.188  0.0521 -0.0783  0.1042
  622SOL    HW2 2541   2.463   3.590   1.279 -0.3646 -0.2460  0.1058
  622SOL    HW3 2542   2.453   3.713   1.191  0.4811 -0.0853  0.2293
  622SOL    MW4 2543   2.454   3.626   1.200  0.0005  0.0001 -0.0000
  623SOL     OW 2544   2.475   3.889   1.149  0.3227  0.1500  0.3155
  623SOL    HW2 2545   2.391   3.921   1.182  0.4469 -0.1983  0.9714
  623SOL    HW3 2546   2.459   3.873   1.056 -1.0230 -2.1328  0.8995
  623SOL    MW4 2547   2.462   3.891   1.141  0.0005  0.0001 -0.0000
  624SOL     OW 2548   2.235   4.023   1.231 -0.0390  0.7389 -0.2491
  624SOL    HW2 2549   2.240   4.114   1.200  1.4651  0.0755 -2.0498
  624SOL    HW3 2550   2.155   3.989   1.192  0.1399  0.8785 -0.7426
  624SOL    MW4 2551   2.225   4.030   1.222  0.0005  0.0001 -0.0000
  625SOL     OW 2552   2.243   4.279   1.138 -0.0634  0.0468 -0.1257
  625SOL    HW2 2553   2.160   4.314   1.170 -0.4184 -0.5309 -0.4067
  625SOL    HW3 2554   2.237   4.286   1.043  0.3877  0.4001 -0.1300
  625SOL    MW4 2555   2.231   4.285   1.130  0.0005  0.0001 -0.0000
  626SOL     OW 2556   2.463   4.400   1.245 -0.2509  0.0871 -0.0567
  626SOL    HW2 2557   2.406   4.336   1.202  1.7352 -0.6386 -1.6924
  626SOL    HW3 2558   2.448   4.481   1.197  0.4515 -0.2228 -0.8033
  626SOL    MW4 2559   2.454   4.402   1.233  0.0005  0.0001 -0.0000
  627SOL     OW 2560   2.955   4.637   1.098  0.1743  0.1946 -0.1372
  627SOL    HW2 2561   2.925   4.554   1.135  1.1703  0.3451  1.0518
  627SOL    HW3 2562   2.937   4.630   1.004 -0.6143 -0.9787  0.0949
  627SOL    MW4 2563   2.949   4.625   1.090  0.0005  0.0001 -0.0000
  628SOL     OW 2564   2.720   0.119   1.208 -0.1346  0.2860 -0.2356
  628SOL    HW2 2565   2.746   0.124   1.300 -0.3519 -0.2541 -0.1430
  628SOL    HW3 2566   2.794   0.077   1.164 -0.4375 -0.3562 -0.1380
  628SOL    MW4 2567   2.733   0.114   1.214  0.0005  0.0001 -0.0000
  629SOL     OW 2568   2.698   0.379   1.103  0.3824  0.3333 -0.5766
  629SOL    HW2 2569   2.703   0.292   1.143  0.6490  0.3288 -0.6208
  629SOL    HW3 2570   2.607   0.405   1.115  0.2028 -0.1246 -0.9255
  629SOL    MW4 2571   2.687   0.371   1.110  0.0005  0.0001 -0.0000
  630SOL     OW 2572   2.915   0.544   1.171  0.3717 -0.0360 -0.4687
  630SOL    HW2 2573   2.916   0.622   1.116 -0.8151  1.1896  1.1972
  630SOL    HW3 2574   2.838   0.495   1.141 -1.5087  1.6561  1.4244
  630SOL    MW4 2575   2.905   0.548   1.160  0.0005  0.0001 -0.0000
  631SOL     OW 2576   2.912   0.784   1.037  0.3005 -0.2082  0.3373
  631SOL    HW2 2577   2.983   0.827   1.084  0.4195 -1.3769  1.2504
  631SOL    HW3 2578   2.833   0.809   1.085  0.2610 -0.1796  0.2577
  631SOL    MW4 2579   2.911   0.793   1.050  0.0005  0.0001 -0.0000
  632SOL     OW 2580   2.696   0.888   1.188 -0.0363  0.4090 -0.1561
  632SOL    HW2 2581   2.673   0.981   1.185 -0.1990  0.4364  1.4819
  632SOL    HW3 2582   2.613   0.842   1.174  0.0682  0.5018 -1.1141
  632SOL    MW4 2583   2.682   0.894   1.186  0.0005  0.0001 -0.0000
  633SOL     OW 2584   2.692   1.173   1.169 -0.1672  0.0775  0.0331
  633SOL    HW2 2585   2.777   1.205   1.199 -0.1355 -0.9095  1.0444
  633SOL    HW3 2586   2.702   1.160   1.075  0.2069  1.7847 -0.1747
  633SOL    MW4 2587   2.705   1.176   1.160  0.0005  0.0001 -0.0000
  634SOL     OW 2588   2.950   1.287   1.212 -0.6213  0.1489  0.1223
  634SOL    HW2 2589   2.955   1.310   1.305  1.3415 -0.5059  0.2045
  634SOL    HW3 2590   2.945   1.371   1.166 -1.8422  0.4674  0.8194
  634SOL    MW4 2591   2.950   1.301   1.218  0.0005  0.0001 -0.0000
  635SOL     OW 2592   2.916   1.549   1.115  0.1273 -0.0947  0.1697
  635SOL    HW2 2593   2.992   1.590   1.156 -0.5724  1.9949 -0.5586
  635SOL    HW3 2594   2.931   1.559   1.021 -0.9927  0.2490  0.0197
  635SOL    MW4 2595   2.928   1.556   1.108  0.0005  0.0001 -0.0000
  636SOL     OW 2596   2.680   1.690   1.193 -0.1815 -0.4622  0.1190
  636SOL    HW2 2597   2.756   1.635   1.175  0.0520  0.2478 -1.1225
  636SOL    HW3 2598   2.611   1.655   1.136 -0.4177 -0.3091  0.3098
  636SOL    MW4 2599   2.681   1.678   1.183  0.0005  0.0001 -0.0000
  637SOL     OW 2600   2.685   1.949   1.116 -0.8228 -0.0508 -0.5473
  637SOL    HW2 2601   2.768   1.985   1.148 -0.5544 -1.5537  0.4847
  637SOL    HW3 2602   2.688   1.856   1.139 -3.8753  0.3361  1.7737
  637SOL    MW4 2603   2.696   1.941   1.123  0.0005  0.0001 -0.0000
  638SOL     OW 2604   2.914   2.079   1.198 -0.2222 -0.2211 -0.1929
  638SOL    HW2 2605   2.939   2.106   1.286  0.5811 -1.3858 -0.0498
  638SOL    HW3 2606   2.910   2.160   1.148  0.4546  0.3310  0.6370
  638SOL    MW4 2607   2.917   2.093   1.203  0.0005  0.0001 -0.0000
  639SOL     OW 2608   2.910   2.321   1.066  0.1888  0.5180  0.4867
  639SOL    HW2 2609   2.987   2.359   1.108 -0.4987  1.4891  0.8808
  639SOL    HW3 2610   2.836   2.358   1.113 -0.5190 -0.7991  0.4373
  639SOL    MW4 2611   2.910   2.331   1.078  0.0005  0.0001 -0.0000
  640SOL     OW 2612   2.711   2.460   1.210  0.1411  0.0747  0.1026
  640SOL    HW2 2613   2.720   2.464   1.305  0.9287  0.6072  0.0138
  640SOL    HW3 2614   2.628   2.415   1.195 -1.3648  2.4389  1.0708
  640SOL    MW4 2615   2.701   2.455   1.221  0.0005  0.0001 -0.0000
  641SOL     OW 2616   2.751   2.725   1.132 -0.2031 -0.0788 -0.5017
  641SOL    HW2 2617   2.733   2.632   1.148  0.7549 -0.0828  0.6220
  641SOL    HW3 2618   2.672   2.770   1.161 -0.2147 -0.4550  0.0594
  641SOL    MW4 2619   2.738   2.719   1.138  0.0005  0.0001 -0.0000
  642SOL     OW 2620   2.962   2.855   1.265 -0.1675 -0.1831 -0.1616
  642SOL    HW2 2621   2.955   2.838   1.359  0.6601 -0.0191 -0.0649
  642SOL    HW3 2622   2.894   2.800   1.225 -0.1744 -0.6484  0.4862
  642SOL    MW4 2623   2.952   2.846   1.272  0.0005  0.0001 -0.0000
  643SOL     OW 2624   2.850   3.104   1.194  0.0570 -0.4638  0.1150
  643SOL    HW2 2625   2.875   3.013   1.212  0.7949 -0.3604 -0.3636
  643SOL    HW3 2626   2.875   3.118   1.103  0.6197  0.4456  0.4033
  643SOL    MW4 2627   2.857   3.094   1.184  0.0005  0.0001 -0.0000
  644SOL     OW 2628   2.628   3.250   1.252 -0.1381 -0.0754 -0.3039
  644SOL    HW2 2629   2.707   3.198   1.238  0.0886  0.3404 -0.5818
  644SOL    HW3 2630   2.558   3.199   1.211 -0.1290 -0.7699  0.5303
  644SOL    MW4 2631   2.629   3.236   1.245  0.0005  0.0001 -0.0000
  645SOL     OW 2632   2.666   3.464   1.089  0.2581  0.4560 -0.4643
  645SOL    HW2 2633   2.664   3.379   1.133  0.8079  0.1168 -1.0843
  645SOL    HW3 2634   2.589   3.510   1.122 -0.3472 -0.4917 -0.5372
  645SOL    MW4 2635   2.656   3.459   1.099  0.0005  0.0001 -0.0000
  646SOL     OW 2636   2.872   3.580   1.249  0.3409  0.4013  0.1083
  646SOL    HW2 2637   2.953   3.533   1.230  1.0479  2.2139 -1.4931
  646SOL    HW3 2638   2.807   3.538   1.193  0.1815 -0.9500  1.2776
  646SOL    MW4 2639   2.874   3.568   1.239  0.0005  0.0001 -0.0000
  647SOL     OW 2640   2.896   3.843   1.118 -0.2874  0.3044 -0.0679
  647SOL    HW2 2641   2.977   3.878   1.155 -0.1633 -0.0496 -0.0084
  647SOL    HW3 2642   2.890   3.754   1.151 -1.8099  1.0226  1.6868
  647SOL    MW4 2643   2.906   3.836   1.127  0.0005  0.0001 -0.0000
  648SOL     OW 2644   2.704   4.033   1.197 -0.0334 -0.2278  0.1778
  648SOL    HW2 2645   2.767   3.965   1.174 -1.3891 -1.3712 -0.2662
  648SOL    HW3 2646   2.620   3.997   1.169 -0.8517  1.3548  0.5681
  648SOL    MW4 2647   2.701   4.019   1.190  0.0005  0.0001 -0.0000
  649SOL     OW 2648   2.671   4.307   1.085 -0.3804  0.3001  0.3566
  649SOL    HW2 2649   2.679   4.215   1.112  1.1189  0.0973 -0.7210
  649SOL    HW3 2650   2.610   4.345   1.148 -0.3803 -1.2387  1.3151
  649SOL    MW4 2651   2.664   4.300   1.097  0.0005  0.0001 -0.0000
  650SOL     OW 2652   2.877   4.395   1.213  0.6416 -0.4591 -0.4239
  650SOL    HW2 2653   2.947   4.343   1.173  0.0755 -0.4011 -1.5157
  650SOL    HW3 2654   2.798   4.369   1.165  0.0452  0.0413  0.2807
  650SOL    MW4 2655   2.876   4.385   1.201  0.0005  0.0001 -0.0000
  651SOL     OW 2656   3.330   4.658   1.115  0.3286 -0.4220  0.1606
  651SOL    HW2 2657   3.408   4.698   1.153 -0.1765  0.0017  0.7571
  651SOL    HW3 2658   3.262   4.724   1.124 -0.4209 -1.2684  0.8131
  651SOL    MW4 2659   3.331   4.672   1.121  0.0005  0.0001 -0.0000
  652SOL     OW 2660   3.127   0.170   1.174 -0.0010  0.0686  0.5819
  652SOL    HW2 2661   3.136   0.164   1.269 -0.2020 -2.0174  0.4994
  652SOL    HW3 2662   3.072   0.095   1.151 -0.4249  0.8857 -1.1215
  652SOL    MW4 2663   3.121   0.159   1.183  0.0005  0.0001 -0.0000
  653SOL     OW 2664   3.170   0.435   1.127 -0.0871 -0.0672 -0.0324
  653SOL    HW2 2665   3.141   0.345   1.143 -0.3662 -0.0599 -0.4882
  653SOL    HW3 2666   3.092   0.488   1.141 -0.1818  0.0000 -0.7944
  653SOL    MW4 2667   3.156   0.430   1.131  0.0005  0.0001 -0.0000
  654SOL     OW 2668   3.394   0.555   1.222  0.3041 -0.0219 -0.2608
  654SOL    HW2 2669   3.386   0.645   1.190  1.9368  0.6821  1.2053
  654SOL    HW3 2670   3.313   0.512   1.195 -1.0937  2.2720  0.2007
  654SOL    MW4 2671   3.382   0.561   1.214  0.0005  0.0001 -0.0000
  655SOL     OW 2672   3.362   0.796   1.086 -0.1222  0.4139  0.3084
  655SOL    HW2 2673   3.274   0.816   1.118  0.3248  0.1744  1.7184
  655SOL    HW3 2674   3.352   0.790   0.991 -1.3112  1.9811  0.3128
  655SOL    MW4 2675   3.349   0.798   1.078  0.0005  0.0001 -0.0000
  656SOL     OW 2676   3.119   0.870   1.209  0.1551 -0.1925 -0.4065
  656SOL    HW2 2677   3.143   0.864   1.301  0.1552  0.4809 -0.3606
  656SOL    HW3 2678   3.134   0.962   1.186 -0.6475 -0.1679 -0.8524
  656SOL    MW4 2679   3.124   0.881   1.218  0.0005  0.0001 -0.0000
  657SOL     OW 2680   3.166   1.140   1.149  0.5090 -0.0117  0.4392
  657SOL    HW2 2681   3.245   1.193   1.163  0.9107 -0.4345 -0.1886
  657SOL    HW3 2682   3.093   1.200   1.166  0.9517  1.0215 -1.2028
  657SOL    MW4 2683   3.167   1.155   1.153  0.0005  0.0001 -0.0000
  658SOL     OW 2684   3.388   1.293   1.220 -0.2268  0.2192  0.2305
  658SOL    HW2 2685   3.387   1.306   1.315  0.4727  1.5107  0.0760
  658SOL    HW3 2686   3.374   1.381   1.184  1.7746  0.1146 -0.8681
  658SOL    MW4 2687   3.386   1.306   1.228  0.0005  0.0001 -0.0000
  659SOL     OW 2688   3.369   1.544   1.125  0.4690  0.1276 -0.1756
  659SOL    HW2 2689   3.443   1.599   1.152  1.0769  0.0570 -1.6467
  659SOL    HW3 2690   3.291   1.593   1.151  1.0120  1.5856 -1.2489
  659SOL    MW4 2691   3.369   1.558   1.132  0.0005  0.0001 -0.0000
  660SOL     OW 2692   3.142   1.683   1.204  0.3005 -0.0745  0.4282
  660SOL    HW2 2693   3.132   1.716   1.293 -2.6489  1.2001 -0.3118
  660SOL    HW3 2694   3.123   1.759   1.148  1.1304 -1.1036 -1.2893
  660SOL    MW4 2695   3.138   1.697   1.208  0.0005  0.0001 -0.0000
  661SOL     OW 2696   3.110   1.930   1.080 -0.0705 -0.3042  0.4738
  661SOL    HW2 2697   3.187   1.971   1.119 -0.3613  0.3584  0.3618
  661SOL    HW3 2698   3.037   1.984   1.110 -0.4358 -0.6152  0.1453
  661SOL    MW4 2699   3.111   1.943   1.089  0.0005  0.0001 -0.0000
  662SOL     OW 2700   3.340   2.045   1.212  0.1855  0.2858 -0.1969
  662SOL    HW2 2701   3.430   2.015   1.199  0.0246  0.0863 -0.8714
  662SOL    HW3 2702   3.340   2.135   1.180  0.1750  0.3274 -0.0801
  662SOL    MW4 2703   3.352   2.053   1.206  0.0005  0.0001 -0.0000
  663SOL     OW 2704   3.333   2.309   1.140  0.2529 -0.1514 -0.0953
  663SOL    HW2 2705   3.404   2.358   1.183 -0.2092  1.1047 -0.7362
  663SOL    HW3 2706   3.255   2.332   1.190  0.1182 -0.6727 -0.0648
  663SOL    MW4 2707   3.332   2.318   1.152  0.0005  0.0001 -0.0000
  664SOL     OW 2708   3.114   2.460   1.235  0.3488  0.2801 -0.1124
  664SOL    HW2 2709   3.126   2.461   1.330 -0.8066  1.5055  0.0338
  664SOL    HW3 2710   3.156   2.540   1.204 -0.1618  0.3960 -0.5168
  664SOL    MW4 2711   3.121   2.471   1.243  0.0005  0.0001 -0.0000
  665SOL     OW 2712   3.183   2.724   1.166  0.4308  0.2133  0.4328
  665SOL    HW2 2713   3.101   2.766   1.191 -0.0372  0.2105 -1.0635
  665SOL    HW3 2714   3.186   2.731   1.071  0.4040 -3.0071  0.1357
  665SOL    MW4 2715   3.173   2.730   1.157  0.0005  0.0001 -0.0000
  666SOL     OW 2716   3.411   2.822   1.271  0.2456 -0.4861 -0.0624
  666SOL    HW2 2717   3.395   2.911   1.239  1.8883 -0.4165 -0.7531
  666SOL    HW3 2718   3.329   2.775   1.255 -0.5153  0.8085 -0.0120
  666SOL    MW4 2719   3.398   2.828   1.265  0.0005  0.0001 -0.0000
  667SOL     OW 2720   3.356   3.075   1.122  0.0537 -0.0596  0.0602
  667SOL    HW2 2721   3.437   3.112   1.157  0.5452 -0.7955 -0.2839
  667SOL    HW3 2722   3.287   3.129   1.159  0.8355  2.2383 -1.7155
  667SOL    MW4 2723   3.358   3.087   1.132  0.0005  0.0001 -0.0000
  668SOL     OW 2724   3.116   3.213   1.243  0.1502 -0.5261  0.2703
  668SOL    HW2 2725   3.112   3.307   1.224 -0.9145 -0.8526 -1.2339
  668SOL    HW3 2726   3.027   3.182   1.228  0.1983 -1.5599  2.0059
  668SOL    MW4 2727   3.104   3.221   1.239  0.0005  0.0001 -0.0000
  669SOL     OW 2728   3.107   3.474   1.182  0.3309 -0.3343  0.3176
  669SOL    HW2 2729   3.195   3.512   1.181 -0.0482  0.5397 -1.2625
  669SOL    HW3 2730   3.086   3.459   1.090 -1.1554 -0.5921  0.6833
  669SOL    MW4 2731   3.116   3.477   1.170  0.0005  0.0001 -0.0000
  670SOL     OW 2732   3.339   3.609   1.200 -0.0261 -0.7182  0.6656
  670SOL    HW2 2733   3.342   3.628   1.294  1.2900  1.4548  0.2200
  670SOL    HW3 2734   3.417   3.557   1.183  0.5584  0.1939  0.5223
  670SOL    MW4 2735   3.350   3.605   1.210  0.0005  0.0001 -0.0000
  671SOL     OW 2736   3.382   3.875   1.108  0.2167  0.0622 -0.2617
  671SOL    HW2 2737   3.300   3.907   1.144  0.1725 -0.6461  0.2808
  671SOL    HW3 2738   3.384   3.782   1.132  0.6410 -0.1897 -1.2492
  671SOL    MW4 2739   3.371   3.867   1.116  0.0005  0.0001 -0.0000
  672SOL     OW 2740   3.134   3.971   1.190 -0.1811  1.0939  0.5353
  672SOL    HW2 2741   3.133   3.981   1.285 -0.0559  0.1621  0.6412
  672SOL    HW3 2742   3.117   4.059   1.156  1.8566  1.8482  1.3939
  672SOL    MW4 2743   3.132   3.984   1.198  0.0005  0.0001 -0.0000
  673SOL     OW 2744   3.096   4.238   1.096 -0.0478  0.1394  0.1700
  673SOL    HW2 2745   3.165   4.303   1.108  1.3850 -1.2692 -0.2500
  673SOL    HW3 2746   3.101   4.215   1.003 -0.8336 -0.2495  0.2214
  673SOL    MW4 2747   3.106   4.244   1.085  0.0005  0.0001 -0.0000
  674SOL     OW 2748   3.337   4.374   1.161  0.5595  0.5960 -0.1544
  674SOL    HW2 2749   3.426   4.342   1.145  0.4024  0.2291 -0.2894
  674SOL    HW3 2750   3.341   4.467   1.139 -0.0677 -0.2076 -4.0297
  674SOL    MW4 2751   3.349   4.382   1.156  0.0005  0.0001 -0.0000
  675SOL     OW 2752   3.797   4.650   1.138  0.5975 -0.1196  0.0353
  675SOL    HW2 2753   3.799   4.557   1.160  1.9287  0.0919  0.8590
  675SOL    HW3 2754   3.805   4.652   1.043 -2.4382 -0.9384 -0.2879
  675SOL    MW4 2755   3.798   4.638   1.128  0.0005  0.0001 -0.0000
  676SOL     OW 2756   3.560   0.104   1.192  0.3453 -0.0486  0.2429
  676SOL    HW2 2757   3.565   0.175   1.128 -0.8967  0.8089  1.0742
  676SOL    HW3 2758   3.642   0.056   1.181  0.4064  0.4356 -1.5759
  676SOL    MW4 2759   3.571   0.107   1.182  0.0005  0.0001 -0.0000
  677SOL     OW 2760   3.560   0.361   1.063 -0.1377 -0.1104 -0.0662
  677SOL    HW2 2761   3.634   0.376   1.122 -0.9485  0.2479  0.8679
  677SOL    HW3 2762   3.498   0.431   1.083 -1.2199 -1.0522 -0.0572
  677SOL    MW4 2763   3.562   0.372   1.073  0.0005  0.0001 -0.0000
  678SOL     OW 2764   3.751   0.476   1.233  0.3069  0.1206 -0.3739
  678SOL    HW2 2765   3.841   0.467   1.200  0.2339 -1.2765 -0.2222
  678SOL    HW3 2766   3.729   0.568   1.218  1.5485  0.3316 -0.9661
  678SOL    MW4 2767   3.760   0.487   1.227  0.0005  0.0001 -0.0000
  679SOL     OW 2768   3.747   0.734   1.143  0.3002  0.3197  0.2302
  679SOL    HW2 2769   3.824   0.778   1.178  0.1984  0.8378 -0.1941
  679SOL    HW3 2770   3.673   0.784   1.177  0.1862  0.4906 -0.2650
  679SOL    MW4 2771   3.747   0.746   1.152  0.0005  0.0001 -0.0000
  680SOL     OW 2772   3.581   0.926   1.208 -0.1241 -0.1595 -0.6784
  680SOL    HW2 2773   3.599   1.008   1.163  1.4550  0.0253  0.2350
  680SOL    HW3 2774   3.496   0.897   1.174 -0.8762  2.0349 -0.7232
  680SOL    MW4 2775   3.572   0.933   1.198  0.0005  0.0001 -0.0000
  681SOL     OW 2776   3.608   1.180   1.104 -0.1687 -0.3488  0.0708
  681SOL    HW2 2777   3.674   1.223   1.158 -0.3434 -0.3682  0.3010
  681SOL    HW3 2778   3.525   1.199   1.148 -0.1515 -1.7954  0.7574
  681SOL    MW4 2779   3.606   1.188   1.117  0.0005  0.0001 -0.0000
  682SOL     OW 2780   3.813   1.295   1.248  0.2108 -0.0230  0.1898
  682SOL    HW2 2781   3.815   1.321   1.340  1.1350  0.2639  0.0952
  682SOL    HW3 2782   3.811   1.378   1.200  0.2422 -0.1653 -0.0579
  682SOL    MW4 2783   3.813   1.309   1.254  0.0005  0.0001 -0.0000
  683SOL     OW 2784   3.830   1.546   1.123  0.1826 -0.0876  0.0484
  683SOL    HW2 2785   3.899   1.608   1.148 -0.0315  0.5309 -0.8572
  683SOL    HW3 2786   3.833   1.545   1.027 -2.6455  1.7754 -0.1166
  683SOL    MW4 2787   3.839   1.554   1.114  0.0005  0.0001 -0.0000
  684SOL     OW 2788   3.602   1.687   1.210  0.0849 -0.1298 -0.0198
  684SOL    HW2 2789   3.621   1.781   1.208  0.7821 -0.1900  2.3203
  684SOL    HW3 2790   3.683   1.645   1.181 -0.1271 -0.0289 -0.7676
  684SOL    MW4 2791   3.615   1.694   1.206  0.0005  0.0001 -0.0000
  685SOL     OW 2792   3.608   1.964   1.204  0.3869 -0.2324 -0.1860
  685SOL    HW2 2793   3.681   2.018   1.234  0.0686  0.2099 -0.2037
  685SOL    HW3 2794   3.628   1.946   1.112 -0.9452  2.2943 -1.0184
  685SOL    MW4 2795   3.620   1.969   1.196  0.0005  0.0001 -0.0000
  686SOL     OW 2796   3.839   2.080   1.275 -0.0381  0.0366  0.0031
  686SOL    HW2 2797   3.860   2.067   1.368  0.3806  0.8753  0.0285
  686SOL    HW3 2798   3.896   2.018   1.229 -0.1283 -0.2637  0.2956
  686SOL    MW4 2799   3.849   2.070   1.281  0.0005  0.0001 -0.0000
  687SOL     OW 2800   3.821   2.330   1.132  0.0669  0.2209 -0.0274
  687SOL    HW2 2801   3.894   2.385   1.160  1.5104 -0.8137 -1.6497
  687SOL    HW3 2802   3.838   2.245   1.174 -0.9544  0.3623  0.6877
  687SOL    MW4 2803   3.833   2.326   1.141  0.0005  0.0001 -0.0000
  688SOL     OW 2804   3.570   2.423   1.227  0.6008 -0.1267 -0.2645
  688SOL    HW2 2805   3.586   2.428   1.321  0.8582 -0.5891 -0.2829
  688SOL    HW3 2806   3.649   2.382   1.191  0.3115 -0.3726 -0.6246
  688SOL    MW4 2807   3.583   2.418   1.235  0.0005  0.0001 -0.0000
  689SOL     OW 2808   3.626   2.699   1.143  0.2679 -0.1957 -0.2956
  689SOL    HW2 2809   3.614   2.608   1.168  0.7605 -0.3620 -0.6467
  689SOL    HW3 2810   3.555   2.746   1.186  0.1643 -0.7088  0.0929
  689SOL    MW4 2811   3.615   2.693   1.152  0.0005  0.0001 -0.0000
  690SOL     OW 2812   3.863   2.864   1.243  0.1122  0.3750 -0.1462
  690SOL    HW2 2813   3.859   2.871   1.338 -1.0285  2.6491 -0.3297
  690SOL    HW3 2814   3.795   2.800   1.221 -0.3659  0.6589  0.4968
  690SOL    MW4 2815   3.854   2.857   1.253  0.0005  0.0001 -0.0000
  691SOL     OW 2816   3.789   3.103   1.151 -0.5469 -0.6094 -0.3210
  691SOL    HW2 2817   3.823   3.023   1.191 -0.2494 -0.3246 -0.0045
  691SOL    HW3 2818   3.768   3.077   1.061  2.1927 -0.3580 -1.0802
  691SOL    MW4 2819   3.791   3.089   1.144  0.0005  0.0001 -0.0000
  692SOL     OW 2820   3.569   3.216   1.239 -0.1861 -0.0265  0.0930
  692SOL    HW2 2821   3.549   3.299   1.195  0.3778  1.0130  1.7566
  692SOL    HW3 2822   3.648   3.185   1.195 -0.4068  0.3057 -0.5509
  692SOL    MW4 2823   3.577   3.223   1.227  0.0005  0.0001 -0.0000
  693SOL     OW 2824   3.573   3.485   1.129  0.1965  0.3779  0.1466
  693SOL    HW2 2825   3.653   3.527   1.162  0.7882 -0.4878 -0.1652
  693SOL    HW3 2826   3.589   3.474   1.035  0.4590 -1.4229  0.3849
  693SOL    MW4 2827   3.586   3.489   1.121  0.0005  0.0001 -0.0000
  694SOL     OW 2828   3.791   3.606   1.227 -0.2542  0.0881  0.2592
  694SOL    HW2 2829   3.802   3.594   1.321  2.5081 -0.5599 -0.1029
  694SOL    HW3 2830   3.815   3.698   1.212  0.2519 -0.0735  0.0688
  694SOL    MW4 2831   3.796   3.616   1.237  0.0005  0.0001 -0.0000
  695SOL     OW 2832   3.816   3.878   1.136 -0.0157 -0.3578 -0.4734
  695SOL    HW2 2833   3.739   3.922   1.171  1.0834  1.1311  0.1312
  695SOL    HW3 2834   3.806   3.883   1.041 -0.5824 -0.0311 -0.3971
  695SOL    MW4 2835   3.804   3.884   1.128  0.0005  0.0001 -0.0000
  696SOL     OW 2836   3.591   4.000   1.232 -0.1906 -0.2003 -0.3357
  696SOL    HW2 2837   3.579   3.973   1.323 -1.5946 -0.5585 -0.6142
  696SOL    HW3 2838   3.518   3.959   1.185 -0.4813  1.4059 -1.3229
  696SOL    MW4 2839   3.580   3.991   1.238  0.0005  0.0001 -0.0000
  697SOL     OW 2840   3.584   4.263   1.134  0.1022 -0.2855  0.1133
  697SOL    HW2 2841   3.593   4.178   1.177  0.1669 -0.6207 -0.5466
  697SOL    HW3 2842   3.589   4.243   1.041 -2.5071  0.1167 -0.1490
  697SOL    MW4 2843   3.586   4.249   1.127  0.0005  0.0001 -0.0000
  698SOL     OW 2844   3.828   4.382   1.224 -0.0436 -0.1858  0.7102
  698SOL    HW2 2845   3.823   4.377   1.319  1.3351 -0.7274  0.7661
  698SOL    HW3 2846   3.751   4.333   1.193 -0.6006  0.1566  1.5360
  698SOL    MW4 2847   3.817   4.375   1.233  0.0005  0.0001 -0.0000
  699SOL     OW 2848   4.257   0.008   1.113  0.5337 -0.2406  0.0146
  699SOL    HW2 2849   4.249  -0.082   1.146  0.8366 -0.5255 -0.6719
  699SOL    HW3 2850   4.181   0.054   1.149  0.5060 -0.7148  0.5646
  699SOL    MW4 2851   4.246   0.002   1.122  0.0005  0.0001 -0.0000
  700SOL     OW 2852   4.024   0.117   1.203  0.5160  0.3381 -0.1799
  700SOL    HW2 2853   4.020   0.136   1.297  2.0304 -2.4782  0.5111
  700SOL    HW3 2854   3.943   0.068   1.186  0.4271  0.5149 -0.2648
  700SOL    MW4 2855   4.013   0.113   1.213  0.0005  0.0001 -0.0000
  701SOL     OW 2856   3.999   0.401   1.126  0.2367  0.5806  0.3316
  701SOL    HW2 2857   4.005   0.307   1.143  1.0443  0.7290  0.8971
  701SOL    HW3 2858   4.020   0.410   1.033 -1.3223  0.0576 -0.0864
  701SOL    MW4 2859   4.003   0.390   1.116  0.0005  0.0001 -0.0000
  702SOL     OW 2860   4.235   0.492   1.235 -0.2967 -0.3442  0.2394
  702SOL    HW2 2861   4.224   0.481   1.329 -1.6333  2.8256  0.5167
  702SOL    HW3 2862   4.150   0.469   1.198  0.2269 -1.5868 -0.2189
  702SOL    MW4 2863   4.222   0.488   1.243  0.0005  0.0001 -0.0000
  703SOL     OW 2864   4.262   0.765   1.146  0.2700 -0.4424  0.0682
  703SOL    HW2 2865   4.239   0.675   1.170 -1.0268 -0.1645 -0.1081
  703SOL    HW3 2866   4.259   0.766   1.050  0.3716 -0.2339  0.0663
  703SOL    MW4 2867   4.259   0.753   1.137  0.0005  0.0001 -0.0000
  704SOL     OW 2868   3.984   0.881   1.243 -0.1857  0.3263  0.1243
  704SOL    HW2 2869   3.991   0.881   1.338  0.5795  1.7589  0.0823
  704SOL    HW3 2870   4.065   0.839   1.213 -0.8505 -0.9755  0.1158
  704SOL    MW4 2871   3.996   0.875   1.252  0.0005  0.0001 -0.0000
  705SOL     OW 2872   4.001   1.143   1.113 -0.4284 -0.3933  0.6916
  705SOL    HW2 2873   3.987   1.053   1.142 -0.6152 -0.0354  1.7232
  705SOL    HW3 2874   3.927   1.192   1.149 -0.1890  0.2250  0.3503
  705SOL    MW4 2875   3.989   1.138   1.122  0.0005  0.0001 -0.0000
  706SOL     OW 2876   4.226   1.296   1.216  0.5372  0.1106 -0.0448
  706SOL    HW2 2877   4.219   1.279   1.310  0.0036 -1.4391 -0.3512
  706SOL    HW3 2878   4.145   1.261   1.179  0.1896  1.8090 -0.9454
  706SOL    MW4 2879   4.214   1.289   1.224  0.0005  0.0001 -0.0000
  707SOL     OW 2880   4.275   1.550   1.123 -0.1973 -0.1436 -0.0953
  707SOL    HW2 2881   4.270   1.458   1.149  1.1798 -0.5412 -1.1625
  707SOL    HW3 2882   4.362   1.578   1.153 -0.0905  0.4333 -0.9373
  707SOL    MW4 2883   4.286   1.542   1.130  0.0005  0.0001 -0.0000
  708SOL     OW 2884   4.059   1.705   1.225  0.3186  0.1854  0.4245
  708SOL    HW2 2885   4.088   1.700   1.316  0.1360 -1.4993  0.4076
  708SOL    HW3 2886   4.124   1.654   1.177 -0.9060 -0.9539 -0.0508
  708SOL    MW4 2887   4.071   1.698   1.231  0.0005  0.0001 -0.0000
  709SOL     OW 2888   4.050   1.962   1.141 -0.2810 -0.2914  0.1934
  709SOL    HW2 2889   4.053   1.871   1.171 -2.6476 -0.8382 -1.1022
  709SOL    HW3 2890   4.069   1.957   1.047 -0.1873  0.5756  0.1623
  709SOL    MW4 2891   4.053   1.949   1.133  0.0005  0.0001 -0.0000
  710SOL     OW 2892   4.292   2.052   1.235  0.6174  0.3529 -0.0459
  710SOL    HW2 2893   4.301   2.139   1.195  0.5381  0.5830  0.4335
  710SOL    HW3 2894   4.208   2.020   1.203 -0.4833  1.4513  1.6605
  710SOL    MW4 2895   4.282   2.059   1.226  0.0005  0.0001 -0.0000
  711SOL     OW 2896   4.310   2.280   1.076  0.3907  0.3364  0.2084
  711SOL    HW2 2897   4.234   2.331   1.104 -0.0010 -0.4242  0.5547
  711SOL    HW3 2898   4.319   2.298   0.983  0.3903  1.2075  0.3753
  711SOL    MW4 2899   4.301   2.289   1.067  0.0005  0.0001 -0.0000
  712SOL     OW 2900   4.046   2.452   1.229 -0.0451 -0.5384 -0.0203
  712SOL    HW2 2901   4.044   2.436   1.323  1.7994 -0.5385  0.0371
  712SOL    HW3 2902   4.066   2.545   1.221 -1.2171 -0.3146 -0.4138
  712SOL    MW4 2903   4.048   2.462   1.240  0.0005  0.0001 -0.0000
  713SOL     OW 2904   4.077   2.723   1.120  0.0497 -0.2178 -0.0987
  713SOL    HW2 2905   4.001   2.774   1.148  0.7147  0.3479  0.6876
  713SOL    HW3 2906   4.073   2.726   1.024 -0.9406 -0.2314 -0.0662
  713SOL    MW4 2907   4.066   2.730   1.111  0.0005  0.0001 -0.0000
  714SOL     OW 2908   4.292   2.841   1.248  0.4042 -0.3849 -0.0088
  714SOL    HW2 2909   4.303   2.923   1.199 -0.1051 -0.8095 -0.8525
  714SOL    HW3 2910   4.229   2.791   1.196 -0.9784 -0.4069  1.6490
  714SOL    MW4 2911   4.285   2.845   1.235  0.0005  0.0001 -0.0000
  715SOL     OW 2912   4.257   3.099   1.113  0.1724  0.3172  0.1936
  715SOL    HW2 2913   4.187   3.156   1.145  0.6818  0.3315  1.3219
  715SOL    HW3 2914   4.260   3.114   1.019  0.6693  2.5821  0.5466
  715SOL    MW4 2915   4.248   3.109   1.105  0.0005  0.0001 -0.0000
  716SOL     OW 2916   4.030   3.251   1.188 -0.2775  0.2665 -0.0515
  716SOL    HW2 2917   4.037   3.237   1.283  0.3225 -2.7068 -0.4743
  716SOL    HW3 2918   3.953   3.199   1.162 -0.1683  0.6871 -1.2575
  716SOL    MW4 2919   4.021   3.242   1.197  0.0005  0.0001 -0.0000
  717SOL     OW 2920   4.035   3.519   1.101 -0.5879  0.1300  0.1741
  717SOL    HW2 2921   4.036   3.437   1.150 -0.6363 -1.2757 -2.1048
  717SOL    HW3 2922   3.947   3.555   1.116 -0.7982 -0.5676  0.6413
  717SOL    MW4 2923   4.024   3.513   1.109  0.0005  0.0001 -0.0000
  718SOL     OW 2924   4.254   3.641   1.250  0.3407 -0.1822  0.4204
  718SOL    HW2 2925   4.182   3.587   1.217  0.5527 -0.7818  0.9311
  718SOL    HW3 2926   4.333   3.600   1.216  0.4374  0.6077 -0.3282
  718SOL    MW4 2927   4.255   3.628   1.241  0.0005  0.0001 -0.0000
  719SOL     OW 2928   4.216   3.880   1.128 -0.2267  0.3617 -0.3504
  719SOL    HW2 2929   4.147   3.929   1.172  0.3043  0.3050  0.5538
  719SOL    HW3 2930   4.212   3.793   1.167  0.1025  0.2486 -0.5715
  719SOL    MW4 2931   4.206   3.875   1.139  0.0005  0.0001 -0.0000
  720SOL     OW 2932   4.022   4.028   1.275 -0.1607 -0.1546 -0.1244
  720SOL    HW2 2933   4.032   4.107   1.222 -0.5291  0.2573  0.4139
  720SOL    HW3 2934   3.948   3.981   1.235  0.3555 -0.4615 -0.7277
  720SOL    MW4 2935   4.014   4.032   1.263  0.0005  0.0001 -0.0000
  721SOL     OW 2936   4.040   4.263   1.128 -0.6131 -0.5738  0.0066
  721SOL    HW2 2937   3.956   4.298   1.157 -0.1806  1.6816 -1.3453
  721SOL    HW3 2938   4.031   4.254   1.033  0.4190 -1.0287 -0.0560
  721SOL    MW4 2939   4.028   4.266   1.119  0.0005  0.0001 -0.0000
  722SOL     OW 2940   4.253   4.417   1.209  0.1058  0.4054  0.1255
  722SOL    HW2 2941   4.175   4.367   1.186  0.1368 -0.0563  1.0057
  722SOL    HW3 2942   4.325   4.368   1.169  0.0642  0.1487  0.3631
  722SOL    MW4 2943   4.252   4.404   1.201  0.0005  0.0001 -0.0000
  723SOL     OW 2944   0.208   4.654   1.628  0.3883  0.0297  0.0441
  723SOL    HW2 2945   0.288   4.700   1.602  1.2290 -2.4390 -1.9556
  723SOL    HW3 2946   0.137   4.710   1.598  1.3723  1.1877 -0.1534
  723SOL    MW4 2947   0.209   4.667   1.621  0.0005  0.0001 -0.0000
  724SOL     OW 2948   4.484   0.123   1.527 -0.4203  0.2383 -0.6244
  724SOL    HW2 2949   4.401   0.086   1.556 -0.3840  0.4328 -0.2693
  724SOL    HW3 2950   4.474   0.133   1.432 -0.2276 -1.1915 -0.8063
  724SOL    MW4 2951   4.472   0.119   1.518  0.0005  0.0001 -0.0000
  725SOL     OW 2952   4.471   0.386   1.601 -0.0233 -0.0465  0.5011
  725SOL    HW2 2953   4.461   0.393   1.696 -0.0398 -0.3689  0.5245
  725SOL    HW3 2954   4.490   0.293   1.586  0.6426  0.1280  0.2499
  725SOL    MW4 2955   4.472   0.375   1.612  0.0005  0.0001 -0.0000
  726SOL     OW 2956   0.199   0.534   1.526  0.0440 -0.0598  0.3317
  726SOL    HW2 2957   0.123   0.482   1.552  0.1382  0.1564  1.0450
  726SOL    HW3 2958   0.187   0.548   1.432 -0.3438 -0.7706  0.2703
  726SOL    MW4 2959   0.187   0.529   1.517  0.0005  0.0001 -0.0000
  727SOL     OW 2960   0.240   0.782   1.663  0.2838  0.0692  0.0806
  727SOL    HW2 2961   0.301   0.834   1.611  2.5635 -1.5870  1.0254
  727SOL    HW3 2962   0.223   0.705   1.609  1.6245 -1.0266  1.1819
  727SOL    MW4 2963   0.246   0.779   1.649  0.0005  0.0001 -0.0000
  728SOL     OW 2964   0.001   0.863   1.532  0.7210 -0.1394 -0.0465
  728SOL    HW2 2965  -0.022   0.956   1.540  0.4984 -0.3223  1.5817
  728SOL    HW3 2966   0.075   0.851   1.591  0.5909 -1.0548 -0.0589
  728SOL    MW4 2967   0.008   0.874   1.541  0.0005  0.0001 -0.0000
  729SOL     OW 2968   4.467   1.131   1.571 -0.1119  0.0280  0.1075
  729SOL    HW2 2969   4.463   1.128   1.667 -1.1459  0.8911  0.1032
  729SOL    HW3 2970   4.552   1.170   1.551  0.8554 -1.7600  0.6325
  729SOL    MW4 2971   4.478   1.136   1.581  0.0005  0.0001 -0.0000
  730SOL     OW 2972   0.226   1.236   1.509 -0.0870  0.7835 -0.2122
  730SOL    HW2 2973   0.234   1.327   1.539 -0.1419  1.2847 -1.6889
  730SOL    HW3 2974   0.222   1.242   1.414 -1.9058 -0.6397 -0.2564
  730SOL    MW4 2975   0.227   1.249   1.500  0.0005  0.0001 -0.0000
  731SOL     OW 2976   0.200   1.492   1.624  0.0667 -0.2189  0.0397
  731SOL    HW2 2977   0.218   1.497   1.718  0.6810 -0.9957 -0.0345
  731SOL    HW3 2978   0.122   1.547   1.612  0.1342  0.0907  0.9586
  731SOL    MW4 2979   0.192   1.500   1.635  0.0005  0.0001 -0.0000
  732SOL     OW 2980   4.475   1.663   1.528  0.5255  0.2762 -0.2781
  732SOL    HW2 2981   4.496   1.752   1.556 -0.7160  0.2531  0.7526
  732SOL    HW3 2982   4.494   1.663   1.434  2.6689  0.9745  0.1206
  732SOL    MW4 2983   4.480   1.675   1.519  0.0005  0.0001 -0.0000
  733SOL     OW 2984   4.479   1.931   1.619  0.2372 -0.7354 -0.0644
  733SOL    HW2 2985   4.474   1.929   1.715 -0.9648  0.6782 -0.0741
  733SOL    HW3 2986   4.423   2.005   1.594  1.6865 -0.1884 -1.7811
  733SOL    MW4 2987   4.471   1.940   1.628  0.0005  0.0001 -0.0000
  734SOL     OW 2988   0.230   2.088   1.536 -0.3433  0.9616 -0.1210
  734SOL    HW2 2989   0.158   2.033   1.566  1.3638  0.2121  2.7498
  734SOL    HW3 2990   0.212   2.101   1.443 -2.9821 -1.0322  0.0374
  734SOL    MW4 2991   0.218   2.082   1.528  0.0005  0.0001 -0.0000
  735SOL     OW 2992   0.214   2.376   1.607  0.1197  0.1632  0.0116
  735SOL    HW2 2993   0.219   2.387   1.702  0.3226  1.3639 -0.1274
  735SOL    HW3 2994   0.219   2.281   1.593  1.6807  0.0665  1.1071
  735SOL    MW4 2995   0.215   2.365   1.618  0.0005  0.0001 -0.0000
  736SOL     OW 2996   0.003   2.454   1.461  0.6442  0.2144 -0.2121
  736SOL    HW2 2997  -0.068   2.425   1.518  0.6826  0.1476 -0.1979
  736SOL    HW3 2998   0.082   2.440   1.513  0.5564  1.6751  0.3378
  736SOL    MW4 2999   0.004   2.448   1.475  0.0005  0.0001 -0.0000
  737SOL     OW 3000   4.482   2.708   1.591 -0.0164  0.4397  0.3363
  737SOL    HW2 3001   4.407   2.759   1.562 -0.3585 -0.3614 -0.2008
  737SOL    HW3 3002   4.472   2.624   1.547  1.4050  0.4576 -0.0423
  737SOL    MW4 3003   4.471   2.704   1.581  0.0005  0.0001 -0.0000
  738SOL     OW 3004   0.226   2.826   1.505  0.3536  0.3534 -0.0753
  738SOL    HW2 3005   0.302   2.776   1.534  0.2241  0.0932 -0.1849
  738SOL    HW3 3006   0.151   2.781   1.543  0.1785 -0.0239 -0.8557
  738SOL    MW4 3007   0.226   2.813   1.514  0.0005  0.0001 -0.0000
  739SOL     OW 3008   0.242   3.095   1.596  0.0756  0.4430 -0.5804
  739SOL    HW2 3009   0.158   3.130   1.565  0.0320  0.9635  0.1270
  739SOL    HW3 3010   0.245   3.007   1.559 -0.3882  0.7275 -1.3263
  739SOL    MW4 3011   0.231   3.088   1.587  0.0005  0.0001 -0.0000
  740SOL     OW 3012   0.014   3.235   1.494 -0.4206  0.0330 -0.3025
  740SOL    HW2 3013   0.018   3.324   1.528 -3.1735  0.2517 -0.4378
  740SOL    HW3 3014   0.004   3.246   1.399  1.6277 -0.4852 -0.6021
  740SOL    MW4 3015   0.013   3.248   1.486  0.0005  0.0001 -0.0000
  741SOL     OW 3016   0.036   3.495   1.608 -0.2498  0.0960 -0.0045
  741SOL    HW2 3017   0.058   3.506   1.701 -0.4777 -0.2634  0.0934
  741SOL    HW3 3018  -0.051   3.535   1.600 -0.3849 -0.1939  0.0130
  741SOL    MW4 3019   0.027   3.502   1.619  0.0005  0.0001 -0.0000
  742SOL     OW 3020   0.222   3.613   1.468  0.2004  0.2062 -0.6082
  742SOL    HW2 3021   0.225   3.705   1.494  0.4009  0.2596 -0.8207
  742SOL    HW3 3022   0.158   3.574   1.527 -1.1123  0.8268 -1.5950
  742SOL    MW4 3023   0.214   3.620   1.479  0.0005  0.0001 -0.0000
  743SOL     OW 3024   0.198   3.862   1.599  0.2322 -0.1127  0.2374
  743SOL    HW2 3025   0.209   3.870   1.694 -0.4223  1.8859  0.1662
  743SOL    HW3 3026   0.264   3.920   1.562 -0.8843  0.7251 -0.4761
  743SOL    MW4 3027   0.208   3.871   1.607  0.0005  0.0001 -0.0000
  744SOL     OW 3028   4.481   3.987   1.479 -0.4566  0.6588  0.4608
  744SOL    HW2 3029   4.482   4.071   1.526 -0.9127  0.9962 -0.1298
  744SOL    HW3 3030   4.559   3.942   1.510  0.9154  2.1483 -0.7323
  744SOL    MW4 3031   4.491   3.992   1.489  0.0005  0.0001 -0.0000
  745SOL     OW 3032   0.010   4.238   1.593  0.2152 -0.0720  0.0773
  745SOL    HW2 3033   0.002   4.246   1.688 -0.2490 -0.7106  0.0951
  745SOL    HW3 3034  -0.062   4.290   1.558  0.5863  0.4368  0.0646
  745SOL    MW4 3035  -0.001   4.246   1.601  0.0005  0.0001 -0.0000
  746SOL     OW 3036   0.232   4.400   1.508  0.1650  0.5842 -0.2088
  746SOL    HW2 3037   0.167   4.340   1.545  2.0477 -0.6360  1.2121
  746SOL    HW3 3038   0.219   4.482   1.556 -0.6657  0.5196 -0.3147
  746SOL    MW4 3039   0.222   4.403   1.519  0.0005  0.0001 -0.0000
  747SOL     OW 3040   0.671   4.638   1.639  0.6588 -0.2346 -0.0224
  747SOL    HW2 3041   0.743   4.689   1.603 -0.0596  2.6941  2.4735
  747SOL    HW3 3042   0.592   4.687   1.614 -0.0498 -0.1096  2.3395
  747SOL    MW4 3043   0.670   4.651   1.631  0.0005  0.0001 -0.0000
  748SOL     OW 3044   0.444   0.106   1.556  0.1091  0.4547 -0.2603
  748SOL    HW2 3045   0.454   0.199   1.574 -0.2025  0.7768 -1.6905
  748SOL    HW3 3046   0.442   0.100   1.460 -1.2706 -0.8638 -0.1694
  748SOL    MW4 3047   0.445   0.118   1.546  0.0005  0.0001 -0.0000
  749SOL     OW 3048   0.459   0.408   1.601 -0.2496 -0.5877 -0.1876
  749SOL    HW2 3049   0.539   0.448   1.566 -0.8341  1.0133  0.2688
  749SOL    HW3 3050   0.388   0.456   1.560 -0.9685 -0.7486  0.8450
  749SOL    MW4 3051   0.460   0.420   1.591  0.0005  0.0001 -0.0000
  750SOL     OW 3052   0.710   0.526   1.508 -0.8533 -0.1039 -0.1780
  750SOL    HW2 3053   0.678   0.615   1.525 -0.1824  0.1223 -0.0791
  750SOL    HW3 3054   0.698   0.513   1.414 -2.0368 -0.3437 -0.0009
  750SOL    MW4 3055   0.704   0.536   1.498  0.0005  0.0001 -0.0000
  751SOL     OW 3056   0.652   0.781   1.571  0.1618 -0.3752 -0.2230
  751SOL    HW2 3057   0.679   0.766   1.662  1.1354 -1.1600 -0.6334
  751SOL    HW3 3058   0.727   0.825   1.530 -0.9314  1.5536 -0.2169
  751SOL    MW4 3059   0.665   0.785   1.578  0.0005  0.0001 -0.0000
  752SOL     OW 3060   0.432   0.925   1.480  0.5750 -0.0735 -0.4998
  752SOL    HW2 3061   0.436   1.003   1.535  0.2892 -0.6266  0.3146
  752SOL    HW3 3062   0.511   0.875   1.503  0.2175 -0.5275 -0.2494
  752SOL    MW4 3063   0.443   0.929   1.490  0.0005  0.0001 -0.0000
  753SOL     OW 3064   0.424   1.109   1.671 -0.3475  0.6702 -0.4964
  753SOL    HW2 3065   0.502   1.153   1.636 -0.4301  0.8198 -0.4928
  753SOL    HW3 3066   0.351   1.152   1.628 -0.5247  1.8566  0.9501
  753SOL    MW4 3067   0.425   1.120   1.661  0.0005  0.0001 -0.0000
  754SOL     OW 3068   0.645   1.259   1.535 -0.4822 -0.2642 -0.0092
  754SOL    HW2 3069   0.639   1.354   1.547 -1.2180 -0.3774  0.5454
  754SOL    HW3 3070   0.626   1.246   1.442  0.9630  0.2420 -0.3901
  754SOL    MW4 3071   0.642   1.270   1.524  0.0005  0.0001 -0.0000
  755SOL     OW 3072   0.648   1.545   1.625  0.0265 -0.0684 -0.5901
  755SOL    HW2 3073   0.719   1.572   1.567 -0.4086  1.3012 -0.5003
  755SOL    HW3 3074   0.568   1.564   1.575 -0.3058 -0.5498 -0.2482
  755SOL    MW4 3075   0.647   1.551   1.611  0.0005  0.0001 -0.0000
  756SOL     OW 3076   0.421   1.638   1.504  0.4261 -0.5579  0.3981
  756SOL    HW2 3077   0.426   1.732   1.524 -1.2227 -0.2464 -0.5474
  756SOL    HW3 3078   0.336   1.611   1.539  1.9293 -2.2763  2.8767
  756SOL    MW4 3079   0.410   1.647   1.511  0.0005  0.0001 -0.0000
  757SOL     OW 3080   0.429   1.903   1.588 -0.3502  0.0194 -0.1924
  757SOL    HW2 3081   0.440   1.903   1.683 -1.1028 -0.5960 -0.1011
  757SOL    HW3 3082   0.358   1.965   1.572  0.7290  1.2028 -0.4779
  757SOL    MW4 3083   0.421   1.911   1.598  0.0005  0.0001 -0.0000
  758SOL     OW 3084   0.653   2.071   1.511  0.0052 -0.1382  0.0978
  758SOL    HW2 3085   0.735   2.027   1.532 -0.5576 -0.9238  0.6785
  758SOL    HW3 3086   0.587   2.025   1.563 -0.7901  0.5403 -0.2987
  758SOL    MW4 3087   0.655   2.059   1.521  0.0005  0.0001 -0.0000
  759SOL     OW 3088   0.630   2.335   1.608  0.0194 -0.1528 -0.2953
  759SOL    HW2 3089   0.550   2.370   1.569  0.6100  0.3256 -1.0781
  759SOL    HW3 3090   0.628   2.242   1.587 -0.8908 -0.3542  0.6532
  759SOL    MW4 3091   0.619   2.327   1.600  0.0005  0.0001 -0.0000
  760SOL     OW 3092   0.434   2.461   1.455  0.2282  0.3786 -0.5211
  760SOL    HW2 3093   0.452   2.544   1.499  0.6824  0.5418 -1.0120
  760SOL    HW3 3094   0.350   2.433   1.491  0.8987  0.1854  0.9330
  760SOL    MW4 3095   0.425   2.468   1.466  0.0005  0.0001 -0.0000
  761SOL     OW 3096   0.447   2.689   1.597  0.2628 -0.4526 -0.2502
  761SOL    HW2 3097   0.446   2.682   1.692 -2.1945  1.0624 -0.1195
  761SOL    HW3 3098   0.516   2.753   1.578  0.0344  0.0464  0.5831
  761SOL    MW4 3099   0.456   2.697   1.607  0.0005  0.0001 -0.0000
  762SOL     OW 3100   0.671   2.849   1.523 -0.2005 -0.4429 -0.3279
  762SOL    HW2 3101   0.657   2.940   1.550 -1.4594 -0.9968  0.9317
  762SOL    HW3 3102   0.649   2.848   1.430 -0.1333  0.5512 -0.3587
  762SOL    MW4 3103   0.666   2.861   1.514  0.0005  0.0001 -0.0000
  763SOL     OW 3104   0.666   3.115   1.583 -0.0559 -0.0274 -0.3169
  763SOL    HW2 3105   0.746   3.150   1.543 -0.1467 -0.9606 -1.3395
  763SOL    HW3 3106   0.597   3.173   1.553  0.2530  0.8957  0.7234
  763SOL    MW4 3107   0.667   3.127   1.574  0.0005  0.0001 -0.0000
  764SOL     OW 3108   0.456   3.262   1.449  0.1450  0.0704  0.1938
  764SOL    HW2 3109   0.376   3.226   1.487  0.8625 -1.0797  0.6399
  764SOL    HW3 3110   0.443   3.254   1.354 -0.5606  0.5488  0.2458
  764SOL    MW4 3111   0.444   3.256   1.442  0.0005  0.0001 -0.0000
  765SOL     OW 3112   0.448   3.519   1.586 -0.1765 -0.3702  0.2320
  765SOL    HW2 3113   0.460   3.438   1.536 -0.1400 -1.1945  1.5517
  765SOL    HW3 3114   0.368   3.557   1.551  0.7397 -0.0715 -1.5995
  765SOL    MW4 3115   0.439   3.513   1.575  0.0005  0.0001 -0.0000
  766SOL     OW 3116   0.667   3.640   1.464  0.0553 -0.2213  0.1355
  766SOL    HW2 3117   0.735   3.584   1.502 -0.8269 -0.7692  0.9217
  766SOL    HW3 3118   0.585   3.603   1.495 -0.6055  0.5617 -0.6440
  766SOL    MW4 3119   0.665   3.628   1.473  0.0005  0.0001 -0.0000
  767SOL     OW 3120   0.646   3.888   1.582  0.6682 -0.0925  0.7386
  767SOL    HW2 3121   0.720   3.930   1.538  2.4166 -1.8793  1.8828
  767SOL    HW3 3122   0.646   3.798   1.548 -1.3780  0.0528  0.2935
  767SOL    MW4 3123   0.656   3.882   1.572  0.0005  0.0001 -0.0000
  768SOL     OW 3124   0.417   4.017   1.485 -0.2803 -0.5219 -0.5340
  768SOL    HW2 3125   0.494   3.974   1.523  0.3068  0.6610 -0.3614
  768SOL    HW3 3126   0.442   4.035   1.394  0.6728  2.2322  0.2227
  768SOL    MW4 3127   0.430   4.014   1.478  0.0005  0.0001 -0.0000
  769SOL     OW 3128   0.440   4.264   1.627  0.1776  0.6054  0.6220
  769SOL    HW2 3129   0.440   4.181   1.579 -0.2468  0.2021  1.3098
  769SOL    HW3 3130   0.379   4.320   1.579  0.6998  0.6273 -0.0220
  769SOL    MW4 3131   0.432   4.260   1.614  0.0005  0.0001 -0.0000
  770SOL     OW 3132   0.662   4.392   1.508  0.0096 -0.0798  0.2094
  770SOL    HW2 3133   0.583   4.356   1.548 -0.4114  1.2585  0.6016
  770SOL    HW3 3134   0.674   4.477   1.551  0.4418  0.6713 -1.3717
  770SOL    MW4 3135   0.653   4.398   1.519  0.0005  0.0001 -0.0000
  771SOL     OW 3136   1.111   4.644   1.635 -0.2615  0.0864  0.5131
  771SOL    HW2 3137   1.117   4.668   1.727 -0.5487 -0.0220  0.5599
  771SOL    HW3 3138   1.182   4.693   1.593  1.0684 -1.3076  1.0861
  771SOL    MW4 3139   1.121   4.654   1.642  0.0005  0.0001 -0.0000
  772SOL     OW 3140   0.873   0.114   1.542 -0.0504  0.1016 -0.1034
  772SOL    HW2 3141   0.890   0.205   1.568  0.3841 -0.2693  0.9314
  772SOL    HW3 3142   0.940   0.063   1.588  0.1669 -0.6696 -1.2573
  772SOL    MW4 3143   0.884   0.119   1.551  0.0005  0.0001 -0.0000
  773SOL     OW 3144   0.912   0.380   1.634  0.1289  0.2436  0.3261
  773SOL    HW2 3145   0.899   0.400   1.727 -1.2672  0.3509  0.1205
  773SOL    HW3 3146   0.844   0.430   1.589 -0.9318 -1.9269 -0.5260
  773SOL    MW4 3147   0.901   0.389   1.640  0.0005  0.0001 -0.0000
  774SOL     OW 3148   1.128   0.531   1.512 -0.0411 -0.0253 -0.4065
  774SOL    HW2 3149   1.111   0.616   1.553 -0.4273  0.8052 -2.2427
  774SOL    HW3 3150   1.057   0.475   1.543  0.1554  0.3318  0.7254
  774SOL    MW4 3151   1.116   0.535   1.521  0.0005  0.0001 -0.0000
  775SOL     OW 3152   1.113   0.808   1.605  0.5400 -0.1295 -0.5995
  775SOL    HW2 3153   1.111   0.796   1.700 -0.8376 -0.1044 -0.6224
  775SOL    HW3 3154   1.193   0.857   1.589  1.7519 -1.7505  0.3558
  775SOL    MW4 3155   1.123   0.813   1.615  0.0005  0.0001 -0.0000
  776SOL     OW 3156   0.890   0.879   1.470 -0.3768  0.1046  0.2884
  776SOL    HW2 3157   0.977   0.865   1.506 -0.2228  1.3249  0.4089
  776SOL    HW3 3158   0.894   0.840   1.382  1.0595  2.3070 -0.6679
  776SOL    MW4 3159   0.902   0.872   1.463  0.0005  0.0001 -0.0000
  777SOL     OW 3160   0.877   1.135   1.619  0.3065 -0.4888  0.0210
  777SOL    HW2 3161   0.879   1.052   1.572  0.0502 -0.4566 -0.0483
  777SOL    HW3 3162   0.797   1.178   1.588  0.7010  0.0035 -0.3217
  777SOL    MW4 3163   0.867   1.130   1.609  0.0005  0.0001 -0.0000
  778SOL     OW 3164   1.112   1.318   1.532 -0.0724 -0.1592 -0.1101
  778SOL    HW2 3165   1.194   1.297   1.577 -0.3204  0.0680  0.4531
  778SOL    HW3 3166   1.045   1.272   1.582 -0.4692  0.9161  0.3620
  778SOL    MW4 3167   1.114   1.309   1.545  0.0005  0.0001 -0.0000
  779SOL     OW 3168   1.093   1.578   1.617  0.1245 -0.2966  0.2371
  779SOL    HW2 3169   1.164   1.623   1.571 -0.0447  0.2330  0.4906
  779SOL    HW3 3170   1.090   1.491   1.577  1.1403 -0.4399  0.4576
  779SOL    MW4 3171   1.102   1.572   1.606  0.0005  0.0001 -0.0000
  780SOL     OW 3172   0.850   1.675   1.506 -0.4139  0.4061  0.1873
  780SOL    HW2 3173   0.933   1.648   1.545 -0.3095  0.4261 -0.0224
  780SOL    HW3 3174   0.868   1.680   1.412 -0.8834 -0.4472  0.0473
  780SOL    MW4 3175   0.863   1.672   1.499  0.0005  0.0001 -0.0000
  781SOL     OW 3176   0.872   1.942   1.606  0.4595  0.1952  0.2676
  781SOL    HW2 3177   0.958   1.980   1.586  0.3322  0.6232  0.5162
  781SOL    HW3 3178   0.875   1.854   1.568  0.8718  0.3432 -0.0479
  781SOL    MW4 3179   0.884   1.935   1.598  0.0005  0.0001 -0.0000
  782SOL     OW 3180   1.118   2.072   1.526 -0.3442  0.5116 -0.6051
  782SOL    HW2 3181   1.203   2.037   1.551 -0.9193 -0.7520 -0.3599
  782SOL    HW3 3182   1.117   2.161   1.560  0.2660  0.0019  0.7827
  782SOL    MW4 3183   1.129   2.079   1.534  0.0005  0.0001 -0.0000
  783SOL     OW 3184   1.082   2.330   1.630 -0.2417  0.0552  0.2934
  783SOL    HW2 3185   1.149   2.385   1.590  0.4423 -1.6392 -0.9514
  783SOL    HW3 3186   1.002   2.352   1.583  0.2337 -0.7311 -0.9085
  783SOL    MW4 3187   1.080   2.340   1.619  0.0005  0.0001 -0.0000
  784SOL     OW 3188   0.852   2.451   1.494  0.1063  0.1948  0.4252
  784SOL    HW2 3189   0.856   2.542   1.525  0.0763  0.2233  0.3454
  784SOL    HW3 3190   0.774   2.415   1.536  0.6852 -0.0996  1.2756
  784SOL    MW4 3191   0.842   2.458   1.504  0.0005  0.0001 -0.0000
  785SOL     OW 3192   0.884   2.709   1.607 -0.5323 -0.1028 -0.0905
  785SOL    HW2 3193   0.886   2.700   1.702  0.3771 -1.3944 -0.2129
  785SOL    HW3 3194   0.801   2.752   1.588 -0.2566  1.0980  1.3574
  785SOL    MW4 3195   0.873   2.714   1.617  0.0005  0.0001 -0.0000
  786SOL     OW 3196   1.114   2.819   1.519  0.5713 -0.1464  0.1678
  786SOL    HW2 3197   1.093   2.912   1.525  0.8674 -0.0056 -0.8542
  786SOL    HW3 3198   1.035   2.774   1.549  0.6295  0.4367  1.2134
  786SOL    MW4 3199   1.101   2.825   1.524  0.0005  0.0001 -0.0000
  787SOL     OW 3200   1.121   3.091   1.594 -0.2820 -0.2681  0.0279
  787SOL    HW2 3201   1.136   3.095   1.688 -2.2884  1.9334  0.3013
  787SOL    HW3 3202   1.206   3.113   1.555  0.1326  0.5111  1.3431
  787SOL    MW4 3203   1.134   3.094   1.601  0.0005  0.0001 -0.0000
  788SOL     OW 3204   0.908   3.238   1.503  0.0319 -0.0063  0.2971
  788SOL    HW2 3205   0.987   3.204   1.544  0.9126  0.3738 -1.0421
  788SOL    HW3 3206   0.914   3.208   1.412 -0.7954  0.9806 -0.0888
  788SOL    MW4 3207   0.919   3.230   1.496  0.0005  0.0001 -0.0000
  789SOL     OW 3208   0.874   3.503   1.596  0.2998  0.0842  0.0288
  789SOL    HW2 3209   0.950   3.550   1.561  0.3754 -0.9526 -1.2571
  789SOL    HW3 3210   0.888   3.412   1.568 -2.3425  0.2070 -1.8592
  789SOL    MW4 3211   0.886   3.497   1.588  0.0005  0.0001 -0.0000
  790SOL     OW 3212   1.107   3.629   1.468  0.0001  0.2884  0.2617
  790SOL    HW2 3213   1.179   3.572   1.495  1.2904  0.9612 -1.6564
  790SOL    HW3 3214   1.106   3.623   1.373 -2.8927 -0.1678  0.2752
  790SOL    MW4 3215   1.116   3.621   1.459  0.0005  0.0001 -0.0000
  791SOL     OW 3216   1.090   3.875   1.591  0.5504  0.0296  0.2827
  791SOL    HW2 3217   1.176   3.914   1.576  0.8842  0.0731  2.2042
  791SOL    HW3 3218   1.093   3.791   1.545  0.3354  1.5945 -2.6781
  791SOL    MW4 3219   1.102   3.869   1.583  0.0005  0.0001 -0.0000
  792SOL     OW 3220   0.861   4.015   1.477  0.1370 -0.5241 -0.1096
  792SOL    HW2 3221   0.861   4.108   1.502 -0.9204 -0.5861  0.1410
  792SOL    HW3 3222   0.935   3.978   1.524 -0.2018 -0.0645  0.8008
  792SOL    MW4 3223   0.871   4.022   1.486  0.0005  0.0001 -0.0000
  793SOL     OW 3224   0.902   4.257   1.604  0.1732  0.2807  0.2187
  793SOL    HW2 3225   0.914   4.263   1.699 -0.5023 -0.4414  0.3544
  793SOL    HW3 3226   0.819   4.302   1.587  0.1952  0.2398 -0.0002
  793SOL    MW4 3227   0.893   4.264   1.614  0.0005  0.0001 -0.0000
  794SOL     OW 3228   1.128   4.387   1.500  0.2676  0.2871  0.3102
  794SOL    HW2 3229   1.051   4.340   1.532  0.6355  0.1881  1.0602
  794SOL    HW3 3230   1.122   4.474   1.540  0.6772  0.1971  0.5685
  794SOL    MW4 3231   1.117   4.392   1.510  0.0005  0.0001 -0.0000
  795SOL     OW 3232   1.537   4.657   1.567  0.3684 -0.1998  0.1250
  795SOL    HW2 3233   1.540   4.656   1.663 -0.9142 -0.8887  0.1731
  795SOL    HW3 3234   1.456   4.704   1.547  0.1591 -0.8692 -0.6054
  795SOL    MW4 3235   1.527   4.663   1.577  0.0005  0.0001 -0.0000
  796SOL     OW 3236   1.299   0.137   1.487 -0.4169  0.0669 -0.4130
  796SOL    HW2 3237   1.309   0.222   1.529  1.3095 -0.0824 -0.4798
  796SOL    HW3 3238   1.308   0.155   1.393  0.5003 -0.2506 -0.3935
  796SOL    MW4 3239   1.301   0.151   1.480  0.0005  0.0001 -0.0000
  797SOL     OW 3240   1.343   0.377   1.594  0.6675 -0.2823 -0.2503
  797SOL    HW2 3241   1.425   0.416   1.564  0.2052 -0.6524 -2.0568
  797SOL    HW3 3242   1.275   0.438   1.564  0.1988 -0.5991  0.1609
  797SOL    MW4 3243   1.345   0.390   1.586  0.0005  0.0001 -0.0000
  798SOL     OW 3244   1.567   0.519   1.488 -0.5261  0.1445 -0.2070
  798SOL    HW2 3245   1.637   0.484   1.543 -0.0567  1.2556 -0.0852
  798SOL    HW3 3246   1.604   0.523   1.400  0.5622  3.3642  0.3294
  798SOL    MW4 3247   1.581   0.515   1.484  0.0005  0.0001 -0.0000
  799SOL     OW 3248   1.585   0.806   1.571 -0.0089 -0.2974 -0.2326
  799SOL    HW2 3249   1.573   0.795   1.665  0.6262  0.6484 -0.0324
  799SOL    HW3 3250   1.564   0.720   1.534 -2.0952 -0.1661  0.5852
  799SOL    MW4 3251   1.581   0.793   1.579  0.0005  0.0001 -0.0000
  800SOL     OW 3252   1.345   0.963   1.517  0.2658  0.7614  0.2072
  800SOL    HW2 3253   1.424   0.919   1.550  1.8291  2.2289 -1.4640
  800SOL    HW3 3254   1.347   0.948   1.423 -2.7936 -1.2348  0.3917
  800SOL    MW4 3255   1.356   0.955   1.509  0.0005  0.0001 -0.0000
  801SOL     OW 3256   1.348   1.235   1.623 -0.2786 -0.1323  0.4933
  801SOL    HW2 3257   1.354   1.215   1.716 -0.6137 -0.4535  0.4455
  801SOL    HW3 3258   1.357   1.150   1.579 -1.6775 -0.1918  0.2956
  801SOL    MW4 3259   1.350   1.221   1.630  0.0005  0.0001 -0.0000
  802SOL     OW 3260   1.559   1.376   1.488  0.0812 -0.1489 -0.2081
  802SOL    HW2 3261   1.485   1.333   1.531 -0.7404  0.3081 -1.1328
  802SOL    HW3 3262   1.547   1.355   1.395  0.7510  0.4722 -0.4343
  802SOL    MW4 3263   1.548   1.368   1.481  0.0005  0.0001 -0.0000
  803SOL     OW 3264   1.531   1.625   1.633 -0.1241 -0.0955 -0.0152
  803SOL    HW2 3265   1.524   1.611   1.727  0.3156  0.8041  0.1581
  803SOL    HW3 3266   1.562   1.541   1.598 -0.6265 -0.5375  0.5932
  803SOL    MW4 3267   1.534   1.612   1.641  0.0005  0.0001 -0.0000
  804SOL     OW 3268   1.301   1.721   1.501  0.5756 -0.1075 -0.2070
  804SOL    HW2 3269   1.374   1.671   1.538 -1.2051 -3.1110 -0.5897
  804SOL    HW3 3270   1.308   1.708   1.406  0.2797  0.6538 -0.3384
  804SOL    MW4 3271   1.312   1.713   1.493  0.0005  0.0001 -0.0000
  805SOL     OW 3272   1.354   1.964   1.605  0.1714 -0.1649  0.2734
  805SOL    HW2 3273   1.373   1.953   1.698  2.0031  0.0537 -0.0562
  805SOL    HW3 3274   1.358   1.875   1.570 -1.3040 -0.3445  0.5294
  805SOL    MW4 3275   1.357   1.951   1.613  0.0005  0.0001 -0.0000
  806SOL     OW 3276   1.574   2.073   1.486  0.3232  0.3814 -0.4819
  806SOL    HW2 3277   1.499   2.026   1.523  2.4588 -2.3172  0.5858
  806SOL    HW3 3278   1.564   2.062   1.391 -0.1357 -0.7788 -0.3113
  806SOL    MW4 3279   1.563   2.065   1.478  0.0005  0.0001 -0.0000
  807SOL     OW 3280   1.522   2.326   1.595 -0.3117 -0.2246  0.1090
  807SOL    HW2 3281   1.607   2.370   1.593 -0.7036  0.5922  1.0622
  807SOL    HW3 3282   1.536   2.245   1.546  0.6261  0.5874 -0.9969
  807SOL    MW4 3283   1.535   2.321   1.588  0.0005  0.0001 -0.0000
  808SOL     OW 3284   1.302   2.462   1.510 -0.0562  0.4519 -0.6179
  808SOL    HW2 3285   1.308   2.554   1.537 -0.5476  0.3440 -0.1321
  808SOL    HW3 3286   1.375   2.419   1.554  0.0485  0.5694 -0.6772
  808SOL    MW4 3287   1.312   2.468   1.519  0.0005  0.0001 -0.0000
  809SOL     OW 3288   1.332   2.701   1.652  0.0997  0.3302  0.1615
  809SOL    HW2 3289   1.388   2.746   1.589  0.8350 -2.2409 -1.0857
  809SOL    HW3 3290   1.244   2.735   1.634  0.4669  0.4470 -1.5094
  809SOL    MW4 3291   1.328   2.711   1.641  0.0005  0.0001 -0.0000
  810SOL     OW 3292   1.521   2.831   1.500 -0.3082 -0.3215 -0.5043
  810SOL    HW2 3293   1.595   2.787   1.543 -0.0770 -0.5678 -1.1534
  810SOL    HW3 3294   1.542   2.829   1.407 -1.0566 -0.2431 -0.6803
  810SOL    MW4 3295   1.534   2.825   1.493  0.0005  0.0001 -0.0000
  811SOL     OW 3296   1.551   3.081   1.599  0.0269  0.2785 -0.4110
  811SOL    HW2 3297   1.631   3.125   1.570 -0.0364  0.7581  0.1276
  811SOL    HW3 3298   1.555   2.994   1.559  1.0064  0.1642 -0.0742
  811SOL    MW4 3299   1.562   3.075   1.590  0.0005  0.0001 -0.0000
  812SOL     OW 3300   1.336   3.203   1.486  0.1738  0.2382  0.1116
  812SOL    HW2 3301   1.342   3.292   1.521 -0.4040  0.3570 -0.0825
  812SOL    HW3 3302   1.411   3.157   1.524  0.4495  0.7937  0.2497
  812SOL    MW4 3303   1.347   3.209   1.496  0.0005  0.0001 -0.0000
  813SOL     OW 3304   1.311   3.473   1.578  0.2010 -0.2651  0.2746
  813SOL    HW2 3305   1.316   3.471   1.674  0.9952  0.7865  0.2626
  813SOL    HW3 3306   1.395   3.510   1.550  0.1791 -1.0398 -0.8552
  813SOL    MW4 3307   1.323   3.478   1.587  0.0005  0.0001 -0.0000
  814SOL     OW 3308   1.541   3.568   1.498  0.0743 -0.0255  0.2342
  814SOL    HW2 3309   1.541   3.662   1.517 -0.9896 -0.0922  0.6088
  814SOL    HW3 3310   1.549   3.562   1.403 -0.6004  0.4664  0.1446
  814SOL    MW4 3311   1.542   3.580   1.488  0.0005  0.0001 -0.0000
  815SOL     OW 3312   1.586   3.832   1.591 -0.1495 -0.3532  0.3831
  815SOL    HW2 3313   1.596   3.848   1.685  0.1712  0.3529  0.2324
  815SOL    HW3 3314   1.511   3.885   1.566  0.3812  0.2462  0.0478
  815SOL    MW4 3315   1.577   3.841   1.600  0.0005  0.0001 -0.0000
  816SOL     OW 3316   1.363   3.966   1.526 -0.0766  0.2565 -0.2233
  816SOL    HW2 3317   1.361   4.051   1.569 -2.1683  0.3434 -0.4462
  816SOL    HW3 3318   1.333   3.983   1.437 -0.0666 -0.6397 -0.4049
  816SOL    MW4 3319   1.359   3.980   1.520  0.0005  0.0001 -0.0000
  817SOL     OW 3320   1.347   4.230   1.623  0.4879 -0.5453 -0.1957
  817SOL    HW2 3321   1.422   4.276   1.586 -0.2250  0.6999 -0.1012
  817SOL    HW3 3322   1.270   4.275   1.588 -0.2068 -0.3941  1.4599
  817SOL    MW4 3323   1.347   4.242   1.613  0.0005  0.0001 -0.0000
  818SOL     OW 3324   1.531   4.384   1.510 -0.2674  0.5345 -0.4505
  818SOL    HW2 3325   1.612   4.347   1.545  0.7632  0.2435 -3.0376
  818SOL    HW3 3326   1.541   4.478   1.523 -0.0161  0.4163  0.2514
  818SOL    MW4 3327   1.543   4.392   1.516  0.0005  0.0001 -0.0000
  819SOL     OW 3328   1.996   0.005   1.602 -0.0299  0.3300  0.7379
  819SOL    HW2 3329   1.999   0.003   1.698  0.7883  0.5929  0.7203
  819SOL    HW3 3330   1.925   0.066   1.582  0.5787  1.1965  1.1804
  819SOL    MW4 3331   1.987   0.013   1.612  0.0005  0.0001 -0.0000
  820SOL     OW 3332   1.778   0.153   1.543  0.1250 -0.1027 -0.0033
  820SOL    HW2 3333   1.700   0.103   1.569  1.3626 -0.8820  2.3784
  820SOL    HW3 3334   1.787   0.137   1.449 -2.3950 -0.2512 -0.2495
  820SOL    MW4 3335   1.769   0.144   1.534  0.0005  0.0001 -0.0000
  821SOL     OW 3336   1.786   0.432   1.652  0.1030  0.3483  0.4730
  821SOL    HW2 3337   1.856   0.470   1.599 -1.2063  0.1544 -1.4544
  821SOL    HW3 3338   1.786   0.339   1.627  0.4742 -0.0640  1.9711
  821SOL    MW4 3339   1.795   0.425   1.642  0.0005  0.0001 -0.0000
  822SOL     OW 3340   2.013   0.523   1.495 -0.2600  0.2421  0.2180
  822SOL    HW2 3341   2.102   0.492   1.510  0.0091  0.4562 -0.8940
  822SOL    HW3 3342   2.017   0.617   1.511 -0.0783  0.3952 -0.6984
  822SOL    MW4 3343   2.025   0.531   1.499  0.0005  0.0001 -0.0000
  823SOL     OW 3344   2.038   0.791   1.540 -0.1932  0.2199  0.0914
  823SOL    HW2 3345   2.120   0.837   1.522 -0.0589 -0.7536 -1.9179
  823SOL    HW3 3346   1.972   0.839   1.491 -0.6846  0.4599  0.9757
  823SOL    MW4 3347   2.040   0.803   1.531  0.0005  0.0001 -0.0000
  824SOL     OW 3348   1.781   0.971   1.453 -0.1138 -0.0395 -0.2332
  824SOL    HW2 3349   1.778   1.048   1.510  0.6047  0.0377 -0.2992
  824SOL    HW3 3350   1.708   0.917   1.483 -0.3642  0.4709  0.0915
  824SOL    MW4 3351   1.771   0.974   1.464  0.0005  0.0001 -0.0000
  825SOL     OW 3352   1.770   1.214   1.626 -0.0740 -0.0441  0.2508
  825SOL    HW2 3353   1.852   1.255   1.598  0.1584  0.6138  1.8396
  825SOL    HW3 3354   1.702   1.257   1.573  0.5457 -0.2394 -0.7143
  825SOL    MW4 3355   1.772   1.225   1.615  0.0005  0.0001 -0.0000
  826SOL     OW 3356   2.011   1.320   1.518  0.4390  0.1402  0.1613
  826SOL    HW2 3357   2.015   1.413   1.541  0.4412  0.0921  0.3515
  826SOL    HW3 3358   2.012   1.319   1.422 -3.7028  0.5480  0.0263
  826SOL    MW4 3359   2.012   1.332   1.508  0.0005  0.0001 -0.0000
  827SOL     OW 3360   2.032   1.600   1.617  0.1745  0.0145  0.1214
  827SOL    HW2 3361   2.108   1.627   1.565  0.7854  0.7410  1.3493
  827SOL    HW3 3362   1.958   1.643   1.575  0.4733 -0.4643 -0.9187
  827SOL    MW4 3363   2.032   1.609   1.605  0.0005  0.0001 -0.0000
  828SOL     OW 3364   1.779   1.704   1.507  0.2078 -0.0539 -0.0223
  828SOL    HW2 3365   1.697   1.679   1.550 -0.6660 -0.1641 -1.7046
  828SOL    HW3 3366   1.757   1.709   1.414  1.7256  1.4952 -0.3309
  828SOL    MW4 3367   1.765   1.701   1.500  0.0005  0.0001 -0.0000
  829SOL     OW 3368   1.822   1.982   1.580  0.4358  0.1844  0.5348
  829SOL    HW2 3369   1.822   1.890   1.553 -0.1657 -0.1493  1.6288
  829SOL    HW3 3370   1.739   2.017   1.547  1.0899  0.5966 -0.7059
  829SOL    MW4 3371   1.811   1.975   1.572  0.0005  0.0001 -0.0000
  830SOL     OW 3372   2.054   2.097   1.484 -0.3602  0.6294 -0.1542
  830SOL    HW2 3373   2.123   2.032   1.499 -0.1863  1.2428  1.8627
  830SOL    HW3 3374   1.975   2.055   1.518 -0.3507  1.2385  0.6308
  830SOL    MW4 3375   2.053   2.083   1.490  0.0005  0.0001 -0.0000
  831SOL     OW 3376   2.015   2.338   1.626 -0.2983 -0.3471  0.1249
  831SOL    HW2 3377   2.017   2.312   1.718 -2.1577  1.3568  0.6773
  831SOL    HW3 3378   2.026   2.256   1.578  1.5780 -1.1471  1.8453
  831SOL    MW4 3379   2.017   2.324   1.632  0.0005  0.0001 -0.0000
  832SOL     OW 3380   1.772   2.445   1.554 -0.2885 -0.6005  0.3392
  832SOL    HW2 3381   1.857   2.410   1.581  0.6183  1.8801  0.8372
  832SOL    HW3 3382   1.777   2.451   1.459 -0.1713 -1.1036  0.3131
  832SOL    MW4 3383   1.784   2.441   1.545  0.0005  0.0001 -0.0000
  833SOL     OW 3384   1.756   2.709   1.619 -0.3181  0.5746 -0.0265
  833SOL    HW2 3385   1.838   2.745   1.586  0.7970 -0.2821  1.7575
  833SOL    HW3 3386   1.760   2.616   1.595 -1.3791  0.7959 -1.0995
  833SOL    MW4 3387   1.767   2.702   1.612  0.0005  0.0001 -0.0000
  834SOL     OW 3388   1.975   2.817   1.502 -0.0120  0.1623  0.3207
  834SOL    HW2 3389   2.009   2.903   1.526 -1.2580  1.0569 -1.0435
  834SOL    HW3 3390   1.986   2.812   1.407  1.9722 -2.0543  0.6170
  834SOL    MW4 3391   1.981   2.828   1.493  0.0005  0.0001 -0.0000
  835SOL     OW 3392   2.007   3.078   1.595 -0.1625  0.1706  0.0666
  835SOL    HW2 3393   2.019   3.068   1.689  0.0039 -1.0501 -0.0752
  835SOL    HW3 3394   2.082   3.130   1.567  0.1439 -0.0288  0.5088
  835SOL    MW4 3395   2.018   3.084   1.604  0.0005  0.0001 -0.0000
  836SOL     OW 3396   1.780   3.205   1.490  0.5403 -0.0617  0.2539
  836SOL    HW2 3397   1.771   3.288   1.537 -0.5024 -1.1675  2.0664
  836SOL    HW3 3398   1.860   3.166   1.525  1.0237  0.1610 -0.5882
  836SOL    MW4 3399   1.789   3.211   1.501  0.0005  0.0001 -0.0000
  837SOL     OW 3400   1.801   3.463   1.588  0.6316 -0.1823  0.2965
  837SOL    HW2 3401   1.811   3.469   1.683  0.6855 -0.6442  0.3223
  837SOL    HW3 3402   1.713   3.496   1.570  0.2680 -0.9748  0.6038
  837SOL    MW4 3403   1.791   3.468   1.598  0.0005  0.0001 -0.0000
  838SOL     OW 3404   1.999   3.629   1.483  0.2701  0.5608  0.0092
  838SOL    HW2 3405   2.069   3.580   1.526 -0.2320  0.3016  0.5354
  838SOL    HW3 3406   1.919   3.583   1.507  0.0163  0.1400 -1.5811
  838SOL    MW4 3407   1.998   3.616   1.492  0.0005  0.0001 -0.0000
  839SOL     OW 3408   2.009   3.876   1.593 -0.5322  0.0527 -0.0300
  839SOL    HW2 3409   2.078   3.924   1.547  0.5840 -0.3334  1.2101
  839SOL    HW3 3410   2.009   3.789   1.552 -1.6180  0.6513 -1.3406
  839SOL    MW4 3411   2.018   3.871   1.582  0.0005  0.0001 -0.0000
  840SOL     OW 3412   1.798   4.014   1.481  0.3210 -0.1071 -0.1561
  840SOL    HW2 3413   1.874   3.984   1.531  0.7713  1.1196 -0.0890
  840SOL    HW3 3414   1.726   3.958   1.511  0.8861 -0.3135  0.8399
  840SOL    MW4 3415   1.799   4.003   1.492  0.0005  0.0001 -0.0000
  841SOL     OW 3416   1.761   4.262   1.627  0.1722  0.1717 -0.1319
  841SOL    HW2 3417   1.841   4.307   1.599  0.4504 -0.3956 -0.2533
  841SOL    HW3 3418   1.761   4.180   1.578 -0.1714 -0.1037  0.3242
  841SOL    MW4 3419   1.772   4.257   1.617  0.0005  0.0001 -0.0000
  842SOL     OW 3420   1.979   4.406   1.504 -0.2592  0.3573  0.0861
  842SOL    HW2 3421   2.052   4.352   1.534 -0.5670  0.2115  0.5789
  842SOL    HW3 3422   1.996   4.492   1.543  1.1491  1.1078 -2.0906
  842SOL    MW4 3423   1.991   4.410   1.513  0.0005  0.0001 -0.0000
  843SOL     OW 3424   2.471   4.648   1.597 -0.3352  0.3080 -0.1817
  843SOL    HW2 3425   2.479   4.677   1.688  0.6094  1.7362 -0.7022
  843SOL    HW3 3426   2.393   4.693   1.564  0.1607  0.9606 -0.4904
  843SOL    MW4 3427   2.462   4.658   1.605  0.0005  0.0001 -0.0000
  844SOL     OW 3428   2.231   0.107   1.489  0.5265 -0.0949  0.0826
  844SOL    HW2 3429   2.161   0.050   1.522  0.5087 -1.0940 -1.5986
  844SOL    HW3 3430   2.235   0.087   1.395  1.0509  2.1323 -0.3898
  844SOL    MW4 3431   2.222   0.097   1.481  0.0005  0.0001 -0.0000
  845SOL     OW 3432   2.247   0.398   1.553  0.8376 -0.5660  0.2565
  845SOL    HW2 3433   2.243   0.386   1.648  1.6519 -1.0706  0.2335
  845SOL    HW3 3434   2.241   0.309   1.518 -0.9790 -0.2677 -0.2294
  845SOL    MW4 3435   2.246   0.385   1.561  0.0005  0.0001 -0.0000
  846SOL     OW 3436   2.499   0.529   1.487  0.2237 -0.3761  0.0369
  846SOL    HW2 3437   2.573   0.474   1.513 -0.4044 -1.5446 -0.6020
  846SOL    HW3 3438   2.422   0.482   1.519 -0.2456  0.8969  0.8122
  846SOL    MW4 3439   2.499   0.516   1.495  0.0005  0.0001 -0.0000
  847SOL     OW 3440   2.506   0.779   1.576  0.0397  0.3004 -0.0115
  847SOL    HW2 3441   2.420   0.810   1.548  0.4994  2.1044  0.5110
  847SOL    HW3 3442   2.507   0.686   1.552 -2.9353 -0.3488  2.0649
  847SOL    MW4 3443   2.495   0.771   1.569  0.0005  0.0001 -0.0000
  848SOL     OW 3444   2.278   0.912   1.475  0.3227 -0.4041  0.2401
  848SOL    HW2 3445   2.280   0.997   1.518 -0.1576 -0.5980  0.6509
  848SOL    HW3 3446   2.292   0.932   1.382 -1.5219  0.2904  0.0885
  848SOL    MW4 3447   2.280   0.926   1.468  0.0005  0.0001 -0.0000
  849SOL     OW 3448   2.258   1.180   1.590 -0.1579  0.0892  0.0746
  849SOL    HW2 3449   2.260   1.176   1.686 -0.6853 -2.9551  0.0085
  849SOL    HW3 3450   2.180   1.232   1.570 -1.8907 -1.9116  1.3254
  849SOL    MW4 3451   2.248   1.186   1.600  0.0005  0.0001 -0.0000
  850SOL     OW 3452   2.471   1.312   1.477  0.0933 -0.2784  0.2035
  850SOL    HW2 3453   2.394   1.269   1.515  1.7214 -3.0677  0.4879
  850SOL    HW3 3454   2.459   1.305   1.382 -0.8813  0.9734  0.2222
  850SOL    MW4 3455   2.459   1.305   1.470  0.0005  0.0001 -0.0000
  851SOL     OW 3456   2.491   1.543   1.623 -0.2304  0.0411  0.0282
  851SOL    HW2 3457   2.566   1.597   1.600  0.3972 -0.0250  1.8243
  851SOL    HW3 3458   2.497   1.467   1.566  0.1307  0.8159 -0.9754
  851SOL    MW4 3459   2.502   1.540   1.612  0.0005  0.0001 -0.0000
  852SOL     OW 3460   2.269   1.648   1.483  0.0082  0.0603  0.2039
  852SOL    HW2 3461   2.351   1.610   1.516  0.5331  0.5438 -0.5270
  852SOL    HW3 3462   2.281   1.652   1.388 -0.8151  0.2577  0.1050
  852SOL    MW4 3463   2.281   1.644   1.475  0.0005  0.0001 -0.0000
  853SOL     OW 3464   2.260   1.912   1.554 -0.2164 -0.5914  0.1156
  853SOL    HW2 3465   2.261   1.925   1.649  1.2036 -0.6569  0.1207
  853SOL    HW3 3466   2.249   1.818   1.542 -0.6275 -0.5559  0.2097
  853SOL    MW4 3467   2.259   1.901   1.565  0.0005  0.0001 -0.0000
  854SOL     OW 3468   2.494   2.054   1.494 -0.0857  0.2823  0.0133
  854SOL    HW2 3469   2.425   1.999   1.532  0.1583  0.2674  0.4376
  854SOL    HW3 3470   2.481   2.047   1.399 -0.7044  0.3279  0.0932
  854SOL    MW4 3471   2.483   2.046   1.487  0.0005  0.0001 -0.0000
  855SOL     OW 3472   2.476   2.331   1.581 -0.4387 -0.3512  0.4050
  855SOL    HW2 3473   2.456   2.326   1.674 -0.5775 -3.0296  0.2669
  855SOL    HW3 3474   2.479   2.240   1.552 -0.9338  0.4540 -2.3276
  855SOL    MW4 3475   2.474   2.318   1.589  0.0005  0.0001 -0.0000
  856SOL     OW 3476   2.232   2.449   1.503  0.0253  0.4634  0.4881
  856SOL    HW2 3477   2.319   2.417   1.526 -0.5180 -2.0521 -0.7027
  856SOL    HW3 3478   2.172   2.397   1.556 -0.8707  0.0479 -0.8945
  856SOL    MW4 3479   2.236   2.438   1.513  0.0005  0.0001 -0.0000
  857SOL     OW 3480   2.233   2.717   1.570  0.8837  0.3032 -0.0744
  857SOL    HW2 3481   2.234   2.626   1.539 -0.3015  0.0851  0.4919
  857SOL    HW3 3482   2.144   2.747   1.552  0.7122  0.7488  1.4580
  857SOL    MW4 3483   2.221   2.709   1.564  0.0005  0.0001 -0.0000
  858SOL     OW 3484   2.452   2.847   1.488 -0.1744  0.3045  0.1448
  858SOL    HW2 3485   2.454   2.916   1.554  0.4507  1.1157 -0.7035
  858SOL    HW3 3486   2.381   2.789   1.516  0.1114  0.6123  1.5425
  858SOL    MW4 3487   2.443   2.848   1.500  0.0005  0.0001 -0.0000
  859SOL     OW 3488   2.426   3.082   1.618  0.1556  0.3196  0.5535
  859SOL    HW2 3489   2.511   3.125   1.605  0.1243 -0.8026 -4.1486
  859SOL    HW3 3490   2.362   3.144   1.583 -0.5362 -0.6581  0.0554
  859SOL    MW4 3491   2.429   3.096   1.612  0.0005  0.0001 -0.0000
  860SOL     OW 3492   2.225   3.236   1.509  0.0565 -0.0259 -0.1433
  860SOL    HW2 3493   2.211   3.325   1.542  2.8772  0.2991  0.3104
  860SOL    HW3 3494   2.231   3.247   1.414  2.4003  0.6089  0.0465
  860SOL    MW4 3495   2.224   3.249   1.501  0.0005  0.0001 -0.0000
  861SOL     OW 3496   2.213   3.500   1.615 -0.3588  0.2047 -0.5337
  861SOL    HW2 3497   2.242   3.508   1.706 -0.2023  1.9839 -0.7262
  861SOL    HW3 3498   2.287   3.532   1.563 -0.6191 -0.3846 -1.2768
  861SOL    MW4 3499   2.227   3.505   1.620  0.0005  0.0001 -0.0000
  862SOL     OW 3500   2.451   3.571   1.483 -0.0504 -0.2725  0.4971
  862SOL    HW2 3501   2.529   3.537   1.527  1.9297  0.6144 -2.1915
  862SOL    HW3 3502   2.443   3.661   1.514  1.0120  0.1724 -0.4850
  862SOL    MW4 3503   2.460   3.578   1.493  0.0005  0.0001 -0.0000
  863SOL     OW 3504   2.432   3.835   1.568 -0.2779  0.4898  0.2608
  863SOL    HW2 3505   2.423   3.833   1.663  1.3514  0.7741  0.4426
  863SOL    HW3 3506   2.507   3.893   1.553  0.0497 -0.2849 -1.1470
  863SOL    MW4 3507   2.441   3.842   1.579  0.0005  0.0001 -0.0000
  864SOL     OW 3508   2.238   4.026   1.501  0.4190 -0.1436 -0.3849
  864SOL    HW2 3509   2.301   3.963   1.535  3.1097  2.1271 -0.9788
  864SOL    HW3 3510   2.250   4.023   1.406  0.7478  1.3973 -0.4024
  864SOL    MW4 3511   2.248   4.017   1.493  0.0005  0.0001 -0.0000
  865SOL     OW 3512   2.194   4.272   1.633 -0.3069  0.0662 -0.2338
  865SOL    HW2 3513   2.262   4.325   1.591 -0.4004 -0.8482 -1.5613
  865SOL    HW3 3514   2.192   4.191   1.583 -1.4320 -0.4712  0.6527
  865SOL    MW4 3515   2.203   4.268   1.621  0.0005  0.0001 -0.0000
  866SOL     OW 3516   2.395   4.405   1.517 -0.0649 -0.5281 -0.1790
  866SOL    HW2 3517   2.416   4.496   1.538 -1.4228  0.2863 -2.1725
  866SOL    HW3 3518   2.416   4.397   1.424 -0.0684 -2.2300 -0.0437
  866SOL    MW4 3519   2.401   4.416   1.508  0.0005  0.0001 -0.0000
  867SOL     OW 3520   2.934   4.642   1.543 -0.1176  0.3787 -0.1357
  867SOL    HW2 3521   2.933   4.636   1.638 -1.5375  2.4403  0.0081
  867SOL    HW3 3522   2.849   4.680   1.520  0.8980  1.5636 -2.0880
  867SOL    MW4 3523   2.923   4.646   1.553  0.0005  0.0001 -0.0000
  868SOL     OW 3524   2.711   0.122   1.488 -0.1069  0.1265 -0.3900
  868SOL    HW2 3525   2.708   0.211   1.522  0.3019  0.2708 -0.7253
  868SOL    HW3 3526   2.631   0.081   1.521 -0.2054  0.5611 -0.0833
  868SOL    MW4 3527   2.700   0.128   1.497  0.0005  0.0001 -0.0000
  869SOL     OW 3528   2.709   0.381   1.605 -0.4297 -0.4292  0.2733
  869SOL    HW2 3529   2.716   0.377   1.700 -1.6807 -0.6188  0.3610
  869SOL    HW3 3530   2.793   0.417   1.577 -0.2419  0.1088  1.4806
  869SOL    MW4 3531   2.721   0.385   1.614  0.0005  0.0001 -0.0000
  870SOL     OW 3532   2.912   0.515   1.462 -0.3033 -0.1923 -0.0703
  870SOL    HW2 3533   2.910   0.605   1.496  0.1516 -0.6266  1.1388
  870SOL    HW3 3534   2.910   0.525   1.367 -1.3852  1.0644  0.0715
  870SOL    MW4 3535   2.911   0.528   1.454  0.0005  0.0001 -0.0000
  871SOL     OW 3536   2.922   0.770   1.570  0.2091  0.2732 -0.0355
  871SOL    HW2 3537   2.913   0.763   1.665 -0.3873  0.0655 -0.1051
  871SOL    HW3 3538   2.865   0.843   1.546 -0.0398 -0.0046 -0.2930
  871SOL    MW4 3539   2.913   0.779   1.579  0.0005  0.0001 -0.0000
  872SOL     OW 3540   2.726   0.949   1.485  0.2628 -0.1277 -0.1509
  872SOL    HW2 3541   2.659   0.885   1.511  1.3292 -0.8577  0.8402
  872SOL    HW3 3542   2.756   0.919   1.399 -0.9953  0.4645 -0.8092
  872SOL    MW4 3543   2.721   0.937   1.477  0.0005  0.0001 -0.0000
  873SOL     OW 3544   2.702   1.230   1.593 -0.1982  0.1258  0.2249
  873SOL    HW2 3545   2.712   1.139   1.566  0.3211  0.4836 -0.8137
  873SOL    HW3 3546   2.632   1.264   1.538  1.2985  1.0367 -1.1631
  873SOL    MW4 3547   2.694   1.222   1.582  0.0005  0.0001 -0.0000
  874SOL     OW 3548   2.955   1.333   1.490  0.3408  0.1747  0.1854
  874SOL    HW2 3549   3.022   1.273   1.523  0.6206  2.0035  3.1314
  874SOL    HW3 3550   2.872   1.293   1.516  0.5102  0.7771  1.7080
  874SOL    MW4 3551   2.953   1.320   1.498  0.0005  0.0001 -0.0000
  875SOL     OW 3552   2.929   1.587   1.601  0.1171  0.0535 -0.1906
  875SOL    HW2 3553   2.850   1.625   1.562 -0.5348  0.1084  1.1522
  875SOL    HW3 3554   2.939   1.502   1.558 -0.5238  0.1664 -0.5654
  875SOL    MW4 3555   2.920   1.581   1.590  0.0005  0.0001 -0.0000
  876SOL     OW 3556   2.713   1.698   1.477 -0.2442  0.0409  0.2115
  876SOL    HW2 3557   2.725   1.790   1.502  0.1438  0.2774 -0.8125
  876SOL    HW3 3558   2.682   1.702   1.387  0.7407 -0.8648 -0.1763
  876SOL    MW4 3559   2.710   1.711   1.468  0.0005  0.0001 -0.0000
  877SOL     OW 3560   2.758   1.976   1.562  0.9910  0.3301 -0.4252
  877SOL    HW2 3561   2.757   1.955   1.655 -0.0273 -4.5712 -1.4028
  877SOL    HW3 3562   2.672   2.015   1.545 -0.1682 -1.9105  0.1101
  877SOL    MW4 3563   2.747   1.978   1.572  0.0005  0.0001 -0.0000
  878SOL     OW 3564   2.973   2.124   1.498  0.2459 -0.3394  0.0427
  878SOL    HW2 3565   2.963   2.209   1.541  0.6950  0.1249 -0.7608
  878SOL    HW3 3566   2.890   2.079   1.514  0.1387  0.1089  0.7696
  878SOL    MW4 3567   2.961   2.129   1.506  0.0005  0.0001 -0.0000
  879SOL     OW 3568   2.925   2.357   1.649  0.3302  0.1265  0.1801
  879SOL    HW2 3569   2.910   2.337   1.741  1.1270 -0.0969  0.2677
  879SOL    HW3 3570   2.841   2.390   1.617  0.2361  0.8458  1.1539
  879SOL    MW4 3571   2.912   2.359   1.657  0.0005  0.0001 -0.0000
  880SOL     OW 3572   2.701   2.457   1.474  0.1754  0.0247 -0.4412
  880SOL    HW2 3573   2.697   2.543   1.517 -0.3338 -0.5069  0.5997
  880SOL    HW3 3574   2.623   2.411   1.506  1.2322 -1.3642  0.1840
  880SOL    MW4 3575   2.690   2.462   1.484  0.0005  0.0001 -0.0000
  881SOL     OW 3576   2.691   2.718   1.587 -0.0663 -0.4054  0.0291
  881SOL    HW2 3577   2.762   2.780   1.569  0.3096 -1.1206 -0.9889
  881SOL    HW3 3578   2.611   2.765   1.562  0.1742 -0.1235 -0.2083
  881SOL    MW4 3579   2.690   2.732   1.581  0.0005  0.0001 -0.0000
  882SOL     OW 3580   2.906   2.862   1.539  0.2686 -0.0539 -0.2704
  882SOL    HW2 3581   2.978   2.814   1.580  0.6861  0.6578 -0.1637
  882SOL    HW3 3582   2.908   2.948   1.580 -0.6319 -0.0203 -0.2863
  882SOL    MW4 3583   2.916   2.867   1.550  0.0005  0.0001 -0.0000
  883SOL     OW 3584   2.896   3.117   1.628  0.0622 -0.2109  0.1232
  883SOL    HW2 3585   2.901   3.141   1.721  0.1649  1.3689 -0.2728
  883SOL    HW3 3586   2.972   3.159   1.589 -1.3656  1.2736 -1.1274
  883SOL    MW4 3587   2.907   3.126   1.635  0.0005  0.0001 -0.0000
  884SOL     OW 3588   2.647   3.199   1.529  0.2448  0.1240  0.0052
  884SOL    HW2 3589   2.737   3.167   1.533 -0.2767 -1.5093 -0.8429
  884SOL    HW3 3590   2.632   3.216   1.436 -0.0882  1.1062  0.2336
  884SOL    MW4 3591   2.657   3.197   1.517  0.0005  0.0001 -0.0000
  885SOL     OW 3592   2.682   3.452   1.627 -0.3625  0.1578  0.4931
  885SOL    HW2 3593   2.659   3.462   1.719  1.7049  0.5571  0.9878
  885SOL    HW3 3594   2.670   3.359   1.609  0.1954 -0.1045  1.4443
  885SOL    MW4 3595   2.677   3.441   1.637  0.0005  0.0001 -0.0000
  886SOL     OW 3596   2.894   3.601   1.545 -0.3535  0.4131 -0.0899
  886SOL    HW2 3597   2.830   3.546   1.590  1.8277 -1.9206  0.2736
  886SOL    HW3 3598   2.891   3.572   1.454  0.6008 -0.1365  0.0468
  886SOL    MW4 3599   2.885   3.590   1.539  0.0005  0.0001 -0.0000
  887SOL     OW 3600   2.879   3.887   1.586 -0.3225 -0.1444 -0.0341
  887SOL    HW2 3601   2.796   3.919   1.549  0.6073  1.5181 -0.7531
  887SOL    HW3 3602   2.881   3.794   1.565 -1.6931 -0.0497 -0.6164
  887SOL    MW4 3603   2.868   3.879   1.578  0.0005  0.0001 -0.0000
  888SOL     OW 3604   2.657   4.007   1.483  0.0274  0.6345 -0.0329
  888SOL    HW2 3605   2.656   4.094   1.522  0.2685  0.5357  0.1950
  888SOL    HW3 3606   2.656   4.023   1.389 -0.8357  0.8694  0.0115
  888SOL    MW4 3607   2.657   4.021   1.476  0.0005  0.0001 -0.0000
  889SOL     OW 3608   2.639   4.276   1.588 -0.1055 -0.2748 -0.4083
  889SOL    HW2 3609   2.715   4.320   1.551 -0.1511  0.3194  0.1950
  889SOL    HW3 3610   2.565   4.331   1.562 -0.2047 -0.2194 -0.0095
  889SOL    MW4 3611   2.639   4.289   1.580  0.0005  0.0001 -0.0000
  890SOL     OW 3612   2.856   4.395   1.467 -0.2156 -0.0334  0.2537
  890SOL    HW2 3613   2.883   4.484   1.489  1.0891 -0.1321 -0.8462
  890SOL    HW3 3614   2.849   4.395   1.371 -0.7241 -0.9671  0.2820
  890SOL    MW4 3615   2.859   4.407   1.457  0.0005  0.0001 -0.0000
  891SOL     OW 3616   3.331   4.664   1.590 -0.1305 -0.0456  0.1834
  891SOL    HW2 3617   3.411   4.699   1.550 -0.4732 -0.1249 -0.5796
  891SOL    HW3 3618   3.330   4.572   1.565  0.0944 -0.2992  1.0973
  891SOL    MW4 3619   3.341   4.656   1.581  0.0005  0.0001 -0.0000
  892SOL     OW 3620   3.133   0.124   1.432  0.2806  0.3871  0.4434
  892SOL    HW2 3621   3.205   0.082   1.479  0.3593 -2.5663 -2.1548
  892SOL    HW3 3622   3.055   0.077   1.460 -0.0883  0.7643  0.0612
  892SOL    MW4 3623   3.132   0.112   1.442  0.0005  0.0001 -0.0000
  893SOL     OW 3624   3.150   0.385   1.536 -0.4802 -0.3179  0.2672
  893SOL    HW2 3625   3.140   0.296   1.502  0.7196 -0.2105 -0.3985
  893SOL    HW3 3626   3.066   0.428   1.517 -0.1981 -0.5709 -1.6447
  893SOL    MW4 3627   3.138   0.379   1.529  0.0005  0.0001 -0.0000
  894SOL     OW 3628   3.392   0.536   1.499  0.4764 -0.2342 -0.0573
  894SOL    HW2 3629   3.312   0.485   1.512  0.1804  0.6127  1.5818
  894SOL    HW3 3630   3.399   0.546   1.404 -0.9371 -0.9832 -0.2534
  894SOL    MW4 3631   3.382   0.531   1.488  0.0005  0.0001 -0.0000
  895SOL     OW 3632   3.396   0.785   1.620  0.2189 -0.3813 -0.0499
  895SOL    HW2 3633   3.378   0.775   1.713 -0.0070  0.5408  0.0134
  895SOL    HW3 3634   3.410   0.696   1.588 -0.2027 -0.7418  0.7625
  895SOL    MW4 3635   3.395   0.772   1.628  0.0005  0.0001 -0.0000
  896SOL     OW 3636   3.176   0.882   1.494  0.0015 -0.2514 -0.2809
  896SOL    HW2 3637   3.243   0.842   1.550 -0.1744  1.3561  1.1197
  896SOL    HW3 3638   3.098   0.829   1.509  0.0691 -0.0887  0.6785
  896SOL    MW4 3639   3.174   0.870   1.503  0.0005  0.0001 -0.0000
  897SOL     OW 3640   3.132   1.146   1.583 -0.0375 -0.1918 -0.1684
  897SOL    HW2 3641   3.162   1.145   1.674  1.8031 -1.3414 -0.7648
  897SOL    HW3 3642   3.132   1.054   1.556  0.3036  0.2121 -1.6038
  897SOL    MW4 3643   3.136   1.134   1.591  0.0005  0.0001 -0.0000
  898SOL     OW 3644   3.326   1.304   1.485 -0.2828  0.1999  0.1671
  898SOL    HW2 3645   3.408   1.270   1.520  0.1180  1.4650  0.4831
  898SOL    HW3 3646   3.259   1.246   1.520  0.4913 -0.9722 -0.2715
  898SOL    MW4 3647   3.328   1.292   1.494  0.0005  0.0001 -0.0000
  899SOL     OW 3648   3.335   1.572   1.557 -0.2842 -0.3195 -0.0839
  899SOL    HW2 3649   3.320   1.546   1.648  2.1805 -0.0906  0.4219
  899SOL    HW3 3650   3.357   1.491   1.511  2.0617  0.0428  0.3361
  899SOL    MW4 3651   3.336   1.558   1.563  0.0005  0.0001 -0.0000
  900SOL     OW 3652   3.140   1.725   1.459 -0.0215 -0.5950  0.0796
  900SOL    HW2 3653   3.215   1.675   1.490 -0.2957 -0.4618  0.9719
  900SOL    HW3 3654   3.065   1.687   1.505 -0.1438  1.0877  1.3187
  900SOL    MW4 3655   3.140   1.713   1.469  0.0005  0.0001 -0.0000
  901SOL     OW 3656   3.174   1.970   1.606 -0.0390 -0.5347 -0.0357
  901SOL    HW2 3657   3.155   1.883   1.570  0.1583 -0.2485 -0.8447
  901SOL    HW3 3658   3.103   2.025   1.573  0.9975  0.0727 -1.2966
  901SOL    MW4 3659   3.162   1.966   1.597  0.0005  0.0001 -0.0000
  902SOL     OW 3660   3.406   2.095   1.511 -0.1048 -0.0037  0.1479
  902SOL    HW2 3661   3.333   2.043   1.545  0.7574 -0.4455  1.3536
  902SOL    HW3 3662   3.393   2.095   1.416 -1.6860 -0.0488  0.3493
  902SOL    MW4 3663   3.395   2.088   1.503  0.0005  0.0001 -0.0000
  903SOL     OW 3664   3.387   2.344   1.638  0.1933 -0.4234  0.0625
  903SOL    HW2 3665   3.443   2.389   1.575 -0.0316 -0.1911  0.0258
  903SOL    HW3 3666   3.394   2.251   1.615  1.8406 -0.5607  1.0818
  903SOL    MW4 3667   3.395   2.338   1.627  0.0005  0.0001 -0.0000
  904SOL     OW 3668   3.147   2.442   1.523  0.1574  0.3328  0.5192
  904SOL    HW2 3669   3.222   2.415   1.576 -0.4200 -0.1131  1.1204
  904SOL    HW3 3670   3.071   2.423   1.578 -0.3170  2.3666  0.6037
  904SOL    MW4 3671   3.147   2.436   1.537  0.0005  0.0001 -0.0000
  905SOL     OW 3672   3.142   2.710   1.606 -0.1405  0.1928  0.1210
  905SOL    HW2 3673   3.220   2.760   1.583  0.8058 -1.2861  0.0453
  905SOL    HW3 3674   3.156   2.624   1.566 -2.3031  0.2411 -0.8081
  905SOL    MW4 3675   3.154   2.705   1.598  0.0005  0.0001 -0.0000
  906SOL     OW 3676   3.387   2.841   1.542 -0.1734 -0.1274  0.2893
  906SOL    HW2 3677   3.354   2.929   1.560  0.4300  0.3246 -0.7632
  906SOL    HW3 3678   3.391   2.836   1.446  1.6106 -0.6101  0.3712
  906SOL    MW4 3679   3.383   2.852   1.532  0.0005  0.0001 -0.0000
  907SOL     OW 3680   3.333   3.110   1.606 -0.0007 -0.2489  0.6481
  907SOL    HW2 3681   3.352   3.092   1.698 -0.1819  0.6233  0.8605
  907SOL    HW3 3682   3.414   3.146   1.571 -0.1141 -0.0231  0.6167
  907SOL    MW4 3683   3.346   3.112   1.614  0.0005  0.0001 -0.0000
  908SOL     OW 3684   3.113   3.241   1.520  0.2079  0.4342 -0.2790
  908SOL    HW2 3685   3.196   3.205   1.550  0.2794  0.0250 -0.9568
  908SOL    HW3 3686   3.116   3.232   1.425 -0.8867 -0.1871 -0.2629
  908SOL    MW4 3687   3.124   3.235   1.511  0.0005  0.0001 -0.0000
  909SOL     OW 3688   3.158   3.504   1.594  0.3525 -0.0366  0.4646
  909SOL    HW2 3689   3.137   3.418   1.557 -0.7203  0.0688  0.8185
  909SOL    HW3 3690   3.081   3.558   1.576  0.8354  0.7259  0.6461
  909SOL    MW4 3691   3.145   3.500   1.587  0.0005  0.0001 -0.0000
  910SOL     OW 3692   3.376   3.624   1.486 -0.5116 -0.0166 -0.0659
  910SOL    HW2 3693   3.447   3.577   1.531 -0.2098  1.3039  0.8688
  910SOL    HW3 3694   3.296   3.588   1.523 -0.2938 -0.2641  0.1650
  910SOL    MW4 3695   3.375   3.613   1.497  0.0005  0.0001 -0.0000
  911SOL     OW 3696   3.319   3.877   1.599 -0.2561 -0.0349 -0.3481
  911SOL    HW2 3697   3.244   3.908   1.548  0.9101 -1.3026 -2.9189
  911SOL    HW3 3698   3.326   3.784   1.578  1.1353 -0.2680  1.0360
  911SOL    MW4 3699   3.310   3.869   1.589  0.0005  0.0001 -0.0000
  912SOL     OW 3700   3.106   4.001   1.456  0.3843  0.3731 -0.1850
  912SOL    HW2 3701   3.102   4.093   1.480 -0.3634 -0.1811  1.8872
  912SOL    HW3 3702   3.030   3.961   1.498  1.2485 -1.3743 -0.2195
  912SOL    MW4 3703   3.095   4.008   1.465  0.0005  0.0001 -0.0000
  913SOL     OW 3704   3.095   4.263   1.557  0.2379  0.0152 -0.0323
  913SOL    HW2 3705   3.094   4.247   1.651  0.7290  1.2828  0.1989
  913SOL    HW3 3706   3.009   4.299   1.538  0.2798  0.1340  0.0013
  913SOL    MW4 3707   3.083   4.266   1.567  0.0005  0.0001 -0.0000
  914SOL     OW 3708   3.338   4.411   1.484 -0.3920  0.2682  0.3189
  914SOL    HW2 3709   3.254   4.370   1.507 -0.5836  0.3154 -0.2941
  914SOL    HW3 3710   3.331   4.430   1.390  1.3996 -2.3426 -0.3998
  914SOL    MW4 3711   3.326   4.408   1.475  0.0005  0.0001 -0.0000
  915SOL     OW 3712   3.810   4.616   1.582  0.0748 -0.3057  0.0337
  915SOL    HW2 3713   3.814   4.626   1.677  0.4777  0.1558 -0.0300
  915SOL    HW3 3714   3.880   4.672   1.549  1.0381 -1.7645 -0.4476
  915SOL    MW4 3715   3.820   4.625   1.590  0.0005  0.0001 -0.0000
  916SOL     OW 3716   3.567   0.069   1.471  0.2523 -0.2658 -0.8522
  916SOL    HW2 3717   3.650   0.023   1.486  0.1286  0.2850  1.7113
  916SOL    HW3 3718   3.562   0.078   1.376  2.4931 -1.4767 -1.1266
  916SOL    MW4 3719   3.577   0.064   1.460  0.0005  0.0001 -0.0000
  917SOL     OW 3720   3.555   0.329   1.611  0.4921  0.3264  0.1273
  917SOL    HW2 3721   3.568   0.250   1.558 -0.0641  0.5479 -0.3464
  917SOL    HW3 3722   3.493   0.381   1.561  0.5298  0.8752  0.6481
  917SOL    MW4 3723   3.549   0.325   1.597  0.0005  0.0001 -0.0000
  918SOL     OW 3724   3.760   0.469   1.513 -0.0679 -0.1929 -0.0844
  918SOL    HW2 3725   3.680   0.427   1.543 -0.4651 -0.1995 -1.1342
  918SOL    HW3 3726   3.760   0.456   1.418  1.3210 -0.4485 -0.0612
  918SOL    MW4 3727   3.749   0.462   1.504  0.0005  0.0001 -0.0000
  919SOL     OW 3728   3.795   0.744   1.564  0.4732 -0.0703  0.2913
  919SOL    HW2 3729   3.715   0.794   1.548  1.1986  0.5287 -1.5664
  919SOL    HW3 3730   3.768   0.652   1.557 -0.1941  0.1172  0.4037
  919SOL    MW4 3731   3.781   0.739   1.561  0.0005  0.0001 -0.0000
  920SOL     OW 3732   3.588   0.936   1.493  0.1533  0.4763 -0.3226
  920SOL    HW2 3733   3.509   0.888   1.518 -0.5040  1.4247 -0.5526
  920SOL    HW3 3734   3.589   0.933   1.397  0.9677 -0.4342 -0.2939
  920SOL    MW4 3735   3.578   0.929   1.484  0.0005  0.0001 -0.0000
  921SOL     OW 3736   3.570   1.208   1.572 -0.2937 -0.0056  0.4182
  921SOL    HW2 3737   3.657   1.240   1.550 -1.1720  0.7423 -2.1407
  921SOL    HW3 3738   3.565   1.121   1.532 -0.8469  0.1085  0.2318
  921SOL    MW4 3739   3.581   1.201   1.564  0.0005  0.0001 -0.0000
  922SOL     OW 3740   3.816   1.327   1.523  0.1572 -0.0127  0.2253
  922SOL    HW2 3741   3.899   1.282   1.538  0.3735  0.2751 -0.1103
  922SOL    HW3 3742   3.824   1.409   1.572  0.3375  0.3229 -0.3656
  922SOL    MW4 3743   3.828   1.332   1.531  0.0005  0.0001 -0.0000
  923SOL     OW 3744   3.822   1.591   1.615  0.1366 -0.4607 -0.3614
  923SOL    HW2 3745   3.813   1.571   1.708 -0.3183 -1.0386 -0.5248
  923SOL    HW3 3746   3.734   1.616   1.588  0.2182 -0.5325 -0.6933
  923SOL    MW4 3747   3.809   1.592   1.624  0.0005  0.0001 -0.0000
  924SOL     OW 3748   3.587   1.676   1.488  0.5212 -0.6880  0.2439
  924SOL    HW2 3749   3.498   1.643   1.502  0.6717 -0.7253  1.1265
  924SOL    HW3 3750   3.600   1.669   1.393 -0.8324  0.3899 -0.0424
  924SOL    MW4 3751   3.577   1.671   1.477  0.0005  0.0001 -0.0000
  925SOL     OW 3752   3.591   1.920   1.600 -0.5660 -0.0983  0.0387
  925SOL    HW2 3753   3.589   1.834   1.558  0.2026  0.1249 -0.4638
  925SOL    HW3 3754   3.546   1.978   1.539 -0.8206 -0.0867  0.2391
  925SOL    MW4 3755   3.585   1.916   1.586  0.0005  0.0001 -0.0000
  926SOL     OW 3756   3.851   2.042   1.535  0.1753 -0.4841 -0.3587
  926SOL    HW2 3757   3.835   2.131   1.568 -0.4050 -0.6322 -0.2290
  926SOL    HW3 3758   3.775   1.992   1.564  0.3658 -0.9607 -0.6748
  926SOL    MW4 3759   3.839   2.047   1.543  0.0005  0.0001 -0.0000
  927SOL     OW 3760   3.805   2.308   1.600  0.1578  0.1941  0.2115
  927SOL    HW2 3761   3.798   2.321   1.695 -0.2616  1.7575 -0.0210
  927SOL    HW3 3762   3.886   2.352   1.575  0.6087 -0.7788 -0.0703
  927SOL    MW4 3763   3.815   2.316   1.609  0.0005  0.0001 -0.0000
  928SOL     OW 3764   3.604   2.460   1.497 -0.1563  0.3007 -0.0884
  928SOL    HW2 3765   3.615   2.550   1.528  0.3127  0.0518  0.4776
  928SOL    HW3 3766   3.687   2.417   1.517 -0.1727 -0.1078 -0.8757
  928SOL    MW4 3767   3.616   2.466   1.504  0.0005  0.0001 -0.0000
  929SOL     OW 3768   3.615   2.719   1.612 -0.1495  0.2872  0.2472
  929SOL    HW2 3769   3.620   2.716   1.708 -0.7317  1.3371  0.3140
  929SOL    HW3 3770   3.531   2.761   1.593  0.2991  0.7614 -0.7216
  929SOL    MW4 3771   3.605   2.724   1.622  0.0005  0.0001 -0.0000
  930SOL     OW 3772   3.873   2.870   1.526  0.7290  0.5595  0.1835
  930SOL    HW2 3773   3.934   2.804   1.559  1.8933  1.9351  0.8435
  930SOL    HW3 3774   3.787   2.838   1.552  1.1188 -1.5590 -1.0103
  930SOL    MW4 3775   3.870   2.857   1.534  0.0005  0.0001 -0.0000
  931SOL     OW 3776   3.819   3.126   1.599  0.1030  0.1514 -0.2898
  931SOL    HW2 3777   3.894   3.170   1.559  0.8694 -0.8396  0.0219
  931SOL    HW3 3778   3.834   3.033   1.580 -1.8650  0.0747 -1.5845
  931SOL    MW4 3779   3.831   3.120   1.591  0.0005  0.0001 -0.0000
  932SOL     OW 3780   3.571   3.219   1.521  0.7278  0.2522 -0.0160
  932SOL    HW2 3781   3.657   3.183   1.541 -0.3471 -3.0228 -0.9811
  932SOL    HW3 3782   3.561   3.207   1.427 -1.3412 -0.7459  0.3004
  932SOL    MW4 3783   3.581   3.213   1.511  0.0005  0.0001 -0.0000
  933SOL     OW 3784   3.565   3.485   1.626  0.2159 -0.2567 -0.2591
  933SOL    HW2 3785   3.648   3.514   1.587  0.2948 -1.3316 -0.9072
  933SOL    HW3 3786   3.558   3.393   1.602 -0.5281 -0.5178  0.9220
  933SOL    MW4 3787   3.575   3.477   1.618  0.0005  0.0001 -0.0000
  934SOL     OW 3788   3.785   3.610   1.511  0.1505 -0.8535 -0.1478
  934SOL    HW2 3789   3.867   3.566   1.534  1.3319  1.0099 -0.6487
  934SOL    HW3 3790   3.794   3.698   1.547 -1.3765 -0.4266 -0.7586
  934SOL    MW4 3791   3.797   3.616   1.519  0.0005  0.0001 -0.0000
  935SOL     OW 3792   3.792   3.854   1.625 -0.3636  0.4133 -0.0244
  935SOL    HW2 3793   3.864   3.909   1.593 -0.5489  0.3951 -0.4760
  935SOL    HW3 3794   3.715   3.884   1.577 -0.1307 -1.4602 -1.6269
  935SOL    MW4 3795   3.791   3.865   1.614  0.0005  0.0001 -0.0000
  936SOL     OW 3796   3.560   3.971   1.495  0.6941  0.1731 -0.0740
  936SOL    HW2 3797   3.562   4.065   1.515  1.2175  0.0350  0.5322
  936SOL    HW3 3798   3.473   3.942   1.524  0.7204  0.3692  0.2027
  936SOL    MW4 3799   3.549   3.979   1.501  0.0005  0.0001 -0.0000
  937SOL     OW 3800   3.574   4.248   1.557 -0.0004 -0.1835  0.0876
  937SOL    HW2 3801   3.565   4.271   1.649 -1.7841 -0.6555  0.0460
  937SOL    HW3 3802   3.509   4.301   1.512 -0.9638 -1.8732 -0.5657
  937SOL    MW4 3803   3.564   4.258   1.563  0.0005  0.0001 -0.0000
  938SOL     OW 3804   3.826   4.356   1.498  0.1144  0.3010  0.0233
  938SOL    HW2 3805   3.745   4.305   1.506  0.7449 -1.0128 -1.6722
  938SOL    HW3 3806   3.807   4.438   1.543 -1.2448 -1.0500  1.9992
  938SOL    MW4 3807   3.813   4.360   1.505  0.0005  0.0001 -0.0000
  939SOL     OW 3808   4.228   0.002   1.587 -0.1490 -0.5263 -0.0929
  939SOL    HW2 3809   4.246  -0.023   1.677  2.2223 -0.9882 -0.6624
  939SOL    HW3 3810   4.231  -0.080   1.538  0.6959 -0.0224 -0.9035
  939SOL    MW4 3811   4.231  -0.012   1.592  0.0005  0.0001 -0.0000
  940SOL     OW 3812   4.002   0.152   1.481  0.4541 -0.1321 -0.9631
  940SOL    HW2 3813   4.004   0.236   1.526  0.2339 -0.5705 -0.1202
  940SOL    HW3 3814   4.076   0.104   1.518 -0.3135 -0.8591 -0.3337
  940SOL    MW4 3815   4.012   0.157   1.492  0.0005  0.0001 -0.0000
  941SOL     OW 3816   3.997   0.385   1.631  0.3562  0.4997  0.1806
  941SOL    HW2 3817   4.003   0.386   1.727 -1.2462 -0.2250  0.3087
  941SOL    HW3 3818   3.907   0.411   1.613 -0.2460 -2.2508 -1.0160
  941SOL    MW4 3819   3.986   0.389   1.641  0.0005  0.0001 -0.0000
  942SOL     OW 3820   4.221   0.495   1.517 -0.1349  0.1932 -0.1250
  942SOL    HW2 3821   4.149   0.451   1.562  0.5571 -0.4964  0.3118
  942SOL    HW3 3822   4.300   0.453   1.550  0.5135  1.4052 -0.0951
  942SOL    MW4 3823   4.222   0.484   1.527  0.0005  0.0001 -0.0000
  943SOL     OW 3824   4.249   0.755   1.627 -0.0671 -0.2214  0.0467
  943SOL    HW2 3825   4.242   0.670   1.584 -1.0247  0.3156 -0.8843
  943SOL    HW3 3826   4.326   0.796   1.588 -0.7420  0.1295 -0.9350
  943SOL    MW4 3827   4.258   0.749   1.616  0.0005  0.0001 -0.0000
  944SOL     OW 3828   4.032   0.888   1.525 -0.4849 -0.0652  0.1030
  944SOL    HW2 3829   4.110   0.863   1.575 -0.2949  0.1630 -0.0788
  944SOL    HW3 3830   3.967   0.821   1.547  0.1210 -0.9058 -0.6283
  944SOL    MW4 3831   4.034   0.876   1.534  0.0005  0.0001 -0.0000
  945SOL     OW 3832   4.029   1.149   1.591  0.2093 -0.0610 -0.1688
  945SOL    HW2 3833   4.008   1.144   1.684  2.0186 -1.9042  0.1757
  945SOL    HW3 3834   4.019   1.059   1.559  1.3722  0.2091 -1.3410
  945SOL    MW4 3835   4.025   1.136   1.599  0.0005  0.0001 -0.0000
  946SOL     OW 3836   4.243   1.288   1.504 -0.3682  0.1688 -0.3900
  946SOL    HW2 3837   4.176   1.230   1.540 -0.7569  0.3827 -0.7630
  946SOL    HW3 3838   4.326   1.250   1.533 -0.6752  0.3638  0.7668
  946SOL    MW4 3839   4.245   1.275   1.513  0.0005  0.0001 -0.0000
  947SOL     OW 3840   4.259   1.526   1.658 -0.2453 -0.1221 -0.2946
  947SOL    HW2 3841   4.261   1.432   1.641 -0.6137 -0.1400 -0.2364
  947SOL    HW3 3842   4.342   1.558   1.622  0.0266 -0.5157 -0.0245
  947SOL    MW4 3843   4.270   1.518   1.651  0.0005  0.0001 -0.0000
  948SOL     OW 3844   4.069   1.687   1.525 -0.4061  0.2826  0.0760
  948SOL    HW2 3845   4.129   1.627   1.569  0.2597  0.9931  0.1527
  948SOL    HW3 3846   3.982   1.656   1.549 -0.0942 -1.3691 -0.8476
  948SOL    MW4 3847   4.065   1.675   1.534  0.0005  0.0001 -0.0000
  949SOL     OW 3848   4.099   1.947   1.621  0.1504  0.0537  0.0374
  949SOL    HW2 3849   4.098   1.855   1.595 -1.8711 -0.2076  0.9429
  949SOL    HW3 3850   4.020   1.984   1.582 -0.6885  0.6569  2.2522
  949SOL    MW4 3851   4.088   1.940   1.612  0.0005  0.0001 -0.0000
  950SOL     OW 3852   4.292   2.112   1.524 -0.3273 -0.1676 -0.2868
  950SOL    HW2 3853   4.221   2.052   1.546  0.6771 -1.3610 -0.2477
  950SOL    HW3 3854   4.302   2.105   1.429  1.1353 -1.6203 -0.0491
  950SOL    MW4 3855   4.284   2.103   1.514  0.0005  0.0001 -0.0000
  951SOL     OW 3856   4.278   2.361   1.620  0.6365  0.1978  0.0831
  951SOL    HW2 3857   4.268   2.350   1.714 -0.5414  0.4371 -0.0062
  951SOL    HW3 3858   4.278   2.272   1.585 -0.4096  0.1572  0.1721
  951SOL    MW4 3859   4.277   2.348   1.628  0.0005  0.0001 -0.0000
  952SOL     OW 3860   4.045   2.448   1.515 -0.4958  0.0285  0.0744
  952SOL    HW2 3861   4.052   2.537   1.548 -0.5888 -1.1155  3.3595
  952SOL    HW3 3862   4.126   2.406   1.542 -0.8611 -1.1478 -0.6201
  952SOL    MW4 3863   4.057   2.454   1.523  0.0005  0.0001 -0.0000
  953SOL     OW 3864   4.047   2.690   1.623 -0.0766 -0.2634 -0.3325
  953SOL    HW2 3865   4.035   2.695   1.718  0.1446 -1.0183 -0.2625
  953SOL    HW3 3866   4.123   2.746   1.606 -0.6661  0.5935 -0.1797
  953SOL    MW4 3867   4.055   2.698   1.633  0.0005  0.0001 -0.0000
  954SOL     OW 3868   4.262   2.840   1.537  0.1169  0.0685  0.6424
  954SOL    HW2 3869   4.254   2.935   1.549 -0.4804  0.1226 -0.1468
  954SOL    HW3 3870   4.280   2.829   1.444  1.1041 -0.5474  0.8985
  954SOL    MW4 3871   4.263   2.851   1.526  0.0005  0.0001 -0.0000
  955SOL     OW 3872   4.273   3.125   1.584  0.5341  0.0423 -0.4766
  955SOL    HW2 3873   4.287   3.133   1.678  1.1314 -0.8801 -0.4808
  955SOL    HW3 3874   4.356   3.152   1.545  0.5900 -0.4474 -0.7015
  955SOL    MW4 3875   4.286   3.130   1.591  0.0005  0.0001 -0.0000
  956SOL     OW 3876   4.034   3.277   1.480 -0.1427  0.0434 -0.1006
  956SOL    HW2 3877   4.029   3.367   1.512  0.0550  0.0808 -0.1716
  956SOL    HW3 3878   4.115   3.243   1.519 -1.0843 -0.6422  1.2981
  956SOL    MW4 3879   4.044   3.284   1.489  0.0005  0.0001 -0.0000
  957SOL     OW 3880   4.018   3.518   1.600  0.1785  0.0178 -0.2198
  957SOL    HW2 3881   4.015   3.499   1.694 -0.0285 -0.9870 -0.4218
  957SOL    HW3 3882   4.110   3.535   1.581  0.4945 -1.5679 -0.1687
  957SOL    MW4 3883   4.030   3.518   1.610  0.0005  0.0001 -0.0000
  958SOL     OW 3884   4.288   3.593   1.525  0.6361  0.3269  0.2760
  958SOL    HW2 3885   4.284   3.684   1.555  0.5860  0.1803  0.7090
  958SOL    HW3 3886   4.289   3.600   1.429 -1.0436  0.7217  0.2710
  958SOL    MW4 3887   4.288   3.606   1.516  0.0005  0.0001 -0.0000
  959SOL     OW 3888   4.286   3.860   1.613  0.1080  0.5525  0.0470
  959SOL    HW2 3889   4.210   3.902   1.572 -1.0480  1.6047  3.1178
  959SOL    HW3 3890   4.361   3.894   1.565 -1.1301  2.5362 -0.5403
  959SOL    MW4 3891   4.286   3.870   1.601  0.0005  0.0001 -0.0000
  960SOL     OW 3892   4.023   3.959   1.554 -0.1583 -0.4232  0.3153
  960SOL    HW2 3893   4.045   4.043   1.594  1.3383 -1.0720  0.8880
  960SOL    HW3 3894   4.027   3.976   1.460  2.1083 -0.3171  0.4012
  960SOL    MW4 3895   4.026   3.972   1.547  0.0005  0.0001 -0.0000
  961SOL     OW 3896   4.057   4.238   1.606  0.4369  0.1382  0.1061
  961SOL    HW2 3897   4.039   4.231   1.700  1.0885 -0.0288  0.2219
  961SOL    HW3 3898   3.972   4.257   1.566 -0.1888 -1.7177  0.5194
  961SOL    MW4 3899   4.043   4.240   1.613  0.0005  0.0001 -0.0000
  962SOL     OW 3900   4.278   4.403   1.493  0.4833 -0.1299 -0.1177
  962SOL    HW2 3901   4.193   4.370   1.523  0.3574  1.2326  1.0623
  962SOL    HW3 3902   4.272   4.399   1.398 -1.6805  1.7925 -0.1124
  962SOL    MW4 3903   4.266   4.398   1.484  0.0005  0.0001 -0.0000
  963SOL     OW 3904   0.216   0.000   1.939  0.0922 -0.2256  0.0180
  963SOL    HW2 3905   0.294   0.041   1.975  1.3226 -2.7381  0.3232
  963SOL    HW3 3906   0.231  -0.002   1.845  0.3876 -0.6726  0.0731
  963SOL    MW4 3907   0.228   0.005   1.931  0.0005  0.0001 -0.0000
  964SOL     OW 3908   4.467   0.129   2.004 -0.0169 -0.3554  0.1707
  964SOL    HW2 3909   4.460   0.219   1.971  0.5308 -0.0606  0.8438
  964SOL    HW3 3910   4.554   0.100   1.975 -0.1884 -0.6653 -0.0343
  964SOL    MW4 3911   4.478   0.137   1.996  0.0005  0.0001 -0.0000
  965SOL     OW 3912   4.447   0.391   1.891 -0.3647 -0.0754  0.0272
  965SOL    HW2 3913   4.387   0.453   1.932  0.3321  1.1615 -0.7891
  965SOL    HW3 3914   4.534   0.422   1.916  0.0562  0.4402 -1.9874
  965SOL    MW4 3915   4.451   0.403   1.900  0.0005  0.0001 -0.0000
  966SOL     OW 3916   0.188   0.475   1.991  0.4527 -0.6071  0.3078
  966SOL    HW2 3917   0.266   0.438   1.950 -0.4370 -0.7403 -1.3298
  966SOL    HW3 3918   0.183   0.564   1.957 -0.6045 -0.8999 -0.3253
  966SOL    MW4 3919   0.198   0.482   1.981  0.0005  0.0001 -0.0000
  967SOL     OW 3920   0.199   0.762   1.947 -0.4296  0.5699  0.0713
  967SOL    HW2 3921   0.276   0.803   1.987 -0.3002 -0.1732  0.5909
  967SOL    HW3 3922   0.218   0.763   1.853  0.2759  0.2732  0.2062
  967SOL    MW4 3923   0.212   0.768   1.940  0.0005  0.0001 -0.0000
  968SOL     OW 3924   4.476   0.923   2.019 -0.7371  0.5432  0.6490
  968SOL    HW2 3925   4.403   0.867   1.994 -0.5498 -0.2446  1.8237
  968SOL    HW3 3926   4.554   0.875   1.992 -0.6091  0.7566  0.6334
  968SOL    MW4 3927   4.477   0.909   2.012  0.0005  0.0001 -0.0000
  969SOL     OW 3928   4.448   1.133   1.846 -0.4420  0.5468 -0.0817
  969SOL    HW2 3929   4.377   1.181   1.888  0.3371  0.3459  1.4841
  969SOL    HW3 3930   4.464   1.058   1.904  1.4343  0.9033 -0.1058
  969SOL    MW4 3931   4.441   1.130   1.859  0.0005  0.0001 -0.0000
  970SOL     OW 3932   0.174   1.249   1.981  0.5619  0.3255  0.1347
  970SOL    HW2 3933   0.174   1.338   1.945  1.2755  0.2759  0.0088
  970SOL    HW3 3934   0.101   1.206   1.937 -0.4805  1.1699  1.0066
  970SOL    MW4 3935   0.164   1.255   1.970  0.0005  0.0001 -0.0000
  971SOL     OW 3936   0.222   1.508   1.897  0.0638 -0.1234  0.1860
  971SOL    HW2 3937   0.301   1.550   1.931  0.8242  0.0956 -1.7909
  971SOL    HW3 3938   0.152   1.570   1.917  0.6689  0.5275  0.3178
  971SOL    MW4 3939   0.223   1.522   1.904  0.0005  0.0001 -0.0000
  972SOL     OW 3940   0.017   1.682   1.988  0.5148 -0.7613 -0.2424
  972SOL    HW2 3941   0.026   1.679   2.083 -0.1185  0.2474 -0.1431
  972SOL    HW3 3942  -0.066   1.638   1.970 -0.5769  1.2146 -0.1215
  972SOL    MW4 3943   0.007   1.676   1.998  0.0005  0.0001 -0.0000
  973SOL     OW 3944   4.488   1.942   1.898 -0.0016  0.5105 -0.2822
  973SOL    HW2 3945   4.414   1.979   1.945 -0.4505  0.2356 -0.7681
  973SOL    HW3 3946   4.494   1.852   1.930  0.1084  0.5242 -0.2636
  973SOL    MW4 3947   4.479   1.935   1.908  0.0005  0.0001 -0.0000
  974SOL     OW 3948   0.245   2.075   1.974  0.2482  0.1683  0.2315
  974SOL    HW2 3949   0.223   2.163   1.942  1.5294  0.1090 -0.8461
  974SOL    HW3 3950   0.169   2.022   1.950  0.1599  0.6434 -0.5710
  974SOL    MW4 3951   0.232   2.080   1.967  0.0005  0.0001 -0.0000
  975SOL     OW 3952   0.188   2.338   1.889  0.1908  0.1342 -0.0513
  975SOL    HW2 3953   0.273   2.370   1.921  1.1761 -1.1344 -1.3591
  975SOL    HW3 3954   0.124   2.396   1.931  1.4955 -0.6767  3.2350
  975SOL    MW4 3955   0.191   2.350   1.899  0.0005  0.0001 -0.0000
  976SOL     OW 3956   4.450   2.457   2.031 -0.0873 -0.0335  0.1004
  976SOL    HW2 3957   4.464   2.438   2.124 -1.0480 -1.2496  0.0116
  976SOL    HW3 3958   4.465   2.551   2.023  1.8328 -0.2279  1.1357
  976SOL    MW4 3959   4.454   2.467   2.042  0.0005  0.0001 -0.0000
  977SOL     OW 3960   4.473   2.701   1.888 -0.4576  0.2126 -0.0113
  977SOL    HW2 3961   4.392   2.747   1.908 -0.0706  0.8364  0.1388
  977SOL    HW3 3962   4.479   2.702   1.793 -1.3812 -1.1563 -0.0980
  977SOL    MW4 3963   4.463   2.707   1.878  0.0005  0.0001 -0.0000
  978SOL     OW 3964   0.203   2.854   1.982 -0.2107  0.0914 -0.2225
  978SOL    HW2 3965   0.197   2.945   1.952 -1.4506  0.2869  0.5752
  978SOL    HW3 3966   0.127   2.811   1.944  0.0015 -0.4509 -0.0382
  978SOL    MW4 3967   0.192   2.860   1.973  0.0005  0.0001 -0.0000
  979SOL     OW 3968   0.232   3.148   1.887 -0.0260  0.1084  0.0960
  979SOL    HW2 3969   0.315   3.163   1.933 -0.8369  0.5470  1.4373
  979SOL    HW3 3970   0.253   3.160   1.795  1.3181  0.6278  0.4637
  979SOL    MW4 3971   0.246   3.152   1.881  0.0005  0.0001 -0.0000
  980SOL     OW 3972   0.017   3.252   2.014  0.3095 -0.3678  0.5217
  980SOL    HW2 3973  -0.050   3.214   1.958 -0.4202 -0.5217  1.4808
  980SOL    HW3 3974   0.097   3.204   1.993  0.0572 -0.3790 -0.4205
  980SOL    MW4 3975   0.019   3.241   2.004  0.0005  0.0001 -0.0000
  981SOL     OW 3976   0.033   3.505   1.892 -0.3066  0.7014 -0.5599
  981SOL    HW2 3977   0.101   3.551   1.941 -0.4340  0.2096  0.0782
  981SOL    HW3 3978   0.046   3.412   1.912 -0.3743  0.4948 -1.4370
  981SOL    MW4 3979   0.044   3.499   1.901  0.0005  0.0001 -0.0000
  982SOL     OW 3980   0.261   3.631   1.998  0.1833 -0.3902  0.0212
  982SOL    HW2 3981   0.261   3.612   2.092  1.0638 -0.6472 -0.0278
  982SOL    HW3 3982   0.320   3.566   1.960 -0.6385 -0.6720 -0.7948
  982SOL    MW4 3983   0.269   3.620   2.005  0.0005  0.0001 -0.0000
  983SOL     OW 3984   0.244   3.871   1.875 -0.0953 -0.0046 -0.3039
  983SOL    HW2 3985   0.315   3.930   1.901 -0.7657  0.0897  1.3676
  983SOL    HW3 3986   0.268   3.787   1.913  0.2369 -0.5276 -1.6396
  983SOL    MW4 3987   0.257   3.868   1.883  0.0005  0.0001 -0.0000
  984SOL     OW 3988   0.016   4.005   1.981  0.1141  0.5517 -0.5384
  984SOL    HW2 3989   0.026   4.092   1.942  1.0633  0.8831  0.4273
  984SOL    HW3 3990   0.089   3.955   1.946 -0.6850  0.0016 -1.4440
  984SOL    MW4 3991   0.027   4.010   1.971  0.0005  0.0001 -0.0000
  985SOL     OW 3992   4.490   4.237   1.863 -0.3316 -0.4470  0.0854
  985SOL    HW2 3993   4.410   4.271   1.903 -0.9350  2.3251 -3.2403
  985SOL    HW3 3994   4.560   4.289   1.903 -0.6222  0.1223 -0.1335
  985SOL    MW4 3995   4.489   4.248   1.874  0.0005  0.0001 -0.0000
  986SOL     OW 3996   0.190   4.386   2.000  0.4281 -0.0924  0.0998
  986SOL    HW2 3997   0.200   4.387   2.095  0.9794 -1.7104  0.0674
  986SOL    HW3 3998   0.196   4.478   1.975  1.8990  0.2101  1.4667
  986SOL    MW4 3999   0.192   4.398   2.009  0.0005  0.0001 -0.0000
  987SOL     OW 4000   0.689   0.004   1.910 -0.2964  0.0810  0.5005
  987SOL    HW2 4001   0.690  -0.085   1.944 -0.3617  0.0791  0.4977
  987SOL    HW3 4002   0.702  -0.006   1.816  2.4603  0.2303  0.8211
  987SOL    MW4 4003   0.691  -0.009   1.902  0.0005  0.0001 -0.0000
  988SOL     OW 4004   0.464   0.117   2.014  0.0601 -0.4162  0.6962
  988SOL    HW2 4005   0.445   0.200   1.969 -1.9268 -0.5832  1.1731
  988SOL    HW3 4006   0.544   0.085   1.973 -0.1843  0.8229 -0.7885
  988SOL    MW4 4007   0.472   0.124   2.003  0.0005  0.0001 -0.0000
  989SOL     OW 4008   0.421   0.368   1.882 -0.1969  0.6074 -0.7237
  989SOL    HW2 4009   0.499   0.416   1.911 -0.0323  0.3741 -0.7789
  989SOL    HW3 4010   0.417   0.383   1.788  0.2111 -0.0034 -0.8401
  989SOL    MW4 4011   0.431   0.376   1.873  0.0005  0.0001 -0.0000
  990SOL     OW 4012   0.622   0.517   1.976 -0.2945 -0.4242  0.0420
  990SOL    HW2 4013   0.631   0.513   2.071 -1.0253 -2.3467  0.0534
  990SOL    HW3 4014   0.702   0.475   1.943  0.7223  1.6743 -0.2449
  990SOL    MW4 4015   0.634   0.511   1.984  0.0005  0.0001 -0.0000
  991SOL     OW 4016   0.681   0.751   1.835 -0.3468 -0.1608  0.2345
  991SOL    HW2 4017   0.746   0.790   1.894 -1.4599  0.2993  1.1785
  991SOL    HW3 4018   0.650   0.674   1.882 -1.9252  0.7301  0.6873
  991SOL    MW4 4019   0.685   0.746   1.849  0.0005  0.0001 -0.0000
  992SOL     OW 4020   0.451   0.864   2.008 -0.0815 -0.3506 -0.2538
  992SOL    HW2 4021   0.453   0.958   1.990 -0.0867 -0.3818 -0.4196
  992SOL    HW3 4022   0.529   0.830   1.964 -1.1954 -0.7420 -2.0018
  992SOL    MW4 4023   0.462   0.872   2.000  0.0005  0.0001 -0.0000
  993SOL     OW 4024   0.416   1.133   1.956  0.0759 -0.3295  0.0555
  993SOL    HW2 4025   0.340   1.188   1.978  0.9476  0.2217  1.7762
  993SOL    HW3 4026   0.426   1.143   1.861 -0.7646  1.2091  0.1112
  993SOL    MW4 4027   0.407   1.142   1.946  0.0005  0.0001 -0.0000
  994SOL     OW 4028   0.668   1.271   2.009 -0.3503 -0.6526 -0.0439
  994SOL    HW2 4029   0.702   1.257   2.097  0.2118 -0.5552 -0.2439
  994SOL    HW3 4030   0.589   1.217   2.005 -1.9137  1.4411  1.4354
  994SOL    MW4 4031   0.662   1.262   2.020  0.0005  0.0001 -0.0000
  995SOL     OW 4032   0.690   1.535   1.907  0.3190 -0.3145  0.1384
  995SOL    HW2 4033   0.680   1.443   1.930  1.4867 -0.3619  0.4796
  995SOL    HW3 4034   0.692   1.535   1.811 -0.1048 -0.5948  0.1266
  995SOL    MW4 4035   0.689   1.523   1.897  0.0005  0.0001 -0.0000
  996SOL     OW 4036   0.448   1.683   1.953  0.4962  0.4718 -0.1931
  996SOL    HW2 4037   0.453   1.700   2.047 -1.4785 -1.4251  0.2954
  996SOL    HW3 4038   0.531   1.641   1.932 -0.1070 -1.5314  1.2703
  996SOL    MW4 4039   0.460   1.680   1.963  0.0005  0.0001 -0.0000
  997SOL     OW 4040   0.475   1.946   1.872  0.5049  0.0698 -0.1204
  997SOL    HW2 4041   0.474   1.855   1.902  1.4319  0.1040  0.0359
  997SOL    HW3 4042   0.399   1.986   1.913 -0.7493 -1.0011 -1.3531
  997SOL    MW4 4043   0.465   1.939   1.881  0.0005  0.0001 -0.0000
  998SOL     OW 4044   0.707   2.063   1.950 -0.0908  0.1993 -0.3278
  998SOL    HW2 4045   0.688   2.067   2.044 -1.0923 -0.1417 -0.5075
  998SOL    HW3 4046   0.626   2.030   1.911  0.5043 -0.1781 -1.2534
  998SOL    MW4 4047   0.694   2.059   1.957  0.0005  0.0001 -0.0000
  999SOL     OW 4048   0.664   2.347   1.893 -0.2756 -0.3576 -0.0296
  999SOL    HW2 4049   0.674   2.254   1.912  1.3249 -0.2200 -0.1134
  999SOL    HW3 4050   0.681   2.355   1.799 -1.9964 -0.1864 -0.3415
  999SOL    MW4 4051   0.668   2.336   1.883  0.0005  0.0001 -0.0000
 1000SOL     OW 4052   0.421   2.461   1.987  0.3201 -0.2524  0.7327
 1000SOL    HW2 4053   0.432   2.467   2.082  3.1502  1.7109  0.3424
 1000SOL    HW3 4054   0.497   2.412   1.957 -1.1988 -1.9589 -0.4419
 1000SOL    MW4 4055   0.433   2.455   1.996  0.0005  0.0001 -0.0000
 1001SOL     OW 4056   0.445   2.728   1.892 -0.0684 -0.0198 -0.1869
 1001SOL    HW2 4057   0.449   2.638   1.924  0.0151 -0.1295 -0.5034
 1001SOL    HW3 4058   0.359   2.760   1.920 -0.7690 -0.7316 -1.4789
 1001SOL    MW4 4059   0.434   2.720   1.900  0.0005  0.0001 -0.0000
 1002SOL     OW 4060   0.673   2.842   2.009  0.3421 -0.1569  1.0225
 1002SOL    HW2 4061   0.651   2.854   2.101 -1.1691 -0.2067  0.6773
 1002SOL    HW3 4062   0.589   2.828   1.966  1.1086 -0.9361 -0.2454
 1002SOL    MW4 4063   0.659   2.842   2.015  0.0005  0.0001 -0.0000
 1003SOL     OW 4064   0.690   3.101   1.861 -0.2938 -0.1668  0.5121
 1003SOL    HW2 4065   0.681   3.010   1.891 -0.7964 -0.0969  0.5785
 1003SOL    HW3 4066   0.694   3.095   1.766 -3.3568 -0.0392  0.3257
 1003SOL    MW4 4067   0.689   3.088   1.852  0.0005  0.0001 -0.0000
 1004SOL     OW 4068   0.492   3.247   1.998 -0.1354  0.0371  0.2359
 1004SOL    HW2 4069   0.475   3.325   1.945  0.7390  1.2263  1.6706
 1004SOL    HW3 4070   0.568   3.207   1.956 -1.0500 -0.4832 -0.9597
 1004SOL    MW4 4071   0.500   3.252   1.986  0.0005  0.0001 -0.0000
 1005SOL     OW 4072   0.437   3.474   1.861  0.2591  0.1206  0.4777
 1005SOL    HW2 4073   0.511   3.523   1.896 -0.5815  2.0558 -0.3786
 1005SOL    HW3 4074   0.438   3.493   1.767 -1.8856  0.9766  0.6000
 1005SOL    MW4 4075   0.447   3.483   1.853  0.0005  0.0001 -0.0000
 1006SOL     OW 4076   0.637   3.616   1.996  0.1046 -0.0094 -0.1897
 1006SOL    HW2 4077   0.716   3.567   1.974  0.1723  0.0120  0.0046
 1006SOL    HW3 4078   0.648   3.701   1.953  1.6089  1.1478  2.3404
 1006SOL    MW4 4079   0.649   3.621   1.987  0.0005  0.0001 -0.0000
 1007SOL     OW 4080   0.675   3.848   1.865 -0.0322 -0.1292  0.1599
 1007SOL    HW2 4081   0.754   3.894   1.892 -1.4596  2.1419  0.5984
 1007SOL    HW3 4082   0.662   3.873   1.774 -1.0187  0.6623  0.5076
 1007SOL    MW4 4083   0.684   3.857   1.857  0.0005  0.0001 -0.0000
 1008SOL     OW 4084   0.453   4.021   2.001  0.3518  0.0314  0.0036
 1008SOL    HW2 4085   0.459   4.111   1.968  0.5412  0.1831  0.4415
 1008SOL    HW3 4086   0.537   3.982   1.978  0.8964  0.4615  1.2436
 1008SOL    MW4 4087   0.465   4.028   1.994  0.0005  0.0001 -0.0000
 1009SOL     OW 4088   0.447   4.298   1.921 -0.0039 -0.3084 -0.0389
 1009SOL    HW2 4089   0.356   4.313   1.945  0.4509 -1.3541  2.4989
 1009SOL    HW3 4090   0.445   4.285   1.826 -2.2478  1.3429 -0.2583
 1009SOL    MW4 4091   0.435   4.298   1.912  0.0005  0.0001 -0.0000
 1010SOL     OW 4092   0.692   4.413   1.977  0.1222  0.0757  0.1978
 1010SOL    HW2 4093   0.754   4.360   1.928  0.2196  0.2173  0.1681
 1010SOL    HW3 4094   0.607   4.372   1.960 -0.0280  0.9323 -1.1962
 1010SOL    MW4 4095   0.689   4.401   1.968  0.0005  0.0001 -0.0000
 1011SOL     OW 4096   1.073   0.014   1.905  0.4597  0.0625  0.4462
 1011SOL    HW2 4097   1.156   0.057   1.926  0.7779 -0.3806  0.1050
 1011SOL    HW3 4098   1.088  -0.078   1.925 -0.1682  0.0807  1.0189
 1011SOL    MW4 4099   1.086   0.008   1.910  0.0005  0.0001 -0.0000
 1012SOL     OW 4100   0.870   0.164   2.050 -0.0126 -0.5800  0.0674
 1012SOL    HW2 4101   0.958   0.138   2.023  0.6336 -0.7932  2.2805
 1012SOL    HW3 4102   0.812   0.099   2.009  1.0316 -1.6289  0.2262
 1012SOL    MW4 4103   0.874   0.152   2.041  0.0005  0.0001 -0.0000
 1013SOL     OW 4104   0.868   0.394   1.901 -0.2025 -0.5962 -0.1756
 1013SOL    HW2 4105   0.953   0.429   1.928 -0.1794  0.1634 -1.2178
 1013SOL    HW3 4106   0.861   0.311   1.948  1.7284 -1.3310 -1.1211
 1013SOL    MW4 4107   0.878   0.388   1.911  0.0005  0.0001 -0.0000
 1014SOL     OW 4108   1.113   0.511   2.000 -0.4605  0.1783 -0.1763
 1014SOL    HW2 4109   1.190   0.467   1.965 -0.7004  1.3070 -2.1795
 1014SOL    HW3 4110   1.111   0.596   1.956 -3.1316 -0.0347 -0.5660
 1014SOL    MW4 4111   1.123   0.516   1.990  0.0005  0.0001 -0.0000
 1015SOL     OW 4112   1.102   0.752   1.874  0.0552 -0.0637 -0.0413
 1015SOL    HW2 4113   1.179   0.801   1.902  1.2786 -2.0224  0.1089
 1015SOL    HW3 4114   1.029   0.796   1.917  1.2025  1.1217  0.7378
 1015SOL    MW4 4115   1.103   0.764   1.883  0.0005  0.0001 -0.0000
 1016SOL     OW 4116   0.858   0.871   2.013  0.2492  0.2240  0.2571
 1016SOL    HW2 4117   0.873   0.890   2.106  1.2173  1.0159 -0.0528
 1016SOL    HW3 4118   0.865   0.956   1.970 -1.6567  0.0856 -0.3689
 1016SOL    MW4 4119   0.861   0.885   2.019  0.0005  0.0001 -0.0000
 1017SOL     OW 4120   0.871   1.118   1.887 -0.6962 -0.1558 -0.1418
 1017SOL    HW2 4121   0.797   1.171   1.917 -0.0351  0.5063  0.3261
 1017SOL    HW3 4122   0.869   1.125   1.792 -1.2619 -0.1833 -0.1361
 1017SOL    MW4 4123   0.861   1.126   1.878  0.0005  0.0001 -0.0000
 1018SOL     OW 4124   1.087   1.251   1.980  0.4281  0.0099 -0.1940
 1018SOL    HW2 4125   1.093   1.337   1.939  0.1092 -0.8213 -2.0255
 1018SOL    HW3 4126   0.999   1.221   1.959  0.0147 -0.1707  1.6821
 1018SOL    MW4 4127   1.076   1.258   1.972  0.0005  0.0001 -0.0000
 1019SOL     OW 4128   1.126   1.519   1.883  0.6635  0.4922  0.2548
 1019SOL    HW2 4129   1.044   1.539   1.928 -0.0440 -0.5984 -0.5283
 1019SOL    HW3 4130   1.113   1.549   1.793  0.7338 -0.6022 -0.1336
 1019SOL    MW4 4131   1.113   1.526   1.877  0.0005  0.0001 -0.0000
 1020SOL     OW 4132   0.914   1.641   1.996 -0.0900  0.2879  0.5130
 1020SOL    HW2 4133   0.921   1.730   1.961  0.1519 -0.2993 -0.9622
 1020SOL    HW3 4134   0.831   1.608   1.963  0.2240 -0.3406  0.3379
 1020SOL    MW4 4135   0.904   1.648   1.987  0.0005  0.0001 -0.0000
 1021SOL     OW 4136   0.915   1.900   1.884 -0.2498 -0.2373 -0.0378
 1021SOL    HW2 4137   0.838   1.939   1.925 -0.4770  0.7674 -1.3919
 1021SOL    HW3 4138   0.894   1.897   1.791  1.3593  0.0722 -0.4321
 1021SOL    MW4 4139   0.902   1.905   1.877  0.0005  0.0001 -0.0000
 1022SOL     OW 4140   1.146   2.032   1.958  0.1592  0.2757 -0.2110
 1022SOL    HW2 4141   1.134   2.122   1.929  0.0533  0.4885  0.4737
 1022SOL    HW3 4142   1.070   1.985   1.924  1.5474 -0.1499 -2.8539
 1022SOL    MW4 4143   1.134   2.038   1.950  0.0005  0.0001 -0.0000
 1023SOL     OW 4144   1.097   2.306   1.898  0.2482  0.4712 -0.0087
 1023SOL    HW2 4145   1.181   2.347   1.920  0.2023  0.3695  0.3543
 1023SOL    HW3 4146   1.088   2.320   1.804  0.8878  0.0872 -0.1313
 1023SOL    MW4 4147   1.107   2.313   1.888  0.0005  0.0001 -0.0000
 1024SOL     OW 4148   0.893   2.454   1.982 -0.2345 -0.4349  0.4323
 1024SOL    HW2 4149   0.954   2.386   1.952 -0.2143  0.1406 -0.8654
 1024SOL    HW3 4150   0.808   2.427   1.947 -0.2712  0.0732  0.1248
 1024SOL    MW4 4151   0.890   2.441   1.973  0.0005  0.0001 -0.0000
 1025SOL     OW 4152   0.915   2.733   1.893  0.3926  0.3462 -0.4847
 1025SOL    HW2 4153   0.932   2.648   1.934 -0.7569  0.7182  0.8112
 1025SOL    HW3 4154   0.828   2.757   1.924  0.4980  1.7637 -1.2581
 1025SOL    MW4 4155   0.906   2.725   1.902  0.0005  0.0001 -0.0000
 1026SOL     OW 4156   1.149   2.859   1.990  0.4102 -0.0730 -0.7104
 1026SOL    HW2 4157   1.134   2.861   2.084  1.5043  0.9595 -0.5412
 1026SOL    HW3 4158   1.068   2.825   1.953 -0.1694 -0.1050  0.5745
 1026SOL    MW4 4159   1.136   2.855   1.998  0.0005  0.0001 -0.0000
 1027SOL     OW 4160   1.158   3.100   1.881 -0.5678 -0.2453  0.0198
 1027SOL    HW2 4161   1.074   3.142   1.900  0.1488  0.8403  0.8178
 1027SOL    HW3 4162   1.154   3.016   1.927 -1.0225  0.0167  0.4606
 1027SOL    MW4 4163   1.146   3.094   1.890  0.0005  0.0001 -0.0000
 1028SOL     OW 4164   0.916   3.234   1.938 -0.3691  0.3504 -0.2462
 1028SOL    HW2 4165   0.898   3.252   2.030 -1.6953  2.6850 -0.9214
 1028SOL    HW3 4166   0.850   3.169   1.913 -1.7774  1.7423 -0.2266
 1028SOL    MW4 4167   0.905   3.228   1.947  0.0005  0.0001 -0.0000
 1029SOL     OW 4168   0.844   3.493   1.868  0.5238  0.1275  0.3303
 1029SOL    HW2 4169   0.857   3.400   1.889 -0.5000  0.0025  0.4352
 1029SOL    HW3 4170   0.839   3.496   1.773  0.3381  0.0444  0.3373
 1029SOL    MW4 4171   0.845   3.481   1.858  0.0005  0.0001 -0.0000
 1030SOL     OW 4172   1.092   3.601   1.915  0.0917 -0.5701  0.1118
 1030SOL    HW2 4173   1.085   3.629   2.006  0.4075 -2.7237  0.8267
 1030SOL    HW3 4174   1.006   3.565   1.894 -0.1015  0.2742 -0.5769
 1030SOL    MW4 4175   1.080   3.600   1.924  0.0005  0.0001 -0.0000
 1031SOL     OW 4176   1.139   3.864   1.882  0.0193  0.4183  0.3058
 1031SOL    HW2 4177   1.115   3.771   1.882 -3.1926  1.1880  0.7577
 1031SOL    HW3 4178   1.139   3.888   1.789  1.1295 -0.0785  0.1686
 1031SOL    MW4 4179   1.136   3.855   1.870  0.0005  0.0001 -0.0000
 1032SOL     OW 4180   0.901   3.973   1.968  0.0517 -0.5041  0.5720
 1032SOL    HW2 4181   0.913   3.999   2.059 -1.0807 -1.2389  0.9445
 1032SOL    HW3 4182   0.989   3.951   1.937  0.3736 -0.7342  1.6368
 1032SOL    MW4 4183   0.914   3.974   1.976  0.0005  0.0001 -0.0000
 1033SOL     OW 4184   0.888   4.249   1.882  0.7514  0.4802  0.5427
 1033SOL    HW2 4185   0.972   4.278   1.918 -0.1871  1.7107  1.7884
 1033SOL    HW3 4186   0.885   4.155   1.902  0.9205  0.8410  2.3661
 1033SOL    MW4 4187   0.899   4.240   1.889  0.0005  0.0001 -0.0000
 1034SOL     OW 4188   1.097   4.416   1.983  0.3367 -0.0993  0.1131
 1034SOL    HW2 4189   1.108   4.402   2.077 -0.1448 -0.1386  0.1657
 1034SOL    HW3 4190   1.162   4.359   1.942  0.5910 -0.0326  0.4239
 1034SOL    MW4 4191   1.107   4.407   1.990  0.0005  0.0001 -0.0000
 1035SOL     OW 4192   1.543   4.655   1.859  0.1428  0.2202 -0.0429
 1035SOL    HW2 4193   1.616   4.690   1.910 -0.2422  2.0670 -0.7304
 1035SOL    HW3 4194   1.539   4.563   1.884  2.4427  0.1818  0.3157
 1035SOL    MW4 4195   1.552   4.647   1.869  0.0005  0.0001 -0.0000
 1036SOL     OW 4196   1.317   0.115   1.950  0.2805  0.1103 -0.0859
 1036SOL    HW2 4197   1.341   0.115   2.042  3.0451  1.6558 -0.7580
 1036SOL    HW3 4198   1.392   0.077   1.905 -0.4560  0.6553 -1.8326
 1036SOL    MW4 4199   1.330   0.110   1.956  0.0005  0.0001 -0.0000
 1037SOL     OW 4200   1.337   0.392   1.896 -0.2045 -0.0437  0.0939
 1037SOL    HW2 4201   1.322   0.299   1.911 -1.0559  0.1201  0.2897
 1037SOL    HW3 4202   1.333   0.403   1.801  0.6876 -0.3343  0.0189
 1037SOL    MW4 4203   1.334   0.381   1.885  0.0005  0.0001 -0.0000
 1038SOL     OW 4204   1.524   0.530   2.010  0.6430  0.0268  0.2510
 1038SOL    HW2 4205   1.603   0.487   1.978  1.1431  0.8617  0.3443
 1038SOL    HW3 4206   1.452   0.483   1.968  1.2281 -0.0370 -0.6915
 1038SOL    MW4 4207   1.525   0.518   2.000  0.0005  0.0001 -0.0000
 1039SOL     OW 4208   1.559   0.772   1.864  0.0727  0.0312 -0.2385
 1039SOL    HW2 4209   1.641   0.811   1.896  1.7647 -1.4615 -2.5885
 1039SOL    HW3 4210   1.552   0.690   1.912  1.1040 -0.8401 -1.5304
 1039SOL    MW4 4211   1.569   0.766   1.875  0.0005  0.0001 -0.0000
 1040SOL     OW 4212   1.331   0.897   1.941 -0.0451 -0.2559 -0.1930
 1040SOL    HW2 4213   1.340   0.898   2.036 -0.4330  0.5614 -0.1581
 1040SOL    HW3 4214   1.415   0.864   1.909 -0.8891 -3.2278  0.5331
 1040SOL    MW4 4215   1.343   0.893   1.949  0.0005  0.0001 -0.0000
 1041SOL     OW 4216   1.369   1.174   1.900  0.5603  0.1759  0.6358
 1041SOL    HW2 4217   1.368   1.079   1.907 -0.0664  0.2402  1.4952
 1041SOL    HW3 4218   1.281   1.201   1.926  1.1152  1.0680  1.6300
 1041SOL    MW4 4219   1.357   1.165   1.904  0.0005  0.0001 -0.0000
 1042SOL     OW 4220   1.580   1.290   2.038  0.5451  0.2232 -0.2552
 1042SOL    HW2 4221   1.589   1.372   1.989  0.2415 -0.1256 -0.8925
 1042SOL    HW3 4222   1.519   1.237   1.987  0.6141 -0.3430  0.2375
 1042SOL    MW4 4223   1.573   1.294   2.025  0.0005  0.0001 -0.0000
 1043SOL     OW 4224   1.574   1.518   1.884 -0.1266  0.6778  0.5087
 1043SOL    HW2 4225   1.642   1.582   1.905  0.3611 -0.0740  1.2517
 1043SOL    HW3 4226   1.494   1.556   1.919  0.2257  0.7119  1.2886
 1043SOL    MW4 4227   1.572   1.531   1.891  0.0005  0.0001 -0.0000
 1044SOL     OW 4228   1.358   1.595   2.017 -0.7125  0.0392  0.2751
 1044SOL    HW2 4229   1.369   1.607   2.111  0.6004 -0.1649  0.1564
 1044SOL    HW3 4230   1.265   1.575   2.006 -0.5653 -1.5541  1.7037
 1044SOL    MW4 4231   1.347   1.594   2.028  0.0005  0.0001 -0.0000
 1045SOL     OW 4232   1.362   1.898   1.877  0.0895 -0.2231  0.2273
 1045SOL    HW2 4233   1.372   1.816   1.925 -1.2126 -1.0918 -0.9447
 1045SOL    HW3 4234   1.282   1.937   1.913 -0.2411 -0.3093 -0.4078
 1045SOL    MW4 4235   1.353   1.892   1.888  0.0005  0.0001 -0.0000
 1046SOL     OW 4236   1.584   2.032   1.987 -0.6447  0.0802  0.6004
 1046SOL    HW2 4237   1.569   2.125   1.970 -1.5578 -0.1992 -0.1963
 1046SOL    HW3 4238   1.513   1.988   1.940  0.8941 -1.1293 -0.6393
 1046SOL    MW4 4239   1.573   2.038   1.979  0.0005  0.0001 -0.0000
 1047SOL     OW 4240   1.545   2.300   1.875 -0.3846 -0.7768  0.0807
 1047SOL    HW2 4241   1.627   2.347   1.890 -0.0553 -1.3957  0.2395
 1047SOL    HW3 4242   1.528   2.310   1.781 -0.1626 -0.5924  0.0603
 1047SOL    MW4 4243   1.554   2.308   1.865  0.0005  0.0001 -0.0000
 1048SOL     OW 4244   1.326   2.410   1.976  0.3463 -0.6338 -0.6901
 1048SOL    HW2 4245   1.351   2.501   1.961 -0.8479 -0.2205 -0.2327
 1048SOL    HW3 4246   1.400   2.359   1.943  0.4199  0.4501 -2.2545
 1048SOL    MW4 4247   1.339   2.415   1.970  0.0005  0.0001 -0.0000
 1049SOL     OW 4248   1.352   2.658   1.925  0.3652  0.4418 -0.0075
 1049SOL    HW2 4249   1.283   2.719   1.952 -0.1643 -0.5814  1.0103
 1049SOL    HW3 4250   1.357   2.667   1.830  0.1481  1.9095  0.1124
 1049SOL    MW4 4251   1.344   2.667   1.916  0.0005  0.0001 -0.0000
 1050SOL     OW 4252   1.588   2.819   1.992  0.3699 -0.0340 -0.0662
 1050SOL    HW2 4253   1.667   2.773   1.963  0.3499 -1.0077  1.3697
 1050SOL    HW3 4254   1.516   2.760   1.969  0.3506 -0.8047  1.8791
 1050SOL    MW4 4255   1.589   2.805   1.985  0.0005  0.0001 -0.0000
 1051SOL     OW 4256   1.565   3.082   1.873  0.2519  0.1603  0.1558
 1051SOL    HW2 4257   1.579   2.991   1.900 -0.4667 -0.1078 -0.3585
 1051SOL    HW3 4258   1.567   3.079   1.777 -0.6119  0.5462  0.1216
 1051SOL    MW4 4259   1.567   3.070   1.864  0.0005  0.0001 -0.0000
 1052SOL     OW 4260   1.371   3.234   1.995  0.1111 -0.2158 -0.2848
 1052SOL    HW2 4261   1.439   3.187   1.947 -0.1761 -0.9223 -0.0107
 1052SOL    HW3 4262   1.290   3.187   1.973 -0.4343  1.2019 -1.3785
 1052SOL    MW4 4263   1.369   3.222   1.986  0.0005  0.0001 -0.0000
 1053SOL     OW 4264   1.333   3.470   1.856  0.0517 -0.1015  0.4597
 1053SOL    HW2 4265   1.351   3.385   1.897 -0.6126  0.3580  1.7434
 1053SOL    HW3 4266   1.245   3.492   1.886 -0.4185  0.2952 -1.1763
 1053SOL    MW4 4267   1.324   3.462   1.865  0.0005  0.0001 -0.0000
 1054SOL     OW 4268   1.549   3.604   1.987 -0.1098 -0.3135 -0.4702
 1054SOL    HW2 4269   1.534   3.623   2.080 -0.6083  2.1158 -1.0139
 1054SOL    HW3 4270   1.467   3.563   1.958  0.1790 -1.4108  0.2280
 1054SOL    MW4 4271   1.536   3.601   1.995  0.0005  0.0001 -0.0000
 1055SOL     OW 4272   1.596   3.860   1.869  0.4557  0.1305  0.0259
 1055SOL    HW2 4273   1.674   3.904   1.902 -0.4516  0.4414  1.8053
 1055SOL    HW3 4274   1.594   3.776   1.915  0.1204 -0.1831 -0.5536
 1055SOL    MW4 4275   1.606   3.855   1.879  0.0005  0.0001 -0.0000
 1056SOL     OW 4276   1.368   4.000   1.975  0.2216 -0.3312 -0.2279
 1056SOL    HW2 4277   1.457   3.976   1.949 -0.1077 -1.2237 -0.5357
 1056SOL    HW3 4278   1.312   3.934   1.935 -0.7251  1.0723 -1.2770
 1056SOL    MW4 4279   1.372   3.988   1.966  0.0005  0.0001 -0.0000
 1057SOL     OW 4280   1.286   4.242   1.900 -0.1044  0.0894 -0.2158
 1057SOL    HW2 4281   1.302   4.152   1.929 -0.9799 -0.1743 -0.5295
 1057SOL    HW3 4282   1.300   4.240   1.805  1.4971  0.6641 -0.0083
 1057SOL    MW4 4283   1.290   4.230   1.891  0.0005  0.0001 -0.0000
 1058SOL     OW 4284   1.513   4.379   1.982  0.1833 -0.2621  0.3145
 1058SOL    HW2 4285   1.514   4.380   2.078  0.4848  0.8235  0.3029
 1058SOL    HW3 4286   1.439   4.322   1.960 -1.3788  1.3662  1.2021
 1058SOL    MW4 4287   1.503   4.372   1.992  0.0005  0.0001 -0.0000
 1059SOL     OW 4288   1.988   0.046   1.886 -0.5326 -0.0675  0.1596
 1059SOL    HW2 4289   2.064   0.098   1.911  0.2822 -0.6472 -1.0868
 1059SOL    HW3 4290   2.010  -0.043   1.914 -1.0818 -0.0989  0.4929
 1059SOL    MW4 4291   2.001   0.041   1.893  0.0005  0.0001 -0.0000
 1060SOL     OW 4292   1.732   0.130   1.975  0.1064  0.0569  0.2773
 1060SOL    HW2 4293   1.736   0.130   2.071 -0.7086 -1.0386  0.3207
 1060SOL    HW3 4294   1.813   0.087   1.948 -1.6536 -3.6731  0.6189
 1060SOL    MW4 4295   1.743   0.124   1.984  0.0005  0.0001 -0.0000
 1061SOL     OW 4296   1.751   0.404   1.918  0.0326  0.1145  0.0002
 1061SOL    HW2 4297   1.751   0.309   1.930 -0.1093 -0.0945 -1.5837
 1061SOL    HW3 4298   1.768   0.417   1.825 -1.7181  1.6013 -0.1435
 1061SOL    MW4 4299   1.753   0.393   1.907  0.0005  0.0001 -0.0000
 1062SOL     OW 4300   2.015   0.496   1.982 -0.3322  0.6903 -0.0577
 1062SOL    HW2 4301   2.014   0.588   1.954 -1.5888  0.6386 -0.2260
 1062SOL    HW3 4302   1.932   0.461   1.950 -0.5400 -0.1084  1.3280
 1062SOL    MW4 4303   2.004   0.503   1.974  0.0005  0.0001 -0.0000
 1063SOL     OW 4304   2.018   0.751   1.835 -0.1183 -0.2286  0.2568
 1063SOL    HW2 4305   2.102   0.789   1.860  0.0546 -0.2117 -0.3504
 1063SOL    HW3 4306   2.018   0.752   1.739 -0.5315 -0.8363  0.2455
 1063SOL    MW4 4307   2.029   0.756   1.826  0.0005  0.0001 -0.0000
 1064SOL     OW 4308   1.790   0.899   1.970 -0.2786 -0.0048  0.2757
 1064SOL    HW2 4309   1.787   0.988   1.934 -1.1415  0.0035  0.3536
 1064SOL    HW3 4310   1.863   0.857   1.925 -0.3154  0.5241 -0.2812
 1064SOL    MW4 4311   1.799   0.905   1.959  0.0005  0.0001 -0.0000
 1065SOL     OW 4312   1.769   1.161   1.902  0.5005 -0.0652 -0.1455
 1065SOL    HW2 4313   1.700   1.211   1.945  0.2566  0.3696 -1.0305
 1065SOL    HW3 4314   1.771   1.195   1.812  1.5568 -0.3868 -0.2509
 1065SOL    MW4 4315   1.760   1.172   1.896  0.0005  0.0001 -0.0000
 1066SOL     OW 4316   2.008   1.297   1.957  0.2264  0.1671 -0.2812
 1066SOL    HW2 4317   2.082   1.242   1.930  0.8624  1.1500 -0.5493
 1066SOL    HW3 4318   1.931   1.246   1.932  0.7765 -1.6826  1.6306
 1066SOL    MW4 4319   2.008   1.283   1.950  0.0005  0.0001 -0.0000
 1067SOL     OW 4320   2.013   1.575   1.885 -0.2846  0.2088 -0.4025
 1067SOL    HW2 4321   2.013   1.480   1.900  1.5553  0.2252 -0.1763
 1067SOL    HW3 4322   2.006   1.585   1.790  1.8775 -0.2308 -0.6322
 1067SOL    MW4 4323   2.012   1.564   1.874  0.0005  0.0001 -0.0000
 1068SOL     OW 4324   1.774   1.697   1.969  0.2496  0.1141 -0.1710
 1068SOL    HW2 4325   1.783   1.779   1.920 -1.2474 -0.4988 -1.5005
 1068SOL    HW3 4326   1.853   1.648   1.948  0.0703  0.2606 -1.2219
 1068SOL    MW4 4327   1.786   1.701   1.960  0.0005  0.0001 -0.0000
 1069SOL     OW 4328   1.803   1.963   1.854  0.4843  0.4705  0.2548
 1069SOL    HW2 4329   1.728   2.008   1.893  1.3617  0.1983  2.3520
 1069SOL    HW3 4330   1.797   1.981   1.760 -3.0575 -0.8233  0.1679
 1069SOL    MW4 4331   1.792   1.971   1.847  0.0005  0.0001 -0.0000
 1070SOL     OW 4332   2.034   2.052   1.954 -0.3460  0.0842 -0.2506
 1070SOL    HW2 4333   2.104   2.019   1.898 -0.6783  0.3714 -0.8397
 1070SOL    HW3 4334   1.955   2.010   1.921 -0.5313  0.1849  0.0622
 1070SOL    MW4 4335   2.033   2.042   1.942  0.0005  0.0001 -0.0000
 1071SOL     OW 4336   2.017   2.328   1.893  0.0333  0.4060 -0.2110
 1071SOL    HW2 4337   2.105   2.364   1.903  0.8484 -1.0084 -2.0387
 1071SOL    HW3 4338   2.024   2.237   1.921 -0.8259  0.2562 -0.4513
 1071SOL    MW4 4339   2.030   2.321   1.898  0.0005  0.0001 -0.0000
 1072SOL     OW 4340   1.763   2.446   1.929  0.5025  0.3169  0.4653
 1072SOL    HW2 4341   1.747   2.443   2.023 -1.0198 -1.8789  0.1806
 1072SOL    HW3 4342   1.852   2.414   1.918  0.6220  0.4164  1.1434
 1072SOL    MW4 4343   1.773   2.441   1.940  0.0005  0.0001 -0.0000
 1073SOL     OW 4344   1.835   2.712   1.895 -0.2397  0.1052  0.2790
 1073SOL    HW2 4345   1.828   2.619   1.916 -1.1756  0.2520  0.6470
 1073SOL    HW3 4346   1.821   2.717   1.800 -0.8196 -0.0639  0.3551
 1073SOL    MW4 4347   1.832   2.700   1.885  0.0005  0.0001 -0.0000
 1074SOL     OW 4348   2.081   2.852   1.972 -0.1635  0.3224 -0.0086
 1074SOL    HW2 4349   2.094   2.843   2.066  2.3034  0.1309 -0.3278
 1074SOL    HW3 4350   2.013   2.788   1.950  0.5320 -0.9069  1.3629
 1074SOL    MW4 4351   2.074   2.842   1.982  0.0005  0.0001 -0.0000
 1075SOL     OW 4352   2.013   3.089   1.871  0.1616  0.0431  0.4386
 1075SOL    HW2 4353   1.928   3.115   1.907 -0.3938 -0.5113 -0.4538
 1075SOL    HW3 4354   2.033   3.007   1.915 -0.1439 -0.2291  0.0767
 1075SOL    MW4 4355   2.004   3.082   1.882  0.0005  0.0001 -0.0000
 1076SOL     OW 4356   1.779   3.212   1.969 -0.0293 -0.4192  0.2960
 1076SOL    HW2 4357   1.783   3.197   2.063 -0.1263 -0.5874  0.2734
 1076SOL    HW3 4358   1.706   3.158   1.939  0.3728 -0.8221  0.0362
 1076SOL    MW4 4359   1.770   3.203   1.977  0.0005  0.0001 -0.0000
 1077SOL     OW 4360   1.784   3.468   1.870  0.4956  0.1702 -0.2551
 1077SOL    HW2 4361   1.782   3.377   1.900  1.8183  0.0737 -0.4355
 1077SOL    HW3 4362   1.700   3.504   1.898 -0.4791 -1.3914 -1.0913
 1077SOL    MW4 4363   1.773   3.461   1.878  0.0005  0.0001 -0.0000
 1078SOL     OW 4364   2.000   3.611   1.953  0.3758  0.1533 -0.4076
 1078SOL    HW2 4365   1.994   3.700   1.917 -0.7668  0.2779  0.0701
 1078SOL    HW3 4366   1.923   3.566   1.918  0.6158 -0.4609 -0.1456
 1078SOL    MW4 4367   1.989   3.617   1.944  0.0005  0.0001 -0.0000
 1079SOL     OW 4368   1.978   3.871   1.871  0.3589  0.0594  0.0379
 1079SOL    HW2 4369   2.061   3.889   1.915  0.1502  0.6000  0.2144
 1079SOL    HW3 4370   1.998   3.879   1.778  0.1762  1.6523  0.1219
 1079SOL    MW4 4371   1.992   3.874   1.865  0.0005  0.0001 -0.0000
 1080SOL     OW 4372   1.784   4.008   1.988  0.1488 -0.1793 -0.0980
 1080SOL    HW2 4373   1.761   4.090   1.944  0.8078 -0.8390 -1.7181
 1080SOL    HW3 4374   1.861   3.976   1.940 -0.5862 -2.1462 -0.0070
 1080SOL    MW4 4375   1.791   4.015   1.976  0.0005  0.0001 -0.0000
 1081SOL     OW 4376   1.766   4.293   1.917 -0.2347 -0.2041  0.9571
 1081SOL    HW2 4377   1.675   4.311   1.942 -0.2317  0.1411  0.7187
 1081SOL    HW3 4378   1.766   4.294   1.821  0.3423  1.4327  0.9571
 1081SOL    MW4 4379   1.754   4.296   1.908  0.0005  0.0001 -0.0000
 1082SOL     OW 4380   2.007   4.430   1.979 -0.0946 -0.0911  0.4337
 1082SOL    HW2 4381   2.073   4.372   1.940 -1.2910 -1.1799  0.0014
 1082SOL    HW3 4382   1.926   4.380   1.976 -0.8729  1.0823  1.3411
 1082SOL    MW4 4383   2.005   4.416   1.973  0.0005  0.0001 -0.0000
 1083SOL     OW 4384   2.455   4.661   1.888 -0.0098  0.0327 -0.1280
 1083SOL    HW2 4385   2.535   4.705   1.916  0.3326 -0.2436 -0.6623
 1083SOL    HW3 4386   2.456   4.577   1.934  0.1044 -0.0483 -0.2765
 1083SOL    MW4 4387   2.466   4.656   1.898  0.0005  0.0001 -0.0000
 1084SOL     OW 4388   2.229   0.154   1.977  0.3044 -0.1246  0.3850
 1084SOL    HW2 4389   2.242   0.147   2.071 -0.6841 -0.2628  0.5208
 1084SOL    HW3 4390   2.300   0.103   1.938 -0.4642 -1.7732  1.1035
 1084SOL    MW4 4391   2.240   0.146   1.984  0.0005  0.0001 -0.0000
 1085SOL     OW 4392   2.235   0.388   1.829 -0.1142  0.0304  0.1782
 1085SOL    HW2 4393   2.265   0.324   1.894 -0.3277 -1.1510 -0.8666
 1085SOL    HW3 4394   2.157   0.427   1.868  0.1209 -0.2165  0.9037
 1085SOL    MW4 4395   2.229   0.385   1.843  0.0005  0.0001 -0.0000
 1086SOL     OW 4396   2.461   0.526   1.923 -0.4932 -0.0680  0.7976
 1086SOL    HW2 4397   2.533   0.471   1.891 -0.5886  0.8490 -1.0598
 1086SOL    HW3 4398   2.382   0.482   1.893 -0.7680 -1.3222  3.2341
 1086SOL    MW4 4399   2.460   0.513   1.915  0.0005  0.0001 -0.0000
 1087SOL     OW 4400   2.483   0.795   1.842 -0.3164  0.1239  0.0644
 1087SOL    HW2 4401   2.479   0.704   1.873  0.5939  0.2962  0.7115
 1087SOL    HW3 4402   2.487   0.788   1.747 -0.4707 -0.5085  0.1029
 1087SOL    MW4 4403   2.483   0.782   1.834  0.0005  0.0001 -0.0000
 1088SOL     OW 4404   2.247   0.886   1.938  0.1279  0.4301 -0.3703
 1088SOL    HW2 4405   2.259   0.855   2.028  1.8088  2.9744  0.3438
 1088SOL    HW3 4406   2.331   0.869   1.895 -0.0356  0.9561 -0.9059
 1088SOL    MW4 4407   2.260   0.880   1.944  0.0005  0.0001 -0.0000
 1089SOL     OW 4408   2.228   1.155   1.883 -0.3745 -0.1180  0.1568
 1089SOL    HW2 4409   2.306   1.186   1.929  0.5765 -0.3594 -1.2410
 1089SOL    HW3 4410   2.228   1.060   1.897  0.9512 -0.4412 -1.8281
 1089SOL    MW4 4411   2.238   1.147   1.891  0.0005  0.0001 -0.0000
 1090SOL     OW 4412   2.473   1.279   1.967 -0.2754  0.0975  0.2476
 1090SOL    HW2 4413   2.461   1.293   2.061  0.0033  2.4943 -0.0499
 1090SOL    HW3 4414   2.455   1.364   1.927 -1.1796 -1.0838 -1.9618
 1090SOL    MW4 4415   2.469   1.292   1.974  0.0005  0.0001 -0.0000
 1091SOL     OW 4416   2.436   1.547   1.886 -0.3180  0.2717  0.0104
 1091SOL    HW2 4417   2.369   1.610   1.913 -1.1692 -0.6769  0.1359
 1091SOL    HW3 4418   2.443   1.560   1.791 -0.3451  0.6924  0.0635
 1091SOL    MW4 4419   2.428   1.557   1.877  0.0005  0.0001 -0.0000
 1092SOL     OW 4420   2.250   1.711   2.001 -0.5045 -0.5812 -0.2710
 1092SOL    HW2 4421   2.227   1.710   2.094 -0.7732 -0.1474 -0.3339
 1092SOL    HW3 4422   2.177   1.667   1.958 -0.0972 -1.3277 -0.2162
 1092SOL    MW4 4423   2.237   1.705   2.008  0.0005  0.0001 -0.0000
 1093SOL     OW 4424   2.251   1.933   1.823 -0.6078  0.4764  0.1779
 1093SOL    HW2 4425   2.329   1.974   1.860  0.8486 -0.7908 -1.4459
 1093SOL    HW3 4426   2.238   1.854   1.875  0.3254 -0.3066 -0.7566
 1093SOL    MW4 4427   2.260   1.928   1.835  0.0005  0.0001 -0.0000
 1094SOL     OW 4428   2.474   2.055   1.920 -0.1473 -0.2330 -0.3204
 1094SOL    HW2 4429   2.562   2.018   1.911  0.2964  0.5803  0.6264
 1094SOL    HW3 4430   2.484   2.147   1.897 -0.6588 -0.0349  0.2391
 1094SOL    MW4 4431   2.487   2.062   1.916  0.0005  0.0001 -0.0000
 1095SOL     OW 4432   2.453   2.332   1.854 -0.9389  0.0895  0.0648
 1095SOL    HW2 4433   2.523   2.395   1.872  0.7557 -1.3280 -1.3487
 1095SOL    HW3 4434   2.373   2.376   1.882  0.2256  2.7848 -0.6931
 1095SOL    MW4 4435   2.452   2.346   1.860  0.0005  0.0001 -0.0000
 1096SOL     OW 4436   2.239   2.471   1.938  0.1652 -0.3343  0.0926
 1096SOL    HW2 4437   2.262   2.475   2.031 -0.2258 -0.0282  0.1790
 1096SOL    HW3 4438   2.235   2.563   1.911  0.7997 -0.4368 -0.3577
 1096SOL    MW4 4439   2.241   2.484   1.947  0.0005  0.0001 -0.0000
 1097SOL     OW 4440   2.291   2.716   1.848 -0.4271 -0.0359  0.0051
 1097SOL    HW2 4441   2.214   2.767   1.873 -0.7861 -0.1613 -0.8320
 1097SOL    HW3 4442   2.283   2.705   1.753  0.9193  0.4395 -0.1753
 1097SOL    MW4 4443   2.280   2.721   1.839  0.0005  0.0001 -0.0000
 1098SOL     OW 4444   2.494   2.863   1.958 -0.2549  0.0775  0.1636
 1098SOL    HW2 4445   2.465   2.951   1.933  0.5724  0.3152  0.0221
 1098SOL    HW3 4446   2.424   2.805   1.928 -0.1100  0.5402 -1.0967
 1098SOL    MW4 4447   2.481   2.867   1.951  0.0005  0.0001 -0.0000
 1099SOL     OW 4448   2.434   3.114   1.901 -0.4688 -0.0280  0.4841
 1099SOL    HW2 4449   2.348   3.144   1.931 -0.3241 -0.7923  1.6921
 1099SOL    HW3 4450   2.430   3.122   1.806 -1.0995  2.0125  0.6562
 1099SOL    MW4 4451   2.422   3.119   1.892  0.0005  0.0001 -0.0000
 1100SOL     OW 4452   2.212   3.234   1.977 -0.1845  0.1873 -0.6903
 1100SOL    HW2 4453   2.179   3.239   2.067 -0.3274  0.2722 -0.7476
 1100SOL    HW3 4454   2.150   3.178   1.931 -0.3276  0.4610 -0.8328
 1100SOL    MW4 4455   2.199   3.227   1.983  0.0005  0.0001 -0.0000
 1101SOL     OW 4456   2.257   3.507   1.924 -0.2528 -0.2383  0.0798
 1101SOL    HW2 4457   2.241   3.414   1.942 -0.8706  0.3380  2.7092
 1101SOL    HW3 4458   2.174   3.550   1.945  0.5226  1.1036  0.4259
 1101SOL    MW4 4459   2.244   3.500   1.929  0.0005  0.0001 -0.0000
 1102SOL     OW 4460   2.494   3.653   1.970 -0.1869  0.6615  0.3198
 1102SOL    HW2 4461   2.502   3.656   2.065  0.4775  2.3085  0.2194
 1102SOL    HW3 4462   2.420   3.594   1.955 -2.4923  3.0019  1.9807
 1102SOL    MW4 4463   2.485   3.646   1.981  0.0005  0.0001 -0.0000
 1103SOL     OW 4464   2.454   3.908   1.856 -0.2725  0.2009  0.4497
 1103SOL    HW2 4465   2.380   3.943   1.905 -1.4188 -0.3434 -0.8566
 1103SOL    HW3 4466   2.472   3.823   1.896 -0.5216  0.2210  0.6025
 1103SOL    MW4 4467   2.447   3.901   1.868  0.0005  0.0001 -0.0000
 1104SOL     OW 4468   2.223   3.981   1.974  0.2818 -0.0738 -0.0921
 1104SOL    HW2 4469   2.205   3.989   2.068  0.5522  1.8415 -0.1730
 1104SOL    HW3 4470   2.207   4.069   1.940  0.7400 -0.6231 -1.7488
 1104SOL    MW4 4471   2.219   3.994   1.982  0.0005  0.0001 -0.0000
 1105SOL     OW 4472   2.200   4.256   1.902 -0.2388  0.6236 -0.1114
 1105SOL    HW2 4473   2.272   4.312   1.931 -0.1624  0.4303  0.0779
 1105SOL    HW3 4474   2.199   4.265   1.807  0.9748 -0.4901 -0.2433
 1105SOL    MW4 4475   2.209   4.265   1.893  0.0005  0.0001 -0.0000
 1106SOL     OW 4476   2.427   4.400   1.977  0.0242 -0.4724  0.3940
 1106SOL    HW2 4477   2.449   4.400   2.070  0.3302  1.0682  0.3348
 1106SOL    HW3 4478   2.508   4.373   1.933 -0.0261 -0.8821  0.5509
 1106SOL    MW4 4479   2.441   4.396   1.983  0.0005  0.0001 -0.0000
 1107SOL     OW 4480   2.918   4.666   1.823 -0.0244  0.5058 -0.3852
 1107SOL    HW2 4481   2.984   4.720   1.865  1.1898  0.3655 -2.0611
 1107SOL    HW3 4482   2.938   4.577   1.851  0.7890  0.4112 -1.2432
 1107SOL    MW4 4483   2.929   4.661   1.832  0.0005  0.0001 -0.0000
 1108SOL     OW 4484   2.697   0.124   1.957  0.1209 -0.0000  0.0146
 1108SOL    HW2 4485   2.708   0.130   2.052  0.3893  0.7912 -0.0628
 1108SOL    HW3 4486   2.775   0.078   1.927  2.0004  3.1986 -0.2338
 1108SOL    MW4 4487   2.709   0.119   1.966  0.0005  0.0001 -0.0000
 1109SOL     OW 4488   2.702   0.385   1.885 -0.8308 -0.0423 -0.1758
 1109SOL    HW2 4489   2.785   0.426   1.911 -0.6091 -1.2953  1.1596
 1109SOL    HW3 4490   2.706   0.297   1.922 -2.1758 -0.5925 -1.2882
 1109SOL    MW4 4491   2.713   0.379   1.893  0.0005  0.0001 -0.0000
 1110SOL     OW 4492   2.941   0.503   1.925 -0.3255  0.1605 -0.1584
 1110SOL    HW2 4493   3.019   0.461   1.888  0.1155 -0.3319  1.2963
 1110SOL    HW3 4494   2.940   0.590   1.886  1.5773  0.5612  0.6288
 1110SOL    MW4 4495   2.951   0.509   1.915  0.0005  0.0001 -0.0000
 1111SOL     OW 4496   2.911   0.757   1.844 -0.1056 -0.3479 -0.0675
 1111SOL    HW2 4497   2.993   0.795   1.877 -0.1842 -1.1005  1.0238
 1111SOL    HW3 4498   2.843   0.795   1.900 -0.5194  0.3330 -1.0198
 1111SOL    MW4 4499   2.913   0.767   1.856  0.0005  0.0001 -0.0000
 1112SOL     OW 4500   2.693   0.893   1.987 -0.2187 -0.1998 -0.2234
 1112SOL    HW2 4501   2.695   0.980   1.947 -0.0281  0.2826  0.8125
 1112SOL    HW3 4502   2.626   0.845   1.938 -0.4908  0.6066 -0.6452
 1112SOL    MW4 4503   2.684   0.898   1.975  0.0005  0.0001 -0.0000
 1113SOL     OW 4504   2.691   1.155   1.876  0.0159 -0.3402  0.0518
 1113SOL    HW2 4505   2.613   1.193   1.915  0.0510  0.5403 -0.7134
 1113SOL    HW3 4506   2.674   1.158   1.782  0.6286 -0.8969 -0.0778
 1113SOL    MW4 4507   2.678   1.160   1.869  0.0005  0.0001 -0.0000
 1114SOL     OW 4508   2.938   1.295   1.924 -0.0797 -0.1459  0.5896
 1114SOL    HW2 4509   2.923   1.389   1.917  0.2136 -0.1335  0.1094
 1114SOL    HW3 4510   2.857   1.256   1.891  0.3107 -0.0676 -0.4822
 1114SOL    MW4 4511   2.925   1.302   1.919  0.0005  0.0001 -0.0000
 1115SOL     OW 4512   2.903   1.587   1.907  0.4482 -0.2215  0.2608
 1115SOL    HW2 4513   2.991   1.606   1.940  0.9304  1.0841 -1.6668
 1115SOL    HW3 4514   2.912   1.593   1.812 -1.2780 -2.1346 -0.0505
 1115SOL    MW4 4515   2.916   1.590   1.899  0.0005  0.0001 -0.0000
 1116SOL     OW 4516   2.658   1.685   1.971 -0.1409  0.2188  0.2029
 1116SOL    HW2 4517   2.743   1.641   1.963  0.3150  1.2549 -0.8035
 1116SOL    HW3 4518   2.595   1.622   1.937  0.1999 -0.6172  1.0981
 1116SOL    MW4 4519   2.661   1.671   1.965  0.0005  0.0001 -0.0000
 1117SOL     OW 4520   2.703   1.920   1.848  0.6923  0.2301  0.7518
 1117SOL    HW2 4521   2.776   1.954   1.899 -0.7003  0.9473  2.3141
 1117SOL    HW3 4522   2.684   1.835   1.887  2.5249 -1.2853 -1.5192
 1117SOL    MW4 4523   2.710   1.913   1.860  0.0005  0.0001 -0.0000
 1118SOL     OW 4524   2.926   2.060   1.958  0.4869  0.5148 -0.1548
 1118SOL    HW2 4525   2.919   2.071   2.053 -0.0415  1.6958 -0.3209
 1118SOL    HW3 4526   3.015   2.028   1.944  0.3952 -0.1688  0.7789
 1118SOL    MW4 4527   2.937   2.057   1.969  0.0005  0.0001 -0.0000
 1119SOL     OW 4528   2.915   2.332   1.920  0.1386 -0.1499 -0.1372
 1119SOL    HW2 4529   3.003   2.365   1.938  0.3960 -0.9275  0.0504
 1119SOL    HW3 4530   2.922   2.237   1.932 -0.7265 -0.2145 -0.1122
 1119SOL    MW4 4531   2.928   2.324   1.924  0.0005  0.0001 -0.0000
 1120SOL     OW 4532   2.680   2.466   1.984  0.0154 -0.1129  0.2228
 1120SOL    HW2 4533   2.701   2.551   1.944  0.7887  0.2855  1.4440
 1120SOL    HW3 4534   2.762   2.417   1.979 -0.3508 -0.6855 -0.2105
 1120SOL    MW4 4535   2.694   2.471   1.978  0.0005  0.0001 -0.0000
 1121SOL     OW 4536   2.711   2.722   1.878 -0.6745  0.2407 -0.2136
 1121SOL    HW2 4537   2.639   2.776   1.911 -1.1835 -0.2027 -0.5967
 1121SOL    HW3 4538   2.693   2.711   1.785 -1.3555 -1.7819  0.1302
 1121SOL    MW4 4539   2.699   2.728   1.870  0.0005  0.0001 -0.0000
 1122SOL     OW 4540   2.920   2.877   1.981 -0.0662 -0.0924 -0.1090
 1122SOL    HW2 4541   2.911   2.967   1.951  2.1249  0.1667 -0.0629
 1122SOL    HW3 4542   2.846   2.831   1.941  0.3155  1.1573 -2.3395
 1122SOL    MW4 4543   2.909   2.883   1.972  0.0005  0.0001 -0.0000
 1123SOL     OW 4544   2.930   3.149   1.910  0.1585 -0.4142  0.1640
 1123SOL    HW2 4545   3.004   3.182   1.961  0.3577 -1.9972  0.9278
 1123SOL    HW3 4546   2.853   3.180   1.958  0.2990  1.3769 -0.7235
 1123SOL    MW4 4547   2.930   3.157   1.923  0.0005  0.0001 -0.0000
 1124SOL     OW 4548   2.665   3.220   2.003 -0.0075 -0.3836  0.3703
 1124SOL    HW2 4549   2.668   3.309   1.967  0.5269 -0.6265 -0.1932
 1124SOL    HW3 4550   2.581   3.186   1.974 -0.3458  0.0419  0.8404
 1124SOL    MW4 4551   2.654   3.227   1.994  0.0005  0.0001 -0.0000
 1125SOL     OW 4552   2.692   3.480   1.901  0.2910  0.0098  0.0488
 1125SOL    HW2 4553   2.776   3.519   1.924  0.4918  0.7031 -1.7802
 1125SOL    HW3 4554   2.627   3.541   1.937  0.5902  0.6818 -0.5350
 1125SOL    MW4 4555   2.695   3.493   1.909  0.0005  0.0001 -0.0000
 1126SOL     OW 4556   2.921   3.625   1.947 -0.0271  0.1438 -0.4124
 1126SOL    HW2 4557   2.917   3.642   2.041 -1.8011 -2.3732  0.0192
 1126SOL    HW3 4558   2.994   3.564   1.937 -0.6494 -0.5959 -0.4837
 1126SOL    MW4 4559   2.930   3.619   1.958  0.0005  0.0001 -0.0000
 1127SOL     OW 4560   2.900   3.903   1.864  0.6014 -0.8091 -0.3475
 1127SOL    HW2 4561   2.900   3.810   1.888  1.6240 -0.6272  0.3821
 1127SOL    HW3 4562   2.883   3.903   1.770  1.0241 -1.7623 -0.4322
 1127SOL    MW4 4563   2.898   3.891   1.855  0.0005  0.0001 -0.0000
 1128SOL     OW 4564   2.657   4.067   1.947  0.0208  0.2921  0.1278
 1128SOL    HW2 4565   2.737   4.022   1.919  0.3263 -0.1833  1.7110
 1128SOL    HW3 4566   2.586   4.011   1.917  0.3698 -0.6679  1.0644
 1128SOL    MW4 4567   2.658   4.054   1.939  0.0005  0.0001 -0.0000
 1129SOL     OW 4568   2.666   4.316   1.853  0.2275 -0.4722 -0.1485
 1129SOL    HW2 4569   2.665   4.233   1.901 -2.0487 -0.2085  0.3207
 1129SOL    HW3 4570   2.666   4.291   1.761  1.0041 -0.9833 -0.0128
 1129SOL    MW4 4571   2.666   4.302   1.847  0.0005  0.0001 -0.0000
 1130SOL     OW 4572   2.919   4.416   1.945  0.2637 -0.5441  0.6441
 1130SOL    HW2 4573   2.921   4.409   2.040  0.9064  1.3890  0.7959
 1130SOL    HW3 4574   2.830   4.392   1.921 -0.1454 -0.2246  1.8111
 1130SOL    MW4 4575   2.907   4.412   1.954  0.0005  0.0001 -0.0000
 1131SOL     OW 4576   3.402   4.636   1.864  0.2590  0.5915  0.3436
 1131SOL    HW2 4577   3.393   4.546   1.895  0.9161  0.3806 -0.0757
 1131SOL    HW3 4578   3.383   4.632   1.770  1.7756  0.6237  0.0191
 1131SOL    MW4 4579   3.398   4.624   1.856  0.0005  0.0001 -0.0000
 1132SOL     OW 4580   3.165   0.100   1.919  0.0200 -0.3913 -0.8503
 1132SOL    HW2 4581   3.182   0.104   2.013  0.5517  1.0181 -0.9942
 1132SOL    HW3 4582   3.230   0.037   1.886  2.0055  1.5276 -0.7243
 1132SOL    MW4 4583   3.176   0.092   1.927  0.0005  0.0001 -0.0000
 1133SOL     OW 4584   3.184   0.379   1.821  0.8461 -0.0563  0.3549
 1133SOL    HW2 4585   3.193   0.285   1.834  0.2079  0.1547  2.5684
 1133SOL    HW3 4586   3.187   0.391   1.726  1.2153 -2.2657  0.0669
 1133SOL    MW4 4587   3.186   0.368   1.810  0.0005  0.0001 -0.0000
 1134SOL     OW 4588   3.380   0.498   1.971  0.2103  0.5728 -0.5473
 1134SOL    HW2 4589   3.460   0.455   1.940  0.1708 -0.5949  0.9116
 1134SOL    HW3 4590   3.311   0.463   1.916  0.4331  0.0961 -0.5252
 1134SOL    MW4 4591   3.381   0.488   1.960  0.0005  0.0001 -0.0000
 1135SOL     OW 4592   3.385   0.781   1.889  0.3558  0.1022  0.3023
 1135SOL    HW2 4593   3.302   0.828   1.902  1.5034  1.5891  2.5887
 1135SOL    HW3 4594   3.373   0.698   1.936 -0.3451 -0.3247 -0.6135
 1135SOL    MW4 4595   3.373   0.776   1.897  0.0005  0.0001 -0.0000
 1136SOL     OW 4596   3.131   0.878   1.965  0.1631  0.0774  0.1058
 1136SOL    HW2 4597   3.149   0.887   2.059 -0.8536  0.4775  0.2690
 1136SOL    HW3 4598   3.131   0.968   1.932  0.2555 -0.0450 -0.2288
 1136SOL    MW4 4599   3.133   0.891   1.973  0.0005  0.0001 -0.0000
 1137SOL     OW 4600   3.157   1.133   1.869  0.3376 -0.4829  0.5286
 1137SOL    HW2 4601   3.224   1.194   1.900 -1.3387  1.2463  0.8329
 1137SOL    HW3 4602   3.074   1.175   1.891 -0.8683 -2.3058 -0.3934
 1137SOL    MW4 4603   3.155   1.147   1.876  0.0005  0.0001 -0.0000
 1138SOL     OW 4604   3.380   1.296   1.959  0.0503  0.2647  0.0176
 1138SOL    HW2 4605   3.390   1.302   2.054  1.3149 -2.3597  0.1020
 1138SOL    HW3 4606   3.369   1.387   1.930  0.3987  1.1676  2.5785
 1138SOL    MW4 4607   3.380   1.309   1.968  0.0005  0.0001 -0.0000
 1139SOL     OW 4608   3.346   1.533   1.835 -0.3904  0.7616 -0.6760
 1139SOL    HW2 4609   3.430   1.574   1.855 -0.0913 -1.0074  1.9379
 1139SOL    HW3 4610   3.282   1.581   1.887 -0.5137  0.0438 -0.1547
 1139SOL    MW4 4611   3.349   1.545   1.845  0.0005  0.0001 -0.0000
 1140SOL     OW 4612   3.173   1.661   2.004  0.2746  0.6756  0.1332
 1140SOL    HW2 4613   3.149   1.664   2.097 -2.1144  2.2777 -0.4834
 1140SOL    HW3 4614   3.162   1.751   1.974 -0.7929 -0.1766 -2.1309
 1140SOL    MW4 4615   3.168   1.673   2.012  0.0005  0.0001 -0.0000
 1141SOL     OW 4616   3.166   1.921   1.884  0.6488 -0.2493  0.2206
 1141SOL    HW2 4617   3.240   1.965   1.926  1.3267 -1.1415 -0.0236
 1141SOL    HW3 4618   3.179   1.936   1.790 -0.6552  1.4146  0.2817
 1141SOL    MW4 4619   3.177   1.929   1.877  0.0005  0.0001 -0.0000
 1142SOL     OW 4620   3.393   2.084   1.986 -0.2832  0.2894  0.3373
 1142SOL    HW2 4621   3.457   2.036   1.933 -0.9518  0.6618 -0.8253
 1142SOL    HW3 4622   3.398   2.174   1.954 -1.2011  0.3737  0.4179
 1142SOL    MW4 4623   3.402   2.090   1.975  0.0005  0.0001 -0.0000
 1143SOL     OW 4624   3.422   2.346   1.906  0.0603 -0.1820  0.5626
 1143SOL    HW2 4625   3.338   2.388   1.924 -0.7442 -1.2610 -0.6086
 1143SOL    HW3 4626   3.427   2.341   1.811  0.8765 -1.2692  0.6492
 1143SOL    MW4 4627   3.412   2.351   1.896  0.0005  0.0001 -0.0000
 1144SOL     OW 4628   3.179   2.467   1.958 -0.5994 -0.1978 -0.1030
 1144SOL    HW2 4629   3.166   2.464   2.053 -1.7818 -0.1095 -0.2593
 1144SOL    HW3 4630   3.150   2.554   1.933  0.5017  0.0810 -0.4402
 1144SOL    MW4 4631   3.173   2.478   1.967  0.0005  0.0001 -0.0000
 1145SOL     OW 4632   3.136   2.727   1.891 -0.2101 -0.2864  0.1760
 1145SOL    HW2 4633   3.055   2.773   1.914 -0.1131  1.0882 -2.0822
 1145SOL    HW3 4634   3.142   2.735   1.796  0.7289 -3.5149 -0.0814
 1145SOL    MW4 4635   3.126   2.734   1.881  0.0005  0.0001 -0.0000
 1146SOL     OW 4636   3.380   2.862   1.993  0.4606  0.8307 -0.0794
 1146SOL    HW2 4637   3.372   2.882   2.086 -0.3210  0.5048 -0.0737
 1146SOL    HW3 4638   3.297   2.820   1.970  0.5704  1.0875 -0.9673
 1146SOL    MW4 4639   3.368   2.859   2.002  0.0005  0.0001 -0.0000
 1147SOL     OW 4640   3.353   3.098   1.868 -0.0240 -0.5784 -0.2227
 1147SOL    HW2 4641   3.419   3.149   1.915 -0.6207 -1.0309  1.1348
 1147SOL    HW3 4642   3.359   3.010   1.906 -0.3292 -1.0294 -1.1958
 1147SOL    MW4 4643   3.362   3.093   1.879  0.0005  0.0001 -0.0000
 1148SOL     OW 4644   3.147   3.244   2.018 -0.5407  0.0033 -0.2558
 1148SOL    HW2 4645   3.149   3.325   1.968 -0.1286  0.2071  0.0874
 1148SOL    HW3 4646   3.209   3.186   1.973 -0.3103  0.1219 -0.0919
 1148SOL    MW4 4647   3.155   3.247   2.005  0.0005  0.0001 -0.0000
 1149SOL     OW 4648   3.146   3.480   1.878  0.2648  0.3541  0.0528
 1149SOL    HW2 4649   3.226   3.521   1.911  0.1409  0.0715  0.7040
 1149SOL    HW3 4650   3.147   3.499   1.784  2.9127 -2.6477 -0.6161
 1149SOL    MW4 4651   3.157   3.488   1.870  0.0005  0.0001 -0.0000
 1150SOL     OW 4652   3.351   3.642   1.980  0.0921  0.2116  0.0729
 1150SOL    HW2 4653   3.438   3.610   1.958 -0.5647 -0.7074 -1.2513
 1150SOL    HW3 4654   3.351   3.733   1.950  0.5276  0.1548 -0.1061
 1150SOL    MW4 4655   3.362   3.650   1.973  0.0005  0.0001 -0.0000
 1151SOL     OW 4656   3.344   3.910   1.873  0.2898  0.1880 -0.4195
 1151SOL    HW2 4657   3.266   3.960   1.897  1.1169  1.0629  0.4846
 1151SOL    HW3 4658   3.341   3.906   1.777 -1.7758 -1.2882 -0.3291
 1151SOL    MW4 4659   3.333   3.916   1.864  0.0005  0.0001 -0.0000
 1152SOL     OW 4660   3.123   4.036   1.957  0.2383  0.3203 -0.0991
 1152SOL    HW2 4661   3.156   4.011   2.043  0.5195 -0.3004 -0.3846
 1152SOL    HW3 4662   3.041   3.987   1.947  0.2085  0.3881 -0.1867
 1152SOL    MW4 4663   3.117   4.026   1.967  0.0005  0.0001 -0.0000
 1153SOL     OW 4664   3.143   4.281   1.840 -0.6779  0.2174  0.1429
 1153SOL    HW2 4665   3.139   4.193   1.876 -0.1878  0.1788  0.1060
 1153SOL    HW3 4666   3.064   4.324   1.873 -0.6358 -0.0621  0.6121
 1153SOL    MW4 4667   3.132   4.275   1.849  0.0005  0.0001 -0.0000
 1154SOL     OW 4668   3.364   4.372   1.988 -0.6405 -0.0011 -0.1119
 1154SOL    HW2 4669   3.444   4.329   1.958 -1.3863 -1.4345 -0.0908
 1154SOL    HW3 4670   3.294   4.330   1.938 -1.5122  0.2912  0.8456
 1154SOL    MW4 4671   3.365   4.361   1.977  0.0005  0.0001 -0.0000
 1155SOL     OW 4672   3.820   4.653   1.871 -0.4714  0.1784 -0.3832
 1155SOL    HW2 4673   3.827   4.562   1.901  0.0830  0.4371  0.2865
 1155SOL    HW3 4674   3.742   4.687   1.914 -0.2073  0.2672  0.0281
 1155SOL    MW4 4675   3.811   4.646   1.881  0.0005  0.0001 -0.0000
 1156SOL     OW 4676   3.603   0.093   1.986  0.4337 -0.2226  0.1355
 1156SOL    HW2 4677   3.586   0.103   2.080 -0.5111 -1.2751  0.0894
 1156SOL    HW3 4678   3.524   0.051   1.952  1.3361 -1.1163 -0.8900
 1156SOL    MW4 4679   3.590   0.089   1.994  0.0005  0.0001 -0.0000
 1157SOL     OW 4680   3.595   0.354   1.877 -0.0307 -0.5042  0.1736
 1157SOL    HW2 4681   3.606   0.265   1.909 -0.8587 -1.2584 -1.5751
 1157SOL    HW3 4682   3.578   0.344   1.783  0.8319  1.5468 -0.2297
 1157SOL    MW4 4683   3.594   0.341   1.869  0.0005  0.0001 -0.0000
 1158SOL     OW 4684   3.790   0.508   2.005  0.0724 -0.2359 -0.4399
 1158SOL    HW2 4685   3.789   0.593   1.960  0.3885  0.3364  0.6124
 1158SOL    HW3 4686   3.724   0.456   1.960 -0.7111  0.8537 -0.5665
 1158SOL    MW4 4687   3.781   0.512   1.993  0.0005  0.0001 -0.0000
 1159SOL     OW 4688   3.813   0.744   1.860  0.3719 -0.1809  0.2917
 1159SOL    HW2 4689   3.740   0.801   1.884  0.2443 -0.3092  0.2093
 1159SOL    HW3 4690   3.812   0.743   1.764 -0.4715 -1.4037  0.3018
 1159SOL    MW4 4691   3.803   0.751   1.851  0.0005  0.0001 -0.0000
 1160SOL     OW 4692   3.609   0.900   1.962  0.3955 -0.3372  0.3589
 1160SOL    HW2 4693   3.601   0.992   1.935  0.0353 -0.3503  0.4161
 1160SOL    HW3 4694   3.532   0.858   1.925  0.1853 -0.4702  0.9437
 1160SOL    MW4 4695   3.598   0.907   1.954  0.0005  0.0001 -0.0000
 1161SOL     OW 4696   3.592   1.186   1.847  0.0578  0.1384 -1.2232
 1161SOL    HW2 4697   3.508   1.225   1.872  0.9322  1.1193  0.2651
 1161SOL    HW3 4698   3.591   1.186   1.751 -2.3966 -1.5510 -1.2434
 1161SOL    MW4 4699   3.581   1.191   1.838  0.0005  0.0001 -0.0000
 1162SOL     OW 4700   3.823   1.278   1.982 -0.1694  0.2784  0.7669
 1162SOL    HW2 4701   3.818   1.281   2.077  0.9811  1.6242  0.8038
 1162SOL    HW3 4702   3.736   1.250   1.954 -0.5575  0.0161  2.2021
 1162SOL    MW4 4703   3.811   1.275   1.991  0.0005  0.0001 -0.0000
 1163SOL     OW 4704   3.815   1.547   1.894 -0.0890  0.4582  0.2561
 1163SOL    HW2 4705   3.878   1.604   1.938 -0.6832  1.2716  0.0531
 1163SOL    HW3 4706   3.824   1.463   1.939  2.1133  0.1538 -0.6567
 1163SOL    MW4 4707   3.824   1.543   1.906  0.0005  0.0001 -0.0000
 1164SOL     OW 4708   3.580   1.658   1.961  0.1449 -0.0123  0.4733
 1164SOL    HW2 4709   3.599   1.750   1.943 -1.0193 -0.2236 -2.0672
 1164SOL    HW3 4710   3.658   1.612   1.932  0.1058  0.0445  0.2773
 1164SOL    MW4 4711   3.593   1.664   1.955  0.0005  0.0001 -0.0000
 1165SOL     OW 4712   3.581   1.921   1.862  0.2539  0.1922  0.1133
 1165SOL    HW2 4713   3.654   1.975   1.892 -1.0614  1.9235  0.2709
 1165SOL    HW3 4714   3.592   1.918   1.767  0.4878  0.5105  0.1277
 1165SOL    MW4 4715   3.592   1.928   1.853  0.0005  0.0001 -0.0000
 1166SOL     OW 4716   3.790   2.073   1.950  0.1897 -0.3892  0.0337
 1166SOL    HW2 4717   3.879   2.040   1.937 -0.4418 -1.2077 -2.5117
 1166SOL    HW3 4718   3.791   2.160   1.909 -0.1287 -0.3173  0.1799
 1166SOL    MW4 4719   3.802   2.080   1.943  0.0005  0.0001 -0.0000
 1167SOL     OW 4720   3.829   2.341   1.880 -0.5723 -0.0061  0.1388
 1167SOL    HW2 4721   3.914   2.371   1.911 -0.4596  0.8685 -0.9856
 1167SOL    HW3 4722   3.769   2.413   1.900 -0.7662 -0.0209 -0.3801
 1167SOL    MW4 4723   3.832   2.354   1.887  0.0005  0.0001 -0.0000
 1168SOL     OW 4724   3.642   2.506   2.001  0.2510 -0.0896 -0.8165
 1168SOL    HW2 4725   3.614   2.586   1.957  0.4260  0.2911 -0.2383
 1168SOL    HW3 4726   3.576   2.441   1.976 -0.9181  0.6893  0.1805
 1168SOL    MW4 4727   3.630   2.508   1.992  0.0005  0.0001 -0.0000
 1169SOL     OW 4728   3.618   2.749   1.887 -0.0498 -0.1245 -0.1831
 1169SOL    HW2 4729   3.682   2.798   1.939 -1.7534  1.6139  0.3407
 1169SOL    HW3 4730   3.535   2.793   1.904 -1.2637 -1.8546 -1.4717
 1169SOL    MW4 4731   3.615   2.761   1.896  0.0005  0.0001 -0.0000
 1170SOL     OW 4732   3.815   2.896   2.016  0.3681 -0.0056 -0.1295
 1170SOL    HW2 4733   3.836   2.918   2.107  2.1680 -0.9658 -0.2826
 1170SOL    HW3 4734   3.823   2.979   1.969 -1.5962  0.7093  0.7370
 1170SOL    MW4 4735   3.819   2.910   2.022  0.0005  0.0001 -0.0000
 1171SOL     OW 4736   3.818   3.147   1.887  0.5518  0.6037 -0.2425
 1171SOL    HW2 4737   3.734   3.181   1.917  1.2543  0.9458  1.3752
 1171SOL    HW3 4738   3.808   3.140   1.792 -1.2318  0.8182 -0.0920
 1171SOL    MW4 4739   3.806   3.151   1.878  0.0005  0.0001 -0.0000
 1172SOL     OW 4740   3.547   3.236   1.993 -0.1012 -0.2574 -0.3084
 1172SOL    HW2 4741   3.568   3.248   2.086 -2.8051  1.9162  0.0924
 1172SOL    HW3 4742   3.561   3.322   1.954  0.8929 -1.1273 -1.9234
 1172SOL    MW4 4743   3.552   3.249   2.000  0.0005  0.0001 -0.0000
 1173SOL     OW 4744   3.578   3.496   1.899 -0.2775  0.3421  0.1900
 1173SOL    HW2 4745   3.670   3.498   1.926 -0.1818  0.1464 -0.1198
 1173SOL    HW3 4746   3.581   3.490   1.804 -0.6149  0.9998  0.1346
 1173SOL    MW4 4747   3.591   3.495   1.890  0.0005  0.0001 -0.0000
 1174SOL     OW 4748   3.835   3.561   1.979  0.1396  0.2389  0.0191
 1174SOL    HW2 4749   3.917   3.530   1.940 -0.1089 -0.3613 -0.0270
 1174SOL    HW3 4750   3.832   3.654   1.958  0.1892 -0.0007 -1.0748
 1174SOL    MW4 4751   3.845   3.569   1.971  0.0005  0.0001 -0.0000
 1175SOL     OW 4752   3.814   3.830   1.925 -0.0300 -0.0568 -0.1442
 1175SOL    HW2 4753   3.731   3.873   1.946 -0.0056 -1.0613  2.1054
 1175SOL    HW3 4754   3.816   3.829   1.829 -2.2385  0.6894 -0.2368
 1175SOL    MW4 4755   3.803   3.836   1.915  0.0005  0.0001 -0.0000
 1176SOL     OW 4756   3.571   4.014   1.973  0.3105 -0.3074 -0.4306
 1176SOL    HW2 4757   3.564   4.016   2.068  1.0514 -1.9067 -0.3270
 1176SOL    HW3 4758   3.487   3.978   1.944  0.3077 -0.3623 -0.3553
 1176SOL    MW4 4759   3.559   4.009   1.982  0.0005  0.0001 -0.0000
 1177SOL     OW 4760   3.592   4.270   1.863 -0.5029 -0.1657  0.2620
 1177SOL    HW2 4761   3.668   4.313   1.902 -0.9335 -0.7931  1.8323
 1177SOL    HW3 4762   3.588   4.185   1.906 -2.2037 -0.0660  0.3341
 1177SOL    MW4 4763   3.602   4.264   1.874  0.0005  0.0001 -0.0000
 1178SOL     OW 4764   3.809   4.401   1.987  0.3037  0.5994 -0.2058
 1178SOL    HW2 4765   3.817   4.378   2.080 -1.6143  1.1519  0.1167
 1178SOL    HW3 4766   3.873   4.345   1.943 -0.6875 -1.6672  1.1431
 1178SOL    MW4 4767   3.818   4.391   1.993  0.0005  0.0001 -0.0000
 1179SOL     OW 4768   4.266   4.638   1.878 -0.2202  0.2286 -0.7339
 1179SOL    HW2 4769   4.194   4.682   1.923 -0.2466 -1.0551  0.5138
 1179SOL    HW3 4770   4.345   4.682   1.911 -0.1898 -1.2043  1.1929
 1179SOL    MW4 4771   4.267   4.650   1.888  0.0005  0.0001 -0.0000
 1180SOL     OW 4772   4.045   0.082   2.002  0.1547 -0.5798  0.2600
 1180SOL    HW2 4773   4.039   0.088   2.097  0.5608 -1.9936  0.3876
 1180SOL    HW3 4774   3.961   0.043   1.976 -0.5685  1.1794 -0.1109
 1180SOL    MW4 4775   4.033   0.078   2.011  0.0005  0.0001 -0.0000
 1181SOL     OW 4776   4.035   0.365   1.907 -0.3690  0.3451  0.1767
 1181SOL    HW2 4777   4.033   0.269   1.911 -0.6815  0.2612 -1.5540
 1181SOL    HW3 4778   3.950   0.393   1.941  0.2805  0.0848  2.0712
 1181SOL    MW4 4779   4.023   0.356   1.912  0.0005  0.0001 -0.0000
 1182SOL     OW 4780   4.231   0.521   2.005  0.0948 -0.4260 -0.3794
 1182SOL    HW2 4781   4.231   0.530   2.100 -0.0640  0.3838 -0.4525
 1182SOL    HW3 4782   4.154   0.468   1.986 -0.4511  0.2695 -0.1303
 1182SOL    MW4 4783   4.221   0.515   2.015  0.0005  0.0001 -0.0000
 1183SOL     OW 4784   4.247   0.780   1.908  0.4096  0.2828  0.2013
 1183SOL    HW2 4785   4.227   0.696   1.949  1.2652 -0.4848 -0.9266
 1183SOL    HW3 4786   4.238   0.763   1.814 -1.7597  2.0732  0.0495
 1183SOL    MW4 4787   4.243   0.767   1.901  0.0005  0.0001 -0.0000
 1184SOL     OW 4788   4.017   0.868   2.028  0.3597 -0.0867 -0.2085
 1184SOL    HW2 4789   4.102   0.840   1.994  0.4243  0.8300 -0.8218
 1184SOL    HW3 4790   3.953   0.816   1.979  0.5213  0.0490 -0.5651
 1184SOL    MW4 4791   4.020   0.857   2.017  0.0005  0.0001 -0.0000
 1185SOL     OW 4792   4.038   1.121   1.885 -0.1092 -0.2439 -0.1270
 1185SOL    HW2 4793   4.046   1.031   1.918 -0.5427 -0.8242 -1.5588
 1185SOL    HW3 4794   3.963   1.158   1.932 -0.0304 -0.6853  0.3463
 1185SOL    MW4 4795   4.029   1.114   1.896  0.0005  0.0001 -0.0000
 1186SOL     OW 4796   4.249   1.271   1.991 -0.5802  0.0115  0.1118
 1186SOL    HW2 4797   4.232   1.281   2.085 -1.3094 -0.1900  0.0048
 1186SOL    HW3 4798   4.182   1.209   1.961  0.4907 -0.9730 -0.2819
 1186SOL    MW4 4799   4.238   1.264   1.999  0.0005  0.0001 -0.0000
 1187SOL     OW 4800   4.269   1.538   1.944 -0.5217  0.4273  0.5196
 1187SOL    HW2 4801   4.251   1.445   1.959 -1.8718  0.6114  0.1115
 1187SOL    HW3 4802   4.280   1.545   1.849 -2.3095  0.9869  0.3355
 1187SOL    MW4 4803   4.268   1.527   1.933  0.0005  0.0001 -0.0000
 1188SOL     OW 4804   4.017   1.683   2.012 -0.0591 -0.2346 -0.4295
 1188SOL    HW2 4805   4.015   1.670   2.107  0.4597  0.2345 -0.3517
 1188SOL    HW3 4806   4.090   1.629   1.982  0.1836  0.1200 -0.4806
 1188SOL    MW4 4807   4.026   1.674   2.021  0.0005  0.0001 -0.0000
 1189SOL     OW 4808   4.037   1.927   1.889  0.0610  0.0870  0.2724
 1189SOL    HW2 4809   4.045   1.837   1.919 -1.4940 -0.4404 -0.8231
 1189SOL    HW3 4810   4.067   1.924   1.798  1.2181  0.9363  0.6163
 1189SOL    MW4 4811   4.042   1.915   1.881  0.0005  0.0001 -0.0000
 1190SOL     OW 4812   4.252   2.064   1.996 -0.3074 -0.0051  0.4037
 1190SOL    HW2 4813   4.263   2.054   2.091  0.6384 -0.8767  0.2103
 1190SOL    HW3 4814   4.170   2.019   1.977  0.4549 -1.4889  0.5481
 1190SOL    MW4 4815   4.243   2.057   2.006  0.0005  0.0001 -0.0000
 1191SOL     OW 4816   4.238   2.330   1.902  0.0952  0.1778 -0.0746
 1191SOL    HW2 4817   4.234   2.243   1.942  0.6375 -0.4179 -1.2911
 1191SOL    HW3 4818   4.321   2.366   1.933  0.5037 -0.2732 -0.6320
 1191SOL    MW4 4819   4.248   2.323   1.911  0.0005  0.0001 -0.0000
 1192SOL     OW 4820   4.039   2.501   1.997 -0.6594 -0.1992 -0.3745
 1192SOL    HW2 4821   4.049   2.490   2.091  0.6122 -1.0117 -0.5988
 1192SOL    HW3 4822   4.103   2.441   1.958 -1.5409 -0.2716 -1.7617
 1192SOL    MW4 4823   4.049   2.492   2.004  0.0005  0.0001 -0.0000
 1193SOL     OW 4824   4.004   2.755   1.889 -0.0663  0.0695  0.2030
 1193SOL    HW2 4825   4.021   2.670   1.930 -0.0291  0.5165  1.1260
 1193SOL    HW3 4826   3.934   2.794   1.942 -0.1350  0.5834 -0.2600
 1193SOL    MW4 4827   3.997   2.749   1.901  0.0005  0.0001 -0.0000
 1194SOL     OW 4828   4.251   2.863   1.974 -0.5416 -0.2329 -0.2981
 1194SOL    HW2 4829   4.270   2.846   2.066  0.4677 -1.2584 -0.6780
 1194SOL    HW3 4830   4.167   2.821   1.958 -0.1200 -1.1423 -0.1489
 1194SOL    MW4 4831   4.242   2.855   1.984  0.0005  0.0001 -0.0000
 1195SOL     OW 4832   4.313   3.122   1.858 -0.5323  0.1818 -0.2170
 1195SOL    HW2 4833   4.237   3.157   1.905 -0.7240  0.9630 -1.0943
 1195SOL    HW3 4834   4.307   3.027   1.870 -2.1493  0.1653 -1.0202
 1195SOL    MW4 4835   4.302   3.114   1.866  0.0005  0.0001 -0.0000
 1196SOL     OW 4836   4.080   3.201   1.989  0.2451 -0.1842 -0.2164
 1196SOL    HW2 4837   4.081   3.202   2.085  1.5096  0.1877 -0.2212
 1196SOL    HW3 4838   3.998   3.158   1.966  1.1708 -2.7280  1.0559
 1196SOL    MW4 4839   4.069   3.195   1.999  0.0005  0.0001 -0.0000
 1197SOL     OW 4840   4.056   3.457   1.879  0.1313 -0.1214 -0.0686
 1197SOL    HW2 4841   4.133   3.494   1.923 -0.7203  0.8869  0.5930
 1197SOL    HW3 4842   4.059   3.364   1.901  1.7140 -0.2832 -0.8811
 1197SOL    MW4 4843   4.067   3.450   1.888  0.0005  0.0001 -0.0000
 1198SOL     OW 4844   4.279   3.616   1.978 -0.0542 -0.4116 -0.1774
 1198SOL    HW2 4845   4.257   3.701   1.941 -0.3096  0.2049  1.3496
 1198SOL    HW3 4846   4.366   3.596   1.943  0.1711  0.6550 -0.2384
 1198SOL    MW4 4847   4.288   3.625   1.968  0.0005  0.0001 -0.0000
 1199SOL     OW 4848   4.283   3.880   1.901  0.0065 -0.3223 -0.2537
 1199SOL    HW2 4849   4.370   3.917   1.917 -0.8766  1.1554  1.2855
 1199SOL    HW3 4850   4.275   3.876   1.806  1.6321 -0.1730 -0.4032
 1199SOL    MW4 4851   4.293   3.884   1.891  0.0005  0.0001 -0.0000
 1200SOL     OW 4852   4.032   3.977   1.959  0.4753 -0.1554 -0.2460
 1200SOL    HW2 4853   4.108   3.920   1.949  0.1023 -0.2679 -2.7716
 1200SOL    HW3 4854   3.957   3.917   1.959  0.2198  0.1613 -0.6486
 1200SOL    MW4 4855   4.032   3.962   1.958  0.0005  0.0001 -0.0000
 1201SOL     OW 4856   4.009   4.255   1.872  0.1956  0.4126  0.4030
 1201SOL    HW2 4857   4.088   4.306   1.891  0.8903 -0.8149  0.8722
 1201SOL    HW3 4858   4.025   4.170   1.912 -1.2182  0.0219  0.1735
 1201SOL    MW4 4859   4.021   4.250   1.880  0.0005  0.0001 -0.0000
 1202SOL     OW 4860   4.252   4.365   1.956 -0.3464  0.2988  0.5610
 1202SOL    HW2 4861   4.259   4.383   2.050  0.1712  1.3568  0.3289
 1202SOL    HW3 4862   4.257   4.451   1.915 -2.3069  0.0030 -0.3519
 1202SOL    MW4 4863   4.254   4.379   1.963  0.0005  0.0001 -0.0000
 1203SOL     OW 4864   0.198   0.017   2.376  0.3024  0.6878  0.0213
 1203SOL    HW2 4865   0.206   0.034   2.470  1.1318 -1.3743  0.3529
 1203SOL    HW3 4866   0.284   0.037   2.340 -0.1301  1.8679 -0.3824
 1203SOL    MW4 4867   0.210   0.022   2.384  0.0005  0.0001 -0.0000
 1204SOL     OW 4868   4.469   0.158   2.284 -0.6872  0.0834 -0.0812
 1204SOL    HW2 4869   4.558   0.128   2.300  0.3479  2.6169 -0.8296
 1204SOL    HW3 4870   4.458   0.149   2.189 -1.3266 -0.4568  0.0415
 1204SOL    MW4 4871   4.479   0.153   2.274  0.0005  0.0001 -0.0000
 1205SOL     OW 4872   4.465   0.424   2.349 -0.2957  0.2874  0.6718
 1205SOL    HW2 4873   4.552   0.449   2.319 -0.9508  2.6962  0.6531
 1205SOL    HW3 4874   4.458   0.331   2.329  1.8693  0.3081 -0.2876
 1205SOL    MW4 4875   4.476   0.415   2.342  0.0005  0.0001 -0.0000
 1206SOL     OW 4876   0.230   0.488   2.252  0.5255  0.1260 -0.0260
 1206SOL    HW2 4877   0.313   0.455   2.287 -0.2112 -0.6826  0.9932
 1206SOL    HW3 4878   0.241   0.485   2.157  1.8071  0.4065  0.1051
 1206SOL    MW4 4879   0.242   0.483   2.244  0.0005  0.0001 -0.0000
 1207SOL     OW 4880   0.238   0.756   2.358 -0.4046  0.2485  0.0504
 1207SOL    HW2 4881   0.217   0.747   2.451  1.1697  0.8945  0.4863
 1207SOL    HW3 4882   0.227   0.668   2.322  1.8227 -0.6536  1.4706
 1207SOL    MW4 4883   0.234   0.743   2.366  0.0005  0.0001 -0.0000
 1208SOL     OW 4884   0.016   0.921   2.311 -0.4186 -0.1490 -0.3678
 1208SOL    HW2 4885   0.088   0.861   2.332  0.8485  1.4864  0.0624
 1208SOL    HW3 4886  -0.003   0.904   2.219  1.4712  0.3574 -0.8751
 1208SOL    MW4 4887   0.023   0.911   2.302  0.0005  0.0001 -0.0000
 1209SOL     OW 4888   0.004   1.220   2.372  0.1656  0.4643  0.2508
 1209SOL    HW2 4889  -0.011   1.223   2.466 -1.1381  0.5374  0.0496
 1209SOL    HW3 4890   0.007   1.127   2.351 -0.2503  0.4483  0.2597
 1209SOL    MW4 4891   0.002   1.208   2.382  0.0005  0.0001 -0.0000
 1210SOL     OW 4892   0.256   1.257   2.246  0.3136 -0.4115 -0.2989
 1210SOL    HW2 4893   0.179   1.229   2.296 -0.5361  2.7099  0.2681
 1210SOL    HW3 4894   0.230   1.248   2.154 -0.1243 -0.9281 -0.1235
 1210SOL    MW4 4895   0.242   1.252   2.241  0.0005  0.0001 -0.0000
 1211SOL     OW 4896   0.239   1.514   2.341 -0.3429 -0.7593  0.0697
 1211SOL    HW2 4897   0.241   1.514   2.437 -0.8383 -0.0356  0.0830
 1211SOL    HW3 4898   0.250   1.422   2.317 -1.9500 -1.1784  0.8645
 1211SOL    MW4 4899   0.241   1.502   2.350  0.0005  0.0001 -0.0000
 1212SOL     OW 4900   0.013   1.663   2.270 -0.0002 -0.0001  0.0138
 1212SOL    HW2 4901   0.001   1.737   2.330  1.5675  0.0736  0.2647
 1212SOL    HW3 4902   0.098   1.626   2.295 -0.4228 -1.4197 -0.6153
 1212SOL    MW4 4903   0.023   1.668   2.281  0.0005  0.0001 -0.0000
 1213SOL     OW 4904   4.468   1.918   2.385 -0.3648 -0.0292 -0.2781
 1213SOL    HW2 4905   4.399   1.961   2.335  0.2085 -0.8034 -1.7674
 1213SOL    HW3 4906   4.549   1.962   2.357 -0.1927  0.5713  1.1214
 1213SOL    MW4 4907   4.470   1.929   2.375  0.0005  0.0001 -0.0000
 1214SOL     OW 4908   0.207   2.034   2.252  0.2957  0.1763 -0.0194
 1214SOL    HW2 4909   0.296   2.000   2.263  0.4270  0.2498 -0.8377
 1214SOL    HW3 4910   0.200   2.054   2.159 -0.5546  0.2452  0.0543
 1214SOL    MW4 4911   0.218   2.032   2.241  0.0005  0.0001 -0.0000
 1215SOL     OW 4912   0.235   2.288   2.377  0.2671  0.1955  0.1773
 1215SOL    HW2 4913   0.216   2.277   2.470  0.8149  1.9133  0.5105
 1215SOL    HW3 4914   0.219   2.202   2.339 -0.1729 -0.4689  1.8220
 1215SOL    MW4 4915   0.230   2.275   2.384  0.0005  0.0001 -0.0000
 1216SOL     OW 4916   4.475   2.391   2.318  0.4403 -0.0840 -0.2464
 1216SOL    HW2 4917   4.472   2.484   2.339  1.4869  0.0893 -0.8590
 1216SOL    HW3 4918   4.567   2.367   2.325  0.6200 -0.3829 -3.0226
 1216SOL    MW4 4919   4.487   2.400   2.322  0.0005  0.0001 -0.0000
 1217SOL     OW 4920   0.037   2.668   2.322 -0.3022  0.0096  0.0717
 1217SOL    HW2 4921   0.040   2.667   2.418 -1.4567 -0.2619  0.1106
 1217SOL    HW3 4922   0.093   2.741   2.297 -1.3244  1.1423  1.0240
 1217SOL    MW4 4923   0.045   2.678   2.331  0.0005  0.0001 -0.0000
 1218SOL     OW 4924   0.218   2.873   2.254  0.1399 -0.5353 -0.3088
 1218SOL    HW2 4925   0.294   2.819   2.276  0.4520  0.8289  2.1185
 1218SOL    HW3 4926   0.207   2.861   2.160  1.1524 -3.5747 -0.0997
 1218SOL    MW4 4927   0.227   2.864   2.244  0.0005  0.0001 -0.0000
 1219SOL     OW 4928   0.216   3.135   2.353  0.2879 -0.2097  0.5620
 1219SOL    HW2 4929   0.137   3.182   2.325  1.1186  1.0954  0.3534
 1219SOL    HW3 4930   0.200   3.044   2.329 -0.6085  0.2653 -0.6829
 1219SOL    MW4 4931   0.203   3.129   2.346  0.0005  0.0001 -0.0000
 1220SOL     OW 4932   4.474   3.238   2.296  0.4690 -0.1818 -0.0467
 1220SOL    HW2 4933   4.466   3.321   2.342  0.3799 -0.7314  0.9478
 1220SOL    HW3 4934   4.480   3.262   2.204  1.1199  0.9601  0.2829
 1220SOL    MW4 4935   4.474   3.252   2.290  0.0005  0.0001 -0.0000
 1221SOL     OW 4936   4.485   3.496   2.401  0.1564 -0.1206 -0.5507
 1221SOL    HW2 4937   4.456   3.495   2.492 -0.7390 -2.1193 -0.8292
 1221SOL    HW3 4938   4.422   3.554   2.357 -0.6764 -0.8091 -0.2832
 1221SOL    MW4 4939   4.473   3.503   2.407  0.0005  0.0001 -0.0000
 1222SOL     OW 4940   0.228   3.564   2.267 -0.4998  0.2550 -0.1613
 1222SOL    HW2 4941   0.312   3.527   2.295 -0.9826 -1.5799 -1.0536
 1222SOL    HW3 4942   0.164   3.525   2.327 -0.9823 -0.1452 -0.9306
 1222SOL    MW4 4943   0.231   3.554   2.279  0.0005  0.0001 -0.0000
 1223SOL     OW 4944   0.221   3.854   2.383 -0.3852 -0.4901  0.2627
 1223SOL    HW2 4945   0.143   3.897   2.349  0.5117  0.7484 -0.2634
 1223SOL    HW3 4946   0.223   3.769   2.338 -1.6364 -0.7011  0.5852
 1223SOL    MW4 4947   0.211   3.849   2.373  0.0005  0.0001 -0.0000
 1224SOL     OW 4948   4.479   3.983   2.249 -0.2225 -0.0987 -0.5243
 1224SOL    HW2 4949   4.491   4.072   2.281  1.4086  0.0914 -1.6020
 1224SOL    HW3 4950   4.490   3.990   2.154  1.3439 -1.6587 -0.4833
 1224SOL    MW4 4951   4.482   3.996   2.241  0.0005  0.0001 -0.0000
 1225SOL     OW 4952   4.467   4.248   2.330 -0.3468  0.3669  0.1557
 1225SOL    HW2 4953   4.460   4.241   2.425  0.3265 -0.9677  0.1199
 1225SOL    HW3 4954   4.538   4.311   2.315  0.4810 -0.4632  0.5466
 1225SOL    MW4 4955   4.475   4.255   2.341  0.0005  0.0001 -0.0000
 1226SOL     OW 4956   0.198   4.377   2.277  0.1549 -0.0160 -0.4894
 1226SOL    HW2 4957   0.279   4.346   2.318 -0.0060 -0.1711 -0.2875
 1226SOL    HW3 4958   0.187   4.466   2.310 -0.1894 -0.2834  0.1248
 1226SOL    MW4 4959   0.207   4.385   2.287  0.0005  0.0001 -0.0000
 1227SOL     OW 4960   0.699   4.649   2.377 -0.0339 -0.7537 -0.3754
 1227SOL    HW2 4961   0.681   4.638   2.470 -0.4442 -1.8061 -0.5728
 1227SOL    HW3 4962   0.775   4.707   2.374 -1.5797  1.3872  0.5419
 1227SOL    MW4 4963   0.707   4.655   2.389  0.0005  0.0001 -0.0000
 1228SOL     OW 4964   0.454   0.110   2.283  0.3976  0.1850 -0.1027
 1228SOL    HW2 4965   0.537   0.068   2.305  1.1497  0.9063 -1.4856
 1228SOL    HW3 4966   0.454   0.114   2.187 -0.8442  0.9655 -0.0797
 1228SOL    MW4 4967   0.465   0.105   2.273  0.0005  0.0001 -0.0000
 1229SOL     OW 4968   0.462   0.370   2.357  0.0755  0.2635 -0.3120
 1229SOL    HW2 4969   0.469   0.370   2.452  1.3278 -0.6097 -0.3941
 1229SOL    HW3 4970   0.440   0.280   2.334  1.6075  0.0365 -0.9581
 1229SOL    MW4 4971   0.460   0.358   2.367  0.0005  0.0001 -0.0000
 1230SOL     OW 4972   0.687   0.478   2.251 -0.6848 -0.2564  0.1488
 1230SOL    HW2 4973   0.681   0.569   2.280 -0.6329  0.6578 -2.5457
 1230SOL    HW3 4974   0.610   0.435   2.288 -0.8684  0.9534  1.1888
 1230SOL    MW4 4975   0.676   0.484   2.260  0.0005  0.0001 -0.0000
 1231SOL     OW 4976   0.686   0.729   2.349  0.1600  0.3223  0.1498
 1231SOL    HW2 4977   0.691   0.724   2.444 -1.3167 -2.2150  0.1386
 1231SOL    HW3 4978   0.610   0.785   2.332  1.0585  1.6519  0.4335
 1231SOL    MW4 4979   0.677   0.736   2.359  0.0005  0.0001 -0.0000
 1232SOL     OW 4980   0.474   0.889   2.289  0.3001 -0.2814 -0.2804
 1232SOL    HW2 4981   0.388   0.861   2.321  0.3640  0.0446  0.1780
 1232SOL    HW3 4982   0.472   0.869   2.195 -0.1548 -0.5750 -0.2107
 1232SOL    MW4 4983   0.462   0.883   2.281  0.0005  0.0001 -0.0000
 1233SOL     OW 4984   0.484   1.159   2.385 -0.0051 -0.3945  0.3355
 1233SOL    HW2 4985   0.485   1.069   2.352  1.1487 -0.8660  1.6324
 1233SOL    HW3 4986   0.425   1.205   2.325 -0.8294 -2.0667 -0.1812
 1233SOL    MW4 4987   0.476   1.153   2.373  0.0005  0.0001 -0.0000
 1234SOL     OW 4988   0.715   1.264   2.284  0.1981  0.0736  0.1480
 1234SOL    HW2 4989   0.708   1.357   2.304 -0.7581  0.4982 -2.0186
 1234SOL    HW3 4990   0.641   1.224   2.330 -0.6016  0.6899 -0.5852
 1234SOL    MW4 4991   0.704   1.271   2.293  0.0005  0.0001 -0.0000
 1235SOL     OW 4992   0.656   1.542   2.355  0.1609 -0.3594  0.3231
 1235SOL    HW2 4993   0.672   1.538   2.449 -0.3252  1.4204  0.5003
 1235SOL    HW3 4994   0.738   1.575   2.318  0.6455 -1.8786  0.0201
 1235SOL    MW4 4995   0.669   1.546   2.363  0.0005  0.0001 -0.0000
 1236SOL     OW 4996   0.440   1.678   2.241 -0.1914  0.2770 -0.0319
 1236SOL    HW2 4997   0.521   1.651   2.284 -1.0470  1.4514  2.4032
 1236SOL    HW3 4998   0.374   1.617   2.274 -0.3688 -0.5150 -1.8143
 1236SOL    MW4 4999   0.442   1.666   2.251  0.0005  0.0001 -0.0000
 1237SOL     OW 5000   0.445   1.931   2.336  0.2283 -0.1129  0.0555
 1237SOL    HW2 5001   0.524   1.971   2.301  0.2084  0.4609  0.6623
 1237SOL    HW3 5002   0.440   1.846   2.293  0.4480  0.3994 -0.9922
 1237SOL    MW4 5003   0.455   1.925   2.326  0.0005  0.0001 -0.0000
 1238SOL     OW 5004   0.664   2.044   2.226 -0.3112 -0.4619  0.1702
 1238SOL    HW2 5005   0.746   2.005   2.257  0.6647  1.3535 -0.0554
 1238SOL    HW3 5006   0.664   2.132   2.263 -1.6911 -0.1022 -0.6525
 1238SOL    MW4 5007   0.675   2.050   2.235  0.0005  0.0001 -0.0000
 1239SOL     OW 5008   0.698   2.301   2.344 -0.4764 -0.9029 -0.1373
 1239SOL    HW2 5009   0.691   2.318   2.438 -2.3573  0.4369 -0.4936
 1239SOL    HW3 5010   0.763   2.364   2.312 -1.3325  0.0292 -0.0615
 1239SOL    MW4 5011   0.706   2.312   2.352  0.0005  0.0001 -0.0000
 1240SOL     OW 5012   0.453   2.421   2.265  0.2534 -0.0382 -0.0411
 1240SOL    HW2 5013   0.529   2.370   2.295  0.0663  0.4753  1.3469
 1240SOL    HW3 5014   0.378   2.378   2.306  0.0044  0.7701  0.3599
 1240SOL    MW4 5015   0.453   2.409   2.274  0.0005  0.0001 -0.0000
 1241SOL     OW 5016   0.400   2.679   2.349 -0.2452 -0.3180 -0.3184
 1241SOL    HW2 5017   0.428   2.678   2.440  3.0812  0.6849 -1.2583
 1241SOL    HW3 5018   0.401   2.587   2.322 -0.7787 -0.5691  0.5058
 1241SOL    MW4 5019   0.404   2.667   2.358  0.0005  0.0001 -0.0000
 1242SOL     OW 5020   0.660   2.834   2.279 -0.3630 -0.1185 -0.1618
 1242SOL    HW2 5021   0.738   2.787   2.308  0.7902  1.6573 -0.2844
 1242SOL    HW3 5022   0.587   2.777   2.302  0.9751 -1.8364 -0.0974
 1242SOL    MW4 5023   0.661   2.820   2.286  0.0005  0.0001 -0.0000
 1243SOL     OW 5024   0.702   3.103   2.392  0.4626 -0.0136 -0.1563
 1243SOL    HW2 5025   0.617   3.138   2.364  0.2327 -1.1156 -0.8578
 1243SOL    HW3 5026   0.706   3.015   2.354  1.4057 -0.4316  0.8669
 1243SOL    MW4 5027   0.691   3.096   2.383  0.0005  0.0001 -0.0000
 1244SOL     OW 5028   0.471   3.205   2.281  0.1923 -0.0900  0.1541
 1244SOL    HW2 5029   0.380   3.178   2.290  0.0156  0.5959  0.4369
 1244SOL    HW3 5030   0.484   3.214   2.187 -0.3326  0.8255  0.1629
 1244SOL    MW4 5031   0.461   3.203   2.270  0.0005  0.0001 -0.0000
 1245SOL     OW 5032   0.458   3.456   2.408 -0.3051 -0.4051 -0.3550
 1245SOL    HW2 5033   0.531   3.503   2.368  0.2760 -0.0206  1.1244
 1245SOL    HW3 5034   0.459   3.370   2.366  0.9371 -0.3673 -0.4215
 1245SOL    MW4 5035   0.468   3.451   2.397  0.0005  0.0001 -0.0000
 1246SOL     OW 5036   0.646   3.636   2.283 -0.0836 -0.0691  0.2129
 1246SOL    HW2 5037   0.666   3.727   2.306 -1.2140  0.4503 -0.8095
 1246SOL    HW3 5038   0.629   3.638   2.189 -0.5961 -1.2556  0.2701
 1246SOL    MW4 5039   0.646   3.648   2.274  0.0005  0.0001 -0.0000
 1247SOL     OW 5040   0.684   3.916   2.348 -0.2507 -0.1619 -0.1069
 1247SOL    HW2 5041   0.675   3.904   2.443  0.2669 -0.0875 -0.0485
 1247SOL    HW3 5042   0.596   3.940   2.319 -0.2377  0.6143  0.4743
 1247SOL    MW4 5043   0.671   3.918   2.357  0.0005  0.0001 -0.0000
 1248SOL     OW 5044   0.435   4.026   2.287 -0.5816 -0.1329  0.5754
 1248SOL    HW2 5045   0.364   3.971   2.320 -0.6382 -0.9301 -0.8360
 1248SOL    HW3 5046   0.427   4.020   2.192  0.5999  0.7879  0.4119
 1248SOL    MW4 5047   0.425   4.018   2.279  0.0005  0.0001 -0.0000
 1249SOL     OW 5048   0.445   4.309   2.354  0.2727  0.1328 -0.2068
 1249SOL    HW2 5049   0.525   4.351   2.322  1.0268  0.6600  2.2540
 1249SOL    HW3 5050   0.454   4.217   2.329  0.2005  0.7514 -2.6247
 1249SOL    MW4 5051   0.457   4.302   2.346  0.0005  0.0001 -0.0000
 1250SOL     OW 5052   0.686   4.390   2.251  0.1583 -0.2350 -0.6772
 1250SOL    HW2 5053   0.697   4.478   2.287 -2.1327 -0.1282 -0.1631
 1250SOL    HW3 5054   0.699   4.401   2.157  0.0416  0.6277 -0.5976
 1250SOL    MW4 5055   0.689   4.403   2.243  0.0005  0.0001 -0.0000
 1251SOL     OW 5056   1.130   4.640   2.363  0.2183 -0.3523  0.1003
 1251SOL    HW2 5057   1.121   4.612   2.454 -0.7142 -0.5650 -0.0525
 1251SOL    HW3 5058   1.051   4.690   2.345  1.4647  1.6745  0.0965
 1251SOL    MW4 5059   1.118   4.643   2.373  0.0005  0.0001 -0.0000
 1252SOL     OW 5060   0.909   0.150   2.323 -0.0134 -0.3270  0.1689
 1252SOL    HW2 5061   0.925   0.238   2.357 -0.0821  0.0777 -0.8290
 1252SOL    HW3 5062   0.881   0.164   2.232  1.3062 -1.4474 -0.4284
 1252SOL    MW4 5063   0.907   0.163   2.316  0.0005  0.0001 -0.0000
 1253SOL     OW 5064   0.925   0.415   2.398 -0.1848 -0.0088  0.5675
 1253SOL    HW2 5065   0.998   0.461   2.358 -0.3204 -0.7430 -0.5459
 1253SOL    HW3 5066   0.847   0.452   2.356 -0.3772 -0.1699  0.7803
 1253SOL    MW4 5067   0.924   0.426   2.387  0.0005  0.0001 -0.0000
 1254SOL     OW 5068   1.164   0.523   2.268  0.1594  0.0922  0.1654
 1254SOL    HW2 5069   1.227   0.456   2.294 -0.3682 -0.0700  1.0687
 1254SOL    HW3 5070   1.161   0.519   2.172  1.1347 -0.2431  0.1485
 1254SOL    MW4 5071   1.172   0.514   2.259  0.0005  0.0001 -0.0000
 1255SOL     OW 5072   1.128   0.797   2.362  0.6566 -0.2136  0.5823
 1255SOL    HW2 5073   1.042   0.824   2.329 -0.3967 -2.3410  1.4796
 1255SOL    HW3 5074   1.139   0.708   2.329  1.7580 -0.5786  1.8981
 1255SOL    MW4 5075   1.118   0.789   2.353  0.0005  0.0001 -0.0000
 1256SOL     OW 5076   0.889   0.925   2.294 -0.0569 -0.4099 -0.2789
 1256SOL    HW2 5077   0.913   1.002   2.345  0.5456 -0.1463 -0.9444
 1256SOL    HW3 5078   0.819   0.883   2.344 -0.5660  0.7102 -0.0427
 1256SOL    MW4 5079   0.883   0.930   2.307  0.0005  0.0001 -0.0000
 1257SOL     OW 5080   0.969   1.168   2.421 -0.1179  0.0855  0.3624
 1257SOL    HW2 5081   1.045   1.196   2.370 -1.4066  0.7881 -1.1923
 1257SOL    HW3 5082   0.897   1.223   2.390 -1.0914  0.0230  2.4274
 1257SOL    MW4 5083   0.969   1.179   2.410  0.0005  0.0001 -0.0000
 1258SOL     OW 5084   1.151   1.289   2.245  0.3441  0.3691  0.0049
 1258SOL    HW2 5085   1.226   1.230   2.249  0.4684  0.5689  0.6782
 1258SOL    HW3 5086   1.119   1.281   2.155  0.9827  0.0512 -0.1973
 1258SOL    MW4 5087   1.157   1.280   2.234  0.0005  0.0001 -0.0000
 1259SOL     OW 5088   1.141   1.541   2.371  0.1416 -0.2288  0.2726
 1259SOL    HW2 5089   1.062   1.590   2.348  0.1438 -0.1743  0.3789
 1259SOL    HW3 5090   1.137   1.462   2.318  0.3859  0.1168 -0.2645
 1259SOL    MW4 5091   1.130   1.537   2.361  0.0005  0.0001 -0.0000
 1260SOL     OW 5092   0.901   1.670   2.275 -0.3892 -0.3383  0.3418
 1260SOL    HW2 5093   0.891   1.764   2.288  0.1378 -0.3744  1.0224
 1260SOL    HW3 5094   0.908   1.660   2.180  0.2828  0.3834  0.3086
 1260SOL    MW4 5095   0.901   1.681   2.264  0.0005  0.0001 -0.0000
 1261SOL     OW 5096   0.899   1.932   2.316  0.3871 -0.3260 -0.1187
 1261SOL    HW2 5097   0.903   1.931   2.412  2.4409 -2.5719 -0.1785
 1261SOL    HW3 5098   0.970   1.991   2.290 -0.2270  0.3529 -0.2701
 1261SOL    MW4 5099   0.909   1.940   2.325  0.0005  0.0001 -0.0000
 1262SOL     OW 5100   1.124   2.103   2.241  0.4370 -0.3356 -0.2576
 1262SOL    HW2 5101   1.195   2.053   2.281  1.3449 -1.5636 -3.2559
 1262SOL    HW3 5102   1.125   2.077   2.149 -3.4570  0.1812 -0.5382
 1262SOL    MW4 5103   1.133   2.093   2.234  0.0005  0.0001 -0.0000
 1263SOL     OW 5104   1.112   2.347   2.356  0.2229  0.0586  0.2709
 1263SOL    HW2 5105   1.191   2.393   2.328  0.3810  0.6662  1.6853
 1263SOL    HW3 5106   1.118   2.262   2.313  1.3619  0.3079 -0.0890
 1263SOL    MW4 5107   1.123   2.342   2.347  0.0005  0.0001 -0.0000
 1264SOL     OW 5108   0.899   2.489   2.247 -0.4035  0.4568  0.4606
 1264SOL    HW2 5109   0.967   2.432   2.284 -0.4139  0.8964  1.1691
 1264SOL    HW3 5110   0.897   2.467   2.154 -0.0156 -0.3004  0.6282
 1264SOL    MW4 5111   0.908   2.479   2.240  0.0005  0.0001 -0.0000
 1265SOL     OW 5112   0.896   2.729   2.369  0.1612  0.4633  0.3876
 1265SOL    HW2 5113   0.894   2.717   2.464 -2.6771 -0.2379  0.2845
 1265SOL    HW3 5114   0.904   2.640   2.334  0.5324  0.6660 -0.0429
 1265SOL    MW4 5115   0.897   2.716   2.377  0.0005  0.0001 -0.0000
 1266SOL     OW 5116   1.128   2.856   2.283  0.0908  0.0108  0.6449
 1266SOL    HW2 5117   1.205   2.804   2.305  0.3543  0.4707  0.8085
 1266SOL    HW3 5118   1.055   2.808   2.322  0.4373  0.2510  1.6140
 1266SOL    MW4 5119   1.129   2.843   2.291  0.0005  0.0001 -0.0000
 1267SOL     OW 5120   1.127   3.125   2.373  0.0644 -0.0866 -0.3846
 1267SOL    HW2 5121   1.069   3.185   2.325 -0.2202 -0.2486 -0.2452
 1267SOL    HW3 5122   1.102   3.038   2.342 -0.2645 -0.2072  0.2123
 1267SOL    MW4 5123   1.116   3.121   2.363  0.0005  0.0001 -0.0000
 1268SOL     OW 5124   0.900   3.252   2.239  0.1145  0.2323 -0.4895
 1268SOL    HW2 5125   0.898   3.336   2.286  1.0847  0.4334 -0.8031
 1268SOL    HW3 5126   0.851   3.192   2.295  1.1255  0.5155  0.7237
 1268SOL    MW4 5127   0.893   3.255   2.253  0.0005  0.0001 -0.0000
 1269SOL     OW 5128   0.884   3.507   2.361  0.3698  0.5125 -0.0872
 1269SOL    HW2 5129   0.879   3.478   2.452 -0.2225  0.5790 -0.0952
 1269SOL    HW3 5130   0.802   3.555   2.347  0.3365  0.2697 -0.7339
 1269SOL    MW4 5131   0.873   3.509   2.371  0.0005  0.0001 -0.0000
 1270SOL     OW 5132   1.090   3.617   2.203  0.3510  0.5629 -0.1672
 1270SOL    HW2 5133   1.175   3.601   2.245  0.0002  0.5878  0.5561
 1270SOL    HW3 5134   1.026   3.576   2.261 -0.0959  0.1308 -0.9544
 1270SOL    MW4 5135   1.093   3.609   2.216  0.0005  0.0001 -0.0000
 1271SOL     OW 5136   1.075   3.852   2.332 -0.1529  0.1417 -0.0272
 1271SOL    HW2 5137   1.156   3.895   2.305 -0.2497 -0.4644 -1.3177
 1271SOL    HW3 5138   1.068   3.775   2.275 -1.6390  0.2020  0.0515
 1271SOL    MW4 5139   1.085   3.848   2.321  0.0005  0.0001 -0.0000
 1272SOL     OW 5140   0.902   4.034   2.246 -0.3900  0.2145  0.1078
 1272SOL    HW2 5141   0.960   3.963   2.272  0.9952  1.0708 -0.5850
 1272SOL    HW3 5142   0.816   4.008   2.279  0.3230 -1.2081  0.8936
 1272SOL    MW4 5143   0.898   4.021   2.254  0.0005  0.0001 -0.0000
 1273SOL     OW 5144   0.907   4.272   2.383 -0.4111  0.4882 -0.3177
 1273SOL    HW2 5145   0.905   4.185   2.344 -0.6498  1.1943 -1.9253
 1273SOL    HW3 5146   0.834   4.318   2.342  0.1476  1.6634 -0.0107
 1273SOL    MW4 5147   0.897   4.267   2.372  0.0005  0.0001 -0.0000
 1274SOL     OW 5148   1.123   4.387   2.252  0.3779 -0.0561  0.0473
 1274SOL    HW2 5149   1.052   4.337   2.291 -0.0801  0.5612  0.0096
 1274SOL    HW3 5150   1.111   4.476   2.285  1.1788  0.0357  0.1050
 1274SOL    MW4 5151   1.112   4.392   2.262  0.0005  0.0001 -0.0000
 1275SOL     OW 5152   1.548   4.637   2.371  0.1828  0.2112  0.4832
 1275SOL    HW2 5153   1.622   4.674   2.322 -0.2141 -0.6156 -0.7697
 1275SOL    HW3 5154   1.471   4.664   2.321 -0.1763 -1.3821  0.1528
 1275SOL    MW4 5155   1.548   4.645   2.358  0.0005  0.0001 -0.0000
 1276SOL     OW 5156   1.341   0.101   2.231  0.1357  0.0019  0.3327
 1276SOL    HW2 5157   1.347   0.184   2.277 -0.5149  0.8259 -1.0363
 1276SOL    HW3 5158   1.270   0.054   2.275  0.1638  0.3779  0.7816
 1276SOL    MW4 5159   1.332   0.106   2.243  0.0005  0.0001 -0.0000
 1277SOL     OW 5160   1.340   0.355   2.365  0.2761  0.2557 -0.3972
 1277SOL    HW2 5161   1.352   0.350   2.460  0.6986  0.3739 -0.4418
 1277SOL    HW3 5162   1.418   0.401   2.334 -0.5130  1.4386 -0.6566
 1277SOL    MW4 5163   1.352   0.360   2.373  0.0005  0.0001 -0.0000
 1278SOL     OW 5164   1.547   0.533   2.291  0.5682  0.1673  0.1264
 1278SOL    HW2 5165   1.626   0.480   2.295  0.0987 -0.5999 -0.6173
 1278SOL    HW3 5166   1.533   0.549   2.198 -0.1717  0.2669  0.2489
 1278SOL    MW4 5167   1.556   0.528   2.279  0.0005  0.0001 -0.0000
 1279SOL     OW 5168   1.569   0.807   2.370 -0.1483 -0.0564 -0.1455
 1279SOL    HW2 5169   1.644   0.833   2.316  0.8838  0.7291  1.6187
 1279SOL    HW3 5170   1.559   0.713   2.354  1.2356 -0.1727 -0.3804
 1279SOL    MW4 5171   1.578   0.798   2.361  0.0005  0.0001 -0.0000
 1280SOL     OW 5172   1.349   0.912   2.229 -0.4196  0.1432 -0.0439
 1280SOL    HW2 5173   1.427   0.881   2.276  0.1594 -0.6403 -1.4887
 1280SOL    HW3 5174   1.276   0.872   2.275  0.0430  0.6373  1.1408
 1280SOL    MW4 5175   1.350   0.903   2.241  0.0005  0.0001 -0.0000
 1281SOL     OW 5176   1.349   1.145   2.368  0.7720  0.1801  0.4888
 1281SOL    HW2 5177   1.341   1.119   2.460  0.2466 -1.5689 -0.0408
 1281SOL    HW3 5178   1.344   1.063   2.319  1.1785  1.0868 -1.1028
 1281SOL    MW4 5179   1.347   1.131   2.374  0.0005  0.0001 -0.0000
 1282SOL     OW 5180   1.560   1.301   2.303 -0.0040  0.1310 -0.5623
 1282SOL    HW2 5181   1.494   1.237   2.329 -1.4292  1.5722 -0.5559
 1282SOL    HW3 5182   1.562   1.295   2.207 -0.3224  0.2547 -0.5778
 1282SOL    MW4 5183   1.552   1.292   2.294  0.0005  0.0001 -0.0000
 1283SOL     OW 5184   1.554   1.549   2.419  0.4499  0.5043 -0.0243
 1283SOL    HW2 5185   1.617   1.591   2.360  0.5081  0.0984 -0.2541
 1283SOL    HW3 5186   1.536   1.464   2.378 -2.7722  1.9181 -1.7260
 1283SOL    MW4 5187   1.560   1.543   2.406  0.0005  0.0001 -0.0000
 1284SOL     OW 5188   1.360   1.698   2.272 -0.0971  0.0731 -0.6465
 1284SOL    HW2 5189   1.434   1.667   2.324 -0.0460  0.2097 -0.6382
 1284SOL    HW3 5190   1.286   1.645   2.302  0.2035 -0.7703 -1.3724
 1284SOL    MW4 5191   1.360   1.687   2.283  0.0005  0.0001 -0.0000
 1285SOL     OW 5192   1.353   1.972   2.369 -0.1411  0.3237 -0.3216
 1285SOL    HW2 5193   1.442   2.003   2.352  0.5883 -1.8442 -0.6244
 1285SOL    HW3 5194   1.344   1.894   2.314 -2.2838  0.5938 -0.3931
 1285SOL    MW4 5195   1.364   1.966   2.360  0.0005  0.0001 -0.0000
 1286SOL     OW 5196   1.580   2.063   2.261  0.2145 -0.2081 -0.4361
 1286SOL    HW2 5197   1.655   2.008   2.286 -0.3466 -1.6882 -1.8882
 1286SOL    HW3 5198   1.573   2.051   2.166 -1.0655  0.9467 -0.4956
 1286SOL    MW4 5199   1.589   2.054   2.252  0.0005  0.0001 -0.0000
 1287SOL     OW 5200   1.565   2.344   2.380 -0.0267  0.3341  0.4425
 1287SOL    HW2 5201   1.558   2.333   2.475 -0.7090 -0.8910  0.2594
 1287SOL    HW3 5202   1.576   2.255   2.346 -0.1396  0.7305 -0.6560
 1287SOL    MW4 5203   1.566   2.331   2.388  0.0005  0.0001 -0.0000
 1288SOL     OW 5204   1.337   2.470   2.254 -0.0391  0.0539 -0.3521
 1288SOL    HW2 5205   1.411   2.434   2.303 -0.3502 -0.2296 -0.0881
 1288SOL    HW3 5206   1.335   2.419   2.173 -0.5875 -0.6500  0.0978
 1288SOL    MW4 5207   1.346   2.459   2.250  0.0005  0.0001 -0.0000
 1289SOL     OW 5208   1.350   2.726   2.352  0.1512  0.0699  0.3652
 1289SOL    HW2 5209   1.434   2.765   2.327  0.3351  0.2826  1.3041
 1289SOL    HW3 5210   1.348   2.643   2.305  0.6546  0.3000 -0.0734
 1289SOL    MW4 5211   1.361   2.720   2.343  0.0005  0.0001 -0.0000
 1290SOL     OW 5212   1.580   2.838   2.261  0.2476  0.7499 -0.0989
 1290SOL    HW2 5213   1.579   2.932   2.276 -0.1022  0.6674  0.4032
 1290SOL    HW3 5214   1.578   2.829   2.166 -0.3423  1.2423 -0.1363
 1290SOL    MW4 5215   1.580   2.849   2.250  0.0005  0.0001 -0.0000
 1291SOL     OW 5216   1.580   3.108   2.336 -0.5350  0.2542 -0.0772
 1291SOL    HW2 5217   1.564   3.089   2.429 -0.5183  0.7307  0.0249
 1291SOL    HW3 5218   1.504   3.160   2.309 -0.7089 -0.1764 -0.4215
 1291SOL    MW4 5219   1.568   3.112   2.345  0.0005  0.0001 -0.0000
 1292SOL     OW 5220   1.369   3.266   2.262  0.5515 -0.2022 -0.7584
 1292SOL    HW2 5221   1.314   3.198   2.300  1.1981 -0.6491 -0.6145
 1292SOL    HW3 5222   1.362   3.252   2.167 -1.1844  1.0110 -0.8330
 1292SOL    MW4 5223   1.361   3.255   2.255  0.0005  0.0001 -0.0000
 1293SOL     OW 5224   1.302   3.534   2.349  0.0658 -0.3364 -0.2246
 1293SOL    HW2 5225   1.290   3.524   2.443  0.9417 -0.6440 -0.1420
 1293SOL    HW3 5226   1.315   3.445   2.317  3.0257  0.0266 -0.1698
 1293SOL    MW4 5227   1.302   3.521   2.357  0.0005  0.0001 -0.0000
 1294SOL     OW 5228   1.555   3.602   2.268  0.2298  0.2239  0.3429
 1294SOL    HW2 5229   1.567   3.683   2.318 -2.3494  1.8058 -1.4791
 1294SOL    HW3 5230   1.471   3.568   2.297 -0.0315 -0.2751 -0.9597
 1294SOL    MW4 5231   1.545   3.608   2.278  0.0005  0.0001 -0.0000
 1295SOL     OW 5232   1.583   3.863   2.372  0.0572 -0.5994  0.4104
 1295SOL    HW2 5233   1.578   3.867   2.467 -0.3957 -1.8611  0.4553
 1295SOL    HW3 5234   1.650   3.928   2.348 -2.2381  2.2097  1.3233
 1295SOL    MW4 5235   1.591   3.872   2.381  0.0005  0.0001 -0.0000
 1296SOL     OW 5236   1.340   3.964   2.274 -0.3419 -0.8005  0.0951
 1296SOL    HW2 5237   1.416   3.919   2.312  1.0478  1.3422 -0.0594
 1296SOL    HW3 5238   1.353   3.957   2.179  0.4362  0.7860  0.0685
 1296SOL    MW4 5239   1.352   3.957   2.267  0.0005  0.0001 -0.0000
 1297SOL     OW 5240   1.344   4.240   2.359 -0.3323  0.3715 -0.2124
 1297SOL    HW2 5241   1.341   4.153   2.319 -0.7380  0.9999 -1.5780
 1297SOL    HW3 5242   1.267   4.285   2.324 -0.0554  1.3256  0.3939
 1297SOL    MW4 5243   1.334   4.234   2.349  0.0005  0.0001 -0.0000
 1298SOL     OW 5244   1.553   4.375   2.252  0.3728  0.2064 -0.1426
 1298SOL    HW2 5245   1.480   4.332   2.296 -0.5015  0.1538 -1.6137
 1298SOL    HW3 5246   1.558   4.461   2.293 -1.2664  0.6401 -0.8095
 1298SOL    MW4 5247   1.544   4.381   2.263  0.0005  0.0001 -0.0000
 1299SOL     OW 5248   2.025   0.003   2.368 -0.3762 -0.3623  0.0286
 1299SOL    HW2 5249   2.097   0.056   2.333 -0.5986  0.8780  1.3983
 1299SOL    HW3 5250   2.034  -0.082   2.324  0.6861  0.4345 -1.3340
 1299SOL    MW4 5251   2.036  -0.001   2.358  0.0005  0.0001 -0.0000
 1300SOL     OW 5252   1.777   0.084   2.241 -0.0044  0.2110 -0.5790
 1300SOL    HW2 5253   1.781   0.177   2.264 -2.2463 -0.1401  1.4259
 1300SOL    HW3 5254   1.855   0.046   2.281  0.4820  1.0936 -0.6863
 1300SOL    MW4 5255   1.788   0.091   2.249  0.0005  0.0001 -0.0000
 1301SOL     OW 5256   1.773   0.349   2.324  0.2619  0.3110 -0.0833
 1301SOL    HW2 5257   1.767   0.349   2.420 -0.9304  1.7022 -0.1420
 1301SOL    HW3 5258   1.861   0.382   2.306  0.0328  1.2808  0.5259
 1301SOL    MW4 5259   1.784   0.353   2.334  0.0005  0.0001 -0.0000
 1302SOL     OW 5260   2.011   0.502   2.256  0.4913  0.0652  0.0088
 1302SOL    HW2 5261   2.021   0.595   2.276  0.9376  0.0842 -0.3003
 1302SOL    HW3 5262   2.013   0.497   2.160  1.5634 -0.3794  0.0465
 1302SOL    MW4 5263   2.013   0.514   2.246  0.0005  0.0001 -0.0000
 1303SOL     OW 5264   2.025   0.757   2.357  0.2984 -0.2529  0.1077
 1303SOL    HW2 5265   2.100   0.804   2.321 -0.3070  0.3157 -0.4167
 1303SOL    HW3 5266   1.949   0.793   2.311 -0.4885  0.4631  1.9142
 1303SOL    MW4 5267   2.025   0.768   2.346  0.0005  0.0001 -0.0000
 1304SOL     OW 5268   1.813   0.898   2.252 -0.0673  0.3245  0.0846
 1304SOL    HW2 5269   1.809   0.985   2.292  2.2629  0.5659 -0.1437
 1304SOL    HW3 5270   1.808   0.914   2.158 -1.4819  0.0556  0.1030
 1304SOL    MW4 5271   1.812   0.912   2.245  0.0005  0.0001 -0.0000
 1305SOL     OW 5272   1.797   1.158   2.354  0.3514 -0.0131  0.3369
 1305SOL    HW2 5273   1.874   1.190   2.306  0.8999 -1.7279  0.0466
 1305SOL    HW3 5274   1.726   1.215   2.325  0.7664 -0.7191 -2.2043
 1305SOL    MW4 5275   1.798   1.170   2.344  0.0005  0.0001 -0.0000
 1306SOL     OW 5276   2.018   1.286   2.235 -0.0403 -0.2100 -0.4513
 1306SOL    HW2 5277   1.999   1.368   2.281 -1.3079 -0.6897 -0.1064
 1306SOL    HW3 5278   2.014   1.309   2.142  1.7834  0.5938 -0.3510
 1306SOL    MW4 5279   2.015   1.300   2.229  0.0005  0.0001 -0.0000
 1307SOL     OW 5280   1.971   1.539   2.333 -0.0938 -0.0431  0.0057
 1307SOL    HW2 5281   1.984   1.549   2.427  0.0853 -1.1819  0.1125
 1307SOL    HW3 5282   1.886   1.580   2.315  1.1165  2.6486  0.1962
 1307SOL    MW4 5283   1.961   1.546   2.343  0.0005  0.0001 -0.0000
 1308SOL     OW 5284   1.727   1.668   2.242 -0.1240  0.2138  0.1949
 1308SOL    HW2 5285   1.764   1.751   2.272 -0.7533  0.8219 -0.6826
 1308SOL    HW3 5286   1.736   1.671   2.147 -1.9171  0.1362  0.0065
 1308SOL    MW4 5287   1.733   1.679   2.233  0.0005  0.0001 -0.0000
 1309SOL     OW 5288   1.809   1.924   2.328 -0.2689  0.0965  0.6883
 1309SOL    HW2 5289   1.804   1.942   2.422 -0.4476  0.6378  0.5765
 1309SOL    HW3 5290   1.881   1.978   2.297  0.8313 -1.2839  0.7885
 1309SOL    MW4 5291   1.818   1.934   2.336  0.0005  0.0001 -0.0000
 1310SOL     OW 5292   2.014   2.091   2.231 -0.1164 -0.7208 -0.5399
 1310SOL    HW2 5293   2.094   2.047   2.261 -1.6605 -2.0277  1.8280
 1310SOL    HW3 5294   2.011   2.074   2.137  2.1704 -0.9949 -0.5905
 1310SOL    MW4 5295   2.024   2.083   2.223  0.0005  0.0001 -0.0000
 1311SOL     OW 5296   2.003   2.355   2.321 -0.2809  0.0076 -0.4740
 1311SOL    HW2 5297   2.066   2.407   2.271 -0.4496 -0.3109 -1.0233
 1311SOL    HW3 5298   2.019   2.265   2.293  0.3005 -0.2923  0.7891
 1311SOL    MW4 5299   2.013   2.350   2.311  0.0005  0.0001 -0.0000
 1312SOL     OW 5300   1.766   2.466   2.206  0.4404  0.2060 -0.1746
 1312SOL    HW2 5301   1.844   2.415   2.227  0.7178  0.7979  0.2425
 1312SOL    HW3 5302   1.695   2.420   2.251  1.0492  1.5445  2.2448
 1312SOL    MW4 5303   1.767   2.453   2.215  0.0005  0.0001 -0.0000
 1313SOL     OW 5304   1.832   2.719   2.320  0.0758 -0.1372  0.4879
 1313SOL    HW2 5305   1.805   2.641   2.271  0.3692  0.9932 -1.5251
 1313SOL    HW3 5306   1.755   2.776   2.319  0.5492  0.4962  0.0953
 1313SOL    MW4 5307   1.818   2.716   2.313  0.0005  0.0001 -0.0000
 1314SOL     OW 5308   2.070   2.861   2.259 -0.1448  0.2588  0.0102
 1314SOL    HW2 5309   2.129   2.817   2.320  0.4360  0.0766 -0.6747
 1314SOL    HW3 5310   1.984   2.821   2.275 -0.4554  1.7190  2.2053
 1314SOL    MW4 5311   2.066   2.850   2.269  0.0005  0.0001 -0.0000
 1315SOL     OW 5312   2.020   3.105   2.365 -0.3314  0.1616 -0.7029
 1315SOL    HW2 5313   2.092   3.159   2.334  0.0299  0.2053  0.1921
 1315SOL    HW3 5314   2.034   3.020   2.325 -1.1150  0.8224 -2.4278
 1315SOL    MW4 5315   2.031   3.101   2.356  0.0005  0.0001 -0.0000
 1316SOL     OW 5316   1.807   3.231   2.245  0.2789 -0.7557 -0.0566
 1316SOL    HW2 5317   1.874   3.176   2.286 -1.1411 -1.7875  0.9035
 1316SOL    HW3 5318   1.724   3.193   2.273 -0.7208  0.9060 -0.7152
 1316SOL    MW4 5319   1.805   3.219   2.254  0.0005  0.0001 -0.0000
 1317SOL     OW 5320   1.796   3.492   2.345  0.0338 -0.0097  0.3270
 1317SOL    HW2 5321   1.792   3.399   2.321 -0.4094  0.2184 -0.4969
 1317SOL    HW3 5322   1.707   3.524   2.333  0.5661  0.9599 -1.1903
 1317SOL    MW4 5323   1.784   3.484   2.340  0.0005  0.0001 -0.0000
 1318SOL     OW 5324   2.029   3.611   2.223 -0.5925 -0.2962 -0.2086
 1318SOL    HW2 5325   1.952   3.575   2.266 -0.8775  0.9803  0.3745
 1318SOL    HW3 5326   2.009   3.606   2.129 -1.2668 -0.2253 -0.0706
 1318SOL    MW4 5327   2.016   3.606   2.216  0.0005  0.0001 -0.0000
 1319SOL     OW 5328   2.001   3.865   2.345  0.1636 -0.2524 -0.0221
 1319SOL    HW2 5329   2.045   3.867   2.430 -0.8513  1.0996  0.4964
 1319SOL    HW3 5330   2.023   3.780   2.308 -0.2495 -1.2948  2.0662
 1319SOL    MW4 5331   2.010   3.854   2.351  0.0005  0.0001 -0.0000
 1320SOL     OW 5332   1.792   4.021   2.278 -0.2039 -0.3941 -0.1727
 1320SOL    HW2 5333   1.862   3.958   2.295  1.1116  1.1399  0.2304
 1320SOL    HW3 5334   1.790   4.031   2.183  0.7107  0.1921 -0.1346
 1320SOL    MW4 5335   1.801   4.014   2.268  0.0005  0.0001 -0.0000
 1321SOL     OW 5336   1.797   4.290   2.331 -0.0422 -0.2288  0.3948
 1321SOL    HW2 5337   1.800   4.195   2.317 -0.6948  0.0053 -1.4497
 1321SOL    HW3 5338   1.707   4.315   2.310  0.2257  0.8574  0.4968
 1321SOL    MW4 5339   1.785   4.281   2.326  0.0005  0.0001 -0.0000
 1322SOL     OW 5340   2.032   4.416   2.246 -0.3580 -0.5299 -0.2548
 1322SOL    HW2 5341   1.951   4.380   2.281 -0.5774  0.2609  0.0641
 1322SOL    HW3 5342   2.017   4.424   2.152 -0.5509 -0.6372 -0.2323
 1322SOL    MW4 5343   2.019   4.412   2.238  0.0005  0.0001 -0.0000
 1323SOL     OW 5344   2.495   4.649   2.373 -0.8869  0.1196  0.2865
 1323SOL    HW2 5345   2.562   4.697   2.325  0.3180 -1.1809  0.6375
 1323SOL    HW3 5346   2.494   4.562   2.333 -1.9642 -0.0510  0.6630
 1323SOL    MW4 5347   2.504   4.644   2.361  0.0005  0.0001 -0.0000
 1324SOL     OW 5348   2.272   0.120   2.253  1.0684  0.0820  0.1166
 1324SOL    HW2 5349   2.287   0.209   2.284  0.1608  0.2167  0.1790
 1324SOL    HW3 5350   2.343   0.069   2.292  2.1808  0.9516 -0.7343
 1324SOL    MW4 5351   2.283   0.125   2.262  0.0005  0.0001 -0.0000
 1325SOL     OW 5352   2.261   0.383   2.340  0.2003 -0.6322  0.4009
 1325SOL    HW2 5353   2.333   0.436   2.306 -1.2168  1.6559  0.8603
 1325SOL    HW3 5354   2.182   0.423   2.303 -0.9358 -2.1866  1.0866
 1325SOL    MW4 5355   2.260   0.395   2.331  0.0005  0.0001 -0.0000
 1326SOL     OW 5356   2.469   0.530   2.206  0.2301 -0.5200 -0.0086
 1326SOL    HW2 5357   2.547   0.481   2.231 -0.9475 -2.0281  0.8084
 1326SOL    HW3 5358   2.464   0.522   2.111 -0.8298 -3.4133  0.2442
 1326SOL    MW4 5359   2.479   0.522   2.197  0.0005  0.0001 -0.0000
 1327SOL     OW 5360   2.470   0.773   2.356  0.1299 -0.1008  0.1138
 1327SOL    HW2 5361   2.545   0.826   2.327 -1.0229  1.1167 -0.7050
 1327SOL    HW3 5362   2.480   0.690   2.310  1.4871 -0.2969  0.7388
 1327SOL    MW4 5363   2.481   0.769   2.346  0.0005  0.0001 -0.0000
 1328SOL     OW 5364   2.243   0.866   2.231  0.2095 -0.1810 -0.2138
 1328SOL    HW2 5365   2.233   0.960   2.244  0.9218 -0.1695  0.2665
 1328SOL    HW3 5366   2.314   0.841   2.289  0.2044 -0.9728 -0.5396
 1328SOL    MW4 5367   2.251   0.875   2.240  0.0005  0.0001 -0.0000
 1329SOL     OW 5368   2.240   1.131   2.296 -0.6209  0.1367  0.0210
 1329SOL    HW2 5369   2.320   1.180   2.279 -0.0589 -0.7626  0.0622
 1329SOL    HW3 5370   2.170   1.186   2.260  0.1943  0.0137 -1.8208
 1329SOL    MW4 5371   2.241   1.145   2.289  0.0005  0.0001 -0.0000
 1330SOL     OW 5372   2.456   1.294   2.248 -0.1543 -0.1323 -0.8446
 1330SOL    HW2 5373   2.537   1.251   2.277  0.2250 -1.0547 -3.1778
 1330SOL    HW3 5374   2.460   1.381   2.288  0.8576 -0.9662  0.9430
 1330SOL    MW4 5375   2.467   1.300   2.257  0.0005  0.0001 -0.0000
 1331SOL     OW 5376   2.429   1.552   2.382 -0.3393  0.0364 -0.2413
 1331SOL    HW2 5377   2.455   1.546   2.474  1.0507  0.2819 -0.6025
 1331SOL    HW3 5378   2.504   1.594   2.339 -0.9830 -0.0679 -1.4807
 1331SOL    MW4 5379   2.442   1.557   2.388  0.0005  0.0001 -0.0000
 1332SOL     OW 5380   2.209   1.698   2.272  0.0844  0.1150 -0.0430
 1332SOL    HW2 5381   2.271   1.637   2.312  0.0785  1.2891  1.8178
 1332SOL    HW3 5382   2.123   1.664   2.297  0.0111 -0.6425 -1.3137
 1332SOL    MW4 5383   2.206   1.685   2.281  0.0005  0.0001 -0.0000
 1333SOL     OW 5384   2.226   1.967   2.318 -0.5831 -0.0578  0.3041
 1333SOL    HW2 5385   2.301   2.002   2.270  0.4378  0.0884  1.9666
 1333SOL    HW3 5386   2.230   1.873   2.303  0.2727 -0.1129  0.8409
 1333SOL    MW4 5387   2.236   1.959   2.310  0.0005  0.0001 -0.0000
 1334SOL     OW 5388   2.452   2.087   2.201  0.2781 -0.1812  0.2653
 1334SOL    HW2 5389   2.524   2.036   2.238 -1.2720 -3.8954 -1.6054
 1334SOL    HW3 5390   2.461   2.075   2.106 -1.7465  0.7833 -0.0733
 1334SOL    MW4 5391   2.463   2.079   2.193  0.0005  0.0001 -0.0000
 1335SOL     OW 5392   2.462   2.318   2.358 -0.0334  0.0139 -0.0260
 1335SOL    HW2 5393   2.527   2.378   2.321 -1.6939  0.9757 -1.5100
 1335SOL    HW3 5394   2.459   2.245   2.296 -1.2231  0.5596 -0.6267
 1335SOL    MW4 5395   2.470   2.316   2.345  0.0005  0.0001 -0.0000
 1336SOL     OW 5396   2.233   2.460   2.209  0.1334  0.3826 -0.8034
 1336SOL    HW2 5397   2.248   2.532   2.270  0.6185  0.2816 -0.8011
 1336SOL    HW3 5398   2.294   2.392   2.237 -0.1122  0.0833 -0.9896
 1336SOL    MW4 5399   2.243   2.461   2.221  0.0005  0.0001 -0.0000
 1337SOL     OW 5400   2.256   2.693   2.366 -0.0992 -0.1025  0.2147
 1337SOL    HW2 5401   2.238   2.712   2.458  0.9617 -2.3880  0.9359
 1337SOL    HW3 5402   2.314   2.764   2.337 -0.5570  0.7049  1.2562
 1337SOL    MW4 5403   2.261   2.705   2.374  0.0005  0.0001 -0.0000
 1338SOL     OW 5404   2.445   2.870   2.266 -0.0630 -0.2353 -0.3840
 1338SOL    HW2 5405   2.520   2.817   2.293  2.2615  2.6254 -0.9678
 1338SOL    HW3 5406   2.458   2.884   2.172 -1.0774  0.6731 -0.3994
 1338SOL    MW4 5407   2.457   2.865   2.257  0.0005  0.0001 -0.0000
 1339SOL     OW 5408   2.470   3.136   2.362  0.3287 -0.4332  0.0323
 1339SOL    HW2 5409   2.547   3.182   2.329  1.1098 -1.1783  0.7954
 1339SOL    HW3 5410   2.478   3.047   2.328 -0.4165 -0.4052 -0.2308
 1339SOL    MW4 5411   2.481   3.130   2.353  0.0005  0.0001 -0.0000
 1340SOL     OW 5412   2.235   3.252   2.258 -0.0024 -0.6821 -0.9195
 1340SOL    HW2 5413   2.250   3.346   2.264 -0.9848 -0.5664 -0.1616
 1340SOL    HW3 5414   2.316   3.213   2.290  0.4978 -0.0999 -1.4589
 1340SOL    MW4 5415   2.248   3.259   2.263  0.0005  0.0001 -0.0000
 1341SOL     OW 5416   2.264   3.523   2.314  0.0761 -0.7674  0.2946
 1341SOL    HW2 5417   2.251   3.499   2.406 -2.5734 -0.5092  0.0267
 1341SOL    HW3 5418   2.178   3.555   2.285  0.5590 -1.9293 -2.5928
 1341SOL    MW4 5419   2.251   3.524   2.322  0.0005  0.0001 -0.0000
 1342SOL     OW 5420   2.505   3.647   2.233 -0.5037  0.4918 -0.1685
 1342SOL    HW2 5421   2.489   3.736   2.266 -0.4681  0.6695 -0.6268
 1342SOL    HW3 5422   2.429   3.597   2.261 -0.6563  0.7344 -0.1479
 1342SOL    MW4 5423   2.493   3.652   2.241  0.0005  0.0001 -0.0000
 1343SOL     OW 5424   2.459   3.904   2.342  0.4740 -0.2903  0.2238
 1343SOL    HW2 5425   2.461   3.903   2.438  0.4833  1.2101  0.2476
 1343SOL    HW3 5426   2.378   3.951   2.320 -0.4204 -2.1375 -0.5243
 1343SOL    MW4 5427   2.449   3.910   2.352  0.0005  0.0001 -0.0000
 1344SOL     OW 5428   2.213   3.997   2.241  0.5494  0.2022 -0.5334
 1344SOL    HW2 5429   2.204   4.090   2.262  1.7407  0.3387 -0.5923
 1344SOL    HW3 5430   2.144   3.954   2.292  0.8294  0.9742  0.5132
 1344SOL    MW4 5431   2.203   4.004   2.250  0.0005  0.0001 -0.0000
 1345SOL     OW 5432   2.235   4.271   2.332 -0.2799  0.1383 -0.2923
 1345SOL    HW2 5433   2.245   4.280   2.427 -1.5199  1.3661 -0.2597
 1345SOL    HW3 5434   2.173   4.340   2.308 -0.1826 -0.3370 -1.9609
 1345SOL    MW4 5435   2.228   4.281   2.341  0.0005  0.0001 -0.0000
 1346SOL     OW 5436   2.506   4.392   2.251 -0.2267  0.7418 -0.0800
 1346SOL    HW2 5437   2.578   4.348   2.297  0.1287 -0.0131 -1.3374
 1346SOL    HW3 5438   2.428   4.345   2.280  0.0902 -0.3394 -0.9401
 1346SOL    MW4 5439   2.505   4.380   2.261  0.0005  0.0001 -0.0000
 1347SOL     OW 5440   2.928   0.006   2.323 -0.0174 -0.4897  0.4451
 1347SOL    HW2 5441   3.000   0.054   2.282  0.4864 -0.8029  0.9553
 1347SOL    HW3 5442   2.933  -0.081   2.284 -0.3524 -0.4031  0.2080
 1347SOL    MW4 5443   2.938   0.001   2.312  0.0005  0.0001 -0.0000
 1348SOL     OW 5444   2.688   0.113   2.228 -0.6849 -0.1395 -0.3391
 1348SOL    HW2 5445   2.679   0.207   2.246 -1.1674 -0.2741  0.1295
 1348SOL    HW3 5446   2.770   0.088   2.270  0.4346  0.4721 -2.1055
 1348SOL    MW4 5447   2.698   0.122   2.236  0.0005  0.0001 -0.0000
 1349SOL     OW 5448   2.674   0.376   2.283  0.4137  0.5536 -0.4652
 1349SOL    HW2 5449   2.655   0.393   2.375 -0.5143 -0.6499 -0.4261
 1349SOL    HW3 5450   2.765   0.405   2.272  0.2127  1.6312  0.5760
 1349SOL    MW4 5451   2.683   0.382   2.294  0.0005  0.0001 -0.0000
 1350SOL     OW 5452   2.926   0.502   2.213 -0.0746 -0.0503 -0.1405
 1350SOL    HW2 5453   2.932   0.590   2.251  2.2075 -0.4770  0.5680
 1350SOL    HW3 5454   2.930   0.516   2.118 -1.7119  0.7298 -0.1104
 1350SOL    MW4 5455   2.927   0.515   2.206  0.0005  0.0001 -0.0000
 1351SOL     OW 5456   2.928   0.747   2.359 -0.0772 -0.0396 -0.2909
 1351SOL    HW2 5457   2.930   0.756   2.454  0.6069 -0.4780 -0.2617
 1351SOL    HW3 5458   2.846   0.789   2.333 -1.3783 -1.8896  0.7013
 1351SOL    MW4 5459   2.917   0.754   2.368  0.0005  0.0001 -0.0000
 1352SOL     OW 5460   2.710   0.881   2.262 -0.0691  0.0741  0.0609
 1352SOL    HW2 5461   2.700   0.973   2.286  2.1985 -0.1402  1.9915
 1352SOL    HW3 5462   2.724   0.883   2.167 -0.8078  1.6409 -0.0393
 1352SOL    MW4 5463   2.711   0.893   2.253  0.0005  0.0001 -0.0000
 1353SOL     OW 5464   2.684   1.149   2.327  0.2548  0.1535  0.1965
 1353SOL    HW2 5465   2.684   1.148   2.423 -0.3824  1.1067  0.2134
 1353SOL    HW3 5466   2.764   1.195   2.303 -1.4320  3.3053  0.3503
 1353SOL    MW4 5467   2.695   1.155   2.336  0.0005  0.0001 -0.0000
 1354SOL     OW 5468   2.911   1.274   2.222  0.2163  0.3022  0.1768
 1354SOL    HW2 5469   2.989   1.234   2.260 -0.9952 -1.8698  0.4629
 1354SOL    HW3 5470   2.928   1.276   2.128 -0.6009 -3.0589 -0.1049
 1354SOL    MW4 5471   2.924   1.269   2.215  0.0005  0.0001 -0.0000
 1355SOL     OW 5472   2.883   1.530   2.336 -0.5442  0.8423  0.1194
 1355SOL    HW2 5473   2.897   1.516   2.430  1.2174  0.8765 -0.1238
 1355SOL    HW3 5474   2.877   1.442   2.299  2.2714  0.7460 -0.2162
 1355SOL    MW4 5475   2.884   1.517   2.343  0.0005  0.0001 -0.0000
 1356SOL     OW 5476   2.642   1.652   2.235 -0.2187 -0.3960 -0.0202
 1356SOL    HW2 5477   2.717   1.593   2.243 -0.7240 -0.8698  1.3494
 1356SOL    HW3 5478   2.636   1.671   2.141  1.7641 -0.1581 -0.1172
 1356SOL    MW4 5479   2.651   1.647   2.224  0.0005  0.0001 -0.0000
 1357SOL     OW 5480   2.659   1.925   2.308  0.2744  0.0860 -0.2476
 1357SOL    HW2 5481   2.681   1.932   2.401  0.8390  1.9885 -0.5022
 1357SOL    HW3 5482   2.652   1.831   2.292 -1.3247 -0.2294  2.0576
 1357SOL    MW4 5483   2.661   1.914   2.318  0.0005  0.0001 -0.0000
 1358SOL     OW 5484   2.881   2.078   2.233 -0.2252 -0.0701  0.1373
 1358SOL    HW2 5485   2.962   2.037   2.262 -0.3901  0.5543  1.5230
 1358SOL    HW3 5486   2.812   2.021   2.267 -0.4352  0.9652  1.4609
 1358SOL    MW4 5487   2.883   2.065   2.241  0.0005  0.0001 -0.0000
 1359SOL     OW 5488   2.900   2.340   2.335  0.0365  0.6910  0.0658
 1359SOL    HW2 5489   2.907   2.309   2.425 -0.5003 -0.7197 -0.3599
 1359SOL    HW3 5490   2.896   2.260   2.283  2.2592  1.4763 -1.3779
 1359SOL    MW4 5491   2.900   2.325   2.340  0.0005  0.0001 -0.0000
 1360SOL     OW 5492   2.654   2.481   2.259 -0.2890 -0.2477  0.1923
 1360SOL    HW2 5493   2.736   2.438   2.284 -0.1576 -0.2544 -0.2444
 1360SOL    HW3 5494   2.651   2.473   2.164 -1.3725 -1.2840  0.3023
 1360SOL    MW4 5495   2.664   2.474   2.250  0.0005  0.0001 -0.0000
 1361SOL     OW 5496   2.679   2.742   2.355 -0.2031 -0.2730 -0.2839
 1361SOL    HW2 5497   2.750   2.788   2.310 -2.4354  1.2170 -2.4169
 1361SOL    HW3 5498   2.686   2.651   2.325  0.6553 -0.0881 -0.6538
 1361SOL    MW4 5499   2.689   2.736   2.345  0.0005  0.0001 -0.0000
 1362SOL     OW 5500   2.901   2.857   2.252  0.4405  0.0167 -0.1069
 1362SOL    HW2 5501   2.907   2.943   2.294  2.2136 -0.0932 -0.0973
 1362SOL    HW3 5502   2.910   2.875   2.158  1.6598 -0.2266 -0.0441
 1362SOL    MW4 5503   2.903   2.871   2.245  0.0005  0.0001 -0.0000
 1363SOL     OW 5504   2.936   3.108   2.363 -0.7214 -0.7573  0.0516
 1363SOL    HW2 5505   2.996   3.175   2.331 -0.4274 -0.8922  0.3173
 1363SOL    HW3 5506   2.853   3.128   2.320 -0.3940 -0.7944 -0.6101
 1363SOL    MW4 5507   2.933   3.119   2.353  0.0005  0.0001 -0.0000
 1364SOL     OW 5508   2.712   3.232   2.270  0.3410  0.0538  0.3624
 1364SOL    HW2 5509   2.720   3.324   2.296  0.2489  0.2229 -0.1974
 1364SOL    HW3 5510   2.703   3.235   2.175  0.6405 -0.5550  0.3138
 1364SOL    MW4 5511   2.712   3.245   2.261  0.0005  0.0001 -0.0000
 1365SOL     OW 5512   2.715   3.503   2.346 -0.1105 -0.0196 -0.5752
 1365SOL    HW2 5513   2.784   3.547   2.296  1.8333  1.6995  3.4201
 1365SOL    HW3 5514   2.634   3.546   2.318  1.1889  2.4141 -0.6920
 1365SOL    MW4 5515   2.713   3.515   2.336  0.0005  0.0001 -0.0000
 1366SOL     OW 5516   2.917   3.652   2.214 -0.1722  0.3699 -0.0100
 1366SOL    HW2 5517   2.981   3.602   2.265 -0.8622 -0.1507  0.3542
 1366SOL    HW3 5518   2.897   3.728   2.269 -0.4736  0.1135  0.2365
 1366SOL    MW4 5519   2.923   3.655   2.228  0.0005  0.0001 -0.0000
 1367SOL     OW 5520   2.904   3.923   2.328  0.2925 -0.4676  0.3349
 1367SOL    HW2 5521   2.908   3.907   2.422 -0.7491  0.2219  0.5011
 1367SOL    HW3 5522   2.815   3.955   2.312 -0.2054 -2.4849 -1.1942
 1367SOL    MW4 5523   2.893   3.925   2.338  0.0005  0.0001 -0.0000
 1368SOL     OW 5524   2.671   4.074   2.259  0.1467 -0.5035  0.1911
 1368SOL    HW2 5525   2.589   4.039   2.294  0.3433 -0.4261  0.7324
 1368SOL    HW3 5526   2.669   4.051   2.166  0.3850 -2.1741  0.5825
 1368SOL    MW4 5527   2.660   4.066   2.251  0.0005  0.0001 -0.0000
 1369SOL     OW 5528   2.742   4.318   2.390  0.5437 -0.5184 -0.0876
 1369SOL    HW2 5529   2.704   4.302   2.476  1.4430 -0.0723  0.4005
 1369SOL    HW3 5530   2.733   4.235   2.344  0.9126 -1.0411  0.7707
 1369SOL    MW4 5531   2.736   4.305   2.395  0.0005  0.0001 -0.0000
 1370SOL     OW 5532   2.948   4.405   2.226 -0.6149  0.0134 -0.0367
 1370SOL    HW2 5533   3.026   4.361   2.259  0.2807  0.1889 -1.8601
 1370SOL    HW3 5534   2.878   4.377   2.285  0.8246 -0.0831  1.6692
 1370SOL    MW4 5535   2.949   4.395   2.238  0.0005  0.0001 -0.0000
 1371SOL     OW 5536   3.360   4.637   2.309  0.1820  0.1111  0.0605
 1371SOL    HW2 5537   3.361   4.672   2.398  2.1312 -2.0129  0.9284
 1371SOL    HW3 5538   3.444   4.665   2.272  0.1432 -0.5057 -0.4957
 1371SOL    MW4 5539   3.371   4.645   2.316  0.0005  0.0001 -0.0000
 1372SOL     OW 5540   3.168   0.113   2.200 -0.3052 -0.0692 -0.1077
 1372SOL    HW2 5541   3.173   0.202   2.236 -1.1677 -0.0854  0.0623
 1372SOL    HW3 5542   3.243   0.067   2.239  0.7635  0.8699 -1.0181
 1372SOL    MW4 5543   3.179   0.119   2.210  0.0005  0.0001 -0.0000
 1373SOL     OW 5544   3.133   0.380   2.343 -0.1974  0.3451 -0.4475
 1373SOL    HW2 5545   3.211   0.432   2.323  0.9066 -1.6847 -1.5864
 1373SOL    HW3 5546   3.064   0.419   2.290  0.1199  1.9072  0.2602
 1373SOL    MW4 5547   3.134   0.392   2.333  0.0005  0.0001 -0.0000
 1374SOL     OW 5548   3.351   0.530   2.241 -0.2519 -0.3152 -0.1389
 1374SOL    HW2 5549   3.427   0.483   2.276  1.7508  2.3892 -0.6395
 1374SOL    HW3 5550   3.358   0.521   2.146 -0.3959  0.1760 -0.1996
 1374SOL    MW4 5551   3.362   0.523   2.233  0.0005  0.0001 -0.0000
 1375SOL     OW 5552   3.361   0.762   2.379 -0.1837 -0.2696  0.2582
 1375SOL    HW2 5553   3.448   0.788   2.348 -1.0005  0.9247 -1.1257
 1375SOL    HW3 5554   3.348   0.674   2.342  0.8994 -0.9576  1.4639
 1375SOL    MW4 5555   3.371   0.754   2.370  0.0005  0.0001 -0.0000
 1376SOL     OW 5556   3.158   0.876   2.242 -0.0117 -0.0371  0.1748
 1376SOL    HW2 5557   3.237   0.845   2.287  0.4591  1.3993  0.3697
 1376SOL    HW3 5558   3.087   0.823   2.278  0.6816 -0.4309  0.9728
 1376SOL    MW4 5559   3.159   0.865   2.253  0.0005  0.0001 -0.0000
 1377SOL     OW 5560   3.139   1.145   2.329  0.3830 -0.0070 -0.2523
 1377SOL    HW2 5561   3.217   1.187   2.293  0.6257 -0.4660 -0.2668
 1377SOL    HW3 5562   3.136   1.059   2.286 -0.1983  0.0577 -0.3448
 1377SOL    MW4 5563   3.149   1.139   2.319  0.0005  0.0001 -0.0000
 1378SOL     OW 5564   3.375   1.273   2.238 -0.0559 -0.2177  0.3423
 1378SOL    HW2 5565   3.452   1.230   2.276  2.6586  2.4366 -1.8941
 1378SOL    HW3 5566   3.372   1.359   2.281 -0.8232  0.3009 -0.7280
 1378SOL    MW4 5567   3.385   1.279   2.249  0.0005  0.0001 -0.0000
 1379SOL     OW 5568   3.352   1.523   2.325  0.1135  0.3205  0.0211
 1379SOL    HW2 5569   3.376   1.536   2.417 -1.1142  0.7196  0.2972
 1379SOL    HW3 5570   3.279   1.583   2.311 -0.4820 -0.6038 -0.8892
 1379SOL    MW4 5571   3.346   1.533   2.335  0.0005  0.0001 -0.0000
 1380SOL     OW 5572   3.132   1.678   2.275 -0.3334 -0.0856  0.5718
 1380SOL    HW2 5573   3.125   1.772   2.294 -0.8194 -0.2662  1.3157
 1380SOL    HW3 5574   3.050   1.641   2.307  0.6225 -1.0460  1.9976
 1380SOL    MW4 5575   3.120   1.685   2.282  0.0005  0.0001 -0.0000
 1381SOL     OW 5576   3.117   1.968   2.342  0.1234 -0.0628  0.3729
 1381SOL    HW2 5577   3.120   1.955   2.437 -0.3496  3.0337  0.8644
 1381SOL    HW3 5578   3.207   1.992   2.318  0.0238  0.1422  0.2012
 1381SOL    MW4 5579   3.129   1.969   2.351  0.0005  0.0001 -0.0000
 1382SOL     OW 5580   3.363   2.050   2.243  0.0701  0.0143  0.0685
 1382SOL    HW2 5581   3.436   2.006   2.286  0.1298  0.7403  0.7264
 1382SOL    HW3 5582   3.385   2.049   2.150  0.4060 -0.7098  0.1546
 1382SOL    MW4 5583   3.376   2.044   2.236  0.0005  0.0001 -0.0000
 1383SOL     OW 5584   3.364   2.313   2.352 -0.1265 -0.4281  0.1839
 1383SOL    HW2 5585   3.296   2.354   2.299  0.0568 -0.6909 -0.2552
 1383SOL    HW3 5586   3.377   2.227   2.313  0.6048 -0.2985  0.1357
 1383SOL    MW4 5587   3.357   2.307   2.340  0.0005  0.0001 -0.0000
 1384SOL     OW 5588   3.140   2.448   2.237 -0.2899  0.1411 -0.1505
 1384SOL    HW2 5589   3.142   2.537   2.272  2.7423 -0.6829  1.9932
 1384SOL    HW3 5590   3.056   2.412   2.266 -1.4015  2.1659 -0.7760
 1384SOL    MW4 5591   3.129   2.455   2.245  0.0005  0.0001 -0.0000
 1385SOL     OW 5592   3.127   2.717   2.333 -0.3848  0.2177 -0.3590
 1385SOL    HW2 5593   3.146   2.703   2.426 -1.7980 -1.2730 -0.2718
 1385SOL    HW3 5594   3.039   2.755   2.332 -0.4022  0.1647 -1.0823
 1385SOL    MW4 5595   3.118   2.720   2.345  0.0005  0.0001 -0.0000
 1386SOL     OW 5596   3.358   2.872   2.273  0.0006 -0.1750  0.0202
 1386SOL    HW2 5597   3.361   2.955   2.320  0.9493 -0.2645  0.1215
 1386SOL    HW3 5598   3.273   2.835   2.296 -0.6855  1.0492 -0.5160
 1386SOL    MW4 5599   3.347   2.878   2.282  0.0005  0.0001 -0.0000
 1387SOL     OW 5600   3.393   3.110   2.387  0.1533 -0.3853  0.1422
 1387SOL    HW2 5601   3.467   3.161   2.354 -0.3504  0.1067 -0.2302
 1387SOL    HW3 5602   3.316   3.159   2.359 -0.3024 -0.4523  1.2492
 1387SOL    MW4 5603   3.393   3.123   2.379  0.0005  0.0001 -0.0000
 1388SOL     OW 5604   3.159   3.263   2.292  0.2347  0.0415 -0.1088
 1388SOL    HW2 5605   3.158   3.357   2.308  0.9060  0.1599 -0.7373
 1388SOL    HW3 5606   3.152   3.255   2.197 -0.0480 -0.5499 -0.0391
 1388SOL    MW4 5607   3.158   3.274   2.282  0.0005  0.0001 -0.0000
 1389SOL     OW 5608   3.112   3.538   2.357  0.1771  0.1156  0.6591
 1389SOL    HW2 5609   3.121   3.533   2.452 -0.4691  1.4138  0.7983
 1389SOL    HW3 5610   3.194   3.578   2.328  0.6443 -0.8682  0.6011
 1389SOL    MW4 5611   3.124   3.543   2.366  0.0005  0.0001 -0.0000
 1390SOL     OW 5612   3.335   3.668   2.255 -0.0511 -0.4459 -0.0879
 1390SOL    HW2 5613   3.415   3.624   2.283  0.9822  1.2001 -0.3856
 1390SOL    HW3 5614   3.330   3.651   2.161  2.1615  2.7821 -0.8741
 1390SOL    MW4 5615   3.345   3.660   2.246  0.0005  0.0001 -0.0000
 1391SOL     OW 5616   3.358   3.905   2.394  0.5831 -0.2563 -0.1793
 1391SOL    HW2 5617   3.416   3.954   2.336 -0.2667 -1.2862 -1.9394
 1391SOL    HW3 5618   3.350   3.819   2.353 -2.4381 -0.0355 -0.1668
 1391SOL    MW4 5619   3.365   3.900   2.381  0.0005  0.0001 -0.0000
 1392SOL     OW 5620   3.153   3.985   2.237 -0.4486 -0.4748  0.0233
 1392SOL    HW2 5621   3.217   3.953   2.301  0.8321 -0.1836 -1.0832
 1392SOL    HW3 5622   3.069   3.952   2.268  0.1632 -0.3941  1.8138
 1392SOL    MW4 5623   3.150   3.976   2.250  0.0005  0.0001 -0.0000
 1393SOL     OW 5624   3.133   4.240   2.327 -0.2926  0.1339 -0.0112
 1393SOL    HW2 5625   3.215   4.276   2.292 -0.1250 -0.3393 -0.1047
 1393SOL    HW3 5626   3.134   4.148   2.302 -0.1487 -0.2268  1.2794
 1393SOL    MW4 5627   3.144   4.233   2.319  0.0005  0.0001 -0.0000
 1394SOL     OW 5628   3.366   4.375   2.256 -0.0622 -0.4644  0.2836
 1394SOL    HW2 5629   3.378   4.465   2.285  0.2934 -0.6347  0.6776
 1394SOL    HW3 5630   3.369   4.379   2.160  3.2247 -0.4924  0.3308
 1394SOL    MW4 5631   3.368   4.387   2.247  0.0005  0.0001 -0.0000
 1395SOL     OW 5632   3.786   4.644   2.384  0.5823 -0.3011  0.0760
 1395SOL    HW2 5633   3.814   4.649   2.475  0.7854  1.5973 -0.0687
 1395SOL    HW3 5634   3.857   4.686   2.335 -0.3488  0.3122 -0.7665
 1395SOL    MW4 5635   3.799   4.650   2.390  0.0005  0.0001 -0.0000
 1396SOL     OW 5636   3.581   0.142   2.268  0.0631 -0.4673  0.0140
 1396SOL    HW2 5637   3.576   0.221   2.322 -0.8540 -0.3059 -0.3023
 1396SOL    HW3 5638   3.650   0.090   2.309  0.0460  0.0848  0.7677
 1396SOL    MW4 5639   3.589   0.145   2.281  0.0005  0.0001 -0.0000
 1397SOL     OW 5640   3.552   0.401   2.379 -0.3223  0.7674 -0.0572
 1397SOL    HW2 5641   3.556   0.388   2.474  1.3659  0.1880 -0.1909
 1397SOL    HW3 5642   3.628   0.456   2.359 -0.6257  0.8238 -1.0849
 1397SOL    MW4 5643   3.563   0.407   2.389  0.0005  0.0001 -0.0000
 1398SOL     OW 5644   3.782   0.518   2.294  0.3117 -0.1143 -0.2346
 1398SOL    HW2 5645   3.793   0.610   2.317 -0.3692 -0.0441 -0.1814
 1398SOL    HW3 5646   3.799   0.515   2.200  0.7491 -0.0072 -0.1610
 1398SOL    MW4 5647   3.786   0.530   2.285  0.0005  0.0001 -0.0000
 1399SOL     OW 5648   3.825   0.783   2.358 -0.2149 -0.2067 -0.0700
 1399SOL    HW2 5649   3.814   0.801   2.451 -0.4230 -0.9447  0.0529
 1399SOL    HW3 5650   3.913   0.815   2.337 -0.4898  0.7275  0.1854
 1399SOL    MW4 5651   3.835   0.790   2.368  0.0005  0.0001 -0.0000
 1400SOL     OW 5652   3.586   0.870   2.247 -0.3275 -0.0768 -0.2454
 1400SOL    HW2 5653   3.674   0.844   2.274 -0.6208  0.4043  1.2082
 1400SOL    HW3 5654   3.595   0.890   2.154  1.7196  2.6124  0.4598
 1400SOL    MW4 5655   3.599   0.869   2.238  0.0005  0.0001 -0.0000
 1401SOL     OW 5656   3.602   1.135   2.335  0.4445  0.7003  0.2319
 1401SOL    HW2 5657   3.602   1.143   2.430 -1.3533 -0.1130  0.3216
 1401SOL    HW3 5658   3.602   1.041   2.319 -0.8391  0.8206 -0.5454
 1401SOL    MW4 5659   3.602   1.124   2.346  0.0005  0.0001 -0.0000
 1402SOL     OW 5660   3.830   1.255   2.248 -0.1036 -0.3468  0.3436
 1402SOL    HW2 5661   3.815   1.344   2.279  0.7473 -0.1627  0.2438
 1402SOL    HW3 5662   3.761   1.203   2.289  0.0809  0.1612  1.3088
 1402SOL    MW4 5663   3.819   1.260   2.258  0.0005  0.0001 -0.0000
 1403SOL     OW 5664   3.796   1.507   2.347 -0.5541  0.3025 -0.0668
 1403SOL    HW2 5665   3.809   1.537   2.437 -0.5130 -1.2141  0.4376
 1403SOL    HW3 5666   3.729   1.566   2.312 -0.8208  0.6787  1.0644
 1403SOL    MW4 5667   3.789   1.519   2.354  0.0005  0.0001 -0.0000
 1404SOL     OW 5668   3.542   1.697   2.226  0.0486 -0.0968  0.7041
 1404SOL    HW2 5669   3.477   1.630   2.247 -2.4222  1.5130 -1.4877
 1404SOL    HW3 5670   3.554   1.690   2.131  1.3531  1.1631  0.7583
 1404SOL    MW4 5671   3.535   1.687   2.216  0.0005  0.0001 -0.0000
 1405SOL     OW 5672   3.586   1.936   2.361  0.1505 -0.0434 -0.0285
 1405SOL    HW2 5673   3.649   1.978   2.303  1.0587 -1.3626 -0.0147
 1405SOL    HW3 5674   3.570   1.850   2.322 -1.9109  0.4032 -0.2198
 1405SOL    MW4 5675   3.592   1.930   2.348  0.0005  0.0001 -0.0000
 1406SOL     OW 5676   3.788   2.068   2.229  0.2235 -0.0413 -0.0836
 1406SOL    HW2 5677   3.871   2.027   2.254 -0.8154 -2.2773 -0.1783
 1406SOL    HW3 5678   3.790   2.068   2.133  1.3915  2.6585 -0.1037
 1406SOL    MW4 5679   3.799   2.063   2.220  0.0005  0.0001 -0.0000
 1407SOL     OW 5680   3.793   2.328   2.359  0.2160  0.5149 -0.2124
 1407SOL    HW2 5681   3.715   2.380   2.342  1.0982  1.3891 -1.6955
 1407SOL    HW3 5682   3.783   2.250   2.304 -0.1793  0.0402  0.5237
 1407SOL    MW4 5683   3.781   2.325   2.349  0.0005  0.0001 -0.0000
 1408SOL     OW 5684   3.557   2.494   2.280  0.2245  0.1193 -0.0221
 1408SOL    HW2 5685   3.497   2.422   2.298 -1.7202  1.7389  0.1545
 1408SOL    HW3 5686   3.567   2.494   2.185  1.2965 -1.1936  0.0760
 1408SOL    MW4 5687   3.550   2.484   2.270  0.0005  0.0001 -0.0000
 1409SOL     OW 5688   3.590   2.763   2.357 -0.2528  0.3097  0.1542
 1409SOL    HW2 5689   3.568   2.673   2.332  0.3634 -0.5077  2.3847
 1409SOL    HW3 5690   3.517   2.816   2.324 -1.4951 -1.2568  0.3225
 1409SOL    MW4 5691   3.578   2.758   2.349  0.0005  0.0001 -0.0000
 1410SOL     OW 5692   3.866   2.890   2.287 -0.0416 -0.5301  0.5503
 1410SOL    HW2 5693   3.849   2.974   2.329 -0.2602 -1.5929  2.6678
 1410SOL    HW3 5694   3.794   2.834   2.316  0.2851 -1.5404 -0.5532
 1410SOL    MW4 5695   3.854   2.894   2.296  0.0005  0.0001 -0.0000
 1411SOL     OW 5696   3.797   3.148   2.388 -0.1090 -0.5355 -0.0684
 1411SOL    HW2 5697   3.809   3.126   2.481  1.2206  0.0510 -0.0839
 1411SOL    HW3 5698   3.884   3.174   2.359 -0.7277  0.2591 -1.2314
 1411SOL    MW4 5699   3.810   3.149   2.396  0.0005  0.0001 -0.0000
 1412SOL     OW 5700   3.579   3.278   2.259 -0.6451  0.7403  0.1277
 1412SOL    HW2 5701   3.572   3.365   2.298  1.6866  2.0048 -2.1181
 1412SOL    HW3 5702   3.666   3.247   2.285 -2.0647 -1.6593  2.2519
 1412SOL    MW4 5703   3.590   3.285   2.268  0.0005  0.0001 -0.0000
 1413SOL     OW 5704   3.596   3.544   2.342  0.1287 -0.1037  0.1631
 1413SOL    HW2 5705   3.606   3.569   2.434  1.0637 -0.0947  0.0647
 1413SOL    HW3 5706   3.685   3.549   2.306 -0.4409  1.3048 -1.1030
 1413SOL    MW4 5707   3.609   3.548   2.349  0.0005  0.0001 -0.0000
 1414SOL     OW 5708   3.853   3.596   2.265  0.2343 -0.1247  0.3532
 1414SOL    HW2 5709   3.846   3.688   2.289  0.6317  0.3427 -1.2787
 1414SOL    HW3 5710   3.854   3.596   2.169  0.5036 -1.8027  0.3423
 1414SOL    MW4 5711   3.852   3.608   2.256  0.0005  0.0001 -0.0000
 1415SOL     OW 5712   3.758   3.864   2.358  0.1382  0.4006 -0.2796
 1415SOL    HW2 5713   3.763   3.865   2.454  0.3659  0.0923 -0.2877
 1415SOL    HW3 5714   3.830   3.920   2.329  0.7217 -0.3478 -0.2919
 1415SOL    MW4 5715   3.768   3.872   2.367  0.0005  0.0001 -0.0000
 1416SOL     OW 5716   3.560   4.023   2.243 -0.2444  0.6445  0.6439
 1416SOL    HW2 5717   3.560   4.092   2.309 -0.1675 -1.2617  2.6878
 1416SOL    HW3 5718   3.631   3.964   2.269 -0.6451 -0.4942 -0.7579
 1416SOL    MW4 5719   3.569   4.024   2.255  0.0005  0.0001 -0.0000
 1417SOL     OW 5720   3.583   4.262   2.374  0.0347 -0.2065 -0.0758
 1417SOL    HW2 5721   3.653   4.309   2.330 -0.3870  0.8092  0.3271
 1417SOL    HW3 5722   3.502   4.301   2.340 -0.3560 -1.6632 -0.8641
 1417SOL    MW4 5723   3.582   4.273   2.364  0.0005  0.0001 -0.0000
 1418SOL     OW 5724   3.806   4.374   2.262  0.0764 -0.0620 -0.2046
 1418SOL    HW2 5725   3.875   4.323   2.304 -0.8243 -0.8898  0.2942
 1418SOL    HW3 5726   3.806   4.458   2.308  0.1981 -0.3633  0.3462
 1418SOL    MW4 5727   3.815   4.378   2.274  0.0005  0.0001 -0.0000
 1419SOL     OW 5728   4.265   4.652   2.399 -0.0884 -0.1424  0.1879
 1419SOL    HW2 5729   4.291   4.653   2.491  0.9920 -1.2178 -0.0929
 1419SOL    HW3 5730   4.323   4.715   2.356 -0.7698  0.5557  0.2803
 1419SOL    MW4 5731   4.276   4.660   2.406  0.0005  0.0001 -0.0000
 1420SOL     OW 5732   4.022   0.102   2.279 -0.2166 -0.2615  0.1101
 1420SOL    HW2 5733   3.994   0.184   2.319 -1.1997 -1.2965  1.6011
 1420SOL    HW3 5734   4.094   0.072   2.335 -0.9258 -1.2089  0.5261
 1420SOL    MW4 5735   4.028   0.109   2.292  0.0005  0.0001 -0.0000
 1421SOL     OW 5736   4.006   0.356   2.369  0.3306 -0.1615  0.0788
 1421SOL    HW2 5737   4.080   0.401   2.327 -0.2068  2.1537  1.5101
 1421SOL    HW3 5738   3.930   0.411   2.349 -0.2982 -0.2212  2.1780
 1421SOL    MW4 5739   4.006   0.369   2.361  0.0005  0.0001 -0.0000
 1422SOL     OW 5740   4.225   0.520   2.278  0.5865  0.3184 -0.5417
 1422SOL    HW2 5741   4.214   0.603   2.325  0.9793  0.7087 -1.1335
 1422SOL    HW3 5742   4.315   0.493   2.296  1.0748  0.9940 -1.8957
 1422SOL    MW4 5743   4.235   0.527   2.287  0.0005  0.0001 -0.0000
 1423SOL     OW 5744   4.294   0.770   2.389  0.7320  0.1124  0.1945
 1423SOL    HW2 5745   4.223   0.826   2.359  1.9789  0.7325 -1.6876
 1423SOL    HW3 5746   4.374   0.819   2.368  1.7946 -1.7432 -0.2093
 1423SOL    MW4 5747   4.295   0.784   2.382  0.0005  0.0001 -0.0000
 1424SOL     OW 5748   4.081   0.891   2.302 -0.3926  0.2908 -0.3642
 1424SOL    HW2 5749   4.090   0.984   2.323  0.3085  0.0869  0.2511
 1424SOL    HW3 5750   4.095   0.887   2.207 -1.9894  1.0066 -0.6483
 1424SOL    MW4 5751   4.084   0.903   2.292  0.0005  0.0001 -0.0000
 1425SOL     OW 5752   4.059   1.182   2.366  0.2288  0.1351  0.0577
 1425SOL    HW2 5753   4.042   1.173   2.460  1.4829  2.5649  0.5582
 1425SOL    HW3 5754   3.975   1.208   2.329 -0.1866 -0.4832  0.5540
 1425SOL    MW4 5755   4.046   1.184   2.373  0.0005  0.0001 -0.0000
 1426SOL     OW 5756   4.252   1.326   2.255  0.0316 -0.5811  0.1880
 1426SOL    HW2 5757   4.197   1.266   2.305 -0.8596 -0.0881 -0.1872
 1426SOL    HW3 5758   4.341   1.304   2.281 -0.2518 -2.3817 -0.2913
 1426SOL    MW4 5759   4.257   1.315   2.265  0.0005  0.0001 -0.0000
 1427SOL     OW 5760   4.266   1.570   2.387 -0.0529 -0.1984 -0.2674
 1427SOL    HW2 5761   4.255   1.476   2.374  1.8938 -0.5503  0.4413
 1427SOL    HW3 5762   4.340   1.593   2.331  0.7745  0.5150  1.0959
 1427SOL    MW4 5763   4.274   1.561   2.378  0.0005  0.0001 -0.0000
 1428SOL     OW 5764   4.028   1.649   2.274  0.4062  0.1941 -0.4271
 1428SOL    HW2 5765   4.099   1.602   2.318  0.2666 -0.3056 -0.7249
 1428SOL    HW3 5766   3.951   1.593   2.285  0.1189  0.5982 -0.3478
 1428SOL    MW4 5767   4.027   1.635   2.281  0.0005  0.0001 -0.0000
 1429SOL     OW 5768   4.013   1.915   2.319  0.4426 -0.0199  0.0519
 1429SOL    HW2 5769   4.026   1.918   2.414  0.8831 -0.8817  0.0261
 1429SOL    HW3 5770   4.028   1.823   2.296 -0.6081 -0.0054 -0.7191
 1429SOL    MW4 5771   4.017   1.903   2.328  0.0005  0.0001 -0.0000
 1430SOL     OW 5772   4.252   2.036   2.273  0.1971  0.4594  0.5701
 1430SOL    HW2 5773   4.247   2.125   2.309  0.0200  0.1799  1.2437
 1430SOL    HW3 5774   4.166   1.998   2.291  0.1140  0.3066 -0.1349
 1430SOL    MW4 5775   4.240   2.043   2.280  0.0005  0.0001 -0.0000
 1431SOL     OW 5776   4.244   2.277   2.403  0.4069  0.3121 -0.1512
 1431SOL    HW2 5777   4.178   2.327   2.355 -0.1287 -1.5025 -1.3552
 1431SOL    HW3 5778   4.327   2.302   2.362  0.0904 -0.1646 -1.0998
 1431SOL    MW4 5779   4.246   2.287   2.391  0.0005  0.0001 -0.0000
 1432SOL     OW 5780   4.027   2.447   2.264 -0.1943 -0.1341 -0.1081
 1432SOL    HW2 5781   4.026   2.537   2.296 -0.2761  0.0753 -0.6947
 1432SOL    HW3 5782   3.948   2.408   2.301 -0.2305  0.0738  0.0367
 1432SOL    MW4 5783   4.016   2.454   2.273  0.0005  0.0001 -0.0000
 1433SOL     OW 5784   4.056   2.703   2.338 -0.2323 -0.2295  0.2779
 1433SOL    HW2 5785   4.057   2.713   2.433  1.9826 -0.9268  0.3498
 1433SOL    HW3 5786   4.008   2.780   2.307 -0.7564  0.1387  1.9327
 1433SOL    MW4 5787   4.050   2.714   2.346  0.0005  0.0001 -0.0000
 1434SOL     OW 5788   4.307   2.781   2.223  0.5130 -0.1556 -0.0075
 1434SOL    HW2 5789   4.234   2.735   2.263  0.2197 -0.6212 -1.0563
 1434SOL    HW3 5790   4.385   2.741   2.261  0.2391 -0.5381  0.1519
 1434SOL    MW4 5791   4.308   2.770   2.233  0.0005  0.0001 -0.0000
 1435SOL     OW 5792   4.258   3.046   2.319  0.6495  0.1368 -0.2288
 1435SOL    HW2 5793   4.246   2.954   2.294  2.3998 -0.2530  0.2841
 1435SOL    HW3 5794   4.327   3.077   2.261  0.9662  0.7606  0.4786
 1435SOL    MW4 5795   4.266   3.038   2.308  0.0005  0.0001 -0.0000
 1436SOL     OW 5796   4.035   3.211   2.259 -0.5000 -0.4575  0.0389
 1436SOL    HW2 5797   4.045   3.291   2.310 -1.3399 -0.6393  0.4953
 1436SOL    HW3 5798   4.113   3.159   2.281  0.7459  0.7921 -1.3078
 1436SOL    MW4 5799   4.047   3.215   2.269  0.0005  0.0001 -0.0000
 1437SOL     OW 5800   4.097   3.466   2.369  0.1119 -0.5354 -0.1268
 1437SOL    HW2 5801   4.170   3.509   2.325 -0.7486  1.7718  0.6264
 1437SOL    HW3 5802   4.019   3.502   2.327 -0.6288 -2.6149 -0.5958
 1437SOL    MW4 5803   4.096   3.476   2.358  0.0005  0.0001 -0.0000
 1438SOL     OW 5804   4.295   3.625   2.248 -0.0985  0.3748  0.3845
 1438SOL    HW2 5805   4.261   3.713   2.263  0.6709  0.8883 -0.8086
 1438SOL    HW3 5806   4.297   3.616   2.153  0.9883 -0.4716  0.4774
 1438SOL    MW4 5807   4.291   3.635   2.237  0.0005  0.0001 -0.0000
 1439SOL     OW 5808   4.233   3.891   2.365  0.7080 -0.1111 -0.0932
 1439SOL    HW2 5809   4.246   3.887   2.460  0.0265  0.2661  0.0203
 1439SOL    HW3 5810   4.317   3.920   2.330  1.0636 -0.5886  0.3676
 1439SOL    MW4 5811   4.246   3.894   2.373  0.0005  0.0001 -0.0000
 1440SOL     OW 5812   4.019   4.003   2.244 -0.1242 -0.1772 -0.2124
 1440SOL    HW2 5813   4.086   3.952   2.288 -0.9336  0.0034  1.2611
 1440SOL    HW3 5814   4.037   3.991   2.151  1.5082 -0.6991  0.1547
 1440SOL    MW4 5815   4.030   3.995   2.238  0.0005  0.0001 -0.0000
 1441SOL     OW 5816   4.039   4.255   2.359 -0.0976 -0.2003 -0.1962
 1441SOL    HW2 5817   4.104   4.305   2.310  0.7630 -0.1463  0.9774
 1441SOL    HW3 5818   4.045   4.166   2.324  1.7234 -0.5599  0.9651
 1441SOL    MW4 5819   4.048   4.250   2.348  0.0005  0.0001 -0.0000
 1442SOL     OW 5820   4.250   4.415   2.257  0.1707 -0.2945 -0.1852
 1442SOL    HW2 5821   4.257   4.498   2.303  0.6746 -0.2342 -0.3674
 1442SOL    HW3 5822   4.320   4.361   2.294 -0.0004 -0.5538 -0.2390
 1442SOL    MW4 5823   4.260   4.419   2.268  0.0005  0.0001 -0.0000
 1443SOL     OW 5824   0.231   4.657   2.642  0.1940  0.4249 -0.2229
 1443SOL    HW2 5825   0.222   4.565   2.668 -1.4912  0.0861 -1.8887
 1443SOL    HW3 5826   0.159   4.701   2.687 -0.1471  0.5861 -0.9221
 1443SOL    MW4 5827   0.220   4.651   2.651  0.0005  0.0001 -0.0000
 1444SOL     OW 5828   0.026   0.142   2.761 -0.6960 -0.3307  0.3595
 1444SOL    HW2 5829   0.026   0.153   2.856 -0.1154 -0.7933  0.4145
 1444SOL    HW3 5830   0.015   0.231   2.727  0.7269  0.0445  0.8422
 1444SOL    MW4 5831   0.025   0.155   2.769  0.0005  0.0001 -0.0000
 1445SOL     OW 5832   0.017   0.405   2.641 -0.1069 -0.1618 -0.0540
 1445SOL    HW2 5833   0.094   0.458   2.662  0.8460 -1.2479 -0.7422
 1445SOL    HW3 5834   0.010   0.410   2.546 -0.5116 -0.5871 -0.0480
 1445SOL    MW4 5835   0.026   0.413   2.631  0.0005  0.0001 -0.0000
 1446SOL     OW 5836   0.257   0.526   2.748 -0.3687  0.0723  0.2180
 1446SOL    HW2 5837   0.271   0.522   2.843 -1.3774 -0.9440  0.3358
 1446SOL    HW3 5838   0.316   0.459   2.712 -0.0716  0.3773  0.1349
 1446SOL    MW4 5839   0.267   0.517   2.756  0.0005  0.0001 -0.0000
 1447SOL     OW 5840   0.215   0.764   2.650  0.0994  0.1478  0.0856
 1447SOL    HW2 5841   0.297   0.800   2.685 -0.6670  0.1382  1.9548
 1447SOL    HW3 5842   0.217   0.672   2.676 -0.5494  0.1727  0.2246
 1447SOL    MW4 5843   0.226   0.757   2.658  0.0005  0.0001 -0.0000
 1448SOL     OW 5844   0.006   0.902   2.760 -0.3595  0.2652 -0.0100
 1448SOL    HW2 5845  -0.063   0.839   2.741  1.5997 -2.0148  0.1694
 1448SOL    HW3 5846   0.085   0.862   2.723  1.8433  0.2244  4.4279
 1448SOL    MW4 5847   0.007   0.888   2.753  0.0005  0.0001 -0.0000
 1449SOL     OW 5848   4.484   1.160   2.644 -0.1299 -0.2628  0.0673
 1449SOL    HW2 5849   4.562   1.201   2.681 -0.2416 -0.1974  0.2301
 1449SOL    HW3 5850   4.486   1.070   2.678  1.5883 -1.2421 -2.4727
 1449SOL    MW4 5851   4.495   1.154   2.653  0.0005  0.0001 -0.0000
 1450SOL     OW 5852   0.214   1.275   2.752  0.1336 -0.4916  0.6067
 1450SOL    HW2 5853   0.280   1.225   2.705 -0.3307  0.2417 -0.8484
 1450SOL    HW3 5854   0.221   1.364   2.717 -1.7709 -0.4563  0.2509
 1450SOL    MW4 5855   0.224   1.280   2.741  0.0005  0.0001 -0.0000
 1451SOL     OW 5856   0.219   1.521   2.629  0.6200  0.7037 -0.0924
 1451SOL    HW2 5857   0.303   1.560   2.654  0.5521  0.1841  0.9457
 1451SOL    HW3 5858   0.153   1.577   2.670  0.4629  0.7955 -0.4623
 1451SOL    MW4 5859   0.221   1.533   2.638  0.0005  0.0001 -0.0000
 1452SOL     OW 5860   0.043   1.694   2.764  0.0266 -0.3578 -0.1982
 1452SOL    HW2 5861   0.018   1.698   2.856 -1.3955 -0.8888 -0.5485
 1452SOL    HW3 5862   0.018   1.779   2.728  0.0688 -0.3546 -0.2202
 1452SOL    MW4 5863   0.036   1.706   2.771  0.0005  0.0001 -0.0000
 1453SOL     OW 5864   4.463   1.942   2.662 -0.0187 -0.1887  0.3720
 1453SOL    HW2 5865   4.546   1.983   2.685 -0.1606 -0.1160  0.7644
 1453SOL    HW3 5866   4.462   1.940   2.566  0.2226  0.2413  0.3610
 1453SOL    MW4 5867   4.474   1.947   2.652  0.0005  0.0001 -0.0000
 1454SOL     OW 5868   0.223   2.053   2.714  0.1667 -0.3255 -0.2560
 1454SOL    HW2 5869   0.297   2.001   2.683  0.2147 -0.7275  0.5265
 1454SOL    HW3 5870   0.244   2.143   2.688  1.0110 -0.4098  0.1139
 1454SOL    MW4 5871   0.236   2.058   2.706  0.0005  0.0001 -0.0000
 1455SOL     OW 5872   0.246   2.328   2.661 -0.5969  0.3240 -0.5126
 1455SOL    HW2 5873   0.321   2.375   2.698  0.3957 -1.4714 -0.2030
 1455SOL    HW3 5874   0.171   2.362   2.710  0.0699  1.7082 -0.4156
 1455SOL    MW4 5875   0.246   2.339   2.672  0.0005  0.0001 -0.0000
 1456SOL     OW 5876   0.020   2.425   2.764 -0.2352  0.3827  0.0497
 1456SOL    HW2 5877   0.018   2.425   2.860  1.9051 -1.2538  0.1279
 1456SOL    HW3 5878  -0.061   2.380   2.739 -0.7740  0.7536  1.0808
 1456SOL    MW4 5879   0.009   2.419   2.773  0.0005  0.0001 -0.0000
 1457SOL     OW 5880   0.002   2.668   2.593  0.4078 -0.4999  0.2786
 1457SOL    HW2 5881  -0.056   2.735   2.629  0.0403 -0.9233  0.4828
 1457SOL    HW3 5882  -0.009   2.593   2.652  0.3204 -0.9621 -0.3220
 1457SOL    MW4 5883  -0.007   2.667   2.605  0.0005  0.0001 -0.0000
 1458SOL     OW 5884   0.238   2.825   2.699 -0.5303 -0.4717 -0.1556
 1458SOL    HW2 5885   0.219   2.916   2.675 -1.4348 -0.7217 -0.4173
 1458SOL    HW3 5886   0.159   2.777   2.675  0.3522 -1.5190 -1.0493
 1458SOL    MW4 5887   0.225   2.831   2.693  0.0005  0.0001 -0.0000
 1459SOL     OW 5888   0.212   3.081   2.623  0.3177 -0.1590 -0.4019
 1459SOL    HW2 5889   0.291   3.118   2.662  1.4820 -0.8873 -2.0089
 1459SOL    HW3 5890   0.223   3.095   2.529 -1.6606  0.0855 -0.6168
 1459SOL    MW4 5891   0.224   3.088   2.616  0.0005  0.0001 -0.0000
 1460SOL     OW 5892   4.484   3.212   2.740  0.3348 -0.2133 -0.3738
 1460SOL    HW2 5893   4.415   3.161   2.697 -1.0338  2.0281 -0.9147
 1460SOL    HW3 5894   4.564   3.188   2.693 -0.4367 -1.1297 -1.2478
 1460SOL    MW4 5895   4.485   3.202   2.728  0.0005  0.0001 -0.0000
 1461SOL     OW 5896   4.451   3.494   2.689 -0.1779 -0.1521 -0.0492
 1461SOL    HW2 5897   4.544   3.511   2.705  0.0582  1.5936 -2.8799
 1461SOL    HW3 5898   4.436   3.406   2.723  2.2047  0.0291  1.5728
 1461SOL    MW4 5899   4.461   3.485   2.696  0.0005  0.0001 -0.0000
 1462SOL     OW 5900   0.211   3.582   2.746 -0.3951 -0.1324  0.0329
 1462SOL    HW2 5901   0.208   3.582   2.842 -1.4634  0.7393  0.0142
 1462SOL    HW3 5902   0.295   3.542   2.724  0.0250  0.0164  1.3419
 1462SOL    MW4 5903   0.222   3.577   2.756  0.0005  0.0001 -0.0000
 1463SOL     OW 5904   0.212   3.859   2.667 -0.2186 -0.1253  0.5993
 1463SOL    HW2 5905   0.205   3.767   2.692 -0.2597 -0.5708 -1.0026
 1463SOL    HW3 5906   0.228   3.857   2.573  1.3085  1.4675  0.8001
 1463SOL    MW4 5907   0.213   3.847   2.658  0.0005  0.0001 -0.0000
 1464SOL     OW 5908   4.488   4.021   2.747  0.5420 -0.2204 -0.2193
 1464SOL    HW2 5909   4.479   4.102   2.696 -0.5672 -0.2218 -0.0377
 1464SOL    HW3 5910   4.561   3.975   2.706  0.1900  0.1626 -1.2957
 1464SOL    MW4 5911   4.496   4.026   2.735  0.0005  0.0001 -0.0000
 1465SOL     OW 5912   0.008   4.268   2.606  0.1083 -0.3171 -0.2329
 1465SOL    HW2 5913  -0.062   4.314   2.652 -0.3931 -0.5417 -0.7625
 1465SOL    HW3 5914   0.088   4.291   2.654 -0.3810 -0.4001  0.6297
 1465SOL    MW4 5915   0.009   4.277   2.618  0.0005  0.0001 -0.0000
 1466SOL     OW 5916   0.223   4.394   2.743 -0.3339 -0.7340 -0.4151
 1466SOL    HW2 5917   0.239   4.379   2.836 -0.6801 -2.2715 -0.5908
 1466SOL    HW3 5918   0.301   4.360   2.699 -0.1755 -0.0221 -0.6933
 1466SOL    MW4 5919   0.235   4.388   2.749  0.0005  0.0001 -0.0000
 1467SOL     OW 5920   0.664   4.639   2.645 -0.3933 -0.1426  0.3612
 1467SOL    HW2 5921   0.734   4.700   2.668 -0.8496  0.8980 -0.9463
 1467SOL    HW3 5922   0.584   4.683   2.673 -0.5142 -1.5952  2.4127
 1467SOL    MW4 5923   0.663   4.653   2.652  0.0005  0.0001 -0.0000
 1468SOL     OW 5924   0.459   0.100   2.742 -0.1636 -0.0026 -0.0883
 1468SOL    HW2 5925   0.461   0.086   2.837 -0.1999 -0.9085 -0.2192
 1468SOL    HW3 5926   0.377   0.060   2.713 -0.3397  0.6125 -0.4527
 1468SOL    MW4 5927   0.448   0.093   2.751  0.0005  0.0001 -0.0000
 1469SOL     OW 5928   0.470   0.379   2.632 -0.4152 -0.3125  0.2435
 1469SOL    HW2 5929   0.531   0.433   2.683  0.3351  0.1537 -1.1254
 1469SOL    HW3 5930   0.479   0.291   2.669 -0.2887  0.1355  1.2844
 1469SOL    MW4 5931   0.479   0.374   2.644  0.0005  0.0001 -0.0000
 1470SOL     OW 5932   0.658   0.506   2.775 -0.2532 -0.0108  0.1602
 1470SOL    HW2 5933   0.656   0.509   2.871 -1.0140 -0.1538  0.1521
 1470SOL    HW3 5934   0.743   0.468   2.754  0.1198  0.4781  0.7683
 1470SOL    MW4 5935   0.669   0.501   2.785  0.0005  0.0001 -0.0000
 1471SOL     OW 5936   0.697   0.731   2.628  0.0619 -0.0563 -0.5299
 1471SOL    HW2 5937   0.778   0.772   2.660 -0.3974  0.4624 -0.0213
 1471SOL    HW3 5938   0.687   0.653   2.683  0.3202 -0.2285 -0.7252
 1471SOL    MW4 5939   0.706   0.726   2.639  0.0005  0.0001 -0.0000
 1472SOL     OW 5940   0.468   0.858   2.742 -0.0066  0.1462 -0.4456
 1472SOL    HW2 5941   0.465   0.939   2.692 -1.8462 -0.3955 -1.2598
 1472SOL    HW3 5942   0.542   0.809   2.705  1.1126  1.4300  0.0555
 1472SOL    MW4 5943   0.477   0.862   2.730  0.0005  0.0001 -0.0000
 1473SOL     OW 5944   0.412   1.122   2.656 -0.2380 -0.2256  0.0984
 1473SOL    HW2 5945   0.486   1.164   2.700 -0.5200 -0.6081  0.9540
 1473SOL    HW3 5946   0.424   1.142   2.563  1.2600 -0.7791  0.1618
 1473SOL    MW4 5947   0.423   1.130   2.650  0.0005  0.0001 -0.0000
 1474SOL     OW 5948   0.640   1.241   2.769  0.4095 -0.1551 -0.0560
 1474SOL    HW2 5949   0.643   1.249   2.864 -2.2378 -2.8096  0.3324
 1474SOL    HW3 5950   0.721   1.196   2.746  0.6227 -0.3624  1.0526
 1474SOL    MW4 5951   0.651   1.236   2.778  0.0005  0.0001 -0.0000
 1475SOL     OW 5952   0.666   1.494   2.633  0.0441 -0.3356 -0.1841
 1475SOL    HW2 5953   0.597   1.551   2.666 -0.4580  0.6584 -2.8326
 1475SOL    HW3 5954   0.644   1.407   2.668 -1.4984  0.3118  0.5062
 1475SOL    MW4 5955   0.654   1.490   2.642  0.0005  0.0001 -0.0000
 1476SOL     OW 5956   0.446   1.650   2.714  0.3899  0.5076 -0.2524
 1476SOL    HW2 5957   0.447   1.664   2.809 -1.8070  0.5231 -0.2060
 1476SOL    HW3 5958   0.455   1.738   2.677 -0.9325  0.7500 -0.0289
 1476SOL    MW4 5959   0.447   1.663   2.722  0.0005  0.0001 -0.0000
 1477SOL     OW 5960   0.447   1.908   2.622  0.3503  0.1873  0.5947
 1477SOL    HW2 5961   0.521   1.963   2.646  0.1497  0.0132  1.6333
 1477SOL    HW3 5962   0.445   1.911   2.526  0.9970  1.1084  0.6032
 1477SOL    MW4 5963   0.457   1.916   2.613  0.0005  0.0001 -0.0000
 1478SOL     OW 5964   0.660   2.062   2.701 -0.1410  0.0739  0.3028
 1478SOL    HW2 5965   0.658   2.071   2.796 -1.2429 -0.2423  0.3192
 1478SOL    HW3 5966   0.744   2.020   2.682  0.4928  0.9870  1.0537
 1478SOL    MW4 5967   0.671   2.058   2.711  0.0005  0.0001 -0.0000
 1479SOL     OW 5968   0.664   2.320   2.626  0.2883  0.2827  0.5655
 1479SOL    HW2 5969   0.748   2.355   2.657  0.4714 -0.3627  0.8144
 1479SOL    HW3 5970   0.668   2.227   2.648  0.2156 -0.0928 -0.9644
 1479SOL    MW4 5971   0.676   2.312   2.633  0.0005  0.0001 -0.0000
 1480SOL     OW 5972   0.473   2.457   2.766 -0.1255 -0.0139 -0.3406
 1480SOL    HW2 5973   0.466   2.537   2.713  0.4841  0.1337 -0.2019
 1480SOL    HW3 5974   0.537   2.403   2.720  1.3114  0.6190  0.8723
 1480SOL    MW4 5975   0.481   2.460   2.753  0.0005  0.0001 -0.0000
 1481SOL     OW 5976   0.471   2.698   2.616  0.3572  0.0711 -0.3058
 1481SOL    HW2 5977   0.545   2.746   2.652 -1.4701  3.3079 -0.6526
 1481SOL    HW3 5978   0.394   2.742   2.653 -1.4160 -1.8958 -1.5561
 1481SOL    MW4 5979   0.471   2.710   2.626  0.0005  0.0001 -0.0000
 1482SOL     OW 5980   0.674   2.818   2.748 -0.7258  0.3969 -0.0660
 1482SOL    HW2 5981   0.652   2.840   2.839  0.7119  0.1370  0.3554
 1482SOL    HW3 5982   0.673   2.902   2.702 -0.6909  0.6277  0.3567
 1482SOL    MW4 5983   0.671   2.832   2.754  0.0005  0.0001 -0.0000
 1483SOL     OW 5984   0.678   3.094   2.676  0.1250  0.2581  0.1983
 1483SOL    HW2 5985   0.761   3.121   2.715  0.9264 -1.6659 -0.1194
 1483SOL    HW3 5986   0.691   3.104   2.582  0.1324 -0.3956  0.1271
 1483SOL    MW4 5987   0.691   3.099   2.669  0.0005  0.0001 -0.0000
 1484SOL     OW 5988   0.433   3.176   2.782  0.5228  0.6692 -0.1096
 1484SOL    HW2 5989   0.429   3.190   2.877 -2.6732 -1.6625  0.1823
 1484SOL    HW3 5990   0.517   3.132   2.768  0.1266 -0.8200  1.9463
 1484SOL    MW4 5991   0.444   3.172   2.793  0.0005  0.0001 -0.0000
 1485SOL     OW 5992   0.458   3.461   2.680  0.2351  0.0563 -0.1509
 1485SOL    HW2 5993   0.448   3.368   2.701 -0.8332 -0.3492 -2.2844
 1485SOL    HW3 5994   0.463   3.463   2.584 -0.0689  2.2277 -0.1399
 1485SOL    MW4 5995   0.457   3.449   2.670  0.0005  0.0001 -0.0000
 1486SOL     OW 5996   0.673   3.619   2.718 -0.2863  0.1898 -0.0015
 1486SOL    HW2 5997   0.667   3.641   2.811 -1.8988  0.9649 -0.2764
 1486SOL    HW3 5998   0.595   3.566   2.700 -0.5382  0.9121 -1.1270
 1486SOL    MW4 5999   0.662   3.615   2.728  0.0005  0.0001 -0.0000
 1487SOL     OW 6000   0.641   3.885   2.622 -0.0399 -0.2851  0.2752
 1487SOL    HW2 6001   0.577   3.918   2.685 -1.5662 -0.5378 -1.1290
 1487SOL    HW3 6002   0.657   3.795   2.649  0.2758  0.0027  1.0582
 1487SOL    MW4 6003   0.635   3.877   2.634  0.0005  0.0001 -0.0000
 1488SOL     OW 6004   0.442   4.020   2.759  0.1204 -0.2402  0.4113
 1488SOL    HW2 6005   0.438   4.100   2.707 -0.2914 -0.3535  0.2671
 1488SOL    HW3 6006   0.361   3.973   2.737  0.6497 -0.9833  0.0282
 1488SOL    MW4 6007   0.431   4.024   2.749  0.0005  0.0001 -0.0000
 1489SOL     OW 6008   0.457   4.285   2.652  0.4010  0.0063  0.2212
 1489SOL    HW2 6009   0.523   4.332   2.702  0.6924  0.5597 -0.6801
 1489SOL    HW3 6010   0.484   4.294   2.561 -0.2707 -0.7691 -0.0656
 1489SOL    MW4 6011   0.469   4.292   2.647  0.0005  0.0001 -0.0000
 1490SOL     OW 6012   0.661   4.396   2.788  0.6537  0.1525  0.1387
 1490SOL    HW2 6013   0.738   4.347   2.758  0.4390 -0.2350  0.2171
 1490SOL    HW3 6014   0.663   4.477   2.737  1.2731  0.2699  0.3446
 1490SOL    MW4 6015   0.671   4.400   2.777  0.0005  0.0001 -0.0000
 1491SOL     OW 6016   1.130   4.617   2.634  0.0672  0.5076  0.2594
 1491SOL    HW2 6017   1.209   4.651   2.675 -0.5323  0.9914  1.0278
 1491SOL    HW3 6018   1.126   4.525   2.662  0.4213  0.4478  0.1159
 1491SOL    MW4 6019   1.140   4.609   2.643  0.0005  0.0001 -0.0000
 1492SOL     OW 6020   0.903   0.110   2.723  0.3151 -0.0058 -0.0437
 1492SOL    HW2 6021   0.907   0.111   2.819  1.9741 -0.3088 -0.0936
 1492SOL    HW3 6022   0.986   0.070   2.696  0.9190  2.2429 -1.6649
 1492SOL    MW4 6023   0.914   0.105   2.732  0.0005  0.0001 -0.0000
 1493SOL     OW 6024   0.889   0.391   2.673 -0.5880 -0.3870  0.5343
 1493SOL    HW2 6025   0.885   0.296   2.679  0.6621 -0.6231 -1.6912
 1493SOL    HW3 6026   0.901   0.408   2.580 -0.3211  1.9347  0.9689
 1493SOL    MW4 6027   0.890   0.381   2.661  0.0005  0.0001 -0.0000
 1494SOL     OW 6028   1.133   0.486   2.737 -0.4130 -0.0458 -0.0724
 1494SOL    HW2 6029   1.128   0.577   2.708 -2.1401 -0.3690 -0.8497
 1494SOL    HW3 6030   1.052   0.446   2.705  0.3900 -1.8940  0.1375
 1494SOL    MW4 6031   1.122   0.493   2.729  0.0005  0.0001 -0.0000
 1495SOL     OW 6032   1.124   0.754   2.656  0.2557 -0.5911  0.7084
 1495SOL    HW2 6033   1.195   0.805   2.696  0.1107  0.5596 -0.4509
 1495SOL    HW3 6034   1.143   0.758   2.562 -1.0414 -0.7423  0.4373
 1495SOL    MW4 6035   1.136   0.761   2.649  0.0005  0.0001 -0.0000
 1496SOL     OW 6036   0.901   0.872   2.755  0.2514 -0.2775  0.2830
 1496SOL    HW2 6037   0.916   0.893   2.847  0.8300  0.3195  0.0554
 1496SOL    HW3 6038   0.980   0.825   2.727  0.3055  0.0060 -0.0475
 1496SOL    MW4 6039   0.913   0.869   2.763  0.0005  0.0001 -0.0000
 1497SOL     OW 6040   0.881   1.136   2.690 -0.0832 -0.1104  0.2985
 1497SOL    HW2 6041   0.894   1.041   2.696 -1.6826 -0.4278 -0.8534
 1497SOL    HW3 6042   0.909   1.158   2.601 -0.3663  0.3856  0.3319
 1497SOL    MW4 6043   0.886   1.126   2.679  0.0005  0.0001 -0.0000
 1498SOL     OW 6044   1.109   1.240   2.804  0.1667  0.0831 -0.0624
 1498SOL    HW2 6045   1.118   1.310   2.739  0.5954 -0.3605 -0.4842
 1498SOL    HW3 6046   1.024   1.201   2.785  0.3606 -0.1503 -0.4691
 1498SOL    MW4 6047   1.099   1.244   2.793  0.0005  0.0001 -0.0000
 1499SOL     OW 6048   1.122   1.478   2.641 -0.1075  0.6710 -0.1312
 1499SOL    HW2 6049   1.047   1.535   2.656 -2.7958 -2.5142 -0.8780
 1499SOL    HW3 6050   1.134   1.478   2.546  0.6906  0.9644 -0.0353
 1499SOL    MW4 6051   1.114   1.486   2.630  0.0005  0.0001 -0.0000
 1500SOL     OW 6052   0.899   1.634   2.709  0.1830 -0.0904  0.4794
 1500SOL    HW2 6053   0.895   1.639   2.805  0.2696 -0.4040  0.4996
 1500SOL    HW3 6054   0.835   1.566   2.686 -0.9236  1.0235  0.2111
 1500SOL    MW4 6055   0.890   1.626   2.719  0.0005  0.0001 -0.0000
 1501SOL     OW 6056   0.884   1.908   2.609 -0.6410  0.0658  0.3552
 1501SOL    HW2 6057   0.954   1.960   2.648  0.3002 -0.0018 -1.2015
 1501SOL    HW3 6058   0.910   1.817   2.625 -1.3697  0.0458  1.4816
 1501SOL    MW4 6059   0.897   1.903   2.616  0.0005  0.0001 -0.0000
 1502SOL     OW 6060   1.101   2.062   2.716  0.1877 -0.0510  0.1984
 1502SOL    HW2 6061   1.185   2.023   2.692  0.4592  0.6290  0.0205
 1502SOL    HW3 6062   1.102   2.148   2.674 -0.9069 -0.3181 -0.4023
 1502SOL    MW4 6063   1.112   2.068   2.707  0.0005  0.0001 -0.0000
 1503SOL     OW 6064   1.124   2.318   2.619 -0.1141  0.0059 -0.2913
 1503SOL    HW2 6065   1.202   2.363   2.651 -0.4801  0.2774  0.2262
 1503SOL    HW3 6066   1.118   2.343   2.527  0.8278 -0.6133 -0.5282
 1503SOL    MW4 6067   1.134   2.327   2.611  0.0005  0.0001 -0.0000
 1504SOL     OW 6068   0.904   2.409   2.743 -0.0813 -0.4217 -0.0030
 1504SOL    HW2 6069   0.902   2.499   2.712  1.1671 -0.4092 -0.0767
 1504SOL    HW3 6070   0.979   2.370   2.698 -0.1025 -1.2556  0.6740
 1504SOL    MW4 6071   0.914   2.416   2.733  0.0005  0.0001 -0.0000
 1505SOL     OW 6072   0.874   2.673   2.635 -0.3395  0.6849 -0.6352
 1505SOL    HW2 6073   0.947   2.714   2.680 -0.3438  3.8340 -3.3099
 1505SOL    HW3 6074   0.796   2.710   2.676 -0.3520  2.0778 -1.8738
 1505SOL    MW4 6075   0.873   2.683   2.646  0.0005  0.0001 -0.0000
 1506SOL     OW 6076   1.083   2.832   2.735  0.2994 -0.0918  0.0624
 1506SOL    HW2 6077   1.106   2.825   2.828 -0.3371 -0.9480  0.1608
 1506SOL    HW3 6078   1.159   2.795   2.689  1.0416  1.2409  0.1897
 1506SOL    MW4 6079   1.096   2.826   2.741  0.0005  0.0001 -0.0000
 1507SOL     OW 6080   1.148   3.096   2.655 -0.0000 -0.0000  0.0802
 1507SOL    HW2 6081   1.122   3.007   2.677 -0.0000 -0.0000  0.2005
 1507SOL    HW3 6082   1.136   3.101   2.560 -0.0000 -0.0000  0.0830
 1507SOL    MW4 6083   1.143   3.085   2.645 -0.0000 -0.0000 -0.0000
 1508SOL     OW 6084   0.919   3.208   2.767 -0.0000 -0.0000  0.1143
 1508SOL    HW2 6085   0.903   3.287   2.715 -0.0000 -0.0000  1.2073
 1508SOL    HW3 6086   1.006   3.179   2.741 -0.0000 -0.0000 -0.4059
 1508SOL    MW4 6087   0.928   3.215   2.757 -0.0000 -0.0000 -0.0000
 1509SOL     OW 6088   0.887   3.462   2.637 -0.0000 -0.0000 -0.3791
 1509SOL    HW2 6089   0.961   3.509   2.676 -0.0000 -0.0000  2.0771
 1509SOL    HW3 6090   0.810   3.512   2.664 -0.0000 -0.0000 -2.3352
 1509SOL    MW4 6091   0.887   3.475   2.646 -0.0000 -0.0000 -0.0000
 1510SOL     OW 6092   1.102   3.599   2.774 -0.0000 -0.0000  0.4220
 1510SOL    HW2 6093   1.101   3.626   2.866 -0.0000 -0.0000  0.5020
 1510SOL    HW3 6094   1.100   3.681   2.725 -0.0000 -0.0000  0.6677
 1510SOL    MW4 6095   1.102   3.613   2.780 -0.0000 -0.0000 -0.0000
 1511SOL     OW 6096   1.098   3.851   2.622 -0.0000 -0.0000  0.4790
 1511SOL    HW2 6097   1.178   3.889   2.660 -0.0000 -0.0000  1.4130
 1511SOL    HW3 6098   1.110   3.859   2.527 -0.0000 -0.0000  0.6263
 1511SOL    MW4 6099   1.110   3.857   2.614 -0.0000 -0.0000 -0.0000
 1512SOL     OW 6100   0.893   4.008   2.729 -0.0000 -0.0000  0.0248
 1512SOL    HW2 6101   0.957   3.963   2.674 -0.0000 -0.0000 -1.3537
 1512SOL    HW3 6102   0.809   3.969   2.704 -0.0000 -0.0000  0.3221
 1512SOL    MW4 6103   0.890   3.997   2.719 -0.0000 -0.0000 -0.0000
 1513SOL     OW 6104   0.888   4.266   2.665 -0.0000 -0.0000  0.2077
 1513SOL    HW2 6105   0.892   4.173   2.689 -0.0000 -0.0000  0.4193
 1513SOL    HW3 6106   0.884   4.265   2.569 -0.0000 -0.0000  0.2056
 1513SOL    MW4 6107   0.888   4.254   2.656 -0.0000 -0.0000 -0.0000
 1514SOL     OW 6108   1.144   4.351   2.722 -0.0000 -0.0000  0.0190
 1514SOL    HW2 6109   1.137   4.378   2.813 -0.0000 -0.0000  0.2900
 1514SOL    HW3 6110   1.055   4.327   2.697 -0.0000 -0.0000  1.2106
 1514SOL    MW4 6111   1.131   4.351   2.731 -0.0000 -0.0000 -0.0000
 1515SOL     OW 6112   1.593   4.643   2.655 -0.0000 -0.0000  0.2420
 1515SOL    HW2 6113   1.588   4.549   2.671 -0.0000 -0.0000  1.3558
 1515SOL    HW3 6114   1.581   4.652   2.561 -0.0000 -0.0000  0.1543
 1515SOL    MW4 6115   1.591   4.632   2.645 -0.0000 -0.0000 -0.0000
 1516SOL     OW 6116   1.351   0.086   2.746 -0.1658 -0.0907  0.1132
 1516SOL    HW2 6117   1.350   0.171   2.702 -2.3683 -1.2903 -2.3019
 1516SOL    HW3 6118   1.437   0.049   2.726  0.3853  1.0810  0.2643
 1516SOL    MW4 6119   1.362   0.092   2.738  0.0005  0.0001 -0.0000
 1517SOL     OW 6120   1.360   0.344   2.646  0.0635 -0.0709 -0.1012
 1517SOL    HW2 6121   1.437   0.387   2.682  0.1654 -0.7942  0.5585
 1517SOL    HW3 6122   1.286   0.396   2.678  0.2352  0.1759 -0.1047
 1517SOL    MW4 6123   1.360   0.357   2.655  0.0005  0.0001 -0.0000
 1518SOL     OW 6124   1.566   0.501   2.735  0.0265 -0.1074  0.3435
 1518SOL    HW2 6125   1.641   0.458   2.694  0.9749  1.3912  0.4496
 1518SOL    HW3 6126   1.565   0.588   2.696 -0.5028  0.5324  1.7479
 1518SOL    MW4 6127   1.576   0.507   2.724  0.0005  0.0001 -0.0000
 1519SOL     OW 6128   1.571   0.749   2.637 -0.0009 -0.0628  0.3061
 1519SOL    HW2 6129   1.490   0.778   2.680 -0.3436 -2.1873  1.1479
 1519SOL    HW3 6130   1.566   0.787   2.549 -2.2215 -0.6617  0.1392
 1519SOL    MW4 6131   1.560   0.758   2.631  0.0005  0.0001 -0.0000
 1520SOL     OW 6132   1.337   0.859   2.764  0.0859 -0.0407 -0.1015
 1520SOL    HW2 6133   1.328   0.833   2.856  0.6869  0.7185  0.1800
 1520SOL    HW3 6134   1.331   0.955   2.766 -2.1394 -0.1296 -1.1206
 1520SOL    MW4 6135   1.335   0.868   2.776  0.0005  0.0001 -0.0000
 1521SOL     OW 6136   1.335   1.125   2.679  0.0067  0.5439 -0.0749
 1521SOL    HW2 6137   1.413   1.167   2.716 -0.1913  1.1326 -0.3191
 1521SOL    HW3 6138   1.262   1.163   2.728 -0.3866  2.5091 -2.1026
 1521SOL    MW4 6139   1.336   1.136   2.690  0.0005  0.0001 -0.0000
 1522SOL     OW 6140   1.558   1.260   2.777 -0.0588  0.2975  0.0617
 1522SOL    HW2 6141   1.578   1.271   2.870 -0.7896  0.9289  0.1529
 1522SOL    HW3 6142   1.639   1.228   2.738 -0.2021 -1.5023  1.1906
 1522SOL    MW4 6143   1.571   1.257   2.784  0.0005  0.0001 -0.0000
 1523SOL     OW 6144   1.515   1.539   2.694 -0.0987  0.4282 -0.0235
 1523SOL    HW2 6145   1.527   1.447   2.716  0.0384  0.6918  1.0289
 1523SOL    HW3 6146   1.510   1.540   2.598  2.6765 -0.3540 -0.2236
 1523SOL    MW4 6147   1.516   1.527   2.684  0.0005  0.0001 -0.0000
 1524SOL     OW 6148   1.300   1.665   2.776 -0.0444  0.1207 -0.1744
 1524SOL    HW2 6149   1.380   1.625   2.743 -0.4388 -0.5643 -0.3087
 1524SOL    HW3 6150   1.230   1.605   2.749 -0.4025 -0.3184  1.6587
 1524SOL    MW4 6151   1.301   1.652   2.768  0.0005  0.0001 -0.0000
 1525SOL     OW 6152   1.342   1.924   2.641 -0.0194  0.2927  0.4240
 1525SOL    HW2 6153   1.316   1.840   2.679  0.1010  0.0228 -0.0872
 1525SOL    HW3 6154   1.337   1.910   2.546 -0.8692  1.1379  0.3413
 1525SOL    MW4 6155   1.338   1.911   2.634  0.0005  0.0001 -0.0000
 1526SOL     OW 6156   1.584   2.067   2.742 -0.2650 -0.3122  0.1685
 1526SOL    HW2 6157   1.662   2.038   2.695  0.3699 -0.0667  1.0643
 1526SOL    HW3 6158   1.515   2.007   2.713  0.5318 -1.2960  0.3042
 1526SOL    MW4 6159   1.585   2.055   2.732  0.0005  0.0001 -0.0000
 1527SOL     OW 6160   1.562   2.317   2.654  0.3038  0.1752  0.6805
 1527SOL    HW2 6161   1.645   2.356   2.682 -0.0630  0.6229  1.1417
 1527SOL    HW3 6162   1.565   2.227   2.688  1.4658 -0.4469 -1.0023
 1527SOL    MW4 6163   1.573   2.310   2.662  0.0005  0.0001 -0.0000
 1528SOL     OW 6164   1.332   2.452   2.719  0.0146 -0.2510  0.0618
 1528SOL    HW2 6165   1.338   2.539   2.679 -1.1642 -0.3288 -0.2933
 1528SOL    HW3 6166   1.416   2.411   2.698  0.1001  0.3542 -0.8260
 1528SOL    MW4 6167   1.344   2.458   2.711  0.0005  0.0001 -0.0000
 1529SOL     OW 6168   1.329   2.709   2.634 -0.0080 -0.2655  0.1922
 1529SOL    HW2 6169   1.410   2.736   2.678 -0.4424  0.3327  0.6301
 1529SOL    HW3 6170   1.351   2.707   2.541 -0.1431  2.2821  0.0741
 1529SOL    MW4 6171   1.343   2.712   2.628  0.0005  0.0001 -0.0000
 1530SOL     OW 6172   1.573   2.787   2.713  0.0810  0.0856 -0.5685
 1530SOL    HW2 6173   1.569   2.818   2.803  0.0213 -1.8845  0.1318
 1530SOL    HW3 6174   1.663   2.757   2.702  0.0083  0.0478 -1.0718
 1530SOL    MW4 6175   1.584   2.787   2.723  0.0005  0.0001 -0.0000
 1531SOL     OW 6176   1.597   3.047   2.609  0.3886 -0.2884 -0.1310
 1531SOL    HW2 6177   1.667   3.093   2.655  0.4089 -0.2483 -0.2020
 1531SOL    HW3 6178   1.593   2.961   2.651 -0.7396  0.3435  1.0929
 1531SOL    MW4 6179   1.606   3.042   2.621  0.0005  0.0001 -0.0000
 1532SOL     OW 6180   1.387   3.208   2.711 -0.4136 -0.0166  0.1965
 1532SOL    HW2 6181   1.448   3.151   2.664 -0.1688  0.1131  0.3581
 1532SOL    HW3 6182   1.303   3.163   2.704 -0.4744  0.2339 -0.7707
 1532SOL    MW4 6183   1.384   3.195   2.704  0.0005  0.0001 -0.0000
 1533SOL     OW 6184   1.302   3.459   2.618  0.1575 -0.0328 -0.4893
 1533SOL    HW2 6185   1.319   3.370   2.648 -0.0834  0.0964  0.0400
 1533SOL    HW3 6186   1.230   3.490   2.673 -0.7367 -0.0200 -1.6608
 1533SOL    MW4 6187   1.295   3.451   2.629  0.0005  0.0001 -0.0000
 1534SOL     OW 6188   1.556   3.601   2.701  0.4584  0.2929  0.0514
 1534SOL    HW2 6189   1.633   3.551   2.674  0.1946  0.5291 -1.1693
 1534SOL    HW3 6190   1.482   3.544   2.680  0.2159  0.7432 -0.3247
 1534SOL    MW4 6191   1.556   3.587   2.695  0.0005  0.0001 -0.0000
 1535SOL     OW 6192   1.581   3.904   2.648  0.4498 -0.1702 -0.0459
 1535SOL    HW2 6193   1.494   3.930   2.679  0.5902 -0.2220  0.3881
 1535SOL    HW3 6194   1.587   3.810   2.667  0.7683 -0.0773  0.3185
 1535SOL    MW4 6195   1.570   3.895   2.655  0.0005  0.0001 -0.0000
 1536SOL     OW 6196   1.337   3.976   2.743  0.3128 -0.2635 -0.1902
 1536SOL    HW2 6197   1.345   3.982   2.838  0.3152  0.0714 -0.2126
 1536SOL    HW3 6198   1.341   4.067   2.712  0.8859 -0.4105 -0.5554
 1536SOL    MW4 6199   1.339   3.989   2.751  0.0005  0.0001 -0.0000
 1537SOL     OW 6200   1.379   4.239   2.641  0.9248  0.2671 -0.0838
 1537SOL    HW2 6201   1.294   4.278   2.664  1.1573 -0.1769  1.5896
 1537SOL    HW3 6202   1.382   4.243   2.545 -0.6717  0.9462 -0.1226
 1537SOL    MW4 6203   1.368   4.245   2.631  0.0005  0.0001 -0.0000
 1538SOL     OW 6204   1.571   4.383   2.737  0.1864 -0.7427 -0.6594
 1538SOL    HW2 6205   1.552   4.406   2.828  0.4912  0.0208 -0.7870
 1538SOL    HW3 6206   1.493   4.335   2.708 -0.7311  0.6659 -0.5773
 1538SOL    MW4 6207   1.558   4.380   2.745  0.0005  0.0001 -0.0000
 1539SOL     OW 6208   2.016   0.050   2.649 -0.5140  0.0833  0.1253
 1539SOL    HW2 6209   2.102   0.072   2.685 -0.8432 -0.1768  1.0942
 1539SOL    HW3 6210   2.031   0.038   2.555  0.3316  0.9366  0.1467
 1539SOL    MW4 6211   2.029   0.051   2.641  0.0005  0.0001 -0.0000
 1540SOL     OW 6212   1.789   0.149   2.771 -0.2505 -0.0919 -0.4353
 1540SOL    HW2 6213   1.873   0.112   2.744 -0.9065 -2.3766  0.5321
 1540SOL    HW3 6214   1.724   0.099   2.722 -1.0652  1.8363 -1.3750
 1540SOL    MW4 6215   1.791   0.138   2.761  0.0005  0.0001 -0.0000
 1541SOL     OW 6216   1.769   0.374   2.615  0.1136 -0.1249 -0.7482
 1541SOL    HW2 6217   1.854   0.408   2.643  0.3623 -0.6722 -0.8341
 1541SOL    HW3 6218   1.753   0.298   2.672 -1.7879  1.8274  1.4300
 1541SOL    MW4 6219   1.778   0.368   2.626  0.0005  0.0001 -0.0000
 1542SOL     OW 6220   1.984   0.492   2.745 -0.0766  0.5839 -0.0217
 1542SOL    HW2 6221   2.063   0.448   2.715 -0.2764  0.0596  0.2235
 1542SOL    HW3 6222   1.997   0.584   2.720  0.1687  0.3228 -0.8816
 1542SOL    MW4 6223   1.996   0.498   2.738  0.0005  0.0001 -0.0000
 1543SOL     OW 6224   2.029   0.754   2.647 -0.5728 -0.0202 -0.3020
 1543SOL    HW2 6225   1.949   0.800   2.671 -0.7858 -0.0719 -0.8992
 1543SOL    HW3 6226   2.029   0.755   2.551 -0.2383 -0.6719 -0.3105
 1543SOL    MW4 6227   2.018   0.760   2.638  0.0005  0.0001 -0.0000
 1544SOL     OW 6228   1.807   0.875   2.734 -0.0635  0.0458 -0.0450
 1544SOL    HW2 6229   1.806   0.961   2.693  0.7357  0.2833  0.4213
 1544SOL    HW3 6230   1.742   0.824   2.685 -1.1247  1.1452  0.1961
 1544SOL    MW4 6231   1.798   0.880   2.722  0.0005  0.0001 -0.0000
 1545SOL     OW 6232   1.780   1.168   2.642 -0.1884 -0.0037  0.2019
 1545SOL    HW2 6233   1.863   1.209   2.665 -0.6838  0.5401  1.0367
 1545SOL    HW3 6234   1.776   1.175   2.547 -0.2938  1.9652  0.3272
 1545SOL    MW4 6235   1.790   1.174   2.632  0.0005  0.0001 -0.0000
 1546SOL     OW 6236   2.011   1.304   2.718  0.2230 -0.3080 -0.0859
 1546SOL    HW2 6237   2.021   1.309   2.813  0.4679  1.1120 -0.1762
 1546SOL    HW3 6238   2.096   1.274   2.687  0.7439  1.0525  0.0053
 1546SOL    MW4 6239   2.024   1.301   2.726  0.0005  0.0001 -0.0000
 1547SOL     OW 6240   2.000   1.556   2.603 -0.3119  0.0666 -0.0935
 1547SOL    HW2 6241   1.925   1.601   2.642 -0.2352 -0.8764  1.1701
 1547SOL    HW3 6242   1.996   1.467   2.639 -0.8309 -1.1506 -3.0120
 1547SOL    MW4 6243   1.990   1.550   2.613  0.0005  0.0001 -0.0000
 1548SOL     OW 6244   1.774   1.708   2.719  0.2840 -0.1228  0.2838
 1548SOL    HW2 6245   1.772   1.700   2.814 -0.9749  2.4251  0.5126
 1548SOL    HW3 6246   1.695   1.663   2.690  0.8367 -1.1829  0.4168
 1548SOL    MW4 6247   1.763   1.701   2.728  0.0005  0.0001 -0.0000
 1549SOL     OW 6248   1.794   1.958   2.612  0.1596  0.0627  0.2147
 1549SOL    HW2 6249   1.878   1.994   2.640 -0.4592 -0.0455  2.2705
 1549SOL    HW3 6250   1.783   1.878   2.663 -0.4634 -0.7877 -1.2107
 1549SOL    MW4 6251   1.804   1.952   2.622  0.0005  0.0001 -0.0000
 1550SOL     OW 6252   2.041   2.066   2.691 -0.1473  0.0925 -0.1860
 1550SOL    HW2 6253   2.045   2.088   2.784 -0.0839  0.1177 -0.1945
 1550SOL    HW3 6254   2.035   2.151   2.647  1.1383  0.1465 -0.2752
 1550SOL    MW4 6255   2.041   2.080   2.698  0.0005  0.0001 -0.0000
 1551SOL     OW 6256   2.046   2.326   2.577  0.2138 -0.6068 -0.2852
 1551SOL    HW2 6257   2.126   2.374   2.601  0.8267 -1.5174 -0.4850
 1551SOL    HW3 6258   2.042   2.333   2.482 -0.2105 -0.1525 -0.2358
 1551SOL    MW4 6259   2.056   2.333   2.567  0.0005  0.0001 -0.0000
 1552SOL     OW 6260   1.823   2.409   2.713  0.0227 -0.5203 -0.0256
 1552SOL    HW2 6261   1.833   2.391   2.806  2.3402  0.7510  0.0161
 1552SOL    HW3 6262   1.911   2.396   2.677 -0.3628  1.1518 -1.6323
 1552SOL    MW4 6263   1.836   2.405   2.721  0.0005  0.0001 -0.0000
 1553SOL     OW 6264   1.832   2.682   2.643 -0.2399  0.1437 -0.0537
 1553SOL    HW2 6265   1.826   2.589   2.663 -4.6314  0.2717 -0.2893
 1553SOL    HW3 6266   1.845   2.686   2.548 -0.7174 -0.2364 -0.1366
 1553SOL    MW4 6267   1.833   2.670   2.633  0.0005  0.0001 -0.0000
 1554SOL     OW 6268   2.025   2.851   2.751  0.7160 -0.4301  0.3250
 1554SOL    HW2 6269   2.105   2.807   2.721  0.9106 -0.5419  0.9983
 1554SOL    HW3 6270   1.954   2.798   2.716  0.9143  0.3761 -1.3476
 1554SOL    MW4 6271   2.026   2.838   2.742  0.0005  0.0001 -0.0000
 1555SOL     OW 6272   2.045   3.121   2.641 -0.4565 -0.3779 -0.4038
 1555SOL    HW2 6273   2.049   3.033   2.679  0.3367 -0.9858 -1.8488
 1555SOL    HW3 6274   2.054   3.107   2.547 -0.8024  1.2218 -0.6943
 1555SOL    MW4 6275   2.047   3.108   2.634  0.0005  0.0001 -0.0000
 1556SOL     OW 6276   1.788   3.219   2.702 -0.2232 -0.1470 -0.1734
 1556SOL    HW2 6277   1.804   3.311   2.681 -0.6038 -0.3932 -1.5947
 1556SOL    HW3 6278   1.873   3.176   2.689  0.4906  0.3416  2.5601
 1556SOL    MW4 6279   1.801   3.225   2.698  0.0005  0.0001 -0.0000
 1557SOL     OW 6280   1.803   3.479   2.622 -0.4984 -0.0719 -0.3421
 1557SOL    HW2 6281   1.882   3.528   2.645 -0.9537  0.8882 -0.7894
 1557SOL    HW3 6282   1.799   3.483   2.527 -0.2281 -1.4875 -0.4272
 1557SOL    MW4 6283   1.813   3.486   2.613  0.0005  0.0001 -0.0000
 1558SOL     OW 6284   2.017   3.630   2.708 -0.3518 -0.0783  0.1000
 1558SOL    HW2 6285   2.029   3.615   2.802 -0.0167 -1.1599 -0.1100
 1558SOL    HW3 6286   2.079   3.571   2.666  0.3617  1.2745 -0.7864
 1558SOL    MW4 6287   2.027   3.620   2.715  0.0005  0.0001 -0.0000
 1559SOL     OW 6288   2.012   3.900   2.640  0.2945 -0.1792 -0.0370
 1559SOL    HW2 6289   1.943   3.947   2.687 -0.1589 -1.7697  0.9264
 1559SOL    HW3 6290   2.004   3.809   2.670  0.4217 -1.1125 -2.6989
 1559SOL    MW4 6291   2.002   3.894   2.650  0.0005  0.0001 -0.0000
 1560SOL     OW 6292   1.796   4.017   2.798 -0.2841 -0.3704  0.1791
 1560SOL    HW2 6293   1.824   4.097   2.753  0.6423 -1.3417 -1.0082
 1560SOL    HW3 6294   1.730   3.979   2.740 -0.8122 -0.4095  0.8011
 1560SOL    MW4 6295   1.791   4.023   2.784  0.0005  0.0001 -0.0000
 1561SOL     OW 6296   1.841   4.273   2.648  0.0532 -0.2865 -0.2963
 1561SOL    HW2 6297   1.749   4.293   2.665  0.0846 -1.0111  0.7881
 1561SOL    HW3 6298   1.847   4.265   2.553 -0.5770  1.7851 -0.5332
 1561SOL    MW4 6299   1.830   4.275   2.638  0.0005  0.0001 -0.0000
 1562SOL     OW 6300   2.041   4.447   2.744  0.4586  0.2752  0.0502
 1562SOL    HW2 6301   1.967   4.402   2.702  1.5463 -0.9547 -0.5843
 1562SOL    HW3 6302   2.037   4.536   2.710  0.5603 -0.3690 -1.7024
 1562SOL    MW4 6303   2.031   4.453   2.734  0.0005  0.0001 -0.0000
 1563SOL     OW 6304   2.492   4.641   2.646  0.2055 -0.1055  0.3152
 1563SOL    HW2 6305   2.555   4.700   2.687  1.0028 -0.5889 -0.1985
 1563SOL    HW3 6306   2.503   4.656   2.552 -0.5732 -0.0651  0.2277
 1563SOL    MW4 6307   2.502   4.651   2.639  0.0005  0.0001 -0.0000
 1564SOL     OW 6308   2.271   0.121   2.744  0.2028  0.0814  0.2478
 1564SOL    HW2 6309   2.267   0.097   2.837  0.5581 -0.9029  0.0141
 1564SOL    HW3 6310   2.334   0.060   2.706  1.4261  1.6463 -0.2941
 1564SOL    MW4 6311   2.279   0.110   2.751  0.0005  0.0001 -0.0000
 1565SOL     OW 6312   2.221   0.358   2.633 -0.0613  0.4195 -0.0736
 1565SOL    HW2 6313   2.266   0.278   2.659 -0.3995 -0.0760 -0.9946
 1565SOL    HW3 6314   2.212   0.351   2.538 -1.6403  0.7361  0.0376
 1565SOL    MW4 6315   2.226   0.346   2.624  0.0005  0.0001 -0.0000
 1566SOL     OW 6316   2.457   0.502   2.722  0.6453 -0.1193 -0.1437
 1566SOL    HW2 6317   2.458   0.594   2.695 -0.9830  0.7106  2.4103
 1566SOL    HW3 6318   2.374   0.468   2.688  0.9104 -0.4516 -0.4617
 1566SOL    MW4 6319   2.446   0.510   2.714  0.0005  0.0001 -0.0000
 1567SOL     OW 6320   2.466   0.759   2.629  0.0661 -0.1339  0.1135
 1567SOL    HW2 6321   2.404   0.829   2.648  1.3711  0.2168  3.3602
 1567SOL    HW3 6322   2.465   0.752   2.534 -2.5926  1.9841 -0.0842
 1567SOL    MW4 6323   2.458   0.767   2.619  0.0005  0.0001 -0.0000
 1568SOL     OW 6324   2.259   0.925   2.703 -0.5647 -0.7737 -0.2190
 1568SOL    HW2 6325   2.274   0.928   2.797 -0.3805  0.5048 -0.2806
 1568SOL    HW3 6326   2.180   0.872   2.693  1.5648 -4.2174  0.3738
 1568SOL    MW4 6327   2.251   0.918   2.714  0.0005  0.0001 -0.0000
 1569SOL     OW 6328   2.245   1.176   2.575  0.2331 -0.0508  0.0555
 1569SOL    HW2 6329   2.265   1.086   2.600  1.0752 -0.1767 -1.0281
 1569SOL    HW3 6330   2.232   1.172   2.480  0.7045  1.0401 -0.0612
 1569SOL    MW4 6331   2.246   1.164   2.566  0.0005  0.0001 -0.0000
 1570SOL     OW 6332   2.486   1.264   2.709 -0.4093 -0.3631 -0.2627
 1570SOL    HW2 6333   2.563   1.224   2.668  1.5507  1.0724  1.8874
 1570SOL    HW3 6334   2.412   1.227   2.661  1.5815 -2.0355 -2.1908
 1570SOL    MW4 6335   2.486   1.254   2.697  0.0005  0.0001 -0.0000
 1571SOL     OW 6336   2.478   1.569   2.658 -0.3719  0.5258 -0.1585
 1571SOL    HW2 6337   2.397   1.599   2.700  0.5528  1.2769  1.1186
 1571SOL    HW3 6338   2.476   1.474   2.669 -0.7398  0.6044  0.5037
 1571SOL    MW4 6339   2.467   1.560   2.665  0.0005  0.0001 -0.0000
 1572SOL     OW 6340   2.215   1.683   2.736 -0.0281  0.0693  0.1639
 1572SOL    HW2 6341   2.233   1.767   2.693 -2.3259  0.2893 -0.4393
 1572SOL    HW3 6342   2.143   1.645   2.685  1.1173 -2.3799  0.3040
 1572SOL    MW4 6343   2.208   1.689   2.724  0.0005  0.0001 -0.0000
 1573SOL     OW 6344   2.257   1.917   2.599  0.6059 -0.2366 -0.3131
 1573SOL    HW2 6345   2.183   1.960   2.641 -0.5261 -2.0265 -0.4211
 1573SOL    HW3 6346   2.248   1.939   2.506 -0.0746 -0.8423 -0.3948
 1573SOL    MW4 6347   2.246   1.926   2.592  0.0005  0.0001 -0.0000
 1574SOL     OW 6348   2.482   2.035   2.715  0.1208 -0.2182  0.4926
 1574SOL    HW2 6349   2.478   2.115   2.662 -0.1895  0.4929  1.5734
 1574SOL    HW3 6350   2.402   1.988   2.693  0.1180 -0.0496  0.1366
 1574SOL    MW4 6351   2.471   2.039   2.705  0.0005  0.0001 -0.0000
 1575SOL     OW 6352   2.510   2.300   2.619  0.0198 -0.1385 -0.1249
 1575SOL    HW2 6353   2.579   2.364   2.638  0.9684 -1.0477 -0.4582
 1575SOL    HW3 6354   2.498   2.305   2.524 -2.2573  1.9034  0.2200
 1575SOL    MW4 6355   2.517   2.309   2.609  0.0005  0.0001 -0.0000
 1576SOL     OW 6356   2.283   2.439   2.679  0.0243  0.5023 -0.2020
 1576SOL    HW2 6357   2.282   2.456   2.773 -0.2775 -0.1701 -0.0821
 1576SOL    HW3 6358   2.369   2.401   2.663 -0.2584 -0.2119 -0.0462
 1576SOL    MW4 6359   2.294   2.436   2.689  0.0005  0.0001 -0.0000
 1577SOL     OW 6360   2.252   2.732   2.644 -0.9010  0.4778 -0.0015
 1577SOL    HW2 6361   2.333   2.772   2.675 -1.7827  1.0489  1.6414
 1577SOL    HW3 6362   2.273   2.639   2.637 -0.0769  0.6300  0.3216
 1577SOL    MW4 6363   2.265   2.725   2.647  0.0005  0.0001 -0.0000
 1578SOL     OW 6364   2.484   2.843   2.754 -0.5059  0.4419  0.1313
 1578SOL    HW2 6365   2.567   2.800   2.736 -0.8880  0.1604 -0.9984
 1578SOL    HW3 6366   2.493   2.930   2.715 -1.2836 -0.1197 -1.3410
 1578SOL    MW4 6367   2.496   2.849   2.746  0.0005  0.0001 -0.0000
 1579SOL     OW 6368   2.477   3.115   2.642  0.3059  0.3293 -0.3284
 1579SOL    HW2 6369   2.402   3.150   2.691  0.5497  1.6779 -0.8933
 1579SOL    HW3 6370   2.455   3.131   2.550  0.0833 -1.7198 -0.6565
 1579SOL    MW4 6371   2.464   3.122   2.636  0.0005  0.0001 -0.0000
 1580SOL     OW 6372   2.247   3.248   2.762  0.6264 -0.0592 -0.6028
 1580SOL    HW2 6373   2.257   3.222   2.854 -2.5136  1.9223  0.3769
 1580SOL    HW3 6374   2.174   3.196   2.730  0.9029  0.1682 -1.6251
 1580SOL    MW4 6375   2.239   3.238   2.770  0.0005  0.0001 -0.0000
 1581SOL     OW 6376   2.255   3.480   2.600  0.4042  0.0401 -0.4353
 1581SOL    HW2 6377   2.336   3.527   2.621  0.9771 -0.6352 -1.1029
 1581SOL    HW3 6378   2.253   3.408   2.663  0.0995  0.3060 -0.1390
 1581SOL    MW4 6379   2.265   3.477   2.611  0.0005  0.0001 -0.0000
 1582SOL     OW 6380   2.468   3.622   2.685 -0.0294 -0.0429 -0.2336
 1582SOL    HW2 6381   2.451   3.624   2.779 -0.9694  0.6823 -0.4078
 1582SOL    HW3 6382   2.461   3.714   2.658  1.3306 -0.1039 -0.8239
 1582SOL    MW4 6383   2.465   3.634   2.694  0.0005  0.0001 -0.0000
 1583SOL     OW 6384   2.443   3.898   2.628  0.3642  0.3654 -0.5259
 1583SOL    HW2 6385   2.520   3.943   2.663  0.6455 -1.2029  0.9388
 1583SOL    HW3 6386   2.370   3.932   2.680  0.3280  0.4404 -0.6251
 1583SOL    MW4 6387   2.444   3.908   2.639  0.0005  0.0001 -0.0000
 1584SOL     OW 6388   2.229   4.032   2.750  0.5238  0.0851 -0.1049
 1584SOL    HW2 6389   2.214   4.023   2.844 -0.5109 -1.4301 -0.3935
 1584SOL    HW3 6390   2.151   3.995   2.710  1.4455 -0.3023 -1.5801
 1584SOL    MW4 6391   2.217   4.026   2.757  0.0005  0.0001 -0.0000
 1585SOL     OW 6392   2.235   4.285   2.621  0.3717 -0.0087 -0.5863
 1585SOL    HW2 6393   2.237   4.205   2.674  1.4403  0.5886  0.2968
 1585SOL    HW3 6394   2.170   4.340   2.664  1.5207  0.6329  0.3597
 1585SOL    MW4 6395   2.227   4.282   2.634  0.0005  0.0001 -0.0000
 1586SOL     OW 6396   2.420   4.404   2.775 -0.4783 -0.3057 -0.0406
 1586SOL    HW2 6397   2.348   4.370   2.722 -0.4434  0.5566 -0.6523
 1586SOL    HW3 6398   2.446   4.485   2.731 -0.9089  0.7945  1.6813
 1586SOL    MW4 6399   2.414   4.410   2.762  0.0005  0.0001 -0.0000
 1587SOL     OW 6400   2.926   0.002   2.612 -0.1550 -0.0003  0.0932
 1587SOL    HW2 6401   3.007   0.042   2.644 -0.0228 -0.1518 -0.0502
 1587SOL    HW3 6402   2.934   0.005   2.517 -0.3914  0.1329  0.0773
 1587SOL    MW4 6403   2.938   0.008   2.604  0.0005  0.0001 -0.0000
 1588SOL     OW 6404   2.688   0.144   2.738  0.5986 -0.1255 -0.0478
 1588SOL    HW2 6405   2.691   0.129   2.832  1.2087  0.7888  0.0853
 1588SOL    HW3 6406   2.766   0.099   2.704  1.4615  1.2037  0.1354
 1588SOL    MW4 6407   2.699   0.136   2.746  0.0005  0.0001 -0.0000
 1589SOL     OW 6408   2.639   0.380   2.579  0.2547  0.1747  0.5239
 1589SOL    HW2 6409   2.642   0.298   2.627 -1.8409 -0.2757 -0.0658
 1589SOL    HW3 6410   2.576   0.434   2.627  0.5644  0.9135  0.1109
 1589SOL    MW4 6411   2.631   0.376   2.592  0.0005  0.0001 -0.0000
 1590SOL     OW 6412   2.897   0.474   2.697 -0.0293  0.0552 -0.7824
 1590SOL    HW2 6413   2.892   0.569   2.695  0.5961  0.0845 -1.1563
 1590SOL    HW3 6414   2.830   0.444   2.636 -0.8627  0.2295  0.0381
 1590SOL    MW4 6415   2.887   0.483   2.689  0.0005  0.0001 -0.0000
 1591SOL     OW 6416   2.888   0.756   2.632  0.1431  0.7894  0.2944
 1591SOL    HW2 6417   2.965   0.810   2.648  0.0577  0.8494  0.5065
 1591SOL    HW3 6418   2.814   0.811   2.658 -0.0623  1.2302 -1.1950
 1591SOL    MW4 6419   2.888   0.771   2.637  0.0005  0.0001 -0.0000
 1592SOL     OW 6420   2.674   0.915   2.724 -0.1285  0.0860  0.2059
 1592SOL    HW2 6421   2.676   0.889   2.816 -0.9282  0.1474  0.2421
 1592SOL    HW3 6422   2.615   0.853   2.682 -0.6155  0.7184 -0.0565
 1592SOL    MW4 6423   2.666   0.903   2.731  0.0005  0.0001 -0.0000
 1593SOL     OW 6424   2.698   1.152   2.594  0.1086  0.0189  0.3138
 1593SOL    HW2 6425   2.772   1.192   2.640 -0.0021  0.1084  0.4146
 1593SOL    HW3 6426   2.687   1.067   2.636 -0.6301  0.5085  1.1284
 1593SOL    MW4 6427   2.706   1.146   2.606  0.0005  0.0001 -0.0000
 1594SOL     OW 6428   2.900   1.295   2.718 -0.4195  0.0275  0.1633
 1594SOL    HW2 6429   2.896   1.295   2.814  1.8003  1.0426  0.2907
 1594SOL    HW3 6430   2.984   1.254   2.698 -0.1233  1.3086 -1.2958
 1594SOL    MW4 6431   2.911   1.290   2.728  0.0005  0.0001 -0.0000
 1595SOL     OW 6432   2.940   1.548   2.622  0.0603  0.1184 -0.4629
 1595SOL    HW2 6433   2.862   1.600   2.640  0.1903  0.3999 -0.6974
 1595SOL    HW3 6434   2.924   1.464   2.664 -0.3478  0.1937 -0.4704
 1595SOL    MW4 6435   2.928   1.544   2.630  0.0005  0.0001 -0.0000
 1596SOL     OW 6436   2.725   1.694   2.724 -0.2914 -0.4306 -0.5918
 1596SOL    HW2 6437   2.715   1.721   2.815 -0.8951  1.0594 -1.0865
 1596SOL    HW3 6438   2.653   1.632   2.710 -0.6827 -0.0525 -0.2810
 1596SOL    MW4 6439   2.714   1.689   2.734  0.0005  0.0001 -0.0000
 1597SOL     OW 6440   2.702   1.925   2.586 -0.0074  0.1789  0.5794
 1597SOL    HW2 6441   2.719   1.840   2.627 -1.9197  0.0031  1.0612
 1597SOL    HW3 6442   2.638   1.967   2.644 -0.0589  1.4065 -0.3499
 1597SOL    MW4 6443   2.696   1.919   2.599  0.0005  0.0001 -0.0000
 1598SOL     OW 6444   2.910   2.054   2.734 -0.2798 -0.1246  0.3002
 1598SOL    HW2 6445   2.917   2.141   2.696 -0.0246  0.1323  0.9262
 1598SOL    HW3 6446   2.842   2.010   2.682  0.2568  0.1224 -0.6196
 1598SOL    MW4 6447   2.902   2.060   2.722  0.0005  0.0001 -0.0000
 1599SOL     OW 6448   2.934   2.292   2.608  0.2827 -0.2991 -0.1633
 1599SOL    HW2 6449   3.016   2.337   2.629 -0.0107  0.1100  0.1246
 1599SOL    HW3 6450   2.866   2.350   2.643 -0.1004 -0.9625  0.1955
 1599SOL    MW4 6451   2.936   2.306   2.615  0.0005  0.0001 -0.0000
 1600SOL     OW 6452   2.719   2.451   2.684 -0.3158  0.0002 -0.2018
 1600SOL    HW2 6453   2.714   2.454   2.780  0.7231  0.5090 -0.1544
 1600SOL    HW3 6454   2.722   2.543   2.658 -1.5267 -0.1176 -0.7851
 1600SOL    MW4 6455   2.719   2.464   2.693  0.0005  0.0001 -0.0000
 1601SOL     OW 6456   2.723   2.735   2.649  0.0188 -0.2134  0.1601
 1601SOL    HW2 6457   2.801   2.789   2.661  0.8906 -1.5049  0.3888
 1601SOL    HW3 6458   2.707   2.738   2.555 -0.1588  0.7332  0.2131
 1601SOL    MW4 6459   2.731   2.742   2.638  0.0005  0.0001 -0.0000
 1602SOL     OW 6460   2.961   2.851   2.693  0.3826  0.4353  0.3418
 1602SOL    HW2 6461   2.948   2.849   2.788 -1.0683 -0.0192  0.1453
 1602SOL    HW3 6462   2.968   2.944   2.672  0.0109  0.5714  0.8080
 1602SOL    MW4 6463   2.960   2.863   2.703  0.0005  0.0001 -0.0000
 1603SOL     OW 6464   2.968   3.110   2.637  0.2206 -0.0680  0.4445
 1603SOL    HW2 6465   2.894   3.164   2.665  0.4219  0.3785  0.1262
 1603SOL    HW3 6466   2.965   3.114   2.541  0.0710 -0.8503  0.4144
 1603SOL    MW4 6467   2.958   3.118   2.628  0.0005  0.0001 -0.0000
 1604SOL     OW 6468   2.727   3.236   2.703 -0.3379 -0.3799 -0.0538
 1604SOL    HW2 6469   2.723   3.327   2.673  3.1971 -0.4096 -0.8552
 1604SOL    HW3 6470   2.643   3.198   2.677 -0.5015  1.7386 -2.8342
 1604SOL    MW4 6471   2.715   3.243   2.696  0.0005  0.0001 -0.0000
 1605SOL     OW 6472   2.697   3.497   2.614 -0.0407 -0.0458  0.3959
 1605SOL    HW2 6473   2.614   3.541   2.633 -1.4419 -2.6990  0.6608
 1605SOL    HW3 6474   2.703   3.497   2.519 -1.3906 -1.6385  0.2883
 1605SOL    MW4 6475   2.687   3.503   2.604  0.0005  0.0001 -0.0000
 1606SOL     OW 6476   2.918   3.634   2.713  0.2234 -0.2686 -0.0582
 1606SOL    HW2 6477   2.924   3.611   2.806  2.1149 -0.6168 -0.2482
 1606SOL    HW3 6478   2.843   3.584   2.681 -1.3726  0.9955  1.5940
 1606SOL    MW4 6479   2.909   3.624   2.721  0.0005  0.0001 -0.0000
 1607SOL     OW 6480   2.918   3.889   2.606 -0.2440 -0.4339  0.3308
 1607SOL    HW2 6481   2.989   3.936   2.650  1.5431 -1.8978 -0.9136
 1607SOL    HW3 6482   2.912   3.805   2.652 -0.3289 -0.8078 -0.3533
 1607SOL    MW4 6483   2.927   3.884   2.618  0.0005  0.0001 -0.0000
 1608SOL     OW 6484   2.685   3.982   2.722  0.0098 -0.1948 -0.0498
 1608SOL    HW2 6485   2.675   4.077   2.718  1.6983  0.0209  0.3632
 1608SOL    HW3 6486   2.765   3.965   2.673 -0.1413 -1.3819  0.1096
 1608SOL    MW4 6487   2.694   3.992   2.715  0.0005  0.0001 -0.0000
 1609SOL     OW 6488   2.650   4.255   2.676  0.1273 -0.1538 -0.7424
 1609SOL    HW2 6489   2.723   4.309   2.704  0.0719  0.0254 -0.9415
 1609SOL    HW3 6490   2.572   4.301   2.708  0.1540 -0.9773  0.5428
 1609SOL    MW4 6491   2.649   4.268   2.684  0.0005  0.0001 -0.0000
 1610SOL     OW 6492   2.875   4.427   2.741 -0.2271  0.0880  0.2191
 1610SOL    HW2 6493   2.850   4.441   2.832  2.0771 -0.0708  0.9009
 1610SOL    HW3 6494   2.893   4.515   2.708 -0.0363  0.0503  0.2244
 1610SOL    MW4 6495   2.874   4.440   2.749  0.0005  0.0001 -0.0000
 1611SOL     OW 6496   3.380   4.659   2.584 -0.0446  0.3330 -0.2805
 1611SOL    HW2 6497   3.368   4.574   2.626 -2.0859 -0.1321 -1.7306
 1611SOL    HW3 6498   3.315   4.716   2.625  1.5861  1.3383  0.9753
 1611SOL    MW4 6499   3.370   4.655   2.595  0.0005  0.0001 -0.0000
 1612SOL     OW 6500   3.137   0.141   2.700  0.0908 -0.3040 -0.2128
 1612SOL    HW2 6501   3.130   0.125   2.794 -0.5943  1.6932  0.0911
 1612SOL    HW3 6502   3.139   0.236   2.691  0.2035 -0.4633 -2.2216
 1612SOL    MW4 6503   3.136   0.152   2.711  0.0005  0.0001 -0.0000
 1613SOL     OW 6504   3.160   0.408   2.619 -0.0828  0.1413  0.1316
 1613SOL    HW2 6505   3.074   0.444   2.642  0.1128  0.2006  0.7901
 1613SOL    HW3 6506   3.153   0.385   2.526 -1.0550 -0.5624  0.3751
 1613SOL    MW4 6507   3.148   0.410   2.610  0.0005  0.0001 -0.0000
 1614SOL     OW 6508   3.377   0.530   2.751  0.4175  0.1213  0.1296
 1614SOL    HW2 6509   3.378   0.623   2.727 -0.2922  0.5881  1.8319
 1614SOL    HW3 6510   3.309   0.492   2.695 -0.8706  1.0871  1.0011
 1614SOL    MW4 6511   3.368   0.537   2.741  0.0005  0.0001 -0.0000
 1615SOL     OW 6512   3.359   0.788   2.655  0.1854 -0.6013 -0.8916
 1615SOL    HW2 6513   3.434   0.842   2.680  0.8882 -1.9436 -0.0383
 1615SOL    HW3 6514   3.374   0.767   2.563  0.1106  0.3256 -1.1174
 1615SOL    MW4 6515   3.371   0.792   2.646  0.0005  0.0001 -0.0000
 1616SOL     OW 6516   3.109   0.893   2.692  0.3743  0.7650  0.2863
 1616SOL    HW2 6517   3.111   0.903   2.787  1.2399  0.8175  0.2652
 1616SOL    HW3 6518   3.183   0.836   2.672  1.1559  2.0295 -0.5024
 1616SOL    MW4 6519   3.119   0.887   2.702  0.0005  0.0001 -0.0000
 1617SOL     OW 6520   3.125   1.171   2.620 -0.8542  0.1203 -0.3202
 1617SOL    HW2 6521   3.127   1.076   2.633 -0.3644  0.0898 -0.6120
 1617SOL    HW3 6522   3.129   1.183   2.525 -0.8944  0.4341 -0.2839
 1617SOL    MW4 6523   3.126   1.160   2.609  0.0005  0.0001 -0.0000
 1618SOL     OW 6524   3.355   1.330   2.690  0.3527 -0.4444 -0.1728
 1618SOL    HW2 6525   3.384   1.316   2.780 -0.6959 -1.2154  0.0506
 1618SOL    HW3 6526   3.284   1.267   2.677 -1.3079  1.4711 -0.6701
 1618SOL    MW4 6527   3.349   1.320   2.700  0.0005  0.0001 -0.0000
 1619SOL     OW 6528   3.382   1.593   2.626  0.2567 -0.0360 -0.5722
 1619SOL    HW2 6529   3.306   1.639   2.662  1.0642  0.1474  0.9424
 1619SOL    HW3 6530   3.372   1.503   2.658  1.4052  0.3159  0.8271
 1619SOL    MW4 6531   3.371   1.587   2.635  0.0005  0.0001 -0.0000
 1620SOL     OW 6532   3.151   1.680   2.728 -0.3849  0.1067  0.0988
 1620SOL    HW2 6533   3.143   1.762   2.679 -1.1362  0.4402  0.7683
 1620SOL    HW3 6534   3.087   1.621   2.687 -0.6954  0.2423  0.3865
 1620SOL    MW4 6535   3.142   1.683   2.716  0.0005  0.0001 -0.0000
 1621SOL     OW 6536   3.133   1.941   2.613  0.3828  0.4756 -0.1832
 1621SOL    HW2 6537   3.201   1.976   2.671 -0.2430 -2.9985  2.8321
 1621SOL    HW3 6538   3.051   1.960   2.658 -0.4547  1.5464 -2.1004
 1621SOL    MW4 6539   3.131   1.948   2.627  0.0005  0.0001 -0.0000
 1622SOL     OW 6540   3.369   2.049   2.730  0.2487 -0.2211  0.0079
 1622SOL    HW2 6541   3.366   2.059   2.825  0.4718 -0.1857  0.0114
 1622SOL    HW3 6542   3.383   2.138   2.697 -1.9727  0.0928 -0.1651
 1622SOL    MW4 6543   3.370   2.062   2.738  0.0005  0.0001 -0.0000
 1623SOL     OW 6544   3.386   2.306   2.618  0.0179  0.1963 -0.1035
 1623SOL    HW2 6545   3.454   2.365   2.650  0.0136  0.8067 -1.2151
 1623SOL    HW3 6546   3.386   2.317   2.523  0.0007 -1.5760 -0.3324
 1623SOL    MW4 6547   3.395   2.315   2.610  0.0005  0.0001 -0.0000
 1624SOL     OW 6548   3.158   2.427   2.708 -0.1066  0.0137 -0.0624
 1624SOL    HW2 6549   3.153   2.511   2.663 -1.0270 -0.4999 -0.9428
 1624SOL    HW3 6550   3.237   2.385   2.674 -0.7792 -0.3575 -1.1900
 1624SOL    MW4 6551   3.168   2.433   2.698  0.0005  0.0001 -0.0000
 1625SOL     OW 6552   3.163   2.687   2.595 -0.2473  0.1376  0.2837
 1625SOL    HW2 6553   3.228   2.747   2.632 -0.4844  0.8434 -0.4446
 1625SOL    HW3 6554   3.079   2.726   2.618 -0.4323 -1.0129  1.6200
 1625SOL    MW4 6555   3.160   2.700   2.603  0.0005  0.0001 -0.0000
 1626SOL     OW 6556   3.392   2.854   2.724 -0.1752  0.2598  0.0367
 1626SOL    HW2 6557   3.386   2.845   2.819 -0.0916  3.1596  0.3650
 1626SOL    HW3 6558   3.466   2.799   2.699 -0.9688 -1.5067  1.4712
 1626SOL    MW4 6559   3.401   2.846   2.733  0.0005  0.0001 -0.0000
 1627SOL     OW 6560   3.390   3.135   2.653 -0.1090  0.3792  0.1546
 1627SOL    HW2 6561   3.406   3.048   2.690 -0.4396  0.5655  0.7431
 1627SOL    HW3 6562   3.388   3.121   2.558 -0.2476 -0.2689  0.2518
 1627SOL    MW4 6563   3.392   3.122   2.645  0.0005  0.0001 -0.0000
 1628SOL     OW 6564   3.168   3.254   2.766 -0.3766  0.0161  0.1739
 1628SOL    HW2 6565   3.247   3.236   2.716 -0.3287 -0.4385  0.4067
 1628SOL    HW3 6566   3.101   3.201   2.724 -0.7423  1.0132 -0.5187
 1628SOL    MW4 6567   3.170   3.245   2.754  0.0005  0.0001 -0.0000
 1629SOL     OW 6568   3.130   3.509   2.613 -0.0476  0.8226 -0.1939
 1629SOL    HW2 6569   3.121   3.440   2.679  0.5862  2.2948  1.4725
 1629SOL    HW3 6570   3.051   3.562   2.623  0.1019  1.1140 -0.5474
 1629SOL    MW4 6571   3.118   3.507   2.623  0.0005  0.0001 -0.0000
 1630SOL     OW 6572   3.349   3.630   2.732 -0.0486  0.3873  0.4176
 1630SOL    HW2 6573   3.353   3.587   2.817 -0.1378  0.7363  0.5991
 1630SOL    HW3 6574   3.269   3.596   2.692 -0.6665  1.1581  0.9820
 1630SOL    MW4 6575   3.339   3.620   2.738  0.0005  0.0001 -0.0000
 1631SOL     OW 6576   3.343   3.911   2.669  0.1187 -0.1794  0.6888
 1631SOL    HW2 6577   3.354   3.822   2.702  0.5663 -0.9775 -1.5300
 1631SOL    HW3 6578   3.359   3.904   2.575 -0.9359  2.0504  0.3084
 1631SOL    MW4 6579   3.347   3.898   2.661  0.0005  0.0001 -0.0000
 1632SOL     OW 6580   3.118   4.035   2.743  0.0468  0.0686  0.3918
 1632SOL    HW2 6581   3.125   4.123   2.705 -0.1857  0.0943  0.4115
 1632SOL    HW3 6582   3.200   3.992   2.719 -0.6760 -0.3913 -1.3572
 1632SOL    MW4 6583   3.130   4.041   2.735  0.0005  0.0001 -0.0000
 1633SOL     OW 6584   3.110   4.277   2.619  0.4809 -0.0609 -0.0475
 1633SOL    HW2 6585   3.031   4.324   2.645  1.2946  0.7005  1.0945
 1633SOL    HW3 6586   3.096   4.256   2.527 -1.5317 -0.9216  0.4271
 1633SOL    MW4 6587   3.098   4.280   2.610  0.0005  0.0001 -0.0000
 1634SOL     OW 6588   3.349   4.414   2.719 -0.3970  0.1344  0.2823
 1634SOL    HW2 6589   3.333   4.420   2.813 -0.6192 -1.4199  0.3594
 1634SOL    HW3 6590   3.267   4.381   2.683  0.0980 -0.4934 -0.2916
 1634SOL    MW4 6591   3.336   4.410   2.727  0.0005  0.0001 -0.0000
 1635SOL     OW 6592   3.829   4.655   2.658  0.6250 -0.5552  0.0651
 1635SOL    HW2 6593   3.831   4.572   2.705  0.3794 -0.6055 -0.0140
 1635SOL    HW3 6594   3.747   4.697   2.685  0.7357 -0.3503  0.0863
 1635SOL    MW4 6595   3.818   4.650   2.668  0.0005  0.0001 -0.0000
 1636SOL     OW 6596   3.584   0.111   2.728 -0.1062 -0.2146 -0.2331
 1636SOL    HW2 6597   3.571   0.203   2.706  0.5120  0.2896  1.4012
 1636SOL    HW3 6598   3.525   0.063   2.670 -1.1904  1.2811 -0.3844
 1636SOL    MW4 6599   3.574   0.117   2.717  0.0005  0.0001 -0.0000
 1637SOL     OW 6600   3.578   0.382   2.651 -0.3111  0.1818 -0.0537
 1637SOL    HW2 6601   3.664   0.421   2.669 -0.7127  0.7112  0.7307
 1637SOL    HW3 6602   3.515   0.443   2.689 -1.0079 -0.5712  0.0206
 1637SOL    MW4 6603   3.581   0.395   2.658  0.0005  0.0001 -0.0000
 1638SOL     OW 6604   3.810   0.519   2.718 -0.0323  0.0841 -0.2108
 1638SOL    HW2 6605   3.815   0.514   2.814  0.9555 -3.4196 -0.3620
 1638SOL    HW3 6606   3.885   0.467   2.687 -2.4244 -1.9718 -2.8357
 1638SOL    MW4 6607   3.821   0.512   2.727  0.0005  0.0001 -0.0000
 1639SOL     OW 6608   3.807   0.781   2.630  0.6467 -0.0519 -0.4883
 1639SOL    HW2 6609   3.730   0.809   2.680  0.2656  0.2585 -1.2457
 1639SOL    HW3 6610   3.814   0.687   2.649  1.8159  0.4758  1.8987
 1639SOL    MW4 6611   3.798   0.772   2.639  0.0005  0.0001 -0.0000
 1640SOL     OW 6612   3.589   0.913   2.727 -0.4111  0.2536 -0.0472
 1640SOL    HW2 6613   3.605   0.921   2.821  0.4659  2.0924 -0.3284
 1640SOL    HW3 6614   3.590   1.003   2.695  1.1308 -0.4601 -2.1110
 1640SOL    MW4 6615   3.591   0.926   2.735  0.0005  0.0001 -0.0000
 1641SOL     OW 6616   3.587   1.173   2.620  0.2902  0.2276 -0.1308
 1641SOL    HW2 6617   3.659   1.212   2.670  0.6179  0.6347 -0.9111
 1641SOL    HW3 6618   3.510   1.222   2.647  0.6316  1.1360 -0.7801
 1641SOL    MW4 6619   3.586   1.185   2.630  0.0005  0.0001 -0.0000
 1642SOL     OW 6620   3.825   1.269   2.731 -0.6318  0.0851  0.2378
 1642SOL    HW2 6621   3.912   1.240   2.704 -0.4596 -0.5889  1.4850
 1642SOL    HW3 6622   3.809   1.348   2.679  1.2108  0.8844  0.8238
 1642SOL    MW4 6623   3.834   1.275   2.721  0.0005  0.0001 -0.0000
 1643SOL     OW 6624   3.814   1.518   2.622 -0.2404  0.3000  0.3501
 1643SOL    HW2 6625   3.892   1.564   2.652 -0.5606  1.4020 -0.4936
 1643SOL    HW3 6626   3.741   1.574   2.649 -0.7180 -0.4701  0.6814
 1643SOL    MW4 6627   3.815   1.532   2.629  0.0005  0.0001 -0.0000
 1644SOL     OW 6628   3.637   1.715   2.688  0.2272  0.5038  0.5728
 1644SOL    HW2 6629   3.654   1.803   2.655 -0.0961  1.1142  1.9937
 1644SOL    HW3 6630   3.564   1.683   2.635  1.2024  0.5832 -0.8265
 1644SOL    MW4 6631   3.630   1.722   2.677  0.0005  0.0001 -0.0000
 1645SOL     OW 6632   3.624   1.992   2.622 -0.0527  0.1157 -0.1270
 1645SOL    HW2 6633   3.539   2.013   2.661 -0.3738 -0.6927 -0.3806
 1645SOL    HW3 6634   3.607   1.989   2.528  0.4119  0.6481 -0.2302
 1645SOL    MW4 6635   3.611   1.994   2.615  0.0005  0.0001 -0.0000
 1646SOL     OW 6636   3.846   2.072   2.744 -0.2521 -0.6244 -0.0508
 1646SOL    HW2 6637   3.912   2.013   2.707  0.5665  0.3527 -0.1696
 1646SOL    HW3 6638   3.763   2.042   2.706  0.3026 -0.9843 -0.9969
 1646SOL    MW4 6639   3.844   2.060   2.734  0.0005  0.0001 -0.0000
 1647SOL     OW 6640   3.808   2.325   2.627 -0.2585  0.0679 -0.0853
 1647SOL    HW2 6641   3.817   2.234   2.656  0.6971 -0.1462 -1.0157
 1647SOL    HW3 6642   3.788   2.318   2.534  1.6326  0.8381 -0.5714
 1647SOL    MW4 6643   3.807   2.312   2.619  0.0005  0.0001 -0.0000
 1648SOL     OW 6644   3.600   2.467   2.730  0.4956  0.1157 -0.1188
 1648SOL    HW2 6645   3.602   2.470   2.826  1.0572 -1.5804 -0.0632
 1648SOL    HW3 6646   3.683   2.426   2.705 -0.2958 -0.8342 -1.2590
 1648SOL    MW4 6647   3.611   2.462   2.739  0.0005  0.0001 -0.0000
 1649SOL     OW 6648   3.627   2.725   2.635 -0.0929 -0.4564  0.3032
 1649SOL    HW2 6649   3.619   2.633   2.660 -0.0103 -1.0508 -1.7807
 1649SOL    HW3 6650   3.612   2.726   2.540 -0.5230  1.7338  0.3627
 1649SOL    MW4 6651   3.624   2.713   2.626  0.0005  0.0001 -0.0000
 1650SOL     OW 6652   3.823   2.875   2.785  0.5529 -0.1033  0.1731
 1650SOL    HW2 6653   3.907   2.853   2.746  0.5550  0.1834  0.0142
 1650SOL    HW3 6654   3.759   2.824   2.736  0.8396 -1.9780  1.6901
 1650SOL    MW4 6655   3.826   2.865   2.773  0.0005  0.0001 -0.0000
 1651SOL     OW 6656   3.844   3.125   2.668 -0.0658 -0.1005 -0.1789
 1651SOL    HW2 6657   3.776   3.178   2.710  1.7119  0.6026  1.9076
 1651SOL    HW3 6658   3.836   3.039   2.709 -0.1412 -0.2153 -0.4335
 1651SOL    MW4 6659   3.834   3.121   2.679  0.0005  0.0001 -0.0000
 1652SOL     OW 6660   3.614   3.308   2.728 -0.2237 -0.1127  0.1649
 1652SOL    HW2 6661   3.611   3.389   2.676 -0.0867 -0.3742 -0.2547
 1652SOL    HW3 6662   3.547   3.252   2.688 -0.6206 -0.0439  0.7299
 1652SOL    MW4 6663   3.605   3.311   2.716  0.0005  0.0001 -0.0000
 1653SOL     OW 6664   3.612   3.581   2.598 -0.5151  0.7186  0.4850
 1653SOL    HW2 6665   3.681   3.610   2.658 -0.7354 -0.5376  1.3652
 1653SOL    HW3 6666   3.530   3.604   2.642 -0.6730  1.3889 -0.1464
 1653SOL    MW4 6667   3.610   3.588   2.612  0.0005  0.0001 -0.0000
 1654SOL     OW 6668   3.809   3.635   2.768  0.2697 -0.2774  0.4414
 1654SOL    HW2 6669   3.878   3.589   2.720 -0.5996  0.2246 -1.3265
 1654SOL    HW3 6670   3.805   3.722   2.728 -0.9801 -0.0949  0.9313
 1654SOL    MW4 6671   3.818   3.640   2.756  0.0005  0.0001 -0.0000
 1655SOL     OW 6672   3.799   3.876   2.636  0.1852  0.3416 -0.5424
 1655SOL    HW2 6673   3.881   3.916   2.664 -0.0452 -0.2974  1.1029
 1655SOL    HW3 6674   3.731   3.931   2.674 -0.1387 -0.2808 -0.2080
 1655SOL    MW4 6675   3.801   3.889   2.645  0.0005  0.0001 -0.0000
 1656SOL     OW 6676   3.589   4.015   2.749 -0.1692 -0.2910 -0.0709
 1656SOL    HW2 6677   3.592   4.099   2.704 -0.9699 -0.2319 -0.0264
 1656SOL    HW3 6678   3.500   3.983   2.733 -0.6359 -0.0314  1.8882
 1656SOL    MW4 6679   3.578   4.022   2.741  0.0005  0.0001 -0.0000
 1657SOL     OW 6680   3.590   4.268   2.654 -0.0202 -0.7276 -0.1344
 1657SOL    HW2 6681   3.522   4.327   2.684  0.7468  0.3613 -0.5067
 1657SOL    HW3 6682   3.590   4.278   2.559  0.2105 -1.2321 -0.1911
 1657SOL    MW4 6683   3.581   4.277   2.646  0.0005  0.0001 -0.0000
 1658SOL     OW 6684   3.817   4.410   2.777  0.1627 -0.4940 -0.0019
 1658SOL    HW2 6685   3.893   4.362   2.745  0.3949  0.2383 -0.5634
 1658SOL    HW3 6686   3.742   4.363   2.741  0.3821 -0.5648 -0.3687
 1658SOL    MW4 6687   3.817   4.397   2.768  0.0005  0.0001 -0.0000
 1659SOL     OW 6688   4.305   4.650   2.684  0.0960  0.4831  0.3387
 1659SOL    HW2 6689   4.237   4.700   2.729 -0.1380  0.5528 -0.0930
 1659SOL    HW3 6690   4.386   4.697   2.705 -0.1927  1.4031 -0.5600
 1659SOL    MW4 6691   4.307   4.663   2.693  0.0005  0.0001 -0.0000
 1660SOL     OW 6692   4.070   0.117   2.746 -0.3683  0.2808  0.0185
 1660SOL    HW2 6693   4.055   0.124   2.840 -0.7599  1.3048 -0.1124
 1660SOL    HW3 6694   3.994   0.068   2.713  0.9061 -2.1219  0.5344
 1660SOL    MW4 6695   4.058   0.111   2.754  0.0005  0.0001 -0.0000
 1661SOL     OW 6696   4.036   0.369   2.637 -0.0000  0.2109  0.0311
 1661SOL    HW2 6697   4.048   0.281   2.672  0.7550  0.3192  0.0525
 1661SOL    HW3 6698   4.025   0.356   2.543 -0.4495  0.0496  0.1049
 1661SOL    MW4 6699   4.036   0.356   2.629  0.0005  0.0001 -0.0000
 1662SOL     OW 6700   4.254   0.496   2.746  0.4552  0.2333  0.2127
 1662SOL    HW2 6701   4.185   0.447   2.701  0.4216  0.7731 -0.3301
 1662SOL    HW3 6702   4.335   0.467   2.703  0.5177 -0.0005  0.4869
 1662SOL    MW4 6703   4.256   0.486   2.734  0.0005  0.0001 -0.0000
 1663SOL     OW 6704   4.257   0.767   2.671 -0.4701 -0.3391 -0.3768
 1663SOL    HW2 6705   4.263   0.675   2.695 -0.1247 -0.4241 -0.7866
 1663SOL    HW3 6706   4.266   0.768   2.576 -1.1915  0.0541 -0.4453
 1663SOL    MW4 6707   4.259   0.755   2.662  0.0005  0.0001 -0.0000
 1664SOL     OW 6708   4.040   0.896   2.778  0.1733 -0.4388  0.6362
 1664SOL    HW2 6709   4.108   0.840   2.742 -0.4259 -1.2429  0.7444
 1664SOL    HW3 6710   3.958   0.861   2.742 -0.6005 -2.2533  3.9515
 1664SOL    MW4 6711   4.038   0.884   2.768  0.0005  0.0001 -0.0000
 1665SOL     OW 6712   4.065   1.156   2.642 -0.9324 -0.2833 -0.4086
 1665SOL    HW2 6713   4.136   1.205   2.684 -2.2393  0.9277  0.4338
 1665SOL    HW3 6714   4.066   1.071   2.685 -1.3559  0.4693  1.1256
 1665SOL    MW4 6715   4.074   1.151   2.653  0.0005  0.0001 -0.0000
 1666SOL     OW 6716   4.272   1.323   2.782 -0.2910 -0.0616  0.2692
 1666SOL    HW2 6717   4.294   1.413   2.758  1.4981 -0.1070  1.6282
 1666SOL    HW3 6718   4.324   1.270   2.722  1.2229 -0.1691  1.6422
 1666SOL    MW4 6719   4.282   1.328   2.771  0.0005  0.0001 -0.0000
 1667SOL     OW 6720   4.304   1.577   2.667 -0.1906  0.1062 -0.1721
 1667SOL    HW2 6721   4.395   1.597   2.691 -0.7381  2.6603 -0.0794
 1667SOL    HW3 6722   4.303   1.578   2.571 -0.0778 -0.1463 -0.1763
 1667SOL    MW4 6723   4.316   1.580   2.658  0.0005  0.0001 -0.0000
 1668SOL     OW 6724   4.045   1.675   2.711 -0.4200  0.0550 -0.4932
 1668SOL    HW2 6725   4.046   1.684   2.806 -0.3935  0.1549 -0.5028
 1668SOL    HW3 6726   4.129   1.633   2.690 -2.3766 -4.3673 -0.0399
 1668SOL    MW4 6727   4.056   1.671   2.721  0.0005  0.0001 -0.0000
 1669SOL     OW 6728   4.084   1.930   2.629 -0.2983 -0.0424  0.3925
 1669SOL    HW2 6729   4.147   1.967   2.690 -1.1022  1.8018  0.1327
 1669SOL    HW3 6730   4.077   1.838   2.655  2.7067 -0.3721  0.2205
 1669SOL    MW4 6731   4.091   1.923   2.640  0.0005  0.0001 -0.0000
 1670SOL     OW 6732   4.255   2.055   2.804 -0.5037  0.5696 -0.0626
 1670SOL    HW2 6733   4.239   2.139   2.761 -0.9621  1.0005  0.9351
 1670SOL    HW3 6734   4.330   2.018   2.757 -2.3669 -0.0043 -2.6999
 1670SOL    MW4 6735   4.263   2.061   2.792  0.0005  0.0001 -0.0000
 1671SOL     OW 6736   4.248   2.322   2.686 -0.5656 -0.3339  0.0416
 1671SOL    HW2 6737   4.173   2.381   2.677 -1.0130 -0.9285 -0.1724
 1671SOL    HW3 6738   4.262   2.288   2.598  0.0603 -0.1008  0.0496
 1671SOL    MW4 6739   4.240   2.325   2.673  0.0005  0.0001 -0.0000
 1672SOL     OW 6740   4.016   2.473   2.718  0.3052 -0.5182  0.2772
 1672SOL    HW2 6741   4.021   2.448   2.810 -0.4635  0.3335  0.5588
 1672SOL    HW3 6742   3.955   2.411   2.679  0.1924 -0.5252  0.4665
 1672SOL    MW4 6743   4.009   2.461   2.725  0.0005  0.0001 -0.0000
 1673SOL     OW 6744   4.049   2.743   2.611 -0.0177  0.3886  0.1882
 1673SOL    HW2 6745   4.132   2.772   2.648  1.6163 -0.9873 -2.2556
 1673SOL    HW3 6746   4.037   2.655   2.646  0.3560 -0.0064 -0.6510
 1673SOL    MW4 6747   4.058   2.735   2.621  0.0005  0.0001 -0.0000
 1674SOL     OW 6748   4.312   2.838   2.702  0.3499 -0.2319  0.2635
 1674SOL    HW2 6749   4.298   2.839   2.797  2.1593 -0.1972  0.5501
 1674SOL    HW3 6750   4.305   2.930   2.676  1.3909 -0.0460  0.6164
 1674SOL    MW4 6751   4.309   2.850   2.711  0.0005  0.0001 -0.0000
 1675SOL     OW 6752   4.276   3.092   2.621  0.0419  0.4550  0.2146
 1675SOL    HW2 6753   4.201   3.144   2.651 -1.4477 -0.5934 -1.5643
 1675SOL    HW3 6754   4.262   3.083   2.527  1.3805 -1.4122  0.1736
 1675SOL    MW4 6755   4.264   3.098   2.613  0.0005  0.0001 -0.0000
 1676SOL     OW 6756   4.087   3.254   2.743  0.4828 -0.2362 -0.0560
 1676SOL    HW2 6757   4.066   3.346   2.726 -0.3433 -0.4948 -0.4537
 1676SOL    HW3 6758   4.004   3.208   2.733  0.9158 -1.0467  0.0242
 1676SOL    MW4 6759   4.073   3.260   2.739  0.0005  0.0001 -0.0000
 1677SOL     OW 6760   4.047   3.520   2.637 -0.3437 -0.0029 -0.2956
 1677SOL    HW2 6761   4.118   3.570   2.678 -0.1274 -2.0736  1.9394
 1677SOL    HW3 6762   4.076   3.508   2.547  1.5661  0.2743  0.2616
 1677SOL    MW4 6763   4.060   3.525   2.630  0.0005  0.0001 -0.0000
 1678SOL     OW 6764   4.249   3.656   2.741 -0.0780 -0.0558  0.0275
 1678SOL    HW2 6765   4.252   3.674   2.835  0.3075  1.8218 -0.3267
 1678SOL    HW3 6766   4.323   3.598   2.726  1.0368  1.1915  0.5838
 1678SOL    MW4 6767   4.259   3.651   2.751  0.0005  0.0001 -0.0000
 1679SOL     OW 6768   4.252   3.917   2.641  0.0184 -0.2329 -0.2721
 1679SOL    HW2 6769   4.243   3.823   2.656  1.4705 -0.4630 -0.7581
 1679SOL    HW3 6770   4.340   3.938   2.673 -0.7631  1.2052  1.0005
 1679SOL    MW4 6771   4.262   3.907   2.647  0.0005  0.0001 -0.0000
 1680SOL     OW 6772   4.011   4.028   2.748  0.2048  0.4323  0.1889
 1680SOL    HW2 6773   4.022   4.025   2.843 -1.3417 -0.9891  0.3427
 1680SOL    HW3 6774   4.093   3.992   2.714 -0.4498 -2.0185  1.0867
 1680SOL    MW4 6775   4.023   4.023   2.756  0.0005  0.0001 -0.0000
 1681SOL     OW 6776   4.018   4.283   2.664  0.2493  0.0922 -0.2406
 1681SOL    HW2 6777   4.004   4.194   2.697  0.3695  0.3217  0.4325
 1681SOL    HW3 6778   4.036   4.271   2.571 -1.4119 -0.4537 -0.5103
 1681SOL    MW4 6779   4.019   4.270   2.656  0.0005  0.0001 -0.0000
 1682SOL     OW 6780   4.289   4.384   2.753  0.2127 -0.1220 -0.0329
 1682SOL    HW2 6781   4.197   4.356   2.751  0.1042  0.0329  1.8490
 1682SOL    HW3 6782   4.287   4.476   2.726 -0.0990 -0.3135 -0.6716
 1682SOL    MW4 6783   4.277   4.392   2.749  0.0005  0.0001 -0.0000
 1683SOL     OW 6784   0.184   4.624   3.124 -0.0064 -0.1315 -0.8262
 1683SOL    HW2 6785   0.191   4.644   3.217  1.0018 -0.7524 -0.7586
 1683SOL    HW3 6786   0.114   4.681   3.092  0.3321  0.8164  0.1000
 1683SOL    MW4 6787   0.176   4.634   3.132  0.0005  0.0001 -0.0000
 1684SOL     OW 6788   0.016   0.148   3.028 -0.0311  0.4241 -0.3276
 1684SOL    HW2 6789  -0.068   0.108   3.049  0.6625 -0.0959  1.5159
 1684SOL    HW3 6790   0.013   0.234   3.071  0.1669  0.6230 -0.7109
 1684SOL    MW4 6791   0.005   0.154   3.036  0.0005  0.0001 -0.0000
 1685SOL     OW 6792   4.483   0.389   3.131  0.0654  0.4680 -0.3928
 1685SOL    HW2 6793   4.474   0.379   3.226 -1.1100 -1.3579 -0.6711
 1685SOL    HW3 6794   4.402   0.432   3.104  0.0513  0.2770 -0.6553
 1685SOL    MW4 6795   4.471   0.393   3.140  0.0005  0.0001 -0.0000
 1686SOL     OW 6796   0.237   0.495   3.025  0.4789  0.0246 -0.4167
 1686SOL    HW2 6797   0.311   0.436   3.038  0.1873  0.0148  1.3252
 1686SOL    HW3 6798   0.161   0.444   3.052  0.1192  0.8690  0.1848
 1686SOL    MW4 6799   0.237   0.480   3.030  0.0005  0.0001 -0.0000
 1687SOL     OW 6800   0.233   0.753   3.124  0.0325 -0.3868  0.1776
 1687SOL    HW2 6801   0.217   0.761   3.218  1.0517 -0.2613  0.3455
 1687SOL    HW3 6802   0.222   0.660   3.106 -0.0938 -0.4221  0.4333
 1687SOL    MW4 6803   0.229   0.742   3.134  0.0005  0.0001 -0.0000
 1688SOL     OW 6804   4.485   0.910   3.033  0.5244 -0.1789  0.1029
 1688SOL    HW2 6805   4.559   0.853   3.052  0.5611  0.0908  0.7905
 1688SOL    HW3 6806   4.492   0.929   2.939  1.7413  0.4336  0.3092
 1688SOL    MW4 6807   4.496   0.905   3.023  0.0005  0.0001 -0.0000
 1689SOL     OW 6808   0.004   1.151   3.164  0.3571  0.1761  0.7385
 1689SOL    HW2 6809  -0.066   1.201   3.122  2.0656  0.5933 -1.7235
 1689SOL    HW3 6810   0.001   1.065   3.121  0.8050 -0.0869  1.2295
 1689SOL    MW4 6811  -0.006   1.146   3.153  0.0005  0.0001 -0.0000
 1690SOL     OW 6812   0.246   1.283   3.034 -0.1178 -0.6339 -0.4951
 1690SOL    HW2 6813   0.168   1.239   3.067 -1.3133  0.4781 -1.7874
 1690SOL    HW3 6814   0.236   1.280   2.939  1.6521 -0.8958 -0.6822
 1690SOL    MW4 6815   0.234   1.277   3.026  0.0005  0.0001 -0.0000
 1691SOL     OW 6816   0.240   1.542   3.105 -0.0725  0.0501  0.0317
 1691SOL    HW2 6817   0.162   1.591   3.080 -0.5573 -0.4362  0.5728
 1691SOL    HW3 6818   0.227   1.456   3.066  0.5716  0.2127 -0.5492
 1691SOL    MW4 6819   0.228   1.537   3.097  0.0005  0.0001 -0.0000
 1692SOL     OW 6820   0.005   1.682   3.032 -0.4644 -0.2137 -0.0236
 1692SOL    HW2 6821  -0.065   1.640   3.081 -0.3444  0.9835  1.2022
 1692SOL    HW3 6822   0.007   1.772   3.065  2.7070 -0.6487  1.1518
 1692SOL    MW4 6823  -0.004   1.688   3.043  0.0005  0.0001 -0.0000
 1693SOL     OW 6824   4.477   1.914   3.167 -0.1430 -0.0895 -0.0130
 1693SOL    HW2 6825   4.392   1.947   3.137 -0.4105 -0.5628  0.2230
 1693SOL    HW3 6826   4.541   1.976   3.131 -0.5389 -0.0777 -0.7093
 1693SOL    MW4 6827   4.474   1.927   3.158  0.0005  0.0001 -0.0000
 1694SOL     OW 6828   0.170   2.058   2.989 -0.3759  0.1132 -0.1714
 1694SOL    HW2 6829   0.193   2.142   3.028 -2.6205  0.6069  0.1581
 1694SOL    HW3 6830   0.176   2.073   2.895 -1.0028  0.7217 -0.1187
 1694SOL    MW4 6831   0.174   2.071   2.982  0.0005  0.0001 -0.0000
 1695SOL     OW 6832   0.250   2.311   3.130 -0.2348  0.0248 -0.3392
 1695SOL    HW2 6833   0.259   2.318   3.225  0.8391 -1.1383 -0.3410
 1695SOL    HW3 6834   0.323   2.363   3.096  0.0772 -0.5207 -0.5075
 1695SOL    MW4 6835   0.261   2.319   3.138  0.0005  0.0001 -0.0000
 1696SOL     OW 6836   0.008   2.424   3.034 -0.1697 -0.3667 -0.5249
 1696SOL    HW2 6837   0.003   2.513   3.069  0.3376 -0.4061 -0.3464
 1696SOL    HW3 6838   0.088   2.388   3.072  0.2416 -0.5053 -1.5088
 1696SOL    MW4 6839   0.018   2.431   3.044  0.0005  0.0001 -0.0000
 1697SOL     OW 6840   0.003   2.686   3.115  0.0106  0.3233 -0.1627
 1697SOL    HW2 6841   0.003   2.694   3.210 -0.9461  1.0475 -0.2166
 1697SOL    HW3 6842   0.069   2.749   3.086  1.8054 -1.3787  0.1169
 1697SOL    MW4 6843   0.012   2.695   3.124  0.0005  0.0001 -0.0000
 1698SOL     OW 6844   0.199   2.862   3.002  0.2046 -0.5409 -0.0038
 1698SOL    HW2 6845   0.281   2.832   3.040  0.7950 -1.0923 -1.6729
 1698SOL    HW3 6846   0.214   2.860   2.907 -2.0333 -1.5570 -0.3714
 1698SOL    MW4 6847   0.212   2.858   2.995  0.0005  0.0001 -0.0000
 1699SOL     OW 6848   0.164   3.097   3.143 -0.0029  0.4779 -0.0392
 1699SOL    HW2 6849   0.096   3.137   3.088 -0.1466  0.8338  0.3927
 1699SOL    HW3 6850   0.190   3.018   3.095 -0.2257  0.7094 -0.5495
 1699SOL    MW4 6851   0.159   3.092   3.130  0.0005  0.0001 -0.0000
 1700SOL     OW 6852   4.463   3.238   3.010 -0.0224 -0.2035 -0.2435
 1700SOL    HW2 6853   4.389   3.181   3.031  0.0366 -0.1607  0.0868
 1700SOL    HW3 6854   4.471   3.234   2.915 -0.3458 -0.3391 -0.2640
 1700SOL    MW4 6855   4.454   3.230   3.000  0.0005  0.0001 -0.0000
 1701SOL     OW 6856   4.471   3.497   3.129 -0.4165  0.0733 -0.1118
 1701SOL    HW2 6857   4.395   3.553   3.112 -0.4814  0.4318  1.3153
 1701SOL    HW3 6858   4.454   3.418   3.077 -0.9052  0.8696 -1.1885
 1701SOL    MW4 6859   4.459   3.494   3.120  0.0005  0.0001 -0.0000
 1702SOL     OW 6860   0.204   3.611   3.020  0.0724  0.1136  0.0251
 1702SOL    HW2 6861   0.201   3.704   3.041  0.6918  0.3819 -1.0386
 1702SOL    HW3 6862   0.124   3.575   3.058 -0.8512  1.3315 -0.7519
 1702SOL    MW4 6863   0.193   3.619   3.028  0.0005  0.0001 -0.0000
 1703SOL     OW 6864   0.203   3.872   3.124 -0.0128 -0.3628  0.0068
 1703SOL    HW2 6865   0.190   3.884   3.218  0.1734  0.7142 -0.1032
 1703SOL    HW3 6866   0.271   3.935   3.100  0.0704 -0.7533 -0.8187
 1703SOL    MW4 6867   0.210   3.882   3.133  0.0005  0.0001 -0.0000
 1704SOL     OW 6868   4.484   4.027   3.023 -0.1782 -0.0214 -0.0151
 1704SOL    HW2 6869   4.561   3.976   3.049  0.7735  0.2690 -2.1330
 1704SOL    HW3 6870   4.489   4.030   2.927 -2.1703  1.0378 -0.1065
 1704SOL    MW4 6871   4.495   4.021   3.014  0.0005  0.0001 -0.0000
 1705SOL     OW 6872   4.484   4.271   3.154  0.8184 -0.0428  0.3395
 1705SOL    HW2 6873   4.477   4.257   3.248  0.7926 -0.5737  0.2596
 1705SOL    HW3 6874   4.472   4.184   3.116 -0.0843  0.3136 -0.1998
 1705SOL    MW4 6875   4.481   4.258   3.161  0.0005  0.0001 -0.0000
 1706SOL     OW 6876   0.221   4.368   3.030  0.1300  0.3675  0.3251
 1706SOL    HW2 6877   0.139   4.322   3.049  0.8004 -1.1458 -0.3328
 1706SOL    HW3 6878   0.206   4.458   3.059 -2.0556  0.3140 -0.5619
 1706SOL    MW4 6879   0.208   4.374   3.036  0.0005  0.0001 -0.0000
 1707SOL     OW 6880   0.652   4.651   3.161  0.2670  0.1619  0.1032
 1707SOL    HW2 6881   0.650   4.557   3.141 -0.5843  0.2133 -0.0773
 1707SOL    HW3 6882   0.582   4.688   3.108  0.7257  0.9336  0.0302
 1707SOL    MW4 6883   0.642   4.644   3.151  0.0005  0.0001 -0.0000
 1708SOL     OW 6884   0.429   0.087   3.037  0.0158 -0.0724 -0.2579
 1708SOL    HW2 6885   0.445   0.176   3.068 -0.6014  0.2914 -0.9709
 1708SOL    HW3 6886   0.338   0.069   3.060 -0.2134 -0.0847 -1.1515
 1708SOL    MW4 6887   0.419   0.096   3.044  0.0005  0.0001 -0.0000
 1709SOL     OW 6888   0.471   0.347   3.105  0.2196  0.1680 -0.0838
 1709SOL    HW2 6889   0.467   0.358   3.200  1.7662 -3.0972  0.4255
 1709SOL    HW3 6890   0.547   0.399   3.079  0.4427  0.2046  0.6173
 1709SOL    MW4 6891   0.480   0.355   3.114  0.0005  0.0001 -0.0000
 1710SOL     OW 6892   0.687   0.529   3.055 -0.0769  0.7002 -0.8842
 1710SOL    HW2 6893   0.772   0.484   3.057 -0.5358 -0.1585  2.5544
 1710SOL    HW3 6894   0.706   0.617   3.088 -0.6382  0.2510  0.6648
 1710SOL    MW4 6895   0.701   0.535   3.060  0.0005  0.0001 -0.0000
 1711SOL     OW 6896   0.727   0.793   3.152 -0.1582  0.0269 -0.4557
 1711SOL    HW2 6897   0.712   0.775   3.245 -0.8966  0.6624 -0.4476
 1711SOL    HW3 6898   0.640   0.808   3.116  0.1408 -0.0431 -1.2187
 1711SOL    MW4 6899   0.714   0.793   3.160  0.0005  0.0001 -0.0000
 1712SOL     OW 6900   0.473   0.855   3.023 -0.4592  0.1968 -0.0063
 1712SOL    HW2 6901   0.393   0.818   3.061 -0.7859 -0.2423 -1.1148
 1712SOL    HW3 6902   0.455   0.862   2.929  0.0225  2.1004  0.0171
 1712SOL    MW4 6903   0.460   0.851   3.016  0.0005  0.0001 -0.0000
 1713SOL     OW 6904   0.455   1.109   3.152  0.2031  0.4330  0.0784
 1713SOL    HW2 6905   0.477   1.030   3.103  2.5221  0.6122  0.7623
 1713SOL    HW3 6906   0.381   1.147   3.105  0.3734 -1.0607 -1.4361
 1713SOL    MW4 6907   0.448   1.104   3.139  0.0005  0.0001 -0.0000
 1714SOL     OW 6908   0.673   1.257   3.048  0.0473  0.4142  0.0055
 1714SOL    HW2 6909   0.756   1.232   3.089  0.0325  1.1841  0.5137
 1714SOL    HW3 6910   0.607   1.205   3.094  0.2988 -0.5975 -0.7634
 1714SOL    MW4 6911   0.675   1.247   3.059  0.0005  0.0001 -0.0000
 1715SOL     OW 6912   0.670   1.529   3.115 -0.0290 -0.0821 -0.4508
 1715SOL    HW2 6913   0.699   1.536   3.206  2.3593 -0.3385 -1.1566
 1715SOL    HW3 6914   0.674   1.435   3.095 -0.3760 -0.0107 -0.8666
 1715SOL    MW4 6915   0.674   1.517   3.124  0.0005  0.0001 -0.0000
 1716SOL     OW 6916   0.456   1.666   3.001  0.2326 -0.1559 -0.6402
 1716SOL    HW2 6917   0.529   1.635   3.054  1.0200  1.3707 -0.8010
 1716SOL    HW3 6918   0.386   1.604   3.018  1.3019 -1.1615  0.1710
 1716SOL    MW4 6919   0.456   1.654   3.010  0.0005  0.0001 -0.0000
 1717SOL     OW 6920   0.408   1.920   3.073 -0.2465 -0.2369 -0.0515
 1717SOL    HW2 6921   0.417   1.829   3.045 -0.1380 -0.1176 -0.4060
 1717SOL    HW3 6922   0.329   1.952   3.028  0.8585  0.4475 -1.5495
 1717SOL    MW4 6923   0.399   1.912   3.063  0.0005  0.0001 -0.0000
 1718SOL     OW 6924   0.637   2.082   2.975  0.1480  0.2549  0.0418
 1718SOL    HW2 6925   0.700   2.035   3.029  0.2412  0.6790  0.3055
 1718SOL    HW3 6926   0.557   2.029   2.979  0.0280  0.4961  0.9286
 1718SOL    MW4 6927   0.635   2.069   2.983  0.0005  0.0001 -0.0000
 1719SOL     OW 6928   0.662   2.343   3.092 -0.2623 -0.2191 -0.1232
 1719SOL    HW2 6929   0.646   2.338   3.186 -0.2512 -0.5269 -0.1383
 1719SOL    HW3 6930   0.650   2.253   3.061  3.2739 -0.8532  0.1443
 1719SOL    MW4 6931   0.658   2.330   3.100  0.0005  0.0001 -0.0000
 1720SOL     OW 6932   0.437   2.475   3.025 -0.2805  0.4589  0.1452
 1720SOL    HW2 6933   0.511   2.419   3.050 -0.6447 -0.3019 -0.4667
 1720SOL    HW3 6934   0.436   2.473   2.929 -1.0803  0.4825  0.1484
 1720SOL    MW4 6935   0.447   2.467   3.016  0.0005  0.0001 -0.0000
 1721SOL     OW 6936   0.434   2.739   3.128 -0.2333 -0.0292  0.1701
 1721SOL    HW2 6937   0.506   2.781   3.081  0.0686  1.0361  1.5388
 1721SOL    HW3 6938   0.437   2.647   3.101 -0.8628  0.7847 -2.8385
 1721SOL    MW4 6939   0.444   2.732   3.118  0.0005  0.0001 -0.0000
 1722SOL     OW 6940   0.660   2.857   3.021 -0.1846  0.1224  0.4018
 1722SOL    HW2 6941   0.741   2.814   3.048 -0.0721 -0.6285 -1.0680
 1722SOL    HW3 6942   0.669   2.947   3.052  1.3830  0.1392 -0.0687
 1722SOL    MW4 6943   0.672   2.863   3.029  0.0005  0.0001 -0.0000
 1723SOL     OW 6944   0.683   3.120   3.147 -0.1366  0.1179 -0.0079
 1723SOL    HW2 6945   0.668   3.117   3.242  1.3453  2.2094  0.3279
 1723SOL    HW3 6946   0.602   3.156   3.111 -0.6677 -0.5903  0.4652
 1723SOL    MW4 6947   0.670   3.124   3.155  0.0005  0.0001 -0.0000
 1724SOL     OW 6948   0.428   3.185   3.055 -0.1619 -0.5084  0.2269
 1724SOL    HW2 6949   0.426   3.281   3.060  0.3499 -0.5014  0.3590
 1724SOL    HW3 6950   0.342   3.157   3.086 -0.5358 -0.0659 -0.4030
 1724SOL    MW4 6951   0.416   3.194   3.060  0.0005  0.0001 -0.0000
 1725SOL     OW 6952   0.423   3.465   3.084 -0.0687  0.1960 -0.1271
 1725SOL    HW2 6953   0.419   3.477   3.179  0.2475  0.9525 -0.2057
 1725SOL    HW3 6954   0.345   3.509   3.051 -0.1047  0.0551 -0.2303
 1725SOL    MW4 6955   0.412   3.472   3.092  0.0005  0.0001 -0.0000
 1726SOL     OW 6956   0.626   3.625   2.987 -0.3136  0.3369  0.0820
 1726SOL    HW2 6957   0.714   3.605   3.019 -0.6854  0.4176  1.1858
 1726SOL    HW3 6958   0.570   3.559   3.028 -0.7028 -0.0396 -1.0258
 1726SOL    MW4 6959   0.630   3.614   2.997  0.0005  0.0001 -0.0000
 1727SOL     OW 6960   0.663   3.874   3.087 -0.7061  0.6545  0.0945
 1727SOL    HW2 6961   0.696   3.871   3.177  0.6917 -0.1865 -0.4321
 1727SOL    HW3 6962   0.641   3.783   3.066  0.7953  0.5346 -1.0571
 1727SOL    MW4 6963   0.664   3.862   3.096  0.0005  0.0001 -0.0000
 1728SOL     OW 6964   0.450   4.044   3.034 -0.0024  0.0699  0.5303
 1728SOL    HW2 6965   0.530   3.994   3.049 -0.9251 -1.3291  0.8892
 1728SOL    HW3 6966   0.438   4.043   2.939  1.4115  1.9120  0.3043
 1728SOL    MW4 6967   0.459   4.037   3.023  0.0005  0.0001 -0.0000
 1729SOL     OW 6968   0.451   4.286   3.162  0.6327 -0.0960 -0.2192
 1729SOL    HW2 6969   0.458   4.201   3.118  1.9635  0.9366 -2.0916
 1729SOL    HW3 6970   0.372   4.326   3.126  0.8965  0.1261 -0.5552
 1729SOL    MW4 6971   0.441   4.280   3.151  0.0005  0.0001 -0.0000
 1730SOL     OW 6972   0.693   4.387   3.060 -0.2475  0.6144  0.0536
 1730SOL    HW2 6973   0.604   4.354   3.072 -0.2337  0.4097 -0.3885
 1730SOL    HW3 6974   0.704   4.391   2.965  1.3269 -2.4008  0.0490
 1730SOL    MW4 6975   0.683   4.383   3.049  0.0005  0.0001 -0.0000
 1731SOL     OW 6976   1.077   4.635   3.125  0.4710 -0.4236 -0.5320
 1731SOL    HW2 6977   1.149   4.694   3.102 -0.7134  1.5777  0.7335
 1731SOL    HW3 6978   1.006   4.660   3.065  0.4595 -1.6413 -1.0371
 1731SOL    MW4 6979   1.077   4.646   3.114  0.0005  0.0001 -0.0000
 1732SOL     OW 6980   0.875   0.098   2.993 -0.1638  0.3838 -0.1046
 1732SOL    HW2 6981   0.903   0.182   3.028 -1.1948  0.1711  1.2540
 1732SOL    HW3 6982   0.804   0.070   3.050  0.8136 -1.8800  0.0656
 1732SOL    MW4 6983   0.869   0.105   3.005  0.0005  0.0001 -0.0000
 1733SOL     OW 6984   0.898   0.346   3.125  0.0606  0.3244  0.1355
 1733SOL    HW2 6985   0.895   0.351   3.220 -0.6356 -2.5218  0.3165
 1733SOL    HW3 6986   0.977   0.395   3.100  1.0769 -0.1794  2.2770
 1733SOL    MW4 6987   0.908   0.353   3.134  0.0005  0.0001 -0.0000
 1734SOL     OW 6988   1.112   0.475   3.013 -0.0387  0.1123 -0.1429
 1734SOL    HW2 6989   1.198   0.436   3.031 -1.1138 -2.8442 -1.0917
 1734SOL    HW3 6990   1.100   0.463   2.919 -1.6615  0.1338  0.0516
 1734SOL    MW4 6991   1.122   0.468   3.003  0.0005  0.0001 -0.0000
 1735SOL     OW 6992   1.113   0.759   3.122 -0.3146 -0.4927 -0.5736
 1735SOL    HW2 6993   1.113   0.740   3.216 -0.5762  0.0330 -0.4638
 1735SOL    HW3 6994   1.107   0.673   3.080  0.0662 -0.7475 -0.1145
 1735SOL    MW4 6995   1.112   0.745   3.129  0.0005  0.0001 -0.0000
 1736SOL     OW 6996   0.927   0.931   3.013 -0.1770  0.2091 -0.3715
 1736SOL    HW2 6997   0.982   0.869   3.062  0.9929  1.6608  0.1936
 1736SOL    HW3 6998   0.838   0.898   3.025  0.2904 -0.6129  1.0420
 1736SOL    MW4 6999   0.922   0.919   3.021  0.0005  0.0001 -0.0000
 1737SOL     OW 7000   0.912   1.183   3.143 -0.0021 -0.0191 -0.6532
 1737SOL    HW2 7001   1.000   1.218   3.130  0.3752 -0.5201  0.4877
 1737SOL    HW3 7002   0.917   1.093   3.112  0.4366 -0.6731  1.2476
 1737SOL    MW4 7003   0.924   1.176   3.137  0.0005  0.0001 -0.0000
 1738SOL     OW 7004   1.169   1.280   3.087  0.1533 -0.1271  0.3392
 1738SOL    HW2 7005   1.260   1.252   3.096 -0.9769 -4.4429 -0.5059
 1738SOL    HW3 7006   1.159   1.297   2.993  0.1392  0.6008  0.4703
 1738SOL    MW4 7007   1.180   1.279   3.076  0.0005  0.0001 -0.0000
 1739SOL     OW 7008   1.111   1.570   3.117  0.3333 -0.0492 -0.1099
 1739SOL    HW2 7009   1.198   1.605   3.096  0.6811  0.1042  1.5199
 1739SOL    HW3 7010   1.120   1.475   3.109  0.2869  0.0322 -1.2318
 1739SOL    MW4 7011   1.124   1.562   3.113  0.0005  0.0001 -0.0000
 1740SOL     OW 7012   0.878   1.669   2.992  0.7017 -0.1984  0.1380
 1740SOL    HW2 7013   0.950   1.638   3.047  0.3648  0.4102  0.9334
 1740SOL    HW3 7014   0.802   1.621   3.024  0.2628  1.0925  1.0720
 1740SOL    MW4 7015   0.877   1.659   3.003  0.0005  0.0001 -0.0000
 1741SOL     OW 7016   0.829   1.930   3.082 -0.6950 -0.3488  0.0236
 1741SOL    HW2 7017   0.831   1.899   3.173  0.9572 -0.2379  0.0409
 1741SOL    HW3 7018   0.845   1.851   3.030 -1.6636 -0.4160 -0.1806
 1741SOL    MW4 7019   0.831   1.916   3.087  0.0005  0.0001 -0.0000
 1742SOL     OW 7020   1.076   2.043   3.005  0.0606  0.1914  0.0133
 1742SOL    HW2 7021   0.991   2.011   3.037  0.9838 -2.0540  0.3158
 1742SOL    HW3 7022   1.066   2.047   2.910  0.2694 -2.1617 -0.1368
 1742SOL    MW4 7023   1.063   2.039   2.997  0.0005  0.0001 -0.0000
 1743SOL     OW 7024   1.128   2.297   3.105  0.1927  0.0501  0.0063
 1743SOL    HW2 7025   1.050   2.345   3.076  0.4315 -0.3140 -1.2671
 1743SOL    HW3 7026   1.117   2.209   3.069  0.4654 -0.4418  1.1029
 1743SOL    MW4 7027   1.116   2.292   3.096  0.0005  0.0001 -0.0000
 1744SOL     OW 7028   0.909   2.444   3.033  0.2987 -0.2785 -0.0364
 1744SOL    HW2 7029   0.822   2.405   3.037 -0.4143  1.2735 -0.0220
 1744SOL    HW3 7030   0.934   2.439   2.941  0.3965 -1.1434  0.0340
 1744SOL    MW4 7031   0.901   2.438   3.021  0.0005  0.0001 -0.0000
 1745SOL     OW 7032   0.896   2.724   3.114  0.5077  0.1502 -0.2114
 1745SOL    HW2 7033   0.901   2.723   3.210 -0.6427 -0.8115 -0.1536
 1745SOL    HW3 7034   0.898   2.632   3.088 -2.9321  0.1924 -0.8769
 1745SOL    MW4 7035   0.897   2.712   3.123  0.0005  0.0001 -0.0000
 1746SOL     OW 7036   1.131   2.821   2.994 -0.0824  0.6093  0.0032
 1746SOL    HW2 7037   1.144   2.910   3.027  0.8508 -0.1117  1.6427
 1746SOL    HW3 7038   1.051   2.791   3.037 -0.1037  0.4657 -0.1361
 1746SOL    MW4 7039   1.122   2.829   3.004  0.0005  0.0001 -0.0000
 1747SOL     OW 7040   1.148   3.096   3.105  0.4404  0.2077 -0.7887
 1747SOL    HW2 7041   1.218   3.147   3.066 -0.0106  1.1319 -0.4033
 1747SOL    HW3 7042   1.068   3.141   3.078  0.1489  1.3722  1.8636
 1747SOL    MW4 7043   1.147   3.109   3.096  0.0005  0.0001 -0.0000
 1748SOL     OW 7044   0.913   3.216   3.044 -0.0767  0.1163 -0.3394
 1748SOL    HW2 7045   0.830   3.178   3.074  1.1009 -2.1864  0.0882
 1748SOL    HW3 7046   0.903   3.225   2.949 -0.4963 -0.9913 -0.4038
 1748SOL    MW4 7047   0.901   3.212   3.035  0.0005  0.0001 -0.0000
 1749SOL     OW 7048   0.862   3.499   3.097 -0.2850  0.2929 -0.0498
 1749SOL    HW2 7049   0.940   3.548   3.072  0.3521 -0.6831  0.0090
 1749SOL    HW3 7050   0.885   3.407   3.083 -0.7091 -0.1393  1.8986
 1749SOL    MW4 7051   0.875   3.493   3.092  0.0005  0.0001 -0.0000
 1750SOL     OW 7052   1.097   3.623   3.051  0.2484 -0.0251 -0.6979
 1750SOL    HW2 7053   1.185   3.591   3.069  0.4073 -0.0499 -1.5064
 1750SOL    HW3 7054   1.095   3.710   3.091  0.8861  0.2797 -1.3156
 1750SOL    MW4 7055   1.108   3.630   3.059  0.0005  0.0001 -0.0000
 1751SOL     OW 7056   1.113   3.882   3.144 -0.0995  0.1493 -0.2701
 1751SOL    HW2 7057   1.094   3.890   3.238  0.0918  1.3092 -0.3225
 1751SOL    HW3 7058   1.039   3.925   3.101 -0.0388 -0.1187 -0.6440
 1751SOL    MW4 7059   1.101   3.889   3.151  0.0005  0.0001 -0.0000
 1752SOL     OW 7060   0.893   4.003   3.014 -0.4698  0.4175 -0.2983
 1752SOL    HW2 7061   0.806   3.975   3.042 -0.2164 -1.7707 -1.5861
 1752SOL    HW3 7062   0.890   3.999   2.918  0.9052  0.7644 -0.3672
 1752SOL    MW4 7063   0.881   3.999   3.005  0.0005  0.0001 -0.0000
 1753SOL     OW 7064   0.927   4.260   3.155  0.3192  0.6915  0.0465
 1753SOL    HW2 7065   0.933   4.175   3.111  0.2715  0.9075 -0.3808
 1753SOL    HW3 7066   0.841   4.293   3.131  0.3821  0.9108  0.1231
 1753SOL    MW4 7067   0.916   4.253   3.146  0.0005  0.0001 -0.0000
 1754SOL     OW 7068   1.107   4.415   2.980  0.3831  0.7333 -0.0732
 1754SOL    HW2 7069   1.029   4.370   3.012  0.1205  0.9558 -0.3978
 1754SOL    HW3 7070   1.112   4.494   3.033  0.4867  0.6336  0.0667
 1754SOL    MW4 7071   1.097   4.420   2.991  0.0005  0.0001 -0.0000
 1755SOL     OW 7072   1.536   4.646   3.123 -0.0153 -0.2161 -0.4837
 1755SOL    HW2 7073   1.545   4.648   3.218 -0.6928  1.0757 -0.4300
 1755SOL    HW3 7074   1.451   4.687   3.107  0.9492  1.3368 -1.7441
 1755SOL    MW4 7075   1.526   4.652   3.133  0.0005  0.0001 -0.0000
 1756SOL     OW 7076   1.295   0.103   3.014  0.1390  0.6549  0.2300
 1756SOL    HW2 7077   1.326   0.192   3.030  1.1387  0.1341  1.2697
 1756SOL    HW3 7078   1.314   0.087   2.922  0.9007  1.1539  0.2971
 1756SOL    MW4 7079   1.302   0.113   3.004  0.0005  0.0001 -0.0000
 1757SOL     OW 7080   1.371   0.373   3.100  0.1144 -0.2409 -0.4653
 1757SOL    HW2 7081   1.355   0.384   3.194 -0.9862  4.1838 -1.0636
 1757SOL    HW3 7082   1.445   0.430   3.081 -0.7950  0.2907 -2.5843
 1757SOL    MW4 7083   1.379   0.382   3.110  0.0005  0.0001 -0.0000
 1758SOL     OW 7084   1.599   0.512   3.018 -0.2898  0.5051  0.0262
 1758SOL    HW2 7085   1.604   0.604   3.045  2.3040  1.0517 -2.1168
 1758SOL    HW3 7086   1.589   0.515   2.923  0.9926 -1.4253 -0.2021
 1758SOL    MW4 7087   1.598   0.525   3.009  0.0005  0.0001 -0.0000
 1759SOL     OW 7088   1.642   0.770   3.118  0.1628 -0.2544 -0.4095
 1759SOL    HW2 7089   1.640   0.758   3.213  1.7593  0.8110 -0.2201
 1759SOL    HW3 7090   1.553   0.795   3.095 -0.2201 -0.4602  0.8179
 1759SOL    MW4 7091   1.630   0.772   3.127  0.0005  0.0001 -0.0000
 1760SOL     OW 7092   1.360   0.857   3.050 -0.3749  0.1380 -0.5286
 1760SOL    HW2 7093   1.368   0.951   3.068  0.5215  0.4588 -2.4213
 1760SOL    HW3 7094   1.277   0.831   3.090 -1.1448  1.9744 -0.9007
 1760SOL    MW4 7095   1.350   0.866   3.058  0.0005  0.0001 -0.0000
 1761SOL     OW 7096   1.389   1.118   3.119 -0.3573 -0.0164  0.0283
 1761SOL    HW2 7097   1.381   1.125   3.214  1.9016 -0.5578  0.2856
 1761SOL    HW3 7098   1.473   1.158   3.099 -0.1343 -1.2342 -1.5781
 1761SOL    MW4 7099   1.399   1.124   3.129  0.0005  0.0001 -0.0000
 1762SOL     OW 7100   1.594   1.297   3.037 -0.3189  0.0690  0.1194
 1762SOL    HW2 7101   1.678   1.261   3.066  0.5155  0.2088 -2.0028
 1762SOL    HW3 7102   1.596   1.389   3.065  0.9541  0.4987 -1.3187
 1762SOL    MW4 7103   1.605   1.304   3.045  0.0005  0.0001 -0.0000
 1763SOL     OW 7104   1.590   1.553   3.119 -0.2114  0.1113 -0.1547
 1763SOL    HW2 7105   1.668   1.596   3.084 -0.2880  0.8577  0.5690
 1763SOL    HW3 7106   1.518   1.612   3.095 -0.3566  0.2345  0.5857
 1763SOL    MW4 7107   1.591   1.566   3.111  0.0005  0.0001 -0.0000
 1764SOL     OW 7108   1.346   1.695   3.041  0.2341 -0.0395  0.2178
 1764SOL    HW2 7109   1.342   1.790   3.055 -0.1735 -0.0546  0.2088
 1764SOL    HW3 7110   1.333   1.684   2.947 -1.2156 -0.1915  0.4246
 1764SOL    MW4 7111   1.344   1.706   3.030  0.0005  0.0001 -0.0000
 1765SOL     OW 7112   1.336   1.974   3.089  0.2097  0.3709  0.4992
 1765SOL    HW2 7113   1.333   1.973   3.185  0.2031  2.3014  0.5366
 1765SOL    HW3 7114   1.249   2.002   3.062  0.2852  0.0702 -0.0705
 1765SOL    MW4 7115   1.324   1.978   3.098  0.0005  0.0001 -0.0000
 1766SOL     OW 7116   1.608   2.051   3.010 -0.2571  0.3709 -0.0217
 1766SOL    HW2 7117   1.524   2.018   3.041  0.4696 -0.9165  0.6106
 1766SOL    HW3 7118   1.599   2.052   2.915 -0.8707 -0.0848  0.0261
 1766SOL    MW4 7119   1.596   2.047   3.002  0.0005  0.0001 -0.0000
 1767SOL     OW 7120   1.570   2.329   3.072 -0.0235  0.6384  0.1227
 1767SOL    HW2 7121   1.497   2.356   3.016 -0.1264  0.5770  0.2270
 1767SOL    HW3 7122   1.581   2.236   3.053  0.4686  0.7991 -0.3933
 1767SOL    MW4 7123   1.562   2.320   3.062  0.0005  0.0001 -0.0000
 1768SOL     OW 7124   1.360   2.484   2.989 -0.0242 -0.1268  0.2113
 1768SOL    HW2 7125   1.287   2.436   3.028 -0.8002  0.2054 -0.8223
 1768SOL    HW3 7126   1.343   2.481   2.895  0.4673  1.2931  0.0682
 1768SOL    MW4 7127   1.348   2.477   2.982  0.0005  0.0001 -0.0000
 1769SOL     OW 7128   1.372   2.741   3.110  0.2958 -0.2604 -0.2091
 1769SOL    HW2 7129   1.362   2.649   3.086  0.4863 -0.3377  0.0017
 1769SOL    HW3 7130   1.289   2.782   3.086 -0.1089 -0.6615  0.4922
 1769SOL    MW4 7131   1.360   2.734   3.104  0.0005  0.0001 -0.0000
 1770SOL     OW 7132   1.578   2.862   2.983 -0.2707 -0.1486 -0.0036
 1770SOL    HW2 7133   1.647   2.808   3.020  0.0476  0.9363  1.0198
 1770SOL    HW3 7134   1.497   2.828   3.021 -0.0391  0.3084  0.9110
 1770SOL    MW4 7135   1.576   2.850   2.993  0.0005  0.0001 -0.0000
 1771SOL     OW 7136   1.602   3.117   3.107 -0.3284 -0.1657  0.2562
 1771SOL    HW2 7137   1.618   3.114   3.201 -1.2610  1.6117  0.4915
 1771SOL    HW3 7138   1.601   3.025   3.080 -1.1042 -0.7424  2.1602
 1771SOL    MW4 7139   1.604   3.104   3.116  0.0005  0.0001 -0.0000
 1772SOL     OW 7140   1.361   3.215   2.994 -0.0619  0.0793  0.0176
 1772SOL    HW2 7141   1.435   3.183   3.046 -0.9450 -2.2047 -0.0720
 1772SOL    HW3 7142   1.392   3.212   2.903 -0.4523 -1.4587 -0.0743
 1772SOL    MW4 7143   1.375   3.210   2.989  0.0005  0.0001 -0.0000
 1773SOL     OW 7144   1.336   3.490   3.105 -0.1894  0.0478  0.2291
 1773SOL    HW2 7145   1.347   3.468   3.198 -0.1964  0.7774  0.4060
 1773SOL    HW3 7146   1.339   3.406   3.060 -0.4000 -0.3309  0.9145
 1773SOL    MW4 7147   1.338   3.476   3.111  0.0005  0.0001 -0.0000
 1774SOL     OW 7148   1.551   3.643   2.993  0.2806  0.1250 -0.1104
 1774SOL    HW2 7149   1.486   3.582   3.028  0.6317  0.2107  0.6971
 1774SOL    HW3 7150   1.544   3.633   2.898 -1.1770  0.4107 -0.0466
 1774SOL    MW4 7151   1.542   3.634   2.985  0.0005  0.0001 -0.0000
 1775SOL     OW 7152   1.566   3.893   3.163  0.3562 -0.3423 -0.1047
 1775SOL    HW2 7153   1.650   3.932   3.141  0.3356 -0.1672  0.1189
 1775SOL    HW3 7154   1.562   3.812   3.112  0.8904 -0.6191  0.2905
 1775SOL    MW4 7155   1.577   3.887   3.153  0.0005  0.0001 -0.0000
 1776SOL     OW 7156   1.342   3.986   3.013 -0.4136 -0.4660  0.0800
 1776SOL    HW2 7157   1.421   3.976   3.066 -0.4351 -0.5045  0.1053
 1776SOL    HW3 7158   1.277   3.930   3.056 -0.2463 -1.0093 -0.3586
 1776SOL    MW4 7159   1.344   3.977   3.026  0.0005  0.0001 -0.0000
 1777SOL     OW 7160   1.290   4.255   3.111 -0.1307 -0.0884 -0.3987
 1777SOL    HW2 7161   1.299   4.166   3.076 -1.2864 -0.1579 -0.5468
 1777SOL    HW3 7162   1.227   4.297   3.052  1.3562  1.2329 -1.0781
 1777SOL    MW4 7163   1.283   4.249   3.099  0.0005  0.0001 -0.0000
 1778SOL     OW 7164   1.498   4.399   3.006  0.3131  0.0377 -0.0097
 1778SOL    HW2 7165   1.423   4.356   3.047 -0.3647  1.6769  0.5142
 1778SOL    HW3 7166   1.495   4.489   3.039  1.7427  0.4725 -1.0174
 1778SOL    MW4 7167   1.488   4.405   3.016  0.0005  0.0001 -0.0000
 1779SOL     OW 7168   2.020   4.658   3.124 -0.4419  0.0871 -0.1056
 1779SOL    HW2 7169   2.016   4.646   3.219 -0.5540  0.7400 -0.0251
 1779SOL    HW3 7170   1.943   4.711   3.103 -1.4925 -1.6773 -0.8240
 1779SOL    MW4 7171   2.009   4.663   3.134  0.0005  0.0001 -0.0000
 1780SOL     OW 7172   1.773   0.111   3.065 -0.0207 -1.1146 -0.2818
 1780SOL    HW2 7173   1.694   0.060   3.079 -0.9867  0.0683 -1.2910
 1780SOL    HW3 7174   1.777   0.123   2.970 -0.3752  1.5157 -0.0008
 1780SOL    MW4 7175   1.763   0.106   3.054  0.0005  0.0001 -0.0000
 1781SOL     OW 7176   1.786   0.372   3.146 -0.2830  0.4707 -0.2852
 1781SOL    HW2 7177   1.767   0.280   3.127 -0.7671  0.4603  0.2359
 1781SOL    HW3 7178   1.708   0.419   3.117  0.0116  0.7323 -0.6583
 1781SOL    MW4 7179   1.773   0.366   3.140  0.0005  0.0001 -0.0000
 1782SOL     OW 7180   1.974   0.521   3.016 -0.3474  0.1778 -0.6020
 1782SOL    HW2 7181   1.916   0.468   3.071 -0.3792 -0.9492 -1.7029
 1782SOL    HW3 7182   1.950   0.498   2.926  2.5896 -1.2112 -1.0928
 1782SOL    MW4 7183   1.963   0.511   3.011  0.0005  0.0001 -0.0000
 1783SOL     OW 7184   2.045   0.781   3.056 -0.2112  0.1579 -0.0078
 1783SOL    HW2 7185   1.963   0.819   3.024 -0.5480  0.6223  1.3655
 1783SOL    HW3 7186   2.031   0.686   3.054 -0.5626  0.2179 -0.3404
 1783SOL    MW4 7187   2.032   0.774   3.052  0.0005  0.0001 -0.0000
 1784SOL     OW 7188   1.830   0.925   2.994  0.1612  0.6605 -0.1810
 1784SOL    HW2 7189   1.764   0.868   3.034  1.1487 -0.1908  0.2606
 1784SOL    HW3 7190   1.811   0.922   2.900  1.2210 -1.7586 -0.3568
 1784SOL    MW4 7191   1.819   0.917   2.987  0.0005  0.0001 -0.0000
 1785SOL     OW 7192   1.831   1.169   3.119 -0.3677 -0.4915  0.3827
 1785SOL    HW2 7193   1.818   1.159   3.213 -0.1109 -1.4222  0.3214
 1785SOL    HW3 7194   1.844   1.080   3.087 -0.5730 -0.1881 -0.5515
 1785SOL    MW4 7195   1.831   1.156   3.127  0.0005  0.0001 -0.0000
 1786SOL     OW 7196   2.049   1.280   2.978  0.0105 -0.8130 -0.1674
 1786SOL    HW2 7197   2.122   1.236   3.023  0.1359  0.2281  0.6671
 1786SOL    HW3 7198   1.971   1.249   3.024  0.1833  0.7564  1.2326
 1786SOL    MW4 7199   2.048   1.270   2.990  0.0005  0.0001 -0.0000
 1787SOL     OW 7200   2.047   1.548   3.103  0.2760 -0.1514 -0.1672
 1787SOL    HW2 7201   2.040   1.528   3.196  2.5600 -0.8656 -0.1162
 1787SOL    HW3 7202   2.053   1.462   3.061  0.2038  0.1926 -0.8843
 1787SOL    MW4 7203   2.047   1.534   3.110  0.0005  0.0001 -0.0000
 1788SOL     OW 7204   1.803   1.687   3.007  0.1940  0.1047  0.2950
 1788SOL    HW2 7205   1.835   1.771   3.039  0.8714  0.7937 -2.0885
 1788SOL    HW3 7206   1.879   1.629   3.013  0.3682  0.2786 -0.2046
 1788SOL    MW4 7207   1.817   1.690   3.012  0.0005  0.0001 -0.0000
 1789SOL     OW 7208   1.862   1.950   3.086 -0.0890  0.0035  0.0685
 1789SOL    HW2 7209   1.929   1.998   3.038 -0.0736  0.2456  0.3307
 1789SOL    HW3 7210   1.780   1.992   3.061 -0.0369  0.4408  0.6223
 1789SOL    MW4 7211   1.860   1.962   3.076  0.0005  0.0001 -0.0000
 1790SOL     OW 7212   2.054   2.129   2.981  0.0824 -0.3388 -0.0486
 1790SOL    HW2 7213   2.130   2.082   3.016  0.0499 -0.9325 -0.7572
 1790SOL    HW3 7214   2.057   2.215   3.023  1.1732 -0.3437 -0.1064
 1790SOL    MW4 7215   2.064   2.134   2.991  0.0005  0.0001 -0.0000
 1791SOL     OW 7216   2.080   2.356   3.118 -0.0993  0.1442  0.2457
 1791SOL    HW2 7217   2.161   2.386   3.076  0.0535  0.8384  1.0225
 1791SOL    HW3 7218   2.011   2.405   3.075  0.2351  2.4332  2.2114
 1791SOL    MW4 7219   2.082   2.366   3.107  0.0005  0.0001 -0.0000
 1792SOL     OW 7220   1.824   2.438   2.994 -0.0629  0.1316 -0.1667
 1792SOL    HW2 7221   1.810   2.532   3.007  0.1716  0.4669 -2.1944
 1792SOL    HW3 7222   1.738   2.399   3.008 -0.0491  0.5662  1.2424
 1792SOL    MW4 7223   1.811   2.445   2.998  0.0005  0.0001 -0.0000
 1793SOL     OW 7224   1.788   2.711   3.072  0.0878  0.1575 -0.1939
 1793SOL    HW2 7225   1.786   2.709   3.168 -0.5061  0.8747 -0.1864
 1793SOL    HW3 7226   1.875   2.745   3.050  0.0384  0.4751  0.1004
 1793SOL    MW4 7227   1.799   2.715   3.082  0.0005  0.0001 -0.0000
 1794SOL     OW 7228   2.028   2.844   3.041  0.0669 -0.3005  0.1045
 1794SOL    HW2 7229   2.033   2.936   3.066 -3.1576 -0.1942  0.5634
 1794SOL    HW3 7230   2.036   2.845   2.946 -0.5342  0.5184  0.0560
 1794SOL    MW4 7231   2.030   2.856   3.032  0.0005  0.0001 -0.0000
 1795SOL     OW 7232   2.038   3.095   3.103 -0.1846  0.2166 -0.1544
 1795SOL    HW2 7233   2.038   3.122   3.195 -0.1911 -0.6767  0.1131
 1795SOL    HW3 7234   1.958   3.132   3.067 -0.0532  0.7866  0.1353
 1795SOL    MW4 7235   2.027   3.103   3.110  0.0005  0.0001 -0.0000
 1796SOL     OW 7236   1.830   3.240   2.983  0.4938 -0.6319  0.2776
 1796SOL    HW2 7237   1.749   3.200   3.014 -0.2189 -0.2210 -1.0182
 1796SOL    HW3 7238   1.826   3.230   2.888  1.3374  0.5755  0.1107
 1796SOL    MW4 7239   1.819   3.233   2.975  0.0005  0.0001 -0.0000
 1797SOL     OW 7240   1.789   3.530   3.077 -0.0715 -0.3282 -0.1398
 1797SOL    HW2 7241   1.775   3.444   3.037  0.4917 -0.7689  0.6030
 1797SOL    HW3 7242   1.716   3.583   3.045 -0.0383 -0.8811 -1.1603
 1797SOL    MW4 7243   1.778   3.526   3.068  0.0005  0.0001 -0.0000
 1798SOL     OW 7244   2.038   3.630   2.981 -0.3830  0.3546  0.0911
 1798SOL    HW2 7245   2.042   3.710   3.033 -1.8719  1.0890 -0.8940
 1798SOL    HW3 7246   1.954   3.590   3.004  0.2055 -0.7550  0.3322
 1798SOL    MW4 7247   2.027   3.635   2.991  0.0005  0.0001 -0.0000
 1799SOL     OW 7248   2.019   3.871   3.115  0.2460  0.3661  0.4716
 1799SOL    HW2 7249   2.039   3.871   3.209  1.2779 -0.4699  0.2571
 1799SOL    HW3 7250   1.943   3.929   3.107  0.6884  1.1387  1.7065
 1799SOL    MW4 7251   2.012   3.879   3.126  0.0005  0.0001 -0.0000
 1800SOL     OW 7252   1.793   4.035   3.075  0.2666 -0.2848 -0.4284
 1800SOL    HW2 7253   1.772   4.126   3.095 -1.5435 -0.5629 -0.9759
 1800SOL    HW3 7254   1.790   4.030   2.979 -0.7804 -1.1675 -0.3591
 1800SOL    MW4 7255   1.790   4.046   3.065  0.0005  0.0001 -0.0000
 1801SOL     OW 7256   1.726   4.300   3.133 -0.3832 -0.0471 -0.2374
 1801SOL    HW2 7257   1.789   4.358   3.091 -0.7177  0.8248  0.4518
 1801SOL    HW3 7258   1.640   4.334   3.107 -0.5858  0.1568  0.6758
 1801SOL    MW4 7259   1.723   4.312   3.124  0.0005  0.0001 -0.0000
 1802SOL     OW 7260   1.958   4.409   3.026  0.1576  0.1889  0.3302
 1802SOL    HW2 7261   1.960   4.494   3.070  1.5978  0.4432 -0.1917
 1802SOL    HW3 7262   1.997   4.426   2.940 -1.0823 -0.6501 -0.4144
 1802SOL    MW4 7263   1.963   4.422   3.021  0.0005  0.0001 -0.0000
 1803SOL     OW 7264   2.453   4.627   3.164  0.2197 -0.2901  0.1185
 1803SOL    HW2 7265   2.463   4.547   3.113  0.5782 -1.2266  1.6276
 1803SOL    HW3 7266   2.377   4.670   3.126 -0.3204 -1.6283 -0.3480
 1803SOL    MW4 7267   2.444   4.622   3.152  0.0005  0.0001 -0.0000
 1804SOL     OW 7268   2.271   0.102   3.018  0.5519  0.1286  0.1052
 1804SOL    HW2 7269   2.256   0.196   3.029  0.2310  0.1168 -0.2427
 1804SOL    HW3 7270   2.193   0.061   3.056  0.1986  0.0375 -0.7095
 1804SOL    MW4 7271   2.259   0.109   3.024  0.0005  0.0001 -0.0000
 1805SOL     OW 7272   2.188   0.357   3.073  0.1477 -0.2810 -0.2508
 1805SOL    HW2 7273   2.190   0.381   3.166  1.1458  0.1689 -0.3858
 1805SOL    HW3 7274   2.106   0.394   3.041 -1.0745 -1.9585  0.8494
 1805SOL    MW4 7275   2.177   0.365   3.081  0.0005  0.0001 -0.0000
 1806SOL     OW 7276   2.401   0.517   3.004 -0.1547  0.4963  0.3994
 1806SOL    HW2 7277   2.314   0.477   3.009  1.0456 -1.9854  2.4246
 1806SOL    HW3 7278   2.417   0.529   2.910 -2.0764 -0.3674 -0.0574
 1806SOL    MW4 7279   2.392   0.513   2.992  0.0005  0.0001 -0.0000
 1807SOL     OW 7280   2.458   0.752   3.108 -0.0870 -0.4388 -0.0795
 1807SOL    HW2 7281   2.541   0.770   3.063 -0.2586 -0.4561 -0.4053
 1807SOL    HW3 7282   2.432   0.665   3.076 -1.2419  0.4127 -1.5202
 1807SOL    MW4 7283   2.465   0.743   3.098  0.0005  0.0001 -0.0000
 1808SOL     OW 7284   2.285   0.919   2.978 -0.1574 -0.0596  0.4788
 1808SOL    HW2 7285   2.347   0.873   3.035  0.0997  1.1314  1.1825
 1808SOL    HW3 7286   2.201   0.877   2.994  0.4517 -1.6783 -0.4661
 1808SOL    MW4 7287   2.282   0.907   2.988  0.0005  0.0001 -0.0000
 1809SOL     OW 7288   2.298   1.176   3.100 -0.0463 -0.2617  0.1910
 1809SOL    HW2 7289   2.294   1.161   3.195  0.9904  0.7509  0.4040
 1809SOL    HW3 7290   2.309   1.089   3.063 -0.8755 -0.7106  0.9733
 1809SOL    MW4 7291   2.299   1.163   3.108  0.0005  0.0001 -0.0000
 1810SOL     OW 7292   2.515   1.321   2.985  0.0870 -0.3713  0.3970
 1810SOL    HW2 7293   2.437   1.281   3.024  0.9043 -1.9272  0.4747
 1810SOL    HW3 7294   2.499   1.317   2.891 -0.2741  0.0417  0.4392
 1810SOL    MW4 7295   2.503   1.315   2.978  0.0005  0.0001 -0.0000
 1811SOL     OW 7296   2.480   1.566   3.094  0.1532  0.3516 -0.1720
 1811SOL    HW2 7297   2.392   1.593   3.068 -0.0718 -0.2911 -0.0852
 1811SOL    HW3 7298   2.494   1.483   3.049  0.8650  0.6370 -0.4856
 1811SOL    MW4 7299   2.470   1.559   3.085  0.0005  0.0001 -0.0000
 1812SOL     OW 7300   2.249   1.700   3.010  0.1571 -0.0895  0.3402
 1812SOL    HW2 7301   2.181   1.654   3.060 -0.5628 -0.3300 -0.8400
 1812SOL    HW3 7302   2.214   1.705   2.921  1.8327 -0.5075 -0.3610
 1812SOL    MW4 7303   2.235   1.695   3.005  0.0005  0.0001 -0.0000
 1813SOL     OW 7304   2.243   1.959   3.098  0.2092  0.4718  0.1050
 1813SOL    HW2 7305   2.319   2.006   3.064  0.3728 -0.1478 -0.3855
 1813SOL    HW3 7306   2.251   1.870   3.063 -0.4513  0.2538  0.4887
 1813SOL    MW4 7307   2.254   1.953   3.089  0.0005  0.0001 -0.0000
 1814SOL     OW 7308   2.470   2.110   2.997 -0.0378  0.0351  0.0100
 1814SOL    HW2 7309   2.548   2.070   3.036  0.0347  1.5709  1.5010
 1814SOL    HW3 7310   2.475   2.087   2.904  1.9491 -0.2711  0.1717
 1814SOL    MW4 7311   2.481   2.102   2.990  0.0005  0.0001 -0.0000
 1815SOL     OW 7312   2.488   2.359   3.110  0.8058 -0.6669 -0.2973
 1815SOL    HW2 7313   2.481   2.344   3.204 -1.1198 -1.3266 -0.5261
 1815SOL    HW3 7314   2.484   2.272   3.071 -2.3319 -0.1913 -1.1800
 1815SOL    MW4 7315   2.487   2.345   3.117  0.0005  0.0001 -0.0000
 1816SOL     OW 7316   2.285   2.469   2.965  0.2298  0.1625  0.0291
 1816SOL    HW2 7317   2.281   2.552   3.013  0.9715 -0.1252  0.6071
 1816SOL    HW3 7318   2.355   2.420   3.009 -1.2057 -1.3703  0.6514
 1816SOL    MW4 7319   2.294   2.473   2.977  0.0005  0.0001 -0.0000
 1817SOL     OW 7320   2.256   2.694   3.113  0.0345 -0.3892 -0.0547
 1817SOL    HW2 7321   2.321   2.753   3.076 -0.6732  0.2258 -0.3289
 1817SOL    HW3 7322   2.175   2.745   3.114 -0.1748 -0.7268  1.4299
 1817SOL    MW4 7323   2.254   2.709   3.108  0.0005  0.0001 -0.0000
 1818SOL     OW 7324   2.484   2.835   3.034 -0.2388  0.4045 -0.1260
 1818SOL    HW2 7325   2.506   2.922   3.067  3.1045 -0.2014 -0.5799
 1818SOL    HW3 7326   2.487   2.844   2.939  0.2747 -0.2318 -0.1734
 1818SOL    MW4 7327   2.487   2.848   3.026  0.0005  0.0001 -0.0000
 1819SOL     OW 7328   2.530   3.106   3.106  0.0544 -0.0726  0.3458
 1819SOL    HW2 7329   2.610   3.153   3.083  0.6463 -0.7171  1.0760
 1819SOL    HW3 7330   2.460   3.158   3.066  0.8700  0.1858 -0.7788
 1819SOL    MW4 7331   2.531   3.119   3.098  0.0005  0.0001 -0.0000
 1820SOL     OW 7332   2.282   3.215   3.030  0.2403  0.0255 -0.0854
 1820SOL    HW2 7333   2.264   3.307   3.048 -0.2976 -0.0509 -0.2177
 1820SOL    HW3 7334   2.204   3.169   3.062  0.1303 -0.2980 -0.8111
 1820SOL    MW4 7335   2.269   3.221   3.037  0.0005  0.0001 -0.0000
 1821SOL     OW 7336   2.229   3.475   3.102  0.3266 -0.1198 -0.0464
 1821SOL    HW2 7337   2.302   3.514   3.055  0.3150 -2.0903 -1.7712
 1821SOL    HW3 7338   2.151   3.509   3.058  0.2525  0.1257  0.2723
 1821SOL    MW4 7339   2.228   3.485   3.090  0.0005  0.0001 -0.0000
 1822SOL     OW 7340   2.430   3.617   2.967  0.0714 -0.1788  0.3422
 1822SOL    HW2 7341   2.509   3.570   2.994 -0.2777 -0.7631  0.3616
 1822SOL    HW3 7342   2.431   3.698   3.018  1.6088  0.6687 -0.9889
 1822SOL    MW4 7343   2.441   3.621   2.977  0.0005  0.0001 -0.0000
 1823SOL     OW 7344   2.472   3.872   3.105 -0.5753  0.0959  0.3845
 1823SOL    HW2 7345   2.477   3.869   3.201 -0.1246 -1.3743  0.3264
 1823SOL    HW3 7346   2.556   3.910   3.078 -1.1420  1.5390  0.6063
 1823SOL    MW4 7347   2.484   3.877   3.114  0.0005  0.0001 -0.0000
 1824SOL     OW 7348   2.234   4.020   3.023 -0.1132 -0.3578 -0.5170
 1824SOL    HW2 7349   2.308   3.966   3.052 -0.0574  1.7501  3.7324
 1824SOL    HW3 7350   2.156   3.973   3.053 -0.2742 -0.3709 -0.9568
 1824SOL    MW4 7351   2.233   4.007   3.031  0.0005  0.0001 -0.0000
 1825SOL     OW 7352   2.194   4.268   3.154  0.2602  0.0160 -0.8228
 1825SOL    HW2 7353   2.215   4.179   3.125  0.9529  0.2992 -1.2010
 1825SOL    HW3 7354   2.103   4.281   3.127  0.5377 -0.1405 -1.8567
 1825SOL    MW4 7355   2.185   4.258   3.147  0.0005  0.0001 -0.0000
 1826SOL     OW 7356   2.444   4.374   3.057  0.1325 -0.2024 -0.2030
 1826SOL    HW2 7357   2.362   4.333   3.083 -1.0063  2.5977  0.7535
 1826SOL    HW3 7358   2.438   4.381   2.962 -0.5972 -0.2710 -0.1622
 1826SOL    MW4 7359   2.432   4.370   3.048  0.0005  0.0001 -0.0000
 1827SOL     OW 7360   2.885   0.037   3.107 -0.0984  0.0597 -0.1987
 1827SOL    HW2 7361   2.970   0.064   3.073 -0.5814 -0.1978 -1.6488
 1827SOL    HW3 7362   2.882  -0.057   3.091 -0.9008  0.1687 -0.7201
 1827SOL    MW4 7363   2.896   0.028   3.100  0.0005  0.0001 -0.0000
 1828SOL     OW 7364   2.640   0.127   3.002  0.2381  0.4944  0.1516
 1828SOL    HW2 7365   2.721   0.091   3.039  0.0363  0.1245  0.2365
 1828SOL    HW3 7366   2.571   0.073   3.039  0.1005 -0.5288 -1.5466
 1828SOL    MW4 7367   2.642   0.115   3.012  0.0005  0.0001 -0.0000
 1829SOL     OW 7368   2.630   0.388   3.084  0.0053  0.3926  0.0133
 1829SOL    HW2 7369   2.637   0.299   3.050  0.3597  0.4008  0.0619
 1829SOL    HW3 7370   2.544   0.418   3.055  0.3114  0.4050 -0.8977
 1829SOL    MW4 7371   2.620   0.380   3.076  0.0005  0.0001 -0.0000
 1830SOL     OW 7372   2.875   0.466   2.984  0.3888 -0.2795  0.1275
 1830SOL    HW2 7373   2.799   0.418   3.016 -0.1937  1.4420  1.4155
 1830SOL    HW3 7374   2.872   0.456   2.889 -1.9789  0.5208  0.0892
 1830SOL    MW4 7375   2.865   0.458   2.976  0.0005  0.0001 -0.0000
 1831SOL     OW 7376   2.930   0.741   3.051 -0.2232  0.1123  0.0183
 1831SOL    HW2 7377   2.924   0.736   3.146 -0.7333 -0.0967 -0.0242
 1831SOL    HW3 7378   2.922   0.650   3.021  1.2566  0.0261 -0.1549
 1831SOL    MW4 7379   2.928   0.728   3.060  0.0005  0.0001 -0.0000
 1832SOL     OW 7380   2.683   0.868   2.998  0.1006 -0.0958  0.5186
 1832SOL    HW2 7381   2.692   0.961   3.018  0.2666 -0.3683  1.7549
 1832SOL    HW3 7382   2.772   0.833   3.007  0.2305 -0.1834 -0.9861
 1832SOL    MW4 7383   2.696   0.876   3.002  0.0005  0.0001 -0.0000
 1833SOL     OW 7384   2.719   1.127   3.069  0.6774 -0.1344 -0.0708
 1833SOL    HW2 7385   2.801   1.173   3.052  0.9488 -0.8794 -0.7981
 1833SOL    HW3 7386   2.652   1.195   3.062  1.3380  0.7584  1.9076
 1833SOL    MW4 7387   2.721   1.142   3.066  0.0005  0.0001 -0.0000
 1834SOL     OW 7388   2.933   1.289   3.006 -0.1383  0.1049  0.3937
 1834SOL    HW2 7389   3.019   1.250   3.021  0.4748  1.4729  0.5376
 1834SOL    HW3 7390   2.937   1.373   3.052 -0.5107  1.4902 -2.0260
 1834SOL    MW4 7391   2.945   1.295   3.014  0.0005  0.0001 -0.0000
 1835SOL     OW 7392   2.923   1.569   3.110 -0.2110 -0.2028 -0.3736
 1835SOL    HW2 7393   2.928   1.594   3.202 -1.4051 -0.0778 -0.3334
 1835SOL    HW3 7394   3.003   1.604   3.071  0.2021 -0.0822  0.5725
 1835SOL    MW4 7395   2.934   1.577   3.117  0.0005  0.0001 -0.0000
 1836SOL     OW 7396   2.712   1.730   3.020  0.5144  0.1638 -0.4571
 1836SOL    HW2 7397   2.785   1.677   3.051  0.7498 -0.1858 -1.5859
 1836SOL    HW3 7398   2.636   1.673   3.027  0.1716  0.8312  1.5959
 1836SOL    MW4 7399   2.712   1.715   3.025  0.0005  0.0001 -0.0000
 1837SOL     OW 7400   2.704   2.001   3.095 -0.2809  0.5557 -0.1328
 1837SOL    HW2 7401   2.790   2.028   3.064  0.4223 -0.2228  1.0962
 1837SOL    HW3 7402   2.698   1.908   3.071  0.2279 -0.0272  1.9009
 1837SOL    MW4 7403   2.715   1.992   3.088  0.0005  0.0001 -0.0000
 1838SOL     OW 7404   2.957   2.059   3.011 -0.2148 -0.1282 -0.2125
 1838SOL    HW2 7405   2.936   2.151   3.028 -0.4947 -0.4224  1.0866
 1838SOL    HW3 7406   2.950   2.050   2.916 -1.6631  0.8368 -0.2136
 1838SOL    MW4 7407   2.953   2.070   3.001  0.0005  0.0001 -0.0000
 1839SOL     OW 7408   2.898   2.324   3.068 -0.1784  0.2778  0.2502
 1839SOL    HW2 7409   2.981   2.367   3.047  0.4624 -0.4849  1.1905
 1839SOL    HW3 7410   2.831   2.385   3.036  0.7334  1.0276 -0.2645
 1839SOL    MW4 7411   2.900   2.338   3.061  0.0005  0.0001 -0.0000
 1840SOL     OW 7412   2.700   2.491   2.971  0.3509 -0.2956 -0.2344
 1840SOL    HW2 7413   2.722   2.568   3.023 -2.2108  0.1531  0.2397
 1840SOL    HW3 7414   2.634   2.445   3.022 -0.8628 -0.8305 -2.2202
 1840SOL    MW4 7415   2.694   2.495   2.985  0.0005  0.0001 -0.0000
 1841SOL     OW 7416   2.726   2.718   3.131 -0.4911 -0.1158  0.2685
 1841SOL    HW2 7417   2.737   2.715   3.226 -0.6940 -1.1364  0.2659
 1841SOL    HW3 7418   2.635   2.746   3.118 -0.6105 -0.4436  0.3845
 1841SOL    MW4 7419   2.716   2.721   3.142  0.0005  0.0001 -0.0000
 1842SOL     OW 7420   2.921   2.859   2.966 -0.0224  0.4932  0.1942
 1842SOL    HW2 7421   3.005   2.823   2.995  0.2886 -0.0567 -1.3373
 1842SOL    HW3 7422   2.855   2.800   3.003  0.3570 -0.1413 -0.1460
 1842SOL    MW4 7423   2.923   2.846   2.975  0.0005  0.0001 -0.0000
 1843SOL     OW 7424   2.923   3.092   3.118 -0.2108  0.3081  0.1976
 1843SOL    HW2 7425   2.873   3.154   3.066 -1.5571  1.1801  2.4535
 1843SOL    HW3 7426   2.906   3.007   3.077 -1.9217  0.8560 -0.2560
 1843SOL    MW4 7427   2.914   3.089   3.106  0.0005  0.0001 -0.0000
 1844SOL     OW 7428   2.735   3.252   2.985 -0.2897 -0.3650  0.1378
 1844SOL    HW2 7429   2.704   3.338   3.013 -1.8429 -0.6377 -0.6846
 1844SOL    HW3 7430   2.736   3.257   2.889 -1.0363 -1.4715  0.0637
 1844SOL    MW4 7431   2.731   3.264   2.976  0.0005  0.0001 -0.0000
 1845SOL     OW 7432   2.658   3.489   3.082 -0.3278  0.1440  0.3886
 1845SOL    HW2 7433   2.672   3.472   3.175 -1.3001  0.2196  0.5536
 1845SOL    HW3 7434   2.737   3.535   3.054  0.5269 -0.9995  0.8796
 1845SOL    MW4 7435   2.670   3.493   3.091  0.0005  0.0001 -0.0000
 1846SOL     OW 7436   2.918   3.599   2.977  0.0644 -0.0018  0.3442
 1846SOL    HW2 7437   2.993   3.566   3.026 -0.0732  0.3489  0.7921
 1846SOL    HW3 7438   2.917   3.693   2.994  0.2952  0.1996 -0.7131
 1846SOL    MW4 7439   2.928   3.607   2.986  0.0005  0.0001 -0.0000
 1847SOL     OW 7440   2.926   3.859   3.083  0.5768  0.5582 -0.3148
 1847SOL    HW2 7441   2.935   3.860   3.178 -0.6214 -0.9947 -0.1648
 1847SOL    HW3 7442   2.843   3.903   3.067  0.7007  0.6747 -0.6342
 1847SOL    MW4 7443   2.916   3.865   3.093  0.0005  0.0001 -0.0000
 1848SOL     OW 7444   2.693   3.966   2.996  0.5134 -0.2994 -0.2275
 1848SOL    HW2 7445   2.688   4.055   3.032  1.3211 -0.4504  0.2726
 1848SOL    HW3 7446   2.690   3.978   2.901 -1.1458  0.1380 -0.1349
 1848SOL    MW4 7447   2.692   3.979   2.988  0.0005  0.0001 -0.0000
 1849SOL     OW 7448   2.667   4.218   3.128  0.2666  0.1597 -0.1482
 1849SOL    HW2 7449   2.688   4.243   3.218  0.6239  1.6323 -0.6263
 1849SOL    HW3 7450   2.588   4.268   3.107 -1.4231 -2.2530  0.2526
 1849SOL    MW4 7451   2.659   4.228   3.137  0.0005  0.0001 -0.0000
 1850SOL     OW 7452   2.854   4.428   3.033 -0.6834 -0.1699 -0.2695
 1850SOL    HW2 7453   2.939   4.393   3.060 -0.6789 -0.1436 -0.2493
 1850SOL    HW3 7454   2.790   4.365   3.066 -0.7404  0.3547  0.6380
 1850SOL    MW4 7455   2.857   4.415   3.041  0.0005  0.0001 -0.0000
 1851SOL     OW 7456   3.362   4.657   3.145 -0.0446 -0.8455 -0.0313
 1851SOL    HW2 7457   3.427   4.705   3.094 -1.5188  0.0359 -1.1208
 1851SOL    HW3 7458   3.354   4.573   3.100 -1.2267 -0.1292 -1.1947
 1851SOL    MW4 7459   3.370   4.652   3.132  0.0005  0.0001 -0.0000
 1852SOL     OW 7460   3.139   0.075   2.993  0.2529  0.0949 -0.2290
 1852SOL    HW2 7461   3.131   0.164   3.029  1.1256  0.2700 -0.4473
 1852SOL    HW3 7462   3.221   0.042   3.031 -0.4454 -0.8938  0.4359
 1852SOL    MW4 7463   3.149   0.082   3.003  0.0005  0.0001 -0.0000
 1853SOL     OW 7464   3.086   0.334   3.098  0.1809  0.3788 -0.1040
 1853SOL    HW2 7465   3.162   0.384   3.069 -0.0961  0.7068 -0.2698
 1853SOL    HW3 7466   3.012   0.373   3.050 -0.0656 -0.0460 -0.0710
 1853SOL    MW4 7467   3.086   0.346   3.088  0.0005  0.0001 -0.0000
 1854SOL     OW 7468   3.331   0.440   3.021 -0.2353 -0.0014 -0.2843
 1854SOL    HW2 7469   3.419   0.418   3.052 -0.7669 -1.5963  0.1397
 1854SOL    HW3 7470   3.344   0.469   2.931  0.7589  0.0447 -0.1320
 1854SOL    MW4 7471   3.344   0.441   3.013  0.0005  0.0001 -0.0000
 1855SOL     OW 7472   3.362   0.745   3.090  0.7067 -0.2438 -0.7102
 1855SOL    HW2 7473   3.357   0.746   3.186  0.3483  0.6111 -0.7351
 1855SOL    HW3 7474   3.336   0.656   3.066 -1.0985  0.0976 -0.1064
 1855SOL    MW4 7475   3.358   0.733   3.099  0.0005  0.0001 -0.0000
 1856SOL     OW 7476   3.140   0.889   2.961 -0.1078 -0.4871  0.6800
 1856SOL    HW2 7477   3.211   0.853   3.014 -0.4044  0.2992  1.6264
 1856SOL    HW3 7478   3.062   0.842   2.990 -0.2600 -0.1024  0.8984
 1856SOL    MW4 7479   3.139   0.878   2.972  0.0005  0.0001 -0.0000
 1857SOL     OW 7480   3.168   1.164   3.058  0.3958 -0.4009  0.1076
 1857SOL    HW2 7481   3.256   1.198   3.040  0.1191 -0.2792 -1.0453
 1857SOL    HW3 7482   3.160   1.086   3.003 -0.6703  0.2853 -0.7208
 1857SOL    MW4 7483   3.179   1.158   3.048  0.0005  0.0001 -0.0000
 1858SOL     OW 7484   3.421   1.271   2.954 -0.1640  0.6144 -0.4721
 1858SOL    HW2 7485   3.484   1.231   3.015  0.4386  0.6341 -1.0760
 1858SOL    HW3 7486   3.404   1.358   2.991 -0.7163  0.1812  0.3093
 1858SOL    MW4 7487   3.427   1.277   2.967  0.0005  0.0001 -0.0000
 1859SOL     OW 7488   3.392   1.525   3.050 -0.1462  0.2879 -0.0483
 1859SOL    HW2 7489   3.416   1.518   3.142  2.3720  1.5511 -0.5752
 1859SOL    HW3 7490   3.454   1.588   3.013 -1.6789  0.4839 -2.4196
 1859SOL    MW4 7491   3.403   1.532   3.057  0.0005  0.0001 -0.0000
 1860SOL     OW 7492   3.181   1.678   3.013 -0.0464  0.9648  0.4875
 1860SOL    HW2 7493   3.255   1.622   3.037  0.0646  1.8165  2.2347
 1860SOL    HW3 7494   3.174   1.670   2.918  1.5257 -0.0695  0.4460
 1860SOL    MW4 7495   3.190   1.670   3.004  0.0005  0.0001 -0.0000
 1861SOL     OW 7496   3.192   1.926   3.106 -0.0989  0.1083 -0.1313
 1861SOL    HW2 7497   3.199   1.840   3.065 -0.4757 -0.6330  1.3263
 1861SOL    HW3 7498   3.119   1.968   3.061  0.3118 -0.1906 -1.0906
 1861SOL    MW4 7499   3.183   1.920   3.095  0.0005  0.0001 -0.0000
 1862SOL     OW 7500   3.377   2.107   3.004  0.3529  0.6699  0.7127
 1862SOL    HW2 7501   3.462   2.063   3.008 -0.0747 -0.1707  0.6328
 1862SOL    HW3 7502   3.316   2.046   3.046 -0.5106  0.5394 -0.6955
 1862SOL    MW4 7503   3.380   2.093   3.010  0.0005  0.0001 -0.0000
 1863SOL     OW 7504   3.360   2.375   3.080 -0.3715 -0.0611  0.3374
 1863SOL    HW2 7505   3.366   2.355   3.173 -1.0284 -1.8418  0.0217
 1863SOL    HW3 7506   3.375   2.291   3.037 -0.7028  0.6271 -1.1434
 1863SOL    MW4 7507   3.363   2.361   3.087  0.0005  0.0001 -0.0000
 1864SOL     OW 7508   3.123   2.468   2.982 -0.0984  0.4377 -0.0159
 1864SOL    HW2 7509   3.191   2.414   3.023  1.3165  2.3674  0.2464
 1864SOL    HW3 7510   3.134   2.452   2.888 -0.1287 -0.2348  0.0913
 1864SOL    MW4 7511   3.133   2.459   2.975  0.0005  0.0001 -0.0000
 1865SOL     OW 7512   3.145   2.734   3.083  0.3614 -0.4498 -0.0894
 1865SOL    HW2 7513   3.165   2.720   3.176 -0.5920 -0.4707  0.1179
 1865SOL    HW3 7514   3.133   2.646   3.048  0.4050 -0.4271 -0.1611
 1865SOL    MW4 7515   3.146   2.721   3.091  0.0005  0.0001 -0.0000
 1866SOL     OW 7516   3.393   2.840   3.027 -0.2970  0.0093  0.4335
 1866SOL    HW2 7517   3.400   2.934   3.045 -0.2801 -0.0804  0.9011
 1866SOL    HW3 7518   3.302   2.819   3.046 -0.7446  0.2769 -1.3481
 1866SOL    MW4 7519   3.382   2.850   3.032  0.0005  0.0001 -0.0000
 1867SOL     OW 7520   3.427   3.111   3.120  0.3945 -0.2105  0.1653
 1867SOL    HW2 7521   3.429   3.113   3.216  1.4429 -0.1740  0.1491
 1867SOL    HW3 7522   3.342   3.149   3.097  0.1449 -0.2000  1.0759
 1867SOL    MW4 7523   3.416   3.116   3.130  0.0005  0.0001 -0.0000
 1868SOL     OW 7524   3.162   3.201   3.038 -0.0243 -0.0348  0.1099
 1868SOL    HW2 7525   3.084   3.155   3.068 -0.6322  1.2504  0.5342
 1868SOL    HW3 7526   3.150   3.208   2.943 -1.8087  2.6081  0.4745
 1868SOL    MW4 7527   3.150   3.196   3.029  0.0005  0.0001 -0.0000
 1869SOL     OW 7528   3.141   3.485   3.110  0.3617  0.2131 -0.0893
 1869SOL    HW2 7529   3.221   3.524   3.075  0.6802  0.1003  0.5162
 1869SOL    HW3 7530   3.136   3.399   3.068 -0.5562  1.0481 -1.7409
 1869SOL    MW4 7531   3.151   3.479   3.100  0.0005  0.0001 -0.0000
 1870SOL     OW 7532   3.372   3.602   3.017  0.1002  0.4907  0.5857
 1870SOL    HW2 7533   3.459   3.579   3.049  0.2232  0.6811  0.3889
 1870SOL    HW3 7534   3.366   3.697   3.029 -0.5384  0.3165  1.7196
 1870SOL    MW4 7535   3.383   3.611   3.023  0.0005  0.0001 -0.0000
 1871SOL     OW 7536   3.331   3.872   3.047 -0.0573  0.0511 -0.4295
 1871SOL    HW2 7537   3.327   3.864   3.142 -2.3823 -0.2926 -0.5338
 1871SOL    HW3 7538   3.252   3.920   3.023  1.0449  1.0911 -2.1092
 1871SOL    MW4 7539   3.320   3.877   3.056  0.0005  0.0001 -0.0000
 1872SOL     OW 7540   3.116   4.063   3.003 -0.1152  0.4179 -0.0505
 1872SOL    HW2 7541   3.040   4.016   3.036  0.7264 -1.2579 -0.4560
 1872SOL    HW3 7542   3.113   4.051   2.908  0.4726  0.6399 -0.0977
 1872SOL    MW4 7543   3.106   4.055   2.995  0.0005  0.0001 -0.0000
 1873SOL     OW 7544   3.097   4.317   3.107 -0.3016  0.5221 -0.0346
 1873SOL    HW2 7545   3.106   4.307   3.202  1.6222  2.1045 -0.0178
 1873SOL    HW3 7546   3.129   4.234   3.071 -0.7486  0.0339  0.6799
 1873SOL    MW4 7547   3.102   4.305   3.115  0.0005  0.0001 -0.0000
 1874SOL     OW 7548   3.326   4.431   2.993 -0.6568 -0.3428 -0.0219
 1874SOL    HW2 7549   3.398   4.377   3.026  0.2022  0.4969 -0.4915
 1874SOL    HW3 7550   3.249   4.400   3.040  0.1463 -0.7406  1.0495
 1874SOL    MW4 7551   3.325   4.420   3.004  0.0005  0.0001 -0.0000
 1875SOL     OW 7552   3.812   4.652   3.146 -0.0451  0.3863 -0.0209
 1875SOL    HW2 7553   3.817   4.558   3.126  0.5837  0.4615 -0.2225
 1875SOL    HW3 7554   3.726   4.678   3.114  0.3774  0.1958 -1.3475
 1875SOL    MW4 7555   3.801   4.643   3.139  0.0005  0.0001 -0.0000
 1876SOL     OW 7556   3.605   0.105   3.007 -0.0098  0.0080 -0.5303
 1876SOL    HW2 7557   3.620   0.194   3.037 -1.0860  0.2372 -0.6516
 1876SOL    HW3 7558   3.610   0.111   2.912 -2.3914  0.3992 -0.6616
 1876SOL    MW4 7559   3.608   0.118   2.998  0.0005  0.0001 -0.0000
 1877SOL     OW 7560   3.591   0.373   3.112 -0.4716 -0.3832 -0.2510
 1877SOL    HW2 7561   3.587   0.390   3.206 -1.6255 -2.1165  0.0391
 1877SOL    HW3 7562   3.649   0.441   3.078  0.0749  0.1791  1.7270
 1877SOL    MW4 7563   3.598   0.384   3.120  0.0005  0.0001 -0.0000
 1878SOL     OW 7564   3.795   0.527   2.996 -0.4702  0.0062  0.1591
 1878SOL    HW2 7565   3.866   0.485   3.045  1.2923  2.0331 -0.5686
 1878SOL    HW3 7566   3.791   0.616   3.032 -2.4351  0.0187 -0.0484
 1878SOL    MW4 7567   3.804   0.533   3.007  0.0005  0.0001 -0.0000
 1879SOL     OW 7568   3.800   0.765   3.136 -0.2376  0.7935 -0.3328
 1879SOL    HW2 7569   3.815   0.739   3.227  0.1665 -0.3630 -0.7209
 1879SOL    HW3 7570   3.883   0.803   3.107  0.1412 -0.2939 -0.6984
 1879SOL    MW4 7571   3.813   0.767   3.144  0.0005  0.0001 -0.0000
 1880SOL     OW 7572   3.600   0.911   3.015  0.0659 -0.1517 -0.5019
 1880SOL    HW2 7573   3.669   0.857   3.053 -0.5100 -0.4612  0.1157
 1880SOL    HW3 7574   3.519   0.862   3.032 -0.6066  1.4805  1.1731
 1880SOL    MW4 7575   3.598   0.897   3.022  0.0005  0.0001 -0.0000
 1881SOL     OW 7576   3.608   1.177   3.128 -0.7144 -0.1703  0.3006
 1881SOL    HW2 7577   3.688   1.223   3.104 -1.5755  1.4539  0.4887
 1881SOL    HW3 7578   3.627   1.085   3.110  0.2813  0.4785 -2.1943
 1881SOL    MW4 7579   3.621   1.171   3.122  0.0005  0.0001 -0.0000
 1882SOL     OW 7580   3.836   1.286   3.014  0.0191  0.1381  0.1990
 1882SOL    HW2 7581   3.827   1.380   3.028 -1.8584 -0.2006  1.4522
 1882SOL    HW3 7582   3.829   1.275   2.919 -1.2770  1.1230  0.1669
 1882SOL    MW4 7583   3.834   1.297   3.003  0.0005  0.0001 -0.0000
 1883SOL     OW 7584   3.819   1.543   3.078 -0.2240 -0.1034  0.5350
 1883SOL    HW2 7585   3.814   1.536   3.173 -1.7017  2.6039  0.6985
 1883SOL    HW3 7586   3.736   1.583   3.052 -0.2650 -1.7153 -2.0117
 1883SOL    MW4 7587   3.807   1.547   3.087  0.0005  0.0001 -0.0000
 1884SOL     OW 7588   3.602   1.677   2.964 -0.1440 -0.1630 -0.2369
 1884SOL    HW2 7589   3.588   1.764   3.002  1.2306 -0.0888  0.1397
 1884SOL    HW3 7590   3.636   1.694   2.876 -0.5073 -0.3253 -0.4100
 1884SOL    MW4 7591   3.605   1.691   2.957  0.0005  0.0001 -0.0000
 1885SOL     OW 7592   3.573   1.912   3.073 -0.7341  0.2888 -0.5439
 1885SOL    HW2 7593   3.566   1.894   3.167 -0.6353 -0.7508 -0.7281
 1885SOL    HW3 7594   3.661   1.948   3.061 -0.6846  0.2587 -0.2637
 1885SOL    MW4 7595   3.584   1.914   3.084  0.0005  0.0001 -0.0000
 1886SOL     OW 7596   3.825   2.062   3.027 -0.2215 -0.4987 -0.3466
 1886SOL    HW2 7597   3.817   2.150   3.065 -1.0047 -0.7919  0.1738
 1886SOL    HW3 7598   3.853   2.078   2.937  1.4837  0.2098  0.2790
 1886SOL    MW4 7599   3.828   2.076   3.020  0.0005  0.0001 -0.0000
 1887SOL     OW 7600   3.797   2.329   3.129  0.4618  0.2503  0.1654
 1887SOL    HW2 7601   3.775   2.335   3.222  0.1246  0.4211  0.0751
 1887SOL    HW3 7602   3.724   2.372   3.084 -0.4570 -1.7463 -0.3095
 1887SOL    MW4 7603   3.784   2.335   3.135  0.0005  0.0001 -0.0000
 1888SOL     OW 7604   3.605   2.472   3.004  0.3744  0.0949  0.0928
 1888SOL    HW2 7605   3.603   2.559   3.045  1.7891 -0.1105  0.6200
 1888SOL    HW3 7606   3.515   2.440   3.012 -0.0856  1.3743  0.1867
 1888SOL    MW4 7607   3.593   2.479   3.010  0.0005  0.0001 -0.0000
 1889SOL     OW 7608   3.590   2.697   3.151 -0.1244  0.0613  0.2115
 1889SOL    HW2 7609   3.671   2.742   3.125 -0.7300 -0.1126 -2.0922
 1889SOL    HW3 7610   3.520   2.755   3.121 -0.8798 -1.1117 -0.3242
 1889SOL    MW4 7611   3.591   2.711   3.144  0.0005  0.0001 -0.0000
 1890SOL     OW 7612   3.822   2.851   3.058 -0.3057 -0.5696 -0.2580
 1890SOL    HW2 7613   3.806   2.943   3.077 -1.7703 -0.8099 -0.2695
 1890SOL    HW3 7614   3.822   2.846   2.962  0.1050 -0.5288 -0.2612
 1890SOL    MW4 7615   3.820   2.863   3.048  0.0005  0.0001 -0.0000
 1891SOL     OW 7616   3.839   3.129   3.091  0.1546  0.1365 -0.1935
 1891SOL    HW2 7617   3.922   3.176   3.092  0.4641 -0.3906 -0.7677
 1891SOL    HW3 7618   3.775   3.194   3.062  0.6915  0.0355 -1.6467
 1891SOL    MW4 7619   3.842   3.144   3.087  0.0005  0.0001 -0.0000
 1892SOL     OW 7620   3.624   3.266   3.009  0.1367  0.2528  0.1126
 1892SOL    HW2 7621   3.547   3.220   3.043 -0.5850  1.8315  0.6910
 1892SOL    HW3 7622   3.611   3.269   2.914  0.5206 -1.2848  0.0003
 1892SOL    MW4 7623   3.612   3.260   3.001  0.0005  0.0001 -0.0000
 1893SOL     OW 7624   3.622   3.516   3.127 -0.2805  0.1497  0.5076
 1893SOL    HW2 7625   3.705   3.558   3.104 -0.9937  0.3170 -1.9064
 1893SOL    HW3 7626   3.628   3.429   3.088 -0.6650 -0.3615  1.5728
 1893SOL    MW4 7627   3.634   3.510   3.119  0.0005  0.0001 -0.0000
 1894SOL     OW 7628   3.859   3.619   3.037  0.0034 -0.0374 -0.1698
 1894SOL    HW2 7629   3.845   3.712   3.056  0.8823  0.0612  0.0170
 1894SOL    HW3 7630   3.848   3.612   2.942 -0.1577  0.2397 -0.1722
 1894SOL    MW4 7631   3.856   3.630   3.027  0.0005  0.0001 -0.0000
 1895SOL     OW 7632   3.796   3.904   3.133 -0.5899  0.7180  0.0230
 1895SOL    HW2 7633   3.798   3.918   3.228 -0.9458  0.7270  0.0299
 1895SOL    HW3 7634   3.712   3.941   3.105 -0.3066  1.0810 -0.3545
 1895SOL    MW4 7635   3.785   3.911   3.142  0.0005  0.0001 -0.0000
 1896SOL     OW 7636   3.562   4.012   3.011 -0.3732 -0.3416  0.0282
 1896SOL    HW2 7637   3.486   3.957   3.031  0.3849 -1.0785  0.9191
 1896SOL    HW3 7638   3.568   4.010   2.915  0.1581 -2.5375  0.0780
 1896SOL    MW4 7639   3.553   4.005   3.001  0.0005  0.0001 -0.0000
 1897SOL     OW 7640   3.535   4.275   3.129  0.4255 -0.0529  0.4120
 1897SOL    HW2 7641   3.611   4.318   3.089  1.2253 -1.5880  0.2525
 1897SOL    HW3 7642   3.533   4.188   3.090 -0.5634 -0.5352  1.4996
 1897SOL    MW4 7643   3.545   4.269   3.119  0.0005  0.0001 -0.0000
 1898SOL     OW 7644   3.781   4.395   3.045  0.2890 -0.1858 -0.2202
 1898SOL    HW2 7645   3.868   4.369   3.076  0.8189  0.5831 -1.0259
 1898SOL    HW3 7646   3.793   4.409   2.951 -0.7563 -0.2625 -0.3670
 1898SOL    MW4 7647   3.794   4.393   3.037  0.0005  0.0001 -0.0000
 1899SOL     OW 7648   4.268   0.023   3.099  0.1217  0.0890 -0.3473
 1899SOL    HW2 7649   4.281   0.021   3.194 -1.5407 -0.6485 -0.1132
 1899SOL    HW3 7650   4.260  -0.069   3.074 -1.0490  0.3463 -0.9636
 1899SOL    MW4 7651   4.269   0.011   3.108  0.0005  0.0001 -0.0000
 1900SOL     OW 7652   4.028   0.157   3.041  0.1889 -0.3041  0.0664
 1900SOL    HW2 7653   4.106   0.123   3.084  0.3137  0.6151  0.5813
 1900SOL    HW3 7654   3.956   0.109   3.080  0.3865 -0.1792  0.5868
 1900SOL    MW4 7655   4.029   0.146   3.052  0.0005  0.0001 -0.0000
 1901SOL     OW 7656   4.015   0.421   3.120  0.2830  0.1798  0.2573
 1901SOL    HW2 7657   4.100   0.452   3.089 -0.9600  1.3339 -2.1429
 1901SOL    HW3 7658   4.012   0.329   3.096  1.0924 -0.0216  0.9130
 1901SOL    MW4 7659   4.026   0.413   3.113  0.0005  0.0001 -0.0000
 1902SOL     OW 7660   4.262   0.515   3.024 -0.2240 -0.2622 -0.0700
 1902SOL    HW2 7661   4.270   0.602   3.063  1.6138  0.2200 -1.4508
 1902SOL    HW3 7662   4.271   0.530   2.930  1.3248 -2.0693 -0.2398
 1902SOL    MW4 7663   4.264   0.528   3.017  0.0005  0.0001 -0.0000
 1903SOL     OW 7664   4.276   0.747   3.146  0.4953  0.2738  0.4372
 1903SOL    HW2 7665   4.198   0.783   3.104  0.1967  0.1262  0.8526
 1903SOL    HW3 7666   4.348   0.802   3.116 -0.0207  1.5282  1.4543
 1903SOL    MW4 7667   4.275   0.759   3.136  0.0005  0.0001 -0.0000
 1904SOL     OW 7668   4.046   0.876   3.061  0.0317  0.5318 -0.1712
 1904SOL    HW2 7669   4.053   0.966   3.093 -1.3399  0.4950  0.2648
 1904SOL    HW3 7670   4.033   0.885   2.967  1.8383  0.7136 -0.4213
 1904SOL    MW4 7671   4.045   0.889   3.053  0.0005  0.0001 -0.0000
 1905SOL     OW 7672   4.061   1.164   3.091 -0.1357  0.1578 -0.0700
 1905SOL    HW2 7673   4.054   1.155   3.186 -0.0389  0.1766 -0.0606
 1905SOL    HW3 7674   3.981   1.210   3.065 -0.8961 -1.1853 -0.1796
 1905SOL    MW4 7675   4.050   1.169   3.100  0.0005  0.0001 -0.0000
 1906SOL     OW 7676   4.297   1.298   3.050 -0.1505  0.4485 -0.0909
 1906SOL    HW2 7677   4.214   1.256   3.070  0.5163 -0.9557 -0.2157
 1906SOL    HW3 7678   4.294   1.312   2.955  0.2928 -0.8072 -0.2998
 1906SOL    MW4 7679   4.286   1.294   3.040  0.0005  0.0001 -0.0000
 1907SOL     OW 7680   4.275   1.545   3.142  0.0952  0.6895  0.0559
 1907SOL    HW2 7681   4.197   1.575   3.096  0.8816  0.0365 -1.7589
 1907SOL    HW3 7682   4.289   1.456   3.109  0.6110  0.1584  1.6704
 1907SOL    MW4 7683   4.267   1.537   3.132  0.0005  0.0001 -0.0000
 1908SOL     OW 7684   4.072   1.644   3.009  0.3293 -0.3945  0.0423
 1908SOL    HW2 7685   4.064   1.731   3.049 -0.3582  0.7665 -2.5152
 1908SOL    HW3 7686   3.991   1.599   3.033  0.2032  0.0583  0.4749
 1908SOL    MW4 7687   4.060   1.650   3.017  0.0005  0.0001 -0.0000
 1909SOL     OW 7688   4.037   1.909   3.087 -0.0650 -0.6513 -0.0844
 1909SOL    HW2 7689   4.113   1.966   3.092  0.2713 -0.8109 -2.6901
 1909SOL    HW3 7690   3.964   1.968   3.070 -0.0282 -0.7838 -0.7251
 1909SOL    MW4 7691   4.037   1.924   3.085  0.0005  0.0001 -0.0000
 1910SOL     OW 7692   4.277   2.048   3.080 -0.0613  0.2396  0.2232
 1910SOL    HW2 7693   4.271   2.142   3.095  0.2236  0.4316 -0.8020
 1910SOL    HW3 7694   4.269   2.039   2.985  0.1248 -0.7529  0.3000
 1910SOL    MW4 7695   4.275   2.059   3.069  0.0005  0.0001 -0.0000
 1911SOL     OW 7696   4.246   2.307   3.104 -0.4033 -0.1684  0.3474
 1911SOL    HW2 7697   4.179   2.364   3.067 -0.3840  0.6071  1.4809
 1911SOL    HW3 7698   4.329   2.347   3.079 -0.3015 -1.8683 -2.2251
 1911SOL    MW4 7699   4.248   2.320   3.096  0.0005  0.0001 -0.0000
 1912SOL     OW 7700   4.018   2.459   3.016 -0.2097 -0.5778  0.0358
 1912SOL    HW2 7701   4.012   2.551   3.040 -1.1295 -0.1762 -1.6504
 1912SOL    HW3 7702   3.941   2.418   3.056 -0.2533 -0.4511  0.0806
 1912SOL    MW4 7703   4.007   2.466   3.024  0.0005  0.0001 -0.0000
 1913SOL     OW 7704   4.069   2.737   3.104  0.2394 -0.7497 -0.3490
 1913SOL    HW2 7705   4.068   2.728   3.199 -1.0515  1.2703 -0.1412
 1913SOL    HW3 7706   3.983   2.773   3.082  1.3876  1.0818 -2.0181
 1913SOL    MW4 7707   4.057   2.741   3.114  0.0005  0.0001 -0.0000
 1914SOL     OW 7708   4.277   2.845   2.974 -0.1020 -0.1660 -0.0236
 1914SOL    HW2 7709   4.203   2.796   3.008  0.2342 -0.6909 -0.0480
 1914SOL    HW3 7710   4.354   2.805   3.015  0.2784 -0.5833 -1.1229
 1914SOL    MW4 7711   4.277   2.833   2.984  0.0005  0.0001 -0.0000
 1915SOL     OW 7712   4.250   3.092   3.115 -0.1540 -0.1161  0.5154
 1915SOL    HW2 7713   4.179   3.134   3.066 -0.5354  0.0649  1.2183
 1915SOL    HW3 7714   4.254   3.003   3.079  0.0781  0.2466 -0.3724
 1915SOL    MW4 7715   4.241   3.086   3.104  0.0005  0.0001 -0.0000
 1916SOL     OW 7716   4.063   3.270   3.025  0.7135  0.1653  0.3434
 1916SOL    HW2 7717   4.077   3.363   3.045  0.1871  0.2677  0.2421
 1916SOL    HW3 7718   4.080   3.263   2.931  1.4885  0.0138  0.4912
 1916SOL    MW4 7719   4.067   3.281   3.015  0.0005  0.0001 -0.0000
 1917SOL     OW 7720   4.077   3.514   3.167 -0.2375 -0.2764 -0.6035
 1917SOL    HW2 7721   4.066   3.512   3.262  1.0130 -0.9012 -0.4605
 1917SOL    HW3 7722   4.004   3.567   3.135  0.4986  1.7075  0.8814
 1917SOL    MW4 7723   4.066   3.521   3.175  0.0005  0.0001 -0.0000
 1918SOL     OW 7724   4.266   3.686   3.025  0.1020  0.0679 -0.2740
 1918SOL    HW2 7725   4.272   3.770   3.070 -1.6747  0.2271 -0.3016
 1918SOL    HW3 7726   4.200   3.637   3.074  0.5539 -1.0155 -0.7310
 1918SOL    MW4 7727   4.258   3.691   3.037  0.0005  0.0001 -0.0000
 1919SOL     OW 7728   4.254   3.933   3.148 -0.3348  0.0682  0.2487
 1919SOL    HW2 7729   4.172   3.953   3.103 -0.5740 -0.8966  0.2409
 1919SOL    HW3 7730   4.321   3.977   3.097 -0.4670 -1.9686 -1.7585
 1919SOL    MW4 7731   4.252   3.941   3.135  0.0005  0.0001 -0.0000
 1920SOL     OW 7732   4.029   4.020   3.036  0.1953 -0.1903  0.2031
 1920SOL    HW2 7733   4.026   4.111   3.067  0.7148  0.0837 -0.5461
 1920SOL    HW3 7734   3.948   3.981   3.070  0.4960  0.2458  1.4549
 1920SOL    MW4 7735   4.018   4.027   3.045  0.0005  0.0001 -0.0000
 1921SOL     OW 7736   4.043   4.288   3.125  0.4073 -0.4290  0.0186
 1921SOL    HW2 7737   4.033   4.275   3.219  0.0921  0.1208  0.0630
 1921SOL    HW3 7738   4.132   4.323   3.115 -0.5370  2.1937  0.3967
 1921SOL    MW4 7739   4.053   4.291   3.136  0.0005  0.0001 -0.0000
 1922SOL     OW 7740   4.282   4.418   3.033 -0.1799  0.3183 -0.5222
 1922SOL    HW2 7741   4.353   4.363   3.067  0.8585  1.0915 -1.4019
 1922SOL    HW3 7742   4.280   4.399   2.939  0.3988  1.9973 -0.8908
 1922SOL    MW4 7743   4.291   4.408   3.025  0.0005  0.0001 -0.0000
 1923SOL     OW 7744   0.233   0.010   3.386 -0.0878 -0.2950  0.4293
 1923SOL    HW2 7745   0.308   0.058   3.422  0.4819  0.0648 -1.1698
 1923SOL    HW3 7746   0.250  -0.082   3.407  1.1799 -0.2926 -0.5442
 1923SOL    MW4 7747   0.245   0.004   3.394  0.0005  0.0001 -0.0000
 1924SOL     OW 7748   0.019   0.116   3.515  0.2937 -0.2525  0.1494
 1924SOL    HW2 7749   0.032   0.208   3.491 -1.1303 -0.2778 -0.7726
 1924SOL    HW3 7750   0.094   0.071   3.477  0.0353  0.2704 -1.0068
 1924SOL    MW4 7751   0.031   0.122   3.507  0.0005  0.0001 -0.0000
 1925SOL     OW 7752   0.041   0.376   3.421  0.2337 -0.1785  0.4022
 1925SOL    HW2 7753  -0.034   0.421   3.460 -0.4665 -2.2893  1.5769
 1925SOL    HW3 7754   0.117   0.410   3.468 -0.0797  1.1731 -0.0496
 1925SOL    MW4 7755   0.041   0.386   3.432  0.0005  0.0001 -0.0000
 1926SOL     OW 7756   0.267   0.510   3.541  0.2032 -0.1420  0.0515
 1926SOL    HW2 7757   0.335   0.471   3.486 -1.5642 -1.3065 -1.3672
 1926SOL    HW3 7758   0.246   0.593   3.498  1.1069  0.4900  0.8088
 1926SOL    MW4 7759   0.273   0.516   3.528  0.0005  0.0001 -0.0000
 1927SOL     OW 7760   0.219   0.759   3.438  0.5097 -0.1792 -0.1606
 1927SOL    HW2 7761   0.293   0.815   3.460  0.5761 -0.1306 -0.5060
 1927SOL    HW3 7762   0.142   0.814   3.452  0.5874  0.0832 -0.7514
 1927SOL    MW4 7763   0.219   0.774   3.443  0.0005  0.0001 -0.0000
 1928SOL     OW 7764   4.490   0.895   3.505  0.3737 -0.1065  0.4109
 1928SOL    HW2 7765   4.517   0.894   3.597 -0.5983  1.5448  0.7406
 1928SOL    HW3 7766   4.493   0.987   3.481 -0.5669 -0.4003 -0.8618
 1928SOL    MW4 7767   4.494   0.907   3.514  0.0005  0.0001 -0.0000
 1929SOL     OW 7768   4.464   1.158   3.433  0.0890 -0.0800 -0.1954
 1929SOL    HW2 7769   4.545   1.198   3.465 -0.0885  0.3399 -0.2771
 1929SOL    HW3 7770   4.463   1.176   3.339  0.6339 -1.3575 -0.4575
 1929SOL    MW4 7771   4.475   1.166   3.425  0.0005  0.0001 -0.0000
 1930SOL     OW 7772   0.213   1.290   3.507  0.2220  0.6179  0.5867
 1930SOL    HW2 7773   0.281   1.227   3.483  0.1788  0.8947 -0.2771
 1930SOL    HW3 7774   0.229   1.365   3.450 -1.3058  0.3607 -0.2137
 1930SOL    MW4 7775   0.224   1.292   3.496  0.0005  0.0001 -0.0000
 1931SOL     OW 7776   0.255   1.538   3.390  0.1966 -0.2193 -0.2453
 1931SOL    HW2 7777   0.339   1.577   3.415  0.7686 -1.0927 -0.7714
 1931SOL    HW3 7778   0.261   1.528   3.295 -1.7824  2.6758 -0.7394
 1931SOL    MW4 7779   0.267   1.542   3.381  0.0005  0.0001 -0.0000
 1932SOL     OW 7780   0.024   1.664   3.484 -0.1311  0.1679  0.3248
 1932SOL    HW2 7781  -0.053   1.621   3.448  0.1446  2.2173 -2.9173
 1932SOL    HW3 7782   0.098   1.611   3.453  0.0409  1.3069 -1.2756
 1932SOL    MW4 7783   0.024   1.651   3.475  0.0005  0.0001 -0.0000
 1933SOL     OW 7784   4.454   1.937   3.435 -0.3695  0.7115 -0.2669
 1933SOL    HW2 7785   4.469   1.843   3.448 -0.2694  0.9151  1.2125
 1933SOL    HW3 7786   4.454   1.949   3.340  0.9213 -0.5765 -0.4426
 1933SOL    MW4 7787   4.456   1.926   3.424  0.0005  0.0001 -0.0000
 1934SOL     OW 7788   0.222   2.047   3.469  0.1416 -0.4573 -0.3299
 1934SOL    HW2 7789   0.261   2.020   3.552 -0.6906 -1.9470 -0.4059
 1934SOL    HW3 7790   0.140   1.998   3.464 -0.0214 -0.0558 -1.8321
 1934SOL    MW4 7791   0.216   2.037   3.479  0.0005  0.0001 -0.0000
 1935SOL     OW 7792   0.249   2.313   3.412 -0.4158  0.0888  0.5685
 1935SOL    HW2 7793   0.167   2.356   3.437 -0.3500 -0.1213  1.1568
 1935SOL    HW3 7794   0.231   2.220   3.423 -1.0239 -0.1459 -2.0828
 1935SOL    MW4 7795   0.236   2.306   3.417  0.0005  0.0001 -0.0000
 1936SOL     OW 7796   0.023   2.448   3.462 -0.1129  0.5182  0.0751
 1936SOL    HW2 7797   0.015   2.442   3.557  0.6399  1.1650  0.1877
 1936SOL    HW3 7798  -0.057   2.408   3.428  0.7855 -2.0939  0.9208
 1936SOL    MW4 7799   0.011   2.442   3.470  0.0005  0.0001 -0.0000
 1937SOL     OW 7800   0.001   2.712   3.391 -0.0751 -0.0691  0.0375
 1937SOL    HW2 7801   0.078   2.748   3.435  0.0338 -0.0359 -0.1804
 1937SOL    HW3 7802  -0.001   2.620   3.418  0.6235 -0.3274 -0.7670
 1937SOL    MW4 7803   0.011   2.705   3.400  0.0005  0.0001 -0.0000
 1938SOL     OW 7804   0.214   2.818   3.505  0.1288  0.0745  0.0297
 1938SOL    HW2 7805   0.290   2.779   3.461 -0.2810 -0.5057 -0.1688
 1938SOL    HW3 7806   0.211   2.908   3.472 -0.6086 -0.5655 -1.7118
 1938SOL    MW4 7807   0.224   2.825   3.495  0.0005  0.0001 -0.0000
 1939SOL     OW 7808   0.208   3.064   3.421 -0.1726 -0.4871 -0.2915
 1939SOL    HW2 7809   0.129   3.099   3.463  0.6456  0.2315  0.6744
 1939SOL    HW3 7810   0.188   3.065   3.327 -0.7249  1.1913 -0.1720
 1939SOL    MW4 7811   0.195   3.069   3.414  0.0005  0.0001 -0.0000
 1940SOL     OW 7812   4.480   3.182   3.529  0.0673 -0.6023  0.1015
 1940SOL    HW2 7813   4.401   3.148   3.488  0.2069 -0.6663 -0.1153
 1940SOL    HW3 7814   4.491   3.270   3.493  1.0556 -1.2390 -1.1955
 1940SOL    MW4 7815   4.471   3.189   3.519  0.0005  0.0001 -0.0000
 1941SOL     OW 7816   4.486   3.426   3.402  0.3309 -0.7039  0.4783
 1941SOL    HW2 7817   4.417   3.479   3.442 -0.1043 -2.1574  1.7013
 1941SOL    HW3 7818   4.484   3.450   3.309 -0.3762  0.8292  0.8735
 1941SOL    MW4 7819   4.477   3.436   3.395  0.0005  0.0001 -0.0000
 1942SOL     OW 7820   0.204   3.590   3.475 -0.2402  0.0174 -0.2303
 1942SOL    HW2 7821   0.192   3.577   3.569  0.5391  1.5269  0.0972
 1942SOL    HW3 7822   0.137   3.535   3.434  0.0847 -1.4544  1.1692
 1942SOL    MW4 7823   0.194   3.581   3.482  0.0005  0.0001 -0.0000
 1943SOL     OW 7824   0.227   3.848   3.391 -0.0161 -0.1058 -0.0656
 1943SOL    HW2 7825   0.154   3.887   3.438  0.4571  1.3184 -0.4923
 1943SOL    HW3 7826   0.216   3.754   3.404 -1.0714  0.1660  1.1226
 1943SOL    MW4 7827   0.216   3.841   3.399  0.0005  0.0001 -0.0000
 1944SOL     OW 7828   0.012   3.994   3.503 -0.4651  0.6885  0.2094
 1944SOL    HW2 7829   0.037   3.984   3.595 -0.5852  1.4850  0.3281
 1944SOL    HW3 7830   0.027   4.086   3.483  1.6217  0.0844 -1.1884
 1944SOL    MW4 7831   0.017   4.005   3.513  0.0005  0.0001 -0.0000
 1945SOL     OW 7832   0.030   4.275   3.422  0.7915 -0.1622  0.0501
 1945SOL    HW2 7833  -0.053   4.318   3.445  0.7114 -1.0665  1.5173
 1945SOL    HW3 7834   0.097   4.328   3.465  0.8152 -0.5757  0.5277
 1945SOL    MW4 7835   0.028   4.288   3.431  0.0005  0.0001 -0.0000
 1946SOL     OW 7836   0.231   4.418   3.526  0.2393 -0.1662  0.0897
 1946SOL    HW2 7837   0.226   4.411   3.621  0.4898  1.4804  0.2325
 1946SOL    HW3 7838   0.306   4.363   3.502  1.4435  1.0291  1.0518
 1946SOL    MW4 7839   0.240   4.410   3.536  0.0005  0.0001 -0.0000
 1947SOL     OW 7840   0.623   4.594   3.437 -0.1061 -0.1322  0.0149
 1947SOL    HW2 7841   0.696   4.645   3.472  0.3728 -0.5712 -0.3364
 1947SOL    HW3 7842   0.622   4.615   3.344  0.7017 -1.4966 -0.3123
 1947SOL    MW4 7843   0.632   4.603   3.429  0.0005  0.0001 -0.0000
 1948SOL     OW 7844   0.459   0.141   3.501  0.2469 -0.2064 -0.0619
 1948SOL    HW2 7845   0.468   0.160   3.594 -0.0035 -0.6996  0.0633
 1948SOL    HW3 7846   0.513   0.063   3.487 -2.0098 -1.8854  0.2684
 1948SOL    MW4 7847   0.467   0.133   3.511  0.0005  0.0001 -0.0000
 1949SOL     OW 7848   0.449   0.393   3.380  0.1915  0.3400  0.0467
 1949SOL    HW2 7849   0.533   0.428   3.410  0.6674 -0.3208 -0.4835
 1949SOL    HW3 7850   0.442   0.308   3.422  0.2882 -0.0653 -0.7443
 1949SOL    MW4 7851   0.459   0.386   3.390  0.0005  0.0001 -0.0000
 1950SOL     OW 7852   0.670   0.494   3.500 -0.5177  0.2675  0.0484
 1950SOL    HW2 7853   0.692   0.504   3.593 -0.1871  1.0783 -0.1142
 1950SOL    HW3 7854   0.738   0.436   3.465 -0.4118  0.2856  0.2244
 1950SOL    MW4 7855   0.682   0.488   3.508  0.0005  0.0001 -0.0000
 1951SOL     OW 7856   0.698   0.748   3.420 -0.3552 -0.6443  0.0351
 1951SOL    HW2 7857   0.613   0.784   3.444 -0.6707 -1.7803  0.6418
 1951SOL    HW3 7858   0.692   0.655   3.441  1.5093 -0.4903  1.4085
 1951SOL    MW4 7859   0.686   0.740   3.426  0.0005  0.0001 -0.0000
 1952SOL     OW 7860   0.464   0.884   3.514 -0.8022 -0.3636 -0.1281
 1952SOL    HW2 7861   0.472   0.885   3.609  0.7446  0.0785 -0.2471
 1952SOL    HW3 7862   0.446   0.975   3.491  0.9393 -0.0759 -0.4082
 1952SOL    MW4 7863   0.463   0.896   3.524  0.0005  0.0001 -0.0000
 1953SOL     OW 7864   0.435   1.140   3.425 -0.0981  0.4004  0.0833
 1953SOL    HW2 7865   0.518   1.186   3.441 -0.1126  0.3383  0.3464
 1953SOL    HW3 7866   0.436   1.119   3.332  0.6859 -0.5809  0.3058
 1953SOL    MW4 7867   0.446   1.143   3.415  0.0005  0.0001 -0.0000
 1954SOL     OW 7868   0.682   1.267   3.485  0.1683  0.0006 -0.1409
 1954SOL    HW2 7869   0.768   1.226   3.476  0.1859  0.2315 -1.0848
 1954SOL    HW3 7870   0.697   1.359   3.462 -0.4465 -0.0869 -0.9112
 1954SOL    MW4 7871   0.695   1.274   3.481  0.0005  0.0001 -0.0000
 1955SOL     OW 7872   0.744   1.544   3.396 -0.0003 -0.5674  0.1287
 1955SOL    HW2 7873   0.807   1.602   3.438 -0.1910 -0.2328 -0.0450
 1955SOL    HW3 7874   0.659   1.581   3.419 -0.0828  0.2876 -1.4870
 1955SOL    MW4 7875   0.741   1.557   3.405  0.0005  0.0001 -0.0000
 1956SOL     OW 7876   0.484   1.669   3.447  0.2568  0.2762 -0.1998
 1956SOL    HW2 7877   0.474   1.666   3.542  1.1423  0.4498 -0.0973
 1956SOL    HW3 7878   0.449   1.755   3.422 -0.8262 -0.1397 -0.1428
 1956SOL    MW4 7879   0.478   1.680   3.456  0.0005  0.0001 -0.0000
 1957SOL     OW 7880   0.439   1.919   3.366  0.4075 -0.2417  0.0980
 1957SOL    HW2 7881   0.368   1.968   3.406  1.2848  0.5889  0.6633
 1957SOL    HW3 7882   0.412   1.908   3.275 -0.2543  0.4115  0.2109
 1957SOL    MW4 7883   0.426   1.924   3.359  0.0005  0.0001 -0.0000
 1958SOL     OW 7884   0.688   1.998   3.469  0.8561  0.1533  0.3222
 1958SOL    HW2 7885   0.666   1.993   3.562 -0.2816  2.7848  0.2391
 1958SOL    HW3 7886   0.607   1.973   3.424  1.1075 -0.1418  0.0317
 1958SOL    MW4 7887   0.674   1.994   3.475  0.0005  0.0001 -0.0000
 1959SOL     OW 7888   0.671   2.288   3.375  0.2319  0.3109 -0.2509
 1959SOL    HW2 7889   0.755   2.327   3.399  0.0918 -1.1359  2.7780
 1959SOL    HW3 7890   0.679   2.196   3.399 -1.1485 -0.5430 -2.8278
 1959SOL    MW4 7891   0.683   2.281   3.381  0.0005  0.0001 -0.0000
 1960SOL     OW 7892   0.476   2.457   3.475 -0.1823 -0.0134 -0.0675
 1960SOL    HW2 7893   0.547   2.401   3.444 -0.0455  1.1580 -1.9489
 1960SOL    HW3 7894   0.396   2.410   3.450 -0.0673  0.0807 -0.6203
 1960SOL    MW4 7895   0.475   2.443   3.468  0.0005  0.0001 -0.0000
 1961SOL     OW 7896   0.442   2.737   3.399 -0.2358 -0.5413  0.7304
 1961SOL    HW2 7897   0.473   2.653   3.432  0.8282  0.2655  1.8516
 1961SOL    HW3 7898   0.433   2.724   3.305  2.4584 -1.1558  0.5173
 1961SOL    MW4 7899   0.445   2.724   3.391  0.0005  0.0001 -0.0000
 1962SOL     OW 7900   0.683   2.846   3.493  0.0536 -0.2259  0.1676
 1962SOL    HW2 7901   0.740   2.783   3.449  1.5695  0.5429  0.9697
 1962SOL    HW3 7902   0.594   2.812   3.480  0.4696 -0.1439 -3.2401
 1962SOL    MW4 7903   0.679   2.833   3.485  0.0005  0.0001 -0.0000
 1963SOL     OW 7904   0.686   3.130   3.424 -0.3451 -0.4797 -0.8670
 1963SOL    HW2 7905   0.594   3.149   3.444 -0.2067  0.0236 -0.7061
 1963SOL    HW3 7906   0.695   3.036   3.439 -0.4080 -0.2356  0.8070
 1963SOL    MW4 7907   0.675   3.120   3.429  0.0005  0.0001 -0.0000
 1964SOL     OW 7908   0.437   3.213   3.473 -0.1788  0.2051  0.1673
 1964SOL    HW2 7909   0.440   3.219   3.568 -0.6881  1.4802  0.1146
 1964SOL    HW3 7910   0.363   3.155   3.454 -0.8514  0.9400  0.5239
 1964SOL    MW4 7911   0.428   3.206   3.483  0.0005  0.0001 -0.0000
 1965SOL     OW 7912   0.430   3.460   3.366 -0.3231 -0.2710 -0.2254
 1965SOL    HW2 7913   0.420   3.375   3.408  2.5874 -0.5518  0.0155
 1965SOL    HW3 7914   0.359   3.513   3.401  1.2991 -0.8381  4.2306
 1965SOL    MW4 7915   0.419   3.456   3.376  0.0005  0.0001 -0.0000
 1966SOL     OW 7916   0.658   3.591   3.489 -0.1798  0.1128  0.3191
 1966SOL    HW2 7917   0.743   3.560   3.456  0.0975  0.7379  0.4445
 1966SOL    HW3 7918   0.594   3.536   3.444  0.2382  0.3936 -0.6361
 1966SOL    MW4 7919   0.661   3.580   3.479  0.0005  0.0001 -0.0000
 1967SOL     OW 7920   0.688   3.838   3.361  0.1235  0.2904  0.0696
 1967SOL    HW2 7921   0.604   3.878   3.385 -0.6411 -0.5535 -1.1419
 1967SOL    HW3 7922   0.687   3.753   3.404 -0.0041 -0.0543 -0.6079
 1967SOL    MW4 7923   0.677   3.832   3.370  0.0005  0.0001 -0.0000
 1968SOL     OW 7924   0.430   3.988   3.509 -0.3929 -0.0130 -0.7373
 1968SOL    HW2 7925   0.406   4.078   3.488 -1.0953 -0.1616 -0.5802
 1968SOL    HW3 7926   0.366   3.934   3.462 -0.0118 -0.4285 -0.7848
 1968SOL    MW4 7927   0.418   3.993   3.500  0.0005  0.0001 -0.0000
 1969SOL     OW 7928   0.425   4.254   3.429 -0.1533  0.3724  0.0732
 1969SOL    HW2 7929   0.507   4.295   3.457 -0.6282  0.9673  0.6158
 1969SOL    HW3 7930   0.424   4.264   3.334 -0.7314  2.5551  0.2700
 1969SOL    MW4 7931   0.436   4.261   3.420  0.0005  0.0001 -0.0000
 1970SOL     OW 7932   0.661   4.343   3.555 -0.2438 -0.3677 -0.1054
 1970SOL    HW2 7933   0.737   4.294   3.524 -0.6622 -1.0474 -0.0752
 1970SOL    HW3 7934   0.667   4.427   3.510  0.4692 -0.4524 -0.1787
 1970SOL    MW4 7935   0.672   4.348   3.545  0.0005  0.0001 -0.0000
 1971SOL     OW 7936   1.102   0.000   3.410 -0.1746  0.0426  0.0795
 1971SOL    HW2 7937   1.191   0.033   3.423  0.0056 -0.4606  0.1360
 1971SOL    HW3 7938   1.089   0.002   3.315  0.5468 -1.5534 -0.0687
 1971SOL    MW4 7939   1.112   0.005   3.399  0.0005  0.0001 -0.0000
 1972SOL     OW 7940   0.849   0.071   3.505  0.2707 -0.0973 -0.0831
 1972SOL    HW2 7941   0.857   0.069   3.600  1.3533 -0.3415 -0.1687
 1972SOL    HW3 7942   0.930   0.031   3.474  0.2080  0.5675 -1.1175
 1972SOL    MW4 7943   0.861   0.065   3.513  0.0005  0.0001 -0.0000
 1973SOL     OW 7944   0.899   0.328   3.422  0.1596  0.6436 -0.1528
 1973SOL    HW2 7945   0.988   0.351   3.448  0.3223  0.5455 -0.6179
 1973SOL    HW3 7946   0.884   0.242   3.461  0.0932  0.8678  0.3250
 1973SOL    MW4 7947   0.909   0.320   3.431  0.0005  0.0001 -0.0000
 1974SOL     OW 7948   1.149   0.478   3.502  0.3243 -0.2918 -0.0326
 1974SOL    HW2 7949   1.155   0.491   3.597 -0.6473 -0.4956  0.0637
 1974SOL    HW3 7950   1.133   0.566   3.467 -3.4682 -0.7345  0.3737
 1974SOL    MW4 7951   1.148   0.491   3.510  0.0005  0.0001 -0.0000
 1975SOL     OW 7952   1.119   0.731   3.408 -0.2128 -0.2931  0.1225
 1975SOL    HW2 7953   1.203   0.770   3.434 -0.0835 -0.6064  0.1764
 1975SOL    HW3 7954   1.054   0.777   3.461 -0.1701  0.5888 -0.5781
 1975SOL    MW4 7955   1.121   0.742   3.418  0.0005  0.0001 -0.0000
 1976SOL     OW 7956   0.918   0.883   3.525  0.1742 -0.2971  0.3315
 1976SOL    HW2 7957   0.918   0.971   3.487 -0.3576  0.5393  2.2118
 1976SOL    HW3 7958   0.844   0.839   3.483 -0.0770  0.4305  0.0006
 1976SOL    MW4 7959   0.908   0.889   3.514  0.0005  0.0001 -0.0000
 1977SOL     OW 7960   0.944   1.154   3.442  0.0625  0.1237  0.4871
 1977SOL    HW2 7961   1.016   1.210   3.470 -0.3876  0.6833  0.5335
 1977SOL    HW3 7962   0.949   1.156   3.346  0.1764  0.0725  0.4919
 1977SOL    MW4 7963   0.954   1.162   3.433  0.0005  0.0001 -0.0000
 1978SOL     OW 7964   1.166   1.304   3.506 -0.0739 -0.2228  0.2237
 1978SOL    HW2 7965   1.194   1.322   3.596  3.4382  0.7890 -0.9850
 1978SOL    HW3 7966   1.158   1.391   3.466  0.4238 -0.7319 -1.0004
 1978SOL    MW4 7967   1.169   1.318   3.513  0.0005  0.0001 -0.0000
 1979SOL     OW 7968   1.170   1.555   3.404 -0.3498 -0.3183 -0.0522
 1979SOL    HW2 7969   1.249   1.607   3.421 -1.1226  0.9184 -0.1833
 1979SOL    HW3 7970   1.144   1.579   3.315 -0.0535 -1.8271 -0.5607
 1979SOL    MW4 7971   1.177   1.565   3.394  0.0005  0.0001 -0.0000
 1980SOL     OW 7972   0.947   1.691   3.521 -0.3496 -0.0056 -0.4946
 1980SOL    HW2 7973   0.951   1.766   3.462  0.5169  0.5968  0.3166
 1980SOL    HW3 7974   1.024   1.639   3.500 -0.9550 -0.6849 -1.0634
 1980SOL    MW4 7975   0.958   1.694   3.510  0.0005  0.0001 -0.0000
 1981SOL     OW 7976   0.905   1.909   3.351  0.4918  0.3404  0.4560
 1981SOL    HW2 7977   0.979   1.949   3.396  0.0453  1.2672  0.3819
 1981SOL    HW3 7978   0.830   1.929   3.407 -0.0179  1.2251 -0.5275
 1981SOL    MW4 7979   0.905   1.917   3.364  0.0005  0.0001 -0.0000
 1982SOL     OW 7980   1.130   2.038   3.470 -0.8395 -0.2149 -0.5015
 1982SOL    HW2 7981   1.216   2.000   3.453 -0.6815  0.0811 -0.3607
 1982SOL    HW3 7982   1.131   2.122   3.424 -1.4756 -0.7310 -1.4639
 1982SOL    MW4 7983   1.141   2.044   3.462  0.0005  0.0001 -0.0000
 1983SOL     OW 7984   1.145   2.315   3.404  0.2628 -0.0593  0.2029
 1983SOL    HW2 7985   1.207   2.382   3.432 -0.4124  0.7790 -0.2955
 1983SOL    HW3 7986   1.145   2.319   3.308 -0.6110  0.0011  0.1979
 1983SOL    MW4 7987   1.153   2.324   3.395  0.0005  0.0001 -0.0000
 1984SOL     OW 7988   0.892   2.396   3.494 -0.3559  0.1030  0.2819
 1984SOL    HW2 7989   0.890   2.409   3.589 -0.5324  0.3461  0.2434
 1984SOL    HW3 7990   0.970   2.342   3.479  0.9117  1.8697  0.3463
 1984SOL    MW4 7991   0.902   2.391   3.505  0.0005  0.0001 -0.0000
 1985SOL     OW 7992   0.874   2.675   3.409  0.0098  0.4214  0.3611
 1985SOL    HW2 7993   0.945   2.728   3.445  0.7054  0.9656 -1.7370
 1985SOL    HW3 7994   0.900   2.585   3.426  0.4328  0.6626  1.0034
 1985SOL    MW4 7995   0.887   2.670   3.416  0.0005  0.0001 -0.0000
 1986SOL     OW 7996   1.104   2.814   3.488 -0.2659  0.4436  0.3819
 1986SOL    HW2 7997   1.125   2.831   3.580 -1.1350  2.4673  0.2375
 1986SOL    HW3 7998   1.186   2.782   3.450 -0.2162 -1.5967  2.1214
 1986SOL    MW4 7999   1.118   2.812   3.495  0.0005  0.0001 -0.0000
 1987SOL     OW 8000   1.108   3.097   3.402 -0.4937 -0.1319 -0.0532
 1987SOL    HW2 8001   1.088   3.005   3.418 -2.7452  0.3100 -0.1283
 1987SOL    HW3 8002   1.138   3.100   3.311  1.6214 -1.0636  0.5820
 1987SOL    MW4 8003   1.109   3.085   3.392  0.0005  0.0001 -0.0000
 1988SOL     OW 8004   0.910   3.262   3.518 -0.1014  0.2191  0.2259
 1988SOL    HW2 8005   0.983   3.211   3.484 -0.7910 -1.4799  1.2297
 1988SOL    HW3 8006   0.833   3.226   3.474 -0.4231  1.5381 -0.3151
 1988SOL    MW4 8007   0.909   3.251   3.508  0.0005  0.0001 -0.0000
 1989SOL     OW 8008   0.895   3.490   3.368 -0.1845 -0.1827 -0.2196
 1989SOL    HW2 8009   0.912   3.401   3.399 -0.2492  0.2249  1.0056
 1989SOL    HW3 8010   0.888   3.481   3.273 -0.0973 -1.4704 -0.1157
 1989SOL    MW4 8011   0.896   3.477   3.360  0.0005  0.0001 -0.0000
 1990SOL     OW 8012   1.126   3.611   3.466  0.2374  0.2286 -0.2060
 1990SOL    HW2 8013   1.124   3.601   3.561  1.8106 -0.0276 -0.1799
 1990SOL    HW3 8014   1.044   3.572   3.436 -0.9279  1.5597  1.1429
 1990SOL    MW4 8015   1.115   3.605   3.474  0.0005  0.0001 -0.0000
 1991SOL     OW 8016   1.122   3.871   3.430 -0.0439  0.1220  0.0975
 1991SOL    HW2 8017   1.202   3.922   3.441  0.0458  0.0776 -0.3400
 1991SOL    HW3 8018   1.148   3.781   3.451 -0.3874  0.3690  1.6430
 1991SOL    MW4 8019   1.136   3.866   3.434  0.0005  0.0001 -0.0000
 1992SOL     OW 8020   0.874   3.984   3.513 -0.6078 -0.1142  0.2713
 1992SOL    HW2 8021   0.948   3.954   3.461 -0.1267  1.8623 -0.2294
 1992SOL    HW3 8022   0.798   3.940   3.475  0.0040 -0.2555 -0.7934
 1992SOL    MW4 8023   0.874   3.974   3.501  0.0005  0.0001 -0.0000
 1993SOL     OW 8024   0.890   4.258   3.429  0.2685  0.2509  0.2406
 1993SOL    HW2 8025   0.920   4.169   3.445 -1.7325 -0.2509  1.4236
 1993SOL    HW3 8026   0.913   4.276   3.338  0.7816 -1.4315  0.0293
 1993SOL    MW4 8027   0.897   4.249   3.419  0.0005  0.0001 -0.0000
 1994SOL     OW 8028   1.109   4.419   3.536  0.1653  0.0971 -0.4880
 1994SOL    HW2 8029   1.033   4.362   3.523 -0.4609  0.7693  0.2104
 1994SOL    HW3 8030   1.090   4.497   3.484 -0.5122  1.0877  1.2196
 1994SOL    MW4 8031   1.096   4.422   3.527  0.0005  0.0001 -0.0000
 1995SOL     OW 8032   1.598   4.636   3.416  0.2807  0.3343 -0.3604
 1995SOL    HW2 8033   1.587   4.551   3.458  1.9141  0.7249  0.8982
 1995SOL    HW3 8034   1.516   4.682   3.435 -0.6035 -0.9264 -1.0273
 1995SOL    MW4 8035   1.586   4.631   3.424  0.0005  0.0001 -0.0000
 1996SOL     OW 8036   1.345   0.099   3.468  0.0473 -0.3556  0.1415
 1996SOL    HW2 8037   1.350   0.109   3.563 -0.4655 -0.1333  0.1465
 1996SOL    HW3 8038   1.359   0.187   3.434 -0.5625 -0.2950  0.0415
 1996SOL    MW4 8039   1.348   0.112   3.476  0.0005  0.0001 -0.0000
 1997SOL     OW 8040   1.357   0.374   3.386  0.0499 -0.1708  0.0477
 1997SOL    HW2 8041   1.424   0.414   3.441  1.3405 -0.7204 -1.0897
 1997SOL    HW3 8042   1.274   0.409   3.420  0.9725  1.4516  0.7036
 1997SOL    MW4 8043   1.355   0.384   3.398  0.0005  0.0001 -0.0000
 1998SOL     OW 8044   1.563   0.489   3.514 -0.3227 -0.1141  0.0643
 1998SOL    HW2 8045   1.573   0.508   3.607 -1.4264 -1.4814  0.4744
 1998SOL    HW3 8046   1.649   0.457   3.487 -0.1466 -0.2185  0.7360
 1998SOL    MW4 8047   1.576   0.487   3.523  0.0005  0.0001 -0.0000
 1999SOL     OW 8048   1.579   0.734   3.388 -0.0221 -0.0660 -0.1821
 1999SOL    HW2 8049   1.506   0.785   3.424 -0.7746 -1.0753 -0.2666
 1999SOL    HW3 8050   1.571   0.648   3.428  2.0067  0.2342  0.9463
 1999SOL    MW4 8051   1.568   0.729   3.398  0.0005  0.0001 -0.0000
 2000SOL     OW 8052   1.367   0.862   3.491 -0.3166 -0.5579  0.0506
 2000SOL    HW2 8053   1.377   0.870   3.586 -1.0527  1.0529  0.0105
 2000SOL    HW3 8054   1.371   0.952   3.459 -0.8616 -1.0259 -1.3684
 2000SOL    MW4 8055   1.369   0.875   3.499  0.0005  0.0001 -0.0000
 2001SOL     OW 8056   1.365   1.121   3.402  0.0752 -0.1767 -0.1418
 2001SOL    HW2 8057   1.440   1.171   3.436  0.7353 -1.1962 -0.0822
 2001SOL    HW3 8058   1.289   1.164   3.440  0.6352  0.8031 -0.1070
 2001SOL    MW4 8059   1.365   1.133   3.411  0.0005  0.0001 -0.0000
 2002SOL     OW 8060   1.587   1.272   3.493 -0.2702  0.0167  0.4461
 2002SOL    HW2 8061   1.588   1.263   3.588 -0.4733  1.8488  0.6372
 2002SOL    HW3 8062   1.667   1.227   3.464 -1.5990 -2.9692  1.2122
 2002SOL    MW4 8063   1.598   1.265   3.502  0.0005  0.0001 -0.0000
 2003SOL     OW 8064   1.618   1.529   3.385  0.3137 -0.2943  0.3420
 2003SOL    HW2 8065   1.597   1.437   3.402  1.4156 -0.6072  0.0510
 2003SOL    HW3 8066   1.600   1.541   3.292 -0.0091 -0.1636  0.4207
 2003SOL    MW4 8067   1.613   1.518   3.375  0.0005  0.0001 -0.0000
 2004SOL     OW 8068   1.406   1.690   3.449  0.1202  0.1383 -0.3282
 2004SOL    HW2 8069   1.396   1.681   3.544 -1.7898 -0.8786 -0.5985
 2004SOL    HW3 8070   1.477   1.630   3.426 -0.0783 -0.3526  0.3329
 2004SOL    MW4 8071   1.414   1.681   3.459  0.0005  0.0001 -0.0000
 2005SOL     OW 8072   1.363   1.939   3.365 -0.2506 -0.4045 -0.5435
 2005SOL    HW2 8073   1.440   1.987   3.395 -1.4800  1.1032  0.2974
 2005SOL    HW3 8074   1.381   1.848   3.389  1.5535 -0.1906 -0.9878
 2005SOL    MW4 8075   1.376   1.933   3.372  0.0005  0.0001 -0.0000
 2006SOL     OW 8076   1.586   2.092   3.469  0.5263  0.4538  0.5421
 2006SOL    HW2 8077   1.662   2.057   3.422 -1.3468 -0.6049 -1.8062
 2006SOL    HW3 8078   1.572   2.179   3.431 -1.1862 -0.5312 -1.1440
 2006SOL    MW4 8079   1.594   2.099   3.458  0.0005  0.0001 -0.0000
 2007SOL     OW 8080   1.585   2.348   3.360 -0.3408  0.4915 -0.2037
 2007SOL    HW2 8081   1.513   2.389   3.409 -2.5192 -1.5083 -1.6210
 2007SOL    HW3 8082   1.565   2.366   3.268  0.2783 -1.1609 -0.6833
 2007SOL    MW4 8083   1.573   2.356   3.354  0.0005  0.0001 -0.0000
 2008SOL     OW 8084   1.375   2.482   3.491  0.1296  0.1980 -0.3424
 2008SOL    HW2 8085   1.369   2.473   3.586 -0.6772 -0.6784 -0.4666
 2008SOL    HW3 8086   1.387   2.576   3.476 -2.1940  0.6626  0.5153
 2008SOL    MW4 8087   1.376   2.493   3.502  0.0005  0.0001 -0.0000
 2009SOL     OW 8088   1.338   2.748   3.376 -0.3493  0.4347 -0.1494
 2009SOL    HW2 8089   1.425   2.781   3.400  0.3753 -0.6647 -1.2066
 2009SOL    HW3 8090   1.340   2.742   3.281 -1.5201  0.2133 -0.1633
 2009SOL    MW4 8091   1.350   2.752   3.367  0.0005  0.0001 -0.0000
 2010SOL     OW 8092   1.589   2.819   3.473 -0.6929 -0.2897 -0.8744
 2010SOL    HW2 8093   1.655   2.760   3.437 -0.7573 -0.5374 -0.5900
 2010SOL    HW3 8094   1.614   2.906   3.441  0.9058 -0.1009  0.8079
 2010SOL    MW4 8095   1.601   2.823   3.464  0.0005  0.0001 -0.0000
 2011SOL     OW 8096   1.622   3.082   3.379 -0.2076  0.0290 -0.5885
 2011SOL    HW2 8097   1.678   3.158   3.393 -0.4922  0.0840  0.2730
 2011SOL    HW3 8098   1.533   3.114   3.394 -0.2238 -0.7961  1.2146
 2011SOL    MW4 8099   1.618   3.096   3.383  0.0005  0.0001 -0.0000
 2012SOL     OW 8100   1.361   3.201   3.483  0.1125  0.6631 -0.1308
 2012SOL    HW2 8101   1.362   3.205   3.579  1.0260 -2.0067  0.0135
 2012SOL    HW3 8102   1.276   3.163   3.462  0.4115  0.0882 -0.3087
 2012SOL    MW4 8103   1.350   3.197   3.493  0.0005  0.0001 -0.0000
 2013SOL     OW 8104   1.380   3.464   3.382 -0.0554  0.0923  0.4875
 2013SOL    HW2 8105   1.381   3.373   3.410  0.1269 -0.1155 -0.1855
 2013SOL    HW3 8106   1.293   3.496   3.407 -0.6439 -0.6691 -0.5465
 2013SOL    MW4 8107   1.369   3.456   3.389  0.0005  0.0001 -0.0000
 2014SOL     OW 8108   1.576   3.627   3.488 -0.1963  0.1535 -0.3797
 2014SOL    HW2 8109   1.573   3.615   3.583 -0.2961  1.0202 -0.2704
 2014SOL    HW3 8110   1.507   3.570   3.455 -0.0936 -0.2305  0.0593
 2014SOL    MW4 8111   1.567   3.618   3.496  0.0005  0.0001 -0.0000
 2015SOL     OW 8112   1.551   3.912   3.445  0.6231 -0.0644 -0.0439
 2015SOL    HW2 8113   1.560   3.819   3.465 -1.9058 -0.4341 -0.4759
 2015SOL    HW3 8114   1.561   3.918   3.350  0.6503  0.0871 -0.0321
 2015SOL    MW4 8115   1.554   3.900   3.435  0.0005  0.0001 -0.0000
 2016SOL     OW 8116   1.329   4.058   3.506  0.1011 -0.2522 -0.0350
 2016SOL    HW2 8117   1.326   4.141   3.459 -0.3684 -0.8762 -1.1285
 2016SOL    HW3 8118   1.405   4.013   3.469  0.5583 -0.1725  0.7984
 2016SOL    MW4 8119   1.339   4.063   3.495  0.0005  0.0001 -0.0000
 2017SOL     OW 8120   1.330   4.298   3.375 -0.2197  0.1390  0.1655
 2017SOL    HW2 8121   1.245   4.331   3.404 -0.4686  0.1381 -0.5483
 2017SOL    HW3 8122   1.328   4.308   3.280  0.0121 -1.1998  0.0117
 2017SOL    MW4 8123   1.319   4.304   3.366  0.0005  0.0001 -0.0000
 2018SOL     OW 8124   1.558   4.385   3.526  0.2897 -0.3850  0.0620
 2018SOL    HW2 8125   1.632   4.331   3.498  0.7877 -0.3453  1.2612
 2018SOL    HW3 8126   1.482   4.346   3.484  1.0158 -0.3048 -1.3490
 2018SOL    MW4 8127   1.558   4.373   3.517  0.0005  0.0001 -0.0000
 2019SOL     OW 8128   1.997   0.014   3.404  0.3163 -0.0958  0.0722
 2019SOL    HW2 8129   2.068   0.074   3.428  0.0694  0.1128  0.2927
 2019SOL    HW3 8130   1.919   0.054   3.443  0.2333 -0.8442  0.6801
 2019SOL    MW4 8131   1.996   0.027   3.412  0.0005  0.0001 -0.0000
 2020SOL     OW 8132   1.787   0.135   3.522 -0.8161 -0.4413  0.1041
 2020SOL    HW2 8133   1.791   0.119   3.616 -0.8626 -0.4477  0.1047
 2020SOL    HW3 8134   1.726   0.069   3.489 -0.9771 -0.2918  0.1018
 2020SOL    MW4 8135   1.779   0.124   3.530  0.0005  0.0001 -0.0000
 2021SOL     OW 8136   1.815   0.394   3.439  0.2539  0.1251  0.5161
 2021SOL    HW2 8137   1.801   0.305   3.471 -0.5056  0.5316  1.3311
 2021SOL    HW3 8138   1.822   0.384   3.344  0.6541 -0.8590  0.6403
 2021SOL    MW4 8139   1.814   0.381   3.431  0.0005  0.0001 -0.0000
 2022SOL     OW 8140   2.011   0.573   3.522  0.1737  0.0714 -0.3214
 2022SOL    HW2 8141   2.004   0.646   3.460 -1.0997  0.2959  0.0662
 2022SOL    HW3 8142   1.937   0.517   3.500 -0.1366  0.0230  0.8306
 2022SOL    MW4 8143   2.000   0.575   3.511  0.0005  0.0001 -0.0000
 2023SOL     OW 8144   2.022   0.812   3.357  0.4031 -0.0758  0.6754
 2023SOL    HW2 8145   2.107   0.849   3.383 -0.2371  2.3247 -0.5137
 2023SOL    HW3 8146   2.025   0.809   3.261 -1.7557  2.4213  0.4582
 2023SOL    MW4 8147   2.034   0.816   3.348  0.0005  0.0001 -0.0000
 2024SOL     OW 8148   1.782   0.891   3.498 -0.2875 -0.1890  0.1170
 2024SOL    HW2 8149   1.865   0.860   3.462  0.5226  2.5795 -0.5246
 2024SOL    HW3 8150   1.716   0.838   3.455  1.1345 -2.5816  0.7906
 2024SOL    MW4 8151   1.784   0.880   3.488  0.0005  0.0001 -0.0000
 2025SOL     OW 8152   1.809   1.159   3.389  0.2475  0.7617 -0.1693
 2025SOL    HW2 8153   1.894   1.198   3.409  0.3782  0.2106  0.3488
 2025SOL    HW3 8154   1.804   1.081   3.444 -0.2694  0.3696 -0.7596
 2025SOL    MW4 8155   1.820   1.154   3.399  0.0005  0.0001 -0.0000
 2026SOL     OW 8156   2.065   1.254   3.485 -0.2754 -0.2599  0.0364
 2026SOL    HW2 8157   2.068   1.253   3.581 -2.1488 -0.9206  0.1122
 2026SOL    HW3 8158   2.062   1.347   3.462 -1.6180 -0.1216  0.7064
 2026SOL    MW4 8159   2.065   1.266   3.494  0.0005  0.0001 -0.0000
 2027SOL     OW 8160   2.050   1.507   3.367  0.1130  0.1085 -0.3317
 2027SOL    HW2 8161   2.127   1.556   3.396  0.1107 -1.4993  2.5774
 2027SOL    HW3 8162   1.975   1.556   3.401 -0.0052 -0.2442 -0.0780
 2027SOL    MW4 8163   2.050   1.520   3.375  0.0005  0.0001 -0.0000
 2028SOL     OW 8164   1.841   1.666   3.462 -0.1632  0.1240  0.4375
 2028SOL    HW2 8165   1.823   1.746   3.413 -0.1252 -0.3823 -0.4115
 2028SOL    HW3 8166   1.764   1.611   3.448  0.4375 -0.5710 -0.1865
 2028SOL    MW4 8167   1.828   1.669   3.454  0.0005  0.0001 -0.0000
 2029SOL     OW 8168   1.815   1.945   3.372 -0.4158  0.3675 -0.3320
 2029SOL    HW2 8169   1.885   1.970   3.432  0.5692 -0.8418 -0.9573
 2029SOL    HW3 8170   1.852   1.957   3.285 -1.8865  2.2505 -0.7339
 2029SOL    MW4 8171   1.829   1.950   3.368  0.0005  0.0001 -0.0000
 2030SOL     OW 8172   2.035   2.083   3.478 -0.1373 -0.0446 -0.3258
 2030SOL    HW2 8173   2.121   2.056   3.445 -0.3517 -0.1684 -0.7871
 2030SOL    HW3 8174   2.028   2.175   3.453  0.3135  0.2616  0.6618
 2030SOL    MW4 8175   2.045   2.092   3.470  0.0005  0.0001 -0.0000
 2031SOL     OW 8176   2.036   2.363   3.381 -0.3410  0.3410  0.0753
 2031SOL    HW2 8177   2.108   2.415   3.417  1.5799 -2.4014  0.3503
 2031SOL    HW3 8178   2.048   2.369   3.286  0.2736 -0.1184  0.1201
 2031SOL    MW4 8179   2.047   2.371   3.373  0.0005  0.0001 -0.0000
 2032SOL     OW 8180   1.812   2.467   3.493 -0.2234 -0.1828 -0.3660
 2032SOL    HW2 8181   1.898   2.447   3.457 -0.2041 -0.2360 -0.2901
 2032SOL    HW3 8182   1.754   2.401   3.456 -0.5258  0.7691 -1.6242
 2032SOL    MW4 8183   1.816   2.456   3.483  0.0005  0.0001 -0.0000
 2033SOL     OW 8184   1.808   2.710   3.352  0.2794 -0.2918  0.0615
 2033SOL    HW2 8185   1.889   2.760   3.363 -0.1333  0.4343 -0.1662
 2033SOL    HW3 8186   1.829   2.623   3.385  1.0083  0.0307  0.4612
 2033SOL    MW4 8187   1.821   2.705   3.358  0.0005  0.0001 -0.0000
 2034SOL     OW 8188   2.022   2.852   3.433  0.3130  0.4362  0.1756
 2034SOL    HW2 8189   2.028   2.843   3.528 -0.7591 -0.2206  0.1919
 2034SOL    HW3 8190   2.002   2.944   3.418  0.8577  0.6188  0.5653
 2034SOL    MW4 8191   2.020   2.863   3.444  0.0005  0.0001 -0.0000
 2035SOL     OW 8192   1.995   3.120   3.385  0.6452  0.0352 -0.1640
 2035SOL    HW2 8193   2.077   3.158   3.417  1.2114 -1.0731 -0.2826
 2035SOL    HW3 8194   1.930   3.189   3.399  1.6067  0.9530 -0.1387
 2035SOL    MW4 8195   1.997   3.134   3.391  0.0005  0.0001 -0.0000
 2036SOL     OW 8196   1.789   3.295   3.460 -0.5960 -0.2185 -0.1494
 2036SOL    HW2 8197   1.757   3.304   3.550  1.5559 -0.0235  0.6255
 2036SOL    HW3 8198   1.793   3.385   3.427  1.5696  0.0087  0.6506
 2036SOL    MW4 8199   1.785   3.308   3.468  0.0005  0.0001 -0.0000
 2037SOL     OW 8200   1.812   3.555   3.356  0.1119  0.1516  0.1796
 2037SOL    HW2 8201   1.728   3.577   3.396  0.1793  1.7994 -0.5351
 2037SOL    HW3 8202   1.793   3.547   3.263  0.3132 -1.8094  0.2861
 2037SOL    MW4 8203   1.798   3.557   3.349  0.0005  0.0001 -0.0000
 2038SOL     OW 8204   2.020   3.647   3.506  0.0763 -0.1816  0.3676
 2038SOL    HW2 8205   2.093   3.611   3.456 -0.2039  0.1532 -0.2879
 2038SOL    HW3 8206   1.942   3.611   3.464 -0.2356  1.7068 -0.7302
 2038SOL    MW4 8207   2.019   3.637   3.494  0.0005  0.0001 -0.0000
 2039SOL     OW 8208   2.051   3.908   3.399 -0.4577  0.1602 -0.6279
 2039SOL    HW2 8209   1.979   3.959   3.435  1.7798  2.4056  0.8409
 2039SOL    HW3 8210   2.045   3.823   3.443 -1.6637  0.6300  0.1348
 2039SOL    MW4 8211   2.041   3.904   3.410  0.0005  0.0001 -0.0000
 2040SOL     OW 8212   1.803   4.006   3.500  0.2693 -0.1206  0.1807
 2040SOL    HW2 8213   1.808   3.993   3.595  0.2358 -0.1474  0.1788
 2040SOL    HW3 8214   1.724   3.959   3.474  1.1525 -1.4820 -0.0937
 2040SOL    MW4 8215   1.793   3.998   3.509  0.0005  0.0001 -0.0000
 2041SOL     OW 8216   1.808   4.306   3.407  0.6371  0.1463 -0.2103
 2041SOL    HW2 8217   1.807   4.212   3.423 -0.1846  0.3456  1.0005
 2041SOL    HW3 8218   1.780   4.316   3.316 -1.6365 -0.6588  0.3714
 2041SOL    MW4 8219   1.804   4.295   3.397  0.0005  0.0001 -0.0000
 2042SOL     OW 8220   2.003   4.449   3.535  0.3335 -0.3051  0.2395
 2042SOL    HW2 8221   1.929   4.402   3.498  0.3255  0.2539 -0.4621
 2042SOL    HW3 8222   1.999   4.536   3.495  0.5608  0.1762  1.2438
 2042SOL    MW4 8223   1.993   4.454   3.525  0.0005  0.0001 -0.0000
 2043SOL     OW 8224   2.417   0.007   3.426 -0.7392  0.0435  0.1791
 2043SOL    HW2 8225   2.417  -0.072   3.481  0.1352  0.4673  0.7996
 2043SOL    HW3 8226   2.429  -0.026   3.337 -0.7347 -0.5504  0.3958
 2043SOL    MW4 8227   2.419  -0.008   3.421  0.0005  0.0001 -0.0000
 2044SOL     OW 8228   2.199   0.175   3.502 -0.4842 -0.0095  0.0817
 2044SOL    HW2 8229   2.200   0.254   3.447  0.2690  0.6817  1.0695
 2044SOL    HW3 8230   2.276   0.125   3.474  0.0703  0.4872  0.7028
 2044SOL    MW4 8231   2.209   0.179   3.491  0.0005  0.0001 -0.0000
 2045SOL     OW 8232   2.167   0.414   3.352 -0.0107  0.0536  0.2796
 2045SOL    HW2 8233   2.257   0.426   3.384 -0.0773 -0.4351  0.6561
 2045SOL    HW3 8234   2.114   0.468   3.410 -0.0291 -0.1351  0.4387
 2045SOL    MW4 8235   2.172   0.423   3.364  0.0005  0.0001 -0.0000
 2046SOL     OW 8236   2.414   0.474   3.466 -0.1698  0.1840 -0.1244
 2046SOL    HW2 8237   2.491   0.439   3.421 -0.0387 -0.1004  0.3187
 2046SOL    HW3 8238   2.411   0.566   3.440 -0.6949 -0.2202 -1.5430
 2046SOL    MW4 8239   2.424   0.482   3.457  0.0005  0.0001 -0.0000
 2047SOL     OW 8240   2.457   0.737   3.393  0.2353 -0.0778  0.4786
 2047SOL    HW2 8241   2.533   0.787   3.422  0.6596  0.0942 -0.9012
 2047SOL    HW3 8242   2.466   0.733   3.298 -1.9140  0.6370  0.2226
 2047SOL    MW4 8243   2.468   0.743   3.384  0.0005  0.0001 -0.0000
 2048SOL     OW 8244   2.245   0.904   3.483 -0.3961 -0.0342 -0.0724
 2048SOL    HW2 8245   2.271   0.991   3.454 -0.3196  0.6069  1.8464
 2048SOL    HW3 8246   2.317   0.847   3.456  0.3382  0.7796  0.1478
 2048SOL    MW4 8247   2.258   0.908   3.476  0.0005  0.0001 -0.0000
 2049SOL     OW 8248   2.293   1.151   3.370  0.0805  0.0230  0.3898
 2049SOL    HW2 8249   2.357   1.205   3.416  0.6849  0.3171 -0.7814
 2049SOL    HW3 8250   2.208   1.187   3.397  0.4349  0.4626  0.9381
 2049SOL    MW4 8251   2.290   1.163   3.380  0.0005  0.0001 -0.0000
 2050SOL     OW 8252   2.526   1.278   3.451  0.0910  0.6220  0.3484
 2050SOL    HW2 8253   2.529   1.268   3.546  1.6921 -0.4851  0.1894
 2050SOL    HW3 8254   2.599   1.226   3.418 -0.0391  1.5232 -1.4553
 2050SOL    MW4 8255   2.536   1.270   3.459  0.0005  0.0001 -0.0000
 2051SOL     OW 8256   2.518   1.547   3.372  0.4438  0.1090 -0.1331
 2051SOL    HW2 8257   2.535   1.455   3.391  0.8787 -0.0025 -1.0289
 2051SOL    HW3 8258   2.513   1.551   3.276 -0.7951  0.8043 -0.0491
 2051SOL    MW4 8259   2.520   1.535   3.362  0.0005  0.0001 -0.0000
 2052SOL     OW 8260   2.273   1.659   3.453  0.1830 -0.3407 -0.4509
 2052SOL    HW2 8261   2.272   1.660   3.549  1.0155  1.5218 -0.4397
 2052SOL    HW3 8262   2.356   1.617   3.430  0.3516 -0.0656 -0.3472
 2052SOL    MW4 8263   2.284   1.654   3.463  0.0005  0.0001 -0.0000
 2053SOL     OW 8264   2.270   1.949   3.388 -0.2955 -0.1664 -0.3164
 2053SOL    HW2 8265   2.258   1.860   3.422 -0.8465 -0.7074 -1.8621
 2053SOL    HW3 8266   2.239   1.944   3.297 -0.5162  1.6573 -0.3593
 2053SOL    MW4 8267   2.264   1.937   3.381  0.0005  0.0001 -0.0000
 2054SOL     OW 8268   2.488   2.062   3.504  0.0877  0.2689 -0.0820
 2054SOL    HW2 8269   2.478   2.058   3.599 -0.9040 -1.7974 -0.2487
 2054SOL    HW3 8270   2.418   2.007   3.470 -0.0878  1.6572 -2.0600
 2054SOL    MW4 8271   2.477   2.054   3.512  0.0005  0.0001 -0.0000
 2055SOL     OW 8272   2.475   2.320   3.381 -0.2571 -0.7527 -0.0118
 2055SOL    HW2 8273   2.558   2.353   3.417 -1.4579  0.7428  1.4752
 2055SOL    HW3 8274   2.473   2.227   3.405  1.1784 -0.9092 -0.4534
 2055SOL    MW4 8275   2.486   2.312   3.389  0.0005  0.0001 -0.0000
 2056SOL     OW 8276   2.253   2.486   3.481  0.0261  0.1093 -0.0491
 2056SOL    HW2 8277   2.260   2.575   3.447  1.0520 -0.0584 -0.3041
 2056SOL    HW3 8278   2.330   2.441   3.445  0.4674 -0.4000  1.5012
 2056SOL    MW4 8279   2.264   2.492   3.472  0.0005  0.0001 -0.0000
 2057SOL     OW 8280   2.266   2.729   3.374  0.0525  0.4395  0.2109
 2057SOL    HW2 8281   2.186   2.778   3.393 -0.7702 -0.9463  0.3914
 2057SOL    HW3 8282   2.260   2.709   3.281 -0.3726 -0.6307  0.4583
 2057SOL    MW4 8283   2.255   2.733   3.364  0.0005  0.0001 -0.0000
 2058SOL     OW 8284   2.474   2.835   3.522  0.4528 -0.1161  0.0665
 2058SOL    HW2 8285   2.486   2.927   3.498  0.1402 -0.1584 -0.2556
 2058SOL    HW3 8286   2.407   2.803   3.462 -1.5728  0.2189  2.0806
 2058SOL    MW4 8287   2.467   2.843   3.511  0.0005  0.0001 -0.0000
 2059SOL     OW 8288   2.457   3.080   3.394  0.3698  0.2333 -0.3740
 2059SOL    HW2 8289   2.520   3.133   3.442 -0.5766  2.0635 -1.1069
 2059SOL    HW3 8290   2.480   3.092   3.302  0.9096 -1.6342 -0.5053
 2059SOL    MW4 8291   2.468   3.089   3.388  0.0005  0.0001 -0.0000
 2060SOL     OW 8292   2.213   3.251   3.492  0.0491 -0.6689  0.1076
 2060SOL    HW2 8293   2.219   3.241   3.587  0.1417 -0.7952  0.0888
 2060SOL    HW3 8294   2.284   3.197   3.458  1.7147  1.4720  0.0786
 2060SOL    MW4 8295   2.223   3.243   3.500  0.0005  0.0001 -0.0000
 2061SOL     OW 8296   2.247   3.523   3.390 -0.7408  0.1720 -0.4034
 2061SOL    HW2 8297   2.246   3.437   3.433 -0.8254  0.5351  0.3234
 2061SOL    HW3 8298   2.234   3.503   3.297  2.4194 -0.8554 -0.6867
 2061SOL    MW4 8299   2.245   3.509   3.383  0.0005  0.0001 -0.0000
 2062SOL     OW 8300   2.479   3.635   3.480 -0.2409 -0.1095 -0.1096
 2062SOL    HW2 8301   2.489   3.718   3.433 -0.3572 -1.2955 -2.3070
 2062SOL    HW3 8302   2.400   3.596   3.442  1.0365 -2.2136 -0.6762
 2062SOL    MW4 8303   2.470   3.641   3.469  0.0005  0.0001 -0.0000
 2063SOL     OW 8304   2.496   3.895   3.385  0.0365  0.5789  0.4340
 2063SOL    HW2 8305   2.567   3.948   3.421  0.3379 -1.1492  2.4830
 2063SOL    HW3 8306   2.418   3.925   3.430 -0.0700  0.4779  0.3181
 2063SOL    MW4 8307   2.495   3.906   3.396  0.0005  0.0001 -0.0000
 2064SOL     OW 8308   2.273   4.021   3.509  0.1500  0.0479  0.1265
 2064SOL    HW2 8309   2.271   4.111   3.475 -2.8480  0.3232  0.8716
 2064SOL    HW3 8310   2.204   3.976   3.460  1.2098 -1.6997  0.2090
 2064SOL    MW4 8311   2.264   4.027   3.498  0.0005  0.0001 -0.0000
 2065SOL     OW 8312   2.205   4.304   3.427 -0.1056  0.1772  0.0485
 2065SOL    HW2 8313   2.129   4.350   3.463 -1.0448 -1.1828 -0.1643
 2065SOL    HW3 8314   2.186   4.294   3.334 -0.7813 -2.2580  0.4113
 2065SOL    MW4 8315   2.192   4.309   3.419  0.0005  0.0001 -0.0000
 2066SOL     OW 8316   2.470   4.408   3.528  0.2547 -0.7537 -0.1618
 2066SOL    HW2 8317   2.476   4.410   3.623 -0.3237  0.4520 -0.1398
 2066SOL    HW3 8318   2.378   4.386   3.511 -0.0195  0.5610 -0.4285
 2066SOL    MW4 8319   2.459   4.405   3.538  0.0005  0.0001 -0.0000
 2067SOL     OW 8320   2.865   4.661   3.386  0.0389 -0.0893  0.2650
 2067SOL    HW2 8321   2.788   4.711   3.412 -1.3534 -1.6208 -0.8010
 2067SOL    HW3 8322   2.872   4.676   3.292 -1.8856 -3.7869 -0.5624
 2067SOL    MW4 8323   2.856   4.670   3.377  0.0005  0.0001 -0.0000
 2068SOL     OW 8324   2.658   0.121   3.507 -0.0344 -0.4910 -0.0584
 2068SOL    HW2 8325   2.664   0.206   3.463 -0.9826 -0.7625 -0.7113
 2068SOL    HW3 8326   2.570   0.089   3.486 -0.4726 -0.6718  1.9353
 2068SOL    MW4 8327   2.647   0.128   3.498  0.0005  0.0001 -0.0000
 2069SOL     OW 8328   2.661   0.354   3.386  0.3609  0.6276  0.0753
 2069SOL    HW2 8329   2.735   0.396   3.429  0.7696  0.8372 -0.8266
 2069SOL    HW3 8330   2.674   0.371   3.293  0.2899 -1.1026 -0.2702
 2069SOL    MW4 8331   2.673   0.362   3.379  0.0005  0.0001 -0.0000
 2070SOL     OW 8332   2.909   0.521   3.465 -0.1756 -0.2586  0.4103
 2070SOL    HW2 8333   2.928   0.537   3.557 -1.9077  1.5257  0.4856
 2070SOL    HW3 8334   2.910   0.608   3.424 -2.7319 -0.6431 -0.5757
 2070SOL    MW4 8335   2.912   0.535   3.472  0.0005  0.0001 -0.0000
 2071SOL     OW 8336   2.905   0.777   3.332  0.3665 -0.4894 -0.6199
 2071SOL    HW2 8337   2.985   0.808   3.375  0.6672 -1.8601 -0.1660
 2071SOL    HW3 8338   2.835   0.795   3.395  0.8392 -2.7132  0.5859
 2071SOL    MW4 8339   2.906   0.783   3.346  0.0005  0.0001 -0.0000
 2072SOL     OW 8340   2.702   0.889   3.489  0.1895 -0.4777 -0.3474
 2072SOL    HW2 8341   2.714   0.916   3.580  0.2872 -0.8078 -0.2619
 2072SOL    HW3 8342   2.721   0.968   3.438  1.9389 -0.7670 -0.1757
 2072SOL    MW4 8343   2.706   0.903   3.494  0.0005  0.0001 -0.0000
 2073SOL     OW 8344   2.739   1.126   3.352  0.2263 -0.4705 -0.2070
 2073SOL    HW2 8345   2.779   1.209   3.379  0.4572 -1.0511  1.2725
 2073SOL    HW3 8346   2.770   1.113   3.262  0.0709  1.1078 -0.5099
 2073SOL    MW4 8347   2.748   1.135   3.344  0.0005  0.0001 -0.0000
 2074SOL     OW 8348   2.897   1.329   3.431  0.3561 -0.0597  0.1793
 2074SOL    HW2 8349   2.898   1.328   3.527  0.9949  0.9325  0.1978
 2074SOL    HW3 8350   2.969   1.272   3.406  1.1138  0.8239  0.3184
 2074SOL    MW4 8351   2.907   1.321   3.440  0.0005  0.0001 -0.0000
 2075SOL     OW 8352   2.923   1.595   3.379  0.2831  0.1966  0.3573
 2075SOL    HW2 8353   2.845   1.637   3.416 -0.0894  0.4797 -0.7296
 2075SOL    HW3 8354   2.912   1.502   3.399 -0.8065  0.1067 -0.6073
 2075SOL    MW4 8355   2.911   1.588   3.387  0.0005  0.0001 -0.0000
 2076SOL     OW 8356   2.714   1.725   3.493  0.0852  0.0430  0.3232
 2076SOL    HW2 8357   2.727   1.805   3.443 -0.2449 -0.3650 -0.4263
 2076SOL    HW3 8358   2.647   1.677   3.444  0.8560 -1.0521  0.3257
 2076SOL    MW4 8359   2.707   1.729   3.480  0.0005  0.0001 -0.0000
 2077SOL     OW 8360   2.731   1.966   3.377  0.6671 -0.2462  0.7098
 2077SOL    HW2 8361   2.655   2.000   3.423 -0.7133 -2.5614  0.2220
 2077SOL    HW3 8362   2.712   1.982   3.284  1.5770  0.7206  0.6806
 2077SOL    MW4 8363   2.718   1.973   3.371  0.0005  0.0001 -0.0000
 2078SOL     OW 8364   2.955   2.089   3.470 -0.0151 -0.1925  0.5317
 2078SOL    HW2 8365   2.949   2.108   3.564 -1.3288  1.2965  0.1670
 2078SOL    HW3 8366   2.877   2.038   3.450 -0.3154  0.4502  0.0367
 2078SOL    MW4 8367   2.944   2.085   3.480  0.0005  0.0001 -0.0000
 2079SOL     OW 8368   2.891   2.343   3.344 -0.4814  0.2102  0.2597
 2079SOL    HW2 8369   2.891   2.251   3.371  0.5505  0.3894  0.8938
 2079SOL    HW3 8370   2.875   2.340   3.250  0.0324 -0.6505  0.1929
 2079SOL    MW4 8371   2.889   2.330   3.335  0.0005  0.0001 -0.0000
 2080SOL     OW 8372   2.702   2.453   3.483 -0.2630 -0.1443  0.6260
 2080SOL    HW2 8373   2.706   2.422   3.573 -0.3993  0.2678  0.7753
 2080SOL    HW3 8374   2.779   2.415   3.441 -0.1515 -0.2651  0.9385
 2080SOL    MW4 8375   2.713   2.444   3.489  0.0005  0.0001 -0.0000
 2081SOL     OW 8376   2.723   2.708   3.425  0.5787 -0.0874  0.5415
 2081SOL    HW2 8377   2.702   2.616   3.444  1.3906 -0.0930  1.4477
 2081SOL    HW3 8378   2.641   2.755   3.441 -0.1864 -0.8075 -1.1374
 2081SOL    MW4 8379   2.709   2.702   3.430  0.0005  0.0001 -0.0000
 2082SOL     OW 8380   2.963   2.835   3.485  0.2979  0.3476  0.0835
 2082SOL    HW2 8381   2.976   2.856   3.577 -0.1320  3.0441 -0.4272
 2082SOL    HW3 8382   2.879   2.789   3.483 -0.0662  0.9536  0.9513
 2082SOL    MW4 8383   2.954   2.832   3.497  0.0005  0.0001 -0.0000
 2083SOL     OW 8384   2.936   3.114   3.410 -0.6282 -0.2802 -0.2471
 2083SOL    HW2 8385   2.955   3.023   3.433 -0.6454 -0.3408 -0.4727
 2083SOL    HW3 8386   2.924   3.113   3.315  0.0956  0.0845 -0.3469
 2083SOL    MW4 8387   2.937   3.102   3.401  0.0005  0.0001 -0.0000
 2084SOL     OW 8388   2.681   3.237   3.476 -0.5312  0.2106 -0.1398
 2084SOL    HW2 8389   2.677   3.221   3.570 -0.2581 -0.3440 -0.2191
 2084SOL    HW3 8390   2.767   3.204   3.450 -1.0868 -0.7504 -0.7854
 2084SOL    MW4 8391   2.692   3.231   3.485  0.0005  0.0001 -0.0000
 2085SOL     OW 8392   2.685   3.485   3.372  0.1641  0.5062 -0.4318
 2085SOL    HW2 8393   2.680   3.397   3.410 -0.1881  1.0905  0.9042
 2085SOL    HW3 8394   2.614   3.534   3.414  0.1965  1.3702 -1.3469
 2085SOL    MW4 8395   2.675   3.480   3.383  0.0005  0.0001 -0.0000
 2086SOL     OW 8396   2.906   3.608   3.501  0.4768  0.4011 -0.4697
 2086SOL    HW2 8397   2.906   3.693   3.457  0.2658 -0.2340 -1.7226
 2086SOL    HW3 8398   2.834   3.560   3.460  0.5501 -0.3581  0.2795
 2086SOL    MW4 8399   2.897   3.613   3.490  0.0005  0.0001 -0.0000
 2087SOL     OW 8400   2.912   3.879   3.349  0.3950  0.0720  0.2548
 2087SOL    HW2 8401   2.990   3.917   3.390  0.9450 -2.6655  1.8684
 2087SOL    HW3 8402   2.839   3.925   3.390  1.1031  2.0769 -0.6638
 2087SOL    MW4 8403   2.913   3.890   3.360  0.0005  0.0001 -0.0000
 2088SOL     OW 8404   2.709   4.019   3.486  0.0332 -0.1901  1.0461
 2088SOL    HW2 8405   2.681   4.015   3.577 -0.4023  0.7565  0.9600
 2088SOL    HW3 8406   2.703   4.112   3.463 -0.1638 -0.4636 -0.0377
 2088SOL    MW4 8407   2.705   4.031   3.495  0.0005  0.0001 -0.0000
 2089SOL     OW 8408   2.674   4.279   3.423 -0.0190 -0.3316 -0.0503
 2089SOL    HW2 8409   2.755   4.319   3.455 -1.1969  1.8935  0.2108
 2089SOL    HW3 8410   2.604   4.330   3.463 -1.5489 -0.3889 -2.5446
 2089SOL    MW4 8411   2.675   4.291   3.433  0.0005  0.0001 -0.0000
 2090SOL     OW 8412   2.933   4.390   3.486 -0.7377 -0.0704  0.4234
 2090SOL    HW2 8413   2.939   4.402   3.581 -0.6229  1.1180  0.2764
 2090SOL    HW3 8414   2.908   4.476   3.453 -0.5172 -0.4147 -0.6520
 2090SOL    MW4 8415   2.930   4.403   3.494  0.0005  0.0001 -0.0000
 2091SOL     OW 8416   3.347   0.014   3.411  0.3866 -0.2780  0.1235
 2091SOL    HW2 8417   3.264   0.045   3.447 -0.3862 -1.1992 -0.8459
 2091SOL    HW3 8418   3.336   0.018   3.316  1.8498  0.6341 -0.0286
 2091SOL    MW4 8419   3.335   0.019   3.403  0.0005  0.0001 -0.0000
 2092SOL     OW 8420   3.095   0.095   3.527 -0.1115  0.1923  0.8150
 2092SOL    HW2 8421   3.105   0.187   3.503  1.5461 -0.6758 -2.0741
 2092SOL    HW3 8422   3.020   0.065   3.475 -0.6718 -0.0947  1.7781
 2092SOL    MW4 8423   3.086   0.103   3.517  0.0005  0.0001 -0.0000
 2093SOL     OW 8424   3.110   0.337   3.394 -0.0590  0.2000 -0.3577
 2093SOL    HW2 8425   3.035   0.393   3.415 -0.3709 -0.5924  0.6606
 2093SOL    HW3 8426   3.109   0.332   3.298 -1.4625 -0.0063 -0.3480
 2093SOL    MW4 8427   3.100   0.344   3.384  0.0005  0.0001 -0.0000
 2094SOL     OW 8428   3.350   0.493   3.461 -0.4497 -0.0289  0.2545
 2094SOL    HW2 8429   3.355   0.522   3.552 -2.0875  0.2544  0.2648
 2094SOL    HW3 8430   3.264   0.452   3.453  0.2751 -1.3989 -0.7857
 2094SOL    MW4 8431   3.339   0.491   3.472  0.0005  0.0001 -0.0000
 2095SOL     OW 8432   3.369   0.762   3.368  0.0262 -0.1866 -0.0567
 2095SOL    HW2 8433   3.446   0.810   3.400 -0.7862  0.6134  0.7297
 2095SOL    HW3 8434   3.371   0.679   3.415 -0.8884  0.7874  1.7551
 2095SOL    MW4 8435   3.379   0.757   3.378  0.0005  0.0001 -0.0000
 2096SOL     OW 8436   3.141   0.911   3.443  0.0018  0.0404 -0.0969
 2096SOL    HW2 8437   3.133   0.998   3.405  0.1680  0.0422 -0.1286
 2096SOL    HW3 8438   3.222   0.876   3.406  0.1599  0.0401  0.2515
 2096SOL    MW4 8439   3.151   0.918   3.433  0.0005  0.0001 -0.0000
 2097SOL     OW 8440   3.122   1.162   3.338  0.0199 -0.2472 -0.1862
 2097SOL    HW2 8441   3.202   1.211   3.357  0.3916 -0.7918 -0.3321
 2097SOL    HW3 8442   3.126   1.146   3.244 -0.5005  0.1407 -0.2750
 2097SOL    MW4 8443   3.133   1.166   3.328  0.0005  0.0001 -0.0000
 2098SOL     OW 8444   3.339   1.295   3.458  0.1544  0.1665 -0.0918
 2098SOL    HW2 8445   3.413   1.239   3.436  0.1682 -0.0026  0.3845
 2098SOL    HW3 8446   3.363   1.381   3.422  0.4638  0.0505 -0.1670
 2098SOL    MW4 8447   3.352   1.299   3.450  0.0005  0.0001 -0.0000
 2099SOL     OW 8448   3.379   1.535   3.341  0.3957 -0.3673  0.0159
 2099SOL    HW2 8449   3.450   1.575   3.391  0.7798 -1.4687  0.3684
 2099SOL    HW3 8450   3.299   1.570   3.380  0.7135 -0.4917  0.7852
 2099SOL    MW4 8451   3.378   1.545   3.353  0.0005  0.0001 -0.0000
 2100SOL     OW 8452   3.162   1.645   3.476 -0.4010 -0.0253 -0.2447
 2100SOL    HW2 8453   3.167   1.736   3.446 -0.1550  0.2339  0.5680
 2100SOL    HW3 8454   3.074   1.617   3.453 -0.1622  0.1136 -1.3566
 2100SOL    MW4 8455   3.151   1.653   3.469  0.0005  0.0001 -0.0000
 2101SOL     OW 8456   3.167   1.915   3.384  0.0439 -0.1328  0.3175
 2101SOL    HW2 8457   3.091   1.964   3.416  0.3430  0.6461 -0.1444
 2101SOL    HW3 8458   3.163   1.924   3.289 -0.8731 -2.4707  0.0987
 2101SOL    MW4 8459   3.156   1.923   3.376  0.0005  0.0001 -0.0000
 2102SOL     OW 8460   3.398   2.085   3.503 -0.2042  0.1471  0.1639
 2102SOL    HW2 8461   3.405   2.162   3.447 -1.7954  1.4585  1.7077
 2102SOL    HW3 8462   3.312   2.048   3.482 -0.3589  0.0421  0.9699
 2102SOL    MW4 8463   3.388   2.090   3.493  0.0005  0.0001 -0.0000
 2103SOL     OW 8464   3.384   2.332   3.358 -0.0018  0.3243  0.4612
 2103SOL    HW2 8465   3.455   2.371   3.409 -0.5291  0.1275  1.3619
 2103SOL    HW3 8466   3.307   2.385   3.381 -0.2348  0.2564 -0.1631
 2103SOL    MW4 8467   3.383   2.344   3.368  0.0005  0.0001 -0.0000
 2104SOL     OW 8468   3.139   2.456   3.478  0.2506  0.5567  0.2355
 2104SOL    HW2 8469   3.141   2.540   3.433  1.3557  0.1668 -0.4652
 2104SOL    HW3 8470   3.071   2.406   3.433 -0.2413  0.9745  0.4998
 2104SOL    MW4 8471   3.130   2.460   3.466  0.0005  0.0001 -0.0000
 2105SOL     OW 8472   3.179   2.716   3.360 -0.3688  0.5440  0.5512
 2105SOL    HW2 8473   3.247   2.753   3.417 -0.2708  1.1603  0.0484
 2105SOL    HW3 8474   3.096   2.743   3.400 -0.3078  0.4864  0.7158
 2105SOL    MW4 8475   3.177   2.724   3.373  0.0005  0.0001 -0.0000
 2106SOL     OW 8476   3.363   2.824   3.526  0.1473  0.3259  0.5166
 2106SOL    HW2 8477   3.429   2.769   3.484  0.9910  0.3412  1.7912
 2106SOL    HW3 8478   3.365   2.906   3.477  0.2667 -0.0806 -0.1633
 2106SOL    MW4 8479   3.372   2.828   3.514  0.0005  0.0001 -0.0000
 2107SOL     OW 8480   3.383   3.084   3.398  0.2843  0.1849  0.2719
 2107SOL    HW2 8481   3.457   3.132   3.436  0.1883  0.4213  0.1621
 2107SOL    HW3 8482   3.306   3.124   3.438  0.1866  0.3740 -0.1041
 2107SOL    MW4 8483   3.383   3.096   3.408  0.0005  0.0001 -0.0000
 2108SOL     OW 8484   3.162   3.261   3.510 -0.2520  0.7086  0.1042
 2108SOL    HW2 8485   3.174   3.342   3.460  1.1544 -1.0113 -2.4680
 2108SOL    HW3 8486   3.088   3.218   3.467  1.2733 -1.0143 -0.8623
 2108SOL    MW4 8487   3.154   3.266   3.498  0.0005  0.0001 -0.0000
 2109SOL     OW 8488   3.149   3.507   3.395  0.3918  0.0047 -0.3867
 2109SOL    HW2 8489   3.071   3.552   3.428  1.5659  1.2260  0.7988
 2109SOL    HW3 8490   3.140   3.509   3.300  0.1576  2.3189 -0.3407
 2109SOL    MW4 8491   3.138   3.513   3.387  0.0005  0.0001 -0.0000
 2110SOL     OW 8492   3.375   3.629   3.503  0.1867  0.0505 -0.1081
 2110SOL    HW2 8493   3.367   3.706   3.446 -0.2045  0.2062  0.1568
 2110SOL    HW3 8494   3.304   3.571   3.475 -1.4195  1.0836  1.7007
 2110SOL    MW4 8495   3.365   3.631   3.492  0.0005  0.0001 -0.0000
 2111SOL     OW 8496   3.351   3.854   3.331  0.2100 -0.0070 -0.0042
 2111SOL    HW2 8497   3.419   3.905   3.375 -0.4651  1.7521 -0.9446
 2111SOL    HW3 8498   3.269   3.894   3.360 -0.3874 -1.3531  0.1930
 2111SOL    MW4 8499   3.349   3.866   3.341  0.0005  0.0001 -0.0000
 2112SOL     OW 8500   3.142   3.995   3.470  0.1463 -0.1955  0.6062
 2112SOL    HW2 8501   3.136   4.014   3.564  0.0828  1.3338  0.3078
 2112SOL    HW3 8502   3.137   4.081   3.428 -1.3210 -0.9790 -0.8764
 2112SOL    MW4 8503   3.141   4.009   3.477  0.0005  0.0001 -0.0000
 2113SOL     OW 8504   3.147   4.253   3.370  0.1659  0.1954  0.1091
 2113SOL    HW2 8505   3.220   4.300   3.409  0.2670 -0.4197  0.6705
 2113SOL    HW3 8506   3.069   4.292   3.410  0.2660 -0.3886  0.8858
 2113SOL    MW4 8507   3.146   4.264   3.380  0.0005  0.0001 -0.0000
 2114SOL     OW 8508   3.364   4.408   3.483 -0.0806  0.5170  0.3975
 2114SOL    HW2 8509   3.351   4.393   3.577 -3.3627 -0.0442 -0.0913
 2114SOL    HW3 8510   3.358   4.503   3.473 -3.0199  0.3745  0.3745
 2114SOL    MW4 8511   3.361   4.419   3.494  0.0005  0.0001 -0.0000
 2115SOL     OW 8512   3.837   4.636   3.402 -0.3884 -0.5451 -0.1717
 2115SOL    HW2 8513   3.760   4.680   3.438  0.0314  0.3897 -0.4046
 2115SOL    HW3 8514   3.828   4.644   3.307 -1.1281 -2.3847 -0.2793
 2115SOL    MW4 8515   3.826   4.643   3.394  0.0005  0.0001 -0.0000
 2116SOL     OW 8516   3.612   0.119   3.511 -0.0640  0.2905 -0.4493
 2116SOL    HW2 8517   3.597   0.195   3.455  0.9322  0.1452 -0.9265
 2116SOL    HW3 8518   3.529   0.071   3.509  0.0217  0.1860 -1.9526
 2116SOL    MW4 8519   3.599   0.123   3.503  0.0005  0.0001 -0.0000
 2117SOL     OW 8520   3.590   0.371   3.401  0.2011 -0.1223 -0.2816
 2117SOL    HW2 8521   3.661   0.424   3.438  0.1948 -0.3334  0.0359
 2117SOL    HW3 8522   3.510   0.411   3.436  0.1442  0.3484 -0.9407
 2117SOL    MW4 8523   3.589   0.383   3.410  0.0005  0.0001 -0.0000
 2118SOL     OW 8524   3.798   0.486   3.550 -0.1366  0.4887  0.1606
 2118SOL    HW2 8525   3.821   0.484   3.643  0.0444 -1.7245  0.0959
 2118SOL    HW3 8526   3.879   0.462   3.505 -1.3731 -3.1506 -0.2882
 2118SOL    MW4 8527   3.812   0.483   3.556  0.0005  0.0001 -0.0000
 2119SOL     OW 8528   3.807   0.740   3.433  0.1687 -0.3234 -0.2716
 2119SOL    HW2 8529   3.890   0.778   3.463 -0.7658  0.4120  1.4589
 2119SOL    HW3 8530   3.803   0.655   3.477 -0.6488  0.2445  0.7596
 2119SOL    MW4 8531   3.817   0.734   3.443  0.0005  0.0001 -0.0000
 2120SOL     OW 8532   3.589   0.892   3.501  0.2119  0.3385 -0.1346
 2120SOL    HW2 8533   3.583   0.905   3.596  0.5078 -2.6121  0.3294
 2120SOL    HW3 8534   3.661   0.831   3.489 -0.3038  0.0855 -2.2182
 2120SOL    MW4 8535   3.598   0.886   3.512  0.0005  0.0001 -0.0000
 2121SOL     OW 8536   3.564   1.147   3.401  0.3519 -0.3313  0.5487
 2121SOL    HW2 8537   3.578   1.056   3.428  1.3349 -0.0096  1.1534
 2121SOL    HW3 8538   3.569   1.145   3.305 -1.3555 -1.1882  0.4592
 2121SOL    MW4 8539   3.567   1.135   3.392  0.0005  0.0001 -0.0000
 2122SOL     OW 8540   3.797   1.282   3.449 -0.1014  0.0937 -0.1091
 2122SOL    HW2 8541   3.809   1.283   3.544  0.8031 -0.7930 -0.2052
 2122SOL    HW3 8542   3.719   1.228   3.435  0.1201 -0.2809  0.0963
 2122SOL    MW4 8543   3.788   1.275   3.460  0.0005  0.0001 -0.0000
 2123SOL     OW 8544   3.803   1.560   3.371  0.4053 -0.0965  0.7962
 2123SOL    HW2 8545   3.886   1.593   3.405  0.4439 -0.4300  1.0206
 2123SOL    HW3 8546   3.794   1.472   3.408  0.1399 -0.2114  0.4623
 2123SOL    MW4 8547   3.813   1.553   3.380  0.0005  0.0001 -0.0000
 2124SOL     OW 8548   3.584   1.685   3.468  0.0890  0.3449 -0.2146
 2124SOL    HW2 8549   3.586   1.777   3.442  0.9710  0.3049 -0.3065
 2124SOL    HW3 8550   3.657   1.645   3.420  0.3025 -0.2017  0.5572
 2124SOL    MW4 8551   3.594   1.692   3.458  0.0005  0.0001 -0.0000
 2125SOL     OW 8552   3.597   1.928   3.364  0.0365 -0.5910 -0.2730
 2125SOL    HW2 8553   3.681   1.969   3.382  0.0173 -0.6588 -0.0291
 2125SOL    HW3 8554   3.533   1.984   3.407  0.0278 -0.9841  0.2312
 2125SOL    MW4 8555   3.600   1.941   3.372  0.0005  0.0001 -0.0000
 2126SOL     OW 8556   3.811   2.060   3.460 -0.2538 -0.0702  0.4297
 2126SOL    HW2 8557   3.809   2.051   3.555 -0.2867 -0.5743  0.3821
 2126SOL    HW3 8558   3.884   2.005   3.432 -1.8714 -2.0294 -0.0594
 2126SOL    MW4 8559   3.820   2.052   3.469  0.0005  0.0001 -0.0000
 2127SOL     OW 8560   3.789   2.322   3.405 -0.0277 -0.6156  0.5493
 2127SOL    HW2 8561   3.877   2.357   3.420 -0.2433  0.3976 -0.5052
 2127SOL    HW3 8562   3.802   2.227   3.401  0.9299 -0.5096  0.9716
 2127SOL    MW4 8563   3.802   2.314   3.406  0.0005  0.0001 -0.0000
 2128SOL     OW 8564   3.573   2.427   3.532  0.3670 -0.6775  0.1701
 2128SOL    HW2 8565   3.588   2.518   3.507  0.7949 -0.5209  0.9801
 2128SOL    HW3 8566   3.650   2.380   3.499 -0.1824 -0.8698 -0.8595
 2128SOL    MW4 8567   3.585   2.433   3.524  0.0005  0.0001 -0.0000
 2129SOL     OW 8568   3.580   2.685   3.415  0.3350 -0.3445 -0.6054
 2129SOL    HW2 8569   3.666   2.716   3.445  0.4115 -0.4307 -0.7349
 2129SOL    HW3 8570   3.582   2.697   3.320  0.3017 -0.5904 -0.6376
 2129SOL    MW4 8571   3.592   2.691   3.406  0.0005  0.0001 -0.0000
 2130SOL     OW 8572   3.818   2.822   3.504 -0.2003  0.1821  0.5609
 2130SOL    HW2 8573   3.832   2.831   3.598  0.6176  0.2967  0.4319
 2130SOL    HW3 8574   3.800   2.911   3.473 -0.6852  0.1135  0.6408
 2130SOL    MW4 8575   3.817   2.835   3.512  0.0005  0.0001 -0.0000
 2131SOL     OW 8576   3.795   3.085   3.375 -0.8751 -0.1909 -0.0116
 2131SOL    HW2 8577   3.869   3.126   3.420 -1.4747  0.5867  0.2792
 2131SOL    HW3 8578   3.811   3.101   3.282 -1.7094  1.7691  0.1582
 2131SOL    MW4 8579   3.807   3.093   3.369  0.0005  0.0001 -0.0000
 2132SOL     OW 8580   3.592   3.240   3.479 -0.0387 -0.2492 -0.1985
 2132SOL    HW2 8581   3.613   3.329   3.449  0.0122 -0.0420  0.4447
 2132SOL    HW3 8582   3.659   3.185   3.439 -0.4489 -0.0879 -1.1217
 2132SOL    MW4 8583   3.604   3.244   3.470  0.0005  0.0001 -0.0000
 2133SOL     OW 8584   3.629   3.493   3.421  0.0764 -0.1725 -0.3497
 2133SOL    HW2 8585   3.553   3.544   3.450  0.4145  0.4382 -0.5280
 2133SOL    HW3 8586   3.637   3.513   3.328  0.3741 -0.3427 -0.3612
 2133SOL    MW4 8587   3.620   3.502   3.413  0.0005  0.0001 -0.0000
 2134SOL     OW 8588   3.834   3.656   3.494 -0.0599  0.1684 -0.3032
 2134SOL    HW2 8589   3.830   3.653   3.590  0.7317 -2.0896 -0.3080
 2134SOL    HW3 8590   3.757   3.607   3.466  0.0023  0.3605 -0.8085
 2134SOL    MW4 8591   3.823   3.649   3.503  0.0005  0.0001 -0.0000
 2135SOL     OW 8592   3.838   3.917   3.399  0.1246  0.3895  0.2467
 2135SOL    HW2 8593   3.754   3.948   3.434  0.6229  0.0744  1.7623
 2135SOL    HW3 8594   3.842   3.825   3.425  0.1111 -0.1027 -1.4383
 2135SOL    MW4 8595   3.827   3.909   3.407  0.0005  0.0001 -0.0000
 2136SOL     OW 8596   3.586   3.984   3.473 -0.3505  0.5062 -0.1893
 2136SOL    HW2 8597   3.594   4.006   3.566 -0.8919  0.1111 -0.0477
 2136SOL    HW3 8598   3.579   4.069   3.429  0.8575  0.7305  0.0329
 2136SOL    MW4 8599   3.586   3.998   3.479  0.0005  0.0001 -0.0000
 2137SOL     OW 8600   3.581   4.246   3.387 -0.5123 -0.1536  0.6552
 2137SOL    HW2 8601   3.514   4.304   3.422 -0.1107  0.7090 -0.0019
 2137SOL    HW3 8602   3.577   4.257   3.292  0.5194 -0.1295  0.6033
 2137SOL    MW4 8603   3.572   4.255   3.379  0.0005  0.0001 -0.0000
 2138SOL     OW 8604   3.807   4.360   3.505  0.0808 -0.3322 -0.2320
 2138SOL    HW2 8605   3.732   4.315   3.467  0.8411 -0.5079 -1.5540
 2138SOL    HW3 8606   3.806   4.447   3.465 -0.0059  0.0176  0.5202
 2138SOL    MW4 8607   3.797   4.366   3.495  0.0005  0.0001 -0.0000
 2139SOL     OW 8608   4.276   0.017   3.372 -0.2129  0.6075 -0.0143
 2139SOL    HW2 8609   4.270  -0.077   3.391 -0.5238  0.5742 -0.2807
 2139SOL    HW3 8610   4.360   0.043   3.409 -0.8100  0.5466  1.4374
 2139SOL    MW4 8611   4.286   0.008   3.379  0.0005  0.0001 -0.0000
 2140SOL     OW 8612   4.055   0.125   3.503  0.2859 -0.3229  0.5045
 2140SOL    HW2 8613   4.140   0.092   3.474  0.6110  0.0028  1.0705
 2140SOL    HW3 8614   3.992   0.060   3.473  0.6071  0.0239 -0.9546
 2140SOL    MW4 8615   4.058   0.112   3.495  0.0005  0.0001 -0.0000
 2141SOL     OW 8616   4.030   0.403   3.402 -0.2945  0.0935  0.2271
 2141SOL    HW2 8617   4.039   0.309   3.418 -0.4725  0.3345  1.8186
 2141SOL    HW3 8618   4.028   0.411   3.307  1.4363 -1.3537  0.0432
 2141SOL    MW4 8619   4.031   0.392   3.391  0.0005  0.0001 -0.0000
 2142SOL     OW 8620   4.277   0.509   3.488 -0.9345  0.1183 -0.3233
 2142SOL    HW2 8621   4.265   0.603   3.476  0.2358  0.0691 -2.0615
 2142SOL    HW3 8622   4.194   0.471   3.460 -1.0405  0.5665 -0.6255
 2142SOL    MW4 8623   4.264   0.516   3.483  0.0005  0.0001 -0.0000
 2143SOL     OW 8624   4.245   0.771   3.424 -0.2115 -0.1112 -0.2807
 2143SOL    HW2 8625   4.325   0.810   3.460 -0.8857  0.5482  0.5222
 2143SOL    HW3 8626   4.261   0.766   3.330  0.5061  0.6431 -0.2055
 2143SOL    MW4 8627   4.258   0.776   3.416  0.0005  0.0001 -0.0000
 2144SOL     OW 8628   4.031   0.893   3.493 -0.2311 -0.4509 -0.3562
 2144SOL    HW2 8629   4.024   0.970   3.437 -1.3494 -1.1267 -1.1662
 2144SOL    HW3 8630   4.110   0.849   3.463 -0.0973 -0.1084 -0.5111
 2144SOL    MW4 8631   4.041   0.897   3.482  0.0005  0.0001 -0.0000
 2145SOL     OW 8632   4.024   1.151   3.362 -0.1814 -0.2123 -0.2588
 2145SOL    HW2 8633   4.106   1.178   3.404  0.2272 -0.7033 -0.7334
 2145SOL    HW3 8634   3.958   1.209   3.399  0.2871 -0.1922  0.5585
 2145SOL    MW4 8635   4.026   1.162   3.372  0.0005  0.0001 -0.0000
 2146SOL     OW 8636   4.223   1.273   3.515 -0.1371 -0.1737 -0.6098
 2146SOL    HW2 8637   4.214   1.362   3.482  0.1859  0.3007  0.5571
 2146SOL    HW3 8638   4.315   1.251   3.501  0.1798  0.3094  0.6412
 2146SOL    MW4 8639   4.234   1.282   3.509  0.0005  0.0001 -0.0000
 2147SOL     OW 8640   4.264   1.538   3.411  0.2066 -0.0492 -0.7879
 2147SOL    HW2 8641   4.187   1.586   3.441  1.0124  0.4838  0.4856
 2147SOL    HW3 8642   4.255   1.534   3.316 -0.9686  0.7285 -0.7151
 2147SOL    MW4 8643   4.253   1.544   3.402  0.0005  0.0001 -0.0000
 2148SOL     OW 8644   4.021   1.656   3.505  0.2473  0.1894 -0.2250
 2148SOL    HW2 8645   4.021   1.672   3.599 -3.3941 -0.7747  0.0153
 2148SOL    HW3 8646   4.035   1.742   3.466  1.5680  0.6291  1.1707
 2148SOL    MW4 8647   4.023   1.669   3.512  0.0005  0.0001 -0.0000
 2149SOL     OW 8648   4.021   1.908   3.378 -0.0885 -0.3401  0.3234
 2149SOL    HW2 8649   4.095   1.959   3.412 -0.2731 -0.2118  0.5339
 2149SOL    HW3 8650   4.026   1.919   3.283  0.1904 -0.3695  0.3341
 2149SOL    MW4 8651   4.031   1.916   3.370  0.0005  0.0001 -0.0000
 2150SOL     OW 8652   4.216   2.063   3.490 -0.3452  0.5389  0.0564
 2150SOL    HW2 8653   4.234   2.148   3.450  0.0752  1.0495  1.3072
 2150SOL    HW3 8654   4.300   2.017   3.490  0.0590  1.2308  1.9326
 2150SOL    MW4 8655   4.230   2.068   3.485  0.0005  0.0001 -0.0000
 2151SOL     OW 8656   4.269   2.319   3.388  0.0680  0.3905  0.2250
 2151SOL    HW2 8657   4.180   2.343   3.415 -0.8341 -1.9144 -0.5413
 2151SOL    HW3 8658   4.265   2.317   3.292  1.4435  1.9908  0.1107
 2151SOL    MW4 8659   4.257   2.322   3.379  0.0005  0.0001 -0.0000
 2152SOL     OW 8660   4.029   2.433   3.455  0.7592 -0.2509  0.2651
 2152SOL    HW2 8661   4.014   2.454   3.547  0.5310  0.6960  0.0192
 2152SOL    HW3 8662   4.038   2.518   3.412  0.6535 -0.6796 -0.6237
 2152SOL    MW4 8663   4.028   2.447   3.462  0.0005  0.0001 -0.0000
 2153SOL     OW 8664   4.033   2.691   3.378 -0.2924  0.0342 -0.7293
 2153SOL    HW2 8665   4.105   2.732   3.426 -0.3490 -0.6313 -0.0673
 2153SOL    HW3 8666   3.955   2.738   3.408 -0.5199 -1.4161  1.0407
 2153SOL    MW4 8667   4.032   2.703   3.388  0.0005  0.0001 -0.0000
 2154SOL     OW 8668   4.242   2.810   3.484 -0.4452  0.1632  0.6544
 2154SOL    HW2 8669   4.249   2.806   3.579 -0.4001  0.0298  0.6460
 2154SOL    HW3 8670   4.329   2.786   3.453 -0.7354 -0.7841  0.5592
 2154SOL    MW4 8671   4.254   2.806   3.492  0.0005  0.0001 -0.0000
 2155SOL     OW 8672   4.251   3.074   3.407  0.2126 -0.0711 -0.0620
 2155SOL    HW2 8673   4.255   2.982   3.433  0.0366 -0.1627 -0.3611
 2155SOL    HW3 8674   4.258   3.073   3.312  2.5102  0.3698  0.0727
 2155SOL    MW4 8675   4.252   3.062   3.398  0.0005  0.0001 -0.0000
 2156SOL     OW 8676   4.011   3.202   3.509 -0.5151  0.1537 -0.8610
 2156SOL    HW2 8677   4.006   3.297   3.501  0.2023  0.1607 -1.2660
 2156SOL    HW3 8678   4.090   3.178   3.461  1.1984 -0.3084  2.0685
 2156SOL    MW4 8679   4.021   3.211   3.502  0.0005  0.0001 -0.0000
 2157SOL     OW 8680   4.056   3.492   3.451 -0.3876 -0.2322  0.1540
 2157SOL    HW2 8681   4.133   3.519   3.500 -0.1755 -1.1988  0.3673
 2157SOL    HW3 8682   3.996   3.567   3.456  0.8800  0.8639 -0.7623
 2157SOL    MW4 8683   4.058   3.505   3.458  0.0005  0.0001 -0.0000
 2158SOL     OW 8684   4.294   3.614   3.504  0.3713  0.2641 -0.6450
 2158SOL    HW2 8685   4.294   3.633   3.598  0.3260  0.8350 -0.7602
 2158SOL    HW3 8686   4.281   3.699   3.462 -0.9958 -0.1717 -1.1328
 2158SOL    MW4 8687   4.292   3.628   3.511  0.0005  0.0001 -0.0000
 2159SOL     OW 8688   4.285   3.870   3.407  0.3717  0.0619  0.0352
 2159SOL    HW2 8689   4.362   3.915   3.442 -0.1312  0.8213  0.1780
 2159SOL    HW3 8690   4.276   3.904   3.318  0.2986 -0.1506 -0.0386
 2159SOL    MW4 8691   4.294   3.880   3.400  0.0005  0.0001 -0.0000
 2160SOL     OW 8692   4.072   3.989   3.533  0.0642  0.0772 -0.1546
 2160SOL    HW2 8693   4.145   3.941   3.494 -0.0474  1.2690 -1.8967
 2160SOL    HW3 8694   3.995   3.953   3.490 -0.3666 -0.9293  1.4209
 2160SOL    MW4 8695   4.071   3.978   3.522  0.0005  0.0001 -0.0000
 2161SOL     OW 8696   4.062   4.255   3.409  0.2538 -0.4205 -0.1656
 2161SOL    HW2 8697   4.053   4.168   3.447  0.2830 -0.2489  0.2356
 2161SOL    HW3 8698   3.985   4.303   3.440 -0.1822 -0.5432 -1.0409
 2161SOL    MW4 8699   4.051   4.250   3.418  0.0005  0.0001 -0.0000
 2162SOL     OW 8700   4.281   4.417   3.492  0.3799 -0.2774 -0.4106
 2162SOL    HW2 8701   4.295   4.421   3.587 -0.3343 -0.0678 -0.3122
 2162SOL    HW3 8702   4.202   4.365   3.481  0.0578  0.2964 -0.8567
 2162SOL    MW4 8703   4.272   4.411   3.503  0.0005  0.0001 -0.0000
 2163SOL     OW 8704   0.270   0.010   3.883  0.0364 -0.1949  0.2617
 2163SOL    HW2 8705   0.269   0.014   3.979 -0.2430  1.0798  0.2153
 2163SOL    HW3 8706   0.199   0.068   3.856  2.0929  1.9214 -0.7782
 2163SOL    MW4 8707   0.260   0.018   3.892  0.0005  0.0001 -0.0000
 2164SOL     OW 8708   0.057   0.145   3.777  0.0517 -0.5127  0.3679
 2164SOL    HW2 8709   0.035   0.233   3.807 -1.9202 -1.1926  1.0009
 2164SOL    HW3 8710   0.041   0.146   3.683  1.3849  0.1877  0.1378
 2164SOL    MW4 8711   0.052   0.157   3.768  0.0005  0.0001 -0.0000
 2165SOL     OW 8712   0.020   0.393   3.891  0.3177  0.2045  0.3053
 2165SOL    HW2 8713  -0.050   0.437   3.842  1.4657  1.2677 -0.4124
 2165SOL    HW3 8714   0.099   0.444   3.871  1.4500 -1.4493  0.4639
 2165SOL    MW4 8715   0.021   0.405   3.882  0.0005  0.0001 -0.0000
 2166SOL     OW 8716   0.262   0.535   3.828 -0.3327  0.2167 -0.1588
 2166SOL    HW2 8717   0.241   0.626   3.848  0.2855 -0.0390  1.7642
 2166SOL    HW3 8718   0.288   0.536   3.736  0.1763  2.0700 -0.0175
 2166SOL    MW4 8719   0.263   0.547   3.818  0.0005  0.0001 -0.0000
 2167SOL     OW 8720   0.247   0.803   3.907  0.4035 -0.2986  0.1232
 2167SOL    HW2 8721   0.244   0.792   4.002 -0.6107  0.6574  0.2119
 2167SOL    HW3 8722   0.164   0.846   3.885  1.2869  0.8709 -1.0057
 2167SOL    MW4 8723   0.236   0.807   3.917  0.0005  0.0001 -0.0000
 2168SOL     OW 8724   0.034   0.906   3.787 -0.3101 -0.5082 -0.0681
 2168SOL    HW2 8725  -0.042   0.863   3.827 -0.0346  0.3896  1.4634
 2168SOL    HW3 8726   0.036   0.993   3.827  0.5527  0.0722 -1.3426
 2168SOL    MW4 8727   0.024   0.912   3.798  0.0005  0.0001 -0.0000
 2169SOL     OW 8728   0.032   1.162   3.909  0.4105 -0.1189 -0.3721
 2169SOL    HW2 8729  -0.044   1.187   3.856 -0.4034  0.8602  1.2153
 2169SOL    HW3 8730   0.102   1.220   3.880 -0.2548  0.9711  0.1717
 2169SOL    MW4 8731   0.031   1.173   3.898  0.0005  0.0001 -0.0000
 2170SOL     OW 8732   0.253   1.275   3.784  0.0815  0.2246  0.6221
 2170SOL    HW2 8733   0.262   1.365   3.814  0.5993  0.3759  0.0280
 2170SOL    HW3 8734   0.251   1.282   3.688  1.1120 -0.4743  0.5426
 2170SOL    MW4 8735   0.254   1.288   3.775  0.0005  0.0001 -0.0000
 2171SOL     OW 8736   0.225   1.555   3.857  0.4299  0.6182  0.6475
 2171SOL    HW2 8737   0.218   1.568   3.951  0.8303 -0.0826  0.7793
 2171SOL    HW3 8738   0.136   1.567   3.824  0.1749  0.2426  1.1950
 2171SOL    MW4 8739   0.212   1.558   3.865  0.0005  0.0001 -0.0000
 2172SOL     OW 8740   4.475   1.654   3.757 -0.1301 -0.4376  0.2767
 2172SOL    HW2 8741   4.468   1.742   3.794  0.3102 -0.4614  0.4190
 2172SOL    HW3 8742   4.510   1.667   3.669 -0.1844 -0.4608  0.2513
 2172SOL    MW4 8743   4.479   1.667   3.750  0.0005  0.0001 -0.0000
 2173SOL     OW 8744   4.474   1.924   3.837  0.1892  0.4924 -0.2145
 2173SOL    HW2 8745   4.471   1.935   3.932 -1.6753 -1.1894 -0.0456
 2173SOL    HW3 8746   4.417   1.993   3.803 -1.2339 -0.5217  0.0673
 2173SOL    MW4 8747   4.466   1.935   3.845  0.0005  0.0001 -0.0000
 2174SOL     OW 8748   0.245   2.013   3.733  0.2522 -0.1477  0.1642
 2174SOL    HW2 8749   0.224   2.100   3.767  1.5732  0.8857 -1.5342
 2174SOL    HW3 8750   0.170   1.958   3.757 -2.5217  2.4174 -2.2373
 2174SOL    MW4 8751   0.232   2.017   3.741  0.0005  0.0001 -0.0000
 2175SOL     OW 8752   0.213   2.258   3.827  0.2789 -0.0108  0.3290
 2175SOL    HW2 8753   0.217   2.264   3.922 -1.1246 -1.2347  0.4816
 2175SOL    HW3 8754   0.134   2.306   3.803  0.5944  0.2414 -0.2174
 2175SOL    MW4 8755   0.203   2.265   3.836  0.0005  0.0001 -0.0000
 2176SOL     OW 8756   4.487   2.440   3.744 -0.0355 -0.0241  0.4865
 2176SOL    HW2 8757   4.401   2.421   3.781 -0.1772  0.2089  0.2784
 2176SOL    HW3 8758   4.512   2.524   3.783 -0.5100  0.5867 -0.5038
 2176SOL    MW4 8759   4.479   2.449   3.754  0.0005  0.0001 -0.0000
 2177SOL     OW 8760   0.016   2.677   3.876 -0.4166  0.2245  0.6887
 2177SOL    HW2 8761   0.011   2.688   3.971  0.5002 -0.6041  0.8400
 2177SOL    HW3 8762   0.092   2.729   3.849 -0.2651 -0.0910  0.5008
 2177SOL    MW4 8763   0.025   2.685   3.885  0.0005  0.0001 -0.0000
 2178SOL     OW 8764   0.231   2.831   3.802  0.3645 -0.1384  0.4238
 2178SOL    HW2 8765   0.300   2.769   3.828  0.3566 -1.1477 -1.8128
 2178SOL    HW3 8766   0.239   2.836   3.707 -3.2713 -1.0154  0.0074
 2178SOL    MW4 8767   0.241   2.824   3.793  0.0005  0.0001 -0.0000
 2179SOL     OW 8768   0.267   3.102   3.851  0.4456  0.1807 -0.3378
 2179SOL    HW2 8769   0.275   3.103   3.946  0.0795 -1.4735 -0.2738
 2179SOL    HW3 8770   0.258   3.009   3.829  0.2006  0.5787 -1.9554
 2179SOL    MW4 8771   0.267   3.090   3.861  0.0005  0.0001 -0.0000
 2180SOL     OW 8772   0.012   3.185   3.804  0.1946 -0.1696  0.1116
 2180SOL    HW2 8773   0.104   3.158   3.811  0.3487  0.4698  0.5821
 2180SOL    HW3 8774  -0.011   3.167   3.713  1.1764  0.8757 -0.3575
 2180SOL    MW4 8775   0.021   3.179   3.793  0.0005  0.0001 -0.0000
 2181SOL     OW 8776   4.480   3.446   3.860 -0.0073 -0.3789 -0.5291
 2181SOL    HW2 8777   4.553   3.493   3.819  0.8203 -0.5616  0.7081
 2181SOL    HW3 8778   4.496   3.354   3.840 -0.2146 -0.3686 -0.7452
 2181SOL    MW4 8779   4.492   3.440   3.852  0.0005  0.0001 -0.0000
 2182SOL     OW 8780   0.205   3.609   3.772  0.1270  0.0513 -0.0102
 2182SOL    HW2 8781   0.295   3.576   3.766  0.2745  0.4716 -0.1335
 2182SOL    HW3 8782   0.213   3.694   3.816 -0.1182  0.4617 -0.7471
 2182SOL    MW4 8783   0.218   3.616   3.777  0.0005  0.0001 -0.0000
 2183SOL     OW 8784   0.231   3.849   3.899 -0.6938  0.0393 -0.1861
 2183SOL    HW2 8785   0.243   3.820   3.990  1.6805 -1.3884 -0.9146
 2183SOL    HW3 8786   0.304   3.908   3.882 -0.8388 -0.0910 -1.3265
 2183SOL    MW4 8787   0.242   3.853   3.909  0.0005  0.0001 -0.0000
 2184SOL     OW 8788   0.041   4.000   3.779  0.0603 -0.0922  0.0781
 2184SOL    HW2 8789  -0.029   3.964   3.833  0.3375  0.1140  0.5763
 2184SOL    HW3 8790   0.120   3.955   3.808  0.1574 -0.2312 -0.3949
 2184SOL    MW4 8791   0.042   3.989   3.790  0.0005  0.0001 -0.0000
 2185SOL     OW 8792   0.007   4.271   3.867 -0.1579  0.7154  0.0126
 2185SOL    HW2 8793   0.084   4.323   3.843  0.7480 -0.2476  0.7853
 2185SOL    HW3 8794   0.026   4.183   3.834 -0.6506  0.3253  0.7543
 2185SOL    MW4 8795   0.020   4.266   3.859  0.0005  0.0001 -0.0000
 2186SOL     OW 8796   0.241   4.406   3.799 -0.3691  0.0034 -0.2518
 2186SOL    HW2 8797   0.310   4.356   3.842  1.1887  0.3628 -2.2568
 2186SOL    HW3 8798   0.254   4.496   3.828 -1.4633 -0.2841  1.1895
 2186SOL    MW4 8799   0.252   4.411   3.809  0.0005  0.0001 -0.0000
 2187SOL     OW 8800   0.684   0.013   3.957  0.5563 -0.5275 -0.0952
 2187SOL    HW2 8801   0.673  -0.071   3.913 -0.2290 -0.5628  0.1508
 2187SOL    HW3 8802   0.615   0.068   3.921  0.5850 -0.2272  0.3035
 2187SOL    MW4 8803   0.674   0.009   3.946  0.0005  0.0001 -0.0000
 2188SOL     OW 8804   0.496   0.135   3.773  0.1225  0.1046  0.4894
 2188SOL    HW2 8805   0.475   0.213   3.824  0.3533  0.6441 -0.2413
 2188SOL    HW3 8806   0.428   0.072   3.797  0.1802  0.3823  1.3995
 2188SOL    MW4 8807   0.484   0.137   3.783  0.0005  0.0001 -0.0000
 2189SOL     OW 8808   0.478   0.372   3.909 -0.2389  0.1762 -0.1215
 2189SOL    HW2 8809   0.551   0.428   3.883 -0.4353  1.0522  1.1743
 2189SOL    HW3 8810   0.399   0.421   3.886 -0.4128  0.6994  1.5167
 2189SOL    MW4 8811   0.477   0.386   3.902  0.0005  0.0001 -0.0000
 2190SOL     OW 8812   0.709   0.495   3.791 -0.6740 -0.0305  0.1508
 2190SOL    HW2 8813   0.781   0.444   3.827 -0.4524 -0.1697 -0.4862
 2190SOL    HW3 8814   0.720   0.582   3.830 -0.0498  0.0025 -0.0907
 2190SOL    MW4 8815   0.720   0.500   3.801  0.0005  0.0001 -0.0000
 2191SOL     OW 8816   0.682   0.745   3.909  0.3317 -0.1886  0.7187
 2191SOL    HW2 8817   0.761   0.782   3.870 -0.3662  0.5914  0.0312
 2191SOL    HW3 8818   0.611   0.801   3.878 -0.5516 -1.1583  0.9530
 2191SOL    MW4 8819   0.683   0.757   3.900  0.0005  0.0001 -0.0000
 2192SOL     OW 8820   0.487   0.898   3.806  0.6943  0.2630  0.1704
 2192SOL    HW2 8821   0.494   0.987   3.842 -1.2279  0.3826  0.2780
 2192SOL    HW3 8822   0.410   0.860   3.849  0.9428 -1.1332 -0.5784
 2192SOL    MW4 8823   0.478   0.905   3.816  0.0005  0.0001 -0.0000
 2193SOL     OW 8824   0.501   1.156   3.879  0.7335 -0.3940 -0.2171
 2193SOL    HW2 8825   0.568   1.212   3.841  1.4432 -0.2136  1.2633
 2193SOL    HW3 8826   0.419   1.192   3.846  1.3313 -0.4994 -1.8922
 2193SOL    MW4 8827   0.499   1.168   3.870  0.0005  0.0001 -0.0000
 2194SOL     OW 8828   0.687   1.321   3.756 -0.1873  0.2468 -0.0451
 2194SOL    HW2 8829   0.767   1.278   3.785 -1.4507 -1.7879  0.5284
 2194SOL    HW3 8830   0.676   1.292   3.665  0.4683  1.6688 -0.5923
 2194SOL    MW4 8831   0.696   1.312   3.748  0.0005  0.0001 -0.0000
 2195SOL     OW 8832   0.667   1.570   3.882 -0.3019  0.3480 -0.0679
 2195SOL    HW2 8833   0.740   1.623   3.850 -0.5004  0.1154 -0.9141
 2195SOL    HW3 8834   0.671   1.489   3.831 -1.5911  0.6326 -0.6380
 2195SOL    MW4 8835   0.677   1.566   3.871  0.0005  0.0001 -0.0000
 2196SOL     OW 8836   0.444   1.654   3.706 -0.3615 -0.0524 -0.0994
 2196SOL    HW2 8837   0.523   1.617   3.746 -0.7182 -1.5523 -0.7528
 2196SOL    HW3 8838   0.372   1.617   3.757 -0.6883  0.4013 -0.2361
 2196SOL    MW4 8839   0.445   1.644   3.718  0.0005  0.0001 -0.0000
 2197SOL     OW 8840   0.441   1.890   3.874 -0.1027  0.2082  0.0585
 2197SOL    HW2 8841   0.441   1.808   3.826 -0.1779  0.3654 -0.2097
 2197SOL    HW3 8842   0.358   1.932   3.851  0.1135  0.5416 -0.1198
 2197SOL    MW4 8843   0.430   1.885   3.865  0.0005  0.0001 -0.0000
 2198SOL     OW 8844   0.624   2.031   3.730 -0.0920 -0.3936 -0.0120
 2198SOL    HW2 8845   0.616   2.116   3.774  0.4641  0.4701 -1.5454
 2198SOL    HW3 8846   0.546   1.983   3.757 -1.8040  1.6055 -1.2386
 2198SOL    MW4 8847   0.613   2.036   3.739  0.0005  0.0001 -0.0000
 2199SOL     OW 8848   0.658   2.268   3.865  0.0695  0.1887  0.3012
 2199SOL    HW2 8849   0.732   2.317   3.828  0.0888 -0.9426 -1.2069
 2199SOL    HW3 8850   0.581   2.306   3.823  0.0808 -1.0143 -0.8398
 2199SOL    MW4 8851   0.658   2.279   3.855  0.0005  0.0001 -0.0000
 2200SOL     OW 8852   0.446   2.390   3.743  0.0795  0.6899 -0.2035
 2200SOL    HW2 8853   0.369   2.334   3.752  1.2527 -1.1640 -1.2317
 2200SOL    HW3 8854   0.448   2.413   3.650  0.2456  1.5140  0.0013
 2200SOL    MW4 8855   0.436   2.386   3.732  0.0005  0.0001 -0.0000
 2201SOL     OW 8856   0.458   2.647   3.879  0.2476  0.0040 -0.1126
 2201SOL    HW2 8857   0.520   2.689   3.819  0.1304 -1.1944 -1.1002
 2201SOL    HW3 8858   0.445   2.560   3.842 -0.0151 -0.6728  1.5404
 2201SOL    MW4 8859   0.464   2.641   3.866  0.0005  0.0001 -0.0000
 2202SOL     OW 8860   0.688   2.822   3.777 -0.2957 -0.3690 -0.1673
 2202SOL    HW2 8861   0.767   2.778   3.807 -0.9116 -1.5423 -0.2366
 2202SOL    HW3 8862   0.697   2.826   3.682 -0.4149 -0.6928 -0.1927
 2202SOL    MW4 8863   0.700   2.817   3.768  0.0005  0.0001 -0.0000
 2203SOL     OW 8864   0.684   3.082   3.859 -0.0499  0.0456  0.1963
 2203SOL    HW2 8865   0.681   3.075   3.954  0.4255 -0.4232  0.1799
 2203SOL    HW3 8866   0.692   2.992   3.829 -1.8020  0.0566 -0.3571
 2203SOL    MW4 8867   0.685   3.069   3.868  0.0005  0.0001 -0.0000
 2204SOL     OW 8868   0.470   3.230   3.731 -0.2109  0.1654 -0.1830
 2204SOL    HW2 8869   0.549   3.196   3.773 -0.6101  1.0487  1.3230
 2204SOL    HW3 8870   0.398   3.183   3.773 -0.6418  1.3536  0.4392
 2204SOL    MW4 8871   0.471   3.219   3.742  0.0005  0.0001 -0.0000
 2205SOL     OW 8872   0.461   3.498   3.826 -0.2762  0.1580 -0.3110
 2205SOL    HW2 8873   0.543   3.543   3.803 -1.0161  1.7164  0.0309
 2205SOL    HW3 8874   0.470   3.411   3.788  1.4347  0.4028 -0.5078
 2205SOL    MW4 8875   0.473   3.492   3.818  0.0005  0.0001 -0.0000
 2206SOL     OW 8876   0.714   3.602   3.766 -0.1000 -0.4818 -0.3936
 2206SOL    HW2 8877   0.708   3.697   3.777 -0.4401 -0.5833  0.3191
 2206SOL    HW3 8878   0.718   3.589   3.671 -2.7156  0.0968 -0.6202
 2206SOL    MW4 8879   0.714   3.613   3.755  0.0005  0.0001 -0.0000
 2207SOL     OW 8880   0.709   3.868   3.834 -0.6575  0.0094  0.4630
 2207SOL    HW2 8881   0.720   3.863   3.929 -1.6238  0.2300  0.5910
 2207SOL    HW3 8882   0.779   3.926   3.805  0.5934 -1.2747  0.8540
 2207SOL    MW4 8883   0.720   3.875   3.843  0.0005  0.0001 -0.0000
 2208SOL     OW 8884   0.452   4.000   3.787  0.2894 -0.5653  0.4582
 2208SOL    HW2 8885   0.536   3.968   3.820  0.8192  0.3179 -0.0179
 2208SOL    HW3 8886   0.458   3.991   3.692  0.5411  1.1410  0.2956
 2208SOL    MW4 8887   0.464   3.995   3.779  0.0005  0.0001 -0.0000
 2209SOL     OW 8888   0.442   4.260   3.916  0.1791 -0.1357  0.0066
 2209SOL    HW2 8889   0.515   4.320   3.901  0.0276  0.2333  0.7337
 2209SOL    HW3 8890   0.463   4.183   3.862 -0.2229  1.0297 -1.8571
 2209SOL    MW4 8891   0.454   4.258   3.907  0.0005  0.0001 -0.0000
 2210SOL     OW 8892   0.658   4.435   3.821 -0.1336 -0.1087 -0.1399
 2210SOL    HW2 8893   0.743   4.398   3.844 -2.6295 -4.7438  2.3636
 2210SOL    HW3 8894   0.646   4.412   3.729  0.8183 -0.4572 -0.1826
 2210SOL    MW4 8895   0.668   4.427   3.812  0.0005  0.0001 -0.0000
 2211SOL     OW 8896   1.136   0.024   3.865 -0.6379 -0.0091  0.3192
 2211SOL    HW2 8897   1.217   0.064   3.833 -0.8738  1.6283  1.7068
 2211SOL    HW3 8898   1.148  -0.070   3.849  0.7936  0.3872 -1.0877
 2211SOL    MW4 8899   1.148   0.017   3.859  0.0005  0.0001 -0.0000
 2212SOL     OW 8900   0.881   0.095   3.786 -0.1174 -0.0260 -0.0402
 2212SOL    HW2 8901   0.971   0.079   3.815  0.0430  1.0182  0.0619
 2212SOL    HW3 8902   0.826   0.056   3.854  0.2556 -0.7627 -0.1577
 2212SOL    MW4 8903   0.886   0.088   3.799  0.0005  0.0001 -0.0000
 2213SOL     OW 8904   0.923   0.349   3.888  0.1256 -0.4591 -0.0381
 2213SOL    HW2 8905   0.928   0.359   3.983 -0.5727 -0.3323 -0.0119
 2213SOL    HW3 8906   0.894   0.259   3.875  0.8016 -0.6639 -0.1471
 2213SOL    MW4 8907   0.920   0.338   3.899  0.0005  0.0001 -0.0000
 2214SOL     OW 8908   1.144   0.499   3.779  0.5562 -0.1514 -0.0910
 2214SOL    HW2 8909   1.223   0.458   3.814  0.4999 -0.1492  0.0393
 2214SOL    HW3 8910   1.073   0.442   3.808  0.3769  0.6042  0.9850
 2214SOL    MW4 8911   1.145   0.486   3.787  0.0005  0.0001 -0.0000
 2215SOL     OW 8912   1.127   0.771   3.871 -0.7393 -0.7859  0.5569
 2215SOL    HW2 8913   1.125   0.765   3.967 -0.2343 -1.1756  0.5473
 2215SOL    HW3 8914   1.126   0.680   3.842 -1.1261 -0.6636  0.1838
 2215SOL    MW4 8915   1.127   0.758   3.880  0.0005  0.0001 -0.0000
 2216SOL     OW 8916   0.900   0.891   3.811 -0.2531  0.3506  0.2634
 2216SOL    HW2 8917   0.983   0.847   3.828 -0.1299  0.7837  0.8059
 2216SOL    HW3 8918   0.883   0.876   3.718  0.1325 -0.2461  0.2882
 2216SOL    MW4 8919   0.909   0.883   3.801  0.0005  0.0001 -0.0000
 2217SOL     OW 8920   0.920   1.156   3.861  0.0651 -0.1870 -0.1276
 2217SOL    HW2 8921   0.915   1.161   3.956 -0.7720  0.6642 -0.2088
 2217SOL    HW3 8922   0.907   1.063   3.841 -0.0207 -0.3274  0.5704
 2217SOL    MW4 8923   0.918   1.144   3.871  0.0005  0.0001 -0.0000
 2218SOL     OW 8924   1.152   1.307   3.789  0.2518 -0.2916 -0.0756
 2218SOL    HW2 8925   1.152   1.388   3.840 -0.0616 -0.4875  0.2438
 2218SOL    HW3 8926   1.080   1.256   3.827  0.1909 -0.5493 -0.5409
 2218SOL    MW4 8927   1.143   1.311   3.801  0.0005  0.0001 -0.0000
 2219SOL     OW 8928   1.145   1.582   3.906  0.1848  0.0180  0.5399
 2219SOL    HW2 8929   1.168   1.579   3.999  0.0580 -1.2160  0.5408
 2219SOL    HW3 8930   1.225   1.610   3.862  0.5163 -0.3069  0.9340
 2219SOL    MW4 8931   1.159   1.585   3.912  0.0005  0.0001 -0.0000
 2220SOL     OW 8932   0.899   1.690   3.799 -0.2041  0.5276  0.0715
 2220SOL    HW2 8933   0.981   1.670   3.844 -0.5530  0.5430  0.7286
 2220SOL    HW3 8934   0.924   1.702   3.707  0.1112 -2.3477 -0.2670
 2220SOL    MW4 8935   0.913   1.689   3.793  0.0005  0.0001 -0.0000
 2221SOL     OW 8936   0.859   1.959   3.869 -0.2465  0.1400 -0.6479
 2221SOL    HW2 8937   0.864   1.864   3.858  0.0142  0.0755  0.0160
 2221SOL    HW3 8938   0.779   1.985   3.822 -0.7131 -0.4956 -0.2086
 2221SOL    MW4 8939   0.849   1.950   3.861  0.0005  0.0001 -0.0000
 2222SOL     OW 8940   1.104   2.052   3.753 -0.0673 -0.3288  0.7808
 2222SOL    HW2 8941   1.051   1.990   3.803 -0.1980 -0.3483  0.6174
 2222SOL    HW3 8942   1.083   2.034   3.662 -0.0570 -0.0872  0.7298
 2222SOL    MW4 8943   1.094   2.041   3.748  0.0005  0.0001 -0.0000
 2223SOL     OW 8944   1.116   2.312   3.861 -0.1015  0.1690 -0.6685
 2223SOL    HW2 8945   1.113   2.312   3.957  0.3572  1.4736 -0.6434
 2223SOL    HW3 8946   1.113   2.219   3.837 -0.4122 -0.1609  0.5991
 2223SOL    MW4 8947   1.115   2.300   3.870  0.0005  0.0001 -0.0000
 2224SOL     OW 8948   0.869   2.429   3.765  0.2508 -0.2085 -0.2841
 2224SOL    HW2 8949   0.896   2.518   3.786 -1.3935  0.1666  0.3441
 2224SOL    HW3 8950   0.948   2.376   3.777  1.7895  1.4422 -2.7325
 2224SOL    MW4 8951   0.883   2.434   3.769  0.0005  0.0001 -0.0000
 2225SOL     OW 8952   0.933   2.693   3.824  0.1880  0.6670  0.3324
 2225SOL    HW2 8953   0.937   2.679   3.919 -0.3216  0.2456  0.2914
 2225SOL    HW3 8954   1.014   2.740   3.804  0.7301 -0.0334  0.8431
 2225SOL    MW4 8955   0.944   2.697   3.834  0.0005  0.0001 -0.0000
 2226SOL     OW 8956   1.157   2.854   3.755  0.1405  0.0780 -0.0775
 2226SOL    HW2 8957   1.224   2.802   3.798  0.8492  1.7709  0.9063
 2226SOL    HW3 8958   1.158   2.938   3.801 -1.4971  0.7078 -1.1358
 2226SOL    MW4 8959   1.166   2.858   3.767  0.0005  0.0001 -0.0000
 2227SOL     OW 8960   1.161   3.088   3.892 -0.5574  0.1639 -0.2762
 2227SOL    HW2 8961   1.228   3.134   3.841 -0.2614 -1.2035 -1.1454
 2227SOL    HW3 8962   1.078   3.121   3.857 -0.3587  1.6237  0.5837
 2227SOL    MW4 8963   1.159   3.098   3.881  0.0005  0.0001 -0.0000
 2228SOL     OW 8964   0.922   3.181   3.798 -0.4690  0.4972 -0.3571
 2228SOL    HW2 8965   0.841   3.133   3.816 -0.4535  0.9096  0.8592
 2228SOL    HW3 8966   0.908   3.221   3.712 -0.9891 -0.6154 -0.8007
 2228SOL    MW4 8967   0.909   3.180   3.789  0.0005  0.0001 -0.0000
 2229SOL     OW 8968   0.895   3.451   3.908 -0.1129 -0.0797 -0.4746
 2229SOL    HW2 8969   0.893   3.359   3.882 -0.1160 -0.6465  1.4256
 2229SOL    HW3 8970   0.834   3.495   3.849 -0.7462 -1.4492 -0.8478
 2229SOL    MW4 8971   0.887   3.445   3.897  0.0005  0.0001 -0.0000
 2230SOL     OW 8972   1.122   3.580   3.759 -0.7348  0.0191  0.3243
 2230SOL    HW2 8973   1.135   3.667   3.798  0.0133  0.7414 -1.4751
 2230SOL    HW3 8974   1.051   3.541   3.810 -0.1322  1.1311  2.0557
 2230SOL    MW4 8975   1.114   3.586   3.771  0.0005  0.0001 -0.0000
 2231SOL     OW 8976   1.141   3.834   3.874  0.0590 -0.3511  0.3062
 2231SOL    HW2 8977   1.146   3.845   3.969  1.0589 -2.1167  0.4791
 2231SOL    HW3 8978   1.210   3.891   3.840  0.2184 -0.3116  0.6902
 2231SOL    MW4 8979   1.151   3.843   3.882  0.0005  0.0001 -0.0000
 2232SOL     OW 8980   0.932   4.025   3.794  0.3661  0.5195  0.1719
 2232SOL    HW2 8981   1.008   3.974   3.822 -0.1828 -1.3955 -1.6798
 2232SOL    HW3 8982   0.932   4.017   3.699 -1.6952  1.1692  0.0966
 2232SOL    MW4 8983   0.942   4.017   3.785  0.0005  0.0001 -0.0000
 2233SOL     OW 8984   0.902   4.312   3.866  0.2113 -0.4523  0.0301
 2233SOL    HW2 8985   0.904   4.310   3.962  0.4323 -0.5788  0.0225
 2233SOL    HW3 8986   0.904   4.220   3.840  1.0833 -0.3963 -0.1130
 2233SOL    MW4 8987   0.903   4.300   3.875  0.0005  0.0001 -0.0000
 2234SOL     OW 8988   1.156   4.422   3.817 -0.3041  0.2834  0.1202
 2234SOL    HW2 8989   1.081   4.368   3.842 -0.4896  0.3713 -0.2355
 2234SOL    HW3 8990   1.144   4.436   3.723  0.6728 -0.5030 -0.1284
 2234SOL    MW4 8991   1.145   4.417   3.808  0.0005  0.0001 -0.0000
 2235SOL     OW 8992   1.584   4.650   3.885 -0.1704 -0.2361 -0.4434
 2235SOL    HW2 8993   1.580   4.655   3.980  1.5206  0.4752 -0.3879
 2235SOL    HW3 8994   1.582   4.556   3.865  0.6079 -0.4270  0.3559
 2235SOL    MW4 8995   1.583   4.638   3.895  0.0005  0.0001 -0.0000
 2236SOL     OW 8996   1.380   0.107   3.730  0.1586  0.2096  0.1886
 2236SOL    HW2 8997   1.374   0.201   3.749 -0.0324  0.1439  0.4566
 2236SOL    HW3 8998   1.458   0.078   3.778  0.0164  0.1619  0.3917
 2236SOL    MW4 8999   1.389   0.116   3.739  0.0005  0.0001 -0.0000
 2237SOL     OW 9000   1.378   0.369   3.849 -0.4245 -0.6159 -0.1974
 2237SOL    HW2 9001   1.384   0.361   3.944  1.0611 -2.5517 -0.4226
 2237SOL    HW3 9002   1.452   0.424   3.825  0.3788 -1.7678 -0.4024
 2237SOL    MW4 9003   1.389   0.375   3.858  0.0005  0.0001 -0.0000
 2238SOL     OW 9004   1.593   0.530   3.798  0.4472 -0.0811  0.0882
 2238SOL    HW2 9005   1.666   0.482   3.837  0.1028  1.0707  2.2297
 2238SOL    HW3 9006   1.602   0.619   3.832 -1.6470  0.2030 -0.0371
 2238SOL    MW4 9007   1.604   0.535   3.808  0.0005  0.0001 -0.0000
 2239SOL     OW 9008   1.593   0.795   3.903  0.5321  0.5754 -0.1699
 2239SOL    HW2 9009   1.661   0.839   3.852  0.7926  1.3197  0.7909
 2239SOL    HW3 9010   1.511   0.822   3.861  0.7035  1.7713  0.2384
 2239SOL    MW4 9011   1.591   0.804   3.891  0.0005  0.0001 -0.0000
 2240SOL     OW 9012   1.362   0.910   3.787  0.3711  0.0542  0.2719
 2240SOL    HW2 9013   1.386   0.984   3.842  0.0983  0.3521 -0.0082
 2240SOL    HW3 9014   1.280   0.878   3.823  1.0411 -0.7988  1.0648
 2240SOL    MW4 9015   1.354   0.916   3.799  0.0005  0.0001 -0.0000
 2241SOL     OW 9016   1.369   1.169   3.914  0.1883 -0.0211 -0.0147
 2241SOL    HW2 9017   1.448   1.214   3.883 -0.4777 -0.7560 -2.9245
 2241SOL    HW3 9018   1.297   1.212   3.868 -1.0941  0.2651  2.1849
 2241SOL    MW4 9019   1.370   1.181   3.904  0.0005  0.0001 -0.0000
 2242SOL     OW 9020   1.626   1.256   3.781 -0.0527  0.0858 -0.1570
 2242SOL    HW2 9021   1.710   1.233   3.821 -0.5470 -1.0012  0.2806
 2242SOL    HW3 9022   1.622   1.352   3.786  1.2071  0.1514 -0.2889
 2242SOL    MW4 9023   1.637   1.266   3.787  0.0005  0.0001 -0.0000
 2243SOL     OW 9024   1.604   1.544   3.824 -0.3175 -0.3984 -1.1236
 2243SOL    HW2 9025   1.601   1.549   3.920  0.1111  0.6643 -1.1612
 2243SOL    HW3 9026   1.686   1.586   3.800 -0.0819 -1.2943 -1.9268
 2243SOL    MW4 9027   1.614   1.550   3.833  0.0005  0.0001 -0.0000
 2244SOL     OW 9028   1.343   1.643   3.722  0.2473  0.3170 -0.2549
 2244SOL    HW2 9029   1.336   1.736   3.742 -0.7687  0.6702 -2.1394
 2244SOL    HW3 9030   1.426   1.616   3.762  0.6193  2.0520  0.1868
 2244SOL    MW4 9031   1.353   1.652   3.730  0.0005  0.0001 -0.0000
 2245SOL     OW 9032   1.322   1.895   3.809 -0.1646 -0.0602 -0.0112
 2245SOL    HW2 9033   1.345   1.918   3.899  0.0317 -1.5551  0.3295
 2245SOL    HW3 9034   1.248   1.952   3.788 -0.6731 -0.2001  1.3445
 2245SOL    MW4 9035   1.315   1.906   3.818  0.0005  0.0001 -0.0000
 2246SOL     OW 9036   1.600   2.047   3.756 -0.3096  0.5458 -0.1756
 2246SOL    HW2 9037   1.516   2.002   3.765 -0.3410  0.6306 -0.0421
 2246SOL    HW3 9038   1.605   2.070   3.663 -0.0638 -0.1797 -0.3447
 2246SOL    MW4 9039   1.590   2.044   3.745  0.0005  0.0001 -0.0000
 2247SOL     OW 9040   1.570   2.301   3.863  0.0633 -0.4852 -0.0397
 2247SOL    HW2 9041   1.650   2.349   3.842 -0.1637 -0.4915 -0.9541
 2247SOL    HW3 9042   1.583   2.215   3.824 -0.3744 -0.4965 -0.1604
 2247SOL    MW4 9043   1.582   2.296   3.855  0.0005  0.0001 -0.0000
 2248SOL     OW 9044   1.366   2.456   3.766 -0.1886  0.1160  0.0994
 2248SOL    HW2 9045   1.436   2.404   3.804 -1.1869  1.0139  3.3223
 2248SOL    HW3 9046   1.285   2.415   3.798 -1.1229  0.1559 -2.1146
 2248SOL    MW4 9047   1.365   2.444   3.775  0.0005  0.0001 -0.0000
 2249SOL     OW 9048   1.366   2.714   3.865 -0.2457  0.3392  0.3969
 2249SOL    HW2 9049   1.352   2.716   3.960  1.0305  2.3852  0.5804
 2249SOL    HW3 9050   1.364   2.621   3.842 -0.0197 -0.2149  2.5152
 2249SOL    MW4 9051   1.364   2.702   3.874  0.0005  0.0001 -0.0000
 2250SOL     OW 9052   1.587   2.851   3.755 -0.0261 -0.1722  0.7942
 2250SOL    HW2 9053   1.512   2.801   3.786  0.0998 -0.5977  0.4162
 2250SOL    HW3 9054   1.581   2.847   3.660  0.2568  0.1231  0.7628
 2250SOL    MW4 9055   1.576   2.844   3.746  0.0005  0.0001 -0.0000
 2251SOL     OW 9056   1.579   3.115   3.855  0.4365 -0.3361  0.1311
 2251SOL    HW2 9057   1.590   3.103   3.949  0.0812 -0.1566  0.1955
 2251SOL    HW3 9058   1.594   3.028   3.818 -2.4517 -1.0978  0.6264
 2251SOL    MW4 9059   1.582   3.102   3.863  0.0005  0.0001 -0.0000
 2252SOL     OW 9060   1.359   3.212   3.757  0.2897  0.8159  0.1452
 2252SOL    HW2 9061   1.368   3.304   3.781  0.4627  0.6942  0.5605
 2252SOL    HW3 9062   1.437   3.171   3.793 -0.0823  0.4021  0.4822
 2252SOL    MW4 9063   1.370   3.219   3.765  0.0005  0.0001 -0.0000
 2253SOL     OW 9064   1.346   3.463   3.853 -0.4612 -0.4646 -0.1824
 2253SOL    HW2 9065   1.422   3.516   3.827 -0.8087  0.3242  0.3934
 2253SOL    HW3 9066   1.272   3.503   3.807 -0.4696 -1.5427 -1.1478
 2253SOL    MW4 9067   1.346   3.475   3.844  0.0005  0.0001 -0.0000
 2254SOL     OW 9068   1.594   3.587   3.784  0.0938  0.4451  0.0504
 2254SOL    HW2 9069   1.682   3.562   3.813  0.1952 -0.1539 -0.7391
 2254SOL    HW3 9070   1.579   3.674   3.822  0.9961  0.5130  0.2509
 2254SOL    MW4 9071   1.604   3.595   3.793  0.0005  0.0001 -0.0000
 2255SOL     OW 9072   1.570   3.866   3.844  0.1343  0.0008 -0.2889
 2255SOL    HW2 9073   1.579   3.880   3.938 -0.2222 -0.8171 -0.1291
 2255SOL    HW3 9074   1.492   3.916   3.820  0.2835  0.2926 -0.1700
 2255SOL    MW4 9075   1.561   3.874   3.853  0.0005  0.0001 -0.0000
 2256SOL     OW 9076   1.330   4.009   3.775  0.1579  0.2634 -0.1700
 2256SOL    HW2 9077   1.352   4.097   3.807 -2.5684  0.1139  2.3148
 2256SOL    HW3 9078   1.304   4.023   3.684 -1.1091  2.2045  0.4533
 2256SOL    MW4 9079   1.329   4.022   3.767  0.0005  0.0001 -0.0000
 2257SOL     OW 9080   1.364   4.263   3.892 -0.6769  0.2280  0.3811
 2257SOL    HW2 9081   1.448   4.305   3.872 -0.1052 -1.8397 -1.8202
 2257SOL    HW3 9082   1.298   4.326   3.863  0.1226  0.8679 -0.0788
 2257SOL    MW4 9083   1.366   4.277   3.886  0.0005  0.0001 -0.0000
 2258SOL     OW 9084   1.609   4.378   3.828 -0.7193  0.0539  0.0351
 2258SOL    HW2 9085   1.677   4.321   3.865  0.2429  1.6683  0.8086
 2258SOL    HW3 9086   1.621   4.371   3.733  1.9934  1.9915  0.1754
 2258SOL    MW4 9087   1.620   4.370   3.820  0.0005  0.0001 -0.0000
 2259SOL     OW 9088   2.005   4.650   3.920  0.1987  0.1898 -0.4988
 2259SOL    HW2 9089   2.081   4.692   3.879  0.1124 -0.5563 -1.4491
 2259SOL    HW3 9090   1.990   4.572   3.867 -0.3627 -0.4174  0.5443
 2259SOL    MW4 9091   2.013   4.645   3.908  0.0005  0.0001 -0.0000
 2260SOL     OW 9092   1.793   0.134   3.820  0.2302  0.1360  0.3986
 2260SOL    HW2 9093   1.862   0.073   3.847 -0.1322 -0.3440  0.2342
 2260SOL    HW3 9094   1.711   0.092   3.847  0.0154  0.8410  0.8591
 2260SOL    MW4 9095   1.791   0.120   3.827  0.0005  0.0001 -0.0000
 2261SOL     OW 9096   1.812   0.419   3.916 -0.5432 -0.3343 -0.0131
 2261SOL    HW2 9097   1.823   0.427   4.011  0.3144 -1.2522 -0.0269
 2261SOL    HW3 9098   1.800   0.325   3.901 -0.8516 -0.1737 -0.7975
 2261SOL    MW4 9099   1.812   0.408   3.927  0.0005  0.0001 -0.0000
 2262SOL     OW 9100   2.044   0.490   3.792  0.0654  0.1778  0.1153
 2262SOL    HW2 9101   1.959   0.483   3.835  0.1685  1.0903  0.4814
 2262SOL    HW3 9102   2.024   0.500   3.699 -0.2107 -0.0969  0.1454
 2262SOL    MW4 9103   2.030   0.490   3.785  0.0005  0.0001 -0.0000
 2263SOL     OW 9104   2.055   0.752   3.870  0.0266 -0.2981 -0.5533
 2263SOL    HW2 9105   2.027   0.753   3.961  1.6937 -0.7287 -0.0198
 2263SOL    HW3 9106   2.080   0.661   3.853  0.1479 -0.1303 -1.3041
 2263SOL    MW4 9107   2.055   0.740   3.880  0.0005  0.0001 -0.0000
 2264SOL     OW 9108   1.823   0.888   3.782 -0.4201  0.7283 -0.2333
 2264SOL    HW2 9109   1.909   0.846   3.784 -0.6408  0.2835 -0.0156
 2264SOL    HW3 9110   1.800   0.891   3.689 -0.1969  0.7925 -0.2868
 2264SOL    MW4 9111   1.831   0.883   3.770  0.0005  0.0001 -0.0000
 2265SOL     OW 9112   1.845   1.150   3.935 -0.0604  0.2942 -0.5485
 2265SOL    HW2 9113   1.824   1.146   4.028  3.0911 -0.0982  0.2034
 2265SOL    HW3 9114   1.838   1.059   3.905  0.4255  0.1829 -0.3300
 2265SOL    MW4 9115   1.841   1.138   3.943  0.0005  0.0001 -0.0000
 2266SOL     OW 9116   2.073   1.236   3.769 -0.3752 -0.4521 -0.4451
 2266SOL    HW2 9117   2.151   1.198   3.810  0.7035  1.8911 -0.2503
 2266SOL    HW3 9118   2.000   1.201   3.820  0.7699  0.0544  1.6040
 2266SOL    MW4 9119   2.074   1.226   3.781  0.0005  0.0001 -0.0000
 2267SOL     OW 9120   2.035   1.510   3.882  0.5026 -0.0667  0.2275
 2267SOL    HW2 9121   1.964   1.557   3.839  1.2892  0.4085 -0.5684
 2267SOL    HW3 9122   2.043   1.428   3.834  1.4956  0.5382 -0.6631
 2267SOL    MW4 9123   2.027   1.505   3.870  0.0005  0.0001 -0.0000
 2268SOL     OW 9124   1.843   1.662   3.758  0.0131 -0.3948  0.1227
 2268SOL    HW2 9125   1.861   1.752   3.784 -1.3486 -0.3083  0.7994
 2268SOL    HW3 9126   1.852   1.663   3.663  0.0802  0.4385  0.1311
 2268SOL    MW4 9127   1.847   1.674   3.749  0.0005  0.0001 -0.0000
 2269SOL     OW 9128   1.833   1.908   3.857 -0.1450 -0.0701  0.0886
 2269SOL    HW2 9129   1.833   1.903   3.953  0.6401  4.3138  0.4225
 2269SOL    HW3 9130   1.745   1.938   3.835 -0.1725 -0.6075 -0.5436
 2269SOL    MW4 9131   1.821   1.911   3.867  0.0005  0.0001 -0.0000
 2270SOL     OW 9132   2.018   2.073   3.765 -0.5479 -0.2220 -0.1086
 2270SOL    HW2 9133   1.945   2.016   3.788 -1.1155  0.4917 -0.1230
 2270SOL    HW3 9134   2.019   2.073   3.669 -0.2924 -0.5278 -0.1067
 2270SOL    MW4 9135   2.008   2.065   3.755  0.0005  0.0001 -0.0000
 2271SOL     OW 9136   2.013   2.317   3.918  0.3408  0.3742 -0.4411
 2271SOL    HW2 9137   1.944   2.355   3.864  0.8573  0.3016 -1.1596
 2271SOL    HW3 9138   2.034   2.234   3.875  0.0474 -0.1606  0.4462
 2271SOL    MW4 9139   2.007   2.311   3.905  0.0005  0.0001 -0.0000
 2272SOL     OW 9140   1.810   2.436   3.753  0.3124 -0.6494 -0.2162
 2272SOL    HW2 9141   1.834   2.526   3.774 -1.1949 -0.4106  0.5360
 2272SOL    HW3 9142   1.805   2.434   3.657 -0.8480  0.3943 -0.1853
 2272SOL    MW4 9143   1.813   2.448   3.743  0.0005  0.0001 -0.0000
 2273SOL     OW 9144   1.826   2.696   3.864 -0.0113 -0.4040  0.2439
 2273SOL    HW2 9145   1.836   2.705   3.959 -0.5474  0.4406  0.2207
 2273SOL    HW3 9146   1.745   2.742   3.843  0.0310 -0.7013 -0.6106
 2273SOL    MW4 9147   1.817   2.703   3.874  0.0005  0.0001 -0.0000
 2274SOL     OW 9148   2.023   2.829   3.706  0.0467  0.6435  0.0941
 2274SOL    HW2 9149   2.104   2.804   3.751  0.1348 -0.3939 -0.6218
 2274SOL    HW3 9150   1.954   2.784   3.755  0.2001 -1.0118 -1.1658
 2274SOL    MW4 9151   2.025   2.820   3.718  0.0005  0.0001 -0.0000
 2275SOL     OW 9152   1.989   3.079   3.814 -0.0037 -0.3466  0.5621
 2275SOL    HW2 9153   2.076   3.118   3.801 -1.0663  2.2074  0.7681
 2275SOL    HW3 9154   1.993   2.995   3.769  2.1953  0.2786 -0.4681
 2275SOL    MW4 9155   2.001   3.073   3.806  0.0005  0.0001 -0.0000
 2276SOL     OW 9156   1.800   3.243   3.737  0.0536  0.5042 -0.8629
 2276SOL    HW2 9157   1.883   3.197   3.748 -0.2361  0.1804 -0.0122
 2276SOL    HW3 9158   1.738   3.194   3.791 -0.0818  2.3882  0.7233
 2276SOL    MW4 9159   1.803   3.231   3.746  0.0005  0.0001 -0.0000
 2277SOL     OW 9160   1.838   3.485   3.863  0.1396 -0.3890  0.2921
 2277SOL    HW2 9161   1.906   3.538   3.820 -0.0716  0.6201  1.1853
 2277SOL    HW3 9162   1.840   3.401   3.816  1.7394 -0.2381  0.0574
 2277SOL    MW4 9163   1.847   3.481   3.851  0.0005  0.0001 -0.0000
 2278SOL     OW 9164   2.039   3.664   3.768 -0.5386  0.1691 -0.3989
 2278SOL    HW2 9165   2.123   3.623   3.787 -0.7217  0.2759  0.6652
 2278SOL    HW3 9166   2.034   3.665   3.672 -0.3317 -1.8716 -0.4534
 2278SOL    MW4 9167   2.049   3.659   3.758  0.0005  0.0001 -0.0000
 2279SOL     OW 9168   2.036   3.894   3.925 -0.1642  0.1619 -0.6404
 2279SOL    HW2 9169   2.112   3.931   3.879 -0.5035  0.7117 -0.7625
 2279SOL    HW3 9170   2.021   3.810   3.882  0.3991  0.0370 -0.5949
 2279SOL    MW4 9171   2.044   3.888   3.913  0.0005  0.0001 -0.0000
 2280SOL     OW 9172   1.809   3.991   3.780 -0.0731 -0.1858 -0.2165
 2280SOL    HW2 9173   1.885   3.951   3.822 -1.0622 -0.5783  1.2361
 2280SOL    HW3 9174   1.737   3.930   3.796 -0.7966  0.3824 -1.2030
 2280SOL    MW4 9175   1.810   3.978   3.788  0.0005  0.0001 -0.0000
 2281SOL     OW 9176   1.812   4.217   3.916  0.2216  0.0651 -0.1984
 2281SOL    HW2 9177   1.874   4.276   3.873  1.0347 -0.4781  0.2158
 2281SOL    HW3 9178   1.812   4.138   3.861  0.4152 -0.1972  0.1762
 2281SOL    MW4 9179   1.820   4.214   3.903  0.0005  0.0001 -0.0000
 2282SOL     OW 9180   1.988   4.391   3.809  0.0053 -0.2938 -0.0084
 2282SOL    HW2 9181   2.068   4.347   3.838  0.6917  0.8414 -0.1519
 2282SOL    HW3 9182   2.002   4.408   3.716 -0.7574 -0.8367 -0.2284
 2282SOL    MW4 9183   2.000   4.387   3.801  0.0005  0.0001 -0.0000
 2283SOL     OW 9184   2.459   0.012   3.861 -0.2047  0.1059 -0.0607
 2283SOL    HW2 9185   2.458   0.021   3.956 -0.2906  1.3179 -0.1639
 2283SOL    HW3 9186   2.529   0.071   3.833  0.3630 -0.8606 -0.6936
 2283SOL    MW4 9187   2.468   0.021   3.870  0.0005  0.0001 -0.0000
 2284SOL     OW 9188   2.215   0.115   3.781  0.6970 -0.1809  0.4796
 2284SOL    HW2 9189   2.297   0.066   3.786  0.5699 -0.6018 -1.3490
 2284SOL    HW3 9190   2.198   0.125   3.687 -0.4121  1.4735  0.8314
 2284SOL    MW4 9191   2.224   0.110   3.769  0.0005  0.0001 -0.0000
 2285SOL     OW 9192   2.277   0.376   3.890  0.2087 -0.0047  0.1417
 2285SOL    HW2 9193   2.263   0.284   3.868 -0.5139  0.2787 -0.6190
 2285SOL    HW3 9194   2.196   0.419   3.864  0.7202  0.9225  0.0677
 2285SOL    MW4 9195   2.264   0.370   3.884  0.0005  0.0001 -0.0000
 2286SOL     OW 9196   2.470   0.504   3.744 -0.6302  0.0637  0.2857
 2286SOL    HW2 9197   2.407   0.450   3.792 -0.6253  1.1751  1.5700
 2286SOL    HW3 9198   2.456   0.481   3.652 -0.7933 -1.9356  0.7857
 2286SOL    MW4 9199   2.460   0.494   3.738  0.0005  0.0001 -0.0000
 2287SOL     OW 9200   2.504   0.776   3.851  0.5204 -0.0405 -0.2135
 2287SOL    HW2 9201   2.424   0.822   3.826 -0.4743 -0.4712  2.0477
 2287SOL    HW3 9202   2.490   0.686   3.823  0.4950  0.0342 -0.4403
 2287SOL    MW4 9203   2.492   0.770   3.844  0.0005  0.0001 -0.0000
 2288SOL     OW 9204   2.278   0.897   3.744  0.3719 -0.0877  0.3085
 2288SOL    HW2 9205   2.198   0.859   3.780  0.0468  0.9576  0.7070
 2288SOL    HW3 9206   2.269   0.886   3.649  0.4594 -1.3339  0.4355
 2288SOL    MW4 9207   2.266   0.891   3.736  0.0005  0.0001 -0.0000
 2289SOL     OW 9208   2.314   1.137   3.849 -0.5685  0.0787  0.4397
 2289SOL    HW2 9209   2.288   1.141   3.941  2.9299 -1.1379  1.5628
 2289SOL    HW3 9210   2.293   1.048   3.822  0.2756 -0.1979  0.6799
 2289SOL    MW4 9211   2.308   1.126   3.858  0.0005  0.0001 -0.0000
 2290SOL     OW 9212   2.521   1.274   3.730  0.1254  0.0735 -0.0533
 2290SOL    HW2 9213   2.498   1.360   3.764  1.7360 -0.4185  2.4059
 2290SOL    HW3 9214   2.446   1.219   3.752  0.4077  0.1675  1.2026
 2290SOL    MW4 9215   2.508   1.278   3.737  0.0005  0.0001 -0.0000
 2291SOL     OW 9216   2.472   1.510   3.856 -0.1677 -0.0484 -0.0402
 2291SOL    HW2 9217   2.548   1.561   3.828  0.8023 -0.9738  0.8799
 2291SOL    HW3 9218   2.397   1.562   3.827  0.7871 -0.0609 -2.6861
 2291SOL    MW4 9219   2.472   1.524   3.848  0.0005  0.0001 -0.0000
 2292SOL     OW 9220   2.240   1.647   3.746  0.2227 -0.4179 -0.0565
 2292SOL    HW2 9221   2.221   1.737   3.773 -0.6599  0.2503 -2.7582
 2292SOL    HW3 9222   2.176   1.594   3.794 -0.5723  0.6045  0.0366
 2292SOL    MW4 9223   2.229   1.652   3.756  0.0005  0.0001 -0.0000
 2293SOL     OW 9224   2.242   1.919   3.841  0.0947  0.3813 -0.0301
 2293SOL    HW2 9225   2.256   1.909   3.935  0.6740 -1.9133 -0.3331
 2293SOL    HW3 9226   2.154   1.955   3.834 -1.1469 -2.2389  1.3299
 2293SOL    MW4 9227   2.232   1.922   3.852  0.0005  0.0001 -0.0000
 2294SOL     OW 9228   2.470   2.057   3.780  0.6652  0.2704  0.7795
 2294SOL    HW2 9229   2.444   2.142   3.816 -0.3056  0.7844 -1.0574
 2294SOL    HW3 9230   2.397   1.999   3.801  1.1749 -0.0471  1.7275
 2294SOL    MW4 9231   2.457   2.060   3.787  0.0005  0.0001 -0.0000
 2295SOL     OW 9232   2.456   2.312   3.878  0.0094  0.0301 -0.3675
 2295SOL    HW2 9233   2.528   2.351   3.828  0.6562  1.2811  1.4883
 2295SOL    HW3 9234   2.378   2.356   3.845  0.2480 -0.2742 -1.3589
 2295SOL    MW4 9235   2.455   2.323   3.867  0.0005  0.0001 -0.0000
 2296SOL     OW 9236   2.238   2.424   3.752 -0.2983  0.2669 -0.1479
 2296SOL    HW2 9237   2.157   2.375   3.764 -1.6619  2.2027 -1.1692
 2296SOL    HW3 9238   2.242   2.441   3.658  0.9064  0.8391 -0.0027
 2296SOL    MW4 9239   2.228   2.420   3.741  0.0005  0.0001 -0.0000
 2297SOL     OW 9240   2.216   2.712   3.862  0.1218  0.1218  0.2289
 2297SOL    HW2 9241   2.224   2.723   3.957 -0.8338 -1.4756  0.5124
 2297SOL    HW3 9242   2.224   2.618   3.848  2.1281  0.5098 -1.4839
 2297SOL    MW4 9243   2.218   2.701   3.873  0.0005  0.0001 -0.0000
 2298SOL     OW 9244   2.463   2.803   3.787 -0.3373  0.1802  0.0301
 2298SOL    HW2 9245   2.377   2.764   3.801  0.6842 -2.1686 -0.0017
 2298SOL    HW3 9246   2.471   2.812   3.692  0.2881 -1.6259 -0.1068
 2298SOL    MW4 9247   2.453   2.799   3.776  0.0005  0.0001 -0.0000
 2299SOL     OW 9248   2.481   3.072   3.837  0.1585  0.0382 -0.4792
 2299SOL    HW2 9249   2.498   3.077   3.931 -0.5268  1.4625 -0.4227
 2299SOL    HW3 9250   2.449   2.983   3.824 -2.1452  0.5911  1.0598
 2299SOL    MW4 9251   2.479   3.061   3.848  0.0005  0.0001 -0.0000
 2300SOL     OW 9252   2.220   3.220   3.779  0.3729  0.2337  0.1870
 2300SOL    HW2 9253   2.236   3.314   3.778 -0.2102  0.3259 -1.0059
 2300SOL    HW3 9254   2.306   3.182   3.798  0.6261  0.9960  0.6030
 2300SOL    MW4 9255   2.233   3.227   3.781  0.0005  0.0001 -0.0000
 2301SOL     OW 9256   2.284   3.494   3.813 -0.0322 -0.3185 -0.0670
 2301SOL    HW2 9257   2.296   3.492   3.908 -0.5291 -2.1780 -0.0250
 2301SOL    HW3 9258   2.363   3.536   3.780 -0.0167  0.6720  1.1882
 2301SOL    MW4 9259   2.296   3.499   3.821  0.0005  0.0001 -0.0000
 2302SOL     OW 9260   2.535   3.651   3.751  0.5638  0.1327 -0.5902
 2302SOL    HW2 9261   2.601   3.585   3.772  1.0761  0.5327 -0.9256
 2302SOL    HW3 9262   2.516   3.636   3.658 -1.1450 -1.1513 -0.0530
 2302SOL    MW4 9263   2.541   3.640   3.742  0.0005  0.0001 -0.0000
 2303SOL     OW 9264   2.483   3.896   3.855 -0.3858 -0.0427 -0.0639
 2303SOL    HW2 9265   2.554   3.948   3.817 -0.1354 -0.3220  0.0172
 2303SOL    HW3 9266   2.493   3.809   3.817  0.0705 -0.4132  0.8833
 2303SOL    MW4 9267   2.494   3.891   3.845  0.0005  0.0001 -0.0000
 2304SOL     OW 9268   2.243   4.014   3.783  0.2993 -0.1176  0.1333
 2304SOL    HW2 9269   2.324   3.967   3.800  0.1401 -0.5255 -0.2306
 2304SOL    HW3 9270   2.240   4.024   3.688  0.2954  0.5633  0.2016
 2304SOL    MW4 9271   2.253   4.009   3.773  0.0005  0.0001 -0.0000
 2305SOL     OW 9272   2.250   4.278   3.860 -0.0128 -0.3612 -0.0885
 2305SOL    HW2 9273   2.260   4.260   3.953  0.8612  1.1434  0.1285
 2305SOL    HW3 9274   2.245   4.192   3.819  2.2871 -1.0842  1.0685
 2305SOL    MW4 9275   2.251   4.264   3.867  0.0005  0.0001 -0.0000
 2306SOL     OW 9276   2.490   4.418   3.803 -0.5378 -0.0420 -0.6142
 2306SOL    HW2 9277   2.408   4.380   3.834 -1.4870  0.7362 -2.1403
 2306SOL    HW3 9278   2.484   4.511   3.826 -0.4189  0.1628 -1.3954
 2306SOL    MW4 9279   2.478   4.425   3.810  0.0005  0.0001 -0.0000
 2307SOL     OW 9280   2.918   4.662   3.877  0.0067  0.0949  0.4228
 2307SOL    HW2 9281   2.920   4.679   3.971 -1.9327 -1.4952  0.7899
 2307SOL    HW3 9282   3.000   4.698   3.844  0.7449  0.5997  2.7329
 2307SOL    MW4 9283   2.929   4.669   3.885  0.0005  0.0001 -0.0000
 2308SOL     OW 9284   2.701   0.146   3.777  0.1576 -0.0170  0.1820
 2308SOL    HW2 9285   2.779   0.101   3.809 -0.6648 -0.5494  1.4892
 2308SOL    HW3 9286   2.700   0.127   3.683  1.1581 -0.6759  0.2909
 2308SOL    MW4 9287   2.711   0.138   3.769  0.0005  0.0001 -0.0000
 2309SOL     OW 9288   2.721   0.431   3.820 -0.2036  0.6880 -0.0945
 2309SOL    HW2 9289   2.718   0.336   3.807 -0.2043  0.4700  1.4148
 2309SOL    HW3 9290   2.632   0.460   3.802 -0.9533 -0.0092  2.2969
 2309SOL    MW4 9291   2.709   0.422   3.816  0.0005  0.0001 -0.0000
 2310SOL     OW 9292   2.954   0.555   3.728 -0.1598  0.0468  0.0143
 2310SOL    HW2 9293   3.013   0.483   3.751 -0.0050  0.0294 -0.4320
 2310SOL    HW3 9294   2.867   0.523   3.751  0.0813  0.3887  1.4512
 2310SOL    MW4 9295   2.950   0.541   3.734  0.0005  0.0001 -0.0000
 2311SOL     OW 9296   2.949   0.809   3.876  0.1723 -0.5780  0.4469
 2311SOL    HW2 9297   3.004   0.866   3.823 -1.4888  1.0385  0.4029
 2311SOL    HW3 9298   2.955   0.723   3.834  2.9922 -0.5576  0.7236
 2311SOL    MW4 9299   2.957   0.805   3.863  0.0005  0.0001 -0.0000
 2312SOL     OW 9300   2.737   0.915   3.755  0.2410  0.7098 -0.0128
 2312SOL    HW2 9301   2.814   0.880   3.799  0.4908  0.4927 -0.6194
 2312SOL    HW3 9302   2.664   0.864   3.791  0.6371 -0.6868 -1.1390
 2312SOL    MW4 9303   2.738   0.904   3.766  0.0005  0.0001 -0.0000
 2313SOL     OW 9304   2.707   1.174   3.892  0.3765 -0.2545 -0.5435
 2313SOL    HW2 9305   2.726   1.089   3.853  1.0850 -0.3662  0.0277
 2313SOL    HW3 9306   2.636   1.210   3.839  0.3147 -1.0481 -1.0029
 2313SOL    MW4 9307   2.700   1.168   3.880  0.0005  0.0001 -0.0000
 2314SOL     OW 9308   2.919   1.296   3.731 -0.0045 -0.2508  0.1494
 2314SOL    HW2 9309   2.931   1.378   3.779  0.4947 -0.4995  0.4524
 2314SOL    HW3 9310   2.840   1.257   3.770  0.0539 -0.1631  0.3572
 2314SOL    MW4 9311   2.910   1.302   3.742  0.0005  0.0001 -0.0000
 2315SOL     OW 9312   2.943   1.556   3.835  0.0932  0.6144 -0.4180
 2315SOL    HW2 9313   2.947   1.564   3.930 -0.8537  1.4195 -0.4367
 2315SOL    HW3 9314   3.027   1.590   3.804  0.3826  0.3956  0.1241
 2315SOL    MW4 9315   2.955   1.562   3.843  0.0005  0.0001 -0.0000
 2316SOL     OW 9316   2.697   1.678   3.766  0.1605 -0.1071  0.0849
 2316SOL    HW2 9317   2.778   1.633   3.788 -0.0514 -0.2161  0.6526
 2316SOL    HW3 9318   2.706   1.700   3.673  1.1961  0.6317  0.3512
 2316SOL    MW4 9319   2.709   1.675   3.757  0.0005  0.0001 -0.0000
 2317SOL     OW 9320   2.706   1.940   3.847  0.3059  0.5250  0.1748
 2317SOL    HW2 9321   2.697   1.851   3.812  0.9562  0.4505  0.1841
 2317SOL    HW3 9322   2.619   1.979   3.837  0.0731 -0.0401 -0.0281
 2317SOL    MW4 9323   2.693   1.933   3.841  0.0005  0.0001 -0.0000
 2318SOL     OW 9324   2.942   2.064   3.742 -0.0139  0.3890 -0.1653
 2318SOL    HW2 9325   2.942   2.151   3.781 -0.9145  0.2695  0.1101
 2318SOL    HW3 9326   2.873   2.017   3.788  0.8898 -0.6721  0.1311
 2318SOL    MW4 9327   2.933   2.069   3.753  0.0005  0.0001 -0.0000
 2319SOL     OW 9328   2.955   2.310   3.848  0.4987  0.0429  0.3146
 2319SOL    HW2 9329   2.963   2.315   3.943  1.3651  0.5009  0.2296
 2319SOL    HW3 9330   3.024   2.368   3.816 -0.2533  0.4578 -0.5857
 2319SOL    MW4 9331   2.965   2.318   3.856  0.0005  0.0001 -0.0000
 2320SOL     OW 9332   2.704   2.412   3.758  0.1137 -0.3581  0.4092
 2320SOL    HW2 9333   2.702   2.506   3.775  2.0820 -0.3857  0.9000
 2320SOL    HW3 9334   2.785   2.382   3.798  0.4339 -1.9542 -1.3587
 2320SOL    MW4 9335   2.714   2.420   3.766  0.0005  0.0001 -0.0000
 2321SOL     OW 9336   2.698   2.687   3.815 -0.5148 -0.2728  0.0531
 2321SOL    HW2 9337   2.705   2.681   3.910 -1.0184 -0.3083  0.0893
 2321SOL    HW3 9338   2.617   2.736   3.800 -0.0015  0.4636 -0.3453
 2321SOL    MW4 9339   2.688   2.693   3.826  0.0005  0.0001 -0.0000
 2322SOL     OW 9340   2.945   2.869   3.760 -0.2277 -0.5321  0.3703
 2322SOL    HW2 9341   2.948   2.958   3.795 -1.0240  0.4741 -2.0152
 2322SOL    HW3 9342   2.856   2.839   3.777 -0.2596 -0.4965  0.2657
 2322SOL    MW4 9343   2.934   2.877   3.767  0.0005  0.0001 -0.0000
 2323SOL     OW 9344   2.949   3.105   3.869 -0.0503 -0.2189 -0.1273
 2323SOL    HW2 9345   3.023   3.158   3.840 -0.1279 -0.9491 -1.7090
 2323SOL    HW3 9346   2.872   3.147   3.830 -0.3049 -0.3958  0.1799
 2323SOL    MW4 9347   2.949   3.118   3.860  0.0005  0.0001 -0.0000
 2324SOL     OW 9348   2.708   3.199   3.751  0.0504 -0.5214  0.0537
 2324SOL    HW2 9349   2.700   3.284   3.794  2.2951 -0.0466 -0.4162
 2324SOL    HW3 9350   2.641   3.145   3.793  0.3901  0.6998  2.2556
 2324SOL    MW4 9351   2.698   3.203   3.762  0.0005  0.0001 -0.0000
 2325SOL     OW 9352   2.702   3.463   3.846 -0.0670  0.2210  0.0969
 2325SOL    HW2 9353   2.687   3.472   3.940 -0.4582  0.2953  0.0277
 2325SOL    HW3 9354   2.776   3.521   3.828 -1.1999  1.6757  0.0311
 2325SOL    MW4 9355   2.710   3.472   3.856  0.0005  0.0001 -0.0000
 2326SOL     OW 9356   2.911   3.634   3.784 -0.1405 -0.1196  0.0042
 2326SOL    HW2 9357   2.988   3.593   3.823 -1.2673 -1.0863  1.2780
 2326SOL    HW3 9358   2.928   3.634   3.690  1.3371 -0.4573  0.2638
 2326SOL    MW4 9359   2.923   3.629   3.777  0.0005  0.0001 -0.0000
 2327SOL     OW 9360   2.937   3.899   3.843  0.6079 -0.1380 -0.0158
 2327SOL    HW2 9361   2.941   3.891   3.938 -0.8282  0.6060  0.1189
 2327SOL    HW3 9362   2.929   3.809   3.812 -0.7844 -0.2687  0.6815
 2327SOL    MW4 9363   2.936   3.886   3.851  0.0005  0.0001 -0.0000
 2328SOL     OW 9364   2.709   4.008   3.766  0.0282 -0.2694  0.1716
 2328SOL    HW2 9365   2.709   4.087   3.820 -0.4973  1.3361 -2.0996
 2328SOL    HW3 9366   2.790   3.963   3.789  0.6824  1.2929  0.9923
 2328SOL    MW4 9367   2.720   4.012   3.776  0.0005  0.0001 -0.0000
 2329SOL     OW 9368   2.715   4.278   3.902  0.1935 -0.0876 -0.6660
 2329SOL    HW2 9369   2.792   4.329   3.877  0.5017 -0.3602 -0.2807
 2329SOL    HW3 9370   2.641   4.334   3.880  0.5550  0.9228  0.6268
 2329SOL    MW4 9371   2.715   4.292   3.896  0.0005  0.0001 -0.0000
 2330SOL     OW 9372   2.931   4.421   3.756 -0.3300 -0.0379 -0.3389
 2330SOL    HW2 9373   3.004   4.381   3.804 -0.8510 -0.2772  0.2616
 2330SOL    HW3 9374   2.921   4.508   3.795 -1.2137 -0.4998  0.4725
 2330SOL    MW4 9375   2.939   4.427   3.767  0.0005  0.0001 -0.0000
 2331SOL     OW 9376   3.385   0.024   3.906  0.4964 -0.0422  0.0117
 2331SOL    HW2 9377   3.393   0.049   3.998  0.2385  1.6067 -0.3992
 2331SOL    HW3 9378   3.459   0.066   3.863 -1.3606  2.1861 -1.1218
 2331SOL    MW4 9379   3.396   0.033   3.912  0.0005  0.0001 -0.0000
 2332SOL     OW 9380   3.135   0.134   3.801  0.7206  0.3759  0.1450
 2332SOL    HW2 9381   3.221   0.112   3.838  0.3692 -0.3086  0.5662
 2332SOL    HW3 9382   3.138   0.101   3.711  0.4273 -0.8344  0.5744
 2332SOL    MW4 9383   3.147   0.127   3.794  0.0005  0.0001 -0.0000
 2333SOL     OW 9384   3.151   0.403   3.850  0.4324  0.5356 -0.4590
 2333SOL    HW2 9385   3.157   0.408   3.945  2.2264  0.3592 -0.5451
 2333SOL    HW3 9386   3.147   0.309   3.831  1.4499  0.5184 -0.6172
 2333SOL    MW4 9387   3.151   0.391   3.860  0.0005  0.0001 -0.0000
 2334SOL     OW 9388   3.370   0.529   3.733  0.0260  0.7069 -0.0494
 2334SOL    HW2 9389   3.446   0.498   3.783 -0.4127  0.3706  0.4117
 2334SOL    HW3 9390   3.294   0.491   3.778 -0.3631  0.2098 -1.1063
 2334SOL    MW4 9391   3.370   0.520   3.746  0.0005  0.0001 -0.0000
 2335SOL     OW 9392   3.355   0.804   3.795  0.4593 -0.0900 -0.0438
 2335SOL    HW2 9393   3.373   0.814   3.888  1.3657  0.1061 -0.2345
 2335SOL    HW3 9394   3.348   0.709   3.781 -1.6766 -0.0496  0.5805
 2335SOL    MW4 9395   3.356   0.793   3.806  0.0005  0.0001 -0.0000
 2336SOL     OW 9396   3.127   0.937   3.718 -0.0292  0.0103 -0.2338
 2336SOL    HW2 9397   3.210   0.899   3.746  0.6930  1.2047 -0.7204
 2336SOL    HW3 9398   3.130   0.935   3.622 -0.1104  0.9966 -0.2640
 2336SOL    MW4 9399   3.138   0.932   3.709  0.0005  0.0001 -0.0000
 2337SOL     OW 9400   3.145   1.177   3.819 -0.2415  0.1145 -0.1555
 2337SOL    HW2 9401   3.145   1.089   3.782 -0.0110  0.6349 -1.4200
 2337SOL    HW3 9402   3.063   1.216   3.788 -0.7156  0.0893  1.0409
 2337SOL    MW4 9403   3.134   1.171   3.810  0.0005  0.0001 -0.0000
 2338SOL     OW 9404   3.389   1.308   3.742  0.1720  0.6009  0.1608
 2338SOL    HW2 9405   3.304   1.276   3.771  0.4702 -1.2913 -0.9688
 2338SOL    HW3 9406   3.383   1.309   3.646  1.0340  1.5528  0.1078
 2338SOL    MW4 9407   3.377   1.304   3.733  0.0005  0.0001 -0.0000
 2339SOL     OW 9408   3.418   1.548   3.862 -0.4745 -0.1284  0.8526
 2339SOL    HW2 9409   3.338   1.596   3.840  0.2996  0.9042  0.2404
 2339SOL    HW3 9410   3.407   1.462   3.821 -0.5530  0.5861 -0.6396
 2339SOL    MW4 9411   3.406   1.543   3.854  0.0005  0.0001 -0.0000
 2340SOL     OW 9412   3.199   1.646   3.747 -0.0983  0.0718 -0.1738
 2340SOL    HW2 9413   3.192   1.740   3.765 -0.5083  0.0553 -0.2421
 2340SOL    HW3 9414   3.210   1.641   3.652 -2.2378 -0.0488 -0.4399
 2340SOL    MW4 9415   3.200   1.658   3.737  0.0005  0.0001 -0.0000
 2341SOL     OW 9416   3.152   1.905   3.818 -0.8815 -0.1188  0.5083
 2341SOL    HW2 9417   3.129   1.914   3.910 -1.1820 -0.0685  0.4284
 2341SOL    HW3 9418   3.085   1.956   3.771 -0.4151  0.3061  0.2982
 2341SOL    MW4 9419   3.140   1.913   3.824  0.0005  0.0001 -0.0000
 2342SOL     OW 9420   3.387   2.051   3.768  0.0697 -0.1513  0.1990
 2342SOL    HW2 9421   3.313   1.991   3.782 -0.9872  1.1544  0.3074
 2342SOL    HW3 9422   3.401   2.050   3.673 -0.4788  0.0500  0.1139
 2342SOL    MW4 9423   3.379   2.043   3.757  0.0005  0.0001 -0.0000
 2343SOL     OW 9424   3.356   2.283   3.903 -0.1230  0.2027 -0.0906
 2343SOL    HW2 9425   3.283   2.321   3.854  1.4011  1.0291 -1.7775
 2343SOL    HW3 9426   3.371   2.198   3.863 -0.4449 -0.1635  0.5564
 2343SOL    MW4 9427   3.348   2.277   3.891  0.0005  0.0001 -0.0000
 2344SOL     OW 9428   3.182   2.441   3.754  0.1714 -0.3556  0.0284
 2344SOL    HW2 9429   3.184   2.534   3.778  1.1373 -0.4674  0.4047
 2344SOL    HW3 9430   3.177   2.441   3.658 -2.1873  0.0866  0.1225
 2344SOL    MW4 9431   3.182   2.453   3.745  0.0005  0.0001 -0.0000
 2345SOL     OW 9432   3.137   2.699   3.855  0.1078  0.1008 -0.1391
 2345SOL    HW2 9433   3.134   2.717   3.949  0.2006  0.1903 -0.1533
 2345SOL    HW3 9434   3.066   2.752   3.819  0.4806  0.5616 -0.2005
 2345SOL    MW4 9435   3.127   2.708   3.863  0.0005  0.0001 -0.0000
 2346SOL     OW 9436   3.364   2.853   3.809  0.0806 -0.3686  0.1565
 2346SOL    HW2 9437   3.276   2.827   3.836 -0.1309  0.7093  0.5380
 2346SOL    HW3 9438   3.363   2.849   3.713 -0.5124  0.0450  0.1451
 2346SOL    MW4 9439   3.352   2.849   3.800  0.0005  0.0001 -0.0000
 2347SOL     OW 9440   3.375   3.119   3.864 -0.0394 -0.5799  0.2410
 2347SOL    HW2 9441   3.453   3.155   3.821  0.5982 -1.3491  0.7427
 2347SOL    HW3 9442   3.373   3.027   3.838 -0.9683 -0.4885 -0.0372
 2347SOL    MW4 9443   3.385   3.112   3.855  0.0005  0.0001 -0.0000
 2348SOL     OW 9444   3.148   3.275   3.784 -0.3650 -0.3575  0.2102
 2348SOL    HW2 9445   3.229   3.232   3.811  0.1477 -0.1449 -0.9412
 2348SOL    HW3 9446   3.154   3.278   3.688 -0.1682  2.6757  0.2733
 2348SOL    MW4 9447   3.159   3.270   3.775  0.0005  0.0001 -0.0000
 2349SOL     OW 9448   3.150   3.536   3.894  0.2863 -0.1202 -0.4646
 2349SOL    HW2 9449   3.231   3.574   3.860 -0.5665  0.0671 -2.3615
 2349SOL    HW3 9450   3.146   3.450   3.853 -1.0184  0.3068 -1.2547
 2349SOL    MW4 9451   3.160   3.530   3.884  0.0005  0.0001 -0.0000
 2350SOL     OW 9452   3.379   3.658   3.773 -0.3886 -0.3030 -0.5231
 2350SOL    HW2 9453   3.390   3.749   3.800 -0.6528  0.0884 -1.7222
 2350SOL    HW3 9454   3.373   3.661   3.677 -1.3623 -1.4754 -0.5165
 2350SOL    MW4 9455   3.380   3.671   3.764  0.0005  0.0001 -0.0000
 2351SOL     OW 9456   3.400   3.904   3.873  0.1927  0.2631  0.1842
 2351SOL    HW2 9457   3.477   3.945   3.833 -0.8493  0.8141 -1.3002
 2351SOL    HW3 9458   3.326   3.938   3.823 -1.0141 -0.3838  1.4939
 2351SOL    MW4 9459   3.400   3.914   3.861  0.0005  0.0001 -0.0000
 2352SOL     OW 9460   3.164   4.021   3.742  0.2139 -0.0430  0.0358
 2352SOL    HW2 9461   3.156   4.112   3.770 -0.0674  0.4115 -1.4524
 2352SOL    HW3 9462   3.086   3.978   3.776  0.6474  0.1248  1.2562
 2352SOL    MW4 9463   3.153   4.027   3.750  0.0005  0.0001 -0.0000
 2353SOL     OW 9464   3.159   4.292   3.866  0.1262 -0.5277 -0.9100
 2353SOL    HW2 9465   3.164   4.261   3.957  0.1595  3.2889  0.4744
 2353SOL    HW3 9466   3.246   4.327   3.847 -0.8176  1.7573 -1.2068
 2353SOL    MW4 9467   3.171   4.293   3.875  0.0005  0.0001 -0.0000
 2354SOL     OW 9468   3.382   4.449   3.786  0.5712  0.4360  0.1675
 2354SOL    HW2 9469   3.459   4.403   3.819  0.3046 -0.2161 -0.1116
 2354SOL    HW3 9470   3.389   4.537   3.823  2.1657  0.8007 -0.9496
 2354SOL    MW4 9471   3.393   4.455   3.795  0.0005  0.0001 -0.0000
 2355SOL     OW 9472   3.840   0.063   3.868 -0.0370  0.1900  0.0761
 2355SOL    HW2 9473   3.931   0.085   3.849 -0.2864  0.2490 -1.0816
 2355SOL    HW3 9474   3.830  -0.028   3.839 -1.0367  1.0176 -2.3065
 2355SOL    MW4 9475   3.851   0.054   3.862  0.0005  0.0001 -0.0000
 2356SOL     OW 9476   3.595   0.165   3.784 -0.3981 -0.3995 -0.3280
 2356SOL    HW2 9477   3.675   0.134   3.825 -0.0818 -0.5985 -1.0823
 2356SOL    HW3 9478   3.612   0.157   3.690 -0.9504  0.4419 -0.5034
 2356SOL    MW4 9479   3.608   0.160   3.777  0.0005  0.0001 -0.0000
 2357SOL     OW 9480   3.574   0.440   3.885  0.2602  0.1424 -0.0035
 2357SOL    HW2 9481   3.656   0.479   3.853 -0.6642  1.8392 -0.3645
 2357SOL    HW3 9482   3.579   0.348   3.858  1.5873  0.4697 -0.9249
 2357SOL    MW4 9483   3.585   0.433   3.877  0.0005  0.0001 -0.0000
 2358SOL     OW 9484   3.842   0.497   3.821 -0.1411  0.0454  0.1349
 2358SOL    HW2 9485   3.921   0.456   3.855  0.3544  1.0609  0.2355
 2358SOL    HW3 9486   3.861   0.591   3.823 -0.8953  0.2310 -0.9798
 2358SOL    MW4 9487   3.855   0.504   3.826  0.0005  0.0001 -0.0000
 2359SOL     OW 9488   3.797   0.779   3.865  0.1247 -0.2723 -0.4847
 2359SOL    HW2 9489   3.887   0.812   3.865  0.4085 -0.9750  1.6170
 2359SOL    HW3 9490   3.747   0.846   3.818  1.5255  0.7402 -0.5668
 2359SOL    MW4 9491   3.802   0.792   3.859  0.0005  0.0001 -0.0000
 2360SOL     OW 9492   3.599   0.950   3.766  0.1956  0.5467  0.2582
 2360SOL    HW2 9493   3.608   1.036   3.808  0.3285  0.5844  0.1531
 2360SOL    HW3 9494   3.507   0.926   3.780  0.3347  0.3831  0.9105
 2360SOL    MW4 9495   3.588   0.958   3.773  0.0005  0.0001 -0.0000
 2361SOL     OW 9496   3.604   1.202   3.893  0.1502  0.2633  0.0456
 2361SOL    HW2 9497   3.673   1.236   3.835  0.2571 -0.5206 -0.2931
 2361SOL    HW3 9498   3.523   1.214   3.843  0.2060 -0.1211 -0.1396
 2361SOL    MW4 9499   3.602   1.208   3.879  0.0005  0.0001 -0.0000
 2362SOL     OW 9500   3.836   1.267   3.716 -0.0385 -0.2066 -0.3905
 2362SOL    HW2 9501   3.911   1.226   3.758 -1.9233 -1.1181  2.2174
 2362SOL    HW3 9502   3.828   1.352   3.759 -0.1318  0.1358 -1.0838
 2362SOL    MW4 9503   3.845   1.273   3.727  0.0005  0.0001 -0.0000
 2363SOL     OW 9504   3.813   1.501   3.852  0.1570 -0.3714 -0.2173
 2363SOL    HW2 9505   3.819   1.512   3.947  0.8669 -0.4233 -0.2542
 2363SOL    HW3 9506   3.752   1.569   3.824  1.0436  0.5713  0.1070
 2363SOL    MW4 9507   3.806   1.511   3.861  0.0005  0.0001 -0.0000
 2364SOL     OW 9508   3.652   1.687   3.749 -0.1781  0.1206  0.0434
 2364SOL    HW2 9509   3.576   1.645   3.789  0.7185 -1.1300  0.4660
 2364SOL    HW3 9510   3.640   1.674   3.655  0.8802 -2.5327  0.2320
 2364SOL    MW4 9511   3.640   1.680   3.742  0.0005  0.0001 -0.0000
 2365SOL     OW 9512   3.628   1.946   3.882 -0.3783  0.3161  0.5474
 2365SOL    HW2 9513   3.641   1.863   3.835  0.3368  0.9265 -0.3501
 2365SOL    HW3 9514   3.542   1.977   3.852  0.0123  0.6325 -0.2617
 2365SOL    MW4 9515   3.618   1.939   3.872  0.0005  0.0001 -0.0000
 2366SOL     OW 9516   3.826   2.102   3.750  0.5580 -0.3274 -0.4088
 2366SOL    HW2 9517   3.910   2.066   3.779  0.7489  1.3271  1.1830
 2366SOL    HW3 9518   3.761   2.055   3.803  0.5982 -0.4078 -0.4302
 2366SOL    MW4 9519   3.829   2.091   3.761  0.0005  0.0001 -0.0000
 2367SOL     OW 9520   3.819   2.323   3.901  0.0691  0.5693 -0.2434
 2367SOL    HW2 9521   3.748   2.383   3.878 -1.2921 -0.8480  0.1771
 2367SOL    HW3 9522   3.817   2.256   3.833  1.0953  0.5842 -0.2970
 2367SOL    MW4 9523   3.809   2.322   3.889  0.0005  0.0001 -0.0000
 2368SOL     OW 9524   3.593   2.455   3.816  0.1793  0.1332  0.3268
 2368SOL    HW2 9525   3.517   2.408   3.851  0.1420  0.4886  0.7225
 2368SOL    HW3 9526   3.583   2.448   3.721 -0.5423  0.4829  0.3718
 2368SOL    MW4 9527   3.582   2.448   3.808  0.0005  0.0001 -0.0000
 2369SOL     OW 9528   3.603   2.724   3.842 -0.0153  0.2443  0.7190
 2369SOL    HW2 9529   3.587   2.630   3.853 -0.2824  0.1704 -0.2574
 2369SOL    HW3 9530   3.516   2.762   3.828  0.0088  0.7520  1.8867
 2369SOL    MW4 9531   3.589   2.717   3.842  0.0005  0.0001 -0.0000
 2370SOL     OW 9532   3.851   2.830   3.776 -0.1671  0.0795  0.2747
 2370SOL    HW2 9533   3.911   2.782   3.833  1.1528 -1.0138 -1.9478
 2370SOL    HW3 9534   3.764   2.794   3.796  0.3214 -0.5661  1.2876
 2370SOL    MW4 9535   3.847   2.819   3.786  0.0005  0.0001 -0.0000
 2371SOL     OW 9536   3.827   3.113   3.890 -0.0474 -0.5996  0.1132
 2371SOL    HW2 9537   3.748   3.151   3.851 -0.4556 -0.7566  0.7809
 2371SOL    HW3 9538   3.833   3.026   3.850 -0.4536 -0.7526  0.3800
 2371SOL    MW4 9539   3.817   3.107   3.880  0.0005  0.0001 -0.0000
 2372SOL     OW 9540   3.607   3.250   3.756 -0.2729 -0.2479  0.3234
 2372SOL    HW2 9541   3.608   3.341   3.785  0.3288  0.2042 -1.0798
 2372SOL    HW3 9542   3.604   3.255   3.660 -0.5735 -1.7023  0.2428
 2372SOL    MW4 9543   3.607   3.263   3.747  0.0005  0.0001 -0.0000
 2373SOL     OW 9544   3.601   3.502   3.883  0.2330  0.2996 -0.3269
 2373SOL    HW2 9545   3.598   3.506   3.979  0.7347  1.6618 -0.3568
 2373SOL    HW3 9546   3.516   3.534   3.854  0.2296  0.2739 -0.3455
 2373SOL    MW4 9547   3.589   3.507   3.892  0.0005  0.0001 -0.0000
 2374SOL     OW 9548   3.821   3.648   3.771 -0.3826 -0.4103 -0.3528
 2374SOL    HW2 9549   3.824   3.736   3.808  0.9515 -0.3411 -0.6055
 2374SOL    HW3 9550   3.753   3.603   3.822  0.5428  0.0609  1.3385
 2374SOL    MW4 9551   3.812   3.654   3.783  0.0005  0.0001 -0.0000
 2375SOL     OW 9552   3.847   3.902   3.875 -0.3729 -0.4789 -0.3408
 2375SOL    HW2 9553   3.859   3.908   3.970  0.0691 -0.2762 -0.4090
 2375SOL    HW3 9554   3.925   3.944   3.838 -0.9558  0.2200 -0.7907
 2375SOL    MW4 9555   3.859   3.908   3.883  0.0005  0.0001 -0.0000
 2376SOL     OW 9556   3.593   4.044   3.757 -0.0284 -0.7579 -0.3011
 2376SOL    HW2 9557   3.596   4.137   3.781 -0.3215 -1.0992  1.1035
 2376SOL    HW3 9558   3.681   4.012   3.775 -0.0363 -0.8430 -0.4125
 2376SOL    MW4 9559   3.605   4.052   3.763  0.0005  0.0001 -0.0000
 2377SOL     OW 9560   3.602   4.306   3.866 -0.2295 -0.1926  0.3531
 2377SOL    HW2 9561   3.617   4.294   3.960 -2.0993  2.5346  1.0610
 2377SOL    HW3 9562   3.677   4.357   3.836  0.7901 -1.7706  0.1603
 2377SOL    MW4 9563   3.614   4.311   3.874  0.0005  0.0001 -0.0000
 2378SOL     OW 9564   3.814   4.449   3.772 -0.3072 -0.1638 -0.2059
 2378SOL    HW2 9565   3.888   4.406   3.815  0.0517  0.8139  0.1619
 2378SOL    HW3 9566   3.818   4.417   3.682  0.8982  0.3046 -0.3301
 2378SOL    MW4 9567   3.824   4.439   3.766  0.0005  0.0001 -0.0000
 2379SOL     OW 9568   4.318   4.665   3.887  0.1150  0.5066 -0.3242
 2379SOL    HW2 9569   4.325   4.693   3.978  0.3481 -0.7180  0.0392
 2379SOL    HW3 9570   4.399   4.697   3.846  0.0116  1.0531 -0.1064
 2379SOL    MW4 9571   4.330   4.673   3.894  0.0005  0.0001 -0.0000
 2380SOL     OW 9572   4.091   0.124   3.793 -0.2735 -0.3852  0.2961
 2380SOL    HW2 9573   4.171   0.080   3.820 -0.0617 -0.1474  0.0591
 2380SOL    HW3 9574   4.082   0.103   3.700 -1.5830 -2.1060  0.7847
 2380SOL    MW4 9575   4.100   0.115   3.784  0.0005  0.0001 -0.0000
 2381SOL     OW 9576   4.083   0.389   3.900 -0.3053  0.6585 -0.1603
 2381SOL    HW2 9577   4.075   0.383   3.995 -0.8940  3.1895 -0.0172
 2381SOL    HW3 9578   4.080   0.298   3.870 -2.0583 -0.0730  2.0830
 2381SOL    MW4 9579   4.082   0.376   3.909  0.0005  0.0001 -0.0000
 2382SOL     OW 9580   4.293   0.521   3.771  0.2687  0.4137  0.2256
 2382SOL    HW2 9581   4.229   0.466   3.816  0.8328 -0.5964 -0.1949
 2382SOL    HW3 9582   4.274   0.509   3.678  0.6464  0.6219  0.1218
 2382SOL    MW4 9583   4.282   0.512   3.765  0.0005  0.0001 -0.0000
 2383SOL     OW 9584   4.289   0.776   3.868 -0.0901  0.0084 -0.1743
 2383SOL    HW2 9585   4.213   0.828   3.842 -0.2220 -0.1745 -0.1564
 2383SOL    HW3 9586   4.279   0.693   3.821 -0.4461 -0.4086  0.6272
 2383SOL    MW4 9587   4.278   0.772   3.858  0.0005  0.0001 -0.0000
 2384SOL     OW 9588   4.061   0.894   3.782  0.1862  0.3736  0.0639
 2384SOL    HW2 9589   4.065   0.982   3.818  1.6157  0.4090 -0.1503
 2384SOL    HW3 9590   4.057   0.907   3.687  3.3713  0.1993 -0.1491
 2384SOL    MW4 9591   4.061   0.907   3.774  0.0005  0.0001 -0.0000
 2385SOL     OW 9592   4.040   1.157   3.868 -0.7721  0.1280  0.2801
 2385SOL    HW2 9593   4.030   1.156   3.963 -0.7678 -2.4505  0.2869
 2385SOL    HW3 9594   4.129   1.188   3.854 -0.6070  0.0618  1.1390
 2385SOL    MW4 9595   4.050   1.161   3.879  0.0005  0.0001 -0.0000
 2386SOL     OW 9596   4.279   1.252   3.785 -0.1259  0.6632 -0.0516
 2386SOL    HW2 9597   4.266   1.342   3.814 -1.0036 -0.2503  2.5523
 2386SOL    HW3 9598   4.253   1.252   3.693 -2.8533  2.4715  0.6643
 2386SOL    MW4 9599   4.274   1.264   3.777  0.0005  0.0001 -0.0000
 2387SOL     OW 9600   4.234   1.515   3.868  0.2458 -0.2576  0.1158
 2387SOL    HW2 9601   4.157   1.557   3.829  1.1041  0.2530 -1.0519
 2387SOL    HW3 9602   4.309   1.564   3.833  1.2141 -2.0945 -0.4553
 2387SOL    MW4 9603   4.234   1.527   3.858  0.0005  0.0001 -0.0000
 2388SOL     OW 9604   4.027   1.675   3.780  0.1241 -0.1394  0.1890
 2388SOL    HW2 9605   4.042   1.766   3.807  0.3852  0.1066 -0.7762
 2388SOL    HW3 9606   3.938   1.656   3.811 -0.3355  0.7916 -0.5226
 2388SOL    MW4 9607   4.017   1.684   3.788  0.0005  0.0001 -0.0000
 2389SOL     OW 9608   4.049   1.957   3.863 -0.0350 -0.5373  0.0125
 2389SOL    HW2 9609   4.035   1.976   3.956 -0.3666 -0.9240  0.0446
 2389SOL    HW3 9610   4.126   2.008   3.839  0.0267 -0.4039  0.4917
 2389SOL    MW4 9611   4.057   1.966   3.872  0.0005  0.0001 -0.0000
 2390SOL     OW 9612   4.271   2.104   3.753  0.0208  0.1617  0.4698
 2390SOL    HW2 9613   4.268   2.193   3.787  1.9096  0.1085  0.8293
 2390SOL    HW3 9614   4.250   2.113   3.660  0.9233  1.0849  0.3448
 2390SOL    MW4 9615   4.268   2.117   3.745  0.0005  0.0001 -0.0000
 2391SOL     OW 9616   4.235   2.368   3.836  0.1943  0.1909 -0.2605
 2391SOL    HW2 9617   4.210   2.365   3.928  1.4315  2.7137  0.2034
 2391SOL    HW3 9618   4.156   2.397   3.790 -0.1245 -0.0546  0.1323
 2391SOL    MW4 9619   4.221   2.371   3.842  0.0005  0.0001 -0.0000
 2392SOL     OW 9620   3.980   2.485   3.730 -0.5954 -0.0530  0.2715
 2392SOL    HW2 9621   3.997   2.565   3.779  2.3266 -0.6165  0.2738
 2392SOL    HW3 9622   3.924   2.433   3.787 -1.4163  1.4174  0.8287
 2392SOL    MW4 9623   3.975   2.489   3.744  0.0005  0.0001 -0.0000
 2393SOL     OW 9624   4.050   2.688   3.909  0.1877 -0.2208 -0.1271
 2393SOL    HW2 9625   4.062   2.699   4.003  1.8627 -2.0518 -0.0933
 2393SOL    HW3 9626   4.133   2.717   3.871 -0.6993  1.0914 -1.1051
 2393SOL    MW4 9627   4.063   2.693   3.916  0.0005  0.0001 -0.0000
 2394SOL     OW 9628   4.267   2.788   3.769  0.0523 -0.0052 -0.3877
 2394SOL    HW2 9629   4.258   2.876   3.805  0.6210 -0.2922  0.4902
 2394SOL    HW3 9630   4.349   2.756   3.806 -0.6619 -1.2827  0.1343
 2394SOL    MW4 9631   4.277   2.795   3.779  0.0005  0.0001 -0.0000
 2395SOL     OW 9632   4.259   3.102   3.898  0.2621  0.2061  0.4327
 2395SOL    HW2 9633   4.197   3.164   3.860  0.9544  0.2631 -0.6207
 2395SOL    HW3 9634   4.345   3.134   3.871  0.6207 -1.2934 -0.2606
 2395SOL    MW4 9635   4.262   3.114   3.889  0.0005  0.0001 -0.0000
 2396SOL     OW 9636   4.063   3.252   3.764 -0.3528 -0.4531  0.0170
 2396SOL    HW2 9637   4.001   3.202   3.817 -2.0743  1.1182 -0.4882
 2396SOL    HW3 9638   4.034   3.238   3.674 -0.0517  0.3867 -0.2116
 2396SOL    MW4 9639   4.051   3.244   3.759  0.0005  0.0001 -0.0000
 2397SOL     OW 9640   4.049   3.530   3.893  0.0565 -0.4590 -0.3599
 2397SOL    HW2 9641   4.038   3.445   3.850 -0.0377 -0.2936 -0.6647
 2397SOL    HW3 9642   3.973   3.581   3.865  0.8693  0.2231 -1.3615
 2397SOL    MW4 9643   4.038   3.526   3.884  0.0005  0.0001 -0.0000
 2398SOL     OW 9644   4.291   3.627   3.778  0.3963 -0.1577 -0.0738
 2398SOL    HW2 9645   4.211   3.590   3.816  0.9317 -0.6198  0.6126
 2398SOL    HW3 9646   4.361   3.570   3.809  1.2499  1.4702  1.0691
 2398SOL    MW4 9647   4.290   3.615   3.787  0.0005  0.0001 -0.0000
 2399SOL     OW 9648   4.316   3.884   3.906  0.3103  0.0947  0.0148
 2399SOL    HW2 9649   4.252   3.935   3.856 -0.7902  0.2647  1.5654
 2399SOL    HW3 9650   4.312   3.797   3.867 -2.0215 -0.3147  1.0744
 2399SOL    MW4 9651   4.307   3.879   3.894  0.0005  0.0001 -0.0000
 2400SOL     OW 9652   4.103   4.027   3.799 -0.0812  0.1869 -0.7428
 2400SOL    HW2 9653   4.089   4.120   3.819 -1.0148  0.1764 -1.3119
 2400SOL    HW3 9654   4.086   4.020   3.705 -0.5448 -0.6587 -0.6005
 2400SOL    MW4 9655   4.099   4.038   3.789  0.0005  0.0001 -0.0000
 2401SOL     OW 9656   4.017   4.288   3.857  0.1005  0.1104  0.3480
 2401SOL    HW2 9657   4.018   4.287   3.953 -0.1329  0.5723  0.3564
 2401SOL    HW3 9658   4.100   4.329   3.832 -0.2486  0.8384  0.3701
 2401SOL    MW4 9659   4.028   4.293   3.866  0.0005  0.0001 -0.0000
 2402SOL     OW 9660   4.298   4.404   3.763 -0.3869  0.2939  0.3840
 2402SOL    HW2 9661   4.310   4.485   3.813 -0.3802  0.8514 -0.5011
 2402SOL    HW3 9662   4.364   4.344   3.798 -0.2307  0.7509  0.8820
 2402SOL    MW4 9663   4.308   4.407   3.774  0.0005  0.0001 -0.0000
 2403SOL     OW 9664   0.260   4.665   4.144 -0.5028 -0.3286  0.0609
 2403SOL    HW2 9665   0.335   4.702   4.191 -0.4482 -0.4675  0.0840
 2403SOL    HW3 9666   0.247   4.579   4.184  0.9885 -1.4185 -1.7158
 2403SOL    MW4 9667   0.268   4.659   4.155  0.0005  0.0001 -0.0000
 2404SOL     OW 9668   0.062   0.158   4.249  0.3346  0.1092 -0.3650
 2404SOL    HW2 9669   0.097   0.171   4.337  0.1430  1.1243 -0.4304
 2404SOL    HW3 9670   0.129   0.108   4.203  0.4995 -0.2961  0.3132
 2404SOL    MW4 9671   0.076   0.153   4.255  0.0005  0.0001 -0.0000
 2405SOL     OW 9672   4.479   0.394   4.156  0.1543 -0.7601  0.2859
 2405SOL    HW2 9673   4.492   0.304   4.186 -0.8537 -1.2880 -0.8069
 2405SOL    HW3 9674   4.485   0.388   4.061 -0.7392  0.1878  0.1637
 2405SOL    MW4 9675   4.482   0.381   4.147  0.0005  0.0001 -0.0000
 2406SOL     OW 9676   0.215   0.503   4.294 -0.1564  0.5978  0.9736
 2406SOL    HW2 9677   0.296   0.462   4.263  0.2708  1.2954  1.1451
 2406SOL    HW3 9678   0.146   0.462   4.241  0.4037  0.6546  0.1842
 2406SOL    MW4 9679   0.217   0.492   4.283  0.0005  0.0001 -0.0000
 2407SOL     OW 9680   0.228   0.758   4.188  0.1805  0.2489  0.1385
 2407SOL    HW2 9681   0.162   0.809   4.234 -0.4229 -0.4924  0.1012
 2407SOL    HW3 9682   0.224   0.671   4.229  0.3058 -0.1336 -0.6532
 2407SOL    MW4 9683   0.219   0.753   4.200  0.0005  0.0001 -0.0000
 2408SOL     OW 9684   0.010   0.881   4.330  0.0108 -0.1300 -0.2113
 2408SOL    HW2 9685  -0.052   0.852   4.263  0.6017 -1.5348 -0.1821
 2408SOL    HW3 9686   0.020   0.975   4.315 -2.2239  0.1380 -0.1112
 2408SOL    MW4 9687   0.003   0.890   4.319  0.0005  0.0001 -0.0000
 2409SOL     OW 9688   0.032   1.132   4.197 -0.3541 -0.3207  0.3152
 2409SOL    HW2 9689   0.087   1.202   4.231  1.0259 -1.0153 -0.4476
 2409SOL    HW3 9690   0.029   1.147   4.103 -0.5725 -0.9213  0.2234
 2409SOL    MW4 9691   0.039   1.143   4.189  0.0005  0.0001 -0.0000
 2410SOL     OW 9692   0.246   1.294   4.255 -0.4423  0.1092 -0.1980
 2410SOL    HW2 9693   0.283   1.283   4.342  0.1218  0.2044 -0.4248
 2410SOL    HW3 9694   0.289   1.227   4.202  0.0906  0.8234 -0.6716
 2410SOL    MW4 9695   0.257   1.284   4.259  0.0005  0.0001 -0.0000
 2411SOL     OW 9696   0.085   1.506   4.610 -0.0443  0.0969 -0.1812
 2411SOL    HW2 9697   0.172   1.536   4.635  1.0164 -0.4787 -2.9967
 2411SOL    HW3 9698   0.044   1.582   4.569 -1.3557  0.7148  2.1801
 2411SOL    MW4 9699   0.091   1.520   4.608  0.0005  0.0001 -0.0000
 2412SOL     OW 9700   0.006   1.694   4.213 -0.0023 -0.2774 -0.2257
 2412SOL    HW2 9701  -0.064   1.637   4.180  0.2463 -0.2561 -0.7957
 2412SOL    HW3 9702  -0.025   1.783   4.196 -0.6071 -0.2215  1.1059
 2412SOL    MW4 9703  -0.007   1.698   4.206  0.0005  0.0001 -0.0000
 2413SOL     OW 9704   0.224   2.001   4.225 -0.1528  0.0345 -0.4415
 2413SOL    HW2 9705   0.217   1.999   4.320  0.4802  0.4158 -0.3835
 2413SOL    HW3 9706   0.297   1.942   4.206  0.3869  0.7539 -0.6175
 2413SOL    MW4 9707   0.233   1.993   4.235  0.0005  0.0001 -0.0000
 2414SOL     OW 9708   0.450   1.828   4.567 -0.3871 -0.1214 -0.1603
 2414SOL    HW2 9709   0.361   1.858   4.546  0.2513  0.7118 -1.7726
 2414SOL    HW3 9710   0.479   1.783   4.488  0.6542 -0.3361  0.3383
 2414SOL    MW4 9711   0.442   1.826   4.554  0.0005  0.0001 -0.0000
 2415SOL     OW 9712   0.224   2.254   4.106 -0.3369 -0.1156  0.3126
 2415SOL    HW2 9713   0.298   2.312   4.124  1.1094 -1.2481 -1.7700
 2415SOL    HW3 9714   0.239   2.178   4.162  0.1260 -0.3737 -0.1572
 2415SOL    MW4 9715   0.236   2.252   4.116  0.0005  0.0001 -0.0000
 2416SOL     OW 9716   0.047   2.439   4.213  0.2695 -0.2428  0.6587
 2416SOL    HW2 9717  -0.041   2.416   4.183 -0.1387  0.8264  0.9974
 2416SOL    HW3 9718   0.103   2.368   4.182 -0.6010 -0.5690 -0.1782
 2416SOL    MW4 9719   0.043   2.427   4.205  0.0005  0.0001 -0.0000
 2417SOL     OW 9720   0.018   2.703   4.162 -0.0865 -0.3090 -0.3409
 2417SOL    HW2 9721   0.082   2.754   4.211  0.0990  0.6812 -1.5866
 2417SOL    HW3 9722   0.023   2.615   4.200  0.1798  0.3854  1.2707
 2417SOL    MW4 9723   0.027   2.698   4.173  0.0005  0.0001 -0.0000
 2418SOL     OW 9724   0.234   2.853   4.299 -0.5526 -0.1017  0.0037
 2418SOL    HW2 9725   0.293   2.801   4.244  1.2086  0.2031  1.5625
 2418SOL    HW3 9726   0.219   2.933   4.248  0.0171 -0.3832 -0.6168
 2418SOL    MW4 9727   0.240   2.857   4.285  0.0005  0.0001 -0.0000
 2419SOL     OW 9728   0.226   3.097   4.126  0.4201 -0.0755 -0.2185
 2419SOL    HW2 9729   0.308   3.138   4.153  0.5066 -0.6780  0.4482
 2419SOL    HW3 9730   0.158   3.151   4.166  0.4266  1.4069 -2.1357
 2419SOL    MW4 9731   0.228   3.110   4.135  0.0005  0.0001 -0.0000
 2420SOL     OW 9732   4.474   3.237   4.249 -0.2545 -0.5439  0.1006
 2420SOL    HW2 9733   4.395   3.206   4.206 -0.1508 -1.6866  0.7079
 2420SOL    HW3 9734   4.483   3.328   4.221 -0.2455 -1.2220 -2.1910
 2420SOL    MW4 9735   4.465   3.245   4.240  0.0005  0.0001 -0.0000
 2421SOL     OW 9736   0.007   3.495   4.136 -0.0722  0.3458  0.2435
 2421SOL    HW2 9737  -0.066   3.548   4.169  1.1382  1.8962  0.4913
 2421SOL    HW3 9738  -0.007   3.491   4.041 -0.5631  0.5081  0.3083
 2421SOL    MW4 9739  -0.004   3.501   4.128  0.0005  0.0001 -0.0000
 2422SOL     OW 9740   0.245   3.576   4.229 -0.0167 -0.7251 -0.3016
 2422SOL    HW2 9741   0.313   3.518   4.195  0.0589 -0.6081 -0.3528
 2422SOL    HW3 9742   0.164   3.544   4.188  0.0781 -0.5687 -0.6140
 2422SOL    MW4 9743   0.243   3.564   4.219  0.0005  0.0001 -0.0000
 2423SOL     OW 9744   0.292   3.852   4.172 -0.5624  0.5372  0.1400
 2423SOL    HW2 9745   0.215   3.898   4.206 -0.7695  0.3247 -0.0411
 2423SOL    HW3 9746   0.278   3.760   4.196  0.3935  0.7302  1.4976
 2423SOL    MW4 9747   0.280   3.846   4.180  0.0005  0.0001 -0.0000
 2424SOL     OW 9748   0.066   3.972   4.272 -0.7025  0.0382 -0.1058
 2424SOL    HW2 9749   0.065   3.988   4.366 -0.3161 -1.1887  0.1165
 2424SOL    HW3 9750  -0.022   3.939   4.252 -0.3660 -0.9799  0.0644
 2424SOL    MW4 9751   0.054   3.970   4.282  0.0005  0.0001 -0.0000
 2425SOL     OW 9752   0.030   4.224   4.148 -0.5350 -0.0297 -0.2497
 2425SOL    HW2 9753   0.041   4.134   4.179  0.5011 -0.1431 -0.9279
 2425SOL    HW3 9754   0.015   4.216   4.054 -1.3005  0.4599 -0.1752
 2425SOL    MW4 9755   0.029   4.211   4.140  0.0005  0.0001 -0.0000
 2426SOL     OW 9756   0.199   4.415   4.252 -0.0057 -0.2698 -0.1676
 2426SOL    HW2 9757   0.167   4.423   4.342 -1.3712  0.0684 -0.6698
 2426SOL    HW3 9758   0.139   4.353   4.211  0.0901  0.2356 -1.0818
 2426SOL    MW4 9759   0.187   4.408   4.258  0.0005  0.0001 -0.0000
 2427SOL     OW 9760   0.703   4.650   4.260  0.1820  0.0740  0.2352
 2427SOL    HW2 9761   0.613   4.681   4.270  0.8716  2.2914 -0.1721
 2427SOL    HW3 9762   0.722   4.660   4.167  1.1424  0.4683  0.4663
 2427SOL    MW4 9763   0.694   4.655   4.249  0.0005  0.0001 -0.0000
 2428SOL     OW 9764   0.458   0.098   4.291  0.2121 -0.2337  0.2250
 2428SOL    HW2 9765   0.419   0.091   4.378  0.1425 -0.8810  0.1443
 2428SOL    HW3 9766   0.471   0.192   4.278 -1.0831 -0.0271  0.3570
 2428SOL    MW4 9767   0.455   0.109   4.301  0.0005  0.0001 -0.0000
 2429SOL     OW 9768   0.456   0.357   4.207  0.2137  0.1352 -0.3760
 2429SOL    HW2 9769   0.522   0.414   4.246  0.2975 -0.5616  0.5198
 2429SOL    HW3 9770   0.480   0.352   4.114  1.8572 -0.7009  0.0754
 2429SOL    MW4 9771   0.468   0.364   4.200  0.0005  0.0001 -0.0000
 2430SOL     OW 9772   0.680   0.500   4.289 -0.2604 -0.3060 -0.0025
 2430SOL    HW2 9773   0.753   0.469   4.236 -0.3205 -0.6103  0.0920
 2430SOL    HW3 9774   0.672   0.593   4.267 -0.0530 -0.3471 -0.2530
 2430SOL    MW4 9775   0.689   0.508   4.279  0.0005  0.0001 -0.0000
 2431SOL     OW 9776   0.701   0.774   4.217 -0.5642 -0.0447 -0.2089
 2431SOL    HW2 9777   0.633   0.835   4.247  0.0352  1.1739 -1.2637
 2431SOL    HW3 9778   0.699   0.782   4.122 -0.5787 -1.8124 -0.3687
 2431SOL    MW4 9779   0.692   0.783   4.208  0.0005  0.0001 -0.0000
 2432SOL     OW 9780   0.462   0.904   4.265  0.0375  0.4080  0.3834
 2432SOL    HW2 9781   0.451   0.993   4.230 -0.6055 -0.5241 -1.8878
 2432SOL    HW3 9782   0.391   0.854   4.225 -1.3136 -0.5506  3.8107
 2432SOL    MW4 9783   0.451   0.909   4.255  0.0005  0.0001 -0.0000
 2433SOL     OW 9784   0.469   1.152   4.151 -0.2011 -0.3915  0.7136
 2433SOL    HW2 9785   0.534   1.204   4.199 -1.2472  1.3508  0.2876
 2433SOL    HW3 9786   0.500   1.153   4.060 -1.0326  0.8131  0.4313
 2433SOL    MW4 9787   0.482   1.159   4.145  0.0005  0.0001 -0.0000
 2434SOL     OW 9788   0.691   1.283   4.277 -0.1305 -0.2559  0.6147
 2434SOL    HW2 9789   0.697   1.299   4.371  2.0390  1.7644  0.1817
 2434SOL    HW3 9790   0.692   1.370   4.238  0.6665 -1.1208 -1.3566
 2434SOL    MW4 9791   0.692   1.297   4.284  0.0005  0.0001 -0.0000
 2435SOL     OW 9792   0.696   1.529   4.164 -0.0983 -0.3762  0.2271
 2435SOL    HW2 9793   0.789   1.552   4.171  0.2791 -2.3339  2.2304
 2435SOL    HW3 9794   0.679   1.525   4.070  1.5590  1.0753 -0.1552
 2435SOL    MW4 9795   0.706   1.532   4.152  0.0005  0.0001 -0.0000
 2436SOL     OW 9796   0.259   1.579   4.156  0.5421 -0.0271 -0.0421
 2436SOL    HW2 9797   0.272   1.501   4.209  1.0915  0.4267  0.4991
 2436SOL    HW3 9798   0.178   1.618   4.189 -0.3702 -0.9917 -1.0989
 2436SOL    MW4 9799   0.250   1.574   4.167  0.0005  0.0001 -0.0000
 2437SOL     OW 9800   0.425   1.819   4.177  0.0944  0.2654  0.0759
 2437SOL    HW2 9801   0.387   1.731   4.172 -0.7409  0.5967  0.5076
 2437SOL    HW3 9802   0.455   1.837   4.088  1.9724 -1.1973  0.3796
 2437SOL    MW4 9803   0.424   1.810   4.165  0.0005  0.0001 -0.0000
 2438SOL     OW 9804   0.715   2.023   4.289 -0.1820  0.0662 -0.3042
 2438SOL    HW2 9805   0.711   2.046   4.382  1.3258 -0.6830 -0.0404
 2438SOL    HW3 9806   0.643   1.962   4.277 -0.6429  0.4860  0.2786
 2438SOL    MW4 9807   0.705   2.018   4.300  0.0005  0.0001 -0.0000
 2439SOL     OW 9808   0.686   2.274   4.141  0.0804  0.2332 -0.0045
 2439SOL    HW2 9809   0.711   2.187   4.171  0.4020  0.5742  0.7370
 2439SOL    HW3 9810   0.702   2.273   4.047 -1.9714 -1.2116 -0.3655
 2439SOL    MW4 9811   0.691   2.262   4.132  0.0005  0.0001 -0.0000
 2440SOL     OW 9812   0.464   2.415   4.167 -0.1840  0.6607 -0.0671
 2440SOL    HW2 9813   0.476   2.503   4.131  0.4584  0.7754  0.4149
 2440SOL    HW3 9814   0.548   2.372   4.153 -0.0285  0.6042  1.0167
 2440SOL    MW4 9815   0.477   2.421   4.160  0.0005  0.0001 -0.0000
 2441SOL     OW 9816   0.426   2.709   4.144 -0.2545 -0.0187 -0.2766
 2441SOL    HW2 9817   0.515   2.731   4.171 -0.1912 -0.3141 -0.2405
 2441SOL    HW3 9818   0.429   2.708   4.048 -0.4070  0.7332 -0.2922
 2441SOL    MW4 9819   0.438   2.712   4.135  0.0005  0.0001 -0.0000
 2442SOL     OW 9820   0.655   2.799   4.260  0.5550 -0.1446 -0.1858
 2442SOL    HW2 9821   0.684   2.801   4.351 -1.4754 -0.6253  0.4987
 2442SOL    HW3 9822   0.648   2.891   4.235 -0.3546  0.0199  0.6438
 2442SOL    MW4 9823   0.658   2.811   4.269  0.0005  0.0001 -0.0000
 2443SOL     OW 9824   0.663   3.052   4.144  0.5765 -0.3772 -0.1485
 2443SOL    HW2 9825   0.740   3.096   4.180  0.1506 -1.3266  1.9989
 2443SOL    HW3 9826   0.589   3.108   4.168  0.2012 -1.4345  1.2319
 2443SOL    MW4 9827   0.663   3.065   4.152  0.0005  0.0001 -0.0000
 2444SOL     OW 9828   0.471   3.224   4.245 -0.2312  0.0824 -0.1055
 2444SOL    HW2 9829   0.490   3.260   4.331  2.1493  0.4169 -0.7366
 2444SOL    HW3 9830   0.468   3.300   4.187 -0.9038 -0.2245 -0.4799
 2444SOL    MW4 9831   0.473   3.239   4.249  0.0005  0.0001 -0.0000
 2445SOL     OW 9832   0.450   3.458   4.111 -0.0420  0.1139  0.1050
 2445SOL    HW2 9833   0.520   3.502   4.159 -0.2998  0.1931  0.4127
 2445SOL    HW3 9834   0.461   3.488   4.021  0.2147  0.2596  0.1827
 2445SOL    MW4 9835   0.461   3.468   4.105  0.0005  0.0001 -0.0000
 2446SOL     OW 9836   0.682   3.628   4.260  0.0482 -0.4376 -0.2016
 2446SOL    HW2 9837   0.677   3.618   4.355 -0.7974 -1.4907 -0.3473
 2446SOL    HW3 9838   0.764   3.585   4.236 -0.5046 -1.5597 -0.1149
 2446SOL    MW4 9839   0.692   3.621   4.269  0.0005  0.0001 -0.0000
 2447SOL     OW 9840   0.714   3.884   4.113 -0.1638  0.4326 -0.3155
 2447SOL    HW2 9841   0.641   3.934   4.150 -0.3902  0.8132 -1.2724
 2447SOL    HW3 9842   0.712   3.801   4.160  0.3433  1.3908  1.4491
 2447SOL    MW4 9843   0.704   3.880   4.124  0.0005  0.0001 -0.0000
 2448SOL     OW 9844   0.510   3.998   4.250 -0.1505 -0.1386  0.3841
 2448SOL    HW2 9845   0.487   4.090   4.236 -1.2673 -0.4261  0.2516
 2448SOL    HW3 9846   0.432   3.950   4.222  0.4682 -1.1312  0.3529
 2448SOL    MW4 9847   0.497   4.004   4.244  0.0005  0.0001 -0.0000
 2449SOL     OW 9848   0.415   4.257   4.200 -0.2765 -0.2072 -0.2643
 2449SOL    HW2 9849   0.338   4.309   4.223  0.7312  0.7944  0.9029
 2449SOL    HW3 9850   0.419   4.262   4.104 -0.4910  1.4505 -0.2049
 2449SOL    MW4 9851   0.405   4.265   4.190  0.0005  0.0001 -0.0000
 2450SOL     OW 9852   0.670   4.356   4.279  0.1343 -0.4428 -0.2548
 2450SOL    HW2 9853   0.586   4.312   4.269 -0.4450  0.6970 -0.4407
 2450SOL    HW3 9854   0.653   4.447   4.256  0.7539  0.4230  2.5031
 2450SOL    MW4 9855   0.657   4.362   4.275  0.0005  0.0001 -0.0000
 2451SOL     OW 9856   1.125   0.028   4.144 -0.2363 -0.1498 -0.3997
 2451SOL    HW2 9857   1.111  -0.066   4.156  0.5435 -0.2064  0.0925
 2451SOL    HW3 9858   1.152   0.036   4.052 -1.7737 -0.2275 -0.8726
 2451SOL    MW4 9859   1.127   0.017   4.134  0.0005  0.0001 -0.0000
 2452SOL     OW 9860   0.924   0.130   4.299 -0.0829 -0.4022  0.5082
 2452SOL    HW2 9861   0.982   0.089   4.235 -1.0925 -1.7554  0.4358
 2452SOL    HW3 9862   0.846   0.075   4.299 -0.2614 -0.1867  2.6101
 2452SOL    MW4 9863   0.921   0.117   4.291  0.0005  0.0001 -0.0000
 2453SOL     OW 9864   0.904   0.382   4.176 -0.3894  0.1602  0.6094
 2453SOL    HW2 9865   0.989   0.424   4.188  0.5349 -1.2952 -0.6586
 2453SOL    HW3 9866   0.912   0.298   4.221 -1.0194 -0.1502  0.1519
 2453SOL    MW4 9867   0.916   0.376   4.184  0.0005  0.0001 -0.0000
 2454SOL     OW 9868   1.157   0.502   4.225 -0.5683  0.1933 -0.3429
 2454SOL    HW2 9869   1.177   0.509   4.318  0.1088  1.6617 -0.5851
 2454SOL    HW3 9870   1.226   0.446   4.190 -0.3383  0.3288 -0.1087
 2454SOL    MW4 9871   1.169   0.496   4.233  0.0005  0.0001 -0.0000
 2455SOL     OW 9872   1.129   0.753   4.131  0.3497  0.3381  0.0537
 2455SOL    HW2 9873   1.191   0.804   4.183  0.3284 -0.3856  0.7993
 2455SOL    HW3 9874   1.140   0.663   4.162 -0.3839  0.0566 -0.4893
 2455SOL    MW4 9875   1.139   0.748   4.142  0.0005  0.0001 -0.0000
 2456SOL     OW 9876   0.942   0.890   4.287 -0.2033 -0.5298  0.4414
 2456SOL    HW2 9877   1.006   0.841   4.236  0.1161 -0.6310  0.9360
 2456SOL    HW3 9878   0.859   0.846   4.270 -0.1558 -0.3555 -0.2564
 2456SOL    MW4 9879   0.939   0.878   4.278  0.0005  0.0001 -0.0000
 2457SOL     OW 9880   0.901   1.136   4.154  0.2260  0.2588 -0.3014
 2457SOL    HW2 9881   0.913   1.046   4.184  0.7678  0.2801 -0.4456
 2457SOL    HW3 9882   0.827   1.169   4.205  0.3048 -0.1262  0.0615
 2457SOL    MW4 9883   0.893   1.128   4.165  0.0005  0.0001 -0.0000
 2458SOL     OW 9884   1.125   1.259   4.290  0.1446 -0.5199 -0.2062
 2458SOL    HW2 9885   1.100   1.261   4.382  1.0465  2.0854  0.0222
 2458SOL    HW3 9886   1.042   1.252   4.243 -0.3157 -1.9533  0.7831
 2458SOL    MW4 9887   1.111   1.258   4.296  0.0005  0.0001 -0.0000
 2459SOL     OW 9888   1.189   1.548   4.186 -0.1191 -0.1687 -0.3890
 2459SOL    HW2 9889   1.098   1.565   4.210 -0.4437 -1.2911 -0.8019
 2459SOL    HW3 9890   1.202   1.455   4.204  0.3008 -0.5181 -2.3694
 2459SOL    MW4 9891   1.179   1.538   4.192  0.0005  0.0001 -0.0000
 2460SOL     OW 9892   0.936   1.622   4.268 -0.2390  0.4405  0.1661
 2460SOL    HW2 9893   0.918   1.620   4.362 -1.1181 -0.1765 -0.0126
 2460SOL    HW3 9894   0.934   1.715   4.246  0.8014  0.6519  0.9073
 2460SOL    MW4 9895   0.933   1.634   4.277  0.0005  0.0001 -0.0000
 2461SOL     OW 9896   0.910   1.877   4.173 -0.3606 -0.0370 -0.1073
 2461SOL    HW2 9897   0.843   1.920   4.226  0.7680  2.0862 -0.3493
 2461SOL    HW3 9898   0.898   1.913   4.085  1.6258  1.0373  0.0312
 2461SOL    MW4 9899   0.900   1.887   4.168  0.0005  0.0001 -0.0000
 2462SOL     OW 9900   1.158   2.047   4.229  0.4074  0.4110 -0.5327
 2462SOL    HW2 9901   1.149   2.060   4.323  1.0879  0.5549 -0.4848
 2462SOL    HW3 9902   1.083   1.992   4.205 -0.0814  0.8420 -0.0071
 2462SOL    MW4 9903   1.147   2.041   4.238  0.0005  0.0001 -0.0000
 2463SOL     OW 9904   1.103   2.309   4.147 -0.3789 -0.4066 -0.1774
 2463SOL    HW2 9905   1.185   2.345   4.181  0.4457 -1.3964 -1.1046
 2463SOL    HW3 9906   1.097   2.222   4.186 -1.6496  0.1533  0.9144
 2463SOL    MW4 9907   1.113   2.302   4.157  0.0005  0.0001 -0.0000
 2464SOL     OW 9908   0.886   2.458   4.234 -0.2103  0.0586  0.5457
 2464SOL    HW2 9909   0.968   2.413   4.212 -0.3330 -0.4542  1.1207
 2464SOL    HW3 9910   0.818   2.392   4.219 -0.5960  0.7167 -0.6651
 2464SOL    MW4 9911   0.888   2.443   4.229  0.0005  0.0001 -0.0000
 2465SOL     OW 9912   0.862   2.684   4.112 -0.1534 -0.5437 -0.5190
 2465SOL    HW2 9913   0.864   2.600   4.158  2.0868  0.6614  1.7060
 2465SOL    HW3 9914   0.786   2.729   4.149 -1.4023 -1.5774 -1.7670
 2465SOL    MW4 9915   0.852   2.679   4.123  0.0005  0.0001 -0.0000
 2466SOL     OW 9916   1.087   2.810   4.246 -0.0117 -0.3393  0.2828
 2466SOL    HW2 9917   1.094   2.894   4.201  0.2205  0.0220  0.9940
 2466SOL    HW3 9918   1.006   2.771   4.213 -0.9870  0.8909  1.1846
 2466SOL    MW4 9919   1.077   2.816   4.236  0.0005  0.0001 -0.0000
 2467SOL     OW 9920   1.136   3.065   4.160  0.1226 -0.1909 -0.0667
 2467SOL    HW2 9921   1.205   3.115   4.204 -0.6249  0.5346  0.2943
 2467SOL    HW3 9922   1.153   3.078   4.067 -1.1154  2.2467  0.0076
 2467SOL    MW4 9923   1.147   3.073   4.154  0.0005  0.0001 -0.0000
 2468SOL     OW 9924   0.893   3.169   4.243  0.6628  0.5219 -0.8044
 2468SOL    HW2 9925   0.886   3.123   4.326  0.0040  0.8445 -0.6786
 2468SOL    HW3 9926   0.969   3.130   4.200  0.5816 -0.1326 -0.3590
 2468SOL    MW4 9927   0.902   3.158   4.248  0.0005  0.0001 -0.0000
 2469SOL     OW 9928   0.900   3.463   4.208  0.1663 -0.2173  0.1566
 2469SOL    HW2 9929   0.905   3.369   4.224 -0.4217 -0.0962  1.1040
 2469SOL    HW3 9930   0.886   3.471   4.114  1.0725 -1.0467 -0.0549
 2469SOL    MW4 9931   0.899   3.452   4.198  0.0005  0.0001 -0.0000
 2470SOL     OW 9932   1.152   3.604   4.269 -0.3233  0.0058 -0.6961
 2470SOL    HW2 9933   1.132   3.691   4.234 -0.3450  0.4451  0.3877
 2470SOL    HW3 9934   1.068   3.559   4.272 -0.8397  1.0518  1.6893
 2470SOL    MW4 9935   1.138   3.610   4.265  0.0005  0.0001 -0.0000
 2471SOL     OW 9936   1.118   3.861   4.161 -0.3623 -0.0009  0.4009
 2471SOL    HW2 9937   1.199   3.898   4.195  0.6435 -0.0144 -1.8828
 2471SOL    HW3 9938   1.050   3.924   4.186  0.6856  1.1604  0.3641
 2471SOL    MW4 9939   1.120   3.874   4.169  0.0005  0.0001 -0.0000
 2472SOL     OW 9940   0.896   4.029   4.246  0.1400 -0.9134 -0.0460
 2472SOL    HW2 9941   0.900   4.111   4.197 -0.0417 -0.5507  0.5423
 2472SOL    HW3 9942   0.824   3.980   4.205  0.3281 -0.8332 -0.4752
 2472SOL    MW4 9943   0.887   4.033   4.234  0.0005  0.0001 -0.0000
 2473SOL     OW 9944   0.875   4.294   4.131  0.4063  0.1802 -0.0232
 2473SOL    HW2 9945   0.947   4.343   4.171  0.3467  0.2269  0.0257
 2473SOL    HW3 9946   0.798   4.318   4.182  0.1315  1.0724 -0.8326
 2473SOL    MW4 9947   0.874   4.304   4.143  0.0005  0.0001 -0.0000
 2474SOL     OW 9948   1.098   4.428   4.260 -0.6401  0.1575  0.1997
 2474SOL    HW2 9949   1.094   4.403   4.352  1.3879  0.6878  0.4550
 2474SOL    HW3 9950   1.182   4.393   4.229 -1.2414  0.0971 -1.4140
 2474SOL    MW4 9951   1.109   4.420   4.268  0.0005  0.0001 -0.0000
 2475SOL     OW 9952   1.598   4.634   4.162 -0.1000 -0.5103  0.7407
 2475SOL    HW2 9953   1.681   4.663   4.201  0.2608  2.5248 -2.0617
 2475SOL    HW3 9954   1.531   4.670   4.219  0.4721 -0.2580  1.2599
 2475SOL    MW4 9955   1.600   4.643   4.175  0.0005  0.0001 -0.0000
 2476SOL     OW 9956   1.377   0.081   4.264 -0.0667  0.3868 -0.1290
 2476SOL    HW2 9957   1.372   0.074   4.359 -0.5319  3.3400  0.1124
 2476SOL    HW3 9958   1.288   0.063   4.233 -0.1213  0.3281  0.0634
 2476SOL    MW4 9959   1.365   0.078   4.273  0.0005  0.0001 -0.0000
 2477SOL     OW 9960   1.371   0.350   4.133  0.1759  0.0565  0.2265
 2477SOL    HW2 9961   1.454   0.392   4.154  0.4366 -0.3404 -0.0014
 2477SOL    HW3 9962   1.377   0.264   4.174 -0.6774  0.5288  1.3678
 2477SOL    MW4 9963   1.383   0.344   4.141  0.0005  0.0001 -0.0000
 2478SOL     OW 9964   1.576   0.495   4.261 -0.3574  0.3216  0.0431
 2478SOL    HW2 9965   1.584   0.505   4.356 -0.4240  0.6414  0.0158
 2478SOL    HW3 9966   1.580   0.584   4.227  0.6230  0.1416 -0.3298
 2478SOL    MW4 9967   1.578   0.508   4.269  0.0005  0.0001 -0.0000
 2479SOL     OW 9968   1.572   0.757   4.167  0.5033  0.5369 -0.2566
 2479SOL    HW2 9969   1.649   0.801   4.204  1.3966 -0.8779 -0.3940
 2479SOL    HW3 9970   1.583   0.766   4.072 -0.3647  1.7642 -0.2525
 2479SOL    MW4 9971   1.584   0.764   4.159  0.0005  0.0001 -0.0000
 2480SOL     OW 9972   1.337   0.870   4.273 -0.0878 -0.3014  0.0726
 2480SOL    HW2 9973   1.363   0.962   4.267  0.6511 -0.5557 -0.6934
 2480SOL    HW3 9974   1.413   0.821   4.241  0.9282 -1.3728  3.8611
 2480SOL    MW4 9975   1.350   0.876   4.268  0.0005  0.0001 -0.0000
 2481SOL     OW 9976   1.360   1.142   4.192 -0.5029 -0.1322  0.0509
 2481SOL    HW2 9977   1.275   1.176   4.221 -0.8599  0.2217 -1.3755
 2481SOL    HW3 9978   1.360   1.154   4.097  0.9071 -0.6767 -0.0356
 2481SOL    MW4 9979   1.349   1.148   4.183  0.0005  0.0001 -0.0000
 2482SOL     OW 9980   1.558   1.312   4.253  0.0649 -0.5284  0.0588
 2482SOL    HW2 9981   1.546   1.337   4.345  2.1723  0.6216  0.0528
 2482SOL    HW3 9982   1.486   1.251   4.235  0.9399 -2.5888  3.1383
 2482SOL    MW4 9983   1.547   1.307   4.263  0.0005  0.0001 -0.0000
 2483SOL     OW 9984   1.573   1.582   4.120  0.2541  0.2027 -0.2054
 2483SOL    HW2 9985   1.501   1.621   4.170 -0.8007  1.5393 -2.6858
 2483SOL    HW3 9986   1.590   1.499   4.164 -1.2087  0.9417  1.8437
 2483SOL    MW4 9987   1.566   1.576   4.132  0.0005  0.0001 -0.0000
 2484SOL     OW 9988   1.383   1.736   4.257  0.5268 -0.1704  0.2290
 2484SOL    HW2 9989   1.381   1.807   4.193  0.2670  2.1903  2.7584
 2484SOL    HW3 9990   1.305   1.684   4.238 -0.6476  1.6703 -0.1028
 2484SOL    MW4 9991   1.372   1.739   4.246  0.0005  0.0001 -0.0000
 2485SOL     OW 9992   1.374   1.962   4.076 -0.0636  0.4830 -0.2811
 2485SOL    HW2 9993   1.448   2.014   4.106 -0.3249  0.6047  0.1551
 2485SOL    HW3 9994   1.299   1.996   4.125 -0.3035 -0.0384 -0.2824
 2485SOL    MW4 9995   1.374   1.973   4.086  0.0005  0.0001 -0.0000
 2486SOL     OW 9996   1.599   2.071   4.182 -0.4056  0.0378  0.2093
 2486SOL    HW2 9997   1.561   2.053   4.268  2.1632 -0.2391  1.3379
 2486SOL    HW3 9998   1.586   2.165   4.168 -1.2290 -0.0043  0.6910
 2486SOL    MW4 9999   1.592   2.081   4.192  0.0005  0.0001 -0.0000
 2487SOL     OW10000   1.526   2.333   4.132 -0.0018  0.1338 -0.0251
 2487SOL    HW210001   1.600   2.389   4.155  1.0934 -1.3929  0.2444
 2487SOL    HW310002   1.530   2.327   4.036 -0.1863  0.5956 -0.0629
 2487SOL    MW410003   1.536   2.340   4.122  0.0005  0.0001 -0.0000
 2488SOL     OW10004   1.319   2.446   4.254  0.1886 -0.5074 -0.7789
 2488SOL    HW210005   1.320   2.538   4.228 -0.0910 -0.2701  0.0329
 2488SOL    HW310006   1.392   2.407   4.207  0.6809  0.2626 -0.6616
 2488SOL    MW410007   1.329   2.453   4.244  0.0005  0.0001 -0.0000
 2489SOL     OW10008   1.329   2.702   4.159  0.1100 -0.3258  0.4935
 2489SOL    HW210009   1.404   2.748   4.196  0.3132  0.9377 -1.4203
 2489SOL    HW310010   1.253   2.743   4.201  0.3600  0.6748 -0.0129
 2489SOL    MW410011   1.329   2.713   4.169  0.0005  0.0001 -0.0000
 2490SOL     OW10012   1.572   2.832   4.236  0.5289 -0.2468 -0.1890
 2490SOL    HW210013   1.573   2.848   4.330 -0.1003  0.1663 -0.2496
 2490SOL    HW310014   1.587   2.918   4.197  0.5246 -0.3731 -0.4698
 2490SOL    MW410015   1.574   2.845   4.243  0.0005  0.0001 -0.0000
 2491SOL     OW10016   1.593   3.092   4.124 -0.0499  0.9861  0.2109
 2491SOL    HW210017   1.663   3.141   4.168  0.2112 -0.0033  0.9145
 2491SOL    HW310018   1.512   3.133   4.155  0.1637  0.9150  0.8721
 2491SOL    MW410019   1.592   3.104   4.134  0.0005  0.0001 -0.0000
 2492SOL     OW10020   1.361   3.215   4.245  0.2162  0.1303  0.1297
 2492SOL    HW210021   1.388   3.224   4.336 -0.7786  0.2808  0.4159
 2492SOL    HW310022   1.358   3.304   4.211  0.7763  0.0599 -0.1101
 2492SOL    MW410023   1.364   3.228   4.253  0.0005  0.0001 -0.0000
 2493SOL     OW10024   1.354   3.469   4.125  0.1582  0.4288 -0.1303
 2493SOL    HW210025   1.285   3.523   4.164 -0.6139 -0.0810 -0.7736
 2493SOL    HW310026   1.337   3.473   4.031  0.3844 -0.5402 -0.2167
 2493SOL    MW410027   1.343   3.477   4.118  0.0005  0.0001 -0.0000
 2494SOL     OW10028   1.587   3.576   4.239 -0.3718 -0.0267  0.4121
 2494SOL    HW210029   1.556   3.562   4.329 -0.2896 -0.6658  0.3431
 2494SOL    HW310030   1.515   3.545   4.184 -0.1539 -0.2490  0.2547
 2494SOL    MW410031   1.574   3.570   4.244  0.0005  0.0001 -0.0000
 2495SOL     OW10032   1.630   3.835   4.134 -0.1148 -0.1092  0.0324
 2495SOL    HW210033   1.560   3.899   4.148  0.6675  0.5777  0.8697
 2495SOL    HW310034   1.599   3.756   4.177 -0.7127 -0.0391 -0.2638
 2495SOL    MW410035   1.617   3.833   4.142  0.0005  0.0001 -0.0000
 2496SOL     OW10036   1.375   4.010   4.189  0.3301  0.0466 -0.7663
 2496SOL    HW210037   1.365   4.026   4.283 -2.5396 -1.5090 -0.7508
 2496SOL    HW310038   1.347   4.092   4.148 -0.0948  0.1352 -0.3062
 2496SOL    MW410039   1.370   4.023   4.196  0.0005  0.0001 -0.0000
 2497SOL     OW10040   1.331   4.300   4.164 -0.1333  0.3415 -0.3206
 2497SOL    HW210041   1.407   4.341   4.205 -0.4088  0.0304  0.5185
 2497SOL    HW310042   1.343   4.316   4.070  0.9883  0.2503 -0.2046
 2497SOL    MW410043   1.343   4.308   4.157  0.0005  0.0001 -0.0000
 2498SOL     OW10044   1.574   4.367   4.267 -0.1615  0.1842 -0.3820
 2498SOL    HW210045   1.608   4.447   4.226 -0.0195 -0.0441 -0.7089
 2498SOL    HW310046   1.639   4.300   4.246  0.1638  0.1734  0.6369
 2498SOL    MW410047   1.587   4.369   4.259  0.0005  0.0001 -0.0000
 2499SOL     OW10048   2.028   4.643   4.189 -0.0359 -0.3530 -0.7235
 2499SOL    HW210049   1.943   4.671   4.224  0.1449  0.8768 -1.2485
 2499SOL    HW310050   2.023   4.661   4.095  0.6834 -0.5906 -0.8124
 2499SOL    MW410051   2.016   4.649   4.181  0.0005  0.0001 -0.0000
 2500SOL     OW10052   1.801   0.085   4.280 -0.4946 -0.2351  0.4797
 2500SOL    HW210053   1.772   0.091   4.371 -1.7196  1.1430  0.0187
 2500SOL    HW310054   1.808   0.176   4.251 -0.8501 -0.6743 -1.0289
 2500SOL    MW410055   1.798   0.098   4.288  0.0005  0.0001 -0.0000
 2501SOL     OW10056   1.829   0.337   4.194 -0.3206  0.1730 -0.2178
 2501SOL    HW210057   1.903   0.391   4.224  0.9743 -1.6408 -0.0723
 2501SOL    HW310058   1.752   0.381   4.229  0.8172  1.0902  1.2027
 2501SOL    MW410059   1.829   0.350   4.203  0.0005  0.0001 -0.0000
 2502SOL     OW10060   2.037   0.500   4.259  0.1951 -0.0534 -0.2625
 2502SOL    HW210061   2.045   0.499   4.354 -0.2762  0.9347 -0.2090
 2502SOL    HW310062   2.121   0.465   4.228  0.6459  0.3342  0.4986
 2502SOL    MW410063   2.049   0.495   4.268  0.0005  0.0001 -0.0000
 2503SOL     OW10064   1.992   0.746   4.135  0.0923 -0.3193 -0.1115
 2503SOL    HW210065   2.078   0.762   4.175  0.6975 -1.4801 -0.9228
 2503SOL    HW310066   1.973   0.654   4.154 -1.3544  0.1405  0.7579
 2503SOL    MW410067   2.001   0.736   4.143  0.0005  0.0001 -0.0000
 2504SOL     OW10068   1.796   0.881   4.283 -0.3139  0.1610  0.2280
 2504SOL    HW210069   1.805   0.976   4.276  2.6051  0.0016  1.0768
 2504SOL    HW310070   1.860   0.847   4.221  0.8190 -1.2273  2.1133
 2504SOL    MW410071   1.806   0.889   4.274  0.0005  0.0001 -0.0000
 2505SOL     OW10072   1.799   1.161   4.233 -0.1803  0.4336  0.1572
 2505SOL    HW210073   1.873   1.216   4.259  0.2219  0.1813 -0.4430
 2505SOL    HW310074   1.724   1.221   4.231  0.0902  0.7802  0.3434
 2505SOL    MW410075   1.799   1.176   4.236  0.0005  0.0001 -0.0000
 2506SOL     OW10076   2.025   1.293   4.276 -0.1178  0.2020  0.2811
 2506SOL    HW210077   2.090   1.255   4.217 -0.4038  0.3325 -0.1181
 2506SOL    HW310078   2.023   1.386   4.254  0.8395  0.5264  1.5041
 2506SOL    MW410079   2.033   1.300   4.265  0.0005  0.0001 -0.0000
 2507SOL     OW10080   2.013   1.562   4.170 -0.0801 -0.0747 -0.1630
 2507SOL    HW210081   2.091   1.606   4.204  0.7043 -0.9819 -0.7486
 2507SOL    HW310082   2.038   1.533   4.082 -1.1513 -0.1906 -0.4403
 2507SOL    MW410083   2.027   1.564   4.163  0.0005  0.0001 -0.0000
 2508SOL     OW10084   1.790   1.668   4.273  0.2298 -0.3619 -0.3091
 2508SOL    HW210085   1.870   1.637   4.230  0.6126  0.3990 -0.1496
 2508SOL    HW310086   1.719   1.638   4.216  0.7824  1.4875 -2.0244
 2508SOL    MW410087   1.791   1.660   4.260  0.0005  0.0001 -0.0000
 2509SOL     OW10088   1.825   1.904   4.143 -0.1001 -0.2506 -0.1053
 2509SOL    HW210089   1.809   1.825   4.195 -1.5933 -0.1843 -0.4490
 2509SOL    HW310090   1.750   1.961   4.161  0.3019  0.5444 -0.8874
 2509SOL    MW410091   1.813   1.901   4.152  0.0005  0.0001 -0.0000
 2510SOL     OW10092   2.050   2.041   4.245  0.1123 -0.0947  0.2552
 2510SOL    HW210093   2.125   2.016   4.191  0.2738  0.6057  0.1443
 2510SOL    HW310094   1.976   1.996   4.205  0.6228 -1.5633  0.9492
 2510SOL    MW410095   2.050   2.032   4.233  0.0005  0.0001 -0.0000
 2511SOL     OW10096   2.003   2.317   4.188  0.7944 -0.6052  0.1949
 2511SOL    HW210097   2.027   2.227   4.210 -0.1551 -1.1063 -0.7881
 2511SOL    HW310098   1.996   2.318   4.093  0.0978  0.3309  0.2453
 2511SOL    MW410099   2.005   2.305   4.178  0.0005  0.0001 -0.0000
 2512SOL     OW10100   1.767   2.445   4.230 -0.0865 -0.3157 -0.0987
 2512SOL    HW210101   1.738   2.448   4.321 -0.1681  0.6665 -0.1491
 2512SOL    HW310102   1.846   2.391   4.231  0.4475  0.4606  0.7111
 2512SOL    MW410103   1.774   2.438   4.242  0.0005  0.0001 -0.0000
 2513SOL     OW10104   1.800   2.712   4.142  0.4806 -0.3511  0.1801
 2513SOL    HW210105   1.794   2.620   4.169  1.3155 -0.7710 -1.0237
 2513SOL    HW310106   1.719   2.752   4.174 -0.0673 -1.5969  0.3628
 2513SOL    MW410107   1.788   2.705   4.150  0.0005  0.0001 -0.0000
 2514SOL     OW10108   1.983   2.891   4.246  0.1944  0.1968 -0.0001
 2514SOL    HW210109   1.996   2.889   4.341 -0.9662  0.3987  0.1693
 2514SOL    HW310110   1.916   2.824   4.229  1.0215 -0.4467 -0.7829
 2514SOL    MW410111   1.976   2.882   4.256  0.0005  0.0001 -0.0000
 2515SOL     OW10112   2.036   3.115   4.090 -0.4847 -0.5649 -0.0197
 2515SOL    HW210113   2.000   3.040   4.138 -1.0361  0.4118  1.1272
 2515SOL    HW310114   2.033   3.089   3.998 -2.5857 -1.1654  0.1902
 2515SOL    MW410115   2.031   3.102   4.084  0.0005  0.0001 -0.0000
 2516SOL     OW10116   1.803   3.233   4.205 -0.3468  0.2755 -0.2326
 2516SOL    HW210117   1.810   3.320   4.167 -0.1433  0.7486  0.8673
 2516SOL    HW310118   1.875   3.183   4.165  1.2467  1.3902  1.1723
 2516SOL    MW410119   1.813   3.238   4.195  0.0005  0.0001 -0.0000
 2517SOL     OW10120   1.837   3.489   4.134  0.1277 -0.0510  0.1192
 2517SOL    HW210121   1.752   3.522   4.163 -0.1178 -1.1345  0.6451
 2517SOL    HW310122   1.830   3.486   4.039 -0.8242 -1.1840  0.2117
 2517SOL    MW410123   1.825   3.493   4.125  0.0005  0.0001 -0.0000
 2518SOL     OW10124   2.101   3.615   4.181 -0.3133 -0.3360  0.6010
 2518SOL    HW210125   2.078   3.706   4.199  0.5185 -0.3874  1.9806
 2518SOL    HW310126   2.017   3.573   4.161 -0.4307  1.2564 -2.5818
 2518SOL    MW410127   2.087   3.621   4.181  0.0005  0.0001 -0.0000
 2519SOL     OW10128   2.106   3.892   4.224 -0.3314 -0.2471 -0.1567
 2519SOL    HW210129   2.019   3.901   4.262 -0.0014  0.0832  0.5321
 2519SOL    HW310130   2.092   3.903   4.130 -1.0095 -0.0384 -0.0371
 2519SOL    MW410131   2.093   3.895   4.217  0.0005  0.0001 -0.0000
 2520SOL     OW10132   1.844   3.928   4.285  0.3021 -0.3820 -0.1374
 2520SOL    HW210133   1.799   4.003   4.247  0.9901 -0.2168 -0.6345
 2520SOL    HW310134   1.809   3.853   4.237  0.0914 -0.3171 -0.0872
 2520SOL    MW410135   1.833   3.928   4.274  0.0005  0.0001 -0.0000
 2521SOL     OW10136   1.794   4.222   4.194 -0.7265 -0.1778  0.3537
 2521SOL    HW210137   1.881   4.256   4.216  0.3486 -2.7979  0.3284
 2521SOL    HW310138   1.796   4.209   4.099 -1.3807  0.3578  0.2618
 2521SOL    MW410139   1.806   4.225   4.184  0.0005  0.0001 -0.0000
 2522SOL     OW10140   2.043   4.367   4.242  0.0340 -0.0169  0.1231
 2522SOL    HW210141   2.041   4.388   4.335 -1.8346  0.1633  0.0624
 2522SOL    HW310142   2.060   4.451   4.199  1.7447 -0.2438  0.3283
 2522SOL    MW410143   2.045   4.381   4.249  0.0005  0.0001 -0.0000
 2523SOL     OW10144   2.425   0.005   4.137 -0.2305  0.0926 -0.7040
 2523SOL    HW210145   2.501   0.048   4.177 -2.4824  1.8372  1.8734
 2523SOL    HW310146   2.430  -0.085   4.169  0.3738  0.3746  0.0248
 2523SOL    MW410147   2.436  -0.001   4.146  0.0005  0.0001 -0.0000
 2524SOL     OW10148   2.255   0.151   4.262  0.2425 -0.0660  0.0163
 2524SOL    HW210149   2.316   0.094   4.215  1.0267 -0.1083  1.0732
 2524SOL    HW310150   2.169   0.110   4.248  0.7661 -1.3899  0.5742
 2524SOL    MW410151   2.252   0.138   4.254  0.0005  0.0001 -0.0000
 2525SOL     OW10152   2.285   0.415   4.172 -0.0985 -0.2440 -0.3831
 2525SOL    HW210153   2.281   0.325   4.205  0.3973 -0.1599 -0.0903
 2525SOL    HW310154   2.274   0.406   4.077  1.3848 -0.7456 -0.5209
 2525SOL    MW410155   2.283   0.402   4.164  0.0005  0.0001 -0.0000
 2526SOL     OW10156   2.527   0.532   4.237 -0.5515  0.4680  0.0835
 2526SOL    HW210157   2.565   0.492   4.315 -0.2064  0.1125 -0.2635
 2526SOL    HW310158   2.438   0.497   4.232 -0.6928  0.7645  0.5125
 2526SOL    MW410159   2.520   0.522   4.247  0.0005  0.0001 -0.0000
 2527SOL     OW10160   2.510   0.811   4.126  0.4235 -0.7160 -0.2654
 2527SOL    HW210161   2.507   0.719   4.154  0.2619 -0.3704  0.8794
 2527SOL    HW310162   2.493   0.808   4.032  0.1980 -1.8433 -0.1966
 2527SOL    MW410163   2.507   0.799   4.117  0.0005  0.0001 -0.0000
 2528SOL     OW10164   2.243   0.877   4.208  0.1379  0.4228 -0.1840
 2528SOL    HW210165   2.237   0.888   4.303  1.3338  0.8538 -0.1542
 2528SOL    HW310166   2.336   0.861   4.191  0.0707  1.2088 -1.3671
 2528SOL    MW410167   2.254   0.876   4.218  0.0005  0.0001 -0.0000
 2529SOL     OW10168   2.205   1.148   4.115 -0.1890  0.2727 -0.0075
 2529SOL    HW210169   2.273   1.204   4.153  0.3543  0.5826 -1.4170
 2529SOL    HW310170   2.225   1.060   4.147  0.5706  0.4516  0.0042
 2529SOL    MW410171   2.217   1.144   4.124  0.0005  0.0001 -0.0000
 2530SOL     OW10172   2.428   1.292   4.248 -0.2301 -0.1779 -0.4614
 2530SOL    HW210173   2.451   1.307   4.340  0.9416 -0.0341 -0.7735
 2530SOL    HW310174   2.509   1.263   4.207 -0.8662 -0.7313 -1.3518
 2530SOL    MW410175   2.442   1.290   4.255  0.0005  0.0001 -0.0000
 2531SOL     OW10176   2.446   1.567   4.169 -0.1427 -0.0824  0.2132
 2531SOL    HW210177   2.444   1.472   4.182  0.4523 -0.1314 -0.0358
 2531SOL    HW310178   2.440   1.578   4.074 -1.1174  0.1615  0.2978
 2531SOL    MW410179   2.445   1.556   4.158  0.0005  0.0001 -0.0000
 2532SOL     OW10180   2.233   1.677   4.281  0.2097 -0.6787 -0.5020
 2532SOL    HW210181   2.244   1.702   4.373 -0.0371  1.0821 -0.9328
 2532SOL    HW310182   2.320   1.650   4.253  0.7349  0.7685 -0.3095
 2532SOL    MW410183   2.246   1.677   4.289  0.0005  0.0001 -0.0000
 2533SOL     OW10184   2.258   1.910   4.116 -0.2103 -0.3308 -0.0673
 2533SOL    HW210185   2.332   1.961   4.149  0.3367 -1.3188  0.2700
 2533SOL    HW310186   2.253   1.835   4.176  0.1180 -1.5915 -1.5898
 2533SOL    MW410187   2.267   1.907   4.128  0.0005  0.0001 -0.0000
 2534SOL     OW10188   2.445   2.076   4.251 -0.0479  0.1726 -0.4716
 2534SOL    HW210189   2.455   2.065   4.346 -1.3249  0.5289 -0.2837
 2534SOL    HW310190   2.531   2.053   4.215  0.2100 -0.7564  0.7016
 2534SOL    MW410191   2.458   2.071   4.259  0.0005  0.0001 -0.0000
 2535SOL     OW10192   2.441   2.335   4.164  0.5283 -0.0794 -0.1419
 2535SOL    HW210193   2.430   2.242   4.186  0.9376 -0.1671 -0.3012
 2535SOL    HW310194   2.449   2.336   4.069 -1.2825  0.3022 -0.3067
 2535SOL    MW410195   2.441   2.323   4.154  0.0005  0.0001 -0.0000
 2536SOL     OW10196   2.222   2.486   4.250  0.0972 -0.3135 -0.3489
 2536SOL    HW210197   2.298   2.430   4.233  1.1762  0.9808  0.1127
 2536SOL    HW310198   2.149   2.441   4.208  0.6598 -2.8031  1.2362
 2536SOL    MW410199   2.222   2.473   4.242  0.0005  0.0001 -0.0000
 2537SOL     OW10200   2.233   2.741   4.152 -0.1221  0.2088 -0.0022
 2537SOL    HW210201   2.225   2.649   4.177 -1.5486 -0.3212 -2.2590
 2537SOL    HW310202   2.162   2.785   4.198  0.1261  0.0638  0.5219
 2537SOL    MW410203   2.223   2.735   4.161  0.0005  0.0001 -0.0000
 2538SOL     OW10204   2.488   2.845   4.213 -0.0752  0.0379  0.1711
 2538SOL    HW210205   2.487   2.858   4.308  0.6652  0.6833  0.1005
 2538SOL    HW310206   2.399   2.816   4.191 -0.6001  1.0605  0.9000
 2538SOL    MW410207   2.476   2.843   4.223  0.0005  0.0001 -0.0000
 2539SOL     OW10208   2.537   3.092   4.108  0.3080 -0.3359  0.2692
 2539SOL    HW210209   2.452   3.125   4.138 -0.7922 -1.1150 -1.8836
 2539SOL    HW310210   2.539   3.001   4.136 -0.1169 -0.6677 -0.7542
 2539SOL    MW410211   2.526   3.084   4.116  0.0005  0.0001 -0.0000
 2540SOL     OW10212   2.286   3.184   4.168 -0.4710  0.0204  0.3155
 2540SOL    HW210213   2.285   3.268   4.123 -0.7574  0.1906  0.6377
 2540SOL    HW310214   2.208   3.138   4.137 -0.0384 -0.3370 -0.2535
 2540SOL    MW410215   2.276   3.189   4.158  0.0005  0.0001 -0.0000
 2541SOL     OW10216   2.307   3.471   4.073 -0.3570 -0.2466 -0.1267
 2541SOL    HW210217   2.383   3.515   4.112 -0.2764  0.0348 -0.5965
 2541SOL    HW310218   2.233   3.526   4.096 -0.6733 -1.4473  1.8450
 2541SOL    MW410219   2.307   3.484   4.081  0.0005  0.0001 -0.0000
 2542SOL     OW10220   2.507   3.600   4.215 -0.6979 -0.5072 -0.3767
 2542SOL    HW210221   2.482   3.593   4.307 -0.5210 -1.3016 -0.3842
 2542SOL    HW310222   2.500   3.693   4.195  2.3321  0.1495  1.3127
 2542SOL    MW410223   2.503   3.611   4.225  0.0005  0.0001 -0.0000
 2543SOL     OW10224   2.503   3.866   4.132 -0.0502  0.3780  0.2267
 2543SOL    HW210225   2.570   3.924   4.167 -1.2184  1.3623  0.8720
 2543SOL    HW310226   2.496   3.890   4.040  0.3180  0.4292  0.2121
 2543SOL    MW410227   2.511   3.877   4.124  0.0005  0.0001 -0.0000
 2544SOL     OW10228   2.341   4.032   4.284  0.1116 -0.0276 -0.2179
 2544SOL    HW210229   2.406   3.982   4.235  0.6182  0.4000  0.0132
 2544SOL    HW310230   2.262   3.978   4.281  1.1071 -1.6355  1.4395
 2544SOL    MW410231   2.339   4.018   4.277  0.0005  0.0001 -0.0000
 2545SOL     OW10232   2.271   4.256   4.143 -0.3982 -0.4233 -0.7748
 2545SOL    HW210233   2.303   4.181   4.193 -0.3653  0.5874  0.7301
 2545SOL    HW310234   2.178   4.262   4.165 -0.7088 -0.8291 -1.9351
 2545SOL    MW410235   2.263   4.247   4.153  0.0005  0.0001 -0.0000
 2546SOL     OW10236   2.450   4.429   4.272  1.1944  0.3371 -0.1291
 2546SOL    HW210237   2.538   4.399   4.249  0.6949 -0.1755 -1.4454
 2546SOL    HW310238   2.392   4.368   4.226  0.1450  0.0162  1.5889
 2546SOL    MW410239   2.454   4.417   4.263  0.0005  0.0001 -0.0000
 2547SOL     OW10240   2.914   0.038   4.144 -0.2664 -0.3603 -0.6236
 2547SOL    HW210241   2.984   0.090   4.183  0.0147 -0.7997 -0.5310
 2547SOL    HW310242   2.937  -0.052   4.166 -0.0282 -0.6228 -1.9171
 2547SOL    MW410243   2.926   0.033   4.152  0.0005  0.0001 -0.0000
 2548SOL     OW10244   2.667   0.172   4.222  0.3911 -0.2038 -0.1943
 2548SOL    HW210245   2.673   0.263   4.192  1.2919  0.2087  1.1688
 2548SOL    HW310246   2.754   0.136   4.205 -0.7836 -1.6954 -3.3815
 2548SOL    MW410247   2.679   0.179   4.216  0.0005  0.0001 -0.0000
 2549SOL     OW10248   2.718   0.416   4.094 -0.1570 -0.2651 -0.0349
 2549SOL    HW210249   2.648   0.459   4.143 -0.4833 -0.0944 -0.6506
 2549SOL    HW310250   2.691   0.422   4.002  1.4394  1.2495 -0.4344
 2549SOL    MW410251   2.705   0.422   4.088  0.0005  0.0001 -0.0000
 2550SOL     OW10252   2.955   0.528   4.201 -0.1369  0.1474  0.1859
 2550SOL    HW210253   2.957   0.620   4.176 -1.0167  0.2848  0.6057
 2550SOL    HW310254   2.884   0.491   4.149  1.4062 -0.7106 -1.3625
 2550SOL    MW410255   2.946   0.535   4.191  0.0005  0.0001 -0.0000
 2551SOL     OW10256   2.936   0.789   4.146  0.1045  0.1647  0.1930
 2551SOL    HW210257   3.025   0.821   4.161  0.0022 -0.4361  2.2637
 2551SOL    HW310258   2.928   0.783   4.051  1.6424  1.9819 -0.0779
 2551SOL    MW410259   2.947   0.792   4.135  0.0005  0.0001 -0.0000
 2552SOL     OW10260   2.713   0.954   4.231 -0.1075 -0.0747 -0.1515
 2552SOL    HW210261   2.795   0.906   4.219 -0.1210 -0.3760  0.8820
 2552SOL    HW310262   2.645   0.894   4.201  0.0875  0.4248 -1.6316
 2552SOL    MW410263   2.715   0.940   4.225  0.0005  0.0001 -0.0000
 2553SOL     OW10264   2.670   1.214   4.152 -0.1911 -0.3067  0.0589
 2553SOL    HW210265   2.653   1.124   4.181  0.5080 -0.2175  0.7778
 2553SOL    HW310266   2.681   1.207   4.057 -2.4526 -0.6191 -0.2095
 2553SOL    MW410267   2.669   1.201   4.143  0.0005  0.0001 -0.0000
 2554SOL     OW10268   2.931   1.328   4.196  0.2372  0.1358  0.3673
 2554SOL    HW210269   2.995   1.259   4.176  0.8826  0.8756 -0.1473
 2554SOL    HW310270   2.846   1.286   4.185  0.5887  0.0099 -2.1557
 2554SOL    MW410271   2.928   1.313   4.192  0.0005  0.0001 -0.0000
 2555SOL     OW10272   2.932   1.596   4.138  0.4654 -0.0386 -0.0782
 2555SOL    HW210273   3.012   1.642   4.162  0.9104  0.4270 -2.3407
 2555SOL    HW310274   2.949   1.505   4.161  1.0509  0.3013  0.8634
 2555SOL    MW410275   2.945   1.590   4.144  0.0005  0.0001 -0.0000
 2556SOL     OW10276   2.690   1.695   4.227 -0.2788 -0.0373  0.4865
 2556SOL    HW210277   2.758   1.633   4.200  0.5585  0.8786  0.4592
 2556SOL    HW310278   2.608   1.646   4.219  0.2670 -0.7928 -0.5958
 2556SOL    MW410279   2.688   1.680   4.222  0.0005  0.0001 -0.0000
 2557SOL     OW10280   2.693   1.968   4.131 -0.8801 -0.5840  0.0128
 2557SOL    HW210281   2.684   1.884   4.176  0.3002 -0.9274 -0.3753
 2557SOL    HW310282   2.691   1.946   4.038 -0.7114 -0.1666 -0.0914
 2557SOL    MW410283   2.692   1.954   4.125  0.0005  0.0001 -0.0000
 2558SOL     OW10284   2.928   2.076   4.249  0.1041 -0.0648  0.0487
 2558SOL    HW210285   2.944   2.158   4.202  1.7313 -0.5907 -0.3369
 2558SOL    HW310286   2.852   2.038   4.204 -0.2820  0.9276 -0.1601
 2558SOL    MW410287   2.920   2.082   4.237  0.0005  0.0001 -0.0000
 2559SOL     OW10288   2.945   2.318   4.134 -0.2025  0.5635  0.3239
 2559SOL    HW210289   2.996   2.383   4.182 -0.0281  0.7778 -0.1481
 2559SOL    HW310290   2.854   2.342   4.150 -0.1882 -0.4295  2.0135
 2559SOL    MW410291   2.940   2.330   4.142  0.0005  0.0001 -0.0000
 2560SOL     OW10292   2.697   2.445   4.201  0.1209  0.1082 -0.2307
 2560SOL    HW210293   2.724   2.455   4.292 -1.4113  1.7166  0.0727
 2560SOL    HW310294   2.609   2.408   4.206  0.0085  0.2577 -1.0541
 2560SOL    MW410295   2.689   2.441   4.214  0.0005  0.0001 -0.0000
 2561SOL     OW10296   2.693   2.703   4.088  0.3593  0.5065 -0.4377
 2561SOL    HW210297   2.699   2.619   4.134  0.5350  0.5211 -0.4343
 2561SOL    HW310298   2.623   2.750   4.134 -1.4049 -0.5762 -1.9429
 2561SOL    MW410299   2.685   2.698   4.100  0.0005  0.0001 -0.0000
 2562SOL     OW10300   2.876   2.847   4.231 -0.0934  0.0131 -0.0563
 2562SOL    HW210301   2.863   2.825   4.323 -0.0454  1.5439  0.3312
 2562SOL    HW310302   2.809   2.796   4.184  1.1313 -2.2744  0.6060
 2562SOL    MW410303   2.865   2.837   4.237  0.0005  0.0001 -0.0000
 2563SOL     OW10304   2.936   3.107   4.148  0.4363  0.4176 -0.4073
 2563SOL    HW210305   2.904   3.018   4.165  1.2311  0.1307 -0.3923
 2563SOL    HW310306   2.944   3.112   4.053 -0.4843  0.7853 -0.4710
 2563SOL    MW410307   2.933   3.096   4.138  0.0005  0.0001 -0.0000
 2564SOL     OW10308   2.726   3.211   4.296  0.0740  0.0097 -0.2790
 2564SOL    HW210309   2.807   3.179   4.255 -0.3652 -1.0052 -0.3701
 2564SOL    HW310310   2.657   3.186   4.235 -0.3741  0.3369  0.0916
 2564SOL    MW410311   2.728   3.203   4.283  0.0005  0.0001 -0.0000
 2565SOL     OW10312   2.766   3.470   4.147 -0.1214  0.2558  0.0090
 2565SOL    HW210313   2.767   3.394   4.205  1.0870  0.2110 -0.0529
 2565SOL    HW310314   2.684   3.516   4.168 -0.0152 -0.1188  1.2706
 2565SOL    MW410315   2.755   3.466   4.157  0.0005  0.0001 -0.0000
 2566SOL     OW10316   2.939   3.666   4.235  0.2933 -0.2701  0.0421
 2566SOL    HW210317   2.921   3.675   4.329  0.3239  0.7759 -0.0469
 2566SOL    HW310318   2.880   3.596   4.206 -0.7773  0.4070  0.5505
 2566SOL    MW410319   2.929   3.658   4.244  0.0005  0.0001 -0.0000
 2567SOL     OW10320   2.949   3.917   4.114 -0.2702 -0.1890 -0.1740
 2567SOL    HW210321   3.029   3.946   4.157 -0.8695 -1.0070  1.5439
 2567SOL    HW310322   2.938   3.827   4.143 -0.4894 -0.9021 -2.3858
 2567SOL    MW410323   2.958   3.909   4.124  0.0005  0.0001 -0.0000
 2568SOL     OW10324   2.728   4.027   4.233 -0.4753 -0.0952  0.6197
 2568SOL    HW210325   2.735   4.122   4.238 -0.1220 -0.0003 -1.3304
 2568SOL    HW310326   2.814   3.998   4.203 -1.0022 -0.9093 -0.1319
 2568SOL    MW410327   2.740   4.036   4.230  0.0005  0.0001 -0.0000
 2569SOL     OW10328   2.696   4.298   4.196 -0.5166  0.0986 -0.2749
 2569SOL    HW210329   2.787   4.324   4.208 -1.0415  1.8057  0.1491
 2569SOL    HW310330   2.689   4.277   4.103  0.5117 -0.8943 -0.1394
 2569SOL    MW410331   2.707   4.299   4.185  0.0005  0.0001 -0.0000
 2570SOL     OW10332   2.957   4.431   4.249  0.2530  0.3435  0.1413
 2570SOL    HW210333   2.950   4.436   4.344 -0.2498 -0.8533  0.1744
 2570SOL    HW310334   3.030   4.372   4.233 -0.3068 -0.2620 -0.2105
 2570SOL    MW410335   2.966   4.424   4.259  0.0005  0.0001 -0.0000
 2571SOL     OW10336   3.387   0.032   4.212  0.1217 -0.3056  0.5603
 2571SOL    HW210337   3.471   0.061   4.246  0.4223 -1.2598  0.6550
 2571SOL    HW310338   3.393  -0.064   4.213 -0.8137 -0.3707  0.1989
 2571SOL    MW410339   3.399   0.023   4.217  0.0005  0.0001 -0.0000
 2572SOL     OW10340   3.142   0.167   4.235 -0.4472  0.0685 -0.2501
 2572SOL    HW210341   3.131   0.179   4.329 -0.8981  1.4625 -0.4731
 2572SOL    HW310342   3.228   0.125   4.227 -1.5296 -2.4948  0.9225
 2572SOL    MW410343   3.152   0.163   4.246  0.0005  0.0001 -0.0000
 2573SOL     OW10344   3.193   0.416   4.122 -0.6138  0.0812 -0.2571
 2573SOL    HW210345   3.178   0.333   4.167  1.2260  0.3653  0.9357
 2573SOL    HW310346   3.114   0.468   4.140 -0.6870 -0.4847  1.1118
 2573SOL    MW410347   3.181   0.412   4.130  0.0005  0.0001 -0.0000
 2574SOL     OW10348   3.419   0.587   4.192  0.1964 -0.0132 -0.3040
 2574SOL    HW210349   3.495   0.530   4.180 -0.8166 -1.9516  2.0228
 2574SOL    HW310350   3.345   0.533   4.165 -0.6558  0.6785  0.6282
 2574SOL    MW410351   3.419   0.572   4.187  0.0005  0.0001 -0.0000
 2575SOL     OW10352   3.400   0.842   4.066 -0.1098 -0.0852  0.2892
 2575SOL    HW210353   3.323   0.877   4.112  0.1823  0.3819  0.4266
 2575SOL    HW310354   3.416   0.757   4.107 -0.8122 -0.3758 -0.0320
 2575SOL    MW410355   3.392   0.835   4.077  0.0005  0.0001 -0.0000
 2576SOL     OW10356   3.185   0.916   4.213 -0.6415 -0.4549  0.2720
 2576SOL    HW210357   3.179   0.916   4.309  0.5013  0.7653  0.3550
 2576SOL    HW310358   3.149   1.000   4.186  0.1473 -0.2887 -0.2893
 2576SOL    MW410359   3.179   0.927   4.222  0.0005  0.0001 -0.0000
 2577SOL     OW10360   3.139   1.156   4.098 -0.1681 -0.4407  0.1933
 2577SOL    HW210361   3.216   1.196   4.137 -1.2205  2.0666 -0.2023
 2577SOL    HW310362   3.154   1.163   4.004 -0.3310 -1.0594  0.1202
 2577SOL    MW410363   3.151   1.162   4.091  0.0005  0.0001 -0.0000
 2578SOL     OW10364   3.388   1.271   4.239  0.4090  0.1176 -0.2815
 2578SOL    HW210365   3.399   1.280   4.334 -0.3142  1.0100 -0.2743
 2578SOL    HW310366   3.382   1.361   4.207  0.9795 -0.1712 -1.2192
 2578SOL    MW410367   3.389   1.284   4.247  0.0005  0.0001 -0.0000
 2579SOL     OW10368   3.402   1.544   4.141  0.0933 -0.0843  0.2280
 2579SOL    HW210369   3.326   1.602   4.146  0.4617  0.2878  1.6720
 2579SOL    HW310370   3.421   1.539   4.047 -0.8411  0.9558 -0.0359
 2579SOL    MW410371   3.394   1.551   4.129  0.0005  0.0001 -0.0000
 2580SOL     OW10372   3.178   1.695   4.203 -0.4282  0.3640 -0.1033
 2580SOL    HW210373   3.192   1.709   4.297  0.0015  0.2880 -0.1555
 2580SOL    HW310374   3.144   1.779   4.171  0.7304  0.8306 -0.1349
 2580SOL    MW410375   3.175   1.708   4.211  0.0005  0.0001 -0.0000
 2581SOL     OW10376   3.125   1.946   4.094  0.1529  0.5612 -0.0790
 2581SOL    HW210377   3.203   1.989   4.129  0.3642  0.8452 -0.8935
 2581SOL    HW310378   3.054   1.979   4.148  0.8311 -1.2496  1.9927
 2581SOL    MW410379   3.126   1.956   4.106  0.0005  0.0001 -0.0000
 2582SOL     OW10380   3.328   2.036   4.259  0.5022 -0.7052  0.2293
 2582SOL    HW210381   3.400   1.995   4.211  0.3115 -1.4010  0.5246
 2582SOL    HW310382   3.325   2.126   4.227 -0.2761 -1.4311 -1.8120
 2582SOL    MW410383   3.337   2.042   4.248  0.0005  0.0001 -0.0000
 2583SOL     OW10384   3.362   2.313   4.177 -0.4121 -0.0675  0.1558
 2583SOL    HW210385   3.447   2.352   4.198 -0.1580 -0.7403  0.4027
 2583SOL    HW310386   3.360   2.310   4.081  0.2740 -0.9659  0.1631
 2583SOL    MW410387   3.373   2.318   4.167  0.0005  0.0001 -0.0000
 2584SOL     OW10388   3.158   2.487   4.254  0.2282 -0.2467  0.1770
 2584SOL    HW210389   3.143   2.575   4.219  1.2364  0.1690  0.7710
 2584SOL    HW310390   3.234   2.454   4.206 -0.6696 -1.1422 -0.6554
 2584SOL    MW410391   3.166   2.494   4.243  0.0005  0.0001 -0.0000
 2585SOL     OW10392   3.110   2.731   4.125 -0.3005 -0.5545  0.0937
 2585SOL    HW210393   3.183   2.770   4.174 -0.0885 -1.6946  0.6978
 2585SOL    HW310394   3.033   2.780   4.153  0.1754  0.4098 -0.2695
 2585SOL    MW410395   3.109   2.743   4.135  0.0005  0.0001 -0.0000
 2586SOL     OW10396   3.349   2.840   4.211 -0.1269  0.0229  0.3520
 2586SOL    HW210397   3.429   2.800   4.178  0.2278  1.1591 -0.1864
 2586SOL    HW310398   3.359   2.933   4.192 -1.7951  0.1116 -0.1802
 2586SOL    MW410399   3.361   2.847   4.204  0.0005  0.0001 -0.0000
 2587SOL     OW10400   3.382   3.106   4.145 -0.6999  0.5409  0.2569
 2587SOL    HW210401   3.312   3.157   4.186 -1.5536 -0.1561 -0.3304
 2587SOL    HW310402   3.364   3.112   4.051  0.1080  0.4731  0.0961
 2587SOL    MW410403   3.370   3.113   4.138  0.0005  0.0001 -0.0000
 2588SOL     OW10404   3.159   3.229   4.270  0.2597  0.1862 -0.2840
 2588SOL    HW210405   3.141   3.321   4.251 -0.6079  0.2805  0.9353
 2588SOL    HW310406   3.089   3.181   4.225  0.0835  0.1966 -0.0217
 2588SOL    MW410407   3.147   3.235   4.262  0.0005  0.0001 -0.0000
 2589SOL     OW10408   3.152   3.511   4.184  0.1368  0.2802 -0.0210
 2589SOL    HW210409   3.080   3.567   4.214 -1.8590 -2.0066 -0.3856
 2589SOL    HW310410   3.156   3.526   4.090 -0.0769  0.1762 -0.0473
 2589SOL    MW410411   3.143   3.520   4.176  0.0005  0.0001 -0.0000
 2590SOL     OW10412   3.376   3.677   4.262  0.2585 -0.1388  0.2839
 2590SOL    HW210413   3.381   3.691   4.357 -0.0056  1.7260  0.0390
 2590SOL    HW310414   3.296   3.626   4.250  0.6986 -1.0561  1.1169
 2590SOL    MW410415   3.366   3.672   4.273  0.0005  0.0001 -0.0000
 2591SOL     OW10416   3.403   3.923   4.137  0.1233  0.0162 -0.5041
 2591SOL    HW210417   3.389   3.833   4.166 -0.5776 -0.1399 -1.3097
 2591SOL    HW310418   3.419   3.916   4.043 -0.6185  0.7927 -0.6958
 2591SOL    MW410419   3.403   3.910   4.128  0.0005  0.0001 -0.0000
 2592SOL     OW10420   3.160   4.021   4.249 -0.4524 -0.0942 -0.1423
 2592SOL    HW210421   3.142   3.982   4.335 -0.7479 -0.3371 -0.3125
 2592SOL    HW310422   3.243   3.982   4.221 -0.5692 -0.3312 -0.1551
 2592SOL    MW410423   3.169   4.011   4.257  0.0005  0.0001 -0.0000
 2593SOL     OW10424   3.141   4.273   4.142 -0.0271  0.2620  0.1318
 2593SOL    HW210425   3.217   4.329   4.155  0.9409 -0.7464 -1.0579
 2593SOL    HW310426   3.167   4.188   4.178 -0.6566 -0.0366 -0.1080
 2593SOL    MW410427   3.154   4.269   4.148  0.0005  0.0001 -0.0000
 2594SOL     OW10428   3.378   4.415   4.215  0.5972  0.5743  0.1157
 2594SOL    HW210429   3.391   4.392   4.307 -1.2784 -0.4908  0.1360
 2594SOL    HW310430   3.446   4.365   4.169  0.7100  0.0863  0.7961
 2594SOL    MW410431   3.389   4.405   4.221  0.0005  0.0001 -0.0000
 2595SOL     OW10432   3.850   0.004   4.156  0.1184 -0.0151 -0.0868
 2595SOL    HW210433   3.929   0.053   4.177 -0.1294 -0.0181  0.8717
 2595SOL    HW310434   3.834   0.023   4.063  0.9028  0.4565 -0.1307
 2595SOL    MW410435   3.858   0.013   4.147  0.0005  0.0001 -0.0000
 2596SOL     OW10436   3.641   0.136   4.258 -0.2427 -0.2718 -0.0006
 2596SOL    HW210437   3.649   0.226   4.227  0.6129  0.0278  1.0677
 2596SOL    HW310438   3.712   0.089   4.213 -0.4001 -0.3157 -0.2039
 2596SOL    MW410439   3.651   0.142   4.248  0.0005  0.0001 -0.0000
 2597SOL     OW10440   3.625   0.415   4.155  0.3314  0.0545  0.1009
 2597SOL    HW210441   3.704   0.455   4.191 -0.2232  0.3316  1.0280
 2597SOL    HW310442   3.629   0.434   4.061  0.2717  1.9619  0.4639
 2597SOL    MW410443   3.636   0.423   4.147  0.0005  0.0001 -0.0000
 2598SOL     OW10444   3.855   0.488   4.270 -0.5555  0.2048 -0.0119
 2598SOL    HW210445   3.851   0.494   4.365  0.8579 -1.0989  0.1547
 2598SOL    HW310446   3.835   0.576   4.239 -2.4525  0.3087  1.4317
 2598SOL    MW410447   3.852   0.500   4.278  0.0005  0.0001 -0.0000
 2599SOL     OW10448   3.796   0.725   4.142  0.0179  0.0517 -0.4609
 2599SOL    HW210449   3.730   0.791   4.165 -0.5834 -1.3555  2.0563
 2599SOL    HW310450   3.799   0.726   4.046 -3.7467  0.0914 -0.6494
 2599SOL    MW410451   3.788   0.734   4.132  0.0005  0.0001 -0.0000
 2600SOL     OW10452   3.624   0.940   4.216  0.2714  0.1029  0.1981
 2600SOL    HW210453   3.625   1.031   4.188 -0.2983  0.6099  1.7648
 2600SOL    HW310454   3.547   0.902   4.174  1.1153  0.0435 -1.3270
 2600SOL    MW410455   3.614   0.947   4.207  0.0005  0.0001 -0.0000
 2601SOL     OW10456   3.648   1.210   4.163 -0.4663 -0.1540  0.0141
 2601SOL    HW210457   3.559   1.232   4.191 -0.6046  0.9928 -1.2677
 2601SOL    HW310458   3.644   1.212   4.067  1.3519  1.6714 -0.0567
 2601SOL    MW410459   3.636   1.213   4.154  0.0005  0.0001 -0.0000
 2602SOL     OW10460   3.876   1.346   4.239 -0.8199  0.0477  0.0859
 2602SOL    HW210461   3.789   1.315   4.214 -0.6143  0.1606 -0.7860
 2602SOL    HW310462   3.888   1.427   4.189 -0.3221  0.1800  0.4142
 2602SOL    MW410463   3.866   1.353   4.229  0.0005  0.0001 -0.0000
 2603SOL     OW10464   3.892   1.587   4.106 -0.2511  0.5097  0.2446
 2603SOL    HW210465   3.961   1.640   4.146  0.6579 -0.7703  0.4025
 2603SOL    HW310466   3.812   1.614   4.151  0.0886  2.2096 -0.1354
 2603SOL    MW410467   3.891   1.598   4.117  0.0005  0.0001 -0.0000
 2604SOL     OW10468   3.631   1.665   4.228 -0.1146 -0.4765 -0.0431
 2604SOL    HW210469   3.552   1.620   4.198  1.5200 -2.2383 -1.8619
 2604SOL    HW310470   3.637   1.644   4.321 -0.8126 -1.8455 -0.2959
 2604SOL    MW410471   3.621   1.656   4.236  0.0005  0.0001 -0.0000
 2605SOL     OW10472   3.564   1.932   4.163  0.3559 -0.1798 -0.0213
 2605SOL    HW210473   3.572   1.840   4.189 -0.1703 -0.1533  0.2459
 2605SOL    HW310474   3.591   1.934   4.071 -0.5513 -0.7666 -0.3088
 2605SOL    MW410475   3.569   1.920   4.154  0.0005  0.0001 -0.0000
 2606SOL     OW10476   3.684   2.106   4.323 -0.1575 -0.0036 -0.4542
 2606SOL    HW210477   3.757   2.059   4.363  0.5232 -0.4252 -2.1496
 2606SOL    HW310478   3.647   2.044   4.260 -0.5457  1.0043 -1.2334
 2606SOL    MW410479   3.689   2.092   4.320  0.0005  0.0001 -0.0000
 2607SOL     OW10480   3.802   2.325   4.176  0.3032 -0.1773  0.2698
 2607SOL    HW210481   3.779   2.239   4.212 -0.4256  0.4122  1.2338
 2607SOL    HW310482   3.805   2.311   4.081  0.2545 -1.2806  0.4227
 2607SOL    MW410483   3.799   2.312   4.168  0.0005  0.0001 -0.0000
 2608SOL     OW10484   3.569   2.474   4.216  0.4430 -0.3084  0.3071
 2608SOL    HW210485   3.571   2.508   4.305 -1.2535  0.0346  0.2296
 2608SOL    HW310486   3.658   2.443   4.200  1.0202  0.5715  1.7474
 2608SOL    MW410487   3.581   2.474   4.226  0.0005  0.0001 -0.0000
 2609SOL     OW10488   3.582   2.731   4.122 -0.3068  0.0172  0.1198
 2609SOL    HW210489   3.568   2.637   4.127  0.0320  0.0074  0.9286
 2609SOL    HW310490   3.587   2.749   4.028 -0.5792 -0.7361 -0.0453
 2609SOL    MW410491   3.581   2.721   4.110  0.0005  0.0001 -0.0000
 2610SOL     OW10492   3.814   2.845   4.236  0.1863  0.3417  0.2341
 2610SOL    HW210493   3.799   2.891   4.318 -0.4563 -0.2042  0.4267
 2610SOL    HW310494   3.726   2.823   4.204  0.4548  0.0030 -0.2810
 2610SOL    MW410495   3.800   2.848   4.243  0.0005  0.0001 -0.0000
 2611SOL     OW10496   3.811   3.112   4.154  0.0990  0.0325 -0.2008
 2611SOL    HW210497   3.831   3.021   4.178  2.0541  0.2927 -0.7516
 2611SOL    HW310498   3.812   3.112   4.058  1.2266  0.8576 -0.1984
 2611SOL    MW410499   3.814   3.100   4.145  0.0005  0.0001 -0.0000
 2612SOL     OW10500   3.586   3.257   4.260  0.5437  0.1895  0.5471
 2612SOL    HW210501   3.660   3.206   4.227 -0.2280 -0.1369 -0.7158
 2612SOL    HW310502   3.509   3.214   4.223 -0.0779  2.9427 -1.5215
 2612SOL    MW410503   3.586   3.245   4.251  0.0005  0.0001 -0.0000
 2613SOL     OW10504   3.596   3.525   4.156  0.3317 -0.3805  0.8486
 2613SOL    HW210505   3.593   3.438   4.195  0.8085 -0.3583  0.9411
 2613SOL    HW310506   3.535   3.577   4.208  0.4051 -0.5379  1.0936
 2613SOL    MW410507   3.588   3.520   4.168  0.0005  0.0001 -0.0000
 2614SOL     OW10508   3.824   3.645   4.257  0.2438  0.0053  0.4838
 2614SOL    HW210509   3.896   3.588   4.232 -0.2912 -0.8789  0.9351
 2614SOL    HW310510   3.750   3.614   4.206 -0.2349 -0.1942  1.2892
 2614SOL    MW410511   3.824   3.633   4.247  0.0005  0.0001 -0.0000
 2615SOL     OW10512   3.866   3.901   4.157 -0.1364 -0.3319  0.0329
 2615SOL    HW210513   3.786   3.947   4.181  0.0135 -0.0525  0.0030
 2615SOL    HW310514   3.849   3.809   4.179 -0.4956 -0.2871 -0.0579
 2615SOL    MW410515   3.853   3.895   4.163  0.0005  0.0001 -0.0000
 2616SOL     OW10516   3.648   4.030   4.243 -0.5373  0.1677  0.0666
 2616SOL    HW210517   3.618   4.040   4.333 -1.5454 -2.0567  0.0174
 2616SOL    HW310518   3.569   4.007   4.194  0.3630 -0.7502 -0.9909
 2616SOL    MW410519   3.634   4.028   4.248  0.0005  0.0001 -0.0000
 2617SOL     OW10520   3.608   4.285   4.142  0.1509 -0.1434 -0.2020
 2617SOL    HW210521   3.672   4.341   4.187 -0.6184 -0.3093  1.1253
 2617SOL    HW310522   3.631   4.196   4.169  0.8327 -0.4126 -1.6249
 2617SOL    MW410523   3.619   4.281   4.151  0.0005  0.0001 -0.0000
 2618SOL     OW10524   3.848   4.417   4.252  0.1230  0.2454  0.2633
 2618SOL    HW210525   3.922   4.362   4.228  0.4400 -0.1202  2.0330
 2618SOL    HW310526   3.868   4.502   4.213  0.9550 -0.1414 -0.1658
 2618SOL    MW410527   3.860   4.421   4.244  0.0005  0.0001 -0.0000
 2619SOL     OW10528   4.317   0.015   4.172 -0.3892  0.6559  0.3834
 2619SOL    HW210529   4.330  -0.078   4.193 -1.0711  0.7427  1.2159
 2619SOL    HW310530   4.390   0.059   4.216 -0.6607  0.6214  0.8740
 2619SOL    MW410531   4.328   0.009   4.181  0.0005  0.0001 -0.0000
 2620SOL     OW10532   4.090   0.109   4.285 -0.2035 -0.4682 -0.6484
 2620SOL    HW210533   4.097   0.200   4.256  0.3778 -0.7717 -1.4580
 2620SOL    HW310534   4.161   0.063   4.240  0.7858 -0.9290  1.3198
 2620SOL    MW410535   4.100   0.115   4.275  0.0005  0.0001 -0.0000
 2621SOL     OW10536   4.085   0.375   4.176 -0.3642 -0.3010  0.4015
 2621SOL    HW210537   4.150   0.431   4.219 -1.0482  0.4546  0.4664
 2621SOL    HW310538   4.001   0.412   4.202 -0.8633 -2.1349  1.4835
 2621SOL    MW410539   4.082   0.387   4.185  0.0005  0.0001 -0.0000
 2622SOL     OW10540   4.286   0.535   4.298  0.0327  0.1067  0.3612
 2622SOL    HW210541   4.297   0.619   4.254  1.6389 -0.2983 -0.0344
 2622SOL    HW310542   4.362   0.483   4.271 -0.9056 -1.4544  0.6469
 2622SOL    MW410543   4.297   0.539   4.289  0.0005  0.0001 -0.0000
 2623SOL     OW10544   4.290   0.788   4.168  0.2120 -0.0234  0.1618
 2623SOL    HW210545   4.200   0.801   4.198  0.2305  1.3482 -0.3407
 2623SOL    HW310546   4.281   0.761   4.077  0.3238  0.7264 -0.0748
 2623SOL    MW410547   4.277   0.786   4.160  0.0005  0.0001 -0.0000
 2624SOL     OW10548   4.022   0.860   4.226  0.0120  0.1389 -0.2834
 2624SOL    HW210549   4.004   0.950   4.198 -0.6390  0.2703  0.5355
 2624SOL    HW310550   3.950   0.809   4.189 -0.6375  0.2524  0.8022
 2624SOL    MW410551   4.010   0.865   4.217  0.0005  0.0001 -0.0000
 2625SOL     OW10552   4.014   1.126   4.155 -0.3040  0.0828 -0.3461
 2625SOL    HW210553   4.094   1.174   4.176 -0.4653  0.2785 -0.1767
 2625SOL    HW310554   3.943   1.182   4.187 -0.5347  0.1896 -1.0355
 2625SOL    MW410555   4.015   1.140   4.162  0.0005  0.0001 -0.0000
 2626SOL     OW10556   4.283   1.261   4.192  0.0482 -0.2139  0.2228
 2626SOL    HW210557   4.269   1.249   4.286  1.0849  1.0493  0.5544
 2626SOL    HW310558   4.366   1.216   4.175 -0.7243 -1.4552 -0.3282
 2626SOL    MW410559   4.292   1.254   4.202  0.0005  0.0001 -0.0000
 2627SOL     OW10560   4.285   1.536   4.131 -0.2383 -0.1509  0.3955
 2627SOL    HW210561   4.282   1.444   4.158 -0.9636  0.3283  1.9944
 2627SOL    HW310562   4.266   1.534   4.037  0.7972 -1.7167  0.1996
 2627SOL    MW410563   4.282   1.524   4.122  0.0005  0.0001 -0.0000
 2628SOL     OW10564   4.112   1.726   4.227 -0.1351 -0.4444  0.1078
 2628SOL    HW210565   4.126   1.718   4.321  0.6456  0.6811  0.0980
 2628SOL    HW310566   4.176   1.667   4.187  0.1562 -0.2297  0.2574
 2628SOL    MW410567   4.122   1.717   4.234  0.0005  0.0001 -0.0000
 2629SOL     OW10568   4.024   1.974   4.141  0.5320  0.0856 -0.1816
 2629SOL    HW210569   4.052   1.883   4.152 -1.6969 -0.6383 -0.2384
 2629SOL    HW310570   3.973   1.993   4.220 -0.9506  0.5177 -1.2215
 2629SOL    MW410571   4.021   1.965   4.153  0.0005  0.0001 -0.0000
 2630SOL     OW10572   4.465   1.954   4.106 -0.0103 -0.0914 -0.2678
 2630SOL    HW210573   4.550   1.987   4.134 -0.2564 -0.3166  0.7715
 2630SOL    HW310574   4.402   2.011   4.149 -0.3979 -0.3976 -0.4253
 2630SOL    MW410575   4.468   1.966   4.115  0.0005  0.0001 -0.0000
 2631SOL     OW10576   4.238   2.353   4.130  0.2809  0.0232  0.4653
 2631SOL    HW210577   4.160   2.391   4.170  0.1395  0.9509 -0.6507
 2631SOL    HW310578   4.241   2.263   4.162 -0.4776  0.3972  1.6004
 2631SOL    MW410579   4.228   2.346   4.140  0.0005  0.0001 -0.0000
 2632SOL     OW10580   4.023   2.449   4.285 -0.3440 -0.2922 -0.1158
 2632SOL    HW210581   4.038   2.399   4.365  0.4247 -0.5852 -0.4410
 2632SOL    HW310582   3.944   2.409   4.247 -1.1879  0.3769  0.8997
 2632SOL    MW410583   4.015   2.437   4.291  0.0005  0.0001 -0.0000
 2633SOL     OW10584   4.061   2.723   4.177 -0.1703  0.2791 -0.1009
 2633SOL    HW210585   4.050   2.638   4.220  0.3351  0.0140 -0.4895
 2633SOL    HW310586   3.979   2.770   4.195 -1.1002 -0.8807 -1.2130
 2633SOL    MW410587   4.049   2.718   4.185  0.0005  0.0001 -0.0000
 2634SOL     OW10588   4.277   2.856   4.251  0.1459  0.3525  0.2465
 2634SOL    HW210589   4.197   2.816   4.218 -0.0177  1.7027 -1.0454
 2634SOL    HW310590   4.347   2.802   4.215 -0.1540 -0.4830  0.8987
 2634SOL    MW410591   4.276   2.844   4.242  0.0005  0.0001 -0.0000
 2635SOL     OW10592   4.246   3.125   4.164  0.2614 -0.4835 -0.5305
 2635SOL    HW210593   4.262   3.036   4.195  0.1529 -0.3549 -0.1015
 2635SOL    HW310594   4.254   3.119   4.069 -1.7562 -1.3712 -0.6682
 2635SOL    MW410595   4.249   3.112   4.155  0.0005  0.0001 -0.0000
 2636SOL     OW10596   4.016   3.233   4.271  0.2168 -0.3042 -0.1143
 2636SOL    HW210597   4.092   3.196   4.226  0.2899 -0.8913  0.4834
 2636SOL    HW310598   3.940   3.191   4.230  0.2499 -0.2934 -0.1856
 2636SOL    MW410599   4.016   3.223   4.260  0.0005  0.0001 -0.0000
 2637SOL     OW10600   4.063   3.520   4.169 -0.0574 -0.1095  0.0212
 2637SOL    HW210601   4.043   3.435   4.209 -3.0873  1.4377  1.9826
 2637SOL    HW310602   4.057   3.504   4.075  0.0298 -2.2021  0.3453
 2637SOL    MW410603   4.060   3.507   4.162  0.0005  0.0001 -0.0000
 2638SOL     OW10604   4.300   3.614   4.284  0.5591  0.0824 -0.0736
 2638SOL    HW210605   4.290   3.707   4.264 -0.9668  0.1192  0.7957
 2638SOL    HW310606   4.224   3.572   4.244  0.7005 -0.6525  0.4139
 2638SOL    MW410607   4.289   3.621   4.276  0.0005  0.0001 -0.0000
 2639SOL     OW10608   4.312   3.887   4.197 -0.2415 -0.1427 -0.2627
 2639SOL    HW210609   4.242   3.943   4.230 -0.5782 -0.6288 -0.1444
 2639SOL    HW310610   4.299   3.884   4.102  0.3301  0.7224 -0.3747
 2639SOL    MW410611   4.301   3.894   4.189  0.0005  0.0001 -0.0000
 2640SOL     OW10612   4.097   4.041   4.259  0.6728  0.3084  0.5677
 2640SOL    HW210613   4.089   4.042   4.354 -0.4432  0.7588  0.4744
 2640SOL    HW310614   4.027   3.983   4.229 -0.5061  2.0326 -0.1021
 2640SOL    MW410615   4.087   4.033   4.268  0.0005  0.0001 -0.0000
 2641SOL     OW10616   4.077   4.296   4.132  0.1964  0.5841 -0.6593
 2641SOL    HW210617   4.156   4.334   4.171  0.8647 -0.2059 -1.2223
 2641SOL    HW310618   4.078   4.205   4.161 -0.3614  0.4994 -0.9053
 2641SOL    MW410619   4.088   4.289   4.141  0.0005  0.0001 -0.0000
 2642SOL     OW10620   4.232   4.627   4.655 -0.1483 -0.4853 -0.2682
 2642SOL    HW210621   4.283   4.702   4.625  0.2704 -0.8814 -0.5484
 2642SOL    HW310622   4.141   4.654   4.643 -0.0122  0.2703  0.3549
 2642SOL    MW410623   4.227   4.640   4.649  0.0005  0.0001 -0.0000
 2643SOL     OW10624   0.077   0.207   4.531 -0.2088 -0.5561 -0.4009
 2643SOL    HW210625   0.095   0.295   4.564  0.7551 -1.4311  1.4906
 2643SOL    HW310626  -0.018   0.201   4.529 -0.3206 -0.6003  2.6972
 2643SOL    MW410627   0.067   0.218   4.535  0.0005  0.0001 -0.0000
 2644SOL     OW10628   4.302   4.401   4.520 -0.3003  0.1140  0.4098
 2644SOL    HW210629   4.242   4.337   4.559 -1.4281 -0.4022 -2.0784
 2644SOL    HW310630   4.278   4.484   4.561 -0.5458 -0.6205  1.7881
 2644SOL    MW410631   4.291   4.404   4.531  0.0005  0.0001 -0.0000
 2645SOL     OW10632   3.981   0.105   4.564 -0.1809 -0.1619 -0.0540
 2645SOL    HW210633   3.981   0.087   4.470 -0.5176  0.8329 -0.2485
 2645SOL    HW310634   3.889   0.101   4.590 -0.0173 -1.2369  0.3993
 2645SOL    MW410635   3.969   0.102   4.555  0.0005  0.0001 -0.0000
 2646SOL     OW10636   4.186   1.195   4.784 -0.7030 -0.3720 -0.4832
 2646SOL    HW210637   4.272   1.167   4.814  0.1695  0.7766 -1.8444
 2646SOL    HW310638   4.185   1.290   4.799 -1.0341 -0.1036 -2.1089
 2646SOL    MW410639   4.197   1.204   4.790  0.0005  0.0001 -0.0000
 2647SOL     OW10640   0.324   0.010   4.517 -0.2553 -0.0861  0.1578
 2647SOL    HW210641   0.239   0.043   4.546 -0.2563 -0.6196  0.7753
 2647SOL    HW310642   0.312  -0.085   4.511 -0.2697  0.0147 -1.6530
 2647SOL    MW410643   0.311   0.002   4.520  0.0005  0.0001 -0.0000
 2648SOL     OW10644   0.644   0.821   4.616  0.1618 -0.2684 -0.3686
 2648SOL    HW210645   0.652   0.727   4.597 -0.5519 -0.5047  0.4557
 2648SOL    HW310646   0.551   0.840   4.601 -0.5346 -0.5520  3.1654
 2648SOL    MW410647   0.633   0.811   4.612  0.0005  0.0001 -0.0000
 2649SOL     OW10648   4.361   0.853   4.586  0.0364  0.1810 -0.4964
 2649SOL    HW210649   4.345   0.759   4.589  1.9222 -0.1090  2.5948
 2649SOL    HW310650   4.412   0.866   4.506 -1.2026 -1.2109 -1.5564
 2649SOL    MW410651   4.366   0.842   4.576  0.0005  0.0001 -0.0000
 2650SOL     OW10652   0.457   1.394   4.522  0.0963 -0.2933 -0.0107
 2650SOL    HW210653   0.417   1.309   4.540  0.0003 -0.3082 -0.2945
 2650SOL    HW310654   0.419   1.453   4.587  0.4723 -0.5553  0.4498
 2650SOL    MW410655   0.447   1.391   4.533  0.0005  0.0001 -0.0000
 2651SOL     OW10656   0.656   2.032   4.565  0.2052 -0.3458 -0.1766
 2651SOL    HW210657   0.724   1.969   4.590  0.5979  0.0621 -0.2063
 2651SOL    HW310658   0.574   1.987   4.582  0.4856 -0.8337 -0.1100
 2651SOL    MW410659   0.654   2.018   4.571  0.0005  0.0001 -0.0000
 2652SOL     OW10660   4.259   1.242   4.466  0.4540 -0.2568 -0.1680
 2652SOL    HW210661   4.230   1.152   4.482  1.7156 -0.8163 -0.9501
 2652SOL    HW310662   4.352   1.242   4.490  0.1879  1.1405  0.9301
 2652SOL    MW410663   4.267   1.230   4.471  0.0005  0.0001 -0.0000
 2653SOL     OW10664   0.187   1.943   4.497  0.2578 -0.2186 -0.0492
 2653SOL    HW210665   0.118   1.880   4.517 -0.6946  0.8079 -0.0465
 2653SOL    HW310666   0.154   2.026   4.531  1.3738  0.3381 -0.3046
 2653SOL    MW410667   0.174   1.946   4.504  0.0005  0.0001 -0.0000
 2654SOL     OW10668   0.539   1.626   4.384  0.3372  0.6247  0.0670
 2654SOL    HW210669   0.501   1.544   4.417 -0.7203  0.8222 -0.6346
 2654SOL    HW310670   0.595   1.599   4.312 -0.3683  0.5532 -0.4601
 2654SOL    MW410671   0.541   1.612   4.379  0.0005  0.0001 -0.0000
 2655SOL     OW10672   0.069   2.187   4.612 -0.0704  0.1884  0.0096
 2655SOL    HW210673   0.103   2.174   4.701  0.4839  0.9755 -0.0815
 2655SOL    HW310674   0.098   2.275   4.588 -1.1477  0.4010 -0.5399
 2655SOL    MW410675   0.077   2.197   4.621  0.0005  0.0001 -0.0000
 2656SOL     OW10676   4.132   2.318   4.765 -0.0296 -0.1069  0.2198
 2656SOL    HW210677   4.154   2.410   4.779 -0.2754 -0.0244  0.0687
 2656SOL    HW310678   4.199   2.286   4.705 -1.0141  0.4604 -1.2085
 2656SOL    MW410679   4.144   2.326   4.759  0.0005  0.0001 -0.0000
 2657SOL     OW10680   0.484   2.702   4.528 -0.2682  0.3128  0.0405
 2657SOL    HW210681   0.447   2.731   4.445  2.2578 -1.2061 -1.6960
 2657SOL    HW310682   0.492   2.607   4.518  1.2511  0.2697  1.5122
 2657SOL    MW410683   0.480   2.693   4.516  0.0005  0.0001 -0.0000
 2658SOL     OW10684   0.390   2.925   4.667 -0.2437 -0.1101  0.0705
 2658SOL    HW210685   0.435   2.850   4.629  0.4818 -0.0219  0.7482
 2658SOL    HW310686   0.299   2.914   4.640  0.1100 -0.4817 -1.0035
 2658SOL    MW410687   0.384   2.914   4.658  0.0005  0.0001 -0.0000
 2659SOL     OW10688   4.279   2.459   4.472 -0.4011 -0.2679 -0.4019
 2659SOL    HW210689   4.348   2.514   4.510  0.2297 -1.9497  0.9539
 2659SOL    HW310690   4.198   2.491   4.512 -0.3807  1.4087 -1.6488
 2659SOL    MW410691   4.277   2.470   4.482  0.0005  0.0001 -0.0000
 2660SOL     OW10692   4.339   3.351   4.658 -0.1216 -0.4827 -0.5304
 2660SOL    HW210693   4.401   3.286   4.626  0.6155  0.6262 -1.3890
 2660SOL    HW310694   4.254   3.322   4.623  0.1066 -1.2885 -0.4295
 2660SOL    MW410695   4.336   3.339   4.649  0.0005  0.0001 -0.0000
 2661SOL     OW10696   0.069   3.179   4.522  0.2190  0.0725 -0.3597
 2661SOL    HW210697   0.040   3.154   4.434  1.8544  0.1879 -0.9447
 2661SOL    HW310698   0.130   3.252   4.508 -0.4782  0.9344  0.9660
 2661SOL    MW410699   0.073   3.185   4.509  0.0005  0.0001 -0.0000
 2662SOL     OW10700   4.335   3.850   4.608 -0.0522  0.1846 -0.4355
 2662SOL    HW210701   4.251   3.877   4.571  0.0651  1.4725  0.2038
 2662SOL    HW310702   4.339   3.756   4.593 -1.3646  0.2047 -0.9599
 2662SOL    MW410703   4.324   3.841   4.601  0.0005  0.0001 -0.0000
 2663SOL     OW10704   4.302   0.194   4.522 -0.1827  0.1487 -0.3425
 2663SOL    HW210705   4.255   0.244   4.589 -0.7105 -1.0608  0.2044
 2663SOL    HW310706   4.237   0.177   4.454 -0.5092 -1.3586  0.3246
 2663SOL    MW410707   4.287   0.198   4.522  0.0005  0.0001 -0.0000
 2664SOL     OW10708   3.850   0.506   4.557 -0.1072 -0.2604 -0.2584
 2664SOL    HW210709   3.760   0.475   4.564  0.0396 -0.4526  0.8954
 2664SOL    HW310710   3.844   0.600   4.573 -0.2147 -0.1221 -1.0974
 2664SOL    MW410711   3.837   0.514   4.560  0.0005  0.0001 -0.0000
 2665SOL     OW10712   4.021   3.553   4.779  0.0823  0.2480  0.2316
 2665SOL    HW210713   4.109   3.590   4.791  0.1984  0.0914 -0.1296
 2665SOL    HW310714   3.997   3.520   4.865  0.5828 -0.1518  0.2199
 2665SOL    MW410715   4.029   3.553   4.792  0.0005  0.0001 -0.0000
 2666SOL     OW10716   3.863   4.252   4.628 -0.0297 -0.0620  0.1220
 2666SOL    HW210717   3.801   4.322   4.608  0.0723 -0.2106 -0.7362
 2666SOL    HW310718   3.809   4.181   4.664 -0.2431  0.1312  0.1821
 2666SOL    MW410719   3.848   4.252   4.630  0.0005  0.0001 -0.0000
 2667SOL     OW10720   0.543   0.021   4.671 -0.2139  0.3086  0.0075
 2667SOL    HW210721   0.466   0.015   4.615  0.5102 -0.1294 -0.9676
 2667SOL    HW310722   0.536  -0.055   4.729 -0.2949  0.0275 -0.3661
 2667SOL    MW410723   0.532   0.010   4.671  0.0005  0.0001 -0.0000
 2668SOL     OW10724   4.463   1.066   4.786  0.0053  0.2499  0.0653
 2668SOL    HW210725   4.414   0.996   4.743 -1.0644 -0.1438  1.8728
 2668SOL    HW310726   4.538   1.022   4.826  0.2244  0.3941 -0.1840
 2668SOL    MW410727   4.466   1.051   4.786  0.0005  0.0001 -0.0000
 2669SOL     OW10728   1.427   1.099   4.785 -0.4824 -0.0896 -0.1485
 2669SOL    HW210729   1.424   1.072   4.877 -0.2290 -0.7705 -0.3379
 2669SOL    HW310730   1.360   1.046   4.742 -0.3842  0.0013 -0.4152
 2669SOL    MW410731   1.418   1.088   4.791  0.0005  0.0001 -0.0000
 2670SOL     OW10732   0.715   0.282   4.697  0.3629 -0.0598 -0.0674
 2670SOL    HW210733   0.788   0.238   4.654  0.3902  0.5895 -0.6987
 2670SOL    HW310734   0.643   0.219   4.694  0.4781 -0.1613 -0.7274
 2670SOL    MW410735   0.715   0.268   4.691  0.0005  0.0001 -0.0000
 2671SOL     OW10736   1.217   0.969   4.658  0.5312 -0.1120  0.1024
 2671SOL    HW210737   1.275   0.916   4.604 -0.0936 -0.1181 -0.5681
 2671SOL    HW310738   1.130   0.931   4.645  0.1633  0.7382  0.0341
 2671SOL    MW410739   1.213   0.957   4.649  0.0005  0.0001 -0.0000
 2672SOL     OW10740   0.374   0.918   4.544  0.5040  0.0231  0.4569
 2672SOL    HW210741   0.336   0.832   4.563 -0.5174  0.5045  0.6268
 2672SOL    HW310742   0.411   0.909   4.456  0.3599 -0.5760  0.4554
 2672SOL    MW410743   0.374   0.905   4.535  0.0005  0.0001 -0.0000
 2673SOL     OW10744   2.107   1.172   4.523  0.0412  0.4568 -0.2048
 2673SOL    HW210745   2.091   1.206   4.435  0.8010 -0.0696 -0.5525
 2673SOL    HW310746   2.175   1.230   4.558  0.6139 -0.0780 -0.4231
 2673SOL    MW410747   2.114   1.184   4.516  0.0005  0.0001 -0.0000
 2674SOL     OW10748   0.783   1.641   4.515 -0.1045  0.1497  0.1333
 2674SOL    HW210749   0.797   1.718   4.570 -0.4482 -1.4560  2.5478
 2674SOL    HW310750   0.690   1.643   4.493 -0.2399  0.1058  0.6986
 2674SOL    MW410751   0.773   1.651   4.519  0.0005  0.0001 -0.0000
 2675SOL     OW10752   1.282   1.328   4.637 -0.2338 -0.3173  0.1182
 2675SOL    HW210753   1.322   1.257   4.687 -1.3495 -1.0885 -0.0638
 2675SOL    HW310754   1.188   1.310   4.641 -0.3956  0.0840 -1.5357
 2675SOL    MW410755   1.275   1.316   4.644  0.0005  0.0001 -0.0000
 2676SOL     OW10756   0.894   1.862   4.662  0.5299  0.1210 -0.2513
 2676SOL    HW210757   0.955   1.909   4.605  1.8425 -0.9312  0.2450
 2676SOL    HW310758   0.951   1.816   4.724 -0.7725 -1.0625  0.0812
 2676SOL    MW410759   0.909   1.862   4.663  0.0005  0.0001 -0.0000
 2677SOL     OW10760   0.694   2.323   4.513 -0.4665 -0.1290 -0.1480
 2677SOL    HW210761   0.778   2.363   4.535  0.3610 -1.1218 -1.4239
 2677SOL    HW310762   0.703   2.232   4.541 -1.0593 -0.2772 -0.4351
 2677SOL    MW410763   0.706   2.316   4.520  0.0005  0.0001 -0.0000
 2678SOL     OW10764   1.095   1.693   4.823 -0.2475  0.3451 -0.1755
 2678SOL    HW210765   1.095   1.661   4.913 -0.6378 -0.1164 -0.3373
 2678SOL    HW310766   1.180   1.667   4.788  0.5842  2.0064  0.5768
 2678SOL    MW410767   1.106   1.685   4.830  0.0005  0.0001 -0.0000
 2679SOL     OW10768   0.149   2.417   4.490  0.2888 -0.1624 -0.1098
 2679SOL    HW210769   0.116   2.428   4.401  0.3009 -0.8258 -0.1985
 2679SOL    HW310770   0.244   2.419   4.481  0.2882  0.0038 -0.0811
 2679SOL    MW410771   0.157   2.419   4.477  0.0005  0.0001 -0.0000
 2680SOL     OW10772   1.080   2.686   4.561 -0.2101  0.2029 -0.1206
 2680SOL    HW210773   1.087   2.777   4.532  1.9006  0.0413 -0.1862
 2680SOL    HW310774   1.149   2.676   4.627 -0.4852 -1.3210 -0.0405
 2680SOL    MW410775   1.090   2.697   4.566  0.0005  0.0001 -0.0000
 2681SOL     OW10776   0.430   2.420   4.452 -0.2506 -0.1364 -0.3236
 2681SOL    HW210777   0.514   2.383   4.480 -1.2845 -1.7778  0.6658
 2681SOL    HW310778   0.441   2.433   4.358  1.1129 -0.3440 -0.2110
 2681SOL    MW410779   0.442   2.417   4.443  0.0005  0.0001 -0.0000
 2682SOL     OW10780   1.376   2.938   4.603 -0.2758 -0.0849  0.0420
 2682SOL    HW210781   1.295   2.943   4.552 -0.3653 -1.2682  0.0574
 2682SOL    HW310782   1.364   2.862   4.660  0.8098 -0.2262  0.0972
 2682SOL    MW410783   1.364   2.929   4.604  0.0005  0.0001 -0.0000
 2683SOL     OW10784   0.626   3.133   4.615  0.0967  0.2495  0.1848
 2683SOL    HW210785   0.584   3.213   4.582  0.5084 -0.0136 -0.9991
 2683SOL    HW310786   0.553   3.078   4.644 -0.2162  0.8615  0.5717
 2683SOL    MW410787   0.611   3.136   4.614  0.0005  0.0001 -0.0000
 2684SOL     OW10788   1.303   4.484   4.634  0.1002  0.2997  0.1174
 2684SOL    HW210789   1.231   4.434   4.596 -0.8870  1.3782  0.5427
 2684SOL    HW310790   1.382   4.435   4.609 -0.8401 -1.5218  0.6219
 2684SOL    MW410791   1.304   4.471   4.626  0.0005  0.0001 -0.0000
 2685SOL     OW10792   4.474   2.643   4.580  0.0137 -0.1467 -0.0049
 2685SOL    HW210793   4.548   2.584   4.563 -0.2362  0.1407 -2.2131
 2685SOL    HW310794   4.512   2.731   4.575 -0.1525 -0.0398  0.5689
 2685SOL    MW410795   4.489   2.647   4.577  0.0005  0.0001 -0.0000
 2686SOL     OW10796   4.440   3.589   4.537  0.2494 -0.0365  0.6496
 2686SOL    HW210797   4.400   3.517   4.585 -0.2723  0.1241  0.4567
 2686SOL    HW310798   4.409   3.579   4.447  0.0731  0.4995  0.6477
 2686SOL    MW410799   4.431   3.578   4.531  0.0005  0.0001 -0.0000
 2687SOL     OW10800   0.775   4.352   4.532 -0.0329  0.1955  0.1116
 2687SOL    HW210801   0.774   4.436   4.579 -1.3299 -0.3981  1.1786
 2687SOL    HW310802   0.715   4.365   4.459 -0.7298  0.0014  0.6446
 2687SOL    MW410803   0.767   4.365   4.529  0.0005  0.0001 -0.0000
 2688SOL     OW10804   0.060   4.300   4.520 -0.0095 -0.0343  0.1936
 2688SOL    HW210805   0.049   4.205   4.528 -0.2056  0.0857  1.4451
 2688SOL    HW310806  -0.029   4.335   4.526  0.0027  0.1946 -0.8883
 2688SOL    MW410807   0.047   4.292   4.522  0.0005  0.0001 -0.0000
 2689SOL     OW10808   0.067   4.013   4.534  0.4355 -0.1276  0.0042
 2689SOL    HW210809   0.135   3.946   4.543  0.8033  0.4968  2.1568
 2689SOL    HW310810  -0.013   3.971   4.566  0.5045  0.1993  0.6137
 2689SOL    MW410811   0.065   3.999   4.539  0.0005  0.0001 -0.0000
 2690SOL     OW10812   0.313   4.412   4.541 -0.1143  0.1191 -0.3034
 2690SOL    HW210813   0.375   4.339   4.546  0.1895  0.3795 -0.2505
 2690SOL    HW310814   0.227   4.371   4.548 -0.0202 -0.4198 -2.0631
 2690SOL    MW410815   0.310   4.397   4.543  0.0005  0.0001 -0.0000
 2691SOL     OW10816   1.209   0.253   4.616 -0.3111 -0.3648  0.3525
 2691SOL    HW210817   1.207   0.273   4.710 -1.2171 -0.9692  0.4671
 2691SOL    HW310818   1.124   0.213   4.598 -0.0084 -0.5688 -0.6602
 2691SOL    MW410819   1.198   0.250   4.626  0.0005  0.0001 -0.0000
 2692SOL     OW10820   0.961   0.159   4.573  0.1951 -0.2901 -0.2741
 2692SOL    HW210821   0.968   0.164   4.478  1.3055 -0.8541 -0.2304
 2692SOL    HW310822   0.909   0.080   4.589 -2.0812  1.1241 -0.4631
 2692SOL    MW410823   0.955   0.149   4.563  0.0005  0.0001 -0.0000
 2693SOL     OW10824   0.681   0.537   4.579 -0.1134 -0.2052 -0.1530
 2693SOL    HW210825   0.680   0.504   4.489  0.9243 -0.7622  0.0340
 2693SOL    HW310826   0.695   0.459   4.633  0.2400  0.2582  0.4243
 2693SOL    MW410827   0.683   0.522   4.574  0.0005  0.0001 -0.0000
 2694SOL     OW10828   1.646   1.122   4.611 -0.0550  0.0199  0.1545
 2694SOL    HW210829   1.587   1.101   4.684  0.8250  2.1723  1.5347
 2694SOL    HW310830   1.725   1.156   4.653  1.1125 -0.2414 -1.7693
 2694SOL    MW410831   1.649   1.124   4.626  0.0005  0.0001 -0.0000
 2695SOL     OW10832   1.766   0.860   4.568  0.3335 -0.1721  0.4539
 2695SOL    HW210833   1.716   0.941   4.575 -2.5446 -2.0113  2.3656
 2695SOL    HW310834   1.802   0.861   4.479 -0.9469  2.4388 -0.0747
 2695SOL    MW410835   1.764   0.871   4.557  0.0005  0.0001 -0.0000
 2696SOL     OW10836   0.293   1.173   4.544  0.1226  0.5317 -0.2005
 2696SOL    HW210837   0.313   1.080   4.537  1.8399  0.8620  0.0462
 2696SOL    HW310838   0.199   1.179   4.525  0.0039 -1.2305 -0.2640
 2696SOL    MW410839   0.283   1.161   4.541  0.0005  0.0001 -0.0000
 2697SOL     OW10840   0.754   1.361   4.546 -0.4038 -0.0508 -0.6851
 2697SOL    HW210841   0.771   1.454   4.532 -1.2751  0.4057  1.1549
 2697SOL    HW310842   0.662   1.357   4.570 -0.1790 -1.3055  0.0008
 2697SOL    MW410843   0.744   1.373   4.547  0.0005  0.0001 -0.0000
 2698SOL     OW10844   0.919   0.894   4.583  0.1962 -0.6350  0.7598
 2698SOL    HW210845   0.824   0.895   4.593  0.2240 -0.0468  0.9914
 2698SOL    HW310846   0.934   0.903   4.489  0.0257 -0.5720  0.7391
 2698SOL    MW410847   0.908   0.895   4.572  0.0005  0.0001 -0.0000
 2699SOL     OW10848   1.904   1.207   4.717 -0.2207 -0.2771 -0.4945
 2699SOL    HW210849   1.935   1.141   4.779 -0.0257 -0.7505 -1.0843
 2699SOL    HW310850   1.957   1.193   4.639 -1.4905 -0.6860 -1.3011
 2699SOL    MW410851   1.915   1.196   4.715  0.0005  0.0001 -0.0000
 2700SOL     OW10852   1.015   1.241   4.554  0.1619 -0.3334  0.0777
 2700SOL    HW210853   1.010   1.163   4.609 -0.5300 -0.2369  0.1597
 2700SOL    HW310854   0.924   1.270   4.546  0.3548  0.1364 -0.4214
 2700SOL    MW410855   1.002   1.235   4.560  0.0005  0.0001 -0.0000
 2701SOL     OW10856   1.206   2.292   4.539 -0.7388 -0.1690  0.2705
 2701SOL    HW210857   1.139   2.353   4.507 -0.9552 -0.3277  0.4215
 2701SOL    HW310858   1.289   2.337   4.522 -0.8632 -0.1469 -0.2907
 2701SOL    MW410859   1.208   2.306   4.533  0.0005  0.0001 -0.0000
 2702SOL     OW10860   1.307   2.670   4.703  0.2524  0.5749 -0.4366
 2702SOL    HW210861   1.321   2.595   4.645  1.7652  0.9082 -0.5173
 2702SOL    HW310862   1.350   2.645   4.785 -2.0267  0.0268  0.6328
 2702SOL    MW410863   1.315   2.657   4.706  0.0005  0.0001 -0.0000
 2703SOL     OW10864   1.637   2.874   4.510  0.3015  0.6003  0.0484
 2703SOL    HW210865   1.561   2.911   4.554 -0.0857  2.0399 -1.7777
 2703SOL    HW310866   1.690   2.950   4.484  0.8418 -0.2323 -1.3605
 2703SOL    MW410867   1.634   2.889   4.512  0.0005  0.0001 -0.0000
 2704SOL     OW10868   1.495   3.483   4.484 -0.1377  0.8906  0.6846
 2704SOL    HW210869   1.580   3.506   4.521  0.4385  0.7330 -0.5019
 2704SOL    HW310870   1.483   3.391   4.507 -0.3687  1.1333  1.5526
 2704SOL    MW410871   1.505   3.474   4.492  0.0005  0.0001 -0.0000
 2705SOL     OW10872   0.756   2.784   4.507  0.5260 -0.0109  0.4477
 2705SOL    HW210873   0.818   2.720   4.541 -0.8778 -1.6765 -0.0705
 2705SOL    HW310874   0.676   2.770   4.557  0.6561  2.4175  1.4152
 2705SOL    MW410875   0.754   2.774   4.518  0.0005  0.0001 -0.0000
 2706SOL     OW10876   0.583   3.941   4.516 -0.2033 -0.1547  0.6267
 2706SOL    HW210877   0.672   3.975   4.506  0.6121 -2.5049 -0.3970
 2706SOL    HW310878   0.543   3.955   4.430  0.0310 -1.4338  0.2991
 2706SOL    MW410879   0.590   3.947   4.503  0.0005  0.0001 -0.0000
 2707SOL     OW10880   1.133   2.951   4.478  0.1141  0.1765 -0.2873
 2707SOL    HW210881   1.126   2.922   4.387  1.5638  1.5806 -0.8758
 2707SOL    HW310882   1.048   2.991   4.498 -0.0940  0.1537 -1.1212
 2707SOL    MW410883   1.121   2.952   4.469  0.0005  0.0001 -0.0000
 2708SOL     OW10884   0.859   3.049   4.493  0.0158  0.4822  0.0657
 2708SOL    HW210885   0.785   3.105   4.517 -0.7047 -0.2375 -0.4428
 2708SOL    HW310886   0.821   2.961   4.486  0.9468  0.0868 -0.0726
 2708SOL    MW410887   0.844   3.045   4.495  0.0005  0.0001 -0.0000
 2709SOL     OW10888   1.746   3.584   4.568 -0.1362 -0.2543 -0.2710
 2709SOL    HW210889   1.758   3.678   4.582  0.8245 -0.5677  1.0908
 2709SOL    HW310890   1.833   3.552   4.544 -0.4771 -0.7914 -0.7963
 2709SOL    MW410891   1.759   3.592   4.567  0.0005  0.0001 -0.0000
 2710SOL     OW10892   0.497   3.353   4.506  0.2130  0.4559  0.2350
 2710SOL    HW210893   0.539   3.432   4.539 -1.0517  1.1512  0.2024
 2710SOL    HW310894   0.403   3.372   4.509 -0.0487 -0.5425 -1.0293
 2710SOL    MW410895   0.490   3.366   4.511  0.0005  0.0001 -0.0000
 2711SOL     OW10896   0.509   4.213   4.583 -0.4743  0.3336 -0.3268
 2711SOL    HW210897   0.597   4.249   4.590 -0.3635  0.1481 -0.7582
 2711SOL    HW310898   0.521   4.118   4.585 -0.8337  0.3085  1.6246
 2711SOL    MW410899   0.522   4.205   4.584  0.0005  0.0001 -0.0000
 2712SOL     OW10900   0.841   4.082   4.529  0.0330  0.1476 -0.1196
 2712SOL    HW210901   0.834   4.177   4.531 -0.4376  0.1355 -0.9187
 2712SOL    HW310902   0.866   4.062   4.439 -4.3256 -0.7493 -1.2466
 2712SOL    MW410903   0.843   4.092   4.517  0.0005  0.0001 -0.0000
 2713SOL     OW10904   0.773   4.622   4.537  0.4030  0.0337  0.0677
 2713SOL    HW210905   0.694   4.654   4.580  0.7055  1.6230 -0.5339
 2713SOL    HW310906   0.758   4.636   4.444  1.2143 -0.0589 -0.0850
 2713SOL    MW410907   0.761   4.628   4.530  0.0005  0.0001 -0.0000
 2714SOL     OW10908   1.590   4.163   4.878  0.1967  0.5435 -0.1317
 2714SOL    HW210909   1.575   4.103   4.951  0.4712  0.5691 -0.0547
 2714SOL    HW310910   1.514   4.221   4.879 -0.0112  0.2728 -0.1335
 2714SOL    MW410911   1.578   4.163   4.888  0.0005  0.0001 -0.0000
 2715SOL     OW10912   1.554   4.390   4.549  0.2243 -0.4206 -0.1659
 2715SOL    HW210913   1.639   4.431   4.566  0.7657 -1.2896 -0.7052
 2715SOL    HW310914   1.542   4.398   4.454  0.1626 -1.1644 -0.2241
 2715SOL    MW410915   1.564   4.396   4.539  0.0005  0.0001 -0.0000
 2716SOL     OW10916   1.067   4.354   4.539  0.0216 -0.2664  0.0388
 2716SOL    HW210917   1.094   4.269   4.574  0.8263  0.4407  1.1619
 2716SOL    HW310918   0.972   4.354   4.549 -0.1569 -1.6619 -1.4219
 2716SOL    MW410919   1.058   4.343   4.545  0.0005  0.0001 -0.0000
 2717SOL     OW10920   1.200   0.509   4.483 -0.3204  0.0662 -0.2511
 2717SOL    HW210921   1.120   0.545   4.520  0.2903  0.9522  0.2235
 2717SOL    HW310922   1.207   0.422   4.522 -0.8223  0.1556  0.0461
 2717SOL    MW410923   1.190   0.502   4.493  0.0005  0.0001 -0.0000
 2718SOL     OW10924   1.680   0.111   4.536 -0.3518  0.2844 -0.2382
 2718SOL    HW210925   1.588   0.083   4.541 -0.2098 -0.1630 -0.0635
 2718SOL    HW310926   1.727   0.046   4.589 -0.0714  1.1217  0.5488
 2718SOL    MW410927   1.674   0.099   4.544  0.0005  0.0001 -0.0000
 2719SOL     OW10928   1.343   0.764   4.520  0.0376  0.0499 -0.2259
 2719SOL    HW210929   1.288   0.686   4.517 -2.1616  1.5342  0.3126
 2719SOL    HW310930   1.340   0.800   4.431 -0.5211  0.5707  0.0015
 2719SOL    MW410931   1.335   0.758   4.508  0.0005  0.0001 -0.0000
 2720SOL     OW10932   1.851   1.515   4.769  0.1386 -0.3880  0.1289
 2720SOL    HW210933   1.870   1.422   4.759 -0.7250 -0.5590  0.0316
 2720SOL    HW310934   1.859   1.532   4.863  0.5461 -0.5025  0.1150
 2720SOL    MW410935   1.855   1.505   4.780  0.0005  0.0001 -0.0000
 2721SOL     OW10936   0.956   0.623   4.572 -0.1579  0.1449 -0.3262
 2721SOL    HW210937   0.946   0.718   4.580 -0.7745 -0.0020  0.7228
 2721SOL    HW310938   0.868   0.588   4.586  0.1838 -0.6209 -0.0557
 2721SOL    MW410939   0.943   0.631   4.575  0.0005  0.0001 -0.0000
 2722SOL     OW10940   2.066   0.504   4.532 -0.1344 -0.1907 -0.1878
 2722SOL    HW210941   2.125   0.431   4.551 -0.6170 -0.8080 -1.0188
 2722SOL    HW310942   1.978   0.468   4.546 -0.3366  0.5841  0.5800
 2722SOL    MW410943   2.062   0.490   4.536  0.0005  0.0001 -0.0000
 2723SOL     OW10944   1.520   1.369   4.522 -0.1340  0.3435 -0.0101
 2723SOL    HW210945   1.428   1.369   4.550 -0.1998  0.5803 -0.2216
 2723SOL    HW310946   1.553   1.283   4.547 -0.9202 -0.4368 -1.5856
 2723SOL    MW410947   1.512   1.358   4.529  0.0005  0.0001 -0.0000
 2724SOL     OW10948   1.315   1.834   4.519  0.1149 -0.4595 -0.3902
 2724SOL    HW210949   1.311   1.759   4.578 -0.5659 -0.4746 -0.4513
 2724SOL    HW310950   1.333   1.796   4.433 -1.0358 -0.6304 -0.5635
 2724SOL    MW410951   1.317   1.819   4.515  0.0005  0.0001 -0.0000
 2725SOL     OW10952   1.683   2.455   4.501  0.0776 -0.0111  0.0285
 2725SOL    HW210953   1.738   2.521   4.543  1.9194 -1.1065 -0.5779
 2725SOL    HW310954   1.731   2.373   4.512 -0.5522 -0.7089 -2.1051
 2725SOL    MW410955   1.697   2.453   4.508  0.0005  0.0001 -0.0000
 2726SOL     OW10956   1.978   2.363   4.619  0.2066 -0.5215  0.4668
 2726SOL    HW210957   1.918   2.289   4.609 -0.3172  0.1745 -1.8644
 2726SOL    HW310958   1.927   2.430   4.665 -1.1660  0.4020 -2.2909
 2726SOL    MW410959   1.963   2.362   4.624  0.0005  0.0001 -0.0000
 2727SOL     OW10960   0.972   2.445   4.496 -0.0478  0.1171  0.5460
 2727SOL    HW210961   0.998   2.533   4.523  3.3476 -0.2098 -1.3693
 2727SOL    HW310962   0.936   2.457   4.408 -1.0440 -0.2384  0.8954
 2727SOL    MW410963   0.971   2.458   4.488  0.0005  0.0001 -0.0000
 2728SOL     OW10964   1.349   3.997   4.470 -0.2524 -0.5870  0.8604
 2728SOL    HW210965   1.356   3.902   4.464  0.3396 -0.4556 -0.8160
 2728SOL    HW310966   1.430   4.024   4.513 -0.3773 -0.8290  1.2512
 2728SOL    MW410967   1.361   3.988   4.475  0.0005  0.0001 -0.0000
 2729SOL     OW10968   1.403   2.475   4.517  0.3156  0.0748 -0.3415
 2729SOL    HW210969   1.363   2.471   4.430  0.4354  0.5867 -0.4217
 2729SOL    HW310970   1.494   2.451   4.503 -0.0181 -1.3687 -0.1154
 2729SOL    MW410971   1.410   2.471   4.504  0.0005  0.0001 -0.0000
 2730SOL     OW10972   1.834   2.686   4.558 -0.0465 -0.0016  0.0453
 2730SOL    HW210973   1.766   2.752   4.546 -1.1375 -1.3027 -1.0856
 2730SOL    HW310974   1.916   2.735   4.552 -0.8564  1.4711  0.7051
 2730SOL    MW410975   1.836   2.701   4.556  0.0005  0.0001 -0.0000
 2731SOL     OW10976   1.454   3.190   4.496 -0.4522  0.2115 -0.2861
 2731SOL    HW210977   1.537   3.143   4.489 -0.4459  0.1948 -0.0959
 2731SOL    HW310978   1.391   3.125   4.527 -0.5362  0.2248 -0.4275
 2731SOL    MW410979   1.457   3.175   4.499  0.0005  0.0001 -0.0000
 2732SOL     OW10980   1.357   3.729   4.469  0.5363  0.1687  0.4447
 2732SOL    HW210981   1.412   3.660   4.505 -0.6591 -1.1897 -0.2769
 2732SOL    HW310982   1.295   3.683   4.412  0.1953  1.9120 -0.6290
 2732SOL    MW410983   1.356   3.714   4.466  0.0005  0.0001 -0.0000
 2733SOL     OW10984   0.622   3.623   4.535 -0.4298  0.7079 -0.4011
 2733SOL    HW210985   0.571   3.704   4.535 -0.2509  0.8222 -0.8448
 2733SOL    HW310986   0.687   3.635   4.605  0.7947  1.7110 -1.6813
 2733SOL    MW410987   0.624   3.635   4.544  0.0005  0.0001 -0.0000
 2734SOL     OW10988   2.063   3.527   4.464 -0.0628  0.6035  0.1826
 2734SOL    HW210989   2.076   3.557   4.374 -2.3814  0.8377 -0.1035
 2734SOL    HW310990   2.079   3.433   4.460  1.7808  0.9070 -0.0505
 2734SOL    MW410991   2.067   3.519   4.452  0.0005  0.0001 -0.0000
 2735SOL     OW10992   1.751   3.118   4.472  0.5924 -0.1341  0.1924
 2735SOL    HW210993   1.828   3.136   4.526  0.7792  1.1463 -0.4716
 2735SOL    HW310994   1.765   3.171   4.393 -0.9641  0.1051  0.0670
 2735SOL    MW410995   1.763   3.127   4.469  0.0005  0.0001 -0.0000
 2736SOL     OW10996   2.247   3.616   4.682 -0.0020 -0.0351 -0.0416
 2736SOL    HW210997   2.218   3.707   4.689 -0.4047 -0.0836 -1.0251
 2736SOL    HW310998   2.199   3.581   4.607 -0.2299 -1.2071  0.6466
 2736SOL    MW410999   2.237   3.623   4.673  0.0005  0.0001 -0.0000
 2737SOL     OW11000   1.149   4.111   4.627 -0.2080  0.0275  0.1118
 2737SOL    HW211001   1.076   4.054   4.602  0.6137 -0.7936 -0.4499
 2737SOL    HW311002   1.227   4.067   4.592  0.3398  2.0528 -1.3064
 2737SOL    MW411003   1.150   4.098   4.619  0.0005  0.0001 -0.0000
 2738SOL     OW11004   1.799   4.367   4.853 -0.2094 -0.2129 -0.1708
 2738SOL    HW211005   1.883   4.322   4.861  0.7656  1.5965 -0.0591
 2738SOL    HW311006   1.737   4.297   4.831  0.8872 -1.9372  1.9897
 2738SOL    MW411007   1.802   4.352   4.851  0.0005  0.0001 -0.0000
 2739SOL     OW11008   2.267   0.370   4.658 -0.0202  0.3435  0.4567
 2739SOL    HW211009   2.322   0.444   4.634  0.6941 -0.1264  0.6281
 2739SOL    HW311010   2.266   0.371   4.754 -0.7798  0.6912  0.4485
 2739SOL    MW411011   2.274   0.380   4.667  0.0005  0.0001 -0.0000
 2740SOL     OW11012   1.399   0.065   4.538 -0.0739 -0.6252 -0.0684
 2740SOL    HW211013   1.360   0.141   4.581 -0.1980 -0.3661 -0.6336
 2740SOL    HW311014   1.359  -0.010   4.582 -0.8519 -0.3636 -0.3161
 2740SOL    MW411015   1.389   0.065   4.549  0.0005  0.0001 -0.0000
 2741SOL     OW11016   1.803   0.406   4.559  0.2950  0.3531  0.7789
 2741SOL    HW211017   1.763   0.319   4.556  0.1139  0.4336  0.8764
 2741SOL    HW311018   1.729   0.467   4.560  0.3623  0.4447  3.2528
 2741SOL    MW411019   1.788   0.403   4.559  0.0005  0.0001 -0.0000
 2742SOL     OW11020   2.337   0.127   4.527  0.1525 -0.2218 -0.0143
 2742SOL    HW211021   2.307   0.140   4.437  1.8296  0.3268 -0.5137
 2742SOL    HW311022   2.289   0.192   4.578 -0.4225 -0.1874 -0.5934
 2742SOL    MW411023   2.327   0.137   4.522  0.0005  0.0001 -0.0000
 2743SOL     OW11024   2.031   0.779   4.662 -0.1083 -0.6390 -0.0549
 2743SOL    HW211025   2.046   0.685   4.654  0.4564 -0.4543 -1.2830
 2743SOL    HW311026   1.942   0.792   4.629 -0.4256 -0.8207  0.7190
 2743SOL    MW411027   2.021   0.768   4.657  0.0005  0.0001 -0.0000
 2744SOL     OW11028   1.596   0.613   4.548  0.1506 -0.3032  0.6236
 2744SOL    HW211029   1.646   0.688   4.579  0.0743  0.7440 -1.6893
 2744SOL    HW311030   1.506   0.645   4.540  0.4385 -0.0544 -2.1216
 2744SOL    MW411031   1.591   0.627   4.551  0.0005  0.0001 -0.0000
 2745SOL     OW11032   2.129   1.530   4.664  0.2525 -0.0852  0.2017
 2745SOL    HW211033   2.182   1.468   4.714 -0.9811 -1.7950 -0.5605
 2745SOL    HW311034   2.042   1.526   4.705  0.3207  1.6390  0.5536
 2745SOL    MW411035   2.125   1.521   4.676  0.0005  0.0001 -0.0000
 2746SOL     OW11036   1.093   2.016   4.498 -0.0234  0.2415  0.5815
 2746SOL    HW211037   1.172   1.966   4.520  0.7366  0.8391 -0.7287
 2746SOL    HW311038   1.103   2.098   4.546  0.4881  0.5889 -0.1092
 2746SOL    MW411039   1.105   2.020   4.507  0.0005  0.0001 -0.0000
 2747SOL     OW11040   1.607   1.598   4.660 -0.0337  0.1825 -0.2031
 2747SOL    HW211041   1.576   1.518   4.617  0.3334  0.2423 -0.5830
 2747SOL    HW311042   1.692   1.574   4.696 -0.0752  0.3055 -0.0239
 2747SOL    MW411043   1.614   1.584   4.659  0.0005  0.0001 -0.0000
 2748SOL     OW11044   1.574   1.956   4.449  0.1917  0.5260  0.9328
 2748SOL    HW211045   1.486   1.928   4.474  0.7000  0.6632  2.9588
 2748SOL    HW311046   1.631   1.884   4.476  1.0186  1.6665  2.3042
 2748SOL    MW411047   1.570   1.943   4.456  0.0005  0.0001 -0.0000
 2749SOL     OW11048   1.781   1.782   4.530 -0.4726 -0.1007  0.2046
 2749SOL    HW211049   1.725   1.725   4.583 -1.1395 -0.2550 -0.6532
 2749SOL    HW311050   1.795   1.733   4.449 -2.1744  1.5078 -1.1063
 2749SOL    MW411051   1.775   1.768   4.526  0.0005  0.0001 -0.0000
 2750SOL     OW11052   1.983   1.993   4.505 -0.2084 -0.1188  0.9399
 2750SOL    HW211053   1.927   1.916   4.499  1.2371 -1.1106 -0.2391
 2750SOL    HW311054   2.010   2.010   4.415  1.1107  0.5378  1.4425
 2750SOL    MW411055   1.979   1.985   4.492  0.0005  0.0001 -0.0000
 2751SOL     OW11056   1.778   2.177   4.530 -0.1360  0.1913 -0.0668
 2751SOL    HW211057   1.705   2.121   4.504 -0.1755  0.2148 -0.0082
 2751SOL    HW311058   1.857   2.128   4.505 -0.1664  0.0075  0.1948
 2751SOL    MW411059   1.779   2.163   4.523  0.0005  0.0001 -0.0000
 2752SOL     OW11060   2.219   2.454   4.526 -0.0632 -0.1240  0.1725
 2752SOL    HW211061   2.139   2.412   4.558  1.0734 -1.2562  1.5853
 2752SOL    HW311062   2.208   2.456   4.431 -1.5526 -0.7142  0.3142
 2752SOL    MW411063   2.207   2.449   4.518  0.0005  0.0001 -0.0000
 2753SOL     OW11064   2.271   2.712   4.624 -0.0981 -0.0279  0.0626
 2753SOL    HW211065   2.336   2.686   4.689 -1.3611  1.2056  1.8688
 2753SOL    HW311066   2.234   2.629   4.592  2.4598 -0.7510 -1.1506
 2753SOL    MW411067   2.275   2.698   4.628  0.0005  0.0001 -0.0000
 2754SOL     OW11068   1.576   4.112   4.589 -0.1403  0.5891 -0.2153
 2754SOL    HW211069   1.564   4.200   4.553 -1.9635  1.1505  1.6491
 2754SOL    HW311070   1.592   4.127   4.682  0.8448 -1.0068 -0.1153
 2754SOL    MW411071   1.577   4.126   4.597  0.0005  0.0001 -0.0000
 2755SOL     OW11072   2.156   3.269   4.415  0.5193 -0.2801 -0.0812
 2755SOL    HW211073   2.183   3.262   4.324  0.2030 -2.5949 -0.0243
 2755SOL    HW311074   2.229   3.233   4.465 -0.1451 -0.9219  0.4437
 2755SOL    MW411075   2.169   3.263   4.409  0.0005  0.0001 -0.0000
 2756SOL     OW11076   1.994   3.173   4.608 -0.0690  0.1766  0.1667
 2756SOL    HW211077   2.011   3.226   4.686  0.3616 -0.8535  0.7832
 2756SOL    HW311078   2.049   3.212   4.540  1.0859 -0.1465  0.9009
 2756SOL    MW411079   2.003   3.185   4.609  0.0005  0.0001 -0.0000
 2757SOL     OW11080   2.479   3.694   4.516  0.1144 -0.3323 -0.2007
 2757SOL    HW211081   2.402   3.689   4.572 -0.1704  0.1390 -0.5470
 2757SOL    HW311082   2.509   3.785   4.524  1.3149 -0.8033  0.8328
 2757SOL    MW411083   2.473   3.705   4.524  0.0005  0.0001 -0.0000
 2758SOL     OW11084   1.954   4.057   4.597  0.2209 -0.7567 -0.4267
 2758SOL    HW211085   1.885   3.991   4.602  1.0019 -1.7186 -1.7737
 2758SOL    HW311086   1.937   4.102   4.514 -0.1039  0.5232  0.3251
 2758SOL    MW411087   1.943   4.054   4.587  0.0005  0.0001 -0.0000
 2759SOL     OW11088   2.206   3.914   4.642 -0.0036 -0.1122 -0.1886
 2759SOL    HW211089   2.127   3.957   4.609  0.7860  0.3159 -1.5351
 2759SOL    HW311090   2.278   3.953   4.593  1.0100 -0.8822  0.6481
 2759SOL    MW411091   2.205   3.925   4.631  0.0005  0.0001 -0.0000
 2760SOL     OW11092   1.743   3.870   4.547  0.1818  0.6494  0.0215
 2760SOL    HW211093   1.671   3.930   4.566  0.0091  0.6213 -0.5503
 2760SOL    HW311094   1.751   3.870   4.452  0.6542  0.3183  0.0565
 2760SOL    MW411095   1.735   3.878   4.537  0.0005  0.0001 -0.0000
 2761SOL     OW11096   2.049   4.257   4.803  0.2302  0.1102  0.0756
 2761SOL    HW211097   2.143   4.269   4.792  0.2803 -0.2533  0.1066
 2761SOL    HW311098   2.031   4.170   4.766 -0.0326  0.0263  0.3955
 2761SOL    MW411099   2.059   4.247   4.797  0.0005  0.0001 -0.0000
 2762SOL     OW11100   1.793   4.532   4.617  0.1914  0.1166  0.0684
 2762SOL    HW211101   1.862   4.477   4.580  0.4553  0.5391 -0.0687
 2762SOL    HW311102   1.795   4.512   4.711  0.6488  0.2898  0.0977
 2762SOL    MW411103   1.802   4.522   4.624  0.0005  0.0001 -0.0000
 2763SOL     OW11104   2.031   4.385   4.551 -0.2975  0.3089  0.1368
 2763SOL    HW211105   2.043   4.338   4.633  0.3596 -0.7266 -0.5416
 2763SOL    HW311106   2.111   4.436   4.540 -0.5435  0.7384  0.3221
 2763SOL    MW411107   2.043   4.386   4.560  0.0005  0.0001 -0.0000
 2764SOL     OW11108   2.277   4.492   4.495  0.4050  0.7487  0.2036
 2764SOL    HW211109   2.337   4.476   4.422 -2.0120 -0.5036 -1.5914
 2764SOL    HW311110   2.263   4.587   4.494 -0.3269  0.6473 -1.5856
 2764SOL    MW411111   2.283   4.502   4.485  0.0005  0.0001 -0.0000
 2765SOL     OW11112   1.318   1.602   4.679  0.4606 -0.2546 -0.2908
 2765SOL    HW211113   1.412   1.597   4.696  0.4449 -0.3294 -0.2241
 2765SOL    HW311114   1.297   1.517   4.640  0.3061 -0.4724  0.2630
 2765SOL    MW411115   1.328   1.590   4.676  0.0005  0.0001 -0.0000
 2766SOL     OW11116   2.649   0.138   4.504  0.0362 -0.2869 -0.0064
 2766SOL    HW211117   2.560   0.153   4.537  0.3383 -1.5516  1.4254
 2766SOL    HW311118   2.640   0.144   4.409 -1.5464 -0.1973  0.1298
 2766SOL    MW411119   2.636   0.141   4.496  0.0005  0.0001 -0.0000
 2767SOL     OW11120   2.474   0.861   4.635  0.4437 -0.3870 -0.2680
 2767SOL    HW211121   2.399   0.884   4.579  0.1810  0.1978  0.3184
 2767SOL    HW311122   2.551   0.886   4.583  0.1995  0.2101 -0.3485
 2767SOL    MW411123   2.474   0.867   4.621  0.0005  0.0001 -0.0000
 2768SOL     OW11124   2.937   0.766   4.548  0.0460 -0.5383 -0.1423
 2768SOL    HW211125   3.004   0.832   4.530 -0.8530  0.1044 -1.2069
 2768SOL    HW311126   2.972   0.685   4.512  0.7914 -0.4713  0.4239
 2768SOL    MW411127   2.951   0.764   4.541  0.0005  0.0001 -0.0000
 2769SOL     OW11128   2.276   1.295   4.695  0.1739  0.0394 -0.2168
 2769SOL    HW211129   2.293   1.210   4.735  0.1660 -0.1027 -0.5150
 2769SOL    HW311130   2.355   1.315   4.645  0.7657  0.8848  1.0293
 2769SOL    MW411131   2.289   1.286   4.694  0.0005  0.0001 -0.0000
 2770SOL     OW11132   2.479   1.328   4.514 -0.0377  0.2042 -0.2737
 2770SOL    HW211133   2.552   1.268   4.529  0.4187  0.7152 -0.4420
 2770SOL    HW311134   2.512   1.414   4.540 -1.0400  0.2224  0.9912
 2770SOL    MW411135   2.493   1.331   4.519  0.0005  0.0001 -0.0000
 2771SOL     OW11136   2.563   1.578   4.579  0.2852 -0.0820  0.1876
 2771SOL    HW211137   2.629   1.644   4.558 -1.0685  0.8149 -1.3315
 2771SOL    HW311138   2.482   1.627   4.589 -0.5964 -1.4289 -0.2405
 2771SOL    MW411139   2.561   1.593   4.578  0.0005  0.0001 -0.0000
 2772SOL     OW11140   2.307   1.727   4.559  0.0197  0.3487  0.1415
 2772SOL    HW211141   2.278   1.815   4.583 -1.9915  0.0634 -1.1379
 2772SOL    HW311142   2.242   1.668   4.598  0.1986 -0.4474 -0.7365
 2772SOL    MW411143   2.295   1.731   4.567  0.0005  0.0001 -0.0000
 2773SOL     OW11144   2.233   1.984   4.636 -0.3043  0.2740  0.0538
 2773SOL    HW211145   2.142   1.971   4.608  0.2235  0.1876 -1.6971
 2773SOL    HW311146   2.231   1.976   4.731 -1.8910 -1.1927 -0.0889
 2773SOL    MW411147   2.221   1.981   4.645  0.0005  0.0001 -0.0000
 2774SOL     OW11148   2.466   2.134   4.524 -0.0314 -0.4500 -0.4370
 2774SOL    HW211149   2.382   2.101   4.555  0.1453  0.8197  1.4784
 2774SOL    HW311150   2.531   2.077   4.565  0.1340  0.1432  0.1348
 2774SOL    MW411151   2.463   2.122   4.534  0.0005  0.0001 -0.0000
 2775SOL     OW11152   2.760   2.465   4.464  0.0761 -0.6113  0.5068
 2775SOL    HW211153   2.665   2.460   4.478  0.0396 -0.0961  0.4376
 2775SOL    HW311154   2.782   2.557   4.476  0.3169 -0.4471 -1.0676
 2775SOL    MW411155   2.750   2.477   4.467  0.0005  0.0001 -0.0000
 2776SOL     OW11156   2.447   2.625   4.806  0.1178  0.5121 -0.0236
 2776SOL    HW211157   2.513   2.693   4.794 -0.0294  0.3419 -1.9470
 2776SOL    HW311158   2.475   2.554   4.749 -1.0806 -0.0417  0.0602
 2776SOL    MW411159   2.459   2.625   4.797  0.0005  0.0001 -0.0000
 2777SOL     OW11160   2.038   2.901   4.537  0.1922 -1.0037  0.2438
 2777SOL    HW211161   2.008   2.975   4.590  1.0723  0.9955 -1.9557
 2777SOL    HW311162   2.116   2.869   4.582 -0.0923 -0.4820  1.1176
 2777SOL    MW411163   2.044   2.907   4.550  0.0005  0.0001 -0.0000
 2778SOL     OW11164   2.449   2.879   4.493 -0.0551 -0.0158 -0.6141
 2778SOL    HW211165   2.381   2.819   4.524  0.1609  0.0886  0.0599
 2778SOL    HW311166   2.419   2.966   4.520  0.4114  0.0182 -0.1946
 2778SOL    MW411167   2.436   2.883   4.501  0.0005  0.0001 -0.0000
 2779SOL     OW11168   2.358   3.152   4.596  0.2247  0.0895 -0.2925
 2779SOL    HW211169   2.432   3.199   4.557  2.4319 -2.4052  0.7260
 2779SOL    HW311170   2.339   3.199   4.677 -0.5063  1.7892 -1.4241
 2779SOL    MW411171   2.365   3.164   4.602  0.0005  0.0001 -0.0000
 2780SOL     OW11172   1.335   4.288   4.826  0.0443  0.1118  0.4850
 2780SOL    HW211173   1.331   4.368   4.773  0.3719  0.2032  0.5986
 2780SOL    HW311174   1.267   4.232   4.789  1.0162 -0.2686 -0.7641
 2780SOL    MW411175   1.326   4.291   4.814  0.0005  0.0001 -0.0000
 2781SOL     OW11176   2.685   3.941   4.505 -0.4936  0.0898  0.5371
 2781SOL    HW211177   2.597   3.976   4.518 -0.3563  0.5239  0.3070
 2781SOL    HW311178   2.714   3.979   4.422 -0.1952 -0.2694  0.4749
 2781SOL    MW411179   2.677   3.951   4.496  0.0005  0.0001 -0.0000
 2782SOL     OW11180   2.173   3.355   4.843  0.1845 -0.2535  0.1510
 2782SOL    HW211181   2.136   3.351   4.931 -0.2675 -1.7582 -0.0865
 2782SOL    HW311182   2.211   3.443   4.836 -2.2680  0.8974  0.8347
 2782SOL    MW411183   2.173   3.366   4.854  0.0005  0.0001 -0.0000
 2783SOL     OW11184   3.348   3.966   4.866  0.5321  0.1934 -0.0408
 2783SOL    HW211185   3.313   4.055   4.877  0.0486 -0.0229  0.2098
 2783SOL    HW311186   3.307   3.916   4.937  1.1744 -0.1202  0.1090
 2783SOL    MW411187   3.338   3.971   4.877  0.0005  0.0001 -0.0000
 2784SOL     OW11188   3.077   3.963   4.505 -0.4981  0.2063  0.0787
 2784SOL    HW211189   3.013   3.892   4.507 -1.5963  1.1205 -1.3598
 2784SOL    HW311190   3.154   3.927   4.548 -1.3248 -1.5652  0.1339
 2784SOL    MW411191   3.079   3.949   4.511  0.0005  0.0001 -0.0000
 2785SOL     OW11192   2.415   4.064   4.545  0.0201 -0.4124 -0.3586
 2785SOL    HW211193   2.378   4.132   4.601 -1.0669 -1.2064 -0.0965
 2785SOL    HW311194   2.373   4.077   4.460 -0.0806 -0.6631 -0.3479
 2785SOL    MW411195   2.405   4.075   4.541  0.0005  0.0001 -0.0000
 2786SOL     OW11196   2.328   4.299   4.693 -0.3412  0.6224  0.5128
 2786SOL    HW211197   2.316   4.353   4.615 -0.3155  0.4250  0.3733
 2786SOL    HW311198   2.393   4.346   4.745  1.3356 -0.3857 -0.6243
 2786SOL    MW411199   2.335   4.312   4.690  0.0005  0.0001 -0.0000
 2787SOL     OW11200   3.057   0.489   4.455  0.1933 -0.3210 -0.2386
 2787SOL    HW211201   3.040   0.496   4.361  0.8472  0.5251 -0.3013
 2787SOL    HW311202   3.150   0.511   4.464  0.1237 -0.3674  0.6109
 2787SOL    MW411203   3.067   0.493   4.444  0.0005  0.0001 -0.0000
 2788SOL     OW11204   2.899   0.018   4.577  0.2808 -0.2965 -0.0009
 2788SOL    HW211205   2.964   0.078   4.541 -0.2661  0.8407  0.8896
 2788SOL    HW311206   2.816   0.066   4.572 -0.3563 -1.4012 -0.3163
 2788SOL    MW411207   2.897   0.032   4.572  0.0005  0.0001 -0.0000
 2789SOL     OW11208   3.058   0.216   4.490 -0.1779  0.4364  0.0156
 2789SOL    HW211209   3.058   0.312   4.490  0.4910  0.4425 -0.8332
 2789SOL    HW311210   3.128   0.192   4.551 -1.7913  0.4615  1.9281
 2789SOL    MW411211   3.067   0.225   4.498  0.0005  0.0001 -0.0000
 2790SOL     OW11212   2.708   0.948   4.507 -0.4843 -0.4292 -0.1816
 2790SOL    HW211213   2.772   0.882   4.534  1.4134  1.3998 -0.0806
 2790SOL    HW311214   2.703   0.939   4.412 -0.2852 -0.7651 -0.1614
 2790SOL    MW411215   2.716   0.938   4.498  0.0005  0.0001 -0.0000
 2791SOL     OW11216   3.577   0.675   4.772  0.1785  0.3178 -0.1655
 2791SOL    HW211217   3.660   0.709   4.738  0.3394 -0.0084 -0.1022
 2791SOL    HW311218   3.578   0.582   4.750  0.0719  0.2014  0.3119
 2791SOL    MW411219   3.588   0.667   4.765  0.0005  0.0001 -0.0000
 2792SOL     OW11220   2.226   0.913   4.479 -0.0958 -0.4640 -0.7281
 2792SOL    HW211221   2.187   0.996   4.505  2.0211  1.0278 -2.1612
 2792SOL    HW311222   2.175   0.847   4.526 -1.2157  1.6770  1.1703
 2792SOL    MW411223   2.214   0.915   4.489  0.0005  0.0001 -0.0000
 2793SOL     OW11224   2.767   1.207   4.557  0.3944 -0.5120 -0.0183
 2793SOL    HW211225   2.843   1.238   4.508 -0.0982 -0.7624 -0.9579
 2793SOL    HW311226   2.757   1.116   4.529  0.7338 -0.9769  1.3426
 2793SOL    MW411227   2.776   1.199   4.547  0.0005  0.0001 -0.0000
 2794SOL     OW11228   3.005   1.339   4.455  0.1402 -0.1407 -0.2114
 2794SOL    HW211229   3.000   1.429   4.488  0.4890  0.1037 -0.8136
 2794SOL    HW311230   2.986   1.347   4.362 -2.1645 -0.9914  0.1546
 2794SOL    MW411231   3.002   1.352   4.447  0.0005  0.0001 -0.0000
 2795SOL     OW11232   2.968   1.586   4.574  0.1171 -0.2205  0.0922
 2795SOL    HW211233   2.908   1.654   4.545 -0.9653 -1.2658 -0.1512
 2795SOL    HW311234   2.917   1.533   4.636  1.3515 -0.0355  1.2952
 2795SOL    MW411235   2.953   1.588   4.578  0.0005  0.0001 -0.0000
 2796SOL     OW11236   2.763   1.778   4.517 -0.0316  0.4754  0.0685
 2796SOL    HW211237   2.735   1.853   4.569 -0.7198  0.1359  0.1945
 2796SOL    HW311238   2.744   1.802   4.427 -1.4461 -0.0526  0.2141
 2796SOL    MW411239   2.757   1.791   4.512  0.0005  0.0001 -0.0000
 2797SOL     OW11240   2.719   2.030   4.652 -0.0967 -0.0644 -0.1552
 2797SOL    HW211241   2.721   2.046   4.746 -1.2666  1.3746 -0.3546
 2797SOL    HW311242   2.792   2.082   4.618 -0.3877  0.3394 -0.1666
 2797SOL    MW411243   2.729   2.039   4.660  0.0005  0.0001 -0.0000
 2798SOL     OW11244   2.897   2.195   4.503 -0.3479 -0.1204 -0.4210
 2798SOL    HW211245   2.858   2.279   4.480 -2.7048 -1.2766 -0.8075
 2798SOL    HW311246   2.910   2.151   4.419  1.4318  0.0712 -0.2648
 2798SOL    MW411247   2.894   2.200   4.489  0.0005  0.0001 -0.0000
 2799SOL     OW11248   3.148   2.219   4.615 -0.0300 -0.0696 -0.3606
 2799SOL    HW211249   3.132   2.242   4.706 -1.0579  1.9391 -1.0177
 2799SOL    HW311250   3.062   2.223   4.574  0.5726  0.0514 -1.6341
 2799SOL    MW411251   3.135   2.223   4.622  0.0005  0.0001 -0.0000
 2800SOL     OW11252   2.492   2.432   4.586 -0.2678 -0.1917  0.3570
 2800SOL    HW211253   2.500   2.338   4.571 -1.2834  0.0050 -1.5976
 2800SOL    HW311254   2.401   2.452   4.564 -0.1936  1.1669  1.2303
 2800SOL    MW411255   2.481   2.422   4.581  0.0005  0.0001 -0.0000
 2801SOL     OW11256   3.009   2.981   4.661  0.0946  0.4037  0.1301
 2801SOL    HW211257   3.078   3.040   4.630 -0.5415  1.2089  0.2190
 2801SOL    HW311258   3.041   2.893   4.641  1.5662  0.7214  1.0247
 2801SOL    MW411259   3.022   2.977   4.654  0.0005  0.0001 -0.0000
 2802SOL     OW11260   2.647   2.821   4.663 -0.1755  0.2389  0.9395
 2802SOL    HW211261   2.680   2.903   4.699 -2.4071  1.1226  1.0340
 2802SOL    HW311262   2.578   2.847   4.601 -1.0036 -1.5488  1.0675
 2802SOL    MW411263   2.642   2.835   4.660  0.0005  0.0001 -0.0000
 2803SOL     OW11264   2.602   3.256   4.550 -0.2028  0.1946 -0.1960
 2803SOL    HW211265   2.644   3.190   4.605  0.8270  1.0667  0.0809
 2803SOL    HW311266   2.640   3.244   4.463  0.6966  1.0339  0.0722
 2803SOL    MW411267   2.613   3.246   4.546  0.0005  0.0001 -0.0000
 2804SOL     OW11268   2.756   3.070   4.730 -0.0836  0.2911 -0.4950
 2804SOL    HW211269   2.844   3.060   4.694  0.1872 -2.0813  0.7342
 2804SOL    HW311270   2.769   3.122   4.810  0.4315 -1.2933  0.4763
 2804SOL    MW411271   2.769   3.076   4.736  0.0005  0.0001 -0.0000
 2805SOL     OW11272   2.867   3.738   4.513 -0.0384 -0.0694  0.3182
 2805SOL    HW211273   2.790   3.795   4.508 -0.0929  0.0811  2.4155
 2805SOL    HW311274   2.838   3.663   4.566  0.4185 -1.4330 -1.3171
 2805SOL    MW411275   2.853   3.736   4.519  0.0005  0.0001 -0.0000
 2806SOL     OW11276   3.320   3.894   4.604  0.0229 -0.0719  0.4480
 2806SOL    HW211277   3.371   3.814   4.594 -0.8813 -0.5425 -0.4808
 2806SOL    HW311278   3.336   3.922   4.694  1.0765 -0.7855  0.4821
 2806SOL    MW411279   3.329   3.887   4.614  0.0005  0.0001 -0.0000
 2807SOL     OW11280   3.896   3.839   4.672 -0.3408  0.1367 -0.1280
 2807SOL    HW211281   3.904   3.778   4.745 -0.7005 -0.3975 -0.5295
 2807SOL    HW311282   3.857   3.787   4.602  0.6530  0.4563 -0.9296
 2807SOL    MW411283   3.892   3.824   4.672  0.0005  0.0001 -0.0000
 2808SOL     OW11284   2.708   3.515   4.614  0.1383  0.3610 -0.3517
 2808SOL    HW211285   2.631   3.569   4.596  1.4925  2.0442 -1.3055
 2808SOL    HW311286   2.677   3.425   4.605 -1.5309  1.0186 -1.5015
 2808SOL    MW411287   2.694   3.510   4.610  0.0005  0.0001 -0.0000
 2809SOL     OW11288   2.911   4.148   4.644  0.2228 -0.1875 -0.0086
 2809SOL    HW211289   2.837   4.090   4.662  1.6405 -1.1875  2.9038
 2809SOL    HW311290   2.981   4.090   4.614  0.5537  0.4658 -0.5195
 2809SOL    MW411291   2.910   4.133   4.642  0.0005  0.0001 -0.0000
 2810SOL     OW11292   2.974   4.417   4.523 -0.2306  0.3956 -0.0078
 2810SOL    HW211293   2.925   4.347   4.566  0.5309 -0.0254  0.1788
 2810SOL    HW311294   2.929   4.497   4.550 -0.6570  0.0320  0.3745
 2810SOL    MW411295   2.962   4.418   4.532  0.0005  0.0001 -0.0000
 2811SOL     OW11296   3.345   0.527   4.461  0.4717 -0.0162 -0.4096
 2811SOL    HW211297   3.381   0.541   4.373  0.0522  0.2151 -0.5481
 2811SOL    HW311298   3.347   0.614   4.501 -2.1238  0.4790 -1.2623
 2811SOL    MW411299   3.350   0.540   4.455  0.0005  0.0001 -0.0000
 2812SOL     OW11300   2.452   0.582   4.595  0.1819  0.3369  0.0647
 2812SOL    HW211301   2.539   0.549   4.575 -0.1119  0.3086 -1.2062
 2812SOL    HW311302   2.465   0.676   4.608  0.3131  0.4298 -0.7092
 2812SOL    MW411303   2.465   0.590   4.594  0.0005  0.0001 -0.0000
 2813SOL     OW11304   2.338   1.044   4.798 -0.7478  0.5663  0.0425
 2813SOL    HW211305   2.385   0.989   4.735 -0.4786  0.1452  0.6091
 2813SOL    HW311306   2.275   0.985   4.839 -0.1801  0.5735  0.9413
 2813SOL    MW411307   2.336   1.029   4.795  0.0005  0.0001 -0.0000
 2814SOL     OW11308   2.684   0.425   4.460 -0.2461  0.5658 -0.2058
 2814SOL    HW211309   2.691   0.330   4.468  0.0584  0.5834 -0.2729
 2814SOL    HW311310   2.772   0.457   4.480  0.4379  0.6481 -3.1287
 2814SOL    MW411311   2.697   0.417   4.464  0.0005  0.0001 -0.0000
 2815SOL     OW11312   3.395   0.777   4.590  0.0809 -0.1877 -0.2988
 2815SOL    HW211313   3.467   0.813   4.539 -0.5645  2.7168  0.7391
 2815SOL    HW311314   3.437   0.734   4.665  0.7892  0.2664 -0.4339
 2815SOL    MW411315   3.410   0.776   4.593  0.0005  0.0001 -0.0000
 2816SOL     OW11316   3.447   1.283   4.508  0.3275 -0.2730 -0.2611
 2816SOL    HW211317   3.373   1.265   4.566  0.4543  1.4309  0.4610
 2816SOL    HW311318   3.519   1.233   4.546  0.2353  0.2875  0.6681
 2816SOL    MW411319   3.447   1.274   4.521  0.0005  0.0001 -0.0000
 2817SOL     OW11320   2.773   1.435   4.721  0.2116  0.4409 -0.4464
 2817SOL    HW211321   2.697   1.473   4.676  1.5253  2.3125 -1.1458
 2817SOL    HW311322   2.795   1.357   4.669 -0.8620  0.2155 -0.5758
 2817SOL    MW411323   2.766   1.430   4.708  0.0005  0.0001 -0.0000
 2818SOL     OW11324   3.960   1.030   4.682 -0.3270 -0.2738 -0.0265
 2818SOL    HW211325   4.000   1.081   4.752 -0.0967 -2.1364  1.2348
 2818SOL    HW311326   4.032   1.013   4.621 -0.1661 -0.0017  0.0860
 2818SOL    MW411327   3.975   1.034   4.683  0.0005  0.0001 -0.0000
 2819SOL     OW11328   3.465   1.556   4.632 -0.3200  0.2864  0.1415
 2819SOL    HW211329   3.394   1.600   4.586 -0.1751  0.3780  0.0058
 2819SOL    HW311330   3.468   1.468   4.593 -0.5298  0.1952  0.3309
 2819SOL    MW411331   3.456   1.550   4.621  0.0005  0.0001 -0.0000
 2820SOL     OW11332   3.244   1.676   4.497 -0.3732  0.0923 -0.3160
 2820SOL    HW211333   3.252   1.769   4.517  0.6386  0.0214 -0.3545
 2820SOL    HW311334   3.169   1.646   4.549 -0.2587  0.7719  0.2444
 2820SOL    MW411335   3.235   1.684   4.507  0.0005  0.0001 -0.0000
 2821SOL     OW11336   3.271   1.965   4.520  0.5276 -0.0113 -0.4717
 2821SOL    HW211337   3.226   2.044   4.550 -0.0094 -1.0315  1.4928
 2821SOL    HW311338   3.286   1.980   4.427 -1.6040  1.4404 -0.6188
 2821SOL    MW411339   3.267   1.977   4.512  0.0005  0.0001 -0.0000
 2822SOL     OW11340   3.708   1.852   4.682  0.1509 -0.0434  0.0193
 2822SOL    HW211341   3.670   1.916   4.622 -1.1269 -1.1571 -0.3837
 2822SOL    HW311342   3.639   1.835   4.746  0.8205 -0.3106  0.6785
 2822SOL    MW411343   3.694   1.858   4.683  0.0005  0.0001 -0.0000
 2823SOL     OW11344   2.828   2.738   4.483 -0.2328 -0.1388 -0.1052
 2823SOL    HW211345   2.774   2.784   4.547 -0.3243 -2.4224  1.5215
 2823SOL    HW311346   2.917   2.747   4.517 -0.1896 -0.6715 -0.0759
 2823SOL    MW411347   2.833   2.745   4.496  0.0005  0.0001 -0.0000
 2824SOL     OW11348   3.519   2.530   4.475 -0.2908 -0.1252 -0.2420
 2824SOL    HW211349   3.432   2.510   4.511 -0.3153  0.6888  0.1677
 2824SOL    HW311350   3.536   2.620   4.503 -0.4797  0.6809 -2.6138
 2824SOL    MW411351   3.510   2.539   4.483  0.0005  0.0001 -0.0000
 2825SOL     OW11352   3.249   2.472   4.507  0.0065 -0.3580  0.1262
 2825SOL    HW211353   3.204   2.461   4.423  0.2303 -0.5255  0.0267
 2825SOL    HW311354   3.249   2.384   4.545  0.1518 -0.3365  0.1751
 2825SOL    MW411355   3.243   2.459   4.501  0.0005  0.0001 -0.0000
 2826SOL     OW11356   3.620   2.803   4.541  0.0906 -0.3642 -0.0192
 2826SOL    HW211357   3.660   2.888   4.523  1.3136 -1.3702 -2.2714
 2826SOL    HW311358   3.693   2.748   4.569 -0.7344 -0.6327  1.6623
 2826SOL    MW411359   3.635   2.807   4.542  0.0005  0.0001 -0.0000
 2827SOL     OW11360   3.220   3.127   4.533 -0.3002  0.1282 -0.0962
 2827SOL    HW211361   3.270   3.048   4.512  1.9638  1.1696  1.2036
 2827SOL    HW311362   3.193   3.161   4.448  1.2786 -0.4299 -0.8452
 2827SOL    MW411363   3.223   3.121   4.519  0.0005  0.0001 -0.0000
 2828SOL     OW11364   3.363   2.894   4.478  0.0206 -0.3945  0.3479
 2828SOL    HW211365   3.355   2.875   4.384 -1.3633 -0.5067  0.4745
 2828SOL    HW311366   3.450   2.862   4.502  0.0793 -1.0646 -0.7328
 2828SOL    MW411367   3.373   2.887   4.469  0.0005  0.0001 -0.0000
 2829SOL     OW11368   4.052   2.594   4.543 -0.1320 -0.1489  0.5081
 2829SOL    HW211369   4.030   2.592   4.450 -0.7141 -0.4210  0.6482
 2829SOL    HW311370   4.095   2.678   4.556  1.5546 -0.8543 -0.3627
 2829SOL    MW411371   4.055   2.605   4.532  0.0005  0.0001 -0.0000
 2830SOL     OW11372   3.654   3.249   4.532 -0.5897 -0.1783 -0.0227
 2830SOL    HW211373   3.705   3.327   4.553 -0.3998  0.0997 -1.4628
 2830SOL    HW311374   3.621   3.265   4.443 -2.3185 -0.8076  0.4847
 2830SOL    MW411375   3.656   3.261   4.523  0.0005  0.0001 -0.0000
 2831SOL     OW11376   3.510   4.082   4.469 -0.0179  0.0844 -0.1579
 2831SOL    HW211377   3.575   4.078   4.539  0.4318 -0.8639 -0.6204
 2831SOL    HW311378   3.437   4.028   4.500 -0.0916  0.1923 -0.1429
 2831SOL    MW411379   3.509   4.074   4.482  0.0005  0.0001 -0.0000
 2832SOL     OW11380   3.219   4.215   4.766 -0.3655 -0.2146  0.0961
 2832SOL    HW211381   3.232   4.310   4.763 -0.8753 -0.1313  0.4393
 2832SOL    HW311382   3.125   4.204   4.778 -0.4612 -0.7848 -1.0955
 2832SOL    MW411383   3.208   4.226   4.767  0.0005  0.0001 -0.0000
 2833SOL     OW11384   3.234   4.457   4.629 -0.1598 -0.6193  0.0815
 2833SOL    HW211385   3.300   4.415   4.573 -1.8177 -1.4433 -1.2962
 2833SOL    HW311386   3.151   4.442   4.584 -1.0082  2.7864  0.3684
 2833SOL    MW411387   3.232   4.449   4.616  0.0005  0.0001 -0.0000
 2834SOL     OW11388   3.436   4.353   4.476  0.4213 -0.3789  0.2500
 2834SOL    HW211389   3.453   4.259   4.473  3.0512 -0.0391  2.4598
 2834SOL    HW311390   3.523   4.393   4.477 -0.6461  2.0139  0.8317
 2834SOL    MW411391   3.450   4.346   4.476  0.0005  0.0001 -0.0000
 2835SOL     OW11392   3.690   4.034   4.681  0.4978  0.1114  0.1252
 2835SOL    HW211393   3.759   3.969   4.670  1.0886  0.4953  1.4678
 2835SOL    HW311394   3.628   3.994   4.742 -0.8957 -0.5496 -1.6774
 2835SOL    MW411395   3.691   4.020   4.688  0.0005  0.0001 -0.0000
 2836SOL     OW11396   3.499   0.141   4.719  0.4531  0.1691 -0.6533
 2836SOL    HW211397   3.534   0.128   4.807  1.0039  0.6852 -0.7954
 2836SOL    HW311398   3.407   0.117   4.727  0.8630 -1.3793 -0.3195
 2836SOL    MW411399   3.491   0.136   4.732  0.0005  0.0001 -0.0000
 2837SOL     OW11400   3.176   0.909   4.491 -0.0381 -0.1302  0.3130
 2837SOL    HW211401   3.188   0.992   4.537  0.5291  0.1675 -0.3692
 2837SOL    HW311402   3.236   0.849   4.535  0.7080  0.2256 -0.2086
 2837SOL    MW411403   3.185   0.912   4.503  0.0005  0.0001 -0.0000
 2838SOL     OW11404   3.206   1.160   4.619 -0.2998 -0.0059  0.1875
 2838SOL    HW211405   3.212   1.161   4.715 -2.2913  1.1887  0.3273
 2838SOL    HW311406   3.144   1.230   4.598 -0.8027 -1.0390 -1.9102
 2838SOL    MW411407   3.199   1.169   4.629  0.0005  0.0001 -0.0000
 2839SOL     OW11408   4.113   1.440   4.602  0.1617  0.2497  0.0639
 2839SOL    HW211409   4.159   1.373   4.552  1.4855  0.1614  1.3741
 2839SOL    HW311410   4.020   1.424   4.583  0.2873 -3.3229  1.9996
 2839SOL    MW411411   4.107   1.429   4.593  0.0005  0.0001 -0.0000
 2840SOL     OW11412   3.728   1.164   4.576  0.1218  0.3715 -0.0288
 2840SOL    HW211413   3.767   1.251   4.579  0.7901  0.1230 -1.1772
 2840SOL    HW311414   3.800   1.105   4.600  0.2457 -0.0219 -1.3322
 2840SOL    MW411415   3.743   1.168   4.580  0.0005  0.0001 -0.0000
 2841SOL     OW11416   4.126   0.962   4.486  0.4660  0.2520 -0.2733
 2841SOL    HW211417   4.197   0.914   4.529 -0.1054  0.0872  0.4950
 2841SOL    HW311418   4.104   0.909   4.410  1.0465  0.2132 -0.4155
 2841SOL    MW411419   4.132   0.949   4.482  0.0005  0.0001 -0.0000
 2842SOL     OW11420   4.292   0.563   4.577 -0.2612  0.4138  0.2476
 2842SOL    HW211421   4.223   0.511   4.619 -1.0436  0.3329 -1.1064
 2842SOL    HW311422   4.282   0.545   4.484  3.4807 -1.9207  0.1948
 2842SOL    MW411423   4.282   0.554   4.570  0.0005  0.0001 -0.0000
 2843SOL     OW11424   3.669   1.651   4.494 -0.2958  0.5436 -0.0687
 2843SOL    HW211425   3.712   1.713   4.553  0.6826 -1.2259  1.1267
 2843SOL    HW311426   3.589   1.626   4.541 -0.0701 -0.0264  0.0144
 2843SOL    MW411427   3.664   1.656   4.508  0.0005  0.0001 -0.0000
 2844SOL     OW11428   3.978   1.854   4.631  0.2683  0.2797  0.1778
 2844SOL    HW211429   3.889   1.851   4.667  0.9565 -0.5163  1.8648
 2844SOL    HW311430   4.027   1.910   4.692  1.3857 -0.8573  0.3467
 2844SOL    MW411431   3.973   1.861   4.644  0.0005  0.0001 -0.0000
 2845SOL     OW11432   3.541   2.038   4.556 -0.3078  0.2798 -0.4292
 2845SOL    HW211433   3.577   2.063   4.471 -0.6837 -1.4217 -1.1081
 2845SOL    HW311434   3.462   1.988   4.535 -0.6114  0.1667  0.9311
 2845SOL    MW411435   3.535   2.035   4.542  0.0005  0.0001 -0.0000
 2846SOL     OW11436   4.164   2.041   4.750 -0.1379  0.8485  0.2598
 2846SOL    HW211437   4.146   2.132   4.774  0.0573  0.7677  0.7138
 2846SOL    HW311438   4.224   2.048   4.675 -0.4436  1.0952  0.0359
 2846SOL    MW411439   4.169   2.054   4.743  0.0005  0.0001 -0.0000
 2847SOL     OW11440   4.452   1.727   4.491  0.1098  0.0001 -0.2132
 2847SOL    HW211441   4.478   1.714   4.400  0.5405  2.0990 -0.4145
 2847SOL    HW311442   4.357   1.717   4.490  0.2524 -1.4344 -0.6138
 2847SOL    MW411443   4.443   1.724   4.479  0.0005  0.0001 -0.0000
 2848SOL     OW11444   3.967   2.292   4.517 -0.4784 -0.2423 -0.2375
 2848SOL    HW211445   4.008   2.320   4.599  0.7921  0.8464 -1.2299
 2848SOL    HW311446   3.873   2.303   4.532 -0.2291  0.3424  0.9290
 2848SOL    MW411447   3.960   2.297   4.530  0.0005  0.0001 -0.0000
 2849SOL     OW11448   3.789   2.609   4.640  0.0852 -0.4507  0.0658
 2849SOL    HW211449   3.756   2.520   4.631  1.1698 -1.1188  2.3238
 2849SOL    HW311450   3.878   2.605   4.605  0.3776 -0.4203  0.8049
 2849SOL    MW411451   3.796   2.597   4.634  0.0005  0.0001 -0.0000
 2850SOL     OW11452   3.775   3.013   4.469 -0.1821 -0.3623 -0.2925
 2850SOL    HW211453   3.855   3.013   4.522 -0.2327 -1.0345 -0.2062
 2850SOL    HW311454   3.738   3.101   4.480  0.3452 -0.1718 -0.0325
 2850SOL    MW411455   3.781   3.025   4.477  0.0005  0.0001 -0.0000
 2851SOL     OW11456   4.010   2.993   4.622 -0.1194 -0.4685  0.2511
 2851SOL    HW211457   3.988   2.964   4.711 -1.0653 -2.6504 -0.6565
 2851SOL    HW311458   4.083   2.937   4.596  0.5631  0.5827 -0.1518
 2851SOL    MW411459   4.017   2.982   4.630  0.0005  0.0001 -0.0000
 2852SOL     OW11460   3.371   3.392   4.598 -0.0564  0.5740 -0.0526
 2852SOL    HW211461   3.301   3.327   4.589  1.1194 -0.5778 -1.1009
 2852SOL    HW311462   3.451   3.340   4.606  0.9542  1.8910 -1.3328
 2852SOL    MW411463   3.372   3.377   4.598  0.0005  0.0001 -0.0000
 2853SOL     OW11464   3.882   3.424   4.576 -0.2679  0.0770  0.3356
 2853SOL    HW211465   3.932   3.463   4.647 -0.3545  1.1411 -0.1791
 2853SOL    HW311466   3.945   3.369   4.530  0.3308  1.0694 -0.0481
 2853SOL    MW411467   3.897   3.422   4.579  0.0005  0.0001 -0.0000
 2854SOL     OW11468   3.470   3.668   4.547 -0.0143  0.5859  0.3422
 2854SOL    HW211469   3.437   3.586   4.583 -1.0810  0.2534 -1.3358
 2854SOL    HW311470   3.565   3.659   4.550 -0.1108 -0.1832  1.3363
 2854SOL    MW411471   3.478   3.656   4.552  0.0005  0.0001 -0.0000
 2855SOL     OW11472   3.745   3.663   4.527 -0.2423  0.1371 -0.3613
 2855SOL    HW211473   3.751   3.682   4.433  0.2754  1.3095 -0.1021
 2855SOL    HW311474   3.797   3.584   4.539 -1.4520 -0.8253 -1.2823
 2855SOL    MW411475   3.753   3.655   4.516  0.0005  0.0001 -0.0000
 2856SOL     OW11476   0.101   2.895   4.550 -0.0413  0.1747  0.2918
 2856SOL    HW211477   0.082   2.989   4.546 -1.0799 -0.0172  0.5451
 2856SOL    HW311478   0.136   2.873   4.464  1.2603  1.0151  0.5964
 2856SOL    MW411479   0.103   2.904   4.538  0.0005  0.0001 -0.0000
 2857SOL     OW11480   4.104   3.971   4.533 -0.2104  0.1821 -0.4863
 2857SOL    HW211481   4.123   4.046   4.590  1.3084 -0.6510  0.1302
 2857SOL    HW311482   4.034   3.924   4.579 -0.0228  0.3254 -0.0480
 2857SOL    MW411483   4.097   3.975   4.547  0.0005  0.0001 -0.0000
 2858SOL     OW11484   3.714   4.446   4.500 -0.4664  0.4065 -0.3049
 2858SOL    HW211485   3.786   4.444   4.437 -0.1554  1.9331 -0.0056
 2858SOL    HW311486   3.702   4.539   4.521 -1.1072 -0.0116  1.2659
 2858SOL    MW411487   3.722   4.458   4.494  0.0005  0.0001 -0.0000
 2859SOL     OW11488   3.229   0.056   4.683 -0.0940  0.0495  0.1372
 2859SOL    HW211489   3.236  -0.035   4.655  0.2811 -0.7151  2.6188
 2859SOL    HW311490   3.155   0.058   4.743  0.4449  1.1961  0.7921
 2859SOL    MW411491   3.220   0.044   4.687  0.0005  0.0001 -0.0000
 2860SOL     OW11492   3.608   0.928   4.488  0.3259 -0.1466 -0.3895
 2860SOL    HW211493   3.644   1.013   4.513 -0.1037 -0.0022 -0.2597
 2860SOL    HW311494   3.623   0.923   4.394 -1.5662  1.0074 -0.7762
 2860SOL    MW411495   3.615   0.939   4.479  0.0005  0.0001 -0.0000
 2861SOL     OW11496   3.801   0.784   4.612 -0.1217 -0.2111 -0.5395
 2861SOL    HW211497   3.871   0.847   4.631 -0.6859  0.0940  0.5831
 2861SOL    HW311498   3.732   0.836   4.572 -0.5853 -0.1166  0.3797
 2861SOL    MW411499   3.801   0.799   4.609  0.0005  0.0001 -0.0000
 2862SOL     OW11500   0.099   0.496   4.585 -0.1639  0.3043 -0.3400
 2862SOL    HW211501   0.006   0.517   4.592 -0.4543 -1.1659  0.4268
 2862SOL    HW311502   0.118   0.501   4.491 -1.5806 -1.6614 -0.7617
 2862SOL    MW411503   0.089   0.499   4.574  0.0005  0.0001 -0.0000
 2863SOL     OW11504   0.325   0.652   4.616  0.2188  0.7693 -0.2903
 2863SOL    HW211505   0.394   0.613   4.670  0.5269  0.1544 -1.1179
 2863SOL    HW311506   0.254   0.588   4.618  0.1025  0.8966 -0.3454
 2863SOL    MW411507   0.325   0.638   4.623  0.0005  0.0001 -0.0000
 2864SOL     OW11508   4.092   0.360   4.622  0.0602  0.0316 -0.1813
 2864SOL    HW211509   4.053   0.276   4.597 -0.7202 -0.4947  2.6285
 2864SOL    HW311510   4.022   0.424   4.609  0.0562 -0.0407 -0.5187
 2864SOL    MW411511   4.078   0.357   4.617  0.0005  0.0001 -0.0000
 2865SOL     OW11512   3.847   1.409   4.534  0.0012  0.2761 -0.5344
 2865SOL    HW211513   3.850   1.397   4.439  0.1377 -0.2022 -0.4710
 2865SOL    HW311514   3.790   1.485   4.547 -1.4910 -0.7572 -0.9087
 2865SOL    MW411515   3.840   1.417   4.523  0.0005  0.0001 -0.0000
 2866SOL     OW11516   0.027   1.239   4.534  0.1074 -0.0706 -0.0793
 2866SOL    HW211517   0.029   1.334   4.546 -2.6578 -0.0467  0.5738
 2866SOL    HW311518   0.011   1.205   4.622  0.4906 -1.1137 -0.4111
 2866SOL    MW411519   0.025   1.247   4.547  0.0005  0.0001 -0.0000
 2867SOL     OW11520   0.336   1.598   4.699 -0.2764 -0.3348 -0.1494
 2867SOL    HW211521   0.319   1.617   4.791  0.1541  1.7603 -0.4871
 2867SOL    HW311522   0.387   1.673   4.668 -1.0668 -0.6583 -2.2811
 2867SOL    MW411523   0.340   1.610   4.707  0.0005  0.0001 -0.0000
 2868SOL     OW11524   4.176   1.687   4.507 -0.0301  0.0869  0.3175
 2868SOL    HW211525   4.156   1.599   4.538  1.2729  0.0181  0.9974
 2868SOL    HW311526   4.114   1.743   4.553 -0.5121 -0.4150  0.2838
 2868SOL    MW411527   4.165   1.683   4.517  0.0005  0.0001 -0.0000
 2869SOL     OW11528   3.123   2.751   4.525  0.2388  0.3375 -0.2260
 2869SOL    HW211529   3.202   2.804   4.519  0.0174  0.5429 -1.4707
 2869SOL    HW311530   3.155   2.662   4.539  0.6791  0.4648 -0.4091
 2869SOL    MW411531   3.138   2.746   4.526  0.0005  0.0001 -0.0000
 2870SOL     OW11532   4.254   2.097   4.237 -0.0339 -0.1327 -0.2809
 2870SOL    HW211533   4.167   2.061   4.219 -0.6366  0.8287  0.6222
 2870SOL    HW311534   4.267   2.083   4.331  0.7738 -0.2338 -0.4029
 2870SOL    MW411535   4.244   2.090   4.247  0.0005  0.0001 -0.0000
 2871SOL     OW11536   4.296   2.201   4.541 -0.3394  0.2315  0.2192
 2871SOL    HW211537   4.377   2.199   4.592 -0.9654  0.6857  1.2471
 2871SOL    HW311538   4.295   2.288   4.500 -0.4554  0.3412  0.4533
 2871SOL    MW411539   4.307   2.212   4.542  0.0005  0.0001 -0.0000
 2872SOL     OW11540   3.939   2.024   4.413 -0.3763 -0.1189  1.1281
 2872SOL    HW211541   3.958   1.976   4.493 -1.3217 -0.0736  1.3862
 2872SOL    HW311542   3.957   2.115   4.435 -0.8242 -0.0831  1.3509
 2872SOL    MW411543   3.944   2.030   4.426  0.0005  0.0001 -0.0000
 2873SOL     OW11544   3.691   2.322   4.560  0.0215 -0.0022  0.2526
 2873SOL    HW211545   3.628   2.377   4.513 -0.7469 -0.7023  0.4451
 2873SOL    HW311546   3.642   2.242   4.580  1.2624 -0.9484 -0.4340
 2873SOL    MW411547   3.676   2.319   4.556  0.0005  0.0001 -0.0000
 2874SOL     OW11548   4.320   2.544   4.797  0.3380  0.4928  0.1804
 2874SOL    HW211549   4.380   2.576   4.730  0.2971  0.7177  0.2513
 2874SOL    HW311550   4.376   2.528   4.873  0.5159 -0.5353 -0.1542
 2874SOL    MW411551   4.335   2.546   4.798  0.0005  0.0001 -0.0000
 2875SOL     OW11552   4.231   2.847   4.521  0.1395  0.0429  0.6736
 2875SOL    HW211553   4.313   2.840   4.570  1.2381  3.5370 -0.5173
 2875SOL    HW311554   4.258   2.855   4.430 -1.6028 -0.1190  0.1236
 2875SOL    MW411555   4.245   2.847   4.515  0.0005  0.0001 -0.0000
 2876SOL     OW11556   4.093   3.250   4.540  0.2229  0.3049  0.7191
 2876SOL    HW211557   4.080   3.244   4.445  1.8497  0.3815  0.4816
 2876SOL    HW311558   4.043   3.176   4.575 -1.0707  0.7598 -0.1179
 2876SOL    MW411559   4.085   3.239   4.532  0.0005  0.0001 -0.0000
 2877SOL     OW11560   0.211   3.439   4.471  0.0453 -0.1540 -0.1176
 2877SOL    HW211561   0.217   3.489   4.390 -2.0214  0.1016 -0.1371
 2877SOL    HW311562   0.128   3.466   4.510  0.1578 -1.6124  1.1866
 2877SOL    MW411563   0.201   3.449   4.465  0.0005  0.0001 -0.0000
 2878SOL     OW11564   4.127   4.223   4.653 -0.0799 -0.0969  0.3220
 2878SOL    HW211565   4.151   4.240   4.744 -1.3835  0.7765  0.5102
 2878SOL    HW311566   4.037   4.254   4.645  0.1597  0.2384 -1.3787
 2878SOL    MW411567   4.118   4.229   4.664  0.0005  0.0001 -0.0000
 2879SOL     OW11568   3.680   0.064   4.531 -0.4023 -0.0645 -0.0274
 2879SOL    HW211569   3.608   0.099   4.584 -0.6084  0.7233 -0.8067
 2879SOL    HW311570   3.667   0.104   4.445  1.8338  1.2710  0.2220
 2879SOL    MW411571   3.669   0.074   4.527  0.0005  0.0001 -0.0000
 2880SOL     OW11572   4.288   3.601   4.855  0.5310  0.2709  0.1340
 2880SOL    HW211573   4.330   3.686   4.864  0.3444  0.3456  0.2979
 2880SOL    HW311574   4.360   3.538   4.857  0.7844  0.5021 -1.2881
 2880SOL    MW411575   4.303   3.604   4.856  0.0005  0.0001 -0.0000
 2881SOL     OW11576   3.555   0.422   4.639 -0.2687 -0.0235  0.1661
 2881SOL    HW211577   3.478   0.437   4.584 -1.5299  1.4765  2.2643
 2881SOL    HW311578   3.546   0.332   4.669 -0.0340 -0.5635 -1.3411
 2881SOL    MW411579   3.544   0.412   4.636  0.0005  0.0001 -0.0000
 2882SOL     OW11580   4.322   4.416   4.238  0.0296 -0.0384 -0.0299
 2882SOL    HW211581   4.395   4.363   4.207 -0.2019 -0.0709 -0.5289
 2882SOL    HW311582   4.323   4.406   4.333  1.2518  0.7170  0.0457
 2882SOL    MW411583   4.332   4.408   4.246  0.0005  0.0001 -0.0000
 2883NA      NA11584   2.666   3.665   0.000  0.4166  0.2237  0.1648
   4.49070   4.66690  10.00000
