Gromacs Runs On Most of All Computer Systems in water t= 70000.00000 step= 70000000
11584
    1RU5    O5'    1   2.698   2.163   4.533 -0.3495  0.4918  0.0776
    1RU5    H5T    2   2.612   2.120   4.533 -0.2136  0.2141  1.3651
    1RU5    C5'    3   2.708   2.253   4.423 -0.0142 -0.4865  0.5191
    1RU5   H5'1    4   2.669   2.205   4.334  0.1754  0.1475  0.0929
    1RU5   H5'2    5   2.812   2.285   4.414 -0.6694  1.5011 -0.1449
    1RU5    C4'    6   2.619   2.377   4.443  0.4922 -0.2770  0.8475
    1RU5    H4'    7   2.643   2.448   4.364 -0.5172 -2.2398 -1.2911
    1RU5    O4'    8   2.484   2.349   4.440 -0.0133 -0.0034  0.2731
    1RU5    C1'    9   2.422   2.469   4.479 -0.3707 -0.5870  0.1602
    1RU5    H1'   10   2.415   2.536   4.393  0.0230 -1.0377 -0.2300
    1RU5     N1   11   2.286   2.445   4.534  0.0611  0.1989 -0.1069
    1RU5     C6   12   2.258   2.317   4.585 -0.3063 -0.3241  0.4640
    1RU5     H6   13   2.333   2.244   4.610 -1.6613 -1.6546  0.7391
    1RU5     C5   14   2.132   2.272   4.593  0.3674  0.4129  0.5214
    1RU5     H5   15   2.109   2.174   4.631 -2.2618 -0.2764 -2.5895
    1RU5     C4   16   2.022   2.359   4.551  0.0783 -0.4229  0.0135
    1RU5     O4   17   1.904   2.332   4.564  0.4581  0.5744 -0.0633
    1RU5     N3   18   2.056   2.482   4.501 -0.1225  0.3812  0.3503
    1RU5     H3   19   1.972   2.534   4.480  0.7128  0.8025 -2.0779
    1RU5     C2   20   2.188   2.532   4.493  0.0510  0.0434 -0.3728
    1RU5     O2   21   2.205   2.651   4.457  0.4469  0.3657 -0.0680
    1RU5    C3'   22   2.638   2.443   4.577 -0.1923  0.1724 -0.1990
    1RU5    H3'   23   2.640   2.364   4.652 -2.6756  2.2499  2.1453
    1RU5    C2'   24   2.510   2.529   4.585  0.5794 -0.2094  0.7064
    1RU5   H2'1   25   2.477   2.542   4.688 -0.6141  1.4259  0.1374
    1RU5    O2'   26   2.530   2.661   4.537 -0.0830 -0.8771 -0.0393
    1RU5   HO'2   27   2.562   2.708   4.614  0.6958 -0.1745 -0.7847
    1RU5    O3'   28   2.760   2.508   4.582 -0.4730 -0.0322 -0.2020
    2RG3      P   29   2.827   2.554   4.714 -0.3639 -0.5875  0.3482
    2RG3    O1P   30   2.952   2.621   4.675  0.4763  0.2075 -0.0164
    2RG3    O2P   31   2.825   2.447   4.816 -0.2205  0.1390  0.4330
    2RG3    O5'   32   2.730   2.669   4.776  0.0270  0.4619 -0.1879
    2RG3    C5'   33   2.741   2.800   4.734 -0.2243  0.3725 -0.5134
    2RG3   H5'1   34   2.738   2.801   4.625  2.9465 -5.2152 -0.8147
    2RG3   H5'2   35   2.838   2.839   4.764 -1.0974  0.6566  2.0873
    2RG3    C4'   36   2.635   2.892   4.804  0.1962 -0.0166 -0.2107
    2RG3    H4'   37   2.652   2.993   4.767 -0.7274 -0.6466 -2.4544
    2RG3    O4'   38   2.511   2.841   4.767  0.1586 -0.9616 -0.1240
    2RG3    C1'   39   2.424   2.827   4.882  0.3594  0.1178 -0.5109
    2RG3    H1'   40   2.329   2.880   4.869  1.0749  1.1579 -1.6271
    2RG3     N9   41   2.398   2.679   4.902  0.0258  0.0833 -0.0581
    2RG3     C8   42   2.477   2.579   4.951 -0.5467  0.4203  0.0964
    2RG3     H8   43   2.579   2.599   4.983 -0.3657 -0.7687  0.2896
    2RG3     N7   44   2.424   2.462   4.960 -0.3600 -1.1542  0.0200
    2RG3     C5   45   2.294   2.488   4.914  0.4200 -0.2046  0.9412
    2RG3     C6   46   2.186   2.391   4.903  0.5699 -0.7049  0.3188
    2RG3     O6   47   2.183   2.266   4.923  0.0465 -0.2814 -0.2293
    2RG3     N1   48   2.068   2.456   4.855  0.0404  0.1912  0.3835
    2RG3     H1   49   1.984   2.400   4.858 -0.5365  1.0727  0.7039
    2RG3     C2   50   2.053   2.587   4.821  0.2342 -0.3057 -0.0284
    2RG3     N2   51   1.941   2.624   4.764 -0.5110  0.1910 -0.3915
    2RG3    H21   52   1.859   2.566   4.757  0.5567 -1.4598  0.4278
    2RG3    H22   53   1.938   2.718   4.725 -0.5878  0.6880  0.7967
    2RG3     N3   54   2.155   2.674   4.828  0.2256  0.2486  0.1658
    2RG3     C4   55   2.275   2.623   4.877  0.2553 -0.0919 -0.4520
    2RG3    C3'   56   2.651   2.896   4.956  0.7118  0.3546 -0.3442
    2RG3    H3'   57   2.714   2.814   4.991  1.4236  1.7426  1.7056
    2RG3    C2'   58   2.504   2.889   4.998 -0.0574  0.0880 -0.1309
    2RG3   H2'1   59   2.495   2.832   5.091 -0.4639  0.2331 -0.0780
    2RG3    O2'   60   2.447   3.022   5.023 -0.3404  0.0091 -0.5522
    2RG3   HO'2   61   2.520   3.066   5.066 -0.0089  1.0635 -2.1833
    2RG3    O3'   62   2.709   3.019   5.001 -0.0314  0.1116  0.1640
    2RG3    H3T   63   2.801   3.024   4.975 -0.0339  0.0952  0.1513
    3SOL     OW   64   2.654   3.426   0.462 -0.5218  0.1885 -0.1569
    3SOL    HW2   65   2.573   3.466   0.493 -0.9256 -0.0894 -0.8587
    3SOL    HW3   66   2.723   3.486   0.492 -0.8766 -0.1880  1.4776
    3SOL    MW4   67   2.653   3.439   0.470 -0.6218  0.1020 -0.0339
    4SOL     OW   68   3.114   3.972   0.715 -0.3067  0.4094  0.4400
    4SOL    HW2   69   3.200   3.937   0.734 -0.5789 -0.7983 -0.5167
    4SOL    HW3   70   3.053   3.916   0.764 -0.6164  0.7276  0.4278
    4SOL    MW4   71   3.117   3.960   0.724 -0.3836  0.2921  0.3122
    5SOL     OW   72   1.542   2.333   0.791  0.3872  0.2353  0.0861
    5SOL    HW2   73   1.546   2.240   0.771  0.3141  0.4419 -0.9232
    5SOL    HW3   74   1.457   2.362   0.757 -0.0895  0.4413  1.4153
    5SOL    MW4   75   1.531   2.325   0.784  0.3148  0.2897  0.1284
    6SOL     OW   76   1.122   4.291   0.300  0.1572  0.2881  0.0836
    6SOL    HW2   77   1.203   4.310   0.347  0.7638  1.2173 -1.2739
    6SOL    HW3   78   1.151   4.266   0.212 -0.9190 -1.8325  0.2959
    6SOL    MW4   79   1.136   4.290   0.294  0.0951  0.1311 -0.0675
    7SOL     OW   80   4.169   2.320   0.405 -0.3565 -0.6314 -0.1856
    7SOL    HW2   81   4.119   2.387   0.451  0.0584 -0.3468 -0.1396
    7SOL    HW3   82   4.261   2.340   0.427 -0.3629 -2.8895  2.1416
    7SOL    MW4   83   4.175   2.331   0.414 -0.3023 -0.8917  0.1276
    8SOL     OW   84   1.615   0.032   0.880  0.7769 -0.1808  0.2591
    8SOL    HW2   85   1.614   0.027   0.976  0.5935 -0.0222  0.2675
    8SOL    HW3   86   1.526   0.061   0.858  0.6916 -0.6331  0.0188
    8SOL    MW4   87   1.603   0.035   0.890  0.7415 -0.2196  0.2285
    9SOL     OW   88   4.339   0.641   0.503 -0.2368  0.1284  0.3244
    9SOL    HW2   89   4.424   0.679   0.525  0.4297 -1.1811  0.0569
    9SOL    HW3   90   4.310   0.599   0.584  0.8604 -2.1689 -0.4536
    9SOL    MW4   91   4.346   0.641   0.517 -0.0043 -0.3475  0.1865
   10SOL     OW   92   4.436   2.375   0.491  0.1825  0.1050  0.5801
   10SOL    HW2   93   4.459   2.464   0.462 -1.1128 -0.0846 -1.1311
   10SOL    HW3   94   4.484   2.318   0.431 -1.2646 -0.3022 -0.2284
   10SOL    MW4   95   4.445   2.379   0.479 -0.1793  0.0260  0.2477
   11SOL     OW   96   3.377   3.081   0.803  0.1618 -0.2290  0.3253
   11SOL    HW2   97   3.379   2.991   0.770  1.5124  0.2052 -0.8503
   11SOL    HW3   98   3.368   3.072   0.897 -0.3117 -1.5857  0.1622
   11SOL    MW4   99   3.376   3.068   0.811  0.2775 -0.3507  0.1487
   12SOL     OW  100   0.220   2.040   0.700  0.0582 -0.5532 -0.2507
   12SOL    HW2  101   0.144   2.002   0.743  0.2412 -1.3498 -0.6190
   12SOL    HW3  102   0.232   2.125   0.742 -0.6820 -0.6750  0.2067
   12SOL    MW4  103   0.212   2.047   0.711 -0.0153 -0.6747 -0.2390
   13SOL     OW  104   0.104   3.320   0.316  0.2167  0.0145 -0.5657
   13SOL    HW2  105   0.147   3.234   0.318 -0.7968 -0.4734  0.3723
   13SOL    HW3  106   0.162   3.377   0.366  1.0866 -0.0175 -1.5124
   13SOL    MW4  107   0.118   3.316   0.323  0.1977 -0.0539 -0.5668
   14SOL     OW  108   0.909   0.554   0.237 -0.2374 -0.1935  0.0775
   14SOL    HW2  109   0.820   0.580   0.217 -0.0688 -0.6582 -1.3182
   14SOL    HW3  110   0.901   0.465   0.272 -0.4367  0.2460  1.1649
   14SOL    MW4  111   0.896   0.545   0.239 -0.2415 -0.1969  0.0368
   15SOL     OW  112   3.165   2.495   0.692  0.1490  0.5695  0.4159
   15SOL    HW2  113   3.242   2.444   0.718  0.3758  1.8586  2.3402
   15SOL    HW3  114   3.091   2.448   0.731  0.2201  0.8451  0.8891
   15SOL    MW4  115   3.165   2.482   0.701  0.1881  0.7758  0.7322
   16SOL     OW  116   0.001   1.905   0.844  0.0359  0.0448 -0.5939
   16SOL    HW2  117  -0.083   1.939   0.813  0.6713  1.1740 -1.0996
   16SOL    HW3  118   0.005   1.816   0.808 -1.5245 -0.4996  0.5401
   16SOL    MW4  119  -0.009   1.898   0.835 -0.0862  0.1220 -0.5111
   17SOL     OW  120   3.473   1.980   0.427  0.3029 -0.2794  0.0872
   17SOL    HW2  121   3.567   1.982   0.445  0.1219 -1.6690  1.3211
   17SOL    HW3  122   3.431   2.000   0.511 -0.5091  2.4864 -0.9311
   17SOL    MW4  123   3.480   1.983   0.440  0.1717 -0.0978  0.1156
   18SOL     OW  124   2.030   2.858   0.695 -0.1812 -0.4333 -0.0201
   18SOL    HW2  125   2.106   2.803   0.717  1.2522  1.3843 -0.3465
   18SOL    HW3  126   2.050   2.893   0.609  0.2153  2.7898  1.3301
   18SOL    MW4  127   2.043   2.855   0.687  0.0601  0.2317  0.1150
   19SOL     OW  128   0.491   0.122   0.530 -0.0133  0.4463 -0.0962
   19SOL    HW2  129   0.531   0.039   0.501 -0.6413 -0.3913  1.3687
   19SOL    HW3  130   0.400   0.115   0.503 -0.4754 -0.1096  1.5434
   19SOL    MW4  131   0.485   0.110   0.522 -0.1571  0.2624  0.3134
   20SOL     OW  132   1.830   3.240   0.790  0.3599 -0.2229 -0.1270
   20SOL    HW2  133   1.905   3.186   0.817 -0.0833 -1.0730 -0.5941
   20SOL    HW3  134   1.755   3.202   0.835  0.1501  0.4380  0.0904
   20SOL    MW4  135   1.830   3.228   0.800  0.2738 -0.2480 -0.1599
   21SOL     OW  136   3.821   3.133   0.875  0.0051 -0.3508 -0.2933
   21SOL    HW2  137   3.744   3.183   0.846  0.1183  0.6113  1.0104
   21SOL    HW3  138   3.895   3.180   0.836  0.0377 -0.2128 -0.0656
   21SOL    MW4  139   3.820   3.146   0.866  0.0246 -0.2058 -0.0911
   22SOL     OW  140   1.391   0.340   0.433 -0.5167  0.3185 -0.1337
   22SOL    HW2  141   1.460   0.405   0.445  0.8053 -0.9768 -0.6162
   22SOL    HW3  142   1.310   0.391   0.434  0.4678  1.9148 -0.0685
   22SOL    MW4  143   1.389   0.356   0.435 -0.2124  0.3582 -0.1888
   23SOL     OW  144   3.598   1.644   0.702 -0.2073 -0.3200 -0.5006
   23SOL    HW2  145   3.513   1.623   0.739 -0.6139  0.0745 -1.1973
   23SOL    HW3  146   3.597   1.602   0.615 -0.0399  0.4260 -0.8641
   23SOL    MW4  147   3.587   1.635   0.695 -0.2389 -0.1696 -0.6405
   24SOL     OW  148   0.490   3.527   0.437  0.1493  0.0918 -0.0970
   24SOL    HW2  149   0.402   3.544   0.470  0.7250  0.2714  1.3850
   24SOL    HW3  150   0.497   3.432   0.437 -0.2094  0.0593 -0.6979
   24SOL    MW4  151   0.479   3.517   0.441  0.1779  0.1111  0.0192
   25SOL     OW  152   3.799   2.938   0.487 -0.5469 -0.4495 -0.0305
   25SOL    HW2  153   3.821   2.913   0.577  0.2428  1.9266  0.4608
   25SOL    HW3  154   3.755   3.022   0.496  1.2017  0.7105 -2.0202
   25SOL    MW4  155   3.796   2.945   0.500 -0.2120  0.0167 -0.2281
   26SOL     OW  156   2.892   3.245   0.385 -0.0825  0.5515  0.3355
   26SOL    HW2  157   2.978   3.212   0.412  0.4221  1.5822  0.0142
   26SOL    HW3  158   2.910   3.333   0.353 -1.3309  0.9196  0.6471
   26SOL    MW4  159   2.906   3.252   0.385 -0.1807  0.7358  0.3342
   27SOL     OW  160   2.903   3.566   0.794 -0.3394 -0.2115  0.1628
   27SOL    HW2  161   2.894   3.658   0.818 -4.4642 -0.0718 -1.5053
   27SOL    HW3  162   2.902   3.567   0.698 -2.0507 -2.0865  0.1349
   27SOL    MW4  163   2.901   3.579   0.784 -1.1096 -0.4406 -0.0610
   28SOL     OW  164   0.994   3.979   0.829 -0.4961  0.3704 -0.6023
   28SOL    HW2  165   1.019   3.963   0.738 -0.2728  0.1238 -0.4975
   28SOL    HW3  166   1.046   3.916   0.880 -1.2902 -0.1205 -0.3809
   28SOL    MW4  167   1.004   3.968   0.824 -0.5713  0.2735 -0.5592
   29SOL     OW  168   2.722   0.112   0.495 -0.7072 -0.0818  0.2579
   29SOL    HW2  169   2.815   0.135   0.498 -0.3000 -1.6437 -0.2359
   29SOL    HW3  170   2.696   0.103   0.587  0.1362 -1.6563  0.3454
   29SOL    MW4  171   2.731   0.114   0.507 -0.5419 -0.4956  0.2043
   30SOL     OW  172   3.826   0.755   0.421  0.2391  0.1604  0.1730
   30SOL    HW2  173   3.807   0.662   0.418  1.4999 -0.1394  1.0658
   30SOL    HW3  174   3.920   0.761   0.404  0.0017  1.3449 -0.7921
   30SOL    MW4  175   3.836   0.744   0.418  0.3743  0.2771  0.1634
   31SOL     OW  176   0.009   1.570   0.463 -0.5285 -0.3987 -0.0461
   31SOL    HW2  177   0.103   1.576   0.448 -0.3615 -1.0802  0.7058
   31SOL    HW3  178  -0.013   1.479   0.439 -0.5194 -1.0685  2.3649
   31SOL    MW4  179   0.018   1.558   0.458 -0.5053 -0.5771  0.3712
   32SOL     OW  180   0.156   0.722   0.826 -0.4094 -0.5095  0.5198
   32SOL    HW2  181   0.189   0.636   0.801 -0.6565 -0.1423 -1.0799
   32SOL    HW3  182   0.191   0.736   0.914 -0.8266 -2.4814  1.0352
   32SOL    MW4  183   0.165   0.712   0.835 -0.4971 -0.7212  0.3768
   33SOL     OW  184   2.376   1.801   0.382  0.1407  0.3494 -0.3898
   33SOL    HW2  185   2.281   1.812   0.371  0.2835  1.3832 -0.6410
   33SOL    HW3  186   2.410   1.890   0.390  1.0107 -0.0475  0.4298
   33SOL    MW4  187   2.368   1.814   0.381  0.2744  0.4336 -0.3148
   34SOL     OW  188   3.185   1.154   0.551  0.0907 -0.0345  0.0976
   34SOL    HW2  189   3.146   1.071   0.523 -1.6169  0.5231  0.7258
   34SOL    HW3  190   3.134   1.221   0.506  0.8456  0.7045  0.3242
   34SOL    MW4  191   3.173   1.152   0.541 -0.0348  0.1366  0.2104
   35SOL     OW  192   2.674   0.115   0.783  0.7553 -0.0981 -0.3109
   35SOL    HW2  193   2.756   0.077   0.814  1.2548  0.9202 -0.3501
   35SOL    HW3  194   2.675   0.204   0.819 -0.6447 -0.2985  0.2345
   35SOL    MW4  195   2.685   0.122   0.792  0.6366  0.0098 -0.2442
   36SOL     OW  196   2.268   4.598   0.483  0.3002 -0.2944  0.2419
   36SOL    HW2  197   2.176   4.577   0.469  0.6773 -1.8560  0.0537
   36SOL    HW3  198   2.312   4.514   0.484  1.7068  0.4329  0.5462
   36SOL    MW4  199   2.262   4.584   0.481  0.5352 -0.4044  0.2572
   37SOL     OW  200   0.949   1.615   0.442 -0.0055 -0.0432 -0.1114
   37SOL    HW2  201   0.981   1.620   0.532 -0.4569  0.0666  0.0450
   37SOL    HW3  202   0.856   1.638   0.448 -0.0127  0.0686 -0.6201
   37SOL    MW4  203   0.941   1.618   0.454 -0.0660 -0.0138 -0.1579
   38SOL     OW  204   0.268   2.424   0.482 -0.2753 -0.0760 -0.4082
   38SOL    HW2  205   0.219   2.344   0.465 -0.6636  0.3224 -1.1927
   38SOL    HW3  206   0.201   2.491   0.495  0.0528  0.2841 -0.5599
   38SOL    MW4  207   0.253   2.423   0.482 -0.2832  0.0243 -0.5317
   39SOL     OW  208   0.930   3.239   0.451 -0.6725  0.5372  0.2709
   39SOL    HW2  209   0.935   3.229   0.547 -0.7544 -0.0164  0.2148
   39SOL    HW3  210   0.861   3.179   0.424  0.1165 -0.1284 -0.2644
   39SOL    MW4  211   0.922   3.230   0.460 -0.5792  0.3765  0.1929
   40SOL     OW  212   3.098   2.172   0.259 -0.0158  0.0948 -0.2480
   40SOL    HW2  213   3.035   2.195   0.190  1.2960 -0.0782 -1.5434
   40SOL    HW3  214   3.126   2.084   0.236 -1.3150 -0.9097  1.8749
   40SOL    MW4  215   3.094   2.164   0.247 -0.0141 -0.0606 -0.1388
   41SOL     OW  216   4.256   3.121   0.882 -0.2976  0.3430  0.5236
   41SOL    HW2  217   4.326   3.173   0.842 -0.2202  1.1018  1.6385
   41SOL    HW3  218   4.238   3.052   0.818  0.6664  0.8315 -0.2820
   41SOL    MW4  219   4.263   3.119   0.868 -0.1602  0.5074  0.5645
   42SOL     OW  220   0.428   2.713   0.858  0.1704  0.0077 -0.4238
   42SOL    HW2  221   0.423   2.628   0.815 -1.9087 -0.4606  0.6752
   42SOL    HW3  222   0.380   2.772   0.801 -0.5462 -0.1075  0.0513
   42SOL    MW4  223   0.421   2.709   0.845 -0.1984 -0.0694 -0.2161
   43SOL     OW  224   4.265   3.742   0.139  0.1366  0.0137  0.3418
   43SOL    HW2  225   4.188   3.756   0.194  1.1443 -0.9353  2.0219
   43SOL    HW3  226   4.233   3.688   0.067 -0.6290 -0.9865  1.4039
   43SOL    MW4  227   4.251   3.737   0.137  0.1688 -0.2434  0.7036
   44SOL     OW  228   2.708   4.006   0.763  0.2258 -0.0603 -0.0893
   44SOL    HW2  229   2.619   3.986   0.794  0.1702 -0.5178 -0.5461
   44SOL    HW3  230   2.718   4.100   0.781  0.0044 -0.2058  0.8391
   44SOL    MW4  231   2.698   4.016   0.769  0.1893 -0.1397 -0.0271
   45SOL     OW  232   2.492   0.756   0.905  0.3209 -0.0369  0.0707
   45SOL    HW2  233   2.475   0.664   0.887  0.8499 -0.1823  0.2916
   45SOL    HW3  234   2.581   0.771   0.873  0.1057  0.4894 -0.2974
   45SOL    MW4  235   2.501   0.746   0.899  0.3624  0.0134  0.0513
   46SOL     OW  236   1.614   4.452   0.767 -0.1680 -0.2323 -0.2478
   46SOL    HW2  237   1.609   4.543   0.796 -0.1411 -0.2799 -0.0955
   46SOL    HW3  238   1.598   4.457   0.673  0.2822 -0.0242 -0.3160
   46SOL    MW4  239   1.611   4.465   0.758 -0.1050 -0.2117 -0.2367
   47SOL     OW  240   1.080   0.803   0.855 -0.2932 -0.7467 -0.1810
   47SOL    HW2  241   1.108   0.720   0.816  0.6716 -0.6796  0.3409
   47SOL    HW3  242   1.104   0.795   0.948  1.6691  0.8769 -0.5010
   47SOL    MW4  243   1.087   0.791   0.862  0.0930 -0.5236 -0.1543
   48SOL     OW  244   1.511   0.975   0.416 -0.2972 -0.5044  0.1340
   48SOL    HW2  245   1.469   1.037   0.356  0.7307  0.1587  0.0837
   48SOL    HW3  246   1.454   0.898   0.415 -0.2640 -0.5282 -1.7416
   48SOL    MW4  247   1.498   0.973   0.408 -0.1574 -0.4201 -0.1201
   49SOL     OW  248   0.709   4.382   0.750 -0.4236 -0.5450  0.2032
   49SOL    HW2  249   0.727   4.472   0.774  0.6326 -0.5606 -0.5049
   49SOL    HW3  250   0.664   4.389   0.666 -0.5789 -0.6709  0.2753
   49SOL    MW4  251   0.705   4.395   0.742 -0.3048 -0.5641  0.1193
   50SOL     OW  252   3.838   1.632   0.302  0.2139  0.0123  0.1142
   50SOL    HW2  253   3.876   1.565   0.245  0.3548 -1.4386  1.8602
   50SOL    HW3  254   3.894   1.631   0.380 -0.7704  1.0060  0.8494
   50SOL    MW4  255   3.851   1.623   0.305  0.1025 -0.0479  0.4416
   51SOL     OW  256   3.645   3.172   0.527 -0.1534  0.5075  0.4547
   51SOL    HW2  257   3.654   3.264   0.504  1.2652  0.1576 -0.4951
   51SOL    HW3  258   3.556   3.149   0.499 -0.1390  1.3191 -0.2880
   51SOL    MW4  259   3.634   3.181   0.520  0.0358  0.5684  0.2314
   52SOL     OW  260   1.350   3.180   0.723 -0.2566  0.2338 -0.2252
   52SOL    HW2  261   1.428   3.158   0.774 -0.0290  0.3244 -0.5327
   52SOL    HW3  262   1.352   3.120   0.649 -0.4305  0.2962 -0.2806
   52SOL    MW4  263   1.360   3.169   0.720 -0.2494  0.2539 -0.2731
   53SOL     OW  264   1.268   2.456   0.735  0.1087 -0.2103 -0.2152
   53SOL    HW2  265   1.226   2.481   0.652 -0.0402 -0.4361 -0.2106
   53SOL    HW3  266   1.204   2.399   0.777  0.6447 -1.0191 -0.4682
   53SOL    MW4  267   1.254   2.452   0.729  0.1599 -0.3469 -0.2480
   54SOL     OW  268   2.016   1.195   0.487 -0.2781 -0.2681  0.3314
   54SOL    HW2  269   2.096   1.176   0.437  0.7512 -0.3853  2.0109
   54SOL    HW3  270   1.969   1.112   0.490 -0.6578 -0.1130 -0.9751
   54SOL    MW4  271   2.021   1.181   0.481 -0.1924 -0.2630  0.3806
   55SOL     OW  272   3.630   2.459   0.717  0.0725 -0.1922 -0.2149
   55SOL    HW2  273   3.548   2.413   0.733 -0.2381  0.1197 -0.9014
   55SOL    HW3  274   3.624   2.539   0.770 -0.1682 -0.0585 -0.4409
   55SOL    MW4  275   3.619   2.464   0.726  0.0000 -0.1335 -0.3353
   56SOL     OW  276   1.568   0.565   0.459  0.5495  0.0497 -0.5307
   56SOL    HW2  277   1.488   0.610   0.430 -0.3256 -0.8039  0.5546
   56SOL    HW3  278   1.561   0.561   0.554  0.5065 -2.5923 -0.6135
   56SOL    MW4  279   1.557   0.571   0.467  0.4283 -0.4115 -0.3985
   57SOL     OW  280   4.043   1.693   0.774  0.1095 -0.0197  0.2422
   57SOL    HW2  281   3.975   1.651   0.827  0.3728 -0.2021  0.4422
   57SOL    HW3  282   4.122   1.641   0.792  0.4999  0.7275  0.6914
   57SOL    MW4  283   4.044   1.680   0.784  0.1960  0.0548  0.3278
   58SOL     OW  284   4.245   1.105   0.415  0.0178  0.2723 -0.3611
   58SOL    HW2  285   4.219   1.013   0.407 -0.5710  0.4676 -0.7536
   58SOL    HW3  286   4.164   1.151   0.438  0.0220  0.8791 -1.5186
   58SOL    MW4  287   4.231   1.099   0.417 -0.0591  0.3781 -0.5656
   59SOL     OW  288   2.555   0.301   0.404  0.6182  0.0275  0.1993
   59SOL    HW2  289   2.469   0.289   0.445  0.4749  1.5984  0.4097
   59SOL    HW3  290   2.609   0.230   0.439 -0.3603 -0.4773  0.7147
   59SOL    MW4  291   2.550   0.290   0.414  0.4699  0.1681  0.2950
   60SOL     OW  292   1.101   3.024   0.405 -0.7117  0.4050  0.6998
   60SOL    HW2  293   1.061   3.106   0.432  0.1252  1.1233 -0.1962
   60SOL    HW3  294   1.132   3.040   0.316  0.3436 -0.5488  0.8722
   60SOL    MW4  295   1.100   3.037   0.397 -0.4621  0.3736  0.6043
   61SOL     OW  296   4.239   2.884   0.759  0.3710  0.1025 -0.2793
   61SOL    HW2  297   4.235   2.849   0.670  0.8930 -0.8249  0.0511
   61SOL    HW3  298   4.321   2.849   0.795  1.8369  3.0801 -0.5106
   61SOL    MW4  299   4.249   2.875   0.752  0.6337  0.3731 -0.2663
   62SOL     OW  300   0.515   2.960   0.203 -0.5194  0.1263 -0.5972
   62SOL    HW2  301   0.577   2.939   0.133 -0.1940  0.0545 -0.2894
   62SOL    HW3  302   0.504   2.878   0.251  1.2408  0.7891  0.9900
   62SOL    MW4  303   0.522   2.947   0.200 -0.2443  0.2046 -0.3471
   63SOL     OW  304   0.021   0.863   0.629 -0.1297  0.1808 -0.3683
   63SOL    HW2  305   0.076   0.812   0.689  0.8728  0.8700 -0.6894
   63SOL    HW3  306   0.012   0.948   0.671 -0.8749  0.1056 -0.3694
   63SOL    MW4  307   0.027   0.867   0.642 -0.0958  0.2618 -0.4109
   64SOL     OW  308   2.506   3.636   0.823  0.1079 -0.9822  0.6153
   64SOL    HW2  309   2.574   3.573   0.847  1.0889 -0.4876 -0.7693
   64SOL    HW3  310   2.426   3.583   0.814  0.8996 -2.0454 -0.4625
   64SOL    MW4  311   2.504   3.621   0.825  0.3419 -1.0569  0.2903
   65SOL     OW  312   4.031   3.759   0.289  0.0773 -0.0454  0.1658
   65SOL    HW2  313   4.020   3.682   0.344  0.4432  0.1856  0.5605
   65SOL    HW3  314   3.942   3.777   0.256  0.0091 -0.6861 -0.0096
   65SOL    MW4  315   4.018   3.751   0.292  0.1168 -0.0992  0.1948
   66SOL     OW  316   1.489   1.618   0.488 -0.3443  0.3122  0.4201
   66SOL    HW2  317   1.452   1.657   0.408  0.1226  0.8876  0.4816
   66SOL    HW3  318   1.578   1.654   0.493  1.1082 -2.8421 -0.9957
   66SOL    MW4  319   1.496   1.628   0.478 -0.0912 -0.0281  0.2414
   67SOL     OW  320   0.938   2.272   0.492 -0.3001 -0.1942 -0.0070
   67SOL    HW2  321   0.857   2.254   0.445 -0.2899 -0.9219  0.2469
   67SOL    HW3  322   0.914   2.266   0.585 -0.3193  1.2318  0.0881
   67SOL    MW4  323   0.924   2.269   0.498 -0.3013 -0.1018  0.0390
   68SOL     OW  324   0.939   4.093   0.378  0.0553 -0.2480 -0.8376
   68SOL    HW2  325   0.998   4.044   0.435  0.3768  0.2947 -0.6938
   68SOL    HW3  326   0.993   4.164   0.343 -0.2162 -0.4046 -1.5921
   68SOL    MW4  327   0.954   4.096   0.381  0.0619 -0.1969 -0.9182
   69SOL     OW  328   2.965   0.738   0.861  0.1271  0.5424 -1.0855
   69SOL    HW2  329   2.890   0.794   0.840  0.0733  0.5995 -0.7505
   69SOL    HW3  330   2.959   0.725   0.956  1.1508  1.4345 -0.8832
   69SOL    MW4  331   2.954   0.744   0.871  0.2551  0.6676 -1.0146
   70SOL     OW  332   2.916   1.797   0.343 -0.4085 -0.2929 -0.6099
   70SOL    HW2  333   2.905   1.878   0.392  0.2085 -0.7322  0.2790
   70SOL    HW3  334   2.840   1.744   0.366  0.3241 -0.8418  0.5622
   70SOL    MW4  335   2.905   1.801   0.352 -0.2301 -0.4232 -0.3380
   71SOL     OW  336   2.861   1.539   0.819  0.2396 -0.2042  0.2531
   71SOL    HW2  337   2.945   1.580   0.798  0.3713  0.1867  1.5257
   71SOL    HW3  338   2.856   1.463   0.760  0.7370  0.6927 -0.9684
   71SOL    MW4  339   2.872   1.534   0.808  0.3223 -0.0342  0.2598
   72SOL     OW  340   3.761   2.509   0.467  0.1766 -0.2528 -0.0696
   72SOL    HW2  341   3.704   2.504   0.544 -0.1720 -1.1263 -0.3778
   72SOL    HW3  342   3.719   2.573   0.409  0.7338  0.8251  0.7037
   72SOL    MW4  343   3.748   2.517   0.470  0.2043 -0.2258 -0.0083
   73SOL     OW  344   1.129   3.110   0.878 -0.0935  0.4153 -0.3259
   73SOL    HW2  345   1.112   3.016   0.868  1.2214  0.1581 -0.2390
   73SOL    HW3  346   1.209   3.125   0.828  1.0456  1.0269  1.6605
   73SOL    MW4  347   1.137   3.100   0.870  0.2302  0.4621 -0.0523
   74SOL     OW  348   1.155   0.495   0.450 -1.1687  0.5110 -0.1513
   74SOL    HW2  349   1.178   0.537   0.367  1.1021 -0.2664  0.0411
   74SOL    HW3  350   1.076   0.445   0.431 -0.4813  0.0657 -1.9456
   74SOL    MW4  351   1.148   0.494   0.437 -0.7784  0.3496 -0.3626
   75SOL     OW  352   1.351   3.001   0.514  0.2815 -0.1115 -0.1256
   75SOL    HW2  353   1.259   3.007   0.491 -0.2381 -1.4880  1.4204
   75SOL    HW3  354   1.398   3.025   0.435 -1.4069  1.4989 -0.6611
   75SOL    MW4  355   1.345   3.005   0.501 -0.0099 -0.0806  0.0077
   76SOL     OW  356   3.737   0.478   0.461 -0.2531 -0.0099  0.2610
   76SOL    HW2  357   3.808   0.420   0.435  0.5510  0.5882  1.0424
   76SOL    HW3  358   3.657   0.436   0.429  0.5771  0.0885 -2.0133
   76SOL    MW4  359   3.736   0.465   0.453 -0.0374  0.0820  0.0640
   77SOL     OW  360   4.028   1.912   0.918 -0.2689  0.5751 -0.2783
   77SOL    HW2  361   4.033   1.832   0.865 -0.7986 -1.0272  2.0433
   77SOL    HW3  362   3.962   1.966   0.873 -1.4068 -1.1623 -0.7243
   77SOL    MW4  363   4.020   1.909   0.905 -0.4888  0.1345 -0.0308
   78SOL     OW  364   1.578   4.107   0.412  0.4828 -0.1809  0.0314
   78SOL    HW2  365   1.520   4.051   0.464 -0.4681 -0.4952 -1.3216
   78SOL    HW3  366   1.526   4.185   0.393 -0.0834 -1.0701 -2.3887
   78SOL    MW4  367   1.563   4.110   0.416  0.2826 -0.3395 -0.4664
   79SOL     OW  368   1.846   0.864   0.750 -0.5182 -0.2295 -0.2444
   79SOL    HW2  369   1.842   0.837   0.658 -0.4990  0.4170 -0.4392
   79SOL    HW3  370   1.827   0.957   0.748  2.2281  0.4023  0.0991
   79SOL    MW4  371   1.843   0.873   0.738 -0.1533 -0.0608 -0.2246
   80SOL     OW  372   2.929   4.392   0.467 -0.0785  0.2803 -0.0232
   80SOL    HW2  373   2.946   4.298   0.459  0.2390  0.4585 -1.5273
   80SOL    HW3  374   3.003   4.434   0.424 -0.0088  1.2398  1.0107
   80SOL    MW4  375   2.941   4.385   0.460 -0.0274  0.4301 -0.0852
   81SOL     OW  376   1.801   1.127   0.821  0.1228 -0.2025  0.4232
   81SOL    HW2  377   1.884   1.176   0.824  0.5132 -0.8569  0.4991
   81SOL    HW3  378   1.745   1.177   0.762  1.4263 -1.0587 -1.5961
   81SOL    MW4  379   1.805   1.140   0.814  0.3464 -0.4019  0.1668
   82SOL     OW  380   2.430   2.770   0.453 -0.4822 -0.2722  0.0892
   82SOL    HW2  381   2.500   2.708   0.432  0.2315  1.0938 -1.7171
   82SOL    HW3  382   2.357   2.744   0.398 -1.0822 -1.0611  1.2228
   82SOL    MW4  383   2.430   2.758   0.443 -0.4671 -0.1960  0.0004
   83SOL     OW  384   0.933   0.331   0.394  0.1193  0.0655  0.6034
   83SOL    HW2  385   0.837   0.325   0.396  0.0176  0.0208 -2.2287
   83SOL    HW3  386   0.963   0.245   0.423 -0.7235 -0.3477  0.2730
   83SOL    MW4  387   0.924   0.319   0.398 -0.0053  0.0051  0.1862
   84SOL     OW  388   2.665   2.531   0.471 -0.1461 -0.0192  0.1997
   84SOL    HW2  389   2.666   2.518   0.566 -1.1891  2.7297  0.6499
   84SOL    HW3  390   2.744   2.583   0.453  0.1258 -0.6556 -0.4554
   84SOL    MW4  391   2.675   2.536   0.481 -0.2477  0.2596  0.1727
   85SOL     OW  392   0.714   3.629   0.792  0.0021  0.1681  0.4902
   85SOL    HW2  393   0.731   3.625   0.698 -2.7168 -2.0124  0.0216
   85SOL    HW3  394   0.780   3.571   0.831 -0.4258 -0.8848 -0.3344
   85SOL    MW4  395   0.725   3.621   0.785 -0.4131 -0.2587  0.3196
   86SOL     OW  396   2.016   2.079   0.728 -0.1965  0.6426 -0.2408
   86SOL    HW2  397   2.010   2.083   0.633 -2.7966  0.1331 -0.1420
   86SOL    HW3  398   2.007   2.170   0.756  1.4556  0.8987 -0.4997
   86SOL    MW4  399   2.014   2.092   0.719 -0.3214  0.6094 -0.2620
   87SOL     OW  400   2.791   2.934   0.448  0.0516  0.0492  0.3632
   87SOL    HW2  401   2.815   2.862   0.390  1.4910  1.8830 -1.3556
   87SOL    HW3  402   2.836   2.915   0.530  0.3491 -1.0443 -0.0494
   87SOL    MW4  403   2.800   2.922   0.451  0.2806  0.1471  0.0820
   88SOL     OW  404   0.468   3.798   0.346 -0.0135 -0.0870 -0.1534
   88SOL    HW2  405   0.494   3.708   0.366  0.6840  0.2442  0.4543
   88SOL    HW3  406   0.511   3.851   0.413 -0.1904  0.7291 -0.6768
   88SOL    MW4  407   0.478   3.793   0.358  0.0552  0.0644 -0.1423
   89SOL     OW  408   1.573   0.530   0.750 -0.2637 -0.3381  0.2082
   89SOL    HW2  409   1.495   0.488   0.787  0.4186 -0.8239  1.1333
   89SOL    HW3  410   1.564   0.622   0.774 -1.1131 -0.1858 -0.6726
   89SOL    MW4  411   1.561   0.536   0.758 -0.2857 -0.3821  0.2140
   90SOL     OW  412   1.827   2.769   0.846 -0.0539 -0.3884 -0.3718
   90SOL    HW2  413   1.828   2.675   0.826 -2.2751 -0.5681  0.2033
   90SOL    HW3  414   1.903   2.804   0.800  0.9936 -2.5177 -0.3465
   90SOL    MW4  415   1.837   2.761   0.837 -0.2087 -0.6931 -0.2925
   91SOL     OW  416   0.715   3.047   0.411 -0.1427 -0.4941 -0.4820
   91SOL    HW2  417   0.670   3.049   0.327  0.6988 -0.1566 -0.9355
   91SOL    HW3  418   0.693   2.962   0.448 -2.1754  0.1544 -0.1103
   91SOL    MW4  419   0.706   3.036   0.405 -0.2999 -0.3638 -0.4928
   92SOL     OW  420   0.707   3.101   0.776 -0.8062  0.0694 -0.0021
   92SOL    HW2  421   0.622   3.140   0.755 -0.6735 -0.6670 -2.0115
   92SOL    HW3  422   0.692   3.006   0.774  0.0116 -0.0644 -0.2263
   92SOL    MW4  423   0.694   3.094   0.773 -0.6808 -0.0453 -0.2968
   93SOL     OW  424   1.079   2.290   0.841  0.2966 -0.1257 -0.1628
   93SOL    HW2  425   1.102   2.210   0.793 -2.7638 -0.8161 -0.5726
   93SOL    HW3  426   1.082   2.264   0.933  0.0947 -0.4730 -0.2554
   93SOL    MW4  427   1.083   2.276   0.847 -0.1336 -0.2625 -0.2291
   94SOL     OW  428   1.223   3.152   0.165 -0.6805  0.0123 -0.0076
   94SOL    HW2  429   1.244   3.174   0.075  0.2857  0.8591  0.4184
   94SOL    HW3  430   1.175   3.227   0.198 -0.1840  0.1216  0.4747
   94SOL    MW4  431   1.220   3.165   0.158 -0.4877  0.1385  0.1122
   95SOL     OW  432   2.662   1.676   0.676  0.6086  0.2467  0.1761
   95SOL    HW2  433   2.668   1.763   0.714  1.0399  0.1856  0.2522
   95SOL    HW3  434   2.726   1.624   0.725 -0.6089 -0.4414  1.0394
   95SOL    MW4  435   2.671   1.681   0.687  0.5047  0.1477  0.3000
   96SOL     OW  436   1.832   0.716   0.509  0.0183  0.1057  0.3837
   96SOL    HW2  437   1.906   0.657   0.496  0.2868  0.3590  0.7705
   96SOL    HW3  438   1.759   0.672   0.464  0.6512  0.3883 -0.9486
   96SOL    MW4  439   1.832   0.702   0.501  0.1373  0.1764  0.2589
   97SOL     OW  440   1.448   2.756   0.590  0.3818  0.4397  0.4956
   97SOL    HW2  441   1.396   2.732   0.667 -0.5475  0.3014 -0.1669
   97SOL    HW3  442   1.414   2.842   0.564 -0.8732 -0.5011 -1.0867
   97SOL    MW4  443   1.437   2.764   0.597  0.0938  0.2973  0.1995
   98SOL     OW  444   0.669   2.835   0.794 -0.1979 -0.2688  0.3963
   98SOL    HW2  445   0.737   2.778   0.829 -0.7311 -1.2775 -0.1701
   98SOL    HW3  446   0.587   2.802   0.832 -0.5383 -0.0643 -0.1461
   98SOL    MW4  447   0.667   2.823   0.803 -0.3132 -0.3748  0.2500
   99SOL     OW  448   0.233   3.541   0.507  0.4202  0.0614  0.0407
   99SOL    HW2  449   0.210   3.521   0.598  0.4546 -0.3262 -0.0360
   99SOL    HW3  450   0.211   3.634   0.497  1.8292  0.5007  0.8900
   99SOL    MW4  451   0.227   3.551   0.518  0.6106  0.0682  0.1426
  100SOL     OW  452   2.649   0.876   0.528  0.1226 -0.0153 -0.0085
  100SOL    HW2  453   2.691   0.813   0.469 -0.6254 -1.0056  0.5072
  100SOL    HW3  454   2.689   0.960   0.505  0.8195 -0.6029 -0.9997
  100SOL    MW4  455   2.660   0.879   0.517  0.1161 -0.2235 -0.0713
  101SOL     OW  456   0.728   3.651   0.513  0.0321 -0.6612 -0.0325
  101SOL    HW2  457   0.643   3.615   0.489 -0.0235 -0.7848  0.3422
  101SOL    HW3  458   0.716   3.746   0.511 -0.3129 -0.6868  0.7238
  101SOL    MW4  459   0.715   3.658   0.510 -0.0208 -0.6807  0.1167
  102SOL     OW  460   3.357   3.593   0.429 -0.3882  0.0186 -0.1745
  102SOL    HW2  461   3.347   3.597   0.525  1.1412  1.1411 -0.0421
  102SOL    HW3  462   3.340   3.683   0.400 -0.6696 -0.2850 -0.9327
  102SOL    MW4  463   3.354   3.606   0.438 -0.2234  0.1266 -0.2571
  103SOL     OW  464   2.911   2.664   0.409  0.0257  0.4129 -0.2938
  103SOL    HW2  465   2.999   2.658   0.373  0.0443  0.5525 -0.2724
  103SOL    HW3  466   2.923   2.685   0.501 -0.0392  1.0628 -0.4270
  103SOL    MW4  467   2.924   2.666   0.416  0.0196  0.5171 -0.3086
  104SOL     OW  468   1.813   2.493   0.499 -0.0712 -0.4567 -0.1606
  104SOL    HW2  469   1.791   2.401   0.484 -2.0201 -0.3425  1.7871
  104SOL    HW3  470   1.741   2.542   0.459  0.5393  0.2171 -0.4564
  104SOL    MW4  471   1.801   2.488   0.491 -0.2478 -0.3529  0.0574
  105SOL     OW  472   3.535   1.300   0.420 -0.3545  0.5511 -0.3334
  105SOL    HW2  473   3.628   1.283   0.436 -0.3025  1.3701  0.2571
  105SOL    HW3  474   3.507   1.229   0.362  0.6583  0.3497 -0.5802
  105SOL    MW4  475   3.544   1.288   0.414 -0.2139  0.6326 -0.2880
  106SOL     OW  476   3.377   3.049   0.397  0.6198  0.3250  0.1235
  106SOL    HW2  477   3.343   2.965   0.429 -1.6903  0.7005 -1.2339
  106SOL    HW3  478   3.442   3.024   0.331  0.2286 -0.3934 -0.0001
  106SOL    MW4  479   3.381   3.034   0.393  0.2637  0.2799 -0.0719
  107SOL     OW  480   2.052   0.524   0.492  0.0399 -0.1769 -0.1063
  107SOL    HW2  481   2.134   0.573   0.502  0.5329 -1.2717  1.4167
  107SOL    HW3  482   2.078   0.443   0.448 -0.1073 -0.8057  0.9480
  107SOL    MW4  483   2.067   0.520   0.488  0.0856 -0.4044  0.2337
  108SOL     OW  484   4.017   2.128   0.240 -0.5443  0.3341  0.0643
  108SOL    HW2  485   3.937   2.178   0.258 -0.5259  0.8226 -1.1487
  108SOL    HW3  486   4.089   2.188   0.260 -0.4482 -0.5664  2.4775
  108SOL    MW4  487   4.016   2.143   0.245 -0.5293  0.2801  0.2226
  109SOL     OW  488   2.490   3.060   0.467 -0.0567 -0.1038 -0.4593
  109SOL    HW2  489   2.400   3.092   0.479 -0.0693  0.0347 -0.9395
  109SOL    HW3  490   2.480   2.964   0.463 -0.1817 -0.0893 -0.5133
  109SOL    MW4  491   2.477   3.051   0.468 -0.0751 -0.0837 -0.5298
  110SOL     OW  492   4.306   3.579   0.529  0.1143 -0.0631  0.0061
  110SOL    HW2  493   4.353   3.621   0.457 -0.7507  0.4832 -0.2488
  110SOL    HW3  494   4.335   3.488   0.528 -0.8826 -0.3817 -1.8869
  110SOL    MW4  495   4.316   3.573   0.520 -0.1321 -0.0329 -0.2773
  111SOL     OW  496   0.618   1.964   0.422  0.1701 -0.2298 -0.5004
  111SOL    HW2  497   0.524   1.950   0.437  0.1441  0.3337 -0.1079
  111SOL    HW3  498   0.656   1.961   0.510  0.3723  0.6100 -0.5585
  111SOL    MW4  499   0.611   1.962   0.436  0.1934 -0.0446 -0.4562
  112SOL     OW  500   1.358   4.072   0.896 -0.1469 -0.0902  0.8998
  112SOL    HW2  501   1.311   3.989   0.906  0.1759 -0.4947 -0.7179
  112SOL    HW3  502   1.450   4.046   0.887  0.0336  0.4873  1.0707
  112SOL    MW4  503   1.364   4.058   0.896 -0.0805 -0.0668  0.7090
  113SOL     OW  504   0.647   1.990   0.697  0.4753  0.4059 -0.5297
  113SOL    HW2  505   0.573   1.946   0.738 -0.7826  2.8835 -0.0868
  113SOL    HW3  506   0.723   1.961   0.748 -0.5485  0.1630  0.8923
  113SOL    MW4  507   0.647   1.980   0.709  0.1742  0.7008 -0.2836
  114SOL     OW  508   3.430   3.912   0.488 -0.1232  0.3183  0.1984
  114SOL    HW2  509   3.523   3.908   0.464  0.0620  0.5310  0.8636
  114SOL    HW3  510   3.430   3.935   0.581 -0.8910  2.1814 -0.2534
  114SOL    MW4  511   3.442   3.914   0.497 -0.2000  0.5925  0.2266
  115SOL     OW  512   1.090   2.828   0.795  0.0567  0.2218  0.2157
  115SOL    HW2  513   1.019   2.775   0.832 -0.6651  1.7765  1.1573
  115SOL    HW3  514   1.170   2.785   0.823 -0.5164 -0.8760  0.1808
  115SOL    MW4  515   1.091   2.816   0.804 -0.1141  0.2820  0.3353
  116SOL     OW  516   1.307   3.454   0.773 -0.1394 -0.1333 -0.2279
  116SOL    HW2  517   1.371   3.489   0.835 -0.6565  0.7076 -0.1590
  116SOL    HW3  518   1.313   3.359   0.783  1.3337 -0.0720 -0.4706
  116SOL    MW4  519   1.316   3.447   0.783 -0.0132 -0.0138 -0.2509
  117SOL     OW  520   3.029   1.372   0.449  0.3897  0.0138  0.1537
  117SOL    HW2  521   2.971   1.381   0.374 -0.4944  0.3093  0.8708
  117SOL    HW3  522   3.072   1.458   0.457 -0.0182  0.2003  0.3873
  117SOL    MW4  523   3.027   1.385   0.440  0.2193  0.0775  0.2792
  118SOL     OW  524   1.032   3.690   0.510  0.4368  0.1935  0.0542
  118SOL    HW2  525   0.939   3.666   0.517  0.8344 -0.6539  3.2208
  118SOL    HW3  526   1.057   3.666   0.421 -2.2194 -0.1643 -0.6318
  118SOL    MW4  527   1.023   3.684   0.499  0.1388  0.0346  0.3814
  119SOL     OW  528   2.485   4.357   0.802  0.1175 -0.0536 -0.2516
  119SOL    HW2  529   2.572   4.323   0.824  0.3977  0.5551 -0.3933
  119SOL    HW3  530   2.483   4.444   0.841 -0.9878 -0.6318  1.0001
  119SOL    MW4  531   2.496   4.364   0.810  0.0086 -0.0496 -0.1051
  120SOL     OW  532   2.467   0.510   0.769  0.2846  0.0489 -0.2545
  120SOL    HW2  533   2.394   0.448   0.764 -0.0662  0.3380  0.9865
  120SOL    HW3  534   2.542   0.457   0.795  0.5062 -0.2358 -1.4510
  120SOL    MW4  535   2.467   0.495   0.772  0.2677  0.0495 -0.2487
  121SOL     OW  536   4.490   3.645   0.286  0.0737 -0.1248  0.2573
  121SOL    HW2  537   4.412   3.675   0.239  0.5447  0.5148 -0.1204
  121SOL    HW3  538   4.487   3.549   0.278 -1.7641 -0.2554  1.9935
  121SOL    MW4  539   4.479   3.636   0.279 -0.1063 -0.0579  0.4365
  122SOL     OW  540   1.167   4.634   0.868  0.1230  0.4610  0.1342
  122SOL    HW2  541   1.154   4.550   0.825 -1.5427  0.2912  0.9014
  122SOL    HW3  542   1.087   4.683   0.848 -0.0163  0.9220  1.7775
  122SOL    MW4  543   1.155   4.629   0.860 -0.1152  0.4997  0.4523
  123SOL     OW  544   2.021   3.568   0.296 -0.6250  0.1150 -0.2563
  123SOL    HW2  545   2.036   3.548   0.204 -1.2058 -0.2632 -0.2656
  123SOL    HW3  546   2.095   3.625   0.320  0.1259 -0.6948 -0.6480
  123SOL    MW4  547   2.033   3.573   0.287 -0.6025 -0.0420 -0.3092
  124SOL     OW  548   2.476   1.566   0.867  0.0918 -0.5351  0.0728
  124SOL    HW2  549   2.482   1.474   0.843 -1.4152 -0.4541 -0.7072
  124SOL    HW3  550   2.533   1.611   0.806 -0.3552 -0.7988 -0.5439
  124SOL    MW4  551   2.484   1.560   0.856 -0.1659 -0.5591 -0.1115
  125SOL     OW  552   2.675   4.506   0.425  0.2381 -0.0391 -0.3827
  125SOL    HW2  553   2.689   4.600   0.437 -1.2359  0.1464 -0.0504
  125SOL    HW3  554   2.761   4.466   0.444  1.6015  1.4480 -3.2292
  125SOL    MW4  555   2.689   4.513   0.429  0.2236  0.1822 -0.7145
  126SOL     OW  556   4.363   3.318   0.486  0.0535 -0.0638 -0.1977
  126SOL    HW2  557   4.435   3.308   0.424 -0.0329  0.5077 -0.3932
  126SOL    HW3  558   4.399   3.287   0.569  0.8015  1.0045 -0.1101
  126SOL    MW4  559   4.377   3.312   0.489  0.1407  0.1523 -0.2120
  127SOL     OW  560   0.927   1.627   0.745  0.0532  0.0986 -0.3872
  127SOL    HW2  561   0.840   1.590   0.761  0.0367  0.0276 -0.6521
  127SOL    HW3  562   0.916   1.721   0.761 -0.1760  0.1517 -0.8615
  127SOL    MW4  563   0.914   1.635   0.750  0.0208  0.0962 -0.4846
  128SOL     OW  564   0.522   4.038   0.776 -0.0570 -0.0473  0.5267
  128SOL    HW2  565   0.601   4.014   0.825  1.4774  1.6886 -1.0192
  128SOL    HW3  566   0.502   4.127   0.804 -0.2292  0.2923 -0.6489
  128SOL    MW4  567   0.530   4.046   0.786  0.1227  0.2265  0.1676
  129SOL     OW  568   3.270   0.502   0.469  0.0022  0.0009  0.2809
  129SOL    HW2  569   3.272   0.597   0.462  2.6084 -0.0120  0.3557
  129SOL    HW3  570   3.297   0.484   0.559  1.5404 -0.8264 -0.3164
  129SOL    MW4  571   3.274   0.512   0.480  0.5491 -0.1100  0.2120
  130SOL     OW  572   0.991   4.497   0.503 -0.0716  0.1785 -0.2302
  130SOL    HW2  573   1.001   4.430   0.434  0.2603  1.8369 -1.8223
  130SOL    HW3  574   1.047   4.466   0.574  2.0260 -0.0344 -1.9010
  130SOL    MW4  575   1.000   4.484   0.503  0.2489  0.3691 -0.6607
  131SOL     OW  576   0.264   4.343   0.454  0.0790  0.1845  0.5598
  131SOL    HW2  577   0.241   4.250   0.454 -1.3888  0.5279  0.8117
  131SOL    HW3  578   0.248   4.371   0.544  0.6690  0.6439  0.5235
  131SOL    MW4  579   0.259   4.335   0.466 -0.0368  0.2904  0.5882
  132SOL     OW  580   2.216   2.450   0.744  0.7891  0.2869 -0.2288
  132SOL    HW2  581   2.133   2.423   0.783  0.3499  1.7876 -0.1047
  132SOL    HW3  582   2.193   2.479   0.656  1.3896 -0.5650 -0.6737
  132SOL    MW4  583   2.202   2.450   0.738  0.8106  0.3724 -0.2711
  133SOL     OW  584   1.113   3.373   0.293  0.2661 -0.0080  0.2326
  133SOL    HW2  585   1.167   3.402   0.367 -0.4049 -0.3337  0.8550
  133SOL    HW3  586   1.036   3.332   0.334  0.9004 -2.1438 -0.6045
  133SOL    MW4  587   1.110   3.371   0.308  0.2613 -0.3328  0.2043
  134SOL     OW  588   1.490   1.031   0.678 -0.4073 -0.3076 -0.3237
  134SOL    HW2  589   1.508   1.018   0.585  2.0508 -0.9353  0.2056
  134SOL    HW3  590   1.531   1.115   0.699 -0.6644 -0.3242  0.2576
  134SOL    MW4  591   1.498   1.040   0.668 -0.1168 -0.3926 -0.1771
  135SOL     OW  592   3.345   1.744   0.310 -0.6720  0.0729 -0.3383
  135SOL    HW2  593   3.389   1.819   0.350 -0.6891  0.3469 -0.8313
  135SOL    HW3  594   3.407   1.672   0.318  0.0383  0.5675 -1.4290
  135SOL    MW4  595   3.359   1.744   0.317 -0.5805  0.1743 -0.5473
  136SOL     OW  596   2.014   4.628   0.829 -0.1662  0.1561 -0.0071
  136SOL    HW2  597   1.993   4.542   0.792 -0.1940 -0.0442  0.4763
  136SOL    HW3  598   2.102   4.647   0.797 -0.2352  0.0331 -0.2728
  136SOL    MW4  599   2.022   4.619   0.820 -0.1791  0.1135  0.0216
  137SOL     OW  600   2.027   1.288   0.749 -0.1648  0.3885 -0.5241
  137SOL    HW2  601   2.023   1.270   0.655 -0.2464 -1.2968 -0.2143
  137SOL    HW3  602   2.102   1.237   0.780 -1.1550 -0.4301  0.6033
  137SOL    MW4  603   2.036   1.279   0.741 -0.3061  0.0582 -0.3345
  138SOL     OW  604   0.212   3.561   0.791  0.4242 -0.6818 -0.0879
  138SOL    HW2  605   0.286   3.512   0.828  0.0947 -1.3578 -0.3280
  138SOL    HW3  606   0.243   3.652   0.788  0.3098 -0.5363  2.2278
  138SOL    MW4  607   0.226   3.567   0.795  0.3656 -0.7517  0.1859
  139SOL     OW  608   1.862   4.012   0.731  0.4193 -0.0172  0.1946
  139SOL    HW2  609   1.840   4.007   0.638 -0.3437  0.8546  0.3305
  139SOL    HW3  610   1.854   4.104   0.754 -0.3573 -0.3662  1.3637
  139SOL    MW4  611   1.858   4.023   0.722  0.2161  0.0520  0.3668
  140SOL     OW  612   1.131   2.048   0.423 -0.2960 -0.2772 -0.0807
  140SOL    HW2  613   1.097   1.974   0.373  0.5982 -0.1524 -0.9018
  140SOL    HW3  614   1.063   2.114   0.419  0.0848  0.0450 -1.8596
  140SOL    MW4  615   1.118   2.047   0.416 -0.1278 -0.2184 -0.4237
  141SOL     OW  616   3.729   1.007   0.509  0.0640  0.1696  0.0900
  141SOL    HW2  617   3.756   0.924   0.469 -1.0621  0.0390 -0.4247
  141SOL    HW3  618   3.638   1.018   0.482  0.1910  1.5587  0.1896
  141SOL    MW4  619   3.720   0.997   0.500 -0.0675  0.3358  0.0352
  142SOL     OW  620   3.014   0.404   0.512 -0.4137  0.0857 -0.1455
  142SOL    HW2  621   2.970   0.443   0.587  0.8046 -0.6311  0.9639
  142SOL    HW3  622   3.102   0.443   0.513 -0.2331 -0.2929 -0.9088
  142SOL    MW4  623   3.020   0.414   0.522 -0.2291 -0.0588 -0.0998
  143SOL     OW  624   4.111   0.825   0.493  0.0995 -0.2763 -0.0415
  143SOL    HW2  625   4.192   0.775   0.492  0.3498  0.1209  0.0554
  143SOL    HW3  626   4.099   0.851   0.585 -0.3830 -0.7300  0.0250
  143SOL    MW4  627   4.120   0.822   0.505  0.0687 -0.2837 -0.0200
  144SOL     OW  628   1.315   3.459   0.490 -0.2282 -0.7620  0.0175
  144SOL    HW2  629   1.379   3.391   0.470 -2.0031 -2.5061  0.0941
  144SOL    HW3  630   1.308   3.459   0.586  0.3592  0.1071  0.0687
  144SOL    MW4  631   1.322   3.450   0.500 -0.3849 -0.8774  0.0343
  145SOL     OW  632   1.054   0.097   0.487  0.2576  0.3804  0.3763
  145SOL    HW2  633   1.041   0.002   0.486  1.5336  0.2047  0.6436
  145SOL    HW3  634   1.032   0.123   0.577  1.0625  0.1702  0.6400
  145SOL    MW4  635   1.049   0.088   0.499  0.5322  0.3295  0.4463
  146SOL     OW  636   4.080   1.337   0.523 -0.2811  0.1309 -0.3666
  146SOL    HW2  637   4.076   1.432   0.511  1.4678 -0.0017 -2.3600
  146SOL    HW3  638   4.158   1.323   0.577  0.6911 -0.2930 -1.8587
  146SOL    MW4  639   4.090   1.348   0.529  0.0777  0.0576 -0.8265
  147SOL     OW  640   2.126   3.599   0.690  0.1039  0.1562  0.2664
  147SOL    HW2  641   2.112   3.664   0.759  0.1041 -0.3460  0.7390
  147SOL    HW3  642   2.174   3.646   0.622 -0.1989  0.7440  0.4563
  147SOL    MW4  643   2.130   3.614   0.690  0.0641  0.1676  0.3538
  148SOL     OW  644   0.646   0.357   0.517 -0.3088 -0.4480 -0.4817
  148SOL    HW2  645   0.584   0.422   0.485  0.0888 -1.1298 -2.7360
  148SOL    HW3  646   0.594   0.276   0.524 -0.3586 -0.3362  0.4810
  148SOL    MW4  647   0.631   0.355   0.514 -0.2629 -0.5232 -0.6521
  149SOL     OW  648   2.246   3.161   0.501 -0.2114 -0.0152  0.2106
  149SOL    HW2  649   2.190   3.090   0.470  1.2967 -0.8267 -0.7252
  149SOL    HW3  650   2.192   3.240   0.492 -0.9692 -0.6911 -1.2791
  149SOL    MW4  651   2.231   3.162   0.496 -0.1125 -0.2115 -0.1094
  150SOL     OW  652   2.649   3.912   0.507  0.3122  0.1116  0.1467
  150SOL    HW2  653   2.596   3.983   0.471 -1.8767 -0.2350  2.5296
  150SOL    HW3  654   2.683   3.948   0.589  0.4264 -1.0577  0.6158
  150SOL    MW4  655   2.646   3.926   0.513  0.0384 -0.0885  0.5230
  151SOL     OW  656   0.621   3.913   0.545  0.3712  0.2552  0.0725
  151SOL    HW2  657   0.577   3.938   0.626  1.5240  1.9637  0.2047
  151SOL    HW3  658   0.645   3.996   0.504  2.6384 -0.6011 -0.4198
  151SOL    MW4  659   0.619   3.927   0.551  0.8224  0.3676  0.0250
  152SOL     OW  660   3.344   3.913   0.833  0.5399 -0.1208 -0.0187
  152SOL    HW2  661   3.334   3.904   0.927 -0.3906 -2.1903 -0.2979
  152SOL    HW3  662   3.438   3.923   0.820  0.7509 -0.6551  1.0578
  152SOL    MW4  663   3.355   3.913   0.843  0.4451 -0.4642  0.0865
  153SOL     OW  664   3.811   1.284   0.492 -0.4247  0.6187  0.1471
  153SOL    HW2  665   3.898   1.321   0.482 -0.4808  0.3076 -1.7307
  153SOL    HW3  666   3.826   1.190   0.501 -0.5263  0.6366  0.5075
  153SOL    MW4  667   3.824   1.276   0.492 -0.4454  0.5798 -0.0531
  154SOL     OW  668   2.910   2.078   0.446 -0.4329  0.0494  0.1761
  154SOL    HW2  669   2.837   2.141   0.441  0.0390  0.5619 -0.2467
  154SOL    HW3  670   2.980   2.118   0.394  0.1791 -0.4074  0.6427
  154SOL    MW4  671   2.909   2.092   0.439 -0.2899  0.0567  0.1819
  155SOL     OW  672   0.514   2.475   0.355  0.1754 -0.2680 -0.2993
  155SOL    HW2  673   0.566   2.394   0.352 -0.5836 -0.7645 -0.4314
  155SOL    HW3  674   0.432   2.448   0.397  0.0407  0.5070 -0.0733
  155SOL    MW4  675   0.510   2.461   0.360  0.0575 -0.2315 -0.2869
  156SOL     OW  676   0.678   0.717   0.175  0.5142 -0.1669  0.0913
  156SOL    HW2  677   0.599   0.747   0.220 -0.2404  0.6623 -1.7355
  156SOL    HW3  678   0.645   0.657   0.108  1.4678 -0.0651 -0.4741
  156SOL    MW4  679   0.663   0.713   0.172  0.5404 -0.0440 -0.2243
  157SOL     OW  680   2.937   2.338   0.803 -0.1002 -0.2748 -0.0594
  157SOL    HW2  681   2.867   2.396   0.772 -1.6188 -1.8673  0.3194
  157SOL    HW3  682   2.920   2.327   0.896 -0.2528 -1.8922 -0.2663
  157SOL    MW4  683   2.925   2.345   0.811 -0.3209 -0.6981 -0.0367
  158SOL     OW  684   1.647   1.999   0.479 -0.0021 -0.3297  0.1034
  158SOL    HW2  685   1.564   2.025   0.438  0.4980  1.2653  0.0664
  158SOL    HW3  686   1.638   2.025   0.571  0.0494 -1.1329  0.3390
  158SOL    MW4  687   1.635   2.006   0.486  0.0707 -0.2251  0.1296
  159SOL     OW  688   0.607   3.963   0.176 -0.0171  0.1611 -0.3499
  159SOL    HW2  689   0.556   3.899   0.225 -0.0935  1.4405  1.2569
  159SOL    HW3  690   0.591   3.940   0.084  0.1370 -2.2495  0.1866
  159SOL    MW4  691   0.598   3.951   0.170 -0.0069  0.0117 -0.0671
  160SOL     OW  692   4.481   0.118   0.703  0.0451 -0.2391  0.1428
  160SOL    HW2  693   4.406   0.079   0.747  0.0731  0.2439  0.6338
  160SOL    HW3  694   4.486   0.207   0.740 -0.8131  0.6912 -1.8723
  160SOL    MW4  695   4.472   0.125   0.714 -0.0644 -0.0526 -0.0582
  161SOL     OW  696   1.130   1.242   0.710  0.3020 -0.2947 -0.2999
  161SOL    HW2  697   1.170   1.161   0.742  0.8935  0.0124 -0.2692
  161SOL    HW3  698   1.135   1.234   0.615 -1.5202 -1.2398 -0.3399
  161SOL    MW4  699   1.136   1.230   0.702  0.1397 -0.3788 -0.3012
  162SOL     OW  700   3.152   3.183   0.467 -0.1222 -0.1382  0.2435
  162SOL    HW2  701   3.166   3.160   0.558 -0.5643  0.4658  0.4726
  162SOL    HW3  702   3.224   3.141   0.420 -0.8417 -1.8493  0.6468
  162SOL    MW4  703   3.163   3.175   0.473 -0.2756 -0.2842  0.3270
  163SOL     OW  704   3.020   0.123   0.513 -0.0161 -0.2742 -0.4840
  163SOL    HW2  705   3.013   0.217   0.497  0.1120 -0.1044  0.4268
  163SOL    HW3  706   3.081   0.115   0.586  1.6164 -1.1958 -1.9302
  163SOL    MW4  707   3.027   0.134   0.521  0.2160 -0.3734 -0.5547
  164SOL     OW  708   0.447   0.536   0.459 -0.6362 -0.0827 -0.1897
  164SOL    HW2  709   0.425   0.624   0.428 -0.8058 -0.4588 -1.1577
  164SOL    HW3  710   0.363   0.490   0.461 -0.9479  0.4827  2.7141
  164SOL    MW4  711   0.433   0.542   0.455 -0.6997 -0.0577  0.0657
  165SOL     OW  712   3.446   1.004   0.462 -0.6329 -0.4186  0.2997
  165SOL    HW2  713   3.385   1.074   0.486  0.0182 -0.3374  1.8010
  165SOL    HW3  714   3.394   0.924   0.471 -0.7558 -0.2889  0.8111
  165SOL    MW4  715   3.431   1.003   0.467 -0.5634 -0.3908  0.5652
  166SOL     OW  716   0.885   1.173   0.827  0.0367 -0.0512  0.1721
  166SOL    HW2  717   0.808   1.196   0.774  0.1682  1.0478  0.4477
  166SOL    HW3  718   0.959   1.213   0.780  0.4373 -1.0538 -0.0585
  166SOL    MW4  719   0.884   1.181   0.814  0.1069 -0.0384  0.1781
  167SOL     OW  720   4.461   3.245   0.749  0.5678 -0.4577  0.0142
  167SOL    HW2  721   4.542   3.204   0.781  0.0400 -0.9191  0.7841
  167SOL    HW3  722   4.461   3.331   0.791  1.6721  0.3458 -1.5947
  167SOL    MW4  723   4.472   3.251   0.759  0.6437 -0.4127 -0.0965
  168SOL     OW  724   4.108   3.991   0.446  0.3378 -0.4784 -0.4071
  168SOL    HW2  725   4.085   3.906   0.408 -0.0282 -0.6857  0.2648
  168SOL    HW3  726   4.037   4.049   0.420 -0.1611 -0.7366  0.3454
  168SOL    MW4  727   4.096   3.987   0.438  0.2236 -0.5398 -0.2191
  169SOL     OW  728   1.996   2.805   0.203 -0.4147 -0.1952  0.3989
  169SOL    HW2  729   1.908   2.840   0.211 -0.8146 -1.0316 -0.2588
  169SOL    HW3  730   2.027   2.836   0.118  0.1254  0.5282  0.8538
  169SOL    MW4  731   1.989   2.814   0.193 -0.3963 -0.2103  0.3722
  170SOL     OW  732   0.480   2.748   0.372  0.1202 -0.2391 -0.3285
  170SOL    HW2  733   0.485   2.661   0.333  0.2406 -0.7547  0.8038
  170SOL    HW3  734   0.564   2.759   0.417 -0.1908  0.1427  0.1704
  170SOL    MW4  735   0.491   2.738   0.373  0.0950 -0.2568 -0.1133
  171SOL     OW  736   1.149   0.888   0.566 -0.0925  0.0723 -0.0861
  171SOL    HW2  737   1.069   0.844   0.538 -1.2601  2.0670 -0.0114
  171SOL    HW3  738   1.147   0.884   0.662 -0.0438 -0.0010 -0.0885
  171SOL    MW4  739   1.138   0.882   0.575 -0.2400  0.3259 -0.0766
  172SOL     OW  740   1.394   1.670   0.739  0.1130  0.4332  0.3387
  172SOL    HW2  741   1.423   1.655   0.649 -1.1236  0.8101 -0.1236
  172SOL    HW3  742   1.316   1.616   0.749  0.4645  0.0921  1.3101
  172SOL    MW4  743   1.388   1.661   0.729 -0.0038  0.4380  0.4058
  173SOL     OW  744   1.493   3.093   0.294 -0.0236 -0.2437 -0.4025
  173SOL    HW2  745   1.509   3.180   0.332 -1.8908 -0.6433  1.3598
  173SOL    HW3  746   1.411   3.104   0.245  0.2349 -0.7783 -0.9586
  173SOL    MW4  747   1.484   3.106   0.292 -0.2359 -0.3669 -0.2434
  174SOL     OW  748   3.487   0.313   0.366 -0.2134 -0.5046 -0.0125
  174SOL    HW2  749   3.408   0.356   0.396 -1.0695 -2.3243  0.3840
  174SOL    HW3  750   3.473   0.299   0.272 -0.2130 -0.5105 -0.0117
  174SOL    MW4  751   3.475   0.317   0.357 -0.3264 -0.7455  0.0399
  175SOL     OW  752   0.301   3.087   0.348  0.3798  0.4466 -0.0237
  175SOL    HW2  753   0.272   3.007   0.393  1.2489 -0.1138 -0.4354
  175SOL    HW3  754   0.361   3.056   0.281  2.1467  1.5792  0.9916
  175SOL    MW4  755   0.305   3.072   0.345  0.7276  0.5221  0.0559
  176SOL     OW  756   2.301   0.662   0.493  0.2224 -0.1607  0.1671
  176SOL    HW2  757   2.387   0.619   0.500  0.4238 -0.0169 -1.3453
  176SOL    HW3  758   2.321   0.756   0.491 -0.1686  0.0091  2.6582
  176SOL    MW4  759   2.315   0.669   0.494  0.1972 -0.1193  0.2963
  177SOL     OW  760   2.004   2.336   0.836  0.1857  0.3403 -0.4907
  177SOL    HW2  761   1.919   2.381   0.833 -0.2810 -0.5072 -0.1527
  177SOL    HW3  762   2.015   2.311   0.928  0.5247 -0.0825 -0.6430
  177SOL    MW4  763   1.994   2.339   0.848  0.1688  0.1729 -0.4662
  178SOL     OW  764   2.238   4.027   0.457  0.0405 -0.3361 -0.3101
  178SOL    HW2  765   2.306   4.070   0.407 -0.1202  0.2040 -0.0690
  178SOL    HW3  766   2.157   4.074   0.435 -0.2559 -0.9658 -0.5919
  178SOL    MW4  767   2.236   4.039   0.448 -0.0198 -0.3481 -0.3155
  179SOL     OW  768   1.347   3.718   0.361  0.3962 -0.1959 -0.4610
  179SOL    HW2  769   1.343   3.636   0.409  1.9855 -1.0648 -1.7937
  179SOL    HW3  770   1.266   3.719   0.310  1.2149 -1.7827 -1.8068
  179SOL    MW4  771   1.336   3.708   0.361  0.7139 -0.5200 -0.8144
  180SOL     OW  772   2.671   1.659   0.400  0.1230  0.0770  0.3135
  180SOL    HW2  773   2.591   1.698   0.365  0.4142  0.7409  0.3938
  180SOL    HW3  774   2.663   1.667   0.495 -0.5972 -1.5892  0.4178
  180SOL    MW4  775   2.660   1.665   0.408  0.0665 -0.0554  0.3378
  181SOL     OW  776   1.110   2.055   0.706  0.7404  0.4900  0.2216
  181SOL    HW2  777   1.140   2.048   0.615 -0.5810 -1.5833 -0.0892
  181SOL    HW3  778   1.179   2.013   0.757  0.2282 -0.7805 -0.1097
  181SOL    MW4  779   1.123   2.049   0.701  0.4984  0.0489  0.1369
  182SOL     OW  780   4.284   2.296   0.914  0.0394 -0.2137 -0.0517
  182SOL    HW2  781   4.359   2.341   0.875 -0.7434  0.0600 -1.2537
  182SOL    HW3  782   4.278   2.213   0.867 -1.5861  0.5935 -1.3067
  182SOL    MW4  783   4.293   2.291   0.903 -0.2785 -0.0710 -0.3759
  183SOL     OW  784   2.053   0.488   0.769  0.7001  0.2232  0.0875
  183SOL    HW2  785   1.965   0.466   0.800  1.1956 -1.1359  0.5405
  183SOL    HW3  786   2.047   0.481   0.674  0.5285 -0.6749  0.1616
  183SOL    MW4  787   2.040   0.484   0.761  0.7429 -0.0746  0.1570
  184SOL     OW  788   1.578   1.486   0.871 -0.1645  0.1424  0.4929
  184SOL    HW2  789   1.575   1.498   0.966 -1.9270 -0.8358  0.5804
  184SOL    HW3  790   1.526   1.559   0.837  0.1621  0.2797  0.2802
  184SOL    MW4  791   1.571   1.497   0.879 -0.3538  0.0315  0.4764
  185SOL     OW  792   1.791   2.997   0.482  0.0935  0.2086  0.1888
  185SOL    HW2  793   1.744   2.986   0.565 -2.3555 -1.9011 -1.3757
  185SOL    HW3  794   1.793   3.091   0.468 -0.5046  0.5234  2.0781
  185SOL    MW4  795   1.785   3.008   0.491 -0.3086 -0.0281  0.2316
  186SOL     OW  796   4.234   2.724   0.483 -0.2083 -0.1121  0.0042
  186SOL    HW2  797   4.183   2.802   0.461 -0.5222 -0.1424  0.5937
  186SOL    HW3  798   4.171   2.652   0.477 -0.1711 -0.1857  0.4423
  186SOL    MW4  799   4.219   2.725   0.479 -0.2437 -0.1259  0.1398
  187SOL     OW  800   3.380   2.071   0.677  0.1892  0.0926  0.0996
  187SOL    HW2  801   3.298   2.025   0.692  0.0833  0.2010 -0.1528
  187SOL    HW3  802   3.448   2.011   0.709 -0.0581  0.4994  1.4419
  187SOL    MW4  803   3.378   2.057   0.683  0.1426  0.1607  0.2434
  188SOL     OW  804   3.588   3.245   0.802 -0.5661  0.1980 -0.4388
  188SOL    HW2  805   3.508   3.194   0.816  0.2551 -0.6321  1.2511
  188SOL    HW3  806   3.613   3.226   0.711 -2.1332  0.2718 -0.9091
  188SOL    MW4  807   3.581   3.236   0.792 -0.6645  0.0985 -0.2779
  189SOL     OW  808   2.429   1.349   0.496  0.0161  0.3405  0.0481
  189SOL    HW2  809   2.371   1.287   0.451  0.5132  0.3749 -0.6518
  189SOL    HW3  810   2.374   1.425   0.512  0.0493  0.6557 -1.2689
  189SOL    MW4  811   2.414   1.351   0.492  0.0861  0.3867 -0.2180
  190SOL     OW  812   2.739   0.869   0.785  0.2000  0.0630 -0.1518
  190SOL    HW2  813   2.724   0.959   0.813 -0.5378 -0.2838  0.6170
  190SOL    HW3  814   2.701   0.864   0.697  0.2818  0.5083 -0.2125
  190SOL    MW4  815   2.732   0.880   0.777  0.1135  0.0759 -0.0584
  191SOL     OW  816   3.862   4.139   0.432  0.5748  0.1387 -0.0782
  191SOL    HW2  817   3.817   4.193   0.497 -0.4189 -0.8996  0.1119
  191SOL    HW3  818   3.834   4.050   0.451  1.0231 -0.2863 -1.3363
  191SOL    MW4  819   3.852   4.134   0.443  0.5028 -0.0548 -0.2191
  192SOL     OW  820   4.479   2.422   0.774 -0.4885  0.4139 -0.5612
  192SOL    HW2  821   4.565   2.387   0.796 -0.5226  0.7675  0.1544
  192SOL    HW3  822   4.467   2.400   0.681 -0.2174 -0.8229 -0.3025
  192SOL    MW4  823   4.489   2.415   0.764 -0.4578  0.2973 -0.4326
  193SOL     OW  824   1.809   3.290   0.524  0.2377  0.1695  0.0268
  193SOL    HW2  825   1.808   3.279   0.619 -1.0861  0.1768  0.0141
  193SOL    HW3  826   1.894   3.329   0.506  0.4317  0.3245  1.2251
  193SOL    MW4  827   1.820   3.293   0.534  0.0887  0.1910  0.1832
  194SOL     OW  828   2.029   4.203   0.397  0.2003  0.2186  0.0132
  194SOL    HW2  829   2.020   4.271   0.464 -0.1417  0.0325  0.1622
  194SOL    HW3  830   2.032   4.251   0.314 -0.7375  0.3920  0.0652
  194SOL    MW4  831   2.028   4.219   0.395  0.0315  0.2174  0.0397
  195SOL     OW  832   2.215   2.700   0.826 -0.6541  0.1012  0.0288
  195SOL    HW2  833   2.191   2.714   0.918 -0.1826  2.1042 -0.1377
  195SOL    HW3  834   2.214   2.604   0.815  0.6254 -0.2216  2.4573
  195SOL    MW4  835   2.211   2.689   0.837 -0.4232  0.3226  0.3272
  196SOL     OW  836   0.795   0.981   0.144  0.3626  0.1454 -0.4421
  196SOL    HW2  837   0.719   1.037   0.161  0.2016 -0.0501 -0.5183
  196SOL    HW3  838   0.758   0.894   0.133  0.4625  0.2677 -1.8217
  196SOL    MW4  839   0.780   0.977   0.145  0.3545  0.1357 -0.6342
  197SOL     OW  840   2.694   0.391   0.847 -0.1719 -0.4697  0.5433
  197SOL    HW2  841   2.787   0.396   0.828 -0.2476  0.2664  0.3621
  197SOL    HW3  842   2.688   0.389   0.942  0.0446 -0.8982  0.5485
  197SOL    MW4  843   2.705   0.391   0.857 -0.1533 -0.4291  0.5201
  198SOL     OW  844   2.240   4.009   0.726  0.2037  0.2116  0.3237
  198SOL    HW2  845   2.229   3.989   0.633  1.5293 -1.1224  0.4446
  198SOL    HW3  846   2.173   3.956   0.770  0.3437 -0.0424  0.2295
  198SOL    MW4  847   2.229   3.999   0.720  0.3970  0.0019  0.3272
  199SOL     OW  848   0.957   0.130   0.741 -0.3639  0.1531  0.2203
  199SOL    HW2  849   0.881   0.071   0.744 -0.0817 -0.1720  1.1190
  199SOL    HW3  850   0.923   0.214   0.771 -0.5405  0.2012 -0.1110
  199SOL    MW4  851   0.942   0.133   0.745 -0.3499  0.1165  0.2952
  200SOL     OW  852   2.231   1.951   0.852 -0.4004  0.4512  0.3688
  200SOL    HW2  853   2.224   1.864   0.813 -2.4703  0.8034 -0.0919
  200SOL    HW3  854   2.162   2.002   0.809  0.4007  2.1569  1.0670
  200SOL    MW4  855   2.221   1.947   0.841 -0.5677  0.7225  0.4001
  201SOL     OW  856   0.198   1.236   0.758 -0.0607  0.0536  0.2359
  201SOL    HW2  857   0.236   1.238   0.670 -0.3159  0.3589  0.1348
  201SOL    HW3  858   0.269   1.204   0.813  0.5009  1.0902  0.1235
  201SOL    MW4  859   0.213   1.232   0.753 -0.0202  0.2306  0.2077
  202SOL     OW  860   1.172   0.683   0.220  0.0533  0.5542 -0.2190
  202SOL    HW2  861   1.081   0.653   0.221  0.2277  0.0004 -0.4139
  202SOL    HW3  862   1.173   0.759   0.163 -0.3062  0.6162 -0.1397
  202SOL    MW4  863   1.160   0.689   0.213  0.0288  0.4893 -0.2343
  203SOL     OW  864   4.070   0.879   0.764  0.3742  0.1353 -0.1885
  203SOL    HW2  865   3.984   0.840   0.774  0.9293 -1.1111 -0.1946
  203SOL    HW3  866   4.063   0.964   0.807 -0.7586 -0.0918  0.0925
  203SOL    MW4  867   4.058   0.885   0.771  0.2980 -0.0591 -0.1522
  204SOL     OW  868   1.512   3.779   0.743  0.2231 -0.5446 -0.4819
  204SOL    HW2  869   1.586   3.753   0.687  1.3414 -0.3952  0.8804
  204SOL    HW3  870   1.551   3.838   0.807 -1.1750 -0.1535  0.0174
  204SOL    MW4  871   1.527   3.783   0.744  0.1861 -0.4733 -0.2363
  205SOL     OW  872   4.277   1.744   0.423 -0.1746 -0.0477 -0.1039
  205SOL    HW2  873   4.355   1.692   0.440 -0.6265 -1.5442 -2.2997
  205SOL    HW3  874   4.307   1.835   0.427  1.2257 -0.5485  1.0848
  205SOL    MW4  875   4.291   1.750   0.425 -0.0491 -0.3113 -0.2367
  206SOL     OW  876   2.272   0.251   0.461  0.1765  0.2856  0.4115
  206SOL    HW2  877   2.284   0.264   0.367  0.8842  1.1049  0.6077
  206SOL    HW3  878   2.275   0.156   0.473 -0.4993  0.1443 -0.4598
  206SOL    MW4  879   2.274   0.240   0.450  0.1807  0.3750  0.3224
  207SOL     OW  880   3.681   0.140   0.450  0.2776  0.2410 -0.1153
  207SOL    HW2  881   3.620   0.209   0.424  1.0043  0.2229 -1.9730
  207SOL    HW3  882   3.767   0.174   0.427  0.6089 -1.4520 -1.5109
  207SOL    MW4  883   3.684   0.153   0.444  0.4170  0.0152 -0.5446
  208SOL     OW  884   4.080   2.962   0.456 -0.5833  0.1854 -0.1016
  208SOL    HW2  885   4.097   3.056   0.459 -0.5695  0.1537  0.7126
  208SOL    HW3  886   3.985   2.955   0.448 -0.5170  0.2808 -1.1153
  208SOL    MW4  887   4.070   2.973   0.455 -0.5727  0.1936 -0.1279
  209SOL     OW  888   3.353   1.210   0.770  0.1549 -0.2653 -0.1714
  209SOL    HW2  889   3.304   1.221   0.688 -1.8755 -1.6521  0.8104
  209SOL    HW3  890   3.344   1.295   0.815 -0.8828 -0.3331 -0.2459
  209SOL    MW4  891   3.345   1.223   0.765 -0.2499 -0.4572 -0.0517
  210SOL     OW  892   1.836   3.989   0.444 -0.0246  0.2813  0.1365
  210SOL    HW2  893   1.752   4.020   0.410 -0.1154  0.5402  0.5925
  210SOL    HW3  894   1.898   4.057   0.420  0.0254  0.1713 -0.0486
  210SOL    MW4  895   1.833   4.002   0.437 -0.0299  0.3004  0.1723
  211SOL     OW  896   0.034   2.633   0.460 -0.3972  0.0277  0.0397
  211SOL    HW2  897  -0.051   2.676   0.458  0.1170  1.1007  0.7522
  211SOL    HW3  898   0.097   2.703   0.445  0.3665 -0.7559 -0.4851
  211SOL    MW4  899   0.032   2.648   0.458 -0.2286  0.0660  0.0644
  212SOL     OW  900   2.936   0.476   0.772  0.0490  0.5090 -0.0923
  212SOL    HW2  901   2.939   0.565   0.806 -0.2376  0.3380  0.3893
  212SOL    HW3  902   3.014   0.433   0.809 -0.1766  0.3679  0.2174
  212SOL    MW4  903   2.947   0.482   0.781 -0.0184  0.4678  0.0122
  213SOL     OW  904   0.666   1.186   0.401  0.4718  0.5020  0.0365
  213SOL    HW2  905   0.748   1.236   0.406 -0.6608  2.1598  4.1310
  213SOL    HW3  906   0.687   1.102   0.441 -0.0000  1.2337  1.8551
  213SOL    MW4  907   0.679   1.181   0.407  0.2601  0.8173  0.8166
  214SOL     OW  908   4.029   2.521   0.525  0.2584 -0.4861 -0.0230
  214SOL    HW2  909   3.936   2.517   0.504 -0.0123 -0.0507  1.0443
  214SOL    HW3  910   4.032   2.518   0.621  1.3379 -0.3794 -0.0464
  214SOL    MW4  911   4.017   2.520   0.535  0.3648 -0.4146  0.1147
  215SOL     OW  912   0.302   1.631   0.493 -0.0619  0.5057 -0.1659
  215SOL    HW2  913   0.363   1.574   0.446  0.6940  1.6953 -0.6451
  215SOL    HW3  914   0.337   1.637   0.581 -0.3524 -0.0571 -0.0043
  215SOL    MW4  915   0.314   1.624   0.498 -0.0005  0.5884 -0.2078
  216SOL     OW  916   3.812   2.036   0.774 -0.1196  0.0383  0.0370
  216SOL    HW2  917   3.790   2.033   0.680 -0.1449  0.6299  0.0247
  216SOL    HW3  918   3.822   2.129   0.793  1.3372 -0.1671  0.2862
  216SOL    MW4  919   3.810   2.048   0.764  0.0694  0.0892  0.0682
  217SOL     OW  920   2.229   4.281   0.804 -0.2259  0.2736  0.2524
  217SOL    HW2  921   2.239   4.186   0.796 -0.9199  0.4085 -3.0798
  217SOL    HW3  922   2.317   4.316   0.787 -0.3953  0.2985 -0.5915
  217SOL    MW4  923   2.242   4.273   0.800 -0.3397  0.2947 -0.2986
  218SOL     OW  924   1.359   2.529   0.267  0.3198 -0.1242 -0.2300
  218SOL    HW2  925   1.432   2.583   0.296 -1.2503  2.1841 -0.4227
  218SOL    HW3  926   1.302   2.520   0.343  0.1848 -0.8952 -0.4081
  218SOL    MW4  927   1.361   2.535   0.281  0.0948  0.0789 -0.2789
  219SOL     OW  928   3.570   4.235   0.821  0.1567  0.2039  0.4998
  219SOL    HW2  929   3.492   4.275   0.784  0.2885 -0.5073 -0.5858
  219SOL    HW3  930   3.643   4.274   0.772  0.3349 -0.7241  0.0063
  219SOL    MW4  931   3.570   4.245   0.810  0.1976 -0.0119  0.2915
  220SOL     OW  932   1.533   4.551   0.456  0.5623 -0.2417  0.1592
  220SOL    HW2  933   1.613   4.604   0.455 -0.2234  0.9297 -0.0465
  220SOL    HW3  934   1.462   4.613   0.468 -0.1995 -1.4658  2.3294
  220SOL    MW4  935   1.534   4.566   0.457  0.3581 -0.2489  0.4184
  221SOL     OW  936   0.503   0.829   0.379  0.0022 -0.3109  0.6616
  221SOL    HW2  937   0.426   0.881   0.404  0.8499  0.9995  0.6219
  221SOL    HW3  938   0.565   0.844   0.451  0.1207 -1.5731  0.8235
  221SOL    MW4  939   0.501   0.838   0.392  0.1297 -0.3045  0.6778
  222SOL     OW  940   1.805   3.727   0.392 -0.5230  0.0567  0.1236
  222SOL    HW2  941   1.878   3.679   0.353 -0.3634  0.6277 -0.2989
  222SOL    HW3  942   1.832   3.819   0.388 -0.5684  0.1372  1.4525
  222SOL    MW4  943   1.818   3.733   0.386 -0.5078  0.1426  0.2432
  223SOL     OW  944   3.086   1.170   0.845  0.3633 -0.0730 -0.3018
  223SOL    HW2  945   3.175   1.177   0.811  0.7605  2.9157  1.1736
  223SOL    HW3  946   3.097   1.146   0.937 -0.3654  0.1082 -0.1636
  223SOL    MW4  947   3.099   1.168   0.852  0.3197  0.3452 -0.0889
  224SOL     OW  948   3.370   4.419   0.456  0.0374  0.0323 -0.4367
  224SOL    HW2  949   3.458   4.456   0.446  0.1966 -0.0769  0.4701
  224SOL    HW3  950   3.312   4.487   0.422  0.4814  0.0627 -1.1406
  224SOL    MW4  951   3.374   4.433   0.450  0.1168  0.0219 -0.4099
  225SOL     OW  952   0.715   0.931   0.527  0.4054 -0.3191  0.1194
  225SOL    HW2  953   0.768   0.893   0.458  0.5913  1.6565 -0.8593
  225SOL    HW3  954   0.766   0.918   0.607  1.0507 -0.9368 -0.3871
  225SOL    MW4  955   0.729   0.924   0.528  0.5151 -0.1400 -0.0765
  226SOL     OW  956   0.421   2.451   0.718 -0.3222 -0.0366  0.5401
  226SOL    HW2  957   0.500   2.400   0.700  0.3735  0.7279  1.4355
  226SOL    HW3  958   0.377   2.457   0.633  0.2942 -0.9443  0.1530
  226SOL    MW4  959   0.426   2.445   0.704 -0.1490 -0.0553  0.6072
  227SOL     OW  960   1.806   0.129   0.735  0.1458 -0.0796  0.2663
  227SOL    HW2  961   1.882   0.089   0.778  0.2558 -1.0539 -0.8261
  227SOL    HW3  962   1.731   0.098   0.785  0.2019 -1.9495 -0.7925
  227SOL    MW4  963   1.806   0.120   0.747  0.1676 -0.4549 -0.0175
  228SOL     OW  964   0.236   2.879   0.734 -0.1221  0.1054  0.1218
  228SOL    HW2  965   0.170   2.817   0.766  1.1710 -0.6559  1.3648
  228SOL    HW3  966   0.209   2.964   0.770  0.1945 -0.4020  1.5914
  228SOL    MW4  967   0.224   2.882   0.743  0.0903 -0.0620  0.4797
  229SOL     OW  968   0.814   2.387   0.847 -0.0735  0.4842 -0.1543
  229SOL    HW2  969   0.904   2.355   0.850  0.7754  2.8370  1.4347
  229SOL    HW3  970   0.778   2.367   0.933 -0.7053  0.5742 -0.3927
  229SOL    MW4  971   0.821   2.380   0.859 -0.0449  0.8066  0.0240
  230SOL     OW  972   1.350   0.753   0.432  0.3915  0.1515 -0.1002
  230SOL    HW2  973   1.307   0.751   0.347  0.3445 -0.4797 -0.0673
  230SOL    HW3  974   1.286   0.793   0.491  0.9836  1.9741 -0.6565
  230SOL    MW4  975   1.336   0.758   0.429  0.4632  0.3086 -0.1692
  231SOL     OW  976   3.735   3.903   0.527 -0.1980  0.0101 -0.1516
  231SOL    HW2  977   3.777   3.818   0.539  0.9264  0.6637  0.6029
  231SOL    HW3  978   3.688   3.919   0.609  1.8237  1.3393  0.7778
  231SOL    MW4  979   3.734   3.894   0.539  0.2170  0.2716  0.0706
  232SOL     OW  980   3.746   4.324   0.610  0.3704 -0.2345  0.0168
  232SOL    HW2  981   3.711   4.390   0.551  0.0391  0.1784  0.6752
  232SOL    HW3  982   3.813   4.370   0.661 -0.4696 -0.1841  1.0827
  232SOL    MW4  983   3.750   4.339   0.609  0.2162 -0.1736  0.2443
  233SOL     OW  984   3.149   1.910   0.189 -0.2664 -0.4724 -0.2559
  233SOL    HW2  985   3.068   1.883   0.233 -0.4378 -0.5682 -0.6283
  233SOL    HW3  986   3.215   1.848   0.221 -0.5030 -0.8713 -0.5377
  233SOL    MW4  987   3.147   1.898   0.199 -0.3202 -0.5376 -0.3422
  234SOL     OW  988   1.261   1.043   0.826 -0.2255 -0.2852 -0.0068
  234SOL    HW2  989   1.218   0.961   0.849 -0.8867  0.0830  0.1114
  234SOL    HW3  990   1.337   1.018   0.775  1.0746 -1.1029  2.2970
  234SOL    MW4  991   1.265   1.029   0.822 -0.1413 -0.3446  0.3127
  235SOL     OW  992   3.661   2.734   0.332  0.2431 -0.5303  0.4812
  235SOL    HW2  993   3.722   2.777   0.391  1.4412 -1.3734 -0.1258
  235SOL    HW3  994   3.685   2.764   0.245 -0.0465 -1.0570  0.2137
  235SOL    MW4  995   3.672   2.743   0.328  0.3631 -0.7114  0.3658
  236SOL     OW  996   1.549   1.356   0.418 -0.1685 -0.2251 -0.0974
  236SOL    HW2  997   1.526   1.447   0.436  0.6338 -0.4044  2.0101
  236SOL    HW3  998   1.639   1.360   0.385 -0.1099 -0.2475  0.0572
  236SOL    MW4  999   1.558   1.368   0.416 -0.0548 -0.2517  0.2011
  237SOL     OW 1000   1.617   1.278   0.695 -0.0511 -0.0861  0.0835
  237SOL    HW2 1001   1.613   1.350   0.757 -0.8796 -0.6074  0.6444
  237SOL    HW3 1002   1.585   1.315   0.612  0.7311  0.5161  0.0521
  237SOL    MW4 1003   1.612   1.292   0.692 -0.0572 -0.0753  0.1533
  238SOL     OW 1004   0.516   3.256   0.463  0.1031 -0.1052  0.2650
  238SOL    HW2 1005   0.592   3.199   0.460  0.3626  0.3047 -0.9916
  238SOL    HW3 1006   0.457   3.222   0.396 -0.0692  0.6335  0.0365
  238SOL    MW4 1007   0.518   3.244   0.454  0.1146  0.0463  0.0691
  239SOL     OW 1008   0.072   4.012   0.763  0.0392  0.3140 -0.3890
  239SOL    HW2 1009   0.089   4.034   0.671  0.1153 -1.7263 -0.9011
  239SOL    HW3 1010   0.148   3.958   0.788  0.1034  1.0118  0.9229
  239SOL    MW4 1011   0.085   4.007   0.754  0.0577  0.1364 -0.2835
  240SOL     OW 1012   4.033   1.625   0.499 -0.4159 -0.3033 -0.2565
  240SOL    HW2 1013   4.112   1.670   0.469  0.0105 -0.7711  0.1690
  240SOL    HW3 1014   4.008   1.670   0.579  0.0908 -0.9090  0.2456
  240SOL    MW4 1015   4.040   1.637   0.505 -0.2923 -0.4450 -0.1341
  241SOL     OW 1016   0.163   2.173   0.451  0.3374  0.0488  0.1526
  241SOL    HW2 1017   0.216   2.117   0.395  0.1645 -0.1727  0.2111
  241SOL    HW3 1018   0.176   2.138   0.539 -1.1445 -0.9754 -0.0296
  241SOL    MW4 1019   0.172   2.161   0.456  0.1191 -0.1154  0.1363
  242SOL     OW 1020   1.013   2.793   0.520 -0.1417  0.4432  0.0409
  242SOL    HW2 1021   1.041   2.872   0.473  0.3286  0.4661  0.3484
  242SOL    HW3 1022   1.039   2.810   0.611 -0.1688 -0.0043  0.1313
  242SOL    MW4 1023   1.020   2.806   0.526 -0.0832  0.3872  0.0935
  243SOL     OW 1024   0.456   0.115   0.788  0.2490 -0.1865  0.3804
  243SOL    HW2 1025   0.371   0.071   0.791  0.9380 -1.6043 -0.4341
  243SOL    HW3 1026   0.469   0.134   0.695  0.4083  0.8601  0.6124
  243SOL    MW4 1027   0.446   0.112   0.776  0.3609 -0.2355  0.3034
  244SOL     OW 1028   0.210   4.645   0.819  0.7178 -0.5438 -0.3509
  244SOL    HW2 1029   0.132   4.680   0.774  1.3577  1.0619 -0.2557
  244SOL    HW3 1030   0.212   4.553   0.795 -0.9359 -0.4880 -0.7723
  244SOL    MW4 1031   0.200   4.638   0.810  0.5841 -0.3242 -0.3939
  245SOL     OW 1032   4.481   0.341   0.878  0.3264 -0.1354  0.1753
  245SOL    HW2 1033   4.558   0.379   0.836 -0.3316  2.3624  1.1427
  245SOL    HW3 1034   4.501   0.341   0.971  0.2359 -2.0970  0.2246
  245SOL    MW4 1035   4.494   0.346   0.884  0.2275 -0.0646  0.3095
  246SOL     OW 1036   0.279   0.959   0.495 -0.0813  0.2049  0.5754
  246SOL    HW2 1037   0.191   0.929   0.516  0.5084 -0.6041  1.9406
  246SOL    HW3 1038   0.330   0.940   0.573  1.5553 -0.3123 -0.5928
  246SOL    MW4 1039   0.274   0.953   0.508  0.2125  0.0299  0.6014
  247SOL     OW 1040   0.210   0.459   0.763  0.0197  0.3052  0.2666
  247SOL    HW2 1041   0.288   0.428   0.809  0.0400 -0.8948 -0.5722
  247SOL    HW3 1042   0.220   0.427   0.674 -1.5168  0.0055  0.1877
  247SOL    MW4 1043   0.222   0.451   0.757 -0.1804  0.1073  0.1455
  248SOL     OW 1044   4.047   1.145   0.873  1.1087  0.1067 -0.0447
  248SOL    HW2 1045   3.972   1.193   0.838  0.7471 -1.1472 -1.0252
  248SOL    HW3 1046   4.027   1.133   0.966  0.5049  0.5341 -0.1182
  248SOL    MW4 1047   4.034   1.150   0.881  0.9813 -0.0024 -0.1837
  249SOL     OW 1048   0.689   2.239   0.393 -0.0300  0.0998  0.3693
  249SOL    HW2 1049   0.659   2.259   0.482 -0.2586  1.1123  0.0685
  249SOL    HW3 1050   0.664   2.147   0.380  0.5890 -0.2519  1.5878
  249SOL    MW4 1051   0.681   2.229   0.403  0.0216  0.1872  0.4904
  250SOL     OW 1052   4.252   1.250   0.730 -0.2181 -0.5028 -0.6038
  250SOL    HW2 1053   4.176   1.220   0.780  0.8930  0.4448  1.7179
  250SOL    HW3 1054   4.324   1.196   0.762  0.8355  1.2783  0.0988
  250SOL    MW4 1055   4.251   1.239   0.741  0.0677 -0.1428 -0.2048
  251SOL     OW 1056   3.791   2.267   0.362 -0.1191  0.2035 -0.1183
  251SOL    HW2 1057   3.704   2.252   0.326 -0.7594 -1.8386  2.1790
  251SOL    HW3 1058   3.790   2.357   0.392 -0.8340  0.7422 -1.6807
  251SOL    MW4 1059   3.780   2.277   0.361 -0.2975  0.0052 -0.0213
  252SOL     OW 1060   0.428   1.906   0.852 -0.0033  0.1236 -0.0322
  252SOL    HW2 1061   0.451   1.923   0.944 -1.7440 -2.1311  0.8559
  252SOL    HW3 1062   0.348   1.956   0.838 -0.1153 -0.0830 -0.1209
  252SOL    MW4 1063   0.421   1.915   0.863 -0.2477 -0.2011  0.0733
  253SOL     OW 1064   1.350   1.758   0.278  0.1322 -0.2753  0.2233
  253SOL    HW2 1065   1.255   1.751   0.282  0.1223 -0.2038  0.1233
  253SOL    HW3 1066   1.368   1.852   0.283  0.2417 -0.3367  1.0571
  253SOL    MW4 1067   1.340   1.769   0.279  0.1453 -0.2741  0.3201
  254SOL     OW 1068   2.578   0.562   0.516  0.0242  0.0783 -0.1231
  254SOL    HW2 1069   2.586   0.486   0.458  1.3854 -0.2531  0.4681
  254SOL    HW3 1070   2.550   0.525   0.600  3.3932 -0.1778  0.9669
  254SOL    MW4 1071   2.575   0.547   0.520  0.6485  0.0008  0.0986
  255SOL     OW 1072   0.239   2.286   0.834  0.3140 -0.1810  0.0077
  255SOL    HW2 1073   0.253   2.294   0.928 -0.1023 -0.0502  0.0581
  255SOL    HW3 1074   0.301   2.349   0.796 -0.0481  0.3114  0.2267
  255SOL    MW4 1075   0.249   2.295   0.841  0.2113 -0.0989  0.0432
  256SOL     OW 1076   4.252   2.054   0.782 -0.2020 -0.3206 -0.5568
  256SOL    HW2 1077   4.223   2.053   0.691 -0.7166  0.5876 -0.4065
  256SOL    HW3 1078   4.188   2.000   0.829 -0.7770  0.4104 -0.4898
  256SOL    MW4 1079   4.240   2.047   0.777 -0.3462 -0.1044 -0.5282
  257SOL     OW 1080   0.010   2.746   0.827 -0.4518 -0.2040 -0.2736
  257SOL    HW2 1081   0.001   2.724   0.920  0.1072  0.1636 -0.1243
  257SOL    HW3 1082  -0.009   2.665   0.781  0.7821 -0.7977  0.2338
  257SOL    MW4 1083   0.007   2.732   0.833 -0.2152 -0.2337 -0.1870
  258SOL     OW 1084   4.096   3.238   0.494 -0.4127  0.2509  0.3630
  258SOL    HW2 1085   4.188   3.263   0.480 -0.8556  0.7825 -1.7974
  258SOL    HW3 1086   4.080   3.257   0.587  1.7852 -0.2678  0.8777
  258SOL    MW4 1087   4.106   3.244   0.505 -0.1812  0.2525  0.1459
  259SOL     OW 1088   0.199   3.133   0.837  0.3199 -0.4149 -0.3740
  259SOL    HW2 1089   0.221   3.128   0.930 -0.4005 -0.7706 -0.2228
  259SOL    HW3 1090   0.278   3.169   0.796  0.0510  1.2819  0.5832
  259SOL    MW4 1091   0.212   3.137   0.844  0.1893 -0.2379 -0.2278
  260SOL     OW 1092   3.563   1.908   0.799 -0.2053  0.1700  0.1965
  260SOL    HW2 1093   3.580   1.817   0.775  0.2309  0.2818  0.0680
  260SOL    HW3 1094   3.649   1.950   0.795 -0.4404  0.6413  0.0210
  260SOL    MW4 1095   3.577   1.901   0.795 -0.1783  0.2469  0.1565
  261SOL     OW 1096   4.455   3.488   0.877  0.0530 -0.0966  0.3913
  261SOL    HW2 1097   4.393   3.557   0.855  0.1991  0.0623  0.4746
  261SOL    HW3 1098   4.534   3.511   0.828  0.9579  1.1919  2.3624
  261SOL    MW4 1099   4.457   3.500   0.868  0.1917  0.0942  0.6624
  262SOL     OW 1100   3.609   1.156   0.845 -0.1717 -0.1245 -0.0086
  262SOL    HW2 1101   3.526   1.173   0.801 -0.3678 -0.1762  0.3363
  262SOL    HW3 1102   3.585   1.140   0.936  0.1500 -0.7914 -0.0357
  262SOL    MW4 1103   3.595   1.156   0.851 -0.1552 -0.2193  0.0333
  263SOL     OW 1104   3.586   3.533   0.863  0.3963  0.5638 -0.3722
  263SOL    HW2 1105   3.506   3.575   0.831 -0.4643 -0.2143  0.7082
  263SOL    HW3 1106   3.575   3.441   0.842  0.7542  0.3637  0.2954
  263SOL    MW4 1107   3.574   3.527   0.856  0.3300  0.4346 -0.1415
  264SOL     OW 1108   0.310   3.845   0.831 -0.1485 -0.2265  0.5194
  264SOL    HW2 1109   0.294   3.865   0.923  0.6452 -0.1227  0.6417
  264SOL    HW3 1110   0.393   3.889   0.811 -1.2273  1.2944 -0.7462
  264SOL    MW4 1111   0.319   3.854   0.840 -0.1861 -0.0122  0.3685
  265SOL     OW 1112   0.035   4.266   0.863 -0.2646  0.4709  0.1706
  265SOL    HW2 1113   0.050   4.175   0.837  0.0280  0.9633 -1.4316
  265SOL    HW3 1114   0.032   4.263   0.958 -1.9938 -1.4965  0.1042
  265SOL    MW4 1115   0.037   4.254   0.872 -0.4542  0.2761 -0.0495
  266SOL     OW 1116   0.852   3.845   0.237 -0.0435 -0.3936 -0.4065
  266SOL    HW2 1117   0.900   3.922   0.268 -0.8717 -0.2734  0.5950
  266SOL    HW3 1118   0.763   3.877   0.220 -0.4236 -1.1562  0.1197
  266SOL    MW4 1119   0.846   3.859   0.239 -0.2030 -0.4785 -0.2049
  267SOL     OW 1120   0.706   4.661   0.827 -0.4487 -0.3117 -0.0037
  267SOL    HW2 1121   0.704   4.642   0.920 -1.4170 -1.9760 -0.3499
  267SOL    HW3 1122   0.622   4.703   0.808  0.1369  0.9107  0.0355
  267SOL    MW4 1123   0.695   4.664   0.837 -0.4992 -0.3700 -0.0442
  268SOL     OW 1124   1.599   3.588   0.254 -0.3753 -0.1266 -0.0927
  268SOL    HW2 1125   1.522   3.640   0.275 -0.5510 -0.8782  1.1854
  268SOL    HW3 1126   1.673   3.642   0.283 -0.4103  0.6226 -1.3829
  268SOL    MW4 1127   1.599   3.602   0.261 -0.4030 -0.1268 -0.0943
  269SOL     OW 1128   0.467   0.399   0.859 -0.0731 -0.2892  0.0014
  269SOL    HW2 1129   0.475   0.305   0.847  0.8585 -0.2606  0.4239
  269SOL    HW3 1130   0.545   0.436   0.819 -0.9231  0.3851 -1.0656
  269SOL    MW4 1131   0.478   0.391   0.852 -0.0623 -0.1965 -0.0836
  270SOL     OW 1132   2.058   2.978   0.423  0.1532  0.0506  0.1229
  270SOL    HW2 1133   2.055   2.907   0.359 -0.4117 -1.1676  1.4750
  270SOL    HW3 1134   1.968   2.987   0.454  0.4914  0.3647  1.0359
  270SOL    MW4 1135   2.046   2.970   0.419  0.1230 -0.0689  0.4217
  271SOL     OW 1136   0.651   0.742   0.813  0.1531  0.1552  0.1935
  271SOL    HW2 1137   0.686   0.660   0.779 -0.2648  0.0275  0.0662
  271SOL    HW3 1138   0.722   0.805   0.803 -0.5980  0.5926 -2.7222
  271SOL    MW4 1139   0.665   0.740   0.807 -0.0011  0.1960 -0.2080
  272SOL     OW 1140   4.466   1.086   0.814 -0.5229  0.0275  0.6221
  272SOL    HW2 1141   4.546   1.134   0.793 -0.5535 -0.2931 -0.2505
  272SOL    HW3 1142   4.480   1.052   0.902  0.4954 -0.4556  0.2755
  272SOL    MW4 1143   4.478   1.088   0.823 -0.3929 -0.0784  0.4612
  273SOL     OW 1144   0.425   0.863   0.717 -0.1180 -0.1142 -0.1870
  273SOL    HW2 1145   0.515   0.831   0.710 -0.1736 -0.6158  1.2036
  273SOL    HW3 1146   0.376   0.788   0.751 -1.3553 -0.2949 -2.3104
  273SOL    MW4 1147   0.431   0.849   0.721 -0.2885 -0.2043 -0.2837
  274SOL     OW 1148   2.019   1.554   0.858 -0.1494 -0.0895  0.4011
  274SOL    HW2 1149   2.106   1.581   0.829 -0.2364  0.1672  0.3784
  274SOL    HW3 1150   2.009   1.465   0.823 -0.7311  0.6694 -1.3859
  274SOL    MW4 1151   2.029   1.545   0.849 -0.2377  0.0445  0.1623
  275SOL     OW 1152   0.432   1.660   0.747  0.5324 -0.2324 -0.1437
  275SOL    HW2 1153   0.369   1.606   0.793  0.3512  0.6818  0.7096
  275SOL    HW3 1154   0.421   1.748   0.785  1.2148  0.2741 -1.0829
  275SOL    MW4 1155   0.423   1.665   0.758  0.5985 -0.0451 -0.1551
  276SOL     OW 1156   0.249   1.494   0.865  0.0688  0.0245  0.6983
  276SOL    HW2 1157   0.173   1.534   0.823 -0.4638 -0.2336  1.4052
  276SOL    HW3 1158   0.248   1.403   0.834  1.3517  0.5770 -1.0084
  276SOL    MW4 1159   0.239   1.487   0.855  0.1678  0.0634  0.5664
  277SOL     OW 1160   0.221   0.367   0.489 -0.4670  0.2535  0.0584
  277SOL    HW2 1161   0.220   0.273   0.470 -0.7925  0.0472  1.0562
  277SOL    HW3 1162   0.138   0.400   0.453 -0.4131  0.1322 -0.1731
  277SOL    MW4 1163   0.210   0.359   0.482 -0.5029  0.2102  0.1595
  278SOL     OW 1164   1.140   4.402   0.722 -0.0633 -0.0651  0.2111
  278SOL    HW2 1165   1.222   4.355   0.710 -0.1205 -0.1593  0.1869
  278SOL    HW3 1166   1.088   4.346   0.780 -0.4758 -0.4543 -0.5228
  278SOL    MW4 1167   1.144   4.388   0.728 -0.1254 -0.1292  0.1111
  279SOL     OW 1168   0.626   2.280   0.666  0.6750 -0.4282 -0.3071
  279SOL    HW2 1169   0.698   2.322   0.713 -1.4289  1.0558  1.7173
  279SOL    HW3 1170   0.625   2.190   0.699  0.8745 -0.1209  0.5598
  279SOL    MW4 1171   0.635   2.274   0.677  0.4238 -0.1919  0.0743
  280SOL     OW 1172   0.888   2.666   0.884 -0.2822  0.0443  0.0791
  280SOL    HW2 1173   0.883   2.673   0.979 -0.0784 -0.1697  0.1069
  280SOL    HW3 1174   0.855   2.578   0.865 -0.1171  0.0055 -0.0300
  280SOL    MW4 1175   0.883   2.655   0.894 -0.2336  0.0107  0.0683
  281SOL     OW 1176   0.228   2.827   0.453 -0.6392  0.0905  0.4598
  281SOL    HW2 1177   0.219   2.847   0.546 -0.6888  0.0422  0.4655
  281SOL    HW3 1178   0.312   2.782   0.445  0.0884  1.4596  0.2594
  281SOL    MW4 1179   0.238   2.824   0.464 -0.5497  0.2651  0.4341
  282SOL     OW 1180   2.920   0.001   0.858  0.4846 -0.0838 -0.2803
  282SOL    HW2 1181   2.999   0.047   0.831  0.3347 -0.9520 -2.3142
  282SOL    HW3 1182   2.933  -0.088   0.824 -1.8092  0.0420 -1.5525
  282SOL    MW4 1183   2.932  -0.005   0.850  0.1621 -0.1817 -0.7165
  283SOL     OW 1184   1.392   4.284   0.714  0.1259  0.0551  0.1016
  283SOL    HW2 1185   1.460   4.327   0.765 -0.8974  0.7230  0.8988
  283SOL    HW3 1186   1.366   4.208   0.767  1.7870 -1.4867 -1.2056
  283SOL    MW4 1187   1.398   4.279   0.727  0.2100 -0.0606  0.0343
  284SOL     OW 1188   0.507   3.487   0.858 -0.3138 -0.3600 -0.2821
  284SOL    HW2 1189   0.515   3.487   0.953 -0.6364  0.0075 -0.2578
  284SOL    HW3 1190   0.578   3.544   0.828 -0.3800 -0.2627 -0.2518
  284SOL    MW4 1191   0.517   3.494   0.867 -0.3651 -0.2987 -0.2749
  285SOL     OW 1192   0.933   0.809   0.385 -0.0912 -0.5581 -0.1275
  285SOL    HW2 1193   0.913   0.719   0.359 -1.0200 -0.0587 -1.1866
  285SOL    HW3 1194   0.947   0.856   0.303  1.0139  0.1273  0.4377
  285SOL    MW4 1195   0.932   0.804   0.371 -0.0679 -0.4018 -0.1926
  286SOL     OW 1196   2.995   0.895   0.444 -0.3509  0.2899  0.3964
  286SOL    HW2 1197   2.942   0.817   0.431 -2.8466  1.8323  1.0821
  286SOL    HW3 1198   2.932   0.967   0.447  1.5374  1.9206  3.6369
  286SOL    MW4 1199   2.980   0.894   0.442 -0.4311  0.7085  0.9145
  287SOL     OW 1200   4.283   3.936   0.839  0.3083  0.7435 -0.1256
  287SOL    HW2 1201   4.280   3.921   0.933  0.3078  0.7847 -0.1189
  287SOL    HW3 1202   4.369   3.976   0.824  1.7589 -2.3938 -0.6011
  287SOL    MW4 1203   4.294   3.940   0.849  0.4997  0.3350 -0.1875
  288SOL     OW 1204   0.700   0.494   0.743 -0.5832  0.0703 -0.3166
  288SOL    HW2 1205   0.688   0.456   0.656 -2.1615 -1.5172  0.5708
  288SOL    HW3 1206   0.787   0.466   0.770  0.9166  2.5126 -2.2864
  288SOL    MW4 1207   0.710   0.486   0.735 -0.5936  0.1831 -0.4594
  289SOL     OW 1208   0.460   4.294   0.857 -0.4525  0.2613 -0.0187
  289SOL    HW2 1209   0.473   4.281   0.951 -1.3962  0.6182  0.1606
  289SOL    HW3 1210   0.546   4.323   0.826 -0.5966  1.9635  1.0654
  289SOL    MW4 1211   0.473   4.296   0.865 -0.5960  0.5326  0.1479
  290SOL     OW 1212   3.797   0.511   0.764 -0.5498 -0.3775  0.3771
  290SOL    HW2 1213   3.805   0.602   0.793  0.0814 -0.2522 -0.1640
  290SOL    HW3 1214   3.784   0.518   0.670  0.2397 -0.8651  0.2231
  290SOL    MW4 1215   3.797   0.524   0.755 -0.3624 -0.4253  0.2854
  291SOL     OW 1216   2.447   4.395   0.515  0.5596  0.3571  0.0916
  291SOL    HW2 1217   2.477   4.392   0.606 -0.0818  0.9093  0.3148
  291SOL    HW3 1218   2.522   4.429   0.466  0.5371  1.0585  0.5547
  291SOL    MW4 1219   2.461   4.399   0.521  0.4721  0.5226  0.1822
  292SOL     OW 1220   4.296   0.770   0.839 -0.1186 -0.1825  0.0712
  292SOL    HW2 1221   4.209   0.805   0.820  0.3942  1.1778  0.2087
  292SOL    HW3 1222   4.353   0.811   0.774  0.4045 -1.1615 -0.0925
  292SOL    MW4 1223   4.292   0.780   0.828  0.0181 -0.1322  0.0678
  293SOL     OW 1224   0.937   0.408   0.807 -0.6474 -0.1863 -0.1112
  293SOL    HW2 1225   0.959   0.388   0.898  1.5462 -2.8267 -1.1290
  293SOL    HW3 1226   1.017   0.448   0.772 -0.9897 -0.4972 -1.2478
  293SOL    MW4 1227   0.951   0.411   0.814 -0.4032 -0.5757 -0.3955
  294SOL     OW 1228   0.667   1.508   0.789 -0.0932  0.1644  0.2392
  294SOL    HW2 1229   0.580   1.544   0.772 -0.7524 -1.6214 -0.2817
  294SOL    HW3 1230   0.677   1.512   0.884 -1.0722 -0.3327  0.3721
  294SOL    MW4 1231   0.657   1.513   0.799 -0.3093 -0.1367  0.1880
  295SOL     OW 1232   1.165   0.564   0.731  0.2211 -0.4059 -0.6107
  295SOL    HW2 1233   1.189   0.543   0.640 -0.2218  0.1568 -0.8594
  295SOL    HW3 1234   1.227   0.513   0.784 -0.6018 -2.0791 -1.1939
  295SOL    MW4 1235   1.177   0.554   0.726  0.0541 -0.5525 -0.7205
  296SOL     OW 1236   0.733   2.795   0.518  0.5035 -0.5625  0.2720
  296SOL    HW2 1237   0.712   2.792   0.611 -1.2423 -0.5675 -0.0969
  296SOL    HW3 1238   0.828   2.808   0.515  0.6205 -0.8604  2.0391
  296SOL    MW4 1239   0.743   2.797   0.530  0.2887 -0.6025  0.4564
  297SOL     OW 1240   0.862   0.908   0.750 -0.0695  0.8368 -0.8641
  297SOL    HW2 1241   0.869   0.999   0.777  1.5919 -0.0221  1.7948
  297SOL    HW3 1242   0.931   0.863   0.799 -1.3367 -1.9785 -1.5582
  297SOL    MW4 1243   0.872   0.914   0.760 -0.0176  0.3521 -0.6047
  298SOL     OW 1244   1.778   1.664   0.779 -0.6431  0.0731  0.1536
  298SOL    HW2 1245   1.716   1.599   0.810 -0.5870 -0.6520 -1.2479
  298SOL    HW3 1246   1.864   1.631   0.808 -0.5865 -0.6239 -0.8028
  298SOL    MW4 1247   1.781   1.651   0.787 -0.6282 -0.1144 -0.1575
  299SOL     OW 1248   1.178   1.498   0.798 -0.1404  0.1809  0.3904
  299SOL    HW2 1249   1.094   1.544   0.790 -0.0961  0.2276  0.1896
  299SOL    HW3 1250   1.159   1.408   0.772 -0.5746 -0.2921  2.3013
  299SOL    MW4 1251   1.164   1.492   0.794 -0.1919  0.1247  0.6160
  300SOL     OW 1252   0.428   1.116   0.838  0.2659 -0.0162  0.7935
  300SOL    HW2 1253   0.426   1.029   0.796  2.6835  0.3322 -0.0758
  300SOL    HW3 1254   0.499   1.162   0.794 -0.7001  2.2712  1.5864
  300SOL    MW4 1255   0.437   1.110   0.826  0.4574  0.3315  0.7834
  301SOL     OW 1256   2.253   1.566   0.506  0.0177  0.1227 -0.3007
  301SOL    HW2 1257   2.305   1.636   0.467  1.4960 -1.1747 -0.7021
  301SOL    HW3 1258   2.175   1.560   0.452  0.3468  0.8126 -0.8434
  301SOL    MW4 1259   2.250   1.574   0.494  0.2561  0.0426 -0.4253
  302SOL     OW 1260   3.973   1.916   0.394  0.2280 -0.0694 -0.3143
  302SOL    HW2 1261   3.989   1.989   0.334  0.0479 -0.7513 -1.2127
  302SOL    HW3 1262   3.969   1.839   0.337 -0.1058 -0.7099  0.5609
  302SOL    MW4 1263   3.974   1.915   0.378  0.1600 -0.2439 -0.3174
  303SOL     OW 1264   1.084   3.954   0.565 -0.2366  0.0043  0.4928
  303SOL    HW2 1265   1.074   3.862   0.539 -0.4316  0.0585  0.3791
  303SOL    HW3 1266   1.179   3.966   0.572 -0.0456  0.7607 -2.8795
  303SOL    MW4 1267   1.096   3.943   0.563 -0.2371  0.1113  0.0330
  304SOL     OW 1268   3.638   4.505   0.413  0.2450 -0.7040  0.6270
  304SOL    HW2 1269   3.647   4.600   0.402 -0.5047 -0.9629 -2.7665
  304SOL    HW3 1270   3.709   4.468   0.360 -1.4062 -2.0499 -0.7087
  304SOL    MW4 1271   3.648   4.513   0.404 -0.0718 -0.9160  0.0030
  305SOL     OW 1272   1.333   2.693   0.843  0.1159 -0.2248  0.0669
  305SOL    HW2 1273   1.368   2.697   0.932 -0.7501 -0.0026  0.4033
  305SOL    HW3 1274   1.313   2.601   0.828 -2.4043  0.1152  1.1606
  305SOL    MW4 1275   1.335   2.682   0.853 -0.3308 -0.1507  0.2556
  306SOL     OW 1276   3.409   2.776   0.447 -0.0283  0.2653 -0.0381
  306SOL    HW2 1277   3.349   2.708   0.416  1.0100 -0.8496  0.3541
  306SOL    HW3 1278   3.490   2.759   0.399 -0.2012  2.1537 -1.0508
  306SOL    MW4 1279   3.412   2.765   0.436  0.0856  0.3674 -0.1200
  307SOL     OW 1280   4.206   2.046   0.477 -0.3804 -0.2734 -0.1135
  307SOL    HW2 1281   4.195   2.139   0.458 -0.6068 -0.0817  0.9439
  307SOL    HW3 1282   4.123   2.006   0.452 -0.3787 -0.1508 -0.3126
  307SOL    MW4 1283   4.194   2.053   0.471 -0.4091 -0.2320 -0.0003
  308SOL     OW 1284   0.732   3.901   0.870 -0.0670 -0.3752  0.2066
  308SOL    HW2 1285   0.824   3.923   0.855 -0.6673  0.7904 -1.8225
  308SOL    HW3 1286   0.721   3.815   0.830 -0.5617  0.7787 -2.2064
  308SOL    MW4 1287   0.743   3.892   0.863 -0.2115 -0.0689 -0.3796
  309SOL     OW 1288   0.199   0.080   0.483 -0.4929  0.2782 -0.2933
  309SOL    HW2 1289   0.135   0.088   0.554 -0.3769  0.7006 -0.2348
  309SOL    HW3 1290   0.167   0.007   0.430  0.6742 -1.5758  1.4808
  309SOL    MW4 1291   0.186   0.071   0.485 -0.3236  0.0894 -0.0515
  310SOL     OW 1292   1.641   2.907   0.706 -0.3070 -0.4844  0.3707
  310SOL    HW2 1293   1.695   2.841   0.750  1.4630 -0.9757 -2.3711
  310SOL    HW3 1294   1.576   2.856   0.658  0.4670 -0.2084 -0.9915
  310SOL    MW4 1295   1.640   2.891   0.705  0.0286 -0.5131 -0.1708
  311SOL     OW 1296   1.368   0.109   0.772 -0.4374  0.0164 -0.0759
  311SOL    HW2 1297   1.299   0.052   0.807 -0.1826 -0.4901 -0.3775
  311SOL    HW3 1298   1.357   0.102   0.677 -0.4978  0.5933 -0.1117
  311SOL    MW4 1299   1.357   0.100   0.764 -0.4117  0.0257 -0.1204
  312SOL     OW 1300   0.916   3.455   0.874 -0.2154  0.0973 -0.3557
  312SOL    HW2 1301   0.919   3.377   0.819  0.5727 -0.7626  0.8567
  312SOL    HW3 1302   0.990   3.508   0.845  0.8030 -0.8198  0.5137
  312SOL    MW4 1303   0.926   3.452   0.863  0.0229 -0.1373 -0.0810
  313SOL     OW 1304   0.963   4.254   0.870  0.2700 -0.0221  0.0857
  313SOL    HW2 1305   0.876   4.283   0.841  0.8633 -0.0538 -1.7937
  313SOL    HW3 1306   0.968   4.162   0.843  0.5996 -0.2330  0.8658
  313SOL    MW4 1307   0.952   4.246   0.862  0.3918 -0.0539 -0.0594
  314SOL     OW 1308   1.724   2.250   0.397 -0.4066 -0.4216 -0.0293
  314SOL    HW2 1309   1.662   2.267   0.326 -0.9119 -1.1891  0.2294
  314SOL    HW3 1310   1.688   2.174   0.443  0.6230 -0.7566  0.2342
  314SOL    MW4 1311   1.711   2.242   0.394 -0.3374 -0.5672  0.0396
  315SOL     OW 1312   1.802   0.374   0.832  0.0115  0.2416  0.1888
  315SOL    HW2 1313   1.803   0.285   0.796  0.6059  0.9423 -1.6091
  315SOL    HW3 1314   1.719   0.412   0.801  0.4251  0.7804 -0.2711
  315SOL    MW4 1315   1.791   0.367   0.823  0.1445  0.4051 -0.1090
  316SOL     OW 1316   3.550   2.207   0.227 -0.0849 -0.0804 -0.2090
  316SOL    HW2 1317   3.556   2.199   0.131  0.0625 -1.1460 -0.1215
  316SOL    HW3 1318   3.529   2.118   0.256 -0.8492  0.4043  0.6958
  316SOL    MW4 1319   3.548   2.194   0.218 -0.1662 -0.1571 -0.0781
  317SOL     OW 1320   0.679   4.146   0.378 -0.2598 -0.4781  0.2113
  317SOL    HW2 1321   0.775   4.137   0.381 -0.2341  0.1649  1.9653
  317SOL    HW3 1322   0.654   4.106   0.295  1.3220 -2.6072  0.7011
  317SOL    MW4 1323   0.689   4.140   0.368 -0.0477 -0.6747  0.5074
  318SOL     OW 1324   0.939   3.225   0.721 -0.2085 -0.2333 -0.0618
  318SOL    HW2 1325   0.860   3.178   0.747 -0.5058 -0.2707 -1.0145
  318SOL    HW3 1326   1.010   3.180   0.768 -0.7434 -0.2181  0.7672
  318SOL    MW4 1327   0.938   3.213   0.731 -0.3183 -0.2365 -0.0781
  319SOL     OW 1328   3.355   0.515   0.746 -0.0883  0.5309  0.2031
  319SOL    HW2 1329   3.429   0.466   0.781 -0.3253  0.0826  0.0878
  319SOL    HW3 1330   3.364   0.602   0.784  0.1735  0.3137  0.6506
  319SOL    MW4 1331   3.366   0.520   0.755 -0.0846  0.4430  0.2469
  320SOL     OW 1332   1.790   0.989   0.445 -0.2974  0.0120 -0.1691
  320SOL    HW2 1333   1.696   0.974   0.435 -0.1070  0.2855 -2.8205
  320SOL    HW3 1334   1.827   0.901   0.454 -0.7011 -0.1533 -0.1114
  320SOL    MW4 1335   1.783   0.975   0.445 -0.3256  0.0263 -0.5113
  321SOL     OW 1336   2.466   1.301   0.775  0.2800  0.0041 -0.3548
  321SOL    HW2 1337   2.457   1.319   0.681  0.6891  0.3302 -0.3288
  321SOL    HW3 1338   2.384   1.257   0.798  0.5755 -0.9406 -1.0696
  321SOL    MW4 1339   2.454   1.298   0.765  0.3731 -0.0774 -0.4455
  322SOL     OW 1340   1.779   0.029   0.484  0.2360 -0.7377 -0.1900
  322SOL    HW2 1341   1.783   0.066   0.572 -2.2360 -0.8691  0.0268
  322SOL    HW3 1342   1.748   0.100   0.429  1.8702 -0.6293 -0.9957
  322SOL    MW4 1343   1.775   0.043   0.489  0.1254 -0.7408 -0.2677
  323SOL     OW 1344   3.882   4.415   0.308 -0.0621  0.0376  0.3090
  323SOL    HW2 1345   3.886   4.322   0.330 -2.2604  0.1431  1.3407
  323SOL    HW3 1346   3.970   4.448   0.328  0.4584 -1.6220  0.8611
  323SOL    MW4 1347   3.894   4.407   0.314 -0.2835 -0.1674  0.5180
  324SOL     OW 1348   0.477   1.393   0.426 -0.2190  0.3631  0.0583
  324SOL    HW2 1349   0.397   1.348   0.456  0.2042  0.2115  0.9830
  324SOL    HW3 1350   0.531   1.323   0.391 -1.2353  0.7044 -2.2746
  324SOL    MW4 1351   0.473   1.378   0.425 -0.2972  0.3880 -0.1275
  325SOL     OW 1352   0.886   1.909   0.821 -0.1406 -0.3433 -0.4325
  325SOL    HW2 1353   0.904   1.935   0.911 -0.2420 -1.4949 -0.0727
  325SOL    HW3 1354   0.949   1.959   0.768 -0.2912  0.5671  0.2393
  325SOL    MW4 1355   0.896   1.919   0.826 -0.1739 -0.3752 -0.2964
  326SOL     OW 1356   0.706   1.706   0.397 -0.8721 -0.1224 -0.5804
  326SOL    HW2 1357   0.632   1.647   0.409 -0.3244 -0.6931  0.0287
  326SOL    HW3 1358   0.666   1.793   0.389 -1.7346 -0.6317 -2.2356
  326SOL    MW4 1359   0.691   1.710   0.397 -0.9136 -0.2648 -0.7184
  327SOL     OW 1360   3.955   4.485   0.727 -0.2433  0.1207  0.2821
  327SOL    HW2 1361   3.997   4.414   0.775 -2.7557 -0.6783  1.3643
  327SOL    HW3 1362   3.946   4.556   0.791  1.3163  1.0960 -0.5205
  327SOL    MW4 1363   3.960   4.485   0.741 -0.3688  0.1440  0.3191
  328SOL     OW 1364   1.085   3.681   0.244  0.4199  0.1803  0.1941
  328SOL    HW2 1365   0.994   3.708   0.232  0.3549 -0.2507 -0.3368
  328SOL    HW3 1366   1.081   3.585   0.244  0.6779  0.1650  1.7495
  328SOL    MW4 1367   1.072   3.672   0.242  0.4454  0.1216  0.3292
  329SOL     OW 1368   1.142   2.515   0.469  0.3857  0.5303  0.2299
  329SOL    HW2 1369   1.095   2.598   0.474 -0.4033  0.0549  0.8308
  329SOL    HW3 1370   1.073   2.449   0.470  0.9656 -0.1012 -1.1782
  329SOL    MW4 1371   1.127   2.517   0.470  0.3582  0.3841  0.1234
  330SOL     OW 1372   1.777   2.495   0.786 -0.2708 -0.2705 -0.0558
  330SOL    HW2 1373   1.782   2.496   0.691 -1.2093 -0.3602 -0.1149
  330SOL    HW3 1374   1.693   2.453   0.805 -0.0127 -0.4095  0.8110
  330SOL    MW4 1375   1.767   2.490   0.776 -0.3604 -0.3009  0.0508
  331SOL     OW 1376   1.596   3.127   0.863 -0.4214 -0.9983  0.0939
  331SOL    HW2 1377   1.613   3.044   0.819 -0.0179 -1.9423  1.9475
  331SOL    HW3 1378   1.581   3.102   0.955 -0.0313  1.0037  0.7257
  331SOL    MW4 1379   1.596   3.112   0.870 -0.3166 -0.8588  0.4218
  332SOL     OW 1380   3.328   2.361   0.301  0.2962  0.0506  0.4154
  332SOL    HW2 1381   3.256   2.307   0.269  0.4852 -0.6886  1.2100
  332SOL    HW3 1382   3.407   2.314   0.274  0.5065  1.3970 -1.3726
  332SOL    MW4 1383   3.329   2.348   0.293  0.3486  0.1307  0.2843
  333SOL     OW 1384   1.778   3.510   0.884 -0.0036 -0.4733 -0.4918
  333SOL    HW2 1385   1.770   3.555   0.800  1.1810 -1.7904 -1.3316
  333SOL    HW3 1386   1.808   3.422   0.861  1.9160 -0.3497  1.4444
  333SOL    MW4 1387   1.781   3.504   0.870  0.4059 -0.6309 -0.3471
  334SOL     OW 1388   2.389   0.937   0.486  0.0815  0.5299 -0.0612
  334SOL    HW2 1389   2.480   0.906   0.492  0.1323  0.7088  0.0779
  334SOL    HW3 1390   2.355   0.930   0.575 -0.1263  0.2007 -0.1655
  334SOL    MW4 1391   2.396   0.932   0.498  0.0608  0.5100 -0.0566
  335SOL     OW 1392   1.206   3.837   0.919  0.4197  0.0618 -0.3345
  335SOL    HW2 1393   1.169   3.754   0.888  0.2889 -0.0294  0.0644
  335SOL    HW3 1394   1.197   3.833   1.015  1.9319 -0.1858 -0.1961
  335SOL    MW4 1395   1.200   3.825   0.928  0.6019  0.0172 -0.2636
  336SOL     OW 1396   2.223   3.723   0.449  0.2708  0.3361 -0.1802
  336SOL    HW2 1397   2.312   3.688   0.455 -0.2280 -1.1608 -1.1854
  336SOL    HW3 1398   2.234   3.818   0.453  1.8719  0.1472  0.1370
  336SOL    MW4 1399   2.236   3.731   0.450  0.4163  0.1135 -0.2710
  337SOL     OW 1400   1.331   0.066   0.506  0.1102 -0.3250  0.4342
  337SOL    HW2 1401   1.236   0.073   0.500  0.1531 -0.8493 -1.0042
  337SOL    HW3 1402   1.364   0.150   0.473  0.1812 -0.6117 -0.2190
  337SOL    MW4 1403   1.323   0.078   0.501  0.1253 -0.4320  0.1583
  338SOL     OW 1404   1.085   1.805   0.297 -0.4816  0.2963  0.0670
  338SOL    HW2 1405   1.052   1.731   0.348 -1.4657  1.4344  1.1437
  338SOL    HW3 1406   1.025   1.812   0.223 -0.6638  0.2965  0.2140
  338SOL    MW4 1407   1.073   1.796   0.294 -0.6355  0.4464  0.2284
  339SOL     OW 1408   2.016   4.376   0.637 -0.0435  0.3275  0.0102
  339SOL    HW2 1409   2.089   4.337   0.684  1.0264 -0.6555 -2.4072
  339SOL    HW3 1410   1.939   4.353   0.689  1.1382 -0.3572  1.4974
  339SOL    MW4 1411   2.015   4.368   0.650  0.2534  0.1073 -0.1126
  340SOL     OW 1412   2.244   1.684   0.764 -0.3040  0.0631  0.1231
  340SOL    HW2 1413   2.319   1.648   0.811 -1.5019 -1.9902  0.5103
  340SOL    HW3 1414   2.251   1.647   0.676 -1.7805 -1.5219  0.6443
  340SOL    MW4 1415   2.255   1.674   0.758 -0.6568 -0.4171  0.2430
  341SOL     OW 1416   0.634   1.252   0.706  0.2722  0.0531  0.1413
  341SOL    HW2 1417   0.657   1.342   0.729 -0.6885  0.3060  0.1132
  341SOL    HW3 1418   0.622   1.253   0.611 -0.3326  0.0274  0.2160
  341SOL    MW4 1419   0.636   1.264   0.696  0.0656  0.0831  0.1475
  342SOL     OW 1420   1.364   0.390   0.841  0.0871  0.4177 -0.0667
  342SOL    HW2 1421   1.356   0.300   0.809  0.5024  0.2415  0.3136
  342SOL    HW3 1422   1.379   0.381   0.935  0.2406  0.8830 -0.0440
  342SOL    MW4 1423   1.365   0.377   0.849  0.1621  0.4558 -0.0135
  343SOL     OW 1424   3.104   3.455   0.427 -0.3739  0.3987  0.5034
  343SOL    HW2 1425   3.123   3.362   0.443 -0.1820  0.2367 -0.5934
  343SOL    HW3 1426   3.189   3.494   0.408 -0.7079  0.3556 -1.1387
  343SOL    MW4 1427   3.118   3.448   0.427 -0.3924  0.3715  0.1420
  344SOL     OW 1428   3.126   4.573   0.363 -0.1371 -0.6032  0.2688
  344SOL    HW2 1429   3.067   4.583   0.289  0.2239 -0.9590 -0.0732
  344SOL    HW3 1430   3.105   4.646   0.422  0.2054  0.2049 -0.6085
  344SOL    MW4 1431   3.116   4.584   0.361 -0.0439 -0.5441  0.1079
  345SOL     OW 1432   1.971   1.594   0.398 -0.1537  0.0424  0.3088
  345SOL    HW2 1433   1.927   1.520   0.357 -0.6415  1.0797 -1.0864
  345SOL    HW3 1434   1.907   1.630   0.460 -0.1325 -0.3399  0.5502
  345SOL    MW4 1435   1.957   1.589   0.401 -0.2153  0.1289  0.1565
  346SOL     OW 1436   1.843   1.318   0.321  0.1217  0.3842 -0.1597
  346SOL    HW2 1437   1.905   1.279   0.383 -1.2644 -1.7697 -0.1137
  346SOL    HW3 1438   1.849   1.263   0.243  0.7446  2.1978 -1.4337
  346SOL    MW4 1439   1.852   1.306   0.319  0.0209  0.3393 -0.3217
  347SOL     OW 1440   0.439   3.228   0.738  0.4240 -0.3595  0.4665
  347SOL    HW2 1441   0.461   3.306   0.790 -0.4433  0.2658 -0.0965
  347SOL    HW3 1442   0.465   3.252   0.649 -0.6043 -0.4159  0.1567
  347SOL    MW4 1443   0.446   3.241   0.733  0.1739 -0.2844  0.3513
  348SOL     OW 1444   1.344   1.930   0.836  0.0483  0.0496 -0.0818
  348SOL    HW2 1445   1.364   1.838   0.822  1.2151  0.2606  0.1084
  348SOL    HW3 1446   1.344   1.941   0.931  0.8178  0.4295 -0.1229
  348SOL    MW4 1447   1.347   1.919   0.846  0.3037  0.1276 -0.0621
  349SOL     OW 1448   1.781   1.935   0.881  0.3272  0.7982  0.0897
  349SOL    HW2 1449   1.771   1.846   0.847 -0.9438  0.8106  0.4102
  349SOL    HW3 1450   1.868   1.962   0.851  1.0344 -0.8139  0.5786
  349SOL    MW4 1451   1.791   1.927   0.873  0.2528  0.5870  0.1965
  350SOL     OW 1452   0.055   4.530   0.380  0.1737 -0.0201 -0.1720
  350SOL    HW2 1453   0.133   4.476   0.387  0.2472  0.1022 -0.0218
  350SOL    HW3 1454  -0.016   4.475   0.414  0.3983  0.2867  0.8082
  350SOL    MW4 1455   0.056   4.516   0.386  0.2130  0.0367 -0.0229
  351SOL     OW 1456   1.571   2.061   0.736 -0.3596  0.3301  0.5666
  351SOL    HW2 1457   1.636   2.034   0.800 -0.3057 -0.7432  0.0682
  351SOL    HW3 1458   1.492   2.012   0.760 -0.1404 -0.6242 -0.5992
  351SOL    MW4 1459   1.569   2.051   0.748 -0.3235  0.0627  0.3470
  352SOL     OW 1460   0.179   3.812   0.428  0.2164 -0.2349 -0.2189
  352SOL    HW2 1461   0.248   3.831   0.364 -0.5775  0.9535 -0.7397
  352SOL    HW3 1462   0.117   3.757   0.381  0.0843 -0.1072 -0.1926
  352SOL    MW4 1463   0.180   3.807   0.414  0.0942 -0.0615 -0.2841
  353SOL     OW 1464   1.709   3.591   0.612  0.2325 -0.2107 -0.2870
  353SOL    HW2 1465   1.713   3.499   0.583 -1.7628 -0.1459 -0.8283
  353SOL    HW3 1466   1.731   3.641   0.533  1.2727 -0.2051 -0.0035
  353SOL    MW4 1467   1.713   3.585   0.598  0.1066 -0.2015 -0.3210
  354SOL     OW 1468   1.133   1.178   0.419 -0.4674 -0.6292 -0.4471
  354SOL    HW2 1469   1.138   1.085   0.444  0.2646 -1.1155 -2.3204
  354SOL    HW3 1470   1.216   1.195   0.375 -1.4715  0.3735 -1.9675
  354SOL    MW4 1471   1.144   1.168   0.417 -0.5033 -0.5610 -0.8949
  355SOL     OW 1472   2.034   3.067   0.878  0.1208 -0.3907  0.1916
  355SOL    HW2 1473   2.100   3.129   0.846 -2.0008  1.4663 -0.6751
  355SOL    HW3 1474   2.054   2.986   0.831  0.2112  0.8886 -2.0825
  355SOL    MW4 1475   2.046   3.064   0.868 -0.1473  0.0231 -0.2227
  356SOL     OW 1476   1.552   3.343   0.391  0.0739 -0.1336  0.0684
  356SOL    HW2 1477   1.643   3.329   0.418  0.0038  2.1548  1.5715
  356SOL    HW3 1478   1.555   3.423   0.339 -1.0037 -0.3707 -0.3527
  356SOL    MW4 1479   1.565   3.352   0.388 -0.0776  0.1371  0.2112
  357SOL     OW 1480   2.892   3.594   0.525 -0.1430 -0.4558 -0.2191
  357SOL    HW2 1481   2.970   3.546   0.497 -1.3392 -1.4477 -1.9313
  357SOL    HW3 1482   2.906   3.683   0.491  0.2121 -0.6373 -0.5608
  357SOL    MW4 1483   2.904   3.599   0.517 -0.2539 -0.6106 -0.4901
  358SOL     OW 1484   2.490   3.663   0.545  0.0366  0.0951 -0.1769
  358SOL    HW2 1485   2.524   3.624   0.625 -0.6072  0.5649  0.3203
  358SOL    HW3 1486   2.534   3.748   0.539  0.9884 -0.4268 -0.9546
  358SOL    MW4 1487   2.501   3.669   0.555  0.0770  0.0882 -0.2139
  359SOL     OW 1488   2.067   3.832   0.832 -0.1049  0.5978  0.2365
  359SOL    HW2 1489   2.073   3.832   0.928 -0.5137  0.1853  0.2646
  359SOL    HW3 1490   1.988   3.882   0.813 -1.0249 -0.8392  0.1928
  359SOL    MW4 1491   2.058   3.839   0.842 -0.2801  0.3538  0.2344
  360SOL     OW 1492   1.505   3.555   0.919 -0.2923 -0.3430  0.3747
  360SOL    HW2 1493   1.598   3.538   0.909 -0.4871 -1.0684 -0.3391
  360SOL    HW3 1494   1.488   3.630   0.862 -0.2880 -0.7164 -0.1245
  360SOL    MW4 1495   1.515   3.562   0.910 -0.3175 -0.4878  0.2146
  361SOL     OW 1496   1.824   4.307   0.810 -0.1857  0.2764 -0.0866
  361SOL    HW2 1497   1.838   4.305   0.905 -0.7134  2.3677  0.0537
  361SOL    HW3 1498   1.755   4.372   0.797  0.5766  0.7296 -1.9970
  361SOL    MW4 1499   1.817   4.315   0.821 -0.1549  0.6123 -0.3201
  362SOL     OW 1500   2.014   4.541   0.415  0.3633 -0.4427 -0.1857
  362SOL    HW2 1501   2.019   4.498   0.501 -0.1275  1.0932  0.6364
  362SOL    HW3 1502   1.926   4.580   0.413  1.2739  1.6508 -0.3403
  362SOL    MW4 1503   2.003   4.540   0.426  0.4184  0.0362 -0.0976
  363SOL     OW 1504   2.465   4.622   0.891 -0.2989 -0.3694 -0.1876
  363SOL    HW2 1505   2.486   4.636   0.984 -0.8960 -1.9817  0.2171
  363SOL    HW3 1506   2.533   4.669   0.843  0.9593 -0.8665  1.0750
  363SOL    MW4 1507   2.477   4.630   0.897 -0.2120 -0.6480  0.0324
  364SOL     OW 1508   2.294   0.888   0.750 -0.6009 -0.3337  0.4789
  364SOL    HW2 1509   2.223   0.845   0.796 -0.5472  0.1321  1.0055
  364SOL    HW3 1510   2.373   0.841   0.778 -0.6885 -0.8004 -0.0456
  364SOL    MW4 1511   2.295   0.876   0.759 -0.6056 -0.3338  0.4792
  365SOL     OW 1512   2.079   0.763   0.879 -0.1498 -0.0002  0.0216
  365SOL    HW2 1513   2.080   0.674   0.842  2.4536  0.0740 -0.2140
  365SOL    HW3 1514   2.000   0.803   0.843  0.7453 -0.9080 -3.1553
  365SOL    MW4 1515   2.069   0.756   0.869  0.3119 -0.1101 -0.4286
  366SOL     OW 1516   4.463   1.265   0.513  0.7950 -0.0365 -0.0156
  366SOL    HW2 1517   4.410   1.270   0.593  0.3986  1.5084 -0.3684
  366SOL    HW3 1518   4.417   1.201   0.458  0.2046  0.0686  0.3522
  366SOL    MW4 1519   4.450   1.257   0.517  0.6652  0.1812 -0.0136
  367SOL     OW 1520   2.076   3.403   0.513 -0.1116 -0.1588  0.0311
  367SOL    HW2 1521   2.057   3.456   0.436  0.8239 -1.2102 -0.9427
  367SOL    HW3 1522   2.091   3.467   0.583 -0.4919  0.8140 -0.7643
  367SOL    MW4 1523   2.076   3.419   0.512 -0.0384 -0.1693 -0.2023
  368SOL     OW 1524   2.087   1.843   0.365 -0.2570  0.7219  0.0789
  368SOL    HW2 1525   2.014   1.901   0.386 -0.8288 -0.1762  0.6254
  368SOL    HW3 1526   2.047   1.756   0.356  0.4527  0.5356 -1.5481
  368SOL    MW4 1527   2.072   1.839   0.367 -0.2387  0.5789 -0.0636
  369SOL     OW 1528   2.240   1.138   0.853  0.1667 -0.8050 -0.0451
  369SOL    HW2 1529   2.251   1.136   0.949  1.6819 -0.7409 -0.1973
  369SOL    HW3 1530   2.256   1.048   0.826  1.9240 -0.4057 -0.4295
  369SOL    MW4 1531   2.244   1.126   0.862  0.5987 -0.7437 -0.1159
  370SOL     OW 1532   2.238   2.236   0.362  0.2468  0.6120  0.5485
  370SOL    HW2 1533   2.296   2.265   0.291  1.9071 -1.1375  1.1273
  370SOL    HW3 1534   2.290   2.170   0.409 -2.3386 -1.2491  0.8908
  370SOL    MW4 1535   2.252   2.231   0.358  0.1247  0.1354  0.6700
  371SOL     OW 1536   2.677   2.247   0.495  0.3873 -0.2460  0.4588
  371SOL    HW2 1537   2.674   2.243   0.590  1.6032  0.5087  0.5471
  371SOL    HW3 1538   2.676   2.341   0.475  0.7874 -0.3852 -0.2322
  371SOL    MW4 1539   2.677   2.259   0.505  0.6008 -0.1647  0.3793
  372SOL     OW 1540   2.466   2.057   0.724  0.0911 -0.3746 -0.0650
  372SOL    HW2 1541   2.383   2.022   0.756 -0.0416 -0.6259 -0.6597
  372SOL    HW3 1542   2.532   2.007   0.771 -0.1003 -0.5355  0.0369
  372SOL    MW4 1543   2.464   2.046   0.734  0.0482 -0.4289 -0.1300
  373SOL     OW 1544   2.130   2.491   0.492 -0.7947 -0.2909  0.0554
  373SOL    HW2 1545   2.036   2.495   0.476 -0.4624  0.5129 -1.8070
  373SOL    HW3 1546   2.159   2.410   0.451 -0.5673 -0.1780 -0.0154
  373SOL    MW4 1547   2.122   2.481   0.484 -0.7207 -0.1700 -0.1996
  374SOL     OW 1548   2.234   2.645   0.290 -0.2966  0.2719 -0.2546
  374SOL    HW2 1549   2.152   2.675   0.250 -0.1785 -1.2588 -1.7103
  374SOL    HW3 1550   2.206   2.591   0.365 -0.5771  1.1037  0.2417
  374SOL    MW4 1551   2.219   2.642   0.295 -0.3181  0.1798 -0.3812
  375SOL     OW 1552   2.445   2.320   0.809 -0.0031  0.4000 -0.4408
  375SOL    HW2 1553   2.449   2.231   0.774 -0.7668 -0.5443  1.7557
  375SOL    HW3 1554   2.360   2.354   0.781 -0.5306 -0.2821  0.2919
  375SOL    MW4 1555   2.434   2.312   0.801 -0.1738  0.1855 -0.0544
  376SOL     OW 1556   2.682   1.347   0.372 -0.1739 -0.0218  0.0266
  376SOL    HW2 1557   2.692   1.434   0.333  0.1381  0.2047  0.6123
  376SOL    HW3 1558   2.604   1.355   0.427 -1.1224 -0.5824 -1.2016
  376SOL    MW4 1559   2.673   1.359   0.374 -0.2580 -0.0659 -0.0582
  377SOL     OW 1560   2.466   2.798   0.735 -0.3434 -0.0245  0.7968
  377SOL    HW2 1561   2.451   2.794   0.640  1.0104 -3.3190  0.6294
  377SOL    HW3 1562   2.395   2.746   0.773 -0.0062 -0.0065  1.4585
  377SOL    MW4 1563   2.455   2.790   0.727 -0.1204 -0.4570  0.8621
  378SOL     OW 1564   2.706   2.711   0.829  0.3224  0.0008  0.1872
  378SOL    HW2 1565   2.707   2.708   0.925  0.8721  0.3922  0.1947
  378SOL    HW3 1566   2.617   2.739   0.807  0.1064 -0.3731  0.5732
  378SOL    MW4 1567   2.695   2.714   0.839  0.3667  0.0031  0.2391
  379SOL     OW 1568   2.501   3.053   0.871  0.2665  0.4076 -0.3482
  379SOL    HW2 1569   2.465   3.037   0.958 -1.1502  3.1547 -0.3884
  379SOL    HW3 1570   2.492   2.969   0.825  0.4171 -0.8682  1.9037
  379SOL    MW4 1571   2.495   3.040   0.876  0.0994  0.6015 -0.0564
  380SOL     OW 1572   2.279   3.190   0.775 -0.1986 -0.3362  0.4182
  380SOL    HW2 1573   2.354   3.146   0.816  0.5290  1.0610  0.6098
  380SOL    HW3 1574   2.281   3.162   0.684  0.6321 -0.2140  0.3965
  380SOL    MW4 1575   2.289   3.180   0.768  0.0069 -0.1354  0.4407
  381SOL     OW 1576   2.290   3.469   0.861  0.0234  0.3998 -0.3081
  381SOL    HW2 1577   2.317   3.381   0.837 -1.4538  0.1976 -1.2707
  381SOL    HW3 1578   2.227   3.495   0.794  0.8002  2.3849 -0.3248
  381SOL    MW4 1579   2.285   3.461   0.849 -0.0691  0.6351 -0.4373
  382SOL     OW 1580   3.006   4.124   0.486 -0.2727 -0.1652 -0.2677
  382SOL    HW2 1581   3.022   4.085   0.572 -0.4507 -0.0052 -0.1605
  382SOL    HW3 1582   3.093   4.148   0.454  0.0084 -2.1857 -1.0745
  382SOL    MW4 1583   3.019   4.122   0.493 -0.2592 -0.4106 -0.3600
  383SOL     OW 1584   1.401   2.029   0.347 -0.2877  0.2429  0.1784
  383SOL    HW2 1585   1.314   2.038   0.386 -0.6113 -1.0649 -0.1905
  383SOL    HW3 1586   1.417   2.113   0.304 -0.7299  1.0168  1.4994
  383SOL    MW4 1587   1.392   2.041   0.346 -0.3886  0.1721  0.3040
  384SOL     OW 1588   1.611   2.629   0.392 -0.6786  0.5253  0.4123
  384SOL    HW2 1589   1.649   2.708   0.354 -0.6094  0.5940  0.6191
  384SOL    HW3 1590   1.562   2.660   0.468  0.1946  0.2646  1.0901
  384SOL    MW4 1591   1.610   2.643   0.397 -0.5544  0.5000  0.5290
  385SOL     OW 1592   2.456   3.915   0.857  0.5622 -0.4106 -0.4131
  385SOL    HW2 1593   2.470   3.821   0.842 -1.6056 -1.0864  1.4774
  385SOL    HW3 1594   2.378   3.936   0.805  0.2043  0.0161  0.2960
  385SOL    MW4 1595   2.448   3.905   0.848  0.2289 -0.4435 -0.0702
  386SOL     OW 1596   4.049   2.479   0.798 -0.0139 -0.1595  0.3122
  386SOL    HW2 1597   4.128   2.445   0.841  0.2272 -0.5069 -0.4077
  386SOL    HW3 1598   3.980   2.420   0.826 -0.1846  0.6010  1.5840
  386SOL    MW4 1599   4.050   2.467   0.808 -0.0043 -0.1049  0.3850
  387SOL     OW 1600   0.254   1.246   0.482  0.2261  0.3015 -0.1432
  387SOL    HW2 1601   0.160   1.260   0.487  0.1705  1.0418 -2.3739
  387SOL    HW3 1602   0.264   1.151   0.475 -0.5362  0.3537 -2.2900
  387SOL    MW4 1603   0.243   1.236   0.481  0.1182  0.4060 -0.7207
  388SOL     OW 1604   1.361   3.936   0.542 -0.1245  0.0545 -0.0757
  388SOL    HW2 1605   1.363   3.874   0.469  0.0914 -0.7659  0.6051
  388SOL    HW3 1606   1.400   3.887   0.615 -1.3542  0.4632  0.8766
  388SOL    MW4 1607   1.366   3.921   0.542 -0.2582  0.0000  0.1397
  389SOL     OW 1608   2.272   0.316   0.857  0.5523  0.5787 -0.4837
  389SOL    HW2 1609   2.194   0.368   0.835  0.4111  0.9006  0.7156
  389SOL    HW3 1610   2.254   0.230   0.819 -0.4912  0.5930 -0.0613
  389SOL    MW4 1611   2.259   0.311   0.849  0.3960  0.6230 -0.2698
  390SOL     OW 1612   4.070   4.525   0.477 -0.3597 -0.1799  0.0372
  390SOL    HW2 1613   4.156   4.482   0.483  0.4173  1.3064 -0.1600
  390SOL    HW3 1614   4.029   4.510   0.562  0.1521 -0.7899  0.1814
  390SOL    MW4 1615   4.076   4.517   0.489 -0.1898 -0.0644  0.0302
  391SOL     OW 1616   3.153   0.902   0.736 -0.3864 -0.3122 -0.2969
  391SOL    HW2 1617   3.076   0.853   0.763 -0.1715  0.0705  1.0461
  391SOL    HW3 1618   3.131   0.994   0.753  0.9226 -0.3143  1.5940
  391SOL    MW4 1619   3.140   0.908   0.742 -0.1855 -0.2620  0.1298
  392SOL     OW 1620   3.336   1.492   0.817 -0.1350  0.7206 -0.1776
  392SOL    HW2 1621   3.361   1.501   0.909 -2.3887  1.1164  0.4116
  392SOL    HW3 1622   3.259   1.547   0.807 -0.6369 -0.2601 -2.0125
  392SOL    MW4 1623   3.329   1.500   0.828 -0.4985  0.6433 -0.3419
  393SOL     OW 1624   1.373   4.323   0.413  0.3639  0.7922  0.0379
  393SOL    HW2 1625   1.428   4.399   0.399  1.0475  0.0577 -1.4051
  393SOL    HW3 1626   1.368   4.313   0.508  0.2310  2.6359  0.2310
  393SOL    MW4 1627   1.380   4.331   0.423  0.4365  0.9389 -0.1270
  394SOL     OW 1628   1.714   2.854   0.264  0.0601  0.0031 -0.0068
  394SOL    HW2 1629   1.724   2.917   0.335  0.1693 -0.0895  0.0597
  394SOL    HW3 1630   1.642   2.889   0.211 -0.0329  0.0627  0.1577
  394SOL    MW4 1631   1.706   2.867   0.266  0.0622 -0.0012  0.0237
  395SOL     OW 1632   3.266   0.797   0.499 -0.0817 -0.1656 -0.2668
  395SOL    HW2 1633   3.231   0.804   0.588 -0.8349 -2.7872 -0.3150
  395SOL    HW3 1634   3.194   0.826   0.443 -0.4801 -0.9051 -0.1398
  395SOL    MW4 1635   3.252   0.802   0.503 -0.2334 -0.6090 -0.2565
  396SOL     OW 1636   2.808   1.095   0.494  0.0295  0.1103  0.3470
  396SOL    HW2 1637   2.839   1.137   0.574  1.3102  2.0860 -1.1445
  396SOL    HW3 1638   2.777   1.167   0.439 -3.1685 -1.4340  0.0158
  396SOL    MW4 1639   2.808   1.110   0.497 -0.2236  0.1673  0.1065
  397SOL     OW 1640   2.677   1.907   0.818 -0.0994 -0.1517 -0.1116
  397SOL    HW2 1641   2.738   1.979   0.805  0.4884 -0.8362 -1.1789
  397SOL    HW3 1642   2.668   1.900   0.913  2.1154 -0.5900  0.0839
  397SOL    MW4 1643   2.684   1.916   0.829  0.2704 -0.2998 -0.2266
  398SOL     OW 1644   0.906   1.329   0.389 -0.4727  0.1460  0.1823
  398SOL    HW2 1645   0.936   1.419   0.398 -1.0760  0.3264  0.3643
  398SOL    HW3 1646   0.987   1.277   0.395 -0.0336  0.7083 -0.6743
  398SOL    MW4 1647   0.921   1.334   0.391 -0.4943  0.2440  0.0933
  399SOL     OW 1648   2.266   0.058   0.732 -0.2448  0.0090  0.1103
  399SOL    HW2 1649   2.279   0.013   0.649 -1.3068 -1.1457  0.5511
  399SOL    HW3 1650   2.342   0.033   0.785 -0.0373 -0.0144 -0.2012
  399SOL    MW4 1651   2.277   0.048   0.728 -0.3576 -0.1464  0.1274
  400SOL     OW 1652   2.689   2.456   0.737  0.5939 -0.1354 -0.0421
  400SOL    HW2 1653   2.704   2.534   0.790 -0.2770  1.9090 -2.6845
  400SOL    HW3 1654   2.605   2.423   0.767  0.3239  0.7393  0.1863
  400SOL    MW4 1655   2.680   2.462   0.748  0.4435  0.2499 -0.3607
  401SOL     OW 1656   2.904   2.818   0.679  0.1407  0.6294  0.0861
  401SOL    HW2 1657   2.830   2.789   0.732  0.7449  1.0633  1.1748
  401SOL    HW3 1658   2.981   2.797   0.731  0.8211 -0.3052 -1.2844
  401SOL    MW4 1659   2.904   2.812   0.693  0.3104  0.5634  0.0489
  402SOL     OW 1660   1.571   0.798   0.808 -0.1692 -0.2414  0.1318
  402SOL    HW2 1661   1.524   0.865   0.759 -0.4599  0.7361  1.6913
  402SOL    HW3 1662   1.663   0.819   0.795 -0.2688  1.0148  1.3115
  402SOL    MW4 1663   1.577   0.809   0.800 -0.2205  0.0532  0.4932
  403SOL     OW 1664   2.899   3.047   0.843 -0.6152 -0.1740  0.4683
  403SOL    HW2 1665   2.821   3.089   0.805 -1.2318 -0.7265  1.1184
  403SOL    HW3 1666   2.903   2.961   0.802 -0.3493 -0.1537  0.4479
  403SOL    MW4 1667   2.889   3.041   0.833 -0.6614 -0.2444  0.5513
  404SOL     OW 1668   2.684   3.190   0.715  0.1286 -0.0828  0.3245
  404SOL    HW2 1669   2.678   3.268   0.771 -0.3993  0.0531  0.0808
  404SOL    HW3 1670   2.623   3.128   0.753  1.3349 -0.7880  1.1528
  404SOL    MW4 1671   2.675   3.192   0.728  0.2182 -0.1581  0.4017
  405SOL     OW 1672   2.678   3.436   0.851  0.3612  0.1548 -0.2464
  405SOL    HW2 1673   2.659   3.424   0.944  2.3663 -1.2966  0.0143
  405SOL    HW3 1674   2.762   3.482   0.849  0.5573 -0.2326 -1.3344
  405SOL    MW4 1675   2.687   3.440   0.863  0.6518 -0.0875 -0.3555
  406SOL     OW 1676   3.800   3.627   0.525  0.3222  0.1790 -0.1081
  406SOL    HW2 1677   3.804   3.628   0.621  1.2077  0.9188 -0.1499
  406SOL    HW3 1678   3.873   3.570   0.499 -0.7479 -1.1332 -0.3118
  406SOL    MW4 1679   3.810   3.619   0.534  0.2980  0.1032 -0.1405
  407SOL     OW 1680   2.920   3.831   0.857 -0.0494 -0.1907  0.1035
  407SOL    HW2 1681   2.858   3.898   0.829  0.3968 -0.0479 -0.5623
  407SOL    HW3 1682   2.921   3.837   0.952 -1.0749 -0.2108  0.1228
  407SOL    MW4 1683   2.912   3.841   0.866 -0.1256 -0.1745  0.0182
  408SOL     OW 1684   2.523   4.130   0.408 -0.5853  0.1176  0.0746
  408SOL    HW2 1685   2.491   4.209   0.451  1.4515  0.3273  1.2819
  408SOL    HW3 1686   2.568   4.162   0.329  1.1534  0.3040  1.1028
  408SOL    MW4 1687   2.525   4.145   0.403 -0.0873  0.1702  0.3696
  409SOL     OW 1688   2.731   4.275   0.859  0.3403  0.1707  0.2500
  409SOL    HW2 1689   2.739   4.278   0.955 -0.8462  0.9407  0.3294
  409SOL    HW3 1690   2.798   4.336   0.827 -1.0257  1.9602  0.6988
  409SOL    MW4 1691   2.741   4.283   0.868  0.0033  0.5088  0.3197
  410SOL     OW 1692   1.097   3.628   0.774 -0.3344  1.1830  0.1557
  410SOL    HW2 1693   1.069   3.649   0.685 -0.8805 -0.4589 -0.0616
  410SOL    HW3 1694   1.175   3.574   0.763 -0.6773  0.5864  0.6791
  410SOL    MW4 1695   1.104   3.624   0.761 -0.4517  0.8874  0.1961
  411SOL     OW 1696   3.410   4.627   0.845 -0.0648  0.3262  0.4976
  411SOL    HW2 1697   3.417   4.635   0.940  0.6570  0.5179  0.4278
  411SOL    HW3 1698   3.483   4.678   0.811  0.9117 -1.4371 -0.1045
  411SOL    MW4 1699   3.421   4.635   0.853  0.1590  0.1187  0.4089
  412SOL     OW 1700   2.691   1.139   0.823 -0.1559  0.6236 -0.7465
  412SOL    HW2 1701   2.757   1.193   0.780 -0.0316 -0.3792 -1.8576
  412SOL    HW3 1702   2.608   1.185   0.809  0.4785  2.9586  2.4021
  412SOL    MW4 1703   2.689   1.152   0.816 -0.0558  0.7993 -0.4777
  413SOL     OW 1704   3.213   2.591   0.407 -0.2567 -0.5694 -0.0383
  413SOL    HW2 1705   3.252   2.510   0.375 -2.2983 -2.0391  1.1271
  413SOL    HW3 1706   3.198   2.576   0.500 -0.0267  1.4134  0.3539
  413SOL    MW4 1707   3.216   2.579   0.415 -0.4957 -0.5019  0.1673
  414SOL     OW 1708   3.157   0.093   0.749 -0.2526 -0.2110  0.0078
  414SOL    HW2 1709   3.162   0.172   0.803 -1.7902 -1.7413  2.4416
  414SOL    HW3 1710   3.229   0.038   0.780 -0.5394 -0.6904 -0.1668
  414SOL    MW4 1711   3.167   0.096   0.760 -0.4933 -0.4762  0.3060
  415SOL     OW 1712   3.373   0.766   0.840  0.0800 -0.8503  0.0546
  415SOL    HW2 1713   3.445   0.813   0.799  1.1719 -1.7173  0.9532
  415SOL    HW3 1714   3.294   0.810   0.808  1.0258  0.6497 -0.2460
  415SOL    MW4 1715   3.372   0.778   0.830  0.3486 -0.7669  0.1335
  416SOL     OW 1716   2.461   2.083   0.458  0.1541 -0.4432 -0.1582
  416SOL    HW2 1717   2.454   2.070   0.553 -0.8164 -1.1449 -0.3144
  416SOL    HW3 1718   2.530   2.148   0.448  0.1522 -0.2336  1.0437
  416SOL    MW4 1719   2.469   2.090   0.469  0.0257 -0.5081 -0.0202
  417SOL     OW 1720   3.110   1.651   0.482  0.2343 -0.0484  0.1848
  417SOL    HW2 1721   3.182   1.686   0.431  0.2109  0.1742  0.3040
  417SOL    HW3 1722   3.031   1.685   0.439  0.2258  0.6836  0.7504
  417SOL    MW4 1723   3.109   1.660   0.470  0.2298  0.0775  0.2752
  418SOL     OW 1724   3.119   1.655   0.749  0.0948 -0.4277  0.1101
  418SOL    HW2 1725   3.117   1.748   0.771  0.8464 -0.5252  0.6156
  418SOL    HW3 1726   3.122   1.653   0.654  1.9834  0.1176  0.1412
  418SOL    MW4 1727   3.119   1.667   0.740  0.4432 -0.3686  0.1808
  419SOL     OW 1728   2.894   1.279   0.683 -0.1684 -0.2474  0.1174
  419SOL    HW2 1729   2.967   1.248   0.736  0.1643  0.1224 -0.1287
  419SOL    HW3 1730   2.934   1.325   0.610 -0.5434 -3.5158 -2.2503
  419SOL    MW4 1731   2.909   1.281   0.680 -0.1740 -0.6299 -0.2273
  420SOL     OW 1732   4.371   4.077   0.359  0.3358  0.4263 -0.2177
  420SOL    HW2 1733   4.285   4.040   0.377 -0.0613  1.9665  1.2435
  420SOL    HW3 1734   4.388   4.056   0.267 -1.4358 -0.1955 -0.4186
  420SOL    MW4 1735   4.362   4.069   0.349  0.0496  0.5474 -0.0514
  421SOL     OW 1736   3.129   1.924   0.782 -0.2877  0.1962 -0.5267
  421SOL    HW2 1737   3.055   1.984   0.770  0.3276  1.0996  0.0937
  421SOL    HW3 1738   3.149   1.930   0.876  1.1437  0.6551 -0.8468
  421SOL    MW4 1739   3.122   1.933   0.793 -0.0179  0.3759 -0.4871
  422SOL     OW 1740   4.452   0.414   0.386  0.1005  0.0679 -0.1658
  422SOL    HW2 1741   4.387   0.484   0.392 -0.4682 -0.2863 -1.9104
  422SOL    HW3 1742   4.405   0.335   0.413  0.2462  0.0779  0.1124
  422SOL    MW4 1743   4.437   0.413   0.390  0.0443  0.0225 -0.3594
  423SOL     OW 1744   2.901   2.062   0.734 -0.5914  0.4018 -0.1213
  423SOL    HW2 1745   2.902   2.069   0.638 -1.0121  0.7177 -0.1056
  423SOL    HW3 1746   2.927   2.149   0.765  0.4850  0.0232  0.0504
  423SOL    MW4 1747   2.905   2.074   0.725 -0.5050  0.3934 -0.0965
  424SOL     OW 1748   3.271   4.163   0.430  0.4659 -0.4573 -0.0304
  424SOL    HW2 1749   3.331   4.089   0.441  2.3773  1.0498  0.0300
  424SOL    HW3 1750   3.327   4.240   0.439 -1.1978  0.9887 -1.7345
  424SOL    MW4 1751   3.286   4.164   0.433  0.4985 -0.0677 -0.2472
  425SOL     OW 1752   3.368   2.817   0.711  0.1189  0.2057  0.0868
  425SOL    HW2 1753   3.386   2.792   0.621  0.2782 -2.4260  0.8236
  425SOL    HW3 1754   3.436   2.775   0.763  0.2994  2.0529  1.4199
  425SOL    MW4 1755   3.379   2.808   0.706  0.1638  0.1020  0.3600
  426SOL     OW 1756   4.059   3.516   0.426 -0.3735  0.0803  0.2712
  426SOL    HW2 1757   4.141   3.539   0.470  1.0208 -0.0174 -2.1940
  426SOL    HW3 1758   4.057   3.421   0.429 -0.8917  0.1122  1.1668
  426SOL    MW4 1759   4.070   3.507   0.433 -0.2575  0.0715  0.0641
  427SOL     OW 1760   3.125   2.745   0.810 -0.0563  0.0636  0.0176
  427SOL    HW2 1761   3.209   2.785   0.785  0.5341 -0.1619  1.6174
  427SOL    HW3 1762   3.129   2.657   0.772  1.0486 -0.4521  1.2742
  427SOL    MW4 1763   3.137   2.739   0.801  0.1676 -0.0341  0.3944
  428SOL     OW 1764   3.129   3.187   0.747 -0.1633 -0.3050 -0.5667
  428SOL    HW2 1765   3.210   3.140   0.765  0.0617  0.1471 -0.3819
  428SOL    HW3 1766   3.060   3.131   0.782 -0.0136 -1.1666 -1.6292
  428SOL    MW4 1767   3.130   3.174   0.754 -0.1140 -0.3591 -0.6825
  429SOL     OW 1768   3.168   3.474   0.826  0.3761 -0.5168  0.0130
  429SOL    HW2 1769   3.164   3.385   0.791 -0.3681  0.0758 -1.4841
  429SOL    HW3 1770   3.076   3.501   0.831  0.6555  0.6450 -0.8713
  429SOL    MW4 1771   3.155   3.466   0.822  0.3145 -0.2854 -0.3012
  430SOL     OW 1772   3.380   3.638   0.737 -0.1921 -0.4358  0.1081
  430SOL    HW2 1773   3.359   3.724   0.772 -0.0127  0.2004 -1.3405
  430SOL    HW3 1774   3.304   3.584   0.760 -0.4940  0.2050  0.6299
  430SOL    MW4 1775   3.367   3.642   0.745 -0.2081 -0.2673 -0.0142
  431SOL     OW 1776   3.604   3.961   0.760 -0.1813  0.4743  0.1823
  431SOL    HW2 1777   3.673   3.948   0.825  0.2687  1.3551 -0.1166
  431SOL    HW3 1778   3.588   4.055   0.760  0.0629  0.5265 -1.2378
  431SOL    MW4 1779   3.611   3.971   0.769 -0.0896  0.5977 -0.0445
  432SOL     OW 1780   3.142   4.234   0.833 -0.1507  0.2180  0.1553
  432SOL    HW2 1781   3.143   4.141   0.808 -1.1380 -0.2252  1.7049
  432SOL    HW3 1782   3.217   4.271   0.787  1.0047 -1.6158  0.4677
  432SOL    MW4 1783   3.152   4.226   0.824 -0.1285 -0.0825  0.4010
  433SOL     OW 1784   2.922   4.414   0.740 -0.3268  0.5035 -0.5105
  433SOL    HW2 1785   2.998   4.361   0.762 -1.0277 -0.1332  0.4024
  433SOL    HW3 1786   2.922   4.418   0.644  1.4759  1.4343 -0.4770
  433SOL    MW4 1787   2.932   4.407   0.730 -0.1812  0.5422 -0.3856
  434SOL     OW 1788   3.365   4.379   0.718  0.2814 -0.0950  0.1446
  434SOL    HW2 1789   3.351   4.406   0.627  1.9121  1.5147  0.3486
  434SOL    HW3 1790   3.388   4.460   0.763 -2.3840 -0.5447  2.4204
  434SOL    MW4 1791   3.366   4.393   0.712  0.1450  0.0577  0.4718
  435SOL     OW 1792   3.833   0.026   0.911 -0.6359  0.0029  0.1223
  435SOL    HW2 1793   3.900   0.076   0.865 -0.2166  0.8013  1.5778
  435SOL    HW3 1794   3.750   0.053   0.871 -0.3037  0.9248  0.0500
  435SOL    MW4 1795   3.831   0.036   0.900 -0.5367  0.2298  0.3047
  436SOL     OW 1796   3.625   0.117   0.761  0.0686  0.3227  0.4447
  436SOL    HW2 1797   3.593   0.207   0.774  0.6206  0.5721  0.1078
  436SOL    HW3 1798   3.659   0.117   0.672  1.0623  0.0802  0.8185
  436SOL    MW4 1799   3.625   0.129   0.751  0.2725  0.3236  0.4495
  437SOL     OW 1800   3.165   0.358   0.860  0.4641 -0.2433  0.7523
  437SOL    HW2 1801   3.232   0.415   0.820 -0.1724 -0.3582 -0.5113
  437SOL    HW3 1802   3.171   0.377   0.953  0.3095  1.8833  0.3741
  437SOL    MW4 1803   3.175   0.368   0.867  0.3598  0.0221  0.5357
  438SOL     OW 1804   0.574   4.369   0.493  0.1832 -0.3586 -0.3319
  438SOL    HW2 1805   0.616   4.290   0.460  0.2148 -1.0140  1.2667
  438SOL    HW3 1806   0.485   4.366   0.457 -0.4471 -2.1478  1.3309
  438SOL    MW4 1807   0.568   4.358   0.484  0.1042 -0.6804  0.0984
  439SOL     OW 1808   4.274   0.506   0.760 -0.4125  0.1359  0.2444
  439SOL    HW2 1809   4.285   0.588   0.809 -0.8621  0.4132 -0.1108
  439SOL    HW3 1810   4.322   0.441   0.811 -0.5182  0.5089  0.8305
  439SOL    MW4 1811   4.282   0.508   0.773 -0.4859  0.2217  0.2748
  440SOL     OW 1812   3.840   0.759   0.823  0.0515  0.0098 -0.5572
  440SOL    HW2 1813   3.846   0.760   0.919  0.5554 -1.3372 -0.5703
  440SOL    HW3 1814   3.758   0.805   0.804 -0.8598 -1.1120  0.5943
  440SOL    MW4 1815   3.830   0.766   0.833 -0.0024 -0.3159 -0.4070
  441SOL     OW 1816   3.604   0.887   0.747  0.2483  0.1672 -0.3737
  441SOL    HW2 1817   3.599   0.967   0.799  0.4667  0.3976 -0.7058
  441SOL    HW3 1818   3.653   0.912   0.669 -1.5243  0.2228 -1.4787
  441SOL    MW4 1819   3.610   0.901   0.744  0.0434  0.2050 -0.5634
  442SOL     OW 1820   2.925   3.837   0.408  0.3472 -0.2089  0.1756
  442SOL    HW2 1821   2.835   3.872   0.413  0.0248 -1.1725  1.4835
  442SOL    HW3 1822   2.981   3.915   0.416 -0.3668  0.3817 -0.4646
  442SOL    MW4 1823   2.920   3.852   0.410  0.2105 -0.2580  0.2636
  443SOL     OW 1824   3.823   1.537   0.868  0.3809 -0.1670 -0.2501
  443SOL    HW2 1825   3.825   1.453   0.821 -0.9044 -0.1283 -0.3964
  443SOL    HW3 1826   3.746   1.582   0.833  0.2053  0.4490  0.9079
  443SOL    MW4 1827   3.813   1.532   0.857  0.1881 -0.0807 -0.1166
  444SOL     OW 1828   3.605   3.442   0.459 -0.5410  0.0996 -0.1024
  444SOL    HW2 1829   3.661   3.519   0.466 -0.1229 -0.2043 -0.0913
  444SOL    HW3 1830   3.516   3.477   0.455 -0.2621  0.6685 -1.8630
  444SOL    MW4 1831   3.600   3.457   0.459 -0.4487  0.1345 -0.3332
  445SOL     OW 1832   4.303   4.370   0.494  0.1740  0.6462  0.1906
  445SOL    HW2 1833   4.319   4.284   0.455  0.4779  1.3090 -1.1569
  445SOL    HW3 1834   4.301   4.353   0.588  3.5287 -0.3156  0.1496
  445SOL    MW4 1835   4.304   4.356   0.501  0.6571  0.6070  0.0074
  446SOL     OW 1836   3.835   2.298   0.849 -0.1830 -0.4792 -0.4288
  446SOL    HW2 1837   3.817   2.286   0.942 -0.3528 -0.4938 -0.4634
  446SOL    HW3 1838   3.759   2.345   0.816 -0.5262 -1.2507 -0.7370
  446SOL    MW4 1839   3.823   2.303   0.857 -0.2506 -0.5829 -0.4740
  447SOL     OW 1840   3.384   2.348   0.762 -0.6631  0.4157 -0.1936
  447SOL    HW2 1841   3.380   2.357   0.857  0.7088 -0.2275 -0.0470
  447SOL    HW3 1842   3.399   2.254   0.748 -0.0049  0.6358 -1.0016
  447SOL    MW4 1843   3.386   2.337   0.773 -0.3948  0.3600 -0.2810
  448SOL     OW 1844   3.746   2.026   0.505  0.1097  0.1144  0.2482
  448SOL    HW2 1845   3.747   2.117   0.475  0.1189  0.1310  0.2981
  448SOL    HW3 1846   3.827   1.989   0.471 -0.6327 -0.2987 -1.0942
  448SOL    MW4 1847   3.757   2.033   0.496  0.0129  0.0625  0.0776
  449SOL     OW 1848   3.577   2.709   0.846 -0.1917  0.3443 -0.0683
  449SOL    HW2 1849   3.581   2.725   0.941 -0.0251 -0.7408  0.1119
  449SOL    HW3 1850   3.637   2.774   0.809  0.7022 -0.0293  0.6788
  449SOL    MW4 1851   3.586   2.719   0.854 -0.0517  0.1521  0.0540
  450SOL     OW 1852   1.746   1.730   0.508 -0.0238  0.0337 -0.5471
  450SOL    HW2 1853   1.729   1.823   0.493  2.3936  0.4214 -1.0424
  450SOL    HW3 1854   1.770   1.725   0.601  2.0317  0.2523 -1.0570
  450SOL    MW4 1855   1.747   1.742   0.519  0.5662  0.1137 -0.6796
  451SOL     OW 1856   4.012   2.744   0.879 -0.4828  0.0247 -0.3122
  451SOL    HW2 1857   4.076   2.792   0.827  0.1841 -1.0592 -0.5049
  451SOL    HW3 1858   4.014   2.655   0.843 -0.1771 -0.6762  1.4140
  451SOL    MW4 1859   4.021   2.739   0.867 -0.3548 -0.2108 -0.1099
  452SOL     OW 1860   2.848   0.657   0.458  0.2980  0.2028 -0.0639
  452SOL    HW2 1861   2.884   0.580   0.414  0.0520 -0.6739  1.2541
  452SOL    HW3 1862   2.770   0.624   0.503  0.3789  1.1601  0.7734
  452SOL    MW4 1863   2.843   0.642   0.458  0.2761  0.2134  0.2205
  453SOL     OW 1864   3.825   3.643   0.788 -0.2082  0.2389 -0.5881
  453SOL    HW2 1865   3.897   3.599   0.832  0.2223  1.2107 -0.2962
  453SOL    HW3 1866   3.747   3.594   0.814  0.2242 -0.1716 -0.0515
  453SOL    MW4 1867   3.824   3.631   0.797 -0.0942  0.3128 -0.4788
  454SOL     OW 1868   1.367   1.197   0.270 -0.6328 -0.1566 -0.6535
  454SOL    HW2 1869   1.419   1.254   0.327 -2.2822  0.9078 -0.1767
  454SOL    HW3 1870   1.389   1.225   0.181  1.1238 -1.0876 -0.5466
  454SOL    MW4 1871   1.377   1.208   0.266 -0.6187 -0.1389 -0.5765
  455SOL     OW 1872   3.845   3.881   0.911  0.2022  0.2573  0.2910
  455SOL    HW2 1873   3.830   3.790   0.885 -1.2311  0.5430  0.1047
  455SOL    HW3 1874   3.900   3.918   0.842  1.3515 -0.6397  0.7024
  455SOL    MW4 1875   3.851   3.874   0.899  0.1647  0.1767  0.3207
  456SOL     OW 1876   4.370   0.161   0.448  0.0047  0.2176 -0.1316
  456SOL    HW2 1877   4.391   0.081   0.401  0.2474  0.7134 -0.8757
  456SOL    HW3 1878   4.413   0.151   0.533  2.7045  0.9005 -1.3570
  456SOL    MW4 1879   4.378   0.149   0.453  0.3929  0.3731 -0.3915
  457SOL     OW 1880   4.040   4.222   0.850 -0.3646  0.0699 -0.2600
  457SOL    HW2 1881   4.018   4.141   0.804  1.4292 -0.8162  0.3794
  457SOL    HW3 1882   4.125   4.249   0.813 -0.5246  1.1830  0.1443
  457SOL    MW4 1883   4.049   4.215   0.839 -0.1493  0.0997 -0.1222
  458SOL     OW 1884   4.030   0.117   0.751  0.1085  0.0637 -0.0839
  458SOL    HW2 1885   4.031   0.210   0.775 -1.5189  0.0976 -0.0363
  458SOL    HW3 1886   4.074   0.114   0.666  0.9782  0.7510  0.3341
  458SOL    MW4 1887   4.036   0.129   0.743  0.0091  0.1588 -0.0225
  459SOL     OW 1888   4.261   4.624   0.835 -0.2543  0.3156 -0.2452
  459SOL    HW2 1889   4.275   4.656   0.924  2.2452  0.0820 -0.5222
  459SOL    HW3 1890   4.179   4.664   0.808 -1.7356 -0.5997  2.6135
  459SOL    MW4 1891   4.252   4.633   0.843 -0.1197  0.1640  0.0954
  460SOL     OW 1892   4.033   0.369   0.838 -0.2634  0.1149 -0.5018
  460SOL    HW2 1893   4.102   0.427   0.805 -0.4032  1.2326  1.1376
  460SOL    HW3 1894   3.952   0.408   0.806 -0.3432  0.7124  0.4173
  460SOL    MW4 1895   4.032   0.382   0.829 -0.2923  0.3412 -0.1643
  461SOL     OW 1896   4.098   0.141   0.479 -0.4044  0.3195  0.4266
  461SOL    HW2 1897   4.189   0.167   0.462 -0.6257  1.3189  0.7613
  461SOL    HW3 1898   4.092   0.052   0.444  0.8449  0.0565  0.8541
  461SOL    MW4 1899   4.109   0.133   0.472 -0.2689  0.4166  0.5272
  462SOL     OW 1900   3.562   0.367   0.851 -0.1555  0.0891  0.2144
  462SOL    HW2 1901   3.642   0.408   0.819  0.5611 -1.9149 -0.6864
  462SOL    HW3 1902   3.575   0.361   0.946  0.5442  0.2786  0.1353
  462SOL    MW4 1903   3.574   0.371   0.859  0.0315 -0.1504  0.0851
  463SOL     OW 1904   3.916   0.302   0.362  0.6146  0.1532  0.2105
  463SOL    HW2 1905   3.967   0.328   0.285  1.1879  3.0991  1.5265
  463SOL    HW3 1906   3.971   0.238   0.407  1.9043  1.1614  0.0826
  463SOL    MW4 1907   3.930   0.297   0.358  0.8605  0.6749  0.3673
  464SOL     OW 1908   2.270   1.166   0.365 -0.3936  0.3363 -0.2052
  464SOL    HW2 1909   2.313   1.085   0.394 -0.8192  0.1075 -0.2013
  464SOL    HW3 1910   2.296   1.175   0.273 -3.0364 -1.6379 -1.2106
  464SOL    MW4 1911   2.279   1.156   0.356 -0.7982  0.0457 -0.3373
  465SOL     OW 1912   1.979   2.107   0.439 -0.2564 -0.1235 -0.5965
  465SOL    HW2 1913   1.899   2.151   0.409 -0.4759 -0.9263 -1.2283
  465SOL    HW3 1914   2.050   2.154   0.396 -0.3981  0.4991 -0.1520
  465SOL    MW4 1915   1.977   2.119   0.429 -0.3039 -0.1473 -0.6212
  466SOL     OW 1916   3.833   1.291   0.776 -0.6347  0.2671  0.1569
  466SOL    HW2 1917   3.824   1.306   0.682 -1.4905  1.2789  0.3894
  466SOL    HW3 1918   3.753   1.245   0.801  0.1529 -1.0865  0.1705
  466SOL    MW4 1919   3.821   1.287   0.767 -0.6440  0.2218  0.1894
  467SOL     OW 1920   4.262   1.518   0.837  0.0964 -0.7718 -0.1828
  467SOL    HW2 1921   4.284   1.505   0.929  2.0443 -0.9549 -0.6524
  467SOL    HW3 1922   4.246   1.430   0.803 -0.5136 -0.7133 -0.0612
  467SOL    MW4 1923   4.262   1.505   0.844  0.2723 -0.7882 -0.2287
  468SOL     OW 1924   1.495   2.291   0.215  0.2345 -0.1054 -0.4645
  468SOL    HW2 1925   1.509   2.309   0.123  0.6801 -0.8901 -0.5525
  468SOL    HW3 1926   1.442   2.365   0.246  0.5831  0.4607 -1.2029
  468SOL    MW4 1927   1.490   2.303   0.207  0.3393 -0.1342 -0.5735
  469SOL     OW 1928   0.353   1.923   0.471 -0.5793 -0.3657 -0.3290
  469SOL    HW2 1929   0.313   1.839   0.493 -0.7477 -0.5542 -1.3377
  469SOL    HW3 1930   0.317   1.984   0.536 -2.3266 -0.5807 -1.0511
  469SOL    MW4 1931   0.343   1.920   0.483 -0.8321 -0.4190 -0.5574
  470SOL     OW 1932   3.564   1.590   0.418  0.0622  0.2237  0.0698
  470SOL    HW2 1933   3.552   1.495   0.413  1.7362  0.0542 -1.2034
  470SOL    HW3 1934   3.649   1.605   0.376  0.3076  2.1708  1.2306
  470SOL    MW4 1935   3.574   1.579   0.412  0.3154  0.4584  0.0550
  471SOL     OW 1936   0.023   1.629   0.764  0.0065  0.3465 -0.0882
  471SOL    HW2 1937   0.008   1.627   0.670 -1.3312  1.7899  0.0723
  471SOL    HW3 1938  -0.047   1.575   0.801  0.0900  0.3955  0.1414
  471SOL    MW4 1939   0.012   1.621   0.757 -0.1588  0.5434 -0.0367
  472SOL     OW 1940   1.624   3.997   0.882 -0.0592  0.1355  0.2256
  472SOL    HW2 1941   1.695   3.997   0.817 -1.2161 -0.5567 -1.0606
  472SOL    HW3 1942   1.669   4.006   0.966  1.5799 -0.6513 -0.5402
  472SOL    MW4 1943   1.639   3.998   0.885  0.0044 -0.0601 -0.0452
  473SOL     OW 1944   3.791   2.871   0.761  0.2724  0.4269 -0.0408
  473SOL    HW2 1945   3.874   2.836   0.794 -0.7117 -0.1021  1.9097
  473SOL    HW3 1946   3.786   2.959   0.799  0.1458  0.6445 -0.5501
  473SOL    MW4 1947   3.801   2.878   0.770  0.1261  0.3858  0.1493
  474SOL     OW 1948   1.070   0.948   0.153 -0.0830 -0.0711  0.2904
  474SOL    HW2 1949   0.978   0.957   0.130  0.3683  0.7498 -1.2209
  474SOL    HW3 1950   1.106   1.036   0.145  1.2875 -0.7449 -1.1133
  474SOL    MW4 1951   1.063   0.961   0.149  0.1575 -0.0517 -0.0942
  475SOL     OW 1952   4.047   3.263   0.761 -0.3177  0.1548 -0.0015
  475SOL    HW2 1953   4.120   3.218   0.803  0.5894  1.1463 -0.5047
  475SOL    HW3 1954   4.059   3.355   0.783 -0.4467  0.5481 -1.5095
  475SOL    MW4 1955   4.058   3.269   0.769 -0.2146  0.3374 -0.2668
  476SOL     OW 1956   4.049   3.513   0.871 -0.5691 -0.3367  0.0322
  476SOL    HW2 1957   4.050   3.516   0.967  0.6964 -2.4718  0.1016
  476SOL    HW3 1958   4.126   3.563   0.845 -1.6880  1.4615  0.0511
  476SOL    MW4 1959   4.059   3.520   0.880 -0.5503 -0.3812  0.0438
  477SOL     OW 1960   0.123   4.084   0.501 -0.4655 -0.9108 -0.6232
  477SOL    HW2 1961   0.150   3.998   0.469  0.3092 -0.8503 -0.1365
  477SOL    HW3 1962   0.036   4.098   0.461  0.0204 -1.2908 -1.8502
  477SOL    MW4 1963   0.115   4.075   0.491 -0.2991 -0.9527 -0.7209
  478SOL     OW 1964   4.261   3.663   0.795 -0.2505 -0.8115 -0.0257
  478SOL    HW2 1965   4.277   3.661   0.701 -0.6138  0.2163 -0.1152
  478SOL    HW3 1966   4.266   3.756   0.818 -2.1134 -0.8637  0.6297
  478SOL    MW4 1967   4.264   3.675   0.786 -0.5436 -0.6831  0.0489
  479SOL     OW 1968   0.694   4.600   0.427 -0.0075 -0.3571  0.5314
  479SOL    HW2 1969   0.652   4.515   0.436  0.5134 -0.6364  0.3186
  479SOL    HW3 1970   0.783   4.586   0.458 -0.2686  0.4114  1.6758
  479SOL    MW4 1971   0.700   4.587   0.432  0.0268 -0.2923  0.6543
  480SOL     OW 1972   4.033   3.977   0.737  0.1514 -0.2531 -0.2017
  480SOL    HW2 1973   4.050   3.974   0.643 -0.4031  0.3845 -0.3238
  480SOL    HW3 1974   4.120   3.975   0.777  0.4536  1.1224 -0.7783
  480SOL    MW4 1975   4.047   3.976   0.730  0.1178  0.0124 -0.2938
  481SOL     OW 1976   4.262   4.347   0.776 -0.1229 -0.3048  0.2502
  481SOL    HW2 1977   4.270   4.438   0.806  0.3377  0.8984 -3.2216
  481SOL    HW3 1978   4.339   4.303   0.814 -0.0152  0.8917  1.4711
  481SOL    MW4 1979   4.273   4.353   0.785 -0.0482  0.0119 -0.0468
  482SOL     OW 1980   0.229   4.387   0.731  0.2617  0.5340  0.1348
  482SOL    HW2 1981   0.307   4.342   0.764 -0.7621 -1.2988  0.1062
  482SOL    HW3 1982   0.156   4.342   0.774 -0.9100  0.5195 -1.8374
  482SOL    MW4 1983   0.229   4.375   0.741 -0.0280  0.2904 -0.1291
  483SOL     OW 1984   0.228   4.619   1.103 -0.0440  0.0918  0.0204
  483SOL    HW2 1985   0.303   4.668   1.135 -0.2986  0.9953 -0.7396
  483SOL    HW3 1986   0.237   4.622   1.007 -0.8159 -0.1554 -0.0630
  483SOL    MW4 1987   0.239   4.626   1.094 -0.1794  0.1783 -0.0908
  484SOL     OW 1988   0.033   0.078   1.243 -0.6289 -0.2153 -0.8437
  484SOL    HW2 1989  -0.044   0.048   1.195 -0.9474  0.7080 -0.9172
  484SOL    HW3 1990   0.107   0.045   1.192 -0.9760 -1.4639 -0.5450
  484SOL    MW4 1991   0.033   0.070   1.230 -0.7167 -0.2582 -0.8141
  485SOL     OW 1992   0.034   0.330   1.141  0.1063  0.3127 -0.1961
  485SOL    HW2 1993  -0.044   0.374   1.175  0.6890  0.0256  1.5516
  485SOL    HW3 1994   0.037   0.246   1.188  0.9171 -0.1082 -0.9800
  485SOL    MW4 1995   0.024   0.325   1.152  0.2902  0.2193 -0.0689
  486SOL     OW 1996   0.252   0.494   1.218  0.0989  0.3975  0.0959
  486SOL    HW2 1997   0.244   0.578   1.174 -0.4967  0.3478  0.1152
  486SOL    HW3 1998   0.169   0.449   1.201 -0.7663  0.9897  2.5409
  486SOL    MW4 1999   0.240   0.499   1.210 -0.0938  0.4690  0.4209
  487SOL     OW 2000   0.262   0.745   1.081 -0.5519  0.1727 -0.0006
  487SOL    HW2 2001   0.347   0.766   1.119 -0.1983 -1.7828  0.3568
  487SOL    HW3 2002   0.199   0.791   1.136  0.2545  1.5975 -0.2397
  487SOL    MW4 2003   0.265   0.754   1.093 -0.3988  0.1027  0.0150
  488SOL     OW 2004   0.057   0.852   1.242 -0.5477 -0.1043  0.3774
  488SOL    HW2 2005   0.049   0.844   1.337 -0.6171 -1.2055  0.2856
  488SOL    HW3 2006  -0.016   0.800   1.207 -1.0540  1.0249 -0.2674
  488SOL    MW4 2007   0.046   0.844   1.250 -0.6236 -0.1006  0.2803
  489SOL     OW 2008   0.040   1.072   1.086 -0.2380  0.8040 -0.2377
  489SOL    HW2 2009  -0.027   1.124   1.131 -0.1512  0.5420  0.1885
  489SOL    HW3 2010   0.052   0.995   1.141  0.4251  0.8535 -0.3154
  489SOL    MW4 2011   0.033   1.068   1.099 -0.1390  0.7759 -0.1918
  490SOL     OW 2012   0.234   1.236   1.229  0.2700 -0.1626 -0.1572
  490SOL    HW2 2013   0.315   1.205   1.187  0.4000 -0.1445  0.0781
  490SOL    HW3 2014   0.164   1.196   1.179  0.4413 -1.2482  0.4538
  490SOL    MW4 2015   0.236   1.226   1.217  0.3097 -0.3035 -0.0457
  491SOL     OW 2016   0.220   1.501   1.150 -0.1803 -0.0845  0.5870
  491SOL    HW2 2017   0.213   1.412   1.182 -0.7136  0.1093  1.0055
  491SOL    HW3 2018   0.205   1.495   1.056  0.1641 -0.4824  0.5565
  491SOL    MW4 2019   0.217   1.489   1.142 -0.2052 -0.1115  0.6384
  492SOL     OW 2020   4.477   1.656   1.210  0.4627 -0.4881  0.1429
  492SOL    HW2 2021   4.498   1.744   1.177 -1.4585 -0.4463 -1.0122
  492SOL    HW3 2022   4.562   1.616   1.228  1.3611  2.1345  2.0837
  492SOL    MW4 2023   4.491   1.663   1.208  0.3277 -0.1366  0.2466
  493SOL     OW 2024   0.029   1.913   1.104  0.5380 -0.4207 -0.7339
  493SOL    HW2 2025  -0.047   1.966   1.129  1.1086 -0.1325  0.4429
  493SOL    HW3 2026   0.021   1.903   1.009 -1.2081 -0.7536 -0.5778
  493SOL    MW4 2027   0.018   1.919   1.095  0.3829 -0.4268 -0.5580
  494SOL     OW 2028   0.228   2.078   1.220 -0.5002 -0.4880  0.3098
  494SOL    HW2 2029   0.233   2.161   1.173  1.8245 -1.4444 -1.2455
  494SOL    HW3 2030   0.175   2.022   1.164 -0.0885 -0.7623  0.1895
  494SOL    MW4 2031   0.222   2.082   1.206 -0.1391 -0.6504  0.0888
  495SOL     OW 2032   0.257   2.317   1.106 -0.1184  0.0809  0.0173
  495SOL    HW2 2033   0.335   2.349   1.152 -0.5692 -0.0545  0.8918
  495SOL    HW3 2034   0.184   2.361   1.151 -0.5826 -0.2696 -0.3967
  495SOL    MW4 2035   0.257   2.327   1.118 -0.2391  0.0169  0.0780
  496SOL     OW 2036   0.029   2.430   1.204  0.3331  0.0589  0.4873
  496SOL    HW2 2037   0.042   2.451   1.297 -0.6591 -0.3169  0.7260
  496SOL    HW3 2038  -0.053   2.381   1.203  0.3978 -0.0292 -0.5844
  496SOL    MW4 2039   0.020   2.426   1.216  0.2108 -0.0024  0.3774
  497SOL     OW 2040   0.017   2.685   1.112  0.4306 -0.5681  0.2889
  497SOL    HW2 2041  -0.055   2.730   1.156 -0.5676  0.6335 -2.4847
  497SOL    HW3 2042   0.024   2.601   1.158 -1.6006 -0.0079  1.7000
  497SOL    MW4 2043   0.009   2.680   1.124  0.0309 -0.3357  0.1091
  498SOL     OW 2044   0.234   2.850   1.215 -0.4292  0.3795  0.1988
  498SOL    HW2 2045   0.222   2.843   1.310  0.6601  0.4185  0.3433
  498SOL    HW3 2046   0.162   2.800   1.178 -0.0835 -0.7698  1.0607
  498SOL    MW4 2047   0.223   2.843   1.223 -0.2399  0.2332  0.3316
  499SOL     OW 2048   0.249   3.105   1.098 -0.1221  0.0074 -0.0864
  499SOL    HW2 2049   0.328   3.133   1.144 -0.0350  0.1430 -0.3203
  499SOL    HW3 2050   0.241   3.012   1.120  0.3240 -0.1042 -0.3819
  499SOL    MW4 2051   0.258   3.096   1.107 -0.0517  0.0105 -0.1563
  500SOL     OW 2052   0.034   3.227   1.225 -0.0901  0.2925  0.2099
  500SOL    HW2 2053  -0.050   3.186   1.206 -0.0178 -0.5601  1.6969
  500SOL    HW3 2054   0.099   3.165   1.192 -0.0062  0.1772  0.6011
  500SOL    MW4 2055   0.032   3.214   1.218 -0.0695  0.1647  0.4576
  501SOL     OW 2056   0.028   3.481   1.154  0.2435  0.2050 -0.0144
  501SOL    HW2 2057   0.036   3.389   1.179  1.4532  0.0162 -1.0630
  501SOL    HW3 2058   0.022   3.480   1.058 -0.6991  1.1500  0.0254
  501SOL    MW4 2059   0.028   3.469   1.144  0.2788  0.3047 -0.1476
  502SOL     OW 2060   0.255   3.619   1.237 -0.2079 -0.3414 -0.1953
  502SOL    HW2 2061   0.245   3.620   1.332 -0.6120 -0.4049 -0.2377
  502SOL    HW3 2062   0.177   3.575   1.204 -0.3466  0.1872 -0.5924
  502SOL    MW4 2063   0.243   3.613   1.245 -0.2795 -0.2801 -0.2533
  503SOL     OW 2064   0.262   3.906   1.115 -0.1135  0.0010 -0.5214
  503SOL    HW2 2065   0.174   3.935   1.140  0.0907  1.8350 -1.8413
  503SOL    HW3 2066   0.263   3.813   1.137 -1.7885  0.3290  1.1326
  503SOL    MW4 2067   0.250   3.898   1.121 -0.3076  0.2863 -0.4773
  504SOL     OW 2068   0.028   4.016   1.252  0.2360 -0.8120 -0.0136
  504SOL    HW2 2069   0.036   3.989   1.343  0.6143 -1.5235 -0.2609
  504SOL    HW3 2070  -0.054   3.976   1.222  0.0958 -0.5529  0.0124
  504SOL    MW4 2071   0.018   4.007   1.260  0.2674 -0.8712 -0.0428
  505SOL     OW 2072   0.016   4.275   1.145  0.1371 -0.5316  0.1841
  505SOL    HW2 2073   0.101   4.312   1.169  0.7850  0.0393 -2.8020
  505SOL    HW3 2074   0.021   4.183   1.172  0.8017  0.0544  2.1283
  505SOL    MW4 2075   0.028   4.268   1.152  0.3103 -0.3791  0.0466
  506SOL     OW 2076   0.271   4.373   1.210  0.1153 -0.4431 -0.5415
  506SOL    HW2 2077   0.254   4.397   1.301  0.1079 -1.0435 -0.3832
  506SOL    HW3 2078   0.253   4.453   1.161 -0.4302 -0.2718 -0.0744
  506SOL    MW4 2079   0.266   4.386   1.216  0.0423 -0.5002 -0.4590
  507SOL     OW 2080   0.719   4.660   1.124 -0.3956  0.1574  0.0171
  507SOL    HW2 2081   0.793   4.715   1.150  0.5137 -1.0830  0.0887
  507SOL    HW3 2082   0.732   4.578   1.171 -2.1838  0.1464  0.5394
  507SOL    MW4 2083   0.731   4.656   1.134 -0.5116 -0.0076  0.0954
  508SOL     OW 2084   0.462   0.072   1.221 -0.3844 -0.0525  0.3503
  508SOL    HW2 2085   0.457   0.162   1.187 -0.2890  0.1493  0.8642
  508SOL    HW3 2086   0.541   0.036   1.182 -1.3963 -0.5256 -1.3089
  508SOL    MW4 2087   0.471   0.079   1.212 -0.5053 -0.0883  0.1992
  509SOL     OW 2088   0.464   0.353   1.137  0.2372 -0.2490  0.0813
  509SOL    HW2 2089   0.384   0.397   1.166 -0.5234 -0.5137 -1.5563
  509SOL    HW3 2090   0.470   0.374   1.044  2.2491  0.0197  0.2491
  509SOL    MW4 2091   0.454   0.362   1.128  0.4022 -0.2485 -0.1125
  510SOL     OW 2092   0.688   0.488   1.205  0.3722  0.4319 -0.2108
  510SOL    HW2 2093   0.659   0.571   1.167 -0.4638 -0.1062 -0.7744
  510SOL    HW3 2094   0.615   0.428   1.190  0.5305 -0.1148  1.1762
  510SOL    MW4 2095   0.675   0.491   1.198  0.2828  0.2887 -0.1023
  511SOL     OW 2096   0.725   0.739   1.109 -0.1462 -0.5856  0.2930
  511SOL    HW2 2097   0.651   0.796   1.131  0.7105  0.3521  0.8365
  511SOL    HW3 2098   0.723   0.732   1.014  0.0103  0.7510  0.1778
  511SOL    MW4 2099   0.715   0.746   1.100 -0.0125 -0.2854  0.3495
  512SOL     OW 2100   0.498   0.878   1.185  0.4514  0.1097  0.0452
  512SOL    HW2 2101   0.474   0.871   1.278  1.3713 -0.5188  0.2331
  512SOL    HW3 2102   0.477   0.969   1.163  0.2829  0.2852  0.8824
  512SOL    MW4 2103   0.492   0.889   1.195  0.5505  0.0499  0.1805
  513SOL     OW 2104   0.456   1.139   1.100  0.1985 -0.0213  0.4502
  513SOL    HW2 2105   0.544   1.168   1.125 -0.2014  1.7626 -0.1557
  513SOL    HW3 2106   0.460   1.132   1.005 -0.0540 -0.8236  0.5022
  513SOL    MW4 2107   0.468   1.142   1.091  0.1124  0.1081  0.3771
  514SOL     OW 2108   0.675   1.309   1.186  0.0747 -0.1724 -0.0665
  514SOL    HW2 2109   0.765   1.279   1.170  1.3114  1.6940  2.8486
  514SOL    HW3 2110   0.675   1.400   1.158 -0.5578  0.1633  1.0003
  514SOL    MW4 2111   0.687   1.317   1.181  0.1544  0.1180  0.4590
  515SOL     OW 2112   0.693   1.564   1.061  0.0893  0.7462 -0.9229
  515SOL    HW2 2113   0.761   1.618   1.101 -0.0049  0.1686  0.0276
  515SOL    HW3 2114   0.611   1.599   1.097  0.0417 -0.1529 -0.1537
  515SOL    MW4 2115   0.691   1.576   1.071  0.0705  0.5513 -0.6961
  516SOL     OW 2116   0.452   1.659   1.194 -0.7254 -0.1713  0.3527
  516SOL    HW2 2117   0.462   1.663   1.289 -1.3696 -0.6223  0.4388
  516SOL    HW3 2118   0.382   1.595   1.179 -0.9298  0.2216 -0.4052
  516SOL    MW4 2119   0.444   1.651   1.204 -0.8374 -0.1789  0.2640
  517SOL     OW 2120   0.450   1.951   1.138  0.0771 -0.0994  0.0192
  517SOL    HW2 2121   0.423   1.859   1.142 -2.4286  0.5676 -0.2620
  517SOL    HW3 2122   0.376   1.999   1.176  1.2408  1.8094 -0.0758
  517SOL    MW4 2123   0.437   1.945   1.143 -0.0999  0.2403 -0.0304
  518SOL     OW 2124   0.701   2.061   1.188 -0.4166 -0.0805 -0.0133
  518SOL    HW2 2125   0.702   2.064   1.284  0.1197 -0.8820  0.0107
  518SOL    HW3 2126   0.617   2.021   1.166  0.1229 -1.3610  0.1798
  518SOL    MW4 2127   0.690   2.056   1.198 -0.2747 -0.3550  0.0154
  519SOL     OW 2128   0.711   2.317   1.087 -0.5825  0.0740  0.2293
  519SOL    HW2 2129   0.635   2.351   1.132  0.0969  0.5218  1.0459
  519SOL    HW3 2130   0.718   2.226   1.116 -0.3256  0.2732  0.8037
  519SOL    MW4 2131   0.702   2.309   1.097 -0.4590  0.1595  0.4128
  520SOL     OW 2132   0.484   2.444   1.217  0.2043 -0.1205  0.3326
  520SOL    HW2 2133   0.467   2.445   1.311 -0.8288 -0.4050  0.1637
  520SOL    HW3 2134   0.477   2.535   1.190 -3.2864 -0.4351 -0.0771
  520SOL    MW4 2135   0.481   2.456   1.226 -0.3926 -0.2000  0.2563
  521SOL     OW 2136   0.441   2.707   1.138 -0.1876  0.3203  0.3824
  521SOL    HW2 2137   0.369   2.766   1.162 -0.0696  0.7164 -0.2213
  521SOL    HW3 2138   0.440   2.706   1.042  1.6646  1.6529  0.3299
  521SOL    MW4 2139   0.431   2.715   1.128  0.0723  0.5481  0.2959
  522SOL     OW 2140   0.676   2.859   1.234  0.4281  0.1552 -0.3212
  522SOL    HW2 2141   0.685   2.928   1.168  0.6282  1.4787  1.0571
  522SOL    HW3 2142   0.595   2.814   1.211 -0.5754  1.8926 -0.3107
  522SOL    MW4 2143   0.667   2.863   1.222  0.3221  0.5591 -0.1379
  523SOL     OW 2144   0.677   3.066   1.066 -0.2875  0.0712 -0.2971
  523SOL    HW2 2145   0.734   3.129   1.110  0.9705 -0.8888 -0.5296
  523SOL    HW3 2146   0.684   3.087   0.973 -1.7405  1.1137 -0.1764
  523SOL    MW4 2147   0.685   3.077   1.060 -0.3132  0.0823 -0.3120
  524SOL     OW 2148   0.479   3.217   1.215  0.2869 -0.0054 -0.2689
  524SOL    HW2 2149   0.482   3.308   1.187  0.4640  0.2262  0.4982
  524SOL    HW3 2150   0.554   3.176   1.172 -0.1784  0.0465 -1.1557
  524SOL    MW4 2151   0.489   3.223   1.206  0.2489  0.0317 -0.2847
  525SOL     OW 2152   0.495   3.501   1.139  0.5412 -0.1476  0.6141
  525SOL    HW2 2153   0.563   3.556   1.179  0.2954  0.2850  0.4417
  525SOL    HW3 2154   0.413   3.533   1.177  0.3310  0.0868 -0.0231
  525SOL    MW4 2155   0.494   3.513   1.149  0.4811 -0.0594  0.5074
  526SOL     OW 2156   0.714   3.622   1.254  0.1329 -0.0080  0.6868
  526SOL    HW2 2157   0.699   3.627   1.348  3.3760  1.6213  1.1965
  526SOL    HW3 2158   0.724   3.713   1.226  1.4536 -0.5704 -0.7735
  526SOL    MW4 2159   0.714   3.635   1.263  0.7350  0.1328  0.5614
  527SOL     OW 2160   0.755   3.895   1.167  0.0959 -0.0810  0.5941
  527SOL    HW2 2161   0.670   3.931   1.193  0.3689  0.5929  0.5583
  527SOL    HW3 2162   0.748   3.885   1.072 -0.1662 -0.6246  0.6649
  527SOL    MW4 2163   0.743   3.898   1.158  0.0973 -0.0639  0.5985
  528SOL     OW 2164   0.501   3.983   1.238  0.0113 -0.3619  0.1807
  528SOL    HW2 2165   0.514   4.072   1.205  0.4361 -0.4042  0.2296
  528SOL    HW3 2166   0.416   3.957   1.202 -0.6780  0.5009  1.1319
  528SOL    MW4 2167   0.491   3.992   1.229 -0.0235 -0.2537  0.3126
  529SOL     OW 2168   0.519   4.252   1.130  0.1223 -0.1137  0.4347
  529SOL    HW2 2169   0.593   4.303   1.162  0.6379 -0.1015 -0.7545
  529SOL    HW3 2170   0.443   4.289   1.175  0.6810  0.7062  0.7081
  529SOL    MW4 2171   0.519   4.264   1.140  0.2640 -0.0038  0.3140
  530SOL     OW 2172   0.742   4.401   1.224  0.2342  0.1748  0.2108
  530SOL    HW2 2173   0.745   4.374   1.316 -1.0284 -1.6194 -0.2547
  530SOL    HW3 2174   0.813   4.351   1.183  0.3194  0.4133  0.0690
  530SOL    MW4 2175   0.752   4.391   1.231  0.0788 -0.0310  0.1307
  531SOL     OW 2176   1.192   4.655   1.130 -0.4873  0.2214 -0.2779
  531SOL    HW2 2177   1.191   4.567   1.167 -1.2219  0.4867  0.3585
  531SOL    HW3 2178   1.196   4.641   1.035 -2.6535 -0.5471 -0.2997
  531SOL    MW4 2179   1.192   4.642   1.122 -0.8700  0.1545 -0.1968
  532SOL     OW 2180   0.941   0.123   1.196  0.0433 -0.0936  0.4409
  532SOL    HW2 2181   0.950   0.110   1.290  1.4952  2.2142  0.6641
  532SOL    HW3 2182   1.021   0.086   1.159  0.5934  1.1258  0.3710
  532SOL    MW4 2183   0.953   0.116   1.204  0.3075  0.3717  0.4611
  533SOL     OW 2184   0.921   0.389   1.088  0.2888 -0.5538 -0.1065
  533SOL    HW2 2185   0.941   0.303   1.125  0.3484 -0.7575 -0.5995
  533SOL    HW3 2186   0.844   0.419   1.135 -0.2792 -1.2835 -0.5618
  533SOL    MW4 2187   0.913   0.382   1.099  0.2217 -0.6769 -0.2316
  534SOL     OW 2188   1.150   0.519   1.188 -0.2013  0.2030  0.3842
  534SOL    HW2 2189   1.140   0.511   1.283  2.3379  0.2591  0.6794
  534SOL    HW3 2190   1.073   0.474   1.152 -0.3821 -1.1836  2.4480
  534SOL    MW4 2191   1.138   0.512   1.196  0.1099  0.0275  0.6955
  535SOL     OW 2192   1.177   0.791   1.146  0.2625  0.1321  0.1677
  535SOL    HW2 2193   1.088   0.812   1.174 -0.0436  1.9416 -2.0070
  535SOL    HW3 2194   1.179   0.696   1.140 -0.8454 -0.0532  2.3366
  535SOL    MW4 2195   1.166   0.781   1.149  0.0759  0.3464  0.1671
  536SOL     OW 2196   0.925   0.902   1.208  0.5320  0.1182  0.0624
  536SOL    HW2 2197   0.910   0.992   1.177  1.4584  0.8565  1.6883
  536SOL    HW3 2198   0.851   0.852   1.172  0.3817  1.3734 -1.4419
  536SOL    MW4 2199   0.913   0.907   1.199  0.6344  0.3812  0.0784
  537SOL     OW 2200   0.907   1.176   1.110  0.1956 -0.2245  0.0995
  537SOL    HW2 2201   0.972   1.244   1.130  0.9848 -1.0787  0.5143
  537SOL    HW3 2202   0.899   1.177   1.015  2.4981 -1.5854 -0.1692
  537SOL    MW4 2203   0.915   1.185   1.100  0.6035 -0.5169  0.1189
  538SOL     OW 2204   1.128   1.325   1.178 -0.1581 -0.3207 -0.3438
  538SOL    HW2 2205   1.137   1.322   1.273 -0.8006 -0.4717 -0.2850
  538SOL    HW3 2206   1.199   1.271   1.145 -0.9374 -1.6271  0.1092
  538SOL    MW4 2207   1.138   1.318   1.186 -0.3458 -0.5131 -0.2763
  539SOL     OW 2208   1.145   1.559   1.060  0.4498 -0.0019  0.3203
  539SOL    HW2 2209   1.138   1.475   1.104  1.1357  0.0776  0.5787
  539SOL    HW3 2210   1.150   1.537   0.967 -0.7436 -0.1774  0.2778
  539SOL    MW4 2211   1.144   1.545   1.053  0.3829 -0.0145  0.3489
  540SOL     OW 2212   0.923   1.674   1.184 -0.1934 -0.3982  0.3654
  540SOL    HW2 2213   0.920   1.764   1.154  0.0122  0.1192  1.8734
  540SOL    HW3 2214   1.003   1.638   1.146  1.1104  0.8294  1.8683
  540SOL    MW4 2215   0.933   1.681   1.175  0.0057 -0.1680  0.7627
  541SOL     OW 2216   0.943   1.940   1.098 -0.3214 -0.0682  0.2228
  541SOL    HW2 2217   1.020   1.965   1.149  0.2938 -1.5602  0.0307
  541SOL    HW3 2218   0.869   1.977   1.147  0.3944  0.0472  1.2284
  541SOL    MW4 2219   0.943   1.948   1.111 -0.1458 -0.2497  0.3301
  542SOL     OW 2220   1.167   2.022   1.261 -0.2890 -0.0794  0.2434
  542SOL    HW2 2221   1.157   2.015   1.356 -0.8730  0.5377  0.2309
  542SOL    HW3 2222   1.153   2.115   1.242  2.5576  0.3080 -0.1389
  542SOL    MW4 2223   1.163   2.033   1.271  0.0094  0.0532  0.1913
  543SOL     OW 2224   1.137   2.292   1.147 -0.0899 -0.0803  0.7011
  543SOL    HW2 2225   1.214   2.347   1.157 -0.0794 -0.0401  0.4055
  543SOL    HW3 2226   1.064   2.346   1.176 -0.1106  0.1780  0.1805
  543SOL    MW4 2227   1.137   2.306   1.152 -0.0911 -0.0408  0.5932
  544SOL     OW 2228   0.909   2.444   1.248  0.0926  0.0205  0.1544
  544SOL    HW2 2229   0.901   2.411   1.338  0.8586 -2.5861 -0.6797
  544SOL    HW3 2230   0.837   2.401   1.201  1.5628 -1.0704 -1.1256
  544SOL    MW4 2231   0.898   2.434   1.254  0.3877 -0.4678 -0.1246
  545SOL     OW 2232   0.914   2.704   1.163  0.1839 -0.3717 -0.0266
  545SOL    HW2 2233   0.914   2.614   1.195 -1.5893 -0.8736 -1.3626
  545SOL    HW3 2234   0.828   2.739   1.188  1.2898  1.3482  1.5014
  545SOL    MW4 2235   0.903   2.696   1.170  0.0958 -0.2108 -0.0012
  546SOL     OW 2236   1.143   2.835   1.254 -0.0802 -0.2402  0.0074
  546SOL    HW2 2237   1.147   2.830   1.350 -0.8446 -0.3282  0.0376
  546SOL    HW3 2238   1.057   2.799   1.232  0.2794 -0.6332 -0.7461
  546SOL    MW4 2239   1.132   2.830   1.264 -0.1336 -0.3037 -0.0881
  547SOL     OW 2240   1.121   3.100   1.178  0.1959  0.1815 -0.2165
  547SOL    HW2 2241   1.134   3.010   1.210  3.6817  0.6404 -0.2501
  547SOL    HW3 2242   1.120   3.092   1.083 -1.4492 -0.0180 -0.2114
  547SOL    MW4 2243   1.122   3.087   1.170  0.4388  0.2158 -0.2203
  548SOL     OW 2244   0.867   3.221   1.207  0.4707 -0.2383 -0.0416
  548SOL    HW2 2245   0.889   3.310   1.177  0.3273 -0.2094 -0.0589
  548SOL    HW3 2246   0.945   3.169   1.186  0.7324 -0.0192  0.3810
  548SOL    MW4 2247   0.880   3.226   1.200  0.4863 -0.2055  0.0119
  549SOL     OW 2248   0.922   3.488   1.148  0.2194 -0.6684 -0.0001
  549SOL    HW2 2249   0.843   3.526   1.186  0.6817  0.6419 -0.3214
  549SOL    HW3 2250   0.907   3.490   1.053  0.9127  0.1887 -0.0910
  549SOL    MW4 2251   0.909   3.493   1.140  0.3719 -0.3822 -0.0545
  550SOL     OW 2252   1.134   3.605   1.254 -0.1588  0.0573  0.0618
  550SOL    HW2 2253   1.216   3.556   1.252 -0.1087  0.1234  0.4001
  550SOL    HW3 2254   1.067   3.542   1.227 -0.0223 -0.0526 -0.0171
  550SOL    MW4 2255   1.136   3.590   1.250 -0.1343  0.0515  0.0961
  551SOL     OW 2256   1.196   3.855   1.190  0.0901 -0.3092  0.3132
  551SOL    HW2 2257   1.121   3.904   1.224 -0.5972 -0.1861 -1.3722
  551SOL    HW3 2258   1.172   3.763   1.201 -0.1849 -0.2689  0.0567
  551SOL    MW4 2259   1.183   3.850   1.196 -0.0370 -0.2878  0.0570
  552SOL     OW 2260   0.981   4.002   1.261 -0.7448  0.4390 -0.0888
  552SOL    HW2 2261   0.966   4.019   1.354  1.0980  0.3085  0.2524
  552SOL    HW3 2262   0.897   3.968   1.230 -1.2694  0.1015  1.6068
  552SOL    MW4 2263   0.968   4.000   1.269 -0.5709  0.3774  0.1800
  553SOL     OW 2264   0.968   4.258   1.149  0.0085 -0.3623 -0.5866
  553SOL    HW2 2265   0.975   4.175   1.195  2.4575 -0.6224 -1.3570
  553SOL    HW3 2266   0.974   4.234   1.056 -1.7614  0.4612 -0.9433
  553SOL    MW4 2267   0.969   4.244   1.143  0.0981 -0.2880 -0.7354
  554SOL     OW 2268   1.190   4.384   1.234 -0.2400  0.2422 -0.3882
  554SOL    HW2 2269   1.180   4.390   1.328 -1.0485 -0.6036 -0.4121
  554SOL    HW3 2270   1.109   4.343   1.203 -0.6074  1.8384 -1.6098
  554SOL    MW4 2271   1.178   4.379   1.242 -0.3953  0.3409 -0.5527
  555SOL     OW 2272   1.598   4.659   1.148  0.0287  0.3236 -0.1401
  555SOL    HW2 2273   1.683   4.688   1.181  1.0809 -0.5804 -1.9528
  555SOL    HW3 2274   1.597   4.565   1.165 -0.0014  0.0936 -1.3875
  555SOL    MW4 2275   1.609   4.651   1.155  0.1636  0.1736 -0.5440
  556SOL     OW 2276   1.388   0.152   1.238 -0.2496  0.3382  0.0123
  556SOL    HW2 2277   1.466   0.107   1.206 -0.6458 -0.9927  0.8790
  556SOL    HW3 2278   1.316   0.093   1.216 -0.7040  0.2141  1.8190
  556SOL    MW4 2279   1.389   0.139   1.231 -0.3619  0.1462  0.3651
  557SOL     OW 2280   1.395   0.417   1.121  0.7642  0.0839  0.5248
  557SOL    HW2 2281   1.395   0.325   1.147  0.2519 -0.5766 -1.6608
  557SOL    HW3 2282   1.317   0.453   1.162  0.5682 -0.6338  0.7981
  557SOL    MW4 2283   1.385   0.410   1.130  0.6707 -0.0979  0.2725
  558SOL     OW 2284   1.626   0.515   1.243  0.2416 -0.4192 -0.6105
  558SOL    HW2 2285   1.646   0.604   1.214 -0.0394 -0.4119 -0.7766
  558SOL    HW3 2286   1.546   0.491   1.196 -0.1282 -0.4606  0.0348
  558SOL    MW4 2287   1.618   0.523   1.233  0.1558 -0.4236 -0.5473
  559SOL     OW 2288   1.606   0.762   1.082  0.0065  0.1720 -0.1535
  559SOL    HW2 2289   1.685   0.808   1.109 -0.1590  0.5992 -0.3875
  559SOL    HW3 2290   1.605   0.769   0.986 -1.7144  2.5288 -0.0139
  559SOL    MW4 2291   1.616   0.769   1.073 -0.2424  0.5393 -0.1659
  560SOL     OW 2292   1.415   0.917   1.230 -0.1074 -0.2815  0.4608
  560SOL    HW2 2293   1.483   0.862   1.189  0.6066  0.5545  0.5215
  560SOL    HW3 2294   1.333   0.882   1.195  0.4292 -0.3791 -0.7298
  560SOL    MW4 2295   1.414   0.905   1.220  0.0577 -0.1841  0.3117
  561SOL     OW 2296   1.336   1.168   1.080 -0.5362  0.1245 -0.3706
  561SOL    HW2 2297   1.351   1.085   1.127 -1.1127  0.1315 -0.1639
  561SOL    HW3 2298   1.333   1.143   0.988 -0.1839 -0.0086 -0.3462
  561SOL    MW4 2299   1.337   1.153   1.074 -0.5658  0.1079 -0.3400
  562SOL     OW 2300   1.575   1.267   1.214 -0.3732  0.3843  0.0511
  562SOL    HW2 2301   1.654   1.219   1.189  0.3833  1.8689 -0.4545
  562SOL    HW3 2302   1.507   1.232   1.156  0.1017 -0.3013 -0.0994
  562SOL    MW4 2303   1.577   1.256   1.203 -0.2109  0.4898 -0.0356
  563SOL     OW 2304   1.611   1.534   1.149  0.3788  0.4520 -0.0450
  563SOL    HW2 2305   1.675   1.575   1.207 -1.0009  1.7905  0.5566
  563SOL    HW3 2306   1.608   1.442   1.178  0.1733  0.9547  1.6038
  563SOL    MW4 2307   1.619   1.527   1.161  0.1698  0.6949  0.2520
  564SOL     OW 2308   1.368   1.685   1.171 -0.3734  0.1821 -0.0235
  564SOL    HW2 2309   1.435   1.620   1.154 -0.0372  0.4952  0.0987
  564SOL    HW3 2310   1.287   1.644   1.142 -0.3854 -0.8972  1.4496
  564SOL    MW4 2311   1.366   1.671   1.165 -0.3304  0.0812  0.1870
  565SOL     OW 2312   1.383   1.954   1.106 -0.1721 -0.1315 -0.5578
  565SOL    HW2 2313   1.308   1.977   1.160 -1.2755 -1.5173 -1.4605
  565SOL    HW3 2314   1.391   1.859   1.115  2.1625  0.1156  0.3915
  565SOL    MW4 2315   1.374   1.944   1.114 -0.0097 -0.2817 -0.5517
  566SOL     OW 2316   1.605   2.070   1.223 -0.2491 -0.2281 -0.4747
  566SOL    HW2 2317   1.609   2.158   1.186  1.1773 -0.5050 -1.0414
  566SOL    HW3 2318   1.522   2.034   1.193 -1.2777  1.2442  0.5311
  566SOL    MW4 2319   1.595   2.077   1.214 -0.1966 -0.0703 -0.4168
  567SOL     OW 2320   1.606   2.320   1.083  0.4188 -0.1763 -0.3582
  567SOL    HW2 2321   1.536   2.373   1.121  0.1724 -0.1457 -0.8467
  567SOL    HW3 2322   1.578   2.306   0.992  1.6588  0.9223 -0.9237
  567SOL    MW4 2323   1.593   2.325   1.076  0.5500 -0.0274 -0.4971
  568SOL     OW 2324   1.371   2.459   1.201 -0.1614 -0.0731  0.1047
  568SOL    HW2 2325   1.386   2.461   1.296  1.1661 -0.3278 -0.0836
  568SOL    HW3 2326   1.375   2.550   1.174 -1.1596  0.0543  0.3826
  568SOL    MW4 2327   1.374   2.471   1.210 -0.1181 -0.0896  0.1166
  569SOL     OW 2328   1.369   2.727   1.129 -0.5137 -0.0490  0.0335
  569SOL    HW2 2329   1.439   2.763   1.184 -0.0949 -1.7854  0.6806
  569SOL    HW3 2330   1.288   2.751   1.175 -0.3068  0.9341 -0.0934
  569SOL    MW4 2331   1.367   2.735   1.143 -0.4312 -0.1485  0.1022
  570SOL     OW 2332   1.591   2.833   1.247 -0.2573  0.2955 -0.5901
  570SOL    HW2 2333   1.674   2.794   1.219  0.4074  1.4183 -0.2105
  570SOL    HW3 2334   1.582   2.912   1.194 -1.9429 -0.7114 -1.8482
  570SOL    MW4 2335   1.600   2.838   1.237 -0.3920  0.3107 -0.7061
  571SOL     OW 2336   1.581   3.076   1.129  0.2099  0.1983  0.4257
  571SOL    HW2 2337   1.653   3.118   1.175  0.2970  1.6123 -0.9488
  571SOL    HW3 2338   1.502   3.109   1.172  0.3335  0.3021  0.5718
  571SOL    MW4 2339   1.580   3.086   1.141  0.2377  0.3986  0.2635
  572SOL     OW 2340   1.363   3.203   1.256 -0.0809 -0.3824  0.2528
  572SOL    HW2 2341   1.357   3.197   1.352  0.9808 -1.9598  0.2262
  572SOL    HW3 2342   1.273   3.187   1.226 -0.3624 -0.1683  0.9638
  572SOL    MW4 2343   1.350   3.200   1.265  0.0221 -0.5627  0.3431
  573SOL     OW 2344   1.375   3.473   1.193  1.0332 -0.0798 -0.0156
  573SOL    HW2 2345   1.372   3.379   1.213 -0.1360 -0.1874 -0.6720
  573SOL    HW3 2346   1.388   3.476   1.098 -0.1336  0.4254 -0.1583
  573SOL    MW4 2347   1.377   3.461   1.183  0.7250 -0.0274 -0.1210
  574SOL     OW 2348   1.577   3.640   1.246 -0.4625  0.0685  0.1294
  574SOL    HW2 2349   1.643   3.576   1.222 -0.3345 -0.3658  1.5693
  574SOL    HW3 2350   1.494   3.597   1.230 -0.3861  0.2840 -0.8292
  574SOL    MW4 2351   1.575   3.626   1.241 -0.4355  0.0396  0.1929
  575SOL     OW 2352   1.629   3.931   1.173  0.3706  0.5116 -0.5495
  575SOL    HW2 2353   1.561   3.975   1.224  1.5315  1.7766 -0.0828
  575SOL    HW3 2354   1.611   3.838   1.186  0.6654  0.8160  2.2061
  575SOL    MW4 2355   1.617   3.924   1.181  0.5627  0.7186 -0.1242
  576SOL     OW 2356   1.392   4.026   1.304 -0.4077 -0.3627 -0.2076
  576SOL    HW2 2357   1.402   4.105   1.251 -1.1149  0.2505  0.5523
  576SOL    HW3 2358   1.319   3.979   1.263 -0.6886 -0.0871 -0.0304
  576SOL    MW4 2359   1.384   4.030   1.292 -0.5382 -0.2456 -0.0839
  577SOL     OW 2360   1.400   4.240   1.132 -0.4283  0.2737  0.4370
  577SOL    HW2 2361   1.324   4.297   1.147 -0.7390 -0.2681  0.9090
  577SOL    HW3 2362   1.381   4.196   1.050  0.4940  1.9648 -0.7067
  577SOL    MW4 2363   1.387   4.242   1.124 -0.3477  0.4249  0.3483
  578SOL     OW 2364   1.630   4.370   1.216  0.4606  0.5753 -0.4464
  578SOL    HW2 2365   1.615   4.377   1.311 -0.8007  1.4043 -0.6983
  578SOL    HW3 2366   1.553   4.325   1.183  1.7639 -1.4182 -0.8546
  578SOL    MW4 2367   1.618   4.365   1.224  0.4662  0.4210 -0.5335
  579SOL     OW 2368   2.039   4.645   1.120 -0.0417 -0.2660  0.1765
  579SOL    HW2 2369   2.047   4.562   1.167  0.7121  0.1704  0.8295
  579SOL    HW3 2370   2.038   4.620   1.027  1.4927 -0.9128  0.3311
  579SOL    MW4 2371   2.040   4.631   1.114  0.2601 -0.2942  0.2830
  580SOL     OW 2372   1.858   0.103   1.268 -0.0452  0.3783  0.0086
  580SOL    HW2 2373   1.849   0.191   1.232 -0.5486  0.8601  1.2871
  580SOL    HW3 2374   1.932   0.065   1.221 -1.0543  0.7798 -1.9238
  580SOL    MW4 2375   1.867   0.110   1.257 -0.2447  0.4949 -0.0777
  581SOL     OW 2376   1.823   0.357   1.125  0.1413 -0.4185  0.2070
  581SOL    HW2 2377   1.754   0.413   1.160  0.8434 -0.0589  1.0150
  581SOL    HW3 2378   1.827   0.380   1.032  0.9991  1.5034  0.6875
  581SOL    MW4 2379   1.814   0.368   1.117  0.3471 -0.1175  0.3769
  582SOL     OW 2380   2.065   0.456   1.222  0.2827 -0.4667 -0.4601
  582SOL    HW2 2381   2.040   0.488   1.309  0.5105  0.9481 -0.8993
  582SOL    HW3 2382   1.985   0.417   1.187 -0.1783  0.1892 -0.1573
  582SOL    MW4 2383   2.051   0.455   1.229  0.2518 -0.1935 -0.4781
  583SOL     OW 2384   2.028   0.714   1.151 -0.4890  0.7905  0.0326
  583SOL    HW2 2385   2.045   0.622   1.170  0.2716  0.8844 -0.1957
  583SOL    HW3 2386   2.041   0.722   1.056  1.1349  1.4982  0.3018
  583SOL    MW4 2387   2.032   0.703   1.141 -0.1745  0.8963  0.0380
  584SOL     OW 2388   1.834   0.890   1.208 -0.1995 -0.0985 -0.3223
  584SOL    HW2 2389   1.822   0.910   1.300  1.0550  0.1504 -0.2035
  584SOL    HW3 2390   1.902   0.823   1.206  1.8754  1.9743 -1.2169
  584SOL    MW4 2391   1.841   0.883   1.220  0.2397  0.2078 -0.4246
  585SOL     OW 2392   1.795   1.140   1.118  0.3981 -0.6324 -0.3312
  585SOL    HW2 2393   1.781   1.135   1.023 -1.0719 -1.1592 -0.1092
  585SOL    HW3 2394   1.813   1.050   1.144  0.6971 -0.5045 -0.0997
  585SOL    MW4 2395   1.795   1.128   1.109  0.2435 -0.6850 -0.2714
  586SOL     OW 2396   2.043   1.277   1.215 -0.2110 -0.0662 -0.0357
  586SOL    HW2 2397   2.119   1.225   1.190 -0.0145 -0.1514  0.7350
  586SOL    HW3 2398   1.968   1.220   1.197 -0.0745 -0.1246 -0.4285
  586SOL    MW4 2399   2.043   1.263   1.209 -0.1671 -0.0852  0.0143
  587SOL     OW 2400   2.019   1.546   1.135  0.0330  0.2342  0.4454
  587SOL    HW2 2401   2.018   1.456   1.168  0.5437  0.7163  1.7995
  587SOL    HW3 2402   2.024   1.536   1.040 -0.1338 -1.1724  0.5700
  587SOL    MW4 2403   2.020   1.533   1.127  0.0787  0.1122  0.6406
  588SOL     OW 2404   1.836   1.673   1.304  0.4579 -0.0421 -0.1375
  588SOL    HW2 2405   1.825   1.756   1.258 -0.1138 -0.0735 -0.0696
  588SOL    HW3 2406   1.892   1.621   1.248 -0.8076 -0.3389 -1.1326
  588SOL    MW4 2407   1.842   1.677   1.291  0.2156 -0.0854 -0.2598
  589SOL     OW 2408   1.814   1.923   1.150  0.1969  0.1175 -0.5065
  589SOL    HW2 2409   1.736   1.971   1.179 -0.9114 -0.9404 -1.6564
  589SOL    HW3 2410   1.803   1.915   1.055  1.2974 -0.7641 -0.5678
  589SOL    MW4 2411   1.802   1.928   1.141  0.1959 -0.1385 -0.6663
  590SOL     OW 2412   2.047   2.053   1.243  0.6787 -0.1413 -0.1432
  590SOL    HW2 2413   2.035   2.048   1.338 -0.3203 -1.6767 -0.3344
  590SOL    HW3 2414   1.972   2.006   1.207  1.4679 -0.2538 -1.6776
  590SOL    MW4 2415   2.036   2.046   1.251  0.6511 -0.3588 -0.3707
  591SOL     OW 2416   2.014   2.287   1.115  0.5825 -0.0409  0.5470
  591SOL    HW2 2417   2.096   2.334   1.130  1.1140 -0.9742  0.6361
  591SOL    HW3 2418   2.017   2.214   1.176 -0.5134  0.1491  0.8337
  591SOL    MW4 2419   2.025   2.284   1.125  0.5081 -0.1388  0.5966
  592SOL     OW 2420   1.823   2.437   1.216 -0.0061  0.0190  0.2500
  592SOL    HW2 2421   1.886   2.383   1.169  0.2308  0.7312 -0.2528
  592SOL    HW3 2422   1.737   2.407   1.185  0.1090 -0.4807  0.4235
  592SOL    MW4 2423   1.820   2.426   1.206  0.0402  0.0470  0.2065
  593SOL     OW 2424   1.801   2.705   1.129  0.7329  0.2631 -0.1704
  593SOL    HW2 2425   1.820   2.611   1.134 -1.4115 -0.3107 -1.9114
  593SOL    HW3 2426   1.787   2.722   1.036 -1.0018  1.8647  0.3481
  593SOL    MW4 2427   1.802   2.695   1.118  0.2211  0.3989 -0.3316
  594SOL     OW 2428   1.985   2.852   1.268  0.6654  0.0318  0.3314
  594SOL    HW2 2429   1.987   2.943   1.237 -0.3412  0.1245  0.5243
  594SOL    HW3 2430   1.908   2.814   1.227  0.8533 -0.6281  0.5761
  594SOL    MW4 2431   1.975   2.859   1.258  0.5574 -0.0429  0.3891
  595SOL     OW 2432   2.019   3.104   1.151 -0.3446 -0.5386  0.0848
  595SOL    HW2 2433   1.933   3.147   1.156  0.2245  0.7665 -1.0453
  595SOL    HW3 2434   2.030   3.086   1.058 -0.1724 -2.3310  0.4516
  595SOL    MW4 2435   2.009   3.108   1.139 -0.2468 -0.6032 -0.0160
  596SOL     OW 2436   1.786   3.235   1.251  0.5728  0.2054  0.0824
  596SOL    HW2 2437   1.809   3.228   1.343  1.0831 -0.7205 -0.1140
  596SOL    HW3 2438   1.793   3.329   1.232  0.6722  0.3754  0.9226
  596SOL    MW4 2439   1.790   3.247   1.261  0.6531  0.1056  0.1674
  597SOL     OW 2440   1.806   3.480   1.153  0.1399 -0.0754  0.1865
  597SOL    HW2 2441   1.892   3.517   1.173 -0.5186  1.6891 -0.0946
  597SOL    HW3 2442   1.796   3.493   1.058 -0.4850 -0.1462  0.2434
  597SOL    MW4 2443   1.816   3.487   1.143 -0.0294  0.1481  0.1569
  598SOL     OW 2444   2.067   3.599   1.215 -0.2231 -0.1357  0.2560
  598SOL    HW2 2445   2.065   3.597   1.311  0.4504 -0.4725  0.2657
  598SOL    HW3 2446   2.144   3.547   1.192 -0.8230 -0.7001 -0.4890
  598SOL    MW4 2447   2.077   3.592   1.225 -0.2134 -0.2546  0.1590
  599SOL     OW 2448   2.100   3.861   1.117  0.1209 -0.2954 -0.1806
  599SOL    HW2 2449   2.027   3.916   1.143  0.8191  0.3908  0.3260
  599SOL    HW3 2450   2.077   3.773   1.148 -1.7008 -0.6207 -2.3269
  599SOL    MW4 2451   2.087   3.856   1.124 -0.0277 -0.2477 -0.3970
  600SOL     OW 2452   1.881   4.035   1.198 -0.1376  0.0915  0.0522
  600SOL    HW2 2453   1.894   4.049   1.292  0.1293  1.3665 -0.1590
  600SOL    HW3 2454   1.802   3.983   1.192  0.3156 -0.7280  1.0235
  600SOL    MW4 2455   1.872   4.030   1.210 -0.0426  0.1512  0.1523
  601SOL     OW 2456   1.871   4.281   1.087  0.2669  0.0341  0.2777
  601SOL    HW2 2457   1.874   4.186   1.099 -1.6607 -0.2032 -1.0057
  601SOL    HW3 2458   1.791   4.308   1.132  0.4136  0.9626 -0.0159
  601SOL    MW4 2459   1.861   4.272   1.095  0.0319  0.1254  0.0696
  602SOL     OW 2460   2.059   4.406   1.250 -0.4637 -0.0006 -0.1172
  602SOL    HW2 2461   2.044   4.381   1.341  1.6497 -2.3849 -0.3643
  602SOL    HW3 2462   1.996   4.355   1.200 -0.6599  0.2210 -0.0952
  602SOL    MW4 2463   2.049   4.396   1.255 -0.2105 -0.2861 -0.1470
  603SOL     OW 2464   2.486   4.628   1.163  0.1295  0.0582 -0.0850
  603SOL    HW2 2465   2.553   4.693   1.185 -0.3283  0.3693  0.4004
  603SOL    HW3 2466   2.410   4.652   1.216 -0.4550 -0.1395 -0.8184
  603SOL    MW4 2467   2.484   4.640   1.172 -0.0079  0.0725 -0.1177
  604SOL     OW 2468   2.246   0.095   1.250  0.1715  0.1774 -0.0754
  604SOL    HW2 2469   2.271   0.180   1.213  0.4233 -0.1027 -0.5619
  604SOL    HW3 2470   2.179   0.061   1.190 -0.7985  0.5648  0.7857
  604SOL    MW4 2471   2.241   0.102   1.237  0.0768  0.1915 -0.0260
  605SOL     OW 2472   2.287   0.338   1.124 -0.0432 -0.1408  0.2823
  605SOL    HW2 2473   2.211   0.389   1.151  0.3688  0.3272  0.5571
  605SOL    HW3 2474   2.281   0.334   1.028 -0.3837 -0.0670  0.3005
  605SOL    MW4 2475   2.276   0.344   1.115 -0.0336 -0.0693  0.3209
  606SOL     OW 2476   2.486   0.518   1.275  0.3519 -0.4026 -0.4030
  606SOL    HW2 2477   2.479   0.524   1.370 -0.7189 -0.7768 -0.4564
  606SOL    HW3 2478   2.418   0.456   1.250 -0.5042  0.9877 -1.5711
  606SOL    MW4 2479   2.476   0.511   1.284  0.0978 -0.2686 -0.5641
  607SOL     OW 2480   2.485   0.784   1.179  0.2473  0.1664 -0.1926
  607SOL    HW2 2481   2.480   0.693   1.209  0.3997  0.0726 -0.4473
  607SOL    HW3 2482   2.484   0.777   1.084 -0.0746  0.4514 -0.2114
  607SOL    MW4 2483   2.484   0.771   1.170  0.2251  0.1916 -0.2286
  608SOL     OW 2484   2.222   0.859   1.272 -0.5821 -0.2448 -0.3311
  608SOL    HW2 2485   2.309   0.830   1.244 -1.3927 -1.5748 -1.5839
  608SOL    HW3 2486   2.164   0.789   1.242 -2.0613  0.5264  0.6921
  608SOL    MW4 2487   2.226   0.846   1.265 -0.8841 -0.3185 -0.3613
  609SOL     OW 2488   2.254   1.112   1.139  0.0255 -0.3643  0.1077
  609SOL    HW2 2489   2.335   1.156   1.166 -0.9797  0.5147  1.7509
  609SOL    HW3 2490   2.259   1.025   1.179  0.0742 -0.2410  0.3712
  609SOL    MW4 2491   2.265   1.107   1.148 -0.1006 -0.2321  0.3593
  610SOL     OW 2492   2.479   1.241   1.219 -0.0197  0.4443  0.2618
  610SOL    HW2 2493   2.561   1.200   1.193 -0.4179 -0.3920  0.3158
  610SOL    HW3 2494   2.488   1.333   1.192  0.3637  0.0330 -1.0117
  610SOL    MW4 2495   2.491   1.248   1.212 -0.0217  0.2797  0.1010
  611SOL     OW 2496   2.483   1.519   1.138  0.2906  0.0343 -0.7191
  611SOL    HW2 2497   2.410   1.570   1.175  0.1147 -1.2278  0.7612
  611SOL    HW3 2498   2.482   1.539   1.045 -1.0115  1.1906 -0.4783
  611SOL    MW4 2499   2.473   1.529   1.131  0.0954  0.0203 -0.4920
  612SOL     OW 2500   2.264   1.670   1.221  0.1192  0.0923  0.3539
  612SOL    HW2 2501   2.264   1.757   1.181 -0.6602 -0.0595  0.0130
  612SOL    HW3 2502   2.186   1.627   1.186  1.5229 -1.4325 -0.9378
  612SOL    MW4 2503   2.254   1.676   1.211  0.2019 -0.1287  0.1384
  613SOL     OW 2504   2.271   1.931   1.136  0.4051 -0.2831 -0.5964
  613SOL    HW2 2505   2.195   1.964   1.183  1.4797 -0.0218  0.9789
  613SOL    HW3 2506   2.248   1.942   1.043 -1.1352  0.5361 -0.1347
  613SOL    MW4 2507   2.258   1.937   1.130  0.3433 -0.1405 -0.3276
  614SOL     OW 2508   2.487   2.070   1.231 -0.1386  0.0855 -0.0284
  614SOL    HW2 2509   2.554   2.019   1.185 -0.1189  0.6046 -0.5722
  614SOL    HW3 2510   2.404   2.032   1.203 -0.0718 -0.7417  0.8610
  614SOL    MW4 2511   2.485   2.058   1.221 -0.1273  0.0448  0.0173
  615SOL     OW 2512   2.450   2.321   1.111 -0.3966 -0.3558 -0.1876
  615SOL    HW2 2513   2.449   2.231   1.143  1.4155 -0.7752 -1.2253
  615SOL    HW3 2514   2.458   2.312   1.016  0.1307  0.9153 -0.2676
  615SOL    MW4 2515   2.451   2.308   1.102 -0.0880 -0.2437 -0.3352
  616SOL     OW 2516   2.230   2.466   1.190 -0.0882 -0.1304  0.2093
  616SOL    HW2 2517   2.228   2.482   1.284 -1.7589 -0.3859  0.2319
  616SOL    HW3 2518   2.310   2.416   1.176  1.3816  1.8806  1.1663
  616SOL    MW4 2519   2.240   2.462   1.201 -0.1144  0.1013  0.3386
  617SOL     OW 2520   2.161   2.729   1.092  0.3096  0.0603  0.7291
  617SOL    HW2 2521   2.180   2.642   1.127 -0.9953 -0.6500 -0.2673
  617SOL    HW3 2522   2.094   2.764   1.151 -0.4045 -0.3110  0.1472
  617SOL    MW4 2523   2.155   2.722   1.104  0.0432 -0.0825  0.5209
  618SOL     OW 2524   2.412   2.766   1.209  0.2411 -0.4560  0.0697
  618SOL    HW2 2525   2.403   2.774   1.303  1.4126 -2.1832  0.3625
  618SOL    HW3 2526   2.322   2.765   1.176 -0.1770 -0.0840  1.1920
  618SOL    MW4 2527   2.399   2.767   1.217  0.3407 -0.6349  0.2564
  619SOL     OW 2528   2.449   3.026   1.145 -0.0556 -0.0054  0.1119
  619SOL    HW2 2529   2.373   3.078   1.172  0.2876  0.4728  0.1758
  619SOL    HW3 2530   2.442   2.945   1.195  0.5133  0.8289  1.5820
  619SOL    MW4 2531   2.438   3.022   1.155  0.0646  0.1676  0.3142
  620SOL     OW 2532   2.261   3.211   1.249 -0.0349  0.6577  0.5077
  620SOL    HW2 2533   2.275   3.301   1.218 -1.0272  0.2125 -1.3346
  620SOL    HW3 2534   2.174   3.188   1.217  0.1266 -0.9035  1.1317
  620SOL    MW4 2535   2.251   3.220   1.241 -0.1442  0.3932  0.3470
  621SOL     OW 2536   2.303   3.475   1.153 -0.3887  0.0931  0.2415
  621SOL    HW2 2537   2.383   3.518   1.181  1.5570 -3.1222 -0.1231
  621SOL    HW3 2538   2.298   3.490   1.059 -0.3259  0.4845  0.3031
  621SOL    MW4 2539   2.313   3.482   1.144 -0.1237 -0.2794  0.2015
  622SOL     OW 2540   2.536   3.580   1.210  0.4338 -0.1114 -0.1878
  622SOL    HW2 2541   2.527   3.600   1.303 -0.4869  0.0594 -0.3108
  622SOL    HW3 2542   2.533   3.665   1.166  2.9466  0.0020 -0.2378
  622SOL    MW4 2543   2.535   3.594   1.216  0.6437 -0.0741 -0.2106
  623SOL     OW 2544   2.512   3.854   1.129  0.2786  0.1480 -0.7534
  623SOL    HW2 2545   2.452   3.910   1.177  0.4659  0.3716 -0.7771
  623SOL    HW3 2546   2.492   3.870   1.037 -0.3492 -0.5766 -0.7492
  623SOL    MW4 2547   2.502   3.864   1.123  0.2203  0.0820 -0.7560
  624SOL     OW 2548   2.315   3.998   1.245 -0.1476  0.5188 -0.2127
  624SOL    HW2 2549   2.316   4.073   1.186  0.4968  0.9953  0.4082
  624SOL    HW3 2550   2.249   3.939   1.207 -2.0476  2.2427  0.3502
  624SOL    MW4 2551   2.306   4.000   1.232 -0.3133  0.8092 -0.0565
  625SOL     OW 2552   2.278   4.261   1.101 -0.2469  0.2842 -0.3450
  625SOL    HW2 2553   2.205   4.298   1.151 -1.2080 -0.0993 -1.4447
  625SOL    HW3 2554   2.244   4.253   1.011  0.9112 -0.5570 -0.7156
  625SOL    MW4 2555   2.264   4.265   1.096 -0.2208  0.1230 -0.5391
  626SOL     OW 2556   2.478   4.352   1.256  0.8216  0.1492 -0.2553
  626SOL    HW2 2557   2.426   4.303   1.193  0.0373 -0.0444  0.5412
  626SOL    HW3 2558   2.467   4.444   1.230  1.1443  0.0196 -0.8750
  626SOL    MW4 2559   2.470   4.358   1.244  0.7606  0.1068 -0.2321
  627SOL     OW 2560   2.910   0.039   1.144 -0.5476 -0.8586  0.0086
  627SOL    HW2 2561   2.913  -0.049   1.180  1.8678 -0.8103 -0.0210
  627SOL    HW3 2562   2.916   0.027   1.049  1.8645 -0.5946  0.1049
  627SOL    MW4 2563   2.911   0.026   1.136  0.0894 -0.8173  0.0172
  628SOL     OW 2564   2.679   0.124   1.228  0.3429 -0.5696 -0.5002
  628SOL    HW2 2565   2.692   0.139   1.322 -0.5763  1.6616 -0.6949
  628SOL    HW3 2566   2.763   0.089   1.197  1.8152  1.9044  0.5271
  628SOL    MW4 2567   2.692   0.121   1.236  0.4160  0.0512 -0.3904
  629SOL     OW 2568   2.673   0.386   1.131  0.2895 -0.0302 -0.0898
  629SOL    HW2 2569   2.670   0.296   1.162 -0.2070 -0.2435 -0.7427
  629SOL    HW3 2570   2.596   0.427   1.171  0.6408  0.1651  0.3891
  629SOL    MW4 2571   2.662   0.380   1.141  0.2704 -0.0326 -0.1128
  630SOL     OW 2572   2.930   0.485   1.264 -0.0275  0.1947 -0.1693
  630SOL    HW2 2573   2.953   0.568   1.221  0.7752 -0.8530 -1.8124
  630SOL    HW3 2574   2.855   0.452   1.214  0.1484 -0.4444 -0.0125
  630SOL    MW4 2575   2.923   0.492   1.252  0.1018 -0.0279 -0.3654
  631SOL     OW 2576   2.964   0.733   1.135  0.3159  0.6268  0.1770
  631SOL    HW2 2577   3.039   0.785   1.165  0.1334 -0.5647  2.7684
  631SOL    HW3 2578   2.888   0.777   1.171 -0.0502  0.3612 -0.2738
  631SOL    MW4 2579   2.964   0.745   1.143  0.2434  0.4346  0.4593
  632SOL     OW 2580   2.746   0.860   1.239 -0.2336  0.3433  0.3805
  632SOL    HW2 2581   2.735   0.945   1.196 -0.5435  0.3247  0.4166
  632SOL    HW3 2582   2.662   0.816   1.226  0.2947 -0.3932 -0.5737
  632SOL    MW4 2583   2.733   0.865   1.231 -0.2050  0.2436  0.2595
  633SOL     OW 2584   2.704   1.123   1.120  0.1778 -0.3480 -0.2333
  633SOL    HW2 2585   2.716   1.141   1.027 -1.2980  0.5201 -0.2758
  633SOL    HW3 2586   2.781   1.160   1.162 -0.0271  0.8983 -0.9258
  633SOL    MW4 2587   2.716   1.130   1.113 -0.0436 -0.0691 -0.3302
  634SOL     OW 2588   2.919   1.253   1.223 -0.1422 -0.1051 -0.1272
  634SOL    HW2 2589   2.927   1.268   1.317  0.1500  0.2260 -0.2054
  634SOL    HW3 2590   2.908   1.340   1.185 -0.2707 -0.2387 -0.4001
  634SOL    MW4 2591   2.919   1.266   1.230 -0.1209 -0.0790 -0.1734
  635SOL     OW 2592   2.912   1.497   1.094  0.4771 -0.0101 -0.2232
  635SOL    HW2 2593   2.990   1.550   1.108 -0.0566  0.5538  0.6425
  635SOL    HW3 2594   2.892   1.508   1.001 -0.1754  2.0868  0.1396
  635SOL    MW4 2595   2.920   1.506   1.083  0.3204  0.3409 -0.0612
  636SOL     OW 2596   2.729   1.668   1.198 -0.0370  0.0987 -0.0079
  636SOL    HW2 2597   2.799   1.616   1.159  1.6767  0.2128  2.7899
  636SOL    HW3 2598   2.649   1.617   1.182  1.0744 -1.4457 -0.7073
  636SOL    MW4 2599   2.728   1.654   1.191  0.3357 -0.0900  0.2688
  637SOL     OW 2600   2.686   1.919   1.101  0.2164  0.5973 -0.5075
  637SOL    HW2 2601   2.768   1.967   1.115 -0.0075  0.8014  0.0951
  637SOL    HW3 2602   2.708   1.828   1.122  0.9064  0.2411 -2.5970
  637SOL    MW4 2603   2.700   1.913   1.106  0.2780  0.5773 -0.7037
  638SOL     OW 2604   2.935   2.044   1.153 -0.0024  0.3974 -0.0881
  638SOL    HW2 2605   2.933   2.044   1.249 -0.9111 -1.0724 -0.0882
  638SOL    HW3 2606   2.938   2.136   1.129 -2.2645  0.8750  1.3293
  638SOL    MW4 2607   2.935   2.056   1.163 -0.4206  0.2666  0.0988
  639SOL     OW 2608   2.908   2.303   1.080 -0.5892 -0.1859  0.1045
  639SOL    HW2 2609   2.985   2.341   1.123 -0.4349 -1.6833  1.1879
  639SOL    HW3 2610   2.834   2.329   1.135 -0.5491 -0.9401  0.5237
  639SOL    MW4 2611   2.908   2.311   1.093 -0.5636 -0.4830  0.3027
  640SOL     OW 2612   2.685   2.406   1.234 -0.1272  0.4340 -0.1827
  640SOL    HW2 2613   2.671   2.423   1.327  0.3210  0.8386 -0.1893
  640SOL    HW3 2614   2.604   2.364   1.205 -0.4393  0.7036  0.2918
  640SOL    MW4 2615   2.672   2.403   1.242 -0.1092  0.5231 -0.1210
  641SOL     OW 2616   2.649   2.647   1.101 -0.0961 -0.1673 -0.2629
  641SOL    HW2 2617   2.659   2.561   1.142  1.4824  0.0452 -0.1788
  641SOL    HW3 2618   2.566   2.680   1.136  0.1306 -0.9226  1.0345
  641SOL    MW4 2619   2.639   2.640   1.111  0.1421 -0.2389 -0.0806
  642SOL     OW 2620   2.883   2.813   1.215  0.4690 -0.5696 -0.3431
  642SOL    HW2 2621   2.872   2.827   1.309 -0.1551  0.6886 -0.5883
  642SOL    HW3 2622   2.811   2.754   1.191 -0.0071 -0.0475 -0.2117
  642SOL    MW4 2623   2.872   2.807   1.224  0.3240 -0.3347 -0.3582
  643SOL     OW 2624   2.906   3.079   1.117 -0.6139  0.0336  0.1655
  643SOL    HW2 2625   2.910   2.995   1.162 -0.7610 -0.2368 -0.3218
  643SOL    HW3 2626   2.902   3.057   1.024 -1.1312  0.5668  0.0541
  643SOL    MW4 2627   2.906   3.065   1.111 -0.7017  0.0682  0.0865
  644SOL     OW 2628   2.671   3.150   1.243  0.2923  0.2252 -0.2275
  644SOL    HW2 2629   2.739   3.114   1.187  0.3378 -0.8618  0.5146
  644SOL    HW3 2630   2.590   3.109   1.212  0.0637  0.9813 -0.6509
  644SOL    MW4 2631   2.669   3.140   1.231  0.2680  0.1817 -0.1855
  645SOL     OW 2632   2.733   3.404   1.127 -0.1221 -0.3814  0.1926
  645SOL    HW2 2633   2.711   3.317   1.161 -0.4617 -0.8339 -1.1483
  645SOL    HW3 2634   2.665   3.461   1.164 -1.9847 -1.3060 -1.7096
  645SOL    MW4 2635   2.721   3.400   1.137 -0.4125 -0.5634 -0.2353
  646SOL     OW 2636   2.954   3.562   1.220  0.3602 -0.2566 -0.3280
  646SOL    HW2 2637   3.037   3.529   1.186  0.1228  0.1778 -1.3632
  646SOL    HW3 2638   2.888   3.502   1.185  0.3703 -1.5821  1.8485
  646SOL    MW4 2639   2.956   3.550   1.211  0.3300 -0.3741 -0.1775
  647SOL     OW 2640   2.905   3.823   1.125 -0.8167 -0.1010 -0.0226
  647SOL    HW2 2641   2.981   3.876   1.147 -1.4547  0.4069  1.0162
  647SOL    HW3 2642   2.919   3.741   1.173  0.8115 -1.4376 -2.6534
  647SOL    MW4 2643   2.917   3.819   1.134 -0.6859 -0.2105 -0.2328
  648SOL     OW 2644   2.726   3.999   1.220 -0.5673 -0.0550 -0.5184
  648SOL    HW2 2645   2.797   3.942   1.191 -0.1764 -0.2700  0.8130
  648SOL    HW3 2646   2.647   3.959   1.184 -0.1071 -0.3862 -1.1593
  648SOL    MW4 2647   2.725   3.986   1.211 -0.4549 -0.1273 -0.4271
  649SOL     OW 2648   2.749   4.318   1.144 -0.1401  0.5490  0.0573
  649SOL    HW2 2649   2.766   4.229   1.174  1.5448  1.8569  3.2122
  649SOL    HW3 2650   2.659   4.336   1.172 -0.5779 -0.2169 -0.8270
  649SOL    MW4 2651   2.739   4.309   1.151  0.0246  0.6204  0.3568
  650SOL     OW 2652   2.947   4.469   1.265  0.0125 -0.1605  0.2888
  650SOL    HW2 2653   3.032   4.426   1.256  0.3299  0.1823  1.5520
  650SOL    HW3 2654   2.887   4.415   1.214  1.1230 -0.0141 -1.1756
  650SOL    MW4 2655   2.950   4.456   1.257  0.2010 -0.0958  0.2623
  651SOL     OW 2656   3.392   4.613   1.144 -0.0332 -0.0209 -0.2750
  651SOL    HW2 2657   3.466   4.667   1.170 -0.1182 -0.6362  1.2958
  651SOL    HW3 2658   3.315   4.661   1.175 -0.2437  0.0804 -0.9374
  651SOL    MW4 2659   3.392   4.626   1.151 -0.0720 -0.0882 -0.1552
  652SOL     OW 2660   3.169   0.110   1.270 -0.0885  0.1983  0.5691
  652SOL    HW2 2661   3.154   0.128   1.363  0.1778 -0.9273  0.8310
  652SOL    HW3 2662   3.085   0.077   1.239  0.3243 -1.1031  0.8207
  652SOL    MW4 2663   3.156   0.108   1.279  0.0010 -0.1219  0.6368
  653SOL     OW 2664   3.155   0.356   1.148 -0.1671  0.3558  0.1701
  653SOL    HW2 2665   3.157   0.265   1.178 -0.3306 -0.1579 -1.3435
  653SOL    HW3 2666   3.070   0.388   1.177 -0.5507 -0.3035 -0.1957
  653SOL    MW4 2667   3.144   0.348   1.156 -0.2394  0.2010 -0.0780
  654SOL     OW 2668   3.360   0.482   1.277  0.0276 -0.2437 -0.5290
  654SOL    HW2 2669   3.375   0.562   1.227 -0.0375  0.5360  0.6742
  654SOL    HW3 2670   3.281   0.444   1.239 -0.6332  0.9001 -0.3396
  654SOL    MW4 2671   3.352   0.488   1.265 -0.0679  0.0101 -0.3453
  655SOL     OW 2672   3.404   0.711   1.119 -0.0828 -0.6157 -0.3034
  655SOL    HW2 2673   3.325   0.754   1.150  0.3838  0.5479 -0.7208
  655SOL    HW3 2674   3.398   0.716   1.023  1.5250  1.3713 -0.3195
  655SOL    MW4 2675   3.393   0.717   1.110  0.1910 -0.2001 -0.3606
  656SOL     OW 2676   3.195   0.852   1.216  0.0815  0.0759 -0.3057
  656SOL    HW2 2677   3.186   0.886   1.304 -1.7837  0.0022 -0.4555
  656SOL    HW3 2678   3.175   0.926   1.159  2.1722  0.3742 -0.7013
  656SOL    MW4 2679   3.191   0.866   1.220  0.1109  0.1056 -0.3775
  657SOL     OW 2680   3.139   1.105   1.107 -0.0987  0.0313 -0.0711
  657SOL    HW2 2681   3.208   1.151   1.155  0.5588  0.6454 -1.5967
  657SOL    HW3 2682   3.057   1.142   1.142  0.3883  1.2394 -0.1751
  657SOL    MW4 2683   3.137   1.116   1.118  0.0520  0.2718 -0.2861
  658SOL     OW 2684   3.347   1.266   1.227  0.2393 -0.0637 -0.0370
  658SOL    HW2 2685   3.348   1.290   1.320  1.9288  0.7466 -0.2349
  658SOL    HW3 2686   3.349   1.350   1.181 -0.2308 -0.4701 -0.8125
  658SOL    MW4 2687   3.347   1.281   1.233  0.4001 -0.0104 -0.1653
  659SOL     OW 2688   3.378   1.501   1.096 -0.4869  0.0688 -0.4228
  659SOL    HW2 2689   3.448   1.560   1.126 -0.1905 -1.2661  1.6225
  659SOL    HW3 2690   3.297   1.541   1.127 -0.4777  0.6045 -1.0847
  659SOL    MW4 2691   3.377   1.514   1.104 -0.4466 -0.0366 -0.2403
  660SOL     OW 2692   3.147   1.636   1.173  0.6441 -0.0675 -0.0125
  660SOL    HW2 2693   3.129   1.630   1.267 -0.3709 -1.2541 -0.2620
  660SOL    HW3 2694   3.174   1.727   1.159 -0.4448  0.4602  1.2187
  660SOL    MW4 2695   3.148   1.647   1.184  0.3667 -0.1545  0.1169
  661SOL     OW 2696   3.156   1.900   1.068 -0.0057 -0.1677 -0.3451
  661SOL    HW2 2697   3.222   1.963   1.095  1.2188 -2.0449  1.1184
  661SOL    HW3 2698   3.075   1.932   1.108  0.6121  0.4640  0.4230
  661SOL    MW4 2699   3.154   1.912   1.077  0.2377 -0.3320 -0.0507
  662SOL     OW 2700   3.366   2.080   1.149 -0.3928 -0.3037  0.0060
  662SOL    HW2 2701   3.440   2.025   1.120  0.4263 -0.1604  1.7557
  662SOL    HW3 2702   3.372   2.159   1.095  0.3939 -0.5429 -0.2613
  662SOL    MW4 2703   3.377   2.083   1.138 -0.1807 -0.3164  0.2017
  663SOL     OW 2704   3.368   2.335   1.029 -0.8846 -0.0302 -0.6209
  663SOL    HW2 2705   3.446   2.355   1.082 -0.6158  0.9607 -1.3666
  663SOL    HW3 2706   3.295   2.365   1.082 -0.6906 -0.0945 -0.3152
  663SOL    MW4 2707   3.369   2.342   1.043 -0.8235  0.0920 -0.6788
  664SOL     OW 2708   3.144   2.433   1.181 -0.4207  0.2876 -0.4081
  664SOL    HW2 2709   3.149   2.424   1.276 -1.5514 -0.7265 -0.4378
  664SOL    HW3 2710   3.159   2.526   1.165  0.5635  0.3226  0.7072
  664SOL    MW4 2711   3.146   2.444   1.191 -0.4399  0.1585 -0.2649
  665SOL     OW 2712   3.116   2.700   1.113  0.0761  0.0575  0.2979
  665SOL    HW2 2713   3.036   2.743   1.145 -1.1154 -2.3848  0.7093
  665SOL    HW3 2714   3.113   2.714   1.018 -0.1271  1.1517  0.4580
  665SOL    MW4 2715   3.105   2.708   1.105 -0.1078 -0.1204  0.3734
  666SOL     OW 2716   3.354   2.835   1.198 -0.3826 -0.0959 -0.3171
  666SOL    HW2 2717   3.356   2.916   1.146  0.3940  0.4339  0.5222
  666SOL    HW3 2718   3.270   2.795   1.177 -0.3901  0.4714 -1.4353
  666SOL    MW4 2719   3.343   2.840   1.188 -0.2811  0.0489 -0.3539
  667SOL     OW 2720   3.383   3.092   1.082  0.0904  0.2669  0.1569
  667SOL    HW2 2721   3.451   3.136   1.132  1.3021 -0.9180 -0.4305
  667SOL    HW3 2722   3.301   3.127   1.117  0.9867  1.5722  0.9827
  667SOL    MW4 2723   3.381   3.103   1.093  0.3686  0.2828  0.1885
  668SOL     OW 2724   3.170   3.202   1.201  0.0588  0.0110  0.0124
  668SOL    HW2 2725   3.170   3.292   1.169 -0.3940 -0.5401 -1.6171
  668SOL    HW3 2726   3.081   3.170   1.183 -0.0581 -0.4901  1.3954
  668SOL    MW4 2727   3.158   3.210   1.194 -0.0165 -0.1278 -0.0200
  669SOL     OW 2728   3.203   3.477   1.108  0.3106  0.2980  0.5753
  669SOL    HW2 2729   3.268   3.537   1.146  2.1417 -0.8930 -0.5950
  669SOL    HW3 2730   3.220   3.480   1.014 -0.8006 -0.6700  0.3400
  669SOL    MW4 2731   3.214   3.486   1.101  0.4055  0.0131  0.3899
  670SOL     OW 2732   3.399   3.641   1.220  0.6141 -0.1329 -0.1434
  670SOL    HW2 2733   3.381   3.629   1.313  1.2781  0.9460  0.1291
  670SOL    HW3 2734   3.474   3.585   1.203 -0.1195 -1.0975 -0.2606
  670SOL    MW4 2735   3.406   3.632   1.230  0.6049 -0.1175 -0.1228
  671SOL     OW 2736   3.356   3.889   1.124  0.0287  0.8422  0.3061
  671SOL    HW2 2737   3.357   3.803   1.165  1.3924  0.5579 -0.3088
  671SOL    HW3 2738   3.280   3.933   1.163 -0.9746 -0.7946  0.2641
  671SOL    MW4 2739   3.346   3.884   1.135  0.0763  0.5891  0.2195
  672SOL     OW 2740   3.100   3.990   1.224  0.0337  0.3869 -0.1160
  672SOL    HW2 2741   3.096   3.998   1.320  2.1077  1.2440 -0.0528
  672SOL    HW3 2742   3.112   4.081   1.194 -1.3000  0.2024 -1.2504
  672SOL    MW4 2743   3.101   4.003   1.233  0.1316  0.4754 -0.2574
  673SOL     OW 2744   3.128   4.276   1.120 -0.1318  0.2684 -0.1462
  673SOL    HW2 2745   3.218   4.297   1.146 -0.4081  0.1468  0.9699
  673SOL    HW3 2746   3.134   4.249   1.029  1.2228 -1.3797  0.4089
  673SOL    MW4 2747   3.140   4.275   1.112  0.0107  0.0348  0.0743
  674SOL     OW 2748   3.393   4.349   1.204  0.1316 -0.1504  0.3218
  674SOL    HW2 2749   3.474   4.316   1.163 -0.0748  0.3925 -0.5538
  674SOL    HW3 2750   3.396   4.444   1.188  0.2402  0.1364  1.9478
  674SOL    MW4 2751   3.404   4.357   1.196  0.1185 -0.0410  0.4207
  675SOL     OW 2752   3.837   4.655   1.177 -0.1811  0.2524  0.0440
  675SOL    HW2 2753   3.835   4.560   1.190  1.9442  0.0333 -1.0621
  675SOL    HW3 2754   3.834   4.667   1.082  0.1568  1.2828  0.1598
  675SOL    MW4 2755   3.836   4.644   1.167  0.1440  0.3595 -0.0867
  676SOL     OW 2756   3.597   0.094   1.255  0.0380  0.0151  0.4082
  676SOL    HW2 2757   3.592   0.184   1.221  0.6623 -0.1855 -0.2093
  676SOL    HW3 2758   3.681   0.061   1.224 -0.2267 -0.8142  0.5740
  676SOL    MW4 2759   3.607   0.102   1.247  0.0856 -0.1208  0.3487
  677SOL     OW 2760   3.558   0.353   1.142  0.0168 -0.2528  0.0980
  677SOL    HW2 2761   3.635   0.410   1.145  0.6491 -1.1561  1.0479
  677SOL    HW3 2762   3.493   0.398   1.197  0.8946 -0.9899  1.7705
  677SOL    MW4 2763   3.559   0.366   1.150  0.2160 -0.4693  0.4439
  678SOL     OW 2764   3.782   0.494   1.202  0.4211  0.1597 -0.0088
  678SOL    HW2 2765   3.865   0.457   1.170 -0.3963 -0.2216 -1.7310
  678SOL    HW3 2766   3.788   0.587   1.183  0.5839  0.1886  0.1771
  678SOL    MW4 2767   3.794   0.501   1.195  0.3347  0.1132 -0.2116
  679SOL     OW 2768   3.824   0.743   1.095 -0.2929 -0.0563 -0.0834
  679SOL    HW2 2769   3.905   0.771   1.138  0.0308 -0.9050 -0.1378
  679SOL    HW3 2770   3.755   0.788   1.144  0.0062 -1.7119  1.9515
  679SOL    MW4 2771   3.826   0.753   1.107 -0.2105 -0.3868  0.1779
  680SOL     OW 2772   3.608   0.860   1.219 -0.6461  0.3210 -0.8439
  680SOL    HW2 2773   3.598   0.952   1.193  0.5764  0.7845  0.2647
  680SOL    HW3 2774   3.536   0.815   1.174 -1.6477  1.9153 -0.9118
  680SOL    MW4 2775   3.597   0.866   1.210 -0.6166  0.5925 -0.7066
  681SOL     OW 2776   3.567   1.119   1.120 -0.3946 -0.1632  0.2861
  681SOL    HW2 2777   3.646   1.156   1.160 -0.5349 -0.6315  1.0169
  681SOL    HW3 2778   3.495   1.158   1.169 -0.5547 -1.1146  0.8182
  681SOL    MW4 2779   3.568   1.129   1.132 -0.4339 -0.3505  0.4526
  682SOL     OW 2780   3.802   1.224   1.242  0.5971  0.0358  0.7501
  682SOL    HW2 2781   3.818   1.238   1.335 -2.3621  2.7891  0.9329
  682SOL    HW3 2782   3.811   1.311   1.203 -0.7639 -0.6125 -1.0897
  682SOL    MW4 2783   3.805   1.237   1.249  0.0274  0.3136  0.5317
  683SOL     OW 2784   3.837   1.473   1.144 -0.0471  0.3832 -0.1852
  683SOL    HW2 2785   3.915   1.517   1.178 -0.3680  0.3577  0.6001
  683SOL    HW3 2786   3.840   1.488   1.049 -0.1036  2.0289  0.0491
  683SOL    MW4 2787   3.848   1.481   1.136 -0.0970  0.5969 -0.0505
  684SOL     OW 2788   3.619   1.629   1.195  0.0948 -0.7321 -0.2094
  684SOL    HW2 2789   3.641   1.722   1.188  0.3145 -0.6031  1.8260
  684SOL    HW3 2790   3.700   1.583   1.172  0.1990 -0.4148 -0.4734
  684SOL    MW4 2791   3.633   1.635   1.191  0.1378 -0.6733  0.0244
  685SOL     OW 2792   3.580   1.913   1.081 -0.2704 -0.1947  0.1641
  685SOL    HW2 2793   3.666   1.955   1.085  0.4062 -1.3127 -1.8051
  685SOL    HW3 2794   3.564   1.900   0.987 -1.3163 -2.5166  0.6154
  685SOL    MW4 2795   3.589   1.917   1.069 -0.3188 -0.6486 -0.0361
  686SOL     OW 2796   3.828   2.002   1.189  0.4102  0.5620 -0.0211
  686SOL    HW2 2797   3.803   2.016   1.281 -1.6633 -1.3283 -0.2608
  686SOL    HW3 2798   3.920   1.979   1.193  0.6301  1.5824  1.4818
  686SOL    MW4 2799   3.837   2.001   1.202  0.1657  0.4470  0.1454
  687SOL     OW 2800   3.821   2.296   1.129 -0.6905  0.0186  0.0156
  687SOL    HW2 2801   3.898   2.336   1.170  0.1890 -0.3266 -1.2668
  687SOL    HW3 2802   3.827   2.203   1.151  0.0383 -0.2493 -1.2482
  687SOL    MW4 2803   3.832   2.289   1.137 -0.4783 -0.0622 -0.3204
  688SOL     OW 2804   3.580   2.417   1.179 -0.2374  0.1903  0.1798
  688SOL    HW2 2805   3.585   2.428   1.274  2.4992  0.2874  0.0619
  688SOL    HW3 2806   3.664   2.378   1.155 -1.4170 -1.0822 -2.0613
  688SOL    MW4 2807   3.592   2.413   1.188 -0.0317  0.0355 -0.1315
  689SOL     OW 2808   3.604   2.710   1.130 -0.0606 -0.2216  0.1290
  689SOL    HW2 2809   3.627   2.620   1.154  0.1177 -0.6359 -1.5344
  689SOL    HW3 2810   3.514   2.721   1.161 -0.7666 -1.6332 -1.3452
  689SOL    MW4 2811   3.595   2.700   1.137 -0.1302 -0.4628 -0.2849
  690SOL     OW 2812   3.846   2.854   1.237 -0.2557  0.3768  0.7076
  690SOL    HW2 2813   3.835   2.850   1.332 -2.0381  1.0248  0.5447
  690SOL    HW3 2814   3.771   2.806   1.201  0.2448  0.3781 -0.3754
  690SOL    MW4 2815   3.834   2.847   1.245 -0.4246  0.4625  0.5431
  691SOL     OW 2816   3.830   3.141   1.163 -0.6764  0.0672  0.4632
  691SOL    HW2 2817   3.838   3.048   1.187  0.8195  0.1157  0.2129
  691SOL    HW3 2818   3.832   3.140   1.067 -2.0299  0.2464  0.4353
  691SOL    MW4 2819   3.832   3.129   1.153 -0.6576  0.0973  0.4264
  692SOL     OW 2820   3.567   3.232   1.243  0.6364 -0.2245 -0.0199
  692SOL    HW2 2821   3.581   3.321   1.211  1.0228 -0.7618 -1.3985
  692SOL    HW3 2822   3.644   3.183   1.213  0.2097 -1.1251  0.3257
  692SOL    MW4 2823   3.579   3.237   1.235  0.6311 -0.4139 -0.1562
  693SOL     OW 2824   3.622   3.481   1.134 -0.1947 -0.3523 -0.2386
  693SOL    HW2 2825   3.703   3.515   1.171 -0.7923  0.4684  0.3400
  693SOL    HW3 2826   3.630   3.495   1.040  0.7721 -1.2263 -0.2972
  693SOL    MW4 2827   3.634   3.487   1.127 -0.1459 -0.3595 -0.1699
  694SOL     OW 2828   3.838   3.600   1.253  0.0616 -0.2013  0.2064
  694SOL    HW2 2829   3.835   3.596   1.348  0.8248 -0.6211  0.2196
  694SOL    HW3 2830   3.831   3.693   1.232 -1.2248 -0.1964  0.6213
  694SOL    MW4 2831   3.837   3.612   1.262 -0.0074 -0.2561  0.2629
  695SOL     OW 2832   3.847   3.876   1.185 -0.3519 -0.1232  0.2998
  695SOL    HW2 2833   3.757   3.907   1.192 -0.5263 -0.0525 -1.7741
  695SOL    HW3 2834   3.862   3.869   1.090  1.9453  0.2251  0.6192
  695SOL    MW4 2835   3.837   3.879   1.173 -0.0718 -0.0679  0.0683
  696SOL     OW 2836   3.604   3.982   1.188 -0.1573  0.1567  0.0660
  696SOL    HW2 2837   3.589   3.994   1.282  1.3772  0.5946  0.2687
  696SOL    HW3 2838   3.523   3.944   1.155 -0.6806 -0.0686  1.5886
  696SOL    MW4 2839   3.592   3.978   1.196 -0.0238  0.1848  0.2935
  697SOL     OW 2840   3.629   4.265   1.081  0.1177  0.2014  0.0263
  697SOL    HW2 2841   3.622   4.178   1.121  0.8414 -0.2519 -0.8271
  697SOL    HW3 2842   3.619   4.250   0.987 -2.0079  1.3227  0.0300
  697SOL    MW4 2843   3.626   4.252   1.074 -0.0675  0.2890 -0.0858
  698SOL     OW 2844   3.839   4.381   1.203  0.2535  0.2245  0.2385
  698SOL    HW2 2845   3.822   4.379   1.297 -2.8570 -1.9441 -0.2983
  698SOL    HW3 2846   3.762   4.341   1.163  1.7964  0.4652 -3.2145
  698SOL    MW4 2847   3.827   4.375   1.210  0.0467 -0.0300 -0.2878
  699SOL     OW 2848   4.285   0.016   1.109 -0.0480  0.1098 -0.0971
  699SOL    HW2 2849   4.287  -0.078   1.125  0.3118  0.0079 -0.7279
  699SOL    HW3 2850   4.211   0.048   1.161 -0.8691 -0.6829 -0.7599
  699SOL    MW4 2851   4.276   0.008   1.118 -0.1087 -0.0082 -0.2677
  700SOL     OW 2852   4.086   0.135   1.255 -0.0648  0.5435  0.0263
  700SOL    HW2 2853   4.106   0.115   1.347  0.2108 -1.2248 -0.4052
  700SOL    HW3 2854   3.998   0.098   1.241 -0.7038  2.0386 -0.0541
  700SOL    MW4 2855   4.077   0.127   1.265 -0.1130  0.5074 -0.0412
  701SOL     OW 2856   4.028   0.383   1.139 -0.3625  0.3427 -0.4824
  701SOL    HW2 2857   4.046   0.297   1.176  0.5716  0.6930 -0.0934
  701SOL    HW3 2858   4.014   0.368   1.046 -0.4667 -0.2614 -0.3693
  701SOL    MW4 2859   4.029   0.370   1.132 -0.2532  0.3092 -0.4160
  702SOL     OW 2860   4.279   0.472   1.191 -0.1458  0.2200  0.2031
  702SOL    HW2 2861   4.271   0.484   1.286  0.1612  0.5821  0.1890
  702SOL    HW3 2862   4.197   0.431   1.164 -0.3506  0.3771  0.5857
  702SOL    MW4 2863   4.267   0.468   1.200 -0.1321  0.2885  0.2518
  703SOL     OW 2864   4.326   0.745   1.127 -0.0939 -0.0520 -0.0490
  703SOL    HW2 2865   4.300   0.655   1.149  0.2373 -0.0303  0.4413
  703SOL    HW3 2866   4.310   0.752   1.033 -1.8440 -0.0423  0.2333
  703SOL    MW4 2867   4.321   0.734   1.118 -0.2809 -0.0479  0.0529
  704SOL     OW 2868   4.062   0.860   1.210 -0.1695 -0.0835  0.0556
  704SOL    HW2 2869   4.085   0.884   1.299 -1.7333 -4.6817  1.8470
  704SOL    HW3 2870   4.139   0.812   1.177 -0.6360 -0.7564 -0.0700
  704SOL    MW4 2871   4.075   0.857   1.217 -0.4373 -0.7790  0.2755
  705SOL     OW 2872   4.053   1.140   1.146 -0.0594  0.3152  0.0381
  705SOL    HW2 2873   4.055   1.048   1.172 -0.1610  0.9142  2.2572
  705SOL    HW3 2874   3.971   1.174   1.182  0.0690  1.3274 -0.5857
  705SOL    MW4 2875   4.042   1.133   1.154 -0.0553  0.5277  0.2486
  706SOL     OW 2876   4.317   1.240   1.173  0.2915 -0.1789  0.2465
  706SOL    HW2 2877   4.314   1.256   1.267  0.0425 -0.5888  0.3087
  706SOL    HW3 2878   4.229   1.209   1.151 -0.2219  1.6776 -0.4467
  706SOL    MW4 2879   4.305   1.238   1.182  0.1912  0.0119  0.1632
  707SOL     OW 2880   4.262   1.497   1.114  0.2123 -0.2588 -0.0861
  707SOL    HW2 2881   4.297   1.409   1.125  1.1195  0.0660 -0.3377
  707SOL    HW3 2882   4.338   1.554   1.120 -0.0473  0.3559 -2.2666
  707SOL    MW4 2883   4.276   1.493   1.117  0.2975 -0.1347 -0.4069
  708SOL     OW 2884   4.051   1.607   1.250 -0.4593 -0.4241  0.3973
  708SOL    HW2 2885   4.070   1.611   1.344  0.1484  1.3090  0.2277
  708SOL    HW3 2886   4.126   1.562   1.213  0.8227  1.6069  0.4020
  708SOL    MW4 2887   4.063   1.602   1.258 -0.2098  0.0725  0.3755
  709SOL     OW 2888   4.084   1.889   1.184  0.0803  0.2224  0.0440
  709SOL    HW2 2889   4.067   1.796   1.202 -0.9758  0.4928  0.4664
  709SOL    HW3 2890   4.070   1.898   1.090  0.7248 -0.1623 -0.0894
  709SOL    MW4 2891   4.080   1.878   1.174  0.0257  0.2073  0.0824
  710SOL     OW 2892   4.294   2.032   1.251  0.1606  0.4775 -0.2758
  710SOL    HW2 2893   4.273   2.117   1.213  0.6520  1.3563  1.3585
  710SOL    HW3 2894   4.216   1.979   1.237 -1.1750  2.0334  1.0511
  710SOL    MW4 2895   4.281   2.036   1.244  0.0496  0.7985  0.1150
  711SOL     OW 2896   4.253   2.312   1.196 -0.4872  0.4819  0.0907
  711SOL    HW2 2897   4.177   2.365   1.220  0.3683  0.8501  2.1291
  711SOL    HW3 2898   4.267   2.330   1.103 -2.4371  0.9634 -0.1408
  711SOL    MW4 2899   4.245   2.321   1.187 -0.6313  0.5944  0.3291
  712SOL     OW 2900   4.022   2.453   1.247 -0.1686  0.0315  0.1983
  712SOL    HW2 2901   4.022   2.475   1.340  0.6240  1.7498 -0.1709
  712SOL    HW3 2902   4.017   2.538   1.203  1.8285 -0.5996 -1.3355
  712SOL    MW4 2903   4.022   2.467   1.253  0.1998  0.1750 -0.0528
  713SOL     OW 2904   4.054   2.705   1.160 -0.2757  0.2875  0.0937
  713SOL    HW2 2905   3.980   2.758   1.188 -0.6584  0.2280 -0.7798
  713SOL    HW3 2906   4.054   2.712   1.064  0.9417  0.4231  0.0924
  713SOL    MW4 2907   4.044   2.713   1.151 -0.1659  0.2973 -0.0217
  714SOL     OW 2908   4.290   2.811   1.242 -0.2261  0.6906  0.1146
  714SOL    HW2 2909   4.282   2.895   1.195 -0.4034 -0.4748 -2.0038
  714SOL    HW3 2910   4.204   2.770   1.231  0.9105 -1.2527 -1.8133
  714SOL    MW4 2911   4.278   2.817   1.234 -0.0992  0.2804 -0.4194
  715SOL     OW 2912   4.305   3.070   1.146  0.1018 -0.3677  0.4062
  715SOL    HW2 2913   4.237   3.125   1.183 -0.4318 -0.7434 -0.0076
  715SOL    HW3 2914   4.302   3.088   1.052  0.3866 -0.5880  0.3545
  715SOL    MW4 2915   4.296   3.079   1.138  0.0691 -0.4463  0.3448
  716SOL     OW 2916   4.087   3.221   1.233  0.0804  0.2448 -0.8552
  716SOL    HW2 2917   4.068   3.225   1.326  1.0324 -0.9911 -0.6057
  716SOL    HW3 2918   4.003   3.198   1.192  0.0702 -1.0174 -0.1441
  716SOL    MW4 2919   4.073   3.219   1.240  0.2050 -0.0849 -0.7285
  717SOL     OW 2920   4.062   3.492   1.150  0.2444 -0.2378  0.1507
  717SOL    HW2 2921   4.070   3.404   1.186 -0.3221 -0.7681 -1.0233
  717SOL    HW3 2922   3.971   3.517   1.166  0.1707 -0.2118 -0.2928
  717SOL    MW4 2923   4.051   3.484   1.157  0.1602 -0.3045 -0.0627
  718SOL     OW 2924   4.287   3.641   1.231  0.0952 -0.3617  0.4151
  718SOL    HW2 2925   4.203   3.605   1.204  0.5029  0.0984 -1.5560
  718SOL    HW3 2926   4.352   3.582   1.193  0.6959  0.0242  0.8297
  718SOL    MW4 2927   4.285   3.629   1.223  0.2289 -0.2501  0.2097
  719SOL     OW 2928   4.309   3.887   1.118 -0.0397 -0.4966  0.5430
  719SOL    HW2 2929   4.228   3.919   1.156  0.8705 -0.5042  2.5823
  719SOL    HW3 2930   4.319   3.798   1.152  0.8730 -0.4600  0.4054
  719SOL    MW4 2931   4.300   3.879   1.127  0.2007 -0.4928  0.7938
  720SOL     OW 2932   4.089   3.979   1.265  0.1819 -0.3950  0.0252
  720SOL    HW2 2933   4.081   4.072   1.242  1.5141 -0.3325 -0.2483
  720SOL    HW3 2934   4.004   3.941   1.242  0.5907  0.1814 -2.6401
  720SOL    MW4 2935   4.077   3.987   1.259  0.4115 -0.3107 -0.3625
  721SOL     OW 2936   4.075   4.256   1.145 -0.3311  0.1413 -0.2601
  721SOL    HW2 2937   3.987   4.287   1.163 -1.0846 -2.4614  0.8329
  721SOL    HW3 2938   4.076   4.239   1.051 -1.7014 -1.8269  0.0623
  721SOL    MW4 2939   4.063   4.258   1.135 -0.6113 -0.4611 -0.0733
  722SOL     OW 2940   4.275   4.426   1.200  0.3716 -0.2299 -0.2663
  722SOL    HW2 2941   4.197   4.371   1.191 -0.7139  0.7398  2.6498
  722SOL    HW3 2942   4.348   4.365   1.191 -0.7918 -1.9087  1.4115
  722SOL    MW4 2943   4.274   4.411   1.197  0.0749 -0.3233  0.3399
  723SOL     OW 2944   0.310   4.627   1.643 -0.2946 -0.5394 -0.4849
  723SOL    HW2 2945   0.391   4.672   1.619 -0.3565  0.4271  1.0264
  723SOL    HW3 2946   0.242   4.672   1.594 -0.5109  1.8725  1.9011
  723SOL    MW4 2947   0.312   4.638   1.633 -0.3313 -0.0939  0.0293
  724SOL     OW 2948   0.102   0.108   1.512  0.2555 -0.3304 -0.1180
  724SOL    HW2 2949   0.029   0.064   1.556  0.9935 -1.8283 -0.3703
  724SOL    HW3 2950   0.085   0.095   1.418  1.8538 -2.4239 -0.1655
  724SOL    MW4 2951   0.090   0.100   1.505  0.5638 -0.8042 -0.1576
  725SOL     OW 2952   0.008   0.386   1.562 -0.2799  0.1730  0.0028
  725SOL    HW2 2953   0.028   0.380   1.656 -0.3989  0.7676  0.0655
  725SOL    HW3 2954   0.041   0.304   1.526  1.6760  0.8436  0.2242
  725SOL    MW4 2955   0.015   0.374   1.570 -0.0372  0.3399  0.0403
  726SOL     OW 2956   0.264   0.470   1.480  0.6368  0.4783 -0.5258
  726SOL    HW2 2957   0.172   0.452   1.497  1.1216 -1.3145  0.2658
  726SOL    HW3 2958   0.269   0.487   1.386 -0.4766  0.5005 -0.5796
  726SOL    MW4 2959   0.253   0.470   1.470  0.5538  0.2447 -0.4284
  727SOL     OW 2960   0.268   0.730   1.591  0.6342 -0.1360  0.4787
  727SOL    HW2 2961   0.341   0.779   1.552 -0.4566  0.0999 -1.3522
  727SOL    HW3 2962   0.279   0.641   1.557  0.0206 -0.0717  0.1023
  727SOL    MW4 2963   0.279   0.724   1.581  0.4094 -0.0964  0.1874
  728SOL     OW 2964   0.038   0.821   1.513  0.3976 -0.4738  0.2955
  728SOL    HW2 2965   0.042   0.913   1.538 -1.7943 -0.4807  0.8050
  728SOL    HW3 2966   0.119   0.783   1.549  0.8059  1.0225  1.0020
  728SOL    MW4 2967   0.049   0.828   1.521  0.1623 -0.2773  0.4560
  729SOL     OW 2968   0.026   1.086   1.601  0.3380  0.3783 -0.6935
  729SOL    HW2 2969   0.023   1.104   1.695 -1.9469  1.0969 -0.8861
  729SOL    HW3 2970   0.094   1.145   1.568 -1.4865  2.9432 -0.0575
  729SOL    MW4 2971   0.035   1.096   1.609 -0.2042  0.8115 -0.6350
  730SOL     OW 2972   0.219   1.261   1.513 -0.4138 -0.1035  0.3159
  730SOL    HW2 2973   0.209   1.354   1.537  1.9959  0.2547  0.0978
  730SOL    HW3 2974   0.219   1.262   1.417 -1.5577 -0.5014  0.3001
  730SOL    MW4 2975   0.218   1.274   1.503 -0.2468 -0.1087  0.2851
  731SOL     OW 2976   0.214   1.534   1.581  0.4497  0.4817  0.0131
  731SOL    HW2 2977   0.214   1.545   1.676  1.6701  0.1125  0.0667
  731SOL    HW3 2978   0.135   1.579   1.551 -0.7535 -0.7049  1.3533
  731SOL    MW4 2979   0.204   1.541   1.589  0.4520  0.2766  0.1971
  732SOL     OW 2980   4.469   1.649   1.491 -0.3100 -0.2127 -0.1465
  732SOL    HW2 2981   4.467   1.740   1.523 -0.2252 -0.6122  1.0235
  732SOL    HW3 2982   4.474   1.657   1.396  1.4019  1.0440  0.0090
  732SOL    MW4 2983   4.470   1.662   1.483 -0.0730 -0.0995  0.0284
  733SOL     OW 2984   4.486   1.908   1.597  0.0520 -0.0612 -0.1083
  733SOL    HW2 2985   4.507   1.919   1.690 -1.8776 -3.7589  0.8483
  733SOL    HW3 2986   4.416   1.971   1.580  3.5552  4.0495 -0.3995
  733SOL    MW4 2987   4.480   1.918   1.607  0.2597 -0.0069 -0.0206
  734SOL     OW 2988   0.212   2.067   1.506  0.1433  0.2524  0.3554
  734SOL    HW2 2989   0.137   2.016   1.536 -0.6657  1.9069  1.2604
  734SOL    HW3 2990   0.191   2.088   1.415  0.5080 -1.0510 -0.0383
  734SOL    MW4 2991   0.199   2.063   1.498  0.0847  0.2985  0.4228
  735SOL     OW 2992   0.205   2.333   1.587  0.1894 -0.2466  0.1361
  735SOL    HW2 2993   0.227   2.333   1.680  3.4957  1.1531 -0.5785
  735SOL    HW3 2994   0.210   2.241   1.561 -0.3332 -0.5925  1.2237
  735SOL    MW4 2995   0.209   2.321   1.596  0.5567 -0.1075  0.1854
  736SOL     OW 2996   0.009   2.511   1.472 -0.0209 -0.1263 -0.2271
  736SOL    HW2 2997  -0.073   2.465   1.493 -0.6905  1.9697  1.9769
  736SOL    HW3 2998   0.075   2.468   1.527 -0.1890  0.0091  0.0821
  736SOL    MW4 2999   0.007   2.499   1.482 -0.1315  0.1681  0.1044
  737SOL     OW 3000   0.017   2.731   1.617  0.0081  0.0855 -0.2219
  737SOL    HW2 3001  -0.068   2.773   1.601  0.1003  0.2698 -0.2386
  737SOL    HW3 3002   0.013   2.649   1.568  0.2061  0.5521 -1.0277
  737SOL    MW4 3003   0.005   2.726   1.608  0.0464  0.1714 -0.3303
  738SOL     OW 3004   0.233   2.855   1.501  0.3029  0.7922  0.5749
  738SOL    HW2 3005   0.303   2.799   1.536  0.3471 -0.0374 -0.8114
  738SOL    HW3 3006   0.154   2.827   1.548  0.2363 -0.7823 -0.4487
  738SOL    MW4 3007   0.232   2.844   1.512  0.3000  0.4752  0.2568
  739SOL     OW 3008   0.252   3.095   1.628 -0.2374 -0.4530  0.0867
  739SOL    HW2 3009   0.173   3.137   1.595  0.4539 -0.8381 -2.1695
  739SOL    HW3 3010   0.248   3.006   1.592  1.2211 -0.4579 -0.0953
  739SOL    MW4 3011   0.241   3.089   1.619  0.0462 -0.5045 -0.2350
  740SOL     OW 3012   0.009   3.200   1.503 -0.0250 -0.0455 -0.3150
  740SOL    HW2 3013  -0.006   3.293   1.522 -0.0234  0.0833 -0.9114
  740SOL    HW3 3014   0.023   3.198   1.408 -2.0516 -0.8959 -0.6315
  740SOL    MW4 3015   0.009   3.212   1.493 -0.2922 -0.1409 -0.4354
  741SOL     OW 3016   4.452   3.481   1.599 -0.1120 -0.2928  0.3129
  741SOL    HW2 3017   4.462   3.463   1.692 -0.0299 -2.0962 -0.0387
  741SOL    HW3 3018   4.360   3.505   1.588 -0.5365 -1.7857  0.5795
  741SOL    MW4 3019   4.441   3.482   1.610 -0.1569 -0.7277  0.3016
  742SOL     OW 3020   0.209   3.620   1.508  0.1769 -0.2321  0.7446
  742SOL    HW2 3021   0.218   3.705   1.552  0.1009 -0.1301  0.5639
  742SOL    HW3 3022   0.122   3.589   1.534 -0.3108  0.3219 -0.1859
  742SOL    MW4 3023   0.199   3.627   1.517  0.1025 -0.1457  0.5980
  743SOL     OW 3024   0.462   4.009   1.522  0.0006 -0.2945 -0.4909
  743SOL    HW2 3025   0.538   3.965   1.560 -0.7146 -1.3336 -0.2401
  743SOL    HW3 3026   0.466   3.989   1.429  0.5378  0.4092 -0.6170
  743SOL    MW4 3027   0.472   4.001   1.515 -0.0228 -0.3386 -0.4743
  744SOL     OW 3028   4.482   3.982   1.545 -0.0941 -0.5977 -0.7313
  744SOL    HW2 3029   4.482   4.076   1.565  0.2118 -0.5271 -1.0646
  744SOL    HW3 3030   4.567   3.951   1.575 -0.4687 -0.9127  0.0272
  744SOL    MW4 3031   4.493   3.991   1.552 -0.1040 -0.6301 -0.6751
  745SOL     OW 3032   0.014   4.271   1.571 -0.0321 -0.3518  0.6337
  745SOL    HW2 3033  -0.007   4.274   1.665 -0.3878 -1.1652  0.5907
  745SOL    HW3 3034  -0.064   4.307   1.528  0.4029  0.6398  0.6877
  745SOL    MW4 3035   0.001   4.276   1.578 -0.0215 -0.3281  0.6350
  746SOL     OW 3036   0.267   4.396   1.488  0.1178 -0.1204 -0.0520
  746SOL    HW2 3037   0.186   4.363   1.527 -0.3634  0.5931 -0.4191
  746SOL    HW3 3038   0.294   4.468   1.546 -0.1373  0.3845 -0.5500
  746SOL    MW4 3039   0.260   4.401   1.501  0.0207  0.0401 -0.1662
  747SOL     OW 3040   0.727   4.653   1.599  0.1435  0.5429  0.5473
  747SOL    HW2 3041   0.799   4.709   1.571  1.3750 -0.7489  1.0601
  747SOL    HW3 3042   0.649   4.694   1.563  1.3077  1.0711 -1.4206
  747SOL    MW4 3043   0.726   4.665   1.591  0.4596  0.4420  0.3552
  748SOL     OW 3044   0.512   0.090   1.494  0.4498  0.0834 -0.2165
  748SOL    HW2 3045   0.494   0.179   1.525 -0.5885  0.4417 -1.8013
  748SOL    HW3 3046   0.481   0.089   1.403  1.3291 -1.6191 -0.5211
  748SOL    MW4 3047   0.505   0.101   1.486  0.4289 -0.0939 -0.4658
  749SOL     OW 3048   0.472   0.330   1.610 -0.0348  0.0145 -0.1067
  749SOL    HW2 3049   0.551   0.373   1.580  0.2629  0.1462  0.8454
  749SOL    HW3 3050   0.400   0.380   1.570  0.3663 -1.5433 -2.9130
  749SOL    MW4 3051   0.473   0.342   1.601  0.0574 -0.1737 -0.3512
  750SOL     OW 3052   0.702   0.484   1.495 -0.1851 -0.1438 -0.1505
  750SOL    HW2 3053   0.684   0.575   1.518  0.4105  0.0545 -0.4699
  750SOL    HW3 3054   0.701   0.482   1.400 -1.1147 -0.6599 -0.1333
  750SOL    MW4 3055   0.700   0.495   1.486 -0.2292 -0.1858 -0.1904
  751SOL     OW 3056   0.685   0.737   1.576  0.7809  0.6836 -0.4561
  751SOL    HW2 3057   0.690   0.743   1.671 -0.4739  0.8685 -0.3936
  751SOL    HW3 3058   0.763   0.783   1.545  0.1820  2.3683  0.4483
  751SOL    MW4 3059   0.696   0.744   1.584  0.5364  0.9302 -0.3285
  752SOL     OW 3060   0.471   0.869   1.480 -0.3904  0.1643 -0.1312
  752SOL    HW2 3061   0.465   0.956   1.520  1.7081  0.7734 -1.0438
  752SOL    HW3 3062   0.547   0.829   1.523 -0.4375 -0.6297 -0.7934
  752SOL    MW4 3063   0.480   0.875   1.491 -0.1197  0.1400 -0.3390
  753SOL     OW 3064   0.453   1.132   1.584  0.0818 -0.0592 -0.0665
  753SOL    HW2 3065   0.532   1.165   1.542  0.1696  0.1966  0.2964
  753SOL    HW3 3066   0.383   1.189   1.552  0.7107  2.5815  3.0705
  753SOL    MW4 3067   0.454   1.144   1.574  0.1763  0.3229  0.3953
  754SOL     OW 3068   0.667   1.277   1.473  0.2970  0.1980  0.2990
  754SOL    HW2 3069   0.661   1.369   1.499 -1.0603  0.3148 -0.3684
  754SOL    HW3 3070   0.675   1.279   1.378 -0.2056 -0.3746  0.2369
  754SOL    MW4 3071   0.667   1.289   1.464  0.0516  0.1379  0.2027
  755SOL     OW 3072   0.651   1.554   1.566 -0.2013 -0.3753  0.3357
  755SOL    HW2 3073   0.725   1.591   1.518 -0.7667  1.2354  0.6588
  755SOL    HW3 3074   0.577   1.609   1.540 -0.6591  0.0182  2.4102
  755SOL    MW4 3075   0.651   1.566   1.556 -0.3363 -0.1107  0.6518
  756SOL     OW 3076   0.433   1.702   1.465  0.4201  0.2512  0.6241
  756SOL    HW2 3077   0.436   1.791   1.500 -0.1373  0.2850  0.5975
  756SOL    HW3 3078   0.351   1.667   1.498  0.2888 -0.0041  0.0380
  756SOL    MW4 3079   0.422   1.709   1.474  0.3293  0.2220  0.5431
  757SOL     OW 3080   0.443   1.948   1.557  0.0338  0.4152  0.1190
  757SOL    HW2 3081   0.439   1.957   1.652 -0.0775  0.7600  0.0818
  757SOL    HW3 3082   0.360   1.984   1.526 -0.2652 -0.4026 -0.0602
  757SOL    MW4 3083   0.432   1.954   1.566 -0.0204  0.3529  0.0905
  758SOL     OW 3084   0.679   2.047   1.463  0.3536  0.0579  0.2053
  758SOL    HW2 3085   0.744   2.006   1.520 -0.3380 -0.5682  0.5490
  758SOL    HW3 3086   0.596   2.009   1.490  0.1438 -1.2065 -2.0732
  758SOL    MW4 3087   0.677   2.037   1.474  0.2347 -0.1915 -0.0501
  759SOL     OW 3088   0.657   2.302   1.616  0.2310 -0.5584  0.3249
  759SOL    HW2 3089   0.579   2.331   1.568 -0.2519  0.6069  1.7992
  759SOL    HW3 3090   0.669   2.211   1.588 -2.0402 -0.9521  0.5559
  759SOL    MW4 3091   0.648   2.293   1.606 -0.1323 -0.4568  0.5498
  760SOL     OW 3092   0.435   2.438   1.492  0.1902 -0.0960  0.0934
  760SOL    HW2 3093   0.441   2.532   1.511  2.8539 -0.0168 -0.8901
  760SOL    HW3 3094   0.355   2.409   1.536  1.4543  1.8053  3.8479
  760SOL    MW4 3095   0.425   2.447   1.500  0.7084  0.1655  0.4590
  761SOL     OW 3096   0.458   2.719   1.582 -0.0564  0.0979 -0.2019
  761SOL    HW2 3097   0.475   2.716   1.676  0.6322  1.1154 -0.2820
  761SOL    HW3 3098   0.537   2.759   1.545  0.0796 -1.1697 -1.3114
  761SOL    MW4 3099   0.471   2.724   1.590  0.0524  0.0651 -0.3588
  762SOL     OW 3100   0.706   2.859   1.502 -0.3391 -0.6437  0.6810
  762SOL    HW2 3101   0.710   2.950   1.534 -0.3611 -0.7577  1.0133
  762SOL    HW3 3102   0.703   2.867   1.407  1.1462 -0.3301  0.6472
  762SOL    MW4 3103   0.706   2.872   1.494 -0.1460 -0.6173  0.7205
  763SOL     OW 3104   0.683   3.135   1.589 -0.0659 -0.1649 -0.5650
  763SOL    HW2 3105   0.751   3.188   1.548  0.1339  1.8249  2.1951
  763SOL    HW3 3106   0.602   3.180   1.567 -0.2092 -0.7352 -1.1999
  763SOL    MW4 3107   0.681   3.148   1.580 -0.0585  0.0224 -0.2847
  764SOL     OW 3108   0.460   3.257   1.498  0.0249 -0.3726  0.1015
  764SOL    HW2 3109   0.388   3.201   1.527 -0.3520 -0.1783 -0.4519
  764SOL    HW3 3110   0.466   3.242   1.403 -0.1249  0.5646 -0.0693
  764SOL    MW4 3111   0.451   3.248   1.489 -0.0446 -0.2234  0.0061
  765SOL     OW 3112   0.456   3.524   1.607 -0.1213 -0.5632 -0.2043
  765SOL    HW2 3113   0.465   3.437   1.567  0.9711  0.0601 -1.3177
  765SOL    HW3 3114   0.369   3.554   1.580  0.0969 -0.6893 -1.0480
  765SOL    MW4 3115   0.446   3.516   1.598  0.0516 -0.4976 -0.4625
  766SOL     OW 3116   0.700   3.637   1.539 -0.1617  0.1699 -0.0708
  766SOL    HW2 3117   0.769   3.572   1.555  0.7087  0.7282 -1.3588
  766SOL    HW3 3118   0.620   3.597   1.572  0.8862 -0.2551  1.9848
  766SOL    MW4 3119   0.699   3.623   1.545  0.0913  0.1874  0.0304
  767SOL     OW 3120   0.677   3.900   1.635  0.1921 -0.0951 -0.2819
  767SOL    HW2 3121   0.745   3.946   1.586  1.2394 -1.3073  0.0203
  767SOL    HW3 3122   0.674   3.813   1.596  0.9961 -1.0589  1.7585
  767SOL    MW4 3123   0.686   3.895   1.623  0.4363 -0.3822  0.0271
  768SOL     OW 3124   0.238   3.863   1.642 -0.1135 -0.0868  0.4654
  768SOL    HW2 3125   0.242   3.854   1.737  0.5089  0.1604  0.4659
  768SOL    HW3 3126   0.319   3.909   1.618 -1.1362  1.4979 -0.0072
  768SOL    MW4 3127   0.249   3.868   1.651 -0.1663  0.1550  0.4030
  769SOL     OW 3128   0.487   4.274   1.550 -0.0406  0.2816  0.5809
  769SOL    HW2 3129   0.473   4.180   1.541  0.4954  0.1915  0.6854
  769SOL    HW3 3130   0.411   4.314   1.506  0.1374 -0.1917 -0.1590
  769SOL    MW4 3131   0.475   4.267   1.543  0.0536  0.2074  0.4971
  770SOL     OW 3132   0.741   4.394   1.505  0.2111  0.2866 -0.4745
  770SOL    HW2 3133   0.653   4.359   1.520  0.0082  1.1679  0.3919
  770SOL    HW3 3134   0.735   4.486   1.528  1.0631  0.6348 -1.5834
  770SOL    MW4 3135   0.729   4.401   1.510  0.2967  0.4487 -0.5064
  771SOL     OW 3136   1.159   0.011   1.624 -0.1036 -0.2574  0.8066
  771SOL    HW2 3137   1.144   0.016   1.718  0.9330 -0.9514  1.0174
  771SOL    HW3 3138   1.237   0.064   1.609 -0.1877 -0.2581  0.3486
  771SOL    MW4 3139   1.167   0.019   1.634  0.0222 -0.3490  0.7740
  772SOL     OW 3140   0.942   0.126   1.482 -0.3465  0.6331 -0.2083
  772SOL    HW2 3141   0.920   0.213   1.515 -0.8402 -0.3545  2.2102
  772SOL    HW3 3142   1.024   0.105   1.526 -0.6436 -0.4246 -0.1561
  772SOL    MW4 3143   0.950   0.135   1.492 -0.4508  0.3632  0.1178
  773SOL     OW 3144   0.919   0.373   1.616  0.3204  0.2672  0.2988
  773SOL    HW2 3145   0.919   0.386   1.711  1.4975  1.3903  0.1678
  773SOL    HW3 3146   0.844   0.424   1.584  0.4509  0.6264  0.5532
  773SOL    MW4 3147   0.909   0.382   1.624  0.4929  0.4628  0.3152
  774SOL     OW 3148   1.137   0.502   1.478 -0.2377  0.2134  0.1307
  774SOL    HW2 3149   1.140   0.595   1.504  0.7264 -0.0463  0.9597
  774SOL    HW3 3150   1.058   0.468   1.522  0.9840 -0.0464  2.2008
  774SOL    MW4 3151   1.127   0.510   1.487  0.0505  0.1449  0.5131
  775SOL     OW 3152   1.126   0.768   1.563  0.1459 -0.4309 -0.3072
  775SOL    HW2 3153   1.127   0.757   1.658  0.9192 -0.3961 -0.3076
  775SOL    HW3 3154   1.196   0.830   1.545 -1.5907  1.4618 -0.6914
  775SOL    MW4 3155   1.135   0.775   1.573  0.0187 -0.1766 -0.3580
  776SOL     OW 3156   0.897   0.904   1.484 -0.3255  0.0353 -0.0701
  776SOL    HW2 3157   0.968   0.856   1.525 -0.5123 -0.2538 -0.0795
  776SOL    HW3 3158   0.917   0.901   1.390  0.8948  1.9983  0.1216
  776SOL    MW4 3159   0.909   0.897   1.477 -0.1891  0.2561 -0.0460
  777SOL     OW 3160   0.903   1.170   1.570  0.1409 -0.2944  0.4123
  777SOL    HW2 3161   0.902   1.080   1.539  1.0699 -0.3731  0.5997
  777SOL    HW3 3162   0.820   1.206   1.541  0.1793 -0.9300 -0.5089
  777SOL    MW4 3163   0.892   1.163   1.562  0.2686 -0.3886  0.3155
  778SOL     OW 3164   1.130   1.313   1.464 -0.2479  0.4271 -0.7013
  778SOL    HW2 3165   1.202   1.281   1.517 -0.5039  0.9115 -0.0507
  778SOL    HW3 3166   1.054   1.263   1.493  0.1438 -1.3480 -2.6210
  778SOL    MW4 3167   1.129   1.302   1.475 -0.2300  0.2568 -0.8688
  779SOL     OW 3168   1.109   1.562   1.569 -0.1971  0.2106  1.0310
  779SOL    HW2 3169   1.196   1.597   1.548 -0.4489  0.0870 -0.2728
  779SOL    HW3 3170   1.109   1.473   1.533 -0.8068  0.1418  1.1910
  779SOL    MW4 3171   1.120   1.555   1.562 -0.3107  0.1850  0.8801
  780SOL     OW 3172   0.881   1.685   1.457  0.8566  0.3295 -0.2516
  780SOL    HW2 3173   0.968   1.653   1.481  1.8347  2.7737 -0.4603
  780SOL    HW3 3174   0.882   1.685   1.361  0.3533 -0.3511 -0.2583
  780SOL    MW4 3175   0.893   1.680   1.447  0.9192  0.5622 -0.2799
  781SOL     OW 3176   0.887   1.926   1.591  0.2527  0.2106  0.1113
  781SOL    HW2 3177   0.966   1.969   1.559  0.8159 -0.1429  1.0022
  781SOL    HW3 3178   0.895   1.836   1.559  0.3886  0.0795  0.5212
  781SOL    MW4 3179   0.898   1.920   1.582  0.3450  0.1466  0.2829
  782SOL     OW 3180   1.112   2.077   1.527  0.9209  0.3395  0.2478
  782SOL    HW2 3181   1.199   2.047   1.554  0.7031  0.4657  1.0914
  782SOL    HW3 3182   1.102   2.162   1.570  0.7486  0.7341 -0.5775
  782SOL    MW4 3183   1.122   2.084   1.536  0.8694  0.4082  0.2502
  783SOL     OW 3184   1.127   2.329   1.644 -0.2772  0.4743  0.3593
  783SOL    HW2 3185   1.193   2.377   1.595 -0.2807  0.4851  0.3651
  783SOL    HW3 3186   1.044   2.355   1.604 -0.1493 -1.0558 -0.9623
  783SOL    MW4 3187   1.124   2.338   1.632 -0.2606  0.2739  0.1857
  784SOL     OW 3188   0.902   2.409   1.522  0.2127 -0.2461 -0.0004
  784SOL    HW2 3189   0.902   2.493   1.566 -2.6382 -0.5681  0.7058
  784SOL    HW3 3190   0.826   2.363   1.557  0.7811 -2.4812 -1.5625
  784SOL    MW4 3191   0.892   2.414   1.532 -0.0884 -0.5836 -0.1134
  785SOL     OW 3192   0.881   2.671   1.596  0.0183  0.3537  0.5104
  785SOL    HW2 3193   0.881   2.695   1.689 -1.1039  0.2699  0.5398
  785SOL    HW3 3194   0.814   2.727   1.557  1.0011  0.8993 -0.3921
  785SOL    MW4 3195   0.872   2.681   1.603 -0.0001  0.4146  0.3953
  786SOL     OW 3196   1.108   2.814   1.514 -0.3888  0.4550 -0.0044
  786SOL    HW2 3197   1.111   2.891   1.571  0.8947 -1.0537  2.0232
  786SOL    HW3 3198   1.026   2.770   1.538 -0.6135  0.6400 -0.4304
  786SOL    MW4 3199   1.098   2.819   1.525 -0.2491  0.2804  0.2069
  787SOL     OW 3200   1.108   3.073   1.600 -0.1290  0.1186  0.5375
  787SOL    HW2 3201   1.099   3.070   1.695 -0.5885  1.5579  0.5579
  787SOL    HW3 3202   1.192   3.116   1.585 -0.6295  1.0496  0.3095
  787SOL    MW4 3203   1.118   3.079   1.611 -0.2557  0.4313  0.5102
  788SOL     OW 3204   0.918   3.239   1.492 -0.2871  0.0079 -0.2648
  788SOL    HW2 3205   0.981   3.178   1.529  0.0386  1.3242  1.4017
  788SOL    HW3 3206   0.928   3.230   1.397  0.8318 -1.3930 -0.0166
  788SOL    MW4 3207   0.927   3.230   1.484 -0.0965 -0.0033 -0.0120
  789SOL     OW 3208   0.896   3.467   1.628 -1.0763 -0.2153 -0.3926
  789SOL    HW2 3209   0.981   3.501   1.600 -0.6654 -0.0812  0.9626
  789SOL    HW3 3210   0.895   3.377   1.598 -0.1517 -0.4270  0.2031
  789SOL    MW4 3211   0.907   3.460   1.620 -0.9001 -0.2255 -0.1352
  790SOL     OW 3212   1.104   3.612   1.546 -0.0723  0.9250 -0.1490
  790SOL    HW2 3213   1.186   3.564   1.556 -0.0007  1.2380  0.8165
  790SOL    HW3 3214   1.100   3.634   1.453 -0.4296 -1.5174 -0.7453
  790SOL    MW4 3215   1.114   3.608   1.535 -0.1100  0.6440 -0.1003
  791SOL     OW 3216   1.144   3.875   1.656  0.7283  0.3403  0.3578
  791SOL    HW2 3217   1.235   3.905   1.646  1.0333 -0.1381  1.5361
  791SOL    HW3 3218   1.148   3.781   1.640  0.2793  0.4613 -0.4713
  791SOL    MW4 3219   1.157   3.866   1.653  0.7092  0.2933  0.4038
  792SOL     OW 3220   0.923   4.017   1.537  0.1677  0.5661  0.1819
  792SOL    HW2 3221   0.925   4.107   1.570  1.5480  0.9647 -0.9846
  792SOL    HW3 3222   0.997   3.975   1.580  0.7068  0.5200 -0.7948
  792SOL    MW4 3223   0.933   4.024   1.547  0.4209  0.6132 -0.1009
  793SOL     OW 3224   0.976   4.284   1.663  0.6553 -0.2268 -0.0491
  793SOL    HW2 3225   0.952   4.283   1.756 -1.5071  1.6122 -0.5468
  793SOL    HW3 3226   0.906   4.333   1.621  2.0067 -0.3896 -2.5663
  793SOL    MW4 3227   0.964   4.290   1.670  0.5483 -0.0062 -0.4470
  794SOL     OW 3228   1.166   4.406   1.522 -0.1225 -0.2709 -0.0114
  794SOL    HW2 3229   1.094   4.366   1.572 -2.4807  2.1043 -1.3763
  794SOL    HW3 3230   1.178   4.492   1.562  0.9358 -0.0703 -0.7524
  794SOL    MW4 3231   1.158   4.412   1.534 -0.2941  0.0691 -0.2892
  795SOL     OW 3232   1.585   4.604   1.618  0.3505 -0.1297 -0.1436
  795SOL    HW2 3233   1.588   4.608   1.714  0.6132 -1.2462 -0.0952
  795SOL    HW3 3234   1.537   4.682   1.592  1.8049  1.1177  0.8136
  795SOL    MW4 3235   1.579   4.615   1.627  0.5771 -0.1125 -0.0111
  796SOL     OW 3236   1.411   0.145   1.517 -0.6671  0.1799 -0.8234
  796SOL    HW2 3237   1.414   0.237   1.545 -0.6908 -0.1987  0.4177
  796SOL    HW3 3238   1.410   0.150   1.421 -0.0421  1.4639 -0.7803
  796SOL    MW4 3239   1.412   0.158   1.508 -0.5878  0.2994 -0.6540
  797SOL     OW 3240   1.360   0.410   1.651 -0.3218 -0.1065  0.8095
  797SOL    HW2 3241   1.437   0.445   1.606 -0.4419 -0.0806  0.6248
  797SOL    HW3 3242   1.285   0.447   1.604 -0.4476 -0.3860  0.7869
  797SOL    MW4 3243   1.360   0.419   1.639 -0.3543 -0.1400  0.7821
  798SOL     OW 3244   1.591   0.494   1.538  0.1650  0.1236 -0.5009
  798SOL    HW2 3245   1.667   0.459   1.584  0.1236  1.2646  0.4584
  798SOL    HW3 3246   1.619   0.502   1.446  0.2842 -2.0584 -0.6634
  798SOL    MW4 3247   1.604   0.491   1.532  0.1754 -0.0138 -0.3958
  799SOL     OW 3248   1.585   0.769   1.614  0.1345 -0.0690  0.3402
  799SOL    HW2 3249   1.578   0.761   1.709  1.1672  0.0246  0.4250
  799SOL    HW3 3250   1.581   0.679   1.581  1.0962 -0.1963  0.5641
  799SOL    MW4 3251   1.583   0.756   1.622  0.3976 -0.0734  0.3810
  800SOL     OW 3252   1.353   0.940   1.508 -0.3018  0.0096 -0.1227
  800SOL    HW2 3253   1.412   0.877   1.550  0.0116  1.1840  1.2305
  800SOL    HW3 3254   1.382   0.943   1.417 -0.1655 -1.6217 -0.1502
  800SOL    MW4 3255   1.365   0.932   1.501 -0.2425 -0.0506  0.0521
  801SOL     OW 3256   1.325   1.180   1.613 -0.0077 -0.3954 -0.0423
  801SOL    HW2 3257   1.332   1.180   1.709 -1.1408 -0.7006  0.0504
  801SOL    HW3 3258   1.329   1.088   1.589 -0.9841 -0.4082 -0.1797
  801SOL    MW4 3259   1.326   1.168   1.623 -0.2860 -0.4375 -0.0483
  802SOL     OW 3260   1.558   1.264   1.501 -0.5864  0.1754 -0.2712
  802SOL    HW2 3261   1.475   1.230   1.534 -0.0149 -0.2934  0.7272
  802SOL    HW3 3262   1.549   1.262   1.406 -0.9404 -1.8949 -0.2177
  802SOL    MW4 3263   1.546   1.259   1.493 -0.5578 -0.1596 -0.1324
  803SOL     OW 3264   1.584   1.534   1.592 -0.5801  0.4756 -0.4127
  803SOL    HW2 3265   1.547   1.549   1.679  1.9979 -1.1118  1.0551
  803SOL    HW3 3266   1.577   1.439   1.579  0.9633  0.4231 -0.9899
  803SOL    MW4 3267   1.578   1.523   1.602 -0.0365  0.2592 -0.2952
  804SOL     OW 3268   1.369   1.660   1.486 -0.0127 -0.6124  0.3025
  804SOL    HW2 3269   1.451   1.621   1.518  0.4267  0.1250  0.0810
  804SOL    HW3 3270   1.377   1.657   1.391 -0.1201 -0.2889  0.2821
  804SOL    MW4 3271   1.381   1.654   1.478  0.0312 -0.4724  0.2707
  805SOL     OW 3272   1.366   1.928   1.544  0.2750  0.0888 -0.1681
  805SOL    HW2 3273   1.353   1.930   1.639 -0.9000 -0.8792 -0.2988
  805SOL    HW3 3274   1.360   1.836   1.521  0.8811  0.2864 -1.1504
  805SOL    MW4 3275   1.363   1.916   1.553  0.1999 -0.0129 -0.3150
  806SOL     OW 3276   1.612   2.072   1.499 -0.7556  0.4518  0.2796
  806SOL    HW2 3277   1.524   2.038   1.519 -1.1371  1.2051 -0.0936
  806SOL    HW3 3278   1.614   2.080   1.404 -0.6015  1.2825  0.3506
  806SOL    MW4 3279   1.600   2.069   1.489 -0.7856  0.6607  0.2396
  807SOL     OW 3280   1.586   2.325   1.621 -0.2308 -0.6636  0.0586
  807SOL    HW2 3281   1.665   2.366   1.586 -0.2725  0.0511  0.7817
  807SOL    HW3 3282   1.592   2.233   1.595  0.7252 -0.5583 -0.0766
  807SOL    MW4 3283   1.597   2.318   1.613 -0.1101 -0.5555  0.1361
  808SOL     OW 3284   1.349   2.424   1.490 -0.5736 -0.4164 -0.0058
  808SOL    HW2 3285   1.346   2.512   1.528  0.1911 -0.2072 -0.4137
  808SOL    HW3 3286   1.417   2.379   1.539  1.6404  0.4042 -2.2405
  808SOL    MW4 3287   1.357   2.430   1.501 -0.1807 -0.2806 -0.3543
  809SOL     OW 3288   1.342   2.675   1.621 -0.2835  0.2086  0.5389
  809SOL    HW2 3289   1.412   2.724   1.578  0.7715 -2.2844 -0.7044
  809SOL    HW3 3290   1.262   2.717   1.591  0.5621  0.8469 -0.9182
  809SOL    MW4 3291   1.341   2.687   1.611 -0.0328 -0.0360  0.1826
  810SOL     OW 3292   1.531   2.847   1.516 -0.0559  0.0089 -0.6400
  810SOL    HW2 3293   1.607   2.804   1.554 -0.1982  0.6790  0.4277
  810SOL    HW3 3294   1.552   2.856   1.423  0.8726 -0.4113 -0.4737
  810SOL    MW4 3295   1.544   2.842   1.508  0.0478  0.0417 -0.4772
  811SOL     OW 3296   1.565   3.082   1.660  0.1894  0.2186 -0.4209
  811SOL    HW2 3297   1.630   3.136   1.614  0.4941  1.0839  0.9925
  811SOL    HW3 3298   1.549   3.009   1.601  2.2630  0.1250 -0.9089
  811SOL    MW4 3299   1.572   3.080   1.646  0.5033  0.3207 -0.2989
  812SOL     OW 3300   1.349   3.209   1.545  0.2894 -0.3677  0.0371
  812SOL    HW2 3301   1.355   3.301   1.574  0.0932 -0.1046 -0.7453
  812SOL    HW3 3302   1.426   3.167   1.583  0.2689  0.0750  0.5809
  812SOL    MW4 3303   1.360   3.216   1.554  0.2608 -0.2744  0.0056
  813SOL     OW 3304   1.352   3.497   1.607 -0.0010 -0.0649 -0.3235
  813SOL    HW2 3305   1.373   3.486   1.700  1.6594 -1.3346 -0.8291
  813SOL    HW3 3306   1.430   3.538   1.570 -0.9298  1.0977 -1.0477
  813SOL    MW4 3307   1.365   3.501   1.615  0.0955 -0.0794 -0.4859
  814SOL     OW 3308   1.597   3.602   1.520 -0.2061 -0.1332 -0.0280
  814SOL    HW2 3309   1.612   3.687   1.561  2.4009 -0.3021 -0.5629
  814SOL    HW3 3310   1.586   3.621   1.427 -0.5802 -0.2847 -0.0152
  814SOL    MW4 3311   1.598   3.615   1.513  0.0883 -0.1755 -0.0969
  815SOL     OW 3312   1.650   3.850   1.613 -0.1996  0.3872  0.4514
  815SOL    HW2 3313   1.647   3.853   1.709  0.7376  0.2667  0.4882
  815SOL    HW3 3314   1.584   3.914   1.586  0.4607  1.4076  1.1869
  815SOL    MW4 3315   1.641   3.859   1.622  0.0112  0.5062  0.5534
  816SOL     OW 3316   1.396   3.990   1.597 -0.2966  0.1037 -0.4002
  816SOL    HW2 3317   1.398   4.081   1.625  0.0373  0.1012 -0.4197
  816SOL    HW3 3318   1.384   3.994   1.502  1.9933  0.1667 -0.7038
  816SOL    MW4 3319   1.394   4.002   1.588  0.0496  0.1116 -0.4429
  817SOL     OW 3320   1.365   4.258   1.655  0.0749 -0.1938 -0.0520
  817SOL    HW2 3321   1.444   4.295   1.615  0.2823 -1.7359 -1.1354
  817SOL    HW3 3322   1.293   4.304   1.612  0.3588  0.5873  0.2939
  817SOL    MW4 3323   1.366   4.269   1.644  0.1397 -0.2947 -0.1493
  818SOL     OW 3324   1.573   4.354   1.500 -0.1519 -0.2813 -0.0914
  818SOL    HW2 3325   1.644   4.304   1.539 -1.0801 -2.0188 -0.5896
  818SOL    HW3 3326   1.583   4.443   1.536  1.8831 -0.6596  0.2959
  818SOL    MW4 3327   1.583   4.359   1.510 -0.0060 -0.5598 -0.1060
  819SOL     OW 3328   1.980   4.613   1.639  0.4587 -0.1232 -0.1845
  819SOL    HW2 3329   1.988   4.638   1.731 -1.1207 -0.3039  0.0221
  819SOL    HW3 3330   1.911   4.671   1.605  1.4953  0.4138 -1.4340
  819SOL    MW4 3331   1.972   4.624   1.647  0.3871 -0.0758 -0.3220
  820SOL     OW 3332   1.792   0.118   1.530 -0.0315  0.0138  0.4838
  820SOL    HW2 3333   1.723   0.056   1.554 -1.8528  1.0299 -1.7854
  820SOL    HW3 3334   1.806   0.103   1.436  0.7621  1.7756  0.2969
  820SOL    MW4 3335   1.784   0.108   1.520 -0.1673  0.3803  0.1597
  821SOL     OW 3336   1.813   0.371   1.659  0.0457 -0.6401 -0.4213
  821SOL    HW2 3337   1.891   0.404   1.615  1.4758 -1.8165  1.1336
  821SOL    HW3 3338   1.805   0.280   1.630 -0.2459 -0.7838  0.0951
  821SOL    MW4 3339   1.822   0.364   1.650  0.1959 -0.8143 -0.1481
  822SOL     OW 3340   2.010   0.495   1.494  0.0289 -0.5643 -0.4249
  822SOL    HW2 3341   2.080   0.436   1.522  0.2511 -0.0053  0.2057
  822SOL    HW3 3342   2.016   0.569   1.553  1.3172  1.2541 -2.7549
  822SOL    MW4 3343   2.020   0.497   1.505  0.2282 -0.2506 -0.6491
  823SOL     OW 3344   2.023   0.741   1.632 -0.0438 -0.2023  0.0502
  823SOL    HW2 3345   2.107   0.779   1.606  0.5899 -0.3812  1.8099
  823SOL    HW3 3346   1.958   0.803   1.599  0.7954  0.2496 -0.7835
  823SOL    MW4 3347   2.025   0.754   1.624  0.1502 -0.1662  0.1725
  824SOL     OW 3348   1.805   0.890   1.503  0.5444 -0.0767  0.2409
  824SOL    HW2 3349   1.805   0.970   1.555 -1.2738  1.0085 -1.3563
  824SOL    HW3 3350   1.729   0.841   1.534  0.3383 -0.1348 -0.3597
  824SOL    MW4 3351   1.795   0.894   1.514  0.2774  0.0588 -0.0491
  825SOL     OW 3352   1.787   1.150   1.610  0.0867 -0.0799  0.2007
  825SOL    HW2 3353   1.861   1.195   1.569 -0.0799 -1.2740 -1.4774
  825SOL    HW3 3354   1.711   1.181   1.560 -0.3501 -0.0567  0.8851
  825SOL    MW4 3355   1.787   1.160   1.598  0.0072 -0.2342  0.0696
  826SOL     OW 3356   1.980   1.286   1.487 -0.6405 -0.3866 -0.6204
  826SOL    HW2 3357   1.991   1.373   1.524  0.8406 -0.5285 -0.7076
  826SOL    HW3 3358   1.993   1.297   1.393 -0.5530 -0.6885 -0.6454
  826SOL    MW4 3359   1.983   1.299   1.480 -0.4334 -0.4451 -0.6351
  827SOL     OW 3360   2.016   1.518   1.632 -0.2705 -0.3067  0.2690
  827SOL    HW2 3361   2.090   1.568   1.599 -0.9168  0.0435 -0.6651
  827SOL    HW3 3362   1.939   1.573   1.613 -0.7218 -0.4496  1.6536
  827SOL    MW4 3363   2.015   1.532   1.625 -0.4151 -0.2793  0.3283
  828SOL     OW 3364   1.802   1.698   1.594 -0.2810 -0.1985 -0.1111
  828SOL    HW2 3365   1.731   1.634   1.597 -1.5460  1.0319 -2.7440
  828SOL    HW3 3366   1.830   1.698   1.502  1.1973  1.4427  0.3179
  828SOL    MW4 3367   1.797   1.689   1.582 -0.2528  0.1804 -0.4020
  829SOL     OW 3368   1.819   1.969   1.644 -0.2405  0.1941  0.2769
  829SOL    HW2 3369   1.814   1.876   1.619 -0.9378  0.4925 -0.7209
  829SOL    HW3 3370   1.744   2.010   1.600  0.0105  1.2189  0.7853
  829SOL    MW4 3371   1.808   1.962   1.635 -0.2995  0.3687  0.2123
  830SOL     OW 3372   2.052   2.058   1.524  0.0198  0.0847 -0.1094
  830SOL    HW2 3373   2.131   2.014   1.555  0.6860  3.1538  2.7698
  830SOL    HW3 3374   1.980   2.012   1.567  0.3948 -0.8982 -0.5128
  830SOL    MW4 3375   2.053   2.046   1.533  0.1571  0.3600  0.2172
  831SOL     OW 3376   2.032   2.313   1.609 -0.3141  0.2470  0.3087
  831SOL    HW2 3377   2.042   2.319   1.704  1.0961  0.4222  0.1607
  831SOL    HW3 3378   2.046   2.221   1.589  1.1432  0.5179  0.0815
  831SOL    MW4 3379   2.035   2.302   1.619  0.0641  0.3059  0.2593
  832SOL     OW 3380   1.815   2.436   1.508  0.0474 -0.2782 -0.2168
  832SOL    HW2 3381   1.895   2.388   1.529  0.0612 -0.0685  0.2078
  832SOL    HW3 3382   1.815   2.443   1.412  1.0074  0.5291 -0.1623
  832SOL    MW4 3383   1.825   2.431   1.498  0.1761 -0.1438 -0.1535
  833SOL     OW 3384   1.769   2.694   1.598 -0.1400 -0.4350  0.0990
  833SOL    HW2 3385   1.846   2.747   1.579 -2.3948  2.0630 -2.5563
  833SOL    HW3 3386   1.786   2.611   1.553  1.5413 -0.4294  0.6691
  833SOL    MW4 3387   1.781   2.690   1.589 -0.2156 -0.1044 -0.1762
  834SOL     OW 3388   2.006   2.806   1.554  0.0643  0.0921  0.1387
  834SOL    HW2 3389   2.013   2.897   1.582 -1.7358  0.6040 -1.0003
  834SOL    HW3 3390   2.010   2.810   1.459  0.1297 -1.0461  0.0868
  834SOL    MW4 3391   2.007   2.819   1.545 -0.1645  0.0093 -0.0185
  835SOL     OW 3392   2.041   3.062   1.616 -0.1164 -0.0064  0.0315
  835SOL    HW2 3393   2.036   3.086   1.708 -0.3022  0.6266 -0.1419
  835SOL    HW3 3394   2.125   3.098   1.586 -0.4560  0.5418 -0.2618
  835SOL    MW4 3395   2.052   3.070   1.624 -0.1855  0.1495 -0.0302
  836SOL     OW 3396   1.813   3.218   1.538 -0.0992 -0.6527 -0.2055
  836SOL    HW2 3397   1.817   3.308   1.571 -0.7370 -0.8530  0.4311
  836SOL    HW3 3398   1.899   3.181   1.558  0.9548  0.4738 -2.4127
  836SOL    MW4 3399   1.825   3.225   1.545 -0.0442 -0.5305 -0.4127
  837SOL     OW 3400   1.829   3.476   1.609  0.2901 -0.1352 -0.1102
  837SOL    HW2 3401   1.831   3.495   1.703 -2.4271 -1.1195  0.2259
  837SOL    HW3 3402   1.748   3.517   1.579  1.1986  0.2499 -2.0495
  837SOL    MW4 3403   1.818   3.484   1.618  0.0514 -0.2139 -0.3216
  838SOL     OW 3404   2.082   3.562   1.509  0.3467 -0.1798 -0.3462
  838SOL    HW2 3405   2.148   3.505   1.548  0.6212 -0.2465 -0.9001
  838SOL    HW3 3406   1.998   3.523   1.535  0.4758  0.9667  1.9377
  838SOL    MW4 3407   2.079   3.550   1.518  0.3996 -0.0372 -0.1179
  839SOL     OW 3408   2.056   3.819   1.599  0.1863  0.6734 -0.5763
  839SOL    HW2 3409   2.124   3.859   1.545 -0.4171  0.8982 -1.1702
  839SOL    HW3 3410   2.063   3.725   1.581  1.7045  0.4653  0.9371
  839SOL    MW4 3411   2.066   3.812   1.590  0.3068  0.6757 -0.4550
  840SOL     OW 3412   1.848   3.979   1.481 -0.2739 -0.0623 -0.0457
  840SOL    HW2 3413   1.913   3.930   1.532  0.5529 -0.1447 -1.1551
  840SOL    HW3 3414   1.766   3.933   1.497  0.3262 -1.2586 -0.3208
  840SOL    MW4 3415   1.846   3.967   1.490 -0.0856 -0.2308 -0.2283
  841SOL     OW 3416   1.793   4.216   1.624 -0.0995 -0.0464  0.1439
  841SOL    HW2 3417   1.857   4.262   1.569 -0.0291  0.6701  0.8177
  841SOL    HW3 3418   1.798   4.125   1.595  0.9079  0.0861 -0.1082
  841SOL    MW4 3419   1.802   4.210   1.613  0.0427  0.0663  0.1997
  842SOL     OW 3420   2.003   4.369   1.521  0.1855 -0.1166 -0.1188
  842SOL    HW2 3421   2.073   4.333   1.577 -1.1719 -0.2775  1.5173
  842SOL    HW3 3422   1.984   4.455   1.559 -0.9912 -0.3758 -0.1022
  842SOL    MW4 3423   2.010   4.375   1.533 -0.1488 -0.1721  0.0992
  843SOL     OW 3424   2.481   4.660   1.606  0.1588  0.6167 -0.6239
  843SOL    HW2 3425   2.479   4.670   1.701  0.6883  2.3557 -0.7825
  843SOL    HW3 3426   2.394   4.684   1.577  0.3493  1.2583 -0.6756
  843SOL    MW4 3427   2.469   4.664   1.615  0.2539  0.9308 -0.6516
  844SOL     OW 3428   2.224   0.077   1.522 -0.1644  0.0134  0.0506
  844SOL    HW2 3429   2.154   0.016   1.545 -0.6633  0.3350 -0.5787
  844SOL    HW3 3430   2.217   0.086   1.427  0.1146  0.7941  0.1018
  844SOL    MW4 3431   2.214   0.070   1.512 -0.1931  0.1588 -0.0255
  845SOL     OW 3432   2.237   0.341   1.593 -0.3105  0.1735  0.1711
  845SOL    HW2 3433   2.226   0.344   1.688 -1.4289 -0.3702  0.0686
  845SOL    HW3 3434   2.242   0.247   1.573  0.7560  0.3065 -0.2191
  845SOL    MW4 3435   2.236   0.329   1.603 -0.3176  0.1193  0.1062
  846SOL     OW 3436   2.452   0.516   1.556 -0.0636  0.1491  0.1403
  846SOL    HW2 3437   2.530   0.463   1.572  0.2399 -0.4521 -2.9784
  846SOL    HW3 3438   2.379   0.454   1.565 -0.2141  0.6923  2.9705
  846SOL    MW4 3439   2.452   0.501   1.559 -0.0434  0.1414  0.1020
  847SOL     OW 3440   2.470   0.779   1.622  0.0300  0.1090  0.5180
  847SOL    HW2 3441   2.387   0.826   1.615  0.6087  1.2398  1.0058
  847SOL    HW3 3442   2.448   0.687   1.610 -1.0636  0.5535 -0.9852
  847SOL    MW4 3443   2.456   0.773   1.619 -0.0379  0.3168  0.3841
  848SOL     OW 3444   2.230   0.885   1.546 -0.3107  0.2755  0.2822
  848SOL    HW2 3445   2.236   0.979   1.563  0.8802  0.3895 -0.7458
  848SOL    HW3 3446   2.221   0.878   1.451  0.0212 -0.6761  0.3162
  848SOL    MW4 3447   2.229   0.896   1.536 -0.1097  0.1650  0.1510
  849SOL     OW 3448   2.234   1.164   1.555 -0.6544  0.0944 -0.0834
  849SOL    HW2 3449   2.239   1.180   1.650 -1.9435 -0.2360  0.0440
  849SOL    HW3 3450   2.144   1.185   1.532 -0.0965  1.0571 -1.4204
  849SOL    MW4 3451   2.223   1.169   1.565 -0.7508  0.1779 -0.2429
  850SOL     OW 3452   2.460   1.284   1.496 -0.1966 -0.0927  0.0513
  850SOL    HW2 3453   2.379   1.241   1.522 -0.1226 -0.8250 -0.9192
  850SOL    HW3 3454   2.468   1.265   1.403 -0.4195  2.4077 -0.5257
  850SOL    MW4 3455   2.450   1.276   1.487 -0.2160  0.1405 -0.1528
  851SOL     OW 3456   2.462   1.533   1.613 -0.2717 -0.0894  0.4484
  851SOL    HW2 3457   2.530   1.593   1.580 -3.1060  2.6347 -0.6838
  851SOL    HW3 3458   2.467   1.458   1.554  0.3591  1.0179 -0.9543
  851SOL    MW4 3459   2.472   1.531   1.601 -0.5627  0.4160  0.1140
  852SOL     OW 3460   2.241   1.660   1.499 -0.6273  0.0236  0.0320
  852SOL    HW2 3461   2.314   1.602   1.521 -0.2406 -0.1465 -1.6452
  852SOL    HW3 3462   2.254   1.681   1.407 -2.8322 -0.1716 -0.3402
  852SOL    MW4 3463   2.252   1.655   1.490 -0.8671 -0.0247 -0.2384
  853SOL     OW 3464   2.266   1.911   1.601  0.0510 -0.2792 -0.1015
  853SOL    HW2 3465   2.286   1.926   1.694 -0.3496 -0.4798  0.0210
  853SOL    HW3 3466   2.262   1.816   1.593 -0.1720 -0.2549 -0.2687
  853SOL    MW4 3467   2.268   1.900   1.612 -0.0312 -0.3026 -0.1074
  854SOL     OW 3468   2.504   2.040   1.521  0.0784 -0.1747 -0.3477
  854SOL    HW2 3469   2.419   1.999   1.539 -0.1131 -0.0650 -0.9882
  854SOL    HW3 3470   2.506   2.049   1.426  0.2977  0.8951 -0.2511
  854SOL    MW4 3471   2.493   2.036   1.511  0.0820 -0.0193 -0.4195
  855SOL     OW 3472   2.472   2.306   1.590 -0.1070  0.3947  0.0768
  855SOL    HW2 3473   2.462   2.325   1.683 -2.4035 -1.4802  0.2665
  855SOL    HW3 3474   2.480   2.210   1.586 -0.4119  0.4355 -1.6846
  855SOL    MW4 3475   2.472   2.296   1.602 -0.4504  0.1528 -0.1304
  856SOL     OW 3476   2.247   2.441   1.467 -0.2647  0.2533 -0.1955
  856SOL    HW2 3477   2.317   2.385   1.501 -0.1940 -1.2918 -2.7501
  856SOL    HW3 3478   2.167   2.402   1.500 -0.1313 -0.4646 -0.7144
  856SOL    MW4 3479   2.246   2.428   1.476 -0.2377 -0.0451 -0.6011
  857SOL     OW 3480   2.230   2.668   1.648 -0.0740 -0.0337 -0.2468
  857SOL    HW2 3481   2.228   2.583   1.604  1.2713  0.2655 -0.9015
  857SOL    HW3 3482   2.153   2.714   1.614 -0.8643 -1.0276  0.1900
  857SOL    MW4 3483   2.220   2.663   1.638 -0.0007 -0.1254 -0.2756
  858SOL     OW 3484   2.413   2.821   1.501 -0.3539 -0.0491 -0.0281
  858SOL    HW2 3485   2.417   2.906   1.546  1.9508 -0.6592  1.0144
  858SOL    HW3 3486   2.361   2.765   1.558 -0.8193  0.3042 -0.1039
  858SOL    MW4 3487   2.407   2.825   1.514 -0.1109 -0.0832  0.0993
  859SOL     OW 3488   2.484   3.059   1.640  0.1706 -0.0691 -0.5663
  859SOL    HW2 3489   2.565   3.099   1.609  0.3166  0.2173  0.1766
  859SOL    HW3 3490   2.415   3.110   1.597  0.3589  0.8208  0.1744
  859SOL    MW4 3491   2.486   3.071   1.630  0.2148  0.0863 -0.3705
  860SOL     OW 3492   2.273   3.180   1.519  0.3575 -0.1333  0.4538
  860SOL    HW2 3493   2.280   3.272   1.544 -1.3762  0.0350  0.3786
  860SOL    HW3 3494   2.270   3.182   1.423  1.1455 -0.3369  0.4223
  860SOL    MW4 3495   2.274   3.193   1.509  0.2329 -0.1378  0.4398
  861SOL     OW 3496   2.307   3.444   1.600 -0.0169 -0.2157  0.5254
  861SOL    HW2 3497   2.310   3.456   1.695 -0.3884  2.6203  0.2294
  861SOL    HW3 3498   2.366   3.511   1.566 -3.0049  1.5174 -1.4236
  861SOL    MW4 3499   2.315   3.454   1.608 -0.4601  0.3870  0.2291
  862SOL     OW 3500   2.515   3.612   1.489 -0.5277 -0.5895  0.7300
  862SOL    HW2 3501   2.573   3.566   1.549  1.2492  0.4708 -0.1038
  862SOL    HW3 3502   2.516   3.703   1.520 -1.3413 -0.4767  0.4241
  862SOL    MW4 3503   2.523   3.618   1.501 -0.4005 -0.4346  0.5796
  863SOL     OW 3504   2.508   3.883   1.581  0.3709 -0.4113  0.0056
  863SOL    HW2 3505   2.516   3.884   1.677  0.3962 -1.6645  0.0175
  863SOL    HW3 3506   2.590   3.923   1.550 -0.2137  1.2529  0.5199
  863SOL    MW4 3507   2.520   3.889   1.590  0.2971 -0.3572  0.0750
  864SOL     OW 3508   2.259   3.988   1.519 -0.2574 -0.4932 -0.0506
  864SOL    HW2 3509   2.345   3.961   1.551 -0.2767 -0.8336 -0.2825
  864SOL    HW3 3510   2.273   4.010   1.427 -0.7888 -2.4026 -0.6229
  864SOL    MW4 3511   2.272   3.987   1.511 -0.3302 -0.7899 -0.1569
  865SOL     OW 3512   2.223   4.241   1.629  0.6582  0.4369 -0.0802
  865SOL    HW2 3513   2.291   4.285   1.577  0.0424  1.4136 -0.0572
  865SOL    HW3 3514   2.223   4.151   1.596  0.6136  0.9262 -1.4396
  865SOL    MW4 3515   2.232   4.235   1.618  0.5710  0.6304 -0.2565
  866SOL     OW 3516   2.440   4.377   1.527  0.2769 -0.1973 -0.8832
  866SOL    HW2 3517   2.457   4.467   1.555  0.3938 -0.3083 -0.5933
  866SOL    HW3 3518   2.450   4.379   1.432 -1.8389  0.5679 -1.1119
  866SOL    MW4 3519   2.443   4.389   1.519  0.0134 -0.1106 -0.8752
  867SOL     OW 3520   2.938   0.045   1.621  0.1685 -0.6035 -0.1251
  867SOL    HW2 3521   2.943   0.036   1.716  1.3126 -3.4342 -0.3924
  867SOL    HW3 3522   2.853   0.084   1.605  0.3040  0.7033  2.0926
  867SOL    MW4 3523   2.928   0.049   1.632  0.3374 -0.8045  0.1323
  868SOL     OW 3524   2.691   0.129   1.495 -0.2176 -0.1363  0.2088
  868SOL    HW2 3525   2.690   0.218   1.531  1.9340  0.0460 -0.1468
  868SOL    HW3 3526   2.619   0.085   1.540  0.2171  1.0863  2.1660
  868SOL    MW4 3527   2.681   0.135   1.506  0.1237  0.0491  0.4202
  869SOL     OW 3528   2.667   0.369   1.620 -0.0305  0.1954  0.0406
  869SOL    HW2 3529   2.665   0.376   1.715 -3.7626  0.9413 -0.0159
  869SOL    HW3 3530   2.733   0.432   1.593 -0.4739  1.5914  2.0471
  869SOL    MW4 3531   2.675   0.378   1.629 -0.5815  0.4780  0.2979
  870SOL     OW 3532   2.882   0.532   1.549  0.3001  0.1704 -0.3057
  870SOL    HW2 3533   2.898   0.625   1.567  0.9725  0.0304 -0.1423
  870SOL    HW3 3534   2.903   0.521   1.456 -2.0121  0.6478 -0.9061
  870SOL    MW4 3535   2.887   0.543   1.539  0.0839  0.2149 -0.3635
  871SOL     OW 3536   2.936   0.797   1.622 -0.3467  0.1929 -0.0804
  871SOL    HW2 3537   2.937   0.780   1.716  1.0935 -0.3659 -0.1798
  871SOL    HW3 3538   2.852   0.840   1.606 -0.6966  0.0934  1.4206
  871SOL    MW4 3539   2.925   0.800   1.632 -0.2029  0.1061  0.1045
  872SOL     OW 3540   2.696   0.894   1.555 -0.5555  0.4800 -0.1149
  872SOL    HW2 3541   2.610   0.857   1.574 -0.6098  0.6452 -0.0376
  872SOL    HW3 3542   2.719   0.858   1.469 -0.0200 -0.7795  0.5367
  872SOL    MW4 3543   2.688   0.884   1.546 -0.4919  0.3356 -0.0187
  873SOL     OW 3544   2.682   1.168   1.625  0.0909 -0.0094  0.1172
  873SOL    HW2 3545   2.675   1.073   1.615 -0.8913  0.1561 -0.9748
  873SOL    HW3 3546   2.610   1.203   1.571  1.1827  1.3978 -0.4628
  873SOL    MW4 3547   2.671   1.160   1.617  0.1056  0.1980 -0.1035
  874SOL     OW 3548   2.918   1.283   1.510  0.3159 -0.6517  0.2542
  874SOL    HW2 3549   2.995   1.239   1.546  0.6085  1.2088  2.0206
  874SOL    HW3 3550   2.844   1.242   1.555  0.3598 -1.5954 -0.5343
  874SOL    MW4 3551   2.918   1.272   1.521  0.3603 -0.5307  0.3833
  875SOL     OW 3552   2.936   1.549   1.602 -0.2821  0.4753  0.3366
  875SOL    HW2 3553   2.851   1.586   1.578 -0.2930  0.1959 -0.0489
  875SOL    HW3 3554   2.933   1.459   1.572  0.3069  0.5782 -0.0441
  875SOL    MW4 3555   2.924   1.542   1.595 -0.2060  0.4520  0.2356
  876SOL     OW 3556   2.682   1.686   1.502 -0.1587 -0.1409  0.3557
  876SOL    HW2 3557   2.714   1.770   1.534  0.3362 -0.9773  2.0968
  876SOL    HW3 3558   2.702   1.687   1.408  0.5000  1.3758  0.4981
  876SOL    MW4 3559   2.689   1.697   1.494 -0.0067 -0.0511  0.6043
  877SOL     OW 3560   2.755   1.921   1.602  0.1243 -0.0978  0.3808
  877SOL    HW2 3561   2.756   1.918   1.698  0.6071 -1.0131  0.3511
  877SOL    HW3 3562   2.673   1.966   1.580 -1.3617 -2.3023  1.1739
  877SOL    MW4 3563   2.744   1.927   1.612 -0.0083 -0.5094  0.4815
  878SOL     OW 3564   2.947   2.049   1.453  1.0333 -0.1292  0.4074
  878SOL    HW2 3565   2.950   2.138   1.488  3.1923 -0.5304  1.3665
  878SOL    HW3 3566   2.883   2.003   1.508  0.9393  0.4802  0.8037
  878SOL    MW4 3567   2.939   2.054   1.465  1.3058 -0.1016  0.5864
  879SOL     OW 3568   2.924   2.302   1.564 -0.5992  0.2775  0.2369
  879SOL    HW2 3569   2.928   2.304   1.659 -2.3674  0.8974  0.3200
  879SOL    HW3 3570   2.857   2.367   1.541 -0.3992 -0.0654 -1.4093
  879SOL    MW4 3571   2.915   2.311   1.573 -0.8061  0.3140  0.0306
  880SOL     OW 3572   2.691   2.452   1.507  0.2525 -0.3354  0.0242
  880SOL    HW2 3573   2.700   2.537   1.551  0.0359 -0.4689  0.3248
  880SOL    HW3 3574   2.620   2.408   1.554  0.2880 -0.6383 -0.2063
  880SOL    MW4 3575   2.682   2.458   1.519  0.2286 -0.3929  0.0333
  881SOL     OW 3576   2.664   2.735   1.615  0.0278  0.0349  0.3079
  881SOL    HW2 3577   2.729   2.800   1.588 -0.0352  0.3122  0.8227
  881SOL    HW3 3578   2.583   2.763   1.574  0.2091 -0.2487 -0.2452
  881SOL    MW4 3579   2.662   2.747   1.606  0.0436  0.0339  0.3028
  882SOL     OW 3580   2.876   2.866   1.486  0.4470 -0.6224 -0.2394
  882SOL    HW2 3581   2.948   2.805   1.502  0.2135 -1.1667 -1.1954
  882SOL    HW3 3582   2.909   2.950   1.517  1.1059 -1.0683  0.2865
  882SOL    MW4 3583   2.890   2.869   1.492  0.5031 -0.7532 -0.2961
  883SOL     OW 3584   2.957   3.110   1.572  0.2389  0.5962 -0.0844
  883SOL    HW2 3585   2.973   3.106   1.667  0.1175 -0.3529 -0.1036
  883SOL    HW3 3586   3.022   3.173   1.540 -0.0028  1.2451  0.6892
  883SOL    MW4 3587   2.968   3.118   1.580  0.1910  0.5565  0.0153
  884SOL     OW 3588   2.703   3.214   1.525 -0.0351 -0.0714  0.2026
  884SOL    HW2 3589   2.783   3.174   1.558  1.3518  2.6164  0.2697
  884SOL    HW3 3590   2.703   3.194   1.432  1.8030  1.5258 -0.1926
  884SOL    MW4 3591   2.714   3.206   1.517  0.3905  0.4940  0.1593
  885SOL     OW 3592   2.721   3.487   1.630 -0.2006  0.6137  0.1676
  885SOL    HW2 3593   2.752   3.478   1.720  2.0607  0.2304 -0.6118
  885SOL    HW3 3594   2.714   3.397   1.598  2.8876  0.8453 -1.2774
  885SOL    MW4 3595   2.724   3.474   1.638  0.5052  0.5939 -0.1260
  886SOL     OW 3596   2.934   3.614   1.508  0.6492  0.3331  0.0234
  886SOL    HW2 3597   2.844   3.586   1.526  0.6491  0.7030  0.5995
  886SOL    HW3 3598   2.951   3.583   1.419  0.3702 -0.8005  0.3485
  886SOL    MW4 3599   2.924   3.606   1.498  0.6123  0.2325  0.1422
  887SOL     OW 3600   2.939   3.873   1.633  0.5337 -0.0373 -0.1454
  887SOL    HW2 3601   2.860   3.920   1.606 -0.4528 -1.0284  0.9291
  887SOL    HW3 3602   2.935   3.790   1.586  0.3342 -0.5530  0.7537
  887SOL    MW4 3603   2.928   3.868   1.623  0.3774 -0.2360  0.1149
  888SOL     OW 3604   2.737   4.015   1.510 -0.2375 -0.5699  0.1971
  888SOL    HW2 3605   2.723   4.105   1.537 -1.5037 -0.7436  0.1516
  888SOL    HW3 3606   2.722   4.016   1.415 -1.1760 -0.9968  0.3351
  888SOL    MW4 3607   2.733   4.027   1.501 -0.5283 -0.6495  0.2093
  889SOL     OW 3608   2.693   4.271   1.594 -0.6926 -0.3447  0.1425
  889SOL    HW2 3609   2.758   4.340   1.585 -0.2947 -0.7632 -0.2136
  889SOL    HW3 3610   2.610   4.312   1.570 -0.5068  0.0884  0.2420
  889SOL    MW4 3611   2.690   4.285   1.590 -0.6156 -0.3433  0.1086
  890SOL     OW 3612   2.883   4.446   1.551 -0.4293 -0.1267 -0.2766
  890SOL    HW2 3613   2.891   4.538   1.576 -1.7145 -0.0083 -0.2936
  890SOL    HW3 3614   2.888   4.447   1.455 -0.8571 -0.0334 -0.2978
  890SOL    MW4 3615   2.885   4.459   1.541 -0.6557 -0.0987 -0.2815
  891SOL     OW 3616   3.386   0.007   1.631 -0.3292 -0.4370 -0.2355
  891SOL    HW2 3617   3.461   0.050   1.590 -1.1706  0.7701 -0.5662
  891SOL    HW3 3618   3.377  -0.076   1.583  0.7475 -0.5677 -0.2228
  891SOL    MW4 3619   3.394   0.002   1.619 -0.2978 -0.2952 -0.2775
  892SOL     OW 3620   3.158   0.176   1.545 -0.0725 -0.0256 -0.3135
  892SOL    HW2 3621   3.224   0.112   1.572  0.9266  1.4294  0.7853
  892SOL    HW3 3622   3.074   0.134   1.563  0.5534 -1.4571 -0.6768
  892SOL    MW4 3623   3.156   0.162   1.551  0.1421 -0.0225 -0.2165
  893SOL     OW 3624   3.126   0.417   1.656  0.6046 -0.1691 -0.1981
  893SOL    HW2 3625   3.127   0.334   1.608  0.1796 -0.2845 -0.0090
  893SOL    HW3 3626   3.042   0.457   1.632  0.7122  0.1104 -0.1188
  893SOL    MW4 3627   3.115   0.412   1.646  0.5629 -0.1474 -0.1626
  894SOL     OW 3628   3.363   0.506   1.559 -0.3792 -0.6703  0.3902
  894SOL    HW2 3629   3.272   0.491   1.587 -0.3930  0.3215  0.8837
  894SOL    HW3 3630   3.362   0.488   1.465 -1.2188 -0.0835  0.2817
  894SOL    MW4 3631   3.351   0.501   1.551 -0.4916 -0.4619  0.4410
  895SOL     OW 3632   3.382   0.792   1.594  0.0431 -0.2797  0.1129
  895SOL    HW2 3633   3.385   0.799   1.689  2.2048  0.2409  0.0362
  895SOL    HW3 3634   3.391   0.699   1.576  1.8387 -0.1986  0.4054
  895SOL    MW4 3635   3.384   0.781   1.604  0.5655 -0.2003  0.1414
  896SOL     OW 3636   3.144   0.908   1.487 -0.5175  0.4861 -0.3595
  896SOL    HW2 3637   3.226   0.871   1.522 -0.1784  1.1883 -0.3998
  896SOL    HW3 3638   3.075   0.852   1.524 -0.1141  0.7563  0.8326
  896SOL    MW4 3639   3.146   0.896   1.497 -0.4194  0.6143 -0.2074
  897SOL     OW 3640   3.153   1.153   1.595 -0.1870 -0.1496 -0.5122
  897SOL    HW2 3641   3.166   1.138   1.689  0.1374 -0.6096 -0.6315
  897SOL    HW3 3642   3.147   1.065   1.557  0.5200  0.0259 -1.0398
  897SOL    MW4 3643   3.154   1.139   1.602 -0.0508 -0.1870 -0.5976
  898SOL     OW 3644   3.390   1.314   1.504 -0.1667  0.1581 -0.0071
  898SOL    HW2 3645   3.314   1.268   1.540 -1.0778  0.6557 -1.2791
  898SOL    HW3 3646   3.465   1.262   1.533 -1.1283 -1.6038 -0.6428
  898SOL    MW4 3647   3.390   1.301   1.513 -0.4139 -0.0087 -0.2587
  899SOL     OW 3648   3.357   1.573   1.597 -0.1530 -0.3284  0.3538
  899SOL    HW2 3649   3.367   1.579   1.692  1.2357 -1.8538  0.3180
  899SOL    HW3 3650   3.365   1.480   1.578 -0.2103 -0.0057 -1.3006
  899SOL    MW4 3651   3.359   1.562   1.607  0.0226 -0.4871  0.1309
  900SOL     OW 3652   3.142   1.648   1.456  0.7483  0.6153  0.0610
  900SOL    HW2 3653   3.218   1.610   1.500  0.3845  0.4102  0.5083
  900SOL    HW3 3654   3.069   1.632   1.515  0.2314  0.2157 -0.6776
  900SOL    MW4 3655   3.142   1.641   1.469  0.6320  0.5356  0.0226
  901SOL     OW 3656   3.186   1.933   1.555 -0.2847 -0.0933  0.4014
  901SOL    HW2 3657   3.203   1.839   1.552 -0.7115 -0.1536 -0.5856
  901SOL    HW3 3658   3.107   1.945   1.502  0.5292  0.9818 -0.6158
  901SOL    MW4 3659   3.177   1.923   1.547 -0.2337  0.0407  0.1370
  902SOL     OW 3660   3.379   2.104   1.428  0.4251 -0.2025  0.2885
  902SOL    HW2 3661   3.300   2.062   1.462 -0.2023  0.7487  0.0142
  902SOL    HW3 3662   3.365   2.108   1.333  2.0223 -2.5408 -0.0998
  902SOL    MW4 3663   3.367   2.099   1.420  0.5529 -0.3855  0.2010
  903SOL     OW 3664   3.397   2.340   1.577  0.1317  0.8644 -0.0299
  903SOL    HW2 3665   3.464   2.395   1.538  1.3432 -0.3640  0.2869
  903SOL    HW3 3666   3.408   2.255   1.535 -0.4603  0.3348  0.8573
  903SOL    MW4 3667   3.407   2.336   1.567  0.2136  0.6325  0.1290
  904SOL     OW 3668   3.157   2.430   1.466 -0.1514 -0.2904 -0.2134
  904SOL    HW2 3669   3.232   2.407   1.520  0.1449  0.5405 -0.2614
  904SOL    HW3 3670   3.084   2.382   1.504  0.1361 -0.0232  0.6768
  904SOL    MW4 3671   3.157   2.421   1.478 -0.0744 -0.1454 -0.1022
  905SOL     OW 3672   3.119   2.709   1.585  0.0069  0.0403 -0.4142
  905SOL    HW2 3673   3.201   2.750   1.559 -0.5245  0.9013 -0.7875
  905SOL    HW3 3674   3.107   2.636   1.525  0.5212 -0.1079 -0.3320
  905SOL    MW4 3675   3.128   2.705   1.574  0.0048  0.1345 -0.4528
  906SOL     OW 3676   3.344   2.830   1.487 -0.2459 -0.1895 -0.5986
  906SOL    HW2 3677   3.335   2.916   1.530  1.0996 -0.5001  0.3356
  906SOL    HW3 3678   3.347   2.850   1.393 -0.3917  0.7448 -0.4089
  906SOL    MW4 3679   3.343   2.844   1.480 -0.0875 -0.1070 -0.4503
  907SOL     OW 3680   3.377   3.097   1.610 -0.1634  0.2627  0.4606
  907SOL    HW2 3681   3.381   3.087   1.705 -0.4815 -0.2038  0.4298
  907SOL    HW3 3682   3.451   3.153   1.588  1.3809 -1.6201  0.7175
  907SOL    MW4 3683   3.387   3.103   1.620 -0.0017 -0.0472  0.4903
  908SOL     OW 3684   3.190   3.243   1.493  0.1491 -0.0948 -0.1157
  908SOL    HW2 3685   3.255   3.185   1.532  0.0568 -0.2872 -0.2432
  908SOL    HW3 3686   3.214   3.247   1.400 -0.9504 -1.4479 -0.4869
  908SOL    MW4 3687   3.202   3.236   1.486 -0.0083 -0.2990 -0.1814
  909SOL     OW 3688   3.139   3.493   1.635 -0.2228 -0.3886 -0.1227
  909SOL    HW2 3689   3.146   3.409   1.590 -0.4448 -0.8614  0.7235
  909SOL    HW3 3690   3.058   3.532   1.602  0.2132 -0.2151 -0.9993
  909SOL    MW4 3691   3.129   3.487   1.625 -0.1945 -0.4280 -0.1267
  910SOL     OW 3692   3.345   3.594   1.476  0.0873 -0.3606 -0.3294
  910SOL    HW2 3693   3.423   3.571   1.526  0.3922  0.3984 -0.4530
  910SOL    HW3 3694   3.273   3.548   1.521  0.2006  1.1379  1.4254
  910SOL    MW4 3695   3.345   3.585   1.489  0.1423 -0.0629 -0.1142
  911SOL     OW 3696   3.350   3.857   1.605 -0.1661 -0.3150 -0.1818
  911SOL    HW2 3697   3.278   3.908   1.567 -0.2820 -0.3296  0.0125
  911SOL    HW3 3698   3.351   3.775   1.556 -0.0722 -0.1815 -0.4013
  911SOL    MW4 3699   3.340   3.853   1.594 -0.1690 -0.2992 -0.1853
  912SOL     OW 3700   3.126   4.030   1.504  0.0315  0.5356 -0.0099
  912SOL    HW2 3701   3.124   4.119   1.541  0.9857  0.0694  1.1948
  912SOL    HW3 3702   3.078   3.977   1.568 -0.9359  0.2510 -0.9523
  912SOL    MW4 3703   3.119   4.035   1.517  0.0296  0.4358  0.0247
  913SOL     OW 3704   3.155   4.291   1.614 -0.1615  0.4383  0.0369
  913SOL    HW2 3705   3.146   4.279   1.709  1.2066  1.0618  0.2576
  913SOL    HW3 3706   3.083   4.349   1.590  0.4369  1.5787  0.9683
  913SOL    MW4 3707   3.145   4.297   1.623  0.0982  0.6714  0.1889
  914SOL     OW 3708   3.392   4.422   1.511  0.1018  0.4542 -0.5974
  914SOL    HW2 3709   3.327   4.355   1.532 -2.1753  2.4903 -1.0820
  914SOL    HW3 3710   3.401   4.418   1.416  1.0366 -0.0957 -0.4996
  914SOL    MW4 3711   3.385   4.413   1.501 -0.0753  0.6509 -0.6483
  915SOL     OW 3712   3.854   4.639   1.581  0.3893 -0.1165  0.1017
  915SOL    HW2 3713   3.845   4.628   1.676  1.6729  0.4706  0.2974
  915SOL    HW3 3714   3.945   4.665   1.568  0.1463  0.0936 -1.2715
  915SOL    MW4 3715   3.865   4.641   1.592  0.5264 -0.0110 -0.0535
  916SOL     OW 3716   3.618   0.124   1.554  0.0804  0.1260  0.4055
  916SOL    HW2 3717   3.703   0.087   1.579 -0.0067 -0.3785 -0.0205
  916SOL    HW3 3718   3.613   0.110   1.459 -0.4053  0.3037  0.4040
  916SOL    MW4 3719   3.629   0.117   1.544  0.0048  0.0829  0.3492
  917SOL     OW 3720   3.610   0.394   1.645 -0.2305 -0.2430  0.4336
  917SOL    HW2 3721   3.609   0.302   1.617 -0.2238 -0.6036  1.5779
  917SOL    HW3 3722   3.526   0.429   1.615 -1.2872 -1.2872  2.1079
  917SOL    MW4 3723   3.599   0.386   1.637 -0.3693 -0.4283  0.8054
  918SOL     OW 3724   3.817   0.485   1.490 -0.5225 -0.2955 -0.3635
  918SOL    HW2 3725   3.747   0.437   1.533  0.5489 -1.2116  0.3806
  918SOL    HW3 3726   3.807   0.465   1.397 -1.5344 -0.0340 -0.3091
  918SOL    MW4 3727   3.807   0.476   1.483 -0.5147 -0.3819 -0.2580
  919SOL     OW 3728   3.856   0.753   1.542  0.1195  0.2430  0.6572
  919SOL    HW2 3729   3.771   0.794   1.524  0.1194  0.8426  2.0131
  919SOL    HW3 3730   3.843   0.660   1.522 -0.0190  0.7825 -1.9576
  919SOL    MW4 3731   3.843   0.746   1.537  0.1013  0.3932  0.4910
  920SOL     OW 3732   3.627   0.881   1.487  0.0595  0.1789 -0.2938
  920SOL    HW2 3733   3.541   0.846   1.509  1.0177 -1.7079  0.5771
  920SOL    HW3 3734   3.636   0.868   1.393 -0.3592 -0.2365 -0.2766
  920SOL    MW4 3735   3.617   0.875   1.478  0.1309 -0.1248 -0.1768
  921SOL     OW 3736   3.611   1.144   1.602 -0.0319 -0.4662  0.1978
  921SOL    HW2 3737   3.691   1.194   1.585  0.0137 -0.4949  0.3311
  921SOL    HW3 3738   3.629   1.058   1.563  0.2385 -0.6710  0.7598
  921SOL    MW4 3739   3.624   1.139   1.594  0.0100 -0.4970  0.2898
  922SOL     OW 3740   3.836   1.286   1.509 -0.1292  0.5075 -0.5266
  922SOL    HW2 3741   3.910   1.245   1.553 -0.1375  0.6950 -0.3366
  922SOL    HW3 3742   3.838   1.377   1.538 -0.4375  0.5120 -0.5109
  922SOL    MW4 3743   3.846   1.292   1.519 -0.1712  0.5329 -0.4995
  923SOL     OW 3744   3.807   1.547   1.560 -0.3983 -0.3923 -0.2939
  923SOL    HW2 3745   3.792   1.546   1.654 -1.7727 -0.2612 -0.4993
  923SOL    HW3 3746   3.735   1.600   1.524  1.3678  1.4909 -1.2132
  923SOL    MW4 3747   3.795   1.554   1.567 -0.3464 -0.1265 -0.4424
  924SOL     OW 3748   3.590   1.688   1.476 -0.3319  0.8609 -0.1766
  924SOL    HW2 3749   3.510   1.647   1.508  0.0461  0.0695 -0.2470
  924SOL    HW3 3750   3.593   1.665   1.383  0.9482 -0.6785  0.2426
  924SOL    MW4 3751   3.579   1.680   1.468 -0.1132  0.5534 -0.1305
  925SOL     OW 3752   3.580   1.952   1.580  0.1196  0.2601  0.2781
  925SOL    HW2 3753   3.585   1.864   1.544  1.7748  0.1926  0.6418
  925SOL    HW3 3754   3.511   1.995   1.529 -1.3504 -1.5141  0.7240
  925SOL    MW4 3755   3.572   1.946   1.568  0.1440  0.0170  0.3848
  926SOL     OW 3756   3.825   2.056   1.477  0.3280 -0.3123 -0.1563
  926SOL    HW2 3757   3.812   2.147   1.504  1.2002  0.2298 -1.5125
  926SOL    HW3 3758   3.747   2.011   1.509 -0.4647  1.0532 -0.0926
  926SOL    MW4 3759   3.813   2.062   1.485  0.3388 -0.0603 -0.3269
  927SOL     OW 3760   3.795   2.317   1.586  0.0866  0.0826 -0.3122
  927SOL    HW2 3761   3.785   2.319   1.682  0.6429  1.4233 -0.2716
  927SOL    HW3 3762   3.879   2.359   1.570  0.7729 -1.6270 -1.3112
  927SOL    MW4 3763   3.804   2.323   1.597  0.2506  0.0339 -0.4387
  928SOL     OW 3764   3.614   2.459   1.449  0.0762  0.6186 -0.6388
  928SOL    HW2 3765   3.585   2.543   1.485  2.6797  2.3806 -2.4951
  928SOL    HW3 3766   3.667   2.421   1.518 -0.7466  0.6725  0.0414
  928SOL    MW4 3767   3.617   2.465   1.463  0.3111  0.8583 -0.7941
  929SOL     OW 3768   3.569   2.696   1.592  0.0127  0.6257 -0.5064
  929SOL    HW2 3769   3.577   2.703   1.688 -0.0390  0.8285 -0.5171
  929SOL    HW3 3770   3.482   2.731   1.573  0.5302  1.7942 -0.7545
  929SOL    MW4 3771   3.559   2.701   1.602  0.0741  0.8066 -0.5406
  930SOL     OW 3772   3.795   2.837   1.507 -0.2485  0.1173  0.2657
  930SOL    HW2 3773   3.865   2.787   1.549 -1.6721 -1.6132  0.6220
  930SOL    HW3 3774   3.714   2.796   1.537 -1.4865  2.8581  0.8322
  930SOL    MW4 3775   3.793   2.825   1.516 -0.5996  0.2508  0.3875
  931SOL     OW 3776   3.838   3.091   1.631  0.0362  0.3717 -0.0151
  931SOL    HW2 3777   3.927   3.114   1.604  0.6282 -0.3628  1.2478
  931SOL    HW3 3778   3.827   3.000   1.602 -0.2492  0.4158 -0.0447
  931SOL    MW4 3779   3.848   3.082   1.623  0.0768  0.2804  0.1476
  932SOL     OW 3780   3.609   3.239   1.534 -0.1795 -0.1948  0.2454
  932SOL    HW2 3781   3.691   3.193   1.553 -0.2485 -0.3425  0.1829
  932SOL    HW3 3782   3.603   3.239   1.439 -0.4308 -0.4992  0.2598
  932SOL    MW4 3783   3.619   3.233   1.524 -0.2217 -0.2546  0.2390
  933SOL     OW 3784   3.562   3.494   1.619  0.4415  0.2944  0.3091
  933SOL    HW2 3785   3.633   3.541   1.575  0.6033 -0.7751 -0.5958
  933SOL    HW3 3786   3.587   3.402   1.613 -0.4291  0.0027  1.0654
  933SOL    MW4 3787   3.575   3.488   1.612  0.3479  0.1149  0.2894
  934SOL     OW 3788   3.792   3.629   1.529  0.3655  0.6046  0.3254
  934SOL    HW2 3789   3.854   3.576   1.578 -1.4039 -0.3543  1.6189
  934SOL    HW3 3790   3.806   3.719   1.558  3.3156  0.8922 -1.7956
  934SOL    MW4 3791   3.802   3.634   1.539  0.5214  0.5159  0.2161
  935SOL     OW 3792   3.802   3.888   1.630  0.5180  0.2957  0.0893
  935SOL    HW2 3793   3.883   3.929   1.601 -0.2046  1.8353  0.2101
  935SOL    HW3 3794   3.736   3.915   1.565 -0.3986  1.0225  1.3038
  935SOL    MW4 3795   3.804   3.897   1.617  0.3016  0.5949  0.2654
  936SOL     OW 3796   3.596   3.978   1.469  0.0985  0.1672  0.3188
  936SOL    HW2 3797   3.594   4.069   1.500 -1.6970  0.1374  0.3055
  936SOL    HW3 3798   3.522   3.936   1.512  0.9836 -1.3465  0.4215
  936SOL    MW4 3799   3.586   3.984   1.479 -0.0217 -0.0365  0.3306
  937SOL     OW 3800   3.583   4.235   1.588  0.0455  0.0866  0.1294
  937SOL    HW2 3801   3.574   4.210   1.680  1.7593 -0.3571  0.1932
  937SOL    HW3 3802   3.514   4.301   1.574 -0.6360 -0.3087  1.5492
  937SOL    MW4 3803   3.573   4.241   1.598  0.1817 -0.0248  0.3252
  938SOL     OW 3804   3.791   4.392   1.473 -0.8872 -0.0082 -0.1683
  938SOL    HW2 3805   3.719   4.352   1.522 -0.8542  0.3096  0.1385
  938SOL    HW3 3806   3.799   4.480   1.509  0.4329 -0.4308  0.6137
  938SOL    MW4 3807   3.783   4.398   1.484 -0.7088 -0.0219 -0.0248
  939SOL     OW 3808   4.360   4.657   1.623 -0.2340 -0.3740  0.1678
  939SOL    HW2 3809   4.351   4.641   1.717  0.0384 -1.6876 -0.0178
  939SOL    HW3 3810   4.333   4.575   1.582  0.8333 -0.2321 -0.8536
  939SOL    MW4 3811   4.355   4.644   1.630 -0.0572 -0.5283  0.0086
  940SOL     OW 3812   4.094   0.080   1.532  0.1038 -0.5805 -0.2430
  940SOL    HW2 3813   4.076   0.170   1.562  1.4415 -0.2204 -0.4974
  940SOL    HW3 3814   4.175   0.056   1.577  0.9383 -0.8559 -1.8550
  940SOL    MW4 3815   4.102   0.089   1.542  0.3905 -0.5693 -0.4892
  941SOL     OW 3816   4.043   0.377   1.581 -0.2704  0.4543  0.3087
  941SOL    HW2 3817   4.046   0.391   1.676  1.7151  3.0040 -0.0774
  941SOL    HW3 3818   3.958   0.411   1.555 -1.3062 -1.2984  1.2918
  941SOL    MW4 3819   4.032   0.384   1.590 -0.1454  0.5594  0.3873
  942SOL     OW 3820   4.266   0.501   1.484  0.0343 -0.4435  0.4317
  942SOL    HW2 3821   4.200   0.446   1.526 -0.3308 -0.0067  0.4350
  942SOL    HW3 3822   4.350   0.464   1.512 -0.2075 -1.1180  0.2761
  942SOL    MW4 3823   4.268   0.489   1.493 -0.0463 -0.4749  0.4115
  943SOL     OW 3824   4.286   0.741   1.610 -0.0067 -0.2878 -0.0919
  943SOL    HW2 3825   4.262   0.659   1.566  0.7912 -0.5034 -0.1313
  943SOL    HW3 3826   4.365   0.770   1.565  0.6350 -0.3360  0.9771
  943SOL    MW4 3827   4.293   0.734   1.598  0.1836 -0.3225  0.0441
  944SOL     OW 3828   4.092   0.911   1.479  0.2855 -0.5789 -0.0892
  944SOL    HW2 3829   4.163   0.862   1.520  0.4692  0.1926  0.5193
  944SOL    HW3 3830   4.014   0.858   1.494  0.4660 -0.6297  0.6527
  944SOL    MW4 3831   4.091   0.897   1.486  0.3338 -0.4839  0.0889
  945SOL     OW 3832   4.092   1.166   1.585 -0.0879 -0.1469 -0.6156
  945SOL    HW2 3833   4.118   1.175   1.676  2.7984  0.5346 -1.4810
  945SOL    HW3 3834   4.097   1.072   1.568  0.7066 -0.1372 -0.4439
  945SOL    MW4 3835   4.096   1.155   1.595  0.3982 -0.0558 -0.7070
  946SOL     OW 3836   4.326   1.249   1.453 -0.0574 -0.3447 -0.0904
  946SOL    HW2 3837   4.243   1.226   1.494  0.8085 -0.1976  1.8183
  946SOL    HW3 3838   4.392   1.204   1.505  1.0853 -0.2889 -1.4540
  946SOL    MW4 3839   4.324   1.240   1.465  0.2074 -0.3179 -0.0186
  947SOL     OW 3840   4.254   1.489   1.594 -0.0463 -0.1226  0.4202
  947SOL    HW2 3841   4.248   1.414   1.534 -0.0109 -0.0137  0.2788
  947SOL    HW3 3842   4.324   1.543   1.557 -0.7416  0.4773 -0.0430
  947SOL    MW4 3843   4.262   1.486   1.581 -0.1345 -0.0291  0.3403
  948SOL     OW 3844   4.057   1.663   1.518  0.2026 -0.7522 -0.2521
  948SOL    HW2 3845   4.123   1.604   1.556 -0.0337 -1.2593 -0.6362
  948SOL    HW3 3846   3.974   1.619   1.534 -0.1159  0.2211  0.8561
  948SOL    MW4 3847   4.055   1.650   1.525  0.1292 -0.6907 -0.1565
  949SOL     OW 3848   4.061   1.941   1.575 -0.5502 -0.2571 -0.2085
  949SOL    HW2 3849   4.073   1.851   1.545  0.0640 -0.5024  0.7659
  949SOL    HW3 3850   3.982   1.971   1.529 -0.7702 -1.2921 -0.5221
  949SOL    MW4 3851   4.052   1.933   1.565 -0.4988 -0.4262 -0.1212
  950SOL     OW 3852   4.289   2.090   1.524 -0.1402  0.6663  0.2197
  950SOL    HW2 3853   4.217   2.029   1.543 -1.9429  2.4718 -0.7157
  950SOL    HW3 3854   4.297   2.089   1.429  1.3310  0.2190  0.3368
  950SOL    MW4 3855   4.280   2.081   1.514 -0.1841  0.8452  0.1116
  951SOL     OW 3856   4.276   2.366   1.570 -0.0186 -0.4928 -0.1020
  951SOL    HW2 3857   4.261   2.356   1.664  1.7099 -0.4580  0.1868
  951SOL    HW3 3858   4.297   2.278   1.539 -1.1279 -0.6023 -0.5631
  951SOL    MW4 3859   4.277   2.353   1.578  0.0625 -0.5026 -0.1248
  952SOL     OW 3860   4.028   2.466   1.512  0.4862  0.1525  0.6578
  952SOL    HW2 3861   4.029   2.556   1.543  3.7190  0.6132 -0.6207
  952SOL    HW3 3862   4.119   2.436   1.521 -0.1687 -2.3687 -0.6141
  952SOL    MW4 3863   4.040   2.474   1.517  0.8264 -0.1194  0.3213
  953SOL     OW 3864   4.030   2.736   1.606 -0.4520 -0.1670 -0.3750
  953SOL    HW2 3865   4.038   2.726   1.701  0.9505  0.0681 -0.4614
  953SOL    HW3 3866   4.116   2.768   1.578 -1.3108  1.1690 -1.5450
  953SOL    MW4 3867   4.042   2.739   1.615 -0.3805  0.0403 -0.5407
  954SOL     OW 3868   4.262   2.832   1.517 -0.3632  0.0007  0.0730
  954SOL    HW2 3869   4.253   2.921   1.550  2.9252  0.2440  0.5407
  954SOL    HW3 3870   4.272   2.843   1.422 -2.5017 -0.1065 -0.1826
  954SOL    MW4 3871   4.262   2.845   1.508 -0.2112  0.0186  0.1010
  955SOL     OW 3872   4.269   3.096   1.583 -0.3203 -0.5683 -0.2539
  955SOL    HW2 3873   4.276   3.108   1.678 -1.5698 -2.9462  0.1917
  955SOL    HW3 3874   4.349   3.136   1.548 -0.5020  1.5723  1.6537
  955SOL    MW4 3875   4.281   3.103   1.591 -0.5088 -0.5996  0.0566
  956SOL     OW 3876   4.053   3.238   1.512  0.3748 -0.2320 -0.0735
  956SOL    HW2 3877   4.039   3.322   1.556  2.7025 -0.0486  0.3452
  956SOL    HW3 3878   4.136   3.205   1.547 -0.7687 -2.9868  0.1867
  956SOL    MW4 3879   4.062   3.244   1.523  0.5312 -0.5717  0.0161
  957SOL     OW 3880   4.009   3.488   1.626  0.3241 -0.0927  0.2561
  957SOL    HW2 3881   4.029   3.515   1.715  1.5291 -1.1667  0.3258
  957SOL    HW3 3882   4.072   3.534   1.572  0.8027 -0.8598  0.1452
  957SOL    MW4 3883   4.020   3.497   1.630  0.5465 -0.3359  0.2506
  958SOL     OW 3884   4.222   3.594   1.530 -0.1600 -0.2306 -0.1010
  958SOL    HW2 3885   4.229   3.672   1.585  2.2748 -0.5889  0.1691
  958SOL    HW3 3886   4.257   3.621   1.446 -0.5825 -0.6604 -0.4170
  958SOL    MW4 3887   4.227   3.608   1.526  0.1054 -0.3345 -0.1070
  959SOL     OW 3888   4.243   3.841   1.645 -0.4323 -0.5626 -0.1064
  959SOL    HW2 3889   4.189   3.905   1.598 -0.6987 -2.0735 -1.9292
  959SOL    HW3 3890   4.333   3.867   1.624 -0.4775  0.6708  1.1750
  959SOL    MW4 3891   4.248   3.853   1.636 -0.4735 -0.5994 -0.1779
  960SOL     OW 3892   4.028   4.004   1.527  0.6124  0.4730 -0.0828
  960SOL    HW2 3893   4.010   4.098   1.534  2.1344  0.7675 -0.1076
  960SOL    HW3 3894   4.049   3.991   1.435 -1.7923 -0.3011 -0.5556
  960SOL    MW4 3895   4.028   4.015   1.516  0.4964  0.4096 -0.1485
  961SOL     OW 3896   4.029   4.291   1.567  0.1908  0.4159  0.2565
  961SOL    HW2 3897   4.026   4.301   1.662 -1.1416  0.9849  0.1583
  961SOL    HW3 3898   3.950   4.334   1.535  0.6535  0.2813 -1.1201
  961SOL    MW4 3899   4.018   4.298   1.575  0.0758  0.4730  0.0620
  962SOL     OW 3900   4.259   4.426   1.507  0.4648  0.0752  0.2185
  962SOL    HW2 3901   4.182   4.374   1.530  0.2884  0.5085  0.6018
  962SOL    HW3 3902   4.250   4.442   1.413 -1.2201  2.2629  0.7242
  962SOL    MW4 3903   4.248   4.421   1.497  0.2189  0.4215  0.3359
  963SOL     OW 3904   0.265   4.666   1.910  0.1984  0.5387 -0.1276
  963SOL    HW2 3905   0.352   4.691   1.940  0.2577  0.0517  0.1083
  963SOL    HW3 3906   0.276   4.642   1.818 -0.0433  2.3619 -0.6509
  963SOL    MW4 3907   0.278   4.666   1.902  0.1743  0.7157 -0.1656
  964SOL     OW 3908   0.031   0.130   1.965 -0.0382 -0.4808 -0.2006
  964SOL    HW2 3909   0.050   0.214   1.922  0.0786 -1.1168 -1.4151
  964SOL    HW3 3910   0.114   0.083   1.964  0.1063 -0.2910  1.2516
  964SOL    MW4 3911   0.044   0.135   1.959 -0.0037 -0.5396 -0.1693
  965SOL     OW 3912   0.052   0.379   1.859 -0.0047  0.0899 -0.0751
  965SOL    HW2 3913  -0.030   0.421   1.885 -1.1919 -2.7007  0.7669
  965SOL    HW3 3914   0.119   0.421   1.913 -1.3204  0.1373  1.5505
  965SOL    MW4 3915   0.050   0.390   1.869 -0.3349 -0.2721  0.2505
  966SOL     OW 3916   0.254   0.497   1.994  0.3216 -0.3421 -0.7582
  966SOL    HW2 3917   0.339   0.454   1.987  0.6323  0.4309 -1.7851
  966SOL    HW3 3918   0.266   0.581   1.951 -0.7189  0.1378 -0.1325
  966SOL    MW4 3919   0.267   0.502   1.988  0.2253 -0.1768 -0.8112
  967SOL     OW 3920   0.250   0.748   1.870  0.0801 -0.3634 -0.4070
  967SOL    HW2 3921   0.323   0.795   1.910 -0.1433 -0.5847  0.2750
  967SOL    HW3 3922   0.263   0.758   1.776  0.1866  0.8126 -0.2710
  967SOL    MW4 3923   0.262   0.755   1.863  0.0647 -0.2375 -0.2991
  968SOL     OW 3924   0.038   0.918   1.999 -0.4170 -0.0659  0.3588
  968SOL    HW2 3925  -0.042   0.872   1.974 -0.9116  0.7904  0.3654
  968SOL    HW3 3926   0.108   0.866   1.959 -1.0981  0.4533 -1.5741
  968SOL    MW4 3927   0.037   0.905   1.991 -0.5721  0.1156  0.1047
  969SOL     OW 3928   0.021   1.153   1.864 -0.0352 -0.3341  0.3049
  969SOL    HW2 3929  -0.045   1.196   1.919 -0.1388 -0.1534  0.0416
  969SOL    HW3 3930   0.025   1.063   1.897 -0.6591 -0.4408  0.1031
  969SOL    MW4 3931   0.013   1.147   1.875 -0.1312 -0.3244  0.2435
  970SOL     OW 3932   0.246   1.308   1.965  0.3292  0.7493  0.0893
  970SOL    HW2 3933   0.246   1.400   1.939  1.3269  0.3449 -1.4036
  970SOL    HW3 3934   0.171   1.271   1.919  1.7346  0.1700 -1.8292
  970SOL    MW4 3935   0.236   1.315   1.955  0.6462  0.6196 -0.3607
  971SOL     OW 3936   0.218   1.568   1.878  0.0314  0.5167 -0.4517
  971SOL    HW2 3937   0.303   1.601   1.906 -0.3000  1.4076 -0.4998
  971SOL    HW3 3938   0.155   1.632   1.910 -0.7096 -0.5744  0.3345
  971SOL    MW4 3939   0.221   1.581   1.886 -0.1101  0.4902 -0.3543
  972SOL     OW 3940   4.471   1.701   1.961 -0.1431  0.0917  0.2260
  972SOL    HW2 3941   4.453   1.703   2.055 -1.4046  0.7131 -0.0084
  972SOL    HW3 3942   4.424   1.624   1.929  0.7207 -0.4206  0.1859
  972SOL    MW4 3943   4.462   1.691   1.969 -0.1955  0.1061  0.1898
  973SOL     OW 3944   0.038   1.963   1.865  0.2963  0.1494  0.0735
  973SOL    HW2 3945  -0.044   2.010   1.880  1.3947  2.4064 -0.6542
  973SOL    HW3 3946   0.029   1.882   1.914 -1.7317  1.0803  1.2965
  973SOL    MW4 3947   0.026   1.959   1.873  0.1740  0.5701  0.1389
  974SOL     OW 3948   0.234   2.089   1.998  0.1493  0.4691 -0.2429
  974SOL    HW2 3949   0.247   2.173   1.955  1.7622  0.5496  0.3766
  974SOL    HW3 3950   0.165   2.046   1.947  0.5914  1.4161 -1.6491
  974SOL    MW4 3951   0.226   2.094   1.986  0.4204  0.6046 -0.3467
  975SOL     OW 3952   0.256   2.323   1.862  0.1232  0.1156 -0.0101
  975SOL    HW2 3953   0.320   2.388   1.891 -1.0979  0.9741  0.7930
  975SOL    HW3 3954   0.171   2.358   1.889 -0.7098 -0.9649 -1.1371
  975SOL    MW4 3955   0.253   2.336   1.870 -0.1478  0.0863 -0.0527
  976SOL     OW 3956   0.010   2.430   1.950  0.0647  0.1917 -0.0119
  976SOL    HW2 3957   0.010   2.417   2.045  1.5782  0.2021 -0.0061
  976SOL    HW3 3958   0.006   2.526   1.939  0.6004  0.2200  0.0450
  976SOL    MW4 3959   0.010   2.441   1.961  0.3350  0.1972 -0.0037
  977SOL     OW 3960   0.028   2.695   1.895 -0.4821  0.6704 -0.0582
  977SOL    HW2 3961  -0.029   2.769   1.918 -0.8709  0.7954 -1.3978
  977SOL    HW3 3962   0.022   2.689   1.800  2.0045  0.8812 -0.2592
  977SOL    MW4 3963   0.020   2.704   1.885 -0.2053  0.7148 -0.2614
  978SOL     OW 3964   0.274   2.830   1.944 -0.2127  0.0628 -0.3097
  978SOL    HW2 3965   0.242   2.915   1.912  0.3669  0.0718 -0.8611
  978SOL    HW3 3966   0.198   2.773   1.937 -0.1874  0.1454 -1.4111
  978SOL    MW4 3967   0.260   2.834   1.939 -0.1329  0.0746 -0.5279
  979SOL     OW 3968   0.194   3.082   1.896  0.4189  0.2695 -0.2009
  979SOL    HW2 3969   0.259   3.132   1.945 -0.0829  2.6780 -1.9102
  979SOL    HW3 3970   0.215   3.097   1.804 -2.2646  0.7491 -0.7848
  979SOL    MW4 3971   0.205   3.090   1.891 -0.0014  0.6504 -0.5035
  980SOL     OW 3972   4.472   3.226   1.961  0.1850  0.3043  0.4419
  980SOL    HW2 3973   4.395   3.181   1.926  0.6201 -0.1651  0.0889
  980SOL    HW3 3974   4.546   3.170   1.936  0.5037 -0.0367  2.0826
  980SOL    MW4 3975   4.471   3.212   1.953  0.2842  0.1972  0.6118
  981SOL     OW 3976   0.003   3.493   1.869 -0.0162 -0.3719  0.6914
  981SOL    HW2 3977   0.080   3.529   1.912 -0.7358  0.7620  1.0427
  981SOL    HW3 3978  -0.017   3.413   1.917  0.1166  0.0652  1.4739
  981SOL    MW4 3979   0.010   3.487   1.881 -0.0935 -0.1647  0.8410
  982SOL     OW 3980   0.236   3.596   1.981  0.3688  0.1389  0.0291
  982SOL    HW2 3981   0.235   3.580   2.076  0.5745  0.5775  0.1017
  982SOL    HW3 3982   0.316   3.554   1.951  0.6359  0.5724  0.1422
  982SOL    MW4 3983   0.246   3.588   1.990  0.4312  0.2539  0.0536
  983SOL     OW 3984   0.209   3.852   1.909 -0.1762  0.0573 -0.1958
  983SOL    HW2 3985   0.291   3.894   1.932  0.1358 -0.6598  0.0202
  983SOL    HW3 3986   0.214   3.765   1.949 -1.1071  0.0661 -0.0444
  983SOL    MW4 3987   0.220   3.846   1.917 -0.2578 -0.0362 -0.1473
  984SOL     OW 3988   4.475   4.007   1.982  0.2414  0.0787  0.2087
  984SOL    HW2 3989   4.501   4.092   1.947  1.8244 -0.0394  1.0289
  984SOL    HW3 3990   4.552   3.951   1.968 -1.5879 -1.9289 -2.5307
  984SOL    MW4 3991   4.489   4.011   1.975  0.2089 -0.2022 -0.0446
  985SOL     OW 3992   4.487   4.251   1.854  0.2794  0.0359 -0.2689
  985SOL    HW2 3993   4.426   4.296   1.913  1.7758  1.7905  0.0186
  985SOL    HW3 3994   4.573   4.288   1.876  1.5481 -2.8509 -0.2104
  985SOL    MW4 3995   4.491   4.262   1.864  0.6442 -0.1140 -0.2233
  986SOL     OW 3996   0.250   4.364   1.946  0.4406 -0.0983 -0.0146
  986SOL    HW2 3997   0.245   4.352   2.041 -1.2480  2.0869  0.2155
  986SOL    HW3 3998   0.258   4.459   1.935 -2.5411 -0.0402 -2.1641
  986SOL    MW4 3999   0.251   4.375   1.957 -0.1756  0.1974 -0.2679
  987SOL     OW 4000   0.723   4.641   1.884  0.1793 -0.2148  0.1139
  987SOL    HW2 4001   0.685   4.554   1.894 -1.8958  0.7587  0.8897
  987SOL    HW3 4002   0.730   4.653   1.789 -0.6763 -0.7589 -0.0233
  987SOL    MW4 4003   0.719   4.631   1.872 -0.2074 -0.1583  0.1981
  988SOL     OW 4004   0.506   0.123   2.020  0.1289 -0.2339  0.1939
  988SOL    HW2 4005   0.496   0.213   1.989  1.7390 -0.4704 -1.0570
  988SOL    HW3 4006   0.573   0.086   1.964 -1.4596 -2.6378 -0.1786
  988SOL    MW4 4007   0.513   0.130   2.009  0.1318 -0.5823 -0.0203
  989SOL     OW 4008   0.481   0.375   1.895  0.7939  0.0452 -0.0921
  989SOL    HW2 4009   0.570   0.408   1.904  0.5113  1.6028 -2.3665
  989SOL    HW3 4010   0.475   0.347   1.803 -0.8696 -0.6041  0.1972
  989SOL    MW4 4011   0.492   0.376   1.884  0.5371  0.1651 -0.3539
  990SOL     OW 4012   0.726   0.478   1.957  0.2312 -0.9225 -1.1066
  990SOL    HW2 4013   0.722   0.484   2.052  1.2481 -1.6620 -1.0044
  990SOL    HW3 4014   0.815   0.447   1.939  0.4458  0.3546 -2.3511
  990SOL    MW4 4015   0.737   0.475   1.967  0.3936 -0.8516 -1.2572
  991SOL     OW 4016   0.659   0.738   1.857  0.2230 -0.1658 -0.0520
  991SOL    HW2 4017   0.734   0.792   1.880 -0.1978  0.7726 -0.8647
  991SOL    HW3 4018   0.688   0.648   1.874  1.4671  0.1982 -0.2228
  991SOL    MW4 4019   0.673   0.733   1.862  0.3317  0.0060 -0.1817
  992SOL     OW 4020   0.474   0.873   2.005 -0.1298 -0.0424 -0.4514
  992SOL    HW2 4021   0.484   0.955   1.957  0.5017  0.9725  1.3681
  992SOL    HW3 4022   0.544   0.816   1.971 -0.7371  0.0566 -1.9066
  992SOL    MW4 4023   0.485   0.876   1.994 -0.1267  0.1045 -0.4034
  993SOL     OW 4024   0.472   1.131   1.900  0.3632  0.2338 -0.4656
  993SOL    HW2 4025   0.385   1.166   1.922 -0.7865 -1.9210 -1.4139
  993SOL    HW3 4026   0.473   1.128   1.805  1.3460 -0.0965 -0.4502
  993SOL    MW4 4027   0.460   1.135   1.891  0.3412 -0.0942 -0.5888
  994SOL     OW 4028   0.722   1.282   1.955  0.4146  0.1439  0.1128
  994SOL    HW2 4029   0.729   1.294   2.050  0.6366 -0.6901  0.2028
  994SOL    HW3 4030   0.632   1.256   1.941  0.3419  0.4108  0.0750
  994SOL    MW4 4031   0.711   1.280   1.966  0.4343  0.0690  0.1197
  995SOL     OW 4032   0.689   1.541   1.849  0.0266 -0.1367 -0.4046
  995SOL    HW2 4033   0.704   1.448   1.862  1.1064  0.1576  0.4639
  995SOL    HW3 4034   0.672   1.549   1.755  0.5070 -1.1211 -0.5809
  995SOL    MW4 4035   0.689   1.530   1.838  0.2323 -0.2277 -0.3133
  996SOL     OW 4036   0.462   1.680   1.969  0.2230 -0.2144  0.6063
  996SOL    HW2 4037   0.462   1.669   2.064 -1.2664 -0.7626  0.5638
  996SOL    HW3 4038   0.546   1.644   1.941  0.7411  0.0891  1.7257
  996SOL    MW4 4039   0.473   1.674   1.978  0.0949 -0.2465  0.7483
  997SOL     OW 4040   0.413   1.949   1.848  0.9955 -0.0277  0.8232
  997SOL    HW2 4041   0.425   1.872   1.904  0.0281 -1.0660 -0.3595
  997SOL    HW3 4042   0.346   2.000   1.893  2.4206  0.6909  2.1745
  997SOL    MW4 4043   0.405   1.945   1.861  1.0559 -0.0700  0.8456
  998SOL     OW 4044   0.650   2.054   1.940 -0.0986 -0.0741 -0.3546
  998SOL    HW2 4045   0.674   2.050   2.032 -1.2057  4.4139  0.2418
  998SOL    HW3 4046   0.565   2.009   1.935  0.2252 -0.8125  0.6781
  998SOL    MW4 4047   0.642   2.047   1.951 -0.2020  0.4208 -0.1397
  999SOL     OW 4048   0.688   2.328   1.886 -0.7143 -0.4370  0.1912
  999SOL    HW2 4049   0.691   2.232   1.891 -0.3035 -0.4063  0.5476
  999SOL    HW3 4050   0.660   2.346   1.796 -0.3890 -0.8862 -0.0018
  999SOL    MW4 4051   0.685   2.317   1.874 -0.6171 -0.4921  0.2129
 1000SOL     OW 4052   0.465   2.471   1.991 -0.0822 -0.2221 -0.5352
 1000SOL    HW2 4053   0.461   2.468   2.086  0.2863  1.9977 -0.4228
 1000SOL    HW3 4054   0.543   2.421   1.968  0.8531  0.7508  0.4559
 1000SOL    MW4 4055   0.475   2.464   2.000  0.0899  0.1993 -0.3896
 1001SOL     OW 4056   0.502   2.689   1.849 -0.6334 -0.1213 -0.5043
 1001SOL    HW2 4057   0.488   2.604   1.891 -1.5857 -0.0104 -0.5745
 1001SOL    HW3 4058   0.432   2.745   1.884 -0.1452  0.5723 -0.6235
 1001SOL    MW4 4059   0.491   2.685   1.859 -0.6946 -0.0153 -0.5294
 1002SOL     OW 4060   0.693   2.849   1.956 -0.3644  0.1497 -0.5518
 1002SOL    HW2 4061   0.689   2.861   2.051 -0.7951 -0.9766 -0.4107
 1002SOL    HW3 4062   0.633   2.776   1.939 -1.8816  1.6792 -1.9302
 1002SOL    MW4 4063   0.684   2.841   1.966 -0.6213  0.2029 -0.7150
 1003SOL     OW 4064   0.633   3.124   1.898 -0.1543  0.4065  0.1515
 1003SOL    HW2 4065   0.641   3.031   1.920  0.5786  0.4368  0.0359
 1003SOL    HW3 4066   0.630   3.125   1.802 -0.5605  0.4733  0.1656
 1003SOL    MW4 4067   0.634   3.112   1.888 -0.1112  0.4189  0.1382
 1004SOL     OW 4068   0.420   3.213   2.031  0.8557 -0.2179 -0.1413
 1004SOL    HW2 4069   0.415   3.300   1.992  1.2283 -0.1151  0.0354
 1004SOL    HW3 4070   0.497   3.173   1.991  0.0364 -0.8931 -1.0726
 1004SOL    MW4 4071   0.430   3.219   2.021  0.7967 -0.2933 -0.2410
 1005SOL     OW 4072   0.451   3.469   1.899 -0.1150  0.1145 -0.3022
 1005SOL    HW2 4073   0.535   3.499   1.935  0.6458 -1.3992 -0.7589
 1005SOL    HW3 4074   0.462   3.477   1.804 -0.2648 -0.6406 -0.3879
 1005SOL    MW4 4075   0.464   3.474   1.891 -0.0344 -0.1848 -0.3738
 1006SOL     OW 4076   0.697   3.549   1.992 -0.1903  0.5080  0.3680
 1006SOL    HW2 4077   0.787   3.520   1.976 -0.5518 -1.1529  1.2970
 1006SOL    HW3 4078   0.699   3.643   1.971  2.1456  0.8707  1.9429
 1006SOL    MW4 4079   0.709   3.558   1.987  0.0702  0.3366  0.6983
 1007SOL     OW 4080   0.715   3.837   1.906  0.0953  0.2102 -0.3622
 1007SOL    HW2 4081   0.778   3.899   1.943 -0.3009  0.1320  0.4678
 1007SOL    HW3 4082   0.705   3.864   1.815  0.1862  1.1609 -0.0966
 1007SOL    MW4 4083   0.722   3.849   1.899  0.0551  0.3254 -0.2176
 1008SOL     OW 4084   0.449   3.958   1.966  0.6907  0.0242  0.3466
 1008SOL    HW2 4085   0.449   4.040   1.917  0.3845  0.4874  1.1062
 1008SOL    HW3 4086   0.531   3.915   1.941  0.1794 -0.0979 -1.1336
 1008SOL    MW4 4087   0.460   3.963   1.956  0.5828  0.0691  0.2515
 1009SOL     OW 4088   0.446   4.210   1.807 -0.2269  0.2068  0.2691
 1009SOL    HW2 4089   0.388   4.273   1.850 -0.9699  0.5735 -1.2043
 1009SOL    HW3 4090   0.442   4.235   1.714  1.3335 -0.5372 -0.0065
 1009SOL    MW4 4091   0.438   4.222   1.800 -0.1190  0.1574  0.0384
 1010SOL     OW 4092   0.627   4.386   1.914  0.4385  0.2520  0.1439
 1010SOL    HW2 4093   0.717   4.355   1.915  0.1504 -0.6922 -1.0678
 1010SOL    HW3 4094   0.582   4.326   1.854 -0.5161  2.0023 -0.9181
 1010SOL    MW4 4095   0.633   4.374   1.906  0.2745  0.3576 -0.1560
 1011SOL     OW 4096   1.140   0.019   1.903  0.0480  0.1457 -0.5542
 1011SOL    HW2 4097   1.222   0.060   1.930 -1.3003  1.0244  2.4786
 1011SOL    HW3 4098   1.133  -0.059   1.958 -1.6617  0.6883  0.0464
 1011SOL    MW4 4099   1.150   0.014   1.914 -0.3555  0.3328 -0.0746
 1012SOL     OW 4100   0.925   0.122   2.017  0.6108  0.0784 -0.0274
 1012SOL    HW2 4101   1.005   0.084   1.981 -0.0848  0.0968 -1.6050
 1012SOL    HW3 4102   0.854   0.075   1.973 -0.2570  1.3861 -0.0269
 1012SOL    MW4 4103   0.926   0.111   2.007  0.4045  0.2534 -0.2353
 1013SOL     OW 4104   0.974   0.372   1.895  0.3706 -0.2007 -0.4341
 1013SOL    HW2 4105   1.036   0.422   1.948 -0.2634  1.2256 -1.0154
 1013SOL    HW3 4106   0.975   0.285   1.934  0.5107  0.6022  1.4329
 1013SOL    MW4 4107   0.982   0.367   1.907  0.3054  0.0934 -0.2645
 1014SOL     OW 4108   1.156   0.526   2.035  0.0643  0.6754  0.3153
 1014SOL    HW2 4109   1.237   0.482   2.010 -0.9997 -1.5322  0.6684
 1014SOL    HW3 4110   1.150   0.600   1.974  1.0395 -0.6033 -1.3922
 1014SOL    MW4 4111   1.166   0.530   2.024  0.0525  0.2154  0.1366
 1015SOL     OW 4112   1.133   0.733   1.861 -0.6532 -0.7194 -0.1686
 1015SOL    HW2 4113   1.200   0.794   1.893 -0.5667 -0.2098 -1.2995
 1015SOL    HW3 4114   1.050   0.775   1.884 -0.6024  0.2306 -1.6461
 1015SOL    MW4 4115   1.131   0.747   1.868 -0.6351 -0.5268 -0.5128
 1016SOL     OW 4116   0.897   0.834   1.943  0.1143 -0.2592 -0.0207
 1016SOL    HW2 4117   0.897   0.824   2.038  3.1442 -0.2683  0.0350
 1016SOL    HW3 4118   0.915   0.927   1.928  0.2267 -0.3650 -0.5739
 1016SOL    MW4 4119   0.899   0.845   1.953  0.5289 -0.2744 -0.0862
 1017SOL     OW 4120   0.922   1.105   1.878 -0.4088  0.4471 -0.2629
 1017SOL    HW2 4121   0.851   1.165   1.901 -0.3744  0.8183 -1.1100
 1017SOL    HW3 4122   0.927   1.110   1.783  2.3057  2.2137 -0.0816
 1017SOL    MW4 4123   0.913   1.114   1.869 -0.0461  0.7291 -0.3507
 1018SOL     OW 4124   1.123   1.298   1.985 -0.0874 -0.4000 -0.1121
 1018SOL    HW2 4125   1.107   1.385   1.950 -0.3058 -0.5291 -0.3348
 1018SOL    HW3 4126   1.059   1.242   1.941 -1.3031 -0.3278  1.5218
 1018SOL    MW4 4127   1.113   1.302   1.975 -0.2766 -0.4076  0.0740
 1019SOL     OW 4128   1.126   1.567   1.864  0.3837  0.3335  0.1736
 1019SOL    HW2 4129   1.052   1.621   1.889  2.0858  2.3574  1.0206
 1019SOL    HW3 4130   1.128   1.570   1.769 -0.9263 -0.2037  0.1183
 1019SOL    MW4 4131   1.117   1.574   1.855  0.4354  0.5298  0.2781
 1020SOL     OW 4132   0.896   1.713   1.960  0.2788 -0.1450 -0.1409
 1020SOL    HW2 4133   0.893   1.804   1.930  0.2570  0.4758  1.6513
 1020SOL    HW3 4134   0.828   1.668   1.911 -0.4575  1.0672 -0.2314
 1020SOL    MW4 4135   0.887   1.719   1.950  0.1788  0.0970  0.0838
 1021SOL     OW 4136   0.902   1.976   1.870 -0.0071 -1.1749 -0.2858
 1021SOL    HW2 4137   0.813   2.008   1.888  0.2152 -0.8588  0.2871
 1021SOL    HW3 4138   0.903   1.959   1.776  0.0446  1.1278 -0.7300
 1021SOL    MW4 4139   0.890   1.978   1.860  0.0291 -0.8292 -0.2687
 1022SOL     OW 4140   1.141   2.106   1.954  0.1372 -0.2161  0.6240
 1022SOL    HW2 4141   1.137   2.202   1.953  0.4809 -0.2091 -0.0392
 1022SOL    HW3 4142   1.054   2.078   1.928  0.3839 -0.0833 -0.3421
 1022SOL    MW4 4143   1.129   2.115   1.951  0.2151 -0.1974  0.4089
 1023SOL     OW 4144   1.122   2.393   1.909 -0.1888  0.0383 -0.0972
 1023SOL    HW2 4145   1.200   2.432   1.948  0.2844 -1.8845  0.9772
 1023SOL    HW3 4146   1.147   2.375   1.818  0.6541 -0.5783  0.2438
 1023SOL    MW4 4147   1.135   2.396   1.902 -0.0151 -0.2966  0.0895
 1024SOL     OW 4148   0.891   2.464   2.043 -0.0971  0.3780 -0.1689
 1024SOL    HW2 4149   0.973   2.429   2.008 -0.5048 -0.9839  0.2104
 1024SOL    HW3 4150   0.823   2.418   1.995 -0.6374  1.0756 -0.0689
 1024SOL    MW4 4151   0.893   2.453   2.032 -0.2221  0.2904 -0.1056
 1025SOL     OW 4152   0.904   2.698   1.889  0.2508  0.1871 -0.0504
 1025SOL    HW2 4153   0.907   2.611   1.929  0.5532  0.3266  0.2319
 1025SOL    HW3 4154   0.839   2.746   1.939  0.0540  0.1089 -0.2326
 1025SOL    MW4 4155   0.896   2.693   1.901  0.2646  0.1953 -0.0371
 1026SOL     OW 4156   1.163   2.826   1.975  0.1530 -0.6358 -0.1580
 1026SOL    HW2 4157   1.138   2.838   2.067 -0.7704 -2.1786 -0.2029
 1026SOL    HW3 4158   1.092   2.776   1.937  0.0383  0.8784 -1.9858
 1026SOL    MW4 4159   1.151   2.821   1.982  0.0160 -0.6397 -0.4051
 1027SOL     OW 4160   1.117   3.083   1.888  0.3773 -0.2530 -0.4601
 1027SOL    HW2 4161   1.039   3.109   1.936  1.4974  0.4120  1.0357
 1027SOL    HW3 4162   1.141   2.998   1.926  0.2506 -0.5756 -1.0881
 1027SOL    MW4 4163   1.110   3.075   1.899  0.5084 -0.2079 -0.3456
 1028SOL     OW 4164   0.880   3.202   1.992  0.2344  0.5855  0.2373
 1028SOL    HW2 4165   0.871   3.222   2.085  0.5413 -0.4866  0.5064
 1028SOL    HW3 4166   0.792   3.174   1.966  0.5080 -0.6484  0.5931
 1028SOL    MW4 4167   0.867   3.201   2.001  0.3110  0.2813  0.3197
 1029SOL     OW 4168   0.959   3.458   1.897 -0.0012 -0.3854  0.5987
 1029SOL    HW2 4169   0.945   3.367   1.925  1.5811 -1.0848 -0.7164
 1029SOL    HW3 4170   0.935   3.457   1.804 -0.9237  0.8021  0.8131
 1029SOL    MW4 4171   0.954   3.446   1.888  0.0858 -0.3211  0.4536
 1030SOL     OW 4172   1.189   3.606   1.954  0.0785  0.0757 -0.2313
 1030SOL    HW2 4173   1.179   3.600   2.049  0.5049 -0.7361 -0.2321
 1030SOL    HW3 4174   1.115   3.558   1.919  0.5685 -0.6396 -0.2947
 1030SOL    MW4 4175   1.178   3.599   1.962  0.1993 -0.1259 -0.2398
 1031SOL     OW 4176   1.152   3.883   1.938  0.1061 -0.1669 -0.3104
 1031SOL    HW2 4177   1.158   3.790   1.959 -1.8865 -0.0902  0.7175
 1031SOL    HW3 4178   1.155   3.887   1.842  1.9694 -1.1313 -0.2961
 1031SOL    MW4 4179   1.153   3.872   1.928  0.0890 -0.2840 -0.1729
 1032SOL     OW 4180   0.899   4.001   2.024  0.0716 -0.2819  0.8494
 1032SOL    HW2 4181   0.894   4.010   2.119  2.0102  0.2402  0.9292
 1032SOL    HW3 4182   0.988   3.968   2.008 -0.2684 -0.4448 -0.7766
 1032SOL    MW4 4183   0.910   3.998   2.034  0.2826 -0.2348  0.6456
 1033SOL     OW 4184   0.907   4.278   1.931  0.4158  0.0703  0.0169
 1033SOL    HW2 4185   0.988   4.309   1.970 -0.0836  0.0011  1.1191
 1033SOL    HW3 4186   0.902   4.186   1.954 -0.9535  0.5325  1.6616
 1033SOL    MW4 4187   0.917   4.270   1.939  0.1693  0.1216  0.3794
 1034SOL     OW 4188   1.138   4.434   2.043  0.1694 -0.1003 -0.3574
 1034SOL    HW2 4189   1.137   4.429   2.139  1.1954  1.2445 -0.2552
 1034SOL    HW3 4190   1.211   4.378   2.017 -1.4217 -2.1434 -0.4937
 1034SOL    MW4 4191   1.148   4.426   2.052  0.0948 -0.1926 -0.3617
 1035SOL     OW 4192   1.568   4.622   1.916 -0.0665 -0.4433  0.2044
 1035SOL    HW2 4193   1.644   4.671   1.948 -0.2203 -0.2784  0.3256
 1035SOL    HW3 4194   1.579   4.534   1.952  0.6131 -0.7130 -0.6671
 1035SOL    MW4 4195   1.579   4.617   1.925  0.0029 -0.4568  0.1054
 1036SOL     OW 4196   1.378   0.133   2.008  0.3040 -0.5973  0.0019
 1036SOL    HW2 4197   1.365   0.110   2.100 -1.5958 -0.1496 -0.1384
 1036SOL    HW3 4198   1.442   0.069   1.976  0.1051 -1.4704  1.3340
 1036SOL    MW4 4199   1.385   0.121   2.016  0.0271 -0.6534  0.1590
 1037SOL     OW 4200   1.385   0.398   1.938 -0.1442  0.3878 -0.1204
 1037SOL    HW2 4201   1.391   0.307   1.965  0.6802  0.2508 -0.7497
 1037SOL    HW3 4202   1.373   0.395   1.843 -0.3623  0.9309 -0.1165
 1037SOL    MW4 4203   1.384   0.386   1.929 -0.0644  0.4414 -0.2029
 1038SOL     OW 4204   1.628   0.488   2.018  0.1310  0.6743 -0.2028
 1038SOL    HW2 4205   1.703   0.447   1.974 -0.7297  0.7240 -1.7877
 1038SOL    HW3 4206   1.552   0.447   1.976 -0.7334  2.9226 -0.8999
 1038SOL    MW4 4207   1.628   0.477   2.006 -0.0967  0.9775 -0.5038
 1039SOL     OW 4208   1.581   0.731   1.885  0.0187 -0.4458 -0.4141
 1039SOL    HW2 4209   1.645   0.795   1.915 -1.2259  0.9585 -0.7286
 1039SOL    HW3 4210   1.595   0.655   1.941  2.2722 -0.3285 -0.7931
 1039SOL    MW4 4211   1.591   0.729   1.896  0.1519 -0.2450 -0.5056
 1040SOL     OW 4212   1.329   0.913   1.953  0.1005  0.2092 -0.8172
 1040SOL    HW2 4213   1.341   0.910   2.048  0.5480  0.5053 -0.8593
 1040SOL    HW3 4214   1.402   0.861   1.919  0.5577  0.9980 -1.0406
 1040SOL    MW4 4215   1.340   0.906   1.961  0.2198  0.3523 -0.8521
 1041SOL     OW 4216   1.364   1.196   1.914 -0.1802  0.4674 -0.4336
 1041SOL    HW2 4217   1.361   1.102   1.930  0.6706  0.5006 -0.0595
 1041SOL    HW3 4218   1.282   1.230   1.951 -0.5489 -0.1431 -0.6963
 1041SOL    MW4 4219   1.353   1.188   1.921 -0.1166  0.3914 -0.4189
 1042SOL     OW 4220   1.606   1.317   1.991 -0.2155 -0.3571 -0.1164
 1042SOL    HW2 4221   1.609   1.408   1.962 -1.6616 -0.2516 -0.0014
 1042SOL    HW3 4222   1.526   1.282   1.950 -0.5871 -1.0905  1.2026
 1042SOL    MW4 4223   1.596   1.325   1.982 -0.4554 -0.4399  0.0728
 1043SOL     OW 4224   1.558   1.573   1.870  0.2731 -0.7285  0.2370
 1043SOL    HW2 4225   1.636   1.614   1.907  0.2291  1.2524 -1.8071
 1043SOL    HW3 4226   1.487   1.632   1.893 -0.0538 -0.5554 -1.1955
 1043SOL    MW4 4227   1.559   1.586   1.878  0.2244 -0.4441 -0.2217
 1044SOL     OW 4228   1.340   1.726   1.959  0.0140  0.9951 -0.2719
 1044SOL    HW2 4229   1.342   1.736   2.054 -1.5753 -1.4308  0.0724
 1044SOL    HW3 4230   1.259   1.676   1.942  0.4901  1.0224 -2.8505
 1044SOL    MW4 4231   1.329   1.721   1.969 -0.1328  0.6785 -0.5667
 1045SOL     OW 4232   1.353   1.971   1.819 -0.1867  0.2906 -0.1092
 1045SOL    HW2 4233   1.347   1.888   1.866 -2.1001 -0.4029 -1.5488
 1045SOL    HW3 4234   1.279   2.023   1.851  0.8125  1.3350  0.5469
 1045SOL    MW4 4235   1.343   1.967   1.829 -0.3072  0.3370 -0.2126
 1046SOL     OW 4236   1.565   2.052   1.995 -0.0861 -0.0443 -0.2145
 1046SOL    HW2 4237   1.579   2.142   1.964 -0.6524  0.1784  0.1582
 1046SOL    HW3 4238   1.509   2.013   1.929 -1.2254  0.4050  0.4688
 1046SOL    MW4 4239   1.560   2.059   1.982 -0.3110  0.0441 -0.0753
 1047SOL     OW 4240   1.602   2.312   1.917  0.8431 -0.1009 -0.1900
 1047SOL    HW2 4241   1.678   2.366   1.940  2.0620 -1.4453 -0.9428
 1047SOL    HW3 4242   1.593   2.323   1.823  0.0509  0.0985 -0.0935
 1047SOL    MW4 4243   1.611   2.320   1.908  0.8993 -0.2520 -0.2764
 1048SOL     OW 4244   1.365   2.471   2.004  0.3495  0.2706  0.2411
 1048SOL    HW2 4245   1.378   2.553   1.957  0.5696  0.4598  0.6289
 1048SOL    HW3 4246   1.436   2.414   1.972 -0.2389 -0.0136 -0.5644
 1048SOL    MW4 4247   1.376   2.474   1.993  0.3008  0.2580  0.1860
 1049SOL     OW 4248   1.392   2.722   1.890  0.4635  0.0615 -0.0241
 1049SOL    HW2 4249   1.310   2.763   1.918  0.7230  0.7771 -0.3127
 1049SOL    HW3 4250   1.379   2.704   1.796 -0.1626 -1.7526  0.3873
 1049SOL    MW4 4251   1.379   2.725   1.881  0.4152 -0.0834 -0.0077
 1050SOL     OW 4252   1.618   2.843   2.018 -0.3290 -0.1276 -0.2417
 1050SOL    HW2 4253   1.701   2.804   1.989  0.0208 -1.6030  2.6142
 1050SOL    HW3 4254   1.551   2.798   1.966  0.3555 -1.9992  0.4714
 1050SOL    MW4 4255   1.620   2.832   2.007 -0.1924 -0.5691  0.2294
 1051SOL     OW 4256   1.570   3.118   1.936  0.6249 -0.1482  0.6087
 1051SOL    HW2 4257   1.572   3.028   1.970 -1.1726 -0.7094 -0.7035
 1051SOL    HW3 4258   1.557   3.108   1.842 -0.6194  1.5160  0.5811
 1051SOL    MW4 4259   1.569   3.105   1.928  0.2236 -0.0026  0.4319
 1052SOL     OW 4260   1.350   3.230   2.030 -0.1943  0.4238 -0.4583
 1052SOL    HW2 4261   1.430   3.190   1.998 -0.3751  0.9009 -1.4989
 1052SOL    HW3 4262   1.281   3.169   2.004 -0.2251  0.2273  0.0658
 1052SOL    MW4 4263   1.351   3.216   2.023 -0.2222  0.4609 -0.5262
 1053SOL     OW 4264   1.413   3.468   1.883  0.5360  0.2983 -0.0520
 1053SOL    HW2 4265   1.405   3.381   1.923 -0.0253  0.2576 -0.2422
 1053SOL    HW3 4266   1.334   3.514   1.911  1.4653  1.1847  1.1025
 1053SOL    MW4 4267   1.401   3.462   1.892  0.5847  0.4101  0.0753
 1054SOL     OW 4268   1.643   3.606   1.999  0.7207 -0.4220  0.0506
 1054SOL    HW2 4269   1.608   3.636   2.082 -1.1596 -0.0602 -0.8436
 1054SOL    HW3 4270   1.574   3.552   1.961  1.0436  0.4259 -1.8372
 1054SOL    MW4 4271   1.630   3.603   2.005  0.5153 -0.2625 -0.3164
 1055SOL     OW 4272   1.650   3.866   1.894  0.1777 -0.0789 -0.3912
 1055SOL    HW2 4273   1.718   3.920   1.934 -0.1110  0.9982 -1.3485
 1055SOL    HW3 4274   1.669   3.777   1.925  2.2507  0.1448 -0.9455
 1055SOL    MW4 4275   1.661   3.861   1.903  0.4132  0.0927 -0.5907
 1056SOL     OW 4276   1.386   3.976   2.015 -0.2987 -0.2386  0.2901
 1056SOL    HW2 4277   1.453   3.921   1.974  0.8440  2.7939 -2.0962
 1056SOL    HW3 4278   1.303   3.933   1.994  0.6819 -2.1671  0.2994
 1056SOL    MW4 4279   1.384   3.963   2.007 -0.0185 -0.0930 -0.0236
 1057SOL     OW 4280   1.345   4.245   1.951 -0.0329 -0.0265  0.3546
 1057SOL    HW2 4281   1.360   4.154   1.974 -1.2427 -0.1925  0.5459
 1057SOL    HW3 4282   1.347   4.246   1.855  1.8593  0.0958  0.3845
 1057SOL    MW4 4283   1.347   4.233   1.941  0.0571 -0.0324  0.3837
 1058SOL     OW 4284   1.593   4.374   2.025 -0.1531 -0.0521 -0.5882
 1058SOL    HW2 4285   1.588   4.382   2.120 -0.6185 -0.7494 -0.5466
 1058SOL    HW3 4286   1.515   4.323   2.001  0.8556 -1.3266 -1.1676
 1058SOL    MW4 4287   1.582   4.368   2.034 -0.0814 -0.3123 -0.6595
 1059SOL     OW 4288   2.037   0.008   1.902 -0.5860  0.4497  0.0616
 1059SOL    HW2 4289   2.109   0.048   1.950 -1.5192  1.0835  0.9630
 1059SOL    HW3 4290   2.052  -0.087   1.912 -0.4039  0.5741  1.0475
 1059SOL    MW4 4291   2.049   0.000   1.910 -0.6852  0.5503  0.3105
 1060SOL     OW 4292   1.792   0.099   2.012 -0.3985  0.4327  0.0058
 1060SOL    HW2 4293   1.794   0.098   2.108 -1.4562  1.0372  0.0377
 1060SOL    HW3 4294   1.867   0.044   1.987  0.9180  1.6400  1.1582
 1060SOL    MW4 4295   1.803   0.092   2.022 -0.3644  0.6718  0.1621
 1061SOL     OW 4296   1.847   0.356   1.928 -0.4116 -0.1801 -0.2208
 1061SOL    HW2 4297   1.814   0.268   1.949 -2.0292  0.6735  0.9396
 1061SOL    HW3 4298   1.857   0.356   1.833  0.5329 -1.9287 -0.1494
 1061SOL    MW4 4299   1.844   0.344   1.919 -0.5004 -0.2982 -0.0582
 1062SOL     OW 4300   2.043   0.526   2.039 -0.5661  0.0785  0.2218
 1062SOL    HW2 4301   2.036   0.608   1.989  0.9581  1.1900  1.7812
 1062SOL    HW3 4302   1.971   0.472   2.006 -1.2723  1.8379 -1.2151
 1062SOL    MW4 4303   2.032   0.530   2.028 -0.4582  0.4573  0.2379
 1063SOL     OW 4304   1.965   0.779   1.913 -0.1113  0.4943 -0.4781
 1063SOL    HW2 4305   2.053   0.814   1.925  0.2645 -0.0237 -1.6668
 1063SOL    HW3 4306   1.961   0.756   1.820 -0.9313 -1.0276 -0.0732
 1063SOL    MW4 4307   1.976   0.781   1.902 -0.1700  0.2251 -0.5815
 1064SOL     OW 4308   1.756   0.929   2.014  0.0555  0.2132  0.0027
 1064SOL    HW2 4309   1.773   1.020   1.992  0.7564  0.1075  0.0972
 1064SOL    HW3 4310   1.829   0.881   1.975  1.0008 -0.0353  2.0129
 1064SOL    MW4 4311   1.768   0.935   2.006  0.2728  0.1665  0.2806
 1065SOL     OW 4312   1.809   1.176   1.872 -0.2175  0.3059  0.0613
 1065SOL    HW2 4313   1.749   1.243   1.903 -0.1645  1.0809 -1.4312
 1065SOL    HW3 4314   1.793   1.172   1.777  0.6135 -0.9487 -0.0424
 1065SOL    MW4 4315   1.799   1.184   1.863 -0.1009  0.2427 -0.1494
 1066SOL     OW 4316   2.051   1.278   1.982 -0.2267 -0.2077  0.1165
 1066SOL    HW2 4317   2.132   1.263   1.932 -0.0391  1.6124 -0.1586
 1066SOL    HW3 4318   1.982   1.241   1.927  0.0134  1.5018 -1.3990
 1066SOL    MW4 4319   2.053   1.271   1.968 -0.1707  0.2581 -0.1197
 1067SOL     OW 4320   2.015   1.551   1.903 -0.0083 -0.6419  0.1429
 1067SOL    HW2 4321   2.038   1.464   1.937  0.2055 -0.6441 -0.0103
 1067SOL    HW3 4322   2.014   1.540   1.808  0.5941 -0.3318  0.0996
 1067SOL    MW4 4323   2.018   1.538   1.895  0.0994 -0.6013  0.1171
 1068SOL     OW 4324   1.773   1.693   1.977 -0.0403 -0.0245 -0.1252
 1068SOL    HW2 4325   1.793   1.780   1.943 -0.3847  0.6353  1.3186
 1068SOL    HW3 4326   1.854   1.643   1.965  0.2141  0.5466 -0.8025
 1068SOL    MW4 4327   1.786   1.698   1.971 -0.0521  0.1378 -0.0241
 1069SOL     OW 4328   1.811   1.953   1.918 -0.0571 -0.9084  0.4202
 1069SOL    HW2 4329   1.737   2.011   1.935 -1.4420 -2.3537 -0.5167
 1069SOL    HW3 4330   1.814   1.945   1.823  1.9191 -0.1235  0.3781
 1069SOL    MW4 4331   1.802   1.960   1.908  0.0207 -0.9956  0.2910
 1070SOL     OW 4332   2.061   2.059   2.002 -0.0088  0.1061 -0.5379
 1070SOL    HW2 4333   2.127   2.007   1.955  0.2727  0.3882 -0.4580
 1070SOL    HW3 4334   1.977   2.024   1.972  0.1769 -0.9132  0.0977
 1070SOL    MW4 4335   2.059   2.047   1.992  0.0527  0.0091 -0.4437
 1071SOL     OW 4336   2.029   2.321   1.900 -0.3252  0.4826  0.0759
 1071SOL    HW2 4337   2.097   2.379   1.934 -0.5071  0.2111  0.9182
 1071SOL    HW3 4338   2.052   2.234   1.932 -0.8240  0.3161 -0.0044
 1071SOL    MW4 4339   2.041   2.317   1.909 -0.4151  0.4246  0.1764
 1072SOL     OW 4340   1.813   2.477   1.967  0.4035  0.3194  0.4785
 1072SOL    HW2 4341   1.813   2.478   2.063 -1.1007 -2.8885  0.5748
 1072SOL    HW3 4342   1.893   2.430   1.943  0.1660  0.0526  0.2024
 1072SOL    MW4 4343   1.823   2.471   1.977  0.1738 -0.1390  0.4547
 1073SOL     OW 4344   1.848   2.729   1.873 -0.2683 -0.2642  0.0239
 1073SOL    HW2 4345   1.835   2.638   1.900  1.7599 -0.5276  0.1624
 1073SOL    HW3 4346   1.832   2.728   1.779  0.4552 -0.9005 -0.0940
 1073SOL    MW4 4347   1.844   2.717   1.864  0.0948 -0.3829  0.0267
 1074SOL     OW 4348   2.056   2.875   2.016  0.1490  0.0781 -0.1338
 1074SOL    HW2 4349   2.051   2.842   2.105 -1.0985  0.2563 -0.1338
 1074SOL    HW3 4350   1.990   2.826   1.968 -0.9103  1.7102 -0.3905
 1074SOL    MW4 4351   2.047   2.864   2.021 -0.1552  0.3169 -0.1676
 1075SOL     OW 4352   2.040   3.106   1.883  0.2681 -0.0554  0.1679
 1075SOL    HW2 4353   1.965   3.157   1.916  1.1585  1.7657 -0.5470
 1075SOL    HW3 4354   2.037   3.024   1.932 -2.3638 -0.1289 -0.0663
 1075SOL    MW4 4355   2.030   3.102   1.894  0.0384  0.1750  0.0426
 1076SOL     OW 4356   1.831   3.229   1.997 -0.1386  0.0077  0.3694
 1076SOL    HW2 4357   1.841   3.235   2.092 -0.2042  0.8511  0.3319
 1076SOL    HW3 4358   1.743   3.196   1.984  0.1416 -0.8450  0.6125
 1076SOL    MW4 4359   1.821   3.226   2.008 -0.1104  0.0064  0.3965
 1077SOL     OW 4360   1.860   3.484   1.896  0.5259 -0.1044  0.7400
 1077SOL    HW2 4361   1.846   3.395   1.928 -2.1268 -0.3391 -0.9256
 1077SOL    HW3 4362   1.808   3.538   1.956 -0.7384 -0.0662 -0.3794
 1077SOL    MW4 4363   1.851   3.479   1.908  0.0091 -0.1302  0.3725
 1078SOL     OW 4364   2.081   3.614   2.001 -0.2675  0.0981 -0.2332
 1078SOL    HW2 4365   2.075   3.703   1.967 -0.7007  0.1087 -0.1268
 1078SOL    HW3 4366   2.015   3.565   1.953 -1.3058  0.2492  1.0055
 1078SOL    MW4 4367   2.072   3.619   1.990 -0.4616  0.1194 -0.0557
 1079SOL     OW 4368   2.093   3.869   1.916 -0.3134 -0.1422  0.1246
 1079SOL    HW2 4369   2.180   3.907   1.929  0.3416 -1.5043 -0.2578
 1079SOL    HW3 4370   2.083   3.862   1.821  0.5801 -3.1901  0.2148
 1079SOL    MW4 4371   2.103   3.873   1.905 -0.1090 -0.7238  0.0861
 1080SOL     OW 4372   1.852   3.982   2.039 -0.4560  0.5805  0.0444
 1080SOL    HW2 4373   1.853   4.068   1.998 -1.4095 -0.3398 -1.9976
 1080SOL    HW3 4374   1.938   3.944   2.019 -1.0133  0.0308 -1.3978
 1080SOL    MW4 4375   1.864   3.988   2.031 -0.6553  0.3865 -0.4153
 1081SOL     OW 4376   1.832   4.248   1.904 -0.5118  0.0196  0.1324
 1081SOL    HW2 4377   1.765   4.308   1.936  0.4647  0.8451  0.6396
 1081SOL    HW3 4378   1.819   4.246   1.809 -0.3234  1.3071  0.0726
 1081SOL    MW4 4379   1.821   4.255   1.896 -0.3580  0.2980  0.1915
 1082SOL     OW 4380   2.058   4.398   1.965 -0.0929 -0.6935 -0.2005
 1082SOL    HW2 4381   2.132   4.342   1.944 -0.5927 -1.0398 -1.0547
 1082SOL    HW3 4382   1.981   4.343   1.953 -0.4868 -0.4149  0.9416
 1082SOL    MW4 4383   2.057   4.384   1.960 -0.2108 -0.7024 -0.1626
 1083SOL     OW 4384   2.470   0.003   1.898  0.3631 -0.2020  0.1013
 1083SOL    HW2 4385   2.555   0.044   1.912  0.5677 -0.2420 -0.9719
 1083SOL    HW3 4386   2.481  -0.087   1.930  0.8818 -0.3542 -0.4796
 1083SOL    MW4 4387   2.483  -0.004   1.904  0.4585 -0.2275 -0.1169
 1084SOL     OW 4388   2.256   0.117   2.044 -0.4624  0.3687 -0.0015
 1084SOL    HW2 4389   2.263   0.106   2.139  1.0196  0.0280 -0.1460
 1084SOL    HW3 4390   2.329   0.067   2.008 -1.4478 -0.1291 -1.3754
 1084SOL    MW4 4391   2.266   0.109   2.052 -0.3970  0.2581 -0.2015
 1085SOL     OW 4392   2.234   0.356   1.901  0.7051 -0.2684  0.0365
 1085SOL    HW2 4393   2.261   0.273   1.941 -3.0281 -1.7599 -0.2780
 1085SOL    HW3 4394   2.167   0.390   1.960  1.8056  2.2784 -0.1442
 1085SOL    MW4 4395   2.229   0.349   1.914  0.3576 -0.1291 -0.0288
 1086SOL     OW 4396   2.436   0.525   1.951  0.3799  0.0564  0.2890
 1086SOL    HW2 4397   2.515   0.484   1.915  0.1769  0.1162 -0.2229
 1086SOL    HW3 4398   2.364   0.471   1.917  0.2620 -0.6765  1.6584
 1086SOL    MW4 4399   2.437   0.512   1.942  0.3376 -0.0324  0.4021
 1087SOL     OW 4400   2.466   0.794   1.893  0.4693 -0.2546  0.5758
 1087SOL    HW2 4401   2.445   0.705   1.923  0.0594 -0.5003 -0.4181
 1087SOL    HW3 4402   2.485   0.784   1.800  2.0936  0.4450  0.8209
 1087SOL    MW4 4403   2.465   0.781   1.885  0.6294 -0.1947  0.4770
 1088SOL     OW 4404   2.213   0.876   1.965 -0.2892  0.5344 -0.0786
 1088SOL    HW2 4405   2.238   0.881   2.057 -0.6609  0.9357 -0.0001
 1088SOL    HW3 4406   2.295   0.862   1.919 -0.1030  0.3232  0.3165
 1088SOL    MW4 4407   2.227   0.875   1.971 -0.3138  0.5595 -0.0161
 1089SOL     OW 4408   2.284   1.157   1.854 -0.2351  0.7617 -0.2272
 1089SOL    HW2 4409   2.354   1.206   1.896  0.7838 -0.1471 -0.8683
 1089SOL    HW3 4410   2.273   1.079   1.908 -1.4341  1.3643  0.4309
 1089SOL    MW4 4411   2.291   1.153   1.867 -0.2592  0.7212 -0.2251
 1090SOL     OW 4412   2.498   1.288   1.992  0.2493 -0.0609 -0.6292
 1090SOL    HW2 4413   2.501   1.288   2.088 -1.2564  0.5365 -0.5689
 1090SOL    HW3 4414   2.494   1.381   1.969 -0.5962 -0.2491 -1.2309
 1090SOL    MW4 4415   2.498   1.301   2.002 -0.0608 -0.0069 -0.7005
 1091SOL     OW 4416   2.488   1.552   1.894 -0.2277  0.1517  0.0994
 1091SOL    HW2 4417   2.407   1.588   1.932 -1.0895 -1.5799 -0.0649
 1091SOL    HW3 4418   2.474   1.558   1.799  0.4095  1.0758  0.0510
 1091SOL    MW4 4419   2.475   1.558   1.886 -0.2573  0.0453  0.0714
 1092SOL     OW 4420   2.242   1.647   1.988  0.0008  0.2512  0.2680
 1092SOL    HW2 4421   2.240   1.658   2.083  0.4374  0.4503  0.2514
 1092SOL    HW3 4422   2.155   1.611   1.967  0.1954 -0.5681  0.8368
 1092SOL    MW4 4423   2.230   1.644   1.998  0.0839  0.1693  0.3408
 1093SOL     OW 4424   2.258   1.913   1.868  0.0932 -0.3734 -0.2266
 1093SOL    HW2 4425   2.346   1.938   1.897 -0.3208  1.1543 -0.2413
 1093SOL    HW3 4426   2.245   1.825   1.904  1.1326 -0.0994  0.8436
 1093SOL    MW4 4427   2.268   1.905   1.877  0.1755 -0.1357 -0.0873
 1094SOL     OW 4428   2.506   2.037   1.961 -0.0129 -0.6354  0.4019
 1094SOL    HW2 4429   2.596   2.012   1.940 -0.4874 -1.2672 -0.9682
 1094SOL    HW3 4430   2.497   2.126   1.926 -0.1969 -0.9375 -0.3456
 1094SOL    MW4 4431   2.516   2.046   1.953 -0.0999 -0.7584  0.1225
 1095SOL     OW 4432   2.445   2.297   1.877 -0.0394 -0.6352  0.2157
 1095SOL    HW2 4433   2.528   2.330   1.911 -0.5256  0.4394  0.4000
 1095SOL    HW3 4434   2.379   2.352   1.920 -0.7303 -0.1135 -1.4696
 1095SOL    MW4 4435   2.447   2.309   1.887 -0.1945 -0.4244  0.0176
 1096SOL     OW 4436   2.270   2.473   1.999 -0.5587 -0.1667 -0.6883
 1096SOL    HW2 4437   2.242   2.478   2.091 -0.1727 -1.3854 -0.4837
 1096SOL    HW3 4438   2.266   2.563   1.967 -0.5182  0.2970  0.5806
 1096SOL    MW4 4439   2.266   2.485   2.007 -0.5023 -0.2666 -0.4942
 1097SOL     OW 4440   2.282   2.738   1.904  0.0677  0.1307  0.2438
 1097SOL    HW2 4441   2.214   2.782   1.955  0.0168 -0.5367  0.7618
 1097SOL    HW3 4442   2.242   2.722   1.819  0.8885  3.2766 -0.8196
 1097SOL    MW4 4443   2.268   2.742   1.900  0.1695  0.4575  0.1718
 1098SOL     OW 4444   2.507   2.857   2.027  0.1412 -0.0306 -0.4611
 1098SOL    HW2 4445   2.515   2.940   1.980  0.4727 -0.1775 -0.6670
 1098SOL    HW3 4446   2.427   2.818   1.993  0.2113  0.0106 -0.6727
 1098SOL    MW4 4447   2.498   2.863   2.016  0.1941 -0.0446 -0.5162
 1099SOL     OW 4448   2.539   3.106   1.911 -0.0617 -0.1769  0.0318
 1099SOL    HW2 4449   2.454   3.135   1.944 -0.5831  0.2576 -1.6458
 1099SOL    HW3 4450   2.522   3.080   1.820  1.6917  0.3413 -0.4629
 1099SOL    MW4 4451   2.525   3.106   1.904  0.1009 -0.0513 -0.2549
 1100SOL     OW 4452   2.284   3.182   2.001  0.3495  0.1122  0.3555
 1100SOL    HW2 4453   2.271   3.181   2.096 -0.4193 -1.1385  0.2547
 1100SOL    HW3 4454   2.199   3.155   1.965  0.9162 -0.3802 -0.6439
 1100SOL    MW4 4455   2.271   3.178   2.009  0.3226 -0.1178  0.2103
 1101SOL     OW 4456   2.280   3.433   1.876  0.1288 -0.9065  0.4271
 1101SOL    HW2 4457   2.273   3.351   1.925 -1.1114 -1.0250  0.0738
 1101SOL    HW3 4458   2.221   3.494   1.922 -1.1573 -1.0653 -0.9811
 1101SOL    MW4 4459   2.271   3.430   1.889 -0.2046 -0.9432  0.1947
 1102SOL     OW 4460   2.483   3.607   1.970  0.4248  0.4836  0.2645
 1102SOL    HW2 4461   2.470   3.611   2.065  2.7688 -1.5444  0.7000
 1102SOL    HW3 4462   2.424   3.537   1.941  1.2329 -0.3020  0.5151
 1102SOL    MW4 4463   2.473   3.598   1.979  0.8411  0.1125  0.3551
 1103SOL     OW 4464   2.536   3.851   1.852  0.1746  0.5295 -0.0848
 1103SOL    HW2 4465   2.473   3.912   1.891 -1.2219 -0.8245 -0.2073
 1103SOL    HW3 4466   2.512   3.765   1.887  2.3291  0.0691  0.3364
 1103SOL    MW4 4467   2.525   3.848   1.862  0.2744  0.2899 -0.0452
 1104SOL     OW 4468   2.347   3.983   2.003 -0.1986 -0.5045  0.6284
 1104SOL    HW2 4469   2.329   3.983   2.097  0.7669  0.5755  0.8297
 1104SOL    HW3 4470   2.317   4.069   1.973  0.7475 -0.3132  0.2097
 1104SOL    MW4 4471   2.341   3.994   2.012  0.0536 -0.3366  0.5996
 1105SOL     OW 4472   2.278   4.246   1.901 -0.0316  0.5375  0.1222
 1105SOL    HW2 4473   2.346   4.309   1.922 -0.2720  0.9320 -0.2825
 1105SOL    HW3 4474   2.261   4.258   1.807  0.1143 -0.3136 -0.0249
 1105SOL    MW4 4475   2.285   4.256   1.891 -0.0443  0.4773  0.0494
 1106SOL     OW 4476   2.495   4.407   1.991 -0.1491  0.1508 -0.1680
 1106SOL    HW2 4477   2.491   4.400   2.086 -1.7215  0.2168 -0.2242
 1106SOL    HW3 4478   2.558   4.340   1.964 -1.1199 -1.1471  0.7662
 1106SOL    MW4 4479   2.503   4.398   2.000 -0.4847 -0.0119 -0.0522
 1107SOL     OW 4480   2.920   0.003   1.880 -0.4799  0.1147 -0.4253
 1107SOL    HW2 4481   3.005   0.031   1.914 -0.4330 -0.2225 -0.2681
 1107SOL    HW3 4482   2.906  -0.084   1.917 -0.3071 -0.3748 -1.4862
 1107SOL    MW4 4483   2.929  -0.004   1.889 -0.4511  0.0057 -0.5444
 1108SOL     OW 4484   2.688   0.144   1.968  0.1089 -0.2130 -0.2708
 1108SOL    HW2 4485   2.703   0.138   2.063 -0.7001  0.6168 -0.0813
 1108SOL    HW3 4486   2.755   0.088   1.930 -0.2801 -1.4826  0.8534
 1108SOL    MW4 4487   2.699   0.136   1.976 -0.0491 -0.2710 -0.0974
 1109SOL     OW 4488   2.682   0.412   1.885 -0.0712  0.0210  0.1831
 1109SOL    HW2 4489   2.756   0.450   1.931 -0.1799 -0.0913  0.4584
 1109SOL    HW3 4490   2.688   0.318   1.905  0.4300 -0.1623 -0.8274
 1109SOL    MW4 4491   2.692   0.404   1.894 -0.0196 -0.0180  0.0859
 1110SOL     OW 4492   2.914   0.500   2.010 -0.0960 -0.3507 -0.5260
 1110SOL    HW2 4493   2.996   0.460   1.979 -0.5282 -0.0638 -2.0929
 1110SOL    HW3 4494   2.917   0.590   1.976 -1.4079 -0.5678 -1.2534
 1110SOL    MW4 4495   2.925   0.507   2.001 -0.3264 -0.3415 -0.8283
 1111SOL     OW 4496   2.900   0.753   1.898 -0.0007  0.6875 -0.0740
 1111SOL    HW2 4497   2.980   0.802   1.914 -0.3416  1.4665 -0.7724
 1111SOL    HW3 4498   2.831   0.807   1.936 -0.2893  0.4082 -0.2021
 1111SOL    MW4 4499   2.901   0.766   1.905 -0.0842  0.7534 -0.1832
 1112SOL     OW 4500   2.687   0.919   2.010  0.3991 -0.3958 -0.2963
 1112SOL    HW2 4501   2.688   1.004   1.967  2.1251 -0.6571 -0.8261
 1112SOL    HW3 4502   2.605   0.879   1.983 -1.2625  1.7853  1.3635
 1112SOL    MW4 4503   2.676   0.925   2.001  0.4075 -0.1425 -0.1473
 1113SOL     OW 4504   2.719   1.171   1.905 -0.1614  0.1384  0.1481
 1113SOL    HW2 4505   2.645   1.220   1.940 -0.4602 -0.4144  0.2943
 1113SOL    HW3 4506   2.713   1.183   1.810  1.0651  2.2326  0.3042
 1113SOL    MW4 4507   2.708   1.179   1.897 -0.0389  0.3418  0.1880
 1114SOL     OW 4508   2.956   1.305   1.988  0.2412 -0.0839 -0.1985
 1114SOL    HW2 4509   2.944   1.388   1.942  0.0408  1.4473  2.5330
 1114SOL    HW3 4510   2.880   1.253   1.963  0.2626  0.6024 -1.7767
 1114SOL    MW4 4511   2.944   1.309   1.979  0.2177  0.2086 -0.0465
 1115SOL     OW 4512   2.900   1.547   1.872  0.1030  0.0806 -0.1715
 1115SOL    HW2 4513   2.983   1.583   1.904 -0.3180  1.4172 -0.5649
 1115SOL    HW3 4514   2.910   1.545   1.777  0.4392 -1.6563 -0.1210
 1115SOL    MW4 4515   2.913   1.551   1.864  0.0918  0.0278 -0.2168
 1116SOL     OW 4516   2.710   1.669   2.019 -0.0521 -0.2566  0.4316
 1116SOL    HW2 4517   2.776   1.615   1.976 -0.5485  0.0627 -0.7817
 1116SOL    HW3 4518   2.628   1.647   1.974 -0.6245 -0.0609  1.3649
 1116SOL    MW4 4519   2.708   1.659   2.007 -0.1931 -0.1887  0.3948
 1117SOL     OW 4520   2.747   1.909   1.867 -0.2922  0.3249  0.0208
 1117SOL    HW2 4521   2.824   1.961   1.894 -0.4636  0.1208  0.9124
 1117SOL    HW3 4522   2.745   1.835   1.928 -0.9112  0.0621 -0.3138
 1117SOL    MW4 4523   2.757   1.906   1.879 -0.3965  0.2632  0.0944
 1118SOL     OW 4524   2.967   2.036   1.963  0.0477  0.1285 -0.0616
 1118SOL    HW2 4525   2.950   2.025   2.056  0.1741  1.8217  0.1708
 1118SOL    HW3 4526   3.045   1.983   1.946 -0.4756 -0.8670  0.6081
 1118SOL    MW4 4527   2.975   2.027   1.973 -0.0048  0.2205  0.0573
 1119SOL     OW 4528   2.921   2.287   1.841 -0.2343  0.1759  0.1123
 1119SOL    HW2 4529   2.996   2.343   1.857  0.8386 -0.5893 -2.0675
 1119SOL    HW3 4530   2.946   2.202   1.876 -0.4572  0.1496  0.2127
 1119SOL    MW4 4531   2.934   2.283   1.848 -0.1223  0.0715 -0.1620
 1120SOL     OW 4532   2.684   2.403   1.979 -0.0955 -0.1020 -0.0990
 1120SOL    HW2 4533   2.692   2.497   1.960 -0.0301  0.7450  3.6766
 1120SOL    HW3 4534   2.770   2.367   1.956  0.0058  0.8231 -1.2231
 1120SOL    MW4 4535   2.696   2.411   1.973 -0.0734  0.1318  0.2508
 1121SOL     OW 4536   2.702   2.681   1.903 -0.7394 -0.0468  0.6414
 1121SOL    HW2 4537   2.640   2.744   1.938 -0.6916  0.2629  0.1720
 1121SOL    HW3 4538   2.689   2.685   1.808 -0.0404 -0.0187  0.5455
 1121SOL    MW4 4539   2.692   2.690   1.895 -0.6411 -0.0021  0.5668
 1122SOL     OW 4540   2.939   2.841   1.949  0.3772 -0.0931 -0.1056
 1122SOL    HW2 4541   2.933   2.931   1.917 -0.0029  0.4104  1.3620
 1122SOL    HW3 4542   2.856   2.801   1.925 -0.3182  0.5848  1.1689
 1122SOL    MW4 4543   2.927   2.848   1.941  0.2353  0.0627  0.2563
 1123SOL     OW 4544   2.961   3.108   1.850 -0.1040 -0.1991 -0.6524
 1123SOL    HW2 4545   3.021   3.141   1.917 -0.5005  0.6939 -0.7244
 1123SOL    HW3 4546   2.877   3.148   1.872 -0.5199 -0.9026 -0.9483
 1123SOL    MW4 4547   2.958   3.118   1.862 -0.2112 -0.1743 -0.7010
 1124SOL     OW 4548   2.776   3.223   2.026 -0.3397  0.0763  0.3180
 1124SOL    HW2 4549   2.746   3.310   2.001 -0.6481 -0.0850  0.1161
 1124SOL    HW3 4550   2.707   3.164   1.996 -0.6228 -0.1420  1.3947
 1124SOL    MW4 4551   2.763   3.226   2.019 -0.4177  0.0262  0.4332
 1125SOL     OW 4552   2.708   3.452   1.934 -0.0146 -0.4250  0.5946
 1125SOL    HW2 4553   2.782   3.507   1.957 -0.1379  0.3241 -0.7253
 1125SOL    HW3 4554   2.631   3.505   1.956 -0.1328  0.3487 -1.5512
 1125SOL    MW4 4555   2.707   3.466   1.940 -0.0465 -0.2239  0.1372
 1126SOL     OW 4556   2.914   3.582   2.004 -0.0108  0.2661 -0.2788
 1126SOL    HW2 4557   2.927   3.572   2.098 -1.9986 -0.1937 -0.0271
 1126SOL    HW3 4558   2.988   3.535   1.964  0.8180  0.4427  1.0358
 1126SOL    MW4 4559   2.926   3.574   2.011 -0.1636  0.2286 -0.0722
 1127SOL     OW 4560   2.976   3.837   1.924 -0.1412  0.8762  0.1844
 1127SOL    HW2 4561   2.954   3.745   1.934 -0.3256  1.0278  1.2971
 1127SOL    HW3 4562   2.970   3.854   1.830 -0.6284 -0.1098  0.0372
 1127SOL    MW4 4563   2.972   3.827   1.913 -0.2298  0.7660  0.3117
 1128SOL     OW 4564   2.738   3.977   1.977  0.1704  0.0442 -0.1662
 1128SOL    HW2 4565   2.816   3.923   1.963  1.4859  1.8301 -0.0484
 1128SOL    HW3 4566   2.667   3.929   1.936  1.5018 -1.1914 -1.0805
 1128SOL    MW4 4567   2.739   3.964   1.970  0.5198  0.1166 -0.2712
 1129SOL     OW 4568   2.688   4.247   1.887 -0.0238  0.0435 -0.1106
 1129SOL    HW2 4569   2.702   4.158   1.921 -0.1166  0.3983  0.8615
 1129SOL    HW3 4570   2.702   4.238   1.793 -0.3859 -1.0858 -0.0748
 1129SOL    MW4 4571   2.692   4.234   1.879 -0.0837 -0.0591  0.0224
 1130SOL     OW 4572   2.900   4.424   1.963  0.5671  0.3808 -0.0668
 1130SOL    HW2 4573   2.877   4.431   2.056  1.1572 -0.2584  0.1376
 1130SOL    HW3 4574   2.833   4.367   1.926 -0.2273  1.4231 -0.2450
 1130SOL    MW4 4575   2.888   4.417   1.971  0.5400  0.4339 -0.0633
 1131SOL     OW 4576   3.355   4.659   1.903  0.0048  0.5029  0.1153
 1131SOL    HW2 4577   3.345   4.566   1.925  1.9485  0.0123 -1.0630
 1131SOL    HW3 4578   3.366   4.661   1.808  1.7849  1.7824  0.3316
 1131SOL    MW4 4579   3.355   4.647   1.894  0.4961  0.6065 -0.0118
 1132SOL     OW 4580   3.144   0.143   2.009  0.5192  0.0986  0.2970
 1132SOL    HW2 4581   3.143   0.130   2.104 -0.4657 -1.4740  0.0902
 1132SOL    HW3 4582   3.226   0.102   1.980  0.9615  0.8382  0.5043
 1132SOL    MW4 4583   3.155   0.136   2.018  0.4478 -0.0113  0.2973
 1133SOL     OW 4584   3.151   0.398   1.938  0.1162  0.4009 -0.2438
 1133SOL    HW2 4585   3.163   0.312   1.977  1.2592  1.0581  0.9376
 1133SOL    HW3 4586   3.137   0.382   1.845  0.3202 -1.0513 -0.0250
 1133SOL    MW4 4587   3.151   0.385   1.931  0.2937  0.2960 -0.0591
 1134SOL     OW 4588   3.367   0.531   2.033  0.1795 -0.5812  0.1074
 1134SOL    HW2 4589   3.438   0.469   2.015  0.3948 -0.5856  0.9484
 1134SOL    HW3 4590   3.289   0.489   1.996  0.4791 -0.9361 -0.1303
 1134SOL    MW4 4591   3.366   0.517   2.026  0.2472 -0.6287  0.1872
 1135SOL     OW 4592   3.411   0.773   1.887 -0.5813 -0.3678 -0.1639
 1135SOL    HW2 4593   3.334   0.818   1.922 -0.8004 -0.8837  0.0314
 1135SOL    HW3 4594   3.406   0.685   1.925 -0.8121 -0.9305 -1.4832
 1135SOL    MW4 4595   3.400   0.767   1.897 -0.6406 -0.5100 -0.3123
 1136SOL     OW 4596   3.168   0.883   1.947 -0.5241  0.1349  0.2928
 1136SOL    HW2 4597   3.176   0.888   2.042  0.1073 -0.8545  0.2970
 1136SOL    HW3 4598   3.173   0.974   1.918 -0.4780  0.4237  1.1855
 1136SOL    MW4 4599   3.170   0.896   1.956 -0.4349  0.0424  0.4112
 1137SOL     OW 4600   3.179   1.163   1.867  0.4677  0.5550  0.5073
 1137SOL    HW2 4601   3.256   1.211   1.900  0.4273  0.7369  0.3419
 1137SOL    HW3 4602   3.104   1.210   1.903  0.4312  0.5023  0.4995
 1137SOL    MW4 4603   3.180   1.176   1.876  0.4573  0.5721  0.4846
 1138SOL     OW 4604   3.414   1.307   1.970  0.0576 -0.0022  0.0810
 1138SOL    HW2 4605   3.416   1.304   2.065  3.4042  2.6103  0.1804
 1138SOL    HW3 4606   3.397   1.399   1.949  1.0652 -0.2300 -1.8417
 1138SOL    MW4 4607   3.412   1.319   1.979  0.6323  0.3126 -0.1596
 1139SOL     OW 4608   3.379   1.571   1.863 -0.2759  0.4016 -0.4581
 1139SOL    HW2 4609   3.450   1.593   1.924  0.2483 -1.2611 -0.4474
 1139SOL    HW3 4610   3.299   1.593   1.911  0.1820  0.5939  0.2282
 1139SOL    MW4 4611   3.378   1.577   1.877 -0.1464  0.2075 -0.3661
 1140SOL     OW 4612   3.148   1.633   1.977 -0.2106  0.0445  0.2409
 1140SOL    HW2 4613   3.172   1.656   2.066  1.0561  0.7713 -0.2868
 1140SOL    HW3 4614   3.154   1.715   1.928  1.4455 -0.7972 -1.0165
 1140SOL    MW4 4615   3.152   1.647   1.982  0.1750  0.0296  0.0052
 1141SOL     OW 4616   3.176   1.887   1.857 -0.2374 -0.7549 -0.8366
 1141SOL    HW2 4617   3.251   1.927   1.902  0.1764 -2.3356 -0.0851
 1141SOL    HW3 4618   3.188   1.912   1.765  0.4324  0.2021 -0.4969
 1141SOL    MW4 4619   3.188   1.895   1.851 -0.0947 -0.8372 -0.6926
 1142SOL     OW 4620   3.384   2.032   1.963 -0.2856  0.3655  0.0180
 1142SOL    HW2 4621   3.464   1.997   1.924 -0.4941  0.7681 -0.7819
 1142SOL    HW3 4622   3.386   2.125   1.944 -1.0765  0.3352 -0.2476
 1142SOL    MW4 4623   3.395   2.039   1.955 -0.4177  0.4146 -0.1227
 1143SOL     OW 4624   3.394   2.285   1.859  0.4056  0.5192 -0.0468
 1143SOL    HW2 4625   3.306   2.321   1.864 -0.1885 -0.5869 -1.9637
 1143SOL    HW3 4626   3.424   2.306   1.770  1.3650 -0.7220 -0.0345
 1143SOL    MW4 4627   3.387   2.293   1.848  0.4539  0.2093 -0.2980
 1144SOL     OW 4628   3.149   2.429   1.913  0.5281 -0.4494  0.4660
 1144SOL    HW2 4629   3.161   2.430   2.008  0.8405 -0.5668  0.4291
 1144SOL    HW3 4630   3.150   2.521   1.887  4.3485 -0.5452  0.0930
 1144SOL    MW4 4631   3.151   2.441   1.922  1.0734 -0.4776  0.4120
 1145SOL     OW 4632   3.155   2.698   1.860  0.4611 -0.2061 -0.1798
 1145SOL    HW2 4633   3.080   2.740   1.903  0.0802 -1.4225  0.3451
 1145SOL    HW3 4634   3.142   2.715   1.767  0.1684  0.6185  0.0085
 1145SOL    MW4 4635   3.144   2.706   1.853  0.3722 -0.2577 -0.0857
 1146SOL     OW 4636   3.406   2.793   1.952  0.0865  0.0556  0.0946
 1146SOL    HW2 4637   3.401   2.801   2.047 -0.8066  0.2036  0.0462
 1146SOL    HW3 4638   3.325   2.746   1.928  0.9839 -1.2464 -0.4525
 1146SOL    MW4 4639   3.394   2.788   1.961  0.0868 -0.0966  0.0160
 1147SOL     OW 4640   3.354   3.058   1.891  0.1298  0.0717  0.0183
 1147SOL    HW2 4641   3.424   3.111   1.929 -0.4968 -1.0110  2.8195
 1147SOL    HW3 4642   3.382   2.968   1.907 -1.3484 -0.3757  0.1099
 1147SOL    MW4 4643   3.367   3.053   1.898 -0.1478 -0.1302  0.4001
 1148SOL     OW 4644   3.155   3.187   2.028 -0.6685 -0.1754 -0.5694
 1148SOL    HW2 4645   3.168   3.277   1.999  0.7835  0.2086  1.1746
 1148SOL    HW3 4646   3.225   3.137   1.987  0.2409  0.0258  0.7015
 1148SOL    MW4 4647   3.166   3.192   2.019 -0.3572 -0.0982 -0.1714
 1149SOL     OW 4648   3.141   3.436   1.894 -0.3347 -0.5892  0.4277
 1149SOL    HW2 4649   3.219   3.481   1.926 -1.1327  0.2726  1.1803
 1149SOL    HW3 4650   3.136   3.461   1.801 -0.9151  1.1052  0.8963
 1149SOL    MW4 4651   3.151   3.445   1.886 -0.5167 -0.2518  0.5889
 1150SOL     OW 4652   3.344   3.599   1.992 -0.5268  0.5095 -0.1333
 1150SOL    HW2 4653   3.432   3.569   1.969 -0.0765  0.6589  1.3593
 1150SOL    HW3 4654   3.338   3.686   1.953 -0.2179  0.2903 -0.6855
 1150SOL    MW4 4655   3.355   3.607   1.983 -0.4265  0.5004 -0.0092
 1151SOL     OW 4656   3.337   3.855   1.894 -0.1742 -0.6431 -0.0425
 1151SOL    HW2 4657   3.266   3.919   1.903  2.0910  1.7121  1.8391
 1151SOL    HW3 4658   3.351   3.848   1.800 -0.7227  1.3231 -0.2850
 1151SOL    MW4 4659   3.329   3.862   1.883  0.0522 -0.0730  0.1739
 1152SOL     OW 4660   3.147   4.033   2.005  0.0270 -0.0618 -0.3118
 1152SOL    HW2 4661   3.156   4.026   2.100 -2.5551  0.2306  0.0075
 1152SOL    HW3 4662   3.080   3.968   1.983 -0.1367  0.5857 -1.7683
 1152SOL    MW4 4663   3.139   4.024   2.015 -0.3355  0.0625 -0.4618
 1153SOL     OW 4664   3.144   4.281   1.884 -0.3971  0.1884  0.0530
 1153SOL    HW2 4665   3.147   4.192   1.920 -0.6898  0.3318  0.4474
 1153SOL    HW3 4666   3.072   4.323   1.932  0.6074  1.0499  0.8245
 1153SOL    MW4 4667   3.135   4.275   1.895 -0.3033  0.3209  0.2069
 1154SOL     OW 4668   3.386   4.388   1.939  0.2017  0.2802 -0.4449
 1154SOL    HW2 4669   3.453   4.332   1.900 -0.6655 -0.3998 -0.9736
 1154SOL    HW3 4670   3.303   4.348   1.913 -0.4316  1.8900 -0.9767
 1154SOL    MW4 4671   3.384   4.376   1.930  0.0036  0.4029 -0.5847
 1155SOL     OW 4672   3.825   4.639   1.852 -0.1043  0.1890 -0.6596
 1155SOL    HW2 4673   3.800   4.558   1.896  0.9104 -0.1347 -0.6676
 1155SOL    HW3 4674   3.760   4.702   1.879  0.1869 -0.1538  0.8550
 1155SOL    MW4 4675   3.813   4.636   1.861  0.0682  0.1016 -0.4609
 1156SOL     OW 4676   3.596   0.127   1.961  0.2648 -0.2779  0.0296
 1156SOL    HW2 4677   3.607   0.122   2.056  0.7803  0.3404  0.0054
 1156SOL    HW3 4678   3.524   0.068   1.942  0.3565 -0.6309  0.7750
 1156SOL    MW4 4679   3.588   0.119   1.971  0.3452 -0.2429  0.1247
 1157SOL     OW 4680   3.607   0.395   1.941  0.4745  0.1538 -0.5554
 1157SOL    HW2 4681   3.607   0.302   1.964  0.7008  0.2277 -0.2405
 1157SOL    HW3 4682   3.602   0.397   1.845  0.7327 -0.1879 -0.5748
 1157SOL    MW4 4683   3.607   0.383   1.931  0.5383  0.1184 -0.5165
 1158SOL     OW 4684   3.859   0.513   1.991  0.2305 -0.2287 -0.3164
 1158SOL    HW2 4685   3.870   0.581   1.925  0.1700  0.4646  0.3754
 1158SOL    HW3 4686   3.770   0.479   1.978  0.1510  0.0405 -0.4601
 1158SOL    MW4 4687   3.849   0.517   1.981  0.2122 -0.1017 -0.2440
 1159SOL     OW 4688   3.882   0.733   1.831 -0.5812 -0.0643  0.0406
 1159SOL    HW2 4689   3.803   0.772   1.869 -1.2200 -1.0362 -0.2435
 1159SOL    HW3 4690   3.866   0.735   1.736 -0.5316 -0.7884  0.0096
 1159SOL    MW4 4691   3.869   0.738   1.823 -0.6592 -0.2881 -0.0010
 1160SOL     OW 4692   3.661   0.850   1.960 -0.5542 -0.5862 -0.5226
 1160SOL    HW2 4693   3.663   0.942   1.935  0.2378 -0.5911 -0.4765
 1160SOL    HW3 4694   3.579   0.817   1.923 -1.7043  0.5520  0.9170
 1160SOL    MW4 4695   3.650   0.857   1.952 -0.6018 -0.4367 -0.3266
 1161SOL     OW 4696   3.621   1.118   1.881 -0.2171 -0.1794 -0.0364
 1161SOL    HW2 4697   3.579   1.197   1.915  0.3802  0.0546  0.1627
 1161SOL    HW3 4698   3.617   1.128   1.785 -0.5256 -0.1163 -0.0192
 1161SOL    MW4 4699   3.615   1.130   1.873 -0.1791 -0.1402 -0.0080
 1162SOL     OW 4700   3.864   1.268   1.947 -0.1497 -0.2261 -0.2782
 1162SOL    HW2 4701   3.841   1.266   2.040  0.7744 -1.1213 -0.0602
 1162SOL    HW3 4702   3.807   1.202   1.908  0.2366 -0.6333 -0.1597
 1162SOL    MW4 4703   3.853   1.259   1.955  0.0234 -0.3980 -0.2339
 1163SOL     OW 4704   3.838   1.523   1.852  0.5121 -0.3598 -0.3995
 1163SOL    HW2 4705   3.905   1.576   1.895  0.6953 -1.2349  0.4126
 1163SOL    HW3 4706   3.854   1.434   1.884  0.9734 -1.1347 -2.6487
 1163SOL    MW4 4707   3.849   1.518   1.862  0.5970 -0.5776 -0.5891
 1164SOL     OW 4708   3.612   1.622   1.986 -0.5781  0.0516  0.6538
 1164SOL    HW2 4709   3.595   1.703   1.939 -1.7588 -0.9014 -0.6169
 1164SOL    HW3 4710   3.685   1.581   1.940 -1.1644 -0.4595  0.1579
 1164SOL    MW4 4711   3.619   1.627   1.974 -0.8113 -0.1416  0.4207
 1165SOL     OW 4712   3.590   1.889   1.847  0.1044 -0.7555 -0.0601
 1165SOL    HW2 4713   3.674   1.929   1.869  0.4972 -1.8169  0.4088
 1165SOL    HW3 4714   3.575   1.915   1.756  1.0524 -0.7484 -0.2274
 1165SOL    MW4 4715   3.599   1.898   1.838  0.2816 -0.8947 -0.0204
 1166SOL     OW 4716   3.811   2.035   1.931 -0.3791 -0.4660 -0.2897
 1166SOL    HW2 4717   3.899   1.999   1.917 -0.6722 -0.6534 -1.8249
 1166SOL    HW3 4718   3.818   2.127   1.906 -0.7210 -0.6066 -0.9396
 1166SOL    MW4 4719   3.824   2.042   1.926 -0.4628 -0.5088 -0.5780
 1167SOL     OW 4720   3.834   2.311   1.872 -0.2981 -0.0470 -0.4567
 1167SOL    HW2 4721   3.914   2.356   1.897  0.5385 -1.9113  0.2952
 1167SOL    HW3 4722   3.765   2.354   1.923  0.4527  0.4734  0.1252
 1167SOL    MW4 4723   3.835   2.322   1.882 -0.0887 -0.2246 -0.2807
 1168SOL     OW 4724   3.599   2.419   1.983  0.1187 -0.0883 -0.0436
 1168SOL    HW2 4725   3.595   2.508   1.946 -1.1302  0.4567  1.3742
 1168SOL    HW3 4726   3.512   2.382   1.967  0.0543 -0.3952  1.0016
 1168SOL    MW4 4727   3.587   2.426   1.976 -0.0546 -0.0570  0.2813
 1169SOL     OW 4728   3.619   2.681   1.852 -0.4124 -0.1409 -0.2365
 1169SOL    HW2 4729   3.702   2.718   1.881  0.2245 -2.4765  1.0416
 1169SOL    HW3 4730   3.553   2.724   1.906 -0.3003  3.0237 -2.4455
 1169SOL    MW4 4731   3.621   2.692   1.863 -0.3135 -0.0312 -0.3594
 1170SOL     OW 4732   3.815   2.839   1.960 -0.7552 -0.2730  0.0272
 1170SOL    HW2 4733   3.810   2.833   2.056 -2.4422 -1.6182 -0.1205
 1170SOL    HW3 4734   3.819   2.933   1.943  0.0177 -0.0292  1.4434
 1170SOL    MW4 4735   3.815   2.851   1.971 -0.8759 -0.4184  0.1945
 1171SOL     OW 4736   3.834   3.116   1.908  0.1935 -0.3117 -0.4964
 1171SOL    HW2 4737   3.749   3.154   1.932  0.9616  0.8061  0.4825
 1171SOL    HW3 4738   3.837   3.122   1.813 -0.0458  1.3641 -0.4127
 1171SOL    MW4 4739   3.823   3.122   1.899  0.2630  0.0565 -0.3563
 1172SOL     OW 4740   3.575   3.222   1.981  0.4980 -0.1709  0.1738
 1172SOL    HW2 4741   3.572   3.230   2.076  1.3337  1.5100  0.0822
 1172SOL    HW3 4742   3.578   3.312   1.950 -0.4689 -0.6914 -1.4776
 1172SOL    MW4 4743   3.575   3.235   1.990  0.4809 -0.0176 -0.0561
 1173SOL     OW 4744   3.588   3.492   1.887 -0.1821  0.1584  0.1406
 1173SOL    HW2 4745   3.674   3.518   1.918 -0.4772  2.2225 -0.7188
 1173SOL    HW3 4746   3.590   3.512   1.793 -0.7089 -2.1989 -0.4075
 1173SOL    MW4 4747   3.600   3.498   1.878 -0.2904  0.1199 -0.0451
 1174SOL     OW 4748   3.825   3.601   1.996 -0.2873  0.2724  0.1907
 1174SOL    HW2 4749   3.916   3.585   1.973 -0.0176  1.1374  0.6227
 1174SOL    HW3 4750   3.806   3.688   1.962 -1.3416 -0.4007 -1.0046
 1174SOL    MW4 4751   3.834   3.610   1.989 -0.3908  0.2975  0.0901
 1175SOL     OW 4752   3.811   3.876   1.909 -0.2416 -0.3791  0.1488
 1175SOL    HW2 4753   3.729   3.917   1.936  1.1645  2.4764  0.3165
 1175SOL    HW3 4754   3.807   3.876   1.813  0.2996  1.4352  0.1025
 1175SOL    MW4 4755   3.800   3.882   1.900  0.0153  0.2370  0.1647
 1176SOL     OW 4756   3.566   3.978   1.993 -0.0215 -0.6153  0.1076
 1176SOL    HW2 4757   3.554   4.013   2.081 -0.8606  1.8525 -0.9338
 1176SOL    HW3 4758   3.483   3.936   1.972 -0.6371  0.7549 -0.3082
 1176SOL    MW4 4759   3.553   3.977   2.002 -0.2134 -0.1092 -0.0849
 1177SOL     OW 4760   3.608   4.214   1.872 -0.2956 -0.0203  0.5815
 1177SOL    HW2 4761   3.664   4.278   1.917 -0.6447  0.7233 -0.0294
 1177SOL    HW3 4762   3.609   4.137   1.929  1.6558 -0.1627  0.4005
 1177SOL    MW4 4763   3.616   4.212   1.886 -0.0839  0.0591  0.4770
 1178SOL     OW 4764   3.802   4.379   1.981  0.0737  0.1338  0.3434
 1178SOL    HW2 4765   3.810   4.370   2.076  0.1091  0.2679  0.3533
 1178SOL    HW3 4766   3.889   4.360   1.947  0.3562  1.2517  0.4249
 1178SOL    MW4 4767   3.814   4.375   1.989  0.1154  0.2995  0.3554
 1179SOL     OW 4768   4.320   4.612   1.893  0.0773  0.3445  0.3356
 1179SOL    HW2 4769   4.239   4.663   1.902  0.9209  1.9438 -0.7465
 1179SOL    HW3 4770   4.389   4.673   1.919  1.1659  0.0058 -1.6600
 1179SOL    MW4 4771   4.318   4.627   1.897  0.3319  0.5107 -0.0705
 1180SOL     OW 4772   4.075   0.088   1.949 -0.0715 -0.2377  0.1858
 1180SOL    HW2 4773   4.065   0.107   2.042  1.3200 -3.2773  1.0220
 1180SOL    HW3 4774   3.991   0.048   1.924 -0.3815  0.4190  0.1586
 1180SOL    MW4 4775   4.062   0.085   1.958  0.0706 -0.5521  0.2925
 1181SOL     OW 4776   4.070   0.357   1.854  0.3786 -0.8307  0.1754
 1181SOL    HW2 4777   4.069   0.270   1.894  2.6332 -0.4684  1.1010
 1181SOL    HW3 4778   3.993   0.401   1.892 -0.0069 -1.9637  0.7282
 1181SOL    MW4 4779   4.060   0.351   1.865  0.6251 -0.9324  0.3704
 1182SOL     OW 4780   4.315   0.471   1.948  0.1691 -0.3830  0.2933
 1182SOL    HW2 4781   4.317   0.492   2.041 -1.0105  0.1316  0.2034
 1182SOL    HW3 4782   4.227   0.440   1.931  0.5557 -1.0593 -0.5322
 1182SOL    MW4 4783   4.304   0.470   1.958  0.0644 -0.4044  0.1723
 1183SOL     OW 4784   4.327   0.749   1.887 -0.3556  0.2668  0.1893
 1183SOL    HW2 4785   4.338   0.656   1.907  1.1558 -0.0206 -1.7337
 1183SOL    HW3 4786   4.311   0.751   1.792 -1.9019  1.8758  0.4531
 1183SOL    MW4 4787   4.326   0.737   1.877 -0.3600  0.4411 -0.0296
 1184SOL     OW 4788   4.104   0.872   1.982 -0.1027 -0.2721  0.2745
 1184SOL    HW2 4789   4.187   0.834   1.955 -0.7354 -1.4649 -0.0653
 1184SOL    HW3 4790   4.039   0.826   1.929 -0.9814  0.5996  0.5830
 1184SOL    MW4 4791   4.106   0.861   1.971 -0.3023 -0.3145  0.2705
 1185SOL     OW 4792   4.107   1.140   1.892  0.3373 -0.0361  0.2530
 1185SOL    HW2 4793   4.098   1.049   1.922 -1.9592  0.0660 -0.0493
 1185SOL    HW3 4794   4.027   1.183   1.921  0.9812  1.6696 -0.4488
 1185SOL    MW4 4795   4.096   1.133   1.900  0.1197  0.2024  0.1205
 1186SOL     OW 4796   4.315   1.291   1.992 -0.5131  0.9670  0.0928
 1186SOL    HW2 4797   4.322   1.290   2.088  0.0565 -0.5454  0.0496
 1186SOL    HW3 4798   4.242   1.232   1.973  0.7345 -0.4269 -0.4824
 1186SOL    MW4 4799   4.306   1.283   2.002 -0.2732  0.5835  0.0110
 1187SOL     OW 4800   4.263   1.531   1.859  0.5272 -0.0816 -0.2254
 1187SOL    HW2 4801   4.280   1.448   1.903  0.0674 -0.2757 -0.4122
 1187SOL    HW3 4802   4.234   1.506   1.771 -1.3037  0.2162  0.2747
 1187SOL    MW4 4803   4.261   1.517   1.853  0.2251 -0.0679 -0.1841
 1188SOL     OW 4804   4.046   1.662   1.972  0.3764  0.1635 -0.2561
 1188SOL    HW2 4805   4.051   1.661   2.067  0.4842  1.0120 -0.2463
 1188SOL    HW3 4806   4.119   1.608   1.942 -0.9769 -1.9722  0.1724
 1188SOL    MW4 4807   4.056   1.655   1.980  0.2122 -0.0064 -0.1982
 1189SOL     OW 4808   4.059   1.933   1.876  0.1772  0.1255  0.2677
 1189SOL    HW2 4809   4.070   1.839   1.884  0.8332  0.1877  0.0871
 1189SOL    HW3 4810   4.055   1.949   1.782 -0.2831  0.2417  0.3022
 1189SOL    MW4 4811   4.060   1.923   1.865  0.2031  0.1491  0.2484
 1190SOL     OW 4812   4.290   2.103   1.933 -0.0220  0.0992 -0.4146
 1190SOL    HW2 4813   4.300   2.079   2.025 -0.9140  1.2183 -0.0224
 1190SOL    HW3 4814   4.211   2.057   1.905  1.4855 -2.0486 -1.2499
 1190SOL    MW4 4815   4.281   2.093   1.942  0.0591 -0.0367 -0.4730
 1191SOL     OW 4816   4.259   2.367   1.855 -0.2099 -0.0743  0.3481
 1191SOL    HW2 4817   4.258   2.279   1.894  1.5369 -0.0215  0.5349
 1191SOL    HW3 4818   4.347   2.400   1.872 -0.9601  1.8552  0.5580
 1191SOL    MW4 4819   4.270   2.360   1.862 -0.0777  0.1872  0.4005
 1192SOL     OW 4820   4.042   2.469   1.963  0.0486 -0.0799  0.4008
 1192SOL    HW2 4821   4.051   2.455   2.057 -0.8286 -0.2902  0.4586
 1192SOL    HW3 4822   4.121   2.431   1.925 -0.0607 -0.8807  0.9688
 1192SOL    MW4 4823   4.054   2.462   1.970 -0.0815 -0.2134  0.4834
 1193SOL     OW 4824   4.065   2.741   1.883  0.4764  0.5541 -0.0005
 1193SOL    HW2 4825   4.046   2.658   1.926  0.3019  0.0933 -0.9641
 1193SOL    HW3 4826   3.997   2.801   1.915  1.0083  0.5189  1.2194
 1193SOL    MW4 4827   4.054   2.738   1.893  0.5236  0.4888  0.0334
 1194SOL     OW 4828   4.303   2.850   1.964 -0.0173  0.1500  0.2560
 1194SOL    HW2 4829   4.306   2.840   2.059 -1.3233  1.2574  0.4266
 1194SOL    HW3 4830   4.227   2.799   1.936 -0.1834  0.5796 -0.0867
 1194SOL    MW4 4831   4.294   2.842   1.973 -0.2117  0.3529  0.2334
 1195SOL     OW 4832   4.254   3.097   1.860  0.2538 -0.3961  0.0274
 1195SOL    HW2 4833   4.190   3.149   1.908  0.2457  0.3981 -0.8453
 1195SOL    HW3 4834   4.247   3.009   1.898  0.0276  0.1500  1.2577
 1195SOL    MW4 4835   4.245   3.092   1.871  0.2232 -0.2193  0.0746
 1196SOL     OW 4836   4.066   3.231   1.999  0.0492  0.0731  0.3072
 1196SOL    HW2 4837   4.056   3.239   2.094 -1.8571 -0.3519  0.1491
 1196SOL    HW3 4838   3.985   3.191   1.969  1.1489 -0.9607 -1.3752
 1196SOL    MW4 4839   4.054   3.227   2.008 -0.0577 -0.1194  0.0644
 1197SOL     OW 4840   4.053   3.496   1.893  0.3382  0.4019  0.1399
 1197SOL    HW2 4841   4.131   3.533   1.934 -0.3022 -0.7336  2.4869
 1197SOL    HW3 4842   4.041   3.411   1.937 -0.1124 -1.0998 -2.7728
 1197SOL    MW4 4843   4.062   3.490   1.904  0.1941  0.0536  0.0652
 1198SOL     OW 4844   4.273   3.615   2.011  0.0346  0.3425 -0.5194
 1198SOL    HW2 4845   4.261   3.705   1.982  0.5271  0.1995 -1.1756
 1198SOL    HW3 4846   4.347   3.583   1.960 -0.5230 -0.6281 -0.7336
 1198SOL    MW4 4847   4.281   3.623   2.001  0.0267  0.1957 -0.6342
 1199SOL     OW 4848   4.238   3.871   1.912  0.1004 -0.3934  0.0134
 1199SOL    HW2 4849   4.316   3.921   1.933  0.4544 -0.8794 -0.1356
 1199SOL    HW3 4850   4.240   3.861   1.817 -1.1513  1.2348 -0.2055
 1199SOL    MW4 4851   4.248   3.876   1.902 -0.0181 -0.2427 -0.0349
 1200SOL     OW 4852   4.029   4.054   1.976 -0.0139  0.3458  0.3680
 1200SOL    HW2 4853   4.109   4.010   1.949  0.6691  0.4728  2.1223
 1200SOL    HW3 4854   3.960   3.988   1.967  0.1437  0.4337 -1.7749
 1200SOL    MW4 4855   4.030   4.040   1.971  0.0963  0.3738  0.3167
 1201SOL     OW 4856   4.047   4.307   1.857  0.3415 -0.5134  0.2725
 1201SOL    HW2 4857   4.119   4.334   1.914  1.4448 -0.5245 -1.0912
 1201SOL    HW3 4858   4.034   4.214   1.877  0.3993 -0.3968  0.8484
 1201SOL    MW4 4859   4.055   4.298   1.867  0.4940 -0.4997  0.1687
 1202SOL     OW 4860   4.281   4.364   1.991  0.1526  0.0301  0.3984
 1202SOL    HW2 4861   4.289   4.367   2.086  1.0344 -1.2792  0.3857
 1202SOL    HW3 4862   4.281   4.455   1.963  0.7262  0.4048  1.5909
 1202SOL    MW4 4863   4.282   4.376   2.000  0.3438 -0.0935  0.5540
 1203SOL     OW 4864   0.228   4.625   2.330  0.0251 -0.7063  0.0024
 1203SOL    HW2 4865   0.211   4.625   2.425 -0.8863  0.9150 -0.1388
 1203SOL    HW3 4866   0.312   4.669   2.321 -0.3228 -0.0362 -0.0016
 1203SOL    MW4 4867   0.237   4.631   2.341 -0.1410 -0.4034 -0.0167
 1204SOL     OW 4868   0.015   0.096   2.240  0.6303 -0.1097  0.1528
 1204SOL    HW2 4869   0.098   0.050   2.252  1.5411  1.7601  1.1688
 1204SOL    HW3 4870   0.019   0.129   2.150  0.2084 -1.5026 -0.3940
 1204SOL    MW4 4871   0.027   0.094   2.230  0.6948 -0.0468  0.2151
 1205SOL     OW 4872   0.046   0.328   2.362  0.0520 -0.4843 -0.1084
 1205SOL    HW2 4873   0.123   0.374   2.329 -0.8850 -0.4312 -2.2793
 1205SOL    HW3 4874   0.056   0.238   2.331 -0.5831 -0.5608 -0.0979
 1205SOL    MW4 4875   0.058   0.322   2.354 -0.1555 -0.4874 -0.3934
 1206SOL     OW 4876   0.253   0.481   2.270  0.2441  0.5915  0.5190
 1206SOL    HW2 4877   0.338   0.443   2.294  0.7795  0.9995 -0.6849
 1206SOL    HW3 4878   0.250   0.476   2.175 -1.5042 -0.2557  0.6069
 1206SOL    MW4 4879   0.264   0.476   2.261  0.0841  0.5336  0.3717
 1207SOL     OW 4880   0.277   0.754   2.360  0.1418  0.2173 -0.5907
 1207SOL    HW2 4881   0.279   0.751   2.456  0.7852 -0.0271 -0.6095
 1207SOL    HW3 4882   0.270   0.663   2.333 -1.3362  0.3680 -0.7601
 1207SOL    MW4 4883   0.276   0.742   2.369  0.0317  0.2049 -0.6156
 1208SOL     OW 4884   0.023   0.858   2.268  0.2998 -0.1218 -0.2956
 1208SOL    HW2 4885   0.114   0.835   2.288  0.1527  0.4255  1.0666
 1208SOL    HW3 4886   0.022   0.871   2.173  2.2332  2.3184 -0.0535
 1208SOL    MW4 4887   0.035   0.857   2.258  0.5355  0.2724 -0.0839
 1209SOL     OW 4888   0.053   1.132   2.356 -0.3642 -0.0116  0.6990
 1209SOL    HW2 4889   0.038   1.128   2.450 -2.6982 -0.6090  0.3582
 1209SOL    HW3 4890   0.063   1.040   2.330 -0.7161  0.0731  0.2470
 1209SOL    MW4 4891   0.052   1.119   2.365 -0.7186 -0.0793  0.5944
 1210SOL     OW 4892   0.273   1.262   2.228  0.2010  0.3190 -0.1836
 1210SOL    HW2 4893   0.192   1.216   2.251 -0.1414  0.7645 -0.4842
 1210SOL    HW3 4894   0.265   1.278   2.134 -0.1872  1.9701  0.1225
 1210SOL    MW4 4895   0.261   1.258   2.219  0.1046  0.5956 -0.1829
 1211SOL     OW 4896   0.215   1.517   2.299  0.5000 -0.3807  0.1606
 1211SOL    HW2 4897   0.202   1.515   2.394 -3.9017  0.3124 -0.3181
 1211SOL    HW3 4898   0.227   1.426   2.275  0.7481 -0.6544  1.2810
 1211SOL    MW4 4899   0.215   1.505   2.309 -0.0480 -0.3253  0.2451
 1212SOL     OW 4900   4.477   1.684   2.248  0.7750  0.1675 -0.0268
 1212SOL    HW2 4901   4.485   1.765   2.298  3.2694  1.0328 -1.7667
 1212SOL    HW3 4902   4.553   1.632   2.273  0.5388 -0.5737 -0.8045
 1212SOL    MW4 4903   4.488   1.687   2.258  1.0734  0.1838 -0.3593
 1213SOL     OW 4904   0.000   1.939   2.366 -0.0139  0.6359 -0.2917
 1213SOL    HW2 4905  -0.068   1.973   2.307 -0.4216 -0.3251 -0.3897
 1213SOL    HW3 4906   0.079   1.988   2.342 -1.0086  2.9701  0.9452
 1213SOL    MW4 4907   0.002   1.950   2.355 -0.1993  0.8171 -0.1416
 1214SOL     OW 4908   0.230   2.047   2.270  0.1270  0.3426  0.1807
 1214SOL    HW2 4909   0.303   1.987   2.288 -0.0584 -0.1837 -0.7654
 1214SOL    HW3 4910   0.239   2.068   2.177 -0.5894  0.7364  0.2005
 1214SOL    MW4 4911   0.241   2.042   2.260  0.0080  0.3254  0.0584
 1215SOL     OW 4912   0.237   2.307   2.354  0.2827  0.3477  0.0905
 1215SOL    HW2 4913   0.198   2.290   2.440  1.2309 -0.1377  0.4326
 1215SOL    HW3 4914   0.254   2.220   2.317  0.3624  0.5524 -0.3679
 1215SOL    MW4 4915   0.234   2.294   2.360  0.4183  0.3107  0.0753
 1216SOL     OW 4916   0.026   2.400   2.211 -0.0319 -0.2634  0.1080
 1216SOL    HW2 4917   0.020   2.490   2.243 -1.0583 -0.7265  1.2707
 1216SOL    HW3 4918   0.097   2.361   2.263  0.2497 -0.1978 -0.2255
 1216SOL    MW4 4919   0.035   2.407   2.222 -0.1301 -0.3161  0.2172
 1217SOL     OW 4920   0.010   2.659   2.305 -0.1455 -0.5060  0.8246
 1217SOL    HW2 4921   0.025   2.656   2.400 -0.7831 -0.7796  0.9220
 1217SOL    HW3 4922   0.081   2.713   2.271 -0.4150  0.3137  1.5562
 1217SOL    MW4 4923   0.021   2.665   2.313 -0.2661 -0.4339  0.9339
 1218SOL     OW 4924   0.236   2.801   2.237 -0.1816  0.5111 -0.1607
 1218SOL    HW2 4925   0.320   2.768   2.269  0.3682  1.2120 -0.8378
 1218SOL    HW3 4926   0.251   2.817   2.143 -1.0499  0.7042 -0.2731
 1218SOL    MW4 4927   0.249   2.799   2.229 -0.2237  0.6287 -0.2646
 1219SOL     OW 4928   0.188   3.028   2.398 -0.0877 -0.1344 -0.3544
 1219SOL    HW2 4929   0.117   3.069   2.349 -0.5509  0.0668  0.4736
 1219SOL    HW3 4930   0.200   2.942   2.358 -0.5953 -0.0456 -0.6913
 1219SOL    MW4 4931   0.180   3.022   2.387 -0.2158 -0.0961 -0.2892
 1220SOL     OW 4932   0.017   3.222   2.257 -0.6136 -0.7950 -0.0893
 1220SOL    HW2 4933   0.016   3.302   2.310 -1.1835 -1.5842  1.1267
 1220SOL    HW3 4934   0.033   3.252   2.168 -0.5043  0.6448  0.4007
 1220SOL    MW4 4935   0.019   3.237   2.252 -0.6744 -0.7093  0.1359
 1221SOL     OW 4936   0.018   3.475   2.362 -0.2919  0.1291  0.1428
 1221SOL    HW2 4937   0.001   3.486   2.456 -0.6803 -0.2208  0.1157
 1221SOL    HW3 4938  -0.051   3.526   2.319 -1.3058 -1.3101  0.0296
 1221SOL    MW4 4939   0.007   3.483   2.369 -0.4768 -0.1070  0.1242
 1222SOL     OW 4940   0.242   3.569   2.246  0.3356 -0.5451 -0.1416
 1222SOL    HW2 4941   0.325   3.540   2.284 -0.4724  0.2463  2.3051
 1222SOL    HW3 4942   0.175   3.519   2.293 -0.8497  2.6360  1.6831
 1222SOL    MW4 4943   0.244   3.559   2.257  0.0726 -0.0210  0.4218
 1223SOL     OW 4944   0.232   3.820   2.338 -0.0467 -0.0252  0.1489
 1223SOL    HW2 4945   0.146   3.855   2.312  0.6018  0.5046 -1.3253
 1223SOL    HW3 4946   0.234   3.732   2.302  0.1396  0.0561 -0.0381
 1223SOL    MW4 4947   0.221   3.813   2.330  0.0634  0.0553 -0.0706
 1224SOL     OW 4948   0.001   3.959   2.272 -0.9277  0.5746 -0.0397
 1224SOL    HW2 4949  -0.003   4.040   2.323  0.1807  1.4149 -1.2528
 1224SOL    HW3 4950  -0.012   3.987   2.182 -2.1963 -0.8177 -0.3148
 1224SOL    MW4 4951  -0.002   3.973   2.267 -0.9488  0.5016 -0.2360
 1225SOL     OW 4952   0.025   4.244   2.352 -0.3297 -0.4205 -0.2086
 1225SOL    HW2 4953   0.025   4.270   2.444 -1.3670  0.2009 -0.3820
 1225SOL    HW3 4954   0.106   4.281   2.317 -0.1575 -0.2736  0.3422
 1225SOL    MW4 4955   0.036   4.252   2.359 -0.4438 -0.3195 -0.1590
 1226SOL     OW 4956   0.246   4.366   2.216 -0.0714 -0.0707  0.1850
 1226SOL    HW2 4957   0.316   4.323   2.265  0.8241  1.3650  0.1644
 1226SOL    HW3 4958   0.247   4.457   2.246 -1.6865  0.0561 -0.0825
 1226SOL    MW4 4959   0.255   4.372   2.226 -0.1663  0.1354  0.1469
 1227SOL     OW 4960   0.697   4.578   2.351 -0.1736 -0.3267 -0.0513
 1227SOL    HW2 4961   0.689   4.608   2.441 -1.9533  0.7746 -0.5567
 1227SOL    HW3 4962   0.764   4.635   2.313  0.2743 -0.5172  0.4467
 1227SOL    MW4 4963   0.705   4.590   2.358 -0.3493 -0.2069 -0.0520
 1228SOL     OW 4964   0.481   0.087   2.304  0.3620 -0.0251  0.2955
 1228SOL    HW2 4965   0.550   0.023   2.324  1.4264  1.2913  0.9522
 1228SOL    HW3 4966   0.488   0.102   2.210  0.3036 -0.6562  0.1917
 1228SOL    MW4 4967   0.491   0.081   2.295  0.4947  0.0653  0.3684
 1229SOL     OW 4968   0.486   0.368   2.374 -0.7172  0.1722  0.1571
 1229SOL    HW2 4969   0.468   0.364   2.468 -0.4959  1.1295  0.2432
 1229SOL    HW3 4970   0.492   0.276   2.347  0.1583 -0.1040  1.2612
 1229SOL    MW4 4971   0.484   0.355   2.383 -0.5725  0.2621  0.3140
 1230SOL     OW 4972   0.692   0.489   2.234  0.2499 -0.0829 -0.3234
 1230SOL    HW2 4973   0.710   0.571   2.280  0.8716 -0.5948  0.3753
 1230SOL    HW3 4974   0.613   0.455   2.277 -0.6899  0.7119 -1.3970
 1230SOL    MW4 4975   0.684   0.495   2.246  0.2079 -0.0455 -0.3731
 1231SOL     OW 4976   0.719   0.741   2.388 -0.6373 -0.0583 -0.1223
 1231SOL    HW2 4977   0.694   0.717   2.477  1.5629  0.7259  0.7339
 1231SOL    HW3 4978   0.642   0.786   2.352 -1.0804  0.7532  1.8159
 1231SOL    MW4 4979   0.706   0.743   2.395 -0.4054  0.1522  0.2463
 1232SOL     OW 4980   0.511   0.868   2.291  0.1413  0.5093  0.0716
 1232SOL    HW2 4981   0.432   0.825   2.324  0.2902  0.9291  1.0029
 1232SOL    HW3 4982   0.489   0.894   2.202 -0.9397  1.0380  0.4868
 1232SOL    MW4 4983   0.498   0.866   2.283  0.0183  0.6344  0.2491
 1233SOL     OW 4984   0.499   1.119   2.364  0.2158  0.4526 -0.1060
 1233SOL    HW2 4985   0.499   1.024   2.349  0.0732  0.3785  0.3631
 1233SOL    HW3 4986   0.419   1.149   2.321 -0.7082  0.1027  1.3119
 1233SOL    MW4 4987   0.488   1.110   2.356  0.0751  0.3965  0.1433
 1234SOL     OW 4988   0.696   1.289   2.233 -0.4841 -0.2823  0.4053
 1234SOL    HW2 4989   0.697   1.370   2.284  1.6038 -0.2738  0.4142
 1234SOL    HW3 4990   0.630   1.235   2.275 -3.6300  2.2396 -1.0052
 1234SOL    MW4 4991   0.688   1.293   2.245 -0.6238  0.0515  0.2203
 1235SOL     OW 4992   0.714   1.536   2.349  0.0842  0.3778 -0.1651
 1235SOL    HW2 4993   0.721   1.531   2.444 -1.4835  2.6445  0.0979
 1235SOL    HW3 4994   0.794   1.580   2.321  0.9330 -1.0163 -0.0035
 1235SOL    MW4 4995   0.725   1.541   2.358 -0.0107  0.4930 -0.1092
 1236SOL     OW 4996   0.468   1.650   2.243 -0.0887 -0.1008 -0.0332
 1236SOL    HW2 4997   0.544   1.607   2.283  0.5252  0.8200 -0.2080
 1236SOL    HW3 4998   0.393   1.601   2.277  0.4592  0.3295  1.8370
 1236SOL    MW4 4999   0.468   1.638   2.253  0.0646  0.0775  0.1905
 1237SOL     OW 5000   0.449   1.905   2.321 -0.2564  0.2467 -0.3333
 1237SOL    HW2 5001   0.530   1.949   2.294 -0.5012 -0.4683 -2.3305
 1237SOL    HW3 5002   0.462   1.814   2.295 -1.0626 -0.1953  0.8048
 1237SOL    MW4 5003   0.462   1.899   2.314 -0.3951  0.0942 -0.4466
 1238SOL     OW 5004   0.673   2.030   2.216 -0.8974 -0.2443 -0.0635
 1238SOL    HW2 5005   0.754   1.988   2.246 -0.3230  0.0346 -1.1859
 1238SOL    HW3 5006   0.673   2.115   2.260 -0.2031  0.0529 -0.6273
 1238SOL    MW4 5007   0.684   2.036   2.226 -0.7300 -0.1681 -0.2861
 1239SOL     OW 5008   0.686   2.279   2.348  0.2565 -0.2186  0.7164
 1239SOL    HW2 5009   0.681   2.274   2.444 -0.2082 -0.3885  0.6866
 1239SOL    HW3 5010   0.763   2.332   2.331  0.8215 -0.8840  1.1740
 1239SOL    MW4 5011   0.695   2.285   2.359  0.2698 -0.3290  0.7730
 1240SOL     OW 5012   0.476   2.450   2.272  0.0488 -0.6370 -0.2263
 1240SOL    HW2 5013   0.552   2.401   2.304 -0.2983 -1.3662 -0.5116
 1240SOL    HW3 5014   0.403   2.418   2.325  0.0413  0.5378  0.5053
 1240SOL    MW4 5015   0.477   2.439   2.284  0.0020 -0.5782 -0.1676
 1241SOL     OW 5016   0.476   2.718   2.352  0.4880  0.0936  0.0515
 1241SOL    HW2 5017   0.470   2.729   2.447 -0.8769  0.1949 -0.0299
 1241SOL    HW3 5018   0.480   2.624   2.339 -0.9138  0.0013  0.1558
 1241SOL    MW4 5019   0.475   2.707   2.363  0.1230  0.0949  0.0544
 1242SOL     OW 5020   0.689   2.854   2.231 -0.2881 -0.1232  0.0114
 1242SOL    HW2 5021   0.767   2.809   2.263 -0.6343  1.1209  2.7761
 1242SOL    HW3 5022   0.616   2.809   2.275 -0.9097  0.5564 -0.3214
 1242SOL    MW4 5023   0.690   2.842   2.241 -0.4158  0.1309  0.3324
 1243SOL     OW 5024   0.672   3.072   2.402  0.3326 -0.4149  0.0480
 1243SOL    HW2 5025   0.592   3.115   2.372  1.8515  1.2009 -1.7968
 1243SOL    HW3 5026   0.678   2.992   2.350 -0.8662 -1.3506  1.2992
 1243SOL    MW4 5027   0.662   3.067   2.391  0.3749 -0.3252 -0.0305
 1244SOL     OW 5028   0.433   3.181   2.296  0.3045  0.1291  0.3591
 1244SOL    HW2 5029   0.365   3.116   2.310 -0.6099  1.4879  2.5618
 1244SOL    HW3 5030   0.432   3.199   2.202  0.5440 -2.9552 -0.2727
 1244SOL    MW4 5031   0.424   3.175   2.285  0.2154 -0.0985  0.5665
 1245SOL     OW 5032   0.444   3.466   2.389  0.0895  0.1626  0.0360
 1245SOL    HW2 5033   0.530   3.493   2.359  0.5957 -0.3684  1.0045
 1245SOL    HW3 5034   0.447   3.370   2.388  0.2455  0.1246  2.1143
 1245SOL    MW4 5035   0.455   3.457   2.385  0.1769  0.0875  0.4380
 1246SOL     OW 5036   0.676   3.560   2.288  0.4301  0.4921  0.1764
 1246SOL    HW2 5037   0.660   3.652   2.311 -0.0484  0.2629  0.7620
 1246SOL    HW3 5038   0.683   3.561   2.193  0.4439  1.1424  0.1765
 1246SOL    MW4 5039   0.675   3.572   2.279  0.3688  0.5474  0.2537
 1247SOL     OW 5040   0.648   3.813   2.372 -0.1819 -0.0667 -0.2166
 1247SOL    HW2 5041   0.632   3.838   2.463  0.2771 -0.7635  0.0582
 1247SOL    HW3 5042   0.585   3.865   2.322 -0.4498  0.3089  0.4961
 1247SOL    MW4 5043   0.638   3.823   2.377 -0.1566 -0.1092 -0.0863
 1248SOL     OW 5044   0.450   3.984   2.252  0.4083 -0.3424  0.1029
 1248SOL    HW2 5045   0.366   3.942   2.269  0.2993 -0.9373 -1.7319
 1248SOL    HW3 5046   0.461   3.978   2.156  1.8410  1.0442  0.1577
 1248SOL    MW4 5047   0.440   3.978   2.241  0.5829 -0.2382 -0.1318
 1249SOL     OW 5048   0.438   4.232   2.354  0.3291 -0.0265  0.0049
 1249SOL    HW2 5049   0.507   4.272   2.301 -1.7915  1.1309 -1.9781
 1249SOL    HW3 5050   0.437   4.141   2.327  1.4509 -0.1984  0.4899
 1249SOL    MW4 5051   0.447   4.226   2.344  0.1973  0.1030 -0.1926
 1250SOL     OW 5052   0.634   4.344   2.208  0.7958 -0.2141 -0.2162
 1250SOL    HW2 5053   0.651   4.431   2.244 -0.6935 -0.2399  0.6070
 1250SOL    HW3 5054   0.632   4.357   2.113  1.0045  0.5582 -0.1209
 1250SOL    MW4 5055   0.636   4.357   2.200  0.6268 -0.1159 -0.0949
 1251SOL     OW 5056   1.120   4.657   2.434 -0.3613  0.6163 -0.1183
 1251SOL    HW2 5057   1.112   4.657   2.530 -0.1893  1.8723 -0.0904
 1251SOL    HW3 5058   1.041   4.702   2.404  0.0046  0.9899 -0.5204
 1251SOL    MW4 5059   1.109   4.663   2.443 -0.2903  0.8311 -0.1676
 1252SOL     OW 5060   0.898   0.103   2.281 -0.0079  0.0561 -0.2269
 1252SOL    HW2 5061   0.888   0.192   2.316  1.9201  0.1027  0.2465
 1252SOL    HW3 5062   0.918   0.116   2.188  0.2624  0.1087 -0.1604
 1252SOL    MW4 5063   0.899   0.117   2.273  0.2822  0.0692 -0.1554
 1253SOL     OW 5064   0.891   0.373   2.375 -0.1709  0.2714 -0.4888
 1253SOL    HW2 5065   0.967   0.424   2.347 -0.1430  0.1888 -0.5624
 1253SOL    HW3 5066   0.823   0.396   2.313  0.1633 -0.6395 -1.2037
 1253SOL    MW4 5067   0.892   0.383   2.363 -0.1231  0.1403 -0.5929
 1254SOL     OW 5068   1.112   0.521   2.297  0.3021  0.4757  0.5377
 1254SOL    HW2 5069   1.187   0.468   2.324  1.3064  1.5065 -0.1735
 1254SOL    HW3 5070   1.122   0.531   2.203 -2.0771 -1.4080  0.0319
 1254SOL    MW4 5071   1.123   0.516   2.288  0.1206  0.3632  0.3769
 1255SOL     OW 5072   1.123   0.816   2.353 -0.1776 -0.2495  0.1824
 1255SOL    HW2 5073   1.050   0.847   2.300  0.5615  0.0375 -0.6726
 1255SOL    HW3 5074   1.114   0.720   2.351 -1.4594 -0.1749  1.4133
 1255SOL    MW4 5075   1.112   0.807   2.346 -0.2493 -0.2018  0.2320
 1256SOL     OW 5076   0.887   0.886   2.220  0.3684  0.3777  0.0696
 1256SOL    HW2 5077   0.879   0.975   2.255  1.1661  0.2466  0.5957
 1256SOL    HW3 5078   0.848   0.830   2.287 -3.2892  0.5917 -1.7483
 1256SOL    MW4 5079   0.881   0.890   2.233 -0.0089  0.3887 -0.1009
 1257SOL     OW 5080   0.899   1.121   2.345  0.0901  0.0111  0.1373
 1257SOL    HW2 5081   0.979   1.166   2.321 -0.7045  1.4799  0.1899
 1257SOL    HW3 5082   0.829   1.183   2.324 -0.9045 -0.4382  1.9961
 1257SOL    MW4 5083   0.900   1.135   2.339 -0.1460  0.1456  0.3893
 1258SOL     OW 5084   1.132   1.293   2.277 -0.1125 -0.1497 -0.1697
 1258SOL    HW2 5085   1.218   1.251   2.283 -0.9463 -1.9120 -0.2448
 1258SOL    HW3 5086   1.125   1.320   2.186 -0.3421 -1.5718 -0.5835
 1258SOL    MW4 5087   1.142   1.291   2.266 -0.2528 -0.5699 -0.2341
 1259SOL     OW 5088   1.142   1.555   2.372 -0.1866 -0.1195 -0.1115
 1259SOL    HW2 5089   1.060   1.584   2.333 -1.4884 -1.6139  1.4250
 1259SOL    HW3 5090   1.156   1.467   2.336  0.5324 -0.0366 -0.0527
 1259SOL    MW4 5091   1.133   1.547   2.362 -0.2636 -0.3058  0.0987
 1260SOL     OW 5092   0.925   1.669   2.256 -0.0961  0.2264  0.1699
 1260SOL    HW2 5093   0.932   1.762   2.279 -0.2134  0.4311 -0.5785
 1260SOL    HW3 5094   0.912   1.670   2.161  0.3332 -0.5789  0.1023
 1260SOL    MW4 5095   0.924   1.682   2.246 -0.0550  0.1471  0.0622
 1261SOL     OW 5096   0.907   1.949   2.324 -0.0047 -0.1203  0.1276
 1261SOL    HW2 5097   0.911   1.948   2.420  0.7288 -0.3060  0.0927
 1261SOL    HW3 5098   0.978   2.008   2.298 -1.4574  1.5063 -0.2277
 1261SOL    MW4 5099   0.917   1.957   2.333 -0.0995  0.0699  0.0761
 1262SOL     OW 5100   1.124   2.077   2.228  0.4217  0.3041 -0.2905
 1262SOL    HW2 5101   1.189   2.018   2.263 -0.0125 -0.2461 -0.3991
 1262SOL    HW3 5102   1.143   2.081   2.134 -0.7376 -1.2010 -0.6117
 1262SOL    MW4 5103   1.135   2.070   2.220  0.2116  0.0331 -0.3474
 1263SOL     OW 5104   1.126   2.350   2.340 -0.2321 -0.1346 -0.1587
 1263SOL    HW2 5105   1.209   2.393   2.321  0.3368 -0.5605  1.2569
 1263SOL    HW3 5106   1.138   2.259   2.313 -0.3817 -0.1024 -0.3346
 1263SOL    MW4 5107   1.139   2.344   2.334 -0.1767 -0.1867  0.0048
 1264SOL     OW 5108   0.886   2.455   2.310 -0.3553 -0.2119 -0.5373
 1264SOL    HW2 5109   0.964   2.411   2.344 -0.4797  0.5101  0.7078
 1264SOL    HW3 5110   0.902   2.462   2.216  0.3526 -1.5222 -0.5295
 1264SOL    MW4 5111   0.898   2.450   2.302 -0.2782 -0.2897 -0.3722
 1265SOL     OW 5112   0.897   2.717   2.355 -0.0434 -0.2606  0.2742
 1265SOL    HW2 5113   0.871   2.712   2.447 -0.0177 -1.2967  0.2270
 1265SOL    HW3 5114   0.896   2.626   2.325  1.6734 -0.1143 -0.2783
 1265SOL    MW4 5115   0.893   2.704   2.363  0.1865 -0.3781  0.1955
 1266SOL     OW 5116   1.122   2.843   2.246  0.0906 -0.2600 -0.1779
 1266SOL    HW2 5117   1.195   2.795   2.284  0.4238 -0.3657 -0.9408
 1266SOL    HW3 5118   1.044   2.804   2.285  0.4858  0.6121  1.4997
 1266SOL    MW4 5119   1.121   2.832   2.256  0.1868 -0.1593 -0.0575
 1267SOL     OW 5120   1.155   3.095   2.348 -0.1776 -0.1723 -0.3580
 1267SOL    HW2 5121   1.069   3.134   2.331  0.0985  0.5413 -0.1517
 1267SOL    HW3 5122   1.145   3.003   2.325 -0.4426  0.3044 -2.1949
 1267SOL    MW4 5123   1.142   3.088   2.343 -0.1762 -0.0153 -0.5729
 1268SOL     OW 5124   0.895   3.206   2.281 -0.0346  0.2771  0.3488
 1268SOL    HW2 5125   0.917   3.288   2.326  0.3432 -0.2626  1.1816
 1268SOL    HW3 5126   0.824   3.169   2.333 -0.4853  0.2839 -0.2691
 1268SOL    MW4 5127   0.889   3.212   2.294 -0.0442  0.2067  0.3769
 1269SOL     OW 5128   0.934   3.466   2.357 -0.1682 -0.2929 -0.2316
 1269SOL    HW2 5129   0.933   3.495   2.448  0.7321 -0.9205 -0.0142
 1269SOL    HW3 5130   0.847   3.486   2.324 -0.0287  1.2998  0.3396
 1269SOL    MW4 5131   0.922   3.472   2.365 -0.0310 -0.1657 -0.1278
 1270SOL     OW 5132   1.125   3.632   2.224  0.0945 -0.2518  0.1216
 1270SOL    HW2 5133   1.193   3.587   2.274  0.5565 -0.5886 -0.7966
 1270SOL    HW3 5134   1.044   3.585   2.246 -0.1459  1.1844  2.5048
 1270SOL    MW4 5135   1.123   3.620   2.234  0.1237 -0.1066  0.3150
 1271SOL     OW 5136   1.087   3.881   2.340 -0.1312  0.0100  0.0928
 1271SOL    HW2 5137   1.170   3.928   2.349 -0.6406  1.1326 -0.9065
 1271SOL    HW3 5138   1.111   3.796   2.303  0.7585 -0.3717  1.5215
 1271SOL    MW4 5139   1.101   3.876   2.336 -0.0811  0.1078  0.1495
 1272SOL     OW 5140   0.852   4.018   2.284 -0.2130  0.0991  0.0037
 1272SOL    HW2 5141   0.935   3.979   2.309 -0.9234 -1.1235  0.5290
 1272SOL    HW3 5142   0.786   3.957   2.319 -1.2991  0.6176 -1.1259
 1272SOL    MW4 5143   0.854   4.005   2.292 -0.4500  0.0067 -0.0758
 1273SOL     OW 5144   0.889   4.281   2.363  0.4082  0.0850 -0.0437
 1273SOL    HW2 5145   0.885   4.195   2.321  0.9972  0.8590 -1.7273
 1273SOL    HW3 5146   0.816   4.330   2.325  0.6488  0.6406  0.2011
 1273SOL    MW4 5147   0.879   4.276   2.353  0.5177  0.2604 -0.2332
 1274SOL     OW 5148   1.147   4.383   2.318  0.0857 -0.0585 -0.2359
 1274SOL    HW2 5149   1.066   4.357   2.361  0.7161 -0.9079  0.4564
 1274SOL    HW3 5150   1.168   4.468   2.358 -0.5202  0.2185 -0.5037
 1274SOL    MW4 5151   1.139   4.391   2.329  0.0888 -0.1345 -0.1800
 1275SOL     OW 5152   1.558   4.657   2.413  0.0270 -0.0085 -0.0365
 1275SOL    HW2 5153   1.637   4.692   2.372  0.1678  0.3078  0.4965
 1275SOL    HW3 5154   1.485   4.695   2.363  0.1853  0.7735  0.3194
 1275SOL    MW4 5155   1.559   4.666   2.401  0.0665  0.1369  0.0806
 1276SOL     OW 5156   1.338   0.075   2.272  0.3061 -0.4095 -0.2442
 1276SOL    HW2 5157   1.322   0.169   2.281  2.0974 -0.1601  0.6358
 1276SOL    HW3 5158   1.258   0.034   2.304  0.2579  0.7947  1.2352
 1276SOL    MW4 5159   1.325   0.082   2.278  0.5362 -0.2177  0.0672
 1277SOL     OW 5160   1.319   0.349   2.346  0.1231  0.1112 -0.3868
 1277SOL    HW2 5161   1.323   0.324   2.439  0.0572 -0.9004 -0.6471
 1277SOL    HW3 5162   1.400   0.397   2.332 -0.1658  0.8334  0.3523
 1277SOL    MW4 5163   1.330   0.352   2.357  0.0763  0.0730 -0.3235
 1278SOL     OW 5164   1.566   0.473   2.295 -0.2342 -0.2276 -0.2440
 1278SOL    HW2 5165   1.646   0.441   2.338 -0.2040  0.8028  0.4779
 1278SOL    HW3 5166   1.586   0.469   2.201  0.9073  0.6438 -0.0424
 1278SOL    MW4 5167   1.579   0.468   2.288 -0.0795  0.0234 -0.1221
 1279SOL     OW 5168   1.564   0.747   2.355 -0.3906 -0.8342  0.2462
 1279SOL    HW2 5169   1.649   0.785   2.336 -0.4497 -1.0558 -0.4637
 1279SOL    HW3 5170   1.575   0.653   2.336 -0.9696 -0.7631 -0.4448
 1279SOL    MW4 5171   1.576   0.739   2.350 -0.4748 -0.8540  0.0610
 1280SOL     OW 5172   1.388   0.912   2.237  0.1259  0.0400 -0.3559
 1280SOL    HW2 5173   1.448   0.845   2.268 -0.8190 -1.6466 -2.0267
 1280SOL    HW3 5174   1.308   0.898   2.288  0.5252  1.0614  0.5508
 1280SOL    MW4 5175   1.385   0.901   2.248  0.0541 -0.0478 -0.4566
 1281SOL     OW 5176   1.388   1.172   2.320 -0.3052  0.3068 -0.0435
 1281SOL    HW2 5177   1.367   1.173   2.413 -0.8257 -0.8232 -0.1342
 1281SOL    HW3 5178   1.397   1.079   2.299  0.7311  0.5908 -0.9149
 1281SOL    MW4 5179   1.387   1.160   2.330 -0.2371  0.1953 -0.1705
 1282SOL     OW 5180   1.619   1.289   2.254 -0.0166 -0.0519  0.1625
 1282SOL    HW2 5181   1.535   1.247   2.268  0.0317 -0.0160  0.5749
 1282SOL    HW3 5182   1.618   1.316   2.162 -0.1051 -0.8251 -0.0686
 1282SOL    MW4 5183   1.608   1.287   2.244 -0.0219 -0.1493  0.1864
 1283SOL     OW 5184   1.571   1.543   2.374 -0.4996 -0.5669  0.0579
 1283SOL    HW2 5185   1.639   1.592   2.328 -0.5200  0.4864  1.1155
 1283SOL    HW3 5186   1.574   1.456   2.336  1.8965 -0.7286  0.5456
 1283SOL    MW4 5187   1.580   1.538   2.363 -0.1862 -0.4493  0.2620
 1284SOL     OW 5188   1.339   1.677   2.232  0.3214 -0.0763  0.0563
 1284SOL    HW2 5189   1.413   1.637   2.278 -0.0359  1.7868  2.3369
 1284SOL    HW3 5190   1.262   1.646   2.280 -0.2951 -0.6851 -1.3006
 1284SOL    MW4 5191   1.339   1.667   2.245  0.1930  0.0892  0.1781
 1285SOL     OW 5192   1.295   1.922   2.367 -0.4514 -0.4418 -0.1337
 1285SOL    HW2 5193   1.365   1.983   2.346 -0.3894 -0.0832  1.0898
 1285SOL    HW3 5194   1.321   1.840   2.326 -0.2190  0.1839 -1.2379
 1285SOL    MW4 5195   1.308   1.919   2.359 -0.4125 -0.3119 -0.1180
 1286SOL     OW 5196   1.511   2.071   2.278  0.1617 -0.1530  0.0913
 1286SOL    HW2 5197   1.592   2.034   2.313  0.5168 -0.5540 -1.1157
 1286SOL    HW3 5198   1.524   2.071   2.183 -1.3668 -0.5053 -0.1380
 1286SOL    MW4 5199   1.523   2.066   2.270  0.0068 -0.2522 -0.0982
 1287SOL     OW 5200   1.559   2.341   2.340  0.5035 -0.3621 -0.5653
 1287SOL    HW2 5201   1.581   2.343   2.433  0.8689 -0.8007 -0.6411
 1287SOL    HW3 5202   1.552   2.248   2.319  2.6445 -0.3379 -1.4983
 1287SOL    MW4 5203   1.561   2.329   2.349  0.8342 -0.4170 -0.6986
 1288SOL     OW 5204   1.339   2.504   2.269 -0.0177  0.2965  0.1429
 1288SOL    HW2 5205   1.403   2.441   2.302 -0.1911  0.1167  0.1372
 1288SOL    HW3 5206   1.343   2.494   2.174 -0.6204 -0.2816  0.1689
 1288SOL    MW4 5207   1.348   2.494   2.261 -0.1199  0.1965  0.1454
 1289SOL     OW 5208   1.325   2.747   2.386 -0.0202 -0.1467 -0.1554
 1289SOL    HW2 5209   1.405   2.796   2.369  0.8136 -1.1564  0.7525
 1289SOL    HW3 5210   1.345   2.659   2.354 -0.1003 -0.8676  1.7478
 1289SOL    MW4 5211   1.338   2.742   2.379  0.0792 -0.3746  0.2155
 1290SOL     OW 5212   1.559   2.850   2.284 -0.5011 -0.2594  0.1477
 1290SOL    HW2 5213   1.558   2.946   2.290  0.1468 -0.2822  0.7266
 1290SOL    HW3 5214   1.568   2.832   2.191  0.5141  0.2613  0.1319
 1290SOL    MW4 5215   1.560   2.860   2.272 -0.2817 -0.1936  0.2217
 1291SOL     OW 5216   1.595   3.118   2.378 -0.0601  0.2673 -0.1731
 1291SOL    HW2 5217   1.594   3.113   2.474  0.7772 -0.2683 -0.1887
 1291SOL    HW3 5218   1.514   3.163   2.356 -0.2594  0.3979  0.7914
 1291SOL    MW4 5219   1.584   3.124   2.388  0.0241  0.2139 -0.0477
 1292SOL     OW 5220   1.362   3.257   2.301 -0.2232  0.2312  0.0680
 1292SOL    HW2 5221   1.284   3.207   2.326  0.1196  0.3516  1.4229
 1292SOL    HW3 5222   1.368   3.247   2.206 -0.4513 -1.8809  0.2502
 1292SOL    MW4 5223   1.353   3.249   2.291 -0.2080 -0.0312  0.2708
 1293SOL     OW 5224   1.321   3.519   2.377 -0.0207  0.1552  0.2397
 1293SOL    HW2 5225   1.310   3.510   2.472  0.4874 -0.3921  0.2509
 1293SOL    HW3 5226   1.348   3.432   2.348  1.5347  0.7484 -0.1676
 1293SOL    MW4 5227   1.323   3.506   2.386  0.2518  0.1614  0.1874
 1294SOL     OW 5228   1.544   3.654   2.243 -0.2096 -0.0280 -0.3076
 1294SOL    HW2 5229   1.568   3.725   2.304 -0.2909 -0.1294 -0.1567
 1294SOL    HW3 5230   1.466   3.615   2.282 -0.7113  0.4005 -0.8835
 1294SOL    MW4 5231   1.537   3.658   2.256 -0.2865  0.0150 -0.3638
 1295SOL     OW 5232   1.579   3.879   2.401  0.0724  0.4917  0.3684
 1295SOL    HW2 5233   1.580   3.886   2.496  0.4817 -0.5206  0.4387
 1295SOL    HW3 5234   1.660   3.923   2.373  0.0619  0.5937  0.4982
 1295SOL    MW4 5235   1.590   3.886   2.410  0.1251  0.3719  0.3948
 1296SOL     OW 5236   1.349   3.987   2.305  0.2722  0.0337  0.2363
 1296SOL    HW2 5237   1.434   3.968   2.345  0.8559  1.2819 -0.3868
 1296SOL    HW3 5238   1.367   3.992   2.211 -0.6745 -0.6466  0.0084
 1296SOL    MW4 5239   1.362   3.985   2.297  0.2244  0.1087  0.1240
 1297SOL     OW 5240   1.389   4.250   2.384 -0.2874 -0.6045  0.2793
 1297SOL    HW2 5241   1.373   4.164   2.344 -0.9721  0.3052 -1.4170
 1297SOL    HW3 5242   1.314   4.303   2.359  0.4386  0.6879  0.7927
 1297SOL    MW4 5243   1.377   4.245   2.375 -0.2820 -0.3138  0.1230
 1298SOL     OW 5244   1.610   4.399   2.306 -0.2894 -0.1155 -0.1676
 1298SOL    HW2 5245   1.531   4.346   2.320 -0.0350 -0.3084  0.5211
 1298SOL    HW3 5246   1.590   4.482   2.349 -0.1256 -0.1558 -0.0162
 1298SOL    MW4 5247   1.597   4.403   2.313 -0.2342 -0.1469 -0.0567
 1299SOL     OW 5248   2.038   4.661   2.358  0.1247 -0.4304 -0.8413
 1299SOL    HW2 5249   2.118   4.711   2.340  1.3172 -1.4317  1.4634
 1299SOL    HW3 5250   2.053   4.577   2.314 -0.6622  0.1930 -2.3291
 1299SOL    MW4 5251   2.051   4.656   2.349  0.1786 -0.4807 -0.7336
 1300SOL     OW 5252   1.790   0.096   2.284 -0.1754  0.1240 -0.3916
 1300SOL    HW2 5253   1.780   0.184   2.321  0.4257 -0.0288  0.1520
 1300SOL    HW3 5254   1.879   0.070   2.309  0.0594 -0.1793 -1.5385
 1300SOL    MW4 5255   1.801   0.105   2.292 -0.0651  0.0638 -0.4711
 1301SOL     OW 5256   1.784   0.379   2.430 -0.0341 -0.5378  0.0576
 1301SOL    HW2 5257   1.819   0.376   2.519 -0.3841  0.5555  0.2373
 1301SOL    HW3 5258   1.853   0.421   2.379 -0.2981 -0.1304  0.0356
 1301SOL    MW4 5259   1.798   0.384   2.435 -0.1152 -0.3398  0.0787
 1302SOL     OW 5260   2.026   0.508   2.311  0.0501 -0.5195  0.1634
 1302SOL    HW2 5261   2.035   0.598   2.340 -0.6656 -0.6738  0.9052
 1302SOL    HW3 5262   2.003   0.514   2.218 -0.9885  0.1055  0.4459
 1302SOL    MW4 5263   2.024   0.521   2.303 -0.1814 -0.4575  0.2985
 1303SOL     OW 5264   2.050   0.783   2.406 -0.0213 -0.0923 -0.0679
 1303SOL    HW2 5265   2.122   0.823   2.358  0.6041  0.3018  1.1776
 1303SOL    HW3 5266   1.971   0.814   2.362  0.4720  1.8982  0.3961
 1303SOL    MW4 5267   2.049   0.792   2.394  0.1261  0.2223  0.1576
 1304SOL     OW 5268   1.817   0.850   2.293 -0.0080  0.0471  0.1105
 1304SOL    HW2 5269   1.806   0.940   2.324  0.4110 -0.0745  0.6255
 1304SOL    HW3 5270   1.834   0.859   2.199 -0.0791  0.4999  0.1400
 1304SOL    MW4 5271   1.818   0.863   2.285  0.0377  0.0908  0.1824
 1305SOL     OW 5272   1.806   1.116   2.351 -0.1796  0.2307  0.6849
 1305SOL    HW2 5273   1.892   1.153   2.333 -0.0235 -1.1091 -1.6333
 1305SOL    HW3 5274   1.745   1.173   2.305 -0.1604 -0.8704 -0.7663
 1305SOL    MW4 5275   1.809   1.128   2.342 -0.1564 -0.0913  0.1876
 1306SOL     OW 5276   2.028   1.271   2.275 -0.0607 -0.5300 -0.1996
 1306SOL    HW2 5277   1.992   1.358   2.292 -0.5020 -0.6112 -0.7257
 1306SOL    HW3 5278   2.036   1.267   2.180  1.4691 -0.4591 -0.0819
 1306SOL    MW4 5279   2.024   1.282   2.265  0.0830 -0.5312 -0.2532
 1307SOL     OW 5280   2.031   1.537   2.348 -0.3526  0.4984 -0.1361
 1307SOL    HW2 5281   2.027   1.514   2.441 -0.1041  0.4398 -0.1373
 1307SOL    HW3 5282   1.950   1.585   2.331 -0.0560  1.1635  0.2872
 1307SOL    MW4 5283   2.020   1.540   2.358 -0.2809  0.5784 -0.0806
 1308SOL     OW 5284   1.795   1.689   2.259  0.0136  0.3243  0.0887
 1308SOL    HW2 5285   1.776   1.774   2.298  1.7215  0.3208  0.9750
 1308SOL    HW3 5286   1.775   1.700   2.166  1.0429  1.9713  0.0365
 1308SOL    MW4 5287   1.790   1.702   2.252  0.3748  0.5411  0.1991
 1309SOL     OW 5288   1.750   1.938   2.363  0.6276  0.1967 -0.2440
 1309SOL    HW2 5289   1.763   1.916   2.455  0.1281  0.0498 -0.2071
 1309SOL    HW3 5290   1.832   1.980   2.336  0.1712  1.7015  0.6916
 1309SOL    MW4 5291   1.763   1.940   2.371  0.5015  0.3759 -0.1159
 1310SOL     OW 5292   2.010   2.015   2.279 -0.2803 -0.0315  0.5939
 1310SOL    HW2 5293   2.084   1.967   2.318 -0.0152 -0.3000 -0.2217
 1310SOL    HW3 5294   2.030   2.017   2.185 -0.6938  0.9907  0.5251
 1310SOL    MW4 5295   2.022   2.009   2.271 -0.2997  0.0682  0.4773
 1311SOL     OW 5296   2.013   2.296   2.342 -0.0691 -0.4398 -0.3638
 1311SOL    HW2 5297   2.086   2.342   2.301  1.5187 -1.2411  1.4445
 1311SOL    HW3 5298   2.030   2.204   2.324 -1.6085 -0.5244 -1.4220
 1311SOL    MW4 5299   2.025   2.290   2.334 -0.0627 -0.5567 -0.2646
 1312SOL     OW 5300   1.782   2.460   2.236  0.1211  0.0060 -0.0210
 1312SOL    HW2 5301   1.838   2.412   2.297  0.5784 -0.0162 -0.4612
 1312SOL    HW3 5302   1.696   2.419   2.246  0.3578 -0.4683  0.0885
 1312SOL    MW4 5303   1.778   2.448   2.245  0.2127 -0.0596 -0.0644
 1313SOL     OW 5304   1.782   2.719   2.387  0.3783  0.6847  0.3237
 1313SOL    HW2 5305   1.790   2.643   2.329  4.3407  1.9218 -0.9526
 1313SOL    HW3 5306   1.709   2.770   2.351 -0.7921 -1.3333 -0.2007
 1313SOL    MW4 5307   1.774   2.716   2.374  0.7466  0.5817  0.0863
 1314SOL     OW 5308   2.022   2.818   2.278 -0.2998  0.2460  0.4401
 1314SOL    HW2 5309   2.099   2.787   2.326 -0.6642 -1.4740 -0.0330
 1314SOL    HW3 5310   1.947   2.790   2.332 -0.6300  0.9427  0.3523
 1314SOL    MW4 5311   2.022   2.810   2.292 -0.3915  0.1111  0.3662
 1315SOL     OW 5312   2.038   3.095   2.400 -0.2486 -0.3803  0.1890
 1315SOL    HW2 5313   2.114   3.137   2.361  0.0440 -0.3576  0.7871
 1315SOL    HW3 5314   2.019   3.021   2.342  0.8651 -1.0081  0.6044
 1315SOL    MW4 5315   2.045   3.091   2.387 -0.0632 -0.4599  0.3228
 1316SOL     OW 5316   1.823   3.252   2.283 -0.2002 -0.0758  0.2029
 1316SOL    HW2 5317   1.892   3.206   2.330 -1.3294 -2.4046 -0.3238
 1316SOL    HW3 5318   1.742   3.213   2.316 -1.1897  1.1843 -0.6805
 1316SOL    MW4 5319   1.821   3.241   2.294 -0.4797 -0.2170  0.0169
 1317SOL     OW 5320   1.768   3.502   2.393 -0.5573  0.4482  0.2317
 1317SOL    HW2 5321   1.798   3.418   2.358  0.5762  0.4429  1.1870
 1317SOL    HW3 5322   1.698   3.529   2.334 -0.3869 -0.7842 -0.5477
 1317SOL    MW4 5323   1.763   3.495   2.381 -0.3853  0.2849  0.2546
 1318SOL     OW 5324   2.028   3.617   2.282  0.0620 -0.1187  0.2620
 1318SOL    HW2 5325   1.939   3.585   2.288 -0.3146  1.0737  1.2506
 1318SOL    HW3 5326   2.050   3.612   2.188 -1.6370  1.1679 -0.2218
 1318SOL    MW4 5327   2.019   3.612   2.270 -0.2120  0.2084  0.3288
 1319SOL     OW 5328   2.060   3.870   2.395  0.2367 -0.0516  0.2243
 1319SOL    HW2 5329   2.030   3.861   2.485 -0.3305 -0.1475  0.0233
 1319SOL    HW3 5330   2.068   3.780   2.363  1.9439 -0.0830  0.6740
 1319SOL    MW4 5331   2.057   3.857   2.403  0.3872 -0.0682  0.2573
 1320SOL     OW 5332   1.816   3.987   2.320  0.3084 -0.1683  0.0802
 1320SOL    HW2 5333   1.907   3.969   2.346  0.3423 -0.7608 -0.4567
 1320SOL    HW3 5334   1.819   3.994   2.225 -0.0198  0.8902  0.1435
 1320SOL    MW4 5335   1.829   3.986   2.311  0.2697 -0.1070  0.0179
 1321SOL     OW 5336   1.831   4.250   2.401 -0.0811  0.2660 -0.3970
 1321SOL    HW2 5337   1.821   4.161   2.368 -0.5006  0.6907 -1.4184
 1321SOL    HW3 5338   1.748   4.293   2.380  0.2234  0.9750 -0.1599
 1321SOL    MW4 5339   1.819   4.244   2.394 -0.0963  0.4153 -0.5009
 1322SOL     OW 5340   2.052   4.372   2.276 -0.3254  0.2427 -0.4370
 1322SOL    HW2 5341   1.971   4.337   2.313 -1.0807  1.5984 -0.7793
 1322SOL    HW3 5342   2.040   4.366   2.182 -0.5251  1.5239 -0.5037
 1322SOL    MW4 5343   2.040   4.367   2.269 -0.4513  0.5903 -0.4909
 1323SOL     OW 5344   2.509   4.621   2.370  0.8163 -0.0048 -0.3292
 1323SOL    HW2 5345   2.581   4.666   2.325  1.6389 -0.7512  0.2487
 1323SOL    HW3 5346   2.500   4.537   2.324  1.1588 -0.4510  0.4278
 1323SOL    MW4 5347   2.517   4.616   2.358  0.9701 -0.1621 -0.1531
 1324SOL     OW 5348   2.272   0.116   2.327 -0.3229  0.1152  0.1116
 1324SOL    HW2 5349   2.280   0.206   2.357 -1.4689  0.4472 -0.5157
 1324SOL    HW3 5350   2.346   0.070   2.366  0.8925  1.5649 -0.4505
 1324SOL    MW4 5351   2.283   0.122   2.336 -0.3138  0.3503 -0.0453
 1325SOL     OW 5352   2.261   0.390   2.404 -0.0679 -0.4565 -0.3420
 1325SOL    HW2 5353   2.329   0.426   2.347 -0.2197  0.2102 -0.1064
 1325SOL    HW3 5354   2.180   0.427   2.371 -0.2494 -0.7560 -0.2298
 1325SOL    MW4 5355   2.260   0.399   2.392 -0.1118 -0.4081 -0.2964
 1326SOL     OW 5356   2.458   0.530   2.250 -0.1272 -0.5043  0.0586
 1326SOL    HW2 5357   2.526   0.472   2.285 -1.0526 -0.8759  1.2869
 1326SOL    HW3 5358   2.445   0.501   2.160  0.8338 -0.9013  0.0485
 1326SOL    MW4 5359   2.465   0.518   2.243 -0.1223 -0.6058  0.2191
 1327SOL     OW 5360   2.465   0.793   2.383 -0.2368  0.5149 -0.7222
 1327SOL    HW2 5361   2.553   0.823   2.362  0.4303  0.6556  2.1493
 1327SOL    HW3 5362   2.464   0.701   2.357  0.5253  0.6880 -1.3916
 1327SOL    MW4 5363   2.476   0.785   2.377 -0.0479  0.5563 -0.4315
 1328SOL     OW 5364   2.258   0.893   2.254 -0.5581 -0.4864 -0.0077
 1328SOL    HW2 5365   2.240   0.973   2.303 -1.8178 -1.4144  1.0902
 1328SOL    HW3 5366   2.335   0.856   2.297 -0.4940 -0.3093  0.0303
 1328SOL    MW4 5367   2.266   0.899   2.266 -0.7160 -0.5855  0.1419
 1329SOL     OW 5368   2.250   1.133   2.389 -0.4633 -0.4286  0.4362
 1329SOL    HW2 5369   2.321   1.184   2.350  0.3543 -1.1527  0.9450
 1329SOL    HW3 5370   2.171   1.180   2.366  0.2499  0.8822  0.6187
 1329SOL    MW4 5371   2.249   1.146   2.381 -0.2615 -0.3513  0.5274
 1330SOL     OW 5372   2.476   1.287   2.269  0.0049 -0.0751 -0.1258
 1330SOL    HW2 5373   2.554   1.257   2.315  0.7231 -0.8700 -1.8311
 1330SOL    HW3 5374   2.453   1.369   2.312  1.4345 -0.1379  0.7765
 1330SOL    MW4 5375   2.483   1.294   2.281  0.2880 -0.1882 -0.2320
 1331SOL     OW 5376   2.463   1.545   2.366 -0.3644 -0.1865  0.2615
 1331SOL    HW2 5377   2.461   1.567   2.459  0.3396 -1.4997  0.6136
 1331SOL    HW3 5378   2.551   1.570   2.338 -0.3751 -0.3304  0.0970
 1331SOL    MW4 5379   2.475   1.551   2.375 -0.2728 -0.3786  0.2861
 1332SOL     OW 5380   2.227   1.692   2.256  0.2743  0.0383  0.2474
 1332SOL    HW2 5381   2.299   1.640   2.290 -0.1889 -0.4085  0.5461
 1332SOL    HW3 5382   2.148   1.641   2.275 -0.3695  1.6916  2.2980
 1332SOL    MW4 5383   2.226   1.679   2.263  0.1283  0.1975  0.5574
 1333SOL     OW 5384   2.268   1.917   2.397  0.1528  0.4690  0.1260
 1333SOL    HW2 5385   2.328   1.965   2.340  0.2575  0.1813 -0.0068
 1333SOL    HW3 5386   2.255   1.834   2.353  0.9634 -0.1162  0.9682
 1333SOL    MW4 5387   2.274   1.913   2.384  0.2735  0.3538  0.2196
 1334SOL     OW 5388   2.450   2.090   2.247 -0.0450  0.0353 -0.6454
 1334SOL    HW2 5389   2.524   2.044   2.287 -0.0057  0.2786 -0.4379
 1334SOL    HW3 5390   2.464   2.079   2.152  1.1182  1.4219 -0.6486
 1334SOL    MW4 5391   2.462   2.082   2.239  0.1137  0.2503 -0.6185
 1335SOL     OW 5392   2.449   2.346   2.349  0.4546  0.2696  0.0117
 1335SOL    HW2 5393   2.534   2.375   2.318  0.1350  0.1223 -1.0000
 1335SOL    HW3 5394   2.441   2.256   2.317  1.3244 -0.8978  2.8868
 1335SOL    MW4 5395   2.459   2.338   2.341  0.5271  0.0961  0.2575
 1336SOL     OW 5396   2.218   2.466   2.268  0.0771 -0.3127  0.2714
 1336SOL    HW2 5397   2.213   2.558   2.295 -0.7001 -0.3035  0.1086
 1336SOL    HW3 5398   2.306   2.438   2.294  1.1690  1.1186 -1.6922
 1336SOL    MW4 5399   2.229   2.474   2.275  0.1183 -0.1225 -0.0091
 1337SOL     OW 5400   2.244   2.721   2.386 -0.3823 -0.1998 -0.0276
 1337SOL    HW2 5401   2.250   2.717   2.481  0.1654 -0.2489 -0.0665
 1337SOL    HW3 5402   2.327   2.759   2.358 -0.4254 -0.4592 -0.5073
 1337SOL    MW4 5403   2.255   2.725   2.395 -0.3157 -0.2406 -0.0961
 1338SOL     OW 5404   2.478   2.816   2.302  0.0895  0.1305  0.0839
 1338SOL    HW2 5405   2.563   2.777   2.324 -0.6848 -1.1406  0.8819
 1338SOL    HW3 5406   2.485   2.837   2.209  0.7461 -1.3413 -0.2111
 1338SOL    MW4 5407   2.490   2.814   2.293  0.0741 -0.2315  0.1504
 1339SOL     OW 5408   2.469   3.086   2.375 -0.1085  0.0570  0.0737
 1339SOL    HW2 5409   2.552   3.132   2.365  0.1728 -0.3216  0.7032
 1339SOL    HW3 5410   2.490   2.994   2.361 -0.3366 -0.0939  0.7371
 1339SOL    MW4 5411   2.482   3.080   2.372 -0.1016 -0.0129  0.2441
 1340SOL     OW 5412   2.247   3.209   2.279 -0.5375 -0.2252  0.1830
 1340SOL    HW2 5413   2.252   3.295   2.321  0.3608  0.4627 -1.2971
 1340SOL    HW3 5414   2.323   3.162   2.311  0.5414  0.5498 -1.1796
 1340SOL    MW4 5415   2.258   3.214   2.288 -0.2766 -0.0322 -0.1919
 1341SOL     OW 5416   2.242   3.463   2.382 -0.6736  0.1087  0.5177
 1341SOL    HW2 5417   2.244   3.472   2.477 -0.6709  1.2287  0.4186
 1341SOL    HW3 5418   2.156   3.497   2.356 -0.4137  0.4189  0.0570
 1341SOL    MW4 5419   2.231   3.468   2.391 -0.6390  0.2975  0.4437
 1342SOL     OW 5420   2.470   3.601   2.257 -0.2132 -0.3315  0.4745
 1342SOL    HW2 5421   2.466   3.690   2.292  0.2598  0.3274 -1.0857
 1342SOL    HW3 5422   2.393   3.557   2.294 -0.4255  0.7116  1.2867
 1342SOL    MW4 5423   2.459   3.607   2.266 -0.1786 -0.1068  0.3757
 1343SOL     OW 5424   2.492   3.865   2.376 -0.0885 -0.0900  0.0422
 1343SOL    HW2 5425   2.496   3.854   2.471 -2.4446  0.0566  0.1889
 1343SOL    HW3 5426   2.421   3.928   2.363 -0.0508 -0.4341 -1.8453
 1343SOL    MW4 5427   2.483   3.872   2.387 -0.3946 -0.1161 -0.1872
 1344SOL     OW 5428   2.254   4.001   2.251 -0.0775  0.2964 -0.1307
 1344SOL    HW2 5429   2.252   4.082   2.301  0.3045 -0.3785  0.9938
 1344SOL    HW3 5430   2.188   3.945   2.293  0.3133 -0.3139 -0.3189
 1344SOL    MW4 5431   2.245   4.004   2.263  0.0246  0.1268 -0.0069
 1345SOL     OW 5432   2.265   4.265   2.391  0.0355 -0.3861  0.1389
 1345SOL    HW2 5433   2.244   4.257   2.484  1.1640 -0.6883  0.3625
 1345SOL    HW3 5434   2.188   4.309   2.353  0.2692  1.2167  1.4919
 1345SOL    MW4 5435   2.252   4.270   2.398  0.2153 -0.2151  0.3469
 1346SOL     OW 5436   2.479   4.371   2.268 -0.1060  0.0215  0.1051
 1346SOL    HW2 5437   2.554   4.333   2.314 -0.6240  0.9498  1.7319
 1346SOL    HW3 5438   2.402   4.336   2.313 -0.6140  1.5567  0.4572
 1346SOL    MW4 5439   2.479   4.361   2.280 -0.2415  0.3457  0.3662
 1347SOL     OW 5440   2.928   4.665   2.381 -0.1268 -0.2483  0.7708
 1347SOL    HW2 5441   3.006   4.706   2.346 -0.9232  1.2506  0.7278
 1347SOL    HW3 5442   2.922   4.581   2.335  1.2994 -0.2651  0.5981
 1347SOL    MW4 5443   2.937   4.659   2.371 -0.0439 -0.0528  0.7422
 1348SOL     OW 5444   2.695   0.107   2.244  0.0343 -0.3192 -0.6166
 1348SOL    HW2 5445   2.707   0.196   2.277  0.7662  0.3150 -2.4719
 1348SOL    HW3 5446   2.767   0.057   2.281 -0.4890 -0.1952  0.5864
 1348SOL    MW4 5447   2.706   0.112   2.253  0.0618 -0.2192 -0.7026
 1349SOL     OW 5448   2.664   0.365   2.337  0.4927  0.1711  0.2847
 1349SOL    HW2 5449   2.667   0.375   2.432  0.4744  1.5227  0.1536
 1349SOL    HW3 5450   2.751   0.391   2.307 -0.0578  1.4497 -0.2161
 1349SOL    MW4 5451   2.676   0.370   2.345  0.4177  0.5181  0.2012
 1350SOL     OW 5452   2.913   0.475   2.285  0.8758  0.0402 -0.2075
 1350SOL    HW2 5453   2.915   0.565   2.317  2.0154 -0.0988  0.1131
 1350SOL    HW3 5454   2.906   0.484   2.190  1.5480  0.4752 -0.2200
 1350SOL    MW4 5455   2.912   0.488   2.277  1.1148  0.0793 -0.1669
 1351SOL     OW 5456   2.928   0.754   2.350  0.0604 -0.3385 -0.2931
 1351SOL    HW2 5457   2.932   0.758   2.445  0.9908  1.4058 -0.3808
 1351SOL    HW3 5458   2.855   0.811   2.326  0.4394  0.0046 -0.6558
 1351SOL    MW4 5459   2.919   0.762   2.359  0.2329 -0.0631 -0.3524
 1352SOL     OW 5460   2.710   0.930   2.282  0.1441  0.6997  0.3003
 1352SOL    HW2 5461   2.736   1.022   2.286  0.4636  0.7375 -1.9055
 1352SOL    HW3 5462   2.700   0.912   2.189 -1.0080 -1.2116  0.7648
 1352SOL    MW4 5463   2.712   0.939   2.271  0.0341  0.4526  0.0706
 1353SOL     OW 5464   2.747   1.205   2.369  0.1601  1.2089  0.0154
 1353SOL    HW2 5465   2.767   1.185   2.460  0.7449 -0.5924 -0.4855
 1353SOL    HW3 5466   2.829   1.238   2.333  0.9704 -1.4261 -0.7313
 1353SOL    MW4 5467   2.760   1.206   2.376  0.3440  0.6236 -0.1490
 1354SOL     OW 5468   2.976   1.343   2.275  0.3679  0.1649 -0.1738
 1354SOL    HW2 5469   3.043   1.283   2.309 -0.2057 -0.3497  0.0594
 1354SOL    HW3 5470   2.992   1.345   2.181 -0.8796 -1.9550 -0.4618
 1354SOL    MW4 5471   2.987   1.335   2.267  0.1278 -0.1826 -0.1812
 1355SOL     OW 5472   2.984   1.631   2.384 -0.0046 -0.2062 -0.1946
 1355SOL    HW2 5473   2.964   1.625   2.478 -1.1664  0.2641 -0.3912
 1355SOL    HW3 5474   2.972   1.543   2.351  0.3163 -0.3553  0.0818
 1355SOL    MW4 5475   2.980   1.619   2.392 -0.1156 -0.1637 -0.1841
 1356SOL     OW 5476   2.730   1.723   2.289 -0.2279  0.1264 -0.2924
 1356SOL    HW2 5477   2.820   1.690   2.297 -0.7484 -0.9860  1.3918
 1356SOL    HW3 5478   2.707   1.710   2.197  1.6510  1.2701 -0.9466
 1356SOL    MW4 5479   2.739   1.717   2.278 -0.0486  0.1304 -0.1564
 1357SOL     OW 5480   2.674   1.969   2.391 -0.3392  0.5314  0.0568
 1357SOL    HW2 5481   2.673   1.955   2.485 -2.8239  0.6552  0.0706
 1357SOL    HW3 5482   2.700   1.884   2.355  0.4719  0.4439  0.8204
 1357SOL    MW4 5483   2.677   1.956   2.398 -0.5600  0.5363  0.1595
 1358SOL     OW 5484   2.920   2.042   2.228 -0.0293 -0.2924 -0.2214
 1358SOL    HW2 5485   2.994   2.014   2.281  0.2820  1.0073  0.0416
 1358SOL    HW3 5486   2.843   2.027   2.283  0.1026 -0.8914 -0.1970
 1358SOL    MW4 5487   2.919   2.036   2.242  0.0293 -0.2000 -0.1836
 1359SOL     OW 5488   2.959   2.305   2.329  0.5923 -0.4055  0.2266
 1359SOL    HW2 5489   2.934   2.308   2.421  1.0881  1.6566  0.3010
 1359SOL    HW3 5490   2.941   2.214   2.303 -3.0644 -0.1063  1.3615
 1359SOL    MW4 5491   2.953   2.293   2.338  0.1755 -0.0937  0.3860
 1360SOL     OW 5492   2.696   2.412   2.263 -0.1943  0.1538 -0.2130
 1360SOL    HW2 5493   2.784   2.382   2.283 -0.3152  0.1651  0.3472
 1360SOL    HW3 5494   2.688   2.403   2.168  0.1170 -0.6393 -0.1657
 1360SOL    MW4 5495   2.706   2.407   2.254 -0.1690  0.0505 -0.1330
 1361SOL     OW 5496   2.704   2.678   2.340  0.2588 -0.1195 -0.3609
 1361SOL    HW2 5497   2.781   2.715   2.297  0.0079 -0.3816 -1.0487
 1361SOL    HW3 5498   2.707   2.585   2.319  0.4251 -0.3399  0.6468
 1361SOL    MW4 5499   2.714   2.671   2.331  0.2477 -0.1831 -0.3185
 1362SOL     OW 5500   2.935   2.823   2.217 -0.3112  0.0644 -0.2467
 1362SOL    HW2 5501   2.928   2.909   2.259  0.5164  0.0267 -0.0289
 1362SOL    HW3 5502   2.937   2.843   2.123 -0.1453  0.2856 -0.1973
 1362SOL    MW4 5503   2.935   2.837   2.210 -0.1805  0.0885 -0.2112
 1363SOL     OW 5504   2.954   3.044   2.361 -0.0890  0.3895  0.3199
 1363SOL    HW2 5505   3.035   3.095   2.353 -0.2441  0.3335 -1.7075
 1363SOL    HW3 5506   2.884   3.108   2.346 -0.3528  0.0210 -0.0339
 1363SOL    MW4 5507   2.956   3.059   2.358 -0.1442  0.3335  0.0057
 1364SOL     OW 5508   2.718   3.211   2.302 -0.0549  0.1128 -0.1303
 1364SOL    HW2 5509   2.715   3.302   2.330  0.1744  0.1578 -0.2413
 1364SOL    HW3 5510   2.733   3.216   2.207  0.6284 -0.0408 -0.0337
 1364SOL    MW4 5511   2.720   3.224   2.293  0.0656  0.0985 -0.1326
 1365SOL     OW 5512   2.677   3.483   2.379  0.1875 -0.2182  0.4144
 1365SOL    HW2 5513   2.760   3.530   2.368  0.4606 -0.5766  0.9192
 1365SOL    HW3 5514   2.614   3.533   2.327 -0.1267  2.2363  3.0730
 1365SOL    MW4 5515   2.680   3.496   2.371  0.1822  0.0582  0.8321
 1366SOL     OW 5516   2.918   3.594   2.289  0.4970 -0.3554 -0.3104
 1366SOL    HW2 5517   3.002   3.563   2.322  0.5488 -0.3623 -0.4485
 1366SOL    HW3 5518   2.918   3.688   2.307 -0.1967 -0.6454  1.2704
 1366SOL    MW4 5519   2.929   3.602   2.295  0.4122 -0.3948 -0.1202
 1367SOL     OW 5520   2.954   3.862   2.361  0.1933  0.5433  0.7052
 1367SOL    HW2 5521   2.940   3.880   2.454  1.3039  0.2756  0.9285
 1367SOL    HW3 5522   2.875   3.895   2.318 -1.0907 -0.8551  1.9150
 1367SOL    MW4 5523   2.942   3.868   2.368  0.1702  0.3235  0.8943
 1368SOL     OW 5524   2.712   4.006   2.275  0.2833  0.1475  0.5123
 1368SOL    HW2 5525   2.639   3.950   2.303  1.4578 -1.4592  0.4280
 1368SOL    HW3 5526   2.718   3.991   2.180  1.7559 -0.9851  0.7725
 1368SOL    MW4 5527   2.703   3.997   2.266  0.6325 -0.2141  0.5355
 1369SOL     OW 5528   2.719   4.264   2.383  0.4166 -0.1734  0.3399
 1369SOL    HW2 5529   2.701   4.259   2.477 -0.7601  0.5237  0.1591
 1369SOL    HW3 5530   2.721   4.173   2.354 -1.5200 -0.3188  0.6223
 1369SOL    MW4 5531   2.717   4.251   2.392  0.0057 -0.1011  0.3533
 1370SOL     OW 5532   2.902   4.407   2.237 -0.3962 -0.2310 -0.2196
 1370SOL    HW2 5533   2.980   4.371   2.279 -0.4008 -1.7576 -1.4315
 1370SOL    HW3 5534   2.829   4.363   2.281 -0.4845 -0.1150 -0.2521
 1370SOL    MW4 5535   2.903   4.396   2.248 -0.4082 -0.4168 -0.3839
 1371SOL     OW 5536   3.404   4.639   2.329  0.0178  0.1023  0.1109
 1371SOL    HW2 5537   3.412   4.645   2.425  1.3157 -0.0117  0.0283
 1371SOL    HW3 5538   3.478   4.690   2.296  0.1450 -0.6569 -0.8166
 1371SOL    MW4 5539   3.415   4.646   2.338  0.2060 -0.0134 -0.0224
 1372SOL     OW 5540   3.159   0.082   2.260 -0.2324 -0.2554  0.0858
 1372SOL    HW2 5541   3.159   0.173   2.290 -1.3382  0.0498 -0.7825
 1372SOL    HW3 5542   3.243   0.047   2.289 -0.6225  0.4585  2.1661
 1372SOL    MW4 5543   3.170   0.089   2.268 -0.4299 -0.1210  0.2458
 1373SOL     OW 5544   3.129   0.331   2.364  0.4948  0.1886 -0.0177
 1373SOL    HW2 5545   3.195   0.397   2.347  0.7701 -0.8934 -3.8245
 1373SOL    HW3 5546   3.046   0.374   2.342  0.5832 -0.3644 -1.5145
 1373SOL    MW4 5547   3.126   0.345   2.359  0.5426 -0.0271 -0.7174
 1374SOL     OW 5548   3.356   0.517   2.317 -0.1589 -0.1657  0.2148
 1374SOL    HW2 5549   3.439   0.473   2.336  1.2748  2.3330  0.0767
 1374SOL    HW3 5550   3.355   0.524   2.221  0.0322  0.7836  0.2753
 1374SOL    MW4 5551   3.367   0.512   2.307  0.0553  0.2892  0.2043
 1375SOL     OW 5552   3.401   0.805   2.335  0.5457  0.2176  0.1063
 1375SOL    HW2 5553   3.486   0.828   2.297  1.0439  1.5878  1.9597
 1375SOL    HW3 5554   3.402   0.709   2.339  1.5226  0.1648 -0.9481
 1375SOL    MW4 5555   3.413   0.795   2.330  0.7405  0.3915  0.2117
 1376SOL     OW 5556   3.168   0.907   2.227 -0.2166  0.4368 -0.6872
 1376SOL    HW2 5557   3.243   0.862   2.267 -0.2015  2.0304  1.1793
 1376SOL    HW3 5558   3.092   0.860   2.260 -0.1065  0.0658 -0.9598
 1376SOL    MW4 5559   3.168   0.895   2.237 -0.1998  0.5981 -0.4768
 1377SOL     OW 5560   3.181   1.160   2.375  0.0848  0.4827  0.1253
 1377SOL    HW2 5561   3.261   1.204   2.346 -0.8967  1.2028 -1.5426
 1377SOL    HW3 5562   3.170   1.087   2.314  0.4866 -0.8055  1.5304
 1377SOL    MW4 5563   3.190   1.156   2.363  0.0083  0.4076  0.0906
 1378SOL     OW 5564   3.404   1.282   2.258  0.7474  0.1936 -0.4198
 1378SOL    HW2 5565   3.488   1.251   2.291  0.6135 -0.3624 -0.6042
 1378SOL    HW3 5566   3.395   1.369   2.296  0.8961 -0.1868  0.5041
 1378SOL    MW4 5567   3.414   1.289   2.268  0.7491  0.0701 -0.3221
 1379SOL     OW 5568   3.369   1.539   2.358 -0.6172  0.1335 -0.2889
 1379SOL    HW2 5569   3.348   1.552   2.451 -1.3857  0.8988 -0.5702
 1379SOL    HW3 5570   3.310   1.597   2.311 -0.0860 -0.0950 -1.2580
 1379SOL    MW4 5571   3.359   1.549   2.364 -0.6483  0.2043 -0.4537
 1380SOL     OW 5572   3.199   1.712   2.240  0.2023 -0.0924  0.5148
 1380SOL    HW2 5573   3.203   1.797   2.283 -1.4050  0.7014 -0.8412
 1380SOL    HW3 5574   3.130   1.665   2.286 -0.1115  0.0066  0.1565
 1380SOL    MW4 5575   3.191   1.717   2.251 -0.0510  0.0253  0.2885
 1381SOL     OW 5576   3.171   1.963   2.348  0.2139 -0.2394  0.3580
 1381SOL    HW2 5577   3.158   1.982   2.441 -0.6906  0.5928  0.0682
 1381SOL    HW3 5578   3.242   2.022   2.322 -0.4730  0.5275  0.2002
 1381SOL    MW4 5579   3.179   1.973   2.357  0.0038 -0.0285  0.2992
 1382SOL     OW 5580   3.394   2.081   2.230 -0.1364  0.2137 -0.1960
 1382SOL    HW2 5581   3.463   2.019   2.252 -0.0713  0.8283  1.4492
 1382SOL    HW3 5582   3.380   2.070   2.136  3.3063  1.1929 -0.9015
 1382SOL    MW4 5583   3.401   2.072   2.221  0.3262  0.4239 -0.0718
 1383SOL     OW 5584   3.384   2.328   2.350  0.0252 -0.1467  0.0773
 1383SOL    HW2 5585   3.322   2.378   2.296 -0.6254  0.0887  1.0342
 1383SOL    HW3 5586   3.381   2.240   2.314 -0.0961  0.1097 -0.5468
 1383SOL    MW4 5587   3.375   2.323   2.338 -0.0768 -0.0820  0.1216
 1384SOL     OW 5588   3.175   2.430   2.204  0.2077  0.3579  0.4196
 1384SOL    HW2 5589   3.169   2.523   2.225 -0.4857  0.2878  0.5434
 1384SOL    HW3 5590   3.098   2.391   2.246 -0.3448 -0.0262 -0.9167
 1384SOL    MW4 5591   3.164   2.437   2.212  0.0432  0.2978  0.2599
 1385SOL     OW 5592   3.171   2.690   2.299 -0.2742  0.1444  0.2722
 1385SOL    HW2 5593   3.157   2.690   2.394 -0.4496 -0.9802  0.2493
 1385SOL    HW3 5594   3.099   2.743   2.264 -0.2577  0.4900  0.7567
 1385SOL    MW4 5595   3.159   2.697   2.307 -0.2954  0.0412  0.3328
 1386SOL     OW 5596   3.384   2.845   2.217  0.1757 -0.4010 -0.1941
 1386SOL    HW2 5597   3.390   2.923   2.273  2.3247 -1.2161  0.7822
 1386SOL    HW3 5598   3.306   2.799   2.249  0.1134  0.2730  0.6517
 1386SOL    MW4 5599   3.374   2.849   2.229  0.4513 -0.4196  0.0463
 1387SOL     OW 5600   3.412   3.089   2.378  0.1337  0.2182  0.1339
 1387SOL    HW2 5601   3.488   3.135   2.343  0.9601 -1.8237 -0.8305
 1387SOL    HW3 5602   3.337   3.133   2.338  0.9179  0.4888 -1.0683
 1387SOL    MW4 5603   3.412   3.101   2.368  0.3464 -0.0155 -0.1516
 1388SOL     OW 5604   3.179   3.216   2.305  0.1818  0.1678 -0.3662
 1388SOL    HW2 5605   3.170   3.307   2.333 -0.9343 -0.0661  0.0584
 1388SOL    HW3 5606   3.155   3.218   2.212 -1.5173  0.0391  0.0509
 1388SOL    MW4 5607   3.175   3.229   2.296 -0.1898  0.1202 -0.2551
 1389SOL     OW 5608   3.154   3.480   2.383  0.1946 -0.1569 -0.7306
 1389SOL    HW2 5609   3.152   3.492   2.478 -0.1102 -0.0064 -0.7540
 1389SOL    HW3 5610   3.211   3.551   2.352 -0.5384  0.4333 -0.7508
 1389SOL    MW4 5611   3.161   3.491   2.392  0.0575 -0.0591 -0.7362
 1390SOL     OW 5612   3.352   3.642   2.281 -0.2351 -0.0375  0.1448
 1390SOL    HW2 5613   3.437   3.608   2.310 -0.7802 -1.1851  0.4175
 1390SOL    HW3 5614   3.347   3.618   2.188  0.0152  0.5921 -0.0314
 1390SOL    MW4 5615   3.363   3.634   2.273 -0.2742 -0.1056  0.1574
 1391SOL     OW 5616   3.360   3.898   2.406 -0.2218  0.0177  0.1001
 1391SOL    HW2 5617   3.431   3.952   2.373  1.6334 -1.7018  1.1631
 1391SOL    HW3 5618   3.358   3.822   2.348 -0.1785 -0.6685  0.9813
 1391SOL    MW4 5619   3.369   3.895   2.394  0.0288 -0.2997  0.3564
 1392SOL     OW 5620   3.160   4.032   2.274 -0.5702  0.0299  0.1446
 1392SOL    HW2 5621   3.241   4.003   2.315 -0.3626 -2.3722 -1.8711
 1392SOL    HW3 5622   3.092   3.976   2.311 -0.8940  0.2210 -0.1542
 1392SOL    MW4 5623   3.162   4.021   2.284 -0.5856 -0.2618 -0.1612
 1393SOL     OW 5624   3.131   4.293   2.367 -0.0543  0.0491 -0.0632
 1393SOL    HW2 5625   3.213   4.337   2.346 -1.3009  1.9294 -1.0972
 1393SOL    HW3 5626   3.140   4.206   2.329  1.7796 -0.0549  0.5492
 1393SOL    MW4 5627   3.143   4.288   2.359  0.0231  0.2832 -0.1190
 1394SOL     OW 5628   3.354   4.395   2.230 -0.0844  0.1768 -0.4273
 1394SOL    HW2 5629   3.367   4.489   2.240 -0.0043  0.0143  1.0431
 1394SOL    HW3 5630   3.376   4.378   2.139  1.0937  1.3835 -0.3830
 1394SOL    MW4 5631   3.359   4.405   2.219  0.0815  0.3147 -0.2275
 1395SOL     OW 5632   3.859   0.012   2.339  0.3523  0.4327  0.1068
 1395SOL    HW2 5633   3.861   0.019   2.434  1.6395  1.6070  0.0119
 1395SOL    HW3 5634   3.920   0.080   2.308  0.0456 -0.0057 -1.5439
 1395SOL    MW4 5635   3.867   0.022   2.347  0.4818  0.5298 -0.1233
 1396SOL     OW 5636   3.624   0.116   2.233  0.4953 -0.3607 -0.0762
 1396SOL    HW2 5637   3.623   0.200   2.278  0.5146 -0.1924 -0.3884
 1396SOL    HW3 5638   3.712   0.082   2.249  0.3271 -0.5543  0.4707
 1396SOL    MW4 5639   3.636   0.123   2.241  0.4756 -0.3640 -0.0451
 1397SOL     OW 5640   3.604   0.374   2.355 -0.1466 -0.5047 -0.2519
 1397SOL    HW2 5641   3.612   0.367   2.450 -1.3920 -0.7848 -0.1497
 1397SOL    HW3 5642   3.688   0.407   2.326  0.0904  0.0326  0.9992
 1397SOL    MW4 5643   3.616   0.377   2.364 -0.2794 -0.4708 -0.0732
 1398SOL     OW 5644   3.861   0.482   2.261  0.2640  0.0498  0.7055
 1398SOL    HW2 5645   3.865   0.572   2.292 -0.3640  0.6825 -0.9929
 1398SOL    HW3 5646   3.859   0.489   2.166  0.4308 -1.7714  0.5371
 1398SOL    MW4 5647   3.861   0.495   2.253  0.2031 -0.1070  0.4590
 1399SOL     OW 5648   3.859   0.743   2.355 -0.4492  0.2332 -0.1314
 1399SOL    HW2 5649   3.862   0.745   2.451 -1.1803  1.9026 -0.1172
 1399SOL    HW3 5650   3.942   0.783   2.328 -0.4323  0.1556 -0.1941
 1399SOL    MW4 5651   3.871   0.749   2.364 -0.5436  0.4433 -0.1378
 1400SOL     OW 5652   3.640   0.895   2.237 -0.1854  0.1205 -0.5228
 1400SOL    HW2 5653   3.708   0.843   2.280 -1.0204 -1.0399 -0.5776
 1400SOL    HW3 5654   3.640   0.865   2.146  0.1969  1.1296 -0.8584
 1400SOL    MW4 5655   3.649   0.884   2.231 -0.2451  0.1006 -0.5744
 1401SOL     OW 5656   3.633   1.144   2.349  0.1313 -0.2907 -0.0359
 1401SOL    HW2 5657   3.612   1.145   2.442  0.4255 -2.6357  0.0992
 1401SOL    HW3 5658   3.634   1.051   2.326  3.6904  0.0099 -1.5324
 1401SOL    MW4 5659   3.631   1.132   2.358  0.6397 -0.5604 -0.2158
 1402SOL     OW 5660   3.850   1.260   2.233  0.4757 -0.0645  0.1017
 1402SOL    HW2 5661   3.864   1.336   2.288 -0.6846  1.7173 -2.0045
 1402SOL    HW3 5662   3.775   1.216   2.272 -0.9884  1.7462 -0.6204
 1402SOL    MW4 5663   3.842   1.264   2.246  0.1295  0.4095 -0.2716
 1403SOL     OW 5664   3.842   1.533   2.366  0.1049 -0.7004 -0.1879
 1403SOL    HW2 5665   3.827   1.553   2.458  1.0140  0.1650 -0.2204
 1403SOL    HW3 5666   3.764   1.564   2.321  0.2279  0.0770  0.1372
 1403SOL    MW4 5667   3.830   1.540   2.372  0.2410 -0.4836 -0.1493
 1404SOL     OW 5668   3.626   1.664   2.263 -0.1087 -0.5847 -0.9101
 1404SOL    HW2 5669   3.545   1.617   2.282  0.9386 -1.9428  0.2497
 1404SOL    HW3 5670   3.634   1.661   2.167 -1.5115 -0.2619 -1.0484
 1404SOL    MW4 5671   3.617   1.658   2.253 -0.1557 -0.7211 -0.7753
 1405SOL     OW 5672   3.598   1.926   2.331  0.3496  0.1249  0.8031
 1405SOL    HW2 5673   3.681   1.967   2.304 -0.2217  0.6748 -0.1331
 1405SOL    HW3 5674   3.613   1.832   2.319  0.2964  0.3226 -0.9238
 1405SOL    MW4 5675   3.611   1.919   2.326  0.2670  0.2235  0.4518
 1406SOL     OW 5676   3.816   2.052   2.222 -0.0957 -0.1626 -0.3761
 1406SOL    HW2 5677   3.900   2.012   2.242 -0.5333 -0.5610  0.6797
 1406SOL    HW3 5678   3.808   2.043   2.127  0.8815 -0.4558 -0.4385
 1406SOL    MW4 5679   3.826   2.046   2.212 -0.0246 -0.2539 -0.2451
 1407SOL     OW 5680   3.831   2.290   2.345  0.2548 -0.1761  0.4635
 1407SOL    HW2 5681   3.749   2.337   2.329  1.3270  1.9687  1.1357
 1407SOL    HW3 5682   3.822   2.209   2.294 -0.8672  1.6091 -2.3208
 1407SOL    MW4 5683   3.819   2.285   2.336  0.2484  0.3421  0.1850
 1408SOL     OW 5684   3.616   2.449   2.261  0.3557 -0.2784 -0.1963
 1408SOL    HW2 5685   3.532   2.413   2.288 -0.4606  1.1074 -0.8435
 1408SOL    HW3 5686   3.618   2.439   2.166  0.2353  1.0963 -0.3545
 1408SOL    MW4 5687   3.605   2.443   2.252  0.2322  0.0858 -0.3028
 1409SOL     OW 5688   3.573   2.700   2.353  0.1247 -0.8925  0.6236
 1409SOL    HW2 5689   3.572   2.610   2.323 -1.0891 -0.3763 -0.9204
 1409SOL    HW3 5690   3.496   2.740   2.314  0.8686  0.9254  0.9519
 1409SOL    MW4 5691   3.563   2.694   2.344  0.0627 -0.5844  0.4630
 1410SOL     OW 5692   3.802   2.808   2.242  0.4070  0.4087 -0.4286
 1410SOL    HW2 5693   3.808   2.898   2.271  0.7502 -0.1744  1.3630
 1410SOL    HW3 5694   3.722   2.774   2.282  0.3164 -0.1115 -1.0264
 1410SOL    MW4 5695   3.792   2.815   2.251  0.4404  0.2632 -0.2713
 1411SOL     OW 5696   3.839   3.074   2.333  0.1926  0.0607 -0.3862
 1411SOL    HW2 5697   3.834   3.086   2.427  0.3960  1.4020 -0.5348
 1411SOL    HW3 5698   3.920   3.118   2.307  0.0518 -0.1535 -1.2064
 1411SOL    MW4 5699   3.849   3.081   2.342  0.2010  0.2096 -0.5140
 1412SOL     OW 5700   3.645   3.258   2.253 -0.0941  0.4781 -0.3255
 1412SOL    HW2 5701   3.642   3.334   2.312 -1.3040  1.0542 -1.1122
 1412SOL    HW3 5702   3.717   3.205   2.287  0.5204  1.7821  0.4842
 1412SOL    MW4 5703   3.654   3.261   2.265 -0.1726  0.7257 -0.3226
 1413SOL     OW 5704   3.587   3.531   2.345  0.4017  0.0127 -0.0536
 1413SOL    HW2 5705   3.579   3.525   2.441  0.8745 -2.5820 -0.1516
 1413SOL    HW3 5706   3.676   3.563   2.330  0.0834  1.1395  0.3614
 1413SOL    MW4 5707   3.598   3.535   2.356  0.4222 -0.1810 -0.0114
 1414SOL     OW 5708   3.838   3.639   2.277  0.0032 -0.5493  0.5748
 1414SOL    HW2 5709   3.819   3.732   2.292  0.8526 -0.6990  2.6816
 1414SOL    HW3 5710   3.816   3.625   2.185  0.4770  1.9031  0.0503
 1414SOL    MW4 5711   3.833   3.649   2.267  0.1779 -0.2456  0.7837
 1415SOL     OW 5712   3.799   3.919   2.348  0.0837  0.3943  0.1399
 1415SOL    HW2 5713   3.814   3.907   2.442 -1.7809 -0.1126  0.3911
 1415SOL    HW3 5714   3.881   3.956   2.316  0.8802  0.2395  1.9000
 1415SOL    MW4 5715   3.812   3.922   2.356 -0.0575  0.3071  0.4051
 1416SOL     OW 5716   3.551   4.044   2.272 -0.1464 -0.4213 -0.2211
 1416SOL    HW2 5717   3.537   4.127   2.317  0.2257 -0.9472  0.9129
 1416SOL    HW3 5718   3.632   4.009   2.312  0.7277 -0.4599 -1.9907
 1416SOL    MW4 5719   3.560   4.050   2.283  0.0181 -0.4954 -0.3049
 1417SOL     OW 5720   3.559   4.302   2.389 -0.1117  0.0985 -0.6488
 1417SOL    HW2 5721   3.637   4.330   2.342 -0.1280  1.0741 -0.1053
 1417SOL    HW3 5722   3.487   4.347   2.344 -0.2895 -0.2419 -0.7058
 1417SOL    MW4 5723   3.560   4.312   2.376 -0.1371  0.1826 -0.5846
 1418SOL     OW 5724   3.817   4.376   2.263 -0.2308 -0.7501 -0.4748
 1418SOL    HW2 5725   3.887   4.325   2.305 -0.7502 -0.6928  0.4695
 1418SOL    HW3 5726   3.843   4.467   2.276 -0.5956 -0.7226  0.0911
 1418SOL    MW4 5727   3.830   4.381   2.270 -0.3471 -0.7391 -0.2756
 1419SOL     OW 5728   4.258   4.664   2.288 -0.4988  0.3835  0.0103
 1419SOL    HW2 5729   4.249   4.666   2.383  0.0711 -2.2714  0.1461
 1419SOL    HW3 5730   4.342   4.707   2.271 -1.1867  1.9889  0.5882
 1419SOL    MW4 5731   4.268   4.670   2.298 -0.5140  0.2451  0.1047
 1420SOL     OW 5732   4.057   0.157   2.217 -0.7146  0.1682 -0.8808
 1420SOL    HW2 5733   4.085   0.241   2.253 -0.7048  0.4151 -1.4614
 1420SOL    HW3 5734   4.124   0.095   2.246 -1.4586  0.0915  0.7317
 1420SOL    MW4 5735   4.070   0.160   2.226 -0.8111  0.1906 -0.7448
 1421SOL     OW 5736   4.112   0.389   2.339  0.0868  0.6741 -0.0996
 1421SOL    HW2 5737   4.189   0.417   2.289  0.0554  0.4889 -0.2517
 1421SOL    HW3 5738   4.038   0.430   2.296 -0.0690 -0.5236 -0.9867
 1421SOL    MW4 5739   4.113   0.398   2.327  0.0629  0.4917 -0.2365
 1422SOL     OW 5740   4.345   0.480   2.230 -0.5698 -0.2963  0.0797
 1422SOL    HW2 5741   4.340   0.560   2.281  0.8462 -0.1297 -0.0191
 1422SOL    HW3 5742   4.411   0.427   2.275  0.4332 -0.2979 -1.3499
 1422SOL    MW4 5743   4.353   0.483   2.242 -0.2508 -0.2745 -0.1221
 1423SOL     OW 5744   4.316   0.703   2.376  0.1600 -0.2871 -0.0756
 1423SOL    HW2 5745   4.244   0.744   2.329 -0.3190  0.4206  1.2536
 1423SOL    HW3 5746   4.395   0.744   2.340 -0.1767 -0.0387 -0.5340
 1423SOL    MW4 5747   4.317   0.714   2.365  0.0520 -0.1609  0.0391
 1424SOL     OW 5748   4.102   0.855   2.251  0.0857  0.0065  0.1780
 1424SOL    HW2 5749   4.111   0.945   2.282  0.1190  0.4534 -1.0862
 1424SOL    HW3 5750   4.109   0.862   2.156 -1.2534 -1.1723 -0.0154
 1424SOL    MW4 5751   4.104   0.868   2.243 -0.0863 -0.0901 -0.0143
 1425SOL     OW 5752   4.098   1.122   2.322 -0.0668  0.6124 -0.3953
 1425SOL    HW2 5753   4.060   1.123   2.410  0.8335  1.2889 -0.0089
 1425SOL    HW3 5754   4.024   1.139   2.264 -0.4637  1.3455  0.3143
 1425SOL    MW4 5755   4.083   1.124   2.326 -0.0005  0.7985 -0.2506
 1426SOL     OW 5756   4.320   1.294   2.259 -0.3220 -0.0226  0.4872
 1426SOL    HW2 5757   4.251   1.229   2.274  0.1525 -0.6930 -0.2230
 1426SOL    HW3 5758   4.397   1.257   2.302 -0.4453  0.8210  1.4524
 1426SOL    MW4 5759   4.321   1.280   2.267 -0.2751  0.0002  0.5207
 1427SOL     OW 5760   4.269   1.552   2.356  0.1808  0.3557  0.3240
 1427SOL    HW2 5761   4.284   1.462   2.326  0.1985 -0.1786  1.8811
 1427SOL    HW3 5762   4.340   1.603   2.318 -0.4506 -0.0749 -1.4824
 1427SOL    MW4 5763   4.280   1.547   2.347  0.1001  0.2283  0.2911
 1428SOL     OW 5764   4.049   1.676   2.258 -0.2072 -0.1883 -0.2139
 1428SOL    HW2 5765   4.132   1.637   2.285  0.2759  0.8700 -0.1512
 1428SOL    HW3 5766   3.982   1.625   2.304  0.4453 -0.5444  0.3393
 1428SOL    MW4 5767   4.051   1.664   2.268 -0.0577 -0.0957 -0.1323
 1429SOL     OW 5768   4.062   1.941   2.322 -0.0778  0.4056 -0.0520
 1429SOL    HW2 5769   4.060   1.924   2.417  2.2026  0.4433  0.0380
 1429SOL    HW3 5770   4.068   1.854   2.283 -1.2786  0.3767 -0.1842
 1429SOL    MW4 5771   4.063   1.927   2.330  0.0648  0.4069 -0.0575
 1430SOL     OW 5772   4.289   2.074   2.218 -0.0869  0.1834 -0.0469
 1430SOL    HW2 5773   4.284   2.159   2.261  1.5406  0.0478  0.4274
 1430SOL    HW3 5774   4.209   2.029   2.245  0.5807  0.3478  2.3295
 1430SOL    MW4 5775   4.278   2.079   2.227  0.2165  0.1874  0.3290
 1431SOL     OW 5776   4.276   2.323   2.338 -0.3343 -0.2106 -0.1458
 1431SOL    HW2 5777   4.203   2.373   2.301 -0.1358  1.7504  1.9745
 1431SOL    HW3 5778   4.353   2.352   2.288 -0.4813  0.3811 -0.0345
 1431SOL    MW4 5779   4.277   2.333   2.326 -0.3276  0.1264  0.1485
 1432SOL     OW 5780   4.043   2.437   2.257  0.6515  0.1392 -0.1848
 1432SOL    HW2 5781   4.031   2.528   2.285  1.0672  0.2477 -0.3514
 1432SOL    HW3 5782   3.965   2.392   2.289  0.5217  0.5195  0.0475
 1432SOL    MW4 5783   4.031   2.443   2.265  0.6895  0.2038 -0.1760
 1433SOL     OW 5784   4.052   2.704   2.330  0.3286 -0.3014  0.2951
 1433SOL    HW2 5785   4.053   2.705   2.426  0.0566 -0.4541  0.2998
 1433SOL    HW3 5786   3.969   2.745   2.307  1.1201  1.2252  0.1032
 1433SOL    MW4 5787   4.041   2.710   2.340  0.3967 -0.1199  0.2706
 1434SOL     OW 5788   4.293   2.850   2.265 -0.1213 -0.4777  0.1634
 1434SOL    HW2 5789   4.210   2.806   2.283 -0.0749 -0.1786  1.1189
 1434SOL    HW3 5790   4.359   2.787   2.294 -0.0217 -0.5410 -0.2003
 1434SOL    MW4 5791   4.291   2.836   2.271 -0.1016 -0.4466  0.2415
 1435SOL     OW 5792   4.276   3.097   2.367  0.2957  0.2301 -0.0666
 1435SOL    HW2 5793   4.296   3.015   2.322 -0.0324  0.5407 -0.7903
 1435SOL    HW3 5794   4.348   3.155   2.344  0.8628 -0.0545  0.9728
 1435SOL    MW4 5795   4.288   3.094   2.358  0.3276  0.2337 -0.0248
 1436SOL     OW 5796   4.030   3.248   2.271  0.3182 -0.0775  0.0164
 1436SOL    HW2 5797   4.028   3.328   2.323 -2.0465 -0.4708  0.5794
 1436SOL    HW3 5798   4.107   3.200   2.303  0.6653  1.0985  0.9701
 1436SOL    MW4 5799   4.040   3.252   2.282  0.0520  0.0257  0.2162
 1437SOL     OW 5800   4.044   3.496   2.399  0.4510 -0.0430 -0.1531
 1437SOL    HW2 5801   4.116   3.542   2.358  0.4165  1.6847  1.6381
 1437SOL    HW3 5802   3.966   3.544   2.372  0.1285 -0.8190 -0.6217
 1437SOL    MW4 5803   4.043   3.508   2.390  0.4044  0.0825  0.0212
 1438SOL     OW 5804   4.275   3.587   2.271  0.5122 -0.1597  0.4163
 1438SOL    HW2 5805   4.253   3.675   2.302  0.2068 -0.4312  0.9866
 1438SOL    HW3 5806   4.273   3.594   2.176 -0.5277  0.2041  0.4577
 1438SOL    MW4 5807   4.272   3.600   2.263  0.3347 -0.1478  0.4971
 1439SOL     OW 5808   4.253   3.854   2.358  0.3556  0.0603 -0.4811
 1439SOL    HW2 5809   4.261   3.863   2.453 -2.4344 -1.4871 -0.0531
 1439SOL    HW3 5810   4.340   3.876   2.325  1.4944  0.2236  2.4499
 1439SOL    MW4 5811   4.266   3.858   2.366  0.1383 -0.1225 -0.0379
 1440SOL     OW 5812   4.046   4.036   2.271 -0.0717  0.0230 -0.1136
 1440SOL    HW2 5813   4.120   3.981   2.296 -0.0587 -0.3515 -0.9747
 1440SOL    HW3 5814   4.050   4.040   2.176 -1.2671 -0.1406 -0.1725
 1440SOL    MW4 5815   4.056   4.029   2.262 -0.2279 -0.0482 -0.2348
 1441SOL     OW 5816   4.061   4.260   2.394  0.1416 -0.4625  0.1704
 1441SOL    HW2 5817   4.141   4.306   2.371 -0.4552  0.2094 -0.5987
 1441SOL    HW3 5818   4.063   4.180   2.342  0.3983 -0.5369  0.2937
 1441SOL    MW4 5819   4.072   4.256   2.384  0.0968 -0.3843  0.0851
 1442SOL     OW 5820   4.297   4.380   2.276 -0.2837  0.1010  0.0480
 1442SOL    HW2 5821   4.304   4.475   2.284 -1.7647  0.3377 -1.2173
 1442SOL    HW3 5822   4.385   4.347   2.294  0.0701  1.6584  1.2171
 1442SOL    MW4 5823   4.309   4.388   2.279 -0.4320  0.3381  0.0353
 1443SOL     OW 5824   0.211   4.665   2.616 -0.3457 -0.2397 -0.2091
 1443SOL    HW2 5825   0.219   4.585   2.668 -0.7823  0.6274  1.2037
 1443SOL    HW3 5826   0.128   4.703   2.643  0.3103  1.1871 -0.1662
 1443SOL    MW4 5827   0.201   4.659   2.626 -0.3167  0.0629 -0.0169
 1444SOL     OW 5828   4.469   0.134   2.683 -0.3306 -0.7134 -0.0021
 1444SOL    HW2 5829   4.459   0.143   2.778  0.1661  0.2094 -0.0277
 1444SOL    HW3 5830   4.485   0.224   2.652  2.0540 -1.3352 -0.6482
 1444SOL    MW4 5831   4.469   0.147   2.691  0.0496 -0.6737 -0.0908
 1445SOL     OW 5832   4.475   0.407   2.633  0.2565 -0.5397 -0.4734
 1445SOL    HW2 5833   4.551   0.451   2.671 -0.6099 -0.4566  1.2027
 1445SOL    HW3 5834   4.489   0.412   2.539  0.6049  2.5880 -0.3062
 1445SOL    MW4 5835   4.487   0.413   2.626  0.1879 -0.1161 -0.2301
 1446SOL     OW 5836   0.210   0.526   2.772  0.0543  0.3066  0.8895
 1446SOL    HW2 5837   0.208   0.519   2.868 -0.0852  0.0157  0.8676
 1446SOL    HW3 5838   0.286   0.473   2.746  0.7654  1.2983  0.9120
 1446SOL    MW4 5839   0.220   0.518   2.781  0.1297  0.3991  0.8898
 1447SOL     OW 5840   0.254   0.758   2.633 -0.1675 -0.0628 -0.1737
 1447SOL    HW2 5841   0.326   0.801   2.679 -0.8991  1.3246 -0.3063
 1447SOL    HW3 5842   0.234   0.681   2.686  0.7752  0.0639  0.3753
 1447SOL    MW4 5843   0.261   0.754   2.646 -0.1396  0.1370 -0.1187
 1448SOL     OW 5844   0.023   0.888   2.759 -0.4430 -0.3635  0.2134
 1448SOL    HW2 5845  -0.055   0.845   2.723 -0.2601  0.7185 -1.5125
 1448SOL    HW3 5846   0.095   0.859   2.704 -0.1158  1.1143 -0.1576
 1448SOL    MW4 5847   0.022   0.879   2.747 -0.3758 -0.0258 -0.0634
 1449SOL     OW 5848   4.483   1.117   2.641  0.1543 -0.0248  0.0042
 1449SOL    HW2 5849   4.542   1.173   2.691  0.1711 -0.8168  0.8740
 1449SOL    HW3 5850   4.482   1.034   2.688 -3.3297  0.6292  1.2212
 1449SOL    MW4 5851   4.491   1.113   2.654 -0.3031 -0.0429  0.2794
 1450SOL     OW 5852   0.228   1.260   2.716  0.2699 -0.0839  0.0516
 1450SOL    HW2 5853   0.306   1.214   2.684 -1.0009 -1.0319 -1.7238
 1450SOL    HW3 5854   0.221   1.337   2.660  0.2227  0.3018  0.5763
 1450SOL    MW4 5855   0.237   1.264   2.705  0.0960 -0.1581 -0.1132
 1451SOL     OW 5856   0.241   1.487   2.575  0.3180 -0.0265  0.3902
 1451SOL    HW2 5857   0.313   1.509   2.635  0.9071  0.2632 -0.4256
 1451SOL    HW3 5858   0.166   1.535   2.609  1.0866  1.5720 -0.1541
 1451SOL    MW4 5859   0.240   1.496   2.588  0.4972  0.2226  0.2105
 1452SOL     OW 5860   0.025   1.616   2.709 -0.1604 -0.1103 -0.2213
 1452SOL    HW2 5861   0.012   1.602   2.802 -0.8630 -0.7254 -0.4070
 1452SOL    HW3 5862   0.019   1.711   2.698  0.6901  0.0338  0.4595
 1452SOL    MW4 5863   0.023   1.627   2.720 -0.1408 -0.1725 -0.1559
 1453SOL     OW 5864   4.482   1.874   2.640 -0.5379  0.2544 -0.4643
 1453SOL    HW2 5865   4.547   1.931   2.680 -1.6526  0.6725  0.7749
 1453SOL    HW3 5866   4.492   1.888   2.546  0.9465  0.5337 -0.2748
 1453SOL    MW4 5867   4.491   1.883   2.633 -0.4891  0.3464 -0.2761
 1454SOL     OW 5868   0.213   2.034   2.716  0.3002  0.1449  0.2844
 1454SOL    HW2 5869   0.295   2.008   2.675 -0.1435 -0.4160 -0.2535
 1454SOL    HW3 5870   0.203   2.126   2.693  0.7767  0.2151  0.3491
 1454SOL    MW4 5871   0.222   2.043   2.708  0.3045  0.0801  0.2220
 1455SOL     OW 5872   0.201   2.296   2.632  0.4694  0.0859  0.0932
 1455SOL    HW2 5873   0.276   2.349   2.658 -0.1649  1.0262  0.0635
 1455SOL    HW3 5874   0.126   2.342   2.671 -0.0641 -0.9403  0.2846
 1455SOL    MW4 5875   0.201   2.309   2.641  0.3154  0.0746  0.1144
 1456SOL     OW 5876   4.478   2.455   2.726 -0.0275 -0.1395  0.3729
 1456SOL    HW2 5877   4.473   2.441   2.821 -2.7682  0.1429  0.2935
 1456SOL    HW3 5878   4.404   2.405   2.690  0.7375  0.0865 -1.5928
 1456SOL    MW4 5879   4.468   2.446   2.734 -0.2880 -0.0725  0.1030
 1457SOL     OW 5880   0.031   2.687   2.594 -0.0783  0.2561  0.4366
 1457SOL    HW2 5881  -0.056   2.726   2.606  0.0584  0.6098  0.2845
 1457SOL    HW3 5882   0.023   2.599   2.631 -0.4886  0.3046  0.4649
 1457SOL    MW4 5883   0.019   2.681   2.601 -0.1143  0.3095  0.4203
 1458SOL     OW 5884   0.240   2.803   2.731 -0.3674 -0.4953  0.2793
 1458SOL    HW2 5885   0.247   2.895   2.704 -1.0693 -0.2286  0.9926
 1458SOL    HW3 5886   0.175   2.765   2.673  0.6163 -0.7954 -0.6508
 1458SOL    MW4 5887   0.233   2.810   2.720 -0.3302 -0.4997  0.2508
 1459SOL     OW 5888   0.246   3.078   2.658 -0.0029 -0.0689 -0.5184
 1459SOL    HW2 5889   0.330   3.120   2.674 -0.6481  1.9483 -2.1320
 1459SOL    HW3 5890   0.242   3.069   2.563 -1.3613 -0.6676 -0.4167
 1459SOL    MW4 5891   0.256   3.082   2.647 -0.2672  0.1183 -0.7176
 1460SOL     OW 5892   0.011   3.244   2.711  0.5526 -0.4931  0.8496
 1460SOL    HW2 5893  -0.053   3.188   2.667  0.4236  0.0083  0.3990
 1460SOL    HW3 5894   0.094   3.197   2.701  0.8293  0.4025 -1.4137
 1460SOL    MW4 5895   0.014   3.230   2.704  0.5717 -0.3088  0.4916
 1461SOL     OW 5896   4.463   3.500   2.627 -0.2961  0.5250  0.6498
 1461SOL    HW2 5897   4.537   3.547   2.663 -0.7444  0.0806  2.2125
 1461SOL    HW3 5898   4.473   3.411   2.660 -0.8965  0.1833 -0.0746
 1461SOL    MW4 5899   4.474   3.494   2.637 -0.4344  0.4213  0.7603
 1462SOL     OW 5900   0.206   3.586   2.764  0.1826  0.4760 -0.0498
 1462SOL    HW2 5901   0.233   3.596   2.856  1.5804  0.8057 -0.4802
 1462SOL    HW3 5902   0.285   3.553   2.720 -1.0181 -1.5358 -0.7855
 1462SOL    MW4 5903   0.220   3.583   2.770  0.2086  0.2544 -0.2036
 1463SOL     OW 5904   0.182   3.838   2.618  0.3357 -0.0310  0.2576
 1463SOL    HW2 5905   0.185   3.753   2.663 -2.0307 -0.2546  0.0743
 1463SOL    HW3 5906   0.193   3.817   2.525 -0.1800 -0.1568  0.2198
 1463SOL    MW4 5907   0.184   3.824   2.612 -0.0445 -0.0772  0.2284
 1464SOL     OW 5908   0.004   4.038   2.751  0.3313  0.0859 -0.0291
 1464SOL    HW2 5909   0.001   4.126   2.714 -0.0647 -0.4099 -1.2219
 1464SOL    HW3 5910   0.076   3.995   2.705  1.3685  0.1688  1.4707
 1464SOL    MW4 5911   0.013   4.044   2.740  0.4158  0.0315  0.0114
 1465SOL     OW 5912   0.001   4.298   2.631  0.2306 -0.0097 -0.0893
 1465SOL    HW2 5913  -0.070   4.359   2.652  0.2736 -0.3871  1.1848
 1465SOL    HW3 5914   0.077   4.331   2.680  1.0155  0.5202 -1.6133
 1465SOL    MW4 5915   0.002   4.311   2.640  0.3397  0.0100 -0.1223
 1466SOL     OW 5916   0.207   4.423   2.762 -0.4136  0.0825 -0.2361
 1466SOL    HW2 5917   0.223   4.411   2.856  0.1428 -0.3079 -0.3795
 1466SOL    HW3 5918   0.280   4.378   2.719 -0.7921  0.0612 -0.8629
 1466SOL    MW4 5919   0.219   4.416   2.769 -0.3901  0.0281 -0.3376
 1467SOL     OW 5920   0.692   4.651   2.619  0.1509 -0.1177 -0.3154
 1467SOL    HW2 5921   0.767   4.697   2.657  1.1380 -0.9311 -1.2356
 1467SOL    HW3 5922   0.615   4.697   2.653  1.0293 -0.1906  1.8250
 1467SOL    MW4 5923   0.692   4.663   2.628  0.3970 -0.2351 -0.1545
 1468SOL     OW 5924   0.452   0.107   2.695  0.2339 -0.2724  0.3946
 1468SOL    HW2 5925   0.446   0.115   2.790 -1.4541  1.5720  0.1726
 1468SOL    HW3 5926   0.369   0.068   2.668 -0.3012  1.4096 -0.5008
 1468SOL    MW4 5927   0.440   0.103   2.704 -0.0594  0.1928  0.2470
 1469SOL     OW 5928   0.418   0.376   2.665  0.0264  0.4817 -0.3781
 1469SOL    HW2 5929   0.499   0.414   2.699 -0.4408  0.8103  0.3807
 1469SOL    HW3 5930   0.428   0.282   2.677 -0.9627  0.7051  2.5660
 1469SOL    MW4 5931   0.430   0.369   2.671 -0.1658  0.5546  0.1106
 1470SOL     OW 5932   0.666   0.461   2.737  0.0430 -0.3044  0.6181
 1470SOL    HW2 5933   0.670   0.474   2.832  0.0253 -0.0471  0.5861
 1470SOL    HW3 5934   0.755   0.436   2.712  0.1777  0.1454  0.6326
 1470SOL    MW4 5935   0.678   0.460   2.746  0.0584 -0.2111  0.6156
 1471SOL     OW 5936   0.664   0.724   2.657 -0.4897  0.0604 -0.2346
 1471SOL    HW2 5937   0.743   0.758   2.699 -0.2607 -0.7518  0.0000
 1471SOL    HW3 5938   0.659   0.633   2.685 -0.9810 -0.1614 -1.0250
 1471SOL    MW4 5939   0.674   0.717   2.666 -0.5243 -0.0761 -0.3080
 1472SOL     OW 5940   0.471   0.886   2.750  0.2687  0.7278  0.0873
 1472SOL    HW2 5941   0.483   0.975   2.720  2.3154  0.3778 -0.2241
 1472SOL    HW3 5942   0.531   0.834   2.696  0.4604 -0.5610  1.5066
 1472SOL    MW4 5943   0.481   0.891   2.739  0.5641  0.5116  0.2337
 1473SOL     OW 5944   0.470   1.123   2.636 -0.3475 -0.6521  0.1524
 1473SOL    HW2 5945   0.549   1.160   2.676 -0.9667 -0.1982  0.9622
 1473SOL    HW3 5946   0.487   1.127   2.542  1.1582 -1.8026  0.3531
 1473SOL    MW4 5947   0.483   1.128   2.629 -0.2306 -0.7440  0.2856
 1474SOL     OW 5948   0.700   1.233   2.747 -0.3944  0.2173 -0.1917
 1474SOL    HW2 5949   0.695   1.231   2.843 -0.1609  0.4039 -0.1752
 1474SOL    HW3 5950   0.769   1.171   2.726 -0.1257  0.5281 -0.2165
 1474SOL    MW4 5951   0.708   1.224   2.757 -0.3282  0.2830 -0.1929
 1475SOL     OW 5952   0.720   1.488   2.616  0.3185  0.0952 -0.1411
 1475SOL    HW2 5953   0.648   1.540   2.651 -1.5794 -1.4250 -1.6779
 1475SOL    HW3 5954   0.709   1.402   2.655 -0.4951 -0.9825 -2.6674
 1475SOL    MW4 5955   0.709   1.484   2.625 -0.0393 -0.2476 -0.6769
 1476SOL     OW 5956   0.479   1.637   2.697 -0.0729 -0.3210 -0.4209
 1476SOL    HW2 5957   0.463   1.639   2.792  0.2254 -0.7658 -0.3587
 1476SOL    HW3 5958   0.475   1.729   2.670  0.1737 -0.1620  0.0802
 1476SOL    MW4 5959   0.476   1.649   2.706 -0.0010 -0.3587 -0.3464
 1477SOL     OW 5960   0.451   1.905   2.620  0.2662 -0.1209 -0.1392
 1477SOL    HW2 5961   0.534   1.949   2.636  1.3628 -1.3257 -2.3152
 1477SOL    HW3 5962   0.445   1.898   2.525 -1.9801 -0.7156  0.0170
 1477SOL    MW4 5963   0.461   1.910   2.610  0.1146 -0.3583 -0.4058
 1478SOL     OW 5964   0.678   2.046   2.690 -0.2308 -0.0591 -0.2441
 1478SOL    HW2 5965   0.684   2.057   2.784 -0.2840 -0.1410 -0.2306
 1478SOL    HW3 5966   0.758   1.999   2.666  1.5525  3.1110 -0.7451
 1478SOL    MW4 5967   0.689   2.041   2.699 -0.0026  0.3486 -0.3083
 1479SOL     OW 5968   0.673   2.319   2.615 -0.6268  0.2613  0.3568
 1479SOL    HW2 5969   0.753   2.357   2.652  0.5349 -0.1590 -1.6369
 1479SOL    HW3 5970   0.670   2.230   2.648 -0.1070  0.1898  0.2121
 1479SOL    MW4 5971   0.683   2.312   2.624 -0.4050  0.1965  0.0746
 1480SOL     OW 5972   0.452   2.445   2.696 -0.2188  0.1517 -0.0517
 1480SOL    HW2 5973   0.467   2.535   2.667  0.9631  0.5501  1.7652
 1480SOL    HW3 5974   0.522   2.395   2.655 -0.7641  0.0788 -0.9089
 1480SOL    MW4 5975   0.463   2.450   2.687 -0.1348  0.1943  0.0751
 1481SOL     OW 5976   0.470   2.705   2.630 -0.0092 -0.2276  0.4610
 1481SOL    HW2 5977   0.540   2.738   2.687 -0.8156 -2.6110  2.9217
 1481SOL    HW3 5978   0.390   2.743   2.666 -0.2945  0.1901 -0.5891
 1481SOL    MW4 5979   0.469   2.715   2.642 -0.1532 -0.4871  0.6468
 1482SOL     OW 5980   0.656   2.812   2.795 -0.1447 -0.0642  0.1727
 1482SOL    HW2 5981   0.640   2.826   2.888 -0.7826  0.0907  0.0467
 1482SOL    HW3 5982   0.669   2.899   2.759 -0.3177 -0.0896  0.0454
 1482SOL    MW4 5983   0.655   2.825   2.802 -0.2517 -0.0470  0.1392
 1483SOL     OW 5984   0.686   3.056   2.676  0.8611  0.3720 -0.1680
 1483SOL    HW2 5985   0.769   3.099   2.698  0.9131  0.7891 -1.1261
 1483SOL    HW3 5986   0.686   3.053   2.580 -0.7829  1.4831 -0.2169
 1483SOL    MW4 5987   0.697   3.061   2.666  0.6511  0.5736 -0.3009
 1484SOL     OW 5988   0.471   3.205   2.752  0.2484  0.1205 -0.3793
 1484SOL    HW2 5989   0.467   3.216   2.847  0.1091 -0.2620 -0.3391
 1484SOL    HW3 5990   0.546   3.147   2.739  1.0550  1.2019 -0.5947
 1484SOL    MW4 5991   0.481   3.198   2.763  0.3364  0.2129 -0.4025
 1485SOL     OW 5992   0.440   3.490   2.665  0.0979 -0.1856 -0.7569
 1485SOL    HW2 5993   0.439   3.404   2.706 -1.2711  0.0497 -0.2932
 1485SOL    HW3 5994   0.447   3.472   2.571  2.7382 -0.7322 -0.4982
 1485SOL    MW4 5995   0.441   3.476   2.658  0.2657 -0.2263 -0.6614
 1486SOL     OW 5996   0.653   3.614   2.774 -0.5951 -0.2522  0.2178
 1486SOL    HW2 5997   0.664   3.594   2.867 -2.5906  0.8374  0.7213
 1486SOL    HW3 5998   0.572   3.571   2.750 -0.4166  0.0105 -0.8553
 1486SOL    MW4 5999   0.644   3.606   2.783 -0.8348 -0.0737  0.1428
 1487SOL     OW 6000   0.656   3.894   2.662 -0.4323 -0.7158  0.0967
 1487SOL    HW2 6001   0.583   3.946   2.696 -0.1465 -0.0647 -0.2733
 1487SOL    HW3 6002   0.657   3.815   2.716  0.0367  0.3101  1.6215
 1487SOL    MW4 6003   0.647   3.891   2.674 -0.3327 -0.4947  0.2489
 1488SOL     OW 6004   0.425   4.012   2.753  0.0022  0.0825  0.0528
 1488SOL    HW2 6005   0.427   4.104   2.728 -0.0282 -0.2072 -1.0491
 1488SOL    HW3 6006   0.361   3.972   2.693  0.4715 -0.7635  0.1007
 1488SOL    MW4 6007   0.417   4.019   2.741  0.0601 -0.0677 -0.0863
 1489SOL     OW 6008   0.426   4.262   2.634  0.3819  0.0635 -0.1782
 1489SOL    HW2 6009   0.503   4.304   2.672  0.0424  0.8935 -0.4115
 1489SOL    HW3 6010   0.444   4.259   2.540  0.8241 -1.1809 -0.0736
 1489SOL    MW4 6011   0.438   4.267   2.626  0.3954  0.0091 -0.1953
 1490SOL     OW 6012   0.645   4.375   2.748  0.2332  0.2610 -0.0541
 1490SOL    HW2 6013   0.725   4.325   2.732  0.0781 -0.2090  0.6107
 1490SOL    HW3 6014   0.660   4.458   2.704  0.3267 -0.5220 -1.5337
 1490SOL    MW4 6015   0.658   4.379   2.740  0.2251  0.0958 -0.1616
 1491SOL     OW 6016   1.135   4.622   2.718 -0.2620 -0.4983 -0.3998
 1491SOL    HW2 6017   1.215   4.666   2.746  0.3771 -2.4220  0.8800
 1491SOL    HW3 6018   1.148   4.530   2.741 -2.4823 -0.9986 -0.9636
 1491SOL    MW4 6019   1.147   4.615   2.724 -0.4705 -0.8183 -0.3054
 1492SOL     OW 6020   0.886   0.107   2.754  0.0577 -0.1649 -0.2074
 1492SOL    HW2 6021   0.871   0.119   2.848 -0.5153 -0.2732 -0.2818
 1492SOL    HW3 6022   0.977   0.080   2.747  0.1439 -0.0087  0.3064
 1492SOL    MW4 6023   0.896   0.105   2.766 -0.0066 -0.1586 -0.1495
 1493SOL     OW 6024   0.900   0.365   2.664  0.0345  0.1112  0.1822
 1493SOL    HW2 6025   0.900   0.271   2.684 -1.1507 -0.0872 -0.6077
 1493SOL    HW3 6026   0.886   0.368   2.569  1.8882  1.0570 -0.0654
 1493SOL    MW4 6027   0.898   0.353   2.654  0.1227  0.2098  0.0453
 1494SOL     OW 6028   1.128   0.494   2.760  0.0933 -0.1970  0.0466
 1494SOL    HW2 6029   1.141   0.569   2.703  2.3048 -1.7771 -1.6305
 1494SOL    HW3 6030   1.046   0.455   2.732 -0.6182  1.0757  0.3403
 1494SOL    MW4 6031   1.119   0.498   2.749  0.2912 -0.2376 -0.1357
 1495SOL     OW 6032   1.130   0.739   2.633  0.6138  0.2539  0.3644
 1495SOL    HW2 6033   1.195   0.785   2.687  1.4116 -0.3063 -0.1174
 1495SOL    HW3 6034   1.137   0.779   2.547  0.7172 -0.2077  0.1610
 1495SOL    MW4 6035   1.139   0.751   2.629  0.7328  0.1190  0.2739
 1496SOL     OW 6036   0.890   0.817   2.768  0.2295 -0.4692  0.3707
 1496SOL    HW2 6037   0.897   0.844   2.859  2.4407  1.6120 -0.3622
 1496SOL    HW3 6038   0.977   0.781   2.747  0.2730  0.5928 -1.3509
 1496SOL    MW4 6039   0.903   0.816   2.777  0.5270 -0.0545  0.0470
 1497SOL     OW 6040   0.892   1.059   2.630  0.0888 -0.4027  0.1405
 1497SOL    HW2 6041   0.905   0.970   2.664  0.2628 -0.1413  0.7676
 1497SOL    HW3 6042   0.898   1.049   2.535 -0.1058 -1.0956  0.1956
 1497SOL    MW4 6043   0.895   1.046   2.622  0.0860 -0.4596  0.2303
 1498SOL     OW 6044   1.123   1.215   2.735  0.1736  0.1331 -0.3673
 1498SOL    HW2 6045   1.099   1.301   2.701  0.0996 -0.2673 -1.3560
 1498SOL    HW3 6046   1.064   1.155   2.689  0.3778 -0.4595  0.1518
 1498SOL    MW4 6047   1.112   1.218   2.724  0.1909  0.0020 -0.4294
 1499SOL     OW 6048   1.121   1.491   2.639 -0.2622  0.0208 -0.5894
 1499SOL    HW2 6049   1.055   1.542   2.686  0.0155 -0.1947  0.0470
 1499SOL    HW3 6050   1.110   1.515   2.547  0.2221  1.6265 -0.2365
 1499SOL    MW4 6051   1.111   1.501   2.633 -0.1615  0.2042 -0.4590
 1500SOL     OW 6052   0.909   1.646   2.749 -0.1833 -0.2406 -0.5294
 1500SOL    HW2 6053   0.907   1.650   2.845  1.6017  0.5087 -0.5090
 1500SOL    HW3 6054   0.841   1.583   2.727  0.0206 -1.1391  1.2777
 1500SOL    MW4 6055   0.900   1.638   2.759  0.0791 -0.2601 -0.2882
 1501SOL     OW 6056   0.930   1.929   2.603  0.4424  0.1832  0.0802
 1501SOL    HW2 6057   1.007   1.966   2.646 -0.7935  0.4533  2.1420
 1501SOL    HW3 6058   0.920   1.843   2.644  0.2065 -0.2410 -0.8703
 1501SOL    MW4 6059   0.939   1.923   2.614  0.2483  0.1628  0.2267
 1502SOL     OW 6060   1.138   2.030   2.740  0.2962  0.1693  0.1900
 1502SOL    HW2 6061   1.217   1.989   2.706  0.5834 -0.2479  1.3566
 1502SOL    HW3 6062   1.139   2.118   2.703  2.2417  0.7760  1.6182
 1502SOL    MW4 6063   1.148   2.036   2.731  0.5907  0.1943  0.5324
 1503SOL     OW 6064   1.125   2.296   2.630 -0.5056  0.5122 -0.3302
 1503SOL    HW2 6065   1.205   2.331   2.670 -0.6287  0.5860 -0.1464
 1503SOL    HW3 6066   1.134   2.315   2.536  0.2941 -0.6631 -0.5018
 1503SOL    MW4 6067   1.137   2.303   2.623 -0.4163  0.3667 -0.3285
 1504SOL     OW 6068   0.907   2.448   2.731  0.3025 -0.0329  0.1249
 1504SOL    HW2 6069   0.891   2.522   2.672  0.0476 -0.1602  0.0294
 1504SOL    HW3 6070   0.992   2.414   2.704  0.3249  0.0968  0.0305
 1504SOL    MW4 6071   0.916   2.453   2.719  0.2718 -0.0327  0.0999
 1505SOL     OW 6072   0.861   2.705   2.635 -0.2557  0.2212  0.3102
 1505SOL    HW2 6073   0.946   2.743   2.660  0.4187 -0.2785 -1.1618
 1505SOL    HW3 6074   0.800   2.737   2.701  1.4435 -0.9366  2.4971
 1505SOL    MW4 6075   0.865   2.715   2.647  0.0575  0.0026  0.4048
 1506SOL     OW 6076   1.079   2.843   2.745  0.2696  0.4600 -0.0300
 1506SOL    HW2 6077   1.058   2.814   2.834  1.8556  1.3377  0.6539
 1506SOL    HW3 6078   1.162   2.799   2.725  0.2300  0.7520 -0.8432
 1506SOL    MW4 6079   1.088   2.833   2.755  0.4736  0.6144 -0.0472
 1507SOL     OW 6080   1.148   3.096   2.648  0.0000  0.0000  0.0132
 1507SOL    HW2 6081   1.122   3.007   2.671  0.0000  0.0000  0.0130
 1507SOL    HW3 6082   1.136   3.101   2.553  0.0000  0.0000  0.0131
 1507SOL    MW4 6083   1.143   3.085   2.639  0.0000  0.0000  0.0131
 1508SOL     OW 6084   0.919   3.208   2.753  0.0000  0.0000 -0.1825
 1508SOL    HW2 6085   0.903   3.287   2.701  0.0000  0.0000 -0.1791
 1508SOL    HW3 6086   1.006   3.179   2.726  0.0000  0.0000 -0.1820
 1508SOL    MW4 6087   0.928   3.215   2.743  0.0000  0.0000 -0.1822
 1509SOL     OW 6088   0.887   3.462   2.635  0.0000  0.0000 -0.4333
 1509SOL    HW2 6089   0.961   3.509   2.676  0.0000  0.0000 -0.4151
 1509SOL    HW3 6090   0.810   3.512   2.662  0.0000  0.0000 -0.4201
 1509SOL    MW4 6091   0.887   3.475   2.644  0.0000  0.0000 -0.4289
 1510SOL     OW 6092   1.102   3.599   2.748  0.0000  0.0000  0.0924
 1510SOL    HW2 6093   1.101   3.626   2.839  0.0000  0.0000  0.0944
 1510SOL    HW3 6094   1.100   3.681   2.699  0.0000  0.0000  0.0987
 1510SOL    MW4 6095   1.102   3.613   2.753  0.0000  0.0000  0.0935
 1511SOL     OW 6096   1.098   3.851   2.617  0.0000  0.0000  0.3223
 1511SOL    HW2 6097   1.178   3.889   2.655  0.0000  0.0000  0.3253
 1511SOL    HW3 6098   1.110   3.859   2.522  0.0000  0.0000  0.3229
 1511SOL    MW4 6099   1.110   3.857   2.609  0.0000  0.0000  0.3226
 1512SOL     OW 6100   0.893   4.008   2.738  0.0000  0.0000 -0.1038
 1512SOL    HW2 6101   0.957   3.963   2.683  0.0000  0.0000 -0.1021
 1512SOL    HW3 6102   0.809   3.969   2.713  0.0000  0.0000 -0.1052
 1512SOL    MW4 6103   0.890   3.997   2.728  0.0000  0.0000 -0.1037
 1513SOL     OW 6104   0.888   4.266   2.651  0.0000  0.0000  0.3161
 1513SOL    HW2 6105   0.892   4.173   2.676  0.0000  0.0000  0.3152
 1513SOL    HW3 6106   0.884   4.265   2.556  0.0000  0.0000  0.3163
 1513SOL    MW4 6107   0.888   4.254   2.642  0.0000  0.0000  0.3161
 1514SOL     OW 6108   1.144   4.351   2.755  0.0000  0.0000 -0.2465
 1514SOL    HW2 6109   1.137   4.378   2.847  0.0000  0.0000 -0.2461
 1514SOL    HW3 6110   1.055   4.327   2.730  0.0000  0.0000 -0.2405
 1514SOL    MW4 6111   1.131   4.351   2.764  0.0000  0.0000 -0.2458
 1515SOL     OW 6112   1.593   4.643   2.688  0.0000  0.0000  0.0346
 1515SOL    HW2 6113   1.588   4.549   2.705  0.0000  0.0000  0.0587
 1515SOL    HW3 6114   1.581   4.652   2.594  0.0000  0.0000  0.0330
 1515SOL    MW4 6115   1.591   4.632   2.678  0.0000  0.0000  0.0377
 1516SOL     OW 6116   1.367   0.079   2.785  0.3131  0.2351  0.3594
 1516SOL    HW2 6117   1.369   0.154   2.725 -0.7119 -0.1214 -0.1280
 1516SOL    HW3 6118   1.443   0.027   2.759  0.4468  0.5853  0.0340
 1516SOL    MW4 6119   1.378   0.082   2.773  0.1955  0.2343  0.2522
 1517SOL     OW 6120   1.321   0.307   2.624  0.4206  0.3565  0.2922
 1517SOL    HW2 6121   1.386   0.375   2.641  0.1673  1.2671 -2.2377
 1517SOL    HW3 6122   1.246   0.332   2.678  0.8325  1.3087  0.4362
 1517SOL    MW4 6123   1.320   0.319   2.634  0.4414  0.6022 -0.0226
 1518SOL     OW 6124   1.533   0.467   2.712 -0.1660 -0.2429 -0.0389
 1518SOL    HW2 6125   1.618   0.424   2.703 -1.1399 -1.8910 -1.4256
 1518SOL    HW3 6126   1.551   0.559   2.691  1.2923 -0.5544 -0.2110
 1518SOL    MW4 6127   1.547   0.474   2.708 -0.1022 -0.5014 -0.2449
 1519SOL     OW 6128   1.533   0.725   2.625 -0.0593 -0.0543  0.0405
 1519SOL    HW2 6129   1.449   0.767   2.643  0.6066  1.4874 -0.2977
 1519SOL    HW3 6130   1.549   0.742   2.532  0.6846 -0.2210  0.1360
 1519SOL    MW4 6131   1.524   0.733   2.615  0.1266  0.1272  0.0083
 1520SOL     OW 6132   1.329   0.901   2.726  0.0279 -0.4438 -0.5613
 1520SOL    HW2 6133   1.333   0.905   2.822  0.6361 -2.6790 -0.4696
 1520SOL    HW3 6134   1.344   0.991   2.698  2.1171 -0.1316  1.3846
 1520SOL    MW4 6135   1.331   0.913   2.735  0.3839 -0.6974 -0.2921
 1521SOL     OW 6136   1.341   1.150   2.590 -0.5053 -0.3707  0.1308
 1521SOL    HW2 6137   1.415   1.195   2.631  0.4634 -2.3311  0.5420
 1521SOL    HW3 6138   1.264   1.185   2.636 -0.0899  3.2341 -1.6915
 1521SOL    MW4 6139   1.341   1.161   2.602 -0.3227 -0.1538 -0.0553
 1522SOL     OW 6140   1.571   1.279   2.705 -0.2432  0.0698 -0.1008
 1522SOL    HW2 6141   1.580   1.270   2.800  2.3570  2.2390 -0.1006
 1522SOL    HW3 6142   1.641   1.224   2.670 -0.5628  0.0810 -0.7520
 1522SOL    MW4 6143   1.581   1.270   2.713  0.0577  0.3575 -0.1867
 1523SOL     OW 6144   1.565   1.535   2.656 -0.2402 -0.0037  0.6599
 1523SOL    HW2 6145   1.567   1.440   2.665  1.5318 -0.1714 -1.2447
 1523SOL    HW3 6146   1.553   1.550   2.562  1.7600  1.6341  0.6336
 1523SOL    MW4 6147   1.564   1.525   2.645  0.2575  0.1903  0.4051
 1524SOL     OW 6148   1.324   1.646   2.745  0.1527 -0.1258 -0.2738
 1524SOL    HW2 6149   1.401   1.595   2.723 -0.6598 -1.0389 -1.0895
 1524SOL    HW3 6150   1.252   1.600   2.701 -0.9335  0.3475  0.9883
 1524SOL    MW4 6151   1.324   1.633   2.736 -0.0979 -0.1837 -0.2151
 1525SOL     OW 6152   1.352   1.907   2.634 -0.5020 -0.0554 -0.1335
 1525SOL    HW2 6153   1.349   1.816   2.663  0.6889 -0.1182 -0.2140
 1525SOL    HW3 6154   1.319   1.904   2.544  0.7738 -0.5920 -0.5829
 1525SOL    MW4 6155   1.347   1.895   2.626 -0.1765 -0.1343 -0.2036
 1526SOL     OW 6156   1.574   2.070   2.688 -0.1052  0.1893  0.2751
 1526SOL    HW2 6157   1.658   2.024   2.678 -0.0607  0.5982 -1.3188
 1526SOL    HW3 6158   1.508   2.005   2.665 -0.0712  0.7469 -1.4156
 1526SOL    MW4 6159   1.577   2.056   2.684 -0.0949  0.3171 -0.1581
 1527SOL     OW 6160   1.595   2.350   2.612 -0.0828 -0.0113 -0.5140
 1527SOL    HW2 6161   1.676   2.371   2.660 -0.1617  0.3484 -0.5312
 1527SOL    HW3 6162   1.577   2.259   2.634 -0.7948  0.5083  1.1590
 1527SOL    MW4 6163   1.604   2.341   2.622 -0.1872  0.1044 -0.2956
 1528SOL     OW 6164   1.356   2.445   2.734 -0.0035  0.3007  0.5327
 1528SOL    HW2 6165   1.340   2.526   2.685  1.2410  1.4207  1.9318
 1528SOL    HW3 6166   1.434   2.407   2.694 -0.6181 -0.2657 -0.1587
 1528SOL    MW4 6167   1.364   2.451   2.722  0.0796  0.3736  0.6261
 1529SOL     OW 6168   1.294   2.694   2.657  0.2569  0.2593  0.2647
 1529SOL    HW2 6169   1.368   2.736   2.702 -0.6248  0.9050  1.1088
 1529SOL    HW3 6170   1.315   2.704   2.564  1.6429 -0.2881  0.4923
 1529SOL    MW4 6171   1.307   2.701   2.651  0.3234  0.2723  0.4063
 1530SOL     OW 6172   1.548   2.823   2.758 -0.3974 -0.1221  0.3110
 1530SOL    HW2 6173   1.560   2.817   2.853 -1.0241 -1.0203  0.3444
 1530SOL    HW3 6174   1.630   2.789   2.721  0.2880  1.2791  0.5236
 1530SOL    MW4 6175   1.561   2.817   2.766 -0.3895 -0.0556  0.3431
 1531SOL     OW 6176   1.595   3.098   2.649  0.0383 -0.3956 -0.0068
 1531SOL    HW2 6177   1.675   3.124   2.696 -0.1710 -0.0023  0.1244
 1531SOL    HW3 6178   1.569   3.016   2.692  0.8101 -0.9397 -0.5640
 1531SOL    MW4 6179   1.602   3.090   2.661  0.1125 -0.4153 -0.0629
 1532SOL     OW 6180   1.369   3.237   2.740  0.1491  0.0394 -0.1454
 1532SOL    HW2 6181   1.447   3.189   2.711 -1.1510 -0.7156 -2.4869
 1532SOL    HW3 6182   1.296   3.180   2.716 -1.1687  0.8847  1.7457
 1532SOL    MW4 6183   1.370   3.223   2.733 -0.1963  0.0515 -0.2046
 1533SOL     OW 6184   1.330   3.489   2.654  0.6761 -0.2703 -0.3847
 1533SOL    HW2 6185   1.338   3.399   2.685 -0.2370 -0.6722 -1.2974
 1533SOL    HW3 6186   1.250   3.521   2.696 -0.6027 -0.8386 -2.3438
 1533SOL    MW4 6187   1.320   3.481   2.664  0.3868 -0.3982 -0.7637
 1534SOL     OW 6188   1.529   3.614   2.768 -0.2706  0.0801 -0.0537
 1534SOL    HW2 6189   1.603   3.562   2.737  0.7894  1.9428 -0.6943
 1534SOL    HW3 6190   1.452   3.573   2.728  0.6529 -0.3307 -1.4313
 1534SOL    MW4 6191   1.528   3.601   2.759 -0.0089  0.2718 -0.3200
 1535SOL     OW 6192   1.580   3.881   2.672 -0.2495  0.5537 -0.1156
 1535SOL    HW2 6193   1.490   3.904   2.693  0.0624  1.3623  0.3577
 1535SOL    HW3 6194   1.585   3.787   2.687 -1.5999  0.1190 -2.2646
 1535SOL    MW4 6195   1.569   3.872   2.677 -0.3865  0.6030 -0.3366
 1536SOL     OW 6196   1.332   3.971   2.744  0.2558  0.0960  0.1180
 1536SOL    HW2 6197   1.318   3.966   2.839 -0.0564  1.6404  0.1736
 1536SOL    HW3 6198   1.364   4.060   2.729  0.7674 -0.2929 -1.1764
 1536SOL    MW4 6199   1.334   3.982   2.755  0.2819  0.2484 -0.0455
 1537SOL     OW 6200   1.377   4.240   2.664 -0.3015  0.1027 -0.2748
 1537SOL    HW2 6201   1.292   4.276   2.689 -0.8511  0.1255 -2.0869
 1537SOL    HW3 6202   1.377   4.242   2.568  1.4258 -0.6351 -0.3178
 1537SOL    MW4 6203   1.366   4.245   2.655 -0.1460  0.0086 -0.5195
 1538SOL     OW 6204   1.581   4.374   2.777  0.3902  0.4979  0.2338
 1538SOL    HW2 6205   1.576   4.371   2.873 -1.3285 -1.5204  0.1154
 1538SOL    HW3 6206   1.501   4.330   2.748  0.2122  2.3045 -2.1538
 1538SOL    MW4 6207   1.570   4.368   2.786  0.1400  0.4697 -0.0968
 1539SOL     OW 6208   2.023   4.632   2.641 -0.2348 -0.6531 -0.3167
 1539SOL    HW2 6209   2.101   4.686   2.659 -1.7875  1.6270 -0.1718
 1539SOL    HW3 6210   2.015   4.633   2.546 -1.5774  1.3917 -0.2215
 1539SOL    MW4 6211   2.033   4.639   2.631 -0.6168 -0.0830 -0.2849
 1540SOL     OW 6212   1.826   0.074   2.798  0.0840  0.6430 -0.0432
 1540SOL    HW2 6213   1.889   0.047   2.732  0.5262 -0.0786  0.6633
 1540SOL    HW3 6214   1.742   0.037   2.768  0.2288  0.5487 -0.3334
 1540SOL    MW4 6215   1.823   0.066   2.785  0.1614  0.5354  0.0117
 1541SOL     OW 6216   1.796   0.337   2.705 -0.3296  0.6106  0.0980
 1541SOL    HW2 6217   1.872   0.387   2.736  1.2729 -0.6689 -1.5853
 1541SOL    HW3 6218   1.804   0.252   2.748 -0.8981  0.5403  0.0583
 1541SOL    MW4 6219   1.807   0.333   2.714 -0.1930  0.4325 -0.1290
 1542SOL     OW 6220   2.001   0.504   2.784  0.2064 -0.2533  0.4206
 1542SOL    HW2 6221   2.073   0.455   2.743  0.3111  0.0516  0.2419
 1542SOL    HW3 6222   2.016   0.595   2.759  0.7008  0.0442  1.7588
 1542SOL    MW4 6223   2.013   0.509   2.775  0.2856 -0.1739  0.5736
 1543SOL     OW 6224   2.029   0.790   2.682  0.2104  0.3727  0.3209
 1543SOL    HW2 6225   1.941   0.817   2.708  0.7659  3.1724 -0.5969
 1543SOL    HW3 6226   2.025   0.785   2.586  0.8637 -0.1491  0.3170
 1543SOL    MW4 6227   2.017   0.793   2.673  0.3700  0.6733  0.1993
 1544SOL     OW 6228   1.754   0.836   2.745  0.0666 -0.0621  0.1350
 1544SOL    HW2 6229   1.740   0.927   2.718  1.7797 -0.1671 -1.1722
 1544SOL    HW3 6230   1.680   0.788   2.708 -1.8298  1.0666  2.3622
 1544SOL    MW4 6231   1.742   0.842   2.737  0.0423  0.0730  0.2565
 1545SOL     OW 6232   1.773   1.083   2.625 -0.1106 -0.3489 -0.0986
 1545SOL    HW2 6233   1.845   1.136   2.658  0.3994 -1.3660  0.4319
 1545SOL    HW3 6234   1.782   1.086   2.530  0.4903 -0.3001 -0.0382
 1545SOL    MW4 6235   1.784   1.091   2.617  0.0361 -0.4765 -0.0207
 1546SOL     OW 6236   2.009   1.235   2.736 -0.0783  0.1027 -0.1144
 1546SOL    HW2 6237   2.013   1.247   2.831 -1.8328 -2.1502  0.3085
 1546SOL    HW3 6238   2.093   1.196   2.713 -0.1650 -0.6144  0.7507
 1546SOL    MW4 6239   2.020   1.231   2.745 -0.3214 -0.2892  0.0558
 1547SOL     OW 6240   1.995   1.497   2.622 -0.2281  0.1547  0.0052
 1547SOL    HW2 6241   1.918   1.535   2.666 -1.6930 -0.1681 -2.2251
 1547SOL    HW3 6242   2.000   1.408   2.657 -0.8528  0.1847  0.1791
 1547SOL    MW4 6243   1.985   1.490   2.633 -0.5038  0.1162 -0.2661
 1548SOL     OW 6244   1.800   1.657   2.742 -0.0229  0.4864 -0.5447
 1548SOL    HW2 6245   1.799   1.662   2.838  0.7335  0.8480 -0.5499
 1548SOL    HW3 6246   1.718   1.614   2.720 -0.3967  0.7762  0.2452
 1548SOL    MW4 6247   1.789   1.652   2.752  0.0275  0.5724 -0.4411
 1549SOL     OW 6248   1.812   1.914   2.628 -0.3898 -0.3356  0.0000
 1549SOL    HW2 6249   1.886   1.965   2.663 -0.6162  0.7565 -1.0961
 1549SOL    HW3 6250   1.824   1.826   2.666  0.7695  0.1601  0.8216
 1549SOL    MW4 6251   1.823   1.909   2.638 -0.2668 -0.1261 -0.0365
 1550SOL     OW 6252   2.010   2.057   2.720 -0.5419 -0.0564 -0.4683
 1550SOL    HW2 6253   2.021   2.061   2.815 -1.1146 -0.2284 -0.3931
 1550SOL    HW3 6254   2.029   2.146   2.690  1.8561 -0.5258 -0.4410
 1550SOL    MW4 6255   2.014   2.069   2.729 -0.3009 -0.1409 -0.4549
 1551SOL     OW 6256   2.041   2.322   2.626 -0.1439 -0.1021  0.4959
 1551SOL    HW2 6257   2.116   2.373   2.658 -0.2964  0.7443 -0.4507
 1551SOL    HW3 6258   2.052   2.321   2.531 -1.3309  0.0350  0.3503
 1551SOL    MW4 6259   2.053   2.329   2.618 -0.3204  0.0279  0.3517
 1552SOL     OW 6260   1.822   2.461   2.739  0.4863 -0.0207  0.0845
 1552SOL    HW2 6261   1.837   2.443   2.832  2.0557 -1.2893 -0.3944
 1552SOL    HW3 6262   1.892   2.415   2.694  0.1983  1.2329 -1.7006
 1552SOL    MW4 6263   1.833   2.453   2.746  0.6553 -0.0226 -0.2141
 1553SOL     OW 6264   1.793   2.742   2.660 -0.2589 -0.2052  0.4074
 1553SOL    HW2 6265   1.823   2.654   2.685  2.3657  0.2760 -0.9410
 1553SOL    HW3 6266   1.786   2.739   2.564 -0.9176  0.8237  0.4157
 1553SOL    MW4 6267   1.796   2.730   2.651  0.0006 -0.0060  0.2306
 1554SOL     OW 6268   2.020   2.841   2.776 -0.0430  0.0829 -0.6648
 1554SOL    HW2 6269   2.088   2.791   2.731 -0.7190 -1.5523  0.1087
 1554SOL    HW3 6270   1.938   2.803   2.745 -0.5232 -0.7460  1.5506
 1554SOL    MW4 6271   2.018   2.829   2.766 -0.1955 -0.2422 -0.2704
 1555SOL     OW 6272   2.037   3.101   2.674  0.6382  0.0908  0.1096
 1555SOL    HW2 6273   2.039   3.017   2.720 -2.3275 -0.5625 -0.8449
 1555SOL    HW3 6274   2.042   3.078   2.582 -0.0720  0.9635 -0.1568
 1555SOL    MW4 6275   2.038   3.087   2.668  0.1531  0.1194 -0.0515
 1556SOL     OW 6276   1.825   3.226   2.798 -0.3107 -0.4531  0.2795
 1556SOL    HW2 6277   1.837   3.317   2.769  0.6355 -0.6749 -0.0558
 1556SOL    HW3 6278   1.902   3.180   2.765 -0.3911 -1.2135  1.1150
 1556SOL    MW4 6279   1.837   3.232   2.790 -0.1966 -0.5827  0.3457
 1557SOL     OW 6280   1.756   3.483   2.691 -0.3061  0.6409  0.1574
 1557SOL    HW2 6281   1.843   3.520   2.706 -0.2188 -0.2329  1.9550
 1557SOL    HW3 6282   1.745   3.485   2.596  1.5796  0.9757 -0.0727
 1557SOL    MW4 6283   1.766   3.488   2.680 -0.0458  0.5698  0.3643
 1558SOL     OW 6284   2.005   3.594   2.756 -0.1233  0.4071  0.3182
 1558SOL    HW2 6285   2.007   3.580   2.850  0.9783  1.3108  0.4423
 1558SOL    HW3 6286   2.071   3.533   2.721 -1.0434 -0.4528  0.0442
 1558SOL    MW4 6287   2.014   3.584   2.764 -0.0994  0.4127  0.2983
 1559SOL     OW 6288   1.982   3.855   2.658  0.4247 -0.0101 -0.4021
 1559SOL    HW2 6289   1.912   3.902   2.703  1.5287  0.5693  0.7552
 1559SOL    HW3 6290   1.982   3.768   2.697 -0.4822 -0.4395 -1.3222
 1559SOL    MW4 6291   1.973   3.850   2.669  0.4507  0.0098 -0.3707
 1560SOL     OW 6292   1.796   3.973   2.804 -0.2888 -0.5310  0.4283
 1560SOL    HW2 6293   1.800   4.065   2.778  1.6919 -0.4564  0.9656
 1560SOL    HW3 6294   1.709   3.944   2.775 -0.3838  1.1166 -0.9905
 1560SOL    MW4 6295   1.785   3.981   2.797 -0.0399 -0.3037  0.3119
 1561SOL     OW 6296   1.797   4.220   2.681  0.0446  0.4763  0.4699
 1561SOL    HW2 6297   1.730   4.284   2.703 -0.6931  0.2409 -0.9980
 1561SOL    HW3 6298   1.807   4.228   2.586  1.0009 -0.5628  0.4719
 1561SOL    MW4 6299   1.790   4.229   2.671  0.0736  0.3085  0.2761
 1562SOL     OW 6300   2.021   4.368   2.768  0.0697  0.3282 -0.0817
 1562SOL    HW2 6301   1.948   4.319   2.731 -1.1978  2.0681  0.0702
 1562SOL    HW3 6302   2.014   4.456   2.730  2.5329  0.3191 -0.6487
 1562SOL    MW4 6303   2.010   4.373   2.758  0.2277  0.5569 -0.1366
 1563SOL     OW 6304   2.461   0.015   2.648 -0.2482 -0.2858 -0.4066
 1563SOL    HW2 6305   2.547   0.049   2.673 -0.1767  0.7538 -2.0634
 1563SOL    HW3 6306   2.474  -0.022   2.561 -1.5648  0.1685 -0.8003
 1563SOL    MW4 6307   2.475   0.015   2.640 -0.4125 -0.0887 -0.6773
 1564SOL     OW 6308   2.224   0.111   2.725 -0.5191  0.3552 -0.6240
 1564SOL    HW2 6309   2.218   0.105   2.821 -0.7971 -0.4940 -0.6830
 1564SOL    HW3 6310   2.308   0.071   2.704 -0.7340 -0.0159 -0.7770
 1564SOL    MW4 6311   2.234   0.105   2.735 -0.5841  0.1942 -0.6518
 1565SOL     OW 6312   2.224   0.374   2.674  0.1122  0.2233 -0.0528
 1565SOL    HW2 6313   2.213   0.280   2.686  1.1174  0.0799 -0.2273
 1565SOL    HW3 6314   2.244   0.384   2.581  0.7972  0.5286  0.1221
 1565SOL    MW4 6315   2.225   0.363   2.663  0.3352  0.2446 -0.0527
 1566SOL     OW 6316   2.480   0.476   2.751  0.3081  0.7645 -0.2246
 1566SOL    HW2 6317   2.488   0.571   2.743  1.0227  0.7085 -0.2163
 1566SOL    HW3 6318   2.388   0.457   2.730  0.3187  1.3912 -0.8362
 1566SOL    MW4 6319   2.469   0.486   2.747  0.4036  0.8398 -0.3047
 1567SOL     OW 6320   2.501   0.774   2.656 -0.3228 -0.0534  0.4826
 1567SOL    HW2 6321   2.421   0.824   2.672  0.4448  0.8303  1.7226
 1567SOL    HW3 6322   2.507   0.767   2.561 -0.6234  1.9725  0.2881
 1567SOL    MW4 6323   2.491   0.780   2.646 -0.2613  0.3304  0.6204
 1568SOL     OW 6324   2.269   0.925   2.754 -0.0591 -0.2299  0.5712
 1568SOL    HW2 6325   2.272   0.906   2.847 -1.5491 -3.6269 -0.0232
 1568SOL    HW3 6326   2.196   0.873   2.720  0.7984  0.4813 -2.5820
 1568SOL    MW4 6327   2.260   0.916   2.762 -0.1426 -0.5842  0.0765
 1569SOL     OW 6328   2.259   1.173   2.656  0.6224 -0.4060  0.2311
 1569SOL    HW2 6329   2.261   1.086   2.697  0.1903 -0.7619 -0.4865
 1569SOL    HW3 6330   2.254   1.154   2.562 -1.2924  0.4076  0.1582
 1569SOL    MW4 6331   2.259   1.159   2.649  0.3126 -0.3457  0.1271
 1570SOL     OW 6332   2.481   1.298   2.731 -0.3645  0.2830 -0.6449
 1570SOL    HW2 6333   2.559   1.250   2.703 -0.3433 -0.0201 -0.0655
 1570SOL    HW3 6334   2.409   1.250   2.690 -0.5460 -1.8530  2.0897
 1570SOL    MW4 6335   2.482   1.285   2.722 -0.3858 -0.0389 -0.2079
 1571SOL     OW 6336   2.471   1.581   2.648  0.2016 -0.0047 -0.2945
 1571SOL    HW2 6337   2.384   1.612   2.673  0.9417  1.3151  0.7378
 1571SOL    HW3 6338   2.473   1.490   2.677 -0.1116  0.5691  1.5900
 1571SOL    MW4 6339   2.460   1.573   2.655  0.2577  0.2452  0.0904
 1572SOL     OW 6340   2.219   1.654   2.731 -0.6006  1.4017 -0.1910
 1572SOL    HW2 6341   2.207   1.745   2.704 -1.3990  1.2166 -0.4665
 1572SOL    HW3 6342   2.140   1.609   2.700 -0.5009  0.7466  0.4919
 1572SOL    MW4 6343   2.207   1.660   2.724 -0.6928  1.2909 -0.1371
 1573SOL     OW 6344   2.254   1.937   2.665  0.1433  0.3769  0.2188
 1573SOL    HW2 6345   2.182   1.996   2.685  0.3282  0.6947 -0.0532
 1573SOL    HW3 6346   2.255   1.931   2.570 -0.7418 -1.1504  0.2960
 1573SOL    MW4 6347   2.245   1.944   2.655  0.0510  0.2171  0.1934
 1574SOL     OW 6348   2.461   2.089   2.789  0.2666 -0.2154 -0.2269
 1574SOL    HW2 6349   2.469   2.168   2.736 -0.2637  0.7920  1.1688
 1574SOL    HW3 6350   2.397   2.035   2.744 -0.3500  0.7333 -0.4836
 1574SOL    MW4 6351   2.454   2.093   2.776  0.1154  0.0427 -0.0768
 1575SOL     OW 6352   2.481   2.325   2.630  0.0535 -0.1479 -0.0324
 1575SOL    HW2 6353   2.568   2.355   2.657 -0.2339 -0.3681  1.2050
 1575SOL    HW3 6354   2.485   2.319   2.535  0.6042  2.2167 -0.1634
 1575SOL    MW4 6355   2.493   2.328   2.621  0.0885  0.1352  0.1137
 1576SOL     OW 6356   2.250   2.461   2.728 -0.2274 -0.0200 -0.3969
 1576SOL    HW2 6357   2.251   2.470   2.823 -0.1353 -1.8351 -0.2116
 1576SOL    HW3 6358   2.334   2.420   2.707 -0.3353  0.1813 -1.2385
 1576SOL    MW4 6359   2.261   2.457   2.737 -0.2294 -0.2332 -0.4833
 1577SOL     OW 6360   2.223   2.716   2.655  0.1639  0.0614 -0.2122
 1577SOL    HW2 6361   2.308   2.752   2.681  0.4728 -1.5287  1.1067
 1577SOL    HW3 6362   2.228   2.623   2.680 -1.9387 -0.0641 -0.1710
 1577SOL    MW4 6363   2.235   2.708   2.662 -0.0730 -0.1650 -0.0327
 1578SOL     OW 6364   2.467   2.828   2.748 -0.1106 -0.2903 -0.8074
 1578SOL    HW2 6365   2.539   2.780   2.707  1.8917  0.8621  1.1694
 1578SOL    HW3 6366   2.478   2.918   2.717  0.0423  0.1230  0.4168
 1578SOL    MW4 6367   2.478   2.834   2.739  0.1738 -0.0837 -0.3850
 1579SOL     OW 6368   2.493   3.086   2.674 -0.0035 -0.2411  0.1259
 1579SOL    HW2 6369   2.411   3.117   2.713  0.0605  0.1502 -0.0534
 1579SOL    HW3 6370   2.483   3.103   2.581 -0.5327 -2.0169 -0.1670
 1579SOL    MW4 6371   2.480   3.092   2.667 -0.0648 -0.4239  0.0637
 1580SOL     OW 6372   2.268   3.223   2.768 -0.0760 -0.1625  0.4841
 1580SOL    HW2 6373   2.272   3.218   2.863  0.5451 -0.1168  0.4601
 1580SOL    HW3 6374   2.187   3.177   2.745  1.0503 -2.4076  0.8738
 1580SOL    MW4 6375   2.258   3.216   2.777  0.1545 -0.4530  0.5324
 1581SOL     OW 6376   2.213   3.461   2.645  0.3575  0.1821  0.3189
 1581SOL    HW2 6377   2.286   3.504   2.689  1.0099 -1.0487  0.4514
 1581SOL    HW3 6378   2.219   3.369   2.670 -0.6358 -0.1242 -0.4833
 1581SOL    MW4 6379   2.223   3.455   2.654  0.3126 -0.0205  0.2303
 1582SOL     OW 6380   2.436   3.587   2.763 -0.1282 -0.1849 -0.9416
 1582SOL    HW2 6381   2.446   3.596   2.857 -0.7164 -0.1604 -0.8789
 1582SOL    HW3 6382   2.453   3.675   2.729 -0.7108 -0.0092 -0.7848
 1582SOL    MW4 6383   2.440   3.600   2.771 -0.2830 -0.1583 -0.9129
 1583SOL     OW 6384   2.443   3.851   2.651 -0.1385 -0.1805  0.4955
 1583SOL    HW2 6385   2.502   3.913   2.693  0.1372  0.7142 -1.1717
 1583SOL    HW3 6386   2.356   3.876   2.682  0.2387 -0.8150  2.1058
 1583SOL    MW4 6387   2.439   3.862   2.660 -0.0527 -0.1462  0.4878
 1584SOL     OW 6388   2.202   3.995   2.747 -0.0988  0.0093 -0.2141
 1584SOL    HW2 6389   2.191   3.984   2.841  0.0248  1.2406 -0.0420
 1584SOL    HW3 6390   2.127   3.950   2.708 -0.2643 -0.3212  0.4789
 1584SOL    MW4 6391   2.191   3.988   2.754 -0.1044  0.1280 -0.1001
 1585SOL     OW 6392   2.263   4.253   2.678  1.0146  0.2228  0.0318
 1585SOL    HW2 6393   2.265   4.159   2.697  0.7737 -0.3121 -2.3995
 1585SOL    HW3 6394   2.182   4.284   2.719  0.2189 -0.9823 -0.6214
 1585SOL    MW4 6395   2.252   4.245   2.686  0.8781 -0.0067 -0.3750
 1586SOL     OW 6396   2.471   4.408   2.726 -0.0778 -0.9580  0.2123
 1586SOL    HW2 6397   2.393   4.356   2.709 -1.0086  0.4963 -0.0910
 1586SOL    HW3 6398   2.448   4.496   2.696  1.4392 -0.3570  0.7521
 1586SOL    MW4 6399   2.457   4.413   2.720 -0.0005 -0.6866  0.2437
 1587SOL     OW 6400   2.947   4.647   2.660 -0.6065  0.0752  0.1150
 1587SOL    HW2 6401   3.024   4.700   2.680  1.0983 -2.3890  0.3116
 1587SOL    HW3 6402   2.942   4.647   2.564 -0.6674  0.6322  0.1149
 1587SOL    MW4 6403   2.957   4.654   2.650 -0.3898 -0.1764  0.1409
 1588SOL     OW 6404   2.714   0.104   2.735  0.0259  0.3576 -0.1468
 1588SOL    HW2 6405   2.706   0.108   2.830  1.9292  1.3760 -0.0079
 1588SOL    HW3 6406   2.801   0.067   2.719 -0.1355  0.5064 -1.4875
 1588SOL    MW4 6407   2.724   0.100   2.745  0.2558  0.5116 -0.3052
 1589SOL     OW 6408   2.692   0.376   2.624 -0.3421 -0.0494  0.5156
 1589SOL    HW2 6409   2.702   0.289   2.661  0.2713  0.5287  1.7376
 1589SOL    HW3 6410   2.617   0.414   2.670  0.2347  0.5625  0.9603
 1589SOL    MW4 6411   2.683   0.370   2.635 -0.1850  0.1076  0.7355
 1590SOL     OW 6412   2.903   0.517   2.734  0.0423 -0.1729 -0.3335
 1590SOL    HW2 6413   2.886   0.601   2.691  1.4252 -0.1066 -0.8021
 1590SOL    HW3 6414   2.843   0.456   2.692  0.8986  0.0351 -1.9080
 1590SOL    MW4 6415   2.893   0.520   2.722  0.3376 -0.1367 -0.6027
 1591SOL     OW 6416   2.914   0.773   2.617 -0.6607  0.1783  0.3947
 1591SOL    HW2 6417   2.996   0.811   2.650 -0.5840  2.6968 -2.3938
 1591SOL    HW3 6418   2.845   0.829   2.654 -0.7717  1.0040 -1.0162
 1591SOL    MW4 6419   2.916   0.785   2.626 -0.6654  0.6195 -0.1593
 1592SOL     OW 6420   2.723   0.917   2.752 -0.1950  0.1408 -0.0399
 1592SOL    HW2 6421   2.711   0.905   2.846 -0.3381 -1.2350 -0.2153
 1592SOL    HW3 6422   2.655   0.861   2.713 -1.1018  1.8434 -0.9452
 1592SOL    MW4 6423   2.712   0.908   2.759 -0.3335  0.1839 -0.1824
 1593SOL     OW 6424   2.734   1.187   2.657  0.0205  0.2688 -0.4053
 1593SOL    HW2 6425   2.793   1.238   2.713  0.0332  0.3267 -0.4718
 1593SOL    HW3 6426   2.741   1.097   2.690  0.3916  0.2180 -0.6209
 1593SOL    MW4 6427   2.743   1.182   2.669  0.0710  0.2697 -0.4425
 1594SOL     OW 6428   2.931   1.304   2.819 -0.2474 -0.0133  0.1375
 1594SOL    HW2 6429   2.944   1.291   2.913 -1.1215  1.3696  0.4533
 1594SOL    HW3 6430   2.995   1.245   2.778  1.6125  0.9421  1.6025
 1594SOL    MW4 6431   2.941   1.294   2.826 -0.1173  0.2952  0.3724
 1595SOL     OW 6432   2.922   1.557   2.674 -0.7927 -0.5239 -0.3963
 1595SOL    HW2 6433   2.843   1.606   2.697  0.0124  0.8089 -0.4430
 1595SOL    HW3 6434   2.915   1.475   2.724 -1.3302  0.3502  0.9669
 1595SOL    MW4 6435   2.911   1.552   2.683 -0.7577 -0.2327 -0.2224
 1596SOL     OW 6436   2.697   1.698   2.762 -0.3589  1.0256 -0.0285
 1596SOL    HW2 6437   2.711   1.673   2.853  0.1988 -2.1343 -0.9161
 1596SOL    HW3 6438   2.624   1.644   2.733  1.4521 -0.2523 -2.3094
 1596SOL    MW4 6439   2.689   1.688   2.770 -0.0465  0.4402 -0.4466
 1597SOL     OW 6440   2.674   1.963   2.674  0.1110  0.2160 -0.2394
 1597SOL    HW2 6441   2.688   1.881   2.721 -0.0183  1.1719  1.5203
 1597SOL    HW3 6442   2.602   2.005   2.720 -0.1758  1.0797 -1.4479
 1597SOL    MW4 6443   2.667   1.958   2.686  0.0563  0.4560 -0.1667
 1598SOL     OW 6444   2.916   2.058   2.743 -0.2121  0.0496 -0.0244
 1598SOL    HW2 6445   2.925   2.141   2.696 -0.8937  0.2094  0.1155
 1598SOL    HW3 6446   2.827   2.028   2.722 -0.5837  0.2006  1.2847
 1598SOL    MW4 6447   2.905   2.065   2.734 -0.3514  0.0906  0.1669
 1599SOL     OW 6448   2.903   2.297   2.600 -0.5156 -0.0761  0.1690
 1599SOL    HW2 6449   2.992   2.327   2.618 -0.0898 -1.5948  0.6752
 1599SOL    HW3 6450   2.847   2.356   2.650  0.1269  1.5466 -0.9749
 1599SOL    MW4 6451   2.908   2.309   2.609 -0.3743 -0.0625  0.0849
 1600SOL     OW 6452   2.710   2.456   2.731 -0.1142 -0.2443 -0.1082
 1600SOL    HW2 6453   2.705   2.465   2.826 -2.0625  1.3688 -0.3393
 1600SOL    HW3 6454   2.690   2.543   2.697  0.1981 -0.8860 -2.0112
 1600SOL    MW4 6455   2.707   2.468   2.739 -0.3300 -0.1161 -0.3898
 1601SOL     OW 6456   2.680   2.706   2.616  0.2836  0.2411 -0.3378
 1601SOL    HW2 6457   2.767   2.726   2.651  0.0114 -1.1714  1.1946
 1601SOL    HW3 6458   2.693   2.705   2.521  1.9376  0.0594 -0.1331
 1601SOL    MW4 6459   2.693   2.708   2.608  0.4656  0.0308 -0.1087
 1602SOL     OW 6460   2.942   2.773   2.705  0.7364 -0.2619 -0.3162
 1602SOL    HW2 6461   2.936   2.776   2.800  2.4082 -0.1037 -0.2078
 1602SOL    HW3 6462   2.945   2.865   2.678  0.2682 -0.3054 -0.5272
 1602SOL    MW4 6463   2.942   2.786   2.714  0.8953 -0.2468 -0.3295
 1603SOL     OW 6464   2.927   3.034   2.638 -0.0623 -0.3687  0.4091
 1603SOL    HW2 6465   2.852   3.089   2.659  0.1148 -0.1685  0.5213
 1603SOL    HW3 6466   2.928   3.030   2.543  0.5558  0.6983  0.3629
 1603SOL    MW4 6467   2.917   3.041   2.629  0.0424 -0.2015  0.4177
 1604SOL     OW 6468   2.729   3.200   2.740  0.2423 -0.1565 -0.4587
 1604SOL    HW2 6469   2.709   3.293   2.731  0.9461 -0.1433 -2.0660
 1604SOL    HW3 6470   2.648   3.155   2.716  0.0341  0.0280 -0.1079
 1604SOL    MW4 6471   2.716   3.207   2.736  0.3078 -0.1302 -0.6244
 1605SOL     OW 6472   2.660   3.456   2.671 -0.4680  0.8354  0.7191
 1605SOL    HW2 6473   2.580   3.499   2.702 -0.8703  1.4917 -1.1797
 1605SOL    HW3 6474   2.651   3.452   2.576  0.4477 -1.7320  0.6868
 1605SOL    MW4 6475   2.648   3.461   2.663 -0.4003  0.5834  0.4647
 1606SOL     OW 6476   2.876   3.622   2.719 -0.6093  0.1559 -0.4060
 1606SOL    HW2 6477   2.871   3.605   2.813  0.4582 -0.6828 -0.4888
 1606SOL    HW3 6478   2.805   3.569   2.681  1.3494 -2.5378 -0.4432
 1606SOL    MW4 6479   2.866   3.613   2.726 -0.2103 -0.3099 -0.4218
 1607SOL     OW 6480   2.923   3.890   2.629 -0.1524 -0.5172  0.0896
 1607SOL    HW2 6481   2.983   3.945   2.680 -1.6008 -0.1706  1.4869
 1607SOL    HW3 6482   2.930   3.804   2.670 -1.2552 -0.2589  0.8707
 1607SOL    MW4 6483   2.931   3.886   2.641 -0.4892 -0.4373  0.3769
 1608SOL     OW 6484   2.685   4.005   2.753 -0.2830 -0.1215 -0.1220
 1608SOL    HW2 6485   2.689   4.091   2.710  0.2322 -0.3130 -0.4605
 1608SOL    HW3 6486   2.748   3.952   2.705 -0.7393 -0.7434 -0.0281
 1608SOL    MW4 6487   2.694   4.010   2.741 -0.2751 -0.2284 -0.1543
 1609SOL     OW 6488   2.696   4.260   2.665 -0.1228  0.3187 -0.3556
 1609SOL    HW2 6489   2.770   4.307   2.703 -0.4454  0.1485  0.5074
 1609SOL    HW3 6490   2.620   4.312   2.689 -0.3257  0.2434 -0.8325
 1609SOL    MW4 6491   2.696   4.273   2.674 -0.1924  0.2861 -0.3047
 1610SOL     OW 6492   2.907   4.405   2.770 -0.1023  0.6026 -0.2295
 1610SOL    HW2 6493   2.924   4.417   2.863  0.6834  0.5410 -0.3556
 1610SOL    HW3 6494   2.911   4.494   2.733  0.6782  0.5119 -0.3723
 1610SOL    MW4 6495   2.910   4.419   2.777  0.1044  0.5827 -0.2649
 1611SOL     OW 6496   3.368   4.647   2.606 -0.4447 -0.1606  0.3528
 1611SOL    HW2 6497   3.370   4.570   2.663 -1.6804  0.7310  1.6373
 1611SOL    HW3 6498   3.300   4.703   2.643  0.2557  1.4524 -0.7124
 1611SOL    MW4 6499   3.359   4.644   2.618 -0.5152  0.1698  0.3815
 1612SOL     OW 6500   3.172   0.129   2.750  0.3006  0.2417 -0.2610
 1612SOL    HW2 6501   3.162   0.134   2.845  0.1119  0.2074 -0.2788
 1612SOL    HW3 6502   3.167   0.220   2.720 -1.6699  0.0890 -0.4404
 1612SOL    MW4 6503   3.170   0.142   2.758  0.0155  0.2170 -0.2871
 1613SOL     OW 6504   3.146   0.397   2.654  0.0197  0.2083  0.3537
 1613SOL    HW2 6505   3.064   0.436   2.683 -0.6155 -0.3036 -0.6974
 1613SOL    HW3 6506   3.129   0.371   2.563  1.3994  0.2457  0.0741
 1613SOL    MW4 6507   3.133   0.398   2.646  0.1183  0.1457  0.1781
 1614SOL     OW 6508   3.385   0.525   2.738 -0.2140 -0.3906  0.0268
 1614SOL    HW2 6509   3.398   0.610   2.696 -1.3603 -1.4523 -2.6054
 1614SOL    HW3 6510   3.293   0.505   2.723  0.3650 -2.7202 -0.6303
 1614SOL    MW4 6511   3.374   0.534   2.730 -0.2887 -0.8381 -0.4075
 1615SOL     OW 6512   3.381   0.775   2.621  0.5228  0.1619  0.3557
 1615SOL    HW2 6513   3.448   0.824   2.669  0.5938  0.2180  0.1993
 1615SOL    HW3 6514   3.403   0.789   2.529  0.4956 -0.0934  0.3089
 1615SOL    MW4 6515   3.393   0.783   2.615  0.5286  0.1357  0.3290
 1616SOL     OW 6516   3.144   0.880   2.729  0.0003  0.1667  0.1773
 1616SOL    HW2 6517   3.162   0.891   2.823  0.6725 -2.4323  0.3769
 1616SOL    HW3 6518   3.226   0.849   2.692 -0.6761 -0.1947 -1.0376
 1616SOL    MW4 6519   3.157   0.878   2.737 -0.0002 -0.2239  0.0432
 1617SOL     OW 6520   3.107   1.141   2.647 -0.2710  0.1921  0.3010
 1617SOL    HW2 6521   3.127   1.052   2.676  1.6348  0.9194  1.2616
 1617SOL    HW3 6522   3.144   1.146   2.559  1.3388  0.6440  0.9955
 1617SOL    MW4 6523   3.115   1.130   2.639  0.1929  0.3477  0.5193
 1618SOL     OW 6524   3.322   1.287   2.746 -0.0678 -0.1411  0.1011
 1618SOL    HW2 6525   3.347   1.281   2.838 -1.2283 -0.0274  0.4263
 1618SOL    HW3 6526   3.245   1.232   2.738  0.4256 -0.6874 -0.9578
 1618SOL    MW4 6527   3.315   1.279   2.757 -0.1559 -0.1982  0.0043
 1619SOL     OW 6528   3.329   1.544   2.629 -0.3277 -0.1475  0.1308
 1619SOL    HW2 6529   3.260   1.598   2.669 -0.2599 -0.3958  0.5817
 1619SOL    HW3 6530   3.321   1.459   2.673  0.3218 -0.1501  0.2388
 1619SOL    MW4 6531   3.319   1.540   2.640 -0.2329 -0.1806  0.2046
 1620SOL     OW 6532   3.137   1.701   2.769 -0.0778  0.3786 -0.8410
 1620SOL    HW2 6533   3.134   1.781   2.716 -1.1675  0.8222 -0.1210
 1620SOL    HW3 6534   3.074   1.643   2.728  0.2935  0.0957 -1.0160
 1620SOL    MW4 6535   3.129   1.704   2.756 -0.1729  0.3997 -0.7691
 1621SOL     OW 6536   3.137   1.949   2.634 -0.3780 -0.0110 -0.1187
 1621SOL    HW2 6537   3.210   1.977   2.689 -0.1537  0.6752 -0.7451
 1621SOL    HW3 6538   3.060   1.989   2.673 -0.3822 -0.5056  0.3816
 1621SOL    MW4 6539   3.136   1.958   2.646 -0.3490  0.0142 -0.1354
 1622SOL     OW 6540   3.378   2.045   2.783 -0.5621  0.0716  0.4666
 1622SOL    HW2 6541   3.364   2.064   2.876 -0.2302  2.3695  0.0628
 1622SOL    HW3 6542   3.381   2.130   2.741 -1.7463 -0.9792 -1.8314
 1622SOL    MW4 6543   3.376   2.058   2.790 -0.6745  0.2360  0.1101
 1623SOL     OW 6544   3.395   2.266   2.642  0.3271 -0.9506 -0.3145
 1623SOL    HW2 6545   3.465   2.321   2.680 -1.7505  0.9767  0.8499
 1623SOL    HW3 6546   3.408   2.274   2.548  0.0865  1.5907 -0.1742
 1623SOL    MW4 6547   3.406   2.275   2.635  0.0212 -0.3610 -0.1423
 1624SOL     OW 6548   3.147   2.386   2.693 -0.1806 -0.2932  0.3385
 1624SOL    HW2 6549   3.156   2.466   2.641 -1.4601  0.4717  1.2847
 1624SOL    HW3 6550   3.227   2.336   2.674 -0.5002  0.0791 -2.1599
 1624SOL    MW4 6551   3.159   2.390   2.684 -0.3917 -0.1431  0.1338
 1625SOL     OW 6552   3.158   2.641   2.592  0.5083 -0.2034 -0.4236
 1625SOL    HW2 6553   3.242   2.684   2.610  0.4041  0.5586 -1.7429
 1625SOL    HW3 6554   3.095   2.690   2.644  0.5042  0.7839 -1.3555
 1625SOL    MW4 6555   3.161   2.653   2.601  0.4938  0.0272 -0.7207
 1626SOL     OW 6556   3.348   2.819   2.691  0.4960  0.0956  0.0375
 1626SOL    HW2 6557   3.350   2.824   2.786 -0.3616  1.8391 -0.0138
 1626SOL    HW3 6558   3.432   2.781   2.666  0.3610 -1.1955  1.5310
 1626SOL    MW4 6559   3.359   2.815   2.700  0.3653  0.1552  0.2275
 1627SOL     OW 6560   3.366   3.109   2.646  0.3673  0.1898  0.2350
 1627SOL    HW2 6561   3.353   3.017   2.666  0.5786 -0.0523 -0.7164
 1627SOL    HW3 6562   3.374   3.112   2.550  0.6595  1.1522  0.2840
 1627SOL    MW4 6563   3.365   3.098   2.636  0.4337  0.2847  0.1161
 1628SOL     OW 6564   3.117   3.212   2.730  0.3875 -0.0951 -0.6577
 1628SOL    HW2 6565   3.201   3.175   2.701  0.5878  0.1449 -0.3909
 1628SOL    HW3 6566   3.052   3.149   2.702  0.5578  0.2523 -1.8636
 1628SOL    MW4 6567   3.120   3.199   2.722  0.4363 -0.0179 -0.7818
 1629SOL     OW 6568   3.123   3.476   2.659  0.3524  0.2589  0.1130
 1629SOL    HW2 6569   3.109   3.385   2.685  0.8761  0.4298  1.0050
 1629SOL    HW3 6570   3.037   3.517   2.667  0.3235  0.0848  0.6916
 1629SOL    MW4 6571   3.110   3.470   2.663  0.4177  0.2584  0.3071
 1630SOL     OW 6572   3.339   3.622   2.780  0.0722  0.2670 -0.4118
 1630SOL    HW2 6573   3.351   3.595   2.872 -1.5553  2.4438  0.4673
 1630SOL    HW3 6574   3.276   3.559   2.745  1.1186 -0.9140 -0.2353
 1630SOL    MW4 6575   3.332   3.610   2.788 -0.0043  0.3986 -0.2730
 1631SOL     OW 6576   3.371   3.882   2.685 -0.1094  0.1131  0.2905
 1631SOL    HW2 6577   3.364   3.796   2.726 -0.9098  0.2988  0.5444
 1631SOL    HW3 6578   3.355   3.866   2.592 -0.6087  0.0403  0.3887
 1631SOL    MW4 6579   3.368   3.868   2.678 -0.2809  0.1280  0.3369
 1632SOL     OW 6580   3.134   4.003   2.740  0.0900  0.7497  0.7848
 1632SOL    HW2 6581   3.145   4.094   2.712 -1.0221  0.5363 -0.3792
 1632SOL    HW3 6582   3.216   3.961   2.714  0.3556  1.2783  0.7515
 1632SOL    MW4 6583   3.147   4.009   2.733 -0.0217  0.7915  0.6270
 1633SOL     OW 6584   3.129   4.262   2.651  0.1328  0.0134 -0.3580
 1633SOL    HW2 6585   3.050   4.306   2.682  0.7418  1.0578 -0.2528
 1633SOL    HW3 6586   3.129   4.277   2.556  0.4600  0.4288 -0.2908
 1633SOL    MW4 6587   3.119   4.270   2.642  0.2563  0.2060 -0.3352
 1634SOL     OW 6588   3.346   4.412   2.757  0.2144 -0.5164 -0.0087
 1634SOL    HW2 6589   3.336   4.407   2.852  0.6728  0.8049  0.1197
 1634SOL    HW3 6590   3.270   4.366   2.722 -1.1357  0.9038  0.9879
 1634SOL    MW4 6591   3.335   4.405   2.764  0.0966 -0.1545  0.1397
 1635SOL     OW 6592   3.841   4.662   2.626 -0.2510  0.2141 -0.7010
 1635SOL    HW2 6593   3.835   4.576   2.668  1.3391  0.3084 -0.2688
 1635SOL    HW3 6594   3.753   4.699   2.635 -0.7785 -1.0982 -0.3350
 1635SOL    MW4 6595   3.828   4.655   2.632 -0.1111  0.0539 -0.5958
 1636SOL     OW 6596   3.598   0.123   2.712 -0.3377 -0.3790  0.0685
 1636SOL    HW2 6597   3.600   0.216   2.688  1.1257 -0.3792  0.1701
 1636SOL    HW3 6598   3.524   0.088   2.663 -0.0335  0.5423 -1.0796
 1636SOL    MW4 6599   3.588   0.131   2.702 -0.1044 -0.2575 -0.0694
 1637SOL     OW 6600   3.619   0.393   2.643 -0.5039 -0.2958  0.2919
 1637SOL    HW2 6601   3.697   0.433   2.681 -0.5474  0.0372  0.0350
 1637SOL    HW3 6602   3.546   0.442   2.682 -0.5026  0.8949 -1.1941
 1637SOL    MW4 6603   3.619   0.405   2.653 -0.5095 -0.0948  0.0620
 1638SOL     OW 6604   3.839   0.524   2.743  0.5041  0.2150 -0.2989
 1638SOL    HW2 6605   3.846   0.499   2.835  1.0469  2.4729  0.3132
 1638SOL    HW3 6606   3.924   0.503   2.705  0.8552  0.8365  0.1358
 1638SOL    MW4 6607   3.851   0.518   2.750  0.6220  0.5949 -0.1609
 1639SOL     OW 6608   3.819   0.775   2.652 -0.2477 -0.0991  0.4793
 1639SOL    HW2 6609   3.740   0.820   2.683 -0.6584 -0.9551  0.6992
 1639SOL    HW3 6610   3.809   0.685   2.685  0.4417 -0.4078 -0.1550
 1639SOL    MW4 6611   3.807   0.769   2.660 -0.2110 -0.2528  0.4249
 1640SOL     OW 6612   3.585   0.933   2.739 -0.5281  0.4717 -0.5105
 1640SOL    HW2 6613   3.599   0.935   2.834  0.7730 -0.0812 -0.6691
 1640SOL    HW3 6614   3.593   1.024   2.712  1.4938  0.3544 -0.3844
 1640SOL    MW4 6615   3.588   0.945   2.748 -0.0899  0.3833 -0.5147
 1641SOL     OW 6616   3.572   1.182   2.619  0.5681 -0.0033  0.1780
 1641SOL    HW2 6617   3.645   1.232   2.656  0.0563  0.5321  0.4884
 1641SOL    HW3 6618   3.495   1.213   2.669  0.2233 -0.9820  0.2607
 1641SOL    MW4 6619   3.571   1.193   2.631  0.4554 -0.0618  0.2298
 1642SOL     OW 6620   3.813   1.254   2.721 -0.3154  0.3018 -0.0573
 1642SOL    HW2 6621   3.872   1.200   2.669 -2.1066 -1.1012 -0.6538
 1642SOL    HW3 6622   3.826   1.343   2.687  1.3290  0.0032 -0.2690
 1642SOL    MW4 6623   3.823   1.259   2.710 -0.3345  0.0774 -0.1640
 1643SOL     OW 6624   3.808   1.529   2.669  0.1521 -0.3910 -0.1299
 1643SOL    HW2 6625   3.878   1.589   2.697 -0.3522  0.3831 -0.5198
 1643SOL    HW3 6626   3.728   1.581   2.674 -0.0380 -0.3787 -2.4636
 1643SOL    MW4 6627   3.807   1.544   2.673  0.0606 -0.2873 -0.4895
 1644SOL     OW 6628   3.577   1.666   2.716  0.5749  0.0778 -0.0202
 1644SOL    HW2 6629   3.586   1.753   2.677 -0.0554 -0.6521 -1.8263
 1644SOL    HW3 6630   3.508   1.624   2.665  0.0088 -1.0413  1.6487
 1644SOL    MW4 6631   3.569   1.672   2.704  0.4170 -0.1662 -0.0386
 1645SOL     OW 6632   3.592   1.935   2.628 -0.0019  0.3137 -0.3090
 1645SOL    HW2 6633   3.516   1.961   2.680  0.5676  0.5292  0.4289
 1645SOL    HW3 6634   3.573   1.968   2.540 -0.8362  0.2113 -0.1765
 1645SOL    MW4 6635   3.579   1.943   2.623 -0.0370  0.3285 -0.1941
 1646SOL     OW 6636   3.827   2.060   2.713 -0.7408 -0.2599  0.3588
 1646SOL    HW2 6637   3.887   2.009   2.659 -0.9391  0.2982 -0.4044
 1646SOL    HW3 6638   3.742   2.018   2.700 -0.7971 -0.0962  0.1977
 1646SOL    MW4 6639   3.824   2.048   2.704 -0.7744 -0.1645  0.2367
 1647SOL     OW 6640   3.812   2.318   2.611  0.2393  0.4693  0.1296
 1647SOL    HW2 6641   3.825   2.233   2.654  0.0550  0.7969  0.8308
 1647SOL    HW3 6642   3.822   2.299   2.517  0.0146 -0.3607  0.2703
 1647SOL    MW4 6643   3.815   2.304   2.604  0.1855  0.4032  0.2406
 1648SOL     OW 6644   3.588   2.462   2.714 -0.3061  0.0568 -0.0086
 1648SOL    HW2 6645   3.604   2.466   2.808 -0.9877 -0.9134  0.1606
 1648SOL    HW3 6646   3.654   2.401   2.681 -1.0758 -0.8542  0.0959
 1648SOL    MW4 6647   3.599   2.454   2.722 -0.4973 -0.1915  0.0274
 1649SOL     OW 6648   3.597   2.722   2.624 -0.1268 -0.1899 -0.1997
 1649SOL    HW2 6649   3.598   2.632   2.655  0.6046 -0.0756  0.0945
 1649SOL    HW3 6650   3.598   2.714   2.528  0.7932 -0.4731 -0.1647
 1649SOL    MW4 6651   3.597   2.709   2.615  0.0911 -0.2122 -0.1564
 1650SOL     OW 6652   3.801   2.871   2.733  0.0927 -0.2170 -0.2826
 1650SOL    HW2 6653   3.878   2.823   2.703  0.2152  0.4506 -1.0488
 1650SOL    HW3 6654   3.727   2.827   2.691 -0.0176 -1.2495  0.9428
 1650SOL    MW4 6655   3.801   2.859   2.724  0.0942 -0.2654 -0.2222
 1651SOL     OW 6656   3.821   3.121   2.629 -0.2054 -0.0168  0.0393
 1651SOL    HW2 6657   3.753   3.174   2.671 -0.1202 -0.0188  0.1774
 1651SOL    HW3 6658   3.815   3.036   2.673 -2.8426 -1.3356 -2.6380
 1651SOL    MW4 6659   3.811   3.116   2.640 -0.5419 -0.1910 -0.2956
 1652SOL     OW 6660   3.590   3.260   2.720 -0.3576 -0.1919  0.1530
 1652SOL    HW2 6661   3.573   3.345   2.679  0.9245  0.5744  1.1789
 1652SOL    HW3 6662   3.510   3.210   2.704 -0.7411  0.8482 -1.3366
 1652SOL    MW4 6663   3.577   3.265   2.713 -0.2391  0.0463  0.0920
 1653SOL     OW 6664   3.552   3.558   2.617  0.0688  0.1136  0.0852
 1653SOL    HW2 6665   3.638   3.579   2.652 -0.1044  1.0469 -0.0288
 1653SOL    HW3 6666   3.491   3.600   2.679 -0.2958 -0.3664  0.0525
 1653SOL    MW4 6667   3.555   3.566   2.630 -0.0024  0.1736  0.0658
 1654SOL     OW 6668   3.799   3.605   2.731 -0.2193 -0.1227  0.1126
 1654SOL    HW2 6669   3.873   3.547   2.716  0.1317 -0.0330  1.4560
 1654SOL    HW3 6670   3.828   3.690   2.700 -0.2387 -0.3609 -0.5717
 1654SOL    MW4 6671   3.812   3.609   2.725 -0.1757 -0.1421  0.1996
 1655SOL     OW 6672   3.839   3.867   2.622 -0.1828 -0.1528  0.5810
 1655SOL    HW2 6673   3.912   3.918   2.657 -0.9012  1.5958 -0.3547
 1655SOL    HW3 6674   3.762   3.922   2.638 -0.7447 -0.0729 -2.0997
 1655SOL    MW4 6675   3.838   3.881   2.628 -0.3519  0.0885  0.1040
 1656SOL     OW 6676   3.611   4.017   2.696 -0.0960 -0.3383 -0.2250
 1656SOL    HW2 6677   3.602   4.112   2.695 -0.1864 -0.3376  0.7557
 1656SOL    HW3 6678   3.521   3.984   2.688  0.0289 -0.3478 -1.6646
 1656SOL    MW4 6679   3.598   4.025   2.695 -0.0916 -0.3395 -0.2856
 1657SOL     OW 6680   3.601   4.291   2.680 -0.0179  0.2809  0.0686
 1657SOL    HW2 6681   3.531   4.335   2.728 -0.7893  0.1806 -0.9457
 1657SOL    HW3 6682   3.583   4.311   2.588  0.8986 -0.3109 -0.2433
 1657SOL    MW4 6683   3.589   4.300   2.674  0.0012  0.1893 -0.1063
 1658SOL     OW 6684   3.824   4.439   2.777 -0.2982  0.4499 -0.2404
 1658SOL    HW2 6685   3.903   4.398   2.741 -0.6994  0.1425 -0.7845
 1658SOL    HW3 6686   3.752   4.391   2.735 -0.7779 -0.5349  1.6781
 1658SOL    MW4 6687   3.825   4.427   2.766 -0.4141  0.2794 -0.0591
 1659SOL     OW 6688   4.220   0.018   2.557  0.2893  0.0791 -0.0510
 1659SOL    HW2 6689   4.151   0.063   2.605  0.3608  0.4413 -0.2871
 1659SOL    HW3 6690   4.301   0.054   2.593  0.4286 -1.9108  1.7829
 1659SOL    MW4 6691   4.222   0.028   2.568  0.3176 -0.1356  0.1600
 1660SOL     OW 6692   4.050   0.156   2.734 -0.0157 -0.2443 -0.0954
 1660SOL    HW2 6693   4.062   0.125   2.825  2.8045 -0.6410 -0.5440
 1660SOL    HW3 6694   3.975   0.106   2.702 -0.0182 -1.3269  1.5065
 1660SOL    MW4 6695   4.042   0.145   2.742  0.3552 -0.4395  0.0570
 1661SOL     OW 6696   4.059   0.417   2.624 -0.0096 -0.5609  0.3350
 1661SOL    HW2 6697   4.062   0.329   2.661  0.3126 -0.3061  0.9222
 1661SOL    HW3 6698   4.092   0.407   2.534  1.7600 -0.7379  0.9905
 1661SOL    MW4 6699   4.063   0.404   2.617  0.2670 -0.5507  0.4988
 1662SOL     OW 6700   4.276   0.486   2.783  0.1032  0.1089  0.2568
 1662SOL    HW2 6701   4.196   0.459   2.739  0.5711  0.7106 -0.9707
 1662SOL    HW3 6702   4.347   0.452   2.729  0.6824  0.5114  0.7500
 1662SOL    MW4 6703   4.275   0.478   2.770  0.2408  0.2414  0.1600
 1663SOL     OW 6704   4.288   0.752   2.655 -0.1375 -0.2331 -0.0691
 1663SOL    HW2 6705   4.298   0.668   2.701 -1.3946 -0.4312 -0.1421
 1663SOL    HW3 6706   4.295   0.729   2.562  0.5892 -0.0970 -0.0500
 1663SOL    MW4 6707   4.290   0.738   2.649 -0.2074 -0.2413 -0.0761
 1664SOL     OW 6708   4.053   0.878   2.732 -0.4242  0.4000 -0.6833
 1664SOL    HW2 6709   4.133   0.838   2.700 -0.2829  2.3732 -2.9191
 1664SOL    HW3 6710   3.983   0.825   2.694 -0.2074  0.2634 -0.8920
 1664SOL    MW4 6711   4.054   0.865   2.723 -0.3772  0.6423 -1.0059
 1665SOL     OW 6712   4.024   1.126   2.586 -0.1174 -0.1581 -0.4935
 1665SOL    HW2 6713   4.091   1.183   2.625 -0.6087  0.9040 -1.1971
 1665SOL    HW3 6714   4.039   1.041   2.627  1.6063  0.0891 -0.5714
 1665SOL    MW4 6715   4.035   1.122   2.597  0.0453  0.0145 -0.5968
 1666SOL     OW 6716   4.229   1.265   2.703  0.5290  0.3689  0.1218
 1666SOL    HW2 6717   4.245   1.353   2.667  1.2963 -0.3346 -1.2737
 1666SOL    HW3 6718   4.311   1.218   2.689 -0.2030 -0.8783 -0.0164
 1666SOL    MW4 6719   4.242   1.271   2.696  0.5336  0.1116 -0.0808
 1667SOL     OW 6720   4.263   1.525   2.636  0.1428  0.1528  0.0453
 1667SOL    HW2 6721   4.345   1.556   2.673 -0.0555  1.5252 -0.6314
 1667SOL    HW3 6722   4.271   1.541   2.542 -0.6561 -0.2551 -0.0990
 1667SOL    MW4 6723   4.275   1.531   2.628  0.0114  0.2800 -0.0632
 1668SOL     OW 6724   4.045   1.671   2.726  0.2598  0.1013  0.1745
 1668SOL    HW2 6725   4.031   1.664   2.821  0.1385  0.4573  0.1856
 1668SOL    HW3 6726   4.117   1.611   2.708 -0.1974 -0.5055  0.3805
 1668SOL    MW4 6727   4.053   1.662   2.736  0.1841  0.0682  0.2034
 1669SOL     OW 6728   4.049   1.927   2.601 -0.3509 -0.5319  0.3735
 1669SOL    HW2 6729   4.123   1.967   2.646  0.4219 -0.0038 -1.3035
 1669SOL    HW3 6730   4.043   1.839   2.637  0.5986 -0.3043  1.0906
 1669SOL    MW4 6731   4.058   1.921   2.611 -0.1235 -0.4321  0.2470
 1670SOL     OW 6732   4.271   2.026   2.736  0.0489  0.9633  0.4605
 1670SOL    HW2 6733   4.276   2.118   2.710 -0.5297  0.3481 -2.0115
 1670SOL    HW3 6734   4.353   1.988   2.705  0.6588  0.8085  2.2330
 1670SOL    MW4 6735   4.283   2.033   2.728  0.0534  0.8616  0.3684
 1671SOL     OW 6736   4.273   2.312   2.625  0.3542  0.3196  0.3384
 1671SOL    HW2 6737   4.198   2.358   2.665 -0.0228  0.1709 -0.1949
 1671SOL    HW3 6738   4.260   2.323   2.531  0.2060 -0.9676  0.1965
 1671SOL    MW4 6739   4.261   2.320   2.618  0.2847  0.1302  0.2491
 1672SOL     OW 6740   4.041   2.458   2.712  0.1539  0.2551  0.1956
 1672SOL    HW2 6741   4.028   2.440   2.805 -0.3353 -0.2523  0.0335
 1672SOL    HW3 6742   3.965   2.419   2.670 -0.6843  2.2715 -0.2220
 1672SOL    MW4 6743   4.029   2.451   2.719 -0.0215  0.4542  0.1190
 1673SOL     OW 6744   4.029   2.728   2.627  0.2921 -0.2175  0.6218
 1673SOL    HW2 6745   4.118   2.755   2.648  0.5769 -0.0027 -0.7843
 1673SOL    HW3 6746   4.021   2.641   2.665  1.2282 -0.3837  0.4652
 1673SOL    MW4 6747   4.040   2.720   2.634  0.4535 -0.2112  0.4158
 1674SOL     OW 6748   4.284   2.799   2.706 -0.0040 -0.3084 -0.2067
 1674SOL    HW2 6749   4.291   2.773   2.798 -2.3440  0.3979  0.2008
 1674SOL    HW3 6750   4.302   2.893   2.707  0.3000 -0.3646 -0.5175
 1674SOL    MW4 6751   4.288   2.808   2.718 -0.2723 -0.2227 -0.1941
 1675SOL     OW 6752   4.294   3.083   2.634 -0.0232 -0.5029 -0.2122
 1675SOL    HW2 6753   4.206   3.098   2.669 -0.4392 -3.3015  0.0354
 1675SOL    HW3 6754   4.281   3.070   2.540  0.0490 -1.3761 -0.1067
 1675SOL    MW4 6755   4.281   3.083   2.626 -0.0691 -0.9875 -0.1655
 1676SOL     OW 6756   4.052   3.186   2.736 -0.4126  0.2919 -0.3442
 1676SOL    HW2 6757   4.050   3.281   2.726 -1.2242  0.3890  0.6768
 1676SOL    HW3 6758   3.971   3.156   2.696 -0.1045  0.0045 -0.7690
 1676SOL    MW4 6759   4.041   3.194   2.729 -0.4792  0.2666 -0.2656
 1677SOL     OW 6760   4.036   3.455   2.674 -0.2031 -0.3740 -0.0437
 1677SOL    HW2 6761   4.111   3.507   2.704 -0.3324  0.2941 -0.8531
 1677SOL    HW3 6762   4.036   3.467   2.579 -0.3134 -1.7718 -0.2246
 1677SOL    MW4 6763   4.046   3.464   2.665 -0.2351 -0.4702 -0.1745
 1678SOL     OW 6764   4.268   3.624   2.754 -0.1558  0.2330 -0.4506
 1678SOL    HW2 6765   4.300   3.610   2.843  1.9178  0.4912 -1.1101
 1678SOL    HW3 6766   4.334   3.581   2.698 -1.3630  0.1681 -1.8581
 1678SOL    MW4 6767   4.281   3.616   2.758 -0.0420  0.2584 -0.7234
 1679SOL     OW 6768   4.268   3.877   2.627  0.2065 -0.0228 -0.1096
 1679SOL    HW2 6769   4.265   3.787   2.658 -1.5727 -0.1237 -0.5378
 1679SOL    HW3 6770   4.334   3.919   2.682  1.9575 -1.8784 -0.7135
 1679SOL    MW4 6771   4.277   3.871   2.638  0.2031 -0.2811 -0.2458
 1680SOL     OW 6772   4.035   4.008   2.735  0.6433  0.3452 -0.7818
 1680SOL    HW2 6773   4.026   4.004   2.830 -0.3687  0.6485 -0.8600
 1680SOL    HW3 6774   4.117   3.961   2.716 -0.3864 -1.7972  0.0086
 1680SOL    MW4 6775   4.045   4.002   2.745  0.3734  0.1030 -0.6878
 1681SOL     OW 6776   4.048   4.272   2.680 -0.0070  0.9919  0.2526
 1681SOL    HW2 6777   4.036   4.182   2.711 -2.2093  1.2794  0.3353
 1681SOL    HW3 6778   4.046   4.265   2.585 -2.0604  1.1546  0.2647
 1681SOL    MW4 6779   4.046   4.259   2.672 -0.5679  1.0514  0.2649
 1682SOL     OW 6780   4.275   4.445   2.723  0.0279  0.4686 -0.0803
 1682SOL    HW2 6781   4.202   4.385   2.710  0.4618  0.3500 -2.0576
 1682SOL    HW3 6782   4.244   4.528   2.688  0.1463  0.9100  0.8528
 1682SOL    MW4 6783   4.261   4.448   2.717  0.1011  0.5112 -0.2182
 1683SOL     OW 6784   0.201   0.007   3.077  0.1223 -0.3116 -0.0552
 1683SOL    HW2 6785   0.193   0.011   3.172 -0.4192 -0.7967 -0.0775
 1683SOL    HW3 6786   0.124   0.056   3.045  0.1856 -0.3337 -0.2421
 1683SOL    MW4 6787   0.190   0.014   3.086  0.0592 -0.3785 -0.0830
 1684SOL     OW 6788   4.466   0.139   2.976 -0.2707  0.2375  0.3125
 1684SOL    HW2 6789   4.430   0.067   3.027  2.2109 -1.1863  0.1443
 1684SOL    HW3 6790   4.486   0.207   3.040 -0.0705 -0.3247  0.8512
 1684SOL    MW4 6791   4.464   0.138   2.991  0.0834 -0.0245  0.3612
 1685SOL     OW 6792   0.012   0.333   3.154  0.1183  0.3782  0.5426
 1685SOL    HW2 6793   0.016   0.345   3.249  1.0776  0.2661  0.5199
 1685SOL    HW3 6794  -0.061   0.388   3.126  1.6402  2.6868  0.9920
 1685SOL    MW4 6795   0.003   0.341   3.163  0.4456  0.6680  0.5991
 1686SOL     OW 6796   0.209   0.497   3.041  0.1049 -0.5494  0.2650
 1686SOL    HW2 6797   0.297   0.461   3.050  0.3835  0.3012  1.0609
 1686SOL    HW3 6798   0.151   0.428   3.074  0.4007 -1.4575 -1.0867
 1686SOL    MW4 6799   0.213   0.483   3.047  0.1806 -0.5570  0.1917
 1687SOL     OW 6800   0.222   0.757   3.142 -0.0615  0.2812 -0.1648
 1687SOL    HW2 6801   0.218   0.757   3.237  0.9634  0.4173 -0.1102
 1687SOL    HW3 6802   0.204   0.666   3.118 -0.8918  0.3680  0.1259
 1687SOL    MW4 6803   0.219   0.745   3.151 -0.0359  0.3107 -0.1192
 1688SOL     OW 6804   4.486   0.895   3.032  0.4645  0.1177 -0.3378
 1688SOL    HW2 6805   4.562   0.861   3.079  0.2459 -1.0902 -0.8414
 1688SOL    HW3 6806   4.506   0.882   2.940  0.1299  0.8570 -0.5261
 1688SOL    MW4 6807   4.499   0.889   3.026  0.3915  0.0558 -0.4292
 1689SOL     OW 6808   4.486   1.172   3.096  0.0506  0.5136  0.1510
 1689SOL    HW2 6809   4.403   1.205   3.060 -1.0489 -0.5843  1.6157
 1689SOL    HW3 6810   4.484   1.079   3.076  0.6252  0.3655  0.8045
 1689SOL    MW4 6811   4.475   1.164   3.088 -0.0191  0.3492  0.4306
 1690SOL     OW 6812   0.243   1.280   3.003  0.3119  0.0534  0.2456
 1690SOL    HW2 6813   0.157   1.254   3.036 -0.9443  1.5952 -1.6622
 1690SOL    HW3 6814   0.231   1.286   2.908  2.8596 -0.8567 -0.1661
 1690SOL    MW4 6815   0.230   1.277   2.995  0.4823  0.1369 -0.0606
 1691SOL     OW 6816   0.236   1.559   3.064 -0.0850  0.2753 -0.3275
 1691SOL    HW2 6817   0.144   1.584   3.057 -0.1475 -0.1043 -0.8896
 1691SOL    HW3 6818   0.240   1.471   3.026  0.3479 -0.0846  0.5392
 1691SOL    MW4 6819   0.224   1.551   3.058 -0.0362  0.1777 -0.2873
 1692SOL     OW 6820   4.470   1.607   2.978  0.1483 -0.0246 -0.3387
 1692SOL    HW2 6821   4.404   1.561   3.031  0.5284  0.5479  0.6454
 1692SOL    HW3 6822   4.481   1.691   3.022  1.0350  0.1506 -0.9018
 1692SOL    MW4 6823   4.462   1.612   2.991  0.3152  0.0740 -0.2832
 1693SOL     OW 6824   0.025   1.854   3.091  0.0171 -0.3842 -0.3004
 1693SOL    HW2 6825  -0.043   1.920   3.078  0.2718  0.0395  0.4703
 1693SOL    HW3 6826   0.107   1.898   3.069  0.0096 -1.0185 -1.6271
 1693SOL    MW4 6827   0.027   1.869   3.087  0.0501 -0.4120 -0.3738
 1694SOL     OW 6828   0.233   2.032   3.007 -0.0835 -0.1243  0.1318
 1694SOL    HW2 6829   0.232   2.124   3.035  0.1146 -0.2349  0.5044
 1694SOL    HW3 6830   0.229   2.036   2.911  1.3259  0.3013  0.0847
 1694SOL    MW4 6831   0.232   2.045   2.998  0.1286 -0.0830  0.1748
 1695SOL     OW 6832   0.242   2.293   3.070  0.6369  0.0072  0.3449
 1695SOL    HW2 6833   0.249   2.307   3.164  0.0930  1.5167  0.1788
 1695SOL    HW3 6834   0.316   2.341   3.033 -0.2924  1.0984 -0.1292
 1695SOL    MW4 6835   0.252   2.301   3.078  0.4425  0.3505  0.2604
 1696SOL     OW 6836   4.484   2.412   3.010  0.4185  0.6050  0.2493
 1696SOL    HW2 6837   4.479   2.501   3.045  2.4372  0.5980  0.5632
 1696SOL    HW3 6838   4.570   2.380   3.036 -0.4210 -1.5835  0.4433
 1696SOL    MW4 6839   4.494   2.420   3.018  0.5741  0.3152  0.3161
 1697SOL     OW 6840   4.464   2.670   3.103  0.1107 -0.1840  0.1061
 1697SOL    HW2 6841   4.481   2.677   3.197 -1.9517 -1.3845  0.6138
 1697SOL    HW3 6842   4.528   2.728   3.062  0.5730  0.9049  2.2996
 1697SOL    MW4 6843   4.475   2.678   3.110 -0.1006 -0.1988  0.4625
 1698SOL     OW 6844   0.199   2.822   3.003  0.0012  0.5396 -0.1505
 1698SOL    HW2 6845   0.267   2.763   3.035 -0.5237  0.1877  0.3308
 1698SOL    HW3 6846   0.203   2.814   2.908  0.4354  0.2995 -0.1111
 1698SOL    MW4 6847   0.209   2.813   2.995 -0.0108  0.4613 -0.0818
 1699SOL     OW 6848   0.257   3.079   3.105 -0.5036  0.3427 -0.2576
 1699SOL    HW2 6849   0.183   3.124   3.063 -0.9224  0.2180  0.3352
 1699SOL    HW3 6850   0.245   2.987   3.083 -1.3510  0.1285  1.0522
 1699SOL    MW4 6851   0.245   3.073   3.097 -0.6707  0.2980 -0.0067
 1700SOL     OW 6852   0.028   3.208   2.990  0.2746 -0.1734  0.1105
 1700SOL    HW2 6853  -0.044   3.149   3.008 -0.5423  0.3198 -1.4721
 1700SOL    HW3 6854   0.026   3.221   2.895  1.7451  0.7199  0.1815
 1700SOL    MW4 6855   0.018   3.202   2.980  0.3608  0.0095 -0.0887
 1701SOL     OW 6856   0.024   3.493   3.140  0.1049  0.3791 -0.5259
 1701SOL    HW2 6857  -0.059   3.533   3.114  0.6620  0.7789 -1.7488
 1701SOL    HW3 6858   0.026   3.410   3.092  0.1585  0.1124 -0.0623
 1701SOL    MW4 6859   0.013   3.487   3.130  0.1855  0.3970 -0.6258
 1702SOL     OW 6860   0.258   3.651   3.045  0.2493 -0.0655  0.4326
 1702SOL    HW2 6861   0.240   3.731   3.095  0.2523 -0.0371  0.3894
 1702SOL    HW3 6862   0.195   3.588   3.078  1.3561 -0.5573  1.6644
 1702SOL    MW4 6863   0.247   3.653   3.056  0.3957 -0.1266  0.5896
 1703SOL     OW 6864   0.213   3.913   3.166 -0.7258 -0.2651 -0.2957
 1703SOL    HW2 6865   0.205   3.921   3.261  0.2652 -2.1787 -0.0177
 1703SOL    HW3 6866   0.290   3.964   3.143 -0.4795 -0.4908  0.0405
 1703SOL    MW4 6867   0.222   3.921   3.175 -0.5625 -0.5476 -0.2146
 1704SOL     OW 6868   4.474   4.022   3.032  0.2627 -0.5758  0.0060
 1704SOL    HW2 6869   4.544   3.980   3.082 -0.2563  0.2635  1.4831
 1704SOL    HW3 6870   4.504   4.019   2.941  1.9980 -0.6472  0.5582
 1704SOL    MW4 6871   4.487   4.016   3.027  0.4234 -0.4735  0.2735
 1705SOL     OW 6872   0.036   4.285   3.118  0.4614 -0.2361 -0.9444
 1705SOL    HW2 6873   0.003   4.310   3.204  1.0667  1.0391 -1.0738
 1705SOL    HW3 6874   0.012   4.193   3.108 -1.8765  0.3153 -0.4957
 1705SOL    MW4 6875   0.029   4.276   3.128  0.2328  0.0043 -0.9022
 1706SOL     OW 6876   0.250   4.417   3.032 -0.1154 -0.3852 -0.3949
 1706SOL    HW2 6877   0.173   4.371   3.065  0.5272 -0.6219  0.8028
 1706SOL    HW3 6878   0.229   4.510   3.042  0.5798 -0.4434  1.9597
 1706SOL    MW4 6879   0.238   4.423   3.038  0.0611 -0.4234  0.0737
 1707SOL     OW 6880   0.646   4.646   3.131 -0.1908  0.3108 -0.2585
 1707SOL    HW2 6881   0.659   4.555   3.103  0.5010  0.3659 -0.1012
 1707SOL    HW3 6882   0.580   4.680   3.070  0.3736  0.0433 -1.0267
 1707SOL    MW4 6883   0.639   4.638   3.119 -0.0250  0.2828 -0.3390
 1708SOL     OW 6884   0.440   0.106   2.997  0.0909  0.6121 -0.0536
 1708SOL    HW2 6885   0.435   0.187   3.047 -0.4181  1.1599 -0.9755
 1708SOL    HW3 6886   0.365   0.055   3.028  0.4908  0.4294  0.6276
 1708SOL    MW4 6887   0.429   0.110   3.008  0.0765  0.6603 -0.0851
 1709SOL     OW 6888   0.450   0.358   3.110 -0.2497 -0.4093  0.4504
 1709SOL    HW2 6889   0.441   0.362   3.205  0.0062  0.6040  0.4422
 1709SOL    HW3 6890   0.533   0.402   3.092 -0.9534  0.6436 -0.3380
 1709SOL    MW4 6891   0.460   0.364   3.120 -0.3088 -0.1367  0.3457
 1710SOL     OW 6892   0.675   0.514   3.013 -0.0355 -0.0707  0.2090
 1710SOL    HW2 6893   0.751   0.469   3.050 -0.0879  0.2948  0.7648
 1710SOL    HW3 6894   0.685   0.605   3.040 -0.4528  0.0589 -0.0695
 1710SOL    MW4 6895   0.686   0.520   3.021 -0.0975 -0.0054  0.2458
 1711SOL     OW 6896   0.693   0.780   3.111  0.0358 -0.0473  0.1106
 1711SOL    HW2 6897   0.691   0.764   3.205  0.1499  1.3113  0.3446
 1711SOL    HW3 6898   0.611   0.826   3.093  0.8623  1.3149 -0.1637
 1711SOL    MW4 6899   0.682   0.784   3.121  0.1599  0.3117  0.1054
 1712SOL     OW 6900   0.444   0.897   3.049  0.0583 -0.3512 -0.1250
 1712SOL    HW2 6901   0.364   0.857   3.084 -0.4210  0.2958 -0.4725
 1712SOL    HW3 6902   0.438   0.883   2.954  0.5815 -0.7020 -0.1086
 1712SOL    MW4 6903   0.433   0.890   3.041  0.0641 -0.3121 -0.1688
 1713SOL     OW 6904   0.431   1.163   3.165  0.4886  0.8199 -0.3114
 1713SOL    HW2 6905   0.432   1.077   3.123 -1.1853  0.4053  0.4728
 1713SOL    HW3 6906   0.369   1.214   3.115  1.0938  1.4184 -0.4552
 1713SOL    MW4 6907   0.423   1.158   3.153  0.3476  0.8441 -0.2265
 1714SOL     OW 6908   0.650   1.279   3.019 -0.2023  0.3966 -0.0149
 1714SOL    HW2 6909   0.723   1.227   3.054 -0.4712  0.5096  0.7295
 1714SOL    HW3 6910   0.574   1.252   3.070 -0.4077  1.2880  0.1673
 1714SOL    MW4 6911   0.650   1.269   3.031 -0.2648  0.5292  0.1073
 1715SOL     OW 6912   0.675   1.540   3.104  0.2095 -0.3952 -0.1606
 1715SOL    HW2 6913   0.695   1.538   3.198  2.1810 -1.0060 -0.5770
 1715SOL    HW3 6914   0.648   1.450   3.084 -2.2405  0.2107  0.2107
 1715SOL    MW4 6915   0.674   1.528   3.114  0.1463 -0.3958 -0.1664
 1716SOL     OW 6916   0.472   1.703   2.986 -0.4206  0.0378  0.3440
 1716SOL    HW2 6917   0.544   1.649   3.018 -0.9663 -0.2326  1.1241
 1716SOL    HW3 6918   0.393   1.660   3.019 -0.9750  0.0214 -0.9682
 1716SOL    MW4 6919   0.471   1.690   2.994 -0.5658  0.0000  0.2739
 1717SOL     OW 6920   0.461   1.950   3.129 -0.1955  0.2553  0.4020
 1717SOL    HW2 6921   0.473   1.868   3.081 -0.9764 -0.5952  1.6031
 1717SOL    HW3 6922   0.388   1.994   3.086 -0.6348 -0.3128  0.5653
 1717SOL    MW4 6923   0.453   1.945   3.117 -0.3565  0.0682  0.5820
 1718SOL     OW 6924   0.687   2.056   2.975  0.2411 -0.2637  0.3870
 1718SOL    HW2 6925   0.768   2.022   3.012  1.1170 -0.5558 -1.7473
 1718SOL    HW3 6926   0.618   2.017   3.029  1.4034 -1.9912  0.6628
 1718SOL    MW4 6927   0.688   2.047   2.987  0.5100 -0.5300  0.1416
 1719SOL     OW 6928   0.640   2.316   3.082 -0.1446  0.2611 -0.1911
 1719SOL    HW2 6929   0.671   2.306   3.173 -1.7712 -0.4661  0.2954
 1719SOL    HW3 6930   0.648   2.229   3.045  0.4837  0.5538 -0.7566
 1719SOL    MW4 6931   0.645   2.303   3.089 -0.2763  0.2036 -0.2015
 1720SOL     OW 6932   0.460   2.500   2.977  0.1042  0.0013 -0.2893
 1720SOL    HW2 6933   0.524   2.435   3.005 -0.1695 -0.2337 -0.2013
 1720SOL    HW3 6934   0.457   2.491   2.882  1.2924  1.0457 -0.4310
 1720SOL    MW4 6935   0.468   2.490   2.968  0.2248  0.1082 -0.2964
 1721SOL     OW 6936   0.422   2.720   3.149  0.3497  0.0162 -0.4436
 1721SOL    HW2 6937   0.503   2.762   3.119  0.4079 -1.0955 -1.9012
 1721SOL    HW3 6938   0.420   2.636   3.103 -0.6383 -0.8266  1.1171
 1721SOL    MW4 6939   0.432   2.714   3.139  0.2270 -0.2415 -0.4299
 1722SOL     OW 6940   0.656   2.849   3.060  0.3811  0.2420  0.2681
 1722SOL    HW2 6941   0.728   2.798   3.098  0.6174  0.0229 -0.4489
 1722SOL    HW3 6942   0.681   2.940   3.073 -0.4163  0.1996  2.2585
 1722SOL    MW4 6943   0.669   2.854   3.067  0.3071  0.2074  0.4363
 1723SOL     OW 6944   0.727   3.130   3.147  0.1540 -0.0517  0.1641
 1723SOL    HW2 6945   0.694   3.139   3.236 -0.1864 -0.9758  0.1388
 1723SOL    HW3 6946   0.655   3.158   3.091 -0.2289 -1.0445  0.1411
 1723SOL    MW4 6947   0.714   3.135   3.151  0.0586 -0.3047  0.1576
 1724SOL     OW 6948   0.487   3.209   3.033 -0.3278  0.1521 -0.0386
 1724SOL    HW2 6949   0.475   3.297   3.070 -0.2580  0.2082 -0.1512
 1724SOL    HW3 6950   0.406   3.163   3.055 -0.8007  0.5668 -0.9063
 1724SOL    MW4 6951   0.475   3.215   3.041 -0.3810  0.2143 -0.1678
 1725SOL     OW 6952   0.453   3.457   3.124  0.0461 -0.1039 -0.5405
 1725SOL    HW2 6953   0.453   3.466   3.219 -1.1071  0.0121 -0.5363
 1725SOL    HW3 6954   0.396   3.528   3.094 -1.2456 -1.3782 -1.1679
 1725SOL    MW4 6955   0.445   3.467   3.132 -0.2765 -0.2565 -0.6225
 1726SOL     OW 6956   0.674   3.630   3.051 -0.4071 -0.1145  0.1183
 1726SOL    HW2 6957   0.750   3.579   3.079 -0.2769  0.1326  0.2147
 1726SOL    HW3 6958   0.599   3.583   3.087 -0.1975  0.6114  1.5025
 1726SOL    MW4 6959   0.674   3.617   3.059 -0.3622  0.0141  0.3135
 1727SOL     OW 6960   0.650   3.890   3.135 -0.1976 -0.2743 -0.1987
 1727SOL    HW2 6961   0.684   3.900   3.224 -1.3222  0.3925  0.1655
 1727SOL    HW3 6962   0.646   3.796   3.121  0.4108 -0.3741  0.2975
 1727SOL    MW4 6963   0.654   3.879   3.145 -0.2657 -0.1993 -0.0851
 1728SOL     OW 6964   0.442   4.038   3.041  0.4987 -0.1345 -0.3120
 1728SOL    HW2 6965   0.524   4.004   3.078 -0.2218 -1.7176 -0.1274
 1728SOL    HW3 6966   0.432   3.992   2.958 -0.1660  0.1310 -0.3779
 1728SOL    MW4 6967   0.452   4.027   3.035  0.3159 -0.3085 -0.2959
 1729SOL     OW 6968   0.467   4.283   3.149 -0.0662  0.8270 -0.1514
 1729SOL    HW2 6969   0.456   4.196   3.112  1.0075  0.3615  0.6239
 1729SOL    HW3 6970   0.400   4.336   3.105 -0.9770 -0.4657 -0.3356
 1729SOL    MW4 6971   0.457   4.279   3.138 -0.0447  0.5956 -0.0737
 1730SOL     OW 6972   0.686   4.399   3.031  0.2137  0.3567  0.0071
 1730SOL    HW2 6973   0.612   4.349   3.065  0.7946 -0.2136  0.4297
 1730SOL    HW3 6974   0.668   4.406   2.937 -1.7346  2.5134  0.4871
 1730SOL    MW4 6975   0.673   4.394   3.023  0.0333  0.5655  0.1261
 1731SOL     OW 6976   1.090   4.663   3.155  0.1221  0.2285  0.1712
 1731SOL    HW2 6977   1.176   4.690   3.124  0.5899 -0.2663  1.0041
 1731SOL    HW3 6978   1.028   4.716   3.105  0.9503  1.4198  0.3850
 1731SOL    MW4 6979   1.093   4.674   3.144  0.2929  0.3200  0.3095
 1732SOL     OW 6980   0.869   0.138   3.028  0.1542  0.0609 -0.8057
 1732SOL    HW2 6981   0.862   0.221   3.075 -0.3266 -0.0764 -0.6248
 1732SOL    HW3 6982   0.793   0.088   3.058 -0.1123 -0.0603 -1.6737
 1732SOL    MW4 6983   0.858   0.142   3.039  0.0556  0.0268 -0.8967
 1733SOL     OW 6984   0.886   0.378   3.169  0.2859 -0.0150 -0.1705
 1733SOL    HW2 6985   0.903   0.373   3.263 -0.7895  1.1464  0.0964
 1733SOL    HW3 6986   0.961   0.425   3.133  1.0787 -1.1433 -0.0061
 1733SOL    MW4 6987   0.898   0.383   3.177  0.2486 -0.0106 -0.1137
 1734SOL     OW 6988   1.121   0.498   3.042  0.3583 -0.0121  0.3770
 1734SOL    HW2 6989   1.195   0.458   3.088  0.9165  0.4783 -0.0947
 1734SOL    HW3 6990   1.137   0.478   2.950  0.0299  0.3074  0.2515
 1734SOL    MW4 6991   1.133   0.490   3.036  0.3885  0.0948  0.2983
 1735SOL     OW 6992   1.160   0.752   3.135 -0.0436 -0.2172 -0.3673
 1735SOL    HW2 6993   1.124   0.744   3.223 -0.1565  0.6924 -0.3271
 1735SOL    HW3 6994   1.156   0.663   3.099  0.5799 -0.7163  0.7586
 1735SOL    MW4 6995   1.155   0.739   3.142  0.0237 -0.1631 -0.2136
 1736SOL     OW 6996   0.936   0.886   3.022  0.1297 -0.1325 -0.3608
 1736SOL    HW2 6997   1.006   0.828   3.053 -0.1572 -0.9524 -1.2336
 1736SOL    HW3 6998   0.855   0.844   3.051 -0.1260 -0.7090 -1.8789
 1736SOL    MW4 6999   0.934   0.873   3.030  0.0581 -0.3167 -0.6762
 1737SOL     OW 7000   0.896   1.153   3.104  0.4668 -0.1718  0.8516
 1737SOL    HW2 7001   0.982   1.179   3.072 -0.0976 -0.1798 -0.7464
 1737SOL    HW3 7002   0.893   1.058   3.087 -0.4346  0.0979 -0.5067
 1737SOL    MW4 7003   0.907   1.144   3.097  0.2734 -0.1372  0.4616
 1738SOL     OW 7004   1.133   1.271   3.005  0.0669  0.2698 -0.1584
 1738SOL    HW2 7005   1.212   1.225   3.034 -0.2080 -0.2304 -0.2120
 1738SOL    HW3 7006   1.127   1.253   2.911 -2.6496 -3.5228  0.6555
 1738SOL    MW4 7007   1.143   1.263   2.996 -0.3278 -0.2965 -0.0579
 1739SOL     OW 7008   1.110   1.543   3.092  0.4872  0.0952 -0.1600
 1739SOL    HW2 7009   1.198   1.573   3.067 -0.2745  0.9506 -1.8963
 1739SOL    HW3 7010   1.109   1.450   3.067 -0.4295  1.0386 -4.0371
 1739SOL    MW4 7011   1.122   1.534   3.085  0.2660  0.3325 -0.9005
 1740SOL     OW 7012   0.893   1.693   3.009  0.3045 -0.1674 -0.5324
 1740SOL    HW2 7013   0.960   1.635   3.045 -0.3008 -0.5112  0.0542
 1740SOL    HW3 7014   0.810   1.657   3.041 -0.0874  0.9932 -0.1891
 1740SOL    MW4 7015   0.891   1.681   3.018  0.1730 -0.0596 -0.4098
 1741SOL     OW 7016   0.909   1.946   3.090 -0.0631 -0.1086  0.2149
 1741SOL    HW2 7017   0.910   1.938   3.185  0.4781 -1.0882  0.1340
 1741SOL    HW3 7018   0.906   1.856   3.058 -1.3510  0.2416 -0.6919
 1741SOL    MW4 7019   0.909   1.933   3.098 -0.1616 -0.1916  0.0844
 1742SOL     OW 7020   1.107   2.097   3.012  0.4331 -0.0271  0.0112
 1742SOL    HW2 7021   1.041   2.036   3.047  1.1217 -1.3293 -0.9150
 1742SOL    HW3 7022   1.110   2.078   2.919  0.1395  1.9674 -0.4200
 1742SOL    MW4 7023   1.099   2.086   3.005  0.4853  0.0644 -0.1678
 1743SOL     OW 7024   1.112   2.346   3.117  0.1148  0.0403 -0.1867
 1743SOL    HW2 7025   1.029   2.384   3.088 -0.9131 -0.7383  1.6254
 1743SOL    HW3 7026   1.112   2.258   3.079 -0.5160 -0.4235  0.8479
 1743SOL    MW4 7027   1.101   2.339   3.108 -0.1041 -0.1235  0.1891
 1744SOL     OW 7028   0.868   2.456   3.020  0.0015 -0.3192 -0.4813
 1744SOL    HW2 7029   0.790   2.404   3.036 -0.3800  0.6008  0.7121
 1744SOL    HW3 7030   0.876   2.459   2.925 -1.9243  0.3430 -0.6423
 1744SOL    MW4 7031   0.859   2.450   3.010 -0.3030 -0.1104 -0.3452
 1745SOL     OW 7032   0.882   2.701   3.152  0.5846  0.0196 -0.1165
 1745SOL    HW2 7033   0.907   2.690   3.243 -0.1922  1.0514  0.2396
 1745SOL    HW3 7034   0.869   2.612   3.119  3.1191 -0.4763  0.1119
 1745SOL    MW4 7035   0.883   2.688   3.160  0.8165  0.0904 -0.0393
 1746SOL     OW 7036   1.099   2.802   3.023  0.0480 -0.2982 -0.0768
 1746SOL    HW2 7037   1.111   2.893   3.052  1.5695 -0.7052  0.6414
 1746SOL    HW3 7038   1.025   2.770   3.074  0.2059  0.2004  0.4675
 1746SOL    MW4 7039   1.091   2.810   3.033  0.2697 -0.2861  0.0896
 1747SOL     OW 7040   1.128   3.058   3.133  0.3160  0.0989  0.2995
 1747SOL    HW2 7041   1.210   3.103   3.111  0.2389 -0.4038 -1.0935
 1747SOL    HW3 7042   1.059   3.113   3.096  0.1219 -0.2718  0.1037
 1747SOL    MW4 7043   1.130   3.071   3.125  0.2803 -0.0165  0.0901
 1748SOL     OW 7044   0.949   3.249   3.036  0.1961  0.1569 -0.7373
 1748SOL    HW2 7045   0.873   3.208   3.078  0.4979 -1.2948 -1.5743
 1748SOL    HW3 7046   0.936   3.233   2.942  0.4017  1.8771 -1.0871
 1748SOL    MW4 7047   0.937   3.242   3.029  0.2631  0.1924 -0.8938
 1749SOL     OW 7048   0.899   3.507   3.148  0.2838 -0.5442  0.3577
 1749SOL    HW2 7049   0.965   3.561   3.105 -1.5873  1.0689 -0.5967
 1749SOL    HW3 7050   0.912   3.420   3.112  2.6596 -0.5124  1.1034
 1749SOL    MW4 7051   0.909   3.503   3.137  0.3504 -0.3271  0.3300
 1750SOL     OW 7052   1.120   3.636   3.024  0.1444  0.0343  0.3258
 1750SOL    HW2 7053   1.177   3.572   3.065  1.0957  1.6300  1.5306
 1750SOL    HW3 7054   1.133   3.717   3.074 -2.0962  0.8121 -0.2605
 1750SOL    MW4 7055   1.129   3.639   3.036 -0.0256  0.3474  0.4077
 1751SOL     OW 7056   1.125   3.908   3.148  0.3391 -0.4194 -0.8409
 1751SOL    HW2 7057   1.113   3.899   3.243 -0.0372 -0.5186 -0.8985
 1751SOL    HW3 7058   1.046   3.953   3.118  0.3221 -0.6618 -1.1544
 1751SOL    MW4 7059   1.113   3.913   3.157  0.2873 -0.4644 -0.8898
 1752SOL     OW 7060   0.893   4.020   3.029  0.3802  0.2653 -0.0627
 1752SOL    HW2 7061   0.816   3.972   3.061 -0.2231  1.0719 -0.3017
 1752SOL    HW3 7062   0.897   3.998   2.936  0.4458  0.2113 -0.0466
 1752SOL    MW4 7063   0.883   4.011   3.021  0.3093  0.3653 -0.0920
 1753SOL     OW 7064   0.901   4.274   3.171  0.5546 -0.0840 -0.6406
 1753SOL    HW2 7065   0.906   4.197   3.114 -2.6372  0.6250 -1.9685
 1753SOL    HW3 7066   0.852   4.339   3.120 -2.5928  0.5012  2.8951
 1753SOL    MW4 7067   0.895   4.272   3.157 -0.2818  0.0868 -0.3495
 1754SOL     OW 7068   1.092   4.411   3.049 -0.4430 -0.1936  0.8318
 1754SOL    HW2 7069   1.045   4.350   3.105 -0.7895  0.7705  1.6041
 1754SOL    HW3 7070   1.090   4.494   3.096  0.2847  0.3489 -0.0622
 1754SOL    MW4 7071   1.086   4.414   3.062 -0.3928  0.0057  0.8156
 1755SOL     OW 7072   1.566   4.652   3.142 -0.0653 -0.5079 -0.2919
 1755SOL    HW2 7073   1.570   4.655   3.238  1.8830 -0.7804 -0.3474
 1755SOL    HW3 7074   1.479   4.686   3.121  0.7824  2.8854  1.4213
 1755SOL    MW4 7075   1.555   4.657   3.152  0.3036 -0.0962 -0.0732
 1756SOL     OW 7076   1.326   0.083   3.074  0.3610 -0.4335  0.0750
 1756SOL    HW2 7077   1.334   0.172   3.109 -0.1341 -0.4392  0.1931
 1756SOL    HW3 7078   1.346   0.092   2.981 -1.0577  0.0264 -0.1908
 1756SOL    MW4 7079   1.330   0.096   3.067  0.1085 -0.3735  0.0553
 1757SOL     OW 7080   1.318   0.343   3.156 -0.2935  0.2828 -0.1230
 1757SOL    HW2 7081   1.344   0.360   3.247 -1.5087 -2.4962  0.7905
 1757SOL    HW3 7082   1.390   0.376   3.104  1.0981  0.5795  1.9200
 1757SOL    MW4 7083   1.331   0.350   3.161 -0.2702 -0.0446  0.2670
 1758SOL     OW 7084   1.516   0.469   2.988 -0.1235 -0.1616  0.1601
 1758SOL    HW2 7085   1.523   0.561   3.013  0.1820 -0.1742  0.1195
 1758SOL    HW3 7086   1.502   0.471   2.893 -2.4179 -0.0661  0.4610
 1758SOL    MW4 7087   1.515   0.482   2.978 -0.3859 -0.1506  0.1945
 1759SOL     OW 7088   1.553   0.730   3.081  0.4202  0.4978  0.4116
 1759SOL    HW2 7089   1.531   0.740   3.173 -0.8892  1.6390  0.0061
 1759SOL    HW3 7090   1.476   0.764   3.034  0.7601 -0.7499 -1.0978
 1759SOL    MW4 7091   1.540   0.736   3.087  0.2924  0.4838  0.1590
 1760SOL     OW 7092   1.355   0.900   2.998  0.5157 -0.0383 -0.2479
 1760SOL    HW2 7093   1.367   0.987   3.036  1.2150 -0.1203 -0.2734
 1760SOL    HW3 7094   1.280   0.863   3.045 -0.0918  0.7614 -0.5754
 1760SOL    MW4 7095   1.346   0.907   3.009  0.5277  0.0564 -0.2944
 1761SOL     OW 7096   1.385   1.147   3.111 -0.1001  0.3182  0.4809
 1761SOL    HW2 7097   1.369   1.157   3.205  0.9134 -1.1864  0.8530
 1761SOL    HW3 7098   1.463   1.199   3.095 -1.0460  1.6584  0.1909
 1761SOL    MW4 7099   1.393   1.155   3.122 -0.0912  0.2966  0.4916
 1762SOL     OW 7100   1.600   1.280   3.002  0.3224  0.3255  0.1830
 1762SOL    HW2 7101   1.675   1.236   3.042  1.0873  0.5272 -0.9995
 1762SOL    HW3 7102   1.599   1.367   3.041  0.1351  0.0097  0.8920
 1762SOL    MW4 7103   1.610   1.286   3.013  0.3985  0.3104  0.1206
 1763SOL     OW 7104   1.583   1.533   3.102 -0.2144  0.0390  0.2126
 1763SOL    HW2 7105   1.664   1.582   3.091  0.0666 -0.5690 -0.4517
 1763SOL    HW3 7106   1.515   1.588   3.063 -0.0242  0.2522  0.1880
 1763SOL    MW4 7107   1.584   1.546   3.095 -0.1523 -0.0131  0.1216
 1764SOL     OW 7108   1.351   1.670   3.024  0.7328  0.0965  0.4233
 1764SOL    HW2 7109   1.327   1.762   3.036  0.8096  0.4580 -1.8828
 1764SOL    HW3 7110   1.355   1.659   2.929  2.3791 -1.8743  0.6959
 1764SOL    MW4 7111   1.348   1.681   3.013  0.9601 -0.1159  0.1550
 1765SOL     OW 7112   1.332   1.940   3.075  0.1510 -0.2009  0.0148
 1765SOL    HW2 7113   1.327   1.934   3.170 -0.8927  0.3652 -0.0045
 1765SOL    HW3 7114   1.249   1.978   3.048  0.2107 -0.8866 -1.1781
 1765SOL    MW4 7115   1.321   1.945   3.084  0.0212 -0.2166 -0.1452
 1766SOL     OW 7116   1.557   2.064   2.974  0.1130  0.5794  0.2223
 1766SOL    HW2 7117   1.476   2.020   3.000  0.5661 -0.5235 -0.2082
 1766SOL    HW3 7118   1.561   2.054   2.879  0.4386  1.1836  0.1693
 1766SOL    MW4 7119   1.547   2.057   2.965  0.2156  0.5133  0.1585
 1767SOL     OW 7120   1.566   2.304   3.086 -0.1816  0.9281 -0.5323
 1767SOL    HW2 7121   1.490   2.358   3.061 -1.4118 -0.9874 -1.0563
 1767SOL    HW3 7122   1.554   2.223   3.037  0.8912 -0.3647  1.3186
 1767SOL    MW4 7123   1.554   2.301   3.076 -0.2024  0.5047 -0.3572
 1768SOL     OW 7124   1.337   2.437   3.010  0.0723  0.0703 -0.1459
 1768SOL    HW2 7125   1.256   2.404   3.047  0.4200 -0.3225  0.2693
 1768SOL    HW3 7126   1.319   2.449   2.917 -0.2300 -0.7117 -0.1843
 1768SOL    MW4 7127   1.324   2.435   3.003  0.0783 -0.0846 -0.0961
 1769SOL     OW 7128   1.351   2.693   3.120  0.2686  0.1654 -0.1108
 1769SOL    HW2 7129   1.351   2.604   3.087 -1.6712 -0.2995  1.0438
 1769SOL    HW3 7130   1.268   2.730   3.089 -0.0450  0.7772  1.3912
 1769SOL    MW4 7131   1.340   2.686   3.112 -0.0287  0.1850  0.2398
 1770SOL     OW 7132   1.581   2.833   3.025 -0.4144  0.0621 -0.1565
 1770SOL    HW2 7133   1.656   2.778   3.048 -0.1583  0.3442 -0.3126
 1770SOL    HW3 7134   1.507   2.795   3.073 -0.1605 -0.1850  0.0372
 1770SOL    MW4 7135   1.581   2.821   3.034 -0.3471  0.0668 -0.1516
 1771SOL     OW 7136   1.571   3.102   3.115  0.1298 -0.2488  0.1170
 1771SOL    HW2 7137   1.580   3.098   3.211 -2.9354 -0.5244  0.4351
 1771SOL    HW3 7138   1.561   3.010   3.088 -0.2397 -0.0790 -0.3296
 1771SOL    MW4 7139   1.571   3.089   3.124 -0.3234 -0.2627  0.1001
 1772SOL     OW 7140   1.342   3.208   3.023  0.1594  0.2888  0.1560
 1772SOL    HW2 7141   1.428   3.173   3.048  0.7426  0.8159 -1.0861
 1772SOL    HW3 7142   1.352   3.232   2.931 -1.2410  0.6172  0.0897
 1772SOL    MW4 7143   1.355   3.206   3.014  0.0516  0.4015 -0.0165
 1773SOL     OW 7144   1.302   3.459   3.136 -0.3734  0.1816  0.1358
 1773SOL    HW2 7145   1.310   3.467   3.231 -1.9091 -0.7150  0.3512
 1773SOL    HW3 7146   1.316   3.366   3.118 -1.9355  0.0265 -0.3207
 1773SOL    MW4 7147   1.305   3.448   3.146 -0.7821  0.0429  0.1040
 1774SOL     OW 7148   1.516   3.604   3.033  0.2542  0.2838 -0.0235
 1774SOL    HW2 7149   1.427   3.579   3.059 -0.0912  0.1638 -1.2986
 1774SOL    HW3 7150   1.513   3.611   2.938  1.6732  0.0529 -0.1055
 1774SOL    MW4 7151   1.504   3.602   3.024  0.3958  0.2377 -0.2024
 1775SOL     OW 7152   1.548   3.853   3.161 -0.1740 -0.2408 -0.3935
 1775SOL    HW2 7153   1.627   3.895   3.127  0.7504 -0.6994  1.1798
 1775SOL    HW3 7154   1.532   3.780   3.101 -0.1998  0.6509 -1.5058
 1775SOL    MW4 7155   1.556   3.849   3.149 -0.0554 -0.1833 -0.3326
 1776SOL     OW 7156   1.347   4.027   3.048 -0.0639 -0.1484 -0.9109
 1776SOL    HW2 7157   1.422   3.975   3.077  0.2820  0.8179 -0.0582
 1776SOL    HW3 7158   1.271   3.976   3.077  0.2722 -0.0742  0.1201
 1776SOL    MW4 7159   1.347   4.013   3.056  0.0261 -0.0110 -0.6623
 1777SOL     OW 7160   1.336   4.289   3.131  0.6266  0.0281  0.2242
 1777SOL    HW2 7161   1.342   4.198   3.102 -0.8673 -0.5714  1.6989
 1777SOL    HW3 7162   1.250   4.318   3.100  1.2613  1.0803 -0.5901
 1777SOL    MW4 7163   1.325   4.281   3.123  0.5133  0.0877  0.3111
 1778SOL     OW 7164   1.575   4.375   3.051  0.0016 -0.1928  0.0517
 1778SOL    HW2 7165   1.486   4.353   3.077  0.1739 -0.2463  0.6019
 1778SOL    HW3 7166   1.587   4.466   3.078  0.7404 -0.7624  1.6728
 1778SOL    MW4 7167   1.565   4.384   3.058  0.1216 -0.2747  0.3383
 1779SOL     OW 7168   2.025   4.643   3.150 -0.1262  0.5999 -0.0647
 1779SOL    HW2 7169   2.013   4.640   3.245  1.4727  2.0535  0.2003
 1779SOL    HW3 7170   1.951   4.695   3.118 -0.4807  0.3866  0.4008
 1779SOL    MW4 7171   2.013   4.649   3.158  0.0381  0.7634  0.0322
 1780SOL     OW 7172   1.813   0.133   3.060  0.0411 -0.0306 -0.0145
 1780SOL    HW2 7173   1.737   0.084   3.091  0.4114  0.0989  1.1077
 1780SOL    HW3 7174   1.827   0.101   2.971 -0.2397 -1.3452  0.4023
 1780SOL    MW4 7175   1.805   0.122   3.052  0.0529 -0.1870  0.1886
 1781SOL     OW 7176   1.748   0.388   3.136  0.2161  0.1641 -0.5654
 1781SOL    HW2 7177   1.767   0.308   3.088  0.7366  0.1997 -0.4226
 1781SOL    HW3 7178   1.678   0.431   3.086 -0.3373 -0.5665 -0.4277
 1781SOL    MW4 7179   1.741   0.383   3.123  0.2117  0.0724 -0.5283
 1782SOL     OW 7180   2.010   0.527   3.071  0.0089  0.2075  0.0473
 1782SOL    HW2 7181   1.924   0.516   3.110  0.4688  0.5110  1.1695
 1782SOL    HW3 7182   1.993   0.532   2.977 -0.8558 -3.1315 -0.0262
 1782SOL    MW4 7183   1.997   0.526   3.064 -0.0445 -0.1930  0.1857
 1783SOL     OW 7184   2.031   0.791   3.141 -0.1732 -0.2302 -0.1591
 1783SOL    HW2 7185   1.955   0.820   3.091 -0.5660 -0.3658  0.3398
 1783SOL    HW3 7186   2.038   0.697   3.121  0.1991 -0.0971 -0.6361
 1783SOL    MW4 7187   2.022   0.782   3.132 -0.1757 -0.2306 -0.1562
 1784SOL     OW 7188   1.790   0.890   3.011 -0.2002  0.1867 -0.1234
 1784SOL    HW2 7189   1.712   0.850   3.050  0.3930  0.2459  1.1529
 1784SOL    HW3 7190   1.782   0.872   2.918 -1.5761 -0.0933  0.0355
 1784SOL    MW4 7191   1.779   0.882   3.004 -0.3035  0.1576  0.0658
 1785SOL     OW 7192   1.818   1.130   3.128 -0.1542 -0.2347  0.1682
 1785SOL    HW2 7193   1.784   1.132   3.217  0.6207 -0.7432  0.4766
 1785SOL    HW3 7194   1.811   1.039   3.102 -0.6330 -0.0387 -0.3897
 1785SOL    MW4 7195   1.813   1.118   3.136 -0.1152 -0.2759  0.1354
 1786SOL     OW 7196   2.034   1.249   3.030 -0.0207 -0.0988 -0.1098
 1786SOL    HW2 7197   2.108   1.193   3.054 -0.2812 -1.5693 -2.5267
 1786SOL    HW3 7198   1.957   1.200   3.059 -0.2438 -1.0226 -2.1422
 1786SOL    MW4 7199   2.034   1.235   3.037 -0.0846 -0.4148 -0.6969
 1787SOL     OW 7200   2.050   1.524   3.125 -0.2482  0.4479  0.1731
 1787SOL    HW2 7201   2.062   1.512   3.219 -1.2491  1.1428  0.3949
 1787SOL    HW3 7202   2.031   1.436   3.092 -0.6404  0.3207  0.7350
 1787SOL    MW4 7203   2.049   1.510   3.133 -0.4320  0.5229  0.2763
 1788SOL     OW 7204   1.802   1.691   3.008 -0.1121 -0.2890 -0.2678
 1788SOL    HW2 7205   1.794   1.781   3.038  0.7110  0.2026 -1.4592
 1788SOL    HW3 7206   1.883   1.659   3.048 -0.4579 -0.5381  0.2376
 1788SOL    MW4 7207   1.812   1.698   3.017 -0.0490 -0.2569 -0.3588
 1789SOL     OW 7208   1.792   1.956   3.094  0.2152  0.3366  0.5240
 1789SOL    HW2 7209   1.877   1.992   3.066 -0.2018  0.2536 -0.8846
 1789SOL    HW3 7210   1.727   2.007   3.046 -0.5362  0.2613  1.4408
 1789SOL    MW4 7211   1.795   1.968   3.084  0.0609  0.3158  0.4592
 1790SOL     OW 7212   2.034   2.065   3.009  0.5008 -0.1975 -0.0762
 1790SOL    HW2 7213   2.099   2.002   3.042 -1.4346 -1.6006  1.1531
 1790SOL    HW3 7214   2.044   2.142   3.066 -0.2245 -1.1507  1.3645
 1790SOL    MW4 7215   2.044   2.067   3.021  0.1497 -0.5083  0.2759
 1791SOL     OW 7216   2.063   2.305   3.143  0.4748  0.1411 -0.1363
 1791SOL    HW2 7217   2.137   2.349   3.102  0.1818 -0.8489 -1.7427
 1791SOL    HW3 7218   1.986   2.346   3.105  0.1867  0.1662  0.4573
 1791SOL    MW4 7219   2.062   2.316   3.133  0.3984  0.0138 -0.2697
 1792SOL     OW 7220   1.817   2.436   3.010 -0.0085  0.0401 -0.2558
 1792SOL    HW2 7221   1.790   2.519   3.047 -0.1579  0.1066 -0.5163
 1792SOL    HW3 7222   1.740   2.380   3.016 -0.1049  0.1226 -0.6756
 1792SOL    MW4 7223   1.803   2.439   3.016 -0.0409  0.0598 -0.3452
 1793SOL     OW 7224   1.800   2.683   3.108 -0.3743  0.3898 -0.1850
 1793SOL    HW2 7225   1.795   2.686   3.203 -2.3213  1.8127 -0.3009
 1793SOL    HW3 7226   1.883   2.727   3.087 -0.0576  0.2846  0.8353
 1793SOL    MW4 7227   1.811   2.689   3.118 -0.5894  0.5639 -0.0658
 1794SOL     OW 7228   2.064   2.781   3.036 -0.4172  0.1518 -0.1143
 1794SOL    HW2 7229   2.066   2.868   3.075  0.8085  0.0286  0.1192
 1794SOL    HW3 7230   2.052   2.796   2.942  1.2741  0.6350 -0.2618
 1794SOL    MW4 7231   2.063   2.794   3.029 -0.0324  0.1993 -0.1028
 1795SOL     OW 7232   2.045   3.041   3.132 -0.5994  0.1687 -0.0302
 1795SOL    HW2 7233   2.031   3.035   3.227 -0.8115  0.0921 -0.0676
 1795SOL    HW3 7234   1.965   3.083   3.099  0.1142  1.6086  0.0225
 1795SOL    MW4 7235   2.033   3.046   3.140 -0.5329  0.3483 -0.0281
 1796SOL     OW 7236   1.823   3.187   3.070  0.3803 -0.1703 -0.5693
 1796SOL    HW2 7237   1.735   3.149   3.077 -0.8969  2.7374 -0.2324
 1796SOL    HW3 7238   1.837   3.198   2.976  0.4916 -0.8397 -0.6357
 1796SOL    MW4 7239   1.813   3.183   3.059  0.2265  0.1252 -0.5333
 1797SOL     OW 7240   1.749   3.472   3.134 -0.2464 -0.0997  0.7469
 1797SOL    HW2 7241   1.762   3.382   3.104  0.5850  0.3788 -0.3535
 1797SOL    HW3 7242   1.676   3.505   3.082  0.1156  0.1969  0.4294
 1797SOL    MW4 7243   1.741   3.465   3.123 -0.0889  0.0024  0.5600
 1798SOL     OW 7244   1.982   3.563   3.049  0.1098 -0.0489  0.2449
 1798SOL    HW2 7245   1.983   3.656   3.073 -0.6291  0.0244  0.0124
 1798SOL    HW3 7246   1.900   3.530   3.085 -0.0780 -0.3899 -0.4917
 1798SOL    MW4 7247   1.971   3.571   3.057 -0.0126 -0.0842  0.1168
 1799SOL     OW 7248   1.989   3.831   3.142  0.0375 -0.5227  0.3108
 1799SOL    HW2 7249   1.992   3.822   3.237 -0.9394 -1.1811  0.2907
 1799SOL    HW3 7250   1.909   3.880   3.125  0.3186 -0.2189 -0.1593
 1799SOL    MW4 7251   1.979   3.836   3.152 -0.0542 -0.5693  0.2460
 1800SOL     OW 7252   1.772   3.999   3.082 -0.3508  0.3252  0.0926
 1800SOL    HW2 7253   1.790   4.089   3.113  0.5988  0.3001 -0.3526
 1800SOL    HW3 7254   1.791   4.002   2.988 -0.1485 -0.3844  0.1084
 1800SOL    MW4 7255   1.777   4.012   3.074 -0.1987  0.2284  0.0360
 1801SOL     OW 7256   1.808   4.268   3.172 -0.0430 -0.3462 -0.4194
 1801SOL    HW2 7257   1.874   4.327   3.137 -0.1022 -0.7566 -1.2485
 1801SOL    HW3 7258   1.726   4.297   3.130 -0.1536 -0.6998 -0.4472
 1801SOL    MW4 7259   1.806   4.280   3.162 -0.0653 -0.4463 -0.5324
 1802SOL     OW 7260   2.035   4.385   3.050  0.0056  0.4262 -0.0028
 1802SOL    HW2 7261   2.041   4.478   3.071  0.4445  0.4185 -0.0920
 1802SOL    HW3 7262   2.036   4.381   2.954 -0.9205  0.3898 -0.0121
 1802SOL    MW4 7263   2.036   4.397   3.040 -0.0591  0.4206 -0.0157
 1803SOL     OW 7264   2.489   0.012   3.114  0.1965  0.2223  0.3918
 1803SOL    HW2 7265   2.497  -0.077   3.081  2.3659  0.7302 -0.5377
 1803SOL    HW3 7266   2.403   0.041   3.084  0.7801 -0.4757 -2.0556
 1803SOL    MW4 7267   2.479   0.004   3.106  0.5598  0.1974 -0.0536
 1804SOL     OW 7268   2.239   0.086   3.004 -0.2021  0.1703  0.3631
 1804SOL    HW2 7269   2.245   0.177   3.032  0.3996  0.4878 -0.7421
 1804SOL    HW3 7270   2.180   0.045   3.066  0.0628  1.1587  1.2743
 1804SOL    MW4 7271   2.232   0.092   3.016 -0.0880  0.3426  0.3376
 1805SOL     OW 7272   2.222   0.339   3.115 -0.3668 -0.6575 -0.3268
 1805SOL    HW2 7273   2.236   0.329   3.209  0.0920  0.7964 -0.2356
 1805SOL    HW3 7274   2.143   0.392   3.108  1.8545  2.7602 -0.6859
 1805SOL    MW4 7275   2.213   0.344   3.126 -0.0131 -0.0148 -0.3619
 1806SOL     OW 7276   2.431   0.511   3.044  0.1383  0.0024 -0.1936
 1806SOL    HW2 7277   2.352   0.460   3.061  0.2064 -0.3198 -0.8120
 1806SOL    HW3 7278   2.442   0.507   2.949  0.5545  0.5596 -0.1760
 1806SOL    MW4 7279   2.422   0.504   3.033  0.2022  0.0333 -0.2730
 1807SOL     OW 7280   2.488   0.744   3.187  0.0451  0.5354 -0.1344
 1807SOL    HW2 7281   2.567   0.783   3.149 -0.6147  1.7900 -0.2587
 1807SOL    HW3 7282   2.471   0.666   3.134  0.0550  1.3806 -1.3968
 1807SOL    MW4 7283   2.496   0.739   3.175 -0.0408  0.8124 -0.3171
 1808SOL     OW 7284   2.278   0.876   3.034 -0.4807 -0.3375  0.1860
 1808SOL    HW2 7285   2.338   0.833   3.095 -0.7683  1.0706  1.5044
 1808SOL    HW3 7286   2.191   0.851   3.065 -0.6316  0.5132  0.4782
 1808SOL    MW4 7287   2.274   0.867   3.046 -0.5383 -0.0395  0.3986
 1809SOL     OW 7288   2.289   1.143   3.122  0.1151  0.0161  0.0722
 1809SOL    HW2 7289   2.260   1.148   3.213  1.9220  0.6444  0.6303
 1809SOL    HW3 7290   2.289   1.050   3.101 -2.3160  0.0022  0.0437
 1809SOL    MW4 7291   2.285   1.132   3.131  0.0327  0.0973  0.1421
 1810SOL     OW 7292   2.514   1.287   3.021 -0.0047  0.1998  0.1286
 1810SOL    HW2 7293   2.438   1.236   3.049 -0.3754  1.1646  0.9177
 1810SOL    HW3 7294   2.507   1.292   2.926 -0.3394 -0.6279  0.1099
 1810SOL    MW4 7295   2.503   1.281   3.012 -0.0978  0.2180  0.2303
 1811SOL     OW 7296   2.494   1.545   3.121  0.0183  0.7634 -0.3107
 1811SOL    HW2 7297   2.420   1.581   3.072 -1.2358 -0.1435  0.8640
 1811SOL    HW3 7298   2.504   1.456   3.089 -0.4354  0.3578  0.6537
 1811SOL    MW4 7299   2.485   1.538   3.110 -0.2069  0.5903 -0.0284
 1812SOL     OW 7300   2.264   1.641   3.004 -0.2626 -0.0409  0.5403
 1812SOL    HW2 7301   2.199   1.583   3.043 -0.1515 -1.4554 -1.3221
 1812SOL    HW3 7302   2.241   1.646   2.911  0.5246  1.8371  0.4033
 1812SOL    MW4 7303   2.253   1.634   2.997 -0.1440  0.0203  0.2763
 1813SOL     OW 7304   2.198   1.883   3.126  0.3408 -0.3268 -0.1356
 1813SOL    HW2 7305   2.273   1.940   3.113  0.0704 -0.1921 -1.1754
 1813SOL    HW3 7306   2.229   1.796   3.100 -0.3099  0.0079 -2.1372
 1813SOL    MW4 7307   2.212   1.879   3.121  0.2193 -0.2649 -0.5372
 1814SOL     OW 7308   2.410   2.040   3.070 -0.1199 -0.0789  0.1748
 1814SOL    HW2 7309   2.494   2.001   3.093  0.4631  0.7889 -0.4665
 1814SOL    HW3 7310   2.411   2.046   2.974  0.7080  3.4806  0.3460
 1814SOL    MW4 7311   2.421   2.035   3.060  0.0665  0.5054  0.1130
 1815SOL     OW 7312   2.485   2.296   3.127  0.5450  0.1116  0.3334
 1815SOL    HW2 7313   2.482   2.296   3.222 -0.4224  1.7007  0.3284
 1815SOL    HW3 7314   2.449   2.211   3.102 -0.3757  0.1859  1.3672
 1815SOL    MW4 7315   2.480   2.284   3.136  0.2956  0.3309  0.4690
 1816SOL     OW 7316   2.280   2.451   3.022  0.1408 -0.0650 -0.1130
 1816SOL    HW2 7317   2.283   2.537   3.065  1.5051 -0.0205 -0.2713
 1816SOL    HW3 7318   2.352   2.402   3.061 -0.2000 -0.9074 -0.5254
 1816SOL    MW4 7319   2.290   2.456   3.033  0.2761 -0.1707 -0.1881
 1817SOL     OW 7320   2.288   2.684   3.184 -0.3618 -0.2073 -0.1437
 1817SOL    HW2 7321   2.351   2.726   3.125 -0.2792 -0.9108 -0.5714
 1817SOL    HW3 7322   2.203   2.703   3.145 -0.2905 -0.9224 -0.6679
 1817SOL    MW4 7323   2.285   2.692   3.171 -0.3414 -0.3946 -0.2692
 1818SOL     OW 7324   2.469   2.833   3.031  0.3755  0.1007  0.0358
 1818SOL    HW2 7325   2.471   2.923   3.064 -0.7293 -0.2471  1.1226
 1818SOL    HW3 7326   2.466   2.842   2.936  1.1949  1.1885  0.1044
 1818SOL    MW4 7327   2.469   2.846   3.023  0.3378  0.1981  0.1884
 1819SOL     OW 7328   2.510   3.088   3.145  0.1992 -0.1770 -0.3565
 1819SOL    HW2 7329   2.584   3.128   3.100  0.3041  0.4553  0.3672
 1819SOL    HW3 7330   2.433   3.135   3.113  0.2123 -0.1564 -0.3583
 1819SOL    MW4 7331   2.510   3.099   3.135  0.2148 -0.0908 -0.2613
 1820SOL     OW 7332   2.278   3.191   3.050 -0.3020 -0.4419  0.0114
 1820SOL    HW2 7333   2.251   3.271   3.096 -0.3943  1.0337 -2.5257
 1820SOL    HW3 7334   2.205   3.131   3.063 -0.1691 -0.2072  2.0693
 1820SOL    MW4 7335   2.265   3.194   3.058 -0.2966 -0.2162 -0.0517
 1821SOL     OW 7336   2.226   3.450   3.139 -0.0974 -0.6155 -0.1741
 1821SOL    HW2 7337   2.291   3.511   3.102  0.1455  0.2595  1.6365
 1821SOL    HW3 7338   2.143   3.478   3.101 -0.0867  1.3059  1.1875
 1821SOL    MW4 7339   2.224   3.462   3.129 -0.0639 -0.2468  0.2444
 1822SOL     OW 7340   2.445   3.597   3.045 -0.4546 -0.2301  0.1210
 1822SOL    HW2 7341   2.522   3.560   3.088 -1.0533  0.5575  1.9279
 1822SOL    HW3 7342   2.437   3.684   3.083 -1.5430  0.1383 -0.9469
 1822SOL    MW4 7343   2.454   3.603   3.056 -0.6771 -0.0775  0.2189
 1823SOL     OW 7344   2.455   3.859   3.115  0.1780 -0.3779 -0.3372
 1823SOL    HW2 7345   2.463   3.863   3.210  0.7376 -1.1741 -0.3485
 1823SOL    HW3 7346   2.529   3.910   3.082  0.7108 -1.1658 -0.3592
 1823SOL    MW4 7347   2.466   3.866   3.123  0.3223 -0.5870 -0.3417
 1824SOL     OW 7348   2.202   3.962   3.021 -0.3383 -0.2980 -0.6656
 1824SOL    HW2 7349   2.274   3.935   3.078  0.1210  0.9022 -0.6609
 1824SOL    HW3 7350   2.125   3.919   3.057  0.0331  0.0478  0.5666
 1824SOL    MW4 7351   2.201   3.953   3.033 -0.2286 -0.0939 -0.5023
 1825SOL     OW 7352   2.265   4.236   3.077  0.5907 -0.1765 -0.3019
 1825SOL    HW2 7353   2.238   4.146   3.057  1.8092 -0.1441 -2.2959
 1825SOL    HW3 7354   2.184   4.287   3.070  0.2029 -0.8569 -0.8858
 1825SOL    MW4 7355   2.251   4.231   3.073  0.7002 -0.2618 -0.6421
 1826SOL     OW 7356   2.495   4.382   3.021  0.1150  0.1832  0.4468
 1826SOL    HW2 7357   2.430   4.324   3.061 -0.4530  0.5498  0.0546
 1826SOL    HW3 7358   2.478   4.375   2.927 -0.5179  1.6496  0.4453
 1826SOL    MW4 7359   2.484   4.373   3.014 -0.0436  0.4249  0.3948
 1827SOL     OW 7360   2.924   0.027   3.129 -0.0913 -0.2291 -0.0642
 1827SOL    HW2 7361   3.000   0.082   3.116  0.3447  0.0221  3.0628
 1827SOL    HW3 7362   2.951  -0.060   3.099  1.2426 -0.0021  0.4494
 1827SOL    MW4 7363   2.937   0.023   3.124  0.1419 -0.1664  0.4158
 1828SOL     OW 7364   2.707   0.152   3.018  0.0439 -0.0061  0.1693
 1828SOL    HW2 7365   2.778   0.099   3.055  0.0815 -0.5248 -0.6304
 1828SOL    HW3 7366   2.628   0.104   3.039 -0.0760  0.5339  0.9932
 1828SOL    MW4 7367   2.706   0.139   3.026  0.0331 -0.0033  0.1724
 1829SOL     OW 7368   2.701   0.396   3.126 -0.3274 -0.1867  0.0095
 1829SOL    HW2 7369   2.705   0.305   3.095 -0.5114 -0.4975  0.8563
 1829SOL    HW3 7370   2.621   0.431   3.089 -0.9093 -0.7726  0.6922
 1829SOL    MW4 7371   2.691   0.388   3.117 -0.4284 -0.3050  0.2112
 1830SOL     OW 7372   2.933   0.518   3.015 -0.0851 -0.6379 -0.0436
 1830SOL    HW2 7373   2.852   0.483   3.052 -0.8341  1.0559 -0.0753
 1830SOL    HW3 7374   2.917   0.522   2.921 -0.7943  1.7431  0.1436
 1830SOL    MW4 7375   2.921   0.514   3.008 -0.2775 -0.1003 -0.0231
 1831SOL     OW 7376   2.943   0.785   3.099 -0.4561  0.3542 -0.2108
 1831SOL    HW2 7377   2.949   0.783   3.194 -0.1624  1.4391 -0.2102
 1831SOL    HW3 7378   2.936   0.692   3.074  0.3088  0.0219  0.8014
 1831SOL    MW4 7379   2.943   0.772   3.108 -0.3161  0.4534 -0.0770
 1832SOL     OW 7380   2.693   0.875   3.032  0.1037  0.4363  0.2043
 1832SOL    HW2 7381   2.689   0.960   3.076 -0.5050  0.1781  0.6496
 1832SOL    HW3 7382   2.778   0.839   3.058  0.5499  1.0879 -0.3274
 1832SOL    MW4 7383   2.704   0.881   3.042  0.0823  0.4882  0.1926
 1833SOL     OW 7384   2.730   1.135   3.137 -0.4184  0.2141 -0.0463
 1833SOL    HW2 7385   2.817   1.172   3.120 -0.4150 -0.4342 -1.5259
 1833SOL    HW3 7386   2.670   1.194   3.091 -0.8802  1.3443  1.9791
 1833SOL    MW4 7387   2.734   1.148   3.128 -0.4787  0.2776  0.0257
 1834SOL     OW 7388   2.972   1.247   3.090  0.5443 -0.0982  0.1832
 1834SOL    HW2 7389   3.037   1.209   3.149  0.7583 -0.4140 -0.2544
 1834SOL    HW3 7390   2.982   1.342   3.101  2.1871 -0.1072 -1.0762
 1834SOL    MW4 7391   2.982   1.255   3.099  0.7894 -0.1410 -0.0408
 1835SOL     OW 7392   2.958   1.536   3.124 -0.3445  0.6725 -0.1861
 1835SOL    HW2 7393   2.972   1.545   3.218 -3.0278 -0.5068  0.3525
 1835SOL    HW3 7394   3.026   1.591   3.085  0.5451  1.5130  2.4288
 1835SOL    MW4 7395   2.969   1.544   3.131 -0.5808  0.6276  0.2298
 1836SOL     OW 7396   2.707   1.675   3.043  0.2427  0.3975 -0.2151
 1836SOL    HW2 7397   2.790   1.640   3.074  0.0916  1.4838  1.5321
 1836SOL    HW3 7398   2.641   1.633   3.097  0.0577  3.2274  1.9001
 1836SOL    MW4 7399   2.709   1.665   3.054  0.1986  0.9143  0.2942
 1837SOL     OW 7400   2.660   1.933   3.101  0.0304 -0.2205  0.4059
 1837SOL    HW2 7401   2.742   1.979   3.079 -0.6489  1.3844  1.1576
 1837SOL    HW3 7402   2.675   1.843   3.073  2.1794 -0.0165  0.8281
 1837SOL    MW4 7403   2.673   1.927   3.094  0.2244  0.0181  0.5605
 1838SOL     OW 7404   2.898   2.054   3.029  0.0409 -0.0323  0.2201
 1838SOL    HW2 7405   2.906   2.142   3.066 -1.4910  0.3370 -0.2941
 1838SOL    HW3 7406   2.899   2.068   2.934  0.8252 -0.6667  0.1362
 1838SOL    MW4 7407   2.899   2.067   3.022 -0.0575 -0.0672  0.1409
 1839SOL     OW 7408   2.933   2.320   3.124  0.1521 -0.1031  0.0552
 1839SOL    HW2 7409   2.999   2.363   3.069 -1.0899  1.7132 -0.0721
 1839SOL    HW3 7410   2.851   2.366   3.103 -0.8293 -1.1540  1.4947
 1839SOL    MW4 7411   2.931   2.332   3.114 -0.1411 -0.0021  0.2286
 1840SOL     OW 7412   2.712   2.438   3.008 -0.5049 -0.1284  0.2651
 1840SOL    HW2 7413   2.711   2.523   3.053  0.3081 -0.0805  0.2118
 1840SOL    HW3 7414   2.631   2.396   3.034 -0.4876  0.2951  1.0256
 1840SOL    MW4 7415   2.701   2.444   3.018 -0.3955 -0.0663  0.3586
 1841SOL     OW 7416   2.685   2.699   3.104  0.3941 -0.2036  0.1564
 1841SOL    HW2 7417   2.710   2.694   3.196  2.4546  2.2540 -0.2155
 1841SOL    HW3 7418   2.602   2.748   3.104  1.6225  1.9453  0.5643
 1841SOL    MW4 7419   2.677   2.705   3.116  0.8280  0.4044  0.1612
 1842SOL     OW 7420   2.928   2.792   2.982 -0.4670 -0.3390  0.6358
 1842SOL    HW2 7421   3.000   2.744   3.023  0.0172  0.6522  0.9579
 1842SOL    HW3 7422   2.850   2.762   3.028 -0.2585 -1.3557  0.3494
 1842SOL    MW4 7423   2.927   2.781   2.993 -0.3757 -0.3426  0.6404
 1843SOL     OW 7424   2.963   3.059   3.097 -0.1309  0.5569  0.3206
 1843SOL    HW2 7425   2.881   3.099   3.067 -1.0189 -0.9159  0.7215
 1843SOL    HW3 7426   2.962   2.971   3.060  1.4503  0.6490  0.0449
 1843SOL    MW4 7427   2.952   3.053   3.088 -0.0393  0.3748  0.3371
 1844SOL     OW 7428   2.731   3.208   3.023 -0.3404  0.4418  0.5295
 1844SOL    HW2 7429   2.708   3.300   3.034 -1.7766 -0.0088  1.4700
 1844SOL    HW3 7430   2.707   3.189   2.932 -1.0746  0.7294  0.6523
 1844SOL    MW4 7431   2.725   3.218   3.013 -0.6270  0.4203  0.6697
 1845SOL     OW 7432   2.667   3.445   3.125 -0.2381 -0.4921  0.2153
 1845SOL    HW2 7433   2.679   3.437   3.219 -2.6720 -0.6578  0.5537
 1845SOL    HW3 7434   2.743   3.494   3.094  0.9899 -1.1537  2.1336
 1845SOL    MW4 7435   2.678   3.450   3.133 -0.3974 -0.6011  0.5131
 1846SOL     OW 7436   2.863   3.583   2.995  0.0415  0.1218 -0.3978
 1846SOL    HW2 7437   2.943   3.552   3.038 -0.9863 -1.0242  0.7299
 1846SOL    HW3 7438   2.851   3.672   3.027 -0.1781 -0.3799  0.9771
 1846SOL    MW4 7439   2.872   3.590   3.005 -0.1230 -0.0956 -0.0675
 1847SOL     OW 7440   2.863   3.852   3.105  0.1184  0.1792 -0.4426
 1847SOL    HW2 7441   2.871   3.855   3.201 -1.3213 -0.9937 -0.2703
 1847SOL    HW3 7442   2.789   3.909   3.086  0.0370 -0.0497 -0.8087
 1847SOL    MW4 7443   2.855   3.860   3.115 -0.0823 -0.0055 -0.4685
 1848SOL     OW 7444   2.666   4.008   3.032  0.3346  0.1879 -0.3238
 1848SOL    HW2 7445   2.701   4.091   3.065  0.9625  0.5092 -1.7856
 1848SOL    HW3 7446   2.676   4.014   2.937  1.1333 -1.8972 -0.3875
 1848SOL    MW4 7447   2.672   4.020   3.024  0.5229 -0.0448 -0.5252
 1849SOL     OW 7448   2.733   4.262   3.095  0.4009 -0.3350 -0.0967
 1849SOL    HW2 7449   2.734   4.283   3.189 -1.0269 -0.4885 -0.0396
 1849SOL    HW3 7450   2.661   4.315   3.060  0.3885 -0.9142 -0.9540
 1849SOL    MW4 7451   2.723   4.272   3.103  0.2108 -0.4320 -0.2019
 1850SOL     OW 7452   2.946   4.431   3.042  0.1644  0.3397  0.5637
 1850SOL    HW2 7453   3.008   4.358   3.046  0.4636  0.4441 -1.6163
 1850SOL    HW3 7454   2.860   4.391   3.049  0.4000  0.0123  1.6746
 1850SOL    MW4 7455   2.943   4.416   3.043  0.2351  0.3104  0.4225
 1851SOL     OW 7456   3.373   4.655   3.144  0.1159 -0.0063  0.3780
 1851SOL    HW2 7457   3.447   4.700   3.103 -0.3291 -0.4176 -0.9007
 1851SOL    HW3 7458   3.373   4.568   3.103 -1.2337  0.0850  0.1776
 1851SOL    MW4 7459   3.383   4.650   3.133 -0.1209 -0.0482  0.1826
 1852SOL     OW 7460   3.152   0.166   3.042 -0.1564  0.3212 -0.0983
 1852SOL    HW2 7461   3.161   0.245   3.095 -1.0195 -0.0012  0.5301
 1852SOL    HW3 7462   3.213   0.103   3.081  0.2605  0.5561 -0.3726
 1852SOL    MW4 7463   3.161   0.168   3.054 -0.2153  0.3097 -0.0515
 1853SOL     OW 7464   3.148   0.422   3.149 -0.1690  0.2133 -0.1457
 1853SOL    HW2 7465   3.227   0.448   3.102  0.5403 -0.9750  0.3617
 1853SOL    HW3 7466   3.077   0.461   3.100  0.7082  0.9357 -0.8638
 1853SOL    MW4 7467   3.149   0.430   3.136  0.0405  0.1518 -0.1736
 1854SOL     OW 7468   3.363   0.465   3.003 -0.1344 -0.1089 -0.0307
 1854SOL    HW2 7469   3.447   0.424   3.021 -0.1499  0.1688  0.6922
 1854SOL    HW3 7470   3.361   0.475   2.908  0.7090  0.0175 -0.0392
 1854SOL    MW4 7471   3.374   0.461   2.993 -0.0253 -0.0556  0.0637
 1855SOL     OW 7472   3.388   0.735   3.109  0.1134 -0.4926 -0.5131
 1855SOL    HW2 7473   3.370   0.727   3.203  0.8687 -0.4526 -0.3585
 1855SOL    HW3 7474   3.380   0.646   3.075 -1.3616 -0.3219 -0.6402
 1855SOL    MW4 7475   3.385   0.722   3.117  0.0184 -0.4649 -0.5097
 1856SOL     OW 7476   3.174   0.909   3.010 -0.1802 -0.0415  0.4252
 1856SOL    HW2 7477   3.237   0.843   3.038  0.0703  0.2881  0.6380
 1856SOL    HW3 7478   3.089   0.875   3.039 -0.0511 -0.2683  0.5378
 1856SOL    MW4 7479   3.171   0.896   3.018 -0.1302 -0.0280  0.4680
 1857SOL     OW 7480   3.214   1.134   3.177 -0.4660  0.0125  0.2404
 1857SOL    HW2 7481   3.271   1.195   3.132 -0.2341 -0.0721  0.4192
 1857SOL    HW3 7482   3.209   1.058   3.118 -0.9706  0.3155 -0.1034
 1857SOL    MW4 7483   3.221   1.132   3.163 -0.5019  0.0412  0.2186
 1858SOL     OW 7484   3.380   1.281   3.028  0.2244  0.2012 -0.0017
 1858SOL    HW2 7485   3.466   1.255   3.061 -0.0211 -1.6472 -0.7254
 1858SOL    HW3 7486   3.368   1.371   3.058  2.4859  0.5375 -0.0591
 1858SOL    MW4 7487   3.389   1.289   3.037  0.4904  0.0017 -0.1047
 1859SOL     OW 7488   3.358   1.529   3.138  0.2533 -0.0712 -0.6879
 1859SOL    HW2 7489   3.372   1.524   3.233 -0.6941  0.0520 -0.5355
 1859SOL    HW3 7490   3.432   1.580   3.106  0.6640 -0.2415 -0.0324
 1859SOL    MW4 7491   3.370   1.535   3.147  0.1826 -0.0775 -0.5813
 1860SOL     OW 7492   3.170   1.711   3.041 -0.0604 -0.4013 -0.5715
 1860SOL    HW2 7493   3.244   1.651   3.058 -0.5986 -0.8722  0.1275
 1860SOL    HW3 7494   3.153   1.701   2.948  1.3104  0.3474 -0.9280
 1860SOL    MW4 7495   3.178   1.702   3.031  0.0494 -0.3645 -0.5262
 1861SOL     OW 7496   3.150   1.982   3.087  0.4052 -0.2443 -0.1020
 1861SOL    HW2 7497   3.153   1.887   3.085  0.3694 -0.2610  0.5979
 1861SOL    HW3 7498   3.059   2.004   3.065 -0.0563 -0.4281  1.6023
 1861SOL    MW4 7499   3.138   1.973   3.084  0.3395 -0.2708  0.2151
 1862SOL     OW 7500   3.401   2.103   3.046  0.5068  0.0960 -0.0392
 1862SOL    HW2 7501   3.464   2.031   3.055  0.0173 -0.5356 -1.5610
 1862SOL    HW3 7502   3.317   2.064   3.070  0.0876 -0.1197 -1.7807
 1862SOL    MW4 7503   3.398   2.088   3.050  0.3872 -0.0157 -0.4694
 1863SOL     OW 7504   3.391   2.356   3.098 -0.6508 -0.2432 -0.6444
 1863SOL    HW2 7505   3.400   2.361   3.193 -1.6720 -0.1305 -0.5460
 1863SOL    HW3 7506   3.403   2.264   3.077  0.2449 -0.1693 -0.4839
 1863SOL    MW4 7507   3.394   2.345   3.108 -0.6673 -0.2182 -0.6101
 1864SOL     OW 7508   3.145   2.433   2.993 -0.4422  0.4103  0.3233
 1864SOL    HW2 7509   3.223   2.387   3.023 -1.4307 -0.7377  1.1765
 1864SOL    HW3 7510   3.151   2.429   2.897  0.2595 -0.1553  0.3857
 1864SOL    MW4 7511   3.156   2.427   2.984 -0.4799  0.1843  0.4444
 1865SOL     OW 7512   3.145   2.686   3.107  0.1547 -0.3155  0.5954
 1865SOL    HW2 7513   3.168   2.697   3.200  0.7330 -0.4255  0.4657
 1865SOL    HW3 7514   3.156   2.593   3.091 -0.1751 -0.3322  0.4772
 1865SOL    MW4 7515   3.150   2.675   3.117  0.1876 -0.3324  0.5629
 1866SOL     OW 7516   3.356   2.807   2.960  0.2827  0.1745  0.0502
 1866SOL    HW2 7517   3.337   2.898   2.984 -0.1743 -0.3061  1.5358
 1866SOL    HW3 7518   3.285   2.757   2.999  0.1606 -0.7718 -1.3403
 1866SOL    MW4 7519   3.344   2.813   2.968  0.2062 -0.0138  0.0627
 1867SOL     OW 7520   3.371   3.060   3.068  0.4107 -0.8213  0.0538
 1867SOL    HW2 7521   3.348   3.055   3.161 -0.5777 -2.1578 -0.2498
 1867SOL    HW3 7522   3.310   3.124   3.031 -0.6981 -1.9570 -0.1097
 1867SOL    MW4 7523   3.360   3.068   3.075  0.1342 -1.1473 -0.0076
 1868SOL     OW 7524   3.163   3.237   3.007  0.1659  0.2750 -0.2548
 1868SOL    HW2 7525   3.090   3.183   3.036 -0.2517  0.5793 -0.7459
 1868SOL    HW3 7526   3.149   3.250   2.913  0.6646  0.6147 -0.2894
 1868SOL    MW4 7527   3.152   3.232   2.998  0.1764  0.3600 -0.3242
 1869SOL     OW 7528   3.106   3.484   3.111  0.1293 -0.3528  0.3944
 1869SOL    HW2 7529   3.188   3.532   3.096 -0.0211  0.2786  1.4889
 1869SOL    HW3 7530   3.119   3.400   3.069  0.9730  0.1133 -0.2907
 1869SOL    MW4 7531   3.119   3.479   3.104  0.2208 -0.2079  0.4482
 1870SOL     OW 7532   3.349   3.588   3.060 -0.2108 -0.1152 -0.2089
 1870SOL    HW2 7533   3.436   3.561   3.091  0.1052 -0.0613 -1.0206
 1870SOL    HW3 7534   3.342   3.680   3.085 -0.3321 -0.3140  0.4967
 1870SOL    MW4 7535   3.360   3.597   3.067 -0.1853 -0.1340 -0.2229
 1871SOL     OW 7536   3.397   3.868   3.091  0.2175 -0.2395 -0.0989
 1871SOL    HW2 7537   3.387   3.869   3.186 -0.9038  0.2139 -0.2264
 1871SOL    HW3 7538   3.309   3.882   3.057  0.5435 -0.8375 -1.2121
 1871SOL    MW4 7539   3.384   3.870   3.099  0.1123 -0.2584 -0.2625
 1872SOL     OW 7540   3.145   3.966   3.006 -0.5502  0.0023  0.3360
 1872SOL    HW2 7541   3.061   3.928   3.031 -0.5696  0.0878  0.3994
 1872SOL    HW3 7542   3.144   3.963   2.910  0.0674 -1.4888  0.3764
 1872SOL    MW4 7543   3.134   3.961   2.997 -0.4714 -0.1829  0.3498
 1873SOL     OW 7544   3.159   4.239   3.120 -0.1628  0.4487  0.0784
 1873SOL    HW2 7545   3.152   4.257   3.214  0.5097  1.4231 -0.0452
 1873SOL    HW3 7546   3.137   4.147   3.111  1.1782 -0.0066  1.3695
 1873SOL    MW4 7547   3.155   4.229   3.131  0.1028  0.5174  0.2325
 1874SOL     OW 7548   3.353   4.407   3.021 -0.3268  0.0927 -0.2180
 1874SOL    HW2 7549   3.439   4.375   3.047 -0.2283  0.2601 -0.3388
 1874SOL    HW3 7550   3.291   4.350   3.068 -0.1515  0.0719 -0.0136
 1874SOL    MW4 7551   3.356   4.395   3.031 -0.2906  0.1125 -0.2072
 1875SOL     OW 7552   3.842   4.658   3.107  0.0585  0.2412 -0.4906
 1875SOL    HW2 7553   3.822   4.566   3.091 -0.9802  0.4461 -0.4379
 1875SOL    HW3 7554   3.759   4.704   3.091  0.6400  1.1993 -0.8039
 1875SOL    MW4 7555   3.829   4.652   3.103 -0.0019  0.3943 -0.5250
 1876SOL     OW 7556   3.607   0.097   3.001 -0.6327  0.0155 -0.1214
 1876SOL    HW2 7557   3.605   0.193   3.003  0.3854  0.0081  1.2035
 1876SOL    HW3 7558   3.597   0.076   2.908  0.9607  1.4577 -0.6542
 1876SOL    MW4 7559   3.605   0.107   2.989 -0.2882  0.2048 -0.0172
 1877SOL     OW 7560   3.597   0.361   3.077  0.2777 -0.5697  0.4776
 1877SOL    HW2 7561   3.605   0.357   3.172  1.4001 -0.3223  0.3927
 1877SOL    HW3 7562   3.671   0.414   3.048  1.3553 -2.6819 -0.7553
 1877SOL    MW4 7563   3.608   0.368   3.085  0.5682 -0.8157  0.3037
 1878SOL     OW 7564   3.839   0.480   3.011  0.0906 -0.2904  0.1786
 1878SOL    HW2 7565   3.908   0.432   3.056  0.0069 -0.1613  0.4432
 1878SOL    HW3 7566   3.836   0.565   3.054 -0.8996 -0.6422  0.8296
 1878SOL    MW4 7567   3.848   0.485   3.022 -0.0513 -0.3198  0.2995
 1879SOL     OW 7568   3.820   0.731   3.114 -0.3768  0.3835 -0.1986
 1879SOL    HW2 7569   3.811   0.750   3.208 -1.7147 -2.4435  0.2888
 1879SOL    HW3 7570   3.909   0.760   3.093 -0.1386  1.2911  1.8668
 1879SOL    MW4 7571   3.830   0.737   3.124 -0.5219  0.1303  0.1380
 1880SOL     OW 7572   3.621   0.893   3.012  0.3943 -0.0802  0.1839
 1880SOL    HW2 7573   3.701   0.845   3.031  0.0112 -1.1601 -0.8947
 1880SOL    HW3 7574   3.552   0.846   3.059  0.5930  1.7788  2.4476
 1880SOL    MW4 7575   3.622   0.881   3.021  0.3698  0.0226  0.3402
 1881SOL     OW 7576   3.604   1.147   3.108 -0.4742  0.6568  0.3813
 1881SOL    HW2 7577   3.667   1.191   3.050 -0.4067 -0.2571 -0.2413
 1881SOL    HW3 7578   3.614   1.054   3.088 -1.3362  0.4342  0.9811
 1881SOL    MW4 7579   3.614   1.141   3.098 -0.5789  0.5069  0.3781
 1882SOL     OW 7580   3.830   1.271   2.991  0.2910 -0.0532 -0.3860
 1882SOL    HW2 7581   3.825   1.364   3.012  1.0752  0.0376 -0.5930
 1882SOL    HW3 7582   3.820   1.267   2.896 -0.4704 -0.2430 -0.3021
 1882SOL    MW4 7583   3.828   1.282   2.982  0.2940 -0.0663 -0.4020
 1883SOL     OW 7584   3.786   1.529   3.084  0.3281 -0.3689 -0.2741
 1883SOL    HW2 7585   3.777   1.529   3.180  0.3169  0.7301 -0.2656
 1883SOL    HW3 7586   3.713   1.583   3.053  0.5384 -0.4267 -0.8741
 1883SOL    MW4 7587   3.775   1.536   3.093  0.3543 -0.2315 -0.3524
 1884SOL     OW 7588   3.550   1.657   2.989 -0.1363  0.3083  0.0377
 1884SOL    HW2 7589   3.564   1.745   3.022 -1.3421  1.3563 -2.1683
 1884SOL    HW3 7590   3.560   1.665   2.894 -0.0782 -1.9605 -0.1744
 1884SOL    MW4 7591   3.553   1.669   2.981 -0.2875  0.1472 -0.2813
 1885SOL     OW 7592   3.589   1.908   3.091  0.3864 -0.0616  0.2290
 1885SOL    HW2 7593   3.582   1.929   3.184 -0.4949  2.2454 -0.3395
 1885SOL    HW3 7594   3.674   1.943   3.065 -0.5429  1.7437 -0.4366
 1885SOL    MW4 7595   3.599   1.915   3.100  0.1478  0.4810  0.0663
 1886SOL     OW 7596   3.828   2.035   2.992  0.0395 -0.6623 -0.1252
 1886SOL    HW2 7597   3.824   2.126   3.022 -0.7000 -1.2855  1.7195
 1886SOL    HW3 7598   3.834   2.042   2.897  0.5343  1.3283  0.0244
 1886SOL    MW4 7599   3.828   2.048   2.983  0.0074 -0.4818  0.1383
 1887SOL     OW 7600   3.811   2.311   3.062 -0.1260  0.3331 -0.1750
 1887SOL    HW2 7601   3.811   2.310   3.158  1.2079  0.0907 -0.1766
 1887SOL    HW3 7602   3.734   2.362   3.039 -0.6701  0.0749  1.0259
 1887SOL    MW4 7603   3.801   2.317   3.071 -0.0219  0.2670 -0.0167
 1888SOL     OW 7604   3.607   2.493   2.984  0.2631  0.0796 -0.0490
 1888SOL    HW2 7605   3.624   2.574   3.033  1.2474 -0.5506  0.6587
 1888SOL    HW3 7606   3.524   2.462   3.018  1.4951 -0.9672  2.0660
 1888SOL    MW4 7607   3.598   2.500   2.995  0.5558 -0.1419  0.3231
 1889SOL     OW 7608   3.567   2.735   3.135 -0.3258  0.3686  0.2990
 1889SOL    HW2 7609   3.644   2.768   3.089  0.6793 -0.6890  1.2066
 1889SOL    HW3 7610   3.494   2.751   3.074  0.5262  1.8458 -0.3443
 1889SOL    MW4 7611   3.567   2.741   3.121 -0.0806  0.4239  0.3338
 1890SOL     OW 7612   3.792   2.820   3.016  0.4098  0.2953  0.4278
 1890SOL    HW2 7613   3.792   2.906   3.059 -1.1635  0.4404  0.1487
 1890SOL    HW3 7614   3.800   2.840   2.923  1.9949  0.0465  0.4910
 1890SOL    MW4 7615   3.793   2.834   3.010  0.4113  0.2816  0.3994
 1891SOL     OW 7616   3.797   3.075   3.100  0.0418 -0.3553 -0.3132
 1891SOL    HW2 7617   3.877   3.120   3.070 -0.9416  2.2559  0.8028
 1891SOL    HW3 7618   3.726   3.124   3.060 -1.0891 -0.4832  1.4874
 1891SOL    MW4 7619   3.798   3.088   3.091 -0.2370 -0.0277  0.0715
 1892SOL     OW 7620   3.588   3.239   3.007 -0.0429  0.0468  1.1661
 1892SOL    HW2 7621   3.524   3.170   3.025 -0.4762 -0.0166 -0.5697
 1892SOL    HW3 7622   3.588   3.248   2.912 -0.0263  2.4758  1.3636
 1892SOL    MW4 7623   3.580   3.231   2.997 -0.0978  0.3588  0.9632
 1893SOL     OW 7624   3.608   3.501   3.122 -0.4264  0.3840  0.1155
 1893SOL    HW2 7625   3.693   3.535   3.094 -0.5688  0.8928  0.2928
 1893SOL    HW3 7626   3.613   3.407   3.104  1.0535 -0.0146  2.3474
 1893SOL    MW4 7627   3.620   3.493   3.116 -0.2501  0.3986  0.4334
 1894SOL     OW 7628   3.854   3.614   3.010 -0.4060 -0.0850  0.1362
 1894SOL    HW2 7629   3.840   3.706   3.030  0.9324  0.5181 -1.5260
 1894SOL    HW3 7630   3.817   3.603   2.922  1.2845 -0.6372 -0.5154
 1894SOL    MW4 7631   3.847   3.625   3.001 -0.0064 -0.0782 -0.1693
 1895SOL     OW 7632   3.810   3.879   3.101  0.1985  0.1059  0.0324
 1895SOL    HW2 7633   3.798   3.877   3.196  0.5052 -1.6066  0.0406
 1895SOL    HW3 7634   3.731   3.921   3.068  0.1714  0.8790  1.0483
 1895SOL    MW4 7635   3.798   3.885   3.109  0.2353 -0.0181  0.1674
 1896SOL     OW 7636   3.604   4.007   2.978  0.2869 -0.0159 -0.0741
 1896SOL    HW2 7637   3.528   3.956   3.003 -0.3968  1.2799  0.5748
 1896SOL    HW3 7638   3.608   4.000   2.882 -1.7483  1.4069 -0.2857
 1896SOL    MW4 7639   3.595   4.000   2.968 -0.0718  0.3426 -0.0165
 1897SOL     OW 7640   3.593   4.259   3.091 -0.4738 -0.0099  0.0040
 1897SOL    HW2 7641   3.678   4.293   3.062 -0.5694  0.4758  0.2886
 1897SOL    HW3 7642   3.587   4.172   3.050  0.5286 -0.3998  0.6618
 1897SOL    MW4 7643   3.604   4.252   3.082 -0.3543  0.0024  0.1283
 1898SOL     OW 7644   3.821   4.387   3.048  0.5280  0.1108 -0.2844
 1898SOL    HW2 7645   3.910   4.355   3.064 -0.5704 -4.0101 -1.8219
 1898SOL    HW3 7646   3.820   4.410   2.955  0.2601  1.1422 -0.0305
 1898SOL    MW4 7647   3.833   4.386   3.038  0.3476 -0.2961 -0.4537
 1899SOL     OW 7648   4.324   4.641   3.147  0.1021 -0.3688 -0.0554
 1899SOL    HW2 7649   4.284   4.626   3.232 -2.5853  1.8101 -0.8838
 1899SOL    HW3 7650   4.312   4.558   3.100  0.8261 -1.2867  1.3538
 1899SOL    MW4 7651   4.317   4.628   3.152 -0.1569 -0.2027  0.0210
 1900SOL     OW 7652   4.074   0.099   3.001  0.0776  0.4318  0.6187
 1900SOL    HW2 7653   4.142   0.053   3.052  0.9137  0.5978 -0.3411
 1900SOL    HW3 7654   3.991   0.069   3.040  0.6993  0.4679  2.0008
 1900SOL    MW4 7655   4.072   0.089   3.013  0.2699  0.4585  0.6745
 1901SOL     OW 7656   4.068   0.335   3.161 -0.3787  0.1120  0.6859
 1901SOL    HW2 7657   4.153   0.378   3.149 -1.0817  0.8066 -2.0743
 1901SOL    HW3 7658   4.085   0.244   3.138 -0.0737 -0.0757  1.5969
 1901SOL    MW4 7659   4.082   0.329   3.157 -0.4311  0.1789  0.4418
 1902SOL     OW 7660   4.280   0.469   3.068 -0.3506 -0.1452  0.3095
 1902SOL    HW2 7661   4.285   0.564   3.080  0.2588 -0.4182  2.4304
 1902SOL    HW3 7662   4.282   0.457   2.973  0.0120  1.9318  0.0219
 1902SOL    MW4 7663   4.281   0.480   3.057 -0.2222  0.0928  0.5512
 1903SOL     OW 7664   4.288   0.731   3.120 -0.3837 -0.7030  0.1269
 1903SOL    HW2 7665   4.207   0.760   3.079 -0.4988  0.1462  0.9341
 1903SOL    HW3 7666   4.354   0.793   3.088 -0.3315 -0.5006  0.6186
 1903SOL    MW4 7667   4.286   0.743   3.110 -0.3924 -0.5642  0.2983
 1904SOL     OW 7668   4.060   0.851   3.020 -0.2428 -0.0706  0.4484
 1904SOL    HW2 7669   4.074   0.942   3.046  0.3963  0.3293 -1.2275
 1904SOL    HW3 7670   4.060   0.853   2.925  0.5812 -1.9567  0.3936
 1904SOL    MW4 7671   4.062   0.864   3.011 -0.0501 -0.2667  0.2201
 1905SOL     OW 7672   4.048   1.113   3.103  0.2719 -0.4384 -0.5390
 1905SOL    HW2 7673   4.051   1.117   3.199  0.4054 -0.9303 -0.5201
 1905SOL    HW3 7674   3.967   1.158   3.079  0.3038 -0.2014 -0.2012
 1905SOL    MW4 7675   4.038   1.119   3.113  0.2942 -0.4721 -0.4921
 1906SOL     OW 7676   4.252   1.261   2.977 -0.1441 -0.2368  0.5550
 1906SOL    HW2 7677   4.175   1.217   3.012 -0.4115  0.3648  0.7366
 1906SOL    HW3 7678   4.242   1.255   2.882 -0.3272 -0.3104  0.5797
 1906SOL    MW4 7679   4.241   1.255   2.969 -0.2036 -0.1673  0.5822
 1907SOL     OW 7680   4.264   1.481   3.130  0.0208  0.2779 -0.5979
 1907SOL    HW2 7681   4.182   1.521   3.103  0.2558  0.8105 -0.5194
 1907SOL    HW3 7682   4.261   1.393   3.093 -0.5906  0.2919 -0.5841
 1907SOL    MW4 7683   4.253   1.474   3.122 -0.0286  0.3500 -0.5856
 1908SOL     OW 7684   4.035   1.622   2.998 -0.0279 -0.5365 -0.0751
 1908SOL    HW2 7685   4.041   1.708   3.039  1.4822 -0.9078  0.5361
 1908SOL    HW3 7686   3.948   1.590   3.021 -0.0638  0.2471  0.8927
 1908SOL    MW4 7687   4.024   1.629   3.007  0.1669 -0.4821  0.1333
 1909SOL     OW 7688   4.046   1.874   3.099  0.1231  0.0461  0.1875
 1909SOL    HW2 7689   4.126   1.914   3.065 -1.0395  1.7747 -0.5649
 1909SOL    HW3 7690   3.977   1.936   3.078 -1.2897 -0.9538  1.7365
 1909SOL    MW4 7691   4.048   1.887   3.092 -0.2170  0.1422  0.2923
 1910SOL     OW 7692   4.294   1.991   3.018  0.8630 -0.4124  0.0719
 1910SOL    HW2 7693   4.275   2.082   3.042 -0.0011 -0.9941  1.6972
 1910SOL    HW3 7694   4.284   1.988   2.923  0.6237  1.1385  0.0417
 1910SOL    MW4 7695   4.290   2.003   3.009  0.7176 -0.2844  0.2825
 1911SOL     OW 7696   4.260   2.258   3.085  0.3114 -0.0567  0.1202
 1911SOL    HW2 7697   4.190   2.310   3.044  1.1317 -0.0649 -1.3275
 1911SOL    HW3 7698   4.341   2.296   3.051  0.9545 -1.5838 -0.1076
 1911SOL    MW4 7699   4.261   2.270   3.075  0.5045 -0.2592 -0.1009
 1912SOL     OW 7700   4.038   2.419   2.985  0.1455 -0.1267 -0.0519
 1912SOL    HW2 7701   4.028   2.512   3.008 -0.2865 -0.8024  2.7657
 1912SOL    HW3 7702   3.955   2.379   3.012  0.7652 -1.5170 -0.1640
 1912SOL    MW4 7703   4.026   2.426   2.992  0.1707 -0.3991  0.3052
 1913SOL     OW 7704   4.020   2.684   3.083 -0.2775  0.2280 -0.2952
 1913SOL    HW2 7705   4.040   2.705   3.175  0.1768  0.6749 -0.4955
 1913SOL    HW3 7706   3.943   2.736   3.063 -0.2528  0.2915 -0.2297
 1913SOL    MW4 7707   4.013   2.694   3.093 -0.2141  0.2954 -0.3130
 1914SOL     OW 7708   4.252   2.789   2.970  0.4143  0.5546  0.1547
 1914SOL    HW2 7709   4.165   2.752   2.982  0.1399  1.2869  0.4188
 1914SOL    HW3 7710   4.308   2.739   3.029  0.2210 -0.0949 -0.2133
 1914SOL    MW4 7711   4.248   2.778   2.979  0.3524  0.5653  0.1411
 1915SOL     OW 7712   4.275   3.064   3.058  0.2101 -0.3123 -0.0733
 1915SOL    HW2 7713   4.188   3.097   3.036 -0.4517 -2.1178 -0.2424
 1915SOL    HW3 7714   4.274   2.972   3.030  2.1869 -0.3451 -0.1323
 1915SOL    MW4 7715   4.263   3.056   3.052  0.3839 -0.5550 -0.1035
 1916SOL     OW 7716   4.032   3.196   3.027  0.1092  0.3873  0.2543
 1916SOL    HW2 7717   4.039   3.289   3.049 -0.7692  0.4233  0.3776
 1916SOL    HW3 7718   4.033   3.194   2.931 -0.7387  0.5916  0.2408
 1916SOL    MW4 7719   4.033   3.208   3.017 -0.1183  0.4189  0.2689
 1917SOL     OW 7720   4.076   3.481   3.100 -0.3848  0.2538  0.1210
 1917SOL    HW2 7721   4.058   3.491   3.193  0.1166 -0.4405  0.2941
 1917SOL    HW3 7722   4.010   3.537   3.057 -2.1112 -1.2184  0.7857
 1917SOL    MW4 7723   4.065   3.490   3.107 -0.5465 -0.0324  0.2313
 1918SOL     OW 7724   4.300   3.617   3.024  0.2292 -0.1248  0.4151
 1918SOL    HW2 7725   4.298   3.707   3.057  1.9521 -0.6428  1.9514
 1918SOL    HW3 7726   4.216   3.580   3.051  0.4146  0.3626  1.7059
 1918SOL    MW4 7727   4.288   3.624   3.032  0.4807 -0.1287  0.7880
 1919SOL     OW 7728   4.255   3.873   3.125  0.1064  0.2058  0.0541
 1919SOL    HW2 7729   4.175   3.908   3.086  0.1297 -1.2137 -1.3362
 1919SOL    HW3 7730   4.325   3.927   3.088  0.0472 -0.5309 -1.1427
 1919SOL    MW4 7731   4.253   3.885   3.115  0.1011 -0.0787 -0.2873
 1920SOL     OW 7732   4.032   3.992   3.027 -0.2655 -0.3032  0.5612
 1920SOL    HW2 7733   4.024   4.078   3.069 -0.2663  0.8989 -1.8318
 1920SOL    HW3 7734   3.953   3.945   3.054  0.1337  0.1250  2.5603
 1920SOL    MW4 7735   4.020   3.997   3.036 -0.2131 -0.0885  0.5095
 1921SOL     OW 7736   4.075   4.281   3.113  0.3376 -0.0065 -0.0628
 1921SOL    HW2 7737   4.087   4.281   3.208 -1.8854  0.0368  0.2523
 1921SOL    HW3 7738   4.151   4.328   3.078  0.6231  0.9138  1.7621
 1921SOL    MW4 7739   4.086   4.287   3.121  0.0820  0.1211  0.2196
 1922SOL     OW 7740   4.304   4.412   3.003 -0.3676  0.4828 -0.2320
 1922SOL    HW2 7741   4.386   4.365   3.017 -0.7717 -0.2966 -0.4853
 1922SOL    HW3 7742   4.303   4.431   2.910  0.6273  2.5532  0.1429
 1922SOL    MW4 7743   4.315   4.408   2.993 -0.2894  0.6533 -0.2158
 1923SOL     OW 7744   0.192   4.660   3.361  0.6904 -0.0566 -0.1893
 1923SOL    HW2 7745   0.250   4.715   3.414  0.7453  0.7142 -1.0492
 1923SOL    HW3 7746   0.207   4.571   3.393  1.3131  0.3123  0.5440
 1923SOL    MW4 7747   0.201   4.656   3.372  0.7799  0.0935 -0.2060
 1924SOL     OW 7748   4.464   0.101   3.513 -0.1988 -0.2424  0.4043
 1924SOL    HW2 7749   4.485   0.192   3.490 -2.7042 -0.0949 -1.3981
 1924SOL    HW3 7750   4.520   0.049   3.455 -1.3073  0.1495 -1.0322
 1924SOL    MW4 7751   4.474   0.106   3.502 -0.6747 -0.1712 -0.0231
 1925SOL     OW 7752   0.007   0.367   3.433  0.2314  0.2942 -0.2458
 1925SOL    HW2 7753  -0.061   0.428   3.460 -0.8444 -1.2029  0.4899
 1925SOL    HW3 7754   0.088   0.403   3.469 -0.1478  2.1099 -1.1768
 1925SOL    MW4 7755   0.009   0.380   3.441  0.0394  0.3362 -0.2716
 1926SOL     OW 7756   0.249   0.495   3.526 -0.1702  0.1499 -0.1490
 1926SOL    HW2 7757   0.312   0.453   3.467 -0.6359  0.8357 -1.1485
 1926SOL    HW3 7758   0.248   0.587   3.498 -0.4793  0.4633  0.8578
 1926SOL    MW4 7759   0.258   0.502   3.515 -0.2724  0.2818 -0.1481
 1927SOL     OW 7760   0.251   0.747   3.421  0.1901 -0.2295  0.0467
 1927SOL    HW2 7761   0.328   0.803   3.426  1.0443 -1.4848  1.0513
 1927SOL    HW3 7762   0.180   0.800   3.457  0.8473  0.4592  0.3247
 1927SOL    MW4 7763   0.251   0.761   3.426  0.3895 -0.3043  0.2160
 1928SOL     OW 7764   0.046   0.890   3.530  0.3897  0.1663 -0.3366
 1928SOL    HW2 7765   0.027   0.890   3.624  0.7592 -0.3681 -0.2628
 1928SOL    HW3 7766   0.037   0.982   3.504 -2.1956 -0.0156 -0.2784
 1928SOL    MW4 7767   0.042   0.902   3.539  0.0978  0.0718 -0.3192
 1929SOL     OW 7768   0.009   1.136   3.381  0.0432  0.4774  0.5480
 1929SOL    HW2 7769   0.064   1.202   3.424  0.6662  0.4235 -0.1625
 1929SOL    HW3 7770   0.025   1.148   3.288  1.8809 -2.1308  0.4638
 1929SOL    MW4 7771   0.018   1.146   3.375  0.3676  0.1260  0.4430
 1930SOL     OW 7772   0.177   1.310   3.479  0.4312  0.0475  0.4850
 1930SOL    HW2 7773   0.265   1.273   3.478  0.9208  1.2351 -0.7277
 1930SOL    HW3 7774   0.180   1.384   3.419 -1.7365 -0.6806 -0.6163
 1930SOL    MW4 7775   0.189   1.315   3.471  0.2098  0.1080  0.1798
 1931SOL     OW 7776   0.206   1.538   3.329  0.2206  0.2892  0.2837
 1931SOL    HW2 7777   0.283   1.590   3.353  0.3138  0.3464 -0.1246
 1931SOL    HW3 7778   0.216   1.525   3.234 -0.1117  0.0335  0.2866
 1931SOL    MW4 7779   0.218   1.544   3.320  0.1891  0.2631  0.2301
 1932SOL     OW 7780   0.002   1.648   3.509  0.2017 -0.5986  0.2703
 1932SOL    HW2 7781  -0.075   1.593   3.492  0.6435 -0.7638 -1.3405
 1932SOL    HW3 7782   0.073   1.604   3.462  0.4783  1.5115 -1.3738
 1932SOL    MW4 7783   0.001   1.635   3.500  0.2966 -0.3420 -0.1590
 1933SOL     OW 7784   0.005   1.894   3.362 -0.0429 -0.0973 -0.0730
 1933SOL    HW2 7785  -0.006   1.817   3.418 -1.7152  0.7374  0.7560
 1933SOL    HW3 7786   0.031   1.857   3.277 -1.7688 -1.6409  0.0353
 1933SOL    MW4 7787   0.007   1.879   3.358 -0.4912 -0.1909  0.0508
 1934SOL     OW 7788   0.218   2.050   3.485  0.2491  0.0491 -0.1888
 1934SOL    HW2 7789   0.203   2.063   3.579 -0.0647  0.6583 -0.3236
 1934SOL    HW3 7790   0.152   1.985   3.459  0.2133  0.0196 -0.0252
 1934SOL    MW4 7791   0.207   2.043   3.494  0.2029  0.1259 -0.1850
 1935SOL     OW 7792   0.280   2.299   3.357  0.4837 -0.0012  0.7669
 1935SOL    HW2 7793   0.202   2.344   3.390  1.1219  0.5967  1.4780
 1935SOL    HW3 7794   0.273   2.210   3.392 -0.4885 -0.2984 -0.1684
 1935SOL    MW4 7795   0.269   2.293   3.366  0.4396  0.0386  0.7372
 1936SOL     OW 7796   0.038   2.425   3.448  0.0362 -0.5206 -0.0335
 1936SOL    HW2 7797   0.024   2.450   3.539 -0.2518  0.0870 -0.2445
 1936SOL    HW3 7798  -0.042   2.379   3.424 -0.7500  1.1188 -0.6013
 1936SOL    MW4 7799   0.026   2.422   3.457 -0.1055 -0.2244 -0.1364
 1937SOL     OW 7800   0.056   2.694   3.369 -0.3845  0.2620  0.5191
 1937SOL    HW2 7801   0.137   2.719   3.413 -0.9062  2.1703  0.4548
 1937SOL    HW3 7802   0.049   2.600   3.383  2.7881 -0.2783 -1.0809
 1937SOL    MW4 7803   0.065   2.685   3.377 -0.0347  0.4425  0.2997
 1938SOL     OW 7804   0.280   2.839   3.525 -0.2324 -0.1148 -0.0072
 1938SOL    HW2 7805   0.355   2.792   3.487 -1.0260 -0.4088 -1.2203
 1938SOL    HW3 7806   0.291   2.929   3.497 -0.7927 -0.3231 -0.9042
 1938SOL    MW4 7807   0.291   2.844   3.516 -0.4110 -0.1812 -0.2854
 1939SOL     OW 7808   0.258   3.084   3.402 -0.5124 -0.3288  0.0277
 1939SOL    HW2 7809   0.173   3.123   3.425  0.5100  1.7415  0.3934
 1939SOL    HW3 7810   0.253   3.069   3.308 -1.5525 -0.9348  0.1679
 1939SOL    MW4 7811   0.246   3.087   3.393 -0.5147 -0.1359  0.0944
 1940SOL     OW 7812   0.012   3.230   3.439 -0.1066 -0.2661 -0.1376
 1940SOL    HW2 7813  -0.069   3.196   3.401 -0.5690 -0.5066  1.0380
 1940SOL    HW3 7814   0.004   3.325   3.433 -1.4175 -0.2290  1.8785
 1940SOL    MW4 7815   0.000   3.238   3.433 -0.3405 -0.2930  0.2835
 1941SOL     OW 7816   0.043   3.521   3.410  0.4479 -0.1132 -0.2488
 1941SOL    HW2 7817  -0.039   3.561   3.438  0.1965 -0.1437 -0.9503
 1941SOL    HW3 7818   0.032   3.505   3.317  0.5895 -1.7033 -0.0143
 1941SOL    MW4 7819   0.031   3.524   3.402  0.4334 -0.3271 -0.3104
 1942SOL     OW 7820   0.265   3.635   3.504  0.3059  0.7331 -0.2807
 1942SOL    HW2 7821   0.250   3.616   3.597  0.9933 -0.2111 -0.3603
 1942SOL    HW3 7822   0.188   3.600   3.460  0.2351  0.6898 -0.1257
 1942SOL    MW4 7823   0.253   3.628   3.511  0.3872  0.6032 -0.2706
 1943SOL     OW 7824   0.211   3.902   3.434  0.0233 -0.4687  0.2726
 1943SOL    HW2 7825   0.126   3.933   3.466  0.5516 -0.8038  2.0471
 1943SOL    HW3 7826   0.204   3.806   3.439  0.2030 -0.5183 -0.3974
 1943SOL    MW4 7827   0.199   3.893   3.439  0.1168 -0.5198  0.4184
 1944SOL     OW 7828   4.442   4.016   3.492  0.0117  0.5514  0.4460
 1944SOL    HW2 7829   4.453   4.034   3.585 -2.5107  0.2910  0.8184
 1944SOL    HW3 7830   4.444   4.103   3.451 -0.1972  0.7647  0.8839
 1944SOL    MW4 7831   4.444   4.030   3.499 -0.3486  0.5450  0.5529
 1945SOL     OW 7832   4.458   4.294   3.395 -0.3657 -0.0174 -0.4597
 1945SOL    HW2 7833   4.381   4.331   3.439  0.5328 -0.6665  1.7291
 1945SOL    HW3 7834   4.531   4.348   3.427  0.5856 -1.8829  0.5825
 1945SOL    MW4 7835   4.458   4.306   3.405 -0.1217 -0.3495 -0.0331
 1946SOL     OW 7836   0.193   4.428   3.508 -0.2885 -0.0940  0.1193
 1946SOL    HW2 7837   0.208   4.440   3.602 -0.2471 -1.3651  0.2868
 1946SOL    HW3 7838   0.271   4.383   3.476 -0.9662 -1.0697 -0.2095
 1946SOL    MW4 7839   0.205   4.424   3.516 -0.3724 -0.3901  0.0980
 1947SOL     OW 7840   0.631   0.015   3.401  0.0835  0.0117 -0.0007
 1947SOL    HW2 7841   0.719   0.042   3.427  0.1426 -0.1974  0.0224
 1947SOL    HW3 7842   0.639  -0.006   3.308  0.0992 -0.1707  0.0407
 1947SOL    MW4 7843   0.644   0.016   3.392  0.0933 -0.0400  0.0076
 1948SOL     OW 7844   0.399   0.129   3.525 -0.4180  0.3152  0.5861
 1948SOL    HW2 7845   0.411   0.147   3.619 -0.2183  0.1550  0.5914
 1948SOL    HW3 7846   0.480   0.085   3.499 -0.3838  0.5579  0.2882
 1948SOL    MW4 7847   0.411   0.125   3.534 -0.3872  0.3261  0.5474
 1949SOL     OW 7848   0.441   0.376   3.388  0.7379  0.0191 -0.0853
 1949SOL    HW2 7849   0.518   0.406   3.437 -0.0203 -0.7907  1.6611
 1949SOL    HW3 7850   0.410   0.301   3.438 -1.7625  0.9272 -0.2338
 1949SOL    MW4 7851   0.447   0.370   3.401  0.3080  0.0321  0.1254
 1950SOL     OW 7852   0.673   0.497   3.503 -0.1541 -0.8255 -0.3548
 1950SOL    HW2 7853   0.667   0.495   3.598  0.3214  0.2438 -0.2965
 1950SOL    HW3 7854   0.759   0.459   3.484  0.5863  0.7749 -0.2508
 1950SOL    MW4 7855   0.684   0.491   3.513  0.0063 -0.4733 -0.3335
 1951SOL     OW 7856   0.682   0.750   3.386  0.0788  0.1381 -0.4640
 1951SOL    HW2 7857   0.600   0.784   3.422  0.8528  1.1183  0.4360
 1951SOL    HW3 7858   0.684   0.658   3.414 -0.2105  0.3970  0.4400
 1951SOL    MW4 7859   0.671   0.742   3.395  0.1427  0.3015 -0.2260
 1952SOL     OW 7860   0.485   0.900   3.497  0.7367  0.0514  0.1209
 1952SOL    HW2 7861   0.484   0.887   3.591  1.2663 -0.4071  0.0647
 1952SOL    HW3 7862   0.485   0.995   3.485  0.3198  0.1089  0.5741
 1952SOL    MW4 7863   0.485   0.910   3.508  0.7516 -0.0015  0.1736
 1953SOL     OW 7864   0.424   1.168   3.458 -0.0787 -0.3441  0.4603
 1953SOL    HW2 7865   0.502   1.210   3.495  0.0513 -1.1120  1.0734
 1953SOL    HW3 7866   0.439   1.166   3.364  0.3279  0.1433  0.5150
 1953SOL    MW4 7867   0.436   1.173   3.451 -0.0079 -0.3811  0.5484
 1954SOL     OW 7868   0.682   1.232   3.500  0.0920  0.0922 -0.0833
 1954SOL    HW2 7869   0.762   1.187   3.472  0.1417 -0.4380  0.8863
 1954SOL    HW3 7870   0.684   1.316   3.453  0.3228 -0.6402 -1.4051
 1954SOL    MW4 7871   0.693   1.237   3.490  0.1290 -0.0743 -0.1297
 1955SOL     OW 7872   0.676   1.484   3.388 -0.3168  0.0076  0.7414
 1955SOL    HW2 7873   0.749   1.532   3.428  0.0800  1.0779 -1.2228
 1955SOL    HW3 7874   0.598   1.527   3.422  0.0118  0.8637  0.4255
 1955SOL    MW4 7875   0.676   1.496   3.398 -0.2211  0.2617  0.4406
 1956SOL     OW 7876   0.439   1.649   3.442 -0.1224  0.2837 -0.1132
 1956SOL    HW2 7877   0.416   1.646   3.535 -1.2963 -1.2694 -0.4375
 1956SOL    HW3 7878   0.470   1.739   3.428 -1.0743  0.8837  1.5048
 1956SOL    MW4 7879   0.440   1.660   3.453 -0.4028  0.1580  0.0575
 1957SOL     OW 7880   0.463   1.918   3.408 -0.7051 -0.6339  0.1564
 1957SOL    HW2 7881   0.383   1.958   3.442 -1.8512 -2.3239 -0.4788
 1957SOL    HW3 7882   0.458   1.931   3.313 -0.8163 -1.7851 -0.0008
 1957SOL    MW4 7883   0.452   1.925   3.400 -0.8710 -1.0087  0.0520
 1958SOL     OW 7884   0.671   2.062   3.497  0.2948  0.3771  0.0324
 1958SOL    HW2 7885   0.673   2.072   3.593 -0.0096 -0.5743  0.1398
 1958SOL    HW3 7886   0.584   2.028   3.478  0.9053 -0.9414 -0.4313
 1958SOL    MW4 7887   0.660   2.059   3.507  0.3352  0.0775 -0.0145
 1959SOL     OW 7888   0.710   2.303   3.367  0.3368  0.2629 -0.0630
 1959SOL    HW2 7889   0.778   2.344   3.421  0.3299 -0.5149  0.5483
 1959SOL    HW3 7890   0.693   2.219   3.410  0.4098 -0.4201 -1.3577
 1959SOL    MW4 7891   0.717   2.297   3.380  0.3454  0.0701 -0.1533
 1960SOL     OW 7892   0.504   2.421   3.494 -0.0363  0.1608 -0.1634
 1960SOL    HW2 7893   0.580   2.384   3.450 -0.3599 -0.8026  0.0609
 1960SOL    HW3 7894   0.431   2.367   3.465 -0.0667 -1.4172  2.5904
 1960SOL    MW4 7895   0.504   2.409   3.485 -0.0830 -0.1745  0.2296
 1961SOL     OW 7896   0.476   2.693   3.411 -0.0300 -0.4005 -0.0369
 1961SOL    HW2 7897   0.502   2.602   3.424  0.1789 -0.4917 -1.0607
 1961SOL    HW3 7898   0.470   2.703   3.316  0.5017  0.7983  0.0422
 1961SOL    MW4 7899   0.479   2.682   3.400  0.0677 -0.2542 -0.1616
 1962SOL     OW 7900   0.697   2.820   3.513 -0.4890 -0.2297  0.6962
 1962SOL    HW2 7901   0.772   2.774   3.478 -0.4151  0.3209  0.1154
 1962SOL    HW3 7902   0.621   2.772   3.481 -0.4019 -0.1963  0.4383
 1962SOL    MW4 7903   0.697   2.808   3.504 -0.4677 -0.1528  0.5853
 1963SOL     OW 7904   0.690   3.093   3.425 -0.0497  0.2503  0.1824
 1963SOL    HW2 7905   0.607   3.129   3.454  0.0126  0.7857 -0.3029
 1963SOL    HW3 7906   0.689   3.002   3.455 -0.8366  0.2361  0.1070
 1963SOL    MW4 7907   0.679   3.085   3.433 -0.1453  0.3190  0.1082
 1964SOL     OW 7908   0.465   3.233   3.487 -0.1752 -0.1767  0.2236
 1964SOL    HW2 7909   0.442   3.247   3.579  1.0043  1.0142  0.3498
 1964SOL    HW3 7910   0.385   3.198   3.448 -0.9639  0.1365  1.5164
 1964SOL    MW4 7911   0.451   3.230   3.494 -0.1236  0.0217  0.4108
 1965SOL     OW 7912   0.491   3.493   3.410  0.2224  0.1260  0.3229
 1965SOL    HW2 7913   0.483   3.409   3.454 -0.7701 -0.4492 -0.9205
 1965SOL    HW3 7914   0.421   3.547   3.449 -1.2891 -0.6886 -1.1670
 1965SOL    MW4 7915   0.480   3.489   3.421 -0.1079 -0.0575 -0.0379
 1966SOL     OW 7916   0.703   3.652   3.517  0.2752  0.4038 -0.5012
 1966SOL    HW2 7917   0.778   3.593   3.504 -0.8307 -0.9553 -0.8571
 1966SOL    HW3 7918   0.629   3.604   3.479 -1.0953  0.9767  1.3917
 1966SOL    MW4 7919   0.703   3.638   3.510 -0.0516  0.3002 -0.2985
 1967SOL     OW 7920   0.711   3.919   3.426 -0.4071 -0.7061  0.1293
 1967SOL    HW2 7921   0.621   3.952   3.438  0.2026 -0.1316  3.6410
 1967SOL    HW3 7922   0.708   3.830   3.461  0.4920 -0.5313  0.6520
 1967SOL    MW4 7923   0.698   3.911   3.432 -0.2080 -0.6073  0.6616
 1968SOL     OW 7924   0.442   4.032   3.515 -0.0117  0.5098 -0.2548
 1968SOL    HW2 7925   0.427   4.123   3.490 -1.0962  0.7581  1.2659
 1968SOL    HW3 7926   0.362   3.987   3.488  0.5228 -0.0020 -1.0032
 1968SOL    MW4 7927   0.430   4.038   3.508 -0.0843  0.4749 -0.1531
 1969SOL     OW 7928   0.411   4.284   3.418 -0.1665  0.2239 -0.0061
 1969SOL    HW2 7929   0.496   4.326   3.433 -0.6710  1.8283 -1.3724
 1969SOL    HW3 7930   0.408   4.270   3.323 -1.3317 -0.0348  0.0557
 1969SOL    MW4 7931   0.422   4.288   3.407 -0.3867  0.4010 -0.1781
 1970SOL     OW 7932   0.656   4.423   3.497 -0.2822 -0.1293  0.3297
 1970SOL    HW2 7933   0.738   4.381   3.470  0.1686 -0.2515  1.8053
 1970SOL    HW3 7934   0.660   4.511   3.460  0.4177 -0.2149  0.2032
 1970SOL    MW4 7935   0.667   4.429   3.489 -0.1304 -0.1564  0.5078
 1971SOL     OW 7936   1.119   4.658   3.460  0.0100 -0.2166  0.0210
 1971SOL    HW2 7937   1.202   4.705   3.474 -1.3694  2.5284 -0.5813
 1971SOL    HW3 7938   1.101   4.669   3.367 -1.5102  0.0553  0.3391
 1971SOL    MW4 7939   1.127   4.666   3.450 -0.3725  0.1817 -0.0165
 1972SOL     OW 7940   0.890   0.131   3.534 -0.2317  0.4469  0.4440
 1972SOL    HW2 7941   0.853   0.108   3.619  0.4434 -0.3244  0.5372
 1972SOL    HW3 7942   0.976   0.089   3.533  0.2316  1.3866 -0.1663
 1972SOL    MW4 7943   0.897   0.123   3.545 -0.0815  0.4691  0.3757
 1973SOL     OW 7944   0.923   0.385   3.433  0.0892  0.3141  0.3326
 1973SOL    HW2 7945   1.012   0.422   3.436  0.5399 -0.7442  0.1498
 1973SOL    HW3 7946   0.929   0.304   3.483 -0.6095 -0.1178 -0.2687
 1973SOL    MW4 7947   0.936   0.379   3.440  0.0565  0.1174  0.2294
 1974SOL     OW 7948   1.158   0.497   3.487 -0.6640  0.2828  0.1311
 1974SOL    HW2 7949   1.166   0.487   3.582 -0.6798  0.1853  0.1223
 1974SOL    HW3 7950   1.137   0.590   3.474 -1.7377  0.0625  0.2811
 1974SOL    MW4 7951   1.157   0.508   3.498 -0.8076  0.2409  0.1500
 1975SOL     OW 7952   1.119   0.766   3.415  0.2823 -0.3992  0.0595
 1975SOL    HW2 7953   1.192   0.828   3.424 -0.7006  0.7948 -0.1073
 1975SOL    HW3 7954   1.047   0.807   3.462 -0.5408 -1.1532 -0.5416
 1975SOL    MW4 7955   1.119   0.780   3.422  0.0439 -0.3411 -0.0420
 1976SOL     OW 7956   0.890   0.867   3.531  0.2761 -0.1062  0.2488
 1976SOL    HW2 7957   0.878   0.951   3.488  1.4912 -0.8523 -1.6608
 1976SOL    HW3 7958   0.824   0.810   3.491  0.6223 -0.4903  0.2126
 1976SOL    MW4 7959   0.880   0.870   3.520  0.4820 -0.2553 -0.0081
 1977SOL     OW 7960   0.907   1.141   3.387  0.4790 -0.1250 -0.1633
 1977SOL    HW2 7961   0.982   1.195   3.410 -0.2369  0.9042 -0.2119
 1977SOL    HW3 7962   0.894   1.157   3.293  0.3778 -0.5308 -0.2210
 1977SOL    MW4 7963   0.915   1.150   3.378  0.3712 -0.0427 -0.1774
 1978SOL     OW 7964   1.110   1.296   3.489  0.3442 -0.5173 -0.6823
 1978SOL    HW2 7965   1.101   1.306   3.584 -2.5827 -0.4579 -0.8978
 1978SOL    HW3 7966   1.102   1.385   3.454 -0.3242 -0.7184 -1.0636
 1978SOL    MW4 7967   1.108   1.309   3.497 -0.1303 -0.5361 -0.7613
 1979SOL     OW 7968   1.091   1.536   3.375  0.1982 -0.5011  0.1653
 1979SOL    HW2 7969   1.174   1.574   3.403  0.3162  1.2566 -2.3564
 1979SOL    HW3 7970   1.096   1.537   3.279 -1.9554 -2.1522 -0.0018
 1979SOL    MW4 7971   1.103   1.541   3.366 -0.0703 -0.4871 -0.1898
 1980SOL     OW 7972   0.868   1.664   3.507 -0.3672 -0.3775 -0.3618
 1980SOL    HW2 7973   0.870   1.752   3.468 -2.3270 -0.3617 -0.4883
 1980SOL    HW3 7974   0.950   1.624   3.480  1.7888  2.3280  1.8724
 1980SOL    MW4 7975   0.879   1.670   3.498 -0.3414 -0.0185 -0.0837
 1981SOL     OW 7976   0.872   1.890   3.371 -0.5173  0.2733 -0.2561
 1981SOL    HW2 7977   0.944   1.937   3.412  0.3464 -1.1609 -0.0738
 1981SOL    HW3 7978   0.793   1.921   3.416  0.2550 -0.0656  1.3604
 1981SOL    MW4 7979   0.871   1.900   3.382 -0.3015  0.0395 -0.0191
 1982SOL     OW 7980   1.113   2.010   3.456  0.4541  0.4075 -0.2381
 1982SOL    HW2 7981   1.188   1.956   3.432  0.0514 -0.7242  0.9512
 1982SOL    HW3 7982   1.124   2.091   3.406  1.2026 -0.6813 -1.8609
 1982SOL    MW4 7983   1.124   2.014   3.446  0.4998  0.1144 -0.2952
 1983SOL     OW 7984   1.136   2.288   3.378 -0.0412  0.1198  0.4087
 1983SOL    HW2 7985   1.213   2.334   3.411 -0.0570 -0.7416  1.6637
 1983SOL    HW3 7986   1.124   2.323   3.290  2.1779 -0.2253 -0.0606
 1983SOL    MW4 7987   1.144   2.299   3.371  0.2495 -0.0393  0.5121
 1984SOL     OW 7988   0.928   2.403   3.521 -0.2211  0.3296  0.0451
 1984SOL    HW2 7989   0.934   2.385   3.615 -0.0004  0.4843  0.0594
 1984SOL    HW3 7990   1.004   2.360   3.483 -0.2467  0.3683 -0.0504
 1984SOL    MW4 7991   0.939   2.395   3.529 -0.1954  0.3552  0.0343
 1985SOL     OW 7992   0.904   2.668   3.424  0.0226 -0.1593  0.1773
 1985SOL    HW2 7993   0.982   2.710   3.461 -0.3192  0.7863 -0.1704
 1985SOL    HW3 7994   0.903   2.581   3.465 -0.0307  0.6582  1.9930
 1985SOL    MW4 7995   0.914   2.662   3.434 -0.0295  0.0734  0.3710
 1986SOL     OW 7996   1.120   2.804   3.543 -0.0233  0.1688  0.2106
 1986SOL    HW2 7997   1.146   2.802   3.635  1.2511 -1.3778 -0.1710
 1986SOL    HW3 7998   1.193   2.764   3.497 -1.0574  0.0998 -1.3898
 1986SOL    MW4 7999   1.133   2.799   3.549  0.0082 -0.0441 -0.0510
 1987SOL     OW 8000   1.134   3.079   3.429  0.3108  0.0732 -0.3103
 1987SOL    HW2 8001   1.118   2.989   3.459  0.4552  0.0987 -0.1564
 1987SOL    HW3 8002   1.128   3.074   3.333  0.4380 -0.1230 -0.3081
 1987SOL    MW4 8003   1.131   3.066   3.420  0.3467  0.0510 -0.2899
 1988SOL     OW 8004   0.916   3.224   3.524 -0.1406  0.1472 -0.4762
 1988SOL    HW2 8005   0.986   3.165   3.497 -0.5885 -0.9814  0.7849
 1988SOL    HW3 8006   0.835   3.176   3.505 -0.5276  0.6760 -0.1876
 1988SOL    MW4 8007   0.914   3.210   3.518 -0.2508  0.0682 -0.2718
 1989SOL     OW 8008   0.934   3.489   3.429 -0.1322 -0.4841  0.2453
 1989SOL    HW2 8009   0.931   3.395   3.444  0.1142 -0.6983 -1.0548
 1989SOL    HW3 8010   0.928   3.499   3.334  0.1938  0.7899  0.3480
 1989SOL    MW4 8011   0.933   3.478   3.419 -0.0567 -0.3440  0.0870
 1990SOL     OW 8012   1.146   3.621   3.530  0.3247  0.1152 -0.0806
 1990SOL    HW2 8013   1.137   3.621   3.625 -0.9885  1.4290 -0.2011
 1990SOL    HW3 8014   1.065   3.581   3.498  1.3024 -1.5148 -0.6253
 1990SOL    MW4 8015   1.134   3.616   3.538  0.2804  0.0734 -0.1686
 1991SOL     OW 8016   1.102   3.878   3.450 -0.0953 -0.1185  0.1120
 1991SOL    HW2 8017   1.179   3.923   3.485  1.2746 -1.5174 -1.0516
 1991SOL    HW3 8018   1.110   3.789   3.482  0.7537 -1.2297 -2.9934
 1991SOL    MW4 8019   1.114   3.872   3.459  0.1974 -0.4497 -0.4513
 1992SOL     OW 8020   0.898   4.035   3.578  0.3901 -0.1354 -0.4204
 1992SOL    HW2 8021   0.975   3.985   3.552  1.1638  1.6934 -1.7810
 1992SOL    HW3 8022   0.825   3.995   3.531  0.6351 -1.3854  0.2605
 1992SOL    MW4 8023   0.898   4.023   3.568  0.5245 -0.0591 -0.5102
 1993SOL     OW 8024   0.906   4.291   3.455  0.4354 -0.3822  0.0467
 1993SOL    HW2 8025   0.897   4.209   3.505  0.1490 -0.7184 -0.5576
 1993SOL    HW3 8026   0.889   4.266   3.365 -2.1018  0.8017  0.1702
 1993SOL    MW4 8027   0.903   4.277   3.450  0.0629 -0.2704 -0.0167
 1994SOL     OW 8028   1.150   4.394   3.529  0.2436  0.0546 -0.1167
 1994SOL    HW2 8029   1.066   4.358   3.499 -0.4507  0.5665  1.1720
 1994SOL    HW3 8030   1.144   4.488   3.509  1.0245 -0.1170 -1.1725
 1994SOL    MW4 8031   1.138   4.402   3.522  0.2551  0.0997 -0.0861
 1995SOL     OW 8032   1.559   4.665   3.429  0.5757 -0.1723  0.6336
 1995SOL    HW2 8033   1.594   4.590   3.477  0.2053 -0.0173  1.1427
 1995SOL    HW3 8034   1.483   4.693   3.479 -0.3807 -0.6012 -0.5438
 1995SOL    MW4 8035   1.553   4.659   3.442  0.4008 -0.2084  0.5455
 1996SOL     OW 8036   1.341   0.121   3.534 -0.4821 -0.3615  0.1417
 1996SOL    HW2 8037   1.348   0.124   3.629 -0.0062 -0.1555  0.1052
 1996SOL    HW3 8038   1.370   0.208   3.505  1.2154 -1.0532 -0.2956
 1996SOL    MW4 8039   1.346   0.133   3.543 -0.1953 -0.4256  0.0792
 1997SOL     OW 8040   1.398   0.383   3.414  0.3341  0.1442 -0.0511
 1997SOL    HW2 8041   1.467   0.437   3.452 -0.3396  0.0277  1.3970
 1997SOL    HW3 8042   1.317   0.424   3.444 -0.1906 -1.3941  0.6878
 1997SOL    MW4 8043   1.396   0.396   3.423  0.1761 -0.0741  0.2372
 1998SOL     OW 8044   1.592   0.550   3.498  0.3077  0.5341  0.1541
 1998SOL    HW2 8045   1.588   0.546   3.593  1.5104  3.4501  0.3799
 1998SOL    HW3 8046   1.679   0.517   3.476 -0.4142 -1.2848 -0.0508
 1998SOL    MW4 8047   1.603   0.545   3.507  0.3711  0.6788  0.1569
 1999SOL     OW 8048   1.547   0.777   3.351 -0.0085  0.0783 -0.1453
 1999SOL    HW2 8049   1.479   0.831   3.391 -0.7527 -0.3791 -0.7731
 1999SOL    HW3 8050   1.547   0.696   3.403  0.4871  0.3261  0.2402
 1999SOL    MW4 8051   1.538   0.773   3.363 -0.0412  0.0505 -0.1776
 2000SOL     OW 8052   1.353   0.917   3.493 -0.0132 -0.1845  0.2753
 2000SOL    HW2 8053   1.360   0.926   3.588 -1.2235 -1.0412  0.4512
 2000SOL    HW3 8054   1.349   1.007   3.461  0.2202  0.1072  1.0420
 2000SOL    MW4 8055   1.354   0.930   3.502 -0.1421 -0.2590  0.3998
 2001SOL     OW 8056   1.340   1.183   3.385 -0.0698  0.5222  0.0261
 2001SOL    HW2 8057   1.418   1.207   3.436 -0.3310 -0.0702  0.7041
 2001SOL    HW3 8058   1.267   1.221   3.433 -0.3677 -0.5308  0.3984
 2001SOL    MW4 8059   1.341   1.191   3.398 -0.1435  0.3052  0.1650
 2002SOL     OW 8060   1.575   1.290   3.503 -0.0213 -0.1556  0.0206
 2002SOL    HW2 8061   1.585   1.279   3.597 -0.1193  1.0312  0.1789
 2002SOL    HW3 8062   1.655   1.253   3.465  0.4456  0.2384  0.6237
 2002SOL    MW4 8063   1.587   1.283   3.510  0.0273  0.0530  0.1209
 2003SOL     OW 8064   1.557   1.548   3.371 -0.3887 -0.2423 -0.2081
 2003SOL    HW2 8065   1.563   1.465   3.418 -0.6344  0.5319  1.2243
 2003SOL    HW3 8066   1.551   1.523   3.279 -0.9566 -1.8242  0.2362
 2003SOL    MW4 8067   1.557   1.534   3.365 -0.4960 -0.3488  0.0391
 2004SOL     OW 8068   1.315   1.661   3.473  0.1911  0.1381  0.5618
 2004SOL    HW2 8069   1.315   1.654   3.569  1.3650 -0.1423  0.5461
 2004SOL    HW3 8070   1.401   1.629   3.446 -0.1694  0.1165 -0.6014
 2004SOL    MW4 8071   1.327   1.656   3.482  0.2985  0.0983  0.4065
 2005SOL     OW 8072   1.338   1.905   3.360 -0.3458 -0.7090 -0.5727
 2005SOL    HW2 8073   1.418   1.926   3.409 -0.7176 -0.8935  0.1070
 2005SOL    HW3 8074   1.324   1.812   3.375 -0.4704 -0.7656 -1.0258
 2005SOL    MW4 8075   1.347   1.896   3.368 -0.4114 -0.7409 -0.5429
 2006SOL     OW 8076   1.550   2.008   3.486  0.7723 -0.3306  0.0607
 2006SOL    HW2 8077   1.638   1.987   3.455  0.6684  0.4860 -0.8026
 2006SOL    HW3 8078   1.529   2.091   3.444 -0.0477 -0.0563  1.0030
 2006SOL    MW4 8079   1.559   2.016   3.477  0.6504 -0.1864  0.0713
 2007SOL     OW 8080   1.546   2.264   3.376  0.1299 -0.8009  0.7473
 2007SOL    HW2 8081   1.469   2.313   3.406  0.0058 -0.4385 -0.1244
 2007SOL    HW3 8082   1.550   2.283   3.282  0.4297 -1.9884  0.5141
 2007SOL    MW4 8083   1.536   2.273   3.367  0.1529 -0.9096  0.6015
 2008SOL     OW 8084   1.338   2.413   3.498 -0.3720 -0.1878 -0.2290
 2008SOL    HW2 8085   1.350   2.419   3.593  1.2885 -1.2042 -0.3627
 2008SOL    HW3 8086   1.330   2.504   3.469  0.2612  0.1804  0.7340
 2008SOL    MW4 8087   1.339   2.426   3.507 -0.0693 -0.2732 -0.1197
 2009SOL     OW 8088   1.331   2.691   3.410  0.3681 -0.4721 -0.0099
 2009SOL    HW2 8089   1.395   2.756   3.438  2.8468 -2.0561 -1.8473
 2009SOL    HW3 8090   1.338   2.689   3.315 -1.6636 -1.4660 -0.1757
 2009SOL    MW4 8091   1.340   2.699   3.401  0.4271 -0.8123 -0.2744
 2010SOL     OW 8092   1.533   2.863   3.497 -0.0078  0.1763 -0.4145
 2010SOL    HW2 8093   1.603   2.809   3.459  1.4460  1.8891 -0.2640
 2010SOL    HW3 8094   1.537   2.945   3.447 -1.0772  0.7616  0.4430
 2010SOL    MW4 8095   1.543   2.867   3.485  0.0428  0.4792 -0.2816
 2011SOL     OW 8096   1.546   3.105   3.379  0.0548 -0.4701  0.1796
 2011SOL    HW2 8097   1.627   3.143   3.414  1.1425 -3.4385  0.9955
 2011SOL    HW3 8098   1.476   3.158   3.417  1.5169  0.6012  1.4367
 2011SOL    MW4 8099   1.547   3.117   3.389  0.3912 -0.7203  0.4528
 2012SOL     OW 8100   1.337   3.241   3.488  0.3631  0.4217 -0.3167
 2012SOL    HW2 8101   1.362   3.226   3.580  1.0070  0.8995 -0.4065
 2012SOL    HW3 8102   1.263   3.182   3.473 -0.1898  0.8484  0.7107
 2012SOL    MW4 8103   1.331   3.231   3.498  0.3753  0.5412 -0.1929
 2013SOL     OW 8104   1.359   3.508   3.405 -0.3764 -0.0293  0.1970
 2013SOL    HW2 8105   1.360   3.417   3.434  0.7945 -0.7993 -2.1512
 2013SOL    HW3 8106   1.282   3.546   3.448  0.3868 -1.4818  2.9835
 2013SOL    MW4 8107   1.349   3.501   3.415 -0.1212 -0.3226  0.2546
 2014SOL     OW 8108   1.580   3.617   3.529  0.1134 -0.7459  0.3146
 2014SOL    HW2 8109   1.548   3.628   3.619  1.5465 -0.8588  0.8532
 2014SOL    HW3 8110   1.501   3.602   3.477 -0.6751 -1.3539  1.6614
 2014SOL    MW4 8111   1.566   3.616   3.534  0.1984 -0.8409  0.5634
 2015SOL     OW 8112   1.564   3.885   3.464 -0.0416 -0.3293  0.0792
 2015SOL    HW2 8113   1.582   3.800   3.504  0.2781 -0.3672 -0.1393
 2015SOL    HW3 8114   1.566   3.868   3.370  0.7532  0.0619  0.0203
 2015SOL    MW4 8115   1.567   3.871   3.457  0.1055 -0.2825  0.0424
 2016SOL     OW 8116   1.324   4.020   3.521  0.1938 -0.0261  0.1363
 2016SOL    HW2 8117   1.344   4.107   3.487 -0.7983  0.3445  0.4704
 2016SOL    HW3 8118   1.404   3.969   3.507  0.4519  0.6645 -0.9446
 2016SOL    MW4 8119   1.337   4.025   3.515  0.0969  0.1135  0.0377
 2017SOL     OW 8120   1.379   4.278   3.421  0.0709  0.5503 -0.3712
 2017SOL    HW2 8121   1.303   4.326   3.454 -0.7269 -0.0690 -1.2632
 2017SOL    HW3 8122   1.371   4.284   3.326  1.7196  1.3632 -0.4835
 2017SOL    MW4 8123   1.368   4.285   3.413  0.1832  0.5760 -0.5035
 2018SOL     OW 8124   1.615   4.412   3.539  0.3559 -0.1746  0.0282
 2018SOL    HW2 8125   1.697   4.377   3.503  0.0821  0.1222 -0.8962
 2018SOL    HW3 8126   1.547   4.356   3.503 -0.1094  1.4349 -1.6773
 2018SOL    MW4 8127   1.617   4.400   3.529  0.2584  0.0768 -0.3190
 2019SOL     OW 8128   1.999   4.634   3.433 -0.2261  0.2759 -0.7972
 2019SOL    HW2 8129   2.082   4.682   3.434 -0.7311  1.1924 -1.7165
 2019SOL    HW3 8130   1.936   4.693   3.474 -0.8097  0.3534 -1.7667
 2019SOL    MW4 8131   2.002   4.648   3.438 -0.3698  0.4067 -1.0467
 2020SOL     OW 8132   1.790   0.131   3.533 -0.0718  0.0792  0.1963
 2020SOL    HW2 8133   1.796   0.146   3.628  0.1023 -0.0960  0.2134
 2020SOL    HW3 8134   1.700   0.104   3.518  0.0918 -0.5886  0.4093
 2020SOL    MW4 8135   1.779   0.130   3.544 -0.0273 -0.0320  0.2267
 2021SOL     OW 8136   1.805   0.363   3.409 -0.6627  0.1503 -0.0618
 2021SOL    HW2 8137   1.796   0.277   3.450 -0.7581  0.0511 -0.2881
 2021SOL    HW3 8138   1.766   0.352   3.322 -0.4472  0.3550 -0.1834
 2021SOL    MW4 8139   1.799   0.350   3.403 -0.6466  0.1642 -0.1078
 2022SOL     OW 8140   2.027   0.480   3.478 -0.2902  0.0879  0.0931
 2022SOL    HW2 8141   2.022   0.573   3.460 -1.1467 -0.3448 -2.0431
 2022SOL    HW3 8142   1.951   0.442   3.434  0.4174 -1.7120  0.3406
 2022SOL    MW4 8143   2.016   0.487   3.470 -0.3099 -0.2066 -0.1559
 2023SOL     OW 8144   1.992   0.752   3.447 -0.0631  0.5323  0.0774
 2023SOL    HW2 8145   2.059   0.794   3.501  0.0676  1.1498 -0.5424
 2023SOL    HW3 8146   1.998   0.799   3.363  0.5504 -1.1826 -0.8588
 2023SOL    MW4 8147   2.002   0.764   3.443  0.0350  0.3875 -0.1278
 2024SOL     OW 8148   1.750   0.869   3.541  0.1040  0.2567 -0.1572
 2024SOL    HW2 8149   1.823   0.820   3.503  0.1410  0.3030 -0.1457
 2024SOL    HW3 8150   1.680   0.862   3.475  0.4375  1.0190 -0.5989
 2024SOL    MW4 8151   1.750   0.862   3.527  0.1529  0.3634 -0.2139
 2025SOL     OW 8152   1.776   1.124   3.410 -0.3358  0.3242  0.3327
 2025SOL    HW2 8153   1.853   1.165   3.450  0.4486 -0.6572 -0.1607
 2025SOL    HW3 8154   1.770   1.038   3.452 -2.2760  1.1200  1.7274
 2025SOL    MW4 8155   1.786   1.118   3.420 -0.4884  0.2997  0.4516
 2026SOL     OW 8156   1.991   1.271   3.514 -0.4325 -0.2599 -0.0536
 2026SOL    HW2 8157   1.972   1.283   3.607 -1.9677  0.7869 -0.4843
 2026SOL    HW3 8158   2.011   1.359   3.482 -2.7583 -0.1591 -1.3054
 2026SOL    MW4 8159   1.991   1.284   3.522 -0.9419 -0.1087 -0.2756
 2027SOL     OW 8160   2.052   1.509   3.397 -0.6934  0.6636  0.1155
 2027SOL    HW2 8161   2.120   1.562   3.439 -1.0934  0.8400  0.5493
 2027SOL    HW3 8162   1.976   1.567   3.393 -0.8911  0.3868 -0.1433
 2027SOL    MW4 8163   2.051   1.524   3.402 -0.7722  0.6504  0.1385
 2028SOL     OW 8164   1.815   1.661   3.409 -0.2259  0.3525  0.1564
 2028SOL    HW2 8165   1.803   1.752   3.381 -0.2952 -0.7234 -3.4869
 2028SOL    HW3 8166   1.732   1.618   3.390  0.1393 -0.7200  0.9154
 2028SOL    MW4 8167   1.803   1.667   3.403 -0.1869  0.0691 -0.2241
 2029SOL     OW 8168   1.791   1.935   3.370  0.2109  0.0992  0.3631
 2029SOL    HW2 8169   1.852   1.989   3.421 -0.3532  0.0501  1.1007
 2029SOL    HW3 8170   1.797   1.969   3.281  2.3412 -0.8127  0.1421
 2029SOL    MW4 8171   1.800   1.947   3.365  0.4175 -0.0277  0.4313
 2030SOL     OW 8172   1.992   2.100   3.519  0.3267  0.3953 -0.2640
 2030SOL    HW2 8173   2.059   2.054   3.468 -1.1104 -0.5532 -1.3211
 2030SOL    HW3 8174   2.006   2.193   3.498  0.8250  0.1475 -1.0656
 2030SOL    MW4 8175   2.003   2.106   3.510  0.2029  0.2375 -0.5093
 2031SOL     OW 8176   2.012   2.372   3.426 -0.2157 -0.1308 -0.1935
 2031SOL    HW2 8177   2.090   2.394   3.477  0.3530 -0.5868 -0.8625
 2031SOL    HW3 8178   2.044   2.360   3.336 -1.0266 -0.4604 -0.4448
 2031SOL    MW4 8179   2.027   2.373   3.421 -0.2477 -0.2346 -0.3147
 2032SOL     OW 8180   1.755   2.438   3.464 -0.1823 -0.0242 -0.3900
 2032SOL    HW2 8181   1.844   2.408   3.449 -0.1414  0.3201 -0.8643
 2032SOL    HW3 8182   1.699   2.366   3.435 -0.0737  0.1186 -0.9627
 2032SOL    MW4 8183   1.759   2.425   3.458 -0.1625  0.0401 -0.5281
 2033SOL     OW 8184   1.758   2.698   3.388  0.0708  0.0063  0.4027
 2033SOL    HW2 8185   1.835   2.715   3.444 -0.6375  1.5883  0.9371
 2033SOL    HW3 8186   1.739   2.605   3.402  0.6534  0.0822  1.8651
 2033SOL    MW4 8187   1.766   2.688   3.398  0.0542  0.2251  0.6661
 2034SOL     OW 8188   1.993   2.786   3.516  0.1486  0.2476  0.2630
 2034SOL    HW2 8189   2.003   2.807   3.609  2.5832  1.1569 -0.1438
 2034SOL    HW3 8190   1.973   2.870   3.474 -3.2842 -0.5329  0.2051
 2034SOL    MW4 8191   1.992   2.799   3.522  0.0170  0.2646  0.2017
 2035SOL     OW 8192   2.004   3.051   3.404 -0.8010 -0.4682  0.3580
 2035SOL    HW2 8193   2.089   3.089   3.427 -1.2162  1.6099 -1.3127
 2035SOL    HW3 8194   1.940   3.111   3.442 -1.4960 -0.3349 -0.9866
 2035SOL    MW4 8195   2.007   3.064   3.412 -0.9475 -0.1762 -0.0398
 2036SOL     OW 8196   1.779   3.191   3.506  0.1437  0.1207  0.2410
 2036SOL    HW2 8197   1.765   3.190   3.601  0.7282 -0.4407  0.3294
 2036SOL    HW3 8198   1.793   3.283   3.485 -1.6146  0.4365  0.4437
 2036SOL    MW4 8199   1.779   3.203   3.516 -0.0111  0.0882  0.2792
 2037SOL     OW 8200   1.780   3.459   3.420 -0.1882  0.3282 -0.6268
 2037SOL    HW2 8201   1.716   3.517   3.461  0.4353  1.1736 -0.8389
 2037SOL    HW3 8202   1.758   3.461   3.327 -1.4955 -1.4549 -0.3806
 2037SOL    MW4 8203   1.769   3.466   3.413 -0.2785  0.2043 -0.6223
 2038SOL     OW 8204   1.991   3.606   3.496 -0.3571  0.5507  0.0199
 2038SOL    HW2 8205   2.064   3.563   3.451 -0.3995  1.9681 -1.4956
 2038SOL    HW3 8206   1.914   3.554   3.473 -0.0800  0.1283  0.0584
 2038SOL    MW4 8207   1.990   3.594   3.487 -0.3262  0.6819 -0.1752
 2039SOL     OW 8208   1.982   3.865   3.410 -0.1779 -0.1418 -0.0757
 2039SOL    HW2 8209   1.922   3.911   3.468 -1.7146 -0.1613 -1.6025
 2039SOL    HW3 8210   1.995   3.780   3.451 -0.3971  0.2326  0.7766
 2039SOL    MW4 8211   1.976   3.860   3.423 -0.4095 -0.0949 -0.1650
 2040SOL     OW 8212   1.800   4.012   3.552 -0.0557  0.2583  0.7794
 2040SOL    HW2 8213   1.795   4.038   3.644  0.1412  0.6694  0.6739
 2040SOL    HW3 8214   1.709   3.993   3.528 -0.0033 -0.6747  1.2915
 2040SOL    MW4 8215   1.787   4.013   3.561 -0.0228  0.1893  0.8330
 2041SOL     OW 8216   1.811   4.262   3.437  0.0774 -0.2956 -0.0601
 2041SOL    HW2 8217   1.815   4.172   3.469  0.4319  0.0987  1.0296
 2041SOL    HW3 8218   1.819   4.254   3.342 -0.3535 -1.4434 -0.0074
 2041SOL    MW4 8219   1.813   4.249   3.429  0.0674 -0.3948  0.0908
 2042SOL     OW 8220   2.060   4.369   3.504  0.2895  0.0248 -0.2813
 2042SOL    HW2 8221   1.976   4.330   3.481  0.9885 -0.7194 -1.6475
 2042SOL    HW3 8222   2.050   4.462   3.487 -0.7212  0.1592  0.9783
 2042SOL    MW4 8223   2.048   4.376   3.499  0.2484 -0.0553 -0.2952
 2043SOL     OW 8224   2.447   4.654   3.380 -0.1938  0.1489  0.5299
 2043SOL    HW2 8225   2.442   4.562   3.408 -0.2086  0.2308  0.7931
 2043SOL    HW3 8226   2.450   4.649   3.284 -0.8222 -0.0974  0.5218
 2043SOL    MW4 8227   2.447   4.641   3.371 -0.2787  0.1273  0.5636
 2044SOL     OW 8228   2.234   0.110   3.480 -0.1391  0.0871 -0.3291
 2044SOL    HW2 8229   2.245   0.202   3.456  1.3527  0.1949  0.7234
 2044SOL    HW3 8230   2.311   0.066   3.445  0.7984 -0.1831  1.9739
 2044SOL    MW4 8231   2.245   0.116   3.472  0.1817  0.0656  0.1137
 2045SOL     OW 8232   2.271   0.375   3.394 -0.0996  0.1542  0.0096
 2045SOL    HW2 8233   2.343   0.416   3.441 -0.2003  0.6100 -0.2375
 2045SOL    HW3 8234   2.192   0.415   3.432 -0.3014 -1.4028  1.3262
 2045SOL    MW4 8235   2.270   0.385   3.405 -0.1397  0.0089  0.1509
 2046SOL     OW 8236   2.479   0.482   3.543 -0.2003 -0.5743  0.1985
 2046SOL    HW2 8237   2.550   0.436   3.498  0.4887 -0.4172  1.1181
 2046SOL    HW3 8238   2.487   0.573   3.515  0.4061 -0.4229  0.8608
 2046SOL    MW4 8239   2.489   0.488   3.533 -0.0296 -0.5336  0.4075
 2047SOL     OW 8240   2.465   0.759   3.484  0.2289  0.1106 -0.0661
 2047SOL    HW2 8241   2.551   0.799   3.498  0.8780 -1.1960 -0.2623
 2047SOL    HW3 8242   2.458   0.749   3.390  0.3805 -0.9033  0.0267
 2047SOL    MW4 8243   2.476   0.763   3.474  0.3347 -0.1956 -0.0799
 2048SOL     OW 8244   2.201   0.905   3.528  0.5335 -0.4967 -0.1058
 2048SOL    HW2 8245   2.211   0.992   3.490  0.2329  0.2179  1.4137
 2048SOL    HW3 8246   2.283   0.860   3.506  0.3836 -0.0910 -1.5345
 2048SOL    MW4 8247   2.213   0.910   3.520  0.4740 -0.3489 -0.0939
 2049SOL     OW 8248   2.229   1.158   3.402  0.0418 -0.3470  0.1145
 2049SOL    HW2 8249   2.308   1.203   3.432  0.5285 -1.9136  1.2360
 2049SOL    HW3 8250   2.157   1.205   3.445  0.4706  0.0199  0.4430
 2049SOL    MW4 8251   2.230   1.170   3.412  0.1626 -0.5053  0.3059
 2050SOL     OW 8252   2.458   1.280   3.491  0.0808  0.1592 -0.1486
 2050SOL    HW2 8253   2.447   1.300   3.584 -0.7344  1.7304 -0.5737
 2050SOL    HW3 8254   2.540   1.231   3.487  0.6728  0.9951  1.2596
 2050SOL    MW4 8255   2.467   1.276   3.503  0.0515  0.4768 -0.0188
 2051SOL     OW 8256   2.484   1.536   3.416  0.0614 -0.0887  0.2987
 2051SOL    HW2 8257   2.491   1.442   3.434 -1.0303 -0.1085  0.6494
 2051SOL    HW3 8258   2.475   1.542   3.321  0.1458 -0.3359  0.2754
 2051SOL    MW4 8259   2.484   1.524   3.406 -0.0715 -0.1239  0.3417
 2052SOL     OW 8260   2.263   1.692   3.491 -0.0944  0.8778 -0.2087
 2052SOL    HW2 8261   2.254   1.688   3.586 -1.7679  0.6860 -0.3587
 2052SOL    HW3 8262   2.341   1.641   3.472 -0.3697  0.0030  0.9774
 2052SOL    MW4 8263   2.272   1.685   3.501 -0.3514  0.7371 -0.0722
 2053SOL     OW 8264   2.171   1.939   3.381 -0.1026 -0.6816 -0.3811
 2053SOL    HW2 8265   2.192   1.854   3.420  2.6659  0.4537  0.8031
 2053SOL    HW3 8266   2.172   1.924   3.287  1.2519 -1.8124 -0.2094
 2053SOL    MW4 8267   2.174   1.926   3.374  0.4413 -0.6812 -0.2024
 2054SOL     OW 8268   2.410   2.046   3.487  0.3055  0.3063  0.0044
 2054SOL    HW2 8269   2.417   2.035   3.582  0.8412  0.3064 -0.0306
 2054SOL    HW3 8270   2.340   1.986   3.461  0.6667 -0.2506  0.3011
 2054SOL    MW4 8271   2.402   2.037   3.496  0.4241  0.2327  0.0389
 2055SOL     OW 8272   2.488   2.309   3.395 -0.1584  0.3431  0.0461
 2055SOL    HW2 8273   2.577   2.335   3.417 -0.0928  0.1413  0.0208
 2055SOL    HW3 8274   2.481   2.218   3.425  0.0466 -0.0529 -1.0529
 2055SOL    MW4 8275   2.499   2.300   3.402 -0.1225  0.2642 -0.1020
 2056SOL     OW 8276   2.258   2.418   3.547  0.2455 -0.5127 -0.1737
 2056SOL    HW2 8277   2.267   2.507   3.513  0.0484  0.1148  1.3738
 2056SOL    HW3 8278   2.331   2.370   3.507 -0.5463 -0.0638 -2.2358
 2056SOL    MW4 8279   2.269   2.423   3.537  0.1149 -0.3707 -0.2418
 2057SOL     OW 8280   2.260   2.708   3.453  0.1906 -0.0872  0.4719
 2057SOL    HW2 8281   2.168   2.724   3.474  1.2071  2.4464  3.5442
 2057SOL    HW3 8282   2.263   2.702   3.358 -3.1657 -0.4214  0.3412
 2057SOL    MW4 8283   2.248   2.709   3.444 -0.1180  0.2029  0.8602
 2058SOL     OW 8284   2.507   2.797   3.538  0.1707  0.2741 -0.1752
 2058SOL    HW2 8285   2.507   2.890   3.516 -0.0225  1.0615  2.8357
 2058SOL    HW3 8286   2.420   2.766   3.512  0.0134  1.0861 -0.6309
 2058SOL    MW4 8287   2.496   2.805   3.532  0.1245  0.4849  0.1621
 2059SOL     OW 8288   2.494   3.046   3.425 -0.2668 -0.2450  0.9691
 2059SOL    HW2 8289   2.572   3.093   3.455 -0.1870 -0.5902  1.3025
 2059SOL    HW3 8290   2.488   3.068   3.332  0.1859 -0.1584  0.9566
 2059SOL    MW4 8291   2.503   3.055   3.416 -0.1967 -0.2792  1.0116
 2060SOL     OW 8292   2.254   3.206   3.485  0.4585 -0.5242  0.1600
 2060SOL    HW2 8293   2.230   3.207   3.578  2.0668  1.4630  0.6111
 2060SOL    HW3 8294   2.341   3.166   3.484  0.2948 -0.8605 -0.5285
 2060SOL    MW4 8295   2.263   3.201   3.497  0.6492 -0.3064  0.1287
 2061SOL     OW 8296   2.231   3.471   3.415 -0.3514  0.1917 -0.1857
 2061SOL    HW2 8297   2.246   3.379   3.439 -0.1204  0.2896  0.0482
 2061SOL    HW3 8298   2.229   3.470   3.319  0.3153  0.0415 -0.2016
 2061SOL    MW4 8299   2.233   3.459   3.406 -0.2332  0.1848 -0.1571
 2062SOL     OW 8300   2.450   3.602   3.502 -0.3194  0.0057  0.0394
 2062SOL    HW2 8301   2.468   3.685   3.458 -0.5817 -0.1867 -0.4311
 2062SOL    HW3 8302   2.364   3.576   3.470 -0.7784  0.1609  1.1315
 2062SOL    MW4 8303   2.441   3.610   3.492 -0.4144  0.0007  0.1216
 2063SOL     OW 8304   2.470   3.849   3.398 -0.1672  0.2297 -0.2493
 2063SOL    HW2 8305   2.527   3.920   3.428 -0.4168  0.2540  0.1784
 2063SOL    HW3 8306   2.381   3.880   3.418 -0.2030 -0.9303  1.5478
 2063SOL    MW4 8307   2.466   3.863   3.404 -0.2046  0.0796  0.0443
 2064SOL     OW 8308   2.234   3.958   3.489 -0.2956 -0.1866 -0.1301
 2064SOL    HW2 8309   2.229   4.052   3.468 -1.0506  0.3217  2.1598
 2064SOL    HW3 8310   2.156   3.921   3.448 -1.3753  0.6623  1.1002
 2064SOL    MW4 8311   2.223   3.966   3.481 -0.5379 -0.0079  0.3345
 2065SOL     OW 8312   2.270   4.222   3.370 -0.2077 -0.3274  0.2958
 2065SOL    HW2 8313   2.206   4.278   3.415 -1.2882 -0.6426 -0.8221
 2065SOL    HW3 8314   2.266   4.250   3.279  1.2649 -0.3539  0.2171
 2065SOL    MW4 8315   2.261   4.233   3.364 -0.1559 -0.3724  0.1378
 2066SOL     OW 8316   2.454   4.398   3.459  0.0179 -0.2627 -0.0062
 2066SOL    HW2 8317   2.471   4.383   3.552  1.3395  0.2570 -0.1517
 2066SOL    HW3 8318   2.406   4.320   3.431  1.2759 -1.3147  0.6930
 2066SOL    MW4 8319   2.450   4.386   3.467  0.3581 -0.3333  0.0670
 2067SOL     OW 8320   2.889   0.003   3.395 -0.0482 -0.2750  0.1073
 2067SOL    HW2 8321   2.819   0.052   3.438 -0.8985 -0.3601 -1.1575
 2067SOL    HW3 8322   2.882   0.027   3.303  1.8908  0.0646  0.0370
 2067SOL    MW4 8323   2.879   0.012   3.389  0.0954 -0.2414 -0.0687
 2068SOL     OW 8324   2.665   0.111   3.502 -0.0495  0.4368 -0.2353
 2068SOL    HW2 8325   2.665   0.197   3.461 -0.4541  0.7507  0.4100
 2068SOL    HW3 8326   2.585   0.069   3.470  0.1950  0.2613 -0.6224
 2068SOL    MW4 8327   2.654   0.117   3.492 -0.0706  0.4550 -0.2012
 2069SOL     OW 8328   2.681   0.366   3.395 -0.1104  0.2168 -0.0374
 2069SOL    HW2 8329   2.759   0.413   3.424 -0.1378  0.1517  0.1411
 2069SOL    HW3 8330   2.683   0.373   3.300  1.3389 -1.6938 -0.1779
 2069SOL    MW4 8331   2.692   0.373   3.386  0.0772 -0.0439 -0.0322
 2070SOL     OW 8332   2.899   0.501   3.496  0.2132  0.0730  0.2215
 2070SOL    HW2 8333   2.892   0.515   3.591  0.0516 -0.6831  0.3271
 2070SOL    HW3 8334   2.925   0.586   3.461 -1.9908  0.9898  0.6921
 2070SOL    MW4 8335   2.901   0.514   3.504 -0.0987  0.0942  0.2978
 2071SOL     OW 8336   2.924   0.780   3.395 -0.1396 -0.1425  0.5237
 2071SOL    HW2 8337   3.006   0.808   3.437 -0.1192 -0.8538  0.9677
 2071SOL    HW3 8338   2.858   0.839   3.430  0.2575  0.7505 -0.2033
 2071SOL    MW4 8339   2.926   0.792   3.405 -0.0842 -0.1186  0.4864
 2072SOL     OW 8340   2.711   0.910   3.497 -0.2725  0.0233  0.0046
 2072SOL    HW2 8341   2.697   0.913   3.591  1.7988  0.9290  0.3092
 2072SOL    HW3 8342   2.682   0.996   3.465  1.0097  0.4925  0.1077
 2072SOL    MW4 8343   2.705   0.922   3.505  0.1702  0.2047  0.0582
 2073SOL     OW 8344   2.693   1.174   3.406  0.2501  0.2249  0.2427
 2073SOL    HW2 8345   2.776   1.210   3.436  0.2931 -0.5022  0.9856
 2073SOL    HW3 8346   2.705   1.163   3.312  1.1716 -0.3710  0.4295
 2073SOL    MW4 8347   2.705   1.178   3.397  0.3772  0.0504  0.3653
 2074SOL     OW 8348   2.920   1.292   3.488 -0.0173 -0.1911 -0.1176
 2074SOL    HW2 8349   2.920   1.297   3.583  1.3848  0.9095 -0.1638
 2074SOL    HW3 8350   2.993   1.233   3.467 -1.1278 -1.4699 -0.4808
 2074SOL    MW4 8351   2.930   1.285   3.497  0.0210 -0.2145 -0.1717
 2075SOL     OW 8352   2.896   1.558   3.399  0.1999  0.4380 -0.1582
 2075SOL    HW2 8353   2.817   1.588   3.445  0.1191  1.4241 -0.9473
 2075SOL    HW3 8354   2.898   1.464   3.416 -0.7738  0.5165  0.4422
 2075SOL    MW4 8355   2.886   1.549   3.408  0.0606  0.5784 -0.1831
 2076SOL     OW 8356   2.690   1.669   3.536  0.4221 -0.1088 -0.0204
 2076SOL    HW2 8357   2.674   1.748   3.484  0.2940 -0.6042 -0.7378
 2076SOL    HW3 8358   2.619   1.610   3.512  0.3811 -0.3555  0.6974
 2076SOL    MW4 8359   2.678   1.672   3.526  0.3998 -0.2067 -0.0203
 2077SOL     OW 8360   2.659   1.913   3.395 -0.1714  0.4248 -0.4867
 2077SOL    HW2 8361   2.569   1.934   3.420 -0.0532 -0.5746  0.8389
 2077SOL    HW3 8362   2.660   1.918   3.300 -1.4905  0.9629 -0.4791
 2077SOL    MW4 8363   2.647   1.917   3.386 -0.3297  0.3638 -0.3111
 2078SOL     OW 8364   2.901   2.069   3.476 -0.1099  0.3539  0.2108
 2078SOL    HW2 8365   2.904   2.056   3.571 -0.6507  1.2420  0.3567
 2078SOL    HW3 8366   2.829   2.013   3.446  1.3008 -1.4243  0.0552
 2078SOL    MW4 8367   2.892   2.060   3.485  0.0048  0.2365  0.2096
 2079SOL     OW 8368   2.972   2.324   3.406  0.5409  0.1000 -0.4114
 2079SOL    HW2 8369   2.945   2.240   3.445 -1.3780  0.6423 -0.4975
 2079SOL    HW3 8370   2.977   2.306   3.312  2.1015 -0.4134 -0.2418
 2079SOL    MW4 8371   2.969   2.310   3.399  0.4935  0.1037 -0.4005
 2080SOL     OW 8372   2.723   2.416   3.478  0.0788  0.3127 -0.3159
 2080SOL    HW2 8373   2.725   2.417   3.574  1.4918  0.2725 -0.3329
 2080SOL    HW3 8374   2.811   2.387   3.453  0.2826  2.0088 -1.6510
 2080SOL    MW4 8375   2.735   2.412   3.488  0.2921  0.5312 -0.4945
 2081SOL     OW 8376   2.716   2.678   3.377 -0.7803  0.0646 -0.2585
 2081SOL    HW2 8377   2.725   2.588   3.408 -0.5131  0.0025 -0.5193
 2081SOL    HW3 8378   2.654   2.718   3.439 -0.2773 -0.0674  0.3387
 2081SOL    MW4 8379   2.709   2.671   3.389 -0.6788  0.0389 -0.2143
 2082SOL     OW 8380   2.944   2.799   3.449  0.4249  0.4032  0.0867
 2082SOL    HW2 8381   2.952   2.792   3.544  0.2629 -1.3789 -0.0201
 2082SOL    HW3 8382   2.863   2.753   3.428  0.5670  0.6143 -0.9406
 2082SOL    MW4 8383   2.934   2.792   3.459  0.4225  0.1960 -0.0629
 2083SOL     OW 8384   2.916   3.075   3.423 -0.1078  0.4047  0.0409
 2083SOL    HW2 8385   2.921   2.980   3.432  0.9292  0.1382 -2.8039
 2083SOL    HW3 8386   2.936   3.091   3.330 -1.3083  3.3176  0.2391
 2083SOL    MW4 8387   2.919   3.064   3.412 -0.1295  0.7536 -0.3088
 2084SOL     OW 8388   2.693   3.212   3.514 -0.2811 -0.1198  0.3146
 2084SOL    HW2 8389   2.703   3.218   3.609  1.0882 -0.7601  0.2216
 2084SOL    HW3 8390   2.771   3.166   3.484 -0.5144  0.4144 -1.1697
 2084SOL    MW4 8391   2.704   3.207   3.522 -0.1311 -0.1338  0.1066
 2085SOL     OW 8392   2.674   3.471   3.398 -0.2996 -0.2028  0.3910
 2085SOL    HW2 8393   2.678   3.383   3.435  0.5494 -0.4110 -0.1732
 2085SOL    HW3 8394   2.593   3.508   3.433 -0.8358 -1.3246  0.3658
 2085SOL    MW4 8395   2.664   3.464   3.407 -0.2582 -0.3784  0.3133
 2086SOL     OW 8396   2.897   3.618   3.474 -0.1111  0.0955 -0.0411
 2086SOL    HW2 8397   2.899   3.702   3.428  3.8831 -0.0554 -0.2956
 2086SOL    HW3 8398   2.836   3.565   3.423 -2.7091  2.7649  0.1201
 2086SOL    MW4 8399   2.889   3.623   3.461  0.0732  0.4280 -0.0534
 2087SOL     OW 8400   2.861   3.890   3.382  0.0668  0.3484 -0.0660
 2087SOL    HW2 8401   2.934   3.946   3.406  0.5781  0.1477 -1.1212
 2087SOL    HW3 8402   2.784   3.935   3.417  0.5819  1.1053  0.1123
 2087SOL    MW4 8403   2.860   3.903   3.390  0.2024  0.4218 -0.1817
 2088SOL     OW 8404   2.641   4.053   3.457  0.3077 -0.3026  0.0092
 2088SOL    HW2 8405   2.649   4.051   3.553  0.9918 -0.0689 -0.0409
 2088SOL    HW3 8406   2.673   4.139   3.432 -0.5892 -0.0760 -0.3735
 2088SOL    MW4 8407   2.647   4.064   3.466  0.2799 -0.2418 -0.0479
 2089SOL     OW 8408   2.714   4.291   3.381 -0.3320 -0.0122 -0.1287
 2089SOL    HW2 8409   2.788   4.333   3.425 -0.5249  0.1010  0.0790
 2089SOL    HW3 8410   2.640   4.348   3.396 -0.4721 -0.1414 -0.3192
 2089SOL    MW4 8411   2.714   4.304   3.389 -0.3760 -0.0148 -0.1264
 2090SOL     OW 8412   2.947   4.410   3.498  1.0060 -0.1662 -0.2143
 2090SOL    HW2 8413   2.946   4.429   3.591 -0.5209 -0.5313 -0.1343
 2090SOL    HW3 8414   2.938   4.496   3.456  0.2711 -0.1323  0.0091
 2090SOL    MW4 8415   2.946   4.424   3.505  0.7074 -0.2098 -0.1740
 2091SOL     OW 8416   3.389   4.628   3.424  0.2067 -0.5826 -0.3371
 2091SOL    HW2 8417   3.302   4.660   3.447  0.3434 -0.6720  0.3280
 2091SOL    HW3 8418   3.390   4.627   3.328  0.1891  1.3941 -0.3887
 2091SOL    MW4 8419   3.378   4.632   3.414  0.2220 -0.3328 -0.2561
 2092SOL     OW 8420   3.128   0.104   3.508  0.8662 -0.3577  0.1099
 2092SOL    HW2 8421   3.137   0.198   3.494 -1.2081  0.1907  2.1480
 2092SOL    HW3 8422   3.049   0.080   3.460  1.0267 -0.9389  0.1324
 2092SOL    MW4 8423   3.119   0.113   3.500  0.6139 -0.3620  0.3817
 2093SOL     OW 8424   3.145   0.372   3.425 -0.3818 -0.4985  0.0133
 2093SOL    HW2 8425   3.071   0.423   3.456  0.1402 -0.3777  1.0617
 2093SOL    HW3 8426   3.147   0.387   3.330 -1.1048  0.2614  0.1215
 2093SOL    MW4 8427   3.136   0.381   3.416 -0.4084 -0.3824  0.1662
 2094SOL     OW 8428   3.399   0.480   3.500 -0.2176  0.1254  0.0562
 2094SOL    HW2 8429   3.396   0.499   3.594 -0.9672 -2.2029  0.5293
 2094SOL    HW3 8430   3.311   0.449   3.479 -0.2263  1.1844 -1.5640
 2094SOL    MW4 8431   3.387   0.479   3.509 -0.3178 -0.0421 -0.0951
 2095SOL     OW 8432   3.320   0.719   3.394  0.1094  0.6255 -0.1734
 2095SOL    HW2 8433   3.405   0.761   3.400  0.3239  0.3124 -0.9818
 2095SOL    HW3 8434   3.333   0.632   3.432  0.0652  0.6993  0.0117
 2095SOL    MW4 8435   3.333   0.713   3.400  0.1318  0.5938 -0.2556
 2096SOL     OW 8436   3.142   0.852   3.556  0.1316  0.2836  0.1548
 2096SOL    HW2 8437   3.135   0.944   3.532  0.0143 -0.2716 -2.0655
 2096SOL    HW3 8438   3.202   0.814   3.493  0.5018 -1.0949  1.2883
 2096SOL    MW4 8439   3.149   0.859   3.545  0.1652  0.0285  0.0114
 2097SOL     OW 8440   3.143   1.134   3.453  0.1171  0.1048  0.6262
 2097SOL    HW2 8441   3.208   1.197   3.485 -1.3250  1.9406  0.0279
 2097SOL    HW3 8442   3.158   1.129   3.359 -0.6344  0.5830  0.4758
 2097SOL    MW4 8443   3.153   1.142   3.445 -0.1724  0.4102  0.5274
 2098SOL     OW 8444   3.348   1.302   3.538 -0.1775 -0.1876 -0.7058
 2098SOL    HW2 8445   3.415   1.252   3.491 -0.8835 -0.3159 -1.5870
 2098SOL    HW3 8446   3.353   1.390   3.501  0.1732  0.0662 -0.0697
 2098SOL    MW4 8447   3.357   1.307   3.527 -0.2241 -0.1711 -0.7381
 2099SOL     OW 8448   3.387   1.541   3.407  0.3508 -0.4641 -0.1972
 2099SOL    HW2 8449   3.467   1.579   3.443  0.3142  0.2319 -0.8369
 2099SOL    HW3 8450   3.318   1.605   3.428  0.1738 -0.4921 -0.6854
 2099SOL    MW4 8451   3.388   1.555   3.414  0.3226 -0.3759 -0.3459
 2100SOL     OW 8452   3.151   1.711   3.429  0.6133  0.2048  0.3116
 2100SOL    HW2 8453   3.153   1.799   3.391  0.9954  0.2428  0.4215
 2100SOL    HW3 8454   3.061   1.682   3.415  0.6744  0.3275 -0.3674
 2100SOL    MW4 8455   3.139   1.719   3.422  0.6714  0.2259  0.2367
 2101SOL     OW 8456   3.155   1.994   3.354  0.0616 -0.1301  0.6137
 2101SOL    HW2 8457   3.071   2.027   3.384  0.3476  0.7736  0.4402
 2101SOL    HW3 8458   3.150   1.998   3.258 -0.2100 -1.3834  0.5662
 2101SOL    MW4 8459   3.144   1.999   3.345  0.0632 -0.1762  0.5846
 2102SOL     OW 8460   3.380   2.094   3.489  0.1493  0.2462 -0.1657
 2102SOL    HW2 8461   3.397   2.179   3.448 -0.9734 -0.4412 -2.1157
 2102SOL    HW3 8462   3.301   2.061   3.445 -0.2036 -1.2227  1.4838
 2102SOL    MW4 8463   3.372   2.101   3.478 -0.0451 -0.0381 -0.2055
 2103SOL     OW 8464   3.412   2.343   3.381 -0.3879 -0.0519  0.1366
 2103SOL    HW2 8465   3.499   2.364   3.414 -0.3681  1.4208 -0.8130
 2103SOL    HW3 8466   3.352   2.378   3.447 -0.2743 -0.6418  0.5549
 2103SOL    MW4 8467   3.416   2.350   3.394 -0.3703  0.0644  0.0665
 2104SOL     OW 8468   3.210   2.435   3.526 -0.1214  0.0930 -0.1881
 2104SOL    HW2 8469   3.198   2.521   3.486 -0.4885  0.4059  0.5824
 2104SOL    HW3 8470   3.140   2.381   3.489  0.0229  0.1635 -0.5628
 2104SOL    MW4 8471   3.199   2.439   3.516 -0.1507  0.1438 -0.1357
 2105SOL     OW 8472   3.184   2.671   3.375  0.3520 -0.3245  0.1549
 2105SOL    HW2 8473   3.245   2.736   3.411  0.1272  0.6556 -1.1598
 2105SOL    HW3 8474   3.098   2.714   3.381 -0.0082 -1.1152  0.6678
 2105SOL    MW4 8475   3.181   2.685   3.381  0.2747 -0.2992  0.0489
 2106SOL     OW 8476   3.358   2.855   3.507 -0.3002  0.2643  0.1563
 2106SOL    HW2 8477   3.432   2.814   3.464 -0.5934 -0.0517 -0.0510
 2106SOL    HW3 8478   3.351   2.941   3.467 -1.7248 -0.7245 -1.7689
 2106SOL    MW4 8479   3.366   2.861   3.496 -0.5269  0.0920 -0.1249
 2107SOL     OW 8480   3.341   3.066   3.337 -0.3484  0.0683  0.5749
 2107SOL    HW2 8481   3.425   3.110   3.352  0.2609 -0.5193 -1.0637
 2107SOL    HW3 8482   3.278   3.119   3.386  0.6564  1.6905  0.1687
 2107SOL    MW4 8483   3.344   3.079   3.346 -0.1354  0.2048  0.3049
 2108SOL     OW 8484   3.154   3.210   3.498 -0.0886 -0.2513  0.3772
 2108SOL    HW2 8485   3.155   3.294   3.452  2.6117 -0.8103 -0.7014
 2108SOL    HW3 8486   3.075   3.167   3.467 -0.5175  1.1169 -0.5032
 2108SOL    MW4 8487   3.144   3.216   3.488  0.2112 -0.1447  0.1190
 2109SOL     OW 8488   3.147   3.461   3.390  0.7233  0.7169 -0.6213
 2109SOL    HW2 8489   3.086   3.523   3.431  1.4676  1.9486 -1.3348
 2109SOL    HW3 8490   3.124   3.465   3.297 -0.6393 -1.6984 -0.4202
 2109SOL    MW4 8491   3.136   3.470   3.383  0.6418  0.5608 -0.6890
 2110SOL     OW 8492   3.396   3.618   3.471  0.5332 -0.4308  0.2027
 2110SOL    HW2 8493   3.391   3.708   3.438  0.0803  0.2437  2.0245
 2110SOL    HW3 8494   3.320   3.574   3.433 -0.5053  0.5816  1.0570
 2110SOL    MW4 8495   3.385   3.624   3.462  0.3369 -0.2081  0.5558
 2111SOL     OW 8496   3.315   3.871   3.358  0.4338  0.1003  0.0417
 2111SOL    HW2 8497   3.389   3.923   3.388  0.6235 -0.4301  0.4980
 2111SOL    HW3 8498   3.238   3.917   3.392  0.5813  0.3213  0.0778
 2111SOL    MW4 8499   3.315   3.884   3.367  0.4780  0.0596  0.1066
 2112SOL     OW 8500   3.094   4.008   3.461 -0.0209  0.1112 -0.0419
 2112SOL    HW2 8501   3.099   3.996   3.556 -0.1562  1.4506  0.1462
 2112SOL    HW3 8502   3.124   4.098   3.447 -0.8763  0.2252 -1.1726
 2112SOL    MW4 8503   3.098   4.019   3.472 -0.1516  0.3028 -0.1662
 2113SOL     OW 8504   3.175   4.276   3.397 -0.1242 -0.2322 -0.0665
 2113SOL    HW2 8505   3.263   4.305   3.421  1.0968 -4.4190  0.8056
 2113SOL    HW3 8506   3.117   4.338   3.442  2.3448  1.5335  0.8030
 2113SOL    MW4 8507   3.179   4.288   3.406  0.3626 -0.5512  0.1633
 2114SOL     OW 8508   3.418   4.353   3.499 -0.4570  0.2091 -0.1250
 2114SOL    HW2 8509   3.424   4.358   3.594  0.0936 -0.9340 -0.0962
 2114SOL    HW3 8510   3.399   4.443   3.472  0.6764  0.8060  0.9788
 2114SOL    MW4 8511   3.417   4.366   3.508 -0.2348  0.1373  0.0243
 2115SOL     OW 8512   3.819   4.662   3.380 -0.2156  0.1574 -0.2100
 2115SOL    HW2 8513   3.745   4.716   3.408 -0.8679 -0.6783 -0.2853
 2115SOL    HW3 8514   3.828   4.678   3.286  1.5523  2.4603  0.3021
 2115SOL    MW4 8515   3.810   4.671   3.372 -0.0682  0.3510 -0.1526
 2116SOL     OW 8516   3.604   0.129   3.471  0.3664  0.1263  0.0739
 2116SOL    HW2 8517   3.575   0.214   3.439  0.4933  0.7739  1.6058
 2116SOL    HW3 8518   3.528   0.073   3.464 -0.0691  0.7022  0.1644
 2116SOL    MW4 8519   3.590   0.133   3.466  0.3254  0.2878  0.2880
 2117SOL     OW 8520   3.615   0.391   3.351  0.0222 -0.4927 -0.1839
 2117SOL    HW2 8521   3.696   0.421   3.392  0.9598 -2.7064 -0.2843
 2117SOL    HW3 8522   3.545   0.427   3.404  1.1503 -0.4008  1.2633
 2117SOL    MW4 8523   3.617   0.399   3.363  0.2947 -0.7726 -0.0064
 2118SOL     OW 8524   3.839   0.504   3.468  0.2295  0.4645 -0.1399
 2118SOL    HW2 8525   3.838   0.515   3.563 -1.3903  0.4398 -0.1385
 2118SOL    HW3 8526   3.918   0.454   3.451  1.2181  1.5944  1.0683
 2118SOL    MW4 8527   3.849   0.499   3.479  0.1462  0.6103  0.0196
 2119SOL     OW 8528   3.832   0.770   3.392  0.0813  0.1370 -0.7010
 2119SOL    HW2 8529   3.917   0.800   3.423  0.0887 -0.8321  0.2137
 2119SOL    HW3 8530   3.834   0.675   3.402 -1.0024  0.0768 -0.9338
 2119SOL    MW4 8531   3.843   0.762   3.397 -0.0606  0.0012 -0.6113
 2120SOL     OW 8532   3.564   0.849   3.442 -0.1086 -0.0211 -0.2826
 2120SOL    HW2 8533   3.564   0.854   3.537 -0.3545 -1.6428 -0.1888
 2120SOL    HW3 8534   3.657   0.841   3.419 -0.1169 -0.6106 -0.1183
 2120SOL    MW4 8535   3.576   0.849   3.451 -0.1421 -0.3129 -0.2487
 2121SOL     OW 8536   3.522   1.135   3.376  0.5802  0.0697  0.1796
 2121SOL    HW2 8537   3.541   1.043   3.395  0.3228 -0.0757 -0.2643
 2121SOL    HW3 8538   3.557   1.150   3.289  2.5386  0.9788  1.0985
 2121SOL    MW4 8539   3.529   1.125   3.367  0.8047  0.1705  0.2420
 2122SOL     OW 8540   3.764   1.230   3.469  0.1589 -0.3414  0.1696
 2122SOL    HW2 8541   3.773   1.241   3.564 -2.1004 -1.8881  0.6064
 2122SOL    HW3 8542   3.676   1.193   3.458  0.5030 -0.4175 -2.5128
 2122SOL    MW4 8543   3.753   1.226   3.480 -0.0937 -0.5555 -0.1271
 2123SOL     OW 8544   3.776   1.492   3.359  0.3241  0.2666 -0.7338
 2123SOL    HW2 8545   3.858   1.530   3.390  0.2641  0.2494 -0.5485
 2123SOL    HW3 8546   3.768   1.410   3.408 -0.8018  1.2386  0.7707
 2123SOL    MW4 8547   3.785   1.487   3.370  0.1676  0.3926 -0.5109
 2124SOL     OW 8548   3.612   1.667   3.495  0.5689 -0.0582 -0.0981
 2124SOL    HW2 8549   3.608   1.739   3.432  1.4155  0.3965  0.3574
 2124SOL    HW3 8550   3.678   1.607   3.459 -0.1555 -0.6204 -0.4909
 2124SOL    MW4 8551   3.620   1.669   3.482  0.5851 -0.0724 -0.0896
 2125SOL     OW 8552   3.577   1.929   3.364  0.5545 -0.7220 -0.3831
 2125SOL    HW2 8553   3.658   1.969   3.395  0.2062 -0.8379  0.7321
 2125SOL    HW3 8554   3.507   1.984   3.402  0.1105 -0.9901 -0.8057
 2125SOL    MW4 8555   3.578   1.942   3.373  0.4499 -0.7726 -0.2918
 2126SOL     OW 8556   3.825   2.045   3.453  0.5916  0.2228  0.1599
 2126SOL    HW2 8557   3.812   2.045   3.548 -0.6190 -0.2425  0.0056
 2126SOL    HW3 8558   3.897   1.982   3.439  0.3723 -0.1572  0.7194
 2126SOL    MW4 8559   3.833   2.036   3.464  0.4032  0.1111  0.2131
 2127SOL     OW 8560   3.826   2.307   3.353 -0.5050  0.2391  0.2407
 2127SOL    HW2 8561   3.905   2.352   3.383 -1.4769  1.5920  0.8511
 2127SOL    HW3 8562   3.831   2.220   3.394  1.6382 -0.4201 -1.3440
 2127SOL    MW4 8563   3.837   2.301   3.363 -0.3505  0.3307  0.1123
 2128SOL     OW 8564   3.644   2.429   3.518  0.5039 -0.6865 -0.3664
 2128SOL    HW2 8565   3.639   2.517   3.480  1.9298 -0.6832 -0.5738
 2128SOL    HW3 8566   3.711   2.384   3.467  0.5419 -1.5509  0.4218
 2128SOL    MW4 8567   3.652   2.435   3.506  0.6971 -0.8001 -0.2897
 2129SOL     OW 8568   3.590   2.686   3.417  0.9240 -0.1930  0.4117
 2129SOL    HW2 8569   3.666   2.740   3.441  0.1093  0.6744  1.1039
 2129SOL    HW3 8570   3.581   2.697   3.322  0.9197  0.6852  0.5137
 2129SOL    MW4 8571   3.599   2.695   3.408  0.8161  0.0374  0.5164
 2130SOL     OW 8572   3.837   2.819   3.467  0.3245 -0.0736 -0.3599
 2130SOL    HW2 8573   3.843   2.818   3.563  0.5857 -0.5060 -0.3799
 2130SOL    HW3 8574   3.833   2.912   3.444  0.1803  0.0303  0.0751
 2130SOL    MW4 8575   3.837   2.831   3.477  0.3400 -0.1166 -0.3052
 2131SOL     OW 8576   3.816   3.100   3.404  0.5546  0.2932  0.6234
 2131SOL    HW2 8577   3.903   3.125   3.433  1.0706 -0.4690 -0.2518
 2131SOL    HW3 8578   3.820   3.103   3.308 -0.9041  2.0036  0.5845
 2131SOL    MW4 8579   3.828   3.103   3.395  0.4303  0.4187  0.5028
 2132SOL     OW 8580   3.566   3.197   3.436  0.1316  0.1203  0.2800
 2132SOL    HW2 8581   3.581   3.291   3.428 -0.2143  0.0451 -1.5870
 2132SOL    HW3 8582   3.651   3.158   3.417 -0.0579  0.0250 -0.4058
 2132SOL    MW4 8583   3.579   3.204   3.433  0.0608  0.0980 -0.0565
 2133SOL     OW 8584   3.611   3.471   3.390 -0.0332 -0.0443  0.3318
 2133SOL    HW2 8585   3.536   3.519   3.425 -1.1335  0.0786 -2.0577
 2133SOL    HW3 8586   3.611   3.492   3.297  2.1004 -1.2330  0.0299
 2133SOL    MW4 8587   3.601   3.480   3.382  0.1030 -0.1848 -0.0234
 2134SOL     OW 8588   3.848   3.596   3.496  0.2438  0.0568 -0.0265
 2134SOL    HW2 8589   3.838   3.602   3.591  0.4356  1.0071 -0.0613
 2134SOL    HW3 8590   3.771   3.547   3.466  0.2850 -0.4179  0.6327
 2134SOL    MW4 8591   3.837   3.590   3.504  0.2747  0.1192  0.0558
 2135SOL     OW 8592   3.797   3.856   3.389 -0.2559 -0.3254 -0.3380
 2135SOL    HW2 8593   3.707   3.873   3.416 -0.9760 -0.7045 -2.3365
 2135SOL    HW3 8594   3.821   3.775   3.434 -1.2605 -0.7114 -0.4690
 2135SOL    MW4 8595   3.789   3.847   3.398 -0.4833 -0.4265 -0.6192
 2136SOL     OW 8596   3.549   3.963   3.461  0.0621  0.1966  0.8393
 2136SOL    HW2 8597   3.528   3.993   3.550  0.7960  1.5459  0.5817
 2136SOL    HW3 8598   3.557   4.044   3.411  3.1387 -0.3797  0.3244
 2136SOL    MW4 8599   3.547   3.978   3.466  0.5651  0.2985  0.7377
 2137SOL     OW 8600   3.602   4.213   3.359 -0.4251 -0.1886 -0.0302
 2137SOL    HW2 8601   3.543   4.270   3.408  1.0811  0.8274  0.6313
 2137SOL    HW3 8602   3.587   4.236   3.267 -1.7935 -0.6657  0.0717
 2137SOL    MW4 8603   3.592   4.224   3.353 -0.4065 -0.1178  0.0703
 2138SOL     OW 8604   3.838   4.381   3.455  0.5950 -0.2511  0.2884
 2138SOL    HW2 8605   3.758   4.335   3.430  0.5982 -0.1863  0.1562
 2138SOL    HW3 8606   3.822   4.472   3.429  0.2568 -0.0075  1.3170
 2138SOL    MW4 8607   3.825   4.387   3.448  0.5507 -0.2103  0.4067
 2139SOL     OW 8608   4.228   0.008   3.398 -0.0198  0.5094  0.1730
 2139SOL    HW2 8609   4.237  -0.077   3.440  1.4508  0.1331 -0.8331
 2139SOL    HW3 8610   4.309   0.054   3.420  1.1747 -0.0065 -2.8253
 2139SOL    MW4 8611   4.240   0.003   3.406  0.3319  0.3915 -0.3555
 2140SOL     OW 8612   4.026   0.120   3.538 -0.2666 -0.2973 -0.7648
 2140SOL    HW2 8613   4.108   0.080   3.509 -0.3590  0.2887 -1.8499
 2140SOL    HW3 8614   3.959   0.083   3.480 -0.6067  0.1025 -0.6317
 2140SOL    MW4 8615   4.028   0.110   3.527 -0.3238 -0.1673 -0.8903
 2141SOL     OW 8616   4.069   0.368   3.444 -0.1624 -0.1545  0.2921
 2141SOL    HW2 8617   4.051   0.282   3.484  1.9181 -0.8792 -0.2300
 2141SOL    HW3 8618   4.081   0.348   3.351  0.7580  0.6229  0.2403
 2141SOL    MW4 8619   4.068   0.354   3.437  0.2337 -0.1476  0.2162
 2142SOL     OW 8620   4.285   0.520   3.534  0.3222  0.0820  0.5701
 2142SOL    HW2 8621   4.292   0.608   3.496 -1.2411  0.6842  1.6448
 2142SOL    HW3 8622   4.211   0.480   3.488 -0.1663  0.0120  1.4055
 2142SOL    MW4 8623   4.276   0.526   3.523  0.0515  0.1523  0.8218
 2143SOL     OW 8624   4.303   0.762   3.404  0.0282  0.2958  0.1641
 2143SOL    HW2 8625   4.383   0.803   3.437  1.0707 -1.8421  0.3602
 2143SOL    HW3 8626   4.312   0.763   3.309  0.5728 -0.4949  0.2069
 2143SOL    MW4 8627   4.315   0.767   3.396  0.2375 -0.0907  0.1957
 2144SOL     OW 8628   4.068   0.893   3.473  0.0998  0.1704 -0.0202
 2144SOL    HW2 8629   4.070   0.985   3.447 -0.0083  0.2600  0.2885
 2144SOL    HW3 8630   4.156   0.861   3.455  0.2432  0.4313  0.2202
 2144SOL    MW4 8631   4.080   0.901   3.467  0.1049  0.2167  0.0522
 2145SOL     OW 8632   4.039   1.154   3.381 -0.3066 -0.0462 -0.2754
 2145SOL    HW2 8633   4.098   1.210   3.432  0.1466 -0.5196 -0.2828
 2145SOL    HW3 8634   3.952   1.190   3.398  0.1501  2.0247 -1.9660
 2145SOL    MW4 8635   4.035   1.166   3.390 -0.1869  0.1645 -0.4992
 2146SOL     OW 8636   4.265   1.264   3.511  0.0903 -0.6190  0.5248
 2146SOL    HW2 8637   4.277   1.356   3.489 -1.5691  0.1422  2.6535
 2146SOL    HW3 8638   4.338   1.219   3.467  0.8474  1.6638 -0.6294
 2146SOL    MW4 8639   4.277   1.270   3.502 -0.0281 -0.2174  0.6535
 2147SOL     OW 8640   4.251   1.549   3.414 -0.2186  0.1523  0.3045
 2147SOL    HW2 8641   4.164   1.584   3.437 -1.0912 -1.4209 -0.5482
 2147SOL    HW3 8642   4.246   1.533   3.320  1.1791  0.5324  0.1621
 2147SOL    MW4 8643   4.239   1.552   3.405 -0.1493 -0.0051  0.1733
 2148SOL     OW 8644   3.981   1.645   3.476  0.3445 -0.1920 -0.1123
 2148SOL    HW2 8645   4.004   1.650   3.568  0.5263 -0.2949 -0.1523
 2148SOL    HW3 8646   4.014   1.726   3.438 -0.3759  0.1822  0.0584
 2148SOL    MW4 8647   3.988   1.656   3.483  0.2737 -0.1562 -0.0949
 2149SOL     OW 8648   4.059   1.889   3.378 -0.3722  0.4014  0.7022
 2149SOL    HW2 8649   4.125   1.956   3.393  0.1453 -0.1747  1.0141
 2149SOL    HW3 8650   4.059   1.875   3.283 -1.6600  2.0251  0.4289
 2149SOL    MW4 8651   4.068   1.896   3.367 -0.4745  0.5395  0.7076
 2150SOL     OW 8652   4.285   2.054   3.445 -0.3215 -0.0033  0.1783
 2150SOL    HW2 8653   4.291   2.142   3.409  0.7003 -0.3749 -0.5725
 2150SOL    HW3 8654   4.363   2.009   3.412 -0.2928 -0.8724  1.4170
 2150SOL    MW4 8655   4.296   2.059   3.436 -0.1826 -0.1671  0.2427
 2151SOL     OW 8656   4.278   2.332   3.355  0.1443  0.1372 -0.5109
 2151SOL    HW2 8657   4.210   2.387   3.394  1.0774  1.5780 -0.8390
 2151SOL    HW3 8658   4.244   2.307   3.270 -0.2796  0.2458 -0.3713
 2151SOL    MW4 8659   4.265   2.336   3.349  0.2112  0.3414 -0.5362
 2152SOL     OW 8660   4.052   2.449   3.448  0.4257  0.2784 -0.2843
 2152SOL    HW2 8661   4.059   2.454   3.543  1.9742  0.3930 -0.4046
 2152SOL    HW3 8662   4.058   2.539   3.418  1.8774  0.0698 -0.6248
 2152SOL    MW4 8663   4.054   2.461   3.457  0.8211  0.2661 -0.3452
 2153SOL     OW 8664   4.071   2.701   3.354  0.2702  0.2612  0.2293
 2153SOL    HW2 8665   4.144   2.745   3.396  0.6394 -0.4627  0.3460
 2153SOL    HW3 8666   3.993   2.741   3.393  0.6065  0.4548  0.7048
 2153SOL    MW4 8667   4.070   2.712   3.365  0.3629  0.1915  0.3076
 2154SOL     OW 8668   4.307   2.823   3.445  0.1443  0.1828 -0.2211
 2154SOL    HW2 8669   4.316   2.829   3.540  0.3462 -2.0971 -0.0573
 2154SOL    HW3 8670   4.390   2.784   3.415  0.0562  0.8018 -1.3220
 2154SOL    MW4 8671   4.319   2.819   3.453  0.1588 -0.0362 -0.3448
 2155SOL     OW 8672   4.286   3.097   3.344  0.6144  0.3065  0.2627
 2155SOL    HW2 8673   4.307   3.011   3.381  1.6268  0.4868  0.1170
 2155SOL    HW3 8674   4.292   3.084   3.250  0.9399  0.5821  0.2470
 2155SOL    MW4 8675   4.289   3.084   3.337  0.7911  0.3669  0.2413
 2156SOL     OW 8676   4.056   3.218   3.468  0.5486 -0.1926 -0.0203
 2156SOL    HW2 8677   4.059   3.308   3.436 -1.7285  0.0098  0.2922
 2156SOL    HW3 8678   4.136   3.177   3.433  0.2442  1.1892 -2.3757
 2156SOL    MW4 8679   4.067   3.224   3.460  0.2079  0.0165 -0.2899
 2157SOL     OW 8680   4.067   3.471   3.386  0.7666  0.3443  0.4349
 2157SOL    HW2 8681   4.138   3.522   3.425 -0.3231  2.5473 -0.3592
 2157SOL    HW3 8682   3.987   3.512   3.421 -0.1727  0.6418 -2.0143
 2157SOL    MW4 8683   4.066   3.483   3.396  0.4988  0.6742  0.0064
 2158SOL     OW 8684   4.300   3.608   3.510 -0.0681  0.1961 -0.0152
 2158SOL    HW2 8685   4.294   3.616   3.605 -0.2178  0.2241 -0.0270
 2158SOL    HW3 8686   4.289   3.698   3.478  0.2852  0.2293 -0.0420
 2158SOL    MW4 8687   4.298   3.621   3.518 -0.0420  0.2041 -0.0203
 2159SOL     OW 8688   4.244   3.856   3.407  0.2186  0.4293 -0.1437
 2159SOL    HW2 8689   4.305   3.920   3.442 -0.1700  1.3361 -1.1226
 2159SOL    HW3 8690   4.258   3.858   3.313 -0.6594 -0.0406 -0.2884
 2159SOL    MW4 8691   4.254   3.864   3.399  0.0515  0.4869 -0.2918
 2160SOL     OW 8692   4.016   4.024   3.483  0.0897  0.7103 -0.4447
 2160SOL    HW2 8693   4.080   3.962   3.450  0.2444  0.7257 -0.1758
 2160SOL    HW3 8694   3.931   3.982   3.468  0.1130  1.0637 -1.5867
 2160SOL    MW4 8695   4.013   4.010   3.477  0.1125  0.7586 -0.5600
 2161SOL     OW 8696   4.075   4.275   3.419 -0.3073  0.0087 -0.6426
 2161SOL    HW2 8697   4.067   4.184   3.447  0.5322  0.2707  0.5171
 2161SOL    HW3 8698   3.988   4.312   3.431 -0.6593 -0.6459 -1.1554
 2161SOL    MW4 8699   4.063   4.268   3.424 -0.2437 -0.0429 -0.5574
 2162SOL     OW 8700   4.257   4.442   3.519 -0.1432  0.1067  0.3996
 2162SOL    HW2 8701   4.272   4.422   3.611  0.8672 -0.6846  0.0734
 2162SOL    HW3 8702   4.183   4.387   3.494 -0.0790 -0.0723  0.6024
 2162SOL    MW4 8703   4.250   4.432   3.528 -0.0019 -0.0215  0.3834
 2163SOL     OW 8704   0.214   0.003   3.908 -0.1276 -0.0680 -0.3272
 2163SOL    HW2 8705   0.187  -0.001   4.000 -0.1397  1.9597 -0.2216
 2163SOL    HW3 8706   0.137   0.038   3.862 -0.4969 -2.0725 -1.2902
 2163SOL    MW4 8707   0.200   0.007   3.914 -0.1779 -0.0649 -0.4401
 2164SOL     OW 8708   4.473   0.100   3.796  0.4478  0.2036 -0.0723
 2164SOL    HW2 8709   4.471   0.194   3.815 -0.5678 -0.0156  0.9783
 2164SOL    HW3 8710   4.462   0.095   3.701  0.7483  1.1549 -0.1707
 2164SOL    MW4 8711   4.471   0.112   3.786  0.3533  0.3002  0.0534
 2165SOL     OW 8712   4.461   0.364   3.884  0.0174 -0.6430 -0.1745
 2165SOL    HW2 8713   4.398   0.427   3.848 -0.1240  0.3670  1.7869
 2165SOL    HW3 8714   4.546   0.404   3.870 -0.0192 -0.3709  0.3826
 2165SOL    MW4 8715   4.464   0.377   3.877 -0.0057 -0.4739  0.1576
 2166SOL     OW 8716   0.217   0.461   3.834 -0.3796  0.2008 -0.2705
 2166SOL    HW2 8717   0.217   0.555   3.851 -2.1153  0.4342 -1.4584
 2166SOL    HW3 8718   0.228   0.453   3.739 -1.4773 -0.7348 -0.3380
 2166SOL    MW4 8719   0.219   0.473   3.824 -0.7534  0.1081 -0.4363
 2167SOL     OW 8720   0.231   0.746   3.858  0.3907  0.3747  0.2044
 2167SOL    HW2 8721   0.235   0.733   3.953  0.6038  1.9925  0.4420
 2167SOL    HW3 8722   0.150   0.795   3.844  0.2972  0.0293 -0.4571
 2167SOL    MW4 8723   0.221   0.751   3.869  0.4065  0.5426  0.1483
 2168SOL     OW 8724   0.009   0.901   3.824  0.3787  0.0031 -0.7336
 2168SOL    HW2 8725  -0.080   0.880   3.851  0.9715 -1.0721  0.4437
 2168SOL    HW3 8726   0.024   0.990   3.855  1.1586 -1.3136  2.9027
 2168SOL    MW4 8727  -0.000   0.910   3.831  0.5598 -0.3125 -0.0987
 2169SOL     OW 8728   0.040   1.161   3.902  0.1074  0.0156 -0.2207
 2169SOL    HW2 8729  -0.041   1.203   3.874 -0.1332 -0.5446 -0.3791
 2169SOL    HW3 8730   0.109   1.223   3.878 -0.3193  0.7608  0.4618
 2169SOL    MW4 8731   0.038   1.175   3.895  0.0196  0.0401 -0.1516
 2170SOL     OW 8732   0.223   1.316   3.769 -0.0958  0.4915 -0.2261
 2170SOL    HW2 8733   0.201   1.407   3.786  1.4216  0.7938  0.2097
 2170SOL    HW3 8734   0.215   1.306   3.674  0.9524  1.4318 -0.4236
 2170SOL    MW4 8735   0.219   1.326   3.758  0.2427  0.6554 -0.1945
 2171SOL     OW 8736   0.181   1.587   3.863 -0.1687 -0.1612 -0.0832
 2171SOL    HW2 8737   0.194   1.591   3.958  0.1873 -1.1226 -0.0808
 2171SOL    HW3 8738   0.104   1.641   3.847 -0.3919 -0.2093  0.7838
 2171SOL    MW4 8739   0.173   1.595   3.874 -0.1512 -0.2943  0.0312
 2172SOL     OW 8740   4.448   1.710   3.771 -0.5183 -0.0362 -0.3808
 2172SOL    HW2 8741   4.461   1.803   3.789  3.2487 -0.5094 -0.3461
 2172SOL    HW3 8742   4.460   1.701   3.677 -0.8807 -0.4951 -0.3852
 2172SOL    MW4 8743   4.451   1.721   3.761 -0.0687 -0.1593 -0.3767
 2173SOL     OW 8744   4.463   1.979   3.814 -0.0835 -0.4133 -0.0929
 2173SOL    HW2 8745   4.450   1.967   3.908  1.0859  0.6474  0.2096
 2173SOL    HW3 8746   4.379   2.011   3.782  0.2776  1.8102  1.0541
 2173SOL    MW4 8747   4.450   1.981   3.822  0.1187  0.0200  0.0985
 2174SOL     OW 8748   0.223   2.067   3.764 -0.0922 -0.3159 -0.4667
 2174SOL    HW2 8749   0.227   2.160   3.788 -0.3177 -0.4474  0.0897
 2174SOL    HW3 8750   0.136   2.039   3.792 -0.2091 -0.5739 -1.0908
 2174SOL    MW4 8751   0.212   2.076   3.771 -0.1373 -0.3672 -0.4754
 2175SOL     OW 8752   0.226   2.341   3.854 -0.1210 -0.2547  0.5890
 2175SOL    HW2 8753   0.208   2.333   3.948 -0.9622 -0.6655  0.4030
 2175SOL    HW3 8754   0.159   2.402   3.823  1.6462  1.8187  0.6666
 2175SOL    MW4 8755   0.215   2.348   3.863  0.0012 -0.0353  0.5746
 2176SOL     OW 8756   0.019   2.478   3.741  0.1396  0.3738 -0.2719
 2176SOL    HW2 8757  -0.065   2.439   3.766  0.9006 -0.2738  1.3172
 2176SOL    HW3 8758   0.015   2.568   3.775  0.5063  0.0129  0.7369
 2176SOL    MW4 8759   0.007   2.485   3.749  0.2884  0.2406  0.0710
 2177SOL     OW 8760   4.490   2.727   3.862 -0.5463  0.3755 -0.1935
 2177SOL    HW2 8761   4.575   2.766   3.843  0.3923 -1.2317  0.6714
 2177SOL    HW3 8762   4.481   2.733   3.957 -1.6970  1.1391 -0.3446
 2177SOL    MW4 8763   4.500   2.733   3.872 -0.5741  0.2642 -0.0989
 2178SOL     OW 8764   0.277   2.795   3.812 -0.0481 -0.4017  0.4630
 2178SOL    HW2 8765   0.357   2.748   3.835 -0.3935 -0.4918  1.4840
 2178SOL    HW3 8766   0.276   2.795   3.716  0.7229 -1.1643  0.4506
 2178SOL    MW4 8767   0.287   2.789   3.802  0.0081 -0.5143  0.5960
 2179SOL     OW 8768   0.240   3.062   3.866  0.5538  0.4636  0.1844
 2179SOL    HW2 8769   0.228   3.050   3.960  0.1473 -0.4439  0.0197
 2179SOL    HW3 8770   0.262   2.975   3.833 -1.4296  0.3299 -0.8780
 2179SOL    MW4 8771   0.241   3.049   3.874  0.2385  0.3264  0.0226
 2180SOL     OW 8772   0.010   3.199   3.738 -0.5176  0.4133  0.0819
 2180SOL    HW2 8773   0.084   3.143   3.761 -1.1605 -0.0204  1.1339
 2180SOL    HW3 8774   0.010   3.201   3.643 -1.8985 -3.3447 -0.0977
 2180SOL    MW4 8775   0.019   3.192   3.729 -0.7847 -0.1400  0.1969
 2181SOL     OW 8776   0.019   3.427   3.896  0.2282  0.1460  0.1020
 2181SOL    HW2 8777   0.079   3.493   3.861 -0.2838  0.2376 -0.5987
 2181SOL    HW3 8778   0.031   3.351   3.840  0.2463 -0.0910  0.4285
 2181SOL    MW4 8779   0.028   3.426   3.884  0.1631  0.1264  0.0525
 2182SOL     OW 8780   0.196   3.605   3.775  0.0006  0.2764  0.4769
 2182SOL    HW2 8781   0.277   3.568   3.810  1.8589  1.4404 -2.3599
 2182SOL    HW3 8782   0.198   3.697   3.801 -0.6652  0.1837  0.8478
 2182SOL    MW4 8783   0.207   3.612   3.783  0.1580  0.4179  0.1516
 2183SOL     OW 8784   0.190   3.871   3.858  0.4764  0.1345  0.0891
 2183SOL    HW2 8785   0.186   3.865   3.953  3.0062 -1.1071  0.1404
 2183SOL    HW3 8786   0.270   3.920   3.840  0.1781  0.1005 -1.4240
 2183SOL    MW4 8787   0.200   3.877   3.868  0.7708 -0.0339 -0.1037
 2184SOL     OW 8788   4.477   4.036   3.770 -0.7260 -0.0295  0.2656
 2184SOL    HW2 8789   4.404   3.995   3.816 -0.1614  0.3536  1.5388
 2184SOL    HW3 8790   4.554   3.988   3.799 -0.3347  0.3319 -0.1517
 2184SOL    MW4 8791   4.478   4.024   3.780 -0.5999  0.0687  0.3786
 2185SOL     OW 8792   0.006   4.273   3.893 -0.2117  0.2214  0.2962
 2185SOL    HW2 8793   0.070   4.325   3.843  0.8222 -0.9689  0.3541
 2185SOL    HW3 8794   0.001   4.190   3.847 -1.1851  0.0431  0.7182
 2185SOL    MW4 8795   0.014   4.269   3.880 -0.2037  0.0410  0.3598
 2186SOL     OW 8796   0.224   4.431   3.782 -0.1000 -0.0880 -0.2162
 2186SOL    HW2 8797   0.290   4.368   3.811 -1.8231 -0.9025  2.1195
 2186SOL    HW3 8798   0.228   4.501   3.847 -0.4727  0.5842 -0.9154
 2186SOL    MW4 8799   0.233   4.432   3.795 -0.3765 -0.1068 -0.0002
 2187SOL     OW 8800   0.621   4.606   3.925  0.1334 -0.3422  0.0372
 2187SOL    HW2 8801   0.615   4.529   3.869 -1.1461  0.1122 -0.4547
 2187SOL    HW3 8802   0.551   4.664   3.896  0.4910  0.6201  1.0156
 2187SOL    MW4 8803   0.611   4.604   3.914  0.0118 -0.1554  0.1013
 2188SOL     OW 8804   0.431   0.135   3.802  0.3620  0.1769 -0.1249
 2188SOL    HW2 8805   0.435   0.220   3.846 -0.7450  0.2519 -0.1399
 2188SOL    HW3 8806   0.354   0.092   3.839 -0.6680  0.2929 -2.0319
 2188SOL    MW4 8807   0.421   0.141   3.813  0.0801  0.2021 -0.3784
 2189SOL     OW 8808   0.463   0.400   3.937  0.3079  0.3119  0.0068
 2189SOL    HW2 8809   0.523   0.448   3.881  0.2975  0.6075  0.2450
 2189SOL    HW3 8810   0.376   0.417   3.900  0.4956 -1.3196 -1.2155
 2189SOL    MW4 8811   0.459   0.409   3.925  0.3313  0.1357 -0.1228
 2190SOL     OW 8812   0.667   0.499   3.789 -0.1910 -0.0528  0.0341
 2190SOL    HW2 8813   0.741   0.448   3.821 -1.0394 -0.7163  0.9399
 2190SOL    HW3 8814   0.680   0.587   3.826 -0.9674 -0.7112  1.9328
 2190SOL    MW4 8815   0.679   0.504   3.798 -0.4053 -0.2272  0.4041
 2191SOL     OW 8816   0.732   0.771   3.872  0.5712 -0.3279 -0.2981
 2191SOL    HW2 8817   0.804   0.822   3.835 -0.1027  0.9249  0.0771
 2191SOL    HW3 8818   0.654   0.820   3.848  0.0174 -0.3349  1.4404
 2191SOL    MW4 8819   0.731   0.784   3.864  0.4092 -0.1635 -0.0193
 2192SOL     OW 8820   0.463   0.886   3.771 -0.8074  0.4212 -0.0936
 2192SOL    HW2 8821   0.437   0.969   3.811 -0.5886 -0.3260  1.6588
 2192SOL    HW3 8822   0.387   0.829   3.784 -0.5502  0.0256 -0.3305
 2192SOL    MW4 8823   0.449   0.890   3.778 -0.7446  0.2704  0.1061
 2193SOL     OW 8824   0.423   1.169   3.889  0.1060 -0.0372  0.1815
 2193SOL    HW2 8825   0.506   1.207   3.860 -0.6850  1.4765 -0.1426
 2193SOL    HW3 8826   0.356   1.220   3.843 -0.9869 -1.7764 -0.1853
 2193SOL    MW4 8827   0.425   1.181   3.879 -0.1425 -0.0670  0.0904
 2194SOL     OW 8828   0.664   1.263   3.775  0.2684  0.5660 -0.1786
 2194SOL    HW2 8829   0.739   1.225   3.820 -0.2848  0.7949  0.9865
 2194SOL    HW3 8830   0.667   1.227   3.687  1.2847 -0.0542  0.1037
 2194SOL    MW4 8831   0.674   1.253   3.770  0.3296  0.5144  0.0122
 2195SOL     OW 8832   0.605   1.547   3.875  0.5627  0.3421  0.1769
 2195SOL    HW2 8833   0.687   1.586   3.845  1.2848 -0.1859  1.4232
 2195SOL    HW3 8834   0.610   1.455   3.847  0.1540  0.4345 -0.2098
 2195SOL    MW4 8835   0.616   1.540   3.868  0.6040  0.2848  0.2904
 2196SOL     OW 8836   0.409   1.665   3.714 -0.2923 -0.7550 -0.4436
 2196SOL    HW2 8837   0.471   1.616   3.769 -0.8329  0.2810  1.1399
 2196SOL    HW3 8838   0.327   1.662   3.763 -1.1992 -1.1160 -1.9651
 2196SOL    MW4 8839   0.406   1.659   3.728 -0.4833 -0.6660 -0.4354
 2197SOL     OW 8840   0.420   1.905   3.873  0.0247  0.4935  0.1439
 2197SOL    HW2 8841   0.417   1.831   3.811  1.0022  0.3320  0.2795
 2197SOL    HW3 8842   0.353   1.966   3.841 -0.9162 -0.5323  0.1349
 2197SOL    MW4 8843   0.411   1.903   3.860  0.0295  0.3368  0.1605
 2198SOL     OW 8844   0.645   2.037   3.787  0.0709  0.5154  0.0284
 2198SOL    HW2 8845   0.645   2.122   3.830  1.0095 -0.6132  2.3462
 2198SOL    HW3 8846   0.567   1.993   3.821 -0.6468  0.5723 -1.4860
 2198SOL    MW4 8847   0.635   2.042   3.797  0.1001  0.3738  0.1345
 2199SOL     OW 8848   0.643   2.298   3.900 -0.0884 -0.0246  0.0161
 2199SOL    HW2 8849   0.726   2.331   3.866 -0.0355  2.5788  2.4270
 2199SOL    HW3 8850   0.577   2.357   3.864 -0.4966  0.0500  0.8647
 2199SOL    MW4 8851   0.645   2.310   3.891 -0.1354  0.3288  0.4461
 2200SOL     OW 8852   0.463   2.453   3.767 -0.4702  0.4213 -0.2595
 2200SOL    HW2 8853   0.383   2.404   3.789  0.6984 -1.4525 -0.0481
 2200SOL    HW3 8854   0.482   2.429   3.676  0.0838  0.4964 -0.1676
 2200SOL    MW4 8855   0.455   2.443   3.758 -0.2429  0.1838 -0.2196
 2201SOL     OW 8856   0.514   2.682   3.904  0.4863  0.1039 -0.4770
 2201SOL    HW2 8857   0.584   2.734   3.865  1.4207 -0.8822 -0.1368
 2201SOL    HW3 8858   0.509   2.603   3.850 -0.2961  0.1227 -0.4389
 2201SOL    MW4 8859   0.522   2.678   3.892  0.5063 -0.0236 -0.4272
 2202SOL     OW 8860   0.695   2.834   3.790  0.7225 -0.2530 -0.3924
 2202SOL    HW2 8861   0.772   2.781   3.807  1.3349  0.1513 -1.8538
 2202SOL    HW3 8862   0.685   2.833   3.695 -0.7885  0.0982 -0.2579
 2202SOL    MW4 8863   0.704   2.827   3.780  0.6040 -0.1533 -0.5677
 2203SOL     OW 8864   0.668   3.104   3.880  0.1159 -0.2400 -0.2537
 2203SOL    HW2 8865   0.686   3.106   3.974 -0.0995  1.7504 -0.2245
 2203SOL    HW3 8866   0.693   3.016   3.852  2.9128  0.0489  1.1517
 2203SOL    MW4 8867   0.674   3.093   3.889  0.4565  0.0608 -0.0646
 2204SOL     OW 8868   0.445   3.225   3.760 -0.3845  0.2756  0.6327
 2204SOL    HW2 8869   0.523   3.194   3.806  0.1105  1.2227  0.4550
 2204SOL    HW3 8870   0.374   3.171   3.794  0.6788 -2.1714 -0.8838
 2204SOL    MW4 8871   0.446   3.214   3.770 -0.1789  0.0777  0.4091
 2205SOL     OW 8872   0.423   3.487   3.889 -0.0807  1.0030  0.3349
 2205SOL    HW2 8873   0.503   3.522   3.850 -1.1150  2.1364 -0.8092
 2205SOL    HW3 8874   0.410   3.403   3.845 -0.0943  1.3051 -0.2422
 2205SOL    MW4 8875   0.432   3.480   3.878 -0.2190  1.1923  0.1080
 2206SOL     OW 8876   0.643   3.617   3.784  0.0393  0.2522  0.1051
 2206SOL    HW2 8877   0.646   3.702   3.828 -2.5043 -0.0939  1.0540
 2206SOL    HW3 8878   0.648   3.639   3.691  2.0354  1.2434  0.4221
 2206SOL    MW4 8879   0.644   3.631   3.778 -0.0330  0.3376  0.2723
 2207SOL     OW 8880   0.643   3.866   3.903  0.0059 -0.1460 -0.3764
 2207SOL    HW2 8881   0.653   3.854   3.997 -1.5099  0.4142 -0.1446
 2207SOL    HW3 8882   0.721   3.915   3.877  0.1615  0.1682  0.6591
 2207SOL    MW4 8883   0.655   3.871   3.912 -0.1736 -0.0305 -0.2093
 2208SOL     OW 8884   0.432   3.998   3.798  0.5596  0.3526 -0.4575
 2208SOL    HW2 8885   0.503   3.944   3.833  0.7232  0.5127 -0.5436
 2208SOL    HW3 8886   0.445   3.997   3.704 -0.2134 -0.5416 -0.5583
 2208SOL    MW4 8887   0.443   3.991   3.790  0.4792  0.2558 -0.4823
 2209SOL     OW 8888   0.427   4.252   3.912  0.0251  0.4639  0.1598
 2209SOL    HW2 8889   0.516   4.285   3.894 -0.2663  1.1877 -0.0006
 2209SOL    HW3 8890   0.434   4.158   3.902  0.7977  0.5068  0.2147
 2209SOL    MW4 8891   0.440   4.244   3.909  0.0886  0.5651  0.1457
 2210SOL     OW 8892   0.650   4.381   3.774  0.1250 -0.3405  0.1045
 2210SOL    HW2 8893   0.744   4.364   3.785  0.4841  1.8255  0.6057
 2210SOL    HW3 8894   0.640   4.400   3.680  0.1866 -0.5245  0.0598
 2210SOL    MW4 8895   0.661   4.381   3.763  0.1805 -0.0792  0.1645
 2211SOL     OW 8896   1.088   4.648   3.895 -0.7380  0.1779  0.2732
 2211SOL    HW2 8897   1.167   4.697   3.871 -1.8858  1.0767 -1.7276
 2211SOL    HW3 8898   1.114   4.556   3.885  0.8880  0.3655  2.3738
 2211SOL    MW4 8899   1.102   4.642   3.890 -0.6750  0.3219  0.2861
 2212SOL     OW 8900   0.837   0.082   3.798  0.3711 -0.2976 -0.0004
 2212SOL    HW2 8901   0.917   0.043   3.833  0.7668  2.3584  2.2367
 2212SOL    HW3 8902   0.766   0.040   3.846  0.8147  1.8858  2.6864
 2212SOL    MW4 8903   0.839   0.071   3.809  0.4818  0.3409  0.6492
 2213SOL     OW 8904   0.888   0.351   3.873 -0.0952 -0.0773 -0.3488
 2213SOL    HW2 8905   0.898   0.347   3.968  2.3645 -0.1175 -0.5746
 2213SOL    HW3 8906   0.873   0.261   3.846 -1.0806 -0.0272  0.0156
 2213SOL    MW4 8907   0.887   0.339   3.882  0.0992 -0.0761 -0.3304
 2214SOL     OW 8908   1.119   0.495   3.749  0.1932 -0.4092  0.0941
 2214SOL    HW2 8909   1.193   0.445   3.783  0.7524  1.5682  1.8663
 2214SOL    HW3 8910   1.042   0.442   3.771  0.8067 -0.7695  1.4033
 2214SOL    MW4 8911   1.119   0.481   3.756  0.3480 -0.1959  0.5007
 2215SOL     OW 8912   1.107   0.737   4.180 -0.2034  0.0847 -0.5859
 2215SOL    HW2 8913   1.124   0.647   4.206 -0.8927 -0.3538 -1.5973
 2215SOL    HW3 8914   1.181   0.787   4.216 -0.5545 -0.6447  1.1859
 2215SOL    MW4 8915   1.119   0.732   4.188 -0.3406 -0.0694 -0.4859
 2216SOL     OW 8916   0.957   0.929   3.815 -0.0986  0.3144 -0.0566
 2216SOL    HW2 8917   1.010   0.857   3.850 -0.0774  0.5149  0.3277
 2216SOL    HW3 8918   0.954   0.913   3.721  1.9422  1.1457 -0.2962
 2216SOL    MW4 8919   0.964   0.918   3.807  0.1734  0.4506 -0.0377
 2217SOL     OW 8920   0.890   1.179   3.896  0.0397 -0.3696 -0.0828
 2217SOL    HW2 8921   0.869   1.166   3.988 -1.5896  0.8535 -0.2459
 2217SOL    HW3 8922   0.934   1.099   3.869 -0.0079 -0.9734  1.6140
 2217SOL    MW4 8923   0.893   1.167   3.904 -0.1815 -0.2879  0.1194
 2218SOL     OW 8924   1.101   1.303   3.756 -0.5341 -0.1593 -0.5596
 2218SOL    HW2 8925   1.090   1.395   3.779  1.1436 -0.1846  0.4681
 2218SOL    HW3 8926   1.040   1.256   3.813 -0.1058  0.2030  0.2115
 2218SOL    MW4 8927   1.092   1.309   3.767 -0.2561 -0.1148 -0.3223
 2219SOL     OW 8928   1.105   1.564   3.859  0.1312 -0.0335 -0.0073
 2219SOL    HW2 8929   1.111   1.567   3.955 -0.8696 -0.2307  0.0642
 2219SOL    HW3 8930   1.188   1.600   3.829  0.2738  0.4486  0.9404
 2219SOL    MW4 8931   1.117   1.569   3.868  0.0180  0.0041  0.1273
 2220SOL     OW 8932   0.841   1.684   3.789  0.2368 -0.6480  0.0457
 2220SOL    HW2 8933   0.929   1.657   3.813  0.1775 -0.4622  0.4818
 2220SOL    HW3 8934   0.846   1.703   3.695  0.7822 -0.1652  0.1699
 2220SOL    MW4 8935   0.853   1.683   3.780  0.3009 -0.5599  0.1197
 2221SOL     OW 8936   0.890   1.926   3.909  0.8410  0.0553  0.0060
 2221SOL    HW2 8937   0.868   1.838   3.877  0.5054  0.1636 -0.0564
 2221SOL    HW3 8938   0.813   1.978   3.890  0.1396 -0.1787  2.1593
 2221SOL    MW4 8939   0.877   1.921   3.902  0.7042  0.0386  0.2818
 2222SOL     OW 8940   1.091   2.028   3.756  0.2615  0.2409 -0.0616
 2222SOL    HW2 8941   1.015   1.983   3.791  0.2135  0.1442 -0.2937
 2222SOL    HW3 8942   1.084   2.018   3.661  2.2099 -2.4558  0.0236
 2222SOL    MW4 8943   1.080   2.021   3.748  0.5121 -0.1278 -0.0811
 2223SOL     OW 8944   1.126   2.288   3.853 -0.4351  0.5265  0.1188
 2223SOL    HW2 8945   1.131   2.289   3.948  2.0701 -0.6539  0.0553
 2223SOL    HW3 8946   1.116   2.195   3.830  1.1350  0.5533 -0.7915
 2223SOL    MW4 8947   1.125   2.276   3.862  0.1025  0.3746 -0.0095
 2224SOL     OW 8948   0.883   2.394   3.798  0.0613 -0.1093 -0.1879
 2224SOL    HW2 8949   0.891   2.486   3.822  0.7850 -0.1852 -0.1136
 2224SOL    HW3 8950   0.968   2.356   3.821 -0.2929 -0.8328 -0.0475
 2224SOL    MW4 8951   0.895   2.401   3.805  0.1100 -0.2148 -0.1597
 2225SOL     OW 8952   0.905   2.679   3.859 -0.1633  0.3583 -0.0828
 2225SOL    HW2 8953   0.891   2.675   3.954 -1.0764  1.3076 -0.1745
 2225SOL    HW3 8954   0.984   2.732   3.848 -0.1070  0.3202  0.1365
 2225SOL    MW4 8955   0.914   2.685   3.870 -0.2764  0.4785 -0.0663
 2226SOL     OW 8956   1.142   2.815   3.848  0.1725  0.1404 -0.3582
 2226SOL    HW2 8957   1.233   2.788   3.840  0.2661  0.5480 -0.6821
 2226SOL    HW3 8958   1.146   2.906   3.876 -0.1239  0.4475 -1.2858
 2226SOL    MW4 8959   1.154   2.823   3.851  0.1458  0.2348 -0.5231
 2227SOL     OW 8960   1.136   3.106   3.867 -0.1882 -0.7230 -0.0246
 2227SOL    HW2 8961   1.201   3.167   3.833  0.4465 -1.7320 -0.6424
 2227SOL    HW3 8962   1.052   3.145   3.844  0.1299  1.2821  1.9653
 2227SOL    MW4 8963   1.133   3.119   3.860 -0.0625 -0.5920  0.1562
 2228SOL     OW 8964   0.891   3.244   3.803 -0.2898 -0.0601 -0.0537
 2228SOL    HW2 8965   0.813   3.201   3.838  0.3724  0.6947  2.4556
 2228SOL    HW3 8966   0.880   3.241   3.708 -2.2268 -2.0695  0.2042
 2228SOL    MW4 8967   0.879   3.238   3.795 -0.4581 -0.2255  0.3116
 2229SOL     OW 8968   0.886   3.497   3.888  0.0409 -1.1347  0.0833
 2229SOL    HW2 8969   0.896   3.407   3.856 -1.1871 -1.9912  2.0813
 2229SOL    HW3 8970   0.801   3.526   3.854  1.1412 -0.1187 -1.9183
 2229SOL    MW4 8971   0.876   3.489   3.879  0.0240 -1.1137  0.0830
 2230SOL     OW 8972   1.119   3.606   3.798 -0.0270  0.3049  0.4391
 2230SOL    HW2 8973   1.132   3.689   3.844 -2.2797  1.4569 -0.9485
 2230SOL    HW3 8974   1.033   3.576   3.826 -0.0862 -0.5651 -0.6304
 2230SOL    MW4 8975   1.110   3.613   3.808 -0.3320  0.3424  0.1149
 2231SOL     OW 8976   1.088   3.862   3.934 -0.2947 -0.1868  0.4828
 2231SOL    HW2 8977   1.104   3.849   4.028  1.4375 -0.5270  0.1564
 2231SOL    HW3 8978   1.163   3.913   3.904 -1.2772  0.6756 -0.5598
 2231SOL    MW4 8979   1.100   3.867   3.943 -0.1957 -0.1180  0.3021
 2232SOL     OW 8980   0.873   4.033   3.851 -0.3571  0.1182 -0.1335
 2232SOL    HW2 8981   0.946   3.973   3.865 -0.1142  0.3630 -0.3424
 2232SOL    HW3 8982   0.870   4.045   3.756 -1.5052 -0.9368 -0.2478
 2232SOL    MW4 8983   0.882   4.027   3.840 -0.4765  0.0110 -0.1762
 2233SOL     OW 8984   0.920   4.300   3.917  0.0985 -0.3431  0.2223
 2233SOL    HW2 8985   0.910   4.309   4.012  1.7107 -0.4154  0.4204
 2233SOL    HW3 8986   0.893   4.211   3.898 -1.4138  0.0554  0.4284
 2233SOL    MW4 8987   0.915   4.290   3.927  0.1117 -0.2999  0.2754
 2234SOL     OW 8988   1.165   4.399   3.812 -0.4814  0.0708 -0.1280
 2234SOL    HW2 8989   1.083   4.356   3.837 -0.0298 -0.5218  0.3385
 2234SOL    HW3 8990   1.155   4.415   3.718 -0.9283 -0.4405 -0.1739
 2234SOL    MW4 8991   1.153   4.395   3.803 -0.4808 -0.0749 -0.0722
 2235SOL     OW 8992   1.558   0.028   3.924  0.3460  0.5288  0.1163
 2235SOL    HW2 8993   1.567   0.024   4.019 -2.7011 -0.8312  0.4064
 2235SOL    HW3 8994   1.565  -0.063   3.895 -2.4603  0.4544 -0.5137
 2235SOL    MW4 8995   1.560   0.016   3.933 -0.4263  0.3395  0.0715
 2236SOL     OW 8996   1.310   0.130   3.815  0.3477  0.3421 -0.3728
 2236SOL    HW2 8997   1.324   0.224   3.814  1.8060  0.1510  0.4014
 2236SOL    HW3 8998   1.390   0.094   3.855 -1.0224 -1.0605  1.1936
 2236SOL    MW4 8999   1.322   0.138   3.820  0.3593  0.1318 -0.0639
 2237SOL     OW 9000   1.372   0.386   3.867  0.3962  0.1410 -0.1816
 2237SOL    HW2 9001   1.381   0.378   3.962  0.9029 -0.4675 -0.2755
 2237SOL    HW3 9002   1.443   0.446   3.842  0.7839 -0.3466 -0.2682
 2237SOL    MW4 9003   1.383   0.393   3.876  0.5140 -0.0036 -0.2055
 2238SOL     OW 9004   1.570   0.536   3.750  0.4359 -0.0823  0.1479
 2238SOL    HW2 9005   1.653   0.501   3.783  0.3279  0.2009  0.7299
 2238SOL    HW3 9006   1.557   0.617   3.800  0.1780  0.2620 -0.4644
 2238SOL    MW4 9007   1.579   0.542   3.761  0.3875  0.0004  0.1442
 2239SOL     OW 9008   1.360   0.901   3.779 -0.1421 -0.1363  0.5423
 2239SOL    HW2 9009   1.331   0.986   3.812 -1.2284 -0.3250  0.1074
 2239SOL    HW3 9010   1.292   0.840   3.807  0.6148 -0.8674  0.8245
 2239SOL    MW4 9011   1.347   0.904   3.787 -0.1855 -0.2577  0.5221
 2240SOL     OW 9012   1.161   0.733   3.900 -0.2024  0.1743  0.5171
 2240SOL    HW2 9013   1.153   0.717   3.994 -2.1747 -0.7031  0.2276
 2240SOL    HW3 9014   1.132   0.651   3.859  1.6288  0.1722 -0.8682
 2240SOL    MW4 9015   1.156   0.720   3.907 -0.2209  0.0582  0.2959
 2241SOL     OW 9016   1.329   1.161   3.864  0.0660  0.1935  0.7453
 2241SOL    HW2 9017   1.409   1.203   3.831 -0.0431  1.7336  2.3755
 2241SOL    HW3 9018   1.258   1.215   3.830 -0.2863 -1.0541 -0.5285
 2241SOL    MW4 9019   1.330   1.174   3.855  0.0052  0.2322  0.7923
 2242SOL     OW 9020   1.571   1.277   3.777 -0.5013 -0.1471  0.1501
 2242SOL    HW2 9021   1.640   1.244   3.833  0.5738 -0.6749 -1.4371
 2242SOL    HW3 9022   1.568   1.371   3.795 -0.2912 -0.3356  1.1979
 2242SOL    MW4 9023   1.580   1.285   3.786 -0.3316 -0.2416  0.0789
 2243SOL     OW 9024   1.594   1.546   3.833 -0.1004  0.0528 -0.3175
 2243SOL    HW2 9025   1.576   1.571   3.924  0.6679 -2.2511  0.5188
 2243SOL    HW3 9026   1.671   1.596   3.809 -0.4065  0.8084  0.2445
 2243SOL    MW4 9027   1.602   1.556   3.842 -0.0393 -0.1514 -0.1330
 2244SOL     OW 9028   1.350   1.633   3.741  0.1245 -0.3281 -0.2826
 2244SOL    HW2 9029   1.347   1.721   3.778 -0.8593 -0.6325  0.3880
 2244SOL    HW3 9030   1.434   1.598   3.768  0.5511  0.4221 -0.6067
 2244SOL    MW4 9031   1.360   1.640   3.749  0.0509 -0.2694 -0.2370
 2245SOL     OW 9032   1.309   1.904   3.856 -0.3864  0.1753 -0.0411
 2245SOL    HW2 9033   1.311   1.919   3.951 -0.4751  1.1700 -0.1888
 2245SOL    HW3 9034   1.230   1.950   3.826 -0.7576 -0.7604 -0.4947
 2245SOL    MW4 9035   1.299   1.912   3.865 -0.4472  0.1831 -0.1206
 2246SOL     OW 9036   1.527   2.062   3.784 -0.3221  0.5313 -0.5645
 2246SOL    HW2 9037   1.452   2.007   3.806 -0.6446  1.6099  1.1761
 2246SOL    HW3 9038   1.530   2.063   3.689 -2.8059  0.8171 -0.6641
 2246SOL    MW4 9039   1.518   2.055   3.775 -0.6922  0.7114 -0.3481
 2247SOL     OW 9040   1.603   2.298   3.919  0.0193  0.1260 -0.0743
 2247SOL    HW2 9041   1.671   2.323   3.856 -2.5445  2.1206 -2.1358
 2247SOL    HW3 9042   1.573   2.212   3.890  1.2256 -0.5034  0.5018
 2247SOL    MW4 9043   1.608   2.290   3.907 -0.1597  0.3064 -0.2701
 2248SOL     OW 9044   1.361   2.415   3.783  0.0365  0.0889 -0.0754
 2248SOL    HW2 9045   1.426   2.375   3.842 -0.6209  1.0172  1.3043
 2248SOL    HW3 9046   1.277   2.385   3.818 -0.2919 -0.9556 -1.7431
 2248SOL    MW4 9047   1.359   2.405   3.796 -0.0936  0.0734 -0.1135
 2249SOL     OW 9048   1.364   2.664   3.881 -0.4202 -0.2171 -0.2561
 2249SOL    HW2 9049   1.325   2.645   3.967  1.0560  0.4605  0.5748
 2249SOL    HW3 9050   1.368   2.579   3.837 -0.0990 -0.7542  0.8001
 2249SOL    MW4 9051   1.359   2.651   3.886 -0.1832 -0.1988 -0.0067
 2250SOL     OW 9052   1.539   2.883   3.777  0.2573 -0.0798 -0.2997
 2250SOL    HW2 9053   1.482   2.811   3.803 -1.1320  0.8909 -0.6519
 2250SOL    HW3 9054   1.536   2.883   3.681 -0.5036  1.0415 -0.2848
 2250SOL    MW4 9055   1.531   2.874   3.768 -0.0265  0.1962 -0.3443
 2251SOL     OW 9056   1.573   3.118   3.937  0.1248  0.4276 -0.3199
 2251SOL    HW2 9057   1.544   3.097   4.026 -1.1587 -1.9506 -1.2708
 2251SOL    HW3 9058   1.571   3.034   3.891  2.9706  1.2258 -1.9999
 2251SOL    MW4 9059   1.569   3.104   3.943  0.3309  0.2191 -0.6671
 2252SOL     OW 9060   1.369   3.234   3.789  0.0201  0.2539 -0.0252
 2252SOL    HW2 9061   1.368   3.320   3.830 -0.6839  1.2054 -1.9723
 2252SOL    HW3 9062   1.438   3.186   3.835  1.6444  2.4489 -0.0972
 2252SOL    MW4 9063   1.378   3.239   3.801  0.1416  0.6690 -0.2916
 2253SOL     OW 9064   1.338   3.481   3.932 -0.5152  0.3613  0.0420
 2253SOL    HW2 9065   1.415   3.534   3.914  0.1132 -0.3820  0.4705
 2253SOL    HW3 9066   1.269   3.520   3.880  0.1313  1.0934 -0.2819
 2253SOL    MW4 9067   1.339   3.493   3.923 -0.3471  0.3598  0.0558
 2254SOL     OW 9068   1.574   3.592   3.830  0.2852  0.1302 -0.1606
 2254SOL    HW2 9069   1.654   3.550   3.862 -0.5108 -0.4455  1.1081
 2254SOL    HW3 9070   1.579   3.681   3.865  0.2838  0.0444  0.0586
 2254SOL    MW4 9071   1.585   3.598   3.839  0.1800  0.0429  0.0358
 2255SOL     OW 9072   1.551   3.865   3.890 -0.0415  0.2330 -0.2226
 2255SOL    HW2 9073   1.533   3.865   3.984  0.8319 -0.6684 -0.0443
 2255SOL    HW3 9074   1.472   3.902   3.850 -0.7210 -0.0884  0.8057
 2255SOL    MW4 9075   1.538   3.870   3.897 -0.0159  0.0718 -0.0632
 2256SOL     OW 9076   1.315   4.002   3.794  0.5790  0.0120 -0.0238
 2256SOL    HW2 9077   1.357   4.080   3.830  0.8654  0.1409 -0.6229
 2256SOL    HW3 9078   1.318   4.015   3.699 -0.4684 -0.1584 -0.0864
 2256SOL    MW4 9079   1.321   4.014   3.786  0.4785  0.0062 -0.1111
 2257SOL     OW 9080   1.387   4.248   3.881 -0.6003 -0.5351 -0.1753
 2257SOL    HW2 9081   1.465   4.299   3.860 -1.0117  0.2783  0.2417
 2257SOL    HW3 9082   1.314   4.303   3.853 -1.0488 -0.8611  0.3437
 2257SOL    MW4 9083   1.388   4.262   3.875 -0.7138 -0.4702 -0.0520
 2258SOL     OW 9084   1.622   4.427   3.824  0.0063 -0.1521 -0.0666
 2258SOL    HW2 9085   1.702   4.384   3.855  0.4709  1.0826  0.4762
 2258SOL    HW3 9086   1.624   4.416   3.729  0.5382 -0.6068 -0.0052
 2258SOL    MW4 9087   1.633   4.420   3.816  0.1377 -0.0491  0.0131
 2259SOL     OW 9088   2.016   4.651   3.890  0.0854 -0.3348  0.5732
 2259SOL    HW2 9089   2.084   4.694   3.839 -2.2341  1.2656 -1.2945
 2259SOL    HW3 9090   2.013   4.562   3.856  1.5264 -0.5667  1.0060
 2259SOL    MW4 9091   2.024   4.645   3.879 -0.0305 -0.1543  0.3839
 2260SOL     OW 9092   1.800   0.141   3.813  0.2253 -0.1700  0.0418
 2260SOL    HW2 9093   1.875   0.099   3.855  0.8070 -0.1140 -0.9240
 2260SOL    HW3 9094   1.724   0.096   3.850  0.6662  0.5741  1.9111
 2260SOL    MW4 9095   1.800   0.129   3.824  0.3601 -0.0644  0.1609
 2261SOL     OW 9096   1.799   0.415   3.870 -0.0315 -0.0781  0.0965
 2261SOL    HW2 9097   1.776   0.420   3.963 -0.4432 -0.3011  0.0098
 2261SOL    HW3 9098   1.804   0.321   3.852  0.9081 -0.0298  0.0995
 2261SOL    MW4 9099   1.796   0.403   3.880  0.0381 -0.1011  0.0854
 2262SOL     OW 9100   2.027   0.536   3.766 -0.2453  0.5059 -0.5882
 2262SOL    HW2 9101   1.949   0.493   3.800  0.0665  0.0928 -0.3885
 2262SOL    HW3 9102   2.036   0.504   3.677  0.5417 -0.6068 -0.1156
 2262SOL    MW4 9103   2.018   0.526   3.759 -0.1006  0.3046 -0.4995
 2263SOL     OW 9104   2.038   0.788   3.895  0.4352 -0.4257 -0.1993
 2263SOL    HW2 9105   2.016   0.778   3.988 -2.0239 -0.0347 -0.7052
 2263SOL    HW3 9106   2.033   0.700   3.860  1.7356 -0.6273  0.1046
 2263SOL    MW4 9107   2.034   0.775   3.903  0.2820 -0.4008 -0.2260
 2264SOL     OW 9108   1.774   0.880   3.828  0.2685 -0.1715 -0.2535
 2264SOL    HW2 9109   1.863   0.847   3.833 -0.3523 -1.9542 -0.5114
 2264SOL    HW3 9110   1.750   0.871   3.735 -0.7595 -1.3357  0.1134
 2264SOL    MW4 9111   1.782   0.875   3.816  0.0511 -0.5603 -0.2391
 2265SOL     OW 9112   1.785   1.143   3.920  0.2299 -0.1716  0.6167
 2265SOL    HW2 9113   1.807   1.145   4.013  0.3278  1.1521  0.5677
 2265SOL    HW3 9114   1.781   1.049   3.899  0.9861 -0.4782  1.7648
 2265SOL    MW4 9115   1.787   1.131   3.929  0.3426 -0.0374  0.7615
 2266SOL     OW 9116   1.963   1.318   3.786  0.1501  0.6933  0.3580
 2266SOL    HW2 9117   2.050   1.285   3.811  0.2702  0.3799 -0.4510
 2266SOL    HW3 9118   1.901   1.261   3.831  0.3481 -1.0391 -1.4771
 2266SOL    MW4 9119   1.967   1.306   3.795  0.1922  0.4232  0.0091
 2267SOL     OW 9120   2.003   1.578   3.894  0.2244 -0.1001 -0.3552
 2267SOL    HW2 9121   1.953   1.637   3.837 -0.4569  1.0071  1.3503
 2267SOL    HW3 9122   1.976   1.490   3.868  0.5767  0.3476 -2.3170
 2267SOL    MW4 9123   1.993   1.574   3.883  0.1811  0.1050 -0.3889
 2268SOL     OW 9124   1.827   1.672   3.688 -0.5610  0.6734  0.1925
 2268SOL    HW2 9125   1.808   1.765   3.706 -0.0068  0.6535  0.9185
 2268SOL    HW3 9126   1.823   1.665   3.593 -0.6710  1.4357  0.1324
 2268SOL    MW4 9127   1.824   1.684   3.678 -0.5025  0.7714  0.2806
 2269SOL     OW 9128   1.743   1.901   3.829 -0.0775  0.2015 -0.0680
 2269SOL    HW2 9129   1.745   1.915   3.924 -0.0556  2.1908 -0.3555
 2269SOL    HW3 9130   1.660   1.939   3.801  0.7338  1.2469 -1.0876
 2269SOL    MW4 9131   1.732   1.908   3.838  0.0324  0.6019 -0.2406
 2270SOL     OW 9132   1.973   2.055   3.782  0.0747 -0.3165  0.4735
 2270SOL    HW2 9133   1.891   2.007   3.790 -0.7300  0.8225 -0.7131
 2270SOL    HW3 9134   1.981   2.073   3.688  1.3730  0.1079  0.6566
 2270SOL    MW4 9135   1.964   2.051   3.771  0.1400 -0.1101  0.3409
 2271SOL     OW 9136   1.984   2.327   3.875  0.3477 -0.1591  0.0370
 2271SOL    HW2 9137   1.959   2.245   3.831  0.6675  0.1935 -0.8229
 2271SOL    HW3 9138   1.913   2.387   3.855 -0.7127 -0.7135  2.0899
 2271SOL    MW4 9139   1.972   2.324   3.866  0.2500 -0.1855  0.1943
 2272SOL     OW 9140   1.773   2.445   3.761 -0.4697  0.2017 -0.3910
 2272SOL    HW2 9141   1.749   2.531   3.796 -2.5088 -0.4474 -0.1105
 2272SOL    HW3 9142   1.769   2.456   3.666  1.5562  1.0179 -0.3962
 2272SOL    MW4 9143   1.769   2.458   3.753 -0.4715  0.2239 -0.3548
 2273SOL     OW 9144   1.743   2.710   3.863  0.7378 -0.3933  0.3483
 2273SOL    HW2 9145   1.729   2.708   3.958  1.2170  1.0145  0.4657
 2273SOL    HW3 9146   1.695   2.788   3.834  0.8718 -0.6340 -0.5280
 2273SOL    MW4 9147   1.735   2.720   3.872  0.8188 -0.2394  0.2482
 2274SOL     OW 9148   1.993   2.819   3.800  0.3374  0.2371 -0.5118
 2274SOL    HW2 9149   2.071   2.772   3.831 -0.3426 -0.2786  0.4585
 2274SOL    HW3 9150   1.920   2.774   3.843 -0.4277  1.3048 -0.6861
 2274SOL    MW4 9151   1.993   2.807   3.810  0.1467  0.3102 -0.4067
 2275SOL     OW 9152   1.967   3.099   3.897  0.3822  0.4247 -0.3739
 2275SOL    HW2 9153   2.050   3.129   3.861  0.8288 -0.4129 -0.0695
 2275SOL    HW3 9154   1.970   3.003   3.887 -0.4650  0.3768 -0.1991
 2275SOL    MW4 9155   1.978   3.090   3.891  0.3295  0.3076 -0.3109
 2276SOL     OW 9156   1.765   3.243   3.788  0.1789  0.3892 -0.4103
 2276SOL    HW2 9157   1.835   3.183   3.813  0.5278  1.0629  0.2467
 2276SOL    HW3 9158   1.692   3.221   3.846 -0.3042 -0.5895 -1.3733
 2276SOL    MW4 9159   1.765   3.232   3.799  0.1611  0.3490 -0.4508
 2277SOL     OW 9160   1.812   3.474   3.928  0.2055  0.1169 -0.0823
 2277SOL    HW2 9161   1.867   3.522   3.866  0.6550  0.0285  0.2456
 2277SOL    HW3 9162   1.796   3.390   3.887  1.1207 -0.2223  0.2498
 2277SOL    MW4 9163   1.817   3.469   3.915  0.3855  0.0603  0.0050
 2278SOL     OW 9164   1.999   3.626   3.757  0.5158  0.1656  0.0643
 2278SOL    HW2 9165   2.082   3.580   3.771  0.7185 -0.0026 -1.5901
 2278SOL    HW3 9166   1.978   3.612   3.665 -1.3800  0.1831  0.4606
 2278SOL    MW4 9167   2.007   3.618   3.747  0.2923  0.1457 -0.1018
 2279SOL     OW 9168   1.979   3.875   3.868  0.1353 -0.6705  0.5780
 2279SOL    HW2 9169   2.063   3.916   3.850  0.0513 -0.4787  0.6220
 2279SOL    HW3 9170   1.982   3.792   3.820  0.0945 -0.3700  0.0563
 2279SOL    MW4 9171   1.990   3.869   3.859  0.1189 -0.6056  0.5150
 2280SOL     OW 9172   1.761   4.036   3.834 -0.4160  0.1707  0.0375
 2280SOL    HW2 9173   1.831   3.976   3.858 -0.3710  0.2768  0.1683
 2280SOL    HW3 9174   1.680   3.989   3.858 -0.3961  0.0172 -0.1840
 2280SOL    MW4 9175   1.759   4.022   3.840 -0.4075  0.1640  0.0253
 2281SOL     OW 9176   1.830   4.281   3.907 -0.3959  0.2051 -0.1362
 2281SOL    HW2 9177   1.894   4.323   3.850 -0.4136 -1.5600 -1.4916
 2281SOL    HW3 9178   1.807   4.199   3.862 -1.8693 -0.2921  1.4510
 2281SOL    MW4 9179   1.835   4.276   3.893 -0.5926 -0.0930 -0.1054
 2282SOL     OW 9180   2.055   4.399   3.769  0.0323 -0.1220 -0.6352
 2282SOL    HW2 9181   2.133   4.365   3.813  0.3185  0.6337 -0.5565
 2282SOL    HW3 9182   2.072   4.386   3.676  0.7376  1.0611 -0.6795
 2282SOL    MW4 9183   2.067   4.393   3.762  0.1631  0.1340 -0.6309
 2283SOL     OW 9184   2.462   4.636   3.857 -0.0018  0.2061  0.1320
 2283SOL    HW2 9185   2.453   4.635   3.953  0.7535 -0.9532  0.2003
 2283SOL    HW3 9186   2.536   4.694   3.840  0.0617  0.1618  0.2615
 2283SOL    MW4 9187   2.470   4.644   3.868  0.1063  0.0477  0.1581
 2284SOL     OW 9188   2.215   0.125   3.763  0.2124 -0.4083  0.7516
 2284SOL    HW2 9189   2.294   0.084   3.797  0.6947  0.2579  0.4487
 2284SOL    HW3 9190   2.223   0.115   3.668 -0.6698 -1.4355  0.7829
 2284SOL    MW4 9191   2.227   0.119   3.755  0.1597 -0.4559  0.7157
 2285SOL     OW 9192   2.235   0.371   3.874 -0.5011 -0.0380  0.0641
 2285SOL    HW2 9193   2.227   0.292   3.820  0.1818  0.1555 -0.3230
 2285SOL    HW3 9194   2.156   0.422   3.854 -0.3302 -0.0458 -0.6204
 2285SOL    MW4 9195   2.223   0.367   3.864 -0.3884 -0.0135 -0.0775
 2286SOL     OW 9196   2.455   0.499   3.809 -0.0944 -0.8322 -0.0083
 2286SOL    HW2 9197   2.375   0.451   3.829 -0.3284 -0.5752 -0.3350
 2286SOL    HW3 9198   2.457   0.505   3.714  0.1784 -0.6149  0.0091
 2286SOL    MW4 9199   2.445   0.494   3.799 -0.0894 -0.7696 -0.0491
 2287SOL     OW 9200   2.448   0.768   3.864  0.1012 -0.4083  0.2842
 2287SOL    HW2 9201   2.370   0.808   3.826 -0.8629 -2.2092  0.2946
 2287SOL    HW3 9202   2.442   0.675   3.839  0.6046 -1.2037  2.9295
 2287SOL    MW4 9203   2.437   0.761   3.855  0.0403 -0.7510  0.6347
 2288SOL     OW 9204   2.235   0.943   3.800 -0.4347  0.0985 -0.1135
 2288SOL    HW2 9205   2.164   0.890   3.837  0.4494 -0.6817  0.4776
 2288SOL    HW3 9206   2.220   0.939   3.705 -0.2209 -1.4543 -0.0954
 2288SOL    MW4 9207   2.223   0.935   3.792 -0.2897 -0.2093 -0.0331
 2289SOL     OW 9208   2.214   1.200   3.889 -0.3283  0.0840 -0.2246
 2289SOL    HW2 9209   2.210   1.205   3.985 -0.3233  1.6474 -0.2962
 2289SOL    HW3 9210   2.209   1.107   3.870 -0.3701 -0.2402  1.3036
 2289SOL    MW4 9211   2.213   1.189   3.899 -0.3333  0.2475 -0.0324
 2290SOL     OW 9212   2.470   1.321   3.791 -0.2209 -0.2611  0.4150
 2290SOL    HW2 9213   2.475   1.407   3.834 -0.6764  0.0747 -0.1908
 2290SOL    HW3 9214   2.397   1.277   3.835 -1.2780  0.4320 -0.6201
 2290SOL    MW4 9215   2.461   1.327   3.803 -0.4206 -0.1252  0.1986
 2291SOL     OW 9216   2.463   1.566   3.925  0.2798  0.3102 -0.2210
 2291SOL    HW2 9217   2.547   1.596   3.891 -0.2620 -0.1898 -2.0529
 2291SOL    HW3 9218   2.398   1.614   3.875 -0.5740 -2.0786 -1.4939
 2291SOL    MW4 9219   2.465   1.576   3.914  0.0954 -0.0710 -0.6304
 2292SOL     OW 9220   2.240   1.679   3.771  0.4196  0.0261 -0.0142
 2292SOL    HW2 9221   2.235   1.771   3.798 -0.7728  0.1161 -0.4888
 2292SOL    HW3 9222   2.162   1.639   3.810  0.6464 -0.6665 -0.2632
 2292SOL    MW4 9223   2.229   1.686   3.780  0.2918 -0.0535 -0.1097
 2293SOL     OW 9224   2.197   1.931   3.890  0.1611  0.2360  0.1502
 2293SOL    HW2 9225   2.210   1.948   3.983 -0.6026  1.3879  0.0546
 2293SOL    HW3 9226   2.117   1.979   3.868  0.1705 -0.2814 -1.0286
 2293SOL    MW4 9227   2.188   1.940   3.899  0.0615  0.3197 -0.0179
 2294SOL     OW 9228   2.447   2.026   3.765 -0.3096 -0.0058 -0.6384
 2294SOL    HW2 9229   2.489   2.105   3.801 -0.5102 -0.0410 -0.3241
 2294SOL    HW3 9230   2.357   2.030   3.798 -0.5792  0.1156 -1.3873
 2294SOL    MW4 9231   2.441   2.037   3.774 -0.3715  0.0057 -0.6955
 2295SOL     OW 9232   2.514   2.278   3.846  0.5997  0.0444  0.3619
 2295SOL    HW2 9233   2.588   2.330   3.812  0.7521 -0.7425 -0.5233
 2295SOL    HW3 9234   2.437   2.328   3.821  0.6583 -0.9379 -1.9426
 2295SOL    MW4 9235   2.514   2.291   3.838  0.6280 -0.1888 -0.0591
 2296SOL     OW 9236   2.230   2.423   3.814  0.0014 -0.3237  0.4020
 2296SOL    HW2 9237   2.146   2.382   3.834 -0.0387 -0.0948  0.7173
 2296SOL    HW3 9238   2.233   2.427   3.719 -0.0770 -0.8796  0.3753
 2296SOL    MW4 9239   2.220   2.418   3.804 -0.0143 -0.3669  0.4401
 2297SOL     OW 9240   2.233   2.703   3.874 -0.0782  0.6214  0.0062
 2297SOL    HW2 9241   2.223   2.715   3.968  0.8792  1.7494 -0.0264
 2297SOL    HW3 9242   2.233   2.608   3.862 -0.2207  0.4693  1.1335
 2297SOL    MW4 9243   2.231   2.692   3.885  0.0296  0.7503  0.1507
 2298SOL     OW 9244   2.475   2.833   3.817 -0.0170  0.1872 -0.0630
 2298SOL    HW2 9245   2.389   2.791   3.827  0.1886 -0.0695  0.6138
 2298SOL    HW3 9246   2.498   2.817   3.725 -0.7288  0.3240 -0.2717
 2298SOL    MW4 9247   2.466   2.825   3.806 -0.0837  0.1714 -0.0017
 2299SOL     OW 9248   2.452   3.135   3.806  0.0004  0.1267  0.1785
 2299SOL    HW2 9249   2.451   3.157   3.899  0.2873  0.6340  0.0648
 2299SOL    HW3 9250   2.464   3.040   3.804  0.2029  0.1415  0.6550
 2299SOL    MW4 9251   2.453   3.125   3.818  0.0648  0.1955  0.2263
 2300SOL     OW 9252   2.188   3.200   3.770  0.0600 -0.4904  0.1089
 2300SOL    HW2 9253   2.202   3.293   3.789 -0.9607 -0.0040 -1.4304
 2300SOL    HW3 9254   2.273   3.160   3.783  0.5092  0.6582  0.8031
 2300SOL    MW4 9255   2.201   3.207   3.774 -0.0153 -0.2749 -0.0029
 2301SOL     OW 9256   2.222   3.484   3.830 -0.1004 -0.2869 -0.3144
 2301SOL    HW2 9257   2.203   3.489   3.923  1.7294 -2.8360  0.2537
 2301SOL    HW3 9258   2.310   3.523   3.821 -0.2816 -0.0223 -0.9808
 2301SOL    MW4 9259   2.231   3.490   3.841  0.1171 -0.5884 -0.3273
 2302SOL     OW 9260   2.471   3.641   3.779 -0.3678 -0.5283  0.0790
 2302SOL    HW2 9261   2.551   3.605   3.817  0.5401  0.4458 -0.8654
 2302SOL    HW3 9262   2.469   3.608   3.690  0.1118  1.1587 -0.5773
 2302SOL    MW4 9263   2.481   3.632   3.773 -0.1850 -0.1771 -0.1323
 2303SOL     OW 9264   2.481   3.907   3.853 -0.5017  0.1188 -0.2330
 2303SOL    HW2 9265   2.551   3.942   3.798  0.1570  0.2628  0.6814
 2303SOL    HW3 9266   2.482   3.813   3.836 -0.4135  0.1855 -0.5935
 2303SOL    MW4 9267   2.491   3.899   3.844 -0.4029  0.1469 -0.1600
 2304SOL     OW 9268   2.221   4.000   3.780  0.6249 -0.1462  0.0906
 2304SOL    HW2 9269   2.306   3.960   3.796  1.1892  0.7403 -0.6450
 2304SOL    HW3 9270   2.200   3.979   3.689  1.3834  2.0011 -0.6172
 2304SOL    MW4 9271   2.230   3.992   3.770  0.7994  0.2539 -0.0999
 2305SOL     OW 9272   2.273   4.247   3.871 -0.0880 -0.0821 -0.3720
 2305SOL    HW2 9273   2.266   4.240   3.966 -0.8465  0.9404 -0.3426
 2305SOL    HW3 9274   2.253   4.159   3.840 -1.8717  0.0410  0.3354
 2305SOL    MW4 9275   2.269   4.235   3.879 -0.4234  0.0691 -0.2744
 2306SOL     OW 9276   2.468   4.389   3.735 -0.1634 -0.0712  0.3485
 2306SOL    HW2 9277   2.403   4.330   3.773 -0.5282 -0.2002 -0.4632
 2306SOL    HW3 9278   2.445   4.475   3.771  0.3101 -0.3992  1.4557
 2306SOL    MW4 9279   2.456   4.393   3.745 -0.1493 -0.1311  0.3874
 2307SOL     OW 9280   2.881   0.015   3.901  0.7198  0.7770 -0.2592
 2307SOL    HW2 9281   2.899   0.003   3.994  1.6526  0.5426 -0.4653
 2307SOL    HW3 9282   2.964   0.046   3.864  0.3316  0.9461 -0.9942
 2307SOL    MW4 9283   2.894   0.017   3.908  0.7918  0.7682 -0.3834
 2308SOL     OW 9284   2.677   0.144   3.781 -0.2076 -0.3062 -0.3622
 2308SOL    HW2 9285   2.753   0.101   3.820  0.1680  0.7545  0.0915
 2308SOL    HW3 9286   2.678   0.117   3.689  0.2611 -0.9133 -0.1840
 2308SOL    MW4 9287   2.687   0.135   3.774 -0.0963 -0.2464 -0.2789
 2309SOL     OW 9288   2.701   0.398   3.860 -0.3453 -0.7872  0.0638
 2309SOL    HW2 9289   2.696   0.314   3.814 -0.8431  0.5830 -2.4543
 2309SOL    HW3 9290   2.615   0.437   3.849 -0.5102 -0.4420  2.2885
 2309SOL    MW4 9291   2.689   0.392   3.853 -0.4325 -0.5609  0.0250
 2310SOL     OW 9292   2.939   0.509   3.766  0.1148  0.6080  0.1011
 2310SOL    HW2 9293   3.005   0.455   3.810 -0.3887 -1.5675 -1.7331
 2310SOL    HW3 9294   2.856   0.476   3.799 -0.1847  0.4723 -0.7742
 2310SOL    MW4 9295   2.937   0.498   3.776  0.0088  0.3030 -0.2561
 2311SOL     OW 9296   2.870   0.778   3.854  0.2027  0.2667 -0.1847
 2311SOL    HW2 9297   2.959   0.810   3.842  1.1761 -1.9403  0.8123
 2311SOL    HW3 9298   2.871   0.689   3.819 -0.7012 -0.9764  2.7473
 2311SOL    MW4 9299   2.882   0.771   3.848  0.2120 -0.1885  0.3335
 2312SOL     OW 9300   2.656   0.919   3.763 -0.0112  0.2695  0.0021
 2312SOL    HW2 9301   2.731   0.875   3.803  0.3224  0.0455 -0.8672
 2312SOL    HW3 9302   2.582   0.863   3.784  0.2100 -0.0133  0.0378
 2312SOL    MW4 9303   2.656   0.906   3.771  0.0618  0.2027 -0.1078
 2313SOL     OW 9304   2.688   1.153   3.877  0.4206 -0.4763  0.2409
 2313SOL    HW2 9305   2.661   1.071   3.836  1.4011 -0.9608  0.5495
 2313SOL    HW3 9306   2.623   1.217   3.848 -0.3019 -1.3427 -0.0650
 2313SOL    MW4 9307   2.676   1.151   3.868  0.4544 -0.6545  0.2413
 2314SOL     OW 9308   2.913   1.268   3.763 -0.2319  0.1020 -0.0579
 2314SOL    HW2 9309   2.911   1.360   3.791 -0.5828  0.5716 -1.6200
 2314SOL    HW3 9310   2.838   1.229   3.808 -0.5422  0.7510  0.0055
 2314SOL    MW4 9311   2.903   1.275   3.773 -0.3190  0.2496 -0.2553
 2315SOL     OW 9312   2.951   1.526   3.876  0.1720 -0.1703  0.3718
 2315SOL    HW2 9313   2.961   1.543   3.969  0.7533 -0.7892  0.4279
 2315SOL    HW3 9314   3.026   1.569   3.835  0.0327 -0.0799  0.2102
 2315SOL    MW4 9315   2.962   1.534   3.883  0.2303 -0.2401  0.3581
 2316SOL     OW 9316   2.700   1.657   3.819  0.0916 -0.4600  0.2360
 2316SOL    HW2 9317   2.790   1.629   3.834 -0.2886 -1.6309  0.4464
 2316SOL    HW3 9318   2.691   1.663   3.724  0.4736 -0.0284  0.2244
 2316SOL    MW4 9319   2.710   1.654   3.809  0.0920 -0.5575  0.2623
 2317SOL     OW 9320   2.673   1.939   3.890 -0.4572  0.0090 -0.4377
 2317SOL    HW2 9321   2.669   1.843   3.888 -0.9731 -0.0050  0.6735
 2317SOL    HW3 9322   2.587   1.967   3.860 -0.6836  0.1078  0.3083
 2317SOL    MW4 9323   2.661   1.930   3.886 -0.5553  0.0201 -0.1926
 2318SOL     OW 9324   2.904   2.044   3.752  0.4839 -0.3382 -0.0014
 2318SOL    HW2 9325   2.927   2.128   3.793  0.8903  1.0629 -2.9317
 2318SOL    HW3 9326   2.824   2.016   3.797 -2.2742  3.9425 -1.8993
 2318SOL    MW4 9327   2.896   2.052   3.763  0.1738  0.4113 -0.6385
 2319SOL     OW 9328   2.950   2.304   3.867  0.1515  0.4283 -0.4815
 2319SOL    HW2 9329   2.949   2.312   3.963 -1.1834  0.9249 -0.5327
 2319SOL    HW3 9330   3.031   2.349   3.841  1.2065 -0.8478  0.4933
 2319SOL    MW4 9331   2.961   2.311   3.876  0.1144  0.3252 -0.3600
 2320SOL     OW 9332   2.728   2.422   3.754  0.0631  0.2022  0.3264
 2320SOL    HW2 9333   2.707   2.506   3.795  0.3980  0.1272  0.6480
 2320SOL    HW3 9334   2.813   2.397   3.791  0.5499  0.3187 -0.6992
 2320SOL    MW4 9335   2.736   2.429   3.765  0.1719  0.2074  0.2337
 2321SOL     OW 9336   2.690   2.673   3.853 -0.3380  0.3410 -0.2447
 2321SOL    HW2 9337   2.694   2.649   3.946 -2.0281  0.8199 -0.0250
 2321SOL    HW3 9338   2.609   2.724   3.845  0.5510  1.5830 -1.6979
 2321SOL    MW4 9339   2.680   2.677   3.864 -0.4439  0.5684 -0.4077
 2322SOL     OW 9340   2.936   2.785   3.760  0.0072 -0.5762 -0.2606
 2322SOL    HW2 9341   2.929   2.876   3.787  0.2987 -0.0799 -1.7711
 2322SOL    HW3 9342   2.860   2.742   3.798 -1.6286  0.8900 -1.7717
 2322SOL    MW4 9343   2.925   2.792   3.768 -0.1702 -0.3173 -0.6592
 2323SOL     OW 9344   2.891   3.021   3.881  0.3609  0.1252 -0.2007
 2323SOL    HW2 9345   2.969   3.066   3.851 -0.1186  0.8538 -0.3702
 2323SOL    HW3 9346   2.818   3.068   3.839 -0.2072 -0.0045  0.6189
 2323SOL    MW4 9347   2.892   3.033   3.872  0.2229  0.2041 -0.1149
 2324SOL     OW 9348   2.713   3.220   3.781  0.1396  0.2990 -0.3787
 2324SOL    HW2 9349   2.710   3.311   3.811  0.5955  0.2783 -0.2721
 2324SOL    HW3 9350   2.624   3.188   3.795  0.4726  0.1143  1.5010
 2324SOL    MW4 9351   2.701   3.228   3.787  0.2434  0.2716 -0.1166
 2325SOL     OW 9352   2.690   3.475   3.867 -0.3804 -0.3841 -0.0524
 2325SOL    HW2 9353   2.694   3.482   3.962  0.1639  2.5450 -0.2639
 2325SOL    HW3 9354   2.766   3.523   3.836 -0.9506 -0.7003 -2.0052
 2325SOL    MW4 9355   2.700   3.482   3.876 -0.3834 -0.0391 -0.3381
 2326SOL     OW 9356   2.895   3.600   3.756 -0.2233  0.2046 -0.0704
 2326SOL    HW2 9357   2.971   3.543   3.770  0.4025  0.7122 -1.2722
 2326SOL    HW3 9358   2.878   3.595   3.662 -2.3285 -0.6838  0.3484
 2326SOL    MW4 9359   2.903   3.592   3.746 -0.4184  0.1540 -0.1738
 2327SOL     OW 9360   2.906   3.889   3.815  0.1752 -0.2220 -0.0889
 2327SOL    HW2 9361   2.917   3.882   3.909  0.4647 -0.2751 -0.1281
 2327SOL    HW3 9362   2.898   3.798   3.785 -0.4395 -0.1863 -0.0525
 2327SOL    MW4 9363   2.906   3.876   3.823  0.1323 -0.2244 -0.0894
 2328SOL     OW 9364   2.692   4.039   3.726 -0.1241 -0.5600  0.3349
 2328SOL    HW2 9365   2.688   4.124   3.769 -1.4129 -0.8959  0.9036
 2328SOL    HW3 9366   2.775   4.001   3.753 -0.3476 -0.2231  1.4996
 2328SOL    MW4 9367   2.702   4.045   3.735 -0.3240 -0.5593  0.5636
 2329SOL     OW 9368   2.689   4.277   3.867 -0.0265  0.2103 -0.1162
 2329SOL    HW2 9369   2.757   4.343   3.852  0.4892 -0.7012 -1.9788
 2329SOL    HW3 9370   2.608   4.318   3.836  0.3615 -0.1627 -1.6645
 2329SOL    MW4 9371   2.687   4.291   3.861  0.0927  0.0410 -0.5662
 2330SOL     OW 9372   2.911   4.438   3.772  0.3290  0.2355  0.4059
 2330SOL    HW2 9373   2.984   4.379   3.792  0.6828  0.4833 -0.1359
 2330SOL    HW3 9374   2.936   4.522   3.809  0.7781  0.5769 -0.6512
 2330SOL    MW4 9375   2.924   4.441   3.780  0.4346  0.3138  0.1950
 2331SOL     OW 9376   3.396   4.663   3.850  0.3200 -0.2126  0.0512
 2331SOL    HW2 9377   3.397   4.672   3.945 -0.2558  1.9632 -0.1314
 2331SOL    HW3 9378   3.457   4.730   3.819  0.1961 -0.6421 -1.1482
 2331SOL    MW4 9379   3.404   4.673   3.858  0.2277  0.0176 -0.1314
 2332SOL     OW 9380   3.127   0.089   3.802 -0.0789  0.2648  0.2190
 2332SOL    HW2 9381   3.218   0.062   3.814  0.4082  1.2907 -1.0297
 2332SOL    HW3 9382   3.112   0.079   3.708 -1.0859  0.6314  0.3384
 2332SOL    MW4 9383   3.137   0.084   3.791 -0.1473  0.4486  0.0703
 2333SOL     OW 9384   3.169   0.359   3.878 -0.1543  0.4473  0.2598
 2333SOL    HW2 9385   3.155   0.350   3.972  2.9720 -0.2512  0.7029
 2333SOL    HW3 9386   3.163   0.269   3.844 -0.4229  0.5952 -0.0913
 2333SOL    MW4 9387   3.166   0.346   3.886  0.2227  0.3747  0.2718
 2334SOL     OW 9388   3.382   0.548   3.772  0.0103 -0.0403 -0.3235
 2334SOL    HW2 9389   3.450   0.498   3.817 -0.9752 -0.1893  1.0101
 2334SOL    HW3 9390   3.300   0.503   3.792 -0.5163  0.2089 -1.8251
 2334SOL    MW4 9391   3.380   0.536   3.780 -0.1893 -0.0271 -0.3455
 2335SOL     OW 9392   3.383   0.806   3.886  0.6686 -0.3688 -0.9205
 2335SOL    HW2 9393   3.386   0.803   3.982 -1.7485  1.4883 -0.7388
 2335SOL    HW3 9394   3.395   0.715   3.859  0.0720 -1.1119  1.1875
 2335SOL    MW4 9395   3.385   0.794   3.895  0.2711 -0.2218 -0.6182
 2336SOL     OW 9396   3.131   0.866   3.826  0.7766 -0.3469  0.0566
 2336SOL    HW2 9397   3.217   0.843   3.859  0.9547  0.0160 -0.1525
 2336SOL    HW3 9398   3.138   0.856   3.731  0.7298  0.1462  0.0009
 2336SOL    MW4 9399   3.143   0.861   3.818  0.7939 -0.2339  0.0219
 2337SOL     OW 9400   3.134   1.169   3.881 -0.6139 -0.0223 -0.4254
 2337SOL    HW2 9401   3.127   1.074   3.873 -0.9969  0.0207 -0.5808
 2337SOL    HW3 9402   3.055   1.204   3.839 -0.2582  0.3829 -0.7713
 2337SOL    MW4 9403   3.123   1.161   3.874 -0.6177  0.0367 -0.4916
 2338SOL     OW 9404   3.381   1.252   3.830 -0.0398  0.3443 -0.0107
 2338SOL    HW2 9405   3.297   1.236   3.872  0.4523 -1.5562  0.3315
 2338SOL    HW3 9406   3.361   1.252   3.736 -0.7836  2.3290  0.1296
 2338SOL    MW4 9407   3.367   1.250   3.823 -0.0732  0.3555  0.0529
 2339SOL     OW 9408   3.393   1.546   3.837  0.2512  0.2576 -0.0211
 2339SOL    HW2 9409   3.320   1.584   3.788  0.5479  0.4814 -0.2875
 2339SOL    HW3 9410   3.394   1.454   3.811 -0.4008  0.0820  0.5441
 2339SOL    MW4 9411   3.383   1.539   3.827  0.2043  0.2638  0.0186
 2340SOL     OW 9412   3.137   1.650   3.718  0.2734 -0.2487 -0.1387
 2340SOL    HW2 9413   3.154   1.734   3.760 -0.1804 -0.0446 -0.3691
 2340SOL    HW3 9414   3.131   1.670   3.625  0.5469 -0.5958 -0.2369
 2340SOL    MW4 9415   3.139   1.664   3.711  0.2496 -0.2676 -0.1822
 2341SOL     OW 9416   3.159   1.894   3.843 -0.2561 -0.5083 -0.5881
 2341SOL    HW2 9417   3.150   1.893   3.938  0.7344  1.4803 -0.4522
 2341SOL    HW3 9418   3.085   1.947   3.813  0.7675  0.8354 -0.7494
 2341SOL    MW4 9419   3.148   1.901   3.852  0.0098 -0.0687 -0.5913
 2342SOL     OW 9420   3.384   2.042   3.761 -0.7830  0.3774  0.2562
 2342SOL    HW2 9421   3.308   1.983   3.762 -1.3390  1.0865  0.3063
 2342SOL    HW3 9422   3.396   2.064   3.669  0.7061 -1.4346 -0.0112
 2342SOL    MW4 9423   3.376   2.037   3.749 -0.6599  0.2317  0.2272
 2343SOL     OW 9424   3.396   2.282   3.898  0.1452  0.2179  0.0418
 2343SOL    HW2 9425   3.315   2.327   3.874  0.3276 -0.1716 -1.3886
 2343SOL    HW3 9426   3.385   2.193   3.863  0.2831 -0.5150  1.7932
 2343SOL    MW4 9427   3.384   2.276   3.890  0.1874  0.0696  0.0842
 2344SOL     OW 9428   3.179   2.420   3.788  0.0803 -0.0308  0.1033
 2344SOL    HW2 9429   3.181   2.511   3.816 -1.2195 -0.0703  0.3372
 2344SOL    HW3 9430   3.182   2.425   3.692 -0.2593  0.2647  0.1067
 2344SOL    MW4 9431   3.180   2.433   3.779 -0.1361  0.0029  0.1347
 2345SOL     OW 9432   3.172   2.671   3.883  0.5348 -0.2697 -0.4248
 2345SOL    HW2 9433   3.178   2.654   3.977 -0.0120 -0.3759 -0.4097
 2345SOL    HW3 9434   3.084   2.706   3.870  1.1886  1.3403 -0.6494
 2345SOL    MW4 9435   3.161   2.674   3.894  0.5488 -0.0713 -0.4525
 2346SOL     OW 9436   3.392   2.805   3.788  0.6317  0.5824 -0.0621
 2346SOL    HW2 9437   3.317   2.752   3.815  0.5418  0.1238 -1.1967
 2346SOL    HW3 9438   3.382   2.816   3.693  0.4601  2.9401  0.1916
 2346SOL    MW4 9439   3.381   2.799   3.779  0.5972  0.8330 -0.1783
 2347SOL     OW 9440   3.355   3.054   3.875  0.1267 -0.0216 -0.0725
 2347SOL    HW2 9441   3.436   3.087   3.836  1.4932 -2.0414  0.9473
 2347SOL    HW3 9442   3.360   2.959   3.864 -1.8009 -0.2313  0.6095
 2347SOL    MW4 9443   3.366   3.046   3.868  0.0527 -0.3159  0.1521
 2348SOL     OW 9444   3.117   3.170   3.784 -0.5965 -0.0580  0.1029
 2348SOL    HW2 9445   3.189   3.119   3.821 -0.9767 -0.0415  0.9021
 2348SOL    HW3 9446   3.136   3.176   3.691  1.0612  0.9749  0.4887
 2348SOL    MW4 9447   3.129   3.164   3.777 -0.4280  0.0806  0.2592
 2349SOL     OW 9448   3.106   3.442   3.830 -0.0536 -0.0662 -0.4538
 2349SOL    HW2 9449   3.186   3.481   3.794  0.3296 -1.8239 -1.5349
 2349SOL    HW3 9450   3.117   3.348   3.817 -2.0830 -0.3600 -0.1374
 2349SOL    MW4 9451   3.118   3.435   3.824 -0.2708 -0.3369 -0.5546
 2350SOL     OW 9452   3.350   3.595   3.765 -0.4510  0.1944  0.0061
 2350SOL    HW2 9453   3.353   3.684   3.800  0.1406  0.0838  0.2510
 2350SOL    HW3 9454   3.355   3.607   3.670  1.1428  0.3753  0.0911
 2350SOL    MW4 9455   3.351   3.608   3.757 -0.1628  0.2036  0.0494
 2351SOL     OW 9456   3.359   3.862   3.855  0.0771  0.0645 -0.4124
 2351SOL    HW2 9457   3.430   3.911   3.813  0.2230  0.1457 -0.0651
 2351SOL    HW3 9458   3.279   3.899   3.816  0.2152  0.0886 -0.6756
 2351SOL    MW4 9459   3.358   3.874   3.844  0.1147  0.0784 -0.4008
 2352SOL     OW 9460   3.147   4.001   3.742 -0.3023 -0.1925 -0.0052
 2352SOL    HW2 9461   3.147   4.094   3.763 -0.7520  0.1254 -1.3877
 2352SOL    HW3 9462   3.059   3.971   3.765 -0.3985 -0.1129 -0.2696
 2352SOL    MW4 9463   3.135   4.009   3.748 -0.3741 -0.1402 -0.2224
 2353SOL     OW 9464   3.136   4.285   3.794  0.5927 -0.1233  0.1557
 2353SOL    HW2 9465   3.139   4.270   3.889 -0.1932 -0.5271  0.1187
 2353SOL    HW3 9466   3.223   4.320   3.773  0.7554  0.0124  1.0298
 2353SOL    MW4 9467   3.148   4.287   3.804  0.5102 -0.1588  0.2666
 2354SOL     OW 9468   3.390   4.383   3.765 -0.5761  0.4054  0.2558
 2354SOL    HW2 9469   3.472   4.346   3.796 -0.2870  0.1660 -0.7638
 2354SOL    HW3 9470   3.392   4.474   3.792 -1.2513 -0.2710  2.7153
 2354SOL    MW4 9471   3.401   4.390   3.773 -0.6270  0.2847  0.4458
 2355SOL     OW 9472   3.805   0.020   3.852  0.0038  0.4751 -0.1010
 2355SOL    HW2 9473   3.892   0.057   3.838  0.2578 -0.0538  0.0390
 2355SOL    HW3 9474   3.811  -0.069   3.816  0.0958 -0.2271  1.5913
 2355SOL    MW4 9475   3.818   0.013   3.846  0.0494  0.3123  0.1407
 2356SOL     OW 9476   3.603   0.171   3.739  0.0251 -0.3883 -0.6166
 2356SOL    HW2 9477   3.675   0.115   3.766  0.2117 -0.4733 -1.2773
 2356SOL    HW3 9478   3.603   0.165   3.643  0.1622  0.8824 -0.7055
 2356SOL    MW4 9479   3.612   0.163   3.730  0.0677 -0.2319 -0.7153
 2357SOL     OW 9480   3.590   0.402   3.882  0.1169  0.2686  0.5746
 2357SOL    HW2 9481   3.664   0.452   3.847  1.2061 -0.7272  1.4243
 2357SOL    HW3 9482   3.594   0.318   3.838  0.5362 -0.4094  1.8681
 2357SOL    MW4 9483   3.600   0.398   3.872  0.3159  0.0477  0.8576
 2358SOL     OW 9484   3.811   0.503   3.761 -0.1631  0.1214 -0.3567
 2358SOL    HW2 9485   3.882   0.450   3.798 -0.3183  0.9806  1.2153
 2358SOL    HW3 9486   3.826   0.591   3.797 -0.9738  0.7132 -1.4637
 2358SOL    MW4 9487   3.823   0.508   3.771 -0.2909  0.3128 -0.2954
 2359SOL     OW 9488   3.769   0.775   3.866  0.2631  0.4102  0.3111
 2359SOL    HW2 9489   3.858   0.801   3.842 -0.0046  0.2037 -0.9452
 2359SOL    HW3 9490   3.713   0.834   3.816 -0.3206 -1.0907 -0.8223
 2359SOL    MW4 9491   3.774   0.786   3.857  0.1507  0.1850 -0.0043
 2360SOL     OW 9492   3.574   0.960   3.750 -0.0646  0.3012  0.2185
 2360SOL    HW2 9493   3.587   1.030   3.814  0.1765 -0.9351  1.5429
 2360SOL    HW3 9494   3.504   0.906   3.787 -0.6423  0.1267 -1.0616
 2360SOL    MW4 9495   3.566   0.962   3.763 -0.1090  0.1150  0.2241
 2361SOL     OW 9496   3.627   1.160   3.943 -0.0222  0.1842 -0.1486
 2361SOL    HW2 9497   3.689   1.185   3.874 -1.7474 -1.6953 -2.4326
 2361SOL    HW3 9498   3.544   1.198   3.916 -1.0849 -1.9781  0.0156
 2361SOL    MW4 9499   3.624   1.169   3.931 -0.3898 -0.3490 -0.4282
 2362SOL     OW 9500   3.826   1.240   3.739  0.0891  0.1302 -0.4364
 2362SOL    HW2 9501   3.910   1.203   3.766 -0.2120 -0.1618  0.1147
 2362SOL    HW3 9502   3.827   1.329   3.772 -0.4022 -0.3187  0.8316
 2362SOL    MW4 9503   3.837   1.247   3.747 -0.0155  0.0325 -0.1962
 2363SOL     OW 9504   3.808   1.490   3.844  0.1189 -0.1882 -0.1948
 2363SOL    HW2 9505   3.811   1.495   3.940 -0.6080 -2.0053 -0.0586
 2363SOL    HW3 9506   3.743   1.555   3.819  0.5848  0.5577  0.5295
 2363SOL    MW4 9507   3.800   1.499   3.854  0.0846 -0.3296 -0.0811
 2364SOL     OW 9508   3.631   1.689   3.781 -0.4598 -0.0785  0.4924
 2364SOL    HW2 9509   3.548   1.649   3.806  0.2709 -1.2393  1.1066
 2364SOL    HW3 9510   3.631   1.687   3.685 -0.7284 -0.9499  0.5028
 2364SOL    MW4 9511   3.620   1.684   3.772 -0.3991 -0.3467  0.5746
 2365SOL     OW 9512   3.610   1.957   3.899  0.1188 -0.2982 -0.2876
 2365SOL    HW2 9513   3.630   1.872   3.860 -1.6620 -1.3159  0.9541
 2365SOL    HW3 9514   3.523   1.979   3.866 -0.1233  0.2604  0.7073
 2365SOL    MW4 9515   3.601   1.949   3.890 -0.1481 -0.3587  0.0076
 2366SOL     OW 9516   3.819   2.067   3.737  0.2558  0.7459  0.2831
 2366SOL    HW2 9517   3.897   2.019   3.766  0.2129  0.0997 -0.6423
 2366SOL    HW3 9518   3.750   2.037   3.796  0.2099 -0.4140 -0.3481
 2366SOL    MW4 9519   3.820   2.057   3.749  0.2441  0.5074  0.0775
 2367SOL     OW 9520   3.875   2.299   3.868  0.5472 -0.4451  0.2080
 2367SOL    HW2 9521   3.794   2.347   3.854  0.9200  0.1226 -0.0137
 2367SOL    HW3 9522   3.867   2.221   3.813  0.1421 -0.4150  0.2196
 2367SOL    MW4 9523   3.863   2.295   3.859  0.5429 -0.3662  0.1802
 2368SOL     OW 9524   3.628   2.418   3.792 -0.3949 -0.2616 -0.5577
 2368SOL    HW2 9525   3.548   2.374   3.822 -0.8258  1.3719  0.7677
 2368SOL    HW3 9526   3.625   2.412   3.697 -2.2991  0.1495 -0.5288
 2368SOL    MW4 9527   3.617   2.411   3.784 -0.7031  0.0083 -0.3791
 2369SOL     OW 9528   3.613   2.689   3.895  0.0020  0.0347 -0.0549
 2369SOL    HW2 9529   3.617   2.600   3.861  0.2691 -0.3185  0.8851
 2369SOL    HW3 9530   3.529   2.723   3.865  0.3464 -0.1617 -1.3025
 2369SOL    MW4 9531   3.603   2.682   3.886  0.0827 -0.0377 -0.0954
 2370SOL     OW 9532   3.822   2.825   3.737  0.6578 -0.3761  0.0237
 2370SOL    HW2 9533   3.898   2.780   3.775 -0.6913 -1.2827  1.7345
 2370SOL    HW3 9534   3.747   2.782   3.777 -0.7359  1.8285 -0.1551
 2370SOL    MW4 9535   3.822   2.813   3.747  0.2959 -0.2046  0.2258
 2371SOL     OW 9536   3.805   3.103   3.801  0.4970  0.3172 -0.4199
 2371SOL    HW2 9537   3.723   3.131   3.761  0.4110 -0.2761 -0.6650
 2371SOL    HW3 9538   3.820   3.015   3.766  0.5109 -0.1340  0.7111
 2371SOL    MW4 9539   3.796   3.095   3.791  0.4876  0.1793 -0.3030
 2372SOL     OW 9540   3.539   3.189   3.720  0.3323 -0.0605  0.1791
 2372SOL    HW2 9541   3.535   3.279   3.753  0.9960  0.2249 -0.4878
 2372SOL    HW3 9542   3.548   3.199   3.625  2.9951 -0.7685  0.3155
 2372SOL    MW4 9543   3.540   3.202   3.712  0.7710 -0.1163  0.1087
 2373SOL     OW 9544   3.577   3.431   3.844 -0.2466 -0.5256 -0.1397
 2373SOL    HW2 9545   3.591   3.434   3.939  0.7318 -0.6718 -0.2770
 2373SOL    HW3 9546   3.506   3.492   3.829  0.2121  0.1970  0.5816
 2373SOL    MW4 9547   3.570   3.439   3.855 -0.0567 -0.4494 -0.0625
 2374SOL     OW 9548   3.809   3.608   3.779  0.2679  0.4289 -0.4782
 2374SOL    HW2 9549   3.807   3.691   3.827  1.7364 -0.2861  0.8439
 2374SOL    HW3 9550   3.720   3.573   3.787  0.8934 -0.4794  3.1985
 2374SOL    MW4 9551   3.797   3.614   3.786  0.5445  0.2146  0.1817
 2375SOL     OW 9552   3.784   3.879   3.874  0.2399  0.1075 -0.2265
 2375SOL    HW2 9553   3.780   3.866   3.969  2.0690  1.3515  0.0504
 2375SOL    HW3 9554   3.864   3.930   3.860  0.7871 -1.3031 -2.5776
 2375SOL    MW4 9555   3.794   3.884   3.885  0.5536  0.0858 -0.5002
 2376SOL     OW 9556   3.563   3.999   3.730 -0.1838 -0.1585 -0.2840
 2376SOL    HW2 9557   3.574   4.078   3.783 -0.3711 -0.3251 -0.0033
 2376SOL    HW3 9558   3.625   3.937   3.766 -0.4401 -0.3331 -0.1449
 2376SOL    MW4 9559   3.573   4.001   3.741 -0.2425 -0.2041 -0.2289
 2377SOL     OW 9560   3.617   4.245   3.874  0.0535  0.2914 -0.3139
 2377SOL    HW2 9561   3.615   4.268   3.967 -2.6577  2.0181 -0.7467
 2377SOL    HW3 9562   3.697   4.285   3.841  0.5681  0.4421  1.0712
 2377SOL    MW4 9563   3.627   4.253   3.882 -0.2363  0.5393 -0.1884
 2378SOL     OW 9564   3.809   4.434   3.731  0.1783  0.0320 -0.0103
 2378SOL    HW2 9565   3.881   4.391   3.777  0.1440  0.8588  0.8300
 2378SOL    HW3 9566   3.829   4.423   3.638  0.4338 -1.3433  0.2059
 2378SOL    MW4 9567   3.821   4.427   3.724  0.2077 -0.0401  0.1292
 2379SOL     OW 9568   4.263   4.637   3.925  0.3742  0.2846 -0.1657
 2379SOL    HW2 9569   4.281   4.643   4.019  1.3480 -2.1371 -0.1701
 2379SOL    HW3 9570   4.330   4.692   3.884  1.2062 -0.2556  0.4543
 2379SOL    MW4 9571   4.274   4.645   3.932  0.6123 -0.1063 -0.0846
 2380SOL     OW 9572   4.055   0.101   3.830  0.1382  0.0193  0.2071
 2380SOL    HW2 9573   4.126   0.042   3.858  0.3594  0.0994 -0.1742
 2380SOL    HW3 9574   4.059   0.098   3.734 -1.6635 -1.5232  0.1587
 2380SOL    MW4 9575   4.065   0.093   3.821 -0.0696 -0.1737  0.1504
 2381SOL     OW 9576   4.047   0.367   3.881 -0.0553  0.0438 -0.0518
 2381SOL    HW2 9577   4.019   0.375   3.972  2.0075 -0.0904  0.6190
 2381SOL    HW3 9578   4.045   0.273   3.863  0.2897  0.0086  0.0975
 2381SOL    MW4 9579   4.043   0.356   3.890  0.2623  0.0215  0.0565
 2382SOL     OW 9580   4.263   0.540   3.815 -0.1425  0.1446  0.2689
 2382SOL    HW2 9581   4.189   0.492   3.852  0.3711  0.4194  1.6649
 2382SOL    HW3 9582   4.254   0.528   3.720 -1.1632 -1.0073  0.4980
 2382SOL    MW4 9583   4.252   0.532   3.807 -0.2093  0.0289  0.4835
 2383SOL     OW 9584   4.249   0.811   3.893  0.3679 -0.2102 -0.2586
 2383SOL    HW2 9585   4.175   0.851   3.848  0.9285  0.4403 -0.6034
 2383SOL    HW3 9586   4.252   0.721   3.860 -0.6873 -0.4529  0.2725
 2383SOL    MW4 9587   4.239   0.804   3.883  0.3028 -0.1564 -0.2341
 2384SOL     OW 9588   4.022   0.883   3.756 -0.0468  0.1311 -0.0453
 2384SOL    HW2 9589   4.022   0.973   3.789  2.6990  0.1048  0.1437
 2384SOL    HW3 9590   4.030   0.893   3.661  1.2285  0.0869  0.0517
 2384SOL    MW4 9591   4.023   0.896   3.748  0.4835  0.1218 -0.0076
 2385SOL     OW 9592   4.061   1.151   3.860  0.0075 -0.0252 -0.5139
 2385SOL    HW2 9593   4.058   1.167   3.954 -0.7650 -0.3526 -0.4827
 2385SOL    HW3 9594   4.143   1.192   3.832  0.3565 -0.1228  0.3323
 2385SOL    MW4 9595   4.072   1.158   3.869 -0.0482 -0.0813 -0.3984
 2386SOL     OW 9596   4.295   1.260   3.778  0.7543 -0.0745  0.4590
 2386SOL    HW2 9597   4.293   1.354   3.796 -0.7075 -0.3004  1.5569
 2386SOL    HW3 9598   4.272   1.253   3.685 -0.6393  0.5837  0.7397
 2386SOL    MW4 9599   4.292   1.271   3.768  0.3781 -0.0174  0.6406
 2387SOL     OW 9600   4.238   1.526   3.847 -0.2017 -0.0621  0.2191
 2387SOL    HW2 9601   4.163   1.561   3.799  0.1609  0.2039 -0.1654
 2387SOL    HW3 9602   4.309   1.589   3.830  0.5973 -1.2150 -0.8997
 2387SOL    MW4 9603   4.238   1.539   3.838 -0.0482 -0.1792  0.0207
 2388SOL     OW 9604   4.029   1.650   3.749 -0.3640 -0.3947 -0.1247
 2388SOL    HW2 9605   4.031   1.737   3.790 -0.2436 -0.8486  0.8447
 2388SOL    HW3 9606   3.957   1.605   3.792 -0.2192 -0.8875 -0.4001
 2388SOL    MW4 9607   4.020   1.656   3.760 -0.3290 -0.5195 -0.0331
 2389SOL     OW 9608   4.037   1.911   3.831 -0.7170 -0.0919  0.1468
 2389SOL    HW2 9609   4.043   1.931   3.924  0.0757  0.3475  0.0102
 2389SOL    HW3 9610   4.105   1.966   3.790 -1.0597 -0.2734 -0.6854
 2389SOL    MW4 9611   4.047   1.921   3.838 -0.6576 -0.0579  0.0186
 2390SOL     OW 9612   4.228   2.077   3.716  0.4122 -0.6821  0.3196
 2390SOL    HW2 9613   4.238   2.171   3.733 -2.3469 -0.2101 -0.4339
 2390SOL    HW3 9614   4.242   2.068   3.622  0.5134 -1.0102  0.3651
 2390SOL    MW4 9615   4.231   2.088   3.706  0.0610 -0.6630  0.2263
 2391SOL     OW 9616   4.287   2.336   3.815 -0.2693 -0.0353  0.0336
 2391SOL    HW2 9617   4.290   2.315   3.909  0.0727 -0.8149 -0.1445
 2391SOL    HW3 9618   4.202   2.378   3.803 -0.0185  0.7219  0.8249
 2391SOL    MW4 9619   4.276   2.339   3.826 -0.1912 -0.0384  0.1144
 2392SOL     OW 9620   4.044   2.447   3.716  0.3342 -0.1294  0.4683
 2392SOL    HW2 9621   4.043   2.533   3.757  0.8280 -0.4597  1.1746
 2392SOL    HW3 9622   3.980   2.396   3.765  0.1247 -0.2001  0.1222
 2392SOL    MW4 9623   4.035   2.451   3.728  0.3715 -0.1824  0.5159
 2393SOL     OW 9624   4.038   2.702   3.835  0.9585 -0.2373 -0.3781
 2393SOL    HW2 9625   4.041   2.706   3.931 -0.2311  1.4812 -0.3930
 2393SOL    HW3 9626   4.093   2.775   3.807 -0.9971  1.0753 -0.9483
 2393SOL    MW4 9627   4.046   2.713   3.844  0.5431  0.1626 -0.4551
 2394SOL     OW 9628   4.264   2.847   3.737  0.1578  0.0705  0.1548
 2394SOL    HW2 9629   4.264   2.936   3.772  0.9887  0.5871 -1.1148
 2394SOL    HW3 9630   4.339   2.805   3.778 -0.0507  0.0553  0.5209
 2394SOL    MW4 9631   4.274   2.854   3.747  0.2398  0.1366  0.0358
 2395SOL     OW 9632   4.250   3.107   3.831  0.0705 -0.4274  0.1832
 2395SOL    HW2 9633   4.178   3.158   3.794  0.2023  0.6855  1.4538
 2395SOL    HW3 9634   4.329   3.148   3.796  0.1859  0.4133  1.4285
 2395SOL    MW4 9635   4.251   3.119   3.821  0.1030 -0.1695  0.5150
 2396SOL     OW 9636   4.035   3.255   3.751  0.1864 -0.2605  0.3357
 2396SOL    HW2 9637   3.956   3.206   3.773  0.1332 -0.4439 -0.2684
 2396SOL    HW3 9638   4.033   3.264   3.656  0.5411  0.3304  0.3781
 2396SOL    MW4 9639   4.024   3.250   3.741  0.2260 -0.2067  0.2618
 2397SOL     OW 9640   4.054   3.520   3.870 -0.2990 -0.2686 -0.3265
 2397SOL    HW2 9641   4.059   3.429   3.841 -0.4194 -0.6454  0.8142
 2397SOL    HW3 9642   3.966   3.549   3.844 -0.7074 -0.8576  0.4057
 2397SOL    MW4 9643   4.043   3.512   3.863 -0.3686 -0.3963 -0.0792
 2398SOL     OW 9644   4.291   3.624   3.777  0.1005 -0.2521 -0.0231
 2398SOL    HW2 9645   4.210   3.586   3.812 -0.5741 -0.7764 -2.0753
 2398SOL    HW3 9646   4.361   3.572   3.815 -0.6273 -1.0187  0.2774
 2398SOL    MW4 9647   4.289   3.612   3.787 -0.0849 -0.4225 -0.2539
 2399SOL     OW 9648   4.261   3.873   3.903  0.2814  0.3932  0.1987
 2399SOL    HW2 9649   4.178   3.912   3.878  0.2155 -0.9794 -1.8540
 2399SOL    HW3 9650   4.259   3.785   3.865  2.2067 -0.0576  1.0559
 2399SOL    MW4 9651   4.250   3.867   3.895  0.5260  0.1528  0.0410
 2400SOL     OW 9652   4.033   3.993   3.797  0.5602  0.3843 -0.3743
 2400SOL    HW2 9653   4.020   4.086   3.819 -0.1782  0.1444  0.2445
 2400SOL    HW3 9654   4.028   3.990   3.702  0.2056  0.9357 -0.3788
 2400SOL    MW4 9655   4.030   4.005   3.787  0.4153  0.4258 -0.2930
 2401SOL     OW 9656   4.014   4.270   3.848  0.1134  0.3472 -0.0060
 2401SOL    HW2 9657   4.004   4.283   3.942 -0.5739 -0.0947 -0.0106
 2401SOL    HW3 9658   4.105   4.292   3.829 -0.0140  1.3991  0.6031
 2401SOL    MW4 9659   4.025   4.274   3.858  0.0057  0.4277  0.0734
 2402SOL     OW 9660   4.269   4.390   3.795  0.0971 -0.0213  0.5928
 2402SOL    HW2 9661   4.277   4.477   3.834  0.5865  0.4985 -0.6439
 2402SOL    HW3 9662   4.347   4.343   3.823  0.4618  0.3623  0.2178
 2402SOL    MW4 9663   4.280   4.395   3.804  0.2098  0.0982  0.3803
 2403SOL     OW 9664   0.196   0.011   4.178 -0.3227 -0.0437 -0.3858
 2403SOL    HW2 9665   0.202  -0.080   4.208 -1.6767  0.5970  1.9520
 2403SOL    HW3 9666   0.280   0.049   4.203 -0.9406  0.1342  1.5108
 2403SOL    MW4 9667   0.208   0.004   4.185 -0.5828  0.0639  0.1731
 2404SOL     OW 9668   4.459   0.384   4.146  0.2497 -0.4727 -0.2377
 2404SOL    HW2 9669   4.456   0.372   4.051 -0.0788 -0.1949 -0.2621
 2404SOL    HW3 9670   4.463   0.296   4.182  1.1676 -0.5585 -0.5395
 2404SOL    MW4 9671   4.459   0.371   4.138  0.3281 -0.4473 -0.2809
 2405SOL     OW 9672   1.692   1.663   4.472 -0.2052 -0.0245 -0.6466
 2405SOL    HW2 9673   1.629   1.720   4.516 -0.5878  0.9342 -2.3743
 2405SOL    HW3 9674   1.764   1.654   4.534 -1.2014  0.4121  0.5944
 2405SOL    MW4 9675   1.693   1.669   4.486 -0.3872  0.1596 -0.7110
 2406SOL     OW 9676   0.209   0.431   4.269 -0.0291  0.0897 -0.6890
 2406SOL    HW2 9677   0.177   0.476   4.348 -0.9124  1.3055 -1.7161
 2406SOL    HW3 9678   0.129   0.410   4.220  0.3002 -3.4223  0.1703
 2406SOL    MW4 9679   0.194   0.434   4.273 -0.1022 -0.2132 -0.7110
 2407SOL     OW 9680   0.204   0.697   4.140 -0.3851  0.2108 -0.3368
 2407SOL    HW2 9681   0.207   0.607   4.172  1.0437 -0.0475 -1.1892
 2407SOL    HW3 9682   0.279   0.740   4.180 -0.6720  0.8485 -0.4705
 2407SOL    MW4 9683   0.214   0.691   4.150 -0.2344  0.2608 -0.4668
 2408SOL     OW 9684   2.299   1.808   4.528 -0.1507 -0.0088 -0.3837
 2408SOL    HW2 9685   2.277   1.761   4.447 -1.1722 -1.4820  0.7309
 2408SOL    HW3 9686   2.215   1.824   4.570  0.4713 -0.5279  1.0903
 2408SOL    MW4 9687   2.285   1.804   4.523 -0.2036 -0.2718 -0.0420
 2409SOL     OW 9688   4.443   1.110   4.183 -0.2915 -0.4981  0.3816
 2409SOL    HW2 9689   4.480   1.104   4.095 -1.1098  0.2164 -0.0097
 2409SOL    HW3 9690   4.462   1.025   4.222  1.7262 -0.1883  0.1726
 2409SOL    MW4 9691   4.451   1.098   4.177 -0.1330 -0.3630  0.3023
 2410SOL     OW 9692   0.821   0.493   4.544 -0.0543 -0.0437 -0.0248
 2410SOL    HW2 9693   0.915   0.488   4.525 -0.2317 -1.5954 -0.5597
 2410SOL    HW3 9694   0.802   0.587   4.546  1.4810  0.2842 -0.0345
 2410SOL    MW4 9695   0.831   0.505   4.542  0.1249 -0.2052 -0.0968
 2411SOL     OW 9696   3.749   4.224   4.658 -0.0113  0.3230  0.4535
 2411SOL    HW2 9697   3.715   4.253   4.742 -0.6166 -0.2059  0.3890
 2411SOL    HW3 9698   3.761   4.305   4.608  0.3217  0.6365  1.0296
 2411SOL    MW4 9699   3.746   4.239   4.663 -0.0472  0.2947  0.5207
 2412SOL     OW 9700   0.159   2.554   4.568  0.0597 -0.8606 -0.6639
 2412SOL    HW2 9701   0.146   2.551   4.663 -0.8809 -1.6339 -0.8141
 2412SOL    HW3 9702   0.101   2.486   4.534  1.2086 -1.3205 -1.7057
 2412SOL    MW4 9703   0.150   2.545   4.576  0.0872 -1.0238 -0.8206
 2413SOL     OW 9704   2.290   2.895   4.436  0.2112 -0.3423  0.2968
 2413SOL    HW2 9705   2.278   2.802   4.451 -0.3117 -0.2175  0.6927
 2413SOL    HW3 9706   2.356   2.901   4.367 -0.1318 -1.0086 -0.0850
 2413SOL    MW4 9707   2.297   2.884   4.429  0.0968 -0.4137  0.2985
 2414SOL     OW 9708   0.655   0.066   4.720 -0.0212 -0.4920 -0.2127
 2414SOL    HW2 9709   0.717   0.018   4.666  0.2060 -0.5806  0.1212
 2414SOL    HW3 9710   0.692   0.153   4.729  0.5802 -0.8474  0.8394
 2414SOL    MW4 9711   0.668   0.071   4.714  0.0882 -0.5506 -0.0300
 2415SOL     OW 9712   0.052   3.206   4.539 -0.2104 -0.0161  0.7645
 2415SOL    HW2 9713   0.016   3.208   4.450 -0.7637 -0.1096  0.9855
 2415SOL    HW3 9714   0.049   3.113   4.564  1.3518 -0.2120  0.3171
 2415SOL    MW4 9715   0.047   3.194   4.531 -0.0773 -0.0539  0.7348
 2416SOL     OW 9716   1.415   2.315   4.530  0.2480  0.0173  0.5656
 2416SOL    HW2 9717   1.477   2.244   4.520 -1.2580 -1.1459 -0.7860
 2416SOL    HW3 9718   1.384   2.333   4.441 -1.5294  0.3736  1.2223
 2416SOL    MW4 9719   1.419   2.308   4.517 -0.1853 -0.0889  0.4735
 2417SOL     OW 9720   4.065   3.185   4.476  0.0280  0.9744  0.0756
 2417SOL    HW2 9721   4.123   3.256   4.500 -0.3844  1.8708 -1.4773
 2417SOL    HW3 9722   4.003   3.179   4.549  0.5307  1.6967  0.5705
 2417SOL    MW4 9723   4.064   3.194   4.488  0.0401  1.1878 -0.0644
 2418SOL     OW 9724   0.170   1.556   4.164 -0.1370 -0.0643  0.5488
 2418SOL    HW2 9725   0.181   1.464   4.189 -1.4245  0.2218  2.2673
 2418SOL    HW3 9726   0.255   1.595   4.181  0.4552 -0.9415 -0.2901
 2418SOL    MW4 9727   0.182   1.549   4.170 -0.2288 -0.1422  0.6652
 2419SOL     OW 9728   0.226   3.078   4.161 -0.3639  0.4918 -0.3810
 2419SOL    HW2 9729   0.143   3.108   4.197 -0.4592  0.1335 -0.3026
 2419SOL    HW3 9730   0.293   3.121   4.213 -0.4946 -0.6373  0.7464
 2419SOL    MW4 9731   0.224   3.087   4.172 -0.3937  0.2956 -0.2213
 2420SOL     OW 9732   4.484   3.162   4.258  0.3412 -0.4059 -0.0121
 2420SOL    HW2 9733   4.485   3.256   4.241 -0.6745 -0.2447  0.7476
 2420SOL    HW3 9734   4.401   3.132   4.221  1.0794 -1.1705 -1.0751
 2420SOL    MW4 9735   4.473   3.170   4.251  0.3047 -0.4854 -0.0529
 2421SOL     OW 9736   4.453   3.435   4.192  0.2573  0.4110 -0.4409
 2421SOL    HW2 9737   4.382   3.499   4.201 -1.0844 -1.3653  2.0570
 2421SOL    HW3 9738   4.468   3.430   4.097 -3.7020  0.0893 -1.1701
 2421SOL    MW4 9739   4.445   3.443   4.180 -0.4425  0.1342 -0.2074
 2422SOL     OW 9740   0.014   3.997   4.261  0.0178 -0.3377 -0.6381
 2422SOL    HW2 9741   0.064   3.930   4.215  0.6029 -0.5567  0.2947
 2422SOL    HW3 9742   0.014   3.968   4.352 -0.6607  0.3648 -0.4101
 2422SOL    MW4 9743   0.021   3.984   4.267  0.0055 -0.2739 -0.4849
 2423SOL     OW 9744   4.226   1.258   4.312 -0.3674 -0.1822  0.1383
 2423SOL    HW2 9745   4.228   1.344   4.271 -0.4685  0.1208  0.7551
 2423SOL    HW3 9746   4.288   1.205   4.262  0.1985  0.4385  0.1799
 2423SOL    MW4 9747   4.234   1.262   4.300 -0.3061 -0.0604  0.2251
 2424SOL     OW 9748   2.176   0.358   4.613 -0.3933  0.7538  0.1747
 2424SOL    HW2 9749   2.229   0.413   4.670 -0.3502  0.9588 -0.0602
 2424SOL    HW3 9750   2.117   0.419   4.569 -1.2343  0.4523  0.8755
 2424SOL    MW4 9751   2.176   0.373   4.614 -0.4985  0.7410  0.2365
 2425SOL     OW 9752   4.027   0.547   4.687 -0.7612 -0.1196 -0.0104
 2425SOL    HW2 9753   4.077   0.466   4.690 -0.0413  0.3678  2.5396
 2425SOL    HW3 9754   4.091   0.615   4.711 -2.1116  0.7620  1.1749
 2425SOL    MW4 9755   4.042   0.546   4.691 -0.8445  0.0610  0.4826
 2426SOL     OW 9756   0.182   3.830   4.143 -0.6807 -0.0909  0.2618
 2426SOL    HW2 9757   0.178   3.743   4.183 -1.5518 -0.2883 -0.2586
 2426SOL    HW3 9758   0.272   3.860   4.160 -0.1598 -1.3832 -0.1785
 2426SOL    MW4 9759   0.194   3.823   4.151 -0.7269 -0.2875  0.1354
 2427SOL     OW 9760   3.786   4.464   4.536  0.0159  0.1941  0.1389
 2427SOL    HW2 9761   3.811   4.455   4.444 -1.0023  0.2251 -0.1436
 2427SOL    HW3 9762   3.869   4.480   4.581  0.5918 -0.3667 -0.6936
 2427SOL    MW4 9763   3.800   4.465   4.530 -0.0422  0.1240 -0.0086
 2428SOL     OW 9764   0.626   4.614   4.203 -0.1625 -0.5570 -0.3349
 2428SOL    HW2 9765   0.627   4.532   4.253 -1.3070  0.1895  0.9583
 2428SOL    HW3 9766   0.614   4.587   4.112 -0.2504 -1.8306  0.0450
 2428SOL    MW4 9767   0.625   4.600   4.198 -0.3251 -0.6261 -0.1140
 2429SOL     OW 9768   1.021   1.655   4.652 -0.1685  0.2518 -0.0829
 2429SOL    HW2 9769   1.110   1.637   4.622 -0.4451 -1.6084  0.1411
 2429SOL    HW3 9770   0.996   1.735   4.606  1.3755  0.4368 -0.6408
 2429SOL    MW4 9771   1.030   1.663   4.642 -0.0014  0.0308 -0.1268
 2430SOL     OW 9772   1.319   1.658   4.236  0.0126 -0.1293  0.1476
 2430SOL    HW2 9773   1.243   1.614   4.199  0.9187 -1.2739 -0.3978
 2430SOL    HW3 9774   1.313   1.642   4.330 -0.9816  0.6992  0.2361
 2430SOL    MW4 9775   1.308   1.650   4.243  0.0011 -0.1711  0.0873
 2431SOL     OW 9776   0.437   0.835   4.200  0.0447  0.2742  0.1496
 2431SOL    HW2 9777   0.531   0.824   4.187  0.0018  0.8667 -0.7274
 2431SOL    HW3 9778   0.422   0.928   4.181 -0.8849 -0.0592 -0.7157
 2431SOL    MW4 9779   0.448   0.846   4.196 -0.0837  0.3083 -0.0806
 2432SOL     OW 9780   0.971   2.610   4.580  0.4519 -0.7367 -0.1940
 2432SOL    HW2 9781   0.984   2.556   4.502  0.7751  0.6962 -1.1599
 2432SOL    HW3 9782   0.876   2.616   4.591  0.3913 -0.4702 -0.8328
 2432SOL    MW4 9783   0.960   2.604   4.571  0.4865 -0.5124 -0.4053
 2433SOL     OW 9784   2.470   4.314   4.527 -0.4505  0.0531  0.1739
 2433SOL    HW2 9785   2.410   4.376   4.570 -0.3505 -1.6423  2.9026
 2433SOL    HW3 9786   2.423   4.231   4.528  0.3239 -0.4093 -1.3927
 2433SOL    MW4 9787   2.456   4.311   4.533 -0.3350 -0.2317  0.3276
 2434SOL     OW 9788   0.173   1.278   4.227 -0.5903 -0.1300 -0.2994
 2434SOL    HW2 9789   0.239   1.213   4.202 -0.1025 -0.9029  2.7364
 2434SOL    HW3 9790   0.089   1.232   4.217 -0.2415 -1.3206  1.9447
 2434SOL    MW4 9791   0.171   1.263   4.222 -0.4800 -0.3890  0.3972
 2435SOL     OW 9792   0.607   1.505   4.159 -0.1784  0.2325  0.0244
 2435SOL    HW2 9793   0.544   1.568   4.196 -0.4341  0.6340 -1.0988
 2435SOL    HW3 9794   0.598   1.515   4.065  0.8973 -0.3968 -0.1434
 2435SOL    MW4 9795   0.597   1.515   4.152 -0.0703  0.2023 -0.1459
 2436SOL     OW 9796   4.474   1.158   4.558  0.3724  0.2761 -0.0442
 2436SOL    HW2 9797   4.551   1.199   4.518  0.4113 -0.8298 -1.1165
 2436SOL    HW3 9798   4.409   1.229   4.563  0.8758  0.7851 -0.7115
 2436SOL    MW4 9799   4.475   1.173   4.553  0.4444  0.1974 -0.2732
 2437SOL     OW 9800   0.395   1.677   4.257 -0.2303 -0.0069 -0.3321
 2437SOL    HW2 9801   0.370   1.694   4.347 -1.0845 -0.2424 -0.5250
 2437SOL    HW3 9802   0.379   1.760   4.211 -1.0377 -0.2774 -0.5387
 2437SOL    MW4 9803   0.390   1.690   4.263 -0.4495 -0.0737 -0.3848
 2438SOL     OW 9804   0.845   1.605   4.272 -0.1483 -0.2490  0.5712
 2438SOL    HW2 9805   0.773   1.564   4.225 -0.2679 -0.4907  0.9638
 2438SOL    HW3 9806   0.859   1.549   4.348  1.6129 -1.1953 -0.4159
 2438SOL    MW4 9807   0.838   1.592   4.276  0.0684 -0.4057  0.4930
 2439SOL     OW 9808   0.707   2.282   4.173  0.0822 -0.1991 -0.0978
 2439SOL    HW2 9809   0.664   2.198   4.186  0.6253 -0.4804 -0.0910
 2439SOL    HW3 9810   0.697   2.300   4.079 -0.7458  0.1253  0.0477
 2439SOL    MW4 9811   0.700   2.273   4.162  0.0447 -0.1936 -0.0777
 2440SOL     OW 9812   0.210   2.338   4.139  0.1111 -0.5944 -0.4059
 2440SOL    HW2 9813   0.198   2.243   4.147 -0.8384 -0.4793 -0.4033
 2440SOL    HW3 9814   0.288   2.356   4.191  0.2324 -1.3568 -0.3049
 2440SOL    MW4 9815   0.219   2.328   4.147  0.0018 -0.6795 -0.3924
 2441SOL     OW 9816   0.444   2.675   4.193  0.5849 -0.0180 -0.0162
 2441SOL    HW2 9817   0.454   2.677   4.098  0.6119  1.8918  0.0023
 2441SOL    HW3 9818   0.363   2.724   4.209  1.1854  0.6546  1.0057
 2441SOL    MW4 9819   0.435   2.682   4.183  0.6677  0.3226  0.1206
 2442SOL     OW 9820   0.654   2.836   4.256 -0.0848 -0.4817  0.2512
 2442SOL    HW2 9821   0.731   2.779   4.252 -0.1357 -0.4742 -1.0739
 2442SOL    HW3 9822   0.582   2.780   4.227 -0.6643 -0.6078  1.8804
 2442SOL    MW4 9823   0.654   2.821   4.252 -0.1679 -0.4973  0.2913
 2443SOL     OW 9824   1.754   2.403   4.777  0.0760  0.3097  0.2870
 2443SOL    HW2 9825   1.795   2.366   4.699 -1.0557 -2.1605  0.7966
 2443SOL    HW3 9826   1.663   2.419   4.751 -0.6660 -1.8317  1.4648
 2443SOL    MW4 9827   1.747   2.400   4.763 -0.1712 -0.2990  0.5097
 2444SOL     OW 9828   1.549   2.803   4.276 -0.0795 -0.3274  0.6812
 2444SOL    HW2 9829   1.617   2.759   4.226 -0.5299 -1.1156  0.7467
 2444SOL    HW3 9830   1.556   2.895   4.252 -0.5066 -0.7357 -1.0788
 2444SOL    MW4 9831   1.559   2.809   4.266 -0.1953 -0.4852  0.4578
 2445SOL     OW 9832   0.415   3.447   4.176  0.2093 -0.3572  0.1426
 2445SOL    HW2 9833   0.341   3.487   4.223  1.4981  0.4677  1.4992
 2445SOL    HW3 9834   0.396   3.465   4.083 -0.9127  0.5147  0.5206
 2445SOL    MW4 9835   0.403   3.455   4.170  0.2313 -0.1333  0.3719
 2446SOL     OW 9836   0.411   3.969   4.229 -0.5952  0.4972  0.1538
 2446SOL    HW2 9837   0.405   4.063   4.212 -1.2647  0.0687 -2.1662
 2446SOL    HW3 9838   0.395   3.960   4.323  0.4720  2.7825  0.5822
 2446SOL    MW4 9839   0.408   3.980   4.239 -0.5427  0.7422 -0.0954
 2447SOL     OW 9840   0.910   3.240   4.269  0.1178 -0.3482  0.0031
 2447SOL    HW2 9841   0.994   3.196   4.254 -0.2676 -1.3865  0.8436
 2447SOL    HW3 9842   0.905   3.251   4.364  0.0747  1.2752 -0.1673
 2447SOL    MW4 9843   0.921   3.236   4.279  0.0613 -0.2713  0.0916
 2448SOL     OW 9844   2.495   1.603   4.591 -0.2324  0.0326 -0.1844
 2448SOL    HW2 9845   2.431   1.663   4.555 -1.7894 -2.1913 -1.2297
 2448SOL    HW3 9846   2.507   1.632   4.682 -3.1044  0.1620  0.1768
 2448SOL    MW4 9847   2.488   1.615   4.598 -0.8168 -0.2437 -0.2742
 2449SOL     OW 9848   1.072   4.173   4.647  0.2020  0.3613  0.1175
 2449SOL    HW2 9849   1.000   4.114   4.625  0.5382 -0.3141  0.8206
 2449SOL    HW3 9850   1.150   4.130   4.612  0.5567 -0.0366  1.3613
 2449SOL    MW4 9851   1.072   4.160   4.640  0.2931  0.2198  0.3743
 2450SOL     OW 9852   0.645   4.359   4.296  0.0408  0.0928 -0.3730
 2450SOL    HW2 9853   0.565   4.322   4.259 -0.1772 -0.6894  0.8320
 2450SOL    HW3 9854   0.651   4.319   4.383  1.0780  1.0962  0.0227
 2450SOL    MW4 9855   0.635   4.349   4.303  0.1488  0.1216 -0.1616
 2451SOL     OW 9856   1.117   4.598   4.182 -0.1153 -0.0184 -0.1939
 2451SOL    HW2 9857   1.113   4.601   4.086 -0.7787  0.7087 -0.1418
 2451SOL    HW3 9858   1.182   4.664   4.206 -0.5623  0.3768 -0.0896
 2451SOL    MW4 9859   1.125   4.607   4.172 -0.2617  0.1297 -0.1731
 2452SOL     OW 9860   0.874   0.072   4.264  0.3011  0.5672 -0.6281
 2452SOL    HW2 9861   0.803   0.013   4.238  0.9442 -0.4860 -0.0279
 2452SOL    HW3 9862   0.953   0.032   4.228  1.0090 -0.0739  1.5361
 2452SOL    MW4 9863   0.875   0.059   4.256  0.4793  0.3436 -0.2637
 2453SOL     OW 9864   0.908   0.332   4.154 -0.1378  0.2075  0.0880
 2453SOL    HW2 9865   0.850   0.392   4.201 -0.5255  0.3025 -0.5144
 2453SOL    HW3 9866   0.888   0.246   4.190 -0.9978  0.1745 -0.4623
 2453SOL    MW4 9867   0.898   0.329   4.165 -0.3024  0.2157 -0.0639
 2454SOL     OW 9868   0.844   4.612   4.533 -0.1485  0.2139  0.3116
 2454SOL    HW2 9869   0.919   4.553   4.539 -1.5649 -1.6210  0.3693
 2454SOL    HW3 9870   0.856   4.657   4.450  0.0187 -1.4792 -0.6042
 2454SOL    MW4 9871   0.856   4.610   4.523 -0.3133 -0.2513  0.1988
 2455SOL     OW 9872   3.799   1.065   4.656 -0.0397  0.1741  0.3379
 2455SOL    HW2 9873   3.798   1.084   4.750  0.4671  0.3881  0.3014
 2455SOL    HW3 9874   3.885   1.024   4.641  0.3768  1.2459 -0.2506
 2455SOL    MW4 9875   3.810   1.062   4.667  0.0823  0.3437  0.2556
 2456SOL     OW 9876   4.006   0.924   4.249 -0.0475  0.5057  0.5958
 2456SOL    HW2 9877   3.933   0.874   4.214 -0.6768  1.1709  0.9543
 2456SOL    HW3 9878   4.084   0.878   4.217 -0.6068  1.0520 -1.6545
 2456SOL    MW4 9879   4.007   0.912   4.240 -0.2046  0.6655  0.3462
 2457SOL     OW 9880   0.825   1.192   4.166  0.0593  0.0067  0.2740
 2457SOL    HW2 9881   0.840   1.100   4.188 -0.0172 -0.4157 -1.3676
 2457SOL    HW3 9882   0.743   1.214   4.209  0.0753 -0.6954  0.6748
 2457SOL    MW4 9883   0.816   1.182   4.174  0.0514 -0.1416  0.1106
 2458SOL     OW 9884   1.073   1.285   4.213  0.1151  0.1466 -0.6625
 2458SOL    HW2 9885   1.068   1.274   4.308 -1.8791  3.2001 -0.3544
 2458SOL    HW3 9886   0.985   1.263   4.182  0.1381  1.2868 -1.5587
 2458SOL    MW4 9887   1.061   1.280   4.222 -0.1448  0.6999 -0.7401
 2459SOL     OW 9888   1.092   1.553   4.127  0.0761 -0.3816 -0.0335
 2459SOL    HW2 9889   1.019   1.583   4.181  2.2692  0.4599  2.5149
 2459SOL    HW3 9890   1.107   1.463   4.155  0.7519 -0.1831  0.2378
 2459SOL    MW4 9891   1.084   1.545   4.138  0.4544 -0.2444  0.3386
 2460SOL     OW 9892   0.874   1.880   4.188  0.2243  0.0918 -0.0345
 2460SOL    HW2 9893   0.878   1.892   4.093 -0.4602 -1.0637 -0.2159
 2460SOL    HW3 9894   0.879   1.785   4.200 -0.8639  0.1675  1.0287
 2460SOL    MW4 9895   0.875   1.869   4.177 -0.0097 -0.0507  0.0820
 2461SOL     OW 9896   0.643   2.025   4.249  0.6061 -0.0980 -0.4035
 2461SOL    HW2 9897   0.712   1.964   4.222  0.3962 -0.7544  0.5326
 2461SOL    HW3 9898   0.677   2.065   4.329  0.8017  1.1198 -1.0891
 2461SOL    MW4 9899   0.657   2.022   4.256  0.6042 -0.0238 -0.3705
 2462SOL     OW 9900   1.124   2.316   4.141 -0.1317  0.1585  0.3425
 2462SOL    HW2 9901   1.206   2.343   4.182 -0.3286 -0.3837  1.1064
 2462SOL    HW3 9902   1.104   2.231   4.181  0.0197 -0.6944 -1.3591
 2462SOL    MW4 9903   1.132   2.308   4.151 -0.1379 -0.0255  0.2189
 2463SOL     OW 9904   1.347   2.417   4.286  0.4075  0.0604  0.1748
 2463SOL    HW2 9905   1.430   2.398   4.243 -0.3478  0.6360 -1.6040
 2463SOL    HW3 9906   1.322   2.504   4.253 -0.9874 -0.1834  0.5381
 2463SOL    MW4 9907   1.355   2.426   4.276  0.1237  0.1044 -0.0119
 2464SOL     OW 9908   3.098   0.909   4.263  0.5194  0.1175 -0.1484
 2464SOL    HW2 9909   3.083   0.926   4.356 -0.4538 -0.0789 -0.2619
 2464SOL    HW3 9910   3.080   0.993   4.220  0.7550  0.1525 -0.1753
 2464SOL    MW4 9911   3.093   0.922   4.269  0.4220  0.0961 -0.1664
 2465SOL     OW 9912   0.871   2.679   4.155 -0.1686 -0.2296 -0.1336
 2465SOL    HW2 9913   0.898   2.593   4.187  1.2478  0.2875  0.0892
 2465SOL    HW3 9914   0.937   2.739   4.188 -0.7763  0.8579 -0.8521
 2465SOL    MW4 9915   0.883   2.676   4.164 -0.0618 -0.0179 -0.1988
 2466SOL     OW 9916   1.558   3.605   4.600  0.2465 -0.5143  0.1184
 2466SOL    HW2 9917   1.643   3.640   4.626 -0.0393 -0.0210  0.4005
 2466SOL    HW3 9918   1.562   3.601   4.504 -0.2271  1.6120  0.0034
 2466SOL    MW4 9919   1.570   3.609   4.591  0.1464 -0.1688  0.1407
 2467SOL     OW 9920   1.155   3.094   4.186 -0.6982  0.2196 -0.0411
 2467SOL    HW2 9921   1.232   3.141   4.216 -0.4846 -0.4111  0.4077
 2467SOL    HW3 9922   1.150   3.113   4.093  1.1424 -1.3153 -0.4865
 2467SOL    MW4 9923   1.164   3.103   4.178 -0.4272 -0.0660 -0.0405
 2468SOL     OW 9924   0.687   3.100   4.146  0.3685 -0.1029  0.3147
 2468SOL    HW2 9925   0.761   3.143   4.190  0.3202  0.5869 -0.2625
 2468SOL    HW3 9926   0.689   3.010   4.178 -0.0800  0.5517  2.2299
 2468SOL    MW4 9927   0.697   3.094   4.156  0.3029  0.0744  0.4916
 2469SOL     OW 9928   0.864   3.495   4.179  0.2795  0.1276  0.3807
 2469SOL    HW2 9929   0.876   3.407   4.215 -1.8181  0.0902  1.0535
 2469SOL    HW3 9930   0.873   3.484   4.085 -1.3428 -1.0835  0.3443
 2469SOL    MW4 9931   0.867   3.482   4.171 -0.2113 -0.0372  0.4649
 2470SOL     OW 9932   1.112   3.605   4.269 -0.1992  0.4489  0.1981
 2470SOL    HW2 9933   1.028   3.563   4.254 -0.3775  1.1705 -0.8723
 2470SOL    HW3 9934   1.113   3.625   4.362 -0.9235 -0.1854  0.3396
 2470SOL    MW4 9935   1.101   3.602   4.279 -0.3184  0.4606  0.0753
 2471SOL     OW 9936   1.119   3.868   4.191 -0.7208 -0.2075  0.5116
 2471SOL    HW2 9937   1.034   3.902   4.216 -1.8859 -2.5506 -0.1100
 2471SOL    HW3 9938   1.112   3.773   4.204  1.6472 -0.4975  0.0482
 2471SOL    MW4 9939   1.107   3.860   4.196 -0.5620 -0.5550  0.3681
 2472SOL     OW 9940   1.785   4.514   4.685 -0.1356 -0.0922  0.2321
 2472SOL    HW2 9941   1.858   4.458   4.658 -0.6267 -1.0234  0.7999
 2472SOL    HW3 9942   1.758   4.478   4.769 -1.0346  0.4543  0.1781
 2472SOL    MW4 9943   1.792   4.502   4.692 -0.3189 -0.1431  0.2999
 2473SOL     OW 9944   1.139   4.362   4.317  0.0742  0.4023  0.1299
 2473SOL    HW2 9945   1.196   4.297   4.275 -2.6057 -1.6185 -0.5753
 2473SOL    HW3 9946   1.143   4.438   4.259  0.5257 -0.4311 -0.9629
 2473SOL    MW4 9947   1.147   4.363   4.303 -0.2198  0.0257 -0.1073
 2474SOL     OW 9948   0.888   4.267   4.199  0.1869 -0.1842  0.3372
 2474SOL    HW2 9949   0.808   4.307   4.233 -0.4309  0.5336 -1.8786
 2474SOL    HW3 9950   0.959   4.320   4.235 -0.4046  0.1877  0.9697
 2474SOL    MW4 9951   0.887   4.279   4.208  0.0274 -0.0410  0.1287
 2475SOL     OW 9952   2.932   3.096   4.608  0.1216 -0.0903 -0.7157
 2475SOL    HW2 9953   2.999   3.160   4.583  0.9655 -0.3696  0.8032
 2475SOL    HW3 9954   2.850   3.137   4.582  0.6543  1.6429  0.2407
 2475SOL    MW4 9955   2.930   3.110   4.601  0.3033  0.1018 -0.3896
 2476SOL     OW 9956   1.084   2.068   4.268 -0.5446  0.0229 -0.2724
 2476SOL    HW2 9957   1.013   2.004   4.270 -1.1424  0.6472 -1.2259
 2476SOL    HW3 9958   1.096   2.094   4.359 -2.2313  0.6734 -0.2329
 2476SOL    MW4 9959   1.076   2.063   4.280 -0.8460  0.1910 -0.3924
 2477SOL     OW 9960   2.958   3.511   4.485  0.3784  0.1213 -0.5748
 2477SOL    HW2 9961   3.003   3.429   4.506  1.1013  0.7426  0.3569
 2477SOL    HW3 9962   3.022   3.579   4.507 -0.9062  1.0069  0.4859
 2477SOL    MW4 9963   2.972   3.509   4.491  0.3045  0.3202 -0.3119
 2478SOL     OW 9964   3.599   3.201   4.502 -0.1551  0.3201  0.1995
 2478SOL    HW2 9965   3.612   3.222   4.410 -1.6987  1.4065  0.2019
 2478SOL    HW3 9966   3.568   3.110   4.502  1.1960 -0.1513 -0.2325
 2478SOL    MW4 9967   3.597   3.192   4.490 -0.1805  0.4010  0.1435
 2479SOL     OW 9968   1.546   0.756   3.916 -0.4167  0.1403 -0.2586
 2479SOL    HW2 9969   1.626   0.807   3.914 -0.7137  0.6859  1.1076
 2479SOL    HW3 9970   1.485   0.805   3.860  0.2862 -0.4518 -1.5666
 2479SOL    MW4 9971   1.548   0.769   3.908 -0.3631  0.1342 -0.2511
 2480SOL     OW 9972   1.055   4.431   4.561 -0.1296 -0.2905 -0.5858
 2480SOL    HW2 9973   1.085   4.412   4.473 -1.0091 -1.5192 -0.6375
 2480SOL    HW3 9974   1.054   4.346   4.605 -0.7541  0.1496  0.2683
 2480SOL    MW4 9975   1.059   4.417   4.556 -0.3281 -0.3948 -0.4802
 2481SOL     OW 9976   1.504   0.780   4.208  0.6355  0.2246 -0.1108
 2481SOL    HW2 9977   1.585   0.821   4.239  1.2087 -0.5005 -0.6405
 2481SOL    HW3 9978   1.514   0.775   4.113 -0.8171  1.7994 -0.3764
 2481SOL    MW4 9979   1.516   0.785   4.200  0.5194  0.3367 -0.2155
 2482SOL     OW 9980   1.529   1.296   4.168 -0.0497  0.1033 -0.3784
 2482SOL    HW2 9981   1.546   1.326   4.257  1.1746  0.2886 -0.6699
 2482SOL    HW3 9982   1.444   1.252   4.173 -0.9708  1.9644  0.4331
 2482SOL    MW4 9983   1.520   1.294   4.180 -0.0097  0.3732 -0.3099
 2483SOL     OW 9984   1.091   1.274   4.490  0.1327 -0.3223 -0.0015
 2483SOL    HW2 9985   1.057   1.189   4.519  0.0530  0.8454  3.5391
 2483SOL    HW3 9986   1.020   1.336   4.507  0.3988  0.5862 -2.0259
 2483SOL    MW4 9987   1.077   1.271   4.496  0.1574 -0.0483  0.1988
 2484SOL     OW 9988   1.763   1.676   4.205  0.1744 -0.3000 -0.2271
 2484SOL    HW2 9989   1.722   1.680   4.292 -0.5075  1.9191 -0.6126
 2484SOL    HW3 9990   1.699   1.628   4.151  0.4184 -1.3282  0.3882
 2484SOL    MW4 9991   1.749   1.670   4.209  0.1166 -0.1428 -0.1965
 2485SOL     OW 9992   1.291   1.942   4.122  0.0265 -0.4320  0.1536
 2485SOL    HW2 9993   1.218   1.993   4.157  0.5876 -1.0111  2.2263
 2485SOL    HW3 9994   1.280   1.854   4.159  0.1163 -1.3359 -1.8983
 2485SOL    MW4 9995   1.280   1.937   4.132  0.1124 -0.6278  0.1564
 2486SOL     OW 9996   2.114   3.648   4.568 -0.2188  0.2821  0.0877
 2486SOL    HW2 9997   2.117   3.568   4.621 -0.3674  0.4585  0.3585
 2486SOL    HW3 9998   2.189   3.699   4.598  0.5050 -0.2236 -0.8242
 2486SOL    MW4 9999   2.125   3.644   4.579 -0.1428  0.2387  0.0024
 2487SOL     OW10000   1.821   2.450   4.266  0.2120 -0.0843 -0.2689
 2487SOL    HW210001   1.754   2.382   4.256  0.1417  0.0234 -0.5523
 2487SOL    HW310002   1.803   2.489   4.352 -0.1084 -0.0378 -0.3565
 2487SOL    MW410003   1.810   2.447   4.276  0.1603 -0.0641 -0.3181
 2488SOL     OW10004   1.598   2.316   4.193  0.2180  0.7016 -0.0387
 2488SOL    HW210005   1.613   2.339   4.102  1.3969  0.4368  0.0832
 2488SOL    HW310006   1.579   2.223   4.192  0.7327  0.5961  0.0410
 2488SOL    MW410007   1.598   2.307   4.181  0.4414  0.6528 -0.0124
 2489SOL     OW10008   1.105   2.826   4.261 -0.0627  0.2350 -0.4967
 2489SOL    HW210009   1.141   2.912   4.239  0.6247  0.1011  0.0913
 2489SOL    HW310010   1.108   2.822   4.356  0.0752 -0.5173 -0.5307
 2489SOL    MW410011   1.110   2.837   4.270  0.0463  0.1183 -0.4244
 2490SOL     OW10012   1.767   2.699   4.143 -0.1563  0.1278 -0.1024
 2490SOL    HW210013   1.830   2.756   4.186  0.4424 -1.0441  0.5951
 2490SOL    HW310014   1.788   2.611   4.175 -0.7911 -0.5435 -1.4810
 2490SOL    MW410015   1.778   2.695   4.152 -0.1611 -0.1156 -0.1922
 2491SOL     OW10016   1.557   3.093   4.227  0.2063 -0.2271 -0.6239
 2491SOL    HW210017   1.637   3.133   4.262  0.6082  0.6971 -2.5809
 2491SOL    HW310018   1.486   3.145   4.265  0.6542  1.0837 -1.5757
 2491SOL    MW410019   1.558   3.105   4.237  0.3183  0.0677 -1.0080
 2492SOL     OW10020   1.344   3.238   4.324  0.2190  0.1463  0.2321
 2492SOL    HW210021   1.339   3.327   4.290 -0.2590  0.4880  1.1854
 2492SOL    HW310022   1.337   3.248   4.419 -0.0875 -0.9250  0.3286
 2492SOL    MW410023   1.343   3.251   4.332  0.1155  0.0501  0.3710
 2493SOL     OW10024   1.533   3.822   4.175  0.1654  0.1116 -0.1503
 2493SOL    HW210025   1.487   3.877   4.238  1.3506  1.0170 -0.0485
 2493SOL    HW310026   1.548   3.739   4.222 -0.3100  0.2367  0.2239
 2493SOL    MW410027   1.529   3.818   4.190  0.2590  0.2475 -0.0873
 2494SOL     OW10028   0.418   0.153   4.553  0.2030  0.9317  0.4222
 2494SOL    HW210029   0.504   0.127   4.586 -0.2623 -0.2483  0.7428
 2494SOL    HW310030   0.425   0.146   4.458 -0.0645 -0.9550  0.5160
 2494SOL    MW410031   0.430   0.148   4.545  0.1063  0.5271  0.4773
 2495SOL     OW10032   1.358   3.973   4.314 -0.3416 -0.2819 -0.7188
 2495SOL    HW210033   1.373   4.055   4.268 -0.9534  0.3754  0.2206
 2495SOL    HW310034   1.278   3.938   4.275 -0.4848 -0.0659 -0.6197
 2495SOL    MW410035   1.349   3.979   4.303 -0.4413 -0.1667 -0.5822
 2496SOL     OW10036   2.253   4.500   4.662  0.1436 -0.0172  0.1747
 2496SOL    HW210037   2.298   4.515   4.745 -0.7102 -1.2410  0.8545
 2496SOL    HW310038   2.235   4.588   4.629  0.7903  0.4765  1.1079
 2496SOL    MW410039   2.257   4.514   4.668  0.1163 -0.1140  0.3877
 2497SOL     OW10040   1.342   4.228   4.179  0.4329 -0.8010  0.0184
 2497SOL    HW210041   1.336   4.254   4.088  0.3549 -0.2333  0.1859
 2497SOL    HW310042   1.417   4.277   4.213  0.5337 -1.1004  0.2276
 2497SOL    MW410043   1.351   4.238   4.172  0.4359 -0.7658  0.0682
 2498SOL     OW10044   1.562   4.651   4.210 -0.3338 -0.1870 -0.1763
 2498SOL    HW210045   1.644   4.688   4.242 -0.1628  0.4122 -1.2702
 2498SOL    HW310046   1.569   4.558   4.229  0.0075  0.0636  0.9793
 2498SOL    MW410047   1.574   4.644   4.217 -0.2662 -0.0749 -0.1683
 2499SOL     OW10048   2.009   4.577   4.176 -0.0809  0.5613  0.2451
 2499SOL    HW210049   2.008   4.598   4.083  0.7075  0.1720  0.1446
 2499SOL    HW310050   1.951   4.642   4.216  0.1728  1.1995 -0.4143
 2499SOL    MW410051   2.001   4.588   4.169  0.0567  0.5946  0.1450
 2500SOL     OW10052   3.379   3.379   4.552 -0.3870  0.1614  0.5940
 2500SOL    HW210053   3.446   3.339   4.497 -0.8931 -0.7713  0.6418
 2500SOL    HW310054   3.419   3.385   4.639 -0.1407  0.1777  0.4774
 2500SOL    MW410055   3.393   3.374   4.557 -0.4213  0.0405  0.5851
 2501SOL     OW10056   1.550   4.385   4.271  0.0645 -0.0093  0.3937
 2501SOL    HW210057   1.549   4.391   4.366  0.0058  0.5022  0.3657
 2501SOL    HW310058   1.634   4.346   4.249  1.3469  2.5635  0.5236
 2501SOL    MW410059   1.561   4.381   4.281  0.2260  0.3977  0.4067
 2502SOL     OW10060   1.779   0.364   4.173  0.2722  0.0657  0.2763
 2502SOL    HW210061   1.701   0.408   4.205  0.0241 -0.2230  0.0746
 2502SOL    HW310062   1.850   0.425   4.191 -0.0455  0.4779  0.1360
 2502SOL    MW410063   1.778   0.378   4.180  0.1975  0.0820  0.2313
 2503SOL     OW10064   2.004   0.756   4.171  0.0613 -0.3824 -0.1500
 2503SOL    HW210065   2.081   0.802   4.204 -0.1643 -0.3221  0.2891
 2503SOL    HW310066   2.011   0.668   4.206  0.3859 -0.6259 -0.8249
 2503SOL    MW410067   2.015   0.751   4.180  0.0746 -0.4066 -0.1817
 2504SOL     OW10068   1.747   0.884   4.258 -0.3509 -0.0780 -0.0906
 2504SOL    HW210069   1.824   0.853   4.210 -1.1145 -1.3869 -0.4913
 2504SOL    HW310070   1.774   0.884   4.350  0.3875  0.2815 -0.3047
 2504SOL    MW410071   1.761   0.880   4.264 -0.3544 -0.2033 -0.1712
 2505SOL     OW10072   1.769   1.152   4.192 -0.2136 -0.3310 -0.0527
 2505SOL    HW210073   1.686   1.194   4.169  0.0606  0.5786  0.6281
 2505SOL    HW310074   1.745   1.061   4.209 -1.0943 -0.0356  0.3096
 2505SOL    MW410075   1.755   1.145   4.191 -0.2936 -0.1719  0.0854
 2506SOL     OW10076   0.343   4.155   4.575 -0.2841 -0.0522  0.0783
 2506SOL    HW210077   0.348   4.065   4.543  0.6126  0.1873 -0.4808
 2506SOL    HW310078   0.435   4.183   4.581 -0.5924  1.1942 -0.8366
 2506SOL    MW410079   0.356   4.147   4.571 -0.2065  0.1440 -0.1159
 2507SOL     OW10080   2.021   1.547   4.159 -0.1517  0.0386 -0.4922
 2507SOL    HW210081   1.944   1.595   4.188 -0.4645 -0.9716  0.3974
 2507SOL    HW310082   2.015   1.545   4.064 -2.0487 -1.3522 -0.3649
 2507SOL    MW410083   2.010   1.553   4.150 -0.4432 -0.2782 -0.3576
 2508SOL     OW10084   3.099   4.252   4.593 -0.0227  0.4130 -0.6633
 2508SOL    HW210085   3.079   4.270   4.685  0.4813  0.1987 -0.5128
 2508SOL    HW310086   3.080   4.159   4.582  1.2443  0.1248 -0.4274
 2508SOL    MW410087   3.094   4.243   4.604  0.2108  0.3462 -0.6118
 2509SOL     OW10088   0.738   2.115   4.518 -0.1993 -0.2526 -0.1583
 2509SOL    HW210089   0.789   2.195   4.531 -0.7539 -0.0113  0.5320
 2509SOL    HW310090   0.651   2.136   4.551 -0.6881 -0.7454 -1.1182
 2509SOL    MW410091   0.734   2.128   4.524 -0.3370 -0.2856 -0.1941
 2510SOL     OW10092   0.602   3.137   4.653 -0.0373 -0.3525  0.1597
 2510SOL    HW210093   0.509   3.155   4.639 -0.0686 -0.1111  0.6700
 2510SOL    HW310094   0.614   3.047   4.624 -0.0360  0.2275 -1.7232
 2510SOL    MW410095   0.591   3.127   4.647 -0.0413 -0.2444 -0.0219
 2511SOL     OW10096   2.570   0.818   4.510  0.0137 -0.2140 -0.4700
 2511SOL    HW210097   2.603   0.853   4.428 -0.3277  0.2733 -0.4008
 2511SOL    HW310098   2.603   0.878   4.577 -0.7164  0.0821 -0.3702
 2511SOL    MW410099   2.579   0.830   4.508 -0.1278 -0.1107 -0.4482
 2512SOL     OW10100   2.702   0.370   4.142 -0.2634  0.3104 -0.1043
 2512SOL    HW210101   2.622   0.415   4.170  0.8429  2.4967 -0.3059
 2512SOL    HW310102   2.704   0.382   4.047 -0.2902 -0.7469 -0.2370
 2512SOL    MW410103   2.692   0.378   4.134 -0.1211  0.4594 -0.1488
 2513SOL     OW10104   1.310   2.669   4.171 -0.1421 -0.0884 -0.2585
 2513SOL    HW210105   1.238   2.726   4.198 -0.2280 -0.3677  0.1083
 2513SOL    HW310106   1.388   2.711   4.207  0.0917  1.2111 -2.2294
 2513SOL    MW410107   1.311   2.682   4.179 -0.1225  0.0463 -0.4697
 2514SOL     OW10108   2.443   2.066   4.250 -0.2408  0.3437 -0.0982
 2514SOL    HW210109   2.457   2.152   4.212 -0.1499  0.6126  0.5476
 2514SOL    HW310110   2.459   2.077   4.344  0.7405 -0.5879 -0.1473
 2514SOL    MW410111   2.447   2.079   4.258 -0.0994  0.2563 -0.0196
 2515SOL     OW10112   2.016   3.084   4.162  0.2709  0.1281 -0.1773
 2515SOL    HW210113   2.088   3.144   4.181  0.9400 -0.2568 -1.4574
 2515SOL    HW310114   1.993   3.100   4.070 -1.6805  0.6604  0.3723
 2515SOL    MW410115   2.022   3.094   4.152  0.1013  0.1478 -0.2737
 2516SOL     OW10116   1.805   3.192   4.318  0.0384 -0.4916  0.4146
 2516SOL    HW210117   1.805   3.282   4.284 -1.1634 -1.8350 -3.2747
 2516SOL    HW310118   1.880   3.150   4.276  0.6136 -1.2634  2.1600
 2516SOL    MW410119   1.815   3.199   4.308 -0.0441 -0.7708  0.1583
 2517SOL     OW10120   1.821   3.461   4.215  0.6671  0.3074 -0.3813
 2517SOL    HW210121   1.882   3.530   4.242  2.3047 -0.9999 -0.6284
 2517SOL    HW310122   1.819   3.468   4.120  0.4379  0.3389 -0.3737
 2517SOL    MW410123   1.829   3.471   4.206  0.8528  0.1392 -0.4129
 2518SOL     OW10124   1.300   1.153   4.151  0.0177  0.2175 -0.0032
 2518SOL    HW210125   1.222   1.208   4.160  0.6044  0.8685  1.2247
 2518SOL    HW310126   1.319   1.154   4.057 -1.9099 -0.5995 -0.4145
 2518SOL    MW410127   1.293   1.161   4.140 -0.1594  0.1957  0.1049
 2519SOL     OW10128   2.019   3.635   4.277 -0.2693 -0.0491  0.1555
 2519SOL    HW210129   2.023   3.720   4.232  0.2565  0.2073  0.6805
 2519SOL    HW310130   2.043   3.655   4.368  1.4108 -1.0136 -0.0578
 2519SOL    MW410131   2.023   3.649   4.283  0.0217 -0.1426  0.1965
 2520SOL     OW10132   1.779   3.947   4.240  0.3635 -0.1747 -0.3766
 2520SOL    HW210133   1.800   3.958   4.332  1.4284 -0.2563 -0.5981
 2520SOL    HW310134   1.692   3.907   4.239  0.1648  0.2351  0.5745
 2520SOL    MW410135   1.771   3.943   4.252  0.4777 -0.1314 -0.2804
 2521SOL     OW10136   1.937   1.227   4.692  0.5865 -0.7661  0.3776
 2521SOL    HW210137   1.976   1.300   4.644  1.6323 -1.6923 -0.1848
 2521SOL    HW310138   1.862   1.200   4.639  1.0744 -1.0629 -0.1522
 2521SOL    MW410139   1.932   1.233   4.679  0.7889 -0.9274  0.2332
 2522SOL     OW10140   2.294   3.325   4.483  0.1695  0.0570  0.2174
 2522SOL    HW210141   2.355   3.398   4.492  0.8822 -0.5285  0.1900
 2522SOL    HW310142   2.230   3.339   4.553  0.4723  0.5398  0.4038
 2522SOL    MW410143   2.293   3.336   4.493  0.3035  0.0436  0.2379
 2523SOL     OW10144   4.450   1.632   4.526 -0.0560  0.0784 -0.1609
 2523SOL    HW210145   4.413   1.549   4.555 -2.6228  1.2827  0.1799
 2523SOL    HW310146   4.427   1.638   4.434 -0.1344  0.5404 -0.1149
 2523SOL    MW410147   4.442   1.622   4.518 -0.4048  0.2981 -0.1097
 2524SOL     OW10148   1.284   0.121   4.538 -0.1696  0.3697 -0.2922
 2524SOL    HW210149   1.294   0.114   4.443 -1.3896 -1.0597 -0.3238
 2524SOL    HW310150   1.191   0.138   4.551 -0.0448  0.3289  0.6648
 2524SOL    MW410151   1.273   0.123   4.527 -0.3140  0.1758 -0.1702
 2525SOL     OW10152   2.260   0.353   4.189  0.0123 -0.4028 -0.5524
 2525SOL    HW210153   2.245   0.261   4.213  1.1098 -0.5122 -0.2946
 2525SOL    HW310154   2.241   0.355   4.095  0.0186 -0.9056 -0.5690
 2525SOL    MW410155   2.255   0.341   4.179  0.1581 -0.4835 -0.5212
 2526SOL     OW10156   2.237   0.913   4.266 -0.4928 -0.1173  0.0053
 2526SOL    HW210157   2.268   0.932   4.354  1.7283  0.2441 -0.8320
 2526SOL    HW310158   2.215   0.999   4.229 -1.4696 -0.2715  0.2018
 2526SOL    MW410159   2.238   0.927   4.273 -0.3285 -0.0899 -0.0787
 2527SOL     OW10160   2.466   0.749   4.133  0.0355 -0.3212  0.0330
 2527SOL    HW210161   2.463   0.767   4.038  2.0244  0.9554  0.1900
 2527SOL    HW310162   2.385   0.788   4.166 -0.2416  0.0382 -1.0143
 2527SOL    MW410163   2.455   0.756   4.125  0.2613 -0.1053 -0.0844
 2528SOL     OW10164   2.919   0.479   4.265  0.0233 -0.0282 -0.4286
 2528SOL    HW210165   2.834   0.446   4.235 -0.5336  1.2279 -0.2578
 2528SOL    HW310166   2.920   0.571   4.239  0.4162  0.5401  1.5267
 2528SOL    MW410167   2.908   0.487   4.257  0.0017  0.2125 -0.1483
 2529SOL     OW10168   2.371   3.794   4.614 -0.1996 -0.1413  0.5400
 2529SOL    HW210169   2.455   3.811   4.657  0.8431 -0.4675 -1.3445
 2529SOL    HW310170   2.385   3.715   4.562 -1.7511 -0.3357  0.3757
 2529SOL    MW410171   2.384   3.786   4.613 -0.2668 -0.2103  0.2699
 2530SOL     OW10172   2.181   1.168   4.170 -0.4550  0.0739  0.0729
 2530SOL    HW210173   2.109   1.207   4.220 -1.0436 -1.8748  0.8191
 2530SOL    HW310174   2.257   1.220   4.193 -1.1281  0.5265  1.3621
 2530SOL    MW410175   2.181   1.180   4.179 -0.6213 -0.1235  0.3409
 2531SOL     OW10176   2.212   1.939   4.166  0.5341  0.8123 -0.1274
 2531SOL    HW210177   2.232   1.853   4.204  1.3817  0.0745 -2.1772
 2531SOL    HW310178   2.287   1.994   4.190  0.7643  0.5328 -0.2116
 2531SOL    MW410179   2.224   1.935   4.174  0.6762  0.6781 -0.4091
 2532SOL     OW10180   2.467   1.573   4.224 -0.3149 -0.0599 -0.4769
 2532SOL    HW210181   2.479   1.562   4.130  0.2817 -1.5664 -0.2447
 2532SOL    HW310182   2.548   1.615   4.254 -1.1350  1.8525 -0.8382
 2532SOL    MW410183   2.479   1.577   4.216 -0.3445 -0.0062 -0.4940
 2533SOL     OW10184   2.575   1.991   4.780 -0.3478 -0.1152  0.4401
 2533SOL    HW210185   2.560   2.063   4.842 -1.8015  0.0648 -0.0853
 2533SOL    HW310186   2.669   1.989   4.766 -0.4498  2.8163 -0.8711
 2533SOL    MW410187   2.585   2.000   4.786 -0.5531  0.2954  0.1984
 2534SOL     OW10188   1.613   2.997   4.568 -0.3251  0.0741 -0.0270
 2534SOL    HW210189   1.652   3.072   4.613  1.1022  0.0678 -1.2424
 2534SOL    HW310190   1.557   3.035   4.500  0.4519  0.0467 -0.6879
 2534SOL    MW410191   1.610   3.012   4.565 -0.0342  0.0696 -0.2751
 2535SOL     OW10192   2.270   2.460   4.180  0.1193  0.1958 -0.1460
 2535SOL    HW210193   2.253   2.554   4.175 -0.3827  0.0619 -0.9282
 2535SOL    HW310194   2.184   2.420   4.188 -0.0957 -0.5214 -4.7147
 2535SOL    MW410195   2.256   2.467   4.181  0.0250  0.0834 -0.8521
 2536SOL     OW10196   2.852   0.454   4.539 -0.1897  0.4413 -0.1393
 2536SOL    HW210197   2.761   0.480   4.551 -0.6834 -1.3519  0.1227
 2536SOL    HW310198   2.868   0.465   4.446 -1.0552 -0.3727 -0.3931
 2536SOL    MW410199   2.842   0.459   4.528 -0.3691  0.0973 -0.1378
 2537SOL     OW10200   0.695   2.594   4.599  0.2610  0.7067 -0.1811
 2537SOL    HW210201   0.654   2.678   4.577  0.6131  1.4515  1.8607
 2537SOL    HW310202   0.623   2.531   4.597 -0.2166  1.2584 -0.6097
 2537SOL    MW410203   0.680   2.597   4.596  0.2444  0.8776  0.0315
 2538SOL     OW10204   0.496   2.201   4.649 -0.0804 -0.6691 -0.0083
 2538SOL    HW210205   0.451   2.283   4.627  0.0001 -0.6726 -0.1887
 2538SOL    HW310206   0.521   2.211   4.741  0.6900 -0.1321 -0.2715
 2538SOL    MW410207   0.493   2.213   4.659  0.0319 -0.5987 -0.0668
 2539SOL     OW10208   2.235   3.236   4.227 -0.5727 -0.2283 -0.0248
 2539SOL    HW210209   2.226   3.317   4.176  1.5490  0.1337  0.1259
 2539SOL    HW310210   2.248   3.265   4.317 -1.0520 -0.7794  0.2250
 2539SOL    MW410211   2.236   3.251   4.232 -0.3560 -0.2532  0.0281
 2540SOL     OW10212   2.081   3.031   4.595 -0.2224  0.2666  0.2688
 2540SOL    HW210213   2.138   3.045   4.670  0.2795  1.5156 -0.3515
 2540SOL    HW310214   2.138   2.995   4.527 -0.4846  0.0809  0.1438
 2540SOL    MW410215   2.096   3.028   4.596 -0.1905  0.4067  0.1707
 2541SOL     OW10216   2.203   3.497   4.110  0.0608  0.3920 -0.3327
 2541SOL    HW210217   2.290   3.530   4.133  0.1759 -0.9241  1.1848
 2541SOL    HW310218   2.143   3.553   4.158  0.1916 -0.4620  0.8498
 2541SOL    MW410219   2.207   3.509   4.120  0.0935  0.1059  0.0238
 2542SOL     OW10220   0.924   2.329   4.538  0.3247 -0.0559  0.5890
 2542SOL    HW210221   0.911   2.411   4.586  0.7202  0.2550  0.1701
 2542SOL    HW310222   0.926   2.355   4.446 -1.1246 -0.7356  0.3457
 2542SOL    MW410223   0.922   2.344   4.532  0.1857 -0.1044  0.5021
 2543SOL     OW10224   2.451   3.857   4.120 -0.0016  0.6525 -0.3123
 2543SOL    HW210225   2.384   3.908   4.164 -1.3495 -0.2371 -1.2854
 2543SOL    HW310226   2.444   3.881   4.028  0.3579 -0.1633 -0.5673
 2543SOL    MW410227   2.441   3.867   4.114 -0.1323  0.4275 -0.4740
 2544SOL     OW10228   3.999   3.863   4.521  0.0524  0.2665 -0.1508
 2544SOL    HW210229   3.969   3.915   4.447 -0.4022 -0.5464 -0.5460
 2544SOL    HW310230   4.081   3.822   4.491 -1.0352 -1.4583 -0.8513
 2544SOL    MW410231   4.006   3.864   4.507 -0.1512 -0.0684 -0.2947
 2545SOL     OW10232   2.248   4.020   4.239 -0.4202 -0.2042  0.2343
 2545SOL    HW210233   2.169   3.974   4.211  0.3079 -1.1373 -0.3586
 2545SOL    HW310234   2.235   4.111   4.212 -1.4573 -0.2705  0.5143
 2545SOL    MW410235   2.236   4.026   4.232 -0.4609 -0.3357  0.1931
 2546SOL     OW10236   2.248   4.274   4.139 -0.1214  0.3051 -0.4145
 2546SOL    HW210237   2.321   4.318   4.183  0.5199 -0.0503 -1.0961
 2546SOL    HW310238   2.174   4.333   4.151  0.8098  1.7789 -1.6404
 2546SOL    MW410239   2.248   4.287   4.146  0.0861  0.4520 -0.6661
 2547SOL     OW10240   1.522   2.047   4.231 -0.5386 -0.0122  0.0218
 2547SOL    HW210241   1.439   2.021   4.190 -0.9168  0.1255  0.6855
 2547SOL    HW310242   1.589   2.002   4.180 -0.9444  0.8485 -1.2734
 2547SOL    MW410243   1.520   2.038   4.219 -0.6419  0.1194 -0.0610
 2548SOL     OW10244   2.724   0.209   4.518 -0.7332 -0.0732 -0.6095
 2548SOL    HW210245   2.632   0.227   4.535 -0.2880 -0.5909  2.4905
 2548SOL    HW310246   2.771   0.286   4.551  0.1245 -0.8377 -0.0171
 2548SOL    MW410247   2.718   0.221   4.524 -0.5615 -0.2424 -0.1221
 2549SOL     OW10248   2.480   0.503   4.254  0.4753 -0.3339 -0.1016
 2549SOL    HW210249   2.401   0.458   4.226 -0.2736  0.3493  0.8646
 2549SOL    HW310250   2.477   0.588   4.209 -0.1018  0.2745  1.0576
 2549SOL    MW410251   2.469   0.508   4.245  0.3004 -0.1634  0.1793
 2550SOL     OW10252   2.031   1.896   4.682  0.1653 -0.0496  0.7259
 2550SOL    HW210253   1.963   1.948   4.639  1.0152  0.0051 -0.5960
 2550SOL    HW310254   2.035   1.930   4.771  0.2148  1.6586  0.0811
 2550SOL    MW410255   2.022   1.907   4.688  0.2837  0.1831  0.4659
 2551SOL     OW10256   2.880   0.733   4.146 -0.0368  0.4388  0.1766
 2551SOL    HW210257   2.880   0.742   4.051 -0.8025  0.2004  0.1526
 2551SOL    HW310258   2.940   0.801   4.177 -0.1886  0.8528 -0.4402
 2551SOL    MW410259   2.888   0.743   4.138 -0.1578  0.4621  0.0920
 2552SOL     OW10260   2.680   0.885   4.241 -0.2007 -0.0690  0.1525
 2552SOL    HW210261   2.753   0.832   4.211 -0.4603  0.5246 -1.5551
 2552SOL    HW310262   2.603   0.846   4.201 -0.5923  0.5463  0.2966
 2552SOL    MW410263   2.680   0.873   4.232 -0.2866  0.0905 -0.0534
 2553SOL     OW10264   2.628   1.144   4.177 -0.0691  0.3053  0.0508
 2553SOL    HW210265   2.655   1.130   4.086 -1.1776 -0.5519 -0.1551
 2553SOL    HW310266   2.642   1.060   4.220  0.0512  0.5892  0.5708
 2553SOL    MW410267   2.633   1.131   4.171 -0.1996  0.2297  0.0925
 2554SOL     OW10268   3.096   0.649   4.605  0.0457  0.0774  0.8972
 2554SOL    HW210269   3.018   0.594   4.612  1.0747 -1.4049  1.0079
 2554SOL    HW310270   3.167   0.587   4.587  0.9933  1.5288 -0.4927
 2554SOL    MW410271   3.096   0.634   4.603  0.3064  0.0733  0.7281
 2555SOL     OW10272   2.860   1.519   4.151  0.2311  1.0478 -0.1017
 2555SOL    HW210273   2.792   1.568   4.198 -0.1592  1.3026 -0.9273
 2555SOL    HW310274   2.874   1.441   4.205 -1.5111  0.4487 -0.4816
 2555SOL    MW410275   2.853   1.515   4.164 -0.0503  1.0023 -0.2608
 2556SOL     OW10276   3.962   3.460   4.729 -0.2182 -0.1384  0.2501
 2556SOL    HW210277   3.899   3.513   4.680 -0.0786  1.2696  1.5402
 2556SOL    HW310278   3.948   3.485   4.820  1.9099 -0.1336  0.5936
 2556SOL    MW410279   3.952   3.470   4.734  0.0811  0.0479  0.4659
 2557SOL     OW10280   3.140   1.652   4.200 -0.1191  0.0612 -0.6441
 2557SOL    HW210281   3.139   1.747   4.191 -1.1638  0.0556 -0.7214
 2557SOL    HW310282   3.052   1.625   4.172 -0.3973 -0.7795  0.9713
 2557SOL    MW410283   3.128   1.661   4.195 -0.2937 -0.0504 -0.4411
 2558SOL     OW10284   1.288   3.985   4.580 -0.0510  0.2834 -0.2030
 2558SOL    HW210285   1.323   3.975   4.492 -0.5506  0.7525 -0.4559
 2558SOL    HW310286   1.311   3.903   4.624 -1.4039 -0.7160 -1.3225
 2558SOL    MW410287   1.296   3.972   4.575 -0.2953  0.2136 -0.3843
 2559SOL     OW10288   1.418   0.921   4.552 -0.0957  0.0904 -0.7166
 2559SOL    HW210289   1.369   0.962   4.481  0.2620  1.0150 -0.4322
 2559SOL    HW310290   1.351   0.885   4.610 -0.4439  1.2677 -0.3802
 2559SOL    MW410291   1.403   0.922   4.551 -0.0945  0.3676 -0.6347
 2560SOL     OW10292   3.595   1.944   4.161 -0.4020  0.1372 -0.4680
 2560SOL    HW210293   3.606   1.851   4.181  0.8721  0.6967  1.6422
 2560SOL    HW310294   3.608   1.950   4.067 -0.3405 -1.8073 -0.6018
 2560SOL    MW410295   3.598   1.933   4.151 -0.2258 -0.0455 -0.2069
 2561SOL     OW10296   2.709   2.522   4.107  0.1008  0.0572 -0.3172
 2561SOL    HW210297   2.639   2.457   4.115  0.0274  0.0681 -0.8052
 2561SOL    HW310298   2.789   2.470   4.102 -0.1397 -0.1536 -3.1128
 2561SOL    MW410299   2.710   2.507   4.107  0.0596  0.0308 -0.7510
 2562SOL     OW10300   2.457   2.877   4.204  0.0720  0.4979 -0.2823
 2562SOL    HW210301   2.468   2.963   4.164 -1.1561  0.6262 -0.3675
 2562SOL    HW310302   2.546   2.849   4.226  0.5951  1.2291 -1.4065
 2562SOL    MW410303   2.470   2.885   4.201 -0.0212  0.6113 -0.4420
 2563SOL     OW10304   2.958   2.826   4.272  0.2152 -0.1309 -0.2999
 2563SOL    HW210305   2.869   2.792   4.276  0.3116 -0.4965 -1.2697
 2563SOL    HW310306   2.981   2.844   4.364 -0.4586 -1.0509  0.0514
 2563SOL    MW410307   2.949   2.824   4.285  0.1392 -0.3004 -0.3815
 2564SOL     OW10308   2.908   3.067   4.151 -0.0275  0.1703  0.3324
 2564SOL    HW210309   2.918   2.985   4.200 -0.4335 -0.0366  0.0719
 2564SOL    HW310310   2.888   3.039   4.062  0.8970  0.5481  0.0013
 2564SOL    MW410311   2.906   3.052   4.146  0.0412  0.1929  0.2542
 2565SOL     OW10312   2.311   4.075   4.522  0.0822 -0.2405 -0.1714
 2565SOL    HW210313   2.269   4.049   4.440 -1.9507 -2.5127  1.5140
 2565SOL    HW310314   2.364   3.999   4.546  1.0273  0.5953  0.3968
 2565SOL    MW410315   2.312   4.061   4.514 -0.0613 -0.4306  0.1259
 2566SOL     OW10316   1.855   3.196   4.599 -0.0818 -0.1237 -0.0404
 2566SOL    HW210317   1.827   3.202   4.507  2.2802 -1.7667 -0.9111
 2566SOL    HW310318   1.941   3.153   4.595  0.9401  1.5304  2.7921
 2566SOL    MW410319   1.863   3.191   4.586  0.3648 -0.1223  0.2189
 2567SOL     OW10320   2.939   3.603   4.221 -0.2230  0.3855 -0.2801
 2567SOL    HW210321   2.946   3.590   4.315  0.1143  0.1233 -0.3412
 2567SOL    HW310322   3.006   3.546   4.183 -1.7196 -1.0766 -0.7879
 2567SOL    MW410323   2.949   3.594   4.228 -0.3757  0.1581 -0.3552
 2568SOL     OW10324   3.133   3.723   4.517  0.5599  0.5674  0.2905
 2568SOL    HW210325   3.227   3.704   4.516  0.5029  0.3349 -0.4428
 2568SOL    HW310326   3.128   3.818   4.512  0.7388  0.5364 -0.5419
 2568SOL    MW410327   3.145   3.733   4.516  0.5758  0.5326  0.0839
 2569SOL     OW10328   2.796   3.955   4.456  0.1342 -0.4896  0.1515
 2569SOL    HW210329   2.755   3.958   4.369  0.6863 -0.2054 -0.1014
 2569SOL    HW310330   2.778   4.041   4.494  0.3515 -0.4191  0.1006
 2569SOL    MW410331   2.788   3.967   4.449  0.2360 -0.4427  0.1111
 2570SOL     OW10332   0.264   1.723   4.502  0.2269 -0.2230  0.4015
 2570SOL    HW210333   0.174   1.694   4.520 -0.1349  0.0648 -0.9032
 2570SOL    HW310334   0.269   1.811   4.540 -0.2309  0.0025 -0.0634
 2570SOL    MW410335   0.253   1.731   4.509  0.1188 -0.1552  0.1683
 2571SOL     OW10336   2.693   3.229   4.248  0.5993 -0.3237  0.3513
 2571SOL    HW210337   2.761   3.174   4.211  1.0940 -0.4420  1.4197
 2571SOL    HW310338   2.699   3.215   4.343 -0.9990 -0.4462  0.4483
 2571SOL    MW410339   2.703   3.220   4.256  0.4539 -0.3555  0.5054
 2572SOL     OW10340   1.317   3.267   4.603 -0.3036  0.1143 -0.3687
 2572SOL    HW210341   1.409   3.276   4.624 -0.5911  0.2949  0.8431
 2572SOL    HW310342   1.279   3.352   4.625 -0.4839  0.5993 -2.3987
 2572SOL    MW410343   1.324   3.280   4.608 -0.3654  0.2022 -0.4768
 2573SOL     OW10344   1.348   3.715   4.760  0.6091  0.1795  0.2900
 2573SOL    HW210345   1.390   3.739   4.842  1.6775 -1.4867  0.2617
 2573SOL    HW310346   1.421   3.687   4.703 -0.3780 -1.4935 -0.2093
 2573SOL    MW410347   1.363   3.714   4.763  0.6199 -0.2613  0.2208
 2574SOL     OW10348   3.807   3.624   4.278 -0.7716 -0.3534 -0.0210
 2574SOL    HW210349   3.886   3.582   4.243 -0.8473  0.5610 -1.3264
 2574SOL    HW310350   3.810   3.606   4.372  0.1256 -1.7398 -0.3002
 2574SOL    MW410351   3.818   3.616   4.286 -0.6633 -0.4156 -0.2298
 2575SOL     OW10352   0.628   4.189   4.552  0.1463 -0.4179 -0.1530
 2575SOL    HW210353   0.650   4.231   4.635 -0.0569 -1.1891  0.2981
 2575SOL    HW310354   0.696   4.122   4.541  0.3599 -0.1072 -0.7726
 2575SOL    MW410355   0.640   4.186   4.561  0.1476 -0.4787 -0.1750
 2576SOL     OW10356   2.492   1.732   4.824  0.4003  0.2314  0.0118
 2576SOL    HW210357   2.500   1.825   4.804  0.1775  0.5310  1.2351
 2576SOL    HW310358   2.544   1.720   4.904  2.2054 -1.1409 -1.3257
 2576SOL    MW410359   2.500   1.743   4.832  0.6092  0.0899 -0.0029
 2577SOL     OW10360   3.071   1.188   4.140 -0.2184 -0.6750  0.2059
 2577SOL    HW210361   3.157   1.211   4.175  0.6170 -3.4915  0.1456
 2577SOL    HW310362   3.080   1.201   4.046 -0.1789  0.0008  0.2999
 2577SOL    MW410363   3.084   1.192   4.132 -0.1028 -0.9575  0.2103
 2578SOL     OW10364   3.319   1.280   4.222 -0.0861 -0.1930  0.5467
 2578SOL    HW210365   3.355   1.297   4.309  0.3374  0.3705  0.2633
 2578SOL    HW310366   3.325   1.364   4.176 -2.1412  0.0057  0.6115
 2578SOL    MW410367   3.325   1.293   4.227 -0.3016 -0.0925  0.5178
 2579SOL     OW10368   3.377   1.533   4.107 -0.0351  0.1937 -0.0275
 2579SOL    HW210369   3.377   1.528   4.011  0.8665  1.0434 -0.0768
 2579SOL    HW310370   3.296   1.580   4.128 -0.8489 -1.0705 -0.3033
 2579SOL    MW410371   3.366   1.538   4.097 -0.0234  0.1389 -0.0701
 2580SOL     OW10372   3.402   1.318   4.496  0.6907  0.1299  0.0688
 2580SOL    HW210373   3.374   1.231   4.525  0.6629  0.1365  0.0622
 2580SOL    HW310374   3.322   1.371   4.500  0.3615 -0.2382 -1.4454
 2580SOL    MW410375   3.387   1.314   4.500  0.6437  0.0821 -0.1321
 2581SOL     OW10376   4.237   2.962   4.499  0.0058 -0.2024  0.1538
 2581SOL    HW210377   4.225   2.917   4.416  1.0621  0.5630 -0.4228
 2581SOL    HW310378   4.182   3.040   4.493  0.5318  0.1584 -0.0753
 2581SOL    MW410379   4.228   2.966   4.487  0.2146 -0.0536  0.0472
 2582SOL     OW10380   3.460   2.180   4.682 -0.2360 -0.2385 -0.0348
 2582SOL    HW210381   3.551   2.204   4.695 -0.6533  0.1909  2.3702
 2582SOL    HW310382   3.414   2.264   4.673 -0.2957 -0.4729 -2.0068
 2582SOL    MW410383   3.466   2.194   4.683 -0.2987 -0.2127  0.0215
 2583SOL     OW10384   2.915   2.343   4.153 -0.1178  0.2045  0.0039
 2583SOL    HW210385   2.919   2.262   4.204  0.5520 -0.0964 -0.5125
 2583SOL    HW310386   2.985   2.397   4.189 -1.2595  0.9877  1.0670
 2583SOL    MW410387   2.925   2.339   4.165 -0.1800  0.2682  0.0763
 2584SOL     OW10388   3.175   2.687   4.151 -0.0779  0.0420 -0.2551
 2584SOL    HW210389   3.171   2.606   4.203  1.7225 -0.3935 -0.7556
 2584SOL    HW310390   3.107   2.742   4.189  0.0733 -0.9082  1.4985
 2584SOL    MW410391   3.166   2.683   4.163  0.1795 -0.1409 -0.0896
 2585SOL     OW10392   2.451   3.116   4.563 -0.1956  0.2425  0.4032
 2585SOL    HW210393   2.391   3.185   4.536 -0.2944 -0.1675 -0.4374
 2585SOL    HW310394   2.418   3.037   4.520 -0.9449 -0.6380  2.5033
 2585SOL    MW410395   2.439   3.114   4.554 -0.3071  0.0725  0.5693
 2586SOL     OW10396   0.016   2.948   4.613 -0.3892  0.1368  0.3834
 2586SOL    HW210397  -0.070   2.950   4.572 -0.2746  1.1199  0.1906
 2586SOL    HW310398  -0.003   2.959   4.707 -0.5039 -0.1514  0.3962
 2586SOL    MW410399   0.002   2.950   4.620 -0.3892  0.2284  0.3600
 2587SOL     OW10400   3.393   3.097   4.136  0.4531 -0.6026 -0.0135
 2587SOL    HW210401   3.373   3.085   4.043 -0.3688  0.5527 -0.0115
 2587SOL    HW310402   3.414   3.010   4.168  1.1903 -0.9434 -1.3841
 2587SOL    MW410403   3.393   3.084   4.128  0.4420 -0.4950 -0.1941
 2588SOL     OW10404   3.142   3.195   4.234  0.2830 -0.4996  0.0193
 2588SOL    HW210405   3.212   3.137   4.205 -0.4250 -1.6429  0.5558
 2588SOL    HW310406   3.062   3.152   4.203 -0.2656  0.0409  0.6860
 2588SOL    MW410407   3.140   3.182   4.226  0.1173 -0.5791  0.1783
 2589SOL     OW10408   3.151   3.447   4.104  0.6125  0.2899 -0.1582
 2589SOL    HW210409   3.155   3.354   4.128  0.8809  0.4762  0.5289
 2589SOL    HW310410   3.131   3.446   4.011  1.3772 -0.4722 -0.3261
 2589SOL    MW410411   3.149   3.434   4.095  0.7486  0.2141 -0.0901
 2590SOL     OW10412   2.709   3.492   4.143  0.1029  0.6594  0.3849
 2590SOL    HW210413   2.790   3.539   4.163  0.0778  0.5506  0.7602
 2590SOL    HW310414   2.727   3.402   4.170 -0.2086  0.6754  0.6478
 2590SOL    MW410415   2.722   3.486   4.149  0.0587  0.6473  0.4692
 2591SOL     OW10416   3.360   3.902   4.123 -0.2136 -0.2367  0.2014
 2591SOL    HW210417   3.327   3.814   4.139  1.0677 -0.6142  0.7957
 2591SOL    HW310418   3.370   3.907   4.028  3.8530 -2.2689  0.4401
 2591SOL    MW410419   3.357   3.891   4.112  0.4919 -0.5543  0.3109
 2592SOL     OW10420   0.178   4.411   4.266  0.2865  0.1775 -0.4667
 2592SOL    HW210421   0.165   4.390   4.359 -2.1484  4.6172  0.3100
 2592SOL    HW310422   0.104   4.369   4.222  0.8459 -1.0230 -0.2844
 2592SOL    MW410423   0.167   4.402   4.272  0.0390  0.6046 -0.3400
 2593SOL     OW10424   2.462   4.401   4.253 -0.4075  0.2886  0.0630
 2593SOL    HW210425   2.496   4.385   4.342 -0.7956 -2.0821 -0.1866
 2593SOL    HW310426   2.523   4.354   4.196 -1.0352  0.5483 -0.8177
 2593SOL    MW410427   2.475   4.393   4.257 -0.5417  0.0100 -0.0858
 2594SOL     OW10428   3.123   4.020   4.190 -0.0171  0.0662  0.9259
 2594SOL    HW210429   3.204   3.972   4.172  0.3907  1.4703 -1.2685
 2594SOL    HW310430   3.053   3.960   4.162  0.2697 -0.9959  2.4554
 2594SOL    MW410431   3.124   4.006   4.184  0.0744  0.1111  0.8383
 2595SOL     OW10432   3.770   4.631   4.108 -0.4166 -0.0228  0.0036
 2595SOL    HW210433   3.693   4.675   4.143 -0.5947 -0.6740  0.4312
 2595SOL    HW310434   3.767   4.648   4.014  1.4613  3.9443  0.5645
 2595SOL    MW410435   3.759   4.639   4.100 -0.1926  0.4148  0.1340
 2596SOL     OW10436   3.371   4.652   4.124  0.2053 -0.4904  0.7723
 2596SOL    HW210437   3.438   4.699   4.173  1.2956 -0.3077 -0.8574
 2596SOL    HW310438   3.375   4.562   4.158  1.1751 -0.4432  0.8073
 2596SOL    MW410439   3.380   4.646   4.135  0.4771 -0.4601  0.5622
 2597SOL     OW10440   3.580   0.390   4.161 -0.7485 -0.1794  0.2483
 2597SOL    HW210441   3.578   0.395   4.066 -1.0714  0.0390  0.2673
 2597SOL    HW310442   3.667   0.423   4.185 -1.3715  1.5943  0.1400
 2597SOL    MW410443   3.592   0.395   4.152 -0.8733  0.0835  0.2365
 2598SOL     OW10444   0.280   1.986   4.598  0.6858 -0.4789 -0.3470
 2598SOL    HW210445   0.342   2.050   4.633  0.1307  0.6005 -1.3115
 2598SOL    HW310446   0.213   2.038   4.555  0.3439 -1.7158 -1.3667
 2598SOL    MW410447   0.279   2.001   4.597  0.5675 -0.4995 -0.6089
 2599SOL     OW10448   3.546   0.885   4.301  0.6793  0.1608 -0.2041
 2599SOL    HW210449   3.469   0.854   4.252  0.6146 -0.0733  0.0448
 2599SOL    HW310450   3.549   0.979   4.284  1.5253 -0.1537 -1.8750
 2599SOL    MW410451   3.536   0.893   4.292  0.7823  0.0885 -0.3915
 2600SOL     OW10452   3.068   0.930   4.530 -0.2371 -0.6368 -0.4031
 2600SOL    HW210453   3.078   0.839   4.558 -0.0127 -0.0312  1.5676
 2600SOL    HW310454   3.016   0.971   4.600  1.0434  1.1319 -0.4535
 2600SOL    MW410455   3.062   0.924   4.543 -0.0386 -0.3235 -0.1497
 2601SOL     OW10456   3.547   1.141   4.210 -0.2603 -0.2440  0.3484
 2601SOL    HW210457   3.466   1.191   4.197  0.1130  0.2326 -0.2098
 2601SOL    HW310458   3.584   1.133   4.122  0.8703  0.5151  0.7450
 2601SOL    MW410459   3.541   1.147   4.196 -0.0615 -0.0811  0.3276
 2602SOL     OW10460   4.043   1.711   4.452 -0.2766  0.1097 -0.1197
 2602SOL    HW210461   4.028   1.722   4.358  0.4327  1.9503 -0.0378
 2602SOL    HW310462   3.958   1.727   4.493 -0.6621 -1.0240 -0.4582
 2602SOL    MW410463   4.030   1.714   4.445 -0.2337  0.2030 -0.1540
 2603SOL     OW10464   0.355   3.264   4.530  0.6215 -0.1016 -1.0955
 2603SOL    HW210465   0.260   3.258   4.535  0.7082 -1.0106 -0.3082
 2603SOL    HW310466   0.376   3.233   4.441  0.2256 -0.5987 -1.0208
 2603SOL    MW410467   0.345   3.259   4.519  0.5807 -0.2871 -0.9823
 2604SOL     OW10468   0.926   0.927   4.202  0.0874 -0.4078 -0.2419
 2604SOL    HW210469   0.849   0.893   4.156  0.1917 -0.7620 -0.1593
 2604SOL    HW310470   0.987   0.853   4.204 -0.7237 -1.0515  2.2843
 2604SOL    MW410471   0.924   0.913   4.196 -0.0059 -0.5394  0.1020
 2605SOL     OW10472   4.035   1.474   4.607  0.1316  0.1675 -0.4845
 2605SOL    HW210473   4.041   1.549   4.549 -2.2598  1.6567  1.0798
 2605SOL    HW310474   3.969   1.417   4.567  1.2297 -0.6270 -1.1669
 2605SOL    MW410475   4.027   1.476   4.594 -0.0391  0.2593 -0.3681
 2606SOL     OW10476   1.314   1.666   4.538  0.2784  0.7143 -0.1800
 2606SOL    HW210477   1.346   1.576   4.543 -0.9449  0.2787 -0.1034
 2606SOL    HW310478   1.373   1.715   4.595  0.3533 -0.2156  0.5633
 2606SOL    MW410479   1.326   1.660   4.546  0.1270  0.5342 -0.0710
 2607SOL     OW10480   3.837   2.299   4.139  0.0144 -0.1817 -0.0336
 2607SOL    HW210481   3.855   2.295   4.045  0.5862  0.7739  0.0276
 2607SOL    HW310482   3.910   2.348   4.175 -0.4166 -0.1868  0.8631
 2607SOL    MW410483   3.849   2.305   4.131  0.0329 -0.0565  0.0930
 2608SOL     OW10484   4.254   3.639   4.203  0.7638  0.2147  0.3179
 2608SOL    HW210485   4.167   3.602   4.193  1.4576 -1.1725 -0.8801
 2608SOL    HW310486   4.241   3.734   4.201 -0.7088  0.0195  0.2704
 2608SOL    MW410487   4.241   3.647   4.202  0.6614  0.0057  0.1531
 2609SOL     OW10488   3.620   2.682   4.173 -0.2398 -0.2493 -0.5876
 2609SOL    HW210489   3.625   2.589   4.191 -1.6742 -0.2971 -0.4148
 2609SOL    HW310490   3.630   2.689   4.078  0.6916 -0.5025 -0.5136
 2609SOL    MW410491   3.622   2.671   4.162 -0.3061 -0.2894 -0.5550
 2610SOL     OW10492   3.519   0.921   4.570 -0.3516 -0.2746 -0.1331
 2610SOL    HW210493   3.610   0.946   4.590 -0.4845  0.3348 -0.2655
 2610SOL    HW310494   3.519   0.906   4.475 -0.1745 -1.2171  0.0080
 2610SOL    MW410495   3.531   0.923   4.560 -0.3459 -0.3186 -0.1321
 2611SOL     OW10496   3.805   3.134   4.093 -0.2118 -0.0553 -0.0414
 2611SOL    HW210497   3.806   3.041   4.117  2.2749 -0.1290 -0.2731
 2611SOL    HW310498   3.811   3.133   3.997 -0.4208  0.3365 -0.0567
 2611SOL    MW410499   3.806   3.121   4.083  0.0887 -0.0134 -0.0739
 2612SOL     OW10500   3.602   3.254   4.231  0.0503 -0.1286  0.4562
 2612SOL    HW210501   3.535   3.198   4.191  0.4470  0.2736 -0.7940
 2612SOL    HW310502   3.684   3.227   4.190  0.4484  0.3904  0.8989
 2612SOL    MW410503   3.604   3.243   4.221  0.1552 -0.0072  0.3495
 2613SOL     OW10504   2.943   3.856   4.083  0.1175 -0.4912  0.5179
 2613SOL    HW210505   2.954   3.763   4.102 -0.2757 -0.3548  1.4638
 2613SOL    HW310506   2.853   3.876   4.110  0.1706  0.1425  0.2445
 2613SOL    MW410507   2.933   3.847   4.089  0.0727 -0.3893  0.6065
 2614SOL     OW10508   3.361   4.273   4.467  0.1928  0.0814 -0.1252
 2614SOL    HW210509   3.377   4.367   4.474 -1.0675  0.2384  0.9847
 2614SOL    HW310510   3.277   4.261   4.512  0.7900 -1.7063  0.5322
 2614SOL    MW410511   3.352   4.284   4.474  0.1054 -0.1330  0.1082
 2615SOL     OW10512   3.079   4.001   4.479  0.1408 -0.5600 -0.1447
 2615SOL    HW210513   2.986   3.980   4.469 -0.0483  0.6030 -0.8344
 2615SOL    HW310514   3.110   4.017   4.390  0.6056  0.7103  0.2314
 2615SOL    MW410515   3.070   4.000   4.466  0.1774 -0.2384 -0.1864
 2616SOL     OW10516   3.989   4.030   4.279 -0.0467  0.1121 -0.1305
 2616SOL    HW210517   4.071   3.993   4.247 -0.4878 -0.0306 -1.1213
 2616SOL    HW310518   3.921   3.985   4.229 -0.6237  1.9483 -1.0649
 2616SOL    MW410519   3.991   4.019   4.268 -0.1812  0.3352 -0.3848
 2617SOL     OW10520   3.615   0.032   4.566  0.0399 -0.2119  0.7674
 2617SOL    HW210521   3.678  -0.040   4.565  0.2619 -0.0236 -0.2340
 2617SOL    HW310522   3.669   0.110   4.550 -0.2413  0.1306  1.5073
 2617SOL    MW410523   3.631   0.033   4.564  0.0319 -0.1419  0.7329
 2618SOL     OW10524   3.834   4.412   4.275  0.1436 -0.2554 -0.0957
 2618SOL    HW210525   3.892   4.359   4.219  1.0681  0.6459  0.0045
 2618SOL    HW310526   3.801   4.481   4.217 -0.6247 -0.5983 -0.0806
 2618SOL    MW410527   3.837   4.414   4.260  0.1640 -0.1817 -0.0811
 2619SOL     OW10528   1.551   1.827   4.635 -0.0929 -0.3004  0.0034
 2619SOL    HW210529   1.588   1.839   4.722 -0.4955  1.3524 -0.0317
 2619SOL    HW310530   1.559   1.913   4.594 -2.5234 -0.3218 -0.5627
 2619SOL    MW410531   1.557   1.840   4.641 -0.4666 -0.0851 -0.0763
 2620SOL     OW10532   3.993   0.373   4.167  0.1330  0.1772  0.1813
 2620SOL    HW210533   4.071   0.414   4.203  0.6483  1.6569 -2.4888
 2620SOL    HW310534   3.920   0.424   4.202  0.4202 -0.3234  1.5383
 2620SOL    MW410535   3.993   0.385   4.177  0.2391  0.3064  0.0081
 2621SOL     OW10536   4.433   0.165   4.584  0.0866  0.0835 -0.3815
 2621SOL    HW210537   4.504   0.222   4.614 -0.1119  0.8537 -1.3367
 2621SOL    HW310538   4.448   0.158   4.490 -0.9979  0.1007 -0.5574
 2621SOL    MW410539   4.445   0.172   4.575 -0.0825  0.1874 -0.5302
 2622SOL     OW10540   4.047   0.991   4.551  0.5839 -0.4591  0.0790
 2622SOL    HW210541   4.029   0.952   4.465  1.3228 -0.0907 -0.2429
 2622SOL    HW310542   4.096   1.071   4.531  1.3429 -0.7226  0.8887
 2622SOL    MW410543   4.051   0.996   4.537  0.7820 -0.4452  0.1435
 2623SOL     OW10544   4.227   0.802   4.164 -0.4023 -0.2955  0.2945
 2623SOL    HW210545   4.220   0.709   4.184 -0.5032 -0.1121  1.1455
 2623SOL    HW310546   4.231   0.806   4.068 -2.3579 -1.0557  0.1464
 2623SOL    MW410547   4.227   0.790   4.154 -0.6733 -0.3715  0.3877
 2624SOL     OW10548   0.011   4.622   4.776 -0.1186  0.5120 -0.0122
 2624SOL    HW210549   0.002   4.704   4.728  0.2664  1.0313  0.7953
 2624SOL    HW310550   0.096   4.587   4.748 -1.0868 -0.5259 -1.7328
 2624SOL    MW410551   0.021   4.628   4.766 -0.1955  0.4435 -0.1326
 2625SOL     OW10552   4.003   1.173   4.136  0.1947  0.0250  0.4236
 2625SOL    HW210553   4.009   1.083   4.168  0.1394 -0.0349  0.2634
 2625SOL    HW310554   4.073   1.220   4.183  1.5568 -0.5495 -0.9990
 2625SOL    MW410555   4.013   1.168   4.147  0.3672 -0.0587  0.2151
 2626SOL     OW10556   4.221   1.499   4.159  0.1327  0.0863 -0.2502
 2626SOL    HW210557   4.223   1.510   4.063  1.1419  1.3952 -0.1001
 2626SOL    HW310558   4.295   1.551   4.190 -1.0979  0.9042  1.3606
 2626SOL    MW410559   4.231   1.508   4.150  0.1040  0.3669 -0.0181
 2627SOL     OW10560   4.421   1.658   4.253 -0.3305 -0.0872  0.2994
 2627SOL    HW210561   4.426   1.749   4.224  0.0355 -0.6703 -1.5397
 2627SOL    HW310562   4.506   1.621   4.229 -1.0383 -1.3111 -0.3824
 2627SOL    MW410563   4.433   1.665   4.246 -0.3757 -0.3256 -0.0324
 2628SOL     OW10564   0.508   0.868   4.478  0.4942 -0.0019 -0.3818
 2628SOL    HW210565   0.435   0.821   4.518  0.2420  0.9473  0.2911
 2628SOL    HW310566   0.480   0.884   4.388 -0.5363  1.1982  0.1469
 2628SOL    MW410567   0.495   0.864   4.471  0.3250  0.2816 -0.2227
 2629SOL     OW10568   3.524   1.682   4.511  0.0796 -0.1325  0.1778
 2629SOL    HW210569   3.545   1.597   4.551  0.1967  0.2753  1.0069
 2629SOL    HW310570   3.459   1.720   4.571  0.6449  0.7145  0.2516
 2629SOL    MW410571   3.518   1.676   4.524  0.1698  0.0330  0.2975
 2630SOL     OW10572   4.209   2.050   4.219 -0.0431 -0.1628 -0.3519
 2630SOL    HW210573   4.180   2.068   4.308  1.7073 -1.9654  0.6121
 2630SOL    HW310574   4.130   2.016   4.175 -0.5176 -0.8026  0.9635
 2630SOL    MW410575   4.195   2.048   4.225  0.1254 -0.4852 -0.0510
 2631SOL     OW10576   4.250   2.312   4.096 -0.6375 -0.3370  0.0016
 2631SOL    HW210577   4.243   2.227   4.139 -0.0117 -0.4261 -0.0689
 2631SOL    HW310578   4.170   2.358   4.121 -0.2263 -0.3324  1.3928
 2631SOL    MW410579   4.239   2.307   4.105 -0.5007 -0.3483  0.1764
 2632SOL     OW10580   0.370   1.097   4.160 -0.1586  0.1119  0.1726
 2632SOL    HW210581   0.373   1.123   4.068  0.0340  0.4380  0.2688
 2632SOL    HW310582   0.439   1.148   4.202  0.3177 -0.6655  0.3455
 2632SOL    MW410583   0.380   1.107   4.154 -0.0704  0.0523  0.2079
 2633SOL     OW10584   3.996   2.736   4.132  0.5369 -0.3859  0.8065
 2633SOL    HW210585   4.079   2.771   4.166 -0.0909  2.2257 -0.1936
 2633SOL    HW310586   3.929   2.779   4.185 -0.2712 -0.0275 -0.4878
 2633SOL    MW410587   3.998   2.747   4.143  0.3474  0.0057  0.5040
 2634SOL     OW10588   2.368   1.122   4.705  0.1201 -0.3910 -0.2688
 2634SOL    HW210589   2.342   1.200   4.657 -0.2297 -0.1741  0.2709
 2634SOL    HW310590   2.464   1.120   4.697  0.1497  0.2104 -0.1072
 2634SOL    MW410591   2.377   1.132   4.698  0.0780 -0.2830 -0.1764
 2635SOL     OW10592   4.225   2.855   4.252  0.4604 -0.2133  0.4024
 2635SOL    HW210593   4.302   2.805   4.228 -0.3386 -0.8936 -0.8189
 2635SOL    HW310594   4.226   2.931   4.193  0.0514 -0.3764  0.1809
 2635SOL    MW410595   4.235   2.858   4.241  0.3009 -0.3245  0.2127
 2636SOL     OW10596   4.276   3.098   4.106 -0.0011 -0.0371 -0.1919
 2636SOL    HW210597   4.277   3.101   4.010 -2.4336 -2.1544 -0.3338
 2636SOL    HW310598   4.203   3.156   4.130  0.2298  0.0218  0.3691
 2636SOL    MW410599   4.266   3.106   4.096 -0.2918 -0.3088 -0.1369
 2637SOL     OW10600   4.059   3.254   4.202 -0.4173 -0.1452  0.1057
 2637SOL    HW210601   4.046   3.225   4.292  0.7306 -0.5235  0.1585
 2637SOL    HW310602   3.981   3.224   4.156 -0.5709 -0.7963  0.7740
 2637SOL    MW410603   4.047   3.246   4.208 -0.2866 -0.2811  0.2003
 2638SOL     OW10604   4.026   3.516   4.145 -0.5476  0.5373  0.5140
 2638SOL    HW210605   4.041   3.424   4.168 -0.1187  0.6520  0.6948
 2638SOL    HW310606   4.020   3.516   4.050  0.4278  0.4591  0.4441
 2638SOL    MW410607   4.027   3.504   4.136 -0.3624  0.5422  0.5283
 2639SOL     OW10608   3.786   0.535   4.251 -0.4444  0.2203  0.3825
 2639SOL    HW210609   3.766   0.614   4.202 -1.1633 -0.2546 -0.1068
 2639SOL    HW310610   3.789   0.563   4.343  1.1043  1.1482  0.0677
 2639SOL    MW410611   3.784   0.549   4.257 -0.3347  0.2800  0.2761
 2640SOL     OW10612   0.178   0.284   4.661  0.5525  0.2131  0.0928
 2640SOL    HW210613   0.195   0.276   4.755  0.9834  0.7169  0.0612
 2640SOL    HW310614   0.259   0.254   4.620 -0.5281 -2.4683 -0.1883
 2640SOL    MW410615   0.191   0.279   4.668  0.4668 -0.0742  0.0515
 2641SOL     OW10616   2.883   1.146   4.655 -0.2384  0.2284  0.1176
 2641SOL    HW210617   2.960   1.145   4.712 -0.8881  0.3003  1.0082
 2641SOL    HW310618   2.879   1.235   4.621 -0.2248  0.3701  0.4821
 2641SOL    MW410619   2.893   1.157   4.658 -0.3223  0.2567  0.2832
 2642SOL     OW10620   0.483   0.360   4.202  0.1764  0.3467  0.6857
 2642SOL    HW210621   0.477   0.371   4.108  0.6179 -0.1823  0.5964
 2642SOL    HW310622   0.394   0.375   4.234  0.0340  0.5510  0.1922
 2642SOL    MW410623   0.471   0.363   4.194  0.2158  0.3039  0.6089
 2643SOL     OW10624   2.634   4.221   4.125 -0.2044 -0.1800 -0.1392
 2643SOL    HW210625   2.625   4.214   4.030  0.8612 -0.1565 -0.2554
 2643SOL    HW310626   2.718   4.265   4.138 -0.6580  0.4339  0.8049
 2643SOL    MW410627   2.644   4.226   4.114 -0.1237 -0.0963 -0.0305
 2644SOL     OW10628   4.239   3.907   4.186 -0.0418 -0.3792 -0.0270
 2644SOL    HW210629   4.253   3.898   4.092 -0.2304 -1.0737  0.0125
 2644SOL    HW310630   4.326   3.924   4.222  0.3210 -2.0232 -0.1016
 2644SOL    MW410631   4.252   3.908   4.178 -0.0186 -0.6876 -0.0310
 2645SOL     OW10632   1.809   3.708   4.598 -0.1884 -0.3327  0.1115
 2645SOL    HW210633   1.903   3.686   4.596 -0.2965 -0.8986  0.9617
 2645SOL    HW310634   1.805   3.798   4.567  0.8961  0.4835  2.2027
 2645SOL    MW410635   1.821   3.717   4.594 -0.0596 -0.2995  0.4997
 2646SOL     OW10636   1.745   1.407   4.779 -0.0702 -0.9078 -0.0038
 2646SOL    HW210637   1.813   1.340   4.773  0.2123 -0.6600  0.3954
 2646SOL    HW310638   1.788   1.488   4.751 -0.4449 -0.9109 -0.6057
 2646SOL    MW410639   1.760   1.409   4.774 -0.0825 -0.8756 -0.0305
 2647SOL     OW10640   1.158   3.499   4.708 -0.3379  0.3243 -0.3340
 2647SOL    HW210641   1.211   3.547   4.772  0.2912  0.6145 -1.0738
 2647SOL    HW310642   1.130   3.564   4.645  0.0766 -0.1779 -1.0460
 2647SOL    MW410643   1.161   3.514   4.708 -0.2003  0.2964 -0.5260
 2648SOL     OW10644   1.092   0.520   4.516 -0.0438 -0.0783  0.5921
 2648SOL    HW210645   1.113   0.612   4.527  1.0305 -0.1183 -0.9265
 2648SOL    HW310646   1.160   0.474   4.565 -0.7052 -0.0655  1.5286
 2648SOL    MW410647   1.104   0.526   4.524  0.0106 -0.0818  0.5159
 2649SOL     OW10648   4.313   0.543   4.504 -0.3540  0.0380 -0.0975
 2649SOL    HW210649   4.269   0.614   4.550 -0.6854  0.3445 -0.8717
 2649SOL    HW310650   4.264   0.464   4.530 -1.6672  0.4326 -1.2931
 2649SOL    MW410651   4.300   0.542   4.513 -0.5713  0.1305 -0.3576
 2650SOL     OW10652   3.791   1.758   4.556 -0.2582 -0.0431 -0.1183
 2650SOL    HW210653   3.699   1.739   4.535 -0.2016 -0.1061 -0.3056
 2650SOL    HW310654   3.807   1.711   4.638  0.2028 -1.7017 -1.1488
 2650SOL    MW410655   3.781   1.749   4.564 -0.1900 -0.2704 -0.2794
 2651SOL     OW10656   1.976   2.065   4.225 -0.4463 -0.1917 -0.3062
 2651SOL    HW210657   2.058   2.016   4.220  1.6302  2.4723  3.9210
 2651SOL    HW310658   1.999   2.153   4.193 -1.9641  0.2725 -0.1638
 2651SOL    MW410659   1.990   2.070   4.220 -0.3725  0.2210  0.2704
 2652SOL     OW10660   4.425   1.904   4.116 -0.3800 -0.0757  0.0995
 2652SOL    HW210661   4.347   1.947   4.152  0.2508  0.2082  1.1567
 2652SOL    HW310662   4.497   1.965   4.135 -0.0007 -0.0071 -1.5067
 2652SOL    MW410663   4.424   1.918   4.123 -0.2465 -0.0292  0.0267
 2653SOL     OW10664   1.140   0.790   4.512 -0.1412 -0.5319  0.0752
 2653SOL    HW210665   1.188   0.842   4.448  1.4423 -0.8355  0.9707
 2653SOL    HW310666   1.073   0.850   4.546 -2.5060 -1.0466 -3.4205
 2653SOL    MW410667   1.138   0.805   4.508 -0.2444 -0.6399 -0.2680
 2654SOL     OW10668   4.470   0.893   4.572 -0.2428  0.0322 -0.3661
 2654SOL    HW210669   4.464   0.877   4.477 -2.4933  1.6224 -0.5297
 2654SOL    HW310670   4.460   0.987   4.581  0.9825  0.0209  1.4233
 2654SOL    MW410671   4.468   0.903   4.560 -0.3777  0.2405 -0.1516
 2655SOL     OW10672   3.761   0.258   4.507  0.3629  0.2883 -0.2348
 2655SOL    HW210673   3.753   0.352   4.525 -0.9242  0.2113 -0.4049
 2655SOL    HW310674   3.852   0.238   4.530  0.4851  1.4542  0.3640
 2655SOL    MW410675   3.772   0.268   4.513  0.2091  0.4320 -0.1783
 2656SOL     OW10676   2.093   0.809   4.635 -0.1518  0.1311 -0.3105
 2656SOL    HW210677   2.082   0.864   4.713 -0.6507 -0.9944  0.4265
 2656SOL    HW310678   2.179   0.834   4.601  0.3520  0.2060  0.9630
 2656SOL    MW410679   2.103   0.819   4.641 -0.1509 -0.0075 -0.0453
 2657SOL     OW10680   0.728   0.503   4.270  0.3430  0.2309  0.2407
 2657SOL    HW210681   0.645   0.457   4.260  0.0048  1.1258 -1.1860
 2657SOL    HW310682   0.752   0.489   4.362 -0.6660 -1.2210  0.3004
 2657SOL    MW410683   0.720   0.495   4.281  0.1653  0.1575  0.0601
 2658SOL     OW10684   3.323   0.500   4.524 -0.2063  0.2602  0.1289
 2658SOL    HW210685   3.346   0.515   4.432 -0.1272 -0.0722  0.0936
 2658SOL    HW310686   3.340   0.407   4.538 -1.5066  0.0018  0.0993
 2658SOL    MW410687   3.328   0.489   4.513 -0.3672  0.1823  0.1206
 2659SOL     OW10688   3.758   1.525   4.122  0.0209  0.1274 -0.5914
 2659SOL    HW210689   3.769   1.445   4.173  0.3552 -1.0013 -2.3828
 2659SOL    HW310690   3.691   1.574   4.169  0.1221 -0.9969  0.7769
 2659SOL    MW410691   3.751   1.521   4.135  0.0782 -0.1696 -0.6475
 2660SOL     OW10692   4.458   2.467   4.221 -0.6486 -0.0651 -0.3584
 2660SOL    HW210693   4.545   2.434   4.200 -0.4922  1.0102 -1.4415
 2660SOL    HW310694   4.398   2.412   4.171 -0.5881 -0.6322  0.1820
 2660SOL    MW410695   4.462   2.455   4.212 -0.6199  0.0019 -0.4306
 2661SOL     OW10696   1.999   0.556   4.495 -0.3321 -0.2527  0.9811
 2661SOL    HW210697   1.926   0.514   4.542 -1.1908  1.8360  1.5486
 2661SOL    HW310698   2.019   0.634   4.547  0.9100  0.3174 -0.3359
 2661SOL    MW410699   1.992   0.560   4.508 -0.2815  0.0981  0.8817
 2662SOL     OW10700   3.245   1.734   4.635  0.1236 -0.1828  0.1693
 2662SOL    HW210701   3.159   1.729   4.675 -0.3483  0.1007 -0.8076
 2662SOL    HW310702   3.257   1.826   4.613  0.2727 -0.3705 -0.5580
 2662SOL    MW410703   3.236   1.745   4.637  0.0808 -0.1702 -0.0553
 2663SOL     OW10704   1.547   2.537   4.640 -0.0527 -0.3681  0.1728
 2663SOL    HW210705   1.500   2.621   4.638  0.3936  0.0822  4.2967
 2663SOL    HW310706   1.485   2.475   4.602 -2.5757  0.9006  2.0536
 2663SOL    MW410707   1.532   2.540   4.635 -0.3268 -0.1411  0.9646
 2664SOL     OW10708   2.796   1.635   4.556 -0.2773  0.2597  0.1350
 2664SOL    HW210709   2.835   1.554   4.525  0.5535  1.4369 -1.9940
 2664SOL    HW310710   2.704   1.613   4.572  0.1452 -1.3134  0.5062
 2664SOL    MW410711   2.789   1.622   4.554 -0.1118  0.2075 -0.0973
 2665SOL     OW10712   2.221   1.682   4.284 -0.7298 -0.3968  0.0340
 2665SOL    HW210713   2.302   1.635   4.265 -1.5246 -1.8741  0.1725
 2665SOL    HW310714   2.159   1.649   4.219 -1.4107  0.1845  0.3885
 2665SOL    MW410715   2.224   1.671   4.273 -0.9241 -0.5150  0.0987
 2666SOL     OW10716   4.238   2.334   4.535  0.0538  0.3888 -0.2029
 2666SOL    HW210717   4.192   2.252   4.521  1.2549 -0.1384 -1.1067
 2666SOL    HW310718   4.169   2.400   4.539 -0.9245 -0.6520  0.5875
 2666SOL    MW410719   4.223   2.332   4.534  0.0830  0.1819 -0.2179
 2667SOL     OW10720   1.551   4.406   4.563  0.0390  0.0983  0.5513
 2667SOL    HW210721   1.606   4.478   4.591 -0.5793  0.2756  1.3327
 2667SOL    HW310722   1.461   4.438   4.577 -0.2643 -0.0997 -0.9019
 2667SOL    MW410723   1.546   4.419   4.569 -0.0825  0.0954  0.4621
 2668SOL     OW10724   3.619   4.288   4.158 -0.5192 -0.0795  0.2422
 2668SOL    HW210725   3.687   4.313   4.220 -0.0744  0.7367 -0.5643
 2668SOL    HW310726   3.602   4.196   4.177  1.1099 -0.4108  0.1545
 2668SOL    MW410727   3.625   4.280   4.169 -0.2453 -0.0157  0.1249
 2669SOL     OW10728   2.454   0.000   4.142 -0.1082 -0.7005 -0.3750
 2669SOL    HW210729   2.523   0.039   4.196  0.1060 -0.8792 -0.5225
 2669SOL    HW310730   2.445  -0.089   4.174 -0.3111 -0.6594 -0.3182
 2669SOL    MW410731   2.462  -0.006   4.153 -0.1068 -0.7181 -0.3867
 2670SOL     OW10732   2.634   1.019   4.702 -0.0963 -0.2341 -0.4413
 2670SOL    HW210733   2.712   1.071   4.685  0.4219 -1.2371 -1.1898
 2670SOL    HW310734   2.644   0.988   4.792  0.1160  0.0309 -0.3721
 2670SOL    MW410735   2.645   1.022   4.712 -0.0002 -0.3314 -0.5307
 2671SOL     OW10736   2.654   3.793   4.634 -0.1448 -0.0560 -0.0252
 2671SOL    HW210737   2.696   3.817   4.551  0.9469 -1.0650  0.2351
 2671SOL    HW310738   2.682   3.861   4.695  0.6072 -0.3785 -0.0072
 2671SOL    MW410739   2.663   3.805   4.631  0.0982 -0.2317  0.0119
 2672SOL     OW10740   4.037   2.469   4.207 -0.0931  0.0308 -0.4721
 2672SOL    HW210741   4.045   2.487   4.301 -2.7128  0.6233 -0.3455
 2672SOL    HW310742   4.019   2.554   4.168 -0.8275 -0.5034 -1.2991
 2672SOL    MW410743   4.036   2.482   4.214 -0.5355  0.0384 -0.5636
 2673SOL     OW10744   1.638   0.733   4.610  0.0682 -0.4270  0.2448
 2673SOL    HW210745   1.577   0.801   4.580  0.9575  0.6783  0.9115
 2673SOL    HW310746   1.723   0.761   4.578  0.5205 -0.9568  0.9681
 2673SOL    MW410747   1.641   0.746   4.602  0.2452 -0.3511  0.4282
 2674SOL     OW10748   2.122   1.043   4.813 -0.0963  0.2280 -0.1958
 2674SOL    HW210749   2.084   1.124   4.780 -0.3030  0.4506  0.5765
 2674SOL    HW310750   2.214   1.048   4.788  0.0841  1.1125  0.6295
 2674SOL    MW410751   2.129   1.054   4.805 -0.0999  0.3742  0.0148
 2675SOL     OW10752   0.629   3.586   4.257 -0.1243 -0.3964  0.1093
 2675SOL    HW210753   0.707   3.548   4.218 -0.3162 -2.1419  1.4102
 2675SOL    HW310754   0.557   3.532   4.225 -0.7776  0.9811 -0.7918
 2675SOL    MW410755   0.629   3.574   4.247 -0.2359 -0.4451  0.1621
 2676SOL     OW10756   4.294   1.871   4.520  0.5202  0.1598  0.4998
 2676SOL    HW210757   4.213   1.836   4.484  0.2725  0.1396  1.0766
 2676SOL    HW310758   4.342   1.795   4.553 -0.1412  0.3775  1.9992
 2676SOL    MW410759   4.290   1.857   4.520  0.4001  0.1858  0.7744
 2677SOL     OW10760   0.895   1.456   4.513  0.3167 -0.1554 -0.2274
 2677SOL    HW210761   0.927   1.531   4.563 -0.9955  1.0766 -1.1915
 2677SOL    HW310762   0.811   1.434   4.553 -1.4250  1.7176 -2.6312
 2677SOL    MW410763   0.888   1.463   4.525 -0.0862  0.2543 -0.6719
 2678SOL     OW10764   1.776   2.616   4.499 -0.2010  0.1423 -0.2687
 2678SOL    HW210765   1.710   2.600   4.567  0.9818 -0.8155  0.6877
 2678SOL    HW310766   1.780   2.711   4.491 -0.7568  0.2411  0.6024
 2678SOL    MW410767   1.768   2.627   4.507 -0.1183  0.0291 -0.0277
 2679SOL     OW10768   3.844   3.181   4.674 -0.1899 -0.3247 -0.1832
 2679SOL    HW210769   3.760   3.195   4.631 -1.0050 -0.4340  1.3246
 2679SOL    HW310770   3.873   3.269   4.698 -0.1931 -0.3332 -0.1468
 2679SOL    MW410771   3.837   3.195   4.672 -0.2980 -0.3405  0.0210
 2680SOL     OW10772   1.591   2.081   4.502 -0.0256 -0.3791  0.4939
 2680SOL    HW210773   1.568   2.054   4.414  0.3204 -0.4146  0.4114
 2680SOL    HW310774   1.687   2.079   4.503 -0.0323 -0.5393  0.9192
 2680SOL    MW410775   1.601   2.077   4.491  0.0191 -0.4046  0.5393
 2681SOL     OW10776   3.523   2.944   4.503 -0.2134  0.3266  0.2919
 2681SOL    HW210777   3.490   2.912   4.419 -0.5215  3.1654 -0.7292
 2681SOL    HW310778   3.452   2.926   4.564 -0.2934 -1.0867 -0.1866
 2681SOL    MW410779   3.510   2.937   4.500 -0.2646  0.5147  0.0944
 2682SOL     OW10780   3.212   2.875   4.910 -0.1784  0.0648  0.2150
 2682SOL    HW210781   3.230   2.876   5.004  0.4190 -0.6331  0.1186
 2682SOL    HW310782   3.176   2.787   4.894 -0.4216  0.2364 -0.1814
 2682SOL    MW410783   3.210   2.863   4.921 -0.1316 -0.0045  0.1502
 2683SOL     OW10784   4.463   4.258   4.165  0.3385 -0.0295  0.4294
 2683SOL    HW210785   4.478   4.245   4.072 -0.1979 -1.7309  0.5624
 2683SOL    HW310786   4.474   4.171   4.204  0.3028  0.6079  1.9175
 2683SOL    MW410787   4.467   4.245   4.158  0.2632 -0.1698  0.6433
 2684SOL     OW10788   2.043   2.318   4.161 -0.0405  0.1954  0.1373
 2684SOL    HW210789   2.024   2.341   4.070  0.5198  0.5510  0.1041
 2684SOL    HW310790   1.974   2.360   4.211  0.0893  0.6500 -0.0620
 2684SOL    MW410791   2.031   2.327   4.155  0.0505  0.3026  0.1068
 2685SOL     OW10792   4.051   2.741   4.638  0.2038  0.4576 -0.4162
 2685SOL    HW210793   4.098   2.821   4.615  0.2036  1.2591  2.1642
 2685SOL    HW310794   3.960   2.768   4.642  0.1469  0.2023 -0.0557
 2685SOL    MW410795   4.045   2.755   4.635  0.1965  0.5293 -0.0281
 2686SOL     OW10796   0.666   3.867   4.183 -0.4512  0.4327 -0.3517
 2686SOL    HW210797   0.673   3.775   4.208 -0.3743  0.6686  0.5286
 2686SOL    HW310798   0.577   3.892   4.208 -0.2568  0.7672  0.0199
 2686SOL    MW410799   0.655   3.858   4.190 -0.4155  0.5081 -0.1869
 2687SOL     OW10800   4.299   4.075   4.672 -0.0638  0.0049 -0.0468
 2687SOL    HW210801   4.205   4.077   4.686  0.2727  2.6121  2.2277
 2687SOL    HW310802   4.329   4.162   4.696  2.9000 -0.6554 -1.0903
 2687SOL    MW410803   4.291   4.086   4.677  0.3715  0.2618  0.1159
 2688SOL     OW10804   4.483   0.146   4.286 -0.1784 -0.6802  0.4223
 2688SOL    HW210805   4.410   0.087   4.265  0.6473 -1.5651 -0.0329
 2688SOL    HW310806   4.561   0.099   4.255  0.6187  0.0854  1.2390
 2688SOL    MW410807   4.484   0.132   4.279  0.0353 -0.6960  0.4702
 2689SOL     OW10808   3.842   1.609   4.769 -0.4054  0.2947 -0.4874
 2689SOL    HW210809   3.900   1.546   4.727  0.3539  1.0776 -0.6168
 2689SOL    HW310810   3.756   1.566   4.770  0.1426 -0.7956 -0.4308
 2689SOL    MW410811   3.838   1.595   4.764 -0.2332  0.2542 -0.4964
 2690SOL     OW10812   4.430   3.397   4.732 -0.1476  0.1661  0.0171
 2690SOL    HW210813   4.462   3.328   4.675 -0.6104 -0.9247  1.0534
 2690SOL    HW310814   4.506   3.451   4.751  0.4562 -0.7040  0.0852
 2690SOL    MW410815   4.444   3.395   4.727 -0.1292 -0.0927  0.1626
 2691SOL     OW10816   1.135   2.157   4.520  0.9766  0.0827 -0.4903
 2691SOL    HW210817   1.216   2.200   4.545  0.5964  0.9113 -0.6564
 2691SOL    HW310818   1.066   2.220   4.543  0.4561 -0.1837 -1.2844
 2691SOL    MW410819   1.136   2.171   4.526  0.8577  0.1566 -0.6170
 2692SOL     OW10820   1.359   3.485   4.204  0.3540 -0.0913 -0.6607
 2692SOL    HW210821   1.347   3.479   4.110 -0.8980  1.7549 -0.6316
 2692SOL    HW310822   1.280   3.528   4.236  0.8144 -0.5962  1.2248
 2692SOL    MW410823   1.347   3.490   4.196  0.2496  0.0856 -0.4082
 2693SOL     OW10824   2.447   0.270   4.568 -0.1714 -0.0467  0.1903
 2693SOL    HW210825   2.351   0.269   4.573 -0.2160  0.1237 -0.5698
 2693SOL    HW310826   2.470   0.362   4.557  0.0714 -0.1049  0.2011
 2693SOL    MW410827   2.437   0.282   4.568 -0.1452 -0.0319  0.0911
 2694SOL     OW10828   1.894   1.649   4.673  0.3881 -0.0394 -0.2210
 2694SOL    HW210829   1.969   1.592   4.657  0.7111 -0.1555  1.5110
 2694SOL    HW310830   1.933   1.733   4.697 -0.0381  0.0688  0.0992
 2694SOL    MW410831   1.909   1.652   4.674  0.3743 -0.0403  0.0505
 2695SOL     OW10832   1.767   4.227   4.195  0.3616  0.2780 -0.9718
 2695SOL    HW210833   1.797   4.231   4.104 -0.9460  0.0139 -1.4209
 2695SOL    HW310834   1.762   4.134   4.214  0.7228  0.3356 -0.5901
 2695SOL    MW410835   1.771   4.216   4.186  0.2367  0.2508 -0.9809
 2696SOL     OW10836   3.335   2.430   4.694 -0.1294  0.0546 -0.5276
 2696SOL    HW210837   3.308   2.497   4.757  0.0528 -0.6450  0.2889
 2696SOL    HW310838   3.258   2.420   4.637 -0.2258  0.8236 -0.5466
 2696SOL    MW410839   3.321   2.438   4.694 -0.1180  0.0637 -0.4220
 2697SOL     OW10840   0.962   1.911   4.552  0.0259  0.2757  0.4222
 2697SOL    HW210841   1.038   1.966   4.535 -0.4494  1.0480  0.7297
 2697SOL    HW310842   0.888   1.973   4.552 -1.0049 -0.8897 -2.9962
 2697SOL    MW410843   0.962   1.927   4.550 -0.1729  0.2239  0.0114
 2698SOL     OW10844   1.997   4.338   4.304  0.5812 -0.2829 -0.1882
 2698SOL    HW210845   1.919   4.284   4.288  0.5952 -0.4935  0.4602
 2698SOL    HW310846   1.982   4.418   4.254 -0.1218 -0.2549  0.0758
 2698SOL    MW410847   1.985   4.341   4.295  0.4903 -0.3066 -0.0677
 2699SOL     OW10848   0.381   1.934   4.147  0.4926 -0.1401 -0.6271
 2699SOL    HW210849   0.469   1.957   4.176  0.5754 -0.5571 -0.5431
 2699SOL    HW310850   0.392   1.908   4.056  0.3434  0.4813 -0.8289
 2699SOL    MW410851   0.394   1.934   4.139  0.4838 -0.1132 -0.6428
 2700SOL     OW10852   3.819   3.663   4.571  0.0769  0.3819 -0.2666
 2700SOL    HW210853   3.874   3.737   4.547 -1.4544  1.7583  0.3914
 2700SOL    HW310854   3.733   3.701   4.589 -1.0051 -1.6757 -0.8710
 2700SOL    MW410855   3.815   3.678   4.570 -0.2680  0.2918 -0.2594
 2701SOL     OW10856   3.582   3.819   4.586  0.4960 -0.2443 -0.3251
 2701SOL    HW210857   3.507   3.777   4.545  0.4343 -0.2344 -0.2230
 2701SOL    HW310858   3.578   3.910   4.557  1.5940 -0.6738 -1.9252
 2701SOL    MW410859   3.572   3.825   4.577  0.6328 -0.2995 -0.5226
 2702SOL     OW10860   1.501   1.243   4.740  0.4619  0.2817  0.0388
 2702SOL    HW210861   1.471   1.200   4.820  2.5177 -1.0912  0.1109
 2702SOL    HW310862   1.572   1.300   4.767  0.8726  0.1511 -0.7264
 2702SOL    MW410863   1.506   1.245   4.754  0.7875  0.0834 -0.0525
 2703SOL     OW10864   3.143   0.365   4.149  0.4230  0.0687 -0.2726
 2703SOL    HW210865   3.139   0.274   4.178  0.5858  0.4796  1.0721
 2703SOL    HW310866   3.062   0.404   4.183  0.5296  0.5179 -0.5372
 2703SOL    MW410867   3.132   0.358   4.157  0.4585  0.1822 -0.1302
 2704SOL     OW10868   2.866   2.029   4.828  0.1989  0.0663 -0.5862
 2704SOL    HW210869   2.891   2.103   4.772  0.3181  0.4845  0.0173
 2704SOL    HW310870   2.867   2.064   4.916 -2.1645 -0.0159 -0.5065
 2704SOL    MW410871   2.870   2.043   4.832 -0.0973  0.1104 -0.4959
 2705SOL     OW10872   3.987   1.937   4.099 -0.0283  0.3452  0.0008
 2705SOL    HW210873   3.921   1.981   4.153 -1.6615 -1.3985 -0.4892
 2705SOL    HW310874   3.987   1.847   4.131  1.1316  0.0112 -0.9290
 2705SOL    MW410875   3.978   1.931   4.111 -0.0908  0.0710 -0.1864
 2706SOL     OW10876   4.193   3.433   4.562  0.5622  0.4802 -0.1955
 2706SOL    HW210877   4.132   3.450   4.634  1.0443  0.4127  0.2387
 2706SOL    HW310878   4.277   3.418   4.606  0.4456 -1.6014 -0.6487
 2706SOL    MW410879   4.196   3.434   4.577  0.6104  0.1967 -0.1984
 2707SOL     OW10880   1.859   2.873   4.518 -0.0621  0.4997  0.0728
 2707SOL    HW210881   1.931   2.924   4.555  0.0930 -0.0962  0.6005
 2707SOL    HW310882   1.780   2.922   4.542  0.1149  0.7315  0.1857
 2707SOL    MW410883   1.858   2.886   4.526 -0.0184  0.4518  0.1574
 2708SOL     OW10884   4.012   4.091   4.678 -0.1431  0.7459 -0.0576
 2708SOL    HW210885   3.922   4.124   4.679 -0.7362 -0.7959  1.8522
 2708SOL    HW310886   4.006   4.008   4.631 -0.1911 -0.4713  2.0218
 2708SOL    MW410887   3.999   4.084   4.672 -0.2275  0.3819  0.4697
 2709SOL     OW10888   1.152   2.824   4.527 -0.0974 -0.1663 -0.6225
 2709SOL    HW210889   1.099   2.753   4.564 -0.5949  1.4911  1.9615
 2709SOL    HW310890   1.242   2.802   4.549 -0.2822  0.1771  0.4769
 2709SOL    MW410891   1.157   2.811   4.535 -0.1875  0.0975 -0.1364
 2710SOL     OW10892   1.872   2.055   4.495  0.2503 -0.0959 -0.0429
 2710SOL    HW210893   1.893   2.148   4.497  0.5728 -0.1670 -0.2301
 2710SOL    HW310894   1.919   2.020   4.419  0.4210 -0.4833  0.2370
 2710SOL    MW410895   1.881   2.062   4.485  0.3153 -0.1564 -0.0305
 2711SOL     OW10896   3.165   0.039   4.502 -0.2832  0.1437 -0.1769
 2711SOL    HW210897   3.165   0.064   4.410  0.8702  1.0082  0.0397
 2711SOL    HW310898   3.228   0.099   4.543 -0.3388 -0.6199  1.0586
 2711SOL    MW410899   3.173   0.051   4.496 -0.1385  0.1570  0.0148
 2712SOL     OW10900   3.123   1.189   4.817 -0.5129  0.2052  0.1496
 2712SOL    HW210901   3.206   1.181   4.772 -0.1280  0.1427  0.8652
 2712SOL    HW310902   3.140   1.251   4.889 -0.8677 -0.4330  0.7950
 2712SOL    MW410903   3.136   1.196   4.821 -0.5093  0.1128  0.3290
 2713SOL     OW10904   4.217   0.777   4.653  0.2995 -0.3677  0.1738
 2713SOL    HW210905   4.153   0.844   4.627 -0.4053 -0.8892  0.5356
 2713SOL    HW310906   4.301   0.822   4.653  0.1967 -0.0976 -2.0412
 2713SOL    MW410907   4.219   0.792   4.649  0.1931 -0.4009 -0.0710
 2714SOL     OW10908   1.703   1.145   4.560  0.2222 -0.5044  0.4313
 2714SOL    HW210909   1.627   1.109   4.604  0.5651 -1.8585 -0.0534
 2714SOL    HW310910   1.674   1.230   4.526 -0.8835 -0.7495  0.7574
 2714SOL    MW410911   1.689   1.151   4.561  0.1216 -0.7154  0.4101
 2715SOL     OW10912   2.340   1.370   4.572  0.0580  0.4917  0.2766
 2715SOL    HW210913   2.382   1.451   4.602 -0.0669  0.7767 -0.3031
 2715SOL    HW310914   2.378   1.354   4.485 -0.8467  0.6222 -0.1521
 2715SOL    MW410915   2.350   1.379   4.564 -0.0777  0.5465  0.1440
 2716SOL     OW10916   1.141   0.487   4.256 -0.3162  0.1118  0.4055
 2716SOL    HW210917   1.132   0.502   4.350 -1.5940 -0.6013  0.4055
 2716SOL    HW310918   1.066   0.433   4.233  0.8527 -1.0694 -0.7306
 2716SOL    MW410919   1.130   0.482   4.265 -0.3306 -0.1381  0.2556
 2717SOL     OW10920   2.937   3.030   4.888  0.1543 -0.0994  0.4698
 2717SOL    HW210921   2.937   3.061   4.798  0.0595 -1.5471 -0.0464
 2717SOL    HW310922   3.020   2.983   4.897  1.1753  1.8877  1.8165
 2717SOL    MW410923   2.948   3.028   4.877  0.2766 -0.0284  0.5789
 2718SOL     OW10924   1.598   3.326   4.636  0.3349  0.0684 -0.0919
 2718SOL    HW210925   1.690   3.309   4.658 -0.1309  0.0601  1.9203
 2718SOL    HW310926   1.597   3.417   4.606  1.0111  0.0161 -0.2825
 2718SOL    MW410927   1.610   3.336   4.635  0.3628  0.0606  0.1483
 2719SOL     OW10928   1.363   0.373   4.135 -0.0863 -0.1372 -0.6082
 2719SOL    HW210929   1.288   0.425   4.166 -0.7144 -1.0393 -0.5974
 2719SOL    HW310930   1.437   0.405   4.187 -0.7390 -0.2139  0.3922
 2719SOL    MW410931   1.362   0.384   4.146 -0.2555 -0.2663 -0.4749
 2720SOL     OW10932   2.930   2.073   4.259 -0.3794  0.5242 -0.1374
 2720SOL    HW210933   2.960   2.044   4.345 -0.2348  2.0402  0.3334
 2720SOL    HW310934   2.842   2.038   4.251 -0.2851  0.1289  0.5024
 2720SOL    MW410935   2.922   2.065   4.269 -0.3479  0.6719  0.0091
 2721SOL     OW10936   1.024   0.130   4.628  0.0507 -0.4369  0.6992
 2721SOL    HW210937   0.977   0.199   4.675  1.0146 -0.1182  1.2067
 2721SOL    HW310938   0.959   0.061   4.617 -0.7214  0.2501  0.8303
 2721SOL    MW410939   1.009   0.130   4.633  0.0759 -0.3042  0.7830
 2722SOL     OW10940   2.553   0.526   4.525  0.2841  0.2983  0.1227
 2722SOL    HW210941   2.549   0.620   4.544 -0.7146  0.2371  0.2366
 2722SOL    HW310942   2.526   0.519   4.433 -0.5530  0.0389  0.3826
 2722SOL    MW410943   2.549   0.537   4.515  0.0420  0.2559  0.1717
 2723SOL     OW10944   2.436   1.315   4.315 -0.5231  0.5400  0.2812
 2723SOL    HW210945   2.500   1.270   4.260 -0.7001  1.4283 -0.6765
 2723SOL    HW310946   2.445   1.408   4.291 -0.6612  0.9380  1.6946
 2723SOL    MW410947   2.446   1.322   4.305 -0.5646  0.7098  0.3414
 2724SOL     OW10948   3.400   2.843   4.273  0.0502 -0.2685  0.6841
 2724SOL    HW210949   3.464   2.778   4.243  1.0737  1.5130 -1.1455
 2724SOL    HW310950   3.318   2.815   4.233  0.2596 -1.0343  0.7785
 2724SOL    MW410951   3.398   2.831   4.264  0.2129 -0.1345  0.4554
 2725SOL     OW10952   0.809   3.688   4.649 -0.0455 -0.4761 -0.2587
 2725SOL    HW210953   0.806   3.614   4.711 -1.5592 -0.9691 -0.9052
 2725SOL    HW310954   0.732   3.676   4.594 -0.5024  1.8062 -0.1324
 2725SOL    MW410955   0.799   3.676   4.650 -0.3055 -0.2398 -0.3276
 2726SOL     OW10956   4.243   0.512   4.250  0.1671  0.2181  0.0560
 2726SOL    HW210957   4.319   0.462   4.220 -0.0003  0.0556 -0.1019
 2726SOL    HW310958   4.260   0.528   4.343 -0.5420 -1.5656  0.5169
 2726SOL    MW410959   4.255   0.508   4.258  0.0515 -0.0387  0.0958
 2727SOL     OW10960   0.643   1.372   4.604  0.1358  0.1222 -0.2250
 2727SOL    HW210961   0.570   1.433   4.618 -0.7048 -0.8918 -0.1254
 2727SOL    HW310962   0.603   1.285   4.613  1.1812 -0.4464 -1.0887
 2727SOL    MW410963   0.628   1.369   4.607  0.1628 -0.0867 -0.3262
 2728SOL     OW10964   2.963   2.224   4.644  0.0711  0.2557  0.4384
 2728SOL    HW210965   2.989   2.141   4.604  2.1102  1.3287 -0.5746
 2728SOL    HW310966   2.876   2.242   4.609  0.1957 -0.7917 -0.4185
 2728SOL    MW410967   2.955   2.216   4.634  0.3564  0.2592  0.1912
 2729SOL     OW10968   4.434   3.885   4.522 -0.1286 -0.3570  0.3170
 2729SOL    HW210969   4.373   3.811   4.524  0.1869 -0.6016  3.6291
 2729SOL    HW310970   4.397   3.949   4.581  2.2659 -0.0802  1.5919
 2729SOL    MW410971   4.421   3.883   4.530  0.2284 -0.3526  0.9222
 2730SOL     OW10972   1.965   2.845   4.258 -0.4197 -0.2425 -0.0806
 2730SOL    HW210973   1.985   2.929   4.217 -0.8005 -1.2617 -2.3991
 2730SOL    HW310974   1.929   2.869   4.344  0.9322  1.8979 -0.0596
 2730SOL    MW410975   1.963   2.859   4.264 -0.2917 -0.0944 -0.3839
 2731SOL     OW10976   0.467   2.416   4.261 -0.5365 -0.0541 -0.3396
 2731SOL    HW210977   0.462   2.507   4.232 -0.1213  0.2259  0.4425
 2731SOL    HW310978   0.540   2.379   4.212 -2.1171 -0.6190 -2.3588
 2731SOL    MW410979   0.476   2.423   4.251 -0.6903 -0.0918 -0.5031
 2732SOL     OW10980   1.552   0.503   4.266  0.5295  0.3026  0.4942
 2732SOL    HW210981   1.561   0.499   4.361  0.8738 -0.0797  0.4485
 2732SOL    HW310982   1.533   0.595   4.247 -0.6805  0.1762  1.0329
 2732SOL    MW410983   1.551   0.514   4.276  0.4151  0.2355  0.5593
 2733SOL     OW10984   4.186   0.321   4.613 -0.7087  0.3245  0.1153
 2733SOL    HW210985   4.121   0.258   4.582 -0.7058  1.2161 -1.7448
 2733SOL    HW310986   4.264   0.268   4.631 -0.8164 -0.2705 -1.1184
 2733SOL    MW410987   4.188   0.306   4.611 -0.7224  0.3636 -0.2928
 2734SOL     OW10988   4.252   3.686   4.475  0.3388  0.2538  0.1030
 2734SOL    HW210989   4.269   3.660   4.385 -1.5278  0.7811 -0.4204
 2734SOL    HW310990   4.223   3.606   4.518 -0.7160  0.4241 -0.2811
 2734SOL    MW410991   4.250   3.672   4.469 -0.0467  0.3459 -0.0167
 2735SOL     OW10992   2.470   3.134   4.102 -0.3535 -0.2744 -0.1282
 2735SOL    HW210993   2.549   3.174   4.140 -0.1293 -1.3302  0.5263
 2735SOL    HW310994   2.398   3.171   4.153 -0.3055  0.7195 -0.7495
 2735SOL    MW410995   2.471   3.144   4.114 -0.3176 -0.2825 -0.1235
 2736SOL     OW10996   3.379   2.299   4.174 -0.0234  0.2252  0.1923
 2736SOL    HW210997   3.409   2.302   4.083  0.9416  0.5610  0.5049
 2736SOL    HW310998   3.452   2.336   4.224  0.3527 -1.9159  1.3261
 2736SOL    MW410999   3.393   2.304   4.169  0.1533 -0.0126  0.3829
 2737SOL     OW11000   3.737   2.469   4.518 -0.1823 -0.0201  0.0389
 2737SOL    HW211001   3.685   2.541   4.552  0.9403  1.2963 -1.0013
 2737SOL    HW311002   3.712   2.394   4.573 -2.1382  0.8828  0.4385
 2737SOL    MW411003   3.727   2.468   4.530 -0.2923  0.2728 -0.0453
 2738SOL     OW11004   0.243   0.796   4.544  0.2209  0.4247 -0.3052
 2738SOL    HW211005   0.212   0.705   4.542 -0.9621  0.8043  0.3072
 2738SOL    HW311006   0.164   0.848   4.556  1.0818  1.4175  1.2651
 2738SOL    MW411007   0.229   0.791   4.545  0.1784  0.6057 -0.0172
 2739SOL     OW11008   0.855   4.000   4.585 -0.0586 -0.7266  0.4272
 2739SOL    HW211009   0.834   3.914   4.620 -0.1134 -1.2952 -0.9806
 2739SOL    HW311010   0.871   3.985   4.492  2.2336  0.3890  0.6026
 2739SOL    MW411011   0.855   3.987   4.577  0.2366 -0.6540  0.2642
 2740SOL     OW11012   0.926   2.428   4.284  0.3043 -0.0071 -0.4482
 2740SOL    HW211013   0.996   2.393   4.230 -0.5618 -0.9153 -1.0001
 2740SOL    HW311014   0.847   2.383   4.253 -0.3214  0.0392  1.0219
 2740SOL    MW411015   0.925   2.417   4.273  0.1075 -0.1204 -0.3271
 2741SOL     OW11016   2.023   3.880   4.136 -0.1127 -0.0138  0.0665
 2741SOL    HW211017   1.935   3.902   4.167 -0.2282  0.3878 -0.5407
 2741SOL    HW311018   2.010   3.856   4.044  0.6640  1.8137 -0.5408
 2741SOL    MW411019   2.009   3.880   4.128 -0.0255  0.2804 -0.0935
 2742SOL     OW11020   0.877   3.996   4.314 -0.1824 -0.1560  0.1179
 2742SOL    HW211021   0.884   4.083   4.273 -1.4156  0.4737  1.2230
 2742SOL    HW311022   0.802   3.955   4.270  0.6666 -0.8480 -0.7102
 2742SOL    MW411023   0.868   4.002   4.303 -0.2331 -0.1645  0.1540
 2743SOL     OW11024   2.024   0.481   4.234  0.1640 -0.6326  0.0288
 2743SOL    HW211025   2.097   0.423   4.214  0.5147 -0.4910  0.8554
 2743SOL    HW311026   2.038   0.506   4.326 -1.2263 -1.0485  0.3660
 2743SOL    MW411027   2.036   0.476   4.244  0.0269 -0.6687  0.1826
 2744SOL     OW11028   2.214   0.071   4.266 -0.1054  0.1595  0.6790
 2744SOL    HW211029   2.296   0.054   4.219 -1.0298 -0.0030 -0.9050
 2744SOL    HW311030   2.151   0.010   4.228 -1.0785  0.5771  1.5818
 2744SOL    MW411031   2.217   0.061   4.255 -0.3555  0.1931  0.5889
 2745SOL     OW11032   2.739   4.209   4.545 -0.0862 -0.2794  0.3404
 2745SOL    HW211033   2.652   4.248   4.533  0.0926  0.3112  0.9532
 2745SOL    HW311034   2.799   4.269   4.500 -0.0174 -0.8392 -0.3352
 2745SOL    MW411035   2.735   4.222   4.537 -0.0534 -0.2756  0.3319
 2746SOL     OW11036   3.293   1.088   4.594 -0.2563  0.5086 -0.6697
 2746SOL    HW211037   3.367   1.029   4.610 -0.6599  0.6529  1.8477
 2746SOL    HW311038   3.224   1.030   4.561  0.1600 -0.0219 -0.6290
 2746SOL    MW411039   3.294   1.072   4.592 -0.2549  0.4576 -0.3319
 2747SOL     OW11040   0.456   3.191   4.288  0.2107  0.5055  0.2312
 2747SOL    HW211041   0.531   3.148   4.247 -0.2896  0.5878 -0.7898
 2747SOL    HW311042   0.449   3.276   4.245 -0.1228  0.7247  0.7113
 2747SOL    MW411043   0.465   3.196   4.277  0.1007  0.5448  0.1602
 2748SOL     OW11044   2.059   1.996   4.930  0.0590 -0.5232 -0.0987
 2748SOL    HW211045   2.115   1.973   5.005  0.0701 -1.6900 -0.4503
 2748SOL    HW311046   2.077   2.088   4.914  0.6123 -0.4497  0.8721
 2748SOL    MW411047   2.068   2.005   4.938  0.1333 -0.6673 -0.0167
 2749SOL     OW11048   2.852   1.267   4.293  0.3791  0.7641  0.6307
 2749SOL    HW211049   2.930   1.242   4.244 -0.4645 -0.6400  0.0012
 2749SOL    HW311050   2.779   1.231   4.244 -0.7215  2.4548  0.9782
 2749SOL    MW411051   2.853   1.259   4.280  0.1225  0.8019  0.5937
 2750SOL     OW11052   0.937   0.998   4.490 -0.4780  0.2222  0.3919
 2750SOL    HW211053   0.954   0.985   4.397 -2.2401 -0.9774  0.2339
 2750SOL    HW311054   0.856   0.951   4.507 -0.3435  0.7005  2.4729
 2750SOL    MW411055   0.929   0.990   4.480 -0.6928  0.1270  0.6456
 2751SOL     OW11056   0.405   4.262   4.208  0.5422  0.6609  0.2693
 2751SOL    HW211057   0.400   4.275   4.113  0.8986  1.8635  0.3941
 2751SOL    HW311058   0.333   4.314   4.243 -0.2337 -0.6290  0.5952
 2751SOL    MW411059   0.395   4.271   4.200  0.4869  0.6499  0.3290
 2752SOL     OW11060   2.198   2.724   4.147  0.1825 -0.2959  0.3816
 2752SOL    HW211061   2.130   2.749   4.210  0.1968  0.5390  0.0759
 2752SOL    HW311062   2.271   2.783   4.167  0.1948 -0.0422 -0.4048
 2752SOL    MW411063   2.198   2.735   4.158  0.1860 -0.1523  0.2379
 2753SOL     OW11064   2.844   2.161   5.077 -0.0009  0.2249  0.0717
 2753SOL    HW211065   2.914   2.225   5.062  0.3015 -0.3597 -1.0900
 2753SOL    HW311066   2.768   2.198   5.031 -0.6946  1.2412  1.9802
 2753SOL    MW411067   2.843   2.175   5.069 -0.0527  0.2818  0.1707
 2754SOL     OW11068   1.311   4.526   4.613  0.4485  0.2517  0.0677
 2754SOL    HW211069   1.221   4.494   4.614  0.3453  0.5535  0.2590
 2754SOL    HW311070   1.305   4.614   4.576  0.9307 -0.5755 -2.0769
 2754SOL    MW411071   1.298   4.533   4.608  0.4985  0.1826 -0.1898
 2755SOL     OW11072   0.901   3.433   4.766 -0.2668 -0.4960  0.7728
 2755SOL    HW211073   0.997   3.438   4.765 -0.3703  1.9732 -0.7589
 2755SOL    HW311074   0.881   3.375   4.692 -0.0303  1.3728 -0.7871
 2755SOL    MW411075   0.911   3.426   4.756 -0.2493  0.0763  0.3643
 2756SOL     OW11076   1.831   3.978   4.505 -0.0176  0.2803  0.3135
 2756SOL    HW211077   1.761   4.025   4.549  0.2375 -0.0277  1.0449
 2756SOL    HW311078   1.911   4.013   4.543  0.2996  1.7743 -1.6425
 2756SOL    MW411079   1.832   3.989   4.516  0.0579  0.4370  0.1521
 2757SOL     OW11080   4.007   0.102   4.244  0.5523  0.0220  0.3046
 2757SOL    HW211081   3.936   0.058   4.198 -0.0386 -0.4026  1.6204
 2757SOL    HW311082   3.992   0.195   4.229  0.3111 -0.1082 -0.2692
 2757SOL    MW411083   3.996   0.108   4.236  0.4427 -0.0512  0.4025
 2758SOL     OW11084   4.147   4.317   4.514 -0.5368 -0.2637 -0.3143
 2758SOL    HW211085   4.113   4.242   4.564 -0.7814  0.4370  0.5782
 2758SOL    HW311086   4.239   4.323   4.540 -0.5776 -0.1117 -0.2013
 2758SOL    MW411087   4.154   4.308   4.524 -0.5746 -0.1512 -0.1817
 2759SOL     OW11088   4.304   1.390   4.536 -0.0706 -0.3269  0.1207
 2759SOL    HW211089   4.222   1.418   4.578  0.1844  0.5101  0.0779
 2759SOL    HW311090   4.277   1.343   4.458 -0.5297 -0.8275  0.5770
 2759SOL    MW411091   4.290   1.388   4.531 -0.0978 -0.2825  0.1755
 2760SOL     OW11092   0.460   4.665   4.897  0.3120  0.2926 -0.1830
 2760SOL    HW211093   0.499   4.664   4.984  0.3295 -1.7545 -0.1881
 2760SOL    HW311094   0.532   4.685   4.838  0.1014  2.7304  0.3317
 2760SOL    MW411095   0.474   4.667   4.900  0.2866  0.3438 -0.1163
 2761SOL     OW11096   2.321   0.919   4.522  0.1231  0.3583 -0.0770
 2761SOL    HW211097   2.353   0.985   4.584  1.3247 -1.0645  0.8295
 2761SOL    HW311098   2.398   0.866   4.501 -0.9545 -1.1542 -0.3019
 2761SOL    MW411099   2.335   0.921   4.527  0.1397 -0.0290  0.0129
 2762SOL     OW11100   0.243   1.243   4.489  0.0498  0.3617  0.2167
 2762SOL    HW211101   0.223   1.261   4.397  0.8039  0.3618  0.0564
 2762SOL    HW311102   0.278   1.326   4.522  0.6994  0.0718  0.2529
 2762SOL    MW411103   0.245   1.257   4.481  0.2350  0.3234  0.2003
 2763SOL     OW11104   3.996   4.255   4.127 -0.0193 -0.1397 -0.1094
 2763SOL    HW211105   4.068   4.302   4.168 -1.2291  1.6232  0.0637
 2763SOL    HW311106   3.987   4.175   4.179  0.6646  0.4644  0.9472
 2763SOL    MW411107   4.004   4.250   4.139 -0.0887  0.1717  0.0525
 2764SOL     OW11108   2.929   1.399   4.519  0.0121 -0.4246  0.2995
 2764SOL    HW211109   3.019   1.423   4.498 -0.5807 -0.4673 -2.4204
 2764SOL    HW311110   2.902   1.340   4.449 -2.3920  0.1908  0.6591
 2764SOL    MW411111   2.938   1.394   4.507 -0.3831 -0.3489 -0.0124
 2765SOL     OW11112   0.291   4.600   4.684  0.2623 -0.0720 -0.0204
 2765SOL    HW211113   0.306   4.678   4.630  0.8266 -0.8321 -0.9868
 2765SOL    HW311114   0.342   4.615   4.763 -0.0376  0.7636  0.0178
 2765SOL    MW411115   0.300   4.612   4.687  0.2972 -0.0620 -0.1431
 2766SOL     OW11116   2.633   2.263   4.917  0.6530  0.1298 -0.3466
 2766SOL    HW211117   2.560   2.323   4.927  0.7853  0.3551 -0.7312
 2766SOL    HW311118   2.703   2.317   4.880  0.5276 -0.4404 -1.4207
 2766SOL    MW411119   2.633   2.278   4.913  0.6537  0.0842 -0.5398
 2767SOL     OW11120   1.763   1.942   4.106 -0.0371 -0.5164  0.4303
 2767SOL    HW211121   1.830   1.985   4.159  1.7351 -0.4938 -1.7563
 2767SOL    HW311122   1.766   1.850   4.134  1.3790 -0.6423 -0.1042
 2767SOL    MW411123   1.772   1.936   4.117  0.3835 -0.5300  0.0710
 2768SOL     OW11124   3.043   2.332   4.940  0.3985  0.0599  0.0350
 2768SOL    HW211125   3.078   2.271   4.875 -0.5839 -0.8039  0.2967
 2768SOL    HW311126   2.968   2.373   4.896  1.2467  1.3382 -0.2547
 2768SOL    MW411127   3.038   2.329   4.925  0.3805  0.1144  0.0310
 2769SOL     OW11128   2.697   1.951   4.180  0.7539 -0.6448  0.4017
 2769SOL    HW211129   2.689   1.955   4.085  0.5278  0.9336  0.4775
 2769SOL    HW311130   2.609   1.969   4.212  0.5575 -2.4197  0.8958
 2769SOL    MW411131   2.684   1.954   4.172  0.6979 -0.6707  0.4773
 2770SOL     OW11132   1.576   4.117   4.590 -0.0203  0.4694 -0.4601
 2770SOL    HW211133   1.584   4.212   4.589  0.5276  0.4299 -0.2521
 2770SOL    HW311134   1.482   4.100   4.599 -0.0182  0.9925  0.5162
 2770SOL    MW411135   1.565   4.127   4.591  0.0522  0.5331 -0.3037
 2771SOL     OW11136   0.030   2.058   4.440 -0.4634 -0.1232  0.0848
 2771SOL    HW211137   0.011   2.149   4.464 -0.0712 -0.8587  3.4726
 2771SOL    HW311138  -0.046   2.009   4.472  0.7814 -1.3713  1.1549
 2771SOL    MW411139   0.017   2.063   4.447 -0.2474 -0.3848  0.6723
 2772SOL     OW11140   0.188   3.537   4.788  0.1899  0.1902  0.3874
 2772SOL    HW211141   0.198   3.606   4.853  0.1845  0.9443 -0.4057
 2772SOL    HW311142   0.275   3.525   4.750  0.5853 -1.4699  1.7337
 2772SOL    MW411143   0.201   3.544   4.792  0.2414  0.0703  0.4601
 2773SOL     OW11144   3.175   1.523   4.443 -0.2798  0.0696 -0.1753
 2773SOL    HW211145   3.176   1.566   4.357 -2.7100  0.0782 -0.2315
 2773SOL    HW311146   3.200   1.592   4.505  0.5822  0.2979 -0.7614
 2773SOL    MW411147   3.179   1.538   4.440 -0.4866  0.1009 -0.2604
 2774SOL     OW11148   4.014   2.523   4.485 -0.2016  0.8433  0.1366
 2774SOL    HW211149   3.921   2.504   4.497 -0.4083  0.7473 -1.5153
 2774SOL    HW311150   4.029   2.602   4.536 -1.3666  1.2988 -0.2063
 2774SOL    MW411151   4.003   2.531   4.493 -0.3824  0.8907 -0.1268
 2775SOL     OW11152   1.587   3.585   4.310 -0.2293 -0.2655  0.1216
 2775SOL    HW211153   1.517   3.534   4.268  0.2292 -0.6775 -0.1397
 2775SOL    HW311154   1.668   3.546   4.278  0.1247  0.2000  0.4460
 2775SOL    MW411155   1.588   3.573   4.300 -0.1222 -0.2587  0.1297
 2776SOL     OW11156   3.104   2.433   4.528  0.2076 -0.6790 -0.1968
 2776SOL    HW211157   3.047   2.508   4.543  2.3580  1.2010 -1.3318
 2776SOL    HW311158   3.058   2.360   4.570 -2.1468  1.1404  0.4819
 2776SOL    MW411159   3.090   2.433   4.535  0.1805 -0.1910 -0.2570
 2777SOL     OW11160   0.199   2.805   4.232  0.0618 -0.1296  0.4155
 2777SOL    HW211161   0.206   2.826   4.325 -0.3183 -0.0601  0.4305
 2777SOL    HW311162   0.210   2.889   4.188 -0.6187 -0.0275  0.4375
 2777SOL    MW411163   0.201   2.819   4.239 -0.0781 -0.1073  0.4206
 2778SOL     OW11164   2.971   1.803   4.688 -0.0241  0.4398 -0.3880
 2778SOL    HW211165   2.906   1.741   4.655 -1.0468  1.5005 -0.4096
 2778SOL    HW311166   2.920   1.866   4.740  1.2425  0.2057  1.1746
 2778SOL    MW411167   2.955   1.803   4.691  0.0081  0.5490 -0.1850
 2779SOL     OW11168   0.165   3.711   4.537 -0.4272 -0.5047  0.1873
 2779SOL    HW211169   0.155   3.659   4.617  0.4020  0.7879  1.1470
 2779SOL    HW311170   0.088   3.767   4.535  0.1650  0.3495  0.7641
 2779SOL    MW411171   0.154   3.711   4.547 -0.2396 -0.2215  0.3905
 2780SOL     OW11172   3.795   2.886   4.556 -0.3616  0.2843 -0.0393
 2780SOL    HW211173   3.822   2.975   4.578 -1.7565  0.9057 -0.7404
 2780SOL    HW311174   3.699   2.891   4.548 -0.5139 -1.3796  0.3702
 2780SOL    MW411175   3.786   2.898   4.558 -0.5658  0.1466 -0.0777
 2781SOL     OW11176   2.697   3.956   4.190  0.3729 -0.4039  0.1897
 2781SOL    HW211177   2.620   3.910   4.157  0.4915 -0.6553  0.2590
 2781SOL    HW311178   2.682   4.048   4.169  0.5853 -0.5961 -0.8371
 2781SOL    MW411179   2.685   3.962   4.183  0.4165 -0.4625  0.0634
 2782SOL     OW11180   1.421   2.771   4.553 -0.4956  0.3456 -0.2070
 2782SOL    HW211181   1.467   2.771   4.468  0.5742 -0.7137  0.3607
 2782SOL    HW311182   1.453   2.850   4.597  0.6392 -0.2714  0.0963
 2782SOL    MW411183   1.432   2.781   4.547 -0.2047  0.1245 -0.0916
 2783SOL     OW11184   3.395   0.218   4.592  0.0581 -0.2923 -0.1593
 2783SOL    HW211185   3.460   0.148   4.585  2.2025  1.6937 -0.6574
 2783SOL    HW311186   3.404   0.250   4.682  0.7440  0.8765 -0.6315
 2783SOL    MW411187   3.405   0.213   4.603  0.4315  0.1239 -0.2875
 2784SOL     OW11188   2.933   4.373   4.412 -0.7123  0.1842  0.2372
 2784SOL    HW211189   2.920   4.460   4.449 -1.3544  0.7803 -1.3532
 2784SOL    HW311190   3.010   4.339   4.458 -0.8299  1.3324  1.3173
 2784SOL    MW411191   2.941   4.380   4.423 -0.8128  0.4144  0.1702
 2785SOL     OW11192   2.167   0.087   4.563  0.2798 -0.5647 -0.2431
 2785SOL    HW211193   2.163   0.177   4.596  1.1672 -0.2941 -0.8667
 2785SOL    HW311194   2.188   0.097   4.470 -0.5039 -1.3874 -0.5088
 2785SOL    MW411195   2.169   0.100   4.555  0.2937 -0.6375 -0.3600
 2786SOL     OW11196   0.373   1.489   4.650  0.1900  0.0139 -0.1301
 2786SOL    HW211197   0.352   1.574   4.612 -0.4523  0.5751  1.4172
 2786SOL    HW311198   0.313   1.481   4.724  0.4660 -1.6521 -0.0785
 2786SOL    MW411199   0.363   1.499   4.655  0.1417 -0.1318  0.0811
 2787SOL     OW11200   0.256   2.815   4.504  0.1535 -0.3818  0.1004
 2787SOL    HW211201   0.180   2.862   4.539 -0.8596 -1.3289 -0.7778
 2787SOL    HW311202   0.233   2.722   4.515  0.3054 -0.6857 -1.9754
 2787SOL    MW411203   0.243   2.809   4.510  0.0399 -0.5467 -0.2890
 2788SOL     OW11204   0.575   2.842   4.548 -0.0078  0.3462  0.3408
 2788SOL    HW211205   0.481   2.836   4.531  0.1562  0.3331 -0.6115
 2788SOL    HW311206   0.614   2.853   4.461  0.9097 -0.1389  0.6836
 2788SOL    MW411207   0.567   2.842   4.534  0.1349  0.2806  0.2604
 2789SOL     OW11208   3.130   1.927   4.123  0.4483  0.0332  0.3871
 2789SOL    HW211209   3.056   1.979   4.157  0.4463 -0.6461  1.4342
 2789SOL    HW311210   3.207   1.966   4.163  0.4782 -0.5543  0.9027
 2789SOL    MW411211   3.130   1.939   4.133  0.4520 -0.1339  0.5937
 2790SOL     OW11212   0.420   2.450   4.534  0.4952  0.8481 -0.1519
 2790SOL    HW211213   0.443   2.426   4.445  0.7900  0.1451  0.1115
 2790SOL    HW311214   0.329   2.480   4.529  0.1672 -0.1850 -0.5082
 2790SOL    MW411215   0.411   2.451   4.522  0.4908  0.6192 -0.1640
 2791SOL     OW11216   3.824   1.316   4.521 -0.0649  0.4173  0.1258
 2791SOL    HW211217   3.827   1.301   4.426  1.2349 -0.0872  0.2290
 2791SOL    HW311218   3.806   1.229   4.558  1.1358  0.2852  0.4168
 2791SOL    MW411219   3.822   1.302   4.513  0.2651  0.3333  0.1779
 2792SOL     OW11220   3.326   0.785   4.161 -0.1611 -0.0971  0.3167
 2792SOL    HW211221   3.256   0.836   4.202  1.0774  0.5978  1.6413
 2792SOL    HW311222   3.324   0.701   4.207 -0.9073 -0.5264 -0.4886
 2792SOL    MW411223   3.317   0.781   4.173 -0.0961 -0.0620  0.3853
 2793SOL     OW11224   3.586   0.137   4.248  0.4131 -0.6541  0.2560
 2793SOL    HW211225   3.620   0.157   4.335 -0.1823 -0.0543  0.3549
 2793SOL    HW311226   3.583   0.222   4.204 -0.7734 -0.7280  0.1842
 2793SOL    MW411227   3.590   0.151   4.254  0.1781 -0.5847  0.2599
 2794SOL     OW11228   0.476   1.117   4.579  0.3398 -0.1127  0.1810
 2794SOL    HW211229   0.482   1.023   4.563  0.8165 -0.1093  0.3131
 2794SOL    HW311230   0.385   1.140   4.562 -0.2836 -0.9765  2.2603
 2794SOL    MW411231   0.465   1.108   4.574  0.3204 -0.2261  0.4730
 2795SOL     OW11232   3.802   2.870   4.273  0.0390  0.1626 -0.2034
 2795SOL    HW211233   3.733   2.805   4.263 -0.8425  1.3421 -2.1060
 2795SOL    HW311234   3.823   2.869   4.367 -2.7439 -0.0182  0.4581
 2795SOL    MW411235   3.795   2.861   4.284 -0.4444  0.2944 -0.3667
 2796SOL     OW11236   1.286   0.915   4.295 -0.0231 -0.2527 -0.1380
 2796SOL    HW211237   1.372   0.876   4.279 -0.9455 -1.8235 -1.3730
 2796SOL    HW311238   1.285   0.993   4.240  1.9389  1.7982  2.5647
 2796SOL    MW411239   1.297   0.920   4.286  0.1141 -0.1894  0.0548
 2797SOL     OW11240   3.617   2.402   4.269  0.3771  0.1805  0.4042
 2797SOL    HW211241   3.683   2.362   4.212  0.4515  0.1410  0.5176
 2797SOL    HW311242   3.661   2.412   4.353 -0.3439 -1.5355  1.0071
 2797SOL    MW411243   3.632   2.398   4.272  0.2918 -0.0513  0.4988
 2798SOL     OW11244   1.321   0.391   4.621 -0.7349  0.0120  0.4695
 2798SOL    HW211245   1.320   0.380   4.716  1.1432 -0.4453  0.4636
 2798SOL    HW311246   1.317   0.301   4.587  1.1630  0.0183  0.1794
 2798SOL    MW411247   1.321   0.378   4.629 -0.2365 -0.0475  0.4306
 2799SOL     OW11248   3.764   0.549   4.534 -0.2671  0.1725 -0.2231
 2799SOL    HW211249   3.690   0.588   4.580 -0.5955 -0.9029  0.1829
 2799SOL    HW311250   3.837   0.555   4.596 -0.5815 -0.8063  0.2580
 2799SOL    MW411251   3.763   0.555   4.548 -0.3519 -0.0985 -0.1063
 2800SOL     OW11252   3.387   3.648   4.473 -0.2881 -0.0215  0.0112
 2800SOL    HW211253   3.399   3.555   4.493 -1.4673 -0.0027  0.8328
 2800SOL    HW311254   3.395   3.653   4.378  0.3018 -0.8842  0.0114
 2800SOL    MW411255   3.389   3.637   4.463 -0.3657 -0.1326  0.1197
 2801SOL     OW11256   2.707   3.224   4.542 -0.2696 -0.2305  0.0717
 2801SOL    HW211257   2.618   3.189   4.547  0.3731 -1.7040  1.9203
 2801SOL    HW311258   2.704   3.306   4.592 -0.8916  0.3877 -0.9809
 2801SOL    MW411259   2.695   3.230   4.549 -0.2670 -0.3436  0.1769
 2802SOL     OW11260   0.442   3.487   4.679  0.6996  0.3338 -0.3178
 2802SOL    HW211261   0.419   3.414   4.623  0.3426  1.3193 -1.4680
 2802SOL    HW311262   0.508   3.451   4.739 -0.6232 -1.3299  0.1760
 2802SOL    MW411263   0.448   3.473   4.680  0.4780  0.2444 -0.4044
 2803SOL     OW11264   4.270   4.649   4.227 -0.3954 -0.3190 -0.9393
 2803SOL    HW211265   4.187   4.693   4.244 -0.6671 -0.9114 -0.6996
 2803SOL    HW311266   4.249   4.556   4.235  0.5247 -0.4291  0.1590
 2803SOL    MW411267   4.256   4.642   4.230 -0.3099 -0.4115 -0.7625
 2804SOL     OW11268   3.813   2.077   4.272  0.0221  0.3323  0.5277
 2804SOL    HW211269   3.734   2.041   4.232  1.2153 -1.3737 -0.3279
 2804SOL    HW311270   3.829   2.158   4.223  0.1036 -0.4931 -0.8419
 2804SOL    MW411271   3.804   2.083   4.260  0.1903 -0.0017  0.2346
 2805SOL     OW11272   0.573   1.216   4.304  0.2376  0.0809 -0.0845
 2805SOL    HW211273   0.553   1.195   4.395  0.4339  0.6612  0.0945
 2805SOL    HW311274   0.560   1.310   4.298 -1.6299 -0.2093 -1.1320
 2805SOL    MW411275   0.569   1.225   4.315  0.0172  0.1192 -0.1993
 2806SOL     OW11276   1.312   0.130   4.254  0.3376 -0.0555 -0.2678
 2806SOL    HW211277   1.388   0.074   4.237  0.1015 -0.0465 -1.3937
 2806SOL    HW311278   1.326   0.207   4.200  0.5110  0.8655  1.0577
 2806SOL    MW411279   1.324   0.133   4.245  0.3294  0.0672 -0.2413
 2807SOL     OW11280   0.378   3.881   4.504 -0.1776  0.2170  0.2981
 2807SOL    HW211281   0.302   3.823   4.509 -0.6313  0.6405 -1.3723
 2807SOL    HW311282   0.453   3.822   4.509 -0.6199 -0.2665  1.2923
 2807SOL    MW411283   0.378   3.865   4.505 -0.2958  0.2093  0.2084
 2808SOL     OW11284   2.675   2.757   4.288  0.2820 -0.0201 -0.0559
 2808SOL    HW211285   2.676   2.675   4.238  0.3048 -0.3038  0.4134
 2808SOL    HW311286   2.623   2.737   4.366  0.7294  0.2704  0.3141
 2808SOL    MW411287   2.668   2.743   4.292  0.3438 -0.0196  0.0544
 2809SOL     OW11288   2.758   4.510   4.758 -0.1872 -0.4312 -0.0861
 2809SOL    HW211289   2.718   4.431   4.720  0.4766 -0.6054 -0.4375
 2809SOL    HW311290   2.803   4.551   4.684 -0.0521 -0.0243  0.2226
 2809SOL    MW411291   2.759   4.505   4.743 -0.0820 -0.4010 -0.0916
 2810SOL     OW11292   3.150   0.102   4.234  0.5134  0.0059 -0.2987
 2810SOL    HW211293   3.220   0.052   4.192 -0.0200 -1.5905  0.6854
 2810SOL    HW311294   3.070   0.058   4.207  0.0428  0.2350  0.7094
 2810SOL    MW411295   3.149   0.089   4.225  0.3810 -0.1745 -0.0358
 2811SOL     OW11296   1.597   1.398   4.432  0.4033  0.3725 -0.1017
 2811SOL    HW211297   1.635   1.482   4.457  1.6232 -0.9356  2.6126
 2811SOL    HW311298   1.517   1.392   4.484  1.1619 -0.8387  0.9526
 2811SOL    MW411299   1.591   1.408   4.442  0.6644  0.0401  0.3958
 2812SOL     OW11300   1.345   1.381   4.556  0.3781 -0.0932  0.4919
 2812SOL    HW211301   1.390   1.329   4.622  0.3401  0.0394  0.6220
 2812SOL    HW311302   1.260   1.338   4.544  0.4706 -0.2444  0.3706
 2812SOL    MW411303   1.340   1.369   4.563  0.3853 -0.0956  0.4935
 2813SOL     OW11304   2.906   4.638   4.555 -0.4437  0.0405  0.4595
 2813SOL    HW211305   2.992   4.679   4.565 -1.4375  1.8825  1.5847
 2813SOL    HW311306   2.846   4.711   4.541 -1.8504 -1.2282 -0.2119
 2813SOL    MW411307   2.910   4.653   4.554 -0.7603  0.1159  0.5198
 2814SOL     OW11308   1.839   0.351   4.607  0.6108  0.1796  0.2320
 2814SOL    HW211309   1.861   0.265   4.571  0.6100  0.2267  0.1169
 2814SOL    HW311310   1.744   0.349   4.616  0.7826 -0.5751  2.1485
 2814SOL    MW411311   1.829   0.340   4.603  0.6334  0.0862  0.4697
 2815SOL     OW11312   0.116   0.535   4.505  0.0026 -0.2080  0.0048
 2815SOL    HW211313   0.128   0.470   4.574  0.5869 -2.3135 -2.0202
 2815SOL    HW311314   0.021   0.550   4.503  0.0670  0.5935  1.8735
 2815SOL    MW411315   0.105   0.529   4.514  0.0882 -0.3800 -0.0157
 2816SOL     OW11316   0.195   3.576   4.295  0.0122  0.1008  0.0448
 2816SOL    HW211317   0.122   3.516   4.282 -0.6404  0.8418  0.2520
 2816SOL    HW311318   0.178   3.617   4.380  0.5927  0.3687  0.0315
 2816SOL    MW411319   0.183   3.574   4.304  0.0027  0.2337  0.0701
 2817SOL     OW11320   3.599   1.456   4.638  0.1385 -0.0761  0.3616
 2817SOL    HW211321   3.671   1.429   4.581 -0.5333 -2.5960  0.6849
 2817SOL    HW311322   3.523   1.406   4.608 -0.4285 -0.8344  2.9189
 2817SOL    MW411323   3.598   1.446   4.627 -0.0250 -0.5085  0.7424
 2818SOL     OW11324   1.809   0.110   4.273  0.3613  0.2232  0.1569
 2818SOL    HW211325   1.807   0.201   4.244 -1.6090  0.7507  1.8287
 2818SOL    HW311326   1.808   0.115   4.369  0.2072 -1.5542  0.2680
 2818SOL    MW411327   1.808   0.123   4.282  0.0811  0.0583  0.3924
 2819SOL     OW11328   2.696   1.682   4.300 -0.6011 -0.0514  0.4075
 2819SOL    HW211329   2.712   1.773   4.274 -0.0133 -0.1171  0.5133
 2819SOL    HW311330   2.738   1.675   4.387  1.7192 -1.1334 -0.7465
 2819SOL    MW411331   2.704   1.693   4.308 -0.2174 -0.2028  0.2689
 2820SOL     OW11332   3.851   2.034   4.545  0.4866 -0.2308 -0.0145
 2820SOL    HW211333   3.826   1.941   4.547 -1.4244  0.2488 -0.7842
 2820SOL    HW311334   3.833   2.061   4.455 -1.2251  1.4841  0.8194
 2820SOL    MW411335   3.845   2.025   4.534  0.0088  0.0587 -0.0062
 2821SOL     OW11336   1.076   3.112   4.504 -0.2979 -0.1347 -0.1906
 2821SOL    HW211337   1.152   3.162   4.533 -0.9579  0.6354  0.2429
 2821SOL    HW311338   1.105   3.021   4.506  0.4329  0.1053  0.5564
 2821SOL    MW411339   1.090   3.106   4.508 -0.2885 -0.0012 -0.0343
 2822SOL     OW11340   1.960   1.308   4.311  0.5914  0.0277  0.2522
 2822SOL    HW211341   1.886   1.254   4.282 -0.0665  0.3853  1.2386
 2822SOL    HW311342   1.957   1.384   4.252  0.5540 -0.2652 -0.1224
 2822SOL    MW411343   1.950   1.311   4.299  0.4995  0.0361  0.3328
 2823SOL     OW11344   3.042   2.852   4.543 -0.2528  0.0013  0.1968
 2823SOL    HW211345   3.006   2.778   4.591 -1.1615 -0.5903 -1.3432
 2823SOL    HW311346   2.995   2.928   4.576  0.3682 -0.1495  1.4641
 2823SOL    MW411347   3.031   2.852   4.553 -0.2906 -0.0968  0.1607
 2824SOL     OW11348   3.506   2.630   4.589 -0.7020 -0.1718  0.4121
 2824SOL    HW211349   3.463   2.550   4.618 -0.0893 -0.7943 -0.3889
 2824SOL    HW311350   3.438   2.697   4.594 -1.2467 -0.7525  0.9778
 2824SOL    MW411351   3.492   2.628   4.594 -0.6931 -0.3304  0.3810
 2825SOL     OW11352   4.430   2.732   4.145  0.0408  0.3380 -0.1402
 2825SOL    HW211353   4.438   2.640   4.169 -0.6799  0.5882  1.1269
 2825SOL    HW311354   4.513   2.771   4.173  0.9687 -0.1839 -2.0424
 2825SOL    MW411355   4.442   2.725   4.152  0.0677  0.3026 -0.2236
 2826SOL     OW11356   4.120   2.091   4.470  0.1184 -0.5098 -0.5235
 2826SOL    HW211357   4.034   2.068   4.507  0.1379  0.0121 -0.1467
 2826SOL    HW311358   4.178   2.021   4.500 -0.1583 -0.8178 -0.7057
 2826SOL    MW411359   4.116   2.079   4.479  0.0849 -0.4818 -0.4978
 2827SOL     OW11360   2.046   4.109   4.597  0.2021  0.1506 -0.0471
 2827SOL    HW211361   2.137   4.099   4.568  0.5613  1.5867  0.5548
 2827SOL    HW311362   2.032   4.203   4.602 -0.5882 -0.0485  2.1139
 2827SOL    MW411363   2.056   4.120   4.594  0.1452  0.3138  0.3176
 2828SOL     OW11364   3.033   1.997   4.511 -0.2678  0.8367  0.1603
 2828SOL    HW211365   3.128   1.995   4.516 -0.1335 -0.6282 -2.5466
 2828SOL    HW311366   3.005   1.919   4.559  0.0249 -0.2835 -1.4716
 2828SOL    MW411367   3.042   1.987   4.518 -0.2115  0.4956 -0.4120
 2829SOL     OW11368   3.365   4.382   4.210  0.1169 -0.1530  0.6084
 2829SOL    HW211369   3.454   4.351   4.192 -0.3753 -1.1734 -0.1508
 2829SOL    HW311370   3.348   4.357   4.301 -0.0383 -1.5502  0.1993
 2829SOL    MW411371   3.375   4.375   4.219  0.0315 -0.4721  0.4544
 2830SOL     OW11372   2.721   3.520   4.629 -0.6847  0.3351  0.1208
 2830SOL    HW211373   2.705   3.613   4.648 -0.4012  0.2533  0.7760
 2830SOL    HW311374   2.806   3.519   4.585 -0.3128  0.3125  0.8279
 2830SOL    MW411375   2.730   3.532   4.626 -0.5980  0.3209  0.3004
 2831SOL     OW11376   3.301   1.984   4.544 -0.4164 -0.0593  0.3915
 2831SOL    HW211377   3.361   2.041   4.593 -0.2839  1.0929 -1.0795
 2831SOL    HW311378   3.329   1.992   4.453 -0.9175 -1.8713  0.0573
 2831SOL    MW411379   3.313   1.993   4.539 -0.4649 -0.1463  0.1531
 2832SOL     OW11380   3.794   3.870   4.155 -0.2821  0.1393  0.2313
 2832SOL    HW211381   3.721   3.927   4.179  0.6699  1.2794  0.4682
 2832SOL    HW311382   3.784   3.793   4.211 -1.1460  0.4053  0.4505
 2832SOL    MW411383   3.783   3.867   4.165 -0.2704  0.3250  0.2923
 2833SOL     OW11384   3.735   2.262   4.728  0.5162  0.8054  0.1909
 2833SOL    HW211385   3.770   2.179   4.695 -0.2382  1.1544 -1.5374
 2833SOL    HW311386   3.774   2.272   4.815  1.7654 -0.6292 -0.1933
 2833SOL    MW411387   3.744   2.252   4.735  0.5815  0.6623 -0.0877
 2834SOL     OW11388   2.921   4.638   4.177 -0.3661  0.4177  0.1494
 2834SOL    HW211389   2.899   4.545   4.168 -1.3157  0.5658  0.9327
 2834SOL    HW311390   2.841   4.679   4.211  0.3450  1.3635  0.7000
 2834SOL    MW411391   2.908   4.631   4.180 -0.3974  0.5622  0.3252
 2835SOL     OW11392   3.356   3.611   4.197 -0.3181 -0.0345  0.2314
 2835SOL    HW211393   3.436   3.577   4.157 -0.5434 -0.2949  0.0038
 2835SOL    HW311394   3.285   3.564   4.153 -0.6138  0.4926  0.1430
 2835SOL    MW411395   3.357   3.600   4.186 -0.3867  0.0007  0.1898
 2836SOL     OW11396   2.687   0.125   4.271  0.2133 -0.1337  0.5351
 2836SOL    HW211397   2.698   0.205   4.220 -1.6391  0.2597  0.7398
 2836SOL    HW311398   2.712   0.149   4.360  0.9739 -0.1503  0.3295
 2836SOL    MW411399   2.692   0.138   4.276  0.0694 -0.0840  0.5350
 2837SOL     OW11400   3.146   2.595   4.862  0.0728  0.2997 -0.4128
 2837SOL    HW211401   3.080   2.607   4.793 -2.4633  2.1392  2.1818
 2837SOL    HW311402   3.110   2.526   4.918  1.2652  0.0132  0.0092
 2837SOL    MW411403   3.133   2.588   4.860 -0.1044  0.5047 -0.0153
 2838SOL     OW11404   2.062   1.449   4.567  0.0559  0.3326  0.0933
 2838SOL    HW211405   2.029   1.430   4.479 -0.2301 -1.3711  0.5497
 2838SOL    HW311406   2.154   1.426   4.563  0.0017  0.0809  0.2914
 2838SOL    MW411407   2.070   1.443   4.555  0.0112  0.0745  0.1802
 2839SOL     OW11408   4.245   4.516   4.811  0.7145 -0.3183  0.1970
 2839SOL    HW211409   4.253   4.486   4.902  0.7610 -0.5225  0.1254
 2839SOL    HW311410   4.318   4.577   4.800  0.0584  0.5627  0.6358
 2839SOL    MW411411   4.256   4.521   4.822  0.6342 -0.2289  0.2451
 2840SOL     OW11412   3.157   2.443   4.261 -0.1217  0.3997 -0.0239
 2840SOL    HW211413   3.148   2.437   4.356 -1.4827  0.1184 -0.1596
 2840SOL    HW311414   3.241   2.400   4.242 -0.1237 -0.0658  0.9995
 2840SOL    MW411415   3.167   2.436   4.271 -0.3014  0.3016  0.0935
 2841SOL     OW11416   4.407   4.335   4.656 -0.3119 -0.0583  0.0337
 2841SOL    HW211417   4.492   4.352   4.617  0.6268 -1.9212  1.2125
 2841SOL    HW311418   4.387   4.414   4.706  0.7958  0.3185 -0.1067
 2841SOL    MW411419   4.415   4.348   4.657 -0.0420 -0.2546  0.1712
 2842SOL     OW11420   4.008   0.130   4.510  0.3039  0.2449  0.1294
 2842SOL    HW211421   4.019   0.116   4.416 -0.2589 -0.8213  0.2114
 2842SOL    HW311422   4.017   0.043   4.548 -1.7122  0.3032  0.8361
 2842SOL    MW411423   4.010   0.117   4.503 -0.0358  0.1119  0.2327
 2843SOL     OW11424   0.804   0.295   4.727  0.0445  0.2788  0.0904
 2843SOL    HW211425   0.774   0.353   4.796 -1.6065 -0.4238 -0.0290
 2843SOL    HW311426   0.788   0.344   4.646  0.4884  0.4441  0.0977
 2843SOL    MW411427   0.798   0.309   4.725 -0.1147  0.2079  0.0753
 2844SOL     OW11428   2.466   3.589   4.208 -0.6168 -0.2169  0.2110
 2844SOL    HW211429   2.477   3.681   4.187 -1.2394 -0.2319 -0.2217
 2844SOL    HW311430   2.547   3.547   4.178  0.6601  0.5174  2.5495
 2844SOL    MW411431   2.478   3.595   4.201 -0.5302 -0.1218  0.4625
 2845SOL     OW11432   0.573   3.677   4.517  0.2616 -0.4395 -0.0128
 2845SOL    HW211433   0.588   3.650   4.427  1.3140 -1.5267  0.4752
 2845SOL    HW311434   0.529   3.602   4.558  1.3778 -0.6614  0.8191
 2845SOL    MW411435   0.569   3.664   4.511  0.5477 -0.6123  0.1612
 2846SOL     OW11436   1.528   1.566   4.098  0.3718 -0.4178  0.4158
 2846SOL    HW211437   1.451   1.596   4.147 -0.2683 -1.2825 -0.0475
 2846SOL    HW311438   1.528   1.471   4.109 -0.0175 -0.6664 -1.6028
 2846SOL    MW411439   1.518   1.558   4.106  0.2359 -0.5647  0.0887
 2847SOL     OW11440   1.883   0.068   4.539 -0.3475 -0.2849 -0.4068
 2847SOL    HW211441   1.856  -0.002   4.598 -2.2631 -0.5312 -1.5477
 2847SOL    HW311442   1.979   0.069   4.546 -0.4506 -1.2019  1.6575
 2847SOL    MW411443   1.892   0.059   4.548 -0.6138 -0.4384 -0.2851
 2848SOL     OW11444   3.778   0.799   4.149 -0.1834 -0.1394  0.0952
 2848SOL    HW211445   3.693   0.834   4.179 -0.6661 -1.9011  0.8442
 2848SOL    HW311446   3.772   0.800   4.054 -0.9495  0.0155  0.1375
 2848SOL    MW411447   3.766   0.804   4.140 -0.3481 -0.3514  0.1993
 2849SOL     OW11448   0.015   0.862   4.284  0.1343 -0.1499  0.3065
 2849SOL    HW211449  -0.067   0.845   4.237  0.4957  1.2200 -0.8593
 2849SOL    HW311450   0.079   0.805   4.241  0.1776  0.1288 -0.0055
 2849SOL    MW411451   0.013   0.852   4.272  0.1877  0.0677  0.1121
 2850SOL     OW11452   2.498   2.321   4.126  0.2158 -0.2925  0.1437
 2850SOL    HW211453   2.420   2.372   4.149 -0.7888 -2.1564  0.9438
 2850SOL    HW311454   2.490   2.308   4.031  0.4240  0.9350 -0.0497
 2850SOL    MW411455   2.487   2.326   4.116  0.1109 -0.3765  0.2241
 2851SOL     OW11456   0.177   4.373   4.538 -0.3658  0.3285 -0.0986
 2851SOL    HW211457   0.232   4.301   4.568 -1.1470 -0.3770 -0.3579
 2851SOL    HW311458   0.215   4.451   4.579  1.2568 -0.0570 -0.8483
 2851SOL    MW411459   0.189   4.374   4.547 -0.2548  0.1841 -0.2313
 2852SOL     OW11460   3.342   2.041   4.285  0.0402 -0.0516  0.0067
 2852SOL    HW211461   3.349   2.132   4.256  0.4080 -0.4036 -1.0230
 2852SOL    HW311462   3.425   2.001   4.258 -0.5678 -0.9669 -0.5165
 2852SOL    MW411463   3.354   2.048   4.278  0.0086 -0.2186 -0.1984
 2853SOL     OW11464   1.073   3.704   4.529 -0.1929 -0.4319 -0.1046
 2853SOL    HW211465   0.982   3.712   4.558  0.7639  1.1849  2.5799
 2853SOL    HW311466   1.111   3.790   4.546  2.3457 -1.6436  0.5475
 2853SOL    MW411467   1.066   3.717   4.535  0.2682 -0.3784  0.3347
 2854SOL     OW11468   2.468   2.020   4.530  0.4310 -0.1901  0.0702
 2854SOL    HW211469   2.493   2.006   4.622  1.6731 -0.2416 -0.2614
 2854SOL    HW311470   2.403   1.952   4.512 -0.0079 -0.0201  0.9865
 2854SOL    MW411471   2.463   2.009   4.540  0.5369 -0.1745  0.1473
 2855SOL     OW11472   3.605   3.520   4.129 -0.2743  0.5631 -0.3063
 2855SOL    HW211473   3.594   3.440   4.179 -0.9100  0.1085 -1.1459
 2855SOL    HW311474   3.679   3.565   4.170  0.7262 -0.9215 -0.4355
 2855SOL    MW411475   3.613   3.516   4.141 -0.2260  0.3071 -0.4339
 2856SOL     OW11476   4.037   4.554   4.624  0.0296  0.3823  0.3471
 2856SOL    HW211477   4.097   4.579   4.694  0.6048  1.4045 -0.4877
 2856SOL    HW311478   4.078   4.478   4.583  0.5246  0.7845  0.0869
 2856SOL    MW411479   4.051   4.547   4.627  0.1702  0.5698  0.2027
 2857SOL     OW11480   3.779   1.285   4.260  0.2219 -0.4211  0.3665
 2857SOL    HW211481   3.693   1.246   4.242  0.8672 -1.6266 -0.1358
 2857SOL    HW311482   3.841   1.229   4.214  1.0815  1.8337 -1.2796
 2857SOL    MW411483   3.776   1.272   4.252  0.4206 -0.2826  0.0830
 2858SOL     OW11484   2.120   3.375   4.708  0.3618  0.2970 -0.5218
 2858SOL    HW211485   2.032   3.341   4.688 -0.1232  1.3174 -0.1534
 2858SOL    HW311486   2.157   3.310   4.768 -0.3094  0.0701 -0.3374
 2858SOL    MW411487   2.113   3.362   4.713  0.2096  0.4017 -0.4487
 2859SOL     OW11488   2.278   3.098   4.790 -0.1663  0.5107 -0.2741
 2859SOL    HW211489   2.360   3.101   4.740 -0.2631 -2.6857 -0.7308
 2859SOL    HW311490   2.305   3.088   4.881 -0.0413  0.9854 -0.2579
 2859SOL    MW411491   2.292   3.097   4.795 -0.1626  0.1519 -0.3324
 2860SOL     OW11492   0.856   3.253   4.560  0.0137 -0.2139  0.1976
 2860SOL    HW211493   0.932   3.195   4.559  0.1881 -0.0035  0.8148
 2860SOL    HW311494   0.782   3.195   4.578  0.1620 -0.2775  0.6088
 2860SOL    MW411495   0.856   3.238   4.562  0.0563 -0.1943  0.3333
 2861SOL     OW11496   3.525   0.636   4.668 -0.3444  0.7090  0.7355
 2861SOL    HW211497   3.515   0.729   4.648 -0.0213  0.0920 -2.5727
 2861SOL    HW311498   3.449   0.594   4.628  0.1864 -0.6163  1.0839
 2861SOL    MW411499   3.514   0.642   4.660 -0.2317  0.4527  0.3448
 2862SOL     OW11500   0.705   0.752   4.166  0.1418 -0.3058 -0.2670
 2862SOL    HW211501   0.698   0.731   4.073 -0.7814 -1.1562 -0.0042
 2862SOL    HW311502   0.711   0.668   4.210  2.1496  0.1310  0.3347
 2862SOL    MW411503   0.705   0.738   4.159  0.2850 -0.3604 -0.1531
 2863SOL     OW11504   3.576   4.088   4.480 -0.4880 -0.2838 -0.0803
 2863SOL    HW211505   3.499   4.144   4.481 -0.7339 -0.6059 -0.7140
 2863SOL    HW311506   3.639   4.132   4.538 -0.6908  0.6264 -0.5412
 2863SOL    MW411507   3.574   4.101   4.488 -0.5474 -0.2065 -0.2241
 2864SOL     OW11508   1.590   0.449   4.545 -0.0137  0.4322 -0.1163
 2864SOL    HW211509   1.621   0.532   4.582 -0.5435  0.4685  0.2596
 2864SOL    HW311510   1.501   0.440   4.579 -1.0267  1.1485 -2.4710
 2864SOL    MW411511   1.582   0.459   4.554 -0.2172  0.5315 -0.3772
 2865SOL     OW11512   2.005   4.385   4.581  0.0912 -0.2535 -0.1422
 2865SOL    HW211513   2.003   4.380   4.485  0.0191  1.4293 -0.2511
 2865SOL    HW311514   2.090   4.425   4.601  0.1112 -0.6054  0.4926
 2865SOL    MW411515   2.016   4.390   4.571  0.0842 -0.0777 -0.0725
 2866SOL     OW11516   4.488   2.342   4.461 -0.3632 -0.3828 -0.1229
 2866SOL    HW211517   4.472   2.373   4.372  1.1083 -0.0918 -0.3082
 2866SOL    HW311518   4.402   2.341   4.503 -0.9664  0.1473 -1.3349
 2866SOL    MW411519   4.475   2.346   4.455 -0.2486 -0.2744 -0.3071
 2867SOL     OW11520   0.129   2.074   4.187 -0.3590  0.1271  0.3004
 2867SOL    HW211521   0.098   2.062   4.277  0.2422  0.0129  0.4958
 2867SOL    HW311522   0.217   2.037   4.187 -0.3089  0.2423 -0.3049
 2867SOL    MW411523   0.137   2.068   4.199 -0.2731  0.1276  0.2460
 2868SOL     OW11524   2.454   3.551   4.484 -0.2403 -0.5273 -0.0083
 2868SOL    HW211525   2.543   3.548   4.519 -0.7183  1.0920  1.4200
 2868SOL    HW311526   2.465   3.564   4.390  1.0608  0.9850  0.3312
 2868SOL    MW411527   2.467   3.553   4.476 -0.1316 -0.1140  0.2246
 2869SOL     OW11528   3.567   1.677   4.239 -0.0619  0.0932 -0.2680
 2869SOL    HW211529   3.540   1.676   4.331  1.7591 -0.2841  0.2854
 2869SOL    HW311530   3.501   1.624   4.194  0.7147 -2.3187  1.3262
 2869SOL    MW411531   3.555   1.670   4.245  0.2811 -0.2750  0.0153
 2870SOL     OW11532   4.005   1.670   4.166 -0.0770  0.0241 -0.3016
 2870SOL    HW211533   4.075   1.606   4.174  0.0902  0.3350  0.9371
 2870SOL    HW311534   3.927   1.619   4.144 -0.0047 -0.6491  0.9578
 2870SOL    MW411535   4.004   1.655   4.165 -0.0458 -0.0236  0.0277
 2871SOL     OW11536   1.836   0.889   4.506 -0.5107 -0.3536 -0.0069
 2871SOL    HW211537   1.928   0.890   4.532 -0.6966 -0.7645  0.6721
 2871SOL    HW311538   1.798   0.967   4.545 -0.5146 -0.3274 -0.0626
 2871SOL    MW411539   1.843   0.899   4.514 -0.5358 -0.4044  0.0753
 2872SOL     OW11540   0.777   0.764   4.484  0.1354 -0.1333  0.0318
 2872SOL    HW211541   0.686   0.792   4.474  0.2719 -0.0348 -0.9790
 2872SOL    HW311542   0.812   0.762   4.395  1.0721 -0.3523  0.3936
 2872SOL    MW411543   0.770   0.767   4.471  0.2770 -0.1491 -0.0539
 2873SOL     OW11544   0.431   0.115   4.273 -0.0313  0.2620  0.0640
 2873SOL    HW211545   0.495   0.052   4.239 -0.8706  0.1351 -1.3270
 2873SOL    HW311546   0.462   0.200   4.241 -0.7807  0.1507 -0.9977
 2873SOL    MW411547   0.444   0.118   4.264 -0.2409  0.2306 -0.2604
 2874SOL     OW11548   3.409   4.551   4.471  0.2750 -0.0570  0.3708
 2874SOL    HW211549   3.478   4.605   4.510 -0.9457 -0.4499  3.1964
 2874SOL    HW311550   3.334   4.611   4.463  0.2890 -0.1811 -0.6613
 2874SOL    MW411551   3.408   4.566   4.475  0.1156 -0.1245  0.6070
 2875SOL     OW11552   3.314   2.847   4.645  0.0885  0.0043 -0.0313
 2875SOL    HW211553   3.291   2.863   4.736  0.4686  2.1692 -0.2851
 2875SOL    HW311554   3.231   2.848   4.598 -0.2573 -2.4929  0.4364
 2875SOL    MW411555   3.300   2.849   4.651  0.0932 -0.0396 -0.0033
 2876SOL     OW11556   0.624   3.341   4.837 -0.3130 -0.2506  0.6353
 2876SOL    HW211557   0.610   3.257   4.793 -0.5802  0.2065 -0.1578
 2876SOL    HW311558   0.718   3.357   4.827 -0.4851  0.1871 -0.4008
 2876SOL    MW411559   0.635   3.332   4.830 -0.3710 -0.1326  0.3939
 2877SOL     OW11560   3.121   3.295   4.517  0.1780 -0.1548 -0.2383
 2877SOL    HW211561   3.211   3.316   4.540  0.1460 -1.3464  1.0193
 2877SOL    HW311562   3.126   3.260   4.428  0.8412  0.5051 -0.4647
 2877SOL    MW411563   3.133   3.293   4.508  0.2613 -0.2253 -0.1020
 2878SOL     OW11564   3.591   4.036   4.218 -0.7197 -0.0152  0.4490
 2878SOL    HW211565   3.503   4.007   4.193 -0.1349 -1.4350  0.0412
 2878SOL    HW311566   3.587   4.048   4.313 -1.0224 -1.2050  0.5837
 2878SOL    MW411567   3.579   4.034   4.227 -0.6826 -0.3595  0.4129
 2879SOL     OW11568   2.882   4.329   4.150 -0.6268  0.0425  0.6544
 2879SOL    HW211569   2.968   4.320   4.107 -1.0516  1.2544 -0.4833
 2879SOL    HW311570   2.903   4.334   4.244  0.7008  1.8502  0.2986
 2879SOL    MW411571   2.896   4.329   4.157 -0.5078  0.4411  0.4578
 2880SOL     OW11572   3.350   0.520   4.255 -0.2017 -0.1739  0.6174
 2880SOL    HW211573   3.282   0.471   4.209  0.3460 -0.1963 -0.1769
 2880SOL    HW311574   3.430   0.468   4.242  0.0546  0.0737  1.1784
 2880SOL    MW411575   3.352   0.506   4.248 -0.0956 -0.1442  0.5865
 2881SOL     OW11576   3.174   4.257   4.063 -0.1000 -0.1111 -0.2532
 2881SOL    HW211577   3.157   4.180   4.118 -0.8702  0.5768  0.4921
 2881SOL    HW311578   3.240   4.306   4.111 -0.7517  0.4754  0.0619
 2881SOL    MW411579   3.180   4.253   4.077 -0.2875  0.0572 -0.1140
 2882SOL     OW11580   4.206   4.374   4.245  0.3564 -0.0345  0.4580
 2882SOL    HW211581   4.206   4.353   4.338 -1.5189  0.1820  0.5266
 2882SOL    HW311582   4.292   4.344   4.214  1.7668  1.6243  2.6032
 2882SOL    MW411583   4.218   4.367   4.253  0.2956  0.2131  0.7501
 2883NA      NA11584   2.700   3.175   0.486 -0.2962 -0.4516 -0.3623
   4.49070   4.66690  10.00000
