Gromacs Runs On Most of All Computer Systems in water t= 20000.00000 step= 20000000
11584
    1RU5    O5'    1   2.791   2.367   4.533 -0.6197  0.0183 -0.2214
    1RU5    H5T    2   2.826   2.361   4.622  0.3039 -1.6532 -0.6890
    1RU5    C5'    3   2.808   2.496   4.469 -0.4116 -0.1750  0.0300
    1RU5   H5'1    4   2.846   2.484   4.368 -0.1170  1.2693 -0.0429
    1RU5   H5'2    5   2.881   2.558   4.520  0.3192 -0.0398 -1.1666
    1RU5    C4'    6   2.668   2.567   4.451  0.3838  0.0393 -0.3396
    1RU5    H4'    7   2.680   2.654   4.387  0.5680 -0.1160 -0.5183
    1RU5    O4'    8   2.574   2.488   4.379 -0.2238  0.0593  0.1398
    1RU5    C1'    9   2.441   2.511   4.421  0.0285 -0.8906  0.1171
    1RU5    H1'   10   2.388   2.551   4.335  1.2235  0.1431 -0.1616
    1RU5     N1   11   2.369   2.400   4.484  0.1604 -0.0958  0.5233
    1RU5     C6   12   2.428   2.280   4.511  0.1094 -0.2845  0.1008
    1RU5     H6   13   2.536   2.276   4.508  0.2019 -1.1102  3.2130
    1RU5     C5   14   2.357   2.168   4.538 -0.7625 -0.1633  0.3632
    1RU5     H5   15   2.405   2.072   4.547  0.0868  0.2080 -0.1902
    1RU5     C4   16   2.216   2.175   4.540  0.5355  0.0676  0.2059
    1RU5     O4   17   2.141   2.080   4.545 -0.1936  0.0749 -0.4242
    1RU5     N3   18   2.160   2.302   4.539  0.3964  0.5212  0.0850
    1RU5     H3   19   2.060   2.308   4.540  0.4735  2.4387 -0.2958
    1RU5     C2   20   2.229   2.412   4.502  0.3650 -0.6160  0.9017
    1RU5     O2   21   2.161   2.515   4.489 -0.5826  0.1507 -0.3921
    1RU5    C3'   22   2.600   2.601   4.583 -0.2099  0.7200 -0.1293
    1RU5    H3'   23   2.599   2.521   4.657  2.6697 -0.2716 -1.1105
    1RU5    C2'   24   2.460   2.625   4.522 -0.0446  0.5694  0.4420
    1RU5   H2'1   25   2.382   2.617   4.597 -1.6181 -0.4985 -1.2458
    1RU5    O2'   26   2.440   2.748   4.448 -0.2681 -0.2189 -0.1716
    1RU5   HO'2   27   2.501   2.813   4.485  0.1958 -0.7142 -0.0558
    1RU5    O3'   28   2.657   2.716   4.640  0.8038  0.0740 -0.1226
    2RG3      P   29   2.679   2.745   4.799  0.1271 -0.0693 -0.2694
    2RG3    O1P   30   2.694   2.893   4.805  0.5155  0.1385 -0.2013
    2RG3    O2P   31   2.787   2.657   4.839  0.2738  0.1738  0.3276
    2RG3    O5'   32   2.536   2.691   4.845  0.0682 -0.5033  0.4466
    2RG3    C5'   33   2.420   2.774   4.838 -0.6331  0.1995  0.4002
    2RG3   H5'1   34   2.403   2.805   4.734 -2.1609  0.6949  0.7831
    2RG3   H5'2   35   2.432   2.867   4.894  1.0669  0.7007 -0.7334
    2RG3    C4'   36   2.288   2.715   4.882 -0.2493 -0.3159 -0.1273
    2RG3    H4'   37   2.208   2.782   4.852 -1.0147 -0.3545  1.7559
    2RG3    O4'   38   2.269   2.593   4.811 -0.2753 -0.1380 -0.2898
    2RG3    C1'   39   2.190   2.503   4.886 -0.2292  0.3117  0.3092
    2RG3    H1'   40   2.092   2.488   4.841 -0.0583 -0.8141  0.3127
    2RG3     N9   41   2.261   2.374   4.883 -0.3676 -0.2124 -0.2940
    2RG3     C8   42   2.395   2.349   4.896  0.0662 -0.0156  0.0423
    2RG3     H8   43   2.464   2.430   4.917  0.5188 -0.3584 -0.1213
    2RG3     N7   44   2.427   2.225   4.890 -0.0523 -0.8713  0.7120
    2RG3     C5   45   2.305   2.157   4.879 -0.1526 -0.2034  0.6011
    2RG3     C6   46   2.270   2.021   4.860  0.1405  0.3176  0.1294
    2RG3     O6   47   2.338   1.918   4.848 -0.2790  0.2672 -0.2124
    2RG3     N1   48   2.132   1.998   4.846  0.0491 -0.0547  0.5035
    2RG3     H1   49   2.101   1.902   4.849 -0.6938  0.1282 -0.9463
    2RG3     C2   50   2.044   2.097   4.855  0.0864  0.1374 -0.6538
    2RG3     N2   51   1.922   2.058   4.853  0.0897 -0.6207  0.3767
    2RG3    H21   52   1.897   1.965   4.822 -1.4838  0.3660 -1.4763
    2RG3    H22   53   1.863   2.140   4.846 -0.3349 -0.9609 -0.0692
    2RG3     N3   54   2.069   2.224   4.870 -0.3106  0.0133 -0.6102
    2RG3     C4   55   2.204   2.250   4.879 -0.3906 -0.5823 -0.7489
    2RG3    C3'   56   2.270   2.678   5.031 -0.1780 -0.3091 -0.0678
    2RG3    H3'   57   2.363   2.646   5.078 -0.8080 -1.0304  0.7363
    2RG3    C2'   58   2.174   2.559   5.031 -0.3550  0.0839  0.3164
    2RG3   H2'1   59   2.201   2.487   5.109  0.5041  0.4556  0.3639
    2RG3    O2'   60   2.037   2.609   5.042  0.1332  0.2260  0.1844
    2RG3   HO'2   61   2.055   2.695   5.079  3.4511 -0.2084 -0.2334
    2RG3    O3'   62   2.214   2.788   5.099 -0.1490 -0.1607 -0.5332
    2RG3    H3T   63   2.261   2.870   5.081 -2.1890  0.8587 -1.3428
    3SOL     OW   64   4.319   3.635   0.517  0.2350  0.1400  0.4302
    3SOL    HW2   65   4.293   3.723   0.492  1.6913 -0.1502 -2.2870
    3SOL    HW3   66   4.401   3.620   0.471 -0.6741 -3.1381 -0.2496
    3SOL    MW4   67   4.326   3.644   0.508  0.3071 -0.3307 -0.0179
    4SOL     OW   68   4.399   4.130   0.559 -0.4880  0.1752  0.1400
    4SOL    HW2   69   4.352   4.049   0.540  1.0424 -0.3273 -1.6220
    4SOL    HW3   70   4.338   4.200   0.534 -1.4515 -0.4290  0.7681
    4SOL    MW4   71   4.385   4.129   0.553 -0.4134  0.0291 -0.0096
    5SOL     OW   72   2.677   0.109   0.520  0.0125 -0.1954  0.1008
    5SOL    HW2   73   2.771   0.123   0.513 -0.1232  0.0484 -1.4994
    5SOL    HW3   74   2.661   0.093   0.613  1.8134 -1.6002  0.1762
    5SOL    MW4   75   2.687   0.109   0.531  0.2322 -0.3486 -0.1003
    6SOL     OW   76   4.353   0.779   0.611  0.2136 -0.3124  0.1266
    6SOL    HW2   77   4.317   0.759   0.697 -0.1462 -0.0119  0.0458
    6SOL    HW3   78   4.440   0.817   0.629 -0.0069  0.0779  0.3719
    6SOL    MW4   79   4.360   0.781   0.625  0.1369 -0.2213  0.1483
    7SOL     OW   80   1.142   0.805   0.333  0.4207  0.4431 -0.0457
    7SOL    HW2   81   1.063   0.859   0.348  0.1747  0.3880 -1.1354
    7SOL    HW3   82   1.141   0.742   0.405 -0.2962  0.7167  0.1954
    7SOL    MW4   83   1.131   0.804   0.345  0.2936  0.4719 -0.1577
    8SOL     OW   84   4.203   0.965   0.493 -0.2153 -0.0067 -0.1344
    8SOL    HW2   85   4.256   0.895   0.531 -0.4097  0.1421  0.4296
    8SOL    HW3   86   4.261   1.008   0.431 -0.2160 -0.9009 -0.7600
    8SOL    MW4   87   4.217   0.961   0.490 -0.2408 -0.1050 -0.1425
    9SOL     OW   88   0.626   1.072   0.403  0.3781  0.1150 -0.7816
    9SOL    HW2   89   0.588   1.154   0.371 -1.2183 -0.2423  0.1229
    9SOL    HW3   90   0.554   1.010   0.400  1.2141 -0.8999 -0.1338
    9SOL    MW4   91   0.612   1.075   0.399  0.2778 -0.0660 -0.5768
   10SOL     OW   92   0.533   4.351   0.355  0.1091 -0.1385 -0.0750
   10SOL    HW2   93   0.564   4.264   0.330  0.8099 -0.2287  1.0610
   10SOL    HW3   94   0.470   4.335   0.424 -0.6670  0.1924 -0.7000
   10SOL    MW4   95   0.529   4.338   0.361  0.0992 -0.1068 -0.0075
   11SOL     OW   96   0.631   3.658   0.509 -0.0853  0.1830 -0.0670
   11SOL    HW2   97   0.678   3.631   0.588  0.7022  1.0447 -0.2219
   11SOL    HW3   98   0.631   3.581   0.453 -0.7173 -0.4589  0.8077
   11SOL    MW4   99   0.637   3.644   0.512 -0.0648  0.2122  0.0280
   12SOL     OW  100   0.090   1.961   0.901 -0.0720  0.2736  0.3033
   12SOL    HW2  101   0.081   1.876   0.859 -1.6114  0.4143  0.3365
   12SOL    HW3  102   0.141   2.013   0.839 -1.8859  0.3260 -1.1810
   12SOL    MW4  103   0.096   1.957   0.888 -0.5144  0.2991  0.1118
   13SOL     OW  104   2.896   2.133   0.522  0.1560 -0.1388  0.2104
   13SOL    HW2  105   2.819   2.083   0.498  0.2326  0.7944 -2.1409
   13SOL    HW3  106   2.970   2.078   0.495  0.2907 -0.1879  0.6743
   13SOL    MW4  107   2.896   2.119   0.515  0.1838 -0.0219 -0.0387
   14SOL     OW  108   4.060   1.659   0.489 -0.1066  0.2286 -0.5841
   14SOL    HW2  109   4.023   1.571   0.496 -0.5307  0.5494  1.4433
   14SOL    HW3  110   3.984   1.717   0.484  0.0553  0.8110  2.6363
   14SOL    MW4  111   4.045   1.655   0.489 -0.1416  0.3477  0.1083
   15SOL     OW  112   0.344   2.581   0.490  0.1756 -0.0442 -0.4848
   15SOL    HW2  113   0.423   2.631   0.511  0.2680  0.0587 -1.0795
   15SOL    HW3  114   0.377   2.496   0.461  0.0470 -0.1668 -0.2758
   15SOL    MW4  115   0.359   2.576   0.489  0.1708 -0.0470 -0.5357
   16SOL     OW  116   0.433   1.983   0.621  0.3677  0.0328  0.3588
   16SOL    HW2  117   0.415   1.889   0.615 -0.5449  0.2675 -0.8069
   16SOL    HW3  118   0.349   2.022   0.643  0.4843  0.6914 -0.3576
   16SOL    MW4  119   0.419   1.975   0.623  0.2627  0.1506  0.1106
   17SOL     OW  120   2.178   0.842   0.464  0.0033 -0.3715 -0.2153
   17SOL    HW2  121   2.230   0.762   0.467  1.3774  0.5184  0.4410
   17SOL    HW3  122   2.239   0.910   0.438 -0.5218  0.9133  1.7322
   17SOL    MW4  123   2.193   0.840   0.461  0.1154 -0.0846  0.1282
   18SOL     OW  124   0.170   4.433   0.437 -0.3667 -0.4952 -0.2853
   18SOL    HW2  125   0.245   4.374   0.441  1.2767  1.5137 -0.7737
   18SOL    HW3  126   0.146   4.447   0.529 -1.4479 -2.6846 -0.1823
   18SOL    MW4  127   0.177   4.427   0.450 -0.2926 -0.5193 -0.3361
   19SOL     OW  128   2.661   4.465   0.416  0.0593  0.0540  0.0474
   19SOL    HW2  129   2.648   4.526   0.489 -1.3697 -0.8476  0.5627
   19SOL    HW3  130   2.594   4.398   0.429  0.9209 -1.0398 -1.1302
   19SOL    MW4  131   2.650   4.464   0.427 -0.0155 -0.2089 -0.0400
   20SOL     OW  132   2.019   2.299   0.386 -0.1633 -0.1711 -0.3003
   20SOL    HW2  133   1.947   2.359   0.405  0.1205  0.6220 -1.6701
   20SOL    HW3  134   2.093   2.334   0.436 -1.1238 -1.9718  2.5016
   20SOL    MW4  135   2.019   2.311   0.395 -0.2527 -0.3040 -0.1114
   21SOL     OW  136   3.590   3.237   0.860 -0.4254  0.5156 -0.2055
   21SOL    HW2  137   3.519   3.175   0.869  0.0310 -0.0473 -0.4456
   21SOL    HW3  138   3.588   3.265   0.769  0.7088 -0.7920 -0.6536
   21SOL    MW4  139   3.581   3.233   0.849 -0.2153  0.2692 -0.2963
   22SOL     OW  140   1.248   2.476   0.335  0.6951 -0.3778  0.0367
   22SOL    HW2  141   1.206   2.397   0.300  1.4539  0.7758 -3.6434
   22SOL    HW3  142   1.176   2.527   0.372 -0.0487 -1.8865  0.7391
   22SOL    MW4  143   1.233   2.472   0.335  0.6970 -0.4246 -0.3562
   23SOL     OW  144   0.066   3.304   0.505  0.0170  0.0154  0.0166
   23SOL    HW2  145   0.044   3.385   0.459  0.8200  0.6153  0.6738
   23SOL    HW3  146   0.160   3.293   0.490  0.1384 -0.1608  0.9123
   23SOL    MW4  147   0.075   3.313   0.497  0.1389  0.0710  0.2216
   24SOL     OW  148   3.523   4.515   0.339  0.4088 -0.4243 -0.0575
   24SOL    HW2  149   3.463   4.460   0.390  2.0963 -1.1172  1.2125
   24SOL    HW3  150   3.521   4.600   0.383 -1.2910  0.2099 -1.3170
   24SOL    MW4  151   3.514   4.519   0.352  0.4072 -0.4325 -0.0561
   25SOL     OW  152   3.586   3.790   0.368 -0.0605 -0.0298  0.5234
   25SOL    HW2  153   3.680   3.770   0.366  0.0331  0.4809 -0.9519
   25SOL    HW3  154   3.548   3.721   0.422  0.9596 -1.2383 -0.2591
   25SOL    MW4  155   3.593   3.778   0.375  0.0863 -0.1218  0.2255
   26SOL     OW  156   1.792   3.238   0.412  0.4317  0.5571  0.7087
   26SOL    HW2  157   1.864   3.302   0.412  1.3831 -0.4902  0.4616
   26SOL    HW3  158   1.752   3.246   0.326  1.1805  0.1313  0.3178
   26SOL    MW4  159   1.797   3.248   0.401  0.6560  0.3629  0.6245
   27SOL     OW  160   1.295   0.928   0.770 -0.4212  0.3440 -0.1446
   27SOL    HW2  161   1.303   0.953   0.678 -1.6373  0.0216 -0.3489
   27SOL    HW3  162   1.290   1.010   0.818  0.0787  0.5113 -0.3782
   27SOL    MW4  163   1.296   0.942   0.764 -0.5157  0.3236 -0.2024
   28SOL     OW  164   0.693   3.858   0.872  0.3489  0.6522  0.5164
   28SOL    HW2  165   0.775   3.898   0.842 -0.2320  1.7191  0.3252
   28SOL    HW3  166   0.625   3.914   0.836 -0.4467  0.1556  1.2431
   28SOL    MW4  167   0.695   3.871   0.864  0.1673  0.7274  0.5870
   29SOL     OW  168   3.323   4.084   0.346 -0.1582  0.4148 -0.2238
   29SOL    HW2  169   3.255   4.030   0.386  0.1324 -0.0083 -0.3037
   29SOL    HW3  170   3.403   4.063   0.394  0.3178 -0.5381 -1.3780
   29SOL    MW4  171   3.324   4.074   0.358 -0.0572  0.2327 -0.3866
   30SOL     OW  172   2.223   3.861   0.530  0.1002 -0.0918 -0.0787
   30SOL    HW2  173   2.145   3.808   0.516 -0.0763  0.4227 -1.1156
   30SOL    HW3  174   2.295   3.807   0.497  0.3034 -0.9261  1.6873
   30SOL    MW4  175   2.222   3.847   0.524  0.1037 -0.1342  0.0175
   31SOL     OW  176   0.462   3.922   0.517  0.2419 -0.1036 -0.1227
   31SOL    HW2  177   0.508   3.840   0.533 -0.1342 -0.0295  1.4307
   31SOL    HW3  178   0.467   3.970   0.600 -1.5457  0.4328 -0.2899
   31SOL    MW4  179   0.468   3.918   0.530 -0.0436 -0.0229  0.0602
   32SOL     OW  180   0.927   0.291   0.425 -0.1501 -0.1935  0.6391
   32SOL    HW2  181   0.949   0.318   0.514 -0.5664  2.3188  0.0249
   32SOL    HW3  182   0.998   0.327   0.371 -0.9138 -0.0241 -0.2617
   32SOL    MW4  183   0.939   0.299   0.429 -0.3058  0.1603  0.4392
   33SOL     OW  184   0.093   0.926   0.655  0.0751  0.2477 -0.2693
   33SOL    HW2  185   0.065   0.991   0.720 -1.2654 -0.9852  0.4240
   33SOL    HW3  186   0.163   0.877   0.699 -1.1769 -0.9124  0.4368
   33SOL    MW4  187   0.099   0.928   0.670 -0.2670 -0.0679 -0.0847
   34SOL     OW  188   4.011   0.767   0.391 -0.2948 -0.4349  0.0214
   34SOL    HW2  189   4.045   0.848   0.430  0.0663 -0.5312 -0.0902
   34SOL    HW3  190   4.063   0.697   0.431  0.0728 -0.5346 -0.6181
   34SOL    MW4  191   4.022   0.769   0.401 -0.1988 -0.4608 -0.0777
   35SOL     OW  192   4.180   1.199   0.657 -0.3874 -0.3519 -0.3449
   35SOL    HW2  193   4.164   1.123   0.602 -0.4052  0.1466 -1.0330
   35SOL    HW3  194   4.140   1.177   0.741 -1.0761 -0.7861 -0.7857
   35SOL    MW4  195   4.172   1.186   0.661 -0.4802 -0.3436 -0.4938
   36SOL     OW  196   2.386   1.021   0.354  0.3995  0.3175 -0.3284
   36SOL    HW2  197   2.434   1.093   0.396 -0.4144 -0.5494  2.1994
   36SOL    HW3  198   2.451   0.951   0.348  0.3570  0.2462  0.0341
   36SOL    MW4  199   2.401   1.021   0.359  0.2866  0.1937  0.0529
   37SOL     OW  200   3.380   2.021   0.527  0.1539 -0.1486 -0.3107
   37SOL    HW2  201   3.389   2.109   0.490  0.6163 -0.2794 -0.5157
   37SOL    HW3  202   3.373   2.035   0.621  0.8825  0.0741 -0.2829
   37SOL    MW4  203   3.380   2.034   0.534  0.3111 -0.1364 -0.3341
   38SOL     OW  204   3.106   1.678   0.517 -0.5678 -0.2023 -0.1360
   38SOL    HW2  205   3.126   1.645   0.605 -0.7652 -3.4454 -1.2559
   38SOL    HW3  206   3.033   1.623   0.487  0.8859 -0.5949 -3.1400
   38SOL    MW4  207   3.099   1.666   0.525 -0.4020 -0.6819 -0.6801
   39SOL     OW  208   0.908   0.944   0.434 -0.0245 -0.1236 -0.0824
   39SOL    HW2  209   0.830   0.993   0.405 -0.5577 -0.3173  1.0104
   39SOL    HW3  210   0.888   0.920   0.524  0.3104 -2.1970 -0.5528
   39SOL    MW4  211   0.895   0.948   0.442 -0.0507 -0.4228 -0.0003
   40SOL     OW  212   0.842   2.442   0.800 -0.1401 -0.1167 -0.3722
   40SOL    HW2  213   0.908   2.404   0.858  0.6559  2.1814  0.3044
   40SOL    HW3  214   0.761   2.397   0.822  0.7192 -1.2103  0.5843
   40SOL    MW4  215   0.840   2.431   0.810  0.0783  0.0422 -0.1568
   41SOL     OW  216   4.276   3.072   0.833 -0.4441  0.4406 -0.1236
   41SOL    HW2  217   4.354   3.121   0.807 -1.2131  1.2217 -0.9541
   41SOL    HW3  218   4.274   2.997   0.774 -0.1246  0.2139  0.1462
   41SOL    MW4  219   4.286   3.068   0.822 -0.5035  0.5140 -0.1975
   42SOL     OW  220   0.445   3.254   0.719 -0.0371  0.2318 -0.0310
   42SOL    HW2  221   0.451   3.334   0.771 -0.4437  0.7546 -0.7678
   42SOL    HW3  222   0.378   3.201   0.763 -0.8221  0.9371 -0.3595
   42SOL    MW4  223   0.437   3.257   0.731 -0.1943  0.3936 -0.1716
   43SOL     OW  224   1.344   0.967   0.484  0.0731  0.1764 -0.4080
   43SOL    HW2  225   1.294   0.912   0.423  1.0631 -1.7976  0.4988
   43SOL    HW3  226   1.435   0.946   0.465  0.4101  0.1190  1.2002
   43SOL    MW4  227   1.349   0.957   0.473  0.2483 -0.0916 -0.0762
   44SOL     OW  228   0.341   1.722   0.584  0.2155 -0.3066 -0.0514
   44SOL    HW2  229   0.256   1.737   0.541  0.1008 -0.7563  0.0111
   44SOL    HW3  230   0.397   1.689   0.514  0.6977  1.1645 -0.3688
   44SOL    MW4  231   0.337   1.720   0.569  0.2640 -0.1719 -0.0851
   45SOL     OW  232   2.957   0.100   0.484 -0.4683 -0.1171 -0.0077
   45SOL    HW2  233   3.005   0.027   0.445 -0.7273 -1.1660  1.6117
   45SOL    HW3  234   2.999   0.178   0.448  0.0314 -1.0528 -1.4937
   45SOL    MW4  235   2.968   0.100   0.474 -0.4365 -0.3790  0.0100
   46SOL     OW  236   3.773   4.386   0.307 -0.3474  0.1323 -0.1007
   46SOL    HW2  237   3.789   4.358   0.217 -0.2714 -0.0956 -0.0169
   46SOL    HW3  238   3.689   4.432   0.303 -1.1424 -1.2691 -0.0062
   46SOL    MW4  239   3.764   4.388   0.295 -0.4425 -0.0830 -0.0772
   47SOL     OW  240   1.090   0.727   0.848  0.1987  0.2850 -0.5736
   47SOL    HW2  241   1.169   0.778   0.829 -0.7009  2.2135  0.7012
   47SOL    HW3  242   1.080   0.732   0.943 -0.3017 -1.7243 -0.5015
   47SOL    MW4  243   1.099   0.734   0.858  0.0141  0.2744 -0.3960
   48SOL     OW  244   1.770   4.125   0.443 -0.0302  0.3766  0.1699
   48SOL    HW2  245   1.695   4.177   0.414  1.5826  1.4672 -2.1211
   48SOL    HW3  246   1.847   4.176   0.418  1.5421 -1.9627  0.0497
   48SOL    MW4  247   1.770   4.138   0.436  0.3901  0.2117 -0.1482
   49SOL     OW  248   0.689   4.345   0.792 -0.2208  0.3775  0.0641
   49SOL    HW2  249   0.667   4.433   0.822 -2.1870 -0.0730  0.0118
   49SOL    HW3  250   0.706   4.355   0.698 -1.5212  0.5348 -0.1663
   49SOL    MW4  251   0.688   4.358   0.784 -0.6518  0.3381  0.0268
   50SOL     OW  252   1.606   3.378   0.590 -0.0823  0.1521 -0.3751
   50SOL    HW2  253   1.652   3.461   0.601 -1.5724  0.9193  0.2134
   50SOL    HW3  254   1.662   3.327   0.532  0.6318  1.7414 -1.1210
   50SOL    MW4  255   1.619   3.382   0.584 -0.1847  0.4632 -0.3958
   51SOL     OW  256   3.820   3.092   0.909 -0.3353 -0.1848  0.1482
   51SOL    HW2  257   3.743   3.144   0.885 -1.2160 -1.8038 -0.6859
   51SOL    HW3  258   3.895   3.142   0.876 -1.1112  0.9357  0.0828
   51SOL    MW4  259   3.820   3.105   0.901 -0.5536 -0.2506  0.0295
   52SOL     OW  260   1.125   1.138   0.450 -0.3524 -0.3053 -0.1328
   52SOL    HW2  261   1.049   1.083   0.429  1.0974 -1.6228 -2.1185
   52SOL    HW3  262   1.199   1.077   0.448  0.9772  1.2793  0.1161
   52SOL    MW4  263   1.125   1.123   0.447  0.0142 -0.2699 -0.3619
   53SOL     OW  264   0.363   4.264   0.578 -0.0406  0.0178 -0.4178
   53SOL    HW2  265   0.302   4.190   0.578  0.2071 -0.1969 -1.4520
   53SOL    HW3  266   0.407   4.258   0.663 -0.5987 -0.5385 -0.1582
   53SOL    MW4  267   0.361   4.253   0.589 -0.0816 -0.0844 -0.5200
   54SOL     OW  268   1.912   0.401   0.501  0.0538 -0.1995 -0.2035
   54SOL    HW2  269   1.854   0.439   0.435 -1.3922  0.4430  1.3971
   54SOL    HW3  270   1.877   0.312   0.515  0.3434 -0.3268 -0.2941
   54SOL    MW4  271   1.900   0.394   0.494 -0.0987 -0.1315 -0.0043
   55SOL     OW  272   3.549   2.459   0.512  0.1144  0.3527 -0.1212
   55SOL    HW2  273   3.474   2.402   0.494  0.8863 -1.0984  1.2603
   55SOL    HW3  274   3.548   2.472   0.606  1.4395  0.5899 -0.1318
   55SOL    MW4  275   3.539   2.453   0.522  0.3910  0.1926  0.0597
   56SOL     OW  276   1.016   3.705   0.306 -0.1754  0.0143 -0.2745
   56SOL    HW2  277   1.079   3.706   0.235 -1.4118 -0.8879 -1.4237
   56SOL    HW3  278   1.049   3.639   0.367  0.6720  0.4972 -0.2044
   56SOL    MW4  279   1.028   3.697   0.305 -0.2267 -0.0408 -0.4168
   57SOL     OW  280   2.662   1.646   0.425  0.0978  0.1652  0.0040
   57SOL    HW2  281   2.665   1.660   0.519  0.9701  1.7447 -0.2301
   57SOL    HW3  282   2.575   1.610   0.408 -0.2456  0.3474  1.3409
   57SOL    MW4  283   2.651   1.643   0.435  0.1676  0.3976  0.1495
   58SOL     OW  284   0.806   2.186   0.428  0.1134 -0.2017  0.0681
   58SOL    HW2  285   0.836   2.146   0.509  0.6882 -0.0006 -0.0441
   58SOL    HW3  286   0.884   2.190   0.373 -0.1248  0.2926 -0.2352
   58SOL    MW4  287   0.820   2.181   0.431  0.1579 -0.1099  0.0133
   59SOL     OW  288   4.387   0.575   0.413  0.1573 -0.5286  0.2947
   59SOL    HW2  289   4.370   0.629   0.490 -1.2672 -0.3661 -0.1299
   59SOL    HW3  290   4.352   0.626   0.340  1.0825 -0.8914 -0.4191
   59SOL    MW4  291   4.380   0.589   0.414  0.0916 -0.5551  0.1445
   60SOL     OW  292   1.488   1.921   0.491 -0.0628 -0.1726  0.0456
   60SOL    HW2  293   1.430   1.845   0.493  1.1998 -1.1653 -0.2501
   60SOL    HW3  294   1.571   1.887   0.459  0.8267  1.1390  0.8966
   60SOL    MW4  295   1.491   1.907   0.487  0.2211 -0.1305  0.1189
   61SOL     OW  296   2.670   3.362   0.407  0.5283  0.0313 -0.2832
   61SOL    HW2  297   2.709   3.433   0.355 -0.2835 -0.3224 -1.3865
   61SOL    HW3  298   2.576   3.379   0.403  0.4583  0.1036  1.2465
   61SOL    MW4  299   2.663   3.374   0.400  0.4120 -0.0055 -0.2269
   62SOL     OW  300   4.073   2.443   0.468  0.4893 -0.2150  0.7039
   62SOL    HW2  301   3.982   2.471   0.469  0.7300  0.7456 -1.6868
   62SOL    HW3  302   4.069   2.348   0.475 -0.7197 -0.1941  0.3558
   62SOL    MW4  303   4.061   2.434   0.469  0.3614 -0.0858  0.3425
   63SOL     OW  304   0.662   4.595   0.302 -0.0336  0.2866  0.2726
   63SOL    HW2  305   0.619   4.616   0.219  0.0368 -0.8729 -0.0635
   63SOL    HW3  306   0.615   4.519   0.335  1.3113 -0.5800  0.2347
   63SOL    MW4  307   0.650   4.588   0.296  0.1531  0.0191  0.2232
   64SOL     OW  308   2.233   4.140   0.461 -0.0603 -0.5189 -0.0170
   64SOL    HW2  309   2.216   4.046   0.471 -0.2050 -0.5616 -0.6334
   64SOL    HW3  310   2.151   4.182   0.487  0.0289 -0.5588  0.3318
   64SOL    MW4  311   2.219   4.133   0.465 -0.0677 -0.5298 -0.0523
   65SOL     OW  312   2.452   2.033   0.478  0.1669  0.2330 -0.4181
   65SOL    HW2  313   2.472   2.124   0.459 -0.8261  0.3585 -0.9158
   65SOL    HW3  314   2.361   2.022   0.450  0.6616 -1.2275 -1.4908
   65SOL    MW4  315   2.443   2.043   0.472  0.1011  0.0572 -0.6253
   66SOL     OW  316   0.506   1.356   0.457  0.0999 -0.3485 -0.2938
   66SOL    HW2  317   0.575   1.341   0.521 -0.3384 -1.4738 -0.0727
   66SOL    HW3  318   0.516   1.447   0.431  0.1182  0.1957  1.5847
   66SOL    MW4  319   0.516   1.366   0.462  0.0445 -0.4252 -0.0168
   67SOL     OW  320   0.593   2.671   0.573  0.0216  0.8503  0.3534
   67SOL    HW2  321   0.638   2.755   0.575 -0.4756  1.1581 -0.8255
   67SOL    HW3  322   0.660   2.608   0.547  0.0088  1.1552 -0.4419
   67SOL    MW4  323   0.608   2.673   0.570 -0.0457  0.9310  0.0929
   68SOL     OW  324   0.635   4.104   0.367  0.7016 -0.0924 -0.4098
   68SOL    HW2  325   0.682   4.046   0.307  0.9125 -0.8380  0.4684
   68SOL    HW3  326   0.564   4.050   0.403 -0.3860  0.8038 -1.1588
   68SOL    MW4  327   0.632   4.089   0.364  0.5859 -0.0720 -0.3927
   69SOL     OW  328   1.033   2.594   0.459  0.0199  0.2838 -0.6706
   69SOL    HW2  329   1.083   2.576   0.539 -0.5614 -0.2116 -0.4122
   69SOL    HW3  330   0.948   2.554   0.475 -0.0519  0.0602 -1.6014
   69SOL    MW4  331   1.028   2.586   0.472 -0.0662  0.1888 -0.7594
   70SOL     OW  332   1.124   3.965   0.420 -0.3265 -0.3852  0.7967
   70SOL    HW2  333   1.054   4.015   0.463 -1.1371  0.1461 -1.0772
   70SOL    HW3  334   1.082   3.882   0.396 -0.5372  0.1983 -0.9315
   70SOL    MW4  335   1.109   3.961   0.422 -0.4611 -0.2382  0.3214
   71SOL     OW  336   3.778   4.175   0.511 -0.3174 -0.4207 -0.3599
   71SOL    HW2  337   3.802   4.238   0.578 -1.4201  0.1671 -0.5129
   71SOL    HW3  338   3.766   4.227   0.431 -1.8988 -0.7099 -0.3278
   71SOL    MW4  339   3.780   4.190   0.509 -0.6716 -0.3810 -0.3759
   72SOL     OW  340   3.575   3.347   0.605 -0.3306  0.1421 -0.4132
   72SOL    HW2  341   3.520   3.277   0.571 -0.7520  0.1618  0.2053
   72SOL    HW3  342   3.660   3.332   0.566 -0.7379  0.0202 -1.2637
   72SOL    MW4  343   3.579   3.336   0.596 -0.4399  0.1285 -0.4438
   73SOL     OW  344   3.835   3.256   0.530 -0.0793  0.3140  0.1931
   73SOL    HW2  345   3.857   3.182   0.474 -1.0422  1.2133 -1.4017
   73SOL    HW3  346   3.892   3.246   0.606  1.5189 -0.7142 -1.1069
   73SOL    MW4  347   3.846   3.245   0.533  0.0043  0.2971 -0.1888
   74SOL     OW  348   1.607   0.963   0.414  0.3737  0.2726 -0.2489
   74SOL    HW2  349   1.700   0.966   0.438  0.0432  0.6864  1.0509
   74SOL    HW3  350   1.595   0.877   0.374  1.0506 -0.2853  0.7353
   74SOL    MW4  351   1.618   0.952   0.412  0.4194  0.2535  0.0525
   75SOL     OW  352   0.702   2.913   0.607 -0.0679  0.0926 -0.0443
   75SOL    HW2  353   0.713   2.924   0.702 -0.3093 -0.0203 -0.0022
   75SOL    HW3  354   0.789   2.891   0.576 -0.6665 -3.5702  0.6741
   75SOL    MW4  355   0.715   2.912   0.616 -0.1788 -0.4055  0.0560
   76SOL     OW  356   3.990   0.308   0.369 -0.0728 -0.6452 -0.3082
   76SOL    HW2  357   3.900   0.307   0.402  0.0533  0.2921  0.0556
   76SOL    HW3  358   4.023   0.221   0.390 -0.8950 -0.9998 -0.4452
   76SOL    MW4  359   3.982   0.296   0.376 -0.1645 -0.5683 -0.2783
   77SOL     OW  360   0.038   1.449   0.477 -0.3016  0.4718 -0.4486
   77SOL    HW2  361  -0.010   1.429   0.557 -0.1009  0.7491 -0.2571
   77SOL    HW3  362  -0.021   1.423   0.406  0.1308 -1.2225 -0.2058
   77SOL    MW4  363   0.024   1.443   0.478 -0.2181  0.2849 -0.3913
   78SOL     OW  364   2.004   3.670   0.514 -0.1452 -0.0086 -0.0010
   78SOL    HW2  365   1.994   3.593   0.459 -0.3978 -0.2505  0.3749
   78SOL    HW3  366   2.040   3.637   0.596  1.0345  0.4683 -0.3230
   78SOL    MW4  367   2.007   3.656   0.518 -0.0229  0.0224  0.0061
   79SOL     OW  368   1.313   0.622   0.202  0.2241 -0.0981 -0.2139
   79SOL    HW2  369   1.254   0.546   0.211  1.8020 -1.0764  2.6291
   79SOL    HW3  370   1.255   0.698   0.206 -1.0645 -1.0921  0.3813
   79SOL    MW4  371   1.297   0.622   0.204  0.2623 -0.3583  0.2397
   80SOL     OW  372   1.550   0.365   0.681  0.0915  0.2573 -0.1140
   80SOL    HW2  373   1.629   0.365   0.735 -0.0924  0.6773  0.1584
   80SOL    HW3  374   1.571   0.309   0.606  0.4882  0.0024  0.1884
   80SOL    MW4  375   1.563   0.358   0.679  0.1194  0.2791 -0.0382
   81SOL     OW  376   1.754   1.831   0.421  0.0279  0.2223  0.5337
   81SOL    HW2  377   1.763   1.769   0.494 -0.8059  0.0340  0.4782
   81SOL    HW3  378   1.825   1.893   0.434  2.3432 -2.0710 -0.6875
   81SOL    MW4  379   1.765   1.831   0.433  0.2235 -0.1051  0.3653
   82SOL     OW  380   4.070   2.181   0.544 -0.3565 -0.9655  0.0839
   82SOL    HW2  381   4.018   2.101   0.532 -0.7848 -0.6804  0.0448
   82SOL    HW3  382   4.161   2.150   0.546 -0.4342 -1.3084 -1.2904
   82SOL    MW4  383   4.075   2.166   0.543 -0.4239 -0.9735 -0.1026
   83SOL     OW  384   2.354   2.365   0.192  0.1539 -0.1144  0.4630
   83SOL    HW2  385   2.303   2.444   0.171  1.6359  0.7831  0.1429
   83SOL    HW3  386   2.296   2.292   0.170 -1.2384  0.8800  0.7512
   83SOL    MW4  387   2.340   2.366   0.186  0.1662  0.1352  0.4588
   84SOL     OW  388   1.350   3.318   0.542  0.1107  0.0252 -0.1266
   84SOL    HW2  389   1.294   3.390   0.514  0.7503  1.0590  1.2187
   84SOL    HW3  390   1.437   3.357   0.550  0.5449 -0.9930  0.1871
   84SOL    MW4  391   1.354   3.333   0.540  0.2522  0.0272  0.0923
   85SOL     OW  392   2.015   4.323   0.506 -0.1676 -0.2395  0.1765
   85SOL    HW2  393   2.055   4.392   0.453  0.3732 -0.4037  0.3620
   85SOL    HW3  394   2.014   4.358   0.595 -0.8399 -0.0654  0.1053
   85SOL    MW4  395   2.020   4.337   0.510 -0.1850 -0.2384  0.1916
   86SOL     OW  396   3.831   1.821   0.476  0.0230 -0.0593  0.3301
   86SOL    HW2  397   3.766   1.752   0.482 -0.5752  0.4583 -0.0769
   86SOL    HW3  398   3.781   1.902   0.482  0.6844  0.3473  0.5237
   86SOL    MW4  399   3.816   1.823   0.478  0.0315  0.0625  0.3020
   87SOL     OW  400   0.533   0.079   0.521  0.4433  0.3973 -0.4084
   87SOL    HW2  401   0.447   0.065   0.481 -0.1864  0.9663  0.7265
   87SOL    HW3  402   0.595   0.040   0.459 -0.7226 -1.0703 -0.6739
   87SOL    MW4  403   0.530   0.072   0.507  0.2064  0.2787 -0.2937
   88SOL     OW  404   1.525   0.687   0.360 -0.1833  0.0447  0.0844
   88SOL    HW2  405   1.497   0.669   0.450 -2.5732 -0.9868 -0.8241
   88SOL    HW3  406   1.451   0.659   0.306  0.9155  1.3607 -2.1664
   88SOL    MW4  407   1.512   0.681   0.365 -0.3537  0.0823 -0.3324
   89SOL     OW  408   1.243   0.052   0.492 -0.1812  0.4619 -0.4119
   89SOL    HW2  409   1.257  -0.043   0.488 -0.1266  0.4584 -0.1380
   89SOL    HW3  410   1.148   0.063   0.481 -0.0966  0.4269 -1.2588
   89SOL    MW4  411   1.232   0.041   0.490 -0.1630  0.4569 -0.4875
   90SOL     OW  412   0.768   3.844   0.362  0.1306 -0.2181 -0.4635
   90SOL    HW2  413   0.850   3.796   0.348  0.7732  0.6319  0.3843
   90SOL    HW3  414   0.709   3.779   0.401 -0.0163 -1.1762 -2.2108
   90SOL    MW4  415   0.771   3.829   0.365  0.1960 -0.2325 -0.5822
   91SOL     OW  416   2.634   0.080   0.789 -0.5129  0.6494 -0.0190
   91SOL    HW2  417   2.639   0.172   0.814  0.7801  0.7880 -0.7300
   91SOL    HW3  418   2.714   0.041   0.824 -0.8012 -0.0775 -0.1728
   91SOL    MW4  419   2.645   0.087   0.797 -0.3803  0.5718 -0.1331
   92SOL     OW  420   1.156   3.572   0.755 -0.1780  0.6115 -0.0412
   92SOL    HW2  421   1.227   3.526   0.799  1.6300  0.8999 -2.5273
   92SOL    HW3  422   1.160   3.661   0.790 -0.8544  0.0028  1.5777
   92SOL    MW4  423   1.166   3.578   0.765 -0.0287  0.5689 -0.1557
   93SOL     OW  424   1.492   2.254   0.863  0.5294 -0.4895  0.2048
   93SOL    HW2  425   1.502   2.166   0.828 -0.1476 -0.4298 -0.1522
   93SOL    HW3  426   1.468   2.308   0.788 -1.8960 -0.5484  0.8919
   93SOL    MW4  427   1.490   2.250   0.849  0.1200 -0.4897  0.2484
   94SOL     OW  428   1.066   3.057   0.294 -0.2827  0.2140  0.3077
   94SOL    HW2  429   1.039   3.143   0.327 -0.5936  0.4774 -0.6174
   94SOL    HW3  430   1.011   3.043   0.217 -1.5866 -1.6487  1.5390
   94SOL    MW4  431   1.055   3.066   0.288 -0.4958  0.0029  0.3481
   95SOL     OW  432   2.889   4.624   0.845  0.5747 -0.1321 -0.1306
   95SOL    HW2  433   2.972   4.666   0.825  1.0699 -0.8467  0.3924
   95SOL    HW3  434   2.888   4.546   0.789  1.1409 -1.1599  1.2589
   95SOL    MW4  435   2.900   4.619   0.835  0.7148 -0.3619  0.1218
   96SOL     OW  436   3.147   0.323   0.449 -0.0237  0.0111  0.1913
   96SOL    HW2  437   3.086   0.382   0.492 -0.3779  0.1164 -0.4462
   96SOL    HW3  438   3.225   0.376   0.433  0.0452  0.0177  0.5383
   96SOL    MW4  439   3.149   0.338   0.452 -0.0615  0.0259  0.1530
   97SOL     OW  440   1.133   3.859   0.864  0.0391  0.0235 -0.1797
   97SOL    HW2  441   1.060   3.916   0.843  0.7231  1.4753  1.3313
   97SOL    HW3  442   1.124   3.839   0.957  1.0716 -0.4869 -0.1728
   97SOL    MW4  443   1.122   3.864   0.873  0.2655  0.1478  0.0204
   98SOL     OW  444   1.570   2.856   0.433  0.2391 -0.0061 -0.2935
   98SOL    HW2  445   1.500   2.922   0.434  0.0880 -0.1713  0.5190
   98SOL    HW3  446   1.599   2.850   0.524  1.3293  0.0687 -0.6345
   98SOL    MW4  447   1.564   2.864   0.445  0.3630 -0.0181 -0.2313
   99SOL     OW  448   3.109   3.985   0.503  0.1778 -0.6725 -0.0518
   99SOL    HW2  449   3.100   4.004   0.597 -0.3383 -1.6432  0.0959
   99SOL    HW3  450   3.116   3.890   0.498 -0.6242 -0.6886 -1.0564
   99SOL    MW4  451   3.109   3.975   0.515  0.0036 -0.8025 -0.1648
  100SOL     OW  452   4.098   0.062   0.456 -0.2348  0.3945 -0.1945
  100SOL    HW2  453   4.154   0.045   0.381 -1.0070  0.8024 -0.8785
  100SOL    HW3  454   4.037  -0.012   0.458  1.6053 -1.1606  1.8092
  100SOL    MW4  455   4.097   0.050   0.447 -0.0944  0.2431 -0.0204
  101SOL     OW  456   1.183   0.609   0.530 -0.2902 -0.2207  0.2830
  101SOL    HW2  457   1.270   0.623   0.568  0.1019 -0.8795 -0.3513
  101SOL    HW3  458   1.132   0.568   0.600 -0.1509  0.3292  0.7145
  101SOL    MW4  459   1.188   0.605   0.544 -0.2201 -0.2351  0.2562
  102SOL     OW  460   3.366   1.744   0.432  0.2292 -0.3683 -0.4186
  102SOL    HW2  461   3.279   1.727   0.467  0.3887  0.2305  0.2802
  102SOL    HW3  462   3.383   1.836   0.453  0.2948  0.0377 -2.1519
  102SOL    MW4  463   3.357   1.754   0.440  0.2592 -0.2357 -0.5551
  103SOL     OW  464   1.450   0.634   0.628  0.1950 -0.2059 -0.3737
  103SOL    HW2  465   1.476   0.545   0.652  0.0650 -0.4240 -1.0451
  103SOL    HW3  466   1.475   0.687   0.704  1.1135 -0.6677 -0.3540
  103SOL    MW4  467   1.456   0.629   0.641  0.2990 -0.2956 -0.4597
  104SOL     OW  468   1.160   4.320   0.262  0.0178 -0.4631 -0.2707
  104SOL    HW2  469   1.075   4.357   0.285  0.5804  0.4268  0.4196
  104SOL    HW3  470   1.153   4.227   0.285 -1.3319 -0.7478 -1.8025
  104SOL    MW4  471   1.148   4.313   0.268 -0.0859 -0.3829 -0.3817
  105SOL     OW  472   3.816   2.568   0.464 -0.0770  0.0388  0.0449
  105SOL    HW2  473   3.734   2.524   0.486  0.0538  0.3969  1.2536
  105SOL    HW3  474   3.801   2.660   0.484 -0.2208  0.5206 -2.1217
  105SOL    MW4  475   3.803   2.574   0.470 -0.0787  0.1495 -0.0815
  106SOL     OW  476   1.962   1.615   0.390  0.3005  0.3301 -0.1377
  106SOL    HW2  477   1.906   1.542   0.416  0.6443  0.3845  0.7770
  106SOL    HW3  478   1.903   1.690   0.383  0.3599  0.5688  1.5965
  106SOL    MW4  479   1.947   1.615   0.393  0.3537  0.3688  0.2118
  107SOL     OW  480   2.226   0.852   0.745 -0.1302  0.5533 -0.6266
  107SOL    HW2  481   2.198   0.858   0.654 -0.0160 -0.9745 -0.7651
  107SOL    HW3  482   2.314   0.814   0.742 -0.3612 -0.0656  0.1396
  107SOL    MW4  483   2.234   0.848   0.733 -0.1457  0.2701 -0.5438
  108SOL     OW  484   2.497   2.297   0.411  0.7149 -0.5290 -0.1742
  108SOL    HW2  485   2.459   2.307   0.324 -2.2263  1.2872  1.2710
  108SOL    HW3  486   2.572   2.357   0.411  0.6711 -0.4549 -1.3774
  108SOL    MW4  487   2.502   2.306   0.400  0.3209 -0.2799 -0.1422
  109SOL     OW  488   3.280   2.863   0.467  0.0371 -0.6244  0.2306
  109SOL    HW2  489   3.345   2.805   0.427  0.8174  0.0040  0.5866
  109SOL    HW3  490   3.317   2.951   0.459 -1.1257 -0.1599 -0.2835
  109SOL    MW4  491   3.293   2.867   0.461 -0.0134 -0.4799  0.2097
  110SOL     OW  492   2.150   2.159   0.169 -0.1832 -0.0387  0.2473
  110SOL    HW2  493   2.103   2.165   0.086  1.9877  2.2256 -0.8770
  110SOL    HW3  494   2.098   2.210   0.231 -1.6372 -1.4662  0.2419
  110SOL    MW4  495   2.137   2.166   0.166 -0.0885  0.0718  0.0982
  111SOL     OW  496   4.225   3.353   0.516  0.1829  0.4128 -0.0369
  111SOL    HW2  497   4.244   3.447   0.520 -0.0016  0.5526 -1.8973
  111SOL    HW3  498   4.164   3.338   0.589  0.2717  1.7136  0.3327
  111SOL    MW4  499   4.219   3.364   0.526  0.1702  0.6030 -0.2336
  112SOL     OW  500   2.912   2.597   0.461  0.0766 -0.4316  0.4275
  112SOL    HW2  501   2.826   2.558   0.473  0.2171 -0.5605  1.0639
  112SOL    HW3  502   2.972   2.522   0.464  0.3964 -0.1361  2.1973
  112SOL    MW4  503   2.909   2.582   0.463  0.1376 -0.4094  0.7450
  113SOL     OW  504   0.667   1.293   0.674  0.4356  0.2284 -0.2539
  113SOL    HW2  505   0.597   1.229   0.686  0.1432  0.4813 -0.6030
  113SOL    HW3  506   0.640   1.369   0.726  0.8727  0.0048  0.3117
  113SOL    MW4  507   0.654   1.294   0.682  0.4547  0.2323 -0.2254
  114SOL     OW  508   1.311   2.138   0.453  0.0506  0.4124  0.2983
  114SOL    HW2  509   1.371   2.064   0.459  0.7038  0.6609 -2.5551
  114SOL    HW3  510   1.367   2.215   0.461 -0.4171  0.6325  1.5886
  114SOL    MW4  511   1.327   2.139   0.455  0.0751  0.4742  0.0921
  115SOL     OW  512   2.146   0.455   0.373 -0.3310 -0.0235  0.0487
  115SOL    HW2  513   2.186   0.369   0.356 -1.0117 -0.2972 -0.1696
  115SOL    HW3  514   2.069   0.436   0.425  0.6943  0.6485  1.8578
  115SOL    MW4  515   2.141   0.441   0.377 -0.2856  0.0290  0.2586
  116SOL     OW  516   0.533   2.078   0.371 -0.2028 -0.0444 -0.0459
  116SOL    HW2  517   0.505   2.037   0.453  0.5992 -0.4588  0.0214
  116SOL    HW3  518   0.618   2.116   0.391 -0.4595  0.7352 -0.4096
  116SOL    MW4  519   0.540   2.077   0.384 -0.1308  0.0036 -0.0850
  117SOL     OW  520   1.509   4.270   0.463  0.1795  0.1040  0.2037
  117SOL    HW2  521   1.560   4.293   0.541  1.9588  1.1243 -1.1922
  117SOL    HW3  522   1.434   4.329   0.465 -0.8699 -1.2701  2.1918
  117SOL    MW4  523   1.506   4.281   0.473  0.2757  0.0572  0.2818
  118SOL     OW  524   0.807   1.605   0.467  0.3882 -0.5878 -0.1245
  118SOL    HW2  525   0.830   1.515   0.446 -1.4539 -1.0421 -0.2797
  118SOL    HW3  526   0.817   1.612   0.562 -2.4767 -1.9035  0.3513
  118SOL    MW4  527   0.811   1.594   0.477 -0.2329 -0.8215 -0.0823
  119SOL     OW  528   2.464   4.372   0.734 -0.3419  0.2486  0.0686
  119SOL    HW2  529   2.539   4.329   0.775  0.0265  0.7151 -0.1212
  119SOL    HW3  530   2.447   4.449   0.788 -1.3283 -0.4012  0.7086
  119SOL    MW4  531   2.471   4.376   0.746 -0.4234  0.2246  0.1280
  120SOL     OW  532   2.494   0.470   0.672 -0.2831 -0.0068 -0.2838
  120SOL    HW2  533   2.555   0.426   0.732 -0.2547  1.0078  0.4515
  120SOL    HW3  534   2.514   0.433   0.586  0.7531 -0.3499  0.0942
  120SOL    MW4  535   2.505   0.460   0.669 -0.1426  0.0818 -0.1369
  121SOL     OW  536   2.189   4.499   0.369  0.0563 -0.3373 -0.3231
  121SOL    HW2  537   2.265   4.440   0.372  0.4471  0.2142  1.1796
  121SOL    HW3  538   2.205   4.554   0.292  1.1578 -0.2789 -0.0707
  121SOL    MW4  539   2.201   4.498   0.359  0.2532 -0.2570 -0.0916
  122SOL     OW  540   1.083   4.604   0.891  0.0275 -0.1290  0.2533
  122SOL    HW2  541   1.163   4.646   0.858  0.2848 -0.5191  0.3826
  122SOL    HW3  542   1.012   4.648   0.844  0.1980  1.4054  1.3910
  122SOL    MW4  543   1.084   4.615   0.880  0.0838  0.0219  0.4205
  123SOL     OW  544   4.019   1.379   0.476  0.0304 -0.3501 -0.5191
  123SOL    HW2  545   3.925   1.371   0.494 -0.0804  3.4055  1.0792
  123SOL    HW3  546   4.061   1.329   0.547 -0.7196  0.0457  0.2088
  123SOL    MW4  547   4.012   1.371   0.488 -0.0839  0.1975 -0.2122
  124SOL     OW  548   2.323   0.008   0.159  0.2115 -0.1339  0.0772
  124SOL    HW2  549   2.308   0.010   0.064  1.0622 -0.7475 -0.0699
  124SOL    HW3  550   2.413  -0.023   0.169 -0.1281 -0.8064  1.1182
  124SOL    MW4  551   2.333   0.004   0.148  0.2789 -0.3033  0.1952
  125SOL     OW  552   2.539   0.330   0.443  0.7379  0.3096  0.1735
  125SOL    HW2  553   2.451   0.308   0.413  1.0152  0.2314 -0.5869
  125SOL    HW3  554   2.574   0.247   0.475  0.6912  0.2493  0.0716
  125SOL    MW4  555   2.532   0.316   0.443  0.7684  0.2913  0.0598
  126SOL     OW  556   2.859   1.221   0.482  0.2083 -0.1033  0.0671
  126SOL    HW2  557   2.876   1.218   0.576 -0.1719  0.2379  0.1509
  126SOL    HW3  558   2.865   1.314   0.460 -0.1710 -0.1319 -0.1584
  126SOL    MW4  559   2.862   1.233   0.491  0.1082 -0.0622  0.0485
  127SOL     OW  560   0.233   1.254   0.465  0.0267  0.4002 -0.9117
  127SOL    HW2  561   0.175   1.329   0.457 -0.1562  0.7458  2.7787
  127SOL    HW3  562   0.321   1.290   0.455 -0.1185  0.9043 -0.3795
  127SOL    MW4  563   0.237   1.269   0.463 -0.0166  0.5122 -0.3546
  128SOL     OW  564   0.764   4.322   0.524  0.5928 -0.4530  0.3485
  128SOL    HW2  565   0.701   4.273   0.471  0.2211  0.4142 -0.0169
  128SOL    HW3  566   0.810   4.378   0.460  0.4020  0.3222  0.8926
  128SOL    MW4  567   0.762   4.323   0.508  0.5186 -0.2360  0.3722
  129SOL     OW  568   3.125   2.680   0.862  0.5308  0.0198  0.0061
  129SOL    HW2  569   3.202   2.723   0.825  0.6384 -1.0095 -0.9785
  129SOL    HW3  570   3.135   2.588   0.838 -0.9203 -0.1432  0.0175
  129SOL    MW4  571   3.137   2.674   0.854  0.3533 -0.1373 -0.1222
  130SOL     OW  572   2.647   0.350   0.873  0.1132 -0.1909 -0.2379
  130SOL    HW2  573   2.734   0.378   0.843 -0.1859  0.0729 -0.8826
  130SOL    HW3  574   2.655   0.345   0.968  1.1046 -1.0794 -0.3509
  130SOL    MW4  575   2.660   0.353   0.881  0.2048 -0.2733 -0.3378
  131SOL     OW  576   2.233   2.396   0.510  0.0432 -0.1826 -0.0576
  131SOL    HW2  577   2.319   2.360   0.487  0.3786  0.5258  0.0892
  131SOL    HW3  578   2.229   2.390   0.605  0.2668  0.5455 -0.0004
  131SOL    MW4  579   2.244   2.390   0.519  0.1168  0.0069 -0.0307
  132SOL     OW  580   1.727   2.402   0.814  0.3060  0.4226 -0.1332
  132SOL    HW2  581   1.737   2.418   0.721 -1.6139  2.2844 -0.0508
  132SOL    HW3  582   1.670   2.325   0.819  1.1708 -0.2474 -0.4826
  132SOL    MW4  583   1.721   2.394   0.803  0.1668  0.5798 -0.1684
  133SOL     OW  584   1.299   1.718   0.515 -0.1228 -0.1978  0.4640
  133SOL    HW2  585   1.305   1.629   0.480  0.5023 -0.4860  1.2902
  133SOL    HW3  586   1.209   1.745   0.496  0.0418 -0.5620 -0.8561
  133SOL    MW4  587   1.288   1.710   0.508 -0.0186 -0.2838  0.3988
  134SOL     OW  588   2.009   3.426   0.349 -0.3316 -0.0634 -0.4153
  134SOL    HW2  589   2.072   3.465   0.289  0.4591 -1.4867 -0.5282
  134SOL    HW3  590   2.060   3.366   0.402 -1.6448 -1.5559 -0.7912
  134SOL    MW4  591   2.024   3.423   0.348 -0.4005 -0.4480 -0.4798
  135SOL     OW  592   2.907   2.039   0.793  0.0953 -0.3090 -0.0267
  135SOL    HW2  593   2.913   2.061   0.700 -1.5702  0.7042  0.0711
  135SOL    HW3  594   2.818   2.004   0.804  0.3195 -0.5543  1.1547
  135SOL    MW4  595   2.896   2.038   0.783 -0.0949 -0.2077  0.1421
  136SOL     OW  596   2.704   2.912   0.419  0.4209  0.6376 -0.2666
  136SOL    HW2  597   2.630   2.851   0.413  1.5213 -0.6499 -1.0778
  136SOL    HW3  598   2.772   2.863   0.465  0.7630  1.8283  0.5081
  136SOL    MW4  599   2.703   2.897   0.424  0.6115  0.6247 -0.2714
  137SOL     OW  600   1.609   0.245   0.430  0.5322 -0.0602 -0.1106
  137SOL    HW2  601   1.516   0.240   0.408  0.0441  0.3741  1.7594
  137SOL    HW3  602   1.643   0.315   0.375  0.3116 -1.7933 -2.5793
  137SOL    MW4  603   1.601   0.253   0.420  0.4387 -0.2315 -0.1896
  138SOL     OW  604   0.272   3.628   0.793  0.0353  0.4404 -0.1305
  138SOL    HW2  605   0.203   3.571   0.828  1.4618 -1.3366 -0.1757
  138SOL    HW3  606   0.268   3.706   0.848 -1.6744  0.1644  0.1846
  138SOL    MW4  607   0.262   3.631   0.805 -0.0020  0.1693 -0.0950
  139SOL     OW  608   1.993   4.416   0.807  0.2508 -0.2705  0.0775
  139SOL    HW2  609   2.073   4.370   0.833 -0.0820 -0.6804  0.3730
  139SOL    HW3  610   1.923   4.355   0.826 -0.1023 -0.0794 -0.6021
  139SOL    MW4  611   1.995   4.402   0.813  0.1603 -0.2995  0.0269
  140SOL     OW  612   2.398   3.402   0.395 -0.0186  0.1258  0.3554
  140SOL    HW2  613   2.391   3.497   0.410 -0.1564  0.2931 -0.6886
  140SOL    HW3  614   2.313   3.367   0.421  0.1162  0.2548  0.9738
  140SOL    MW4  615   2.386   3.410   0.400 -0.0191  0.1647  0.2992
  141SOL     OW  616   2.783   0.115   0.220 -0.1147  0.1690  0.0568
  141SOL    HW2  617   2.804   0.207   0.238  1.0944 -0.2906  1.0183
  141SOL    HW3  618   2.717   0.093   0.286 -0.4990  0.3721 -0.2540
  141SOL    MW4  619   2.777   0.124   0.231 -0.0055  0.1351  0.1426
  142SOL     OW  620   2.204   0.083   0.776  0.1883 -0.2878  0.4302
  142SOL    HW2  621   2.277   0.023   0.795  1.1290  0.4910 -0.6277
  142SOL    HW3  622   2.172   0.056   0.690 -0.0722  0.0334  0.4239
  142SOL    MW4  623   2.210   0.072   0.767  0.2782 -0.1427  0.2898
  143SOL     OW  624   4.373   1.049   0.299 -0.3947 -0.7397 -0.0549
  143SOL    HW2  625   4.361   0.960   0.268 -0.4606 -1.2605  1.4621
  143SOL    HW3  626   4.461   1.050   0.338 -0.0529  0.0780 -0.8146
  143SOL    MW4  627   4.383   1.038   0.300 -0.3581 -0.7006  0.0450
  144SOL     OW  628   1.396   4.027   0.490  0.0297  0.0884  0.0631
  144SOL    HW2  629   1.427   4.116   0.479  0.8722 -0.1362  0.5372
  144SOL    HW3  630   1.304   4.029   0.464  0.3072  0.8785 -0.8448
  144SOL    MW4  631   1.388   4.039   0.485  0.1775  0.1626  0.0059
  145SOL     OW  632   2.408   3.658   0.510 -0.1049  0.1182 -0.3106
  145SOL    HW2  633   2.403   3.649   0.605  0.6677  0.5628 -0.2248
  145SOL    HW3  634   2.500   3.679   0.493 -0.3766  0.6772 -1.1027
  145SOL    MW4  635   2.419   3.660   0.520 -0.0389  0.2503 -0.4038
  146SOL     OW  636   3.079   2.357   0.500 -0.0217  0.5472 -0.0658
  146SOL    HW2  637   3.095   2.380   0.592  0.2881 -0.2163  0.0733
  146SOL    HW3  638   3.004   2.298   0.503  0.9827 -0.7539 -0.1491
  146SOL    MW4  639   3.071   2.352   0.513  0.1514  0.2747 -0.0585
  147SOL     OW  640   1.780   1.443   0.496  0.1103 -0.1925  0.4589
  147SOL    HW2  641   1.697   1.397   0.487  1.2545 -2.2063 -0.1611
  147SOL    HW3  642   1.765   1.506   0.567 -1.8991 -0.5780  0.4128
  147SOL    MW4  643   1.767   1.445   0.505 -0.0039 -0.5091  0.3710
  148SOL     OW  644   0.302   0.012   0.386  0.1281  0.1648 -0.8140
  148SOL    HW2  645   0.259  -0.069   0.413  1.1192 -0.2653 -0.5036
  148SOL    HW3  646   0.230   0.074   0.372 -0.4893 -0.0276  1.4131
  148SOL    MW4  647   0.287   0.009   0.388  0.1774  0.0827 -0.4792
  149SOL     OW  648   2.792   0.924   0.497  0.0827  0.5134 -0.0174
  149SOL    HW2  649   2.807   1.015   0.471  0.3639  0.6299  0.5312
  149SOL    HW3  650   2.717   0.896   0.445  0.3018  0.9039 -0.5500
  149SOL    MW4  651   2.784   0.932   0.487  0.1485  0.5803 -0.0153
  150SOL     OW  652   2.811   3.579   0.293  0.2507  0.6820 -0.4503
  150SOL    HW2  653   2.893   3.565   0.340 -0.7297  2.6904  1.9588
  150SOL    HW3  654   2.832   3.646   0.227  0.8040  0.3990 -0.5648
  150SOL    MW4  655   2.825   3.586   0.290  0.1945  0.9098 -0.1476
  151SOL     OW  656   2.197   1.969   0.371 -0.0238 -0.3297 -0.5221
  151SOL    HW2  657   2.202   2.031   0.298 -1.0411  0.3681 -0.0096
  151SOL    HW3  658   2.118   1.994   0.419  1.3415  0.0755  1.6043
  151SOL    MW4  659   2.187   1.980   0.368  0.0219 -0.1842 -0.1740
  152SOL     OW  660   2.900   4.380   0.726 -0.1305 -0.1882 -0.2241
  152SOL    HW2  661   2.830   4.330   0.767  0.1193 -0.5138 -0.1946
  152SOL    HW3  662   2.980   4.349   0.768  0.1194 -0.4590 -0.8798
  152SOL    MW4  663   2.901   4.369   0.737 -0.0644 -0.2670 -0.3067
  153SOL     OW  664   1.865   0.987   0.492 -0.2643  0.1243  0.0834
  153SOL    HW2  665   1.910   1.071   0.495 -0.7513  0.3930 -0.0662
  153SOL    HW3  666   1.895   0.946   0.411 -0.9272  0.6678 -0.4472
  153SOL    MW4  667   1.875   0.992   0.482 -0.4160  0.2315 -0.0063
  154SOL     OW  668   3.993   3.460   0.380  0.4779 -0.2817 -0.3392
  154SOL    HW2  669   4.076   3.417   0.401  0.4633 -0.3503 -0.4255
  154SOL    HW3  670   3.926   3.392   0.393  0.3735 -0.0557  0.3273
  154SOL    MW4  671   3.995   3.445   0.384  0.4621 -0.2611 -0.2627
  155SOL     OW  672   1.302   0.343   0.838  0.0760 -0.3200  0.3584
  155SOL    HW2  673   1.322   0.386   0.921  0.7806 -0.1802  0.1213
  155SOL    HW3  674   1.379   0.359   0.783 -0.9147  0.7260 -0.7818
  155SOL    MW4  675   1.315   0.351   0.841  0.0383 -0.1635  0.1767
  156SOL     OW  676   3.524   0.095   0.482 -0.2422 -0.1564  0.3276
  156SOL    HW2  677   3.555   0.059   0.565 -0.8886 -1.9462 -0.1780
  156SOL    HW3  678   3.429   0.094   0.490 -0.2588  2.5517  0.7378
  156SOL    MW4  679   3.516   0.090   0.494 -0.3297 -0.0353  0.3150
  157SOL     OW  680   2.929   2.294   0.852 -0.7687  0.1529 -0.0452
  157SOL    HW2  681   2.912   2.207   0.816 -0.4190  0.4838 -1.0279
  157SOL    HW3  682   2.933   2.281   0.947 -0.2625 -0.9703 -0.2207
  157SOL    MW4  683   2.927   2.281   0.860 -0.6559  0.0486 -0.1980
  158SOL     OW  684   2.490   2.732   0.533 -0.2678  0.0685  0.1358
  158SOL    HW2  685   2.481   2.767   0.622 -1.3514 -0.1007  0.0893
  158SOL    HW3  686   2.401   2.724   0.500  0.1064 -0.2435 -0.8336
  158SOL    MW4  687   2.477   2.736   0.540 -0.3614  0.0050  0.0018
  159SOL     OW  688   2.133   1.115   0.214 -0.0416 -0.2201  0.0383
  159SOL    HW2  689   2.072   1.046   0.189 -0.3308  0.3904 -0.9913
  159SOL    HW3  690   2.214   1.069   0.235 -0.5289 -0.9490  0.3428
  159SOL    MW4  691   2.136   1.100   0.213 -0.1438 -0.2358 -0.0574
  160SOL     OW  692   1.831   2.937   0.373  0.1250 -0.3409  0.4258
  160SOL    HW2  693   1.816   3.031   0.387  0.7090  0.5159 -4.0800
  160SOL    HW3  694   1.743   2.899   0.376 -0.2087  0.4595  1.3103
  160SOL    MW4  695   1.817   2.945   0.375  0.1580 -0.1221 -0.0520
  161SOL     OW  696   1.184   2.514   0.690  0.1088 -0.2034  0.1516
  161SOL    HW2  697   1.138   2.459   0.753 -2.3695  0.4699 -1.0014
  161SOL    HW3  698   1.219   2.586   0.742 -0.4883 -0.5261  1.0069
  161SOL    MW4  699   1.182   2.517   0.705 -0.2970 -0.1574  0.1124
  162SOL     OW  700   3.980   3.948   0.507  0.2626  0.0494  0.4975
  162SOL    HW2  701   3.912   4.015   0.502  0.9178  0.6727 -0.2528
  162SOL    HW3  702   3.934   3.865   0.495 -0.4577  0.4196  0.7003
  162SOL    MW4  703   3.965   3.946   0.504  0.2539  0.1805  0.4252
  163SOL     OW  704   0.425   0.881   0.407 -0.2185  0.5613  0.1443
  163SOL    HW2  705   0.415   0.796   0.365  1.5114  0.5871 -0.3383
  163SOL    HW3  706   0.343   0.927   0.387 -1.0523 -0.8877  0.1938
  163SOL    MW4  707   0.412   0.876   0.398 -0.1003  0.3735  0.0871
  164SOL     OW  708   3.556   4.035   0.494 -0.1218 -0.0991 -0.0687
  164SOL    HW2  709   3.587   3.954   0.452 -2.6119 -0.7243 -0.7902
  164SOL    HW3  710   3.634   4.088   0.504  1.1585 -1.5228 -2.0274
  164SOL    MW4  711   3.570   4.031   0.490 -0.2813 -0.3695 -0.4223
  165SOL     OW  712   2.569   0.794   0.369  0.0847  0.0919  0.2069
  165SOL    HW2  713   2.608   0.735   0.304 -0.8460  0.0932 -0.3558
  165SOL    HW3  714   2.491   0.747   0.399 -0.6598  1.0307 -0.2380
  165SOL    MW4  715   2.564   0.780   0.364 -0.1364  0.2159  0.0740
  166SOL     OW  716   1.019   1.809   0.450  0.0014  0.0951 -0.1738
  166SOL    HW2  717   0.984   1.875   0.509  0.9120 -0.6912  1.2834
  166SOL    HW3  718   0.956   1.737   0.455  0.0124  0.0800 -0.2540
  166SOL    MW4  719   1.006   1.808   0.458  0.1229 -0.0106  0.0079
  167SOL     OW  720   3.391   3.130   0.570 -0.2768 -0.2177 -0.6549
  167SOL    HW2  721   3.325   3.191   0.539 -0.6270 -0.6401 -0.7350
  167SOL    HW3  722   3.373   3.119   0.663 -0.0007  0.0722 -0.5681
  167SOL    MW4  723   3.380   3.136   0.578 -0.2866 -0.2353 -0.6540
  168SOL     OW  724   1.356   3.055   0.415 -0.0604 -0.5704  0.0544
  168SOL    HW2  725   1.352   3.145   0.447  1.8286 -0.2066 -0.6410
  168SOL    HW3  726   1.277   3.044   0.362 -1.1313  0.1348  1.4978
  168SOL    MW4  727   1.345   3.065   0.412  0.0476 -0.4296  0.1531
  169SOL     OW  728   3.025   3.536   0.473 -0.1195 -0.3856  0.0396
  169SOL    HW2  729   2.973   3.572   0.546 -0.4295 -0.0139 -0.3613
  169SOL    HW3  730   3.087   3.605   0.452  2.2501 -1.8048  2.1948
  169SOL    MW4  731   3.026   3.550   0.480  0.1523 -0.5238  0.2710
  170SOL     OW  732   2.227   1.703   0.495 -0.3209 -0.3154 -0.0133
  170SOL    HW2  733   2.155   1.648   0.463 -0.6765 -0.8519  1.6589
  170SOL    HW3  734   2.229   1.777   0.435 -1.3517 -1.0064 -0.9187
  170SOL    MW4  735   2.217   1.706   0.483 -0.5035 -0.4774  0.0879
  171SOL     OW  736   0.079   3.575   0.402 -0.2564  0.0911  0.1260
  171SOL    HW2  737   0.116   3.560   0.315  0.3637 -0.5757  0.5065
  171SOL    HW3  738   0.133   3.644   0.440 -0.4106  0.2490  0.0621
  171SOL    MW4  739   0.091   3.582   0.396 -0.1949  0.0238  0.1678
  172SOL     OW  740   3.062   0.030   0.191 -0.2854  0.1305 -0.0541
  172SOL    HW2  741   2.971   0.054   0.209 -0.1444  0.5051  0.1554
  172SOL    HW3  742   3.094   0.100   0.134  0.4105  0.9479  1.3221
  172SOL    MW4  743   3.054   0.042   0.186 -0.1750  0.2878  0.1551
  173SOL     OW  744   3.145   4.562   0.398 -0.1916  0.3173 -0.4072
  173SOL    HW2  745   3.122   4.601   0.313 -0.9690 -1.6964 -1.1360
  173SOL    HW3  746   3.086   4.487   0.407  0.2063  0.2347  1.7129
  173SOL    MW4  747   3.134   4.558   0.388 -0.2418  0.0410 -0.2236
  174SOL     OW  748   1.587   4.339   0.732 -0.3407  0.2402 -0.1626
  174SOL    HW2  749   1.659   4.284   0.762 -0.1440  0.6850  0.1836
  174SOL    HW3  750   1.614   4.428   0.754 -1.2352  0.3643  0.4535
  174SOL    MW4  751   1.600   4.343   0.739 -0.4328  0.3152 -0.0356
  175SOL     OW  752   0.237   3.766   0.540 -0.0554  0.2720  0.2854
  175SOL    HW2  753   0.259   3.713   0.617 -0.0820 -0.3389 -0.1310
  175SOL    HW3  754   0.316   3.819   0.524 -0.5180  1.3701  1.5321
  175SOL    MW4  755   0.251   3.766   0.548 -0.1199  0.3362  0.3951
  176SOL     OW  756   1.716   3.648   0.576 -0.4382  0.1898  0.7953
  176SOL    HW2  757   1.679   3.736   0.573  0.1704  0.3860 -2.7176
  176SOL    HW3  758   1.810   3.659   0.563 -0.2164 -0.9102  1.3313
  176SOL    MW4  759   1.723   3.661   0.574 -0.3287  0.0706  0.4025
  177SOL     OW  760   1.947   2.027   0.499  0.6265 -0.1909 -0.0086
  177SOL    HW2  761   1.953   2.039   0.593 -0.1236 -0.0364  0.0190
  177SOL    HW3  762   1.932   2.115   0.464 -0.7904 -0.4676 -0.1283
  177SOL    MW4  763   1.946   2.040   0.506  0.3406 -0.2069 -0.0208
  178SOL     OW  764   3.745   0.745   0.458 -0.0446  0.1674  0.1536
  178SOL    HW2  765   3.688   0.684   0.409  0.4401 -0.0458 -0.1443
  178SOL    HW3  766   3.832   0.730   0.422  0.0318  1.2565 -0.1240
  178SOL    MW4  767   3.749   0.735   0.447  0.0300  0.2829  0.0777
  179SOL     OW  768   2.103   0.055   0.521 -0.2865 -0.1217  0.1273
  179SOL    HW2  769   2.118  -0.026   0.473 -0.3828 -0.2712  0.3486
  179SOL    HW3  770   2.008   0.064   0.524 -0.2648  0.4046 -0.5716
  179SOL    MW4  771   2.093   0.045   0.515 -0.2964 -0.0720  0.0644
  180SOL     OW  772   2.925   3.117   0.439 -0.1454  0.1183 -0.3489
  180SOL    HW2  773   3.011   3.158   0.430 -0.3562  0.1974 -2.2929
  180SOL    HW3  774   2.944   3.025   0.456  0.3383  0.1652 -0.6123
  180SOL    MW4  775   2.939   3.110   0.440 -0.1094  0.1349 -0.6402
  181SOL     OW  776   3.110   1.951   0.520  0.0720 -0.1132 -0.2238
  181SOL    HW2  777   3.108   1.856   0.513 -0.3175  0.0218 -2.0327
  181SOL    HW3  778   3.203   1.974   0.511 -0.2399 -0.0434 -4.1626
  181SOL    MW4  779   3.122   1.942   0.518 -0.0205 -0.0862 -0.9821
  182SOL     OW  780   3.621   1.624   0.496  0.3253  0.3781  0.5407
  182SOL    HW2  781   3.537   1.646   0.456  0.0565 -0.0187  0.8717
  182SOL    HW3  782   3.617   1.662   0.583  0.4366  0.2477  0.6038
  182SOL    MW4  783   3.609   1.632   0.502  0.3045  0.3086  0.5926
  183SOL     OW  784   2.793   0.381   0.314 -0.0265  0.1397 -0.0495
  183SOL    HW2  785   2.711   0.357   0.357 -0.9497  1.3623 -1.1071
  183SOL    HW3  786   2.846   0.420   0.383 -0.2266 -0.8510  0.6828
  183SOL    MW4  787   2.790   0.383   0.329 -0.1748  0.1703 -0.0924
  184SOL     OW  788   3.718   0.308   0.443  0.0744 -0.4629 -0.4791
  184SOL    HW2  789   3.662   0.233   0.459  0.3501 -0.8248 -1.2120
  184SOL    HW3  790   3.747   0.335   0.530 -0.4984 -0.8353 -0.1699
  184SOL    MW4  791   3.715   0.302   0.457  0.0353 -0.5598 -0.5350
  185SOL     OW  792   2.181   3.254   0.490  0.0604  0.0991 -0.5886
  185SOL    HW2  793   2.206   3.253   0.583 -0.0820 -0.5562 -0.5518
  185SOL    HW3  794   2.175   3.161   0.466  0.3080  0.2679 -1.3139
  185SOL    MW4  795   2.184   3.241   0.499  0.0744  0.0348 -0.6794
  186SOL     OW  796   3.445   3.619   0.542  0.3879 -0.5147  0.5915
  186SOL    HW2  797   3.423   3.637   0.634 -0.4643 -1.1112  0.5048
  186SOL    HW3  798   3.479   3.530   0.543  0.9803 -0.2923  0.4212
  186SOL    MW4  799   3.447   3.610   0.555  0.3536 -0.5641  0.5577
  187SOL     OW  800   2.925   2.845   0.775  0.7918 -0.3056 -0.1688
  187SOL    HW2  801   2.963   2.865   0.690  2.8848 -0.4866  0.6953
  187SOL    HW3  802   2.986   2.784   0.816  0.1332  0.2230  1.6949
  187SOL    MW4  803   2.938   2.840   0.769  0.9811 -0.2596  0.1912
  188SOL     OW  804   3.977   4.479   0.494  0.2469 -0.1476  0.0452
  188SOL    HW2  805   3.967   4.419   0.568  1.2664 -0.0428  0.2786
  188SOL    HW3  806   3.905   4.457   0.436 -0.2646 -0.5858  0.8286
  188SOL    MW4  807   3.966   4.468   0.496  0.3140 -0.1912  0.1794
  189SOL     OW  808   3.757   2.844   0.494 -0.2560 -0.5016 -0.4416
  189SOL    HW2  809   3.776   2.846   0.588 -0.1322  1.2558 -0.4852
  189SOL    HW3  810   3.818   2.907   0.456 -0.5241 -0.9723 -1.6766
  189SOL    MW4  811   3.768   2.852   0.501 -0.2749 -0.3316 -0.6104
  190SOL     OW  812   0.914   4.453   0.346  0.0362  0.2877  0.3004
  190SOL    HW2  813   0.934   4.533   0.396  0.7904  0.6675 -0.6049
  190SOL    HW3  814   0.845   4.480   0.285  0.8923  0.4692 -0.5920
  190SOL    MW4  815   0.907   4.467   0.345  0.2487  0.3619  0.0632
  191SOL     OW  816   0.873   4.053   0.532 -0.5168  0.4516  0.0932
  191SOL    HW2  817   0.835   4.141   0.526  0.3170  0.7325 -1.2638
  191SOL    HW3  818   0.816   3.999   0.477 -0.2353  0.4214 -0.1677
  191SOL    MW4  819   0.860   4.057   0.524 -0.3697  0.4845 -0.1202
  192SOL     OW  820   0.363   2.293   0.397  0.5920  0.5001 -0.3343
  192SOL    HW2  821   0.333   2.296   0.306 -0.5953 -1.1722 -0.0215
  192SOL    HW3  822   0.421   2.217   0.401  0.5263  0.4805  0.3462
  192SOL    MW4  823   0.367   2.284   0.385  0.4267  0.2766 -0.2032
  193SOL     OW  824   1.770   2.459   0.512 -0.2662 -0.2737  0.1864
  193SOL    HW2  825   1.691   2.484   0.464 -1.4872 -0.1911  2.1626
  193SOL    HW3  826   1.819   2.540   0.522 -0.4828 -0.1065 -0.1016
  193SOL    MW4  827   1.766   2.473   0.507 -0.4559 -0.2406  0.4092
  194SOL     OW  828   2.906   1.494   0.427 -0.0954 -0.4057 -0.1742
  194SOL    HW2  829   2.932   1.501   0.335  0.4535 -0.3120 -0.0163
  194SOL    HW3  830   2.841   1.563   0.439  0.9041  0.5414 -0.1296
  194SOL    MW4  831   2.901   1.504   0.416  0.1090 -0.2685 -0.1475
  195SOL     OW  832   2.927   4.367   0.454  0.4638  0.0101  0.0134
  195SOL    HW2  833   2.842   4.391   0.417  0.4723 -1.2330 -0.8286
  195SOL    HW3  834   2.911   4.356   0.547  0.0928  1.5776  0.1497
  195SOL    MW4  835   2.914   4.369   0.461  0.4160  0.0529 -0.0797
  196SOL     OW  836   3.520   2.723   0.389 -0.3676 -0.3842 -0.1079
  196SOL    HW2  837   3.532   2.631   0.414 -0.2838 -0.4858 -0.5319
  196SOL    HW3  838   3.599   2.766   0.422 -0.2647 -0.5153 -0.1823
  196SOL    MW4  839   3.532   2.716   0.397 -0.3428 -0.4148 -0.1737
  197SOL     OW  840   2.980   0.757   0.401  0.0584 -0.1031  0.0960
  197SOL    HW2  841   2.943   0.731   0.317  0.2854 -0.5160  0.1263
  197SOL    HW3  842   2.911   0.810   0.441 -0.2679 -0.3710 -0.1064
  197SOL    MW4  843   2.966   0.761   0.395  0.0451 -0.1929  0.0733
  198SOL     OW  844   2.927   4.088   0.353  0.2526  0.0350 -0.2669
  198SOL    HW2  845   2.999   4.050   0.403  0.8802  0.6659 -0.6800
  198SOL    HW3  846   2.933   4.182   0.371 -2.1088 -0.1737  1.8120
  198SOL    MW4  847   2.938   4.095   0.362  0.0241  0.0906 -0.0471
  199SOL     OW  848   0.871   0.068   0.743  0.4560  0.1441  0.0349
  199SOL    HW2  849   0.874   0.159   0.774  0.5633  0.1548 -0.0092
  199SOL    HW3  850   0.790   0.033   0.780  0.4624  0.2300  0.1288
  199SOL    MW4  851   0.861   0.076   0.752  0.4709  0.1568  0.0415
  200SOL     OW  852   0.465   3.994   0.782  0.4815 -0.2875 -0.5429
  200SOL    HW2  853   0.397   3.952   0.835  1.4102 -0.8272  0.2389
  200SOL    HW3  854   0.452   4.087   0.797  1.0581 -0.4414  1.0774
  200SOL    MW4  855   0.454   4.000   0.791  0.6801 -0.3791 -0.2260
  201SOL     OW  856   4.061   1.656   0.768 -0.1457 -0.1513  0.2608
  201SOL    HW2  857   4.087   1.655   0.676  0.8479  0.8265  0.5193
  201SOL    HW3  858   4.142   1.637   0.816 -0.5632 -0.2135  0.9390
  201SOL    MW4  859   4.075   1.654   0.762 -0.0691 -0.0306  0.3844
  202SOL     OW  860   1.552   1.270   0.474  0.2565  0.2833 -0.4772
  202SOL    HW2  861   1.557   1.280   0.569 -2.3475  0.1898 -0.2773
  202SOL    HW3  862   1.558   1.175   0.459  0.6564  0.2979 -0.4158
  202SOL    MW4  863   1.553   1.259   0.484 -0.0343  0.2730 -0.4427
  203SOL     OW  864   3.829   1.305   0.797 -0.0870  0.1040 -0.0923
  203SOL    HW2  865   3.807   1.338   0.710 -1.6380 -0.7123 -0.0310
  203SOL    HW3  866   3.758   1.245   0.819  1.3046 -1.2388  0.9144
  203SOL    MW4  867   3.817   1.301   0.788 -0.1080 -0.1810  0.0486
  204SOL     OW  868   2.946   0.493   0.520 -0.0470 -0.7180 -0.1832
  204SOL    HW2  869   2.979   0.583   0.521  1.2085 -1.1360 -1.9784
  204SOL    HW3  870   2.932   0.472   0.612  0.6244  0.9628  0.3275
  204SOL    MW4  871   2.948   0.502   0.532  0.2072 -0.5514 -0.3527
  205SOL     OW  872   0.076   1.706   0.785 -0.4272  0.1483  0.5202
  205SOL    HW2  873   0.157   1.656   0.795 -0.6215 -0.4411 -0.6371
  205SOL    HW3  874   0.067   1.717   0.690 -2.6451 -1.4083  0.5065
  205SOL    MW4  875   0.085   1.701   0.774 -0.7455 -0.1347  0.3658
  206SOL     OW  876   3.353   2.292   0.439 -0.6764  0.1352 -0.0258
  206SOL    HW2  877   3.352   2.290   0.343 -0.5889 -0.5544 -0.0178
  206SOL    HW3  878   3.262   2.309   0.464 -1.0086 -1.3205 -0.2086
  206SOL    MW4  879   3.341   2.294   0.430 -0.7091 -0.1478 -0.0488
  207SOL     OW  880   2.675   3.733   0.479 -0.0467 -0.2315 -0.0448
  207SOL    HW2  881   2.680   3.826   0.457 -2.6124 -0.0798 -0.2343
  207SOL    HW3  882   2.713   3.689   0.403 -0.8972  0.6175 -0.9947
  207SOL    MW4  883   2.681   3.739   0.466 -0.4976 -0.0994 -0.1951
  208SOL     OW  884   3.151   3.274   0.512  0.4172  0.3548 -0.2304
  208SOL    HW2  885   3.089   3.243   0.579 -0.8483  1.9321 -0.6433
  208SOL    HW3  886   3.125   3.365   0.496  2.4814  0.8597 -0.8481
  208SOL    MW4  887   3.140   3.282   0.519  0.5229  0.6294 -0.3664
  209SOL     OW  888   4.282   0.752   0.225 -0.4953 -0.5696 -0.4556
  209SOL    HW2  889   4.271   0.743   0.130 -1.6676 -1.0725 -0.2907
  209SOL    HW3  890   4.192   0.756   0.258 -0.0863  0.0369  0.5964
  209SOL    MW4  891   4.268   0.751   0.217 -0.5960 -0.5560 -0.2950
  210SOL     OW  892   3.915   3.034   0.364  0.2353 -0.0345  0.0374
  210SOL    HW2  893   3.888   3.001   0.278  1.0954  0.1945 -0.3224
  210SOL    HW3  894   3.994   2.985   0.385  0.9499  1.0557 -0.0483
  210SOL    MW4  895   3.922   3.024   0.355  0.4427  0.1397 -0.0214
  211SOL     OW  896   2.455   3.105   0.436 -0.5249  0.1941  0.3032
  211SOL    HW2  897   2.403   3.185   0.439 -0.4492  0.3128 -1.2604
  211SOL    HW3  898   2.392   3.036   0.414 -0.2524  0.1239 -0.2511
  211SOL    MW4  899   2.440   3.106   0.434 -0.4792  0.2005  0.0238
  212SOL     OW  900   2.700   4.033   0.506 -0.1884  0.1111 -0.1683
  212SOL    HW2  901   2.780   4.060   0.462 -0.3793  0.4659 -0.2962
  212SOL    HW3  902   2.634   4.098   0.481 -0.0643  0.8733  1.3840
  212SOL    MW4  903   2.701   4.045   0.497 -0.1972  0.2580  0.0197
  213SOL     OW  904   0.972   2.874   0.501  0.0888 -0.9113  0.1631
  213SOL    HW2  905   1.005   2.930   0.430 -0.3908  0.7879  1.2563
  213SOL    HW3  906   0.992   2.785   0.472 -1.2399 -0.3452 -2.7278
  213SOL    MW4  907   0.979   2.870   0.488 -0.1498 -0.6127 -0.0741
  214SOL     OW  908   0.149   1.008   0.395 -0.6775 -0.0153  0.2044
  214SOL    HW2  909   0.184   1.096   0.403 -0.3565 -0.0838 -0.4639
  214SOL    HW3  910   0.140   0.977   0.485 -0.5911  0.6181  0.4282
  214SOL    MW4  911   0.152   1.015   0.408 -0.6238  0.0592  0.1457
  215SOL     OW  912   2.140   2.971   0.409  0.4034  0.3827  0.3181
  215SOL    HW2  913   2.046   2.955   0.400  0.3613 -0.5341  2.1130
  215SOL    HW3  914   2.180   2.886   0.393  0.8931  0.6328  0.2076
  215SOL    MW4  915   2.133   2.958   0.406  0.4625  0.2949  0.5404
  216SOL     OW  916   4.276   1.846   0.427 -0.2593  0.0203 -0.3467
  216SOL    HW2  917   4.240   1.880   0.345  0.0975 -0.2576 -0.6234
  216SOL    HW3  918   4.210   1.783   0.457 -1.1533  1.3017  0.4261
  216SOL    MW4  919   4.262   1.842   0.420 -0.3300  0.1527 -0.2812
  217SOL     OW  920   2.239   4.252   0.851  0.0090  0.1178 -0.1040
  217SOL    HW2  921   2.233   4.159   0.830 -3.2001  0.3771 -0.6710
  217SOL    HW3  922   2.308   4.286   0.794  0.8309 -1.8045 -0.2785
  217SOL    MW4  923   2.247   4.244   0.841 -0.3059 -0.1016 -0.2019
  218SOL     OW  924   0.168   4.042   0.593  0.0409  0.4369 -0.1345
  218SOL    HW2  925   0.082   4.073   0.563 -0.2886  0.1480  0.4989
  218SOL    HW3  926   0.160   3.947   0.592  0.7284  0.3848 -1.1462
  218SOL    MW4  927   0.156   4.034   0.589  0.0881  0.3920 -0.1845
  219SOL     OW  928   3.649   4.204   0.832 -0.3093  0.3255 -0.2998
  219SOL    HW2  929   3.563   4.233   0.801 -0.4600  1.0621  0.7711
  219SOL    HW3  930   3.710   4.272   0.802 -0.2410  0.2898 -0.2424
  219SOL    MW4  931   3.646   4.217   0.824 -0.3204  0.4177 -0.1510
  220SOL     OW  932   3.246   0.775   0.519 -0.2764 -0.0013 -0.1705
  220SOL    HW2  933   3.171   0.780   0.460  0.6673  1.1292 -1.3296
  220SOL    HW3  934   3.309   0.838   0.482  0.9729 -0.4613  1.1319
  220SOL    MW4  935   3.245   0.784   0.506  0.0131  0.0872 -0.1515
  221SOL     OW  936   1.072   2.193   0.309  0.2825 -0.2587 -0.3162
  221SOL    HW2  937   1.083   2.122   0.246 -0.0651 -0.7721  0.1967
  221SOL    HW3  938   1.152   2.192   0.361  1.4364  1.4321 -1.9982
  221SOL    MW4  939   1.084   2.184   0.308  0.3889 -0.1035 -0.4704
  222SOL     OW  940   3.505   0.914   0.484 -0.2436 -0.3162  0.4308
  222SOL    HW2  941   3.550   0.998   0.496 -1.3543  0.4470 -0.6834
  222SOL    HW3  942   3.576   0.850   0.477  0.6491  0.7447 -0.3057
  222SOL    MW4  943   3.521   0.917   0.485 -0.2723 -0.0755  0.1866
  223SOL     OW  944   3.125   0.849   0.757 -0.0527  0.0637  0.3353
  223SOL    HW2  945   3.140   0.941   0.775 -0.5314  0.3718 -0.8098
  223SOL    HW3  946   3.151   0.837   0.666 -2.9260 -0.2126 -0.5236
  223SOL    MW4  947   3.130   0.859   0.747 -0.4950  0.0678  0.0709
  224SOL     OW  948   4.287   2.637   0.467 -0.0485  0.3473 -0.1144
  224SOL    HW2  949   4.223   2.567   0.465 -0.0957  0.3493  0.8781
  224SOL    HW3  950   4.372   2.592   0.471 -0.0788  0.3375  0.5151
  224SOL    MW4  951   4.290   2.622   0.467 -0.0587  0.3464  0.0997
  225SOL     OW  952   3.346   0.434   0.750 -0.0403  0.1016  0.1382
  225SOL    HW2  953   3.333   0.523   0.781  1.1049  0.3524 -0.0854
  225SOL    HW3  954   3.345   0.441   0.654 -1.6322 -0.3861  0.0948
  225SOL    MW4  955   3.344   0.447   0.741 -0.0992  0.0703  0.1030
  226SOL     OW  956   2.390   1.496   0.383 -0.5453 -0.0287 -0.3818
  226SOL    HW2  957   2.317   1.441   0.355 -1.3769 -0.0043  1.6258
  226SOL    HW3  958   2.348   1.575   0.418  0.5509  0.9466 -1.2382
  226SOL    MW4  959   2.375   1.499   0.384 -0.5105  0.1032 -0.2300
  227SOL     OW  960   2.508   4.238   0.500  0.0270 -0.1931 -0.2522
  227SOL    HW2  961   2.503   4.269   0.590  1.1676  0.6357 -0.4668
  227SOL    HW3  962   2.417   4.216   0.477 -0.4051  0.4880  0.7781
  227SOL    MW4  963   2.495   4.239   0.509  0.1204  0.0062 -0.1445
  228SOL     OW  964   0.543   1.638   0.413  0.5630 -0.5239 -0.2922
  228SOL    HW2  965   0.633   1.636   0.445  0.8348 -0.2012 -1.0219
  228SOL    HW3  966   0.543   1.705   0.345  0.2344 -1.8210 -1.6165
  228SOL    MW4  967   0.555   1.646   0.408  0.5555 -0.6526 -0.5632
  229SOL     OW  968   4.052   1.926   0.857  0.2438  0.0003  0.3725
  229SOL    HW2  969   4.145   1.945   0.841  0.1613  0.3104  0.2609
  229SOL    HW3  970   4.036   1.843   0.813  0.7104 -0.5359  1.1924
  229SOL    MW4  971   4.062   1.918   0.849  0.2947 -0.0296  0.4660
  230SOL     OW  972   3.373   2.037   0.799 -0.1891 -0.1647  0.2977
  230SOL    HW2  973   3.286   2.005   0.821 -0.4176 -0.0222 -0.3999
  230SOL    HW3  974   3.367   2.132   0.808  0.5387 -0.3012  2.5461
  230SOL    MW4  975   3.361   2.045   0.803 -0.1233 -0.1638  0.5023
  231SOL     OW  976   2.709   1.935   0.450  0.2002 -0.0937  0.1909
  231SOL    HW2  977   2.621   1.971   0.457  0.4832  0.2830  2.0698
  231SOL    HW3  978   2.696   1.842   0.434 -0.5329  0.3639 -1.9576
  231SOL    MW4  979   2.696   1.928   0.449  0.1404  0.0163  0.1554
  232SOL     OW  980   0.091   2.246   0.479  0.1610 -0.6977 -0.0595
  232SOL    HW2  981   0.046   2.330   0.490  1.2674 -0.1678  0.4551
  232SOL    HW3  982   0.176   2.269   0.442  1.0193 -1.4707  1.3980
  232SOL    MW4  983   0.096   2.260   0.475  0.4202 -0.7296  0.2007
  233SOL     OW  984   4.383   1.375   0.706 -0.1596 -0.1031  0.1913
  233SOL    HW2  985   4.308   1.323   0.678  0.8046 -1.2113 -0.3560
  233SOL    HW3  986   4.344   1.446   0.757 -1.4444 -1.7458  1.5591
  233SOL    MW4  987   4.368   1.378   0.709 -0.2017 -0.4660  0.2996
  234SOL     OW  988   1.921   2.695   0.512 -0.1214  0.6772 -0.2657
  234SOL    HW2  989   1.944   2.738   0.594  1.0877  0.9517 -0.7311
  234SOL    HW3  990   1.877   2.763   0.461 -1.4470  0.3286  0.3839
  234SOL    MW4  991   1.918   2.710   0.516 -0.1369  0.6673 -0.2413
  235SOL     OW  992   3.339   3.828   0.216  0.0556  0.3206  0.0045
  235SOL    HW2  993   3.324   3.922   0.220 -0.1364  0.3132 -0.4241
  235SOL    HW3  994   3.427   3.815   0.252  0.0699  0.6620  0.0879
  235SOL    MW4  995   3.349   3.838   0.221  0.0322  0.3645 -0.0411
  236SOL     OW  996   0.938   2.017   0.642  0.0584  0.2796 -0.3967
  236SOL    HW2  997   1.020   2.062   0.661 -0.2761  1.1498 -0.9661
  236SOL    HW3  998   0.902   1.996   0.728  0.7881  0.0480 -0.1395
  236SOL    MW4  999   0.944   2.021   0.656  0.1106  0.3641 -0.4379
  237SOL     OW 1000   0.036   1.721   0.514 -0.0584 -0.0639  0.3606
  237SOL    HW2 1001   0.030   1.628   0.490 -1.8433  0.0119  0.4688
  237SOL    HW3 1002  -0.049   1.757   0.490  0.1173  1.2361  1.6464
  237SOL    MW4 1003   0.024   1.713   0.508 -0.2706  0.1175  0.5445
  238SOL     OW 1004   3.816   3.576   0.735 -0.0888  0.4791  0.1086
  238SOL    HW2 1005   3.883   3.537   0.792  1.1569  0.5814 -1.2457
  238SOL    HW3 1006   3.733   3.551   0.775  0.7561  0.6277  2.0134
  238SOL    MW4 1007   3.814   3.567   0.747  0.1869  0.5121  0.1813
  239SOL     OW 1008   3.681   2.269   0.344  0.1785 -0.2797 -0.0682
  239SOL    HW2 1009   3.656   2.331   0.413  0.8793 -0.1272  0.0515
  239SOL    HW3 1010   3.707   2.325   0.270  1.4566 -0.4174  0.2665
  239SOL    MW4 1011   3.681   2.285   0.343  0.4396 -0.2778 -0.0082
  240SOL     OW 1012   1.516   2.563   0.404  0.2714  0.3812 -0.4371
  240SOL    HW2 1013   1.443   2.540   0.347  0.3013  0.8441 -0.6602
  240SOL    HW3 1014   1.516   2.658   0.407  0.9434  0.3919 -0.5432
  240SOL    MW4 1015   1.506   2.572   0.397  0.3639  0.4437 -0.4805
  241SOL     OW 1016   0.967   0.020   0.493 -0.3390 -0.0215 -0.0268
  241SOL    HW2 1017   0.956   0.107   0.455  0.6541  0.5853  1.0413
  241SOL    HW3 1018   0.903   0.016   0.564 -0.2856 -0.1072  0.0170
  241SOL    MW4 1019   0.957   0.031   0.498 -0.2009  0.0472  0.1199
  242SOL     OW 1020   3.337   4.333   0.468 -0.1204 -0.1848  0.5508
  242SOL    HW2 1021   3.258   4.382   0.446  0.6879  0.7366 -0.4112
  242SOL    HW3 1022   3.325   4.248   0.425 -0.4378  0.0771  0.1154
  242SOL    MW4 1023   3.325   4.328   0.459 -0.0556 -0.0291  0.3664
  243SOL     OW 1024   0.192   4.652   0.857  0.2628 -0.0407  0.3187
  243SOL    HW2 1025   0.175   4.565   0.821  3.3742 -0.8702  0.7753
  243SOL    HW3 1026   0.126   4.708   0.815  0.4580 -1.9530 -2.6792
  243SOL    MW4 1027   0.181   4.648   0.847  0.6991 -0.4029 -0.0165
  244SOL     OW 1028   0.002   0.123   0.690 -0.0122 -0.0658  0.3176
  244SOL    HW2 1029  -0.061   0.089   0.754 -0.2203  0.1297  0.2162
  244SOL    HW3 1030   0.002   0.217   0.703 -1.6772  0.2212 -1.4203
  244SOL    MW4 1031  -0.007   0.131   0.700 -0.2594 -0.0021  0.0749
  245SOL     OW 1032   4.446   0.427   0.817  0.2975 -0.1457 -0.1918
  245SOL    HW2 1033   4.462   0.409   0.910  1.5611 -1.6369 -0.6828
  245SOL    HW3 1034   4.527   0.468   0.786 -0.0764  0.2404 -0.6755
  245SOL    MW4 1035   4.459   0.430   0.825  0.4144 -0.2915 -0.3204
  246SOL     OW 1036   0.211   0.515   0.706  0.0789  0.2263  1.0071
  246SOL    HW2 1037   0.279   0.462   0.747 -0.7772 -1.4302  0.3362
  246SOL    HW3 1038   0.221   0.499   0.612 -1.2340 -0.0713  0.9064
  246SOL    MW4 1039   0.221   0.506   0.699 -0.2073 -0.0315  0.9053
  247SOL     OW 1040   0.251   0.774   0.815 -0.1699 -0.1471  0.1718
  247SOL    HW2 1041   0.234   0.688   0.777  3.2766 -0.8146  0.0132
  247SOL    HW3 1042   0.205   0.772   0.899 -2.4002 -1.0785 -1.0140
  247SOL    MW4 1043   0.243   0.762   0.821 -0.0095 -0.3580 -0.0057
  248SOL     OW 1044   4.010   1.103   0.849  0.5145  0.1104  0.3696
  248SOL    HW2 1045   3.935   1.162   0.843  0.6133  0.2497  0.4812
  248SOL    HW3 1046   4.032   1.102   0.942  0.0005 -0.7552  0.4843
  248SOL    MW4 1047   4.003   1.111   0.860  0.4592  0.0148  0.3995
  249SOL     OW 1048   4.395   4.435   0.276  0.4411  0.2149 -0.3313
  249SOL    HW2 1049   4.482   4.444   0.315  0.5121  0.8671 -0.6478
  249SOL    HW3 1050   4.338   4.412   0.350  0.8653 -0.1463 -0.1134
  249SOL    MW4 1051   4.399   4.433   0.291  0.5064  0.2537 -0.3443
  250SOL     OW 1052   4.485   1.126   0.831  0.3880 -0.4290  0.5831
  250SOL    HW2 1053   4.428   1.187   0.784  1.1624  0.4082  0.7168
  250SOL    HW3 1054   4.474   1.150   0.923  1.0718 -0.1619  0.5946
  250SOL    MW4 1055   4.476   1.137   0.837  0.5798 -0.2832  0.6023
  251SOL     OW 1056   0.223   1.283   0.744  0.0151 -0.1525  0.2376
  251SOL    HW2 1057   0.149   1.250   0.795  1.2860 -2.0304  0.8908
  251SOL    HW3 1058   0.207   1.252   0.655 -0.4676  0.2912  0.1613
  251SOL    MW4 1059   0.211   1.275   0.739  0.1191 -0.3418  0.3136
  252SOL     OW 1060   0.204   2.110   0.695 -0.1060 -0.2322 -0.0777
  252SOL    HW2 1061   0.164   2.145   0.615  0.7690 -1.7863 -1.2125
  252SOL    HW3 1062   0.241   2.187   0.738 -1.1885  0.7171 -0.8101
  252SOL    MW4 1063   0.203   2.125   0.690 -0.1334 -0.3119 -0.3241
  253SOL     OW 1064   0.590   1.508   0.834  0.1320  0.1443 -0.0998
  253SOL    HW2 1065   0.622   1.507   0.924  0.9055 -0.2771 -0.3642
  253SOL    HW3 1066   0.503   1.546   0.839  0.1601  0.1000  0.8301
  253SOL    MW4 1067   0.583   1.513   0.846  0.2377  0.0830 -0.0120
  254SOL     OW 1068   0.480   1.834   0.221 -0.5891 -0.2774  0.1463
  254SOL    HW2 1069   0.531   1.839   0.140 -1.8355  1.3066 -0.5732
  254SOL    HW3 1070   0.499   1.915   0.267  0.4183 -1.3457  1.6543
  254SOL    MW4 1071   0.489   1.845   0.216 -0.6206 -0.2093  0.2503
  255SOL     OW 1072   0.278   2.318   0.845 -0.0717  0.2987 -0.8576
  255SOL    HW2 1073   0.290   2.304   0.939 -0.6693  1.1235 -0.6627
  255SOL    HW3 1074   0.346   2.382   0.821 -0.8145  1.1407 -0.7206
  255SOL    MW4 1075   0.289   2.324   0.854 -0.2486  0.5188 -0.8139
  256SOL     OW 1076   4.310   2.317   0.814 -0.0278 -0.3848  0.1581
  256SOL    HW2 1077   4.294   2.224   0.798 -1.0521 -0.2839  0.5691
  256SOL    HW3 1078   4.231   2.361   0.785 -0.1479  0.2181  1.3660
  256SOL    MW4 1079   4.298   2.311   0.808 -0.1783 -0.2921  0.3716
  257SOL     OW 1080   0.024   2.734   0.845 -0.5392 -0.0717  0.0273
  257SOL    HW2 1081   0.033   2.648   0.803 -0.7687 -0.0143 -0.1491
  257SOL    HW3 1082   0.036   2.717   0.938 -3.1937 -0.7486  0.2919
  257SOL    MW4 1083   0.026   2.720   0.851 -0.9197 -0.1535  0.0389
  258SOL     OW 1084   0.244   2.855   0.750  0.6375 -0.5018  0.1303
  258SOL    HW2 1085   0.176   2.796   0.784  0.4081  0.2120  0.9260
  258SOL    HW3 1086   0.259   2.825   0.660 -1.7393  0.2105 -0.5460
  258SOL    MW4 1087   0.237   2.843   0.743  0.2936 -0.3135  0.1461
  259SOL     OW 1088   0.258   3.119   0.867 -0.1868  0.4791 -0.8838
  259SOL    HW2 1089   0.246   3.099   0.960 -1.9400  1.4567 -0.8657
  259SOL    HW3 1090   0.267   3.034   0.825 -1.4357 -0.0743 -0.0672
  259SOL    MW4 1091   0.257   3.105   0.874 -0.5829  0.5350 -0.7737
  260SOL     OW 1092   4.259   3.911   0.455 -0.1201  0.0977 -0.0315
  260SOL    HW2 1093   4.263   3.920   0.359 -0.3111 -0.8077 -0.1206
  260SOL    HW3 1094   4.169   3.935   0.477 -0.4328 -0.9027 -0.2046
  260SOL    MW4 1095   4.248   3.916   0.445 -0.1869 -0.1538 -0.0660
  261SOL     OW 1096   0.044   3.488   0.886  0.1295 -0.1442 -0.5086
  261SOL    HW2 1097  -0.036   3.532   0.855 -0.3933 -0.3052  0.6029
  261SOL    HW3 1098   0.030   3.396   0.863  0.4710 -0.0165 -1.2696
  261SOL    MW4 1099   0.031   3.481   0.879  0.1055 -0.1488 -0.4623
  262SOL     OW 1100   3.589   0.537   0.318  0.2251 -0.3743  0.2308
  262SOL    HW2 1101   3.624   0.457   0.356  1.3953 -0.0409 -0.1091
  262SOL    HW3 1102   3.552   0.511   0.234 -0.9219 -0.8414  0.8780
  262SOL    MW4 1103   3.589   0.523   0.312  0.2284 -0.3919  0.2714
  263SOL     OW 1104   3.838   3.681   0.484 -0.1402 -0.4409 -0.1446
  263SOL    HW2 1105   3.898   3.626   0.435  0.0620 -1.0587  0.7667
  263SOL    HW3 1106   3.842   3.647   0.574 -1.5339 -0.2323  0.0146
  263SOL    MW4 1107   3.846   3.669   0.490 -0.2975 -0.4947 -0.0033
  264SOL     OW 1108   0.016   4.002   0.844 -0.1218  0.0402 -0.0198
  264SOL    HW2 1109   0.011   4.042   0.757 -0.7080  2.0725  0.9097
  264SOL    HW3 1110  -0.055   3.938   0.845 -0.2287  0.1351 -0.9889
  264SOL    MW4 1111   0.006   3.999   0.832 -0.2132  0.3211 -0.0250
  265SOL     OW 1112   4.479   4.261   0.932  0.1357  0.2343 -0.2612
  265SOL    HW2 1113   4.473   4.265   1.027 -1.2291 -0.6300 -0.2920
  265SOL    HW3 1114   4.500   4.170   0.912  0.0711  0.3353 -0.8012
  265SOL    MW4 1115   4.481   4.250   0.942 -0.0525  0.1340 -0.3365
  266SOL     OW 1116   0.134   4.410   0.748  0.2641  0.2592 -0.0336
  266SOL    HW2 1117   0.082   4.358   0.809 -1.1972  0.1405 -1.3592
  266SOL    HW3 1118   0.205   4.351   0.722 -0.5840 -0.5996 -0.4373
  266SOL    MW4 1119   0.137   4.395   0.753 -0.0406  0.1302 -0.2617
  267SOL     OW 1120   0.644   4.598   0.874 -0.3169 -0.0944  0.1920
  267SOL    HW2 1121   0.624   4.608   0.967 -0.4762 -3.2451  0.5471
  267SOL    HW3 1122   0.568   4.635   0.829 -0.7219  0.4771  1.3202
  267SOL    MW4 1123   0.631   4.604   0.881 -0.3912 -0.4349  0.3877
  268SOL     OW 1124   0.443   0.087   0.775  0.2563  0.7696 -0.0299
  268SOL    HW2 1125   0.353   0.056   0.776  0.6397 -0.4351 -1.0215
  268SOL    HW3 1126   0.471   0.080   0.684  0.9987  2.2137  0.0679
  268SOL    MW4 1127   0.435   0.082   0.763  0.4048  0.8012 -0.1478
  269SOL     OW 1128   0.412   0.369   0.834 -0.5713 -0.4837 -0.4896
  269SOL    HW2 1129   0.487   0.417   0.799 -1.1807  0.3490 -0.6769
  269SOL    HW3 1130   0.427   0.279   0.807  0.9657 -0.5479  0.4845
  269SOL    MW4 1131   0.424   0.364   0.826 -0.4489 -0.3823 -0.3858
  270SOL     OW 1132   0.633   0.471   0.674 -0.1246 -0.2754  0.0239
  270SOL    HW2 1133   0.708   0.421   0.705 -0.0470  0.0785  0.4205
  270SOL    HW3 1134   0.627   0.450   0.581 -0.0426 -0.9489  0.1657
  270SOL    MW4 1135   0.642   0.462   0.666 -0.1036 -0.3175  0.0950
  271SOL     OW 1136   0.648   0.735   0.787  0.1713  0.4810  0.0665
  271SOL    HW2 1137   0.578   0.785   0.745 -0.6475 -1.0735 -0.4703
  271SOL    HW3 1138   0.636   0.646   0.755  1.1093 -0.2219  1.6083
  271SOL    MW4 1139   0.637   0.730   0.777  0.1870  0.1832  0.1990
  272SOL     OW 1140   0.441   0.918   0.686 -0.0711 -0.2724  0.2859
  272SOL    HW2 1141   0.410   0.905   0.596  0.6671  1.2384 -0.2093
  272SOL    HW3 1142   0.371   0.883   0.741 -0.3892 -1.4941 -0.8785
  272SOL    MW4 1143   0.428   0.912   0.682 -0.0157 -0.2342  0.0670
  273SOL     OW 1144   0.454   1.163   0.804 -0.3313 -0.1280 -0.1445
  273SOL    HW2 1145   0.447   1.086   0.746 -1.4899 -1.1734  1.3436
  273SOL    HW3 1146   0.373   1.212   0.788 -0.3983 -0.1341  0.1684
  273SOL    MW4 1147   0.442   1.159   0.794 -0.4930 -0.2668  0.0931
  274SOL     OW 1148   0.846   1.326   0.397 -0.1321  0.4217 -0.1809
  274SOL    HW2 1149   0.917   1.262   0.405 -0.6745 -0.0499  0.9863
  274SOL    HW3 1150   0.777   1.292   0.453 -1.2773  0.9037 -1.2647
  274SOL    MW4 1151   0.846   1.313   0.405 -0.3548  0.4231 -0.1699
  275SOL     OW 1152   0.826   1.660   0.739  0.1605  0.1396  0.0893
  275SOL    HW2 1153   0.823   1.748   0.777 -1.4465  0.2212 -0.1985
  275SOL    HW3 1154   0.761   1.610   0.788  0.3715 -0.6273 -0.3988
  275SOL    MW4 1155   0.817   1.665   0.751 -0.0237  0.0491 -0.0132
  276SOL     OW 1156   0.292   1.554   0.798 -0.0535  0.2816  0.0927
  276SOL    HW2 1157   0.330   1.598   0.723 -1.6452  0.6210 -0.5304
  276SOL    HW3 1158   0.274   1.465   0.768  1.0057 -0.1324  0.6442
  276SOL    MW4 1159   0.295   1.548   0.784 -0.1237  0.2718  0.0833
  277SOL     OW 1160   0.559   2.010   0.892  0.4309 -0.9064  0.5641
  277SOL    HW2 1161   0.512   1.992   0.810  0.8617 -2.1573  0.5885
  277SOL    HW3 1162   0.504   1.972   0.960  0.1974 -0.0831  0.8471
  277SOL    MW4 1163   0.545   2.003   0.890  0.4569 -0.9625  0.6047
  278SOL     OW 1164   0.695   3.210   0.594  0.2311  0.6413 -1.0318
  278SOL    HW2 1165   0.692   3.116   0.578 -0.5696  0.5676 -0.4589
  278SOL    HW3 1166   0.617   3.228   0.647  2.3301  1.0025  2.0559
  278SOL    MW4 1167   0.684   3.200   0.599  0.4023  0.6788 -0.5488
  279SOL     OW 1168   0.615   2.285   0.900 -0.1895 -0.0935  0.6458
  279SOL    HW2 1169   0.639   2.290   0.993 -0.5015 -2.4248  0.8688
  279SOL    HW3 1170   0.586   2.195   0.887  0.0085  0.1503 -1.7695
  279SOL    MW4 1171   0.615   2.274   0.911 -0.2045 -0.3691  0.3566
  280SOL     OW 1172   0.491   2.521   0.814  0.3308  0.0366  0.2482
  280SOL    HW2 1173   0.538   2.442   0.841 -0.7210 -0.1885  1.4787
  280SOL    HW3 1174   0.530   2.544   0.730  1.0335 -1.4717  0.1331
  280SOL    MW4 1175   0.502   2.513   0.806  0.2847 -0.1922  0.3954
  281SOL     OW 1176   0.479   2.789   0.898 -0.0405 -0.2511  0.4030
  281SOL    HW2 1177   0.495   2.696   0.880  0.3471 -0.5348  2.1436
  281SOL    HW3 1178   0.405   2.811   0.841  0.8312 -1.2157 -1.1703
  281SOL    MW4 1179   0.471   2.779   0.888  0.1257 -0.4158  0.4251
  282SOL     OW 1180   0.730   2.927   0.880  0.6130  0.2246  0.4214
  282SOL    HW2 1181   0.787   2.851   0.893  1.1416  0.8504  1.8464
  282SOL    HW3 1182   0.643   2.895   0.905  0.4319 -0.5639 -1.1916
  282SOL    MW4 1183   0.726   2.912   0.885  0.6589  0.2031  0.3966
  283SOL     OW 1184   0.958   3.222   0.734  0.7186  0.2077  0.3634
  283SOL    HW2 1185   0.967   3.298   0.792  0.1897  1.1889 -0.8103
  283SOL    HW3 1186   0.865   3.220   0.711  0.7437 -0.7541  0.3375
  283SOL    MW4 1187   0.947   3.232   0.738  0.6521  0.2105  0.2052
  284SOL     OW 1188   0.478   3.473   0.879 -0.0962  0.5125 -0.0837
  284SOL    HW2 1189   0.457   3.465   0.972 -0.0260  0.2798 -0.0858
  284SOL    HW3 1190   0.412   3.533   0.845  0.7378  1.7294  0.3992
  284SOL    MW4 1191   0.466   3.480   0.887  0.0231  0.6423 -0.0203
  285SOL     OW 1192   0.702   3.601   0.773  0.2578 -0.4218  0.1651
  285SOL    HW2 1193   0.624   3.568   0.817  0.1521  0.7793  0.8939
  285SOL    HW3 1194   0.722   3.683   0.817  1.4249 -0.2782 -0.5991
  285SOL    MW4 1195   0.694   3.607   0.785  0.3979 -0.2441  0.1605
  286SOL     OW 1196   0.017   3.218   0.786  0.5087  0.1006  0.2884
  286SOL    HW2 1197   0.016   3.237   0.692 -1.1830 -0.8971  0.0790
  286SOL    HW3 1198   0.100   3.173   0.801  0.0311 -1.3231 -1.0967
  286SOL    MW4 1199   0.027   3.214   0.776  0.2225 -0.2191  0.0781
  287SOL     OW 1200   0.252   3.884   0.918 -0.4623 -0.0571 -0.0303
  287SOL    HW2 1201   0.180   3.935   0.883 -0.8478 -0.0513  0.7615
  287SOL    HW3 1202   0.231   3.872   1.010  0.3248 -0.4385  0.1086
  287SOL    MW4 1203   0.240   3.889   0.925 -0.4093 -0.1066  0.0925
  288SOL     OW 1204   4.327   0.044   0.268  0.5042  0.1350 -0.2640
  288SOL    HW2 1205   4.292   0.055   0.179 -0.1076 -1.3073 -0.1946
  288SOL    HW3 1206   4.354  -0.047   0.272 -0.1699  0.0095  1.3082
  288SOL    MW4 1207   4.326   0.034   0.257  0.3352 -0.0719 -0.0474
  289SOL     OW 1208   0.431   4.268   0.841  0.1991 -0.2906 -0.6919
  289SOL    HW2 1209   0.423   4.275   0.936 -0.4935  1.2037 -0.8600
  289SOL    HW3 1210   0.522   4.291   0.823  0.3022 -0.4686 -0.4037
  289SOL    MW4 1211   0.442   4.272   0.851  0.1213 -0.1168 -0.6761
  290SOL     OW 1212   3.776   0.679   0.724  0.1070  0.0323  0.6593
  290SOL    HW2 1213   3.801   0.718   0.640  1.0435 -1.1357  0.3832
  290SOL    HW3 1214   3.841   0.712   0.786 -0.4622  0.7268  0.9020
  290SOL    MW4 1215   3.788   0.689   0.721  0.1554 -0.0302  0.6549
  291SOL     OW 1216   1.304   4.447   0.489  0.0292 -0.7054  0.2172
  291SOL    HW2 1217   1.262   4.415   0.409  0.4850  1.3648 -0.8853
  291SOL    HW3 1218   1.243   4.426   0.559 -1.6362 -0.1047 -1.0257
  291SOL    MW4 1219   1.291   4.440   0.488 -0.1304 -0.3529 -0.0923
  292SOL     OW 1220   4.254   4.392   0.524  0.2037 -0.1825  0.7783
  292SOL    HW2 1221   4.170   4.434   0.502  0.4122  0.4711  1.2182
  292SOL    HW3 1222   4.259   4.398   0.619  0.2607 -1.1683  0.8392
  292SOL    MW4 1223   4.243   4.398   0.533  0.2379 -0.2260  0.8443
  293SOL     OW 1224   0.836   0.334   0.798  0.3507 -0.3158  0.1838
  293SOL    HW2 1225   0.810   0.334   0.891  0.9415 -0.8464  0.3500
  293SOL    HW3 1226   0.917   0.385   0.796  0.0777  0.1046 -0.1139
  293SOL    MW4 1227   0.843   0.341   0.810  0.3926 -0.3304  0.1665
  294SOL     OW 1228   1.152   0.429   0.303  0.2334  0.3754  0.3159
  294SOL    HW2 1229   1.215   0.357   0.299 -0.4752 -0.2112 -0.7037
  294SOL    HW3 1230   1.173   0.476   0.384  0.7411 -0.9544  0.9726
  294SOL    MW4 1231   1.163   0.425   0.313  0.2069  0.1225  0.2680
  295SOL     OW 1232   1.080   0.468   0.738  0.2120  0.5863  0.2793
  295SOL    HW2 1233   1.064   0.545   0.792  0.8057  1.2341 -0.4762
  295SOL    HW3 1234   1.156   0.425   0.780  0.3650  0.8230  0.2423
  295SOL    MW4 1235   1.088   0.472   0.751  0.3104  0.7030  0.1747
  296SOL     OW 1236   0.896   0.890   0.730  0.5569  0.1249  0.5458
  296SOL    HW2 1237   0.968   0.841   0.769  0.7163  0.9892  1.3681
  296SOL    HW3 1238   0.817   0.841   0.754  0.8027 -0.3615  0.3633
  296SOL    MW4 1239   0.895   0.877   0.738  0.6104  0.1748  0.6302
  297SOL     OW 1240   0.868   1.161   0.813  0.1560  0.6967  0.2189
  297SOL    HW2 1241   0.877   1.073   0.775  1.6118  0.0632  1.9276
  297SOL    HW3 1242   0.793   1.200   0.767  0.5190 -0.8117 -1.7303
  297SOL    MW4 1243   0.859   1.154   0.802  0.3960  0.4141  0.1872
  298SOL     OW 1244   1.096   1.265   0.699  0.1966  0.2375 -0.2895
  298SOL    HW2 1245   1.020   1.218   0.731 -0.4109  1.2832 -0.1613
  298SOL    HW3 1246   1.102   1.242   0.606 -0.1332 -0.0334 -0.2430
  298SOL    MW4 1247   1.087   1.256   0.691  0.0728  0.3395 -0.2665
  299SOL     OW 1248   1.073   1.526   0.850  0.2464  0.0920 -0.0324
  299SOL    HW2 1249   1.010   1.576   0.799  0.8194  0.5244 -0.3313
  299SOL    HW3 1250   1.076   1.440   0.808 -0.1893  0.0514  0.0231
  299SOL    MW4 1251   1.065   1.521   0.837  0.2644  0.1436 -0.0646
  300SOL     OW 1252   1.306   1.419   0.455  0.4830  0.4893  0.3258
  300SOL    HW2 1253   1.245   1.365   0.405  1.0215  0.8018 -0.6791
  300SOL    HW3 1254   1.387   1.368   0.455  1.0621  1.3938 -0.8306
  300SOL    MW4 1255   1.309   1.405   0.448  0.6305  0.6499  0.0406
  301SOL     OW 1256   0.810   1.916   0.862  0.6895  0.0058  0.0073
  301SOL    HW2 1257   0.845   1.906   0.950  0.9814 -0.6638 -0.1762
  301SOL    HW3 1258   0.724   1.956   0.874  0.2475 -1.1152  0.6793
  301SOL    MW4 1259   0.804   1.920   0.875  0.6697 -0.2304  0.0718
  302SOL     OW 1260   1.991   0.846   0.273  0.1089  0.2280  0.5484
  302SOL    HW2 1261   2.061   0.844   0.338  1.3124 -1.0460 -0.7418
  302SOL    HW3 1262   1.983   0.755   0.243 -0.3325  0.8201 -1.1708
  302SOL    MW4 1263   1.999   0.834   0.278  0.2096  0.1381  0.1513
  303SOL     OW 1264   1.163   2.160   0.697  0.1238  0.5480 -0.0857
  303SOL    HW2 1265   1.216   2.169   0.619  2.0070 -2.0363  0.8362
  303SOL    HW3 1266   1.198   2.083   0.742 -3.8003 -0.7190  1.0299
  303SOL    MW4 1267   1.174   2.151   0.693 -0.1454  0.0398  0.1832
  304SOL     OW 1268   1.092   2.359   0.915 -0.7728  0.0486 -0.1989
  304SOL    HW2 1269   1.121   2.347   1.006 -0.3615  1.1047 -0.1841
  304SOL    HW3 1270   1.125   2.282   0.869  0.4095  0.2893  0.2242
  304SOL    MW4 1271   1.100   2.347   0.921 -0.5625  0.2198 -0.1411
  305SOL     OW 1272   0.892   2.712   0.888  0.0104 -0.0771  0.0004
  305SOL    HW2 1273   0.912   2.702   0.981  0.0376  0.6525  0.0797
  305SOL    HW3 1274   0.867   2.625   0.859  0.8038 -0.4780  0.5068
  305SOL    MW4 1275   0.891   2.699   0.897  0.1187 -0.0336  0.0777
  306SOL     OW 1276   1.101   2.851   0.765  0.0760  0.0007  0.1185
  306SOL    HW2 1277   1.027   2.804   0.804 -0.4523  0.6960 -0.0318
  306SOL    HW3 1278   1.074   2.867   0.675 -0.0625  1.2505  0.3766
  306SOL    MW4 1279   1.088   2.847   0.758 -0.0120  0.2575  0.1327
  307SOL     OW 1280   1.148   3.083   0.904 -0.4615 -0.1005 -0.7850
  307SOL    HW2 1281   1.084   3.136   0.855 -0.8302  0.1343 -0.0538
  307SOL    HW3 1282   1.135   2.994   0.871 -0.0733  0.1928 -1.7781
  307SOL    MW4 1283   1.138   3.079   0.893 -0.4588 -0.0310 -0.8196
  308SOL     OW 1284   0.972   3.318   0.459  0.1502 -0.0420  0.1375
  308SOL    HW2 1285   0.970   3.286   0.549 -2.3200 -0.4306 -0.0224
  308SOL    HW3 1286   0.881   3.341   0.440  0.7591  0.6639 -2.0471
  308SOL    MW4 1287   0.960   3.317   0.469 -0.0953 -0.0002 -0.1718
  309SOL     OW 1288   0.917   3.460   0.838 -0.3850 -0.4119  0.2467
  309SOL    HW2 1289   0.990   3.505   0.794  0.0505 -0.3606  1.0034
  309SOL    HW3 1290   0.839   3.506   0.808  0.0568  0.8797  1.0181
  309SOL    MW4 1291   0.916   3.472   0.828 -0.2692 -0.2346  0.4483
  310SOL     OW 1292   1.391   3.202   0.818  0.1904 -0.0420  0.1197
  310SOL    HW2 1293   1.325   3.142   0.853  0.3535  0.3039  1.0239
  310SOL    HW3 1294   1.377   3.199   0.723 -1.7862  0.8196  0.3589
  310SOL    MW4 1295   1.380   3.193   0.810 -0.0488  0.1175  0.2705
  311SOL     OW 1296   1.633   3.921   0.578 -0.1517  0.2329  0.1418
  311SOL    HW2 1297   1.544   3.944   0.551 -0.6807 -2.0360 -0.2019
  311SOL    HW3 1298   1.689   3.979   0.526 -1.4077  1.2285 -0.1333
  311SOL    MW4 1299   1.628   3.931   0.567 -0.3871  0.0651  0.0602
  312SOL     OW 1300   0.916   4.014   0.791 -0.1609 -0.1419 -0.0013
  312SOL    HW2 1301   0.915   4.014   0.695  1.2407  0.9731 -0.0338
  312SOL    HW3 1302   0.924   4.106   0.815  1.0568 -0.5376  1.1441
  312SOL    MW4 1303   0.917   4.026   0.781  0.1847 -0.0472  0.1456
  313SOL     OW 1304   0.947   4.280   0.879 -0.2510 -0.4124 -0.3679
  313SOL    HW2 1305   1.010   4.324   0.823 -0.5749  2.6683  1.5458
  313SOL    HW3 1306   0.861   4.301   0.842 -0.4134  0.6732  0.5976
  313SOL    MW4 1307   0.944   4.288   0.867 -0.3152  0.1378  0.0119
  314SOL     OW 1308   2.729   0.625   0.171  0.3662  0.0602 -0.3216
  314SOL    HW2 1309   2.710   0.615   0.078 -1.1194 -0.7000  0.0337
  314SOL    HW3 1310   2.752   0.536   0.200  0.6442  0.2575  0.0565
  314SOL    MW4 1311   2.729   0.612   0.163  0.2069 -0.0141 -0.2248
  315SOL     OW 1312   1.547   4.612   0.848 -0.3856  0.3719  0.1135
  315SOL    HW2 1313   1.538   4.599   0.942 -1.3909 -1.2601 -0.1982
  315SOL    HW3 1314   1.463   4.649   0.821  0.0087  1.1189 -0.1058
  315SOL    MW4 1315   1.535   4.615   0.857 -0.4662  0.2551  0.0434
  316SOL     OW 1316   1.132   4.395   0.710 -0.0158 -0.2286  0.1801
  316SOL    HW2 1317   1.191   4.341   0.763  2.4229  0.2406 -1.9197
  316SOL    HW3 1318   1.133   4.480   0.753  2.4585  0.3353 -0.8988
  316SOL    MW4 1319   1.140   4.399   0.722  0.6324 -0.0925 -0.2393
  317SOL     OW 1320   1.305   0.065   0.765 -0.3269 -0.2267 -0.4443
  317SOL    HW2 1321   1.297   0.159   0.780  1.6262  0.0461 -1.0007
  317SOL    HW3 1322   1.283   0.053   0.673  0.8553 -0.1015 -0.7538
  317SOL    MW4 1323   1.301   0.076   0.755  0.0868 -0.1742 -0.5586
  318SOL     OW 1324   1.349   0.235   0.325 -0.1414 -0.2624  0.2711
  318SOL    HW2 1325   1.397   0.183   0.260 -1.5067 -0.5041 -0.5723
  318SOL    HW3 1326   1.307   0.170   0.382 -1.7973 -0.1292 -0.7431
  318SOL    MW4 1327   1.349   0.219   0.324 -0.5400 -0.2767  0.0260
  319SOL     OW 1328   2.143   1.382   0.305  0.4375  0.3517  0.3193
  319SOL    HW2 1329   2.097   1.448   0.254 -0.3651  0.3209  1.0038
  319SOL    HW3 1330   2.142   1.304   0.250 -1.0173  0.1251  0.6599
  319SOL    MW4 1331   2.137   1.380   0.291  0.1397  0.3178  0.4546
  320SOL     OW 1332   1.549   0.803   0.826 -0.1132 -0.2198  0.0386
  320SOL    HW2 1333   1.472   0.857   0.806  0.1968 -0.2829 -1.3496
  320SOL    HW3 1334   1.623   0.850   0.788  0.3582 -0.8671  0.1399
  320SOL    MW4 1335   1.548   0.816   0.819 -0.0100 -0.3135 -0.1312
  321SOL     OW 1336   1.315   1.184   0.868  0.0819  0.3941  0.3808
  321SOL    HW2 1337   1.398   1.229   0.849  0.0062  0.2034 -0.4370
  321SOL    HW3 1338   1.251   1.225   0.810 -0.2776  0.1555  0.6033
  321SOL    MW4 1339   1.318   1.195   0.858  0.0246  0.3375  0.3022
  322SOL     OW 1340   1.555   1.303   0.763 -0.1955  0.0652 -0.1372
  322SOL    HW2 1341   1.551   1.394   0.793 -0.5651 -0.2111  0.6539
  322SOL    HW3 1342   1.645   1.276   0.782 -0.2391  0.0986  0.1182
  322SOL    MW4 1343   1.567   1.312   0.769 -0.2500  0.0331  0.0008
  323SOL     OW 1344   1.587   1.579   0.849  0.0236 -0.2373 -0.5026
  323SOL    HW2 1345   1.600   1.571   0.944  0.4769  0.2478 -0.5204
  323SOL    HW3 1346   1.493   1.589   0.839 -0.0711 -0.6838 -0.1352
  323SOL    MW4 1347   1.577   1.579   0.860  0.0708 -0.2321 -0.4565
  324SOL     OW 1348   1.321   1.631   0.770 -0.4254  0.2037  0.0012
  324SOL    HW2 1349   1.312   1.650   0.677  0.7169 -1.1064 -0.3839
  324SOL    HW3 1350   1.238   1.590   0.794 -0.9884  1.1686 -0.2701
  324SOL    MW4 1351   1.309   1.628   0.761 -0.3488  0.1582 -0.0854
  325SOL     OW 1352   1.281   1.907   0.816  0.0490 -0.1630 -0.5192
  325SOL    HW2 1353   1.301   1.921   0.908 -0.7522 -0.9730 -0.2098
  325SOL    HW3 1354   1.293   1.813   0.803 -1.6996 -0.3781 -0.7569
  325SOL    MW4 1355   1.285   1.896   0.826 -0.2874 -0.2984 -0.5097
  326SOL     OW 1356   0.782   2.456   0.543  0.0081  0.0830  0.3213
  326SOL    HW2 1357   0.801   2.438   0.635  1.3809  0.6214  0.1595
  326SOL    HW3 1358   0.781   2.369   0.502  0.3656 -0.0865  0.6647
  326SOL    MW4 1359   0.784   2.442   0.550  0.2364  0.1318  0.3453
  327SOL     OW 1360   1.533   2.008   0.747  0.0903  0.0901 -0.1722
  327SOL    HW2 1361   1.539   1.996   0.652 -0.2479  0.3761 -0.2296
  327SOL    HW3 1362   1.445   1.978   0.769  0.1013  0.2076  0.0287
  327SOL    MW4 1363   1.523   2.002   0.737  0.0471  0.1433 -0.1532
  328SOL     OW 1364   1.360   2.722   0.812 -0.0314 -0.1634  0.3312
  328SOL    HW2 1365   1.360   2.717   0.908 -0.2619 -1.9428  0.2684
  328SOL    HW3 1366   1.290   2.784   0.791 -0.8935 -0.7873  1.2909
  328SOL    MW4 1367   1.351   2.729   0.822 -0.1755 -0.4804  0.4495
  329SOL     OW 1368   1.972   1.253   0.503 -0.6645 -0.3070 -0.1632
  329SOL    HW2 1369   1.896   1.312   0.497 -0.9789 -0.6416  0.4940
  329SOL    HW3 1370   2.039   1.295   0.448 -0.6222  1.0631  0.9068
  329SOL    MW4 1371   1.971   1.266   0.495 -0.7005 -0.1702  0.0647
  330SOL     OW 1372   1.595   2.815   0.724  0.6463  0.0742  0.8053
  330SOL    HW2 1373   1.598   2.895   0.776 -0.6454  0.7948 -0.2050
  330SOL    HW3 1374   1.513   2.773   0.748  0.7167 -0.3066  0.3870
  330SOL    MW4 1375   1.585   2.820   0.734  0.4852  0.1192  0.6168
  331SOL     OW 1376   1.603   3.044   0.892 -0.2839 -0.4556 -0.3680
  331SOL    HW2 1377   1.616   3.050   0.986  0.5539 -1.9201 -0.3638
  331SOL    HW3 1378   1.537   3.109   0.872 -0.8671 -0.5151  1.3143
  331SOL    MW4 1379   1.596   3.053   0.902 -0.2502 -0.6564 -0.1456
  332SOL     OW 1380   2.201   2.675   0.452 -0.0099  0.0036 -0.1382
  332SOL    HW2 1381   2.107   2.690   0.457 -0.0198  0.1721 -0.8925
  332SOL    HW3 1382   2.212   2.583   0.475 -0.4115 -0.1733 -0.6549
  332SOL    MW4 1383   2.190   2.665   0.456 -0.0641  0.0029 -0.3059
  333SOL     OW 1384   1.357   3.467   0.882  0.5222 -0.1927 -0.4565
  333SOL    HW2 1385   1.436   3.501   0.840 -0.0396 -0.3236 -1.6255
  333SOL    HW3 1386   1.351   3.376   0.852 -0.6907  0.1485 -1.2952
  333SOL    MW4 1387   1.367   3.459   0.872  0.2880 -0.1652 -0.7214
  334SOL     OW 1388   1.576   3.626   0.819 -0.5725 -0.1002 -0.7260
  334SOL    HW2 1389   1.649   3.576   0.855 -0.1216  0.7176 -0.4845
  334SOL    HW3 1390   1.604   3.650   0.731  0.0551  1.4020 -0.1426
  334SOL    MW4 1391   1.589   3.623   0.812 -0.4301  0.2060 -0.6172
  335SOL     OW 1392   1.514   3.847   0.956 -0.1127 -0.2266 -0.2084
  335SOL    HW2 1393   1.453   3.894   0.900 -1.1535 -0.7581  0.4586
  335SOL    HW3 1394   1.539   3.770   0.905  1.3152  0.8368 -1.1562
  335SOL    MW4 1395   1.509   3.843   0.942 -0.0616 -0.1562 -0.2455
  336SOL     OW 1396   0.056   2.531   0.505 -0.1878  0.4313  0.1127
  336SOL    HW2 1397   0.063   2.516   0.599  0.5247 -1.4648 -0.2144
  336SOL    HW3 1398   0.145   2.554   0.478  0.0686 -1.1590 -0.4286
  336SOL    MW4 1399   0.069   2.532   0.514 -0.0600 -0.0286 -0.0018
  337SOL     OW 1400   1.316   4.242   0.857 -0.0833  0.1725 -0.3321
  337SOL    HW2 1401   1.345   4.156   0.827  0.1596 -0.1496  0.7795
  337SOL    HW3 1402   1.389   4.301   0.839  0.4524 -0.2180  0.5276
  337SOL    MW4 1403   1.329   4.239   0.851  0.0194  0.0787 -0.0720
  338SOL     OW 1404   2.868   3.846   0.166  0.6752 -0.0610  0.1112
  338SOL    HW2 1405   2.880   3.931   0.209  2.9830 -0.2919 -0.0137
  338SOL    HW3 1406   2.885   3.864   0.073 -0.5426 -0.3373 -0.1771
  338SOL    MW4 1407   2.872   3.860   0.159  0.8192 -0.1278  0.0567
  339SOL     OW 1408   1.979   0.002   0.914 -0.1541  0.0416 -0.3500
  339SOL    HW2 1409   2.057   0.040   0.873 -0.2637  0.9003  0.2135
  339SOL    HW3 1410   1.975  -0.087   0.881  0.8281  0.1318 -0.7221
  339SOL    MW4 1411   1.989  -0.004   0.904 -0.0390  0.1674 -0.3248
  340SOL     OW 1412   1.772   0.106   0.790  0.1311  0.1581  0.3948
  340SOL    HW2 1413   1.845   0.072   0.843 -0.8619 -1.9723  0.4494
  340SOL    HW3 1414   1.696   0.056   0.820 -1.1126  1.4211 -0.6002
  340SOL    MW4 1415   1.772   0.095   0.801 -0.1639  0.0436  0.2707
  341SOL     OW 1416   1.760   0.358   0.863 -0.4896  0.0306  0.4540
  341SOL    HW2 1417   1.774   0.266   0.842 -0.2274 -0.2369  1.7589
  341SOL    HW3 1418   1.844   0.400   0.842 -0.5865 -0.0426 -0.0767
  341SOL    MW4 1419   1.773   0.351   0.858 -0.4679 -0.0143  0.5561
  342SOL     OW 1420   1.982   0.482   0.767 -0.0989 -0.2863  0.1136
  342SOL    HW2 1421   2.068   0.444   0.782  0.8102  1.6265 -0.1390
  342SOL    HW3 1422   1.966   0.471   0.673 -0.2282 -0.8126  0.1946
  342SOL    MW4 1423   1.991   0.475   0.756  0.0041 -0.1034  0.0910
  343SOL     OW 1424   1.984   0.757   0.831  0.4172  0.2106  0.7697
  343SOL    HW2 1425   2.071   0.783   0.799  0.2700  0.2086  0.3766
  343SOL    HW3 1426   1.977   0.664   0.808  0.2069  0.2741  0.5833
  343SOL    MW4 1427   1.995   0.748   0.824  0.3700  0.2187  0.6933
  344SOL     OW 1428   1.790   0.930   0.743 -0.1306  0.1160  0.2335
  344SOL    HW2 1429   1.816   0.948   0.653 -0.2415  0.7298  0.3210
  344SOL    HW3 1430   1.853   0.864   0.773 -0.4699 -0.5387 -0.4841
  344SOL    MW4 1431   1.802   0.924   0.735 -0.1899  0.1106  0.1504
  345SOL     OW 1432   1.802   1.193   0.856 -0.3794 -0.2904 -0.2107
  345SOL    HW2 1433   1.879   1.244   0.830 -1.2511  0.3839 -1.5590
  345SOL    HW3 1434   1.813   1.109   0.812 -0.7431  0.0564 -0.9824
  345SOL    MW4 1435   1.814   1.189   0.847 -0.5425 -0.1557 -0.4904
  346SOL     OW 1436   2.020   1.317   0.771 -0.1287  0.0456 -0.1853
  346SOL    HW2 1437   2.091   1.261   0.801 -1.0966 -0.3636  1.3896
  346SOL    HW3 1438   2.013   1.299   0.678  0.8165 -1.0273 -0.0621
  346SOL    MW4 1439   2.029   1.307   0.763 -0.1316 -0.1501  0.0387
  347SOL     OW 1440   2.014   1.589   0.848  0.0298  0.1460  0.3623
  347SOL    HW2 1441   2.104   1.617   0.828 -0.2339  0.6202 -0.1982
  347SOL    HW3 1442   2.009   1.501   0.813  0.5100 -0.1683  1.0797
  347SOL    MW4 1443   2.025   1.581   0.840  0.0582  0.1671  0.3830
  348SOL     OW 1444   1.797   1.659   0.679  0.1695 -0.6265  0.0281
  348SOL    HW2 1445   1.876   1.640   0.731  0.0829 -0.4367  0.2297
  348SOL    HW3 1446   1.724   1.637   0.737  0.0723 -0.6693 -0.1101
  348SOL    MW4 1447   1.798   1.654   0.694  0.1454 -0.6071  0.0364
  349SOL     OW 1448   1.773   1.888   0.850 -0.1184 -0.3685  0.7660
  349SOL    HW2 1449   1.777   1.811   0.793 -0.2393  0.9813 -1.1209
  349SOL    HW3 1450   1.686   1.925   0.836  0.1581  0.4615  1.1811
  349SOL    MW4 1451   1.762   1.883   0.841 -0.0978 -0.0809  0.5718
  350SOL     OW 1452   1.977   2.057   0.757 -0.4786  0.0392  0.3027
  350SOL    HW2 1453   1.967   2.141   0.802  0.7328  0.2926  0.1002
  350SOL    HW3 1454   1.911   2.000   0.799 -1.5921  1.1941  0.1434
  350SOL    MW4 1455   1.967   2.060   0.769 -0.4659  0.2251  0.2550
  351SOL     OW 1456   1.965   2.295   0.887  0.2125  0.0651 -0.0900
  351SOL    HW2 1457   1.987   2.297   0.981  0.3198 -0.7918 -0.0912
  351SOL    HW3 1458   1.876   2.331   0.882  0.2117  0.1254  0.3388
  351SOL    MW4 1459   1.956   2.300   0.899  0.2265 -0.0398 -0.0336
  352SOL     OW 1460   1.423   2.377   0.623  0.2775 -0.4057 -1.0343
  352SOL    HW2 1461   1.347   2.424   0.656  1.2523 -0.6484  1.6862
  352SOL    HW3 1462   1.472   2.443   0.573  0.0856  0.6903  0.1884
  352SOL    MW4 1463   1.420   2.392   0.621  0.3809 -0.2930 -0.5141
  353SOL     OW 1464   1.765   2.665   0.893  0.8847  0.1507 -0.1311
  353SOL    HW2 1465   1.752   2.573   0.871  0.4684  0.2139 -0.1360
  353SOL    HW3 1466   1.708   2.713   0.834 -0.4350  0.3059  1.2504
  353SOL    MW4 1467   1.756   2.659   0.883  0.6557  0.1795  0.0505
  354SOL     OW 1468   2.018   2.823   0.787 -0.2203  0.3395  0.8146
  354SOL    HW2 1469   1.961   2.765   0.837 -0.1252  0.1664  0.7215
  354SOL    HW3 1470   2.106   2.785   0.797 -0.2798 -0.0147  0.0556
  354SOL    MW4 1471   2.022   2.810   0.795 -0.2153  0.2701  0.7022
  355SOL     OW 1472   2.009   3.097   0.845  0.0981 -0.0830 -0.4708
  355SOL    HW2 1473   1.995   3.012   0.804  0.7697 -0.0973 -0.6661
  355SOL    HW3 1474   1.939   3.153   0.810 -1.0477 -0.8545  0.5257
  355SOL    MW4 1475   1.998   3.093   0.835  0.0355 -0.1867 -0.3651
  356SOL     OW 1476   1.757   3.233   0.786  0.0762  0.3835 -0.7020
  356SOL    HW2 1477   1.707   3.157   0.813 -0.6957  0.7280 -1.1527
  356SOL    HW3 1478   1.700   3.280   0.725  0.6796  1.1274 -0.7123
  356SOL    MW4 1479   1.743   3.229   0.782  0.0540  0.5271 -0.7628
  357SOL     OW 1480   1.797   3.488   0.898  0.4276  0.1421  0.0935
  357SOL    HW2 1481   1.812   3.501   0.991  0.6799 -0.3865  0.1270
  357SOL    HW3 1482   1.784   3.394   0.888 -2.6402  0.5128  0.0117
  357SOL    MW4 1483   1.797   3.478   0.909  0.0561  0.1214  0.0871
  358SOL     OW 1484   2.011   3.604   0.787  0.0869  0.0553 -0.2459
  358SOL    HW2 1485   2.005   3.693   0.821 -0.6337  0.2189 -0.8002
  358SOL    HW3 1486   1.932   3.561   0.819 -0.8560  0.3580 -2.1625
  358SOL    MW4 1487   2.000   3.610   0.796 -0.1323  0.1163 -0.5719
  359SOL     OW 1488   1.984   3.864   0.894  0.4646  0.5780  0.0862
  359SOL    HW2 1489   2.006   3.876   0.986 -1.5765  0.3160  0.6487
  359SOL    HW3 1490   1.895   3.898   0.887 -0.0539 -1.0423 -1.3987
  359SOL    MW4 1491   1.975   3.870   0.905  0.1268  0.3295 -0.0356
  360SOL     OW 1492   1.738   3.969   0.850  0.3337 -0.0597 -0.0873
  360SOL    HW2 1493   1.676   3.955   0.921 -0.2406 -1.2312 -0.7955
  360SOL    HW3 1494   1.688   3.950   0.770  0.4445  2.9798 -0.9477
  360SOL    MW4 1495   1.724   3.964   0.849  0.2725  0.1869 -0.2942
  361SOL     OW 1496   1.793   4.232   0.860  0.0610 -0.0292  0.2773
  361SOL    HW2 1497   1.781   4.235   0.955 -1.2821 -1.2189  0.1680
  361SOL    HW3 1498   1.766   4.144   0.835  0.5492  0.2188 -1.1969
  361SOL    MW4 1499   1.788   4.221   0.869 -0.0519 -0.1535  0.0684
  362SOL     OW 1500   0.621   0.351   0.421  0.1855 -0.1106 -0.6478
  362SOL    HW2 1501   0.593   0.265   0.455  1.3634 -0.0186  0.5892
  362SOL    HW3 1502   0.709   0.335   0.387  0.6751  0.7441  0.1971
  362SOL    MW4 1503   0.629   0.337   0.421  0.4055  0.0143 -0.3732
  363SOL     OW 1504   2.419   4.595   0.884  0.0260 -0.4638 -0.5675
  363SOL    HW2 1505   2.417   4.608   0.979 -0.7959 -0.0075 -0.6426
  363SOL    HW3 1506   2.491   4.650   0.854 -1.5439  1.6929 -0.5259
  363SOL    MW4 1507   2.428   4.604   0.892 -0.2897 -0.1192 -0.5718
  364SOL     OW 1508   1.966   0.570   0.198 -0.4035 -0.0957 -0.1109
  364SOL    HW2 1509   2.039   0.527   0.243  0.9407  0.7772 -1.4337
  364SOL    HW3 1510   1.965   0.531   0.111 -1.8683 -0.4667  0.0433
  364SOL    MW4 1511   1.975   0.559   0.193 -0.4194 -0.0295 -0.2651
  365SOL     OW 1512   2.234   0.383   0.819 -0.1491 -0.0020  0.0056
  365SOL    HW2 1513   2.317   0.418   0.787  0.5286  0.1394  1.8644
  365SOL    HW3 1514   2.240   0.289   0.807  0.2063  0.0269 -0.0312
  365SOL    MW4 1515   2.246   0.375   0.814 -0.0126  0.0205  0.2460
  366SOL     OW 1516   1.702   0.470   0.317  0.3753  0.2159  0.0594
  366SOL    HW2 1517   1.759   0.510   0.251  0.5825 -0.1901 -0.0075
  366SOL    HW3 1518   1.653   0.543   0.354  0.4570  0.4789 -0.3557
  366SOL    MW4 1519   1.703   0.485   0.313  0.4134  0.1970 -0.0042
  367SOL     OW 1520   2.547   1.246   0.451 -0.3346  0.2353 -0.0961
  367SOL    HW2 1521   2.641   1.258   0.441 -0.4052  0.3394 -0.6710
  367SOL    HW3 1522   2.509   1.332   0.432 -0.5274  0.2615  0.4029
  367SOL    MW4 1523   2.554   1.259   0.447 -0.3695  0.2525 -0.1061
  368SOL     OW 1524   0.373   0.612   0.295 -0.0194 -0.2079 -0.3372
  368SOL    HW2 1525   0.450   0.556   0.287  0.6380  0.7674 -0.8606
  368SOL    HW3 1526   0.301   0.551   0.309  1.1152 -0.9993  2.2017
  368SOL    MW4 1527   0.373   0.596   0.296  0.2171 -0.1836 -0.0713
  369SOL     OW 1528   2.219   1.128   0.819  0.4040  0.7278 -0.2034
  369SOL    HW2 1529   2.235   1.124   0.913  0.9754  0.3854 -0.3152
  369SOL    HW3 1530   2.232   1.038   0.789  0.8330  0.9598 -0.7102
  369SOL    MW4 1531   2.223   1.116   0.827  0.5360  0.7133 -0.2850
  370SOL     OW 1532   2.472   1.256   0.732 -0.1430 -0.2681 -0.2472
  370SOL    HW2 1533   2.385   1.225   0.754  0.1402 -1.1767 -0.3942
  370SOL    HW3 1534   2.477   1.248   0.637  1.1406 -3.0031  0.0237
  370SOL    MW4 1535   2.461   1.251   0.723  0.0637 -0.7486 -0.2308
  371SOL     OW 1536   2.485   1.519   0.805  0.0852 -0.1450  0.3586
  371SOL    HW2 1537   2.496   1.429   0.774 -0.3649 -0.2382  0.4707
  371SOL    HW3 1538   2.564   1.564   0.775  0.5177 -0.6827  0.6848
  371SOL    MW4 1539   2.497   1.513   0.797  0.0827 -0.2282  0.4164
  372SOL     OW 1540   2.261   1.677   0.760 -0.3948 -0.1394 -0.1225
  372SOL    HW2 1541   2.343   1.631   0.776 -1.3836 -1.9544 -0.1349
  372SOL    HW3 1542   2.254   1.681   0.664 -0.9868 -1.2470 -0.1364
  372SOL    MW4 1543   2.271   1.671   0.749 -0.6032 -0.5250 -0.1260
  373SOL     OW 1544   2.232   1.948   0.844 -0.1809  0.1519  0.1303
  373SOL    HW2 1545   2.217   1.856   0.823  0.6618  0.4912 -2.0359
  373SOL    HW3 1546   2.150   1.992   0.819  0.6661  0.4900 -2.1507
  373SOL    MW4 1547   2.219   1.942   0.838  0.0422  0.2413 -0.4565
  374SOL     OW 1548   2.471   2.041   0.760 -0.5124  0.0969 -0.0240
  374SOL    HW2 1549   2.472   2.042   0.665 -0.0246  0.3551 -0.0190
  374SOL    HW3 1550   2.383   2.011   0.783 -0.0795 -1.6506 -0.5566
  374SOL    MW4 1551   2.460   2.037   0.751 -0.3910 -0.0994 -0.0936
  375SOL     OW 1552   2.447   2.291   0.882 -0.1103 -0.3677  0.0457
  375SOL    HW2 1553   2.455   2.203   0.845  0.8359  0.0746 -0.8297
  375SOL    HW3 1554   2.524   2.338   0.849 -1.2871  1.1725 -0.5826
  375SOL    MW4 1555   2.458   2.286   0.873 -0.1409 -0.1059 -0.1527
  376SOL     OW 1556   2.217   2.451   0.789 -0.1821  0.1927 -0.4308
  376SOL    HW2 1557   2.291   2.407   0.829  0.4564  2.1317  0.5882
  376SOL    HW3 1558   2.140   2.418   0.836  0.1090 -1.0734 -0.8226
  376SOL    MW4 1559   2.217   2.441   0.800 -0.0596  0.2816 -0.3480
  377SOL     OW 1560   2.262   2.723   0.850  0.0891  0.2338  0.3272
  377SOL    HW2 1561   2.258   2.712   0.945 -0.5792 -0.6585  0.2070
  377SOL    HW3 1562   2.242   2.636   0.815 -0.4527  0.7306 -0.6285
  377SOL    MW4 1563   2.259   2.710   0.858 -0.0706  0.1814  0.1853
  378SOL     OW 1564   2.492   2.843   0.803 -0.0368 -0.0547  0.2428
  378SOL    HW2 1565   2.559   2.795   0.851  0.4526  0.4293  0.0396
  378SOL    HW3 1566   2.411   2.795   0.821  0.6591 -1.7918 -1.0861
  378SOL    MW4 1567   2.490   2.830   0.811  0.1197 -0.2198  0.0407
  379SOL     OW 1568   2.479   3.107   0.884 -0.5144 -0.1553 -0.3847
  379SOL    HW2 1569   2.495   3.105   0.978  0.0976 -0.5813 -0.4941
  379SOL    HW3 1570   2.484   3.016   0.856 -1.6522 -0.1341 -0.6776
  379SOL    MW4 1571   2.482   3.095   0.892 -0.5836 -0.2086 -0.4378
  380SOL     OW 1572   2.239   3.225   0.755 -0.0733 -0.4440  0.3504
  380SOL    HW2 1573   2.160   3.180   0.784 -0.0506  0.6704  2.2497
  380SOL    HW3 1574   2.310   3.182   0.804  0.2557 -0.1291  0.1569
  380SOL    MW4 1575   2.238   3.213   0.766 -0.0269 -0.2556  0.5754
  381SOL     OW 1576   2.224   3.470   0.900 -0.2958  0.7205 -0.2565
  381SOL    HW2 1577   2.231   3.383   0.861 -1.7408  0.8938 -0.9393
  381SOL    HW3 1578   2.137   3.501   0.873 -0.4874  1.6778  1.4155
  381SOL    MW4 1579   2.213   3.463   0.891 -0.5116  0.8698 -0.1260
  382SOL     OW 1580   2.427   3.613   0.781  0.0497  0.5154  0.0660
  382SOL    HW2 1581   2.506   3.564   0.803 -0.7172 -0.4158  0.8010
  382SOL    HW3 1582   2.358   3.572   0.833 -1.2024  0.3712 -1.6635
  382SOL    MW4 1583   2.428   3.601   0.791 -0.2167  0.3734 -0.0653
  383SOL     OW 1584   2.431   3.884   0.878 -0.0830 -0.0899 -0.0270
  383SOL    HW2 1585   2.452   3.802   0.834  3.6439  1.7705 -1.9391
  383SOL    HW3 1586   2.344   3.907   0.846 -0.4194 -2.3739 -0.8334
  383SOL    MW4 1587   2.422   3.876   0.868  0.3645 -0.1457 -0.3857
  384SOL     OW 1588   2.285   0.207   0.357  0.0467  0.1181 -0.0674
  384SOL    HW2 1589   2.227   0.157   0.414 -0.6394  0.0386 -0.8301
  384SOL    HW3 1590   2.304   0.148   0.284  1.4403 -0.0164  0.3864
  384SOL    MW4 1591   2.280   0.193   0.355  0.1400  0.0899 -0.1082
  385SOL     OW 1592   2.197   3.985   0.781  0.4512  0.0593 -0.0402
  385SOL    HW2 1593   2.126   3.939   0.824  1.9497 -1.7078  0.6341
  385SOL    HW3 1594   2.192   3.957   0.690 -0.1965  0.5825 -0.1710
  385SOL    MW4 1595   2.187   3.975   0.775  0.5631 -0.1049  0.0315
  386SOL     OW 1596   1.365   3.977   0.780 -0.0453  0.0958  0.1770
  386SOL    HW2 1597   1.279   3.943   0.805 -0.2489 -0.1981 -0.8798
  386SOL    HW3 1598   1.362   3.981   0.684  1.1452  0.0062  0.1299
  386SOL    MW4 1599   1.353   3.973   0.771  0.0850  0.0453  0.0314
  387SOL     OW 1600   3.167   0.057   0.808 -0.1141 -0.1353  0.7664
  387SOL    HW2 1601   3.203   0.064   0.720 -1.3669 -0.8545  0.1803
  387SOL    HW3 1602   3.145   0.147   0.831 -2.8873 -0.2842 -1.0251
  387SOL    MW4 1603   3.169   0.070   0.799 -0.6452 -0.2499  0.4527
  388SOL     OW 1604   1.150   3.521   0.488  0.0770  0.3871  0.0998
  388SOL    HW2 1605   1.087   3.450   0.493  1.5087 -0.8938  0.2347
  388SOL    HW3 1606   1.163   3.549   0.579 -1.4594  1.7135 -0.0695
  388SOL    MW4 1607   1.144   3.515   0.501  0.0629  0.3929  0.0952
  389SOL     OW 1608   2.472   0.724   0.783 -0.5213  0.1777  0.8243
  389SOL    HW2 1609   2.496   0.641   0.742 -2.1080 -0.5187  1.2740
  389SOL    HW3 1610   2.539   0.786   0.753 -0.1784 -0.9124 -0.7145
  389SOL    MW4 1611   2.484   0.721   0.774 -0.6852 -0.0580  0.6807
  390SOL     OW 1612   2.354   0.628   0.471  0.2408  0.4809 -0.1986
  390SOL    HW2 1613   2.400   0.575   0.537  0.6241 -0.1525 -0.9615
  390SOL    HW3 1614   2.294   0.566   0.429  0.4417  0.7318 -0.8604
  390SOL    MW4 1615   2.352   0.613   0.474  0.3178  0.4305 -0.3866
  391SOL     OW 1616   2.909   0.723   0.846 -0.1557 -0.4802  0.5075
  391SOL    HW2 1617   2.922   0.716   0.941 -0.3148 -0.0370  0.5639
  391SOL    HW3 1618   2.984   0.776   0.816 -0.7758  0.4479  0.5659
  391SOL    MW4 1619   2.921   0.729   0.855 -0.2587 -0.2993  0.5226
  392SOL     OW 1620   2.696   0.892   0.736  0.2966  0.4028  0.4463
  392SOL    HW2 1621   2.738   0.914   0.654 -1.0031  1.0492 -0.0553
  392SOL    HW3 1622   2.757   0.832   0.779  1.1284  0.3238 -0.8328
  392SOL    MW4 1623   2.709   0.887   0.731  0.2348  0.4777  0.2114
  393SOL     OW 1624   2.707   1.122   0.884 -0.2352  0.1966  0.3991
  393SOL    HW2 1625   2.707   1.042   0.831  0.2349 -0.1078  0.8560
  393SOL    HW3 1626   2.626   1.167   0.859  0.5652  0.6545 -1.4727
  393SOL    MW4 1627   2.696   1.117   0.874 -0.0675  0.2168  0.2125
  394SOL     OW 1628   2.911   1.234   0.749 -0.2982  0.0926 -0.0962
  394SOL    HW2 1629   2.991   1.187   0.774  1.1561  2.4938 -0.0483
  394SOL    HW3 1630   2.842   1.192   0.800  1.0930 -1.3336  0.6800
  394SOL    MW4 1631   2.912   1.222   0.759  0.0772  0.2213  0.0125
  395SOL     OW 1632   2.902   1.499   0.853  0.3946  0.1121  0.2729
  395SOL    HW2 1633   2.988   1.540   0.839  1.1045 -1.1323  0.9339
  395SOL    HW3 1634   2.909   1.414   0.810 -0.1438 -0.4376  1.2645
  395SOL    MW4 1635   2.914   1.493   0.846  0.4170 -0.1247  0.4910
  396SOL     OW 1636   2.708   1.639   0.709 -0.3512 -0.1642 -0.0800
  396SOL    HW2 1637   2.692   1.724   0.750  0.5074 -0.2773  0.4974
  396SOL    HW3 1638   2.779   1.600   0.760 -0.7446 -1.2359 -0.3363
  396SOL    MW4 1639   2.715   1.645   0.721 -0.2897 -0.3204 -0.0376
  397SOL     OW 1640   2.674   1.890   0.853 -0.2511 -0.2015  0.4045
  397SOL    HW2 1641   2.682   1.899   0.948  0.9548  0.6377  0.2279
  397SOL    HW3 1642   2.599   1.944   0.830  0.7580  1.3282  0.6271
  397SOL    MW4 1643   2.665   1.898   0.862  0.0410  0.1110  0.4105
  398SOL     OW 1644   0.641   3.396   0.383 -0.1920  0.0960 -0.6125
  398SOL    HW2 1645   0.654   3.338   0.457  0.4804  0.2563 -0.6003
  398SOL    HW3 1646   0.546   3.405   0.375 -0.2534  0.6158  0.6412
  398SOL    MW4 1647   0.630   3.390   0.391 -0.1115  0.1860 -0.4455
  399SOL     OW 1648   2.662   2.505   0.521  0.1152  0.1335 -0.5561
  399SOL    HW2 1649   2.600   2.577   0.518  1.0378  0.9445 -0.4084
  399SOL    HW3 1650   2.661   2.476   0.612  2.0170  2.0108  0.1256
  399SOL    MW4 1651   2.654   2.510   0.533  0.4876  0.4883 -0.4467
  400SOL     OW 1652   2.682   2.422   0.781 -0.1717 -0.1422 -0.2375
  400SOL    HW2 1653   2.692   2.512   0.811  0.4244 -0.7508  1.4135
  400SOL    HW3 1654   2.762   2.378   0.808  0.6032 -0.6315 -3.1186
  400SOL    MW4 1655   2.694   2.428   0.788  0.0095 -0.2871 -0.3998
  401SOL     OW 1656   2.710   2.683   0.855  0.1377  0.6338  0.0208
  401SOL    HW2 1657   2.720   2.695   0.949  0.3776 -0.9051  0.2123
  401SOL    HW3 1658   2.784   2.730   0.817  2.0063 -1.5415  0.8173
  401SOL    MW4 1659   2.721   2.690   0.862  0.4160  0.1438  0.1512
  402SOL     OW 1660   1.839   0.124   0.522 -0.0025  0.0553 -0.1377
  402SOL    HW2 1661   1.762   0.136   0.467  0.8751  2.3501 -0.9294
  402SOL    HW3 1662   1.805   0.103   0.609 -1.5164  1.0751 -0.4769
  402SOL    MW4 1663   1.824   0.123   0.526 -0.0864  0.4926 -0.2869
  403SOL     OW 1664   2.850   3.081   0.881  0.2169 -0.1145 -0.0331
  403SOL    HW2 1665   2.809   3.148   0.826  0.0659 -0.3731 -0.2409
  403SOL    HW3 1666   2.855   3.004   0.824 -1.1586 -0.7943  0.7245
  403SOL    MW4 1667   2.845   3.080   0.866  0.0155 -0.2387  0.0394
  404SOL     OW 1668   2.670   3.203   0.696  0.9885 -0.7678  0.4860
  404SOL    HW2 1669   2.670   3.299   0.704  1.6305 -0.6726 -0.5807
  404SOL    HW3 1670   2.606   3.174   0.761  0.6287  0.4001  0.6719
  404SOL    MW4 1671   2.662   3.212   0.706  1.0254 -0.6011  0.3698
  405SOL     OW 1672   2.658   3.475   0.808 -0.9026  0.0096 -0.2726
  405SOL    HW2 1673   2.664   3.500   0.901 -1.1149 -0.7527 -0.0565
  405SOL    HW3 1674   2.722   3.532   0.765  0.1833 -0.5707  0.5348
  405SOL    MW4 1675   2.667   3.486   0.815 -0.7873 -0.1674 -0.1376
  406SOL     OW 1676   2.841   3.639   0.672 -0.7207  0.1282 -0.0110
  406SOL    HW2 1677   2.871   3.708   0.731 -1.0566  0.1951  0.0837
  406SOL    HW3 1678   2.786   3.685   0.609  1.3723  0.4271 -1.6938
  406SOL    MW4 1679   2.838   3.655   0.671 -0.4888  0.1764 -0.2204
  407SOL     OW 1680   2.896   3.839   0.863 -0.3203 -0.3877 -0.4058
  407SOL    HW2 1681   2.888   3.835   0.958  1.2307 -0.1611 -0.2561
  407SOL    HW3 1682   2.819   3.887   0.834  0.2452  1.3395  0.9085
  407SOL    MW4 1683   2.885   3.845   0.871 -0.0410 -0.1297 -0.2127
  408SOL     OW 1684   2.668   3.993   0.790 -0.2304 -0.0087  0.1540
  408SOL    HW2 1685   2.574   3.975   0.796 -0.1400 -0.2028  1.0041
  408SOL    HW3 1686   2.682   4.015   0.698 -0.9068 -1.1532 -0.2406
  408SOL    MW4 1687   2.658   3.993   0.779 -0.3078 -0.1855  0.2141
  409SOL     OW 1688   2.688   4.255   0.854 -0.1943  0.1597 -0.0987
  409SOL    HW2 1689   2.692   4.266   0.949  2.8464  1.8529 -0.3691
  409SOL    HW3 1690   2.682   4.161   0.841  0.7859 -0.1859  1.7672
  409SOL    MW4 1691   2.688   4.244   0.865  0.3362  0.3376  0.1119
  410SOL     OW 1692   3.213   3.728   0.447  0.0876 -0.2090 -0.1024
  410SOL    HW2 1693   3.291   3.690   0.487  1.1643  0.0566 -1.9276
  410SOL    HW3 1694   3.241   3.756   0.360 -2.0031  0.0226 -0.7296
  410SOL    MW4 1695   3.227   3.727   0.441 -0.0463 -0.1433 -0.4259
  411SOL     OW 1696   3.383   4.570   0.863 -0.3152  0.8518 -0.2048
  411SOL    HW2 1697   3.390   4.576   0.959  0.6741  0.6784 -0.2589
  411SOL    HW3 1698   3.310   4.628   0.841 -1.5182 -0.2497  0.7923
  411SOL    MW4 1699   3.374   4.579   0.873 -0.3433  0.6828 -0.0803
  412SOL     OW 1700   3.251   0.076   0.564 -0.2646  0.1396  0.2883
  412SOL    HW2 1701   3.210   0.007   0.513 -0.7053 -0.0276  0.8601
  412SOL    HW3 1702   3.204   0.156   0.540  2.1780  0.7898 -2.6127
  412SOL    MW4 1703   3.239   0.078   0.554 -0.0007  0.2033 -0.0190
  413SOL     OW 1704   3.126   0.327   0.885  0.2129  0.1636  0.0315
  413SOL    HW2 1705   3.143   0.300   0.975  1.4264 -2.2423 -0.8972
  413SOL    HW3 1706   3.211   0.355   0.851 -0.0095 -0.0359 -0.7112
  413SOL    MW4 1707   3.139   0.327   0.892  0.3436 -0.1801 -0.1890
  414SOL     OW 1708   2.887   0.438   0.788 -0.3037  0.4047  0.1350
  414SOL    HW2 1709   2.888   0.522   0.833 -2.7961  0.4040  0.2390
  414SOL    HW3 1710   2.965   0.393   0.820 -0.3121  1.6785  2.0036
  414SOL    MW4 1711   2.898   0.443   0.798 -0.6340  0.5727  0.3952
  415SOL     OW 1712   3.349   0.717   0.851  0.2200  0.1179 -0.2736
  415SOL    HW2 1713   3.276   0.775   0.830 -1.1083 -1.4351  0.0307
  415SOL    HW3 1714   3.427   0.769   0.831 -0.9624  1.6686 -0.9161
  415SOL    MW4 1715   3.350   0.731   0.845 -0.1113  0.1175 -0.3182
  416SOL     OW 1716   3.549   1.201   0.512  0.3228 -0.0612  0.5708
  416SOL    HW2 1717   3.491   1.219   0.586  0.4293  1.3809  0.3097
  416SOL    HW3 1718   3.507   1.242   0.437  1.8815  1.4021  0.4594
  416SOL    MW4 1719   3.536   1.209   0.512  0.5424  0.3221  0.5217
  417SOL     OW 1720   3.157   1.120   0.843 -0.4170  0.0415  0.5452
  417SOL    HW2 1721   3.140   1.136   0.936 -2.0004  1.9735 -0.0446
  417SOL    HW3 1722   3.238   1.167   0.826  0.2357 -0.8595  1.0680
  417SOL    MW4 1723   3.165   1.128   0.853 -0.5398  0.1775  0.5363
  418SOL     OW 1724   3.401   1.223   0.761 -0.0129 -0.0635  0.3711
  418SOL    HW2 1725   3.402   1.314   0.789 -0.1049 -0.8300  2.9604
  418SOL    HW3 1726   3.482   1.186   0.796  0.2712 -0.8552 -1.0829
  418SOL    MW4 1727   3.412   1.230   0.769  0.0124 -0.2691  0.5208
  419SOL     OW 1728   3.381   1.498   0.825 -0.3233  0.6157  0.0880
  419SOL    HW2 1729   3.443   1.565   0.796 -0.6075  0.4648 -0.8799
  419SOL    HW3 1730   3.386   1.501   0.921  1.5582  0.2576  0.0255
  419SOL    MW4 1731   3.390   1.508   0.834 -0.1128  0.5485 -0.0479
  420SOL     OW 1732   3.143   1.615   0.799  0.2884  0.0097 -0.2991
  420SOL    HW2 1733   3.160   1.708   0.812  0.8719 -0.0733 -0.4400
  420SOL    HW3 1734   3.229   1.573   0.810  0.1273 -0.4475 -0.7468
  420SOL    MW4 1735   3.157   1.622   0.802  0.3440 -0.0615 -0.3767
  421SOL     OW 1736   3.132   1.899   0.856  0.1051  0.0530 -0.7415
  421SOL    HW2 1737   3.124   1.900   0.952  1.4146 -0.3435 -0.6274
  421SOL    HW3 1738   3.050   1.939   0.826 -1.3066 -1.7851  0.4858
  421SOL    MW4 1739   3.120   1.904   0.865  0.0913 -0.2418 -0.5645
  422SOL     OW 1740   3.602   1.924   0.929  0.1611  0.0331 -0.1268
  422SOL    HW2 1741   3.667   1.979   0.884  0.7495 -0.3846  0.2056
  422SOL    HW3 1742   3.518   1.954   0.895  0.5519  0.2822 -0.8918
  422SOL    MW4 1743   3.599   1.935   0.918  0.2902  0.0107 -0.1839
  423SOL     OW 1744   3.406   2.307   0.857  0.2147  0.0342 -0.0844
  423SOL    HW2 1745   3.405   2.304   0.952  0.0380 -0.7763 -0.1104
  423SOL    HW3 1746   3.485   2.357   0.835 -0.1314  0.8408  0.4958
  423SOL    MW4 1747   3.416   2.313   0.867  0.1457  0.0334 -0.0112
  424SOL     OW 1748   3.146   2.418   0.768 -0.2064  0.0753 -0.3855
  424SOL    HW2 1749   3.225   2.378   0.804  0.2018  2.1622  1.0968
  424SOL    HW3 1750   3.075   2.382   0.821  0.0225  0.2842  0.0673
  424SOL    MW4 1751   3.147   2.408   0.780 -0.1223  0.3779 -0.1301
  425SOL     OW 1752   3.336   2.835   0.763  0.2642  0.0889  0.0861
  425SOL    HW2 1753   3.421   2.799   0.785  0.1625 -0.8412 -1.0035
  425SOL    HW3 1754   3.328   2.822   0.668 -0.5680  1.2716 -0.0146
  425SOL    MW4 1755   3.346   2.828   0.753  0.1409  0.1221 -0.0710
  426SOL     OW 1756   2.998   2.856   0.496  0.4378 -0.2737  0.0309
  426SOL    HW2 1757   3.093   2.867   0.487  0.2617  1.0948 -0.2926
  426SOL    HW3 1758   2.982   2.765   0.473  1.6522 -0.4529 -0.1339
  426SOL    MW4 1759   3.009   2.846   0.491  0.5746 -0.1168 -0.0335
  427SOL     OW 1760   3.340   3.083   0.869 -0.2772 -0.1017 -0.5549
  427SOL    HW2 1761   3.370   3.097   0.959  1.9123  1.1745 -1.4479
  427SOL    HW3 1762   3.329   2.988   0.862 -0.3195 -0.2165  1.0067
  427SOL    MW4 1763   3.343   3.072   0.880  0.0062  0.0515 -0.4668
  428SOL     OW 1764   3.105   3.207   0.803  0.1191  0.1101  0.1691
  428SOL    HW2 1765   3.181   3.158   0.835 -0.8417 -1.7402 -0.2948
  428SOL    HW3 1766   3.031   3.172   0.853 -0.4182  1.9956  0.7123
  428SOL    MW4 1767   3.105   3.196   0.814 -0.0787  0.1147  0.1795
  429SOL     OW 1768   3.088   3.493   0.878 -0.3700  0.5515  0.1362
  429SOL    HW2 1769   3.099   3.403   0.848 -0.3581  0.8691 -0.8306
  429SOL    HW3 1770   3.016   3.528   0.824  0.5392  1.5457 -0.4543
  429SOL    MW4 1771   3.080   3.486   0.867 -0.2482  0.7243 -0.0693
  430SOL     OW 1772   3.322   3.633   0.792  0.0173 -0.1930 -0.2575
  430SOL    HW2 1773   3.302   3.725   0.805 -0.2228 -0.3492  0.5668
  430SOL    HW3 1774   3.237   3.589   0.792  0.0642 -0.2895 -1.7366
  430SOL    MW4 1775   3.308   3.639   0.794 -0.0083 -0.2265 -0.3439
  431SOL     OW 1776   3.308   3.900   0.838  0.1410 -0.3344 -0.3623
  431SOL    HW2 1777   3.315   3.881   0.932  0.2697  0.7562 -0.1471
  431SOL    HW3 1778   3.399   3.909   0.809  0.1220 -1.1567 -0.7018
  431SOL    MW4 1779   3.321   3.899   0.846  0.1554 -0.2990 -0.3787
  432SOL     OW 1780   3.085   4.027   0.772  0.0628 -0.1854  0.2449
  432SOL    HW2 1781   3.170   3.988   0.795 -0.0653 -0.3557  0.4255
  432SOL    HW3 1782   3.020   3.963   0.800 -0.1556  0.2222  0.6814
  432SOL    MW4 1783   3.088   4.014   0.778  0.0172 -0.1540  0.3262
  433SOL     OW 1784   3.130   4.286   0.863 -0.0140  0.2905  0.2689
  433SOL    HW2 1785   3.219   4.303   0.831  0.0825  2.0674  1.4051
  433SOL    HW3 1786   3.112   4.196   0.838  1.4842  0.4361 -1.4436
  433SOL    MW4 1787   3.139   4.277   0.855  0.1962  0.5436  0.1928
  434SOL     OW 1788   3.390   4.319   0.750  0.3138 -0.8833 -0.2353
  434SOL    HW2 1789   3.366   4.325   0.658  0.8370 -1.0270 -0.3806
  434SOL    HW3 1790   3.388   4.409   0.781 -2.5275 -1.0756  0.3008
  434SOL    MW4 1791   3.386   4.332   0.742  0.0079 -0.9274 -0.1836
  435SOL     OW 1792   3.856   4.608   0.849  0.3682 -0.0303 -0.1023
  435SOL    HW2 1793   3.919   4.672   0.816  0.0382 -0.1337 -0.9636
  435SOL    HW3 1794   3.771   4.643   0.823  0.1551 -0.5255 -0.0762
  435SOL    MW4 1795   3.853   4.621   0.841  0.2968 -0.1092 -0.2125
  436SOL     OW 1796   3.611   0.029   0.745  0.6269  0.1228  0.0156
  436SOL    HW2 1797   3.538  -0.017   0.785  0.7248  0.6174  0.7738
  436SOL    HW3 1798   3.592   0.122   0.759  0.4562  0.3144 -1.4568
  436SOL    MW4 1799   3.599   0.036   0.752  0.6175  0.2133 -0.0786
  437SOL     OW 1800   3.567   0.279   0.824  0.1336  0.5021 -0.1001
  437SOL    HW2 1801   3.575   0.274   0.919 -0.1317  0.4429 -0.0825
  437SOL    HW3 1802   3.495   0.340   0.808  0.1786  0.5136 -0.2632
  437SOL    MW4 1803   3.559   0.286   0.834  0.1044  0.4958 -0.1193
  438SOL     OW 1804   3.767   0.402   0.697  0.1926  0.4090  0.1847
  438SOL    HW2 1805   3.761   0.497   0.699  0.6593  0.4269  0.9355
  438SOL    HW3 1806   3.699   0.373   0.759  0.4894  0.2749  0.4486
  438SOL    MW4 1807   3.757   0.410   0.706  0.2933  0.3937  0.3185
  439SOL     OW 1808   3.965   0.825   0.876 -0.6995  0.4747 -0.2708
  439SOL    HW2 1809   3.910   0.818   0.954 -0.5225 -1.5343 -0.2983
  439SOL    HW3 1810   3.976   0.919   0.863 -1.7032  0.8569  1.4384
  439SOL    MW4 1811   3.959   0.837   0.885 -0.8085  0.2601 -0.0489
  440SOL     OW 1812   3.575   0.863   0.763 -0.4095 -0.1532 -0.2860
  440SOL    HW2 1813   3.533   0.878   0.679 -1.4988  0.0366  0.2863
  440SOL    HW3 1814   3.630   0.786   0.749 -2.9492 -2.0365 -0.3604
  440SOL    MW4 1815   3.577   0.855   0.750 -0.8881 -0.3766 -0.2203
  441SOL     OW 1816   3.640   1.123   0.867  0.1601  0.3717 -0.0492
  441SOL    HW2 1817   3.613   1.112   0.958  0.0113  0.1116 -0.1238
  441SOL    HW3 1818   3.647   1.034   0.834  2.2214  0.3864  0.2917
  441SOL    MW4 1819   3.637   1.110   0.875  0.4125  0.3393 -0.0141
  442SOL     OW 1820   3.364   0.506   0.477  0.1744  0.0420  0.0008
  442SOL    HW2 1821   3.444   0.517   0.426 -0.2359 -1.7971 -1.0926
  442SOL    HW3 1822   3.339   0.595   0.502  1.6692  0.7737 -1.0250
  442SOL    MW4 1823   3.371   0.519   0.473  0.3176 -0.1041 -0.2788
  443SOL     OW 1824   3.836   1.552   0.879  0.1679  0.7090  0.0953
  443SOL    HW2 1825   3.920   1.589   0.853  0.8998  0.0442  1.4707
  443SOL    HW3 1826   3.844   1.458   0.863 -0.4776  0.6886 -0.1628
  443SOL    MW4 1827   3.848   1.545   0.873  0.1791  0.6185  0.2428
  444SOL     OW 1828   3.593   1.682   0.772  0.1905  0.5247 -0.3133
  444SOL    HW2 1829   3.671   1.635   0.803 -0.4451  0.6704  1.5618
  444SOL    HW3 1830   3.590   1.761   0.825 -1.0649  0.6818 -0.5993
  444SOL    MW4 1831   3.603   1.686   0.783 -0.0589  0.5647 -0.1035
  445SOL     OW 1832   3.801   2.064   0.788 -0.2121 -0.1618  0.1325
  445SOL    HW2 1833   3.886   2.020   0.789  0.0724  0.4022  1.1326
  445SOL    HW3 1834   3.770   2.053   0.698  1.4016  0.5772 -0.5373
  445SOL    MW4 1835   3.808   2.056   0.776  0.0386  0.0103  0.1761
  446SOL     OW 1836   0.369   3.380   0.459 -0.4567  0.1683  0.2410
  446SOL    HW2 1837   0.405   3.326   0.530  0.3719  0.4693  0.0525
  446SOL    HW3 1838   0.371   3.469   0.494  0.1280  0.3400 -0.2266
  446SOL    MW4 1839   0.374   3.385   0.473 -0.2702  0.2308  0.1544
  447SOL     OW 1840   3.833   2.343   0.833  0.1458  0.3219  0.0095
  447SOL    HW2 1841   3.830   2.358   0.928  1.9940  0.5605  0.0555
  447SOL    HW3 1842   3.831   2.248   0.824  1.3536  0.2509  0.3752
  447SOL    MW4 1843   3.833   2.332   0.845  0.5491  0.3443  0.0638
  448SOL     OW 1844   3.599   2.481   0.785 -0.4729 -0.3399  0.3531
  448SOL    HW2 1845   3.679   2.433   0.806 -0.0454  0.3419  0.2924
  448SOL    HW3 1846   3.609   2.565   0.831 -1.3186 -0.4003  0.6513
  448SOL    MW4 1847   3.611   2.486   0.794 -0.5283 -0.2580  0.3844
  449SOL     OW 1848   3.575   2.741   0.855  0.4947  0.3217 -0.4528
  449SOL    HW2 1849   3.589   2.735   0.950  0.1115  1.9090 -0.2816
  449SOL    HW3 1850   3.653   2.787   0.824 -0.4537  1.8276 -0.6036
  449SOL    MW4 1851   3.587   2.746   0.864  0.3192  0.7300 -0.4501
  450SOL     OW 1852   4.342   2.104   0.530  0.1006 -0.0778 -0.2347
  450SOL    HW2 1853   4.328   2.029   0.473 -1.4619  1.2731 -1.6760
  450SOL    HW3 1854   4.411   2.155   0.487 -0.1318  0.2473 -0.2282
  450SOL    MW4 1855   4.349   2.101   0.517 -0.1359  0.1428 -0.4240
  451SOL     OW 1856   4.038   2.708   0.842  0.3880 -0.4295 -0.2997
  451SOL    HW2 1857   4.101   2.752   0.786 -2.1161  0.7230 -2.3331
  451SOL    HW3 1858   4.046   2.616   0.820 -0.1270 -0.0520 -2.1685
  451SOL    MW4 1859   4.047   2.702   0.831 -0.0100 -0.2275 -0.8146
  452SOL     OW 1860   0.151   0.438   0.406 -0.1703  0.3703 -0.6323
  452SOL    HW2 1861   0.070   0.489   0.406 -1.5467 -1.6529  2.5648
  452SOL    HW3 1862   0.123   0.348   0.385  1.4359 -0.1312 -0.7318
  452SOL    MW4 1863   0.137   0.433   0.403 -0.1400  0.0373 -0.2235
  453SOL     OW 1864   3.603   3.522   0.887  0.0092  0.4300  0.1457
  453SOL    HW2 1865   3.589   3.427   0.886 -0.9869  0.5712 -0.1624
  453SOL    HW3 1866   3.525   3.558   0.845  0.1501  1.4180  0.7170
  453SOL    MW4 1867   3.591   3.514   0.881 -0.1035  0.5791  0.1804
  454SOL     OW 1868   4.314   3.085   0.452 -0.3480 -0.0794  0.1732
  454SOL    HW2 1869   4.403   3.104   0.480 -0.1422  1.5201 -1.4873
  454SOL    HW3 1870   4.268   3.169   0.460 -0.9749 -0.2346 -1.6412
  454SOL    MW4 1871   4.319   3.099   0.457 -0.4034  0.1113 -0.2853
  455SOL     OW 1872   3.810   3.839   0.854 -0.0359 -0.2823  0.2653
  455SOL    HW2 1873   3.731   3.872   0.810 -0.1306  0.0492  0.6834
  455SOL    HW3 1874   3.830   3.757   0.808 -0.0812  0.1048 -0.4518
  455SOL    MW4 1875   3.802   3.832   0.842 -0.0544 -0.1876  0.2258
  456SOL     OW 1876   3.576   3.955   0.753  0.2519  0.5379  0.0994
  456SOL    HW2 1877   3.571   3.956   0.657 -0.7623  0.7353  0.1471
  456SOL    HW3 1878   3.607   4.042   0.776 -0.4108  0.8068 -0.0105
  456SOL    MW4 1879   3.580   3.967   0.744  0.0305  0.5994  0.0912
  457SOL     OW 1880   3.869   4.350   0.720  0.0144  0.4070 -0.2713
  457SOL    HW2 1881   3.934   4.302   0.771  0.7608 -0.1966 -1.7440
  457SOL    HW3 1882   3.869   4.438   0.758  0.1617 -0.1674  1.0962
  457SOL    MW4 1883   3.878   4.355   0.732  0.1321  0.2518 -0.2851
  458SOL     OW 1884   0.047   0.153   0.408 -0.2017  0.7185 -0.3812
  458SOL    HW2 1885   0.017   0.143   0.499  0.2060 -0.9585 -0.4026
  458SOL    HW3 1886  -0.026   0.122   0.355  0.2705 -0.1065 -0.5554
  458SOL    MW4 1887   0.033   0.147   0.413 -0.0856  0.3884 -0.4070
  459SOL     OW 1888   4.323   0.016   0.862  0.0168 -0.5397  0.1949
  459SOL    HW2 1889   4.300   0.011   0.955  1.0011  0.8949  0.5355
  459SOL    HW3 1890   4.242   0.040   0.818 -0.1392  0.2096  0.8743
  459SOL    MW4 1891   4.310   0.019   0.869  0.1259 -0.2516  0.3294
  460SOL     OW 1892   4.094   0.074   0.728 -0.1487  0.2261  0.0769
  460SOL    HW2 1893   4.107   0.082   0.634  1.0850 -0.6262  0.1565
  460SOL    HW3 1894   4.067   0.161   0.756 -2.0934  0.0851 -1.2912
  460SOL    MW4 1895   4.092   0.087   0.719 -0.2427  0.0951 -0.0932
  461SOL     OW 1896   3.979   0.300   0.841  0.2728 -0.3705  0.1901
  461SOL    HW2 1897   3.904   0.333   0.791  1.6213 -0.3755 -1.8903
  461SOL    HW3 1898   4.051   0.358   0.816  0.9089 -0.1907  2.3876
  461SOL    MW4 1899   3.979   0.312   0.831  0.5348 -0.3474  0.2055
  462SOL     OW 1900   4.172   0.478   0.763 -0.1930 -0.5009 -0.1183
  462SOL    HW2 1901   4.265   0.454   0.763  0.6337  2.4152 -0.5963
  462SOL    HW3 1902   4.151   0.490   0.670 -0.5119  0.6514  0.0893
  462SOL    MW4 1903   4.182   0.477   0.751 -0.1264  0.0359 -0.1540
  463SOL     OW 1904   4.216   0.726   0.858  0.1212  0.1020 -0.2947
  463SOL    HW2 1905   4.128   0.758   0.877  0.7791  1.5935  0.2894
  463SOL    HW3 1906   4.203   0.636   0.829 -1.4923 -0.0752  0.9162
  463SOL    MW4 1907   4.203   0.719   0.857 -0.0048  0.2754 -0.0578
  464SOL     OW 1908   3.744   1.376   0.544  0.1056 -0.1523 -0.2554
  464SOL    HW2 1909   3.673   1.312   0.536 -0.3047  0.4481 -1.6901
  464SOL    HW3 1910   3.705   1.458   0.515  1.0986  0.3973 -0.0346
  464SOL    MW4 1911   3.729   1.378   0.539  0.1824 -0.0006 -0.4156
  465SOL     OW 1912   4.296   1.364   0.332 -0.7351  0.1816  0.5735
  465SOL    HW2 1913   4.313   1.272   0.316 -0.1054  0.2287  0.9655
  465SOL    HW3 1914   4.205   1.367   0.361 -0.4880 -0.4184  1.4303
  465SOL    MW4 1915   4.286   1.353   0.334 -0.6199  0.1087  0.7382
  466SOL     OW 1916   4.138   0.523   0.486  0.0555  0.5213 -0.5205
  466SOL    HW2 1917   4.085   0.461   0.435 -1.1250  0.6473  0.5307
  466SOL    HW3 1918   4.228   0.505   0.460 -0.2982 -1.4594 -0.4540
  466SOL    MW4 1919   4.143   0.512   0.476 -0.1469  0.2766 -0.3730
  467SOL     OW 1920   4.318   1.594   0.853  0.2348  0.2392 -0.1530
  467SOL    HW2 1921   4.313   1.570   0.946  0.2195  0.3469 -0.1262
  467SOL    HW3 1922   4.407   1.629   0.843  0.5145 -0.5290 -0.3565
  467SOL    MW4 1923   4.329   1.596   0.864  0.2704  0.1521 -0.1763
  468SOL     OW 1924   4.080   2.451   0.754  0.6312 -0.2752 -0.1999
  468SOL    HW2 1925   3.994   2.413   0.768 -0.3497  1.7985 -0.4791
  468SOL    HW3 1926   4.096   2.439   0.660  0.4882 -0.2959 -0.2214
  468SOL    MW4 1927   4.071   2.444   0.743  0.4835 -0.0043 -0.2395
  469SOL     OW 1928   4.311   2.019   0.789 -0.0627  0.4459 -0.2191
  469SOL    HW2 1929   4.335   2.043   0.700  0.4712  0.2623 -0.1262
  469SOL    HW3 1930   4.393   1.989   0.828 -0.2476  0.7357  0.3994
  469SOL    MW4 1931   4.325   2.018   0.782 -0.0162  0.4601 -0.1253
  470SOL     OW 1932   4.141   2.877   0.395 -0.1586  0.3308  0.2223
  470SOL    HW2 1933   4.180   2.790   0.391  0.6545  0.6410  1.2104
  470SOL    HW3 1934   4.215   2.936   0.409 -0.8232  1.0644  0.6814
  470SOL    MW4 1935   4.156   2.873   0.396 -0.1392  0.4685  0.4132
  471SOL     OW 1936   0.053   2.471   0.773  0.3191 -0.0035 -0.5676
  471SOL    HW2 1937   0.127   2.416   0.799  0.4257 -0.6361 -2.1341
  471SOL    HW3 1938  -0.024   2.418   0.790  0.3051  0.1134 -0.2605
  471SOL    MW4 1939   0.053   2.457   0.779  0.3313 -0.0715 -0.7338
  472SOL     OW 1940   3.680   2.042   0.521 -0.4758  0.0269  0.3119
  472SOL    HW2 1941   3.587   2.020   0.519 -0.3444 -0.5501  0.5926
  472SOL    HW3 1942   3.687   2.119   0.464 -1.2362  0.5063  0.8575
  472SOL    MW4 1943   3.669   2.049   0.513 -0.5586  0.0143  0.4209
  473SOL     OW 1944   3.814   2.847   0.753 -0.0992 -0.5230 -0.0826
  473SOL    HW2 1945   3.821   2.929   0.801 -1.3248  0.4134 -1.4315
  473SOL    HW3 1946   3.889   2.795   0.782  0.5953  1.0019  0.9169
  473SOL    MW4 1947   3.824   2.851   0.763 -0.1693 -0.1981 -0.1287
  474SOL     OW 1948   2.580   4.584   0.169  0.3350  0.7565 -0.4337
  474SOL    HW2 1949   2.661   4.624   0.137  0.1887  0.6657 -0.9192
  474SOL    HW3 1950   2.609   4.525   0.239  0.5895  1.4073  0.0176
  474SOL    MW4 1951   2.595   4.581   0.174  0.3493  0.8302 -0.4382
  475SOL     OW 1952   4.273   2.831   0.712  0.0984 -0.0107  0.1838
  475SOL    HW2 1953   4.352   2.801   0.756  0.7245  0.5218 -0.5648
  475SOL    HW3 1954   4.275   2.787   0.627 -0.3379  0.1069  0.1119
  475SOL    MW4 1955   4.283   2.821   0.707  0.1235  0.0749  0.0755
  476SOL     OW 1956   4.034   3.476   0.886 -0.1168 -0.4548  0.1765
  476SOL    HW2 1957   4.047   3.494   0.979 -0.5729  2.5602 -0.2842
  476SOL    HW3 1958   4.113   3.510   0.843 -0.4112 -0.7718 -0.6395
  476SOL    MW4 1959   4.046   3.483   0.892 -0.2160 -0.0989  0.0080
  477SOL     OW 1960   4.024   3.234   0.750  0.0315  0.6875 -0.6336
  477SOL    HW2 1961   4.107   3.194   0.775 -1.1877 -1.1274  0.6621
  477SOL    HW3 1962   4.018   3.313   0.805  0.9616  0.9235 -0.8625
  477SOL    MW4 1963   4.034   3.239   0.761 -0.0067  0.4790 -0.4929
  478SOL     OW 1964   4.284   3.573   0.781 -0.0989 -0.0888  0.0382
  478SOL    HW2 1965   4.273   3.659   0.821  2.1097 -0.0274  0.5737
  478SOL    HW3 1966   4.300   3.591   0.689  1.9763  0.2027  0.4289
  478SOL    MW4 1967   4.285   3.587   0.774  0.4663 -0.0420  0.1603
  479SOL     OW 1968   4.278   3.841   0.873 -0.1296  0.4376 -0.3016
  479SOL    HW2 1969   4.275   3.837   0.968  0.7069  1.1160 -0.2358
  479SOL    HW3 1970   4.193   3.875   0.847 -1.2468 -2.0006  0.0537
  479SOL    MW4 1971   4.267   3.845   0.882 -0.1664  0.2053 -0.2459
  480SOL     OW 1972   4.044   3.973   0.793 -0.2858 -0.0216 -0.3118
  480SOL    HW2 1973   3.962   3.941   0.831 -0.6233  1.1515 -0.0559
  480SOL    HW3 1974   4.026   3.982   0.700  0.4710 -2.6655 -0.7758
  480SOL    MW4 1975   4.031   3.970   0.786 -0.2308 -0.2155 -0.3393
  481SOL     OW 1976   4.079   4.239   0.882 -0.0007 -0.1371  0.3707
  481SOL    HW2 1977   4.166   4.265   0.852  0.2606  0.6051  1.7322
  481SOL    HW3 1978   4.072   4.147   0.859  1.4031 -0.3571  0.7880
  481SOL    MW4 1979   4.090   4.230   0.875  0.2184 -0.0682  0.6053
  482SOL     OW 1980   4.281   4.425   0.806  0.3474 -0.3701  0.1682
  482SOL    HW2 1981   4.301   4.518   0.810 -0.0996 -0.3301  1.7316
  482SOL    HW3 1982   4.347   4.384   0.863  0.1820 -0.9486 -0.0514
  482SOL    MW4 1983   4.292   4.432   0.814  0.2666 -0.4411  0.3455
  483SOL     OW 1984   0.162   4.612   1.126 -0.1853  0.1404 -0.1756
  483SOL    HW2 1985   0.235   4.665   1.157 -0.4030  0.4038 -0.1106
  483SOL    HW3 1986   0.163   4.623   1.031  1.0973 -1.4673 -0.3677
  483SOL    MW4 1987   0.172   4.621   1.118 -0.0448 -0.0372 -0.1924
  484SOL     OW 1988   4.467   0.143   1.208  0.1532  0.1268 -0.6455
  484SOL    HW2 1989   4.381   0.101   1.207 -0.5807  1.5136  1.0824
  484SOL    HW3 1990   4.528   0.073   1.185 -1.2147 -1.4392  0.3382
  484SOL    MW4 1991   4.463   0.128   1.205 -0.1240  0.1032 -0.2878
  485SOL     OW 1992   4.474   0.386   1.085  0.2035  0.0305  0.0315
  485SOL    HW2 1993   4.392   0.421   1.121 -0.0532  0.5715 -1.0637
  485SOL    HW3 1994   4.482   0.299   1.125 -2.1269 -1.0184 -1.6375
  485SOL    MW4 1995   4.464   0.379   1.095 -0.1378 -0.0365 -0.3332
  486SOL     OW 1996   0.181   0.522   1.206  0.0696  0.3589 -0.2891
  486SOL    HW2 1997   0.171   0.612   1.175 -1.7640  0.0471 -0.6612
  486SOL    HW3 1998   0.109   0.474   1.166  0.8881 -1.2405  0.0947
  486SOL    MW4 1999   0.170   0.528   1.197 -0.0643  0.1067 -0.2875
  487SOL     OW 2000   0.194   0.769   1.106  0.3319  0.2191 -0.1010
  487SOL    HW2 2001   0.278   0.805   1.133  0.2512  0.5796 -0.3290
  487SOL    HW3 2002   0.130   0.833   1.137  0.2830  1.0218 -1.8087
  487SOL    MW4 2003   0.197   0.783   1.114  0.3148  0.3725 -0.3563
  488SOL     OW 2004   4.487   0.964   1.203 -0.3419 -0.3185 -0.0152
  488SOL    HW2 2005   4.480   0.962   1.299  0.9104 -1.5541  0.0470
  488SOL    HW3 2006   4.414   0.910   1.173  2.3874 -4.3947  0.3988
  488SOL    MW4 2007   4.476   0.957   1.212  0.1834 -1.0194  0.0477
  489SOL     OW 2008   4.483   1.208   1.086 -0.4314 -0.4323  0.1255
  489SOL    HW2 2009   4.401   1.239   1.124  1.4161  2.1056  2.2045
  489SOL    HW3 2010   4.491   1.118   1.118 -0.8418  0.3724  2.5942
  489SOL    MW4 2011   4.473   1.200   1.095 -0.2418  0.0087  0.7256
  490SOL     OW 2012   0.239   1.311   1.188 -0.1221  0.1990 -0.0399
  490SOL    HW2 2013   0.306   1.246   1.169 -0.4617 -0.8103  2.0898
  490SOL    HW3 2014   0.158   1.273   1.154 -0.2994 -0.4729  1.0955
  490SOL    MW4 2015   0.237   1.298   1.181 -0.1903 -0.0230  0.3909
  491SOL     OW 2016   0.240   1.564   1.073  0.0784  0.4115 -0.6513
  491SOL    HW2 2017   0.231   1.479   1.115 -2.0366  1.4520  1.1288
  491SOL    HW3 2018   0.253   1.544   0.980  1.5656 -1.8644  0.0175
  491SOL    MW4 2019   0.240   1.550   1.066 -0.0044  0.2486 -0.3282
  492SOL     OW 2020   0.012   1.665   1.223  0.1501  0.5328  0.1458
  492SOL    HW2 2021  -0.005   1.759   1.213  2.6967  1.0766  0.5857
  492SOL    HW3 2022   0.095   1.651   1.176  0.1453 -1.3640  0.6742
  492SOL    MW4 2023   0.021   1.676   1.215  0.4854  0.3543  0.2736
  493SOL     OW 2024   0.012   1.944   1.164 -0.1342 -0.5105  0.1016
  493SOL    HW2 2025  -0.070   1.993   1.158 -0.4683 -0.7953  2.0617
  493SOL    HW3 2026   0.041   1.934   1.073 -1.9075  0.1907 -0.5551
  493SOL    MW4 2027   0.005   1.949   1.151 -0.4123 -0.4555  0.2736
  494SOL     OW 2028   0.263   2.061   1.271 -0.4728  0.1079  0.1208
  494SOL    HW2 2029   0.273   2.134   1.210 -0.8124 -0.4511 -0.5994
  494SOL    HW3 2030   0.180   2.021   1.248 -0.9080  0.2830  1.3704
  494SOL    MW4 2031   0.254   2.065   1.260 -0.5751  0.0575  0.1906
  495SOL     OW 2032   0.292   2.294   1.124  0.0832  0.0270 -0.4576
  495SOL    HW2 2033   0.364   2.334   1.173  0.2556  1.0633 -1.5289
  495SOL    HW3 2034   0.216   2.347   1.145 -0.2331 -0.6833  0.1788
  495SOL    MW4 2035   0.292   2.307   1.133  0.0643  0.0703 -0.5149
  496SOL     OW 2036   0.056   2.428   1.191 -0.3259  0.2050 -0.0951
  496SOL    HW2 2037   0.047   2.439   1.286 -1.3513 -0.8900 -0.0493
  496SOL    HW3 2038  -0.024   2.382   1.165  0.5462 -0.6634 -1.2899
  496SOL    MW4 2039   0.044   2.423   1.200 -0.3461 -0.0541 -0.2466
  497SOL     OW 2040   0.055   2.698   1.108  0.0639  0.3374  0.1613
  497SOL    HW2 2041  -0.022   2.738   1.148 -1.0134  0.7948 -2.2557
  497SOL    HW3 2042   0.053   2.607   1.137  0.0772  0.9698  2.1856
  497SOL    MW4 2043   0.045   2.691   1.117 -0.0765  0.4811  0.1093
  498SOL     OW 2044   0.268   2.806   1.283 -0.1219  0.1463  0.4722
  498SOL    HW2 2045   0.234   2.806   1.373 -0.4834 -0.3736  0.3379
  498SOL    HW3 2046   0.207   2.750   1.235  0.1289  0.3478 -0.0762
  498SOL    MW4 2047   0.256   2.798   1.289 -0.1365  0.1042  0.3821
  499SOL     OW 2048   0.209   3.059   1.153  0.0839  0.7482  0.1164
  499SOL    HW2 2049   0.294   3.101   1.166 -0.1019  0.8576  1.0550
  499SOL    HW3 2050   0.219   2.972   1.192 -0.2524  0.7816  0.2800
  499SOL    MW4 2051   0.221   3.053   1.160  0.0150  0.7670  0.2619
  500SOL     OW 2052   4.485   3.234   1.241 -0.3041  0.1432 -0.0960
  500SOL    HW2 2053   4.412   3.191   1.196  0.6824 -1.0834 -0.5851
  500SOL    HW3 2054   4.562   3.185   1.212  0.4173 -0.4285  2.6202
  500SOL    MW4 2055   4.486   3.222   1.231 -0.0787 -0.0942  0.1978
  501SOL     OW 2056   4.490   3.497   1.160  0.5324  0.1863  0.2262
  501SOL    HW2 2057   4.488   3.405   1.189 -0.0296  0.5811  1.4972
  501SOL    HW3 2058   4.509   3.492   1.067  0.2450 -1.2429  0.2237
  501SOL    MW4 2059   4.493   3.484   1.152  0.4203  0.0498  0.3936
  502SOL     OW 2060   0.211   3.609   1.254 -0.0353 -0.3905  0.4508
  502SOL    HW2 2061   0.216   3.589   1.348  2.2448 -2.7168 -0.1262
  502SOL    HW3 2062   0.127   3.571   1.227 -0.5745  0.0378  1.4653
  502SOL    MW4 2063   0.200   3.602   1.263  0.1944 -0.6409  0.5085
  503SOL     OW 2064   0.230   3.882   1.203 -0.2914 -0.3061  0.0076
  503SOL    HW2 2065   0.143   3.916   1.224 -0.5382 -0.7733 -0.2495
  503SOL    HW3 2066   0.225   3.789   1.225 -0.7902 -0.9812 -2.7122
  503SOL    MW4 2067   0.218   3.874   1.208 -0.3898 -0.4568 -0.3852
  504SOL     OW 2068   4.448   3.968   1.233 -0.4177 -0.1398  0.0855
  504SOL    HW2 2069   4.451   3.963   1.328 -1.2155  1.6584  0.2137
  504SOL    HW3 2070   4.364   3.929   1.209 -0.8739  0.7603  0.2181
  504SOL    MW4 2071   4.437   3.962   1.242 -0.5836  0.2162  0.1199
  505SOL     OW 2072   4.455   4.246   1.205  0.1822 -0.1517 -0.4875
  505SOL    HW2 2073   4.538   4.282   1.238 -0.3150  0.0761  0.5239
  505SOL    HW3 2074   4.460   4.153   1.223 -0.2551  0.0277  0.6284
  505SOL    MW4 2075   4.467   4.239   1.212  0.0587 -0.0987 -0.2068
  506SOL     OW 2076   0.209   4.380   1.249 -0.2535 -0.5955  0.3729
  506SOL    HW2 2077   0.205   4.396   1.344 -0.1611  0.6356  0.1855
  506SOL    HW3 2078   0.188   4.465   1.210 -1.2159 -1.3298 -0.7240
  506SOL    MW4 2079   0.206   4.393   1.257 -0.3683 -0.5298  0.2035
  507SOL     OW 2080   0.602   4.620   1.158 -0.1321  0.1060  0.0037
  507SOL    HW2 2081   0.685   4.662   1.178 -0.5755  0.3712  1.3572
  507SOL    HW3 2082   0.608   4.533   1.199  0.4602 -0.8458 -2.0693
  507SOL    MW4 2083   0.613   4.614   1.166 -0.1125  0.0148 -0.0912
  508SOL     OW 2084   0.355   0.103   1.247  0.4017 -0.0895  0.3618
  508SOL    HW2 2085   0.364   0.189   1.207  0.7762  0.0558  0.7607
  508SOL    HW3 2086   0.430   0.053   1.214 -0.1888 -0.4769 -0.4117
  508SOL    MW4 2087   0.366   0.107   1.237  0.3731 -0.1214  0.3124
  509SOL     OW 2088   0.385   0.358   1.131  0.0969  0.1159  0.0620
  509SOL    HW2 2089   0.321   0.427   1.147  0.8517  0.4212  1.8667
  509SOL    HW3 2090   0.394   0.356   1.035 -0.6247  1.8780 -0.0732
  509SOL    MW4 2091   0.377   0.367   1.120  0.1012  0.3887  0.2824
  510SOL     OW 2092   0.631   0.497   1.202 -0.2933  0.1628 -0.3317
  510SOL    HW2 2093   0.636   0.576   1.148  1.7435 -0.8469 -1.7432
  510SOL    HW3 2094   0.546   0.459   1.182 -1.5806  2.3434  0.8981
  510SOL    MW4 2095   0.621   0.502   1.192 -0.1944  0.3173 -0.3557
  511SOL     OW 2096   0.668   0.758   1.064  0.4070  0.3591  0.1687
  511SOL    HW2 2097   0.585   0.801   1.086 -0.1587 -0.4919 -0.2728
  511SOL    HW3 2098   0.671   0.759   0.968  0.8853  0.3472  0.1808
  511SOL    MW4 2099   0.657   0.764   1.054  0.3955  0.2452  0.1119
  512SOL     OW 2100   0.438   0.872   1.189  0.1440  0.0933 -0.0537
  512SOL    HW2 2101   0.443   0.876   1.284 -1.5861 -0.2862  0.0722
  512SOL    HW3 2102   0.445   0.963   1.160  0.5349  0.2185  0.4416
  512SOL    MW4 2103   0.440   0.885   1.198 -0.0327  0.0597  0.0284
  513SOL     OW 2104   0.452   1.131   1.080  0.2524  0.1136 -0.0945
  513SOL    HW2 2105   0.519   1.191   1.110 -2.4430  2.4481  1.5115
  513SOL    HW3 2106   0.448   1.144   0.986  1.4364  0.5547 -0.0903
  513SOL    MW4 2107   0.460   1.141   1.072  0.0530  0.4798  0.1178
  514SOL     OW 2108   0.679   1.259   1.212 -0.1935  0.2298 -0.1412
  514SOL    HW2 2109   0.750   1.213   1.169 -0.5927  0.0019 -0.5637
  514SOL    HW3 2110   0.682   1.348   1.176  0.0638  0.3026  0.0620
  514SOL    MW4 2111   0.689   1.265   1.202 -0.2121  0.2091 -0.1701
  515SOL     OW 2112   0.690   1.509   1.090  0.8046  0.1525 -0.2278
  515SOL    HW2 2113   0.770   1.549   1.123  0.4443  1.7113 -1.2065
  515SOL    HW3 2114   0.619   1.557   1.133  0.3684 -0.5507 -0.1397
  515SOL    MW4 2115   0.691   1.520   1.100  0.6995  0.2654 -0.3452
  516SOL     OW 2116   0.479   1.643   1.207 -0.0564  0.3935 -0.4793
  516SOL    HW2 2117   0.464   1.656   1.301 -0.6431 -0.2319 -0.4808
  516SOL    HW3 2118   0.396   1.609   1.174  0.4044 -0.1623 -1.0808
  516SOL    MW4 2119   0.466   1.640   1.215 -0.0730  0.2377 -0.5590
  517SOL     OW 2120   0.448   1.900   1.137 -1.0062 -0.1182 -0.1950
  517SOL    HW2 2121   0.459   1.816   1.182 -1.5059 -0.3034 -0.4155
  517SOL    HW3 2122   0.384   1.947   1.190 -0.4093  0.2941  0.1628
  517SOL    MW4 2123   0.441   1.895   1.150 -0.9934 -0.0883 -0.1769
  518SOL     OW 2124   0.666   2.057   1.245  0.2837 -0.4302  0.0002
  518SOL    HW2 2125   0.682   2.043   1.338 -0.0221 -0.2468  0.0782
  518SOL    HW3 2126   0.600   1.992   1.222 -1.0433  0.7731  0.3320
  518SOL    MW4 2127   0.660   2.046   1.254  0.0683 -0.2475  0.0544
  519SOL     OW 2128   0.698   2.335   1.177  0.4551  0.0274 -0.2198
  519SOL    HW2 2129   0.620   2.372   1.218  0.6092 -0.1491  0.2304
  519SOL    HW3 2130   0.697   2.243   1.202 -1.3177 -0.8932 -3.4066
  519SOL    MW4 2131   0.688   2.328   1.185  0.2415 -0.1171 -0.5808
  520SOL     OW 2132   0.478   2.442   1.278  0.6713  0.0596 -0.1730
  520SOL    HW2 2133   0.462   2.454   1.372 -1.5869 -0.8688 -0.3817
  520SOL    HW3 2134   0.468   2.529   1.241  1.3970  0.4050  0.4354
  520SOL    MW4 2135   0.474   2.455   1.286  0.4691 -0.0172 -0.1203
  521SOL     OW 2136   0.486   2.698   1.156 -0.0769  0.1923  0.0013
  521SOL    HW2 2137   0.408   2.732   1.200 -0.8397 -0.3382 -0.9295
  521SOL    HW3 2138   0.474   2.722   1.064  1.4124  1.1270  0.0380
  521SOL    MW4 2139   0.474   2.706   1.149  0.0190  0.2458 -0.1166
  522SOL     OW 2140   0.700   2.831   1.290 -0.2083  0.4027 -0.3686
  522SOL    HW2 2141   0.701   2.919   1.252  0.6920  0.1306 -0.9878
  522SOL    HW3 2142   0.630   2.786   1.244 -0.3987  0.6635 -0.3392
  522SOL    MW4 2143   0.691   2.837   1.279 -0.1146  0.4015 -0.4464
  523SOL     OW 2144   0.694   3.075   1.138  0.4038  0.6100 -0.1159
  523SOL    HW2 2145   0.770   3.123   1.171  1.5860 -1.3036  0.0406
  523SOL    HW3 2146   0.720   3.047   1.050 -0.4136  0.5808 -0.3508
  523SOL    MW4 2147   0.708   3.077   1.131  0.4519  0.3536 -0.1262
  524SOL     OW 2148   0.466   3.177   1.239 -0.1009 -0.2975 -0.0523
  524SOL    HW2 2149   0.470   3.265   1.202 -0.1265 -0.6918 -1.0095
  524SOL    HW3 2150   0.547   3.135   1.211  0.0498 -0.4746  0.6553
  524SOL    MW4 2151   0.477   3.183   1.230 -0.0844 -0.3731 -0.0852
  525SOL     OW 2152   0.435   3.441   1.158 -0.9379  0.0878 -0.1597
  525SOL    HW2 2153   0.519   3.473   1.192 -0.1333 -0.6351 -1.4481
  525SOL    HW3 2154   0.370   3.501   1.196  0.1647  0.7790  0.6877
  525SOL    MW4 2155   0.437   3.453   1.168 -0.6863  0.0834 -0.2179
  526SOL     OW 2156   0.668   3.567   1.230 -0.3954  0.1172 -0.0243
  526SOL    HW2 2157   0.679   3.572   1.325 -1.6858 -0.4298  0.1698
  526SOL    HW3 2158   0.641   3.655   1.204  0.2613  0.3496  0.0656
  526SOL    MW4 2159   0.666   3.579   1.239 -0.4790  0.0756  0.0131
  527SOL     OW 2160   0.652   3.829   1.134 -0.1697 -0.2765  0.0408
  527SOL    HW2 2161   0.582   3.893   1.153  1.3159  1.1339  0.9309
  527SOL    HW3 2162   0.669   3.839   1.040  0.2814  0.9122  0.2330
  527SOL    MW4 2163   0.645   3.839   1.124  0.0858  0.0663  0.1836
  528SOL     OW 2164   0.463   3.996   1.249  0.1475  0.2168 -0.3126
  528SOL    HW2 2165   0.460   4.077   1.199  0.3999  0.1918 -0.3691
  528SOL    HW3 2166   0.378   3.955   1.233  0.2652  0.1561 -0.8115
  528SOL    MW4 2167   0.452   4.001   1.240  0.1963  0.2055 -0.3859
  529SOL     OW 2168   0.418   4.233   1.127  0.4099  0.3672 -0.2188
  529SOL    HW2 2169   0.500   4.275   1.154  0.5271 -0.3200  0.5212
  529SOL    HW3 2170   0.349   4.291   1.158  0.6055  0.8746 -0.7129
  529SOL    MW4 2171   0.420   4.246   1.135  0.4511  0.3428 -0.1862
  530SOL     OW 2172   0.637   4.368   1.265  0.1769  0.2043  0.2645
  530SOL    HW2 2173   0.640   4.391   1.358  0.0885  2.0555 -0.1623
  530SOL    HW3 2174   0.728   4.347   1.242  0.1537 -0.5206  0.8243
  530SOL    MW4 2175   0.649   4.369   1.274  0.1622  0.3529  0.2822
  531SOL     OW 2176   1.101   0.020   1.170  0.6478  0.1257  0.2282
  531SOL    HW2 2177   1.120  -0.061   1.218 -1.3357 -0.8351 -0.5709
  531SOL    HW3 2178   1.105  -0.005   1.078  0.1970  0.9860 -0.0259
  531SOL    MW4 2179   1.104   0.006   1.164  0.3266  0.1130  0.0892
  532SOL     OW 2180   0.831   0.091   1.236 -0.0373 -0.2283 -0.3291
  532SOL    HW2 2181   0.826   0.090   1.332  0.2032 -2.5586 -0.3285
  532SOL    HW3 2182   0.921   0.065   1.217 -0.6342 -1.6927 -1.2186
  532SOL    MW4 2183   0.842   0.088   1.246 -0.0842 -0.7290 -0.4464
  533SOL     OW 2184   0.823   0.328   1.089 -0.3147 -0.1566 -1.2567
  533SOL    HW2 2185   0.834   0.253   1.148  3.1296  1.6715  0.5733
  533SOL    HW3 2186   0.750   0.377   1.128  0.0108 -0.5071 -0.1705
  533SOL    MW4 2187   0.815   0.325   1.102  0.1826  0.0384 -0.8718
  534SOL     OW 2188   1.060   0.466   1.184 -0.3903 -0.0306 -0.2018
  534SOL    HW2 2189   1.070   0.491   1.276  1.5059 -0.8650 -0.1614
  534SOL    HW3 2190   0.976   0.421   1.180  0.6723 -2.2458  1.6352
  534SOL    MW4 2191   1.050   0.464   1.196  0.0001 -0.4329  0.0457
  535SOL     OW 2192   1.145   0.729   1.127  0.1495 -0.3111  0.5210
  535SOL    HW2 2193   1.071   0.779   1.160 -0.4424 -1.3347  0.7481
  535SOL    HW3 2194   1.125   0.638   1.149  1.1827 -0.6640  0.0457
  535SOL    MW4 2195   1.133   0.724   1.134  0.2078 -0.4928  0.4883
  536SOL     OW 2196   0.903   0.871   1.193 -0.5088 -0.2803 -0.7527
  536SOL    HW2 2197   0.907   0.960   1.156  1.1687  0.0279  0.0962
  536SOL    HW3 2198   0.824   0.833   1.156 -0.0995  0.8221 -2.8736
  536SOL    MW4 2199   0.893   0.878   1.183 -0.2335 -0.0941 -0.9207
  537SOL     OW 2200   0.896   1.123   1.086 -0.1211 -0.4341  0.3533
  537SOL    HW2 2201   0.971   1.169   1.121  1.5706 -1.6238 -1.6100
  537SOL    HW3 2202   0.887   1.156   0.997 -1.3055 -1.0407  0.2384
  537SOL    MW4 2203   0.904   1.133   1.079 -0.0541 -0.6710  0.0792
  538SOL     OW 2204   1.079   1.277   1.231  0.0024 -0.1281  0.2232
  538SOL    HW2 2205   1.070   1.280   1.326  1.0872  0.9426  0.3074
  538SOL    HW3 2206   1.168   1.243   1.217  0.1754  0.5781 -0.3930
  538SOL    MW4 2207   1.090   1.273   1.242  0.1683  0.1063  0.1529
  539SOL     OW 2208   1.154   1.516   1.112  0.1907 -0.4657 -0.3732
  539SOL    HW2 2209   1.118   1.436   1.151  1.4708 -1.2096 -0.6996
  539SOL    HW3 2210   1.122   1.515   1.022  0.0788 -0.5189 -0.3333
  539SOL    MW4 2211   1.145   1.505   1.105  0.3448 -0.5708 -0.4110
  540SOL     OW 2212   0.915   1.635   1.194  0.0724  0.6059 -0.6267
  540SOL    HW2 2213   0.902   1.728   1.173 -0.9424  0.4012 -0.9305
  540SOL    HW3 2214   0.995   1.611   1.148  1.5547  1.8937  1.2183
  540SOL    MW4 2215   0.924   1.644   1.185  0.1342  0.7488 -0.4234
  541SOL     OW 2216   0.874   1.910   1.140 -0.1750  0.3831 -0.1787
  541SOL    HW2 2217   0.957   1.949   1.164  0.9886 -1.6453 -0.7556
  541SOL    HW3 2218   0.808   1.962   1.187  1.6032  0.3141  2.5066
  541SOL    MW4 2219   0.876   1.922   1.149  0.2131  0.1065  0.0995
  542SOL     OW 2220   1.109   2.015   1.229 -0.3765 -0.3934  0.1210
  542SOL    HW2 2221   1.110   2.009   1.325 -1.3575  0.2646  0.1839
  542SOL    HW3 2222   1.120   2.109   1.211 -1.1243 -0.4000 -0.3791
  542SOL    MW4 2223   1.110   2.027   1.240 -0.6046 -0.3076  0.0633
  543SOL     OW 2224   1.170   2.283   1.197 -0.1376  0.1203  0.4295
  543SOL    HW2 2225   1.249   2.333   1.216 -0.3253  0.5764  0.0437
  543SOL    HW3 2226   1.099   2.342   1.224 -0.3871  0.4828 -0.9901
  543SOL    MW4 2227   1.171   2.298   1.203 -0.1951  0.2282  0.1912
  544SOL     OW 2228   0.948   2.423   1.268 -0.3092  0.0426  0.0604
  544SOL    HW2 2229   0.944   2.418   1.364  0.1887 -0.4016  0.0634
  544SOL    HW3 2230   0.866   2.384   1.238  0.5348 -1.9662  0.2558
  544SOL    MW4 2231   0.937   2.417   1.277 -0.1322 -0.2811  0.0864
  545SOL     OW 2232   0.922   2.692   1.185  0.2320  0.4171 -0.2408
  545SOL    HW2 2233   0.925   2.599   1.206  0.6432  0.9646  2.2003
  545SOL    HW3 2234   0.841   2.723   1.225  0.7551  1.3733  0.0911
  545SOL    MW4 2235   0.911   2.684   1.193  0.3553  0.6154  0.1252
  546SOL     OW 2236   1.151   2.822   1.247 -0.1397 -0.4683  0.2334
  546SOL    HW2 2237   1.156   2.837   1.342 -1.8362  2.3016 -0.0577
  546SOL    HW3 2238   1.070   2.775   1.234 -1.4767  1.8214 -0.0685
  546SOL    MW4 2239   1.141   2.818   1.258 -0.5399  0.1993  0.1551
  547SOL     OW 2240   1.157   3.120   1.176  0.2805  0.5097  1.0158
  547SOL    HW2 2241   1.160   3.024   1.173 -0.4669  0.4556  1.7669
  547SOL    HW3 2242   1.147   3.146   1.085  1.3561 -0.0940  0.7207
  547SOL    MW4 2243   1.156   3.111   1.164  0.3239  0.4232  1.0760
  548SOL     OW 2244   0.900   3.215   1.237  0.3895 -0.3604 -0.3656
  548SOL    HW2 2245   0.893   3.305   1.206 -0.5264  0.2421  1.4925
  548SOL    HW3 2246   0.989   3.188   1.213  1.0513  1.4123 -0.0256
  548SOL    MW4 2247   0.911   3.223   1.230  0.3559 -0.0467 -0.0756
  549SOL     OW 2248   0.900   3.465   1.124  0.1288  0.0294 -0.1758
  549SOL    HW2 2249   0.822   3.512   1.152  1.0649  1.9516 -0.6863
  549SOL    HW3 2250   0.900   3.472   1.029  0.5810 -0.5151 -0.2186
  549SOL    MW4 2251   0.890   3.472   1.115  0.3119  0.2108 -0.2490
  550SOL     OW 2252   1.125   3.566   1.261 -0.1284  0.0053 -0.2613
  550SOL    HW2 2253   1.210   3.554   1.218  0.9871 -1.2844  2.1872
  550SOL    HW3 2254   1.066   3.508   1.213  1.1590 -1.6670  0.1271
  550SOL    MW4 2255   1.129   3.557   1.249  0.1888 -0.3855  0.1130
  551SOL     OW 2256   1.074   3.836   1.154  0.1311 -0.1710 -0.2533
  551SOL    HW2 2257   1.002   3.881   1.198 -1.0685 -0.4964 -1.8576
  551SOL    HW3 2258   1.072   3.747   1.191  0.7909  0.2910  0.9270
  551SOL    MW4 2259   1.064   3.830   1.165  0.0600 -0.1526 -0.3091
  552SOL     OW 2260   0.875   4.001   1.251  0.2121 -0.5172 -0.6402
  552SOL    HW2 2261   0.881   4.008   1.346  1.0300 -0.4110 -0.6968
  552SOL    HW3 2262   0.802   3.941   1.236 -1.4235  1.2887 -0.0104
  552SOL    MW4 2263   0.866   3.994   1.262  0.1043 -0.2654 -0.5646
  553SOL     OW 2264   0.886   4.271   1.168  0.0699  0.2358  0.1927
  553SOL    HW2 2265   0.883   4.177   1.189  2.6945 -0.0035 -0.3073
  553SOL    HW3 2266   0.894   4.274   1.072  2.9115  0.8283  0.3988
  553SOL    MW4 2267   0.887   4.259   1.158  0.7911  0.2828  0.1540
  554SOL     OW 2268   1.106   4.407   1.268  0.4006  0.0797  0.2457
  554SOL    HW2 2269   1.106   4.400   1.363  2.4726  0.9455  0.3389
  554SOL    HW3 2270   1.022   4.370   1.241 -0.1704 -0.2524  2.3942
  554SOL    MW4 2271   1.095   4.401   1.277  0.5987  0.1497  0.5416
  555SOL     OW 2272   1.525   4.611   1.124  0.1351 -0.3369  0.2875
  555SOL    HW2 2273   1.598   4.650   1.171 -0.0029  0.4285 -0.1235
  555SOL    HW3 2274   1.518   4.522   1.159 -0.0771  0.2767  1.8469
  555SOL    MW4 2275   1.534   4.604   1.135  0.0889 -0.1550  0.4389
  556SOL     OW 2276   1.345   0.124   1.239  0.4774 -0.0479 -0.8872
  556SOL    HW2 2277   1.398   0.055   1.199  0.0254 -0.8850 -0.0638
  556SOL    HW3 2278   1.257   0.109   1.206  0.2352 -0.3241 -0.1417
  556SOL    MW4 2279   1.340   0.113   1.230  0.3858 -0.1948 -0.6802
  557SOL     OW 2280   1.313   0.381   1.122 -0.2173 -0.2151 -0.5757
  557SOL    HW2 2281   1.323   0.292   1.157 -0.8138 -0.3966 -0.8746
  557SOL    HW3 2282   1.228   0.410   1.153 -1.0084 -0.5961 -2.3679
  557SOL    MW4 2283   1.303   0.373   1.131 -0.4004 -0.2893 -0.8514
  558SOL     OW 2284   1.526   0.517   1.234 -0.3131  0.3874 -0.2952
  558SOL    HW2 2285   1.528   0.602   1.190  1.0116  0.5138  0.0034
  558SOL    HW3 2286   1.444   0.477   1.203  0.1652  0.8122 -2.2167
  558SOL    MW4 2287   1.515   0.523   1.224 -0.0752  0.4601 -0.5091
  559SOL     OW 2288   1.585   0.759   1.118 -0.8340 -0.0779 -0.9039
  559SOL    HW2 2289   1.664   0.807   1.143 -0.5901 -0.4492 -0.9601
  559SOL    HW3 2290   1.583   0.765   1.023 -1.7203  1.2675 -0.8144
  559SOL    MW4 2291   1.595   0.766   1.109 -0.9187  0.0506 -0.8994
  560SOL     OW 2292   1.362   0.883   1.233  0.0089  0.0085 -0.2623
  560SOL    HW2 2293   1.437   0.843   1.190  0.2775 -0.5514  0.7200
  560SOL    HW3 2294   1.292   0.818   1.224  0.1458 -0.2308  0.3968
  560SOL    MW4 2295   1.363   0.869   1.226  0.0625 -0.0970 -0.0457
  561SOL     OW 2296   1.310   1.145   1.153 -0.4235  0.2108  0.0491
  561SOL    HW2 2297   1.326   1.051   1.155 -2.3367 -0.1674 -0.9674
  561SOL    HW3 2298   1.318   1.169   1.061 -1.5170  0.7342  0.0799
  561SOL    MW4 2299   1.313   1.136   1.141 -0.8200  0.2298 -0.0809
  562SOL     OW 2300   1.567   1.290   1.232  0.0713 -0.0654  0.0093
  562SOL    HW2 2301   1.635   1.237   1.190 -0.5951 -0.6211 -0.3597
  562SOL    HW3 2302   1.486   1.244   1.215 -0.4510  0.7903  0.1553
  562SOL    MW4 2303   1.566   1.277   1.224 -0.0855 -0.0257 -0.0201
  563SOL     OW 2304   1.658   1.521   1.112  0.1593  0.5680  0.1690
  563SOL    HW2 2305   1.685   1.579   1.183 -0.3187  0.5034  0.4102
  563SOL    HW3 2306   1.631   1.440   1.157 -2.3851  1.3399  0.1289
  563SOL    MW4 2307   1.658   1.518   1.127 -0.2394  0.6614  0.1957
  564SOL     OW 2308   1.393   1.620   1.211 -0.6409 -0.2062 -0.3685
  564SOL    HW2 2309   1.462   1.570   1.167 -0.4290  0.7645 -1.1656
  564SOL    HW3 2310   1.312   1.575   1.187 -0.4250 -0.3876 -0.7708
  564SOL    MW4 2311   1.391   1.607   1.202 -0.5846 -0.1022 -0.5269
  565SOL     OW 2312   1.339   1.910   1.094 -0.4845  0.0951 -0.3345
  565SOL    HW2 2313   1.366   1.827   1.133  2.3602  1.8967  1.7606
  565SOL    HW3 2314   1.264   1.938   1.145  0.4786  0.2745  1.0125
  565SOL    MW4 2315   1.333   1.903   1.105  0.0178  0.3566  0.1198
  566SOL     OW 2316   1.571   2.084   1.159 -0.1403 -0.8978 -0.0217
  566SOL    HW2 2317   1.558   2.175   1.132  1.6460 -0.5182  0.3671
  566SOL    HW3 2318   1.498   2.037   1.118 -0.0014  0.3885 -1.8168
  566SOL    MW4 2319   1.560   2.090   1.150  0.1137 -0.6781 -0.2073
  567SOL     OW 2320   1.595   2.345   1.108  0.4499 -0.0226  0.3443
  567SOL    HW2 2321   1.522   2.384   1.156  0.1681 -1.1474  0.8257
  567SOL    HW3 2322   1.558   2.322   1.023  0.7076  1.0630 -0.0793
  567SOL    MW4 2323   1.581   2.347   1.103  0.4468 -0.0279  0.3519
  568SOL     OW 2324   1.367   2.459   1.247 -0.1026 -0.3565  0.0740
  568SOL    HW2 2325   1.368   2.465   1.343  0.1156  0.3265  0.0336
  568SOL    HW3 2326   1.336   2.545   1.218 -0.1541 -0.5560 -0.4672
  568SOL    MW4 2327   1.363   2.471   1.256 -0.0806 -0.2928 -0.0026
  569SOL     OW 2328   1.355   2.734   1.091 -0.2293  0.2386  0.3054
  569SOL    HW2 2329   1.432   2.760   1.142  0.2453  1.2769 -0.9032
  569SOL    HW3 2330   1.282   2.773   1.138 -0.0203 -0.6969  1.4253
  569SOL    MW4 2331   1.356   2.743   1.104 -0.1391  0.2522  0.2936
  570SOL     OW 2332   1.535   2.825   1.276  0.1508  0.3439 -0.1063
  570SOL    HW2 2333   1.612   2.775   1.252  0.9109  0.9163  1.0761
  570SOL    HW3 2334   1.557   2.916   1.255 -0.2141  0.5055  0.1977
  570SOL    MW4 2335   1.548   2.831   1.270  0.2030  0.4406  0.0899
  571SOL     OW 2336   1.602   3.071   1.155  0.2123 -0.4664 -0.2555
  571SOL    HW2 2337   1.681   3.122   1.170  0.7068 -1.2671 -0.0977
  571SOL    HW3 2338   1.532   3.121   1.198  0.5663  0.4244 -0.7132
  571SOL    MW4 2339   1.603   3.084   1.163  0.3242 -0.4544 -0.2949
  572SOL     OW 2340   1.395   3.225   1.256 -0.2906  0.0273  0.0474
  572SOL    HW2 2341   1.406   3.200   1.348  0.3885  0.7420  0.1577
  572SOL    HW3 2342   1.307   3.193   1.233  0.0613 -1.3133  0.5575
  572SOL    MW4 2343   1.385   3.218   1.265 -0.1545 -0.0551  0.1292
  573SOL     OW 2344   1.377   3.482   1.159  0.1775 -0.3707 -0.0418
  573SOL    HW2 2345   1.391   3.396   1.199  1.0344 -0.3121 -0.2013
  573SOL    HW3 2346   1.395   3.469   1.066 -0.9984 -0.3156 -0.2799
  573SOL    MW4 2347   1.382   3.469   1.152  0.1354 -0.3555 -0.0943
  574SOL     OW 2348   1.582   3.629   1.299 -0.0093 -0.2522 -0.2867
  574SOL    HW2 2349   1.574   3.724   1.291 -1.2857 -0.2293  0.9297
  574SOL    HW3 2350   1.515   3.594   1.241  0.5179 -0.4099 -0.7994
  574SOL    MW4 2351   1.572   3.636   1.290 -0.1081 -0.2699 -0.1940
  575SOL     OW 2352   1.532   3.889   1.228 -0.0827 -0.0910 -0.2213
  575SOL    HW2 2353   1.449   3.935   1.240 -0.2015 -0.1719 -0.7378
  575SOL    HW3 2354   1.539   3.877   1.134 -0.0358 -1.0843 -0.0975
  575SOL    MW4 2355   1.522   3.893   1.217 -0.0921 -0.2327 -0.2731
  576SOL     OW 2356   1.275   3.994   1.280  0.0268  0.2241 -0.1922
  576SOL    HW2 2357   1.245   4.079   1.246  1.4763  0.7226 -0.2660
  576SOL    HW3 2358   1.219   3.930   1.237 -0.4702  1.0939 -0.8597
  576SOL    MW4 2359   1.264   3.997   1.269  0.1525  0.4041 -0.2899
  577SOL     OW 2360   1.313   4.252   1.139 -0.5291  0.3043 -0.0412
  577SOL    HW2 2361   1.237   4.308   1.156 -1.1244 -0.2495 -0.8177
  577SOL    HW3 2362   1.306   4.229   1.046  0.1074 -0.4646  0.0894
  577SOL    MW4 2363   1.302   4.256   1.129 -0.5237  0.1302 -0.1265
  578SOL     OW 2364   1.544   4.354   1.233 -0.0853 -0.7551 -0.1425
  578SOL    HW2 2365   1.543   4.348   1.328  0.5321 -1.0583 -0.1541
  578SOL    HW3 2366   1.459   4.319   1.205 -1.1625  1.3629  0.4119
  578SOL    MW4 2367   1.533   4.349   1.242 -0.1459 -0.5155 -0.0708
  579SOL     OW 2368   1.991   4.665   1.205 -0.1015  0.2715  0.1836
  579SOL    HW2 2369   2.008   4.573   1.224  3.0179  1.0794  1.5230
  579SOL    HW3 2370   1.993   4.671   1.109 -2.1038 -1.3223  0.0107
  579SOL    MW4 2371   1.994   4.654   1.195  0.0459  0.1678  0.3375
  580SOL     OW 2372   1.730   0.072   1.251 -0.4561  0.1279  0.1158
  580SOL    HW2 2373   1.713   0.160   1.217 -0.1792 -0.0550 -0.5112
  580SOL    HW3 2374   1.825   0.061   1.242 -0.5141 -0.3033  0.0172
  580SOL    MW4 2375   1.740   0.082   1.245 -0.4271  0.0469  0.0200
  581SOL     OW 2376   1.729   0.330   1.145 -0.0318 -0.1253  0.3184
  581SOL    HW2 2377   1.663   0.394   1.170 -0.6914 -0.9469  0.7386
  581SOL    HW3 2378   1.728   0.330   1.050  0.1218  0.6416  0.3174
  581SOL    MW4 2379   1.720   0.338   1.136 -0.0986 -0.1326  0.3736
  582SOL     OW 2380   2.028   0.447   1.197  0.3185  0.1668  0.3933
  582SOL    HW2 2381   2.028   0.462   1.291  0.7283 -0.7791  0.5565
  582SOL    HW3 2382   1.942   0.410   1.178  1.2064 -2.2821  0.8723
  582SOL    MW4 2383   2.017   0.444   1.207  0.4897 -0.2811  0.4779
  583SOL     OW 2384   2.027   0.725   1.111  0.1008 -0.2570 -0.2626
  583SOL    HW2 2385   2.031   0.633   1.137 -0.4061 -0.2952 -0.3182
  583SOL    HW3 2386   2.012   0.723   1.016 -1.1522 -0.1239 -0.0773
  583SOL    MW4 2387   2.026   0.713   1.102 -0.1316 -0.2446 -0.2456
  584SOL     OW 2388   1.817   0.890   1.193 -0.0107 -0.0229 -0.2112
  584SOL    HW2 2389   1.816   0.908   1.287  1.0471 -0.0295 -0.1939
  584SOL    HW3 2390   1.897   0.840   1.179 -0.1568 -0.0118 -1.1245
  584SOL    MW4 2391   1.827   0.885   1.204  0.1096 -0.0224 -0.3295
  585SOL     OW 2392   1.752   1.142   1.111 -0.3607  0.1095  0.8634
  585SOL    HW2 2393   1.781   1.054   1.133 -0.3803  0.0295  0.5699
  585SOL    HW3 2394   1.758   1.147   1.015 -3.0617 -0.5317  0.6224
  585SOL    MW4 2395   1.757   1.131   1.101 -0.7197  0.0145  0.7929
  586SOL     OW 2396   2.012   1.258   1.197  0.0848 -0.3292 -0.3169
  586SOL    HW2 2397   2.082   1.212   1.150 -0.6442 -1.1602 -0.6107
  586SOL    HW3 2398   1.931   1.218   1.165 -0.6337  1.8083 -1.2552
  586SOL    MW4 2399   2.011   1.246   1.187 -0.1063 -0.1568 -0.4793
  587SOL     OW 2400   2.012   1.535   1.122  0.3533 -0.3597  0.1118
  587SOL    HW2 2401   2.016   1.442   1.145  1.9073 -0.0032  1.3648
  587SOL    HW3 2402   1.983   1.535   1.030 -1.4351 -1.9863  0.6353
  587SOL    MW4 2403   2.009   1.522   1.113  0.3223 -0.5273  0.3462
  588SOL     OW 2404   1.850   1.690   1.277  0.5119  0.2069 -0.0543
  588SOL    HW2 2405   1.829   1.764   1.220 -1.8975 -0.9990 -0.7927
  588SOL    HW3 2406   1.900   1.631   1.222 -1.3220 -0.6915 -0.8104
  588SOL    MW4 2407   1.854   1.692   1.263 -0.0479 -0.0709 -0.2515
  589SOL     OW 2408   1.813   1.936   1.145  0.1598  0.4335  0.3556
  589SOL    HW2 2409   1.742   2.000   1.155  0.2372  0.5940 -0.1076
  589SOL    HW3 2410   1.812   1.914   1.052  0.4575  0.1322  0.4231
  589SOL    MW4 2411   1.803   1.942   1.134  0.2093  0.4148  0.3035
  590SOL     OW 2412   2.035   2.025   1.232 -0.1258 -0.0129 -0.0299
  590SOL    HW2 2413   2.030   2.039   1.326 -0.6488 -2.5818  0.3762
  590SOL    HW3 2414   1.948   1.991   1.208  0.2894 -0.2539 -1.2695
  590SOL    MW4 2415   2.023   2.022   1.241 -0.1400 -0.3836 -0.1398
  591SOL     OW 2416   2.040   2.280   1.142 -0.0235  0.4328  0.2588
  591SOL    HW2 2417   2.128   2.312   1.162 -0.1783  0.8217  0.3367
  591SOL    HW3 2418   2.041   2.188   1.167  0.0250  0.7171  1.3036
  591SOL    MW4 2419   2.052   2.272   1.148 -0.0377  0.5217  0.4069
  592SOL     OW 2420   1.827   2.436   1.229 -0.3034  0.2828 -0.3296
  592SOL    HW2 2421   1.904   2.382   1.210  0.0833  0.5480  0.4611
  592SOL    HW3 2422   1.756   2.393   1.182  0.5240  0.6436 -1.9788
  592SOL    MW4 2423   1.828   2.424   1.220 -0.1433  0.3650 -0.4429
  593SOL     OW 2424   1.763   2.697   1.173  0.3113 -0.4655  0.2621
  593SOL    HW2 2425   1.791   2.607   1.189  1.7843 -0.1688 -0.4893
  593SOL    HW3 2426   1.760   2.705   1.077  1.8551  0.7519  0.2925
  593SOL    MW4 2427   1.766   2.686   1.162  0.7094 -0.2658  0.1670
  594SOL     OW 2428   1.994   2.831   1.261  0.1072 -0.1149 -0.1593
  594SOL    HW2 2429   1.999   2.908   1.205  0.3559 -1.0424 -1.4225
  594SOL    HW3 2430   1.921   2.780   1.226  0.5159 -0.8970  0.1134
  594SOL    MW4 2431   1.985   2.834   1.249  0.1938 -0.3405 -0.2900
  595SOL     OW 2432   2.028   3.072   1.131 -0.2377  0.3615 -0.0746
  595SOL    HW2 2433   1.944   3.118   1.141 -0.1541  0.4260  0.3402
  595SOL    HW3 2434   2.048   3.078   1.038 -1.4763 -1.0117 -0.4478
  595SOL    MW4 2435   2.019   3.079   1.120 -0.3903  0.1891 -0.0691
  596SOL     OW 2436   1.822   3.248   1.221  0.2717  0.2055 -0.4569
  596SOL    HW2 2437   1.803   3.242   1.315  1.7517 -0.2149 -0.1855
  596SOL    HW3 2438   1.827   3.342   1.204  0.7904  0.2731  0.0478
  596SOL    MW4 2439   1.820   3.259   1.231  0.5354  0.1588 -0.3545
  597SOL     OW 2440   1.807   3.531   1.177 -0.0149  0.4321 -0.3675
  597SOL    HW2 2441   1.880   3.576   1.220  1.4394 -0.9796 -1.2890
  597SOL    HW3 2442   1.729   3.567   1.218  1.1559  2.6351  0.0177
  597SOL    MW4 2443   1.806   3.542   1.188  0.3315  0.5362 -0.4381
  598SOL     OW 2444   2.034   3.649   1.277  0.1231  0.6863  0.1167
  598SOL    HW2 2445   2.041   3.640   1.372 -1.9309 -0.2918  0.1982
  598SOL    HW3 2446   2.090   3.580   1.242  0.3498  0.6074  0.6298
  598SOL    MW4 2447   2.042   3.639   1.285 -0.1178  0.5467  0.1953
  599SOL     OW 2448   2.015   3.887   1.173 -0.0716 -0.0429  0.1726
  599SOL    HW2 2449   1.933   3.928   1.200 -0.2256 -0.8547  0.9815
  599SOL    HW3 2450   2.018   3.805   1.222  0.2502 -0.9730 -1.3817
  599SOL    MW4 2451   2.005   3.881   1.183 -0.0496 -0.2723  0.0744
  600SOL     OW 2452   1.783   4.018   1.276  0.1375  0.2853  0.1153
  600SOL    HW2 2453   1.797   3.999   1.369 -0.3616 -1.6268 -0.1711
  600SOL    HW3 2454   1.691   3.996   1.260  0.7575 -1.4417 -1.2843
  600SOL    MW4 2455   1.773   4.013   1.286  0.1535 -0.1950 -0.1072
  601SOL     OW 2456   1.797   4.270   1.135 -0.2146 -0.0433 -0.0779
  601SOL    HW2 2457   1.781   4.184   1.174  0.7239  0.1547  0.7680
  601SOL    HW3 2458   1.714   4.317   1.148 -0.9143 -0.9890 -1.0361
  601SOL    MW4 2459   1.784   4.265   1.142 -0.1832 -0.1421 -0.0926
  602SOL     OW 2460   2.032   4.392   1.258  0.0117 -0.3664  0.3853
  602SOL    HW2 2461   2.010   4.395   1.352  0.0002 -0.7828  0.3963
  602SOL    HW3 2462   1.959   4.343   1.219  0.5287 -1.0862  0.3103
  602SOL    MW4 2463   2.019   4.386   1.265  0.0782 -0.5164  0.3768
  603SOL     OW 2464   2.447   4.601   1.152 -0.1302  0.0470 -0.0357
  603SOL    HW2 2465   2.498   4.669   1.198 -0.0762 -1.0038  1.4994
  603SOL    HW3 2466   2.357   4.632   1.157 -0.2151 -0.3835  1.4139
  603SOL    MW4 2467   2.442   4.614   1.159 -0.1340 -0.1483  0.3580
  604SOL     OW 2468   2.233   0.095   1.235  0.0963 -0.5046  0.1824
  604SOL    HW2 2469   2.235   0.183   1.196  1.0917 -1.0421 -1.0490
  604SOL    HW3 2470   2.142   0.068   1.228  0.0904 -0.2262 -0.9810
  604SOL    MW4 2471   2.222   0.103   1.229  0.2272 -0.5388 -0.1335
  605SOL     OW 2472   2.273   0.354   1.106 -0.1254  0.0975  0.0700
  605SOL    HW2 2473   2.191   0.387   1.141 -1.4074 -2.5678 -0.2566
  605SOL    HW3 2474   2.260   0.351   1.011  0.8023  0.8196 -0.0891
  605SOL    MW4 2475   2.261   0.358   1.098 -0.1721 -0.1589  0.0058
  606SOL     OW 2476   2.475   0.496   1.204 -0.0210 -0.0399 -0.5845
  606SOL    HW2 2477   2.454   0.514   1.296 -0.6461  0.1875 -0.7694
  606SOL    HW3 2478   2.400   0.448   1.171 -0.4180  1.0766 -1.3400
  606SOL    MW4 2479   2.462   0.492   1.212 -0.1559  0.1374 -0.7087
  607SOL     OW 2480   2.504   0.730   1.095 -0.1182  0.0422  0.0024
  607SOL    HW2 2481   2.499   0.636   1.112 -0.5299  0.1468  0.4344
  607SOL    HW3 2482   2.494   0.737   1.000  0.4571 -0.3903 -0.0969
  607SOL    MW4 2483   2.502   0.718   1.085 -0.0966 -0.0010  0.0463
  608SOL     OW 2484   2.250   0.872   1.208 -0.2368 -0.2214  0.4233
  608SOL    HW2 2485   2.331   0.834   1.174 -0.4313  0.0870 -0.3823
  608SOL    HW3 2486   2.180   0.824   1.164 -0.4841  0.4344  0.1011
  608SOL    MW4 2487   2.251   0.861   1.198 -0.2952 -0.0941  0.2743
  609SOL     OW 2488   2.223   1.109   1.091  0.3105 -0.1388 -0.0896
  609SOL    HW2 2489   2.294   1.160   1.130  0.3768 -0.5852  0.3824
  609SOL    HW3 2490   2.229   1.023   1.133  0.1634 -0.5211 -0.8320
  609SOL    MW4 2491   2.233   1.105   1.102  0.3002 -0.2481 -0.1253
  610SOL     OW 2492   2.441   1.246   1.194 -0.0783  0.3572 -0.3081
  610SOL    HW2 2493   2.522   1.196   1.187 -0.5712 -0.7503  1.4172
  610SOL    HW3 2494   2.458   1.328   1.147  1.2375 -0.8265 -1.9432
  610SOL    MW4 2495   2.454   1.250   1.187  0.0303  0.0548 -0.2962
  611SOL     OW 2496   2.487   1.502   1.087  0.6285  0.5141  0.0298
  611SOL    HW2 2497   2.404   1.542   1.113  0.4010 -0.3581  0.6646
  611SOL    HW3 2498   2.489   1.510   0.992  0.6370  2.1129  0.1617
  611SOL    MW4 2499   2.476   1.508   1.078  0.5996  0.6099  0.1309
  612SOL     OW 2500   2.262   1.639   1.194  0.1781 -0.2032  0.1221
  612SOL    HW2 2501   2.257   1.732   1.173  1.7064 -0.3424 -0.9522
  612SOL    HW3 2502   2.180   1.602   1.162  0.3350  0.4696 -1.0842
  612SOL    MW4 2503   2.250   1.646   1.187  0.4003 -0.1329 -0.1787
  613SOL     OW 2504   2.269   1.907   1.102  0.2685 -0.1742 -0.4615
  613SOL    HW2 2505   2.191   1.941   1.146  0.6776 -0.2847  0.3553
  613SOL    HW3 2506   2.259   1.935   1.011 -1.0603 -0.7776 -0.5099
  613SOL    MW4 2507   2.258   1.915   1.096  0.1469 -0.2683 -0.3600
  614SOL     OW 2508   2.461   2.064   1.222 -0.3989 -0.1095  0.3024
  614SOL    HW2 2509   2.541   2.018   1.196 -0.5396 -0.5849  0.7120
  614SOL    HW3 2510   2.390   2.009   1.189 -0.5974 -1.1931  2.4676
  614SOL    MW4 2511   2.462   2.051   1.214 -0.4437 -0.3152  0.6421
  615SOL     OW 2512   2.503   2.333   1.149 -0.2593  0.3160 -0.2612
  615SOL    HW2 2513   2.490   2.242   1.177  1.0577 -0.2871 -1.5366
  615SOL    HW3 2514   2.497   2.330   1.054  0.2028  1.4969 -0.3358
  615SOL    MW4 2515   2.501   2.321   1.140 -0.0246  0.3922 -0.4394
  616SOL     OW 2516   2.263   2.449   1.233  0.5412  0.3206  0.4412
  616SOL    HW2 2517   2.261   2.453   1.328  0.2993  0.8576  0.4167
  616SOL    HW3 2518   2.354   2.429   1.211  0.6501  0.4505  0.7754
  616SOL    MW4 2519   2.275   2.447   1.242  0.5236  0.4084  0.4818
  617SOL     OW 2520   2.216   2.690   1.132 -0.1767  0.1483 -0.3834
  617SOL    HW2 2521   2.221   2.602   1.170  1.0000  0.1947 -0.3984
  617SOL    HW3 2522   2.149   2.735   1.183 -0.3360 -0.5606  0.0386
  617SOL    MW4 2523   2.208   2.684   1.143 -0.0424  0.0608 -0.3296
  618SOL     OW 2524   2.465   2.788   1.267  0.0400  0.4250  0.0745
  618SOL    HW2 2525   2.469   2.800   1.362  1.3467  1.4802 -0.0978
  618SOL    HW3 2526   2.380   2.746   1.251 -0.8074  1.5325  1.5716
  618SOL    MW4 2527   2.454   2.784   1.277  0.1006  0.7102  0.2491
  619SOL     OW 2528   2.461   3.051   1.200 -0.2921  0.1583 -0.0185
  619SOL    HW2 2529   2.378   3.089   1.230  0.1240 -0.0455  1.4639
  619SOL    HW3 2530   2.450   2.957   1.211  0.0326  0.1125 -0.0764
  619SOL    MW4 2531   2.449   3.044   1.206 -0.1945  0.1254  0.1694
  620SOL     OW 2532   2.228   3.200   1.274  0.0750 -0.2503  0.0951
  620SOL    HW2 2533   2.230   3.280   1.222  0.1973 -0.9108 -0.9206
  620SOL    HW3 2534   2.159   3.147   1.235  1.7483 -1.7639 -0.9326
  620SOL    MW4 2535   2.219   3.204   1.262  0.3119 -0.5372 -0.1745
  621SOL     OW 2536   2.227   3.464   1.167  0.0071 -0.1195  0.1956
  621SOL    HW2 2537   2.312   3.504   1.187 -1.1581  2.8318 -0.5435
  621SOL    HW3 2538   2.228   3.450   1.073  0.2624 -1.5559  0.3996
  621SOL    MW4 2539   2.238   3.467   1.157 -0.1128  0.0803  0.1249
  622SOL     OW 2540   2.443   3.613   1.217  0.2919 -0.0727 -0.0486
  622SOL    HW2 2541   2.471   3.604   1.308 -0.6262  0.4083  0.2922
  622SOL    HW3 2542   2.448   3.707   1.200  0.8144 -0.1988 -0.6178
  622SOL    MW4 2543   2.447   3.624   1.226  0.2398 -0.0260 -0.0787
  623SOL     OW 2544   2.467   3.890   1.152  0.3816  0.0510 -0.5654
  623SOL    HW2 2545   2.386   3.932   1.180  0.6163  0.9308 -1.1698
  623SOL    HW3 2546   2.462   3.889   1.056  0.6728 -0.7241 -0.5783
  623SOL    MW4 2547   2.456   3.896   1.143  0.4511  0.0648 -0.6467
  624SOL     OW 2548   2.230   4.027   1.255  0.4508  0.3298 -0.6476
  624SOL    HW2 2549   2.227   4.111   1.209 -0.0127 -0.3198 -1.8415
  624SOL    HW3 2550   2.154   3.979   1.222  1.4658 -1.0710 -0.9998
  624SOL    MW4 2551   2.219   4.032   1.244  0.5236  0.0596 -0.8516
  625SOL     OW 2552   2.238   4.259   1.125 -0.1149 -1.1683  0.2896
  625SOL    HW2 2553   2.174   4.316   1.168  1.6383  1.2980 -0.3232
  625SOL    HW3 2554   2.220   4.269   1.032  1.3964 -0.1750  0.0970
  625SOL    MW4 2555   2.227   4.268   1.118  0.3159 -0.7119  0.1833
  626SOL     OW 2556   2.450   4.353   1.283 -0.4181  0.0753 -0.1534
  626SOL    HW2 2557   2.385   4.311   1.226  1.5394 -1.7143 -1.1239
  626SOL    HW3 2558   2.472   4.435   1.238  0.3568 -0.8337 -1.4471
  626SOL    MW4 2559   2.444   4.358   1.270 -0.0577 -0.2809 -0.4522
  627SOL     OW 2560   2.888   4.663   1.157 -0.6712  0.0713  0.4785
  627SOL    HW2 2561   2.887   4.582   1.208  1.0490 -2.0026 -2.6183
  627SOL    HW3 2562   2.874   4.635   1.066 -0.9128  3.3432 -0.5891
  627SOL    MW4 2563   2.886   4.649   1.151 -0.4761  0.2294 -0.0709
  628SOL     OW 2564   2.636   0.100   1.267 -0.1009  0.1453  0.1101
  628SOL    HW2 2565   2.648   0.086   1.361 -0.7944  1.3486  0.3848
  628SOL    HW3 2566   2.721   0.080   1.228 -0.0036 -1.0391  0.9112
  628SOL    MW4 2567   2.648   0.095   1.274 -0.1798  0.1478  0.2521
  629SOL     OW 2568   2.702   0.354   1.177 -0.1426  0.0445  0.0343
  629SOL    HW2 2569   2.674   0.277   1.227 -0.9829  0.4927  0.2465
  629SOL    HW3 2570   2.634   0.419   1.192  0.2570  0.6258 -0.6480
  629SOL    MW4 2571   2.690   0.352   1.186 -0.2007  0.1803 -0.0277
  630SOL     OW 2572   2.952   0.448   1.201  0.0966 -0.4704  0.0607
  630SOL    HW2 2573   2.941   0.534   1.161  0.3763 -0.0009  0.9654
  630SOL    HW3 2574   2.875   0.399   1.174 -0.2390  0.1797 -0.1830
  630SOL    MW4 2575   2.941   0.453   1.192  0.0894 -0.3227  0.1478
  631SOL     OW 2576   2.937   0.715   1.125 -0.5337 -0.0381  0.0165
  631SOL    HW2 2577   3.013   0.769   1.145 -0.4626 -0.1850  0.1444
  631SOL    HW3 2578   2.865   0.757   1.172 -0.5463  0.1432 -0.1641
  631SOL    MW4 2579   2.938   0.728   1.134 -0.5257 -0.0336  0.0095
  632SOL     OW 2580   2.717   0.860   1.217  0.3414 -0.1802 -0.1910
  632SOL    HW2 2581   2.718   0.951   1.187  1.7203  0.2359  1.0771
  632SOL    HW3 2582   2.645   0.820   1.168  0.0234  1.4643 -1.1174
  632SOL    MW4 2583   2.708   0.867   1.207  0.4814  0.0917 -0.1460
  633SOL     OW 2584   2.702   1.127   1.167  0.1615 -0.3308 -0.0435
  633SOL    HW2 2585   2.775   1.182   1.196 -1.5710  2.3222 -0.5435
  633SOL    HW3 2586   2.710   1.125   1.072 -0.4369  0.0214 -0.1029
  633SOL    MW4 2587   2.713   1.134   1.158 -0.1459  0.0657 -0.1173
  634SOL     OW 2588   2.939   1.257   1.236 -0.1117  0.0002  0.2544
  634SOL    HW2 2589   2.970   1.269   1.326 -0.4843  1.1032  0.2454
  634SOL    HW3 2590   2.927   1.346   1.203  0.4415 -0.3942 -1.0361
  634SOL    MW4 2591   2.942   1.270   1.243 -0.0877  0.0938  0.0830
  635SOL     OW 2592   2.917   1.513   1.143 -0.2295 -0.1350  0.4408
  635SOL    HW2 2593   3.000   1.550   1.173 -0.0722 -0.2441  0.1416
  635SOL    HW3 2594   2.920   1.521   1.048 -1.5201  1.9059  0.5382
  635SOL    MW4 2595   2.928   1.519   1.134 -0.3791  0.1199  0.4141
  636SOL     OW 2596   2.687   1.647   1.233  0.2902  0.4587  0.2426
  636SOL    HW2 2597   2.763   1.600   1.198  0.2327  2.2625 -2.4796
  636SOL    HW3 2598   2.612   1.609   1.186 -0.7471 -2.2117  3.8260
  636SOL    MW4 2599   2.687   1.636   1.222  0.1457  0.3443  0.3562
  637SOL     OW 2600   2.681   1.912   1.126  0.7808  0.4770  0.0447
  637SOL    HW2 2601   2.762   1.941   1.168  0.1143  0.1043  1.6102
  637SOL    HW3 2602   2.674   1.819   1.147  0.1337  0.4152 -0.4042
  637SOL    MW4 2603   2.691   1.904   1.134  0.6075  0.4199  0.1920
  638SOL     OW 2604   2.923   2.035   1.221 -0.2016  0.3361 -0.3576
  638SOL    HW2 2605   2.934   2.031   1.316 -0.8543  1.4023 -0.2370
  638SOL    HW3 2606   2.938   2.127   1.199 -2.1033  0.4972 -1.0298
  638SOL    MW4 2607   2.927   2.047   1.231 -0.5388  0.4981 -0.4302
  639SOL     OW 2608   2.919   2.304   1.144  0.0898  0.4436  0.0207
  639SOL    HW2 2609   2.990   2.361   1.174  0.6015 -0.1988  0.0497
  639SOL    HW3 2610   2.840   2.340   1.186  0.5720  0.4633  0.9275
  639SOL    MW4 2611   2.918   2.316   1.154  0.2210  0.3614  0.1442
  640SOL     OW 2612   2.723   2.480   1.254 -0.3877 -0.3992  0.3861
  640SOL    HW2 2613   2.706   2.487   1.348 -1.3910 -1.3431  0.2806
  640SOL    HW3 2614   2.650   2.428   1.220 -1.1859  1.7301 -1.2665
  640SOL    MW4 2615   2.711   2.474   1.262 -0.6251 -0.2432  0.1541
  641SOL     OW 2616   2.686   2.717   1.130 -0.1499 -0.5137 -0.4036
  641SOL    HW2 2617   2.704   2.639   1.181  0.1272  0.7899  1.5381
  641SOL    HW3 2618   2.596   2.740   1.151 -0.3862 -0.5582 -1.3298
  641SOL    MW4 2619   2.677   2.710   1.139 -0.1447 -0.3474 -0.2697
  642SOL     OW 2620   2.907   2.869   1.249  0.3878  0.0059  0.1530
  642SOL    HW2 2621   2.903   2.884   1.343 -1.1109  0.4389  0.0302
  642SOL    HW3 2622   2.830   2.816   1.229 -0.1000  1.1236 -1.0409
  642SOL    MW4 2623   2.897   2.864   1.259  0.1259  0.2103 -0.0207
  643SOL     OW 2624   2.907   3.128   1.158  0.2439 -0.2072 -0.3103
  643SOL    HW2 2625   2.905   3.039   1.194  0.7200  0.5558  1.6885
  643SOL    HW3 2626   2.894   3.116   1.064  0.1299 -2.3754 -0.0538
  643SOL    MW4 2627   2.905   3.114   1.150  0.2918 -0.3927 -0.0128
  644SOL     OW 2628   2.669   3.245   1.241  0.6253 -0.1434 -0.0403
  644SOL    HW2 2629   2.752   3.212   1.206  0.3936 -0.5025 -0.2550
  644SOL    HW3 2630   2.608   3.172   1.233  0.5449 -0.1968  1.0437
  644SOL    MW4 2631   2.672   3.231   1.235  0.5841 -0.1979  0.0745
  645SOL     OW 2632   2.662   3.495   1.085 -0.0148  0.2169  0.2061
  645SOL    HW2 2633   2.660   3.405   1.117  0.1464  0.3458  0.5713
  645SOL    HW3 2634   2.591   3.539   1.133  0.4122  0.4809  0.5900
  645SOL    MW4 2635   2.652   3.489   1.095  0.0627  0.2687  0.3049
  646SOL     OW 2636   2.864   3.564   1.251 -0.4792 -0.2387  0.2597
  646SOL    HW2 2637   2.948   3.522   1.231 -0.3928 -0.4514  1.0429
  646SOL    HW3 2638   2.806   3.535   1.181 -0.0721 -0.6099  0.0698
  646SOL    MW4 2639   2.868   3.554   1.239 -0.4141 -0.3157  0.3381
  647SOL     OW 2640   2.868   3.825   1.135  0.0114  0.2792 -0.1828
  647SOL    HW2 2641   2.947   3.868   1.168 -0.6444 -0.0309  1.8473
  647SOL    HW3 2642   2.878   3.734   1.163 -1.7432  0.5462  1.4129
  647SOL    MW4 2643   2.880   3.819   1.143 -0.3064  0.2735  0.2955
  648SOL     OW 2644   2.700   4.020   1.250 -0.5426 -0.0815 -0.3677
  648SOL    HW2 2645   2.764   3.954   1.225 -0.2731 -0.4250  1.1919
  648SOL    HW3 2646   2.617   3.987   1.216 -0.0376 -0.0831 -1.5991
  648SOL    MW4 2647   2.698   4.007   1.242 -0.4404 -0.1268 -0.3244
  649SOL     OW 2648   2.697   4.288   1.159  0.7051 -0.6377  0.2240
  649SOL    HW2 2649   2.716   4.197   1.179 -0.2489 -0.8670  0.0926
  649SOL    HW3 2650   2.609   4.303   1.192  0.5789  0.0349 -0.3911
  649SOL    MW4 2651   2.688   4.278   1.166  0.5627 -0.5789  0.1255
  650SOL     OW 2652   2.923   4.414   1.278  0.7625 -0.2879  0.0263
  650SOL    HW2 2653   2.993   4.368   1.231  0.3210 -1.3807  0.4319
  650SOL    HW3 2654   2.843   4.368   1.253  0.1425  1.1247 -0.6336
  650SOL    MW4 2655   2.922   4.402   1.268  0.6225 -0.2460 -0.0073
  651SOL     OW 2656   3.383   4.616   1.135 -0.1356  0.4207  0.8631
  651SOL    HW2 2657   3.455   4.669   1.169  0.6548 -0.4987  0.6539
  651SOL    HW3 2658   3.304   4.662   1.163  0.5318  1.3785  1.1995
  651SOL    MW4 2659   3.382   4.629   1.144  0.0570  0.4258  0.8798
  652SOL     OW 2660   3.135   0.053   1.246  0.0427  0.0890  0.0115
  652SOL    HW2 2661   3.134   0.053   1.342 -0.5189 -0.4336  0.0157
  652SOL    HW3 2662   3.043   0.042   1.222  0.0830  1.0903 -0.5958
  652SOL    MW4 2663   3.122   0.051   1.256 -0.0260  0.1521 -0.0679
  653SOL     OW 2664   3.180   0.312   1.165  0.1260 -0.3797  0.1558
  653SOL    HW2 2665   3.161   0.226   1.202 -1.2883  0.1959  0.7746
  653SOL    HW3 2666   3.100   0.363   1.178  0.0109  0.2288 -2.5692
  653SOL    MW4 2667   3.167   0.308   1.172 -0.0753 -0.2235 -0.1222
  654SOL     OW 2668   3.399   0.468   1.239  0.1770 -0.5612  0.6717
  654SOL    HW2 2669   3.406   0.556   1.203  0.2940 -0.4297  1.0098
  654SOL    HW3 2670   3.330   0.426   1.187  1.5179 -0.9442 -0.8245
  654SOL    MW4 2671   3.391   0.474   1.228  0.3693 -0.5943  0.5189
  655SOL     OW 2672   3.378   0.726   1.124 -0.4331  0.0549  0.2225
  655SOL    HW2 2673   3.300   0.768   1.160  0.5678  2.3867 -0.2435
  655SOL    HW3 2674   3.357   0.710   1.032 -1.0559 -1.0798  0.5576
  655SOL    MW4 2675   3.365   0.730   1.117 -0.3831  0.2128  0.2052
  656SOL     OW 2676   3.142   0.871   1.212  0.2313  0.2307  0.1946
  656SOL    HW2 2677   3.123   0.889   1.304 -2.0181  0.2132 -0.2507
  656SOL    HW3 2678   3.149   0.957   1.172 -0.4099  0.2216  0.0627
  656SOL    MW4 2679   3.141   0.885   1.219 -0.1502  0.2272  0.1184
  657SOL     OW 2680   3.151   1.133   1.123 -0.0438  0.2154  0.5353
  657SOL    HW2 2681   3.221   1.186   1.160 -0.9823  2.6189 -0.9529
  657SOL    HW3 2682   3.071   1.175   1.155 -0.8002 -0.8536  0.0480
  657SOL    MW4 2683   3.149   1.146   1.132 -0.2675  0.3915  0.2745
  658SOL     OW 2684   3.360   1.273   1.228 -0.4331  0.1260  0.4637
  658SOL    HW2 2685   3.343   1.287   1.322 -0.8666 -0.0817  0.4165
  658SOL    HW3 2686   3.352   1.361   1.190 -0.4269  0.1853  0.5962
  658SOL    MW4 2687   3.356   1.287   1.236 -0.4895  0.1065  0.4750
  659SOL     OW 2688   3.370   1.527   1.113  0.0099 -0.1726 -0.4219
  659SOL    HW2 2689   3.446   1.574   1.149 -0.8271  0.8195  0.0736
  659SOL    HW3 2690   3.295   1.569   1.154 -0.7322 -3.1645  1.4583
  659SOL    MW4 2691   3.370   1.539   1.123 -0.1984 -0.4365 -0.1086
  660SOL     OW 2692   3.141   1.632   1.230  0.2416  0.9072  0.1835
  660SOL    HW2 2693   3.126   1.634   1.325 -0.3012 -1.0384  0.1406
  660SOL    HW3 2694   3.120   1.721   1.201  2.2910  2.0991  2.1551
  660SOL    MW4 2695   3.136   1.644   1.239  0.4404  0.8076  0.4379
  661SOL     OW 2696   3.160   1.902   1.129  0.2238 -0.3804  0.4077
  661SOL    HW2 2697   3.240   1.945   1.159  0.1744  0.4158 -0.6108
  661SOL    HW3 2698   3.089   1.958   1.160 -0.0501 -1.8950  2.6893
  661SOL    MW4 2699   3.161   1.915   1.137  0.1814 -0.4752  0.5744
  662SOL     OW 2700   3.390   2.014   1.230 -0.0372  0.3488  0.6676
  662SOL    HW2 2701   3.468   1.960   1.223 -0.7933 -0.7329  0.4573
  662SOL    HW3 2702   3.413   2.095   1.185  1.0831  0.1848  0.9195
  662SOL    MW4 2703   3.403   2.017   1.223  0.0107  0.1843  0.6731
  663SOL     OW 2704   3.355   2.284   1.146  0.0911  0.4687  0.1686
  663SOL    HW2 2705   3.425   2.340   1.179  0.1069 -0.2762  1.4155
  663SOL    HW3 2706   3.274   2.330   1.170  0.1301  1.3591 -1.3259
  663SOL    MW4 2707   3.353   2.298   1.154  0.0982  0.4880  0.1359
  664SOL     OW 2708   3.139   2.440   1.223  0.1695 -0.3881  0.4279
  664SOL    HW2 2709   3.166   2.439   1.315 -0.2821 -0.1181  0.5643
  664SOL    HW3 2710   3.131   2.533   1.201 -1.4468 -0.4708  0.6318
  664SOL    MW4 2711   3.142   2.452   1.233 -0.1032 -0.3633  0.4728
  665SOL     OW 2712   3.112   2.703   1.151 -0.0568  0.0764 -0.4484
  665SOL    HW2 2713   3.033   2.742   1.189  0.1488  0.5598 -0.5104
  665SOL    HW3 2714   3.093   2.698   1.058 -0.3401 -0.5853 -0.3592
  665SOL    MW4 2715   3.099   2.707   1.144 -0.0670  0.0527 -0.4449
  666SOL     OW 2716   3.354   2.832   1.228 -0.0338  0.2215  0.0548
  666SOL    HW2 2717   3.353   2.920   1.192  2.4102 -0.4541 -1.8285
  666SOL    HW3 2718   3.271   2.794   1.200 -1.2118  1.9735  1.0866
  666SOL    MW4 2719   3.343   2.838   1.220  0.1330  0.3638 -0.0576
  667SOL     OW 2720   3.368   3.081   1.146 -0.0941 -0.6385 -0.8115
  667SOL    HW2 2721   3.443   3.125   1.187 -0.9399 -0.0076  0.0861
  667SOL    HW3 2722   3.292   3.132   1.174 -0.9290 -1.6631 -1.1770
  667SOL    MW4 2723   3.368   3.093   1.155 -0.3159 -0.6905 -0.7414
  668SOL     OW 2724   3.163   3.211   1.266  0.2393 -0.0447  0.0234
  668SOL    HW2 2725   3.160   3.303   1.239 -2.3343  0.6718  2.5025
  668SOL    HW3 2726   3.085   3.172   1.226 -0.3503 -0.3934  1.5021
  668SOL    MW4 2727   3.152   3.218   1.257 -0.1779  0.0038  0.5455
  669SOL     OW 2728   3.119   3.463   1.163  0.4034  0.3828  0.0650
  669SOL    HW2 2729   3.202   3.498   1.194  0.2323  0.8321  0.0309
  669SOL    HW3 2730   3.119   3.479   1.069 -0.2138  1.4551  0.2309
  669SOL    MW4 2731   3.130   3.470   1.155  0.2997  0.5834  0.0824
  670SOL     OW 2732   3.363   3.580   1.239  0.5311  0.1864 -0.3647
  670SOL    HW2 2733   3.358   3.589   1.334 -1.2015 -1.2855 -0.2701
  670SOL    HW3 2734   3.453   3.552   1.222  0.5921 -0.4581  0.9307
  670SOL    MW4 2735   3.374   3.577   1.249  0.3102 -0.0930 -0.1813
  671SOL     OW 2736   3.319   3.838   1.118  0.2141 -0.7064  0.2547
  671SOL    HW2 2737   3.235   3.873   1.146  0.2196  0.1838 -0.8021
  671SOL    HW3 2738   3.319   3.747   1.149 -0.2136 -0.0872  2.1450
  671SOL    MW4 2739   3.308   3.831   1.126  0.1583 -0.5076  0.3647
  672SOL     OW 2740   3.095   3.971   1.203 -0.1611 -0.1411 -0.1246
  672SOL    HW2 2741   3.113   3.965   1.297  0.9919  0.5963 -0.2869
  672SOL    HW3 2742   3.094   4.065   1.184  0.3643 -0.2992 -0.9844
  672SOL    MW4 2743   3.097   3.983   1.213  0.0601 -0.0648 -0.2595
  673SOL     OW 2744   3.111   4.257   1.140  0.2856 -0.1106 -0.2587
  673SOL    HW2 2745   3.191   4.304   1.163  0.2906  0.0972 -0.7077
  673SOL    HW3 2746   3.114   4.250   1.045  0.2900 -1.0252 -0.1973
  673SOL    MW4 2747   3.122   4.262   1.131  0.2868 -0.2041 -0.3098
  674SOL     OW 2748   3.371   4.356   1.222 -0.1843  0.2775 -0.4056
  674SOL    HW2 2749   3.441   4.306   1.180  0.2496  0.1592  0.4419
  674SOL    HW3 2750   3.383   4.445   1.190 -0.0357  0.1366 -0.7541
  674SOL    MW4 2751   3.382   4.361   1.212 -0.1073  0.2432 -0.3397
  675SOL     OW 2752   3.831   4.625   1.146 -0.1056  0.2343  0.1279
  675SOL    HW2 2753   3.838   4.537   1.182 -0.0437  0.1066 -0.1937
  675SOL    HW3 2754   3.847   4.614   1.052  1.2444  0.7792  0.2890
  675SOL    MW4 2755   3.834   4.612   1.138  0.0808  0.2890  0.1068
  676SOL     OW 2756   3.605   0.101   1.223 -0.2917  0.2337  0.1537
  676SOL    HW2 2757   3.616   0.187   1.183 -0.6402  0.5256  0.6914
  676SOL    HW3 2758   3.675   0.048   1.185 -0.3077  0.6515 -0.4623
  676SOL    MW4 2759   3.616   0.105   1.212 -0.3397  0.3273  0.1434
  677SOL     OW 2760   3.595   0.346   1.092  0.0780 -0.1056  0.2255
  677SOL    HW2 2761   3.672   0.395   1.122  0.4544 -0.6409  0.1445
  677SOL    HW3 2762   3.521   0.387   1.137  0.2913  1.0891 -0.5094
  677SOL    MW4 2763   3.596   0.358   1.102  0.1557 -0.0187  0.1179
  678SOL     OW 2764   3.793   0.484   1.213  0.2202  0.4433  0.1150
  678SOL    HW2 2765   3.885   0.462   1.198  0.1628  0.7694 -0.7124
  678SOL    HW3 2766   3.785   0.575   1.184 -0.6217  0.0604 -0.8666
  678SOL    MW4 2767   3.804   0.493   1.207  0.1016  0.4358 -0.1239
  679SOL     OW 2768   3.826   0.736   1.103 -0.5326  0.0576 -0.3839
  679SOL    HW2 2769   3.907   0.770   1.141 -0.4284 -2.1313  1.4883
  679SOL    HW3 2770   3.756   0.786   1.146 -0.3104 -0.7452  0.9488
  679SOL    MW4 2771   3.827   0.747   1.114 -0.4897 -0.3371  0.0390
  680SOL     OW 2772   3.597   0.864   1.220  0.3723  0.0767 -0.0827
  680SOL    HW2 2773   3.588   0.958   1.206  1.5901  0.1956 -0.0735
  680SOL    HW3 2774   3.514   0.828   1.189 -0.4768  1.2409  0.7918
  680SOL    MW4 2775   3.585   0.872   1.214  0.4210  0.2459  0.0339
  681SOL     OW 2776   3.591   1.132   1.161  0.1027  0.0123 -0.4156
  681SOL    HW2 2777   3.667   1.181   1.192 -0.5538  0.5369  0.4179
  681SOL    HW3 2778   3.516   1.184   1.191 -0.6150 -1.4921  0.4675
  681SOL    MW4 2779   3.591   1.146   1.169 -0.0787 -0.1169 -0.1889
  682SOL     OW 2780   3.833   1.267   1.238  0.7377 -0.0036  0.1631
  682SOL    HW2 2781   3.828   1.267   1.333  1.0260 -0.0527  0.1777
  682SOL    HW3 2782   3.844   1.359   1.214 -0.1511  0.0980  0.1346
  682SOL    MW4 2783   3.834   1.279   1.247  0.6588  0.0035  0.1614
  683SOL     OW 2784   3.869   1.536   1.159 -0.2648 -0.5101 -0.2792
  683SOL    HW2 2785   3.942   1.594   1.182 -0.4753 -0.3855  0.0680
  683SOL    HW3 2786   3.860   1.547   1.064 -1.7479  1.7332  0.0702
  683SOL    MW4 2787   3.878   1.545   1.149 -0.4885 -0.1976 -0.1873
  684SOL     OW 2788   3.607   1.628   1.228 -0.2398 -0.0152 -0.4044
  684SOL    HW2 2789   3.634   1.720   1.226  1.5003 -0.4136  1.8678
  684SOL    HW3 2790   3.680   1.581   1.187 -0.5533 -0.4830 -0.4248
  684SOL    MW4 2791   3.621   1.634   1.223 -0.0515 -0.1296 -0.1072
  685SOL     OW 2792   3.640   1.908   1.200 -0.4701 -0.7563  0.0967
  685SOL    HW2 2793   3.707   1.968   1.232 -0.3090 -0.5261 -0.6559
  685SOL    HW3 2794   3.647   1.914   1.105 -1.2843 -1.0368  0.0182
  685SOL    MW4 2795   3.650   1.917   1.192 -0.5562 -0.7629 -0.0130
  686SOL     OW 2796   3.820   2.114   1.255  0.3819 -0.0054 -0.2380
  686SOL    HW2 2797   3.827   2.090   1.347  1.5903 -1.3617 -0.6539
  686SOL    HW3 2798   3.887   2.062   1.211 -0.5013  0.2361 -1.9594
  686SOL    MW4 2799   3.829   2.104   1.261  0.4246 -0.1526 -0.5199
  687SOL     OW 2800   3.809   2.355   1.117  0.3960  0.0977  0.1970
  687SOL    HW2 2801   3.882   2.410   1.146  0.8863 -0.7320  0.5416
  687SOL    HW3 2802   3.814   2.277   1.172  0.2723 -0.7154 -0.9306
  687SOL    MW4 2803   3.819   2.352   1.128  0.4439 -0.1190  0.0937
  688SOL     OW 2804   3.568   2.442   1.215 -0.4719 -0.2055 -0.0295
  688SOL    HW2 2805   3.580   2.434   1.310 -0.5417  1.4155  0.1294
  688SOL    HW3 2806   3.649   2.408   1.177 -0.1145 -0.1109  0.6442
  688SOL    MW4 2807   3.580   2.437   1.223 -0.4339  0.0207  0.0802
  689SOL     OW 2808   3.621   2.715   1.129  0.4969  0.0229  0.2091
  689SOL    HW2 2809   3.596   2.627   1.157  0.1621  0.0442 -0.0336
  689SOL    HW3 2810   3.554   2.772   1.167  0.7453  0.1803  0.4137
  689SOL    MW4 2811   3.609   2.711   1.138  0.4857  0.0467  0.2042
  690SOL     OW 2812   3.876   2.765   1.250  0.3022 -0.2148  0.2729
  690SOL    HW2 2813   3.862   2.785   1.343 -0.0003  0.0113  0.1808
  690SOL    HW3 2814   3.789   2.744   1.217  0.0682  1.7333 -0.4377
  690SOL    MW4 2815   3.863   2.765   1.258  0.2315  0.0720  0.1670
  691SOL     OW 2816   3.805   3.038   1.165  0.2686 -0.3489 -0.6764
  691SOL    HW2 2817   3.843   2.956   1.197  1.1478  0.0441 -0.6910
  691SOL    HW3 2818   3.810   3.030   1.070  1.4115  0.1971 -0.6698
  691SOL    MW4 2819   3.811   3.026   1.157  0.5352 -0.2251 -0.6775
  692SOL     OW 2820   3.598   3.192   1.264  0.2318 -0.1176  0.1818
  692SOL    HW2 2821   3.620   3.281   1.237 -1.2997 -0.2367 -1.6165
  692SOL    HW3 2822   3.667   3.137   1.226 -1.5496 -0.2045 -3.1300
  692SOL    MW4 2823   3.610   3.196   1.255 -0.2053 -0.1447 -0.4925
  693SOL     OW 2824   3.624   3.479   1.178 -0.1221  0.5193 -0.0365
  693SOL    HW2 2825   3.706   3.513   1.213  0.3031 -1.3872  0.9024
  693SOL    HW3 2826   3.617   3.517   1.090  2.0633  0.2492 -0.3527
  693SOL    MW4 2827   3.634   3.488   1.171  0.2224  0.2322  0.0457
  694SOL     OW 2828   3.848   3.601   1.261 -0.0373  0.3226 -0.1477
  694SOL    HW2 2829   3.832   3.601   1.356 -1.0552  1.4982 -0.3062
  694SOL    HW3 2830   3.832   3.691   1.234  0.2780  0.0001 -1.4476
  694SOL    MW4 2831   3.844   3.613   1.270 -0.1299  0.4351 -0.3402
  695SOL     OW 2832   3.787   3.839   1.145  0.4530 -0.3193  0.0562
  695SOL    HW2 2833   3.706   3.888   1.157 -0.1530 -1.2401 -0.1969
  695SOL    HW3 2834   3.794   3.827   1.050  0.9804 -0.0761  0.0653
  695SOL    MW4 2835   3.778   3.844   1.134  0.4425 -0.4086  0.0241
  696SOL     OW 2836   3.534   3.979   1.236  0.0775  0.1732  0.1837
  696SOL    HW2 2837   3.533   3.979   1.332 -0.0225  0.9170  0.1861
  696SOL    HW3 2838   3.447   3.949   1.211  0.3035 -0.6207  0.3202
  696SOL    MW4 2839   3.523   3.975   1.245  0.0942  0.1664  0.2018
  697SOL     OW 2840   3.587   4.242   1.131 -0.4935 -0.0823 -0.2286
  697SOL    HW2 2841   3.553   4.159   1.165 -0.2616  0.1843  0.6522
  697SOL    HW3 2842   3.606   4.224   1.039 -1.4371 -0.7092 -0.3087
  697SOL    MW4 2843   3.585   4.229   1.123 -0.5875 -0.1297 -0.1229
  698SOL     OW 2844   3.821   4.371   1.238 -0.3916  0.2704  0.5174
  698SOL    HW2 2845   3.824   4.361   1.334  1.9970 -0.1489  0.4164
  698SOL    HW3 2846   3.746   4.319   1.211 -0.6694 -0.1720  2.1036
  698SOL    MW4 2847   3.811   4.363   1.247 -0.1130  0.1569  0.7133
  699SOL     OW 2848   4.241   4.661   1.140  0.1380 -0.0587  0.6703
  699SOL    HW2 2849   4.238   4.580   1.191  0.2169 -0.7149 -0.3527
  699SOL    HW3 2850   4.166   4.711   1.170 -0.4437 -0.9142  0.6743
  699SOL    MW4 2851   4.231   4.657   1.150  0.0720 -0.2584  0.5358
  700SOL     OW 2852   4.016   0.150   1.220  0.1044  0.1084  0.3375
  700SOL    HW2 2853   4.039   0.136   1.312  0.4238 -0.0803  0.2325
  700SOL    HW3 2854   3.937   0.098   1.206 -1.1550  1.7841  1.0391
  700SOL    MW4 2855   4.009   0.141   1.230 -0.0196  0.3046  0.4164
  701SOL     OW 2856   4.042   0.396   1.107 -0.4223 -0.6056  0.2220
  701SOL    HW2 2857   4.040   0.306   1.139  3.5320 -1.0523 -0.4928
  701SOL    HW3 2858   4.019   0.388   1.014 -1.9221 -0.6193  0.5875
  701SOL    MW4 2859   4.039   0.383   1.099 -0.0982 -0.6664  0.1758
  702SOL     OW 2860   4.268   0.518   1.218 -0.2143 -0.7427 -0.1135
  702SOL    HW2 2861   4.252   0.514   1.313  1.5556 -1.0505  0.1943
  702SOL    HW3 2862   4.183   0.500   1.178 -0.3358 -3.8174  1.4027
  702SOL    MW4 2863   4.255   0.515   1.225  0.0033 -1.1889  0.1271
  703SOL     OW 2864   4.301   0.770   1.111  0.4496  0.3509  0.4188
  703SOL    HW2 2865   4.299   0.686   1.156  2.4848 -0.1690 -0.4020
  703SOL    HW3 2866   4.257   0.755   1.028 -1.5804  0.8170  1.3713
  703SOL    MW4 2867   4.295   0.757   1.106  0.4501  0.3439  0.4362
  704SOL     OW 2868   4.042   0.853   1.217  0.0876  0.0540 -0.8486
  704SOL    HW2 2869   4.051   0.863   1.312  0.2575 -1.1392 -0.7251
  704SOL    HW3 2870   4.131   0.841   1.185 -0.0726 -0.7945 -0.9955
  704SOL    MW4 2871   4.055   0.853   1.225  0.0892 -0.2153 -0.8515
  705SOL     OW 2872   4.046   1.131   1.130 -0.0847  0.1448  0.2574
  705SOL    HW2 2873   4.030   1.046   1.170 -0.5974  0.1643  0.1088
  705SOL    HW3 2874   3.974   1.186   1.162 -0.5325  0.1481 -0.7098
  705SOL    MW4 2875   4.034   1.127   1.139 -0.2112  0.1478  0.1103
  706SOL     OW 2876   4.245   1.299   1.222  0.0981 -0.2826  0.0734
  706SOL    HW2 2877   4.249   1.313   1.317  2.3087  0.1020 -0.0589
  706SOL    HW3 2878   4.186   1.225   1.212 -1.3166  0.5714  1.6508
  706SOL    MW4 2879   4.237   1.291   1.233  0.2027 -0.1192  0.2642
  707SOL     OW 2880   4.281   1.555   1.122  0.2207 -0.0970 -0.1539
  707SOL    HW2 2881   4.270   1.470   1.164  0.6817  0.5884  1.3855
  707SOL    HW3 2882   4.358   1.593   1.163 -0.9567  1.7775  0.4178
  707SOL    MW4 2883   4.290   1.549   1.133  0.1264  0.2407  0.1247
  708SOL     OW 2884   4.074   1.721   1.215  0.0928 -0.6636 -0.2659
  708SOL    HW2 2885   4.081   1.714   1.310 -0.7617 -0.8211 -0.2102
  708SOL    HW3 2886   4.145   1.666   1.182  0.4042 -0.5939  0.2763
  708SOL    MW4 2887   4.085   1.713   1.223  0.0210 -0.6753 -0.1870
  709SOL     OW 2888   4.015   1.977   1.124 -0.0017  0.1383  0.1996
  709SOL    HW2 2889   4.028   1.889   1.161  2.0879  0.5660  0.5635
  709SOL    HW3 2890   4.014   1.963   1.030 -1.5400 -0.4943  0.2949
  709SOL    MW4 2891   4.016   1.963   1.117  0.0710  0.1112  0.2604
  710SOL     OW 2892   4.276   2.077   1.193  0.5781  0.1909 -0.1173
  710SOL    HW2 2893   4.273   2.164   1.153  0.7754 -0.1336 -0.8395
  710SOL    HW3 2894   4.189   2.041   1.178  0.4561  0.3102  0.2935
  710SOL    MW4 2895   4.264   2.084   1.186  0.5884  0.1638 -0.1583
  711SOL     OW 2896   4.276   2.340   1.102 -0.1197  0.7052 -0.5655
  711SOL    HW2 2897   4.198   2.380   1.139 -0.6098  0.1197 -0.9600
  711SOL    HW3 2898   4.261   2.341   1.007 -0.3552 -0.8665 -0.5513
  711SOL    MW4 2899   4.264   2.346   1.094 -0.2151  0.4206 -0.6156
  712SOL     OW 2900   4.053   2.466   1.196 -1.1180  0.1921  0.1546
  712SOL    HW2 2901   4.060   2.452   1.290  0.6820 -1.7766 -0.2232
  712SOL    HW3 2902   4.080   2.557   1.183 -0.2851  0.1364  1.4344
  712SOL    MW4 2903   4.058   2.476   1.207 -0.7706 -0.0751  0.2735
  713SOL     OW 2904   4.109   2.732   1.114  0.3117  0.2519 -0.0954
  713SOL    HW2 2905   4.025   2.740   1.159  0.4294  1.0251 -0.0100
  713SOL    HW3 2906   4.086   2.712   1.024  0.0735 -1.2134  0.2830
  713SOL    MW4 2907   4.095   2.731   1.108  0.2956  0.1605 -0.0342
  714SOL     OW 2908   4.333   2.845   1.221 -0.4469  0.0092 -0.2023
  714SOL    HW2 2909   4.320   2.936   1.193 -1.0896  0.2868  0.9665
  714SOL    HW3 2910   4.250   2.801   1.199  0.4334 -0.6929 -2.2357
  714SOL    MW4 2911   4.320   2.851   1.214 -0.4158 -0.0467 -0.3164
  715SOL     OW 2912   4.279   3.108   1.110 -0.7740 -0.3581 -0.2281
  715SOL    HW2 2913   4.189   3.136   1.128 -1.0202 -0.8449 -0.6803
  715SOL    HW3 2914   4.281   3.092   1.016 -0.0757  0.1232 -0.2934
  715SOL    MW4 2915   4.267   3.110   1.100 -0.7143 -0.3586 -0.2966
  716SOL     OW 2916   4.044   3.202   1.228  0.3526  0.3272  0.1989
  716SOL    HW2 2917   4.046   3.184   1.322 -1.3207 -0.7049  0.0497
  716SOL    HW3 2918   3.965   3.159   1.196  0.7132  0.9524 -1.6355
  716SOL    MW4 2919   4.034   3.194   1.236  0.1793  0.2732 -0.0627
  717SOL     OW 2920   4.069   3.475   1.164  0.2651 -0.2310  0.1301
  717SOL    HW2 2921   4.051   3.383   1.180 -1.2356  0.0835  0.3198
  717SOL    HW3 2922   3.986   3.520   1.183  0.4890  0.9669 -1.5861
  717SOL    MW4 2923   4.056   3.469   1.169  0.0968 -0.0315 -0.0713
  718SOL     OW 2924   4.285   3.607   1.298 -0.2552  0.2307  0.1903
  718SOL    HW2 2925   4.213   3.566   1.251 -1.1089  0.6640  1.1021
  718SOL    HW3 2926   4.363   3.583   1.248 -0.9037 -1.1729 -0.1610
  718SOL    MW4 2927   4.286   3.599   1.285 -0.4535  0.1025  0.2642
  719SOL     OW 2928   4.235   3.823   1.145  0.3291  0.2942 -0.1987
  719SOL    HW2 2929   4.169   3.879   1.185 -0.4391 -0.6403 -0.1540
  719SOL    HW3 2930   4.235   3.743   1.198  2.1992  0.6693  0.4193
  719SOL    MW4 2931   4.227   3.820   1.157  0.4740  0.2203 -0.1113
  720SOL     OW 2932   4.043   3.988   1.252 -0.0170  0.1168  0.3285
  720SOL    HW2 2933   4.032   4.081   1.232 -1.6821 -0.5599 -2.1184
  720SOL    HW3 2934   3.964   3.946   1.217  1.9025 -2.5643 -0.9598
  720SOL    MW4 2935   4.031   3.995   1.245  0.0167 -0.3259 -0.1643
  721SOL     OW 2936   4.039   4.247   1.147 -0.2015 -0.4009  0.1981
  721SOL    HW2 2937   3.958   4.292   1.172  0.2670  0.5481  0.0060
  721SOL    HW3 2938   4.039   4.247   1.052  1.0460  1.4601  0.1848
  721SOL    MW4 2939   4.028   4.253   1.138  0.0248 -0.0305  0.1712
  722SOL     OW 2940   4.252   4.416   1.275  0.5208  0.6904 -0.7076
  722SOL    HW2 2941   4.176   4.374   1.233  0.5443  0.5226 -0.5822
  722SOL    HW3 2942   4.327   4.368   1.240  0.5560  0.7264 -0.6778
  722SOL    MW4 2943   4.252   4.404   1.265  0.5279  0.6728 -0.6872
  723SOL     OW 2944   0.175   0.034   1.642  0.3496  0.0861 -0.3001
  723SOL    HW2 2945   0.242   0.085   1.596  0.6463  1.8187  1.9854
  723SOL    HW3 2946   0.092   0.071   1.612  0.5016  0.1487 -0.6468
  723SOL    MW4 2947   0.173   0.046   1.632  0.4088  0.3223 -0.0443
  724SOL     OW 2948   4.447   0.128   1.514 -0.4953 -0.0663  0.0709
  724SOL    HW2 2949   4.394   0.056   1.548  0.1955 -0.3912  0.4914
  724SOL    HW3 2950   4.451   0.113   1.420 -1.5055  0.2102 -0.0221
  724SOL    MW4 2951   4.441   0.116   1.506 -0.5374 -0.0727  0.1143
  725SOL     OW 2952   4.468   0.373   1.627  0.7170  0.5452 -0.1359
  725SOL    HW2 2953   4.498   0.338   1.711  2.2770  0.3485 -0.7544
  725SOL    HW3 2954   4.448   0.296   1.574 -0.1418  0.6652  0.0137
  725SOL    MW4 2955   4.470   0.358   1.631  0.8092  0.5351 -0.1976
  726SOL     OW 2956   0.190   0.531   1.506 -0.1424 -0.0918  0.1332
  726SOL    HW2 2957   0.112   0.488   1.543 -0.1093 -0.1485  0.1382
  726SOL    HW3 2958   0.180   0.521   1.412 -0.5426  0.6104  0.1012
  726SOL    MW4 2959   0.178   0.524   1.499 -0.1909 -0.0066  0.1296
  727SOL     OW 2960   0.211   0.826   1.589  0.1623 -0.0024 -0.1188
  727SOL    HW2 2961   0.290   0.860   1.547 -0.3030 -0.1858 -1.1415
  727SOL    HW3 2962   0.209   0.733   1.567  0.0364 -0.1437  0.4862
  727SOL    MW4 2963   0.221   0.818   1.581  0.0843 -0.0453 -0.1738
  728SOL     OW 2964   4.474   0.932   1.479  0.1682  0.5956 -0.1226
  728SOL    HW2 2965   4.462   1.020   1.514  0.0220  0.1557  0.9600
  728SOL    HW3 2966   4.557   0.902   1.516  0.0095  0.1245 -0.1422
  728SOL    MW4 2967   4.483   0.940   1.488  0.1283  0.4754  0.0175
  729SOL     OW 2968   4.467   1.193   1.573  0.5290  0.3290 -0.0484
  729SOL    HW2 2969   4.483   1.212   1.666  1.9939 -1.7127  0.1683
  729SOL    HW3 2970   4.549   1.218   1.529 -0.3940  1.9061 -0.9157
  729SOL    MW4 2971   4.480   1.199   1.580  0.6003  0.2676 -0.1343
  730SOL     OW 2972   0.202   1.306   1.488  0.3838 -0.5188  0.1821
  730SOL    HW2 2973   0.222   1.388   1.533 -0.3313 -0.5250  0.5206
  730SOL    HW3 2974   0.187   1.331   1.397  0.7383 -0.3545  0.1675
  730SOL    MW4 2975   0.202   1.320   1.482  0.3362 -0.4978  0.2248
  731SOL     OW 2976   0.246   1.536   1.607 -0.1086  0.4467  0.1305
  731SOL    HW2 2977   0.235   1.519   1.701 -1.2211  0.0357 -0.0670
  731SOL    HW3 2978   0.162   1.574   1.580 -0.4113 -1.0400 -1.0440
  731SOL    MW4 2979   0.233   1.539   1.616 -0.2953  0.1965 -0.0504
  732SOL     OW 2980   0.009   1.644   1.501 -0.3505 -0.1181 -0.5311
  732SOL    HW2 2981  -0.001   1.734   1.533 -1.8676  0.2778 -2.0410
  732SOL    HW3 2982   0.001   1.652   1.406  0.1937 -1.7819 -0.7280
  732SOL    MW4 2983   0.007   1.657   1.493 -0.4788 -0.2854 -0.7563
  733SOL     OW 2984   0.019   1.914   1.599  0.1182 -0.2687 -0.0137
  733SOL    HW2 2985  -0.007   1.902   1.690 -1.0852 -0.2781 -0.3574
  733SOL    HW3 2986  -0.058   1.951   1.556  0.1935 -1.6185 -1.3434
  733SOL    MW4 2987   0.005   1.918   1.605 -0.0306 -0.4480 -0.2344
  734SOL     OW 2988   0.261   2.046   1.547  0.3296  0.3715  0.2219
  734SOL    HW2 2989   0.178   2.003   1.570 -0.1675  1.0402 -0.3038
  734SOL    HW3 2990   0.253   2.064   1.453  1.2603  0.0392  0.0755
  734SOL    MW4 2991   0.249   2.043   1.538  0.3868  0.4160  0.1332
  735SOL     OW 2992   0.221   2.304   1.635 -0.2065  0.0482 -0.1237
  735SOL    HW2 2993   0.215   2.313   1.730  1.4279  0.2196 -0.0333
  735SOL    HW3 2994   0.225   2.209   1.620  1.5473  0.0740  0.1148
  735SOL    MW4 2995   0.220   2.292   1.646  0.2405  0.0741 -0.0802
  736SOL     OW 2996   0.015   2.436   1.500 -0.1068  0.0229  0.0674
  736SOL    HW2 2997  -0.068   2.391   1.518 -0.1467 -0.4226 -1.1786
  736SOL    HW3 2998   0.081   2.385   1.546 -0.1292 -1.4168 -1.4402
  736SOL    MW4 2999   0.013   2.424   1.508 -0.1150 -0.2260 -0.2959
  737SOL     OW 3000   4.478   2.678   1.645 -0.0622 -0.1447 -0.4158
  737SOL    HW2 3001   4.407   2.718   1.595  0.3141  0.1335 -0.7285
  737SOL    HW3 3002   4.497   2.596   1.601 -0.8498 -0.6909  0.2380
  737SOL    MW4 3003   4.472   2.673   1.633 -0.1165 -0.1800 -0.3710
  738SOL     OW 3004   0.223   2.793   1.553  0.0554 -0.4744  0.1991
  738SOL    HW2 3005   0.293   2.745   1.597 -0.2802 -1.2128 -0.0616
  738SOL    HW3 3006   0.142   2.757   1.590 -0.1842  0.4628  0.5887
  738SOL    MW4 3007   0.222   2.782   1.564 -0.0205 -0.4480  0.2162
  739SOL     OW 3008   0.230   3.078   1.623  0.2912 -0.0204 -0.0734
  739SOL    HW2 3009   0.146   3.111   1.591  0.2560 -0.9102 -0.9296
  739SOL    HW3 3010   0.232   2.987   1.594  0.5269 -0.7008  1.9730
  739SOL    MW4 3011   0.219   3.071   1.615  0.3177 -0.2272  0.0837
  740SOL     OW 3012   4.472   3.178   1.512 -0.0898 -0.0428  0.0471
  740SOL    HW2 3013   4.492   3.263   1.550  0.2798 -0.5598  1.0276
  740SOL    HW3 3014   4.479   3.192   1.417  1.0752  0.7429  0.2374
  740SOL    MW4 3015   4.476   3.191   1.504  0.1125 -0.0072  0.2016
  741SOL     OW 3016   0.020   3.419   1.634  0.0649  0.1935 -0.2104
  741SOL    HW2 3017   0.025   3.433   1.728 -2.1729 -0.1593 -0.0177
  741SOL    HW3 3018  -0.059   3.466   1.607  0.6888  0.3014 -1.9249
  741SOL    MW4 3019   0.010   3.427   1.643 -0.1483  0.1609 -0.4112
  742SOL     OW 3020   0.209   3.572   1.521 -0.4188 -0.2719  0.5016
  742SOL    HW2 3021   0.199   3.658   1.561 -0.7367 -0.1123  0.0828
  742SOL    HW3 3022   0.136   3.521   1.556  1.2505 -1.1851  2.8222
  742SOL    MW4 3023   0.198   3.576   1.531 -0.2405 -0.3715  0.7524
  743SOL     OW 3024   0.414   4.037   1.523  0.2845  0.1567  0.3187
  743SOL    HW2 3025   0.478   3.981   1.565  1.0423  2.0993  1.8243
  743SOL    HW3 3026   0.440   4.039   1.431  1.7772  0.1377  0.7356
  743SOL    MW4 3027   0.426   4.030   1.516  0.5814  0.4106  0.5723
  744SOL     OW 3028   4.474   3.987   1.499 -0.7863  0.1292  0.0232
  744SOL    HW2 3029   4.500   4.072   1.535  0.8753  0.4083 -1.7559
  744SOL    HW3 3030   4.544   3.927   1.525 -1.1318 -0.3463 -0.1255
  744SOL    MW4 3031   4.487   3.990   1.507 -0.6137  0.1032 -0.2311
  745SOL     OW 3032   0.002   4.284   1.638  0.0463  0.3017 -0.3181
  745SOL    HW2 3033  -0.009   4.289   1.733  0.1237  1.3837 -0.3612
  745SOL    HW3 3034  -0.084   4.307   1.603 -0.8894 -3.0960 -0.4976
  745SOL    MW4 3035  -0.011   4.288   1.646 -0.0672 -0.0038 -0.3475
  746SOL     OW 3036   0.197   4.437   1.534  0.5356  0.2471  0.2436
  746SOL    HW2 3037   0.126   4.384   1.572  2.3893 -0.6919  2.5594
  746SOL    HW3 3038   0.187   4.523   1.574  1.0384 -0.0612  1.0532
  746SOL    MW4 3039   0.186   4.441   1.544  0.8465  0.0825  0.6559
  747SOL     OW 3040   0.623   4.656   1.628  0.1235 -0.1458  0.1592
  747SOL    HW2 3041   0.700   4.702   1.595  0.4058 -1.5758 -1.2139
  747SOL    HW3 3042   0.549   4.698   1.585  0.3084 -0.2983 -0.3087
  747SOL    MW4 3043   0.623   4.667   1.618  0.1851 -0.3546 -0.0838
  748SOL     OW 3044   0.398   0.146   1.510 -0.5329 -0.2298  0.1990
  748SOL    HW2 3045   0.405   0.240   1.522 -0.6759 -0.1894 -0.0345
  748SOL    HW3 3046   0.377   0.135   1.417  0.0562 -0.5174  0.0927
  748SOL    MW4 3047   0.396   0.157   1.499 -0.4740 -0.2624  0.1541
  749SOL     OW 3048   0.443   0.409   1.595  0.2299 -0.0644  0.1628
  749SOL    HW2 3049   0.525   0.455   1.576  0.8879 -1.3132 -0.0519
  749SOL    HW3 3050   0.374   0.470   1.569  1.0858  1.0860  0.5534
  749SOL    MW4 3051   0.445   0.423   1.589  0.4297 -0.0773  0.1858
  750SOL     OW 3052   0.686   0.517   1.491 -0.4389  0.0580 -0.0366
  750SOL    HW2 3053   0.683   0.610   1.509  1.0716 -0.0850  1.0611
  750SOL    HW3 3054   0.670   0.510   1.397  2.5947  1.6608 -0.7125
  750SOL    MW4 3055   0.683   0.528   1.481  0.1606  0.2507  0.0190
  751SOL     OW 3056   0.663   0.785   1.571 -0.5212  0.4363  0.2209
  751SOL    HW2 3057   0.671   0.768   1.665 -1.1441  0.1419  0.2279
  751SOL    HW3 3058   0.751   0.810   1.543 -0.2340  0.0777  0.7950
  751SOL    MW4 3059   0.675   0.786   1.580 -0.5655  0.3501  0.2975
  752SOL     OW 3060   0.449   0.928   1.498 -0.1552  0.1660  0.1439
  752SOL    HW2 3061   0.467   1.021   1.510  0.1490  0.4697 -2.4450
  752SOL    HW3 3062   0.531   0.884   1.519 -0.0226  0.5559  0.4367
  752SOL    MW4 3063   0.462   0.934   1.502 -0.0976  0.2575 -0.1591
  753SOL     OW 3064   0.422   1.182   1.593  0.0284  0.3942  0.4193
  753SOL    HW2 3065   0.496   1.226   1.551 -0.5786  0.3142 -0.7449
  753SOL    HW3 3066   0.345   1.220   1.551 -0.5380 -0.8982  0.2941
  753SOL    MW4 3067   0.421   1.193   1.582 -0.1265  0.2130  0.2491
  754SOL     OW 3068   0.675   1.256   1.494 -0.5399  0.1308  0.1649
  754SOL    HW2 3069   0.697   1.346   1.522  0.0294 -0.2230  0.8830
  754SOL    HW3 3070   0.684   1.258   1.399 -1.9339  1.2123  0.0263
  754SOL    MW4 3071   0.679   1.268   1.485 -0.6486  0.2269  0.2415
  755SOL     OW 3072   0.707   1.523   1.582  0.1487  0.4549  0.1832
  755SOL    HW2 3073   0.780   1.569   1.540  0.1605 -0.9106 -1.3488
  755SOL    HW3 3074   0.631   1.548   1.530  0.0075 -0.4458 -0.0591
  755SOL    MW4 3075   0.707   1.532   1.569  0.1317  0.1559 -0.0509
  756SOL     OW 3076   0.460   1.651   1.482  0.2869 -0.8057 -0.3705
  756SOL    HW2 3077   0.469   1.739   1.517  0.8506 -1.0196  0.0332
  756SOL    HW3 3078   0.393   1.610   1.538 -0.4670 -0.4242 -0.9828
  756SOL    MW4 3079   0.452   1.657   1.494  0.2618 -0.7836 -0.3979
  757SOL     OW 3080   0.482   1.890   1.611  0.0976 -0.0072 -0.0303
  757SOL    HW2 3081   0.485   1.891   1.707  0.3120 -0.9144 -0.0251
  757SOL    HW3 3082   0.410   1.949   1.589 -0.3160 -0.2305  0.7060
  757SOL    MW4 3083   0.473   1.898   1.621  0.0713 -0.1565  0.0674
  758SOL     OW 3084   0.665   2.069   1.529 -0.2848 -0.0285  0.2509
  758SOL    HW2 3085   0.746   2.030   1.563  0.2557 -0.4354 -1.4514
  758SOL    HW3 3086   0.596   2.012   1.562  0.1967 -0.2087  0.9683
  758SOL    MW4 3087   0.667   2.056   1.538 -0.1500 -0.1056  0.1210
  759SOL     OW 3088   0.677   2.316   1.642  0.4855 -0.2931  0.0879
  759SOL    HW2 3089   0.604   2.369   1.610  0.7673  0.9846  1.4980
  759SOL    HW3 3090   0.662   2.230   1.605 -0.6508  0.4650 -1.2685
  759SOL    MW4 3091   0.665   2.312   1.633  0.3727 -0.0246  0.0950
  760SOL     OW 3092   0.452   2.449   1.544 -0.5032 -0.4041 -0.2090
  760SOL    HW2 3093   0.465   2.530   1.592  2.0584 -0.2114 -1.1734
  760SOL    HW3 3094   0.379   2.406   1.590 -0.3179  1.2934  1.7712
  760SOL    MW4 3095   0.444   2.454   1.557 -0.1408 -0.1545 -0.0749
  761SOL     OW 3096   0.453   2.671   1.690 -0.5313  0.4522  0.1303
  761SOL    HW2 3097   0.461   2.689   1.783  0.9394  1.0247 -0.0897
  761SOL    HW3 3098   0.520   2.727   1.649 -0.1291 -0.9188 -1.1279
  761SOL    MW4 3099   0.463   2.681   1.697 -0.2842  0.3471 -0.0647
  762SOL     OW 3100   0.664   2.819   1.573  0.7920 -0.3025 -0.2433
  762SOL    HW2 3101   0.654   2.913   1.593  0.1701 -0.1672 -1.1615
  762SOL    HW3 3102   0.668   2.816   1.478  0.4241 -1.2523 -0.2261
  762SOL    MW4 3103   0.663   2.831   1.563  0.6614 -0.4101 -0.3620
  763SOL     OW 3104   0.635   3.068   1.633 -0.4656 -0.7193  0.0346
  763SOL    HW2 3105   0.706   3.115   1.590 -0.4449  0.2853  1.1385
  763SOL    HW3 3106   0.557   3.122   1.618 -0.6514 -0.8987  0.3519
  763SOL    MW4 3107   0.634   3.081   1.625 -0.4874 -0.6106  0.2221
  764SOL     OW 3108   0.444   3.222   1.519  0.1810  0.0848 -0.3715
  764SOL    HW2 3109   0.370   3.167   1.546  2.2956 -2.1029  1.2572
  764SOL    HW3 3110   0.447   3.213   1.424 -0.7955 -0.9354 -0.3175
  764SOL    MW4 3111   0.435   3.213   1.510  0.3312 -0.3386 -0.1494
  765SOL     OW 3112   0.436   3.463   1.650  0.2668 -0.2489 -0.2604
  765SOL    HW2 3113   0.431   3.370   1.625 -2.1073 -0.7653  1.9071
  765SOL    HW3 3114   0.354   3.500   1.618  0.0386  0.4911  1.1423
  765SOL    MW4 3115   0.424   3.455   1.642 -0.0766 -0.2193  0.2108
  766SOL     OW 3116   0.657   3.609   1.525  0.6497  0.0392  0.0808
  766SOL    HW2 3117   0.741   3.585   1.564  0.7796  0.2700 -0.0599
  766SOL    HW3 3118   0.593   3.554   1.572  0.8690 -0.0910  0.2304
  766SOL    MW4 3119   0.659   3.598   1.537  0.6958  0.0527  0.0819
  767SOL     OW 3120   0.619   3.866   1.617 -0.0137 -0.7425  0.4323
  767SOL    HW2 3121   0.698   3.909   1.582  0.1853 -1.1823  0.3345
  767SOL    HW3 3122   0.627   3.775   1.588 -0.3466 -0.8842  0.7876
  767SOL    MW4 3123   0.631   3.860   1.608 -0.0314 -0.8194  0.4663
  768SOL     OW 3124   0.202   3.848   1.589 -0.0649  0.0243  0.1132
  768SOL    HW2 3125   0.214   3.858   1.683  2.4115 -0.7059 -0.0866
  768SOL    HW3 3126   0.264   3.909   1.550 -1.1331  0.3878 -1.0670
  768SOL    MW4 3127   0.212   3.858   1.596  0.1209 -0.0238 -0.0688
  769SOL     OW 3128   0.389   4.270   1.647  0.1581  0.0379  0.3546
  769SOL    HW2 3129   0.397   4.189   1.596  1.7988  0.4249 -0.0474
  769SOL    HW3 3130   0.324   4.322   1.600  1.8261  0.4854 -1.5159
  769SOL    MW4 3131   0.382   4.266   1.634  0.5946  0.1483  0.0548
  770SOL     OW 3132   0.607   4.395   1.552  0.4146 -0.0614  0.2095
  770SOL    HW2 3133   0.537   4.366   1.611  0.2027 -0.5334 -0.2653
  770SOL    HW3 3134   0.619   4.487   1.574 -0.1051 -0.0682  0.5535
  770SOL    MW4 3135   0.599   4.403   1.563  0.3181 -0.1249  0.1922
  771SOL     OW 3136   1.098   0.002   1.626 -0.0519  0.3332  0.1510
  771SOL    HW2 3137   1.102   0.001   1.722  1.1091  0.2935  0.1041
  771SOL    HW3 3138   1.183   0.035   1.599  0.1806 -1.1052 -0.9110
  771SOL    MW4 3139   1.110   0.006   1.635  0.1320  0.1383  0.0046
  772SOL     OW 3140   0.849   0.120   1.533 -0.3820 -0.4284  0.2209
  772SOL    HW2 3141   0.853   0.213   1.554 -0.1335 -0.0692 -1.3852
  772SOL    HW3 3142   0.930   0.084   1.569 -1.3905 -0.4226  2.6282
  772SOL    MW4 3143   0.860   0.128   1.541 -0.4823 -0.3802  0.3265
  773SOL     OW 3144   0.896   0.389   1.617 -0.2182 -0.2859  0.4131
  773SOL    HW2 3145   0.903   0.387   1.712 -0.7306 -0.8092  0.4424
  773SOL    HW3 3146   0.817   0.441   1.600 -0.2245 -0.3381  0.2786
  773SOL    MW4 3147   0.886   0.396   1.627 -0.2866 -0.3619  0.3992
  774SOL     OW 3148   1.084   0.519   1.458  0.0173  0.2747 -0.4200
  774SOL    HW2 3149   1.093   0.603   1.502 -0.5345  0.2957 -0.3457
  774SOL    HW3 3150   1.021   0.470   1.511 -1.7113  0.7988 -1.9330
  774SOL    MW4 3151   1.077   0.523   1.471 -0.2837  0.3466 -0.6098
  775SOL     OW 3152   1.154   0.764   1.554 -0.1565 -0.2151  0.0080
  775SOL    HW2 3153   1.153   0.765   1.649 -0.2300  0.8234  0.0001
  775SOL    HW3 3154   1.230   0.817   1.530  0.3893 -1.2127 -0.5039
  775SOL    MW4 3155   1.164   0.771   1.563 -0.0943 -0.2097 -0.0606
  776SOL     OW 3156   0.912   0.887   1.475  0.1437 -0.6352 -0.2188
  776SOL    HW2 3157   1.006   0.872   1.486  0.6362  1.8177 -0.7145
  776SOL    HW3 3158   0.902   0.904   1.381 -0.9301 -1.6638 -0.2957
  776SOL    MW4 3159   0.923   0.887   1.464  0.0670 -0.4472 -0.2943
  777SOL     OW 3160   0.876   1.129   1.601  0.0407  0.3561 -0.1788
  777SOL    HW2 3161   0.881   1.046   1.554  0.6000 -0.1048  0.6815
  777SOL    HW3 3162   0.793   1.168   1.572 -1.7579 -1.9341  1.7021
  777SOL    MW4 3163   0.866   1.123   1.591 -0.1228 -0.0069  0.1829
  778SOL     OW 3164   1.072   1.295   1.501 -0.3277  0.0286 -0.6468
  778SOL    HW2 3165   1.149   1.250   1.536 -0.6852 -0.4527 -0.4637
  778SOL    HW3 3166   0.998   1.248   1.539 -0.7124  1.1381 -0.0039
  778SOL    MW4 3167   1.072   1.283   1.511 -0.4257  0.1115 -0.5378
  779SOL     OW 3168   1.084   1.557   1.624 -0.1977  0.0328 -0.2064
  779SOL    HW2 3169   1.165   1.584   1.582 -0.7074  1.3280 -0.3916
  779SOL    HW3 3170   1.064   1.471   1.586  1.0205 -0.2469 -0.2247
  779SOL    MW4 3171   1.092   1.549   1.613 -0.1043  0.1668 -0.2333
  780SOL     OW 3172   0.906   1.704   1.478  0.1134 -0.2922 -0.0735
  780SOL    HW2 3173   0.968   1.645   1.521 -0.9529 -1.7695 -0.5141
  780SOL    HW3 3174   0.916   1.684   1.384 -1.0291 -0.5745 -0.1479
  780SOL    MW4 3175   0.915   1.693   1.471 -0.1780 -0.5244 -0.1416
  781SOL     OW 3176   0.890   1.935   1.622  0.1961  0.0146  0.4604
  781SOL    HW2 3177   0.980   1.962   1.601 -0.2453  0.5377 -0.8646
  781SOL    HW3 3178   0.876   1.857   1.568 -0.6905  0.9085 -0.6382
  781SOL    MW4 3179   0.900   1.929   1.612  0.0209  0.2017  0.1405
  782SOL     OW 3180   1.141   2.016   1.508 -0.2618 -0.0715  0.1647
  782SOL    HW2 3181   1.217   1.979   1.553  0.1417 -0.5651 -0.8994
  782SOL    HW3 3182   1.139   2.108   1.535 -0.2706 -0.4531  1.5014
  782SOL    MW4 3183   1.151   2.023   1.518 -0.2097 -0.1869  0.2006
  783SOL     OW 3184   1.143   2.268   1.625 -0.1653  0.0924 -0.3145
  783SOL    HW2 3185   1.213   2.317   1.582 -0.3455  0.0974 -0.6058
  783SOL    HW3 3186   1.065   2.320   1.610 -0.0321  0.7004  1.0626
  783SOL    MW4 3187   1.142   2.281   1.617 -0.1714  0.1733 -0.1712
  784SOL     OW 3188   0.918   2.421   1.550 -0.3207  0.1443  0.2385
  784SOL    HW2 3189   0.908   2.508   1.589 -0.7080  0.6439 -0.9645
  784SOL    HW3 3190   0.837   2.375   1.573  0.2027 -0.1753  1.5234
  784SOL    MW4 3191   0.906   2.426   1.558 -0.3027  0.1681  0.2493
  785SOL     OW 3192   0.913   2.690   1.610  0.3472 -0.4284 -0.0432
  785SOL    HW2 3193   0.926   2.700   1.705 -1.4148 -1.7800  0.3730
  785SOL    HW3 3194   0.827   2.729   1.594  0.9105  0.3521 -1.1964
  785SOL    MW4 3195   0.903   2.696   1.621  0.1890 -0.5038 -0.1404
  786SOL     OW 3196   1.138   2.843   1.536  0.5242  0.2589  0.0159
  786SOL    HW2 3197   1.126   2.927   1.579  1.4759 -0.2734  1.3588
  786SOL    HW3 3198   1.054   2.799   1.546 -0.5411  1.6861 -2.1983
  786SOL    MW4 3199   1.125   2.848   1.543  0.5093  0.3772 -0.0989
  787SOL     OW 3200   1.104   3.113   1.632 -0.1234  0.2154  0.0790
  787SOL    HW2 3201   1.115   3.125   1.727 -1.4304 -1.6603  0.4921
  787SOL    HW3 3202   1.193   3.120   1.597  0.8788 -2.6643  1.8827
  787SOL    MW4 3203   1.117   3.116   1.640 -0.1637 -0.4122  0.3715
  788SOL     OW 3204   0.871   3.222   1.529  0.1696  0.0161  0.3496
  788SOL    HW2 3205   0.951   3.178   1.557  0.3909 -0.1119 -0.4722
  788SOL    HW3 3206   0.871   3.215   1.434 -0.7942  0.0630  0.3356
  788SOL    MW4 3207   0.881   3.216   1.521  0.0716  0.0055  0.2393
  789SOL     OW 3208   0.888   3.494   1.614  0.1811  0.7437  0.1151
  789SOL    HW2 3209   0.971   3.528   1.581  0.2035  1.1328  0.5673
  789SOL    HW3 3210   0.888   3.402   1.589  0.4891  0.8808 -0.4007
  789SOL    MW4 3211   0.899   3.486   1.606  0.2248  0.8132  0.1067
  790SOL     OW 3212   1.121   3.605   1.527  0.3705  0.2637 -0.4712
  790SOL    HW2 3213   1.193   3.551   1.559  0.0864 -0.1587 -0.5370
  790SOL    HW3 3214   1.124   3.593   1.432 -0.5259 -0.7008 -0.3845
  790SOL    MW4 3215   1.131   3.596   1.518  0.2147  0.0808 -0.4684
  791SOL     OW 3216   1.093   3.884   1.592 -0.2268 -0.1878 -0.0568
  791SOL    HW2 3217   1.176   3.930   1.577 -0.9114  1.0479 -0.2020
  791SOL    HW3 3218   1.109   3.795   1.563  0.7340  0.3071 -1.1125
  791SOL    MW4 3219   1.106   3.879   1.586 -0.1904  0.0403 -0.2153
  792SOL     OW 3220   0.853   4.006   1.521  0.2671  0.7189 -0.2923
  792SOL    HW2 3221   0.860   4.083   1.577 -1.0161 -0.5513  1.6834
  792SOL    HW3 3222   0.931   3.954   1.542  0.3713  0.7857 -0.5169
  792SOL    MW4 3223   0.864   4.009   1.531  0.1116  0.5598 -0.0613
  793SOL     OW 3224   0.855   4.285   1.621  0.1235  0.1198  0.0214
  793SOL    HW2 3225   0.846   4.304   1.714 -0.7583  1.8310 -0.3871
  793SOL    HW3 3226   0.780   4.328   1.580  0.4233 -0.7292 -1.4629
  793SOL    MW4 3227   0.844   4.293   1.628  0.0467  0.2332 -0.2283
  794SOL     OW 3228   1.089   4.400   1.539  0.0660  0.1167 -0.1498
  794SOL    HW2 3229   1.011   4.357   1.575  0.0396 -0.1112 -0.4789
  794SOL    HW3 3230   1.088   4.487   1.579 -1.0211  0.5437 -1.0636
  794SOL    MW4 3231   1.078   4.406   1.549 -0.0809  0.1431 -0.3139
  795SOL     OW 3232   1.523   4.633   1.644 -0.1076 -0.0651  0.3037
  795SOL    HW2 3233   1.523   4.668   1.733 -0.0674  0.4040  0.1257
  795SOL    HW3 3234   1.463   4.691   1.596  0.6412  0.3012 -0.2028
  795SOL    MW4 3235   1.515   4.645   1.650 -0.0036  0.0453  0.2134
  796SOL     OW 3236   1.345   0.119   1.509  0.1190  0.3158 -0.0331
  796SOL    HW2 3237   1.325   0.210   1.529  0.1558  0.1228  0.9135
  796SOL    HW3 3238   1.336   0.113   1.414 -0.3407  1.1918 -0.0535
  796SOL    MW4 3239   1.341   0.130   1.499  0.0632  0.4059  0.0892
  797SOL     OW 3240   1.312   0.378   1.623 -0.2437 -0.0730  0.2392
  797SOL    HW2 3241   1.396   0.410   1.590 -0.1678 -1.9045 -1.4232
  797SOL    HW3 3242   1.247   0.441   1.591  0.6330  2.5004  3.2252
  797SOL    MW4 3243   1.314   0.390   1.614 -0.1180  0.0249  0.4139
  798SOL     OW 3244   1.541   0.507   1.534  0.3781 -0.4336  0.3839
  798SOL    HW2 3245   1.622   0.469   1.569  1.1917  1.0461  0.1407
  798SOL    HW3 3246   1.560   0.521   1.441  0.2435  0.9738  0.5674
  798SOL    MW4 3247   1.554   0.504   1.526  0.4678 -0.0526  0.3759
  799SOL     OW 3248   1.551   0.781   1.590  0.1199  0.6288  0.1640
  799SOL    HW2 3249   1.567   0.792   1.684 -0.8629  0.8731  0.3125
  799SOL    HW3 3250   1.556   0.687   1.576  1.1667  0.6595  0.2910
  799SOL    MW4 3251   1.553   0.770   1.601  0.1284  0.6650  0.2004
  800SOL     OW 3252   1.351   0.933   1.489 -0.1835  0.1414 -0.3466
  800SOL    HW2 3253   1.411   0.863   1.515 -1.6066 -0.9363  0.0978
  800SOL    HW3 3254   1.351   0.931   1.394 -0.1891 -0.4627 -0.3369
  800SOL    MW4 3255   1.359   0.923   1.480 -0.3719 -0.0805 -0.2868
  801SOL     OW 3256   1.308   1.191   1.596  0.0223 -0.6007 -0.0266
  801SOL    HW2 3257   1.308   1.185   1.691 -0.5643 -0.0501  0.0075
  801SOL    HW3 3258   1.322   1.101   1.566  3.1516 -0.3883  0.6012
  801SOL    MW4 3259   1.310   1.178   1.604  0.3577 -0.5001  0.0608
  802SOL     OW 3260   1.571   1.265   1.523  0.1554  0.0981 -0.1202
  802SOL    HW2 3261   1.481   1.238   1.544  0.6842 -1.5406  0.0935
  802SOL    HW3 3262   1.569   1.285   1.429 -0.2844 -0.5167 -0.2437
  802SOL    MW4 3263   1.559   1.264   1.513  0.1670 -0.1993 -0.1084
  803SOL     OW 3264   1.591   1.529   1.600 -0.6013 -0.1199 -0.4437
  803SOL    HW2 3265   1.593   1.539   1.695  0.1554 -0.0727 -0.4637
  803SOL    HW3 3266   1.586   1.434   1.586  2.9332 -0.3721 -0.3912
  803SOL    MW4 3267   1.590   1.517   1.611 -0.0352 -0.1471 -0.4393
  804SOL     OW 3268   1.345   1.628   1.517  0.2563  0.0767  0.3571
  804SOL    HW2 3269   1.421   1.580   1.550 -1.0564 -1.3053  1.4710
  804SOL    HW3 3270   1.355   1.626   1.422  0.9568 -1.2285  0.4378
  804SOL    MW4 3271   1.356   1.621   1.508  0.1755 -0.2778  0.5147
  805SOL     OW 3272   1.374   1.884   1.583  0.4253  0.0683  0.2851
  805SOL    HW2 3273   1.381   1.897   1.678  0.6239 -0.2278  0.3121
  805SOL    HW3 3274   1.370   1.789   1.572  0.1420  0.1115  0.0120
  805SOL    MW4 3275   1.375   1.874   1.594  0.4140  0.0349  0.2526
  806SOL     OW 3276   1.578   2.059   1.459  0.2003  0.1850  0.3520
  806SOL    HW2 3277   1.501   2.010   1.489 -0.6750  1.4008  0.1399
  806SOL    HW3 3278   1.559   2.079   1.367  1.7266 -1.3327 -0.3056
  806SOL    MW4 3279   1.565   2.055   1.451  0.2861  0.1454  0.2372
  807SOL     OW 3280   1.583   2.308   1.588  0.0927 -0.2369 -0.2896
  807SOL    HW2 3281   1.650   2.359   1.543 -0.4217  0.4500 -0.2833
  807SOL    HW3 3282   1.587   2.221   1.547  0.4103  0.0489 -0.8669
  807SOL    MW4 3283   1.592   2.303   1.577  0.0668 -0.1087 -0.3650
  808SOL     OW 3284   1.345   2.431   1.524 -0.1261  0.5017 -0.1486
  808SOL    HW2 3285   1.356   2.516   1.567  1.7789 -0.3640  1.1456
  808SOL    HW3 3286   1.423   2.381   1.548 -2.2237 -2.4194  0.9845
  808SOL    MW4 3287   1.357   2.436   1.533 -0.1514  0.0021  0.1715
  809SOL     OW 3288   1.343   2.679   1.650 -0.0420 -0.4192 -0.1606
  809SOL    HW2 3289   1.411   2.740   1.622  0.7384 -1.3167 -0.2638
  809SOL    HW3 3290   1.261   2.719   1.622  0.4757  0.4982 -0.3636
  809SOL    MW4 3291   1.341   2.692   1.642  0.1292 -0.4168 -0.2011
  810SOL     OW 3292   1.546   2.840   1.562  0.4094  0.1646  0.7281
  810SOL    HW2 3293   1.636   2.826   1.590  0.7684 -1.4116 -1.1136
  810SOL    HW3 3294   1.549   2.833   1.466 -1.6188  0.3451  0.6238
  810SOL    MW4 3295   1.558   2.838   1.553  0.1893 -0.0196  0.4715
  811SOL     OW 3296   1.583   3.101   1.639  0.1821 -0.0029  0.2168
  811SOL    HW2 3297   1.645   3.145   1.582  0.2885 -0.6850 -0.1966
  811SOL    HW3 3298   1.574   3.013   1.602 -1.7189  0.3726 -0.2745
  811SOL    MW4 3299   1.590   3.095   1.627 -0.0547 -0.0434  0.0976
  812SOL     OW 3300   1.355   3.202   1.531 -0.1884  0.4050 -0.1171
  812SOL    HW2 3301   1.345   3.293   1.559  1.0700  0.2141  1.0355
  812SOL    HW3 3302   1.425   3.168   1.587 -0.8113 -1.3356 -0.3695
  812SOL    MW4 3303   1.363   3.210   1.542 -0.1045  0.1502  0.0015
  813SOL     OW 3304   1.327   3.466   1.631 -0.6546 -0.1592 -0.2490
  813SOL    HW2 3305   1.330   3.466   1.727  2.5886  0.5235 -0.2939
  813SOL    HW3 3306   1.398   3.524   1.605 -2.3574  0.7699 -3.1012
  813SOL    MW4 3307   1.336   3.474   1.640 -0.4514  0.0536 -0.6312
  814SOL     OW 3308   1.553   3.594   1.558  0.0026  0.3564 -0.0789
  814SOL    HW2 3309   1.556   3.687   1.580  2.6449  0.7161 -1.6494
  814SOL    HW3 3310   1.570   3.591   1.464  0.2173 -1.7296 -0.0003
  814SOL    MW4 3311   1.556   3.606   1.548  0.3797  0.1285 -0.2757
  815SOL     OW 3312   1.563   3.873   1.677 -0.2951  0.1030  0.4656
  815SOL    HW2 3313   1.529   3.878   1.766 -0.7516 -0.1822  0.3085
  815SOL    HW3 3314   1.500   3.920   1.624  0.2588  0.7406  0.3689
  815SOL    MW4 3315   1.550   3.880   1.682 -0.2823  0.1493  0.4321
  816SOL     OW 3316   1.332   3.980   1.550 -0.1505 -0.1026  0.1170
  816SOL    HW2 3317   1.315   4.067   1.588 -0.3232 -0.0353 -0.1106
  816SOL    HW3 3318   1.337   3.996   1.456  0.5420 -0.2284  0.1339
  816SOL    MW4 3319   1.330   3.994   1.543 -0.0820 -0.1104  0.0892
  817SOL     OW 3320   1.311   4.267   1.643 -0.3780  0.1265  0.1127
  817SOL    HW2 3321   1.392   4.311   1.616 -0.2405 -1.5499 -2.3975
  817SOL    HW3 3322   1.241   4.322   1.608 -0.2755  0.0517 -0.2083
  817SOL    MW4 3323   1.313   4.280   1.635 -0.3463 -0.1044 -0.2607
  818SOL     OW 3324   1.560   4.378   1.518 -0.2161  0.5204 -0.0578
  818SOL    HW2 3325   1.630   4.319   1.545 -0.8895 -0.5127 -0.5448
  818SOL    HW3 3326   1.572   4.456   1.572  1.8226  0.6939 -0.7356
  818SOL    MW4 3327   1.571   4.381   1.528 -0.0360  0.4072 -0.2115
  819SOL     OW 3328   1.969   0.021   1.603 -0.5391  0.3005 -0.3782
  819SOL    HW2 3329   1.987   0.016   1.697 -1.0022 -1.1350 -0.3503
  819SOL    HW3 3330   1.876   0.043   1.597 -0.5362  0.2782 -0.5003
  819SOL    MW4 3331   1.959   0.023   1.614 -0.5997  0.1082 -0.3906
  820SOL     OW 3332   1.701   0.137   1.508 -0.0874 -0.1333  0.3775
  820SOL    HW2 3333   1.632   0.085   1.550 -0.4421 -0.5917 -0.7190
  820SOL    HW3 3334   1.700   0.106   1.417  1.6712 -0.2372  0.3866
  820SOL    MW4 3335   1.692   0.126   1.501  0.0979 -0.2075  0.2340
  821SOL     OW 3336   1.784   0.385   1.614 -0.1377  0.4704 -0.3134
  821SOL    HW2 3337   1.861   0.426   1.575  0.0735  0.1330 -0.2520
  821SOL    HW3 3338   1.770   0.305   1.563  0.2872 -0.1012  0.4559
  821SOL    MW4 3339   1.792   0.380   1.602 -0.0536  0.3505 -0.2038
  822SOL     OW 3340   2.024   0.493   1.503 -0.1040 -0.0190 -0.2928
  822SOL    HW2 3341   2.096   0.436   1.530 -0.3804 -0.8920 -1.3899
  822SOL    HW3 3342   2.031   0.569   1.562 -0.5646 -1.7620  2.0716
  822SOL    MW4 3343   2.034   0.496   1.515 -0.2012 -0.3641 -0.1256
  823SOL     OW 3344   2.022   0.754   1.610 -0.0790 -0.0800  0.3130
  823SOL    HW2 3345   2.094   0.801   1.569 -0.3990  1.0593  1.0196
  823SOL    HW3 3346   1.944   0.785   1.564 -0.0706 -1.9180 -1.0057
  823SOL    MW4 3347   2.021   0.764   1.598 -0.1199 -0.1722  0.2322
  824SOL     OW 3348   1.794   0.875   1.476 -0.1391  0.1414  0.0179
  824SOL    HW2 3349   1.807   0.965   1.507  1.9330 -0.7826  1.9548
  824SOL    HW3 3350   1.707   0.851   1.509 -0.6759  1.3561 -0.4372
  824SOL    MW4 3351   1.784   0.884   1.484  0.0637  0.1797  0.2134
  825SOL     OW 3352   1.813   1.134   1.586  0.6331  0.1231 -0.2620
  825SOL    HW2 3353   1.875   1.197   1.550  1.3769 -1.1549 -1.2492
  825SOL    HW3 3354   1.728   1.179   1.583  1.4107  1.6430  0.5158
  825SOL    MW4 3355   1.810   1.148   1.581  0.8340  0.1550 -0.2897
  826SOL     OW 3356   2.018   1.299   1.490 -0.1382 -0.0200  0.0320
  826SOL    HW2 3357   2.049   1.382   1.526 -1.9745  0.5022  0.4662
  826SOL    HW3 3358   2.030   1.307   1.396 -1.0401  1.0738  0.0008
  826SOL    MW4 3359   2.023   1.311   1.482 -0.4995  0.1931  0.0851
  827SOL     OW 3360   2.068   1.549   1.627 -0.1708 -0.3454  0.3908
  827SOL    HW2 3361   2.133   1.599   1.578 -0.1587 -1.7160 -1.0188
  827SOL    HW3 3362   1.987   1.600   1.616 -0.4712 -1.3013 -2.2116
  827SOL    MW4 3363   2.066   1.563   1.619 -0.2089 -0.6523 -0.1384
  828SOL     OW 3364   1.813   1.683   1.566 -0.3669 -0.4877  0.2963
  828SOL    HW2 3365   1.744   1.619   1.585 -0.1355 -1.3624 -1.6777
  828SOL    HW3 3366   1.823   1.679   1.471  1.0525  1.0564  0.3707
  828SOL    MW4 3367   1.805   1.674   1.556 -0.1490 -0.3994  0.0455
  829SOL     OW 3368   1.798   1.950   1.631  0.4358 -0.6079  0.1234
  829SOL    HW2 3369   1.796   1.857   1.607 -1.3697 -0.5107 -0.2263
  829SOL    HW3 3370   1.736   1.991   1.571  0.6503  0.6874  0.7798
  829SOL    MW4 3371   1.789   1.943   1.620  0.2260 -0.4241  0.1637
  830SOL     OW 3372   2.042   2.066   1.517  0.0023 -0.1324  0.3598
  830SOL    HW2 3373   2.113   2.025   1.566  0.6300  0.4742 -0.0375
  830SOL    HW3 3374   1.962   2.036   1.561  0.5702  0.8045  2.0822
  830SOL    MW4 3375   2.041   2.057   1.529  0.1600  0.0713  0.5345
  831SOL     OW 3376   2.013   2.332   1.620  0.0705 -0.1507  0.3794
  831SOL    HW2 3377   2.026   2.327   1.714  3.0144 -0.7859 -0.0119
  831SOL    HW3 3378   2.019   2.242   1.589 -0.8288  0.0550 -0.4358
  831SOL    MW4 3379   2.016   2.320   1.628  0.3402 -0.2074  0.2201
  832SOL     OW 3380   1.801   2.473   1.513  0.1196  0.2118 -0.2306
  832SOL    HW2 3381   1.871   2.420   1.550  0.0897  0.4755  0.2043
  832SOL    HW3 3382   1.808   2.459   1.418 -0.4537 -1.2645 -0.0706
  832SOL    MW4 3383   1.811   2.464   1.505  0.0401  0.0517 -0.1521
  833SOL     OW 3384   1.832   2.756   1.587  0.1450  0.1885  0.2345
  833SOL    HW2 3385   1.913   2.788   1.548  0.2969  0.1566  0.5273
  833SOL    HW3 3386   1.828   2.663   1.562 -0.5920  0.5705 -1.1189
  833SOL    MW4 3387   1.842   2.748   1.578  0.0679  0.2351  0.0948
  834SOL     OW 3388   2.095   2.837   1.521  0.1063  0.4297 -0.2074
  834SOL    HW2 3389   2.067   2.927   1.539 -0.0242  0.4805 -0.6538
  834SOL    HW3 3390   2.074   2.824   1.429  1.2990  0.3650 -0.4772
  834SOL    MW4 3391   2.088   2.847   1.511  0.2463  0.4277 -0.3018
  835SOL     OW 3392   2.010   3.126   1.616  0.4162  0.0470  0.3045
  835SOL    HW2 3393   2.006   3.124   1.712  1.3192 -0.0233  0.3447
  835SOL    HW3 3394   2.096   3.163   1.597  0.9095 -1.4909 -0.4810
  835SOL    MW4 3395   2.020   3.131   1.626  0.6003 -0.1652  0.2060
  836SOL     OW 3396   1.786   3.225   1.499  0.1032 -0.1254  0.5471
  836SOL    HW2 3397   1.783   3.315   1.531  0.9828  0.9115 -2.2025
  836SOL    HW3 3398   1.863   3.187   1.540  0.6183  0.8597  0.4942
  836SOL    MW4 3399   1.796   3.232   1.509  0.2872  0.1411  0.1774
  837SOL     OW 3400   1.795   3.480   1.632 -0.5970  0.5178 -0.6623
  837SOL    HW2 3401   1.793   3.477   1.728  0.4865 -0.0166 -0.6575
  837SOL    HW3 3402   1.716   3.529   1.609 -0.5688  1.1531  0.5245
  837SOL    MW4 3403   1.784   3.486   1.642 -0.4504  0.5310 -0.5051
  838SOL     OW 3404   2.026   3.623   1.541 -0.1144  0.0293  0.5889
  838SOL    HW2 3405   2.108   3.575   1.546  0.4770  0.8508 -0.8628
  838SOL    HW3 3406   1.958   3.557   1.553  0.7361 -0.7237  1.3587
  838SOL    MW4 3407   2.028   3.608   1.543  0.0761  0.0384  0.4989
  839SOL     OW 3408   2.032   3.880   1.672  0.2949  0.2100  0.4776
  839SOL    HW2 3409   2.102   3.939   1.645 -0.6600  0.2835 -1.9040
  839SOL    HW3 3410   2.053   3.797   1.629  0.2254 -0.4802  1.7337
  839SOL    MW4 3411   2.044   3.877   1.663  0.1597  0.1285  0.3290
  840SOL     OW 3412   1.801   3.972   1.555  0.1557 -0.0601 -0.2385
  840SOL    HW2 3413   1.883   3.935   1.588  0.0193  0.1880  0.3864
  840SOL    HW3 3414   1.733   3.935   1.612  0.0047  1.0276  0.3135
  840SOL    MW4 3415   1.803   3.962   1.567  0.1178  0.1163 -0.0832
  841SOL     OW 3416   1.777   4.260   1.631  0.0896  0.3632 -0.3277
  841SOL    HW2 3417   1.847   4.311   1.590  0.7387 -0.9545 -0.9169
  841SOL    HW3 3418   1.795   4.170   1.603 -0.8597 -0.2206  0.9118
  841SOL    MW4 3419   1.789   4.255   1.622  0.0498  0.1125 -0.2419
  842SOL     OW 3420   1.974   4.412   1.530 -0.0573 -0.1156  0.2955
  842SOL    HW2 3421   2.061   4.379   1.552  0.8635  1.3510 -1.0728
  842SOL    HW3 3422   1.979   4.506   1.546 -1.1309  0.1086 -0.6124
  842SOL    MW4 3423   1.986   4.420   1.535 -0.0774  0.1073 -0.0048
  843SOL     OW 3424   2.470   4.621   1.626  0.2314 -0.1983 -0.0813
  843SOL    HW2 3425   2.458   4.635   1.720  1.0675 -0.7043  0.1040
  843SOL    HW3 3426   2.396   4.667   1.585  0.2616  0.6384  0.7813
  843SOL    MW4 3427   2.459   4.629   1.633  0.3459 -0.1545  0.0571
  844SOL     OW 3428   2.244   0.099   1.521 -0.3710  0.6503 -0.5354
  844SOL    HW2 3429   2.157   0.065   1.543 -0.0309 -0.2747 -0.6138
  844SOL    HW3 3430   2.244   0.105   1.426 -0.8448  1.9885 -0.4585
  844SOL    MW4 3431   2.232   0.095   1.512 -0.3886  0.7048 -0.5355
  845SOL     OW 3432   2.251   0.370   1.634  0.2429 -0.2941 -0.2131
  845SOL    HW2 3433   2.260   0.372   1.730  1.1297 -0.3524 -0.2902
  845SOL    HW3 3434   2.239   0.277   1.613 -0.5223 -0.2253 -0.1190
  845SOL    MW4 3435   2.250   0.358   1.644  0.2589 -0.2927 -0.2109
  846SOL     OW 3436   2.450   0.508   1.481 -0.5904  0.3236 -0.0247
  846SOL    HW2 3437   2.532   0.465   1.506 -1.0050  0.1186  0.9883
  846SOL    HW3 3438   2.381   0.453   1.519 -1.2117  0.4476 -0.9337
  846SOL    MW4 3439   2.451   0.495   1.489 -0.7269  0.3130 -0.0110
  847SOL     OW 3440   2.479   0.750   1.594 -0.0770 -0.4796  0.1812
  847SOL    HW2 3441   2.392   0.784   1.572 -0.4980 -1.6152  0.0753
  847SOL    HW3 3442   2.482   0.664   1.552  1.9790  0.5072 -1.8217
  847SOL    MW4 3443   2.468   0.743   1.585  0.1388 -0.4992 -0.0970
  848SOL     OW 3444   2.249   0.864   1.511  0.4634  0.0917  0.3687
  848SOL    HW2 3445   2.251   0.957   1.532  0.4183  0.5401 -1.5039
  848SOL    HW3 3446   2.258   0.861   1.416 -0.5855 -1.7623  0.3071
  848SOL    MW4 3447   2.250   0.876   1.501  0.3192 -0.0938  0.1135
  849SOL     OW 3448   2.212   1.129   1.577 -0.4393 -0.2213 -0.5916
  849SOL    HW2 3449   2.225   1.133   1.672 -2.1711 -1.9294 -0.2415
  849SOL    HW3 3450   2.139   1.190   1.560 -0.7070 -0.5721 -0.7051
  849SOL    MW4 3451   2.204   1.138   1.587 -0.7031 -0.4930 -0.5603
  850SOL     OW 3452   2.434   1.282   1.502 -0.1485  0.5867  0.2927
  850SOL    HW2 3453   2.355   1.235   1.527  1.4747 -1.6573  1.2987
  850SOL    HW3 3454   2.427   1.291   1.407 -0.4002 -1.8520  0.0602
  850SOL    MW4 3455   2.423   1.277   1.493  0.0324 -0.0310  0.3947
  851SOL     OW 3456   2.466   1.558   1.629 -0.4363  0.0427  0.2781
  851SOL    HW2 3457   2.549   1.591   1.595  0.3053 -0.8411  1.2123
  851SOL    HW3 3458   2.455   1.473   1.588 -0.2794 -0.3714  1.0856
  851SOL    MW4 3459   2.475   1.551   1.619 -0.3178 -0.1285  0.5078
  852SOL     OW 3460   2.259   1.677   1.474  0.5645 -0.2520 -0.3515
  852SOL    HW2 3461   2.343   1.642   1.503  0.2872 -1.3055 -0.7961
  852SOL    HW3 3462   2.248   1.640   1.386  0.9777  2.1655 -1.4541
  852SOL    MW4 3463   2.269   1.667   1.466  0.5825 -0.0720 -0.5555
  853SOL     OW 3464   2.293   1.933   1.612  0.1189  0.0857  0.0940
  853SOL    HW2 3465   2.263   1.909   1.700 -0.7505 -0.9272 -0.4487
  853SOL    HW3 3466   2.279   1.853   1.561  2.7957 -0.0704 -0.4477
  853SOL    MW4 3467   2.287   1.919   1.617  0.3572 -0.0685 -0.0491
  854SOL     OW 3468   2.504   2.096   1.506 -0.6447 -0.0716 -0.4537
  854SOL    HW2 3469   2.433   2.043   1.542  0.2056 -2.7268 -2.4664
  854SOL    HW3 3470   2.487   2.099   1.412  0.0926  2.1280 -0.5516
  854SOL    MW4 3471   2.493   2.089   1.498 -0.4354 -0.1316 -0.7322
  855SOL     OW 3472   2.437   2.333   1.621 -0.1719 -0.0549 -0.0191
  855SOL    HW2 3473   2.447   2.322   1.716  1.6386  0.0318 -0.1879
  855SOL    HW3 3474   2.456   2.246   1.585  0.1282  0.1596 -0.3785
  855SOL    MW4 3475   2.441   2.320   1.629  0.1066 -0.0150 -0.0887
  856SOL     OW 3476   2.233   2.454   1.498 -0.3353 -0.0093 -0.1099
  856SOL    HW2 3477   2.304   2.410   1.543  0.2805 -0.4172 -1.4538
  856SOL    HW3 3478   2.154   2.412   1.530  0.2488 -2.3082 -1.5427
  856SOL    MW4 3479   2.232   2.443   1.508 -0.1769 -0.3664 -0.4761
  857SOL     OW 3480   2.284   2.693   1.650  0.0762  0.0752  0.2229
  857SOL    HW2 3481   2.266   2.610   1.606 -1.4368  0.6952 -0.3824
  857SOL    HW3 3482   2.217   2.753   1.616  0.6947  1.3466  1.1933
  857SOL    MW4 3483   2.273   2.690   1.639 -0.0417  0.3245  0.2710
  858SOL     OW 3484   2.502   2.819   1.551  0.4532 -0.4130 -0.7670
  858SOL    HW2 3485   2.492   2.912   1.571  1.1625 -0.2158 -1.3073
  858SOL    HW3 3486   2.431   2.777   1.599  1.3269  0.1780  1.0816
  858SOL    MW4 3487   2.491   2.826   1.560  0.6621 -0.3092 -0.5943
  859SOL     OW 3488   2.479   3.080   1.655 -0.0675 -0.3833  0.2166
  859SOL    HW2 3489   2.542   3.135   1.609  0.2236 -0.5905  0.3680
  859SOL    HW3 3490   2.393   3.115   1.630  0.1414  1.0848  1.4547
  859SOL    MW4 3491   2.476   3.092   1.646 -0.0014 -0.2172  0.4001
  860SOL     OW 3492   2.259   3.217   1.549  0.4426  0.1064  0.1264
  860SOL    HW2 3493   2.253   3.308   1.578 -0.1915  0.4321 -1.0217
  860SOL    HW3 3494   2.255   3.221   1.454  3.3404 -0.9028 -0.0741
  860SOL    MW4 3495   2.257   3.230   1.540  0.7410  0.0165 -0.0516
  861SOL     OW 3496   2.257   3.496   1.600  0.1602  0.1785 -0.5383
  861SOL    HW2 3497   2.264   3.497   1.695  0.8472 -0.2127 -0.5769
  861SOL    HW3 3498   2.337   3.538   1.569  0.2657 -0.3078 -0.9480
  861SOL    MW4 3499   2.269   3.501   1.608  0.2649  0.0629 -0.5975
  862SOL     OW 3500   2.467   3.610   1.489 -0.3716  0.0368 -0.0219
  862SOL    HW2 3501   2.534   3.576   1.549  0.6697 -0.4683 -1.4279
  862SOL    HW3 3502   2.468   3.705   1.503  1.9432  0.2530 -1.2634
  862SOL    MW4 3503   2.476   3.618   1.499  0.0710 -0.0010 -0.3711
  863SOL     OW 3504   2.433   3.875   1.574 -0.6518  0.2714 -0.1298
  863SOL    HW2 3505   2.426   3.858   1.668 -1.0510  2.0703  0.1824
  863SOL    HW3 3506   2.516   3.921   1.564 -0.1960 -0.6930 -0.7765
  863SOL    MW4 3507   2.443   3.879   1.585 -0.6444  0.3817 -0.1738
  864SOL     OW 3508   2.215   4.028   1.529 -0.1032 -0.8356 -0.3838
  864SOL    HW2 3509   2.296   3.986   1.559 -0.3111 -0.6830  0.3805
  864SOL    HW3 3510   2.224   4.031   1.433  1.4249  0.4571 -0.2160
  864SOL    MW4 3511   2.227   4.023   1.520  0.0710 -0.6452 -0.2608
  865SOL     OW 3512   2.209   4.288   1.620 -0.0184 -0.1069 -0.7939
  865SOL    HW2 3513   2.303   4.304   1.608  0.2953 -0.8892  0.4707
  865SOL    HW3 3514   2.194   4.202   1.580  0.0040 -0.4175 -0.1402
  865SOL    MW4 3515   2.220   4.279   1.613  0.0260 -0.2508 -0.5409
  866SOL     OW 3516   2.486   4.350   1.572  0.3875 -0.0064  0.1245
  866SOL    HW2 3517   2.453   4.432   1.608 -1.3270 -0.9357  0.7419
  866SOL    HW3 3518   2.468   4.355   1.478  0.3390  0.3446  0.1528
  866SOL    MW4 3519   2.479   4.361   1.564  0.1552 -0.0820  0.2098
  867SOL     OW 3520   2.931   4.649   1.612 -0.1836 -0.6913  0.5310
  867SOL    HW2 3521   2.908   4.649   1.705  0.0557 -0.7486  0.5917
  867SOL    HW3 3522   2.853   4.683   1.568 -0.0859 -0.0862  0.8092
  867SOL    MW4 3523   2.918   4.654   1.619 -0.1390 -0.6189  0.5758
  868SOL     OW 3524   2.690   0.081   1.528 -0.5875  0.3070 -0.3121
  868SOL    HW2 3525   2.710   0.171   1.553  0.8611 -0.6096  1.9978
  868SOL    HW3 3526   2.614   0.058   1.581 -0.2163 -0.2186 -0.0049
  868SOL    MW4 3527   2.683   0.090   1.538 -0.3476  0.1168  0.0333
  869SOL     OW 3528   2.685   0.364   1.567  0.0391  0.1283 -0.3368
  869SOL    HW2 3529   2.690   0.357   1.662 -0.1644 -2.0487 -0.4648
  869SOL    HW3 3530   2.770   0.401   1.542 -0.1407  1.2948  0.7189
  869SOL    MW4 3531   2.697   0.368   1.576 -0.0112 -0.0050 -0.2145
  870SOL     OW 3532   2.919   0.513   1.463 -0.4187 -0.0517 -0.1145
  870SOL    HW2 3533   2.904   0.607   1.473  1.2251  0.2707 -0.5295
  870SOL    HW3 3534   2.925   0.500   1.369 -1.0737 -0.6525 -0.0760
  870SOL    MW4 3535   2.918   0.524   1.452 -0.2885 -0.0885 -0.1642
  871SOL     OW 3536   2.921   0.783   1.582 -0.0175  0.5203  0.0441
  871SOL    HW2 3537   2.916   0.755   1.674 -0.4879 -2.5296 -0.8309
  871SOL    HW3 3538   2.836   0.824   1.564 -0.9108 -1.1599  0.3207
  871SOL    MW4 3539   2.909   0.785   1.592 -0.1976 -0.1038 -0.0348
  872SOL     OW 3540   2.696   0.905   1.497 -0.0275  0.0555  0.2428
  872SOL    HW2 3541   2.616   0.861   1.528  1.0946 -1.0600  1.6616
  872SOL    HW3 3542   2.692   0.897   1.402 -1.9671  0.6654  0.2429
  872SOL    MW4 3543   2.685   0.898   1.489 -0.1352 -0.0112  0.4300
  873SOL     OW 3544   2.680   1.155   1.576 -0.2195 -0.4201 -0.0781
  873SOL    HW2 3545   2.675   1.061   1.559 -0.1178 -0.8185  2.0031
  873SOL    HW3 3546   2.590   1.186   1.568 -0.4343 -0.9090  0.4910
  873SOL    MW4 3547   2.668   1.147   1.572 -0.2344 -0.5372  0.2716
  874SOL     OW 3548   2.916   1.284   1.526  0.0256 -0.0807  0.2057
  874SOL    HW2 3549   2.991   1.236   1.561  0.1080  0.0242  0.1728
  874SOL    HW3 3550   2.841   1.228   1.544  0.0304  0.1047  0.8098
  874SOL    MW4 3551   2.916   1.270   1.533  0.0372 -0.0423  0.2812
  875SOL     OW 3552   2.907   1.558   1.631  0.3305 -0.0264  0.2575
  875SOL    HW2 3553   2.828   1.593   1.590  1.2732  1.1761 -0.5763
  875SOL    HW3 3554   2.906   1.465   1.609 -0.4863  0.1185 -0.3475
  875SOL    MW4 3555   2.896   1.550   1.623  0.3469  0.1514  0.0677
  876SOL     OW 3556   2.687   1.659   1.504  0.3272 -0.4370 -0.1147
  876SOL    HW2 3557   2.691   1.751   1.530  1.5431 -0.4164 -0.3392
  876SOL    HW3 3558   2.695   1.661   1.409 -0.2436 -0.7431 -0.1715
  876SOL    MW4 3559   2.689   1.671   1.495  0.4122 -0.4747 -0.1519
  877SOL     OW 3560   2.688   1.914   1.592  0.4004  0.2937  0.0449
  877SOL    HW2 3561   2.696   1.918   1.687 -0.9260  0.8191  0.1355
  877SOL    HW3 3562   2.613   1.969   1.571  0.1527 -0.5008 -1.2296
  877SOL    MW4 3563   2.679   1.922   1.602  0.1926  0.2582 -0.1112
  878SOL     OW 3564   2.911   2.036   1.502 -0.2599  0.0628 -0.2580
  878SOL    HW2 3565   2.908   2.131   1.513  1.9746  0.0571  0.6431
  878SOL    HW3 3566   2.831   2.005   1.544  0.6859  1.3011  2.6146
  878SOL    MW4 3567   2.900   2.045   1.509  0.1600  0.2253  0.2398
  879SOL     OW 3568   2.889   2.315   1.569 -0.1692 -0.1080  0.5756
  879SOL    HW2 3569   2.887   2.302   1.664  0.3670  0.0755  0.6164
  879SOL    HW3 3570   2.816   2.374   1.551 -0.5923 -0.5615  0.8099
  879SOL    MW4 3571   2.879   2.321   1.579 -0.1543 -0.1435  0.6119
  880SOL     OW 3572   2.662   2.484   1.535 -0.1781  0.1382 -0.0057
  880SOL    HW2 3573   2.668   2.571   1.576 -0.0031 -0.9922  2.4648
  880SOL    HW3 3574   2.587   2.443   1.577 -0.2382 -0.9220 -1.1363
  880SOL    MW4 3575   2.653   2.490   1.546 -0.1631 -0.1507  0.1711
  881SOL     OW 3576   2.746   2.732   1.664  0.0080 -0.2080 -0.1274
  881SOL    HW2 3577   2.817   2.782   1.626 -0.4843  0.9289  0.4041
  881SOL    HW3 3578   2.667   2.779   1.638 -0.4476 -0.5814  0.5574
  881SOL    MW4 3579   2.745   2.745   1.656 -0.1173 -0.1070  0.0330
  882SOL     OW 3580   2.931   2.872   1.516  0.3666 -0.0769 -0.2046
  882SOL    HW2 3581   3.004   2.821   1.549 -0.9292 -1.2250  0.9542
  882SOL    HW3 3582   2.951   2.962   1.542  1.0645 -0.4792  0.6890
  882SOL    MW4 3583   2.943   2.877   1.524  0.2880 -0.2816  0.0663
  883SOL     OW 3584   2.928   3.122   1.607  0.2507 -0.5425 -0.1016
  883SOL    HW2 3585   2.939   3.107   1.701 -1.2002  1.1532  0.3715
  883SOL    HW3 3586   3.007   3.169   1.581  0.5112 -0.7356  0.3393
  883SOL    MW4 3587   2.940   3.126   1.616  0.0937 -0.3443  0.0190
  884SOL     OW 3588   2.688   3.219   1.538 -0.2675  0.6213  0.1026
  884SOL    HW2 3589   2.776   3.187   1.559 -0.9812 -0.7936  0.9612
  884SOL    HW3 3590   2.685   3.220   1.442  0.2107 -0.6338  0.0719
  884SOL    MW4 3591   2.699   3.215   1.528 -0.2987  0.2689  0.2120
  885SOL     OW 3592   2.675   3.495   1.622 -0.1504  0.1425 -0.4428
  885SOL    HW2 3593   2.693   3.493   1.716  0.9523 -1.3498 -0.6642
  885SOL    HW3 3594   2.679   3.403   1.596 -1.1979  0.4853 -1.8128
  885SOL    MW4 3595   2.678   3.482   1.631 -0.1428 -0.0091 -0.6528
  886SOL     OW 3596   2.911   3.590   1.519 -0.1357  0.4997  0.2075
  886SOL    HW2 3597   2.832   3.551   1.555  0.8782 -0.3290  1.5643
  886SOL    HW3 3598   2.902   3.581   1.425 -0.6845 -1.5110  0.4390
  886SOL    MW4 3599   2.900   3.584   1.512 -0.0744  0.1252  0.4170
  887SOL     OW 3600   2.927   3.869   1.635 -0.0731  0.6888 -0.2675
  887SOL    HW2 3601   2.844   3.908   1.607 -0.7206 -0.3151  0.2057
  887SOL    HW3 3602   2.928   3.783   1.594 -0.8137 -0.6201  2.3342
  887SOL    MW4 3603   2.916   3.863   1.626 -0.2561  0.3834  0.1382
  888SOL     OW 3604   2.677   3.974   1.526 -0.1903 -0.1587 -0.2810
  888SOL    HW2 3605   2.705   4.062   1.553 -0.3232 -0.2406  0.1309
  888SOL    HW3 3606   2.675   3.978   1.430  1.0004 -0.0804 -0.3102
  888SOL    MW4 3607   2.681   3.986   1.517 -0.0508 -0.1590 -0.2306
  889SOL     OW 3608   2.741   4.227   1.650  0.1704  0.6470 -0.1985
  889SOL    HW2 3609   2.808   4.293   1.627 -0.2578  1.0107 -0.4119
  889SOL    HW3 3610   2.661   4.260   1.609 -0.0569  0.0161 -0.2531
  889SOL    MW4 3611   2.739   4.240   1.641  0.0839  0.6118 -0.2339
  890SOL     OW 3612   2.941   4.389   1.554 -0.2550  0.1459 -0.4471
  890SOL    HW2 3613   2.935   4.480   1.583 -1.2846  0.2994 -1.1205
  890SOL    HW3 3614   2.937   4.394   1.458 -0.3985 -0.6134 -0.4852
  890SOL    MW4 3615   2.940   4.401   1.545 -0.4098  0.0658 -0.5409
  891SOL     OW 3616   3.387   4.646   1.621  0.0587  0.4206  0.2650
  891SOL    HW2 3617   3.475   4.679   1.599  0.7539 -1.0167  0.8155
  891SOL    HW3 3618   3.383   4.561   1.578 -1.0206  0.4191  0.3774
  891SOL    MW4 3619   3.398   4.639   1.613  0.0081  0.2308  0.3523
  892SOL     OW 3620   3.157   0.108   1.519  0.1672  0.4422  0.2133
  892SOL    HW2 3621   3.234   0.066   1.559 -0.1446 -0.1708  0.1846
  892SOL    HW3 3622   3.084   0.054   1.548 -0.2589  1.0646  0.2929
  892SOL    MW4 3623   3.158   0.095   1.528  0.0699  0.4435  0.2199
  893SOL     OW 3624   3.141   0.400   1.619  0.1729  0.1375  0.2701
  893SOL    HW2 3625   3.158   0.316   1.576  0.9557  0.6176 -0.3640
  893SOL    HW3 3626   3.079   0.444   1.561  0.8235  0.5679 -0.1015
  893SOL    MW4 3627   3.135   0.395   1.606  0.3622  0.2576  0.1376
  894SOL     OW 3628   3.378   0.508   1.523 -0.0801 -0.3641  0.3109
  894SOL    HW2 3629   3.297   0.483   1.567 -0.1841 -0.7754 -0.1175
  894SOL    HW3 3630   3.361   0.492   1.430  0.2456  0.2128  0.1472
  894SOL    MW4 3631   3.365   0.503   1.517 -0.0510 -0.3423  0.2328
  895SOL     OW 3632   3.331   0.770   1.615  0.0350  0.3205  0.0574
  895SOL    HW2 3633   3.332   0.756   1.710  1.1901  0.8971  0.1332
  895SOL    HW3 3634   3.344   0.682   1.578  0.9388  0.2871  0.4517
  895SOL    MW4 3635   3.333   0.756   1.622  0.3066  0.3923  0.1193
  896SOL     OW 3636   3.127   0.922   1.476 -0.2580 -0.2547  0.3176
  896SOL    HW2 3637   3.192   0.890   1.538 -1.6699 -0.8806  1.5030
  896SOL    HW3 3638   3.045   0.884   1.506 -1.0075 -0.3554 -1.7940
  896SOL    MW4 3639   3.125   0.913   1.488 -0.5431 -0.3506  0.1954
  897SOL     OW 3640   3.148   1.163   1.624 -0.0402  0.7803 -0.2966
  897SOL    HW2 3641   3.166   1.141   1.715  0.3119  0.8713 -0.3425
  897SOL    HW3 3642   3.138   1.078   1.580  1.1040  0.7078 -0.4298
  897SOL    MW4 3643   3.149   1.149   1.630  0.1571  0.7827 -0.3202
  898SOL     OW 3644   3.353   1.283   1.497  0.1160  0.4770 -0.3507
  898SOL    HW2 3645   3.283   1.238   1.544 -0.2376  1.1803 -0.2066
  898SOL    HW3 3646   3.431   1.228   1.511 -0.2142  0.1467  0.1910
  898SOL    MW4 3647   3.354   1.270   1.505  0.0260  0.5263 -0.2601
  899SOL     OW 3648   3.337   1.534   1.602 -0.0362  0.2954  0.4448
  899SOL    HW2 3649   3.372   1.518   1.689  2.5595  0.1564 -0.5956
  899SOL    HW3 3650   3.325   1.446   1.564 -1.1144  0.3568  0.6068
  899SOL    MW4 3651   3.340   1.520   1.608  0.1638  0.2850  0.3289
  900SOL     OW 3652   3.128   1.661   1.500 -0.1863  0.2805 -0.0634
  900SOL    HW2 3653   3.209   1.623   1.535 -0.0237  0.1806 -0.5444
  900SOL    HW3 3654   3.059   1.621   1.552 -0.1069 -1.5787 -1.3107
  900SOL    MW4 3655   3.130   1.651   1.511 -0.1547  0.0222 -0.2913
  901SOL     OW 3656   3.143   1.924   1.607  0.2478 -0.0680 -0.0449
  901SOL    HW2 3657   3.136   1.836   1.569  0.4448 -0.2841  0.4227
  901SOL    HW3 3658   3.061   1.967   1.582  0.6810  0.0270 -1.3279
  901SOL    MW4 3659   3.131   1.918   1.598  0.3309 -0.0839 -0.1525
  902SOL     OW 3660   3.383   2.022   1.526 -0.3835 -0.4650 -0.0529
  902SOL    HW2 3661   3.305   1.978   1.559 -0.7596 -0.2831 -0.6976
  902SOL    HW3 3662   3.369   2.029   1.431 -0.0868  0.5587 -0.0311
  902SOL    MW4 3663   3.371   2.017   1.518 -0.3941 -0.3059 -0.1351
  903SOL     OW 3664   3.350   2.295   1.597  0.0790  0.4979 -0.4107
  903SOL    HW2 3665   3.422   2.344   1.556  0.3832  0.1186 -0.3342
  903SOL    HW3 3666   3.364   2.205   1.568  0.5973  0.1329  0.9426
  903SOL    MW4 3667   3.361   2.290   1.588  0.1874  0.3998 -0.2221
  904SOL     OW 3668   3.140   2.441   1.506  0.2133  0.1921 -0.1412
  904SOL    HW2 3669   3.204   2.379   1.541 -0.2630 -0.9926 -1.3285
  904SOL    HW3 3670   3.055   2.399   1.522 -0.1859  1.0775  0.0910
  904SOL    MW4 3671   3.137   2.427   1.513  0.0978  0.1526 -0.2673
  905SOL     OW 3672   3.145   2.720   1.614 -0.1105 -0.1873 -0.0176
  905SOL    HW2 3673   3.235   2.751   1.614 -0.2999  0.3865  0.1712
  905SOL    HW3 3674   3.148   2.635   1.569  0.1783  0.8225 -1.9709
  905SOL    MW4 3675   3.157   2.713   1.608 -0.0970  0.0219 -0.2505
  906SOL     OW 3676   3.412   2.788   1.501 -0.0860  0.4590 -0.1002
  906SOL    HW2 3677   3.428   2.876   1.537  0.4804  0.1239  0.4773
  906SOL    HW3 3678   3.391   2.804   1.409  2.1494  1.0449 -0.5430
  906SOL    MW4 3679   3.411   2.802   1.494  0.2837  0.4921 -0.0824
  907SOL     OW 3680   3.402   3.050   1.586  0.1948 -0.3651  0.2372
  907SOL    HW2 3681   3.412   3.059   1.681  1.3876 -1.0568  0.1856
  907SOL    HW3 3682   3.461   3.115   1.549  0.0154 -0.3552 -0.0363
  907SOL    MW4 3683   3.411   3.060   1.594  0.3285 -0.4551  0.1944
  908SOL     OW 3684   3.173   3.210   1.548  0.1539 -0.8224 -0.3246
  908SOL    HW2 3685   3.259   3.172   1.566  1.2016  1.5477 -0.1302
  908SOL    HW3 3686   3.168   3.212   1.452 -0.0615 -1.7706 -0.3360
  908SOL    MW4 3687   3.184   3.205   1.537  0.2639 -0.6347 -0.3005
  909SOL     OW 3688   3.142   3.489   1.656 -0.3377 -0.0422  0.3524
  909SOL    HW2 3689   3.149   3.403   1.616 -0.6617  0.0372  0.1261
  909SOL    HW3 3690   3.073   3.533   1.606  0.5054  0.7003 -0.1970
  909SOL    MW4 3691   3.134   3.484   1.644 -0.2689  0.0663  0.2500
  910SOL     OW 3692   3.342   3.606   1.517  0.7903 -0.1327  0.2443
  910SOL    HW2 3693   3.424   3.572   1.554  0.3224 -0.2937  1.1520
  910SOL    HW3 3694   3.273   3.563   1.568  0.1279 -0.2666 -0.7493
  910SOL    MW4 3695   3.344   3.596   1.529  0.6411 -0.1719  0.2329
  911SOL     OW 3696   3.318   3.860   1.621  0.0619 -0.8470  0.0068
  911SOL    HW2 3697   3.252   3.913   1.575  0.0210 -0.0238  1.0143
  911SOL    HW3 3698   3.321   3.778   1.570  0.1881  0.1295 -1.6027
  911SOL    MW4 3699   3.309   3.856   1.608  0.0732 -0.6096 -0.0726
  912SOL     OW 3700   3.120   3.990   1.481  0.3479 -0.3301  0.0880
  912SOL    HW2 3701   3.130   4.079   1.515  0.7070  0.0397 -0.9788
  912SOL    HW3 3702   3.052   3.951   1.537 -1.1121  1.2031 -0.5615
  912SOL    MW4 3703   3.112   3.997   1.493  0.2027 -0.0796 -0.1384
  913SOL     OW 3704   3.176   4.233   1.610 -0.1510  0.3391  0.0751
  913SOL    HW2 3705   3.173   4.217   1.704  1.8550 -0.1178  0.0886
  913SOL    HW3 3706   3.099   4.287   1.592 -0.9429 -0.1837  1.8532
  913SOL    MW4 3707   3.166   4.238   1.620  0.0093  0.2098  0.3115
  914SOL     OW 3708   3.372   4.389   1.505 -0.4425  0.2801 -0.5547
  914SOL    HW2 3709   3.303   4.332   1.540 -0.8357  0.9457 -0.2302
  914SOL    HW3 3710   3.364   4.380   1.410  1.2018 -2.2166 -0.5012
  914SOL    MW4 3711   3.362   4.380   1.497 -0.2773  0.0386 -0.5047
  915SOL     OW 3712   3.852   4.611   1.592 -0.1805  0.1494  0.5248
  915SOL    HW2 3713   3.849   4.644   1.682  0.8470 -0.4932  0.8070
  915SOL    HW3 3714   3.912   4.671   1.547 -0.1826  0.0849  0.4356
  915SOL    MW4 3715   3.860   4.623   1.598 -0.0453  0.0567  0.5503
  916SOL     OW 3716   3.612   0.088   1.511  0.2789  0.3956 -0.0092
  916SOL    HW2 3717   3.690   0.034   1.522 -0.9704 -1.1469  1.5725
  916SOL    HW3 3718   3.603   0.098   1.416  2.7437  1.1725 -0.2118
  916SOL    MW4 3719   3.621   0.082   1.500  0.4394  0.2946  0.1729
  917SOL     OW 3720   3.594   0.359   1.576 -0.1279  0.3184 -0.4343
  917SOL    HW2 3721   3.584   0.267   1.549  0.3499 -0.7437  2.6920
  917SOL    HW3 3722   3.507   0.396   1.565 -0.8521 -1.1229  0.1854
  917SOL    MW4 3723   3.581   0.352   1.571 -0.1605 -0.0119  0.0598
  918SOL     OW 3724   3.836   0.461   1.495  0.6456 -0.2286 -0.8139
  918SOL    HW2 3725   3.757   0.416   1.523  2.2763 -2.1998  0.8256
  918SOL    HW3 3726   3.825   0.472   1.400 -0.9092 -1.8832 -0.8579
  918SOL    MW4 3727   3.824   0.456   1.486  0.6557 -0.7070 -0.6033
  919SOL     OW 3728   3.821   0.751   1.607  0.1492 -0.1943 -0.1282
  919SOL    HW2 3729   3.740   0.778   1.564 -0.6807 -0.1579  1.4371
  919SOL    HW3 3730   3.825   0.657   1.593 -0.3382 -0.2474  0.0779
  919SOL    MW4 3731   3.811   0.742   1.599 -0.0243 -0.1965  0.1056
  920SOL     OW 3732   3.584   0.845   1.505  0.1257 -0.4007 -0.4565
  920SOL    HW2 3733   3.497   0.828   1.543 -0.2283 -1.2886 -1.6036
  920SOL    HW3 3734   3.570   0.839   1.411  1.2231  0.5763 -0.6900
  920SOL    MW4 3735   3.570   0.842   1.498  0.2236 -0.3890 -0.6387
  921SOL     OW 3736   3.587   1.127   1.584  0.4075  0.0555  0.6301
  921SOL    HW2 3737   3.671   1.157   1.550  0.2924 -0.3603 -0.0109
  921SOL    HW3 3738   3.580   1.036   1.557  0.0663 -0.1160  1.2863
  921SOL    MW4 3739   3.597   1.119   1.576  0.3471 -0.0219  0.6320
  922SOL     OW 3740   3.822   1.263   1.516 -0.3861 -0.1136  0.4176
  922SOL    HW2 3741   3.909   1.233   1.543  0.2900  0.0109 -1.5397
  922SOL    HW3 3742   3.817   1.353   1.550  0.7667  0.3290 -0.5462
  922SOL    MW4 3743   3.833   1.271   1.524 -0.1447 -0.0389  0.0322
  923SOL     OW 3744   3.852   1.514   1.610 -0.2847 -0.0472 -0.2161
  923SOL    HW2 3745   3.861   1.538   1.702 -0.3468 -1.8125  0.2769
  923SOL    HW3 3746   3.766   1.548   1.584 -0.5936 -0.2067  0.5912
  923SOL    MW4 3747   3.842   1.522   1.619 -0.3338 -0.3011 -0.0443
  924SOL     OW 3748   3.601   1.599   1.526 -0.7525  0.5530  0.0148
  924SOL    HW2 3749   3.507   1.586   1.540 -0.8659  1.1694 -0.1084
  924SOL    HW3 3750   3.613   1.583   1.432 -0.9684  1.6713 -0.2243
  924SOL    MW4 3751   3.590   1.595   1.515 -0.7961  0.7818 -0.0330
  925SOL     OW 3752   3.593   1.866   1.621  0.3847  0.0653 -0.0142
  925SOL    HW2 3753   3.598   1.783   1.573 -0.5908 -0.0301  0.0372
  925SOL    HW3 3754   3.543   1.924   1.563  0.5658  0.4346  0.2004
  925SOL    MW4 3755   3.587   1.862   1.607  0.2799  0.1014  0.0210
  926SOL     OW 3756   3.808   2.012   1.518 -0.1376  0.2521  0.4654
  926SOL    HW2 3757   3.790   2.098   1.556 -0.5078  0.3463  0.0684
  926SOL    HW3 3758   3.739   1.955   1.553  0.2704  0.0506  0.9515
  926SOL    MW4 3759   3.797   2.016   1.528 -0.1326  0.2379  0.4772
  927SOL     OW 3760   3.820   2.277   1.592 -0.2247  0.2126  0.0442
  927SOL    HW2 3761   3.813   2.300   1.684 -0.4541 -0.6407  0.2380
  927SOL    HW3 3762   3.882   2.341   1.556  1.2285 -0.5580  1.1541
  927SOL    MW4 3763   3.827   2.289   1.599 -0.0634 -0.0014  0.2161
  928SOL     OW 3764   3.589   2.389   1.488  0.3859  0.4868 -0.1931
  928SOL    HW2 3765   3.598   2.462   1.551  0.1053 -0.1483  0.5900
  928SOL    HW3 3766   3.643   2.319   1.526 -1.1685 -0.4867  0.2281
  928SOL    MW4 3767   3.598   2.390   1.502  0.1438  0.2744 -0.0341
  929SOL     OW 3768   3.605   2.636   1.637 -0.1401  0.1388 -0.1268
  929SOL    HW2 3769   3.590   2.656   1.729  1.2648  1.5930 -0.1905
  929SOL    HW3 3770   3.534   2.681   1.591 -0.6029 -0.2435  0.2051
  929SOL    MW4 3771   3.594   2.645   1.643 -0.0157  0.2804 -0.0913
  930SOL     OW 3772   3.821   2.804   1.534  0.8688 -0.3678  0.1171
  930SOL    HW2 3773   3.898   2.760   1.568  0.0773 -1.4043  0.5947
  930SOL    HW3 3774   3.747   2.751   1.564 -0.0437  0.6969 -0.1895
  930SOL    MW4 3775   3.821   2.792   1.542  0.6440 -0.3643  0.1396
  931SOL     OW 3776   3.787   3.084   1.627 -0.1908  0.0377  0.0654
  931SOL    HW2 3777   3.865   3.122   1.588  0.1244  0.0801  0.7229
  931SOL    HW3 3778   3.788   2.992   1.600  0.8212 -0.2926  1.1751
  931SOL    MW4 3779   3.797   3.077   1.619 -0.0155 -0.0002  0.2985
  932SOL     OW 3780   3.596   3.242   1.519 -0.1647  0.2888 -0.5430
  932SOL    HW2 3781   3.651   3.181   1.568 -1.1503  0.4832  0.8248
  932SOL    HW3 3782   3.612   3.221   1.427  0.9138 -0.7775 -0.1109
  932SOL    MW4 3783   3.605   3.231   1.513 -0.1521  0.1738 -0.3055
  933SOL     OW 3784   3.579   3.511   1.613 -0.0241 -0.2258 -0.4035
  933SOL    HW2 3785   3.657   3.550   1.574  0.0328 -1.1580 -1.2378
  933SOL    HW3 3786   3.580   3.421   1.582 -1.0541 -0.4284  0.1597
  933SOL    MW4 3787   3.589   3.504   1.604 -0.1526 -0.3755 -0.4392
  934SOL     OW 3788   3.827   3.596   1.537 -0.4128  0.2204  0.0265
  934SOL    HW2 3789   3.903   3.548   1.570 -1.0559 -0.7942  0.0250
  934SOL    HW3 3790   3.828   3.678   1.588  0.3341 -0.0416  0.4495
  934SOL    MW4 3791   3.837   3.601   1.548 -0.3994  0.0522  0.0821
  935SOL     OW 3792   3.786   3.856   1.612  0.3187 -0.6722 -0.2731
  935SOL    HW2 3793   3.870   3.897   1.589  0.0231  0.8254  1.2354
  935SOL    HW3 3794   3.722   3.901   1.556  0.0850  0.5193  0.9215
  935SOL    MW4 3795   3.789   3.867   1.601  0.2491 -0.3178  0.0836
  936SOL     OW 3796   3.547   3.985   1.502  0.1266  0.1304  0.3262
  936SOL    HW2 3797   3.552   4.077   1.530  0.4493 -0.2269  1.4231
  936SOL    HW3 3798   3.474   3.948   1.551  0.8801 -0.5705  0.9312
  936SOL    MW4 3799   3.538   3.993   1.512  0.2687 -0.0093  0.5507
  937SOL     OW 3800   3.615   4.241   1.585  0.0038 -0.1004  0.4511
  937SOL    HW2 3801   3.621   4.236   1.680 -1.1094 -2.9886  0.3982
  937SOL    HW3 3802   3.542   4.301   1.568 -0.2285 -0.1124  1.4119
  937SOL    MW4 3803   3.606   4.249   1.595 -0.1740 -0.4830  0.5711
  938SOL     OW 3804   3.849   4.337   1.497  0.3278  0.0807  0.3076
  938SOL    HW2 3805   3.773   4.286   1.527 -0.8029  0.5975 -1.5870
  938SOL    HW3 3806   3.841   4.421   1.541 -0.8828  0.5517 -0.7652
  938SOL    MW4 3807   3.838   4.341   1.507  0.0191  0.2117 -0.0839
  939SOL     OW 3808   4.233   4.620   1.642 -0.1173 -0.3710  0.5120
  939SOL    HW2 3809   4.236   4.614   1.738  0.6279  0.1703  0.5217
  939SOL    HW3 3810   4.249   4.530   1.612  1.1160 -0.2807  0.8708
  939SOL    MW4 3811   4.236   4.607   1.651  0.1440 -0.2880  0.5605
  940SOL     OW 3812   4.063   0.083   1.484  0.0982  0.3987  0.3879
  940SOL    HW2 3813   4.069   0.162   1.537  0.3965  0.0797  0.8304
  940SOL    HW3 3814   4.128   0.023   1.522  2.7003  1.3687 -2.3321
  940SOL    MW4 3815   4.073   0.085   1.496  0.4811  0.4846  0.0875
  941SOL     OW 3816   4.050   0.342   1.608  0.0900  0.7677 -0.0959
  941SOL    HW2 3817   4.052   0.354   1.703  0.5823  0.5997 -0.0802
  941SOL    HW3 3818   3.968   0.381   1.580 -0.3321  0.2866  0.4716
  941SOL    MW4 3819   4.040   0.349   1.617  0.0992  0.6821 -0.0190
  942SOL     OW 3820   4.262   0.493   1.489 -0.3073 -0.0883  0.2326
  942SOL    HW2 3821   4.186   0.442   1.519 -0.2977 -0.4556 -0.3656
  942SOL    HW3 3822   4.333   0.465   1.546 -0.1737 -1.1454 -0.4481
  942SOL    MW4 3823   4.261   0.483   1.501 -0.2890 -0.2762  0.0638
  943SOL     OW 3824   4.282   0.745   1.601 -0.2021 -0.2289 -0.1381
  943SOL    HW2 3825   4.289   0.660   1.559  0.9486 -0.5919  0.7787
  943SOL    HW3 3826   4.344   0.801   1.554 -0.0935 -0.2061  0.0320
  943SOL    MW4 3827   4.291   0.741   1.590 -0.0358 -0.2737  0.0054
  944SOL     OW 3828   4.039   0.871   1.504  0.2024  0.6619 -0.0560
  944SOL    HW2 3829   4.112   0.826   1.546 -0.9201 -0.2141  1.0170
  944SOL    HW3 3830   3.961   0.825   1.536 -0.8897  2.3799 -0.1543
  944SOL    MW4 3831   4.038   0.859   1.514 -0.0896  0.7731  0.0725
  945SOL     OW 3832   4.040   1.158   1.591 -0.0365 -0.0063  0.0137
  945SOL    HW2 3833   4.030   1.163   1.686  1.7593  0.5077  0.1882
  945SOL    HW3 3834   4.049   1.064   1.573 -1.0962 -0.1618  0.2602
  945SOL    MW4 3835   4.040   1.146   1.601  0.0606  0.0409  0.0694
  946SOL     OW 3836   4.252   1.329   1.506  0.4202  0.5978  0.1134
  946SOL    HW2 3837   4.178   1.269   1.515  0.9894 -0.2865 -0.9090
  946SOL    HW3 3838   4.327   1.280   1.539  0.8691  0.7888 -0.5995
  946SOL    MW4 3839   4.252   1.315   1.511  0.5550  0.5064 -0.1155
  947SOL     OW 3840   4.279   1.557   1.638  0.0891 -0.0063 -0.0862
  947SOL    HW2 3841   4.264   1.478   1.586 -1.0344 -0.2572  0.5901
  947SOL    HW3 3842   4.361   1.593   1.605  0.8012 -1.6557 -0.1585
  947SOL    MW4 3843   4.288   1.552   1.627  0.0343 -0.2571 -0.0063
  948SOL     OW 3844   4.060   1.653   1.502 -0.2997 -0.3109  0.2017
  948SOL    HW2 3845   4.139   1.614   1.540 -0.4317  0.4309  1.2560
  948SOL    HW3 3846   3.989   1.600   1.537 -0.3591 -0.2422  0.1838
  948SOL    MW4 3847   4.061   1.641   1.511 -0.3247 -0.2038  0.3384
  949SOL     OW 3848   4.067   1.910   1.568 -0.4449 -0.1710 -0.2492
  949SOL    HW2 3849   4.057   1.822   1.533 -1.0087 -0.2031 -0.0091
  949SOL    HW3 3850   3.984   1.953   1.547 -0.0431  0.4083 -0.6708
  949SOL    MW4 3851   4.055   1.904   1.560 -0.4663 -0.0988 -0.2732
  950SOL     OW 3852   4.303   2.050   1.458 -0.1424  0.0710 -0.3156
  950SOL    HW2 3853   4.228   1.992   1.473 -0.4137  0.2303 -1.0129
  950SOL    HW3 3854   4.305   2.062   1.363  2.0977 -1.7260 -0.5412
  950SOL    MW4 3855   4.293   2.044   1.447  0.1173 -0.1452 -0.4374
  951SOL     OW 3856   4.276   2.304   1.569 -0.2962  0.0498  0.5172
  951SOL    HW2 3857   4.273   2.283   1.662  0.4791 -0.0985  0.5084
  951SOL    HW3 3858   4.290   2.220   1.526 -1.8073 -0.0484  0.1866
  951SOL    MW4 3859   4.277   2.290   1.576 -0.3934  0.0172  0.4723
  952SOL     OW 3860   4.044   2.439   1.467 -0.2733 -0.0920 -0.5610
  952SOL    HW2 3861   4.054   2.520   1.517  0.5357  0.2425 -1.2484
  952SOL    HW3 3862   4.116   2.383   1.498 -0.0458 -0.0529 -1.0197
  952SOL    MW4 3863   4.055   2.443   1.478 -0.1369 -0.0427 -0.7122
  953SOL     OW 3864   4.060   2.670   1.608 -0.4232 -0.2913  0.3127
  953SOL    HW2 3865   4.076   2.675   1.702 -0.1330  0.1505  0.2427
  953SOL    HW3 3866   4.134   2.717   1.569 -0.4207 -0.6664 -0.1438
  953SOL    MW4 3867   4.072   2.677   1.615 -0.3848 -0.2825  0.2433
  954SOL     OW 3868   4.291   2.825   1.493 -0.3924 -0.1521  0.2296
  954SOL    HW2 3869   4.289   2.917   1.520 -0.5047 -0.1043  0.0606
  954SOL    HW3 3870   4.317   2.828   1.401 -0.6851 -0.2731  0.1442
  954SOL    MW4 3871   4.294   2.838   1.484 -0.4454 -0.1616  0.1961
  955SOL     OW 3872   4.262   3.059   1.626 -0.3433  0.4127  0.0696
  955SOL    HW2 3873   4.281   3.047   1.719  0.1589 -1.0625 -0.2059
  955SOL    HW3 3874   4.341   3.099   1.590 -0.5671  1.0534  0.2871
  955SOL    MW4 3875   4.275   3.062   1.634 -0.3066  0.3026  0.0620
  956SOL     OW 3876   4.031   3.198   1.507  0.1784  0.2352  0.0140
  956SOL    HW2 3877   4.044   3.281   1.553  0.5879  0.8344 -1.1740
  956SOL    HW3 3878   4.095   3.138   1.547  0.3230  0.6617  0.4265
  956SOL    MW4 3879   4.041   3.201   1.518  0.2513  0.3705 -0.0883
  957SOL     OW 3880   4.033   3.455   1.627  0.4379  0.3395 -0.3324
  957SOL    HW2 3881   4.042   3.456   1.722 -2.1332  1.1885 -0.0550
  957SOL    HW3 3882   4.119   3.481   1.594  1.1236  0.8160  1.7821
  957SOL    MW4 3883   4.046   3.458   1.635  0.1898  0.5145 -0.0168
  958SOL     OW 3884   4.287   3.556   1.577  0.2460  0.0269 -0.2525
  958SOL    HW2 3885   4.279   3.645   1.611  2.1620  0.2349 -0.2571
  958SOL    HW3 3886   4.283   3.566   1.482 -0.4737 -0.0073 -0.2274
  958SOL    MW4 3887   4.286   3.569   1.569  0.4039  0.0496 -0.2499
  959SOL     OW 3888   4.277   3.837   1.662 -0.0189 -0.3282 -0.0440
  959SOL    HW2 3889   4.199   3.862   1.612 -0.2817 -2.8439 -0.9845
  959SOL    HW3 3890   4.349   3.884   1.620 -0.6893  0.0143 -0.8281
  959SOL    MW4 3891   4.276   3.846   1.649 -0.1421 -0.6146 -0.2716
  960SOL     OW 3892   4.038   3.951   1.525 -0.1156  0.1237 -0.0665
  960SOL    HW2 3893   4.028   4.042   1.554 -0.9788  0.0599 -0.1596
  960SOL    HW3 3894   4.047   3.957   1.430 -1.4324  0.0185 -0.2017
  960SOL    MW4 3895   4.038   3.964   1.516 -0.4034  0.1013 -0.0967
  961SOL     OW 3896   4.043   4.202   1.624  0.2314  0.0223  0.2568
  961SOL    HW2 3897   4.034   4.223   1.717 -0.4711 -0.4510  0.2945
  961SOL    HW3 3898   3.963   4.236   1.584  0.2580 -0.3185 -0.0853
  961SOL    MW4 3899   4.031   4.210   1.631  0.1426 -0.0849  0.2168
  962SOL     OW 3900   4.256   4.373   1.540  0.0415 -0.5754  0.4274
  962SOL    HW2 3901   4.191   4.308   1.567  1.1049 -2.2070 -0.8781
  962SOL    HW3 3902   4.241   4.385   1.446  1.7410 -1.1338  0.0628
  962SOL    MW4 3903   4.246   4.366   1.531  0.4058 -0.8650  0.2071
  963SOL     OW 3904   0.226   4.638   1.915 -0.0007  0.0633 -0.0064
  963SOL    HW2 3905   0.293   4.695   1.952  0.0269  0.0537 -0.0409
  963SOL    HW3 3906   0.237   4.648   1.820 -0.2939  0.3498 -0.0118
  963SOL    MW4 3907   0.236   4.647   1.907 -0.0358  0.0997 -0.0117
  964SOL     OW 3908   4.484   0.084   2.007 -0.2670 -0.0980 -0.3129
  964SOL    HW2 3909   4.473   0.178   1.989  1.7304  0.4203  0.9783
  964SOL    HW3 3910   4.566   0.061   1.963 -0.9237 -1.3267 -0.9060
  964SOL    MW4 3911   4.494   0.094   1.999 -0.0896 -0.1917 -0.2209
  965SOL     OW 3912   4.485   0.359   1.928  0.3239  0.2131 -0.2301
  965SOL    HW2 3913   4.408   0.416   1.936  0.1802 -0.1930  1.4955
  965SOL    HW3 3914   4.560   0.416   1.946  0.3315  0.3224 -0.6106
  965SOL    MW4 3915   4.485   0.374   1.932  0.3061  0.1740 -0.0527
  966SOL     OW 3916   0.207   0.531   1.976 -0.0356 -0.2623  0.3698
  966SOL    HW2 3917   0.280   0.486   1.934 -0.1919 -0.6088  0.4728
  966SOL    HW3 3918   0.208   0.619   1.937 -0.3722 -0.6777 -0.5993
  966SOL    MW4 3919   0.217   0.537   1.965 -0.1007 -0.3628  0.2556
  967SOL     OW 3920   0.210   0.786   1.860  0.0237  0.1847  0.7196
  967SOL    HW2 3921   0.295   0.820   1.888  0.7786 -1.2729  0.2732
  967SOL    HW3 3922   0.209   0.799   1.765  0.6393 -1.6505  0.4348
  967SOL    MW4 3923   0.221   0.792   1.851  0.2045 -0.2497  0.6231
  968SOL     OW 3924   4.489   0.938   1.941 -0.5257 -0.2144  0.3726
  968SOL    HW2 3925   4.417   0.885   1.907  0.1240 -0.8566 -0.0262
  968SOL    HW3 3926   4.567   0.887   1.922  0.1282  0.9547 -0.1069
  968SOL    MW4 3927   4.490   0.924   1.934 -0.3538 -0.1448  0.2568
  969SOL     OW 3928   0.007   1.187   1.845 -0.0833  0.0689 -0.4623
  969SOL    HW2 3929  -0.067   1.224   1.893 -0.1002  1.4273 -1.5138
  969SOL    HW3 3930   0.005   1.093   1.868 -0.4767  0.5530  1.6465
  969SOL    MW4 3931  -0.003   1.179   1.855 -0.1373  0.3121 -0.3227
  970SOL     OW 3932   0.236   1.242   1.978  0.0296  0.0787  0.6816
  970SOL    HW2 3933   0.240   1.329   1.939 -0.2930  0.9479  2.5085
  970SOL    HW3 3934   0.150   1.208   1.952  1.3000 -0.9142 -2.4411
  970SOL    MW4 3935   0.225   1.249   1.970  0.1547  0.0625  0.5106
  971SOL     OW 3936   0.234   1.492   1.872 -0.0284 -0.2746 -0.0152
  971SOL    HW2 3937   0.312   1.539   1.903  0.8761 -2.0494  0.4637
  971SOL    HW3 3938   0.161   1.539   1.911  0.8544  0.6789  0.5317
  971SOL    MW4 3939   0.235   1.504   1.881  0.2074 -0.3830  0.1200
  972SOL     OW 3940   0.022   1.614   1.976 -0.0687 -0.3146  0.2089
  972SOL    HW2 3941   0.011   1.608   2.071 -1.4939 -1.9777 -0.0463
  972SOL    HW3 3942  -0.062   1.588   1.940  0.7066 -0.4673 -1.5356
  972SOL    MW4 3943   0.010   1.610   1.984 -0.1545 -0.5542 -0.0550
  973SOL     OW 3944   4.473   1.868   1.876 -0.6904 -0.4246  0.6169
  973SOL    HW2 3945   4.410   1.923   1.922 -0.9523 -0.5779  0.4368
  973SOL    HW3 3946   4.482   1.791   1.932 -1.4113 -0.8553  0.1516
  973SOL    MW4 3947   4.466   1.865   1.890 -0.8201 -0.5015  0.5317
  974SOL     OW 3948   0.210   2.029   1.996 -0.3669 -0.2845  0.1803
  974SOL    HW2 3949   0.193   2.118   1.965 -0.7912 -0.3525  0.2161
  974SOL    HW3 3950   0.130   1.980   1.974 -0.0741 -0.6949  0.0150
  974SOL    MW4 3951   0.197   2.034   1.989 -0.3842 -0.3474  0.1631
  975SOL     OW 3952   0.204   2.298   1.931  0.1711  0.4742 -0.4175
  975SOL    HW2 3953   0.281   2.347   1.962  1.5268 -1.4144 -0.7006
  975SOL    HW3 3954   0.130   2.338   1.977  1.7260 -0.0034  2.6255
  975SOL    MW4 3955   0.205   2.310   1.941  0.5551  0.1619 -0.0533
  976SOL     OW 3956   4.471   2.447   2.025 -0.1373 -0.2486  0.1574
  976SOL    HW2 3957   4.448   2.453   2.118 -2.0881 -0.3236 -0.2868
  976SOL    HW3 3958   4.501   2.535   2.002  2.5061 -0.7785  1.3571
  976SOL    MW4 3959   4.472   2.460   2.034 -0.0467 -0.3285  0.2570
  977SOL     OW 3960   0.056   2.697   1.935 -0.0053  0.4893  0.3121
  977SOL    HW2 3961  -0.029   2.733   1.962 -0.4198 -0.3266  0.0943
  977SOL    HW3 3962   0.051   2.694   1.840  0.5794  1.1903  0.2531
  977SOL    MW4 3963   0.044   2.702   1.926  0.0172  0.4742  0.2755
  978SOL     OW 3964   0.268   2.838   2.021  0.3544 -0.1786 -0.3902
  978SOL    HW2 3965   0.252   2.924   1.982  0.3458  0.5591  1.2390
  978SOL    HW3 3966   0.191   2.786   1.998 -0.8191  1.0169  0.7797
  978SOL    MW4 3967   0.256   2.842   2.012  0.1985  0.0763 -0.0210
  979SOL     OW 3968   0.225   3.081   1.910  0.4834  0.0478 -0.1961
  979SOL    HW2 3969   0.309   3.120   1.935  0.8920 -0.8514 -0.1559
  979SOL    HW3 3970   0.231   3.070   1.815  0.4875 -0.1942 -0.1678
  979SOL    MW4 3971   0.237   3.085   1.901  0.5378 -0.1028 -0.1869
  980SOL     OW 3972   0.015   3.235   2.009  0.1362 -0.1237 -0.2821
  980SOL    HW2 3973  -0.062   3.183   1.988 -0.8720  0.2799  2.2337
  980SOL    HW3 3974   0.089   3.181   1.980 -0.9942 -1.8536 -0.0120
  980SOL    MW4 3975   0.015   3.221   2.003 -0.1464 -0.2985  0.0856
  981SOL     OW 3976   0.007   3.492   1.893 -0.1827 -0.4455  0.3167
  981SOL    HW2 3977   0.080   3.543   1.929 -1.0975 -0.4105  2.1684
  981SOL    HW3 3978   0.017   3.405   1.930 -0.8129 -0.5708  0.2075
  981SOL    MW4 3979   0.018   3.488   1.903 -0.3862 -0.4573  0.5465
  982SOL     OW 3980   0.219   3.629   1.999  0.0684  0.5500  0.0215
  982SOL    HW2 3981   0.190   3.625   2.090 -0.4854 -1.6822 -0.2188
  982SOL    HW3 3982   0.302   3.582   1.998 -0.1787  0.1183 -0.7235
  982SOL    MW4 3983   0.226   3.622   2.010 -0.0373  0.1986 -0.1085
  983SOL     OW 3984   0.217   3.880   1.870  0.4286 -0.2262 -0.2281
  983SOL    HW2 3985   0.296   3.926   1.900  0.8073 -0.8911 -0.1890
  983SOL    HW3 3986   0.221   3.796   1.915 -0.0356 -0.4639 -0.6328
  983SOL    MW4 3987   0.228   3.875   1.880  0.4173 -0.3455 -0.2763
  984SOL     OW 3988   0.023   4.038   1.984 -0.2560  0.0879 -0.0250
  984SOL    HW2 3989  -0.000   4.120   1.940 -0.4362 -0.7083 -1.4578
  984SOL    HW3 3990   0.081   3.993   1.922  0.3354 -0.5979  1.0060
  984SOL    MW4 3991   0.027   4.043   1.970 -0.2017 -0.1078 -0.0781
  985SOL     OW 3992   4.471   4.287   1.913  0.2502 -0.2610 -0.3826
  985SOL    HW2 3993   4.393   4.313   1.961 -0.0409  3.2522 -2.5971
  985SOL    HW3 3994   4.544   4.323   1.963  0.4079 -2.1325  0.7955
  985SOL    MW4 3995   4.471   4.295   1.926  0.2325 -0.0443 -0.5194
  986SOL     OW 3996   0.197   4.390   2.036 -0.0758 -0.3143  0.0561
  986SOL    HW2 3997   0.185   4.417   2.127 -0.5479 -0.3714  0.0153
  986SOL    HW3 3998   0.193   4.473   1.987  0.2260 -0.2789  0.0912
  986SOL    MW4 3999   0.195   4.405   2.042 -0.0982 -0.3176  0.0553
  987SOL     OW 4000   0.645   0.012   1.901  0.3199 -0.1111 -0.0301
  987SOL    HW2 4001   0.641  -0.072   1.945 -2.5154  0.8198  1.5960
  987SOL    HW3 4002   0.622  -0.008   1.810  1.1726 -1.3091  0.0114
  987SOL    MW4 4003   0.641  -0.002   1.895  0.0584 -0.1464  0.1899
  988SOL     OW 4004   0.437   0.152   2.000  0.6375  0.3725 -0.0261
  988SOL    HW2 4005   0.423   0.239   1.963  0.4045  0.2567 -0.2095
  988SOL    HW3 4006   0.508   0.115   1.948  0.5154  0.3275 -0.1618
  988SOL    MW4 4007   0.444   0.158   1.988  0.5906  0.3513 -0.0682
  989SOL     OW 4008   0.415   0.397   1.864  0.1216  0.1463 -0.6169
  989SOL    HW2 4009   0.498   0.427   1.901 -0.1316 -0.4466  0.4430
  989SOL    HW3 4010   0.428   0.405   1.769  0.8306  1.5201 -0.4327
  989SOL    MW4 4011   0.428   0.402   1.856  0.1818  0.2494 -0.4526
  990SOL     OW 4012   0.652   0.512   1.957  0.2652  0.1117  0.0464
  990SOL    HW2 4013   0.646   0.513   2.052  0.6825  0.0264  0.0753
  990SOL    HW3 4014   0.740   0.479   1.939 -0.2735 -1.1440 -0.3837
  990SOL    MW4 4015   0.663   0.508   1.967  0.2492 -0.0653 -0.0064
  991SOL     OW 4016   0.680   0.755   1.860  0.4058 -0.5560 -0.2874
  991SOL    HW2 4017   0.756   0.793   1.904 -0.7103 -0.0038  1.2211
  991SOL    HW3 4018   0.671   0.668   1.899  0.8901 -1.0352 -1.2342
  991SOL    MW4 4019   0.689   0.749   1.871  0.3225 -0.5463 -0.2131
  992SOL     OW 4020   0.461   0.877   1.992 -0.1813 -0.0162  0.0547
  992SOL    HW2 4021   0.460   0.971   1.974  0.0791  0.1675  0.9583
  992SOL    HW3 4022   0.529   0.843   1.933 -0.7978  0.2436 -0.8115
  992SOL    MW4 4023   0.470   0.885   1.982 -0.2283  0.0423  0.0597
  993SOL     OW 4024   0.462   1.139   1.860 -0.3048 -0.2575 -0.2591
  993SOL    HW2 4025   0.378   1.176   1.889  0.8524  1.5083  0.9283
  993SOL    HW3 4026   0.457   1.141   1.764 -1.9769 -1.0321 -0.2084
  993SOL    MW4 4027   0.450   1.144   1.851 -0.3728 -0.1270 -0.0958
  994SOL     OW 4028   0.672   1.284   1.984  0.0826 -0.0820  0.2824
  994SOL    HW2 4029   0.653   1.283   2.078  0.2160  1.5345  0.3461
  994SOL    HW3 4030   0.596   1.243   1.944 -0.3202 -0.0937  1.0462
  994SOL    MW4 4031   0.660   1.279   1.991  0.0470  0.1297  0.3916
  995SOL     OW 4032   0.696   1.546   1.872 -0.8027 -0.3238 -0.5276
  995SOL    HW2 4033   0.700   1.457   1.907 -0.4115  0.0432  0.3787
  995SOL    HW3 4034   0.681   1.534   1.778  0.2698 -1.3689 -0.5834
  995SOL    MW4 4035   0.695   1.533   1.864 -0.6096 -0.4133 -0.4154
  996SOL     OW 4036   0.450   1.658   1.981  0.5044 -0.1712 -0.4816
  996SOL    HW2 4037   0.449   1.647   2.076 -0.3719 -0.4402 -0.5237
  996SOL    HW3 4038   0.542   1.643   1.957  0.4974 -1.3557  0.1824
  996SOL    MW4 4039   0.462   1.655   1.991  0.3878 -0.3631 -0.3996
  997SOL     OW 4040   0.450   1.920   1.885  0.4986 -0.0625 -0.2250
  997SOL    HW2 4041   0.420   1.831   1.904  1.7391 -0.4994 -0.2932
  997SOL    HW3 4042   0.373   1.975   1.902 -0.8999 -1.3501 -2.1330
  997SOL    MW4 4043   0.436   1.916   1.890  0.4777 -0.2899 -0.4858
  998SOL     OW 4044   0.677   2.022   1.996  0.0331 -0.7996  0.0451
  998SOL    HW2 4045   0.671   2.002   2.089 -0.7090 -0.6505  0.0284
  998SOL    HW3 4046   0.591   2.001   1.960 -0.4585  1.3694 -0.1657
  998SOL    MW4 4047   0.665   2.017   2.003 -0.1296 -0.4938  0.0153
  999SOL     OW 4048   0.642   2.313   1.919  0.2959 -0.2000 -0.0358
  999SOL    HW2 4049   0.657   2.222   1.944  1.7766  0.1066  0.2677
  999SOL    HW3 4050   0.665   2.316   1.826  0.1205 -0.1673 -0.0772
  999SOL    MW4 4051   0.647   2.301   1.910  0.4682 -0.1552 -0.0012
 1000SOL     OW 4052   0.410   2.453   2.013  0.1218 -0.1532  0.5568
 1000SOL    HW2 4053   0.430   2.458   2.107  1.1199  1.7399  0.2705
 1000SOL    HW3 4054   0.487   2.412   1.974 -0.3504 -1.0656  0.5672
 1000SOL    MW4 4055   0.423   2.448   2.020  0.1912 -0.0236  0.5205
 1001SOL     OW 4056   0.514   2.712   1.949 -0.3714  0.4783  0.0129
 1001SOL    HW2 4057   0.500   2.626   1.988 -0.8285 -0.4485 -2.1243
 1001SOL    HW3 4058   0.435   2.761   1.971  0.0117  0.4676  1.4757
 1001SOL    MW4 4059   0.502   2.707   1.957 -0.3812  0.3548 -0.0761
 1002SOL     OW 4060   0.750   2.843   2.005  0.2015 -0.1700  0.1689
 1002SOL    HW2 4061   0.734   2.844   2.099  0.1992 -0.3743  0.1708
 1002SOL    HW3 4062   0.677   2.793   1.968 -0.4969  1.0103 -0.0773
 1002SOL    MW4 4063   0.738   2.837   2.013  0.1090 -0.0415  0.1366
 1003SOL     OW 4064   0.697   3.078   1.898 -0.0366  0.0119 -0.0569
 1003SOL    HW2 4065   0.722   2.988   1.920  0.1826  0.2148  0.5518
 1003SOL    HW3 4066   0.669   3.073   1.807 -0.3930 -0.7471  0.0851
 1003SOL    MW4 4067   0.697   3.065   1.889 -0.0547 -0.0615  0.0422
 1004SOL     OW 4068   0.464   3.194   2.012 -0.0854 -0.4362  0.2761
 1004SOL    HW2 4069   0.465   3.279   1.968 -0.4176 -0.4364  0.2735
 1004SOL    HW3 4070   0.538   3.147   1.973  0.2581 -0.0543  0.4640
 1004SOL    MW4 4071   0.474   3.199   2.001 -0.0840 -0.3858  0.3004
 1005SOL     OW 4072   0.451   3.464   1.945  0.6681 -0.2597  0.3429
 1005SOL    HW2 4073   0.529   3.513   1.971  1.4518 -0.8071 -0.9473
 1005SOL    HW3 4074   0.444   3.479   1.851 -1.1993  0.3581  0.5719
 1005SOL    MW4 4075   0.461   3.473   1.936  0.5251 -0.2506  0.2029
 1006SOL     OW 4076   0.653   3.637   2.007  0.4448 -0.5737 -0.0182
 1006SOL    HW2 4077   0.722   3.597   1.955 -1.2174 -0.5751 -2.2713
 1006SOL    HW3 4078   0.647   3.727   1.975 -1.0049 -0.7524 -0.2767
 1006SOL    MW4 4079   0.661   3.644   1.996  0.0342 -0.5972 -0.3498
 1007SOL     OW 4080   0.644   3.881   1.890 -0.2455  0.3690  0.0718
 1007SOL    HW2 4081   0.725   3.931   1.905  0.2739 -0.1479 -0.9138
 1007SOL    HW3 4082   0.637   3.875   1.794 -0.8371 -0.5694  0.1623
 1007SOL    MW4 4083   0.654   3.886   1.879 -0.2550  0.1769 -0.0463
 1008SOL     OW 4084   0.406   4.007   1.998  0.0168 -0.3228 -0.6309
 1008SOL    HW2 4085   0.415   4.100   1.978 -0.8955 -0.0053  0.3947
 1008SOL    HW3 4086   0.482   3.966   1.956  0.6690  0.9395 -0.7050
 1008SOL    MW4 4087   0.417   4.014   1.990 -0.0175 -0.1140 -0.5054
 1009SOL     OW 4088   0.442   4.266   1.926  0.1811  0.1285 -0.0644
 1009SOL    HW2 4089   0.360   4.292   1.969 -0.5987 -1.3455 -0.6042
 1009SOL    HW3 4090   0.423   4.274   1.832  0.4739 -0.7400 -0.2002
 1009SOL    MW4 4091   0.429   4.270   1.919  0.1169 -0.1807 -0.1535
 1010SOL     OW 4092   0.646   4.431   2.002  0.2883 -0.3797 -0.0980
 1010SOL    HW2 4093   0.726   4.388   1.972 -0.1568 -2.3290  1.3548
 1010SOL    HW3 4094   0.575   4.372   1.974 -0.5403  0.6651 -0.2320
 1010SOL    MW4 4095   0.647   4.418   1.994  0.1203 -0.4988  0.0761
 1011SOL     OW 4096   1.093   0.046   1.916  0.1463  0.0762 -0.1923
 1011SOL    HW2 4097   1.176   0.074   1.955 -1.0394  2.5899  0.6507
 1011SOL    HW3 4098   1.081  -0.043   1.949  2.1365 -0.0547  0.2822
 1011SOL    MW4 4099   1.102   0.038   1.926  0.2522  0.3906 -0.0186
 1012SOL     OW 4100   0.856   0.162   2.003 -0.0885  0.3700  0.2193
 1012SOL    HW2 4101   0.933   0.119   1.965 -1.3471  0.2101 -2.2855
 1012SOL    HW3 4102   0.782   0.111   1.971 -1.2739  0.6568  2.4043
 1012SOL    MW4 4103   0.856   0.150   1.994 -0.4110  0.3867  0.1771
 1013SOL     OW 4104   0.902   0.403   1.886 -0.1867 -0.4607  0.1676
 1013SOL    HW2 4105   0.966   0.448   1.941  0.0568 -1.0060  0.3338
 1013SOL    HW3 4106   0.888   0.318   1.929 -0.8592 -0.4326  0.0169
 1013SOL    MW4 4107   0.909   0.398   1.899 -0.2433 -0.5289  0.1698
 1014SOL     OW 4108   1.110   0.526   2.001  0.1943 -0.2535  0.2297
 1014SOL    HW2 4109   1.194   0.491   1.972 -0.1480 -0.9711  0.0853
 1014SOL    HW3 4110   1.100   0.608   1.954  1.1728  0.2199  0.8288
 1014SOL    MW4 4111   1.120   0.532   1.991  0.2781 -0.2857  0.2898
 1015SOL     OW 4112   1.115   0.761   1.818  0.2526  0.3475 -0.1809
 1015SOL    HW2 4113   1.189   0.793   1.870  1.1627  1.3728 -2.0579
 1015SOL    HW3 4114   1.037   0.791   1.866  0.9880 -1.0327  1.9927
 1015SOL    MW4 4115   1.114   0.769   1.831  0.4697  0.3007 -0.1416
 1016SOL     OW 4116   0.909   0.872   1.978 -0.0669  0.1049  0.1722
 1016SOL    HW2 4117   0.918   0.863   2.073  2.0690 -0.1471 -0.0270
 1016SOL    HW3 4118   0.907   0.966   1.963  0.3141  0.1523  0.4101
 1016SOL    MW4 4119   0.910   0.883   1.989  0.2652  0.0778  0.1775
 1017SOL     OW 4120   0.913   1.150   1.893 -0.0018 -0.2215  0.0410
 1017SOL    HW2 4121   0.826   1.173   1.923  0.4864  1.4639  0.2269
 1017SOL    HW3 4122   0.905   1.140   1.798 -0.2831  0.5261 -0.0170
 1017SOL    MW4 4123   0.901   1.152   1.884  0.0255  0.0995  0.0578
 1018SOL     OW 4124   1.133   1.281   2.012  0.4502 -0.4247 -0.2769
 1018SOL    HW2 4125   1.140   1.367   1.970 -0.5019 -0.2718 -0.1311
 1018SOL    HW3 4126   1.058   1.240   1.970 -0.0584 -0.5650  0.7457
 1018SOL    MW4 4127   1.124   1.287   2.001  0.2574 -0.4232 -0.1230
 1019SOL     OW 4128   1.151   1.536   1.906 -0.1122 -0.8677  0.1468
 1019SOL    HW2 4129   1.065   1.561   1.940  0.6613  2.4334 -0.0937
 1019SOL    HW3 4130   1.141   1.539   1.810  0.5102  0.5224  0.1151
 1019SOL    MW4 4131   1.139   1.540   1.898  0.0720 -0.2487  0.1109
 1020SOL     OW 4132   0.886   1.668   2.026  0.4287  0.2073 -0.4772
 1020SOL    HW2 4133   0.898   1.746   1.972 -1.8292  1.2342  0.4172
 1020SOL    HW3 4134   0.812   1.623   1.985  1.9789 -1.7089 -1.2249
 1020SOL    MW4 4135   0.878   1.673   2.013  0.3353  0.0900 -0.4580
 1021SOL     OW 4136   0.913   1.918   1.903  0.0831 -0.0963 -0.3686
 1021SOL    HW2 4137   0.834   1.956   1.941 -0.5512 -1.9190  0.1693
 1021SOL    HW3 4138   0.896   1.920   1.808 -0.9766 -1.2252 -0.2222
 1021SOL    MW4 4139   0.900   1.923   1.895 -0.1404 -0.4857 -0.2782
 1022SOL     OW 4140   1.151   2.015   1.973  0.2398 -0.8581  0.1951
 1022SOL    HW2 4141   1.150   2.110   1.969  0.1134 -0.8463  0.4580
 1022SOL    HW3 4142   1.064   1.989   1.941  0.3490 -0.8922 -0.0695
 1022SOL    MW4 4143   1.139   2.024   1.968  0.2376 -0.8609  0.1949
 1023SOL     OW 4144   1.146   2.284   1.920  0.3615  0.1731  0.1019
 1023SOL    HW2 4145   1.232   2.323   1.938  0.4223  0.6038 -1.1183
 1023SOL    HW3 4146   1.143   2.273   1.825 -0.6193 -0.5782  0.2115
 1023SOL    MW4 4147   1.157   2.288   1.910  0.2402  0.1307 -0.0446
 1024SOL     OW 4148   0.908   2.440   1.987  0.5066  0.0128  0.0268
 1024SOL    HW2 4149   0.977   2.390   1.943  1.4272  1.5510 -0.3220
 1024SOL    HW3 4150   0.834   2.380   1.992  1.0893 -0.8748 -1.7297
 1024SOL    MW4 4151   0.907   2.425   1.982  0.7049  0.0987 -0.2511
 1025SOL     OW 4152   0.950   2.694   1.884 -0.4353  0.1345  0.5922
 1025SOL    HW2 4153   0.934   2.608   1.923  0.0769  0.0229  0.5637
 1025SOL    HW3 4154   0.875   2.747   1.911 -0.3540 -0.0978  1.2725
 1025SOL    MW4 4155   0.938   2.690   1.893 -0.3570  0.0892  0.6781
 1026SOL     OW 4156   1.141   2.865   1.997 -0.1829 -0.0286 -0.5779
 1026SOL    HW2 4157   1.140   2.858   2.093  0.6701 -0.2377 -0.5756
 1026SOL    HW3 4158   1.075   2.803   1.968  0.2211 -0.6706 -0.1527
 1026SOL    MW4 4159   1.132   2.856   2.006 -0.0169 -0.1411 -0.5217
 1027SOL     OW 4160   1.123   3.128   1.920  0.6638  0.4856  0.2768
 1027SOL    HW2 4161   1.040   3.165   1.951  0.1609 -0.0405 -0.4377
 1027SOL    HW3 4162   1.117   3.035   1.941  1.2790  0.5256  0.6516
 1027SOL    MW4 4163   1.111   3.121   1.927  0.6787  0.4215  0.2319
 1028SOL     OW 4164   0.895   3.235   1.980 -0.1454  0.4646 -0.1958
 1028SOL    HW2 4165   0.897   3.241   2.075  1.1042 -0.4006 -0.1578
 1028SOL    HW3 4166   0.820   3.178   1.961 -0.0487  0.1707  0.2956
 1028SOL    MW4 4167   0.885   3.228   1.990  0.0322  0.3114 -0.1260
 1029SOL     OW 4168   0.847   3.502   1.887  0.3975  0.1368 -0.8569
 1029SOL    HW2 4169   0.851   3.407   1.901 -1.3375 -0.0527 -1.5252
 1029SOL    HW3 4170   0.871   3.514   1.795 -3.1267 -0.0296 -1.8453
 1029SOL    MW4 4171   0.851   3.491   1.876 -0.2964  0.0899 -1.0756
 1030SOL     OW 4172   1.099   3.616   1.963 -0.1367 -0.0810  0.4569
 1030SOL    HW2 4173   1.104   3.612   2.059  1.5756 -1.7005  0.3342
 1030SOL    HW3 4174   1.012   3.580   1.943  0.0730 -1.1255  1.3514
 1030SOL    MW4 4175   1.088   3.611   1.973  0.1169 -0.4325  0.5587
 1031SOL     OW 4176   1.077   3.870   1.879 -0.4319 -0.2607 -0.2645
 1031SOL    HW2 4177   1.079   3.778   1.907 -2.5307 -0.1208  0.4493
 1031SOL    HW3 4178   1.078   3.866   1.784 -1.6745 -1.0794 -0.2577
 1031SOL    MW4 4179   1.078   3.857   1.870 -0.8727 -0.3500 -0.1695
 1032SOL     OW 4180   0.866   4.039   1.948 -0.3362  0.0540  0.2910
 1032SOL    HW2 4181   0.852   4.026   2.042 -0.9440  0.6862  0.2954
 1032SOL    HW3 4182   0.939   3.982   1.927 -0.8630 -0.8933  0.9391
 1032SOL    MW4 4183   0.873   4.030   1.958 -0.4859  0.0129  0.3771
 1033SOL     OW 4184   0.881   4.318   1.897  0.0723 -0.1162 -0.0790
 1033SOL    HW2 4185   0.959   4.345   1.944  0.4429 -0.1147 -0.6887
 1033SOL    HW3 4186   0.873   4.224   1.915  1.0942 -0.4478 -1.2607
 1033SOL    MW4 4187   0.890   4.309   1.906  0.2560 -0.1602 -0.3153
 1034SOL     OW 4188   1.102   4.429   2.015 -0.0976  0.1633  0.3777
 1034SOL    HW2 4189   1.117   4.424   2.109 -0.4934  1.9761  0.5574
 1034SOL    HW3 4190   1.177   4.384   1.976  0.6395  0.3722  1.5253
 1034SOL    MW4 4191   1.114   4.423   2.022 -0.0526  0.4301  0.5527
 1035SOL     OW 4192   1.527   0.021   1.911  0.0889 -0.0400  0.3507
 1035SOL    HW2 4193   1.610   0.059   1.940 -0.4591  0.7548  0.9032
 1035SOL    HW3 4194   1.531  -0.070   1.939  1.7694 -0.6543 -1.7013
 1035SOL    MW4 4195   1.538   0.014   1.918  0.2382 -0.0162  0.1529
 1036SOL     OW 4196   1.325   0.167   2.006  0.2471 -0.5455 -0.3327
 1036SOL    HW2 4197   1.321   0.168   2.102 -0.2827 -0.5119 -0.3504
 1036SOL    HW3 4198   1.400   0.112   1.986  0.4860 -0.3823  0.1063
 1036SOL    MW4 4199   1.334   0.160   2.016  0.2087 -0.5196 -0.2770
 1037SOL     OW 4200   1.364   0.414   1.890  0.4884  0.4946  0.4354
 1037SOL    HW2 4201   1.348   0.325   1.919  0.8977  0.7604  1.5220
 1037SOL    HW3 4202   1.349   0.412   1.796  0.7743 -0.7845  0.4032
 1037SOL    MW4 4203   1.360   0.402   1.882  0.5802  0.3609  0.5745
 1038SOL     OW 4204   1.602   0.509   2.004 -0.2240 -0.0306  0.4372
 1038SOL    HW2 4205   1.669   0.451   1.967 -1.0247 -0.7493  0.0927
 1038SOL    HW3 4206   1.519   0.472   1.973 -0.7040  2.0234 -0.8390
 1038SOL    MW4 4207   1.600   0.496   1.995 -0.3929  0.1455  0.2235
 1039SOL     OW 4208   1.580   0.770   1.853 -0.3561 -0.0866 -0.5120
 1039SOL    HW2 4209   1.658   0.811   1.889  0.2647 -0.6270 -1.2394
 1039SOL    HW3 4210   1.579   0.682   1.889 -1.9730  0.6962  1.4594
 1039SOL    MW4 4211   1.590   0.764   1.862 -0.4874 -0.0546 -0.3479
 1040SOL     OW 4212   1.326   0.898   1.959 -0.2270  0.6281 -0.3159
 1040SOL    HW2 4213   1.319   0.915   2.053 -0.6981 -1.7105  0.0987
 1040SOL    HW3 4214   1.414   0.863   1.947 -0.6639 -0.4469 -0.4927
 1040SOL    MW4 4215   1.337   0.896   1.970 -0.3468  0.1778 -0.2846
 1041SOL     OW 4216   1.347   1.168   1.874 -0.2633 -0.2843 -0.2693
 1041SOL    HW2 4217   1.351   1.075   1.898  0.9329  0.0445  0.8593
 1041SOL    HW3 4218   1.275   1.203   1.925 -1.3960 -0.8066 -1.4875
 1041SOL    MW4 4219   1.338   1.160   1.884 -0.2549 -0.3097 -0.2811
 1042SOL     OW 4220   1.614   1.269   1.952  0.2260  0.0816  0.3067
 1042SOL    HW2 4221   1.602   1.354   1.910  0.0914 -0.9757 -1.9015
 1042SOL    HW3 4222   1.534   1.220   1.930  1.4905 -1.5412 -0.8156
 1042SOL    MW4 4223   1.602   1.274   1.943  0.3752 -0.2719 -0.1327
 1043SOL     OW 4224   1.594   1.543   1.877 -0.0594  0.0059  0.1994
 1043SOL    HW2 4225   1.668   1.582   1.923  0.1341 -0.0687 -0.0439
 1043SOL    HW3 4226   1.518   1.593   1.906  0.1519  0.3826  0.0987
 1043SOL    MW4 4227   1.594   1.555   1.887 -0.0060  0.0458  0.1540
 1044SOL     OW 4228   1.370   1.670   1.998  0.3424 -0.2727 -0.0558
 1044SOL    HW2 4229   1.362   1.668   2.093  0.0030 -1.4920 -0.0967
 1044SOL    HW3 4230   1.284   1.640   1.967  0.2112  0.8029 -0.7588
 1044SOL    MW4 4231   1.357   1.666   2.006  0.2804 -0.2918 -0.1540
 1045SOL     OW 4232   1.388   1.916   1.847  0.2788  0.4518  0.0678
 1045SOL    HW2 4233   1.384   1.828   1.884  0.5522  0.5048  0.2238
 1045SOL    HW3 4234   1.301   1.953   1.863  0.5549  0.6541  1.1045
 1045SOL    MW4 4235   1.376   1.909   1.854  0.3512  0.4854  0.2251
 1046SOL     OW 4236   1.601   2.045   1.987  0.1934  0.6042  0.4058
 1046SOL    HW2 4237   1.610   2.133   1.950  2.4438 -0.5355 -1.8680
 1046SOL    HW3 4238   1.518   2.012   1.951  1.5558  0.1301 -2.4052
 1046SOL    MW4 4239   1.591   2.052   1.978  0.6701  0.3912 -0.2650
 1047SOL     OW 4240   1.613   2.335   1.893 -0.2221  0.0588  0.4987
 1047SOL    HW2 4241   1.685   2.396   1.910 -0.2521  0.5140 -0.8948
 1047SOL    HW3 4242   1.591   2.350   1.801 -1.3261 -0.9040  0.5971
 1047SOL    MW4 4243   1.620   2.345   1.883 -0.3719 -0.0081  0.3278
 1048SOL     OW 4244   1.370   2.430   1.969  0.0249 -0.1064  0.0414
 1048SOL    HW2 4245   1.383   2.521   1.941 -0.7407 -0.0495 -0.1364
 1048SOL    HW3 4246   1.457   2.391   1.966  0.4548  0.8043  0.7475
 1048SOL    MW4 4247   1.383   2.437   1.965 -0.0194  0.0212  0.1111
 1049SOL     OW 4248   1.362   2.712   1.907 -0.0877 -0.2181  0.3119
 1049SOL    HW2 4249   1.293   2.775   1.929  1.6930  1.6486  0.7473
 1049SOL    HW3 4250   1.354   2.700   1.812  0.3365  1.6647  0.0154
 1049SOL    MW4 4251   1.352   2.719   1.897  0.2031  0.2766  0.3302
 1050SOL     OW 4252   1.594   2.866   1.961 -0.1684 -0.1076  0.0284
 1050SOL    HW2 4253   1.670   2.814   1.934 -0.5554 -0.6325 -0.0614
 1050SOL    HW3 4254   1.519   2.808   1.946 -0.5840  0.4000  0.1388
 1050SOL    MW4 4255   1.594   2.851   1.955 -0.2744 -0.1099  0.0310
 1051SOL     OW 4256   1.580   3.135   1.923 -0.0803  0.3642  0.4602
 1051SOL    HW2 4257   1.564   3.042   1.940  1.5258  0.2759  1.6182
 1051SOL    HW3 4258   1.576   3.143   1.828 -1.0668 -0.7191  0.3917
 1051SOL    MW4 4259   1.577   3.124   1.913  0.0014  0.2096  0.6039
 1052SOL     OW 4260   1.349   3.218   2.022 -0.0109 -0.4047  0.0407
 1052SOL    HW2 4261   1.431   3.185   1.986  0.2287 -0.2376  0.4189
 1052SOL    HW3 4262   1.280   3.171   1.976  0.2666  0.3867 -1.2025
 1052SOL    MW4 4263   1.351   3.208   2.011  0.0575 -0.2780 -0.0734
 1053SOL     OW 4264   1.344   3.489   1.915  0.5390  0.0810 -0.2826
 1053SOL    HW2 4265   1.345   3.396   1.937  0.2164 -0.4053 -2.2861
 1053SOL    HW3 4266   1.256   3.518   1.941  0.3908 -0.3298 -0.3121
 1053SOL    MW4 4267   1.332   3.480   1.921  0.4770 -0.0372 -0.5509
 1054SOL     OW 4268   1.610   3.605   1.980  0.2733 -0.1147  0.5869
 1054SOL    HW2 4269   1.599   3.607   2.076 -2.1425  0.1728  0.3266
 1054SOL    HW3 4270   1.528   3.569   1.947  0.4575  1.2926 -1.4810
 1054SOL    MW4 4271   1.598   3.601   1.989 -0.0211  0.1087  0.2798
 1055SOL     OW 4272   1.523   3.883   1.951 -0.4003 -0.2298 -0.5865
 1055SOL    HW2 4273   1.601   3.931   1.979 -0.9075  0.4058 -0.2433
 1055SOL    HW3 4274   1.552   3.792   1.945 -0.3632 -0.4825  2.4715
 1055SOL    MW4 4275   1.537   3.877   1.954 -0.4623 -0.1793 -0.1376
 1056SOL     OW 4276   1.271   4.023   2.010  0.2357 -0.0550  0.3304
 1056SOL    HW2 4277   1.357   3.985   1.991  0.3392  0.2424  0.1867
 1056SOL    HW3 4278   1.209   3.966   1.965  0.4832  0.6619 -0.9443
 1056SOL    MW4 4279   1.274   4.011   2.002  0.2820  0.0787  0.1433
 1057SOL     OW 4280   1.330   4.302   1.911 -0.1901 -0.0700  0.0934
 1057SOL    HW2 4281   1.308   4.215   1.944 -0.7509 -0.2613 -0.7836
 1057SOL    HW3 4282   1.315   4.297   1.817  2.3412  0.1862 -0.3513
 1057SOL    MW4 4283   1.325   4.290   1.903  0.0699 -0.0620 -0.0811
 1058SOL     OW 4284   1.559   4.431   1.999 -0.0098 -0.0823  0.3611
 1058SOL    HW2 4285   1.553   4.444   2.093  0.1775 -1.3654  0.5657
 1058SOL    HW3 4286   1.476   4.391   1.975 -0.2295  0.6408 -0.0939
 1058SOL    MW4 4287   1.547   4.427   2.008 -0.0139 -0.1559  0.3281
 1059SOL     OW 4288   1.999   4.646   1.862 -0.6402 -0.3666  0.0840
 1059SOL    HW2 4289   2.059   4.691   1.921 -0.2604  0.5786 -1.0029
 1059SOL    HW3 4290   1.998   4.555   1.892 -1.0850  0.2563  2.0505
 1059SOL    MW4 4291   2.007   4.640   1.874 -0.6490 -0.1597  0.2002
 1060SOL     OW 4292   1.782   0.085   1.973 -0.4532  0.5820  0.6547
 1060SOL    HW2 4293   1.800   0.116   2.062  0.5884  0.0053  0.6563
 1060SOL    HW3 4294   1.859   0.032   1.951 -0.2326  1.5448 -0.9598
 1060SOL    MW4 4295   1.795   0.082   1.982 -0.2867  0.6330  0.4420
 1061SOL     OW 4296   1.797   0.361   1.894 -0.0404 -0.1170 -0.2441
 1061SOL    HW2 4297   1.815   0.269   1.912 -1.6497 -0.2551  0.7713
 1061SOL    HW3 4298   1.795   0.367   1.799  0.0124 -1.1525 -0.3162
 1061SOL    MW4 4299   1.799   0.350   1.884 -0.2457 -0.2719 -0.1197
 1062SOL     OW 4300   2.004   0.517   2.019 -0.0082 -0.2160  0.2782
 1062SOL    HW2 4301   2.006   0.602   1.976  0.8890 -0.7550 -0.7752
 1062SOL    HW3 4302   1.931   0.471   1.978 -0.4889  0.0336  0.8427
 1062SOL    MW4 4303   1.995   0.522   2.008  0.0466 -0.2542  0.2136
 1063SOL     OW 4304   2.021   0.763   1.885 -0.1677 -0.3387 -0.4497
 1063SOL    HW2 4305   2.102   0.799   1.921 -0.2950 -1.3009  0.8625
 1063SOL    HW3 4306   2.040   0.750   1.792  0.9411  0.1302 -0.3003
 1063SOL    MW4 4307   2.035   0.766   1.878 -0.0381 -0.4038 -0.2568
 1064SOL     OW 4308   1.794   0.907   1.934  0.6373 -0.8150  0.1687
 1064SOL    HW2 4309   1.815   0.995   1.904  0.5567 -0.3770  1.3897
 1064SOL    HW3 4310   1.873   0.856   1.916  0.4731 -0.6387 -1.0908
 1064SOL    MW4 4311   1.807   0.912   1.927  0.6051 -0.7341  0.1637
 1065SOL     OW 4312   1.853   1.162   1.879 -0.2064 -0.4138 -0.2771
 1065SOL    HW2 4313   1.765   1.196   1.895 -0.6233 -1.3603 -0.5495
 1065SOL    HW3 4314   1.860   1.156   1.784  0.7796  1.2629 -0.3413
 1065SOL    MW4 4315   1.843   1.166   1.869 -0.1314 -0.3173 -0.3215
 1066SOL     OW 4316   2.079   1.283   2.009  0.5224  0.2037 -0.8018
 1066SOL    HW2 4317   2.137   1.245   1.943  0.5893  0.0239 -0.6411
 1066SOL    HW3 4318   1.991   1.268   1.975  0.5059 -1.0788 -0.2164
 1066SOL    MW4 4319   2.075   1.276   1.996  0.5291  0.0107 -0.7033
 1067SOL     OW 4320   2.040   1.533   1.914  0.0706  0.2104  0.0901
 1067SOL    HW2 4321   2.059   1.440   1.928  0.4281  0.3552  0.5750
 1067SOL    HW3 4322   2.047   1.545   1.820  0.1597 -0.2253  0.0403
 1067SOL    MW4 4323   2.043   1.522   1.904  0.1295  0.1720  0.1475
 1068SOL     OW 4324   1.792   1.649   2.021 -0.0900 -0.4123 -0.2239
 1068SOL    HW2 4325   1.802   1.742   2.004  0.4289 -0.1728  1.3389
 1068SOL    HW3 4326   1.871   1.609   1.985  1.1535  0.1315  1.7858
 1068SOL    MW4 4327   1.804   1.656   2.014  0.1426 -0.3089  0.2477
 1069SOL     OW 4328   1.848   1.920   1.924  0.2147 -0.2388  0.2682
 1069SOL    HW2 4329   1.772   1.971   1.949 -0.6156 -0.8424 -0.9575
 1069SOL    HW3 4330   1.847   1.921   1.828  2.8047  1.2885  0.2144
 1069SOL    MW4 4331   1.838   1.927   1.915  0.4469 -0.1169  0.0993
 1070SOL     OW 4332   2.075   2.068   1.999 -0.6334  0.1571  0.1398
 1070SOL    HW2 4333   2.145   2.013   1.964  0.2306  1.6544 -0.5307
 1070SOL    HW3 4334   1.994   2.029   1.965 -0.1300 -1.3190  0.5614
 1070SOL    MW4 4335   2.073   2.055   1.990 -0.4532  0.1597  0.1070
 1071SOL     OW 4336   2.054   2.328   1.888  0.6599  0.1825 -0.3859
 1071SOL    HW2 4337   2.126   2.382   1.921  0.7655 -0.2988  0.1805
 1071SOL    HW3 4338   2.073   2.240   1.919 -1.0957  0.3626  1.3211
 1071SOL    MW4 4339   2.066   2.324   1.896  0.4425  0.1428 -0.0859
 1072SOL     OW 4340   1.835   2.484   1.948 -0.0830 -0.7480  0.4682
 1072SOL    HW2 4341   1.824   2.480   2.043  0.2084 -0.1113  0.5289
 1072SOL    HW3 4342   1.906   2.422   1.929  2.1950  1.6039  1.0456
 1072SOL    MW4 4343   1.843   2.475   1.958  0.2559 -0.3536  0.5523
 1073SOL     OW 4344   1.820   2.754   1.873  0.2880  0.2562 -0.4422
 1073SOL    HW2 4345   1.823   2.663   1.902 -0.3185  0.9267  1.8408
 1073SOL    HW3 4346   1.833   2.750   1.778  0.2374 -2.1999 -0.3679
 1073SOL    MW4 4347   1.822   2.741   1.864  0.2012  0.0207 -0.1312
 1074SOL     OW 4348   2.073   2.845   1.983 -0.6513 -0.0824 -0.1495
 1074SOL    HW2 4349   2.064   2.841   2.078 -0.3369 -0.2977 -0.1275
 1074SOL    HW3 4350   1.994   2.802   1.950  0.3601 -2.1589  0.0405
 1074SOL    MW4 4351   2.061   2.838   1.991 -0.4766 -0.3850 -0.1214
 1075SOL     OW 4352   2.017   3.096   1.888 -0.3808  0.0974 -0.2073
 1075SOL    HW2 4353   1.947   3.136   1.940  0.0480  2.5530 -1.4572
 1075SOL    HW3 4354   2.032   3.011   1.930 -2.2439  0.6605  1.7099
 1075SOL    MW4 4355   2.010   3.090   1.901 -0.5701  0.4957 -0.1194
 1076SOL     OW 4356   1.817   3.234   2.019 -0.3026  0.0644 -0.2545
 1076SOL    HW2 4357   1.812   3.245   2.114  1.0526  1.0515 -0.2795
 1076SOL    HW3 4358   1.737   3.187   1.996 -0.5498 -0.3561  1.3969
 1076SOL    MW4 4359   1.806   3.229   2.028 -0.1564  0.1392 -0.0398
 1077SOL     OW 4360   1.827   3.488   1.903 -0.1114 -0.1718 -0.2763
 1077SOL    HW2 4361   1.827   3.405   1.951 -0.7480  0.7444  1.3650
 1077SOL    HW3 4362   1.747   3.533   1.932  0.7730  1.4795 -0.2978
 1077SOL    MW4 4363   1.817   3.483   1.913 -0.0787  0.1669 -0.0626
 1078SOL     OW 4364   2.059   3.626   2.008 -0.3890  0.0714  0.3081
 1078SOL    HW2 4365   2.049   3.719   1.987 -0.3368  0.0929  0.3777
 1078SOL    HW3 4366   1.981   3.584   1.970  1.0615 -0.3162 -2.3489
 1078SOL    MW4 4367   2.047   3.633   2.000 -0.1912  0.0231 -0.0331
 1079SOL     OW 4368   2.006   3.894   1.955  0.3919 -0.2559 -0.0124
 1079SOL    HW2 4369   2.095   3.927   1.969  0.9146 -1.7358  0.2110
 1079SOL    HW3 4370   1.994   3.899   1.860  0.4304  0.6607  0.0279
 1079SOL    MW4 4371   2.016   3.899   1.944  0.4661 -0.3302  0.0225
 1080SOL     OW 4372   1.759   3.992   2.016  0.3675 -0.3455  0.0461
 1080SOL    HW2 4373   1.765   4.080   1.978  0.3811 -0.0842  0.6569
 1080SOL    HW3 4374   1.849   3.959   2.014  0.1960 -0.7777 -1.1990
 1080SOL    MW4 4375   1.772   3.999   2.010  0.3465 -0.3679 -0.0377
 1081SOL     OW 4376   1.756   4.257   1.926  0.1834  0.5485  0.1137
 1081SOL    HW2 4377   1.687   4.321   1.944 -0.2562 -0.3265  1.6506
 1081SOL    HW3 4378   1.764   4.255   1.831 -1.1191  1.4944 -0.0184
 1081SOL    MW4 4379   1.748   4.265   1.916 -0.0464  0.5579  0.2991
 1082SOL     OW 4380   1.993   4.401   1.961 -0.0595  0.1142  0.5384
 1082SOL    HW2 4381   2.065   4.339   1.953  0.2793  0.6639 -0.8498
 1082SOL    HW3 4382   1.914   4.349   1.947  0.2278  0.0102 -0.6797
 1082SOL    MW4 4383   1.992   4.386   1.958  0.0231  0.1726  0.1945
 1083SOL     OW 4384   2.426   4.653   1.900 -0.2732  0.5029  0.1111
 1083SOL    HW2 4385   2.498   4.705   1.936 -2.4623  2.3182  2.0127
 1083SOL    HW3 4386   2.446   4.563   1.925  0.7736  1.1426  1.6526
 1083SOL    MW4 4387   2.438   4.648   1.908 -0.4237  0.8268  0.5653
 1084SOL     OW 4388   2.190   0.093   2.016  0.1577  0.1916 -0.4757
 1084SOL    HW2 4389   2.207   0.109   2.109 -1.0614 -2.1919  0.1923
 1084SOL    HW3 4390   2.274   0.062   1.982 -0.3096 -2.4098  0.6694
 1084SOL    MW4 4391   2.203   0.091   2.024 -0.0646 -0.4661 -0.2365
 1085SOL     OW 4392   2.233   0.367   1.926 -0.0716 -0.0032  0.4122
 1085SOL    HW2 4393   2.210   0.280   1.959 -0.1284  0.2680  1.0970
 1085SOL    HW3 4394   2.159   0.422   1.952 -0.7339 -0.0463 -1.3041
 1085SOL    MW4 4395   2.220   0.363   1.933 -0.1662  0.0269  0.2760
 1086SOL     OW 4396   2.485   0.511   1.990  0.4339  0.0913  0.0141
 1086SOL    HW2 4397   2.542   0.452   1.941 -0.1667 -1.5500  1.2299
 1086SOL    HW3 4398   2.397   0.476   1.976  0.0760  0.6842  0.7594
 1086SOL    MW4 4399   2.481   0.498   1.982  0.3076 -0.0471  0.2726
 1087SOL     OW 4400   2.481   0.772   1.878 -0.1234  0.1732  0.1128
 1087SOL    HW2 4401   2.479   0.685   1.916 -1.1989  0.3481  0.4846
 1087SOL    HW3 4402   2.484   0.757   1.783 -0.0117 -0.2596  0.1860
 1087SOL    MW4 4403   2.481   0.759   1.870 -0.2506  0.1392  0.1714
 1088SOL     OW 4404   2.235   0.901   1.998  0.0321 -0.3686  0.0524
 1088SOL    HW2 4405   2.249   0.914   2.092 -0.7743  0.8769  0.0108
 1088SOL    HW3 4406   2.314   0.857   1.968  1.0313  0.7343  1.0163
 1088SOL    MW4 4407   2.247   0.897   2.006  0.0577 -0.0588  0.1738
 1089SOL     OW 4408   2.277   1.148   1.840  0.6531 -0.1896 -0.4072
 1089SOL    HW2 4409   2.353   1.192   1.879  0.0027  0.1098  0.5374
 1089SOL    HW3 4410   2.259   1.075   1.900  1.8569 -1.9031 -2.0773
 1089SOL    MW4 4411   2.285   1.144   1.853  0.7260 -0.3761 -0.5029
 1090SOL     OW 4412   2.486   1.273   1.960 -0.3005 -0.2238 -0.0531
 1090SOL    HW2 4413   2.482   1.256   2.054 -1.2217  0.9005  0.1251
 1090SOL    HW3 4414   2.507   1.366   1.953  0.0490 -0.3637 -0.9593
 1090SOL    MW4 4415   2.488   1.283   1.971 -0.3760 -0.0938 -0.1490
 1091SOL     OW 4416   2.521   1.542   1.896 -0.2670 -0.1015 -0.0289
 1091SOL    HW2 4417   2.443   1.577   1.939 -0.9427 -0.1575 -1.2000
 1091SOL    HW3 4418   2.496   1.532   1.805  0.4302 -2.1566 -0.0202
 1091SOL    MW4 4419   2.508   1.545   1.890 -0.2639 -0.3800 -0.1824
 1092SOL     OW 4420   2.281   1.620   2.004  0.3139 -0.1528 -0.1084
 1092SOL    HW2 4421   2.276   1.610   2.099  0.3477 -1.5297 -0.2361
 1092SOL    HW3 4422   2.196   1.588   1.973  0.2609  0.4024 -0.5401
 1092SOL    MW4 4423   2.269   1.615   2.012  0.3114 -0.2612 -0.1822
 1093SOL     OW 4424   2.268   1.874   1.896 -0.8337 -0.2322  0.4634
 1093SOL    HW2 4425   2.345   1.927   1.918 -0.6609 -0.5139  0.5493
 1093SOL    HW3 4426   2.291   1.786   1.927 -0.0359 -0.9311 -2.0185
 1093SOL    MW4 4427   2.282   1.870   1.903 -0.7055 -0.3617  0.1472
 1094SOL     OW 4428   2.488   2.030   1.972 -0.1550  0.1377 -0.0973
 1094SOL    HW2 4429   2.578   2.014   1.944  0.4236  0.7098  1.4085
 1094SOL    HW3 4430   2.470   2.119   1.944  0.2020  0.4810  0.7472
 1094SOL    MW4 4431   2.497   2.040   1.965 -0.0317  0.2584  0.2127
 1095SOL     OW 4432   2.436   2.275   1.894 -0.1187 -0.5309 -0.0915
 1095SOL    HW2 4433   2.524   2.306   1.914 -0.3432 -0.1087  0.2339
 1095SOL    HW3 4434   2.378   2.341   1.931 -0.5329  1.0964 -3.4628
 1095SOL    MW4 4435   2.440   2.287   1.902 -0.2029 -0.2606 -0.4934
 1096SOL     OW 4436   2.281   2.467   2.003  0.1171 -0.1904  0.0548
 1096SOL    HW2 4437   2.252   2.464   2.094  1.4150 -0.0116  0.4818
 1096SOL    HW3 4438   2.297   2.560   1.986 -1.0032 -0.1196 -0.6410
 1096SOL    MW4 4439   2.279   2.479   2.013  0.1404 -0.1574  0.0193
 1097SOL     OW 4440   2.309   2.718   1.919  0.2090 -0.4488  0.0958
 1097SOL    HW2 4441   2.222   2.751   1.943  0.3773  0.5206 -0.6216
 1097SOL    HW3 4442   2.308   2.715   1.824  0.5103 -1.7044  0.1245
 1097SOL    MW4 4443   2.297   2.722   1.910  0.2708 -0.4866  0.0050
 1098SOL     OW 4444   2.521   2.841   2.055  0.3584 -0.3564 -0.2780
 1098SOL    HW2 4445   2.520   2.925   2.010  1.7695  0.7876  1.7190
 1098SOL    HW3 4446   2.451   2.791   2.015 -1.0327  2.0700 -0.9669
 1098SOL    MW4 4447   2.512   2.846   2.044  0.3610  0.1147 -0.1054
 1099SOL     OW 4448   2.490   3.089   1.921  0.2429 -0.1329 -0.1600
 1099SOL    HW2 4449   2.409   3.139   1.936 -0.4181 -0.6695 -1.8176
 1099SOL    HW3 4450   2.492   3.075   1.826  1.1863 -1.9740  0.1222
 1099SOL    MW4 4451   2.479   3.094   1.910  0.2801 -0.4461 -0.3415
 1100SOL     OW 4452   2.246   3.240   1.967  0.3904  0.5209 -0.4238
 1100SOL    HW2 4453   2.242   3.253   2.062  0.5854 -0.5329 -0.2660
 1100SOL    HW3 4454   2.179   3.175   1.948  1.3546 -0.3800 -0.8008
 1100SOL    MW4 4455   2.237   3.233   1.977  0.5436  0.2635 -0.4526
 1101SOL     OW 4456   2.271   3.499   1.882 -0.0022 -0.2619  0.0734
 1101SOL    HW2 4457   2.253   3.407   1.903  0.0326  0.0600  1.5307
 1101SOL    HW3 4458   2.203   3.547   1.928  0.8868  0.5463  0.5459
 1101SOL    MW4 4459   2.259   3.493   1.891  0.1199 -0.1125  0.3281
 1102SOL     OW 4460   2.482   3.608   2.003 -0.6667 -0.0266 -0.1961
 1102SOL    HW2 4461   2.466   3.588   2.096  1.2254  0.6965  0.3077
 1102SOL    HW3 4462   2.407   3.569   1.957 -0.0675 -3.1293  1.3272
 1102SOL    MW4 4463   2.470   3.600   2.009 -0.3381 -0.3407  0.0715
 1103SOL     OW 4464   2.454   3.824   1.851 -0.0781  0.3595 -0.0863
 1103SOL    HW2 4465   2.385   3.864   1.903  0.4768 -0.1278  1.0518
 1103SOL    HW3 4466   2.474   3.742   1.896  0.8955  0.2551 -0.6793
 1103SOL    MW4 4467   2.448   3.819   1.863  0.1237  0.2813 -0.0143
 1104SOL     OW 4468   2.260   3.980   1.974 -0.2446  0.2184  0.1231
 1104SOL    HW2 4469   2.269   3.994   2.068  1.0249  0.6411 -0.0415
 1104SOL    HW3 4470   2.245   4.068   1.938 -0.0838  0.1488 -0.1218
 1104SOL    MW4 4471   2.259   3.994   1.981 -0.0560  0.2649  0.0690
 1105SOL     OW 4472   2.203   4.230   1.901  0.5123  0.1014  0.8472
 1105SOL    HW2 4473   2.272   4.280   1.943  1.1515 -0.5370  0.5550
 1105SOL    HW3 4474   2.199   4.263   1.812  0.5635  0.0037  0.8092
 1105SOL    MW4 4475   2.211   4.241   1.895  0.6037  0.0048  0.8036
 1106SOL     OW 4476   2.426   4.398   2.009  0.4108  0.4128 -0.1705
 1106SOL    HW2 4477   2.443   4.417   2.101 -0.4167  0.9231 -0.1213
 1106SOL    HW3 4478   2.494   4.335   1.985 -0.3836 -1.0379  1.2519
 1106SOL    MW4 4479   2.437   4.392   2.018  0.1972  0.2885  0.0236
 1107SOL     OW 4480   2.878   4.644   1.877 -0.1900  0.2376 -0.0718
 1107SOL    HW2 4481   2.962   4.678   1.909 -0.0854  0.5609 -0.6666
 1107SOL    HW3 4482   2.866   4.562   1.924  1.2503 -0.6121 -1.1319
 1107SOL    MW4 4483   2.888   4.638   1.887  0.0138  0.1683 -0.2902
 1108SOL     OW 4484   2.658   0.115   1.991  0.0541  0.1001 -0.5543
 1108SOL    HW2 4485   2.663   0.119   2.086 -0.5156  1.7574 -0.5819
 1108SOL    HW3 4486   2.728   0.055   1.966  1.4449  1.1282  0.7865
 1108SOL    MW4 4487   2.668   0.108   2.000  0.1624  0.4544 -0.3812
 1109SOL     OW 4488   2.682   0.350   1.865 -0.2278  0.3912  0.4894
 1109SOL    HW2 4489   2.757   0.396   1.904  0.1112 -0.1070  0.4405
 1109SOL    HW3 4490   2.676   0.269   1.916 -0.4254  0.2065  0.1723
 1109SOL    MW4 4491   2.691   0.345   1.877 -0.2091  0.3011  0.4412
 1110SOL     OW 4492   2.877   0.489   1.991  0.5985 -0.4112 -0.2591
 1110SOL    HW2 4493   2.965   0.461   1.964  0.6007 -1.1292  0.4933
 1110SOL    HW3 4494   2.873   0.581   1.965  1.3916 -0.5091 -0.7560
 1110SOL    MW4 4495   2.888   0.497   1.984  0.7033 -0.5189 -0.2253
 1111SOL     OW 4496   2.904   0.728   1.868 -0.2717  0.3977 -0.7235
 1111SOL    HW2 4497   2.994   0.747   1.895 -0.6616 -0.6058  1.2933
 1111SOL    HW3 4498   2.851   0.793   1.914 -0.7117  0.2830 -1.0682
 1111SOL    MW4 4499   2.909   0.739   1.877 -0.3812  0.2502 -0.5029
 1112SOL     OW 4500   2.703   0.907   1.985  0.4114  0.0556 -0.3931
 1112SOL    HW2 4501   2.711   0.987   1.933  0.9117  0.0150 -0.3808
 1112SOL    HW3 4502   2.649   0.849   1.932  1.1847 -0.1045 -1.0181
 1112SOL    MW4 4503   2.697   0.910   1.971  0.5794  0.0291 -0.4739
 1113SOL     OW 4504   2.714   1.136   1.846 -0.0248  0.0410  0.1486
 1113SOL    HW2 4505   2.644   1.192   1.881 -0.3569  0.3059 -0.9302
 1113SOL    HW3 4506   2.709   1.147   1.751  0.7376 -0.8411 -0.0022
 1113SOL    MW4 4507   2.704   1.145   1.838  0.0322 -0.0404 -0.0135
 1114SOL     OW 4508   2.939   1.242   1.986 -0.3332 -0.1522 -0.3054
 1114SOL    HW2 4509   2.935   1.335   1.965  0.9430 -0.4203 -1.7392
 1114SOL    HW3 4510   2.863   1.204   1.941 -0.0224 -0.0386 -0.9268
 1114SOL    MW4 4511   2.928   1.249   1.977 -0.1237 -0.1726 -0.5765
 1115SOL     OW 4512   2.951   1.512   1.905  0.9278 -0.0867 -0.3761
 1115SOL    HW2 4513   3.036   1.555   1.909 -0.6344  3.1010 -0.1150
 1115SOL    HW3 4514   2.924   1.520   1.814 -0.1752  1.1336  0.0448
 1115SOL    MW4 4515   2.959   1.519   1.894  0.5763  0.4947 -0.2861
 1116SOL     OW 4516   2.740   1.673   2.013 -0.0894  0.5733 -0.1241
 1116SOL    HW2 4517   2.813   1.614   1.999 -0.8505 -0.4876  0.3443
 1116SOL    HW3 4518   2.663   1.624   1.985 -0.9446  0.6497  1.9832
 1116SOL    MW4 4519   2.739   1.659   2.008 -0.3026  0.4435  0.2153
 1117SOL     OW 4520   2.730   1.918   1.866  0.4068 -0.6779 -0.1581
 1117SOL    HW2 4521   2.807   1.965   1.896  0.4204 -0.6063 -0.3057
 1117SOL    HW3 4522   2.737   1.832   1.907 -0.0683 -0.2622  0.8065
 1117SOL    MW4 4523   2.741   1.913   1.875  0.3457 -0.6136 -0.0503
 1118SOL     OW 4524   2.953   2.047   1.993 -0.1422 -0.8608 -0.0598
 1118SOL    HW2 4525   2.955   2.042   2.088 -0.2029 -1.6426 -0.1022
 1118SOL    HW3 4526   3.026   1.992   1.964  0.6408  0.3485 -0.4263
 1118SOL    MW4 4527   2.963   2.039   2.001 -0.0470 -0.8047 -0.1140
 1119SOL     OW 4528   2.928   2.280   1.850 -0.1780  0.6989  0.0609
 1119SOL    HW2 4529   3.006   2.322   1.884 -0.2871  0.0344  1.1682
 1119SOL    HW3 4530   2.929   2.192   1.890 -1.4220  0.6490  0.0071
 1119SOL    MW4 4531   2.938   2.274   1.860 -0.3564  0.6046  0.1999
 1120SOL     OW 4532   2.697   2.396   1.970  0.3686  0.6212  0.2486
 1120SOL    HW2 4533   2.715   2.490   1.964 -2.2476  1.0821 -1.0664
 1120SOL    HW3 4534   2.771   2.355   1.927  0.4892  2.2123 -1.1022
 1120SOL    MW4 4535   2.709   2.403   1.964  0.0393  0.8919 -0.1031
 1121SOL     OW 4536   2.714   2.687   1.931 -0.0696 -0.1163 -0.3813
 1121SOL    HW2 4537   2.638   2.735   1.964  0.1842 -0.4128  0.6786
 1121SOL    HW3 4538   2.718   2.707   1.838  0.2785  2.2388  0.1143
 1121SOL    MW4 4539   2.705   2.696   1.923  0.0095  0.1552 -0.1762
 1122SOL     OW 4540   2.921   2.840   2.011  0.1367 -0.4162  0.3742
 1122SOL    HW2 4541   2.906   2.919   1.959  0.7421 -0.8341 -0.4547
 1122SOL    HW3 4542   2.854   2.779   1.981  0.5007 -0.6657  0.0742
 1122SOL    MW4 4543   2.910   2.843   2.000  0.2646 -0.5045  0.2253
 1123SOL     OW 4544   2.907   3.100   1.882  0.0333  0.0172 -0.2733
 1123SOL    HW2 4545   2.984   3.139   1.925 -0.2901 -1.3295  1.5597
 1123SOL    HW3 4546   2.833   3.147   1.919 -0.2711 -1.3892  0.9445
 1123SOL    MW4 4547   2.907   3.112   1.893 -0.0496 -0.3464  0.1290
 1124SOL     OW 4548   2.704   3.252   1.989 -0.5878  0.1271  0.3345
 1124SOL    HW2 4549   2.695   3.339   1.950  0.5508 -0.4095 -1.1651
 1124SOL    HW3 4550   2.636   3.199   1.947 -0.6028  0.0227  0.4887
 1124SOL    MW4 4551   2.694   3.257   1.978 -0.4394  0.0424  0.1570
 1125SOL     OW 4552   2.727   3.506   1.900  0.1731  0.3999 -0.4185
 1125SOL    HW2 4553   2.800   3.551   1.944  0.8126 -0.3896 -0.6459
 1125SOL    HW3 4554   2.649   3.547   1.935  0.7138  0.7138  0.4461
 1125SOL    MW4 4555   2.727   3.517   1.911  0.3288  0.3371 -0.3344
 1126SOL     OW 4556   2.954   3.593   2.036 -0.0973  0.0126  0.6644
 1126SOL    HW2 4557   2.939   3.562   2.125  0.9434 -0.4719  0.6813
 1126SOL    HW3 4558   3.023   3.536   2.002 -2.7173 -1.9549 -1.5911
 1126SOL    MW4 4559   2.961   3.581   2.043 -0.3059 -0.3111  0.3691
 1127SOL     OW 4560   2.924   3.845   1.920 -0.8133  0.1269  0.6009
 1127SOL    HW2 4561   2.932   3.761   1.965  1.6319  0.2148  0.3629
 1127SOL    HW3 4562   2.937   3.825   1.828  0.5024  0.8599  0.6195
 1127SOL    MW4 4563   2.926   3.832   1.914 -0.3171  0.2353  0.5718
 1128SOL     OW 4564   2.689   3.958   2.008 -0.2092  0.1472  0.1402
 1128SOL    HW2 4565   2.772   3.928   1.972  0.4255  1.3171  0.6089
 1128SOL    HW3 4566   2.623   3.911   1.957  0.7269 -0.6112 -0.3929
 1128SOL    MW4 4567   2.691   3.948   1.997 -0.0019  0.2012  0.1318
 1129SOL     OW 4568   2.644   4.216   1.909  0.0793 -0.1164  0.2186
 1129SOL    HW2 4569   2.655   4.123   1.927 -0.4569 -0.0620  0.8379
 1129SOL    HW3 4570   2.663   4.225   1.816 -0.7061 -0.9865 -0.0347
 1129SOL    MW4 4571   2.648   4.205   1.899 -0.0949 -0.2241  0.2669
 1130SOL     OW 4572   2.862   4.392   1.994 -0.0155  0.4376  0.3291
 1130SOL    HW2 4573   2.866   4.383   2.090  0.5581 -1.3317  0.1691
 1130SOL    HW3 4574   2.797   4.326   1.967 -0.8402  1.5490 -0.4341
 1130SOL    MW4 4575   2.854   4.382   2.003 -0.0484  0.3505  0.2072
 1131SOL     OW 4576   3.356   4.624   1.912  0.1251  0.6018 -0.0700
 1131SOL    HW2 4577   3.349   4.532   1.938  1.2967  0.4195 -0.3576
 1131SOL    HW3 4578   3.366   4.621   1.817 -0.4118  1.0634 -0.1402
 1131SOL    MW4 4579   3.357   4.611   1.903  0.2091  0.6394 -0.1172
 1132SOL     OW 4580   3.119   0.080   1.965 -0.1441  0.0394  0.2192
 1132SOL    HW2 4581   3.118   0.090   2.060  0.5313  1.5991  0.0787
 1132SOL    HW3 4582   3.202   0.036   1.947  0.6011  1.4187  0.2169
 1132SOL    MW4 4583   3.130   0.076   1.975  0.0432  0.4272  0.2003
 1133SOL     OW 4584   3.143   0.348   1.897 -0.0958 -0.1209 -0.4438
 1133SOL    HW2 4585   3.141   0.257   1.927  0.8869 -0.4249 -1.2570
 1133SOL    HW3 4586   3.174   0.343   1.807 -0.4661  0.9891 -0.6432
 1133SOL    MW4 4587   3.147   0.335   1.889 -0.0150 -0.0145 -0.5773
 1134SOL     OW 4588   3.381   0.472   2.003 -0.1008  0.8515 -0.0294
 1134SOL    HW2 4589   3.454   0.423   1.965  0.8240  2.1986 -0.0143
 1134SOL    HW3 4590   3.303   0.425   1.974  0.7511 -0.2942 -0.4866
 1134SOL    MW4 4591   3.380   0.459   1.994  0.1335  0.8781 -0.0879
 1135SOL     OW 4592   3.365   0.721   1.882  0.2967  0.1380 -0.1653
 1135SOL    HW2 4593   3.283   0.753   1.920  1.1950 -0.1528  2.1110
 1135SOL    HW3 4594   3.379   0.636   1.923  1.7622  0.2123 -0.4716
 1135SOL    MW4 4595   3.356   0.714   1.893  0.6084  0.1093  0.0947
 1136SOL     OW 4596   3.134   0.826   1.993 -0.1802  0.1429  0.1122
 1136SOL    HW2 4597   3.124   0.826   2.088  1.5125 -0.2030  0.3091
 1136SOL    HW3 4598   3.162   0.915   1.972  1.3837 -0.3197  0.1767
 1136SOL    MW4 4599   3.136   0.838   2.002  0.2494  0.0362  0.1466
 1137SOL     OW 4600   3.155   1.086   1.920 -0.2374 -0.2145  0.2009
 1137SOL    HW2 4601   3.228   1.143   1.944  0.1768 -0.2844 -0.8454
 1137SOL    HW3 4602   3.077   1.136   1.942  0.1297  0.5030 -0.1191
 1137SOL    MW4 4603   3.155   1.100   1.926 -0.1345 -0.1290  0.0206
 1138SOL     OW 4604   3.367   1.243   1.951 -0.0086 -0.2017 -0.1765
 1138SOL    HW2 4605   3.372   1.249   2.047  1.7722 -0.6485 -0.2111
 1138SOL    HW3 4606   3.383   1.333   1.921  2.2542 -0.5350 -0.0935
 1138SOL    MW4 4607   3.370   1.256   1.960  0.5250 -0.3047 -0.1701
 1139SOL     OW 4608   3.437   1.490   1.836 -0.2405 -0.2330  0.7573
 1139SOL    HW2 4609   3.511   1.541   1.869 -0.7108  0.5606  0.5946
 1139SOL    HW3 4610   3.360   1.535   1.871 -0.7182  0.1264 -0.7253
 1139SOL    MW4 4611   3.437   1.503   1.845 -0.3657 -0.0809  0.5403
 1140SOL     OW 4612   3.213   1.623   1.969 -0.1071  0.3128 -0.0100
 1140SOL    HW2 4613   3.214   1.616   2.064 -2.1195  1.7906  0.1586
 1140SOL    HW3 4614   3.226   1.716   1.951  1.1874 -0.0797 -1.2237
 1140SOL    MW4 4615   3.214   1.635   1.979 -0.2022  0.4560 -0.1479
 1141SOL     OW 4616   3.172   1.896   1.908 -0.2384 -0.3639  0.2759
 1141SOL    HW2 4617   3.239   1.964   1.919 -0.2516 -0.2148 -0.5538
 1141SOL    HW3 4618   3.147   1.902   1.816 -0.0523 -1.6739  0.1372
 1141SOL    MW4 4619   3.177   1.906   1.897 -0.2155 -0.5171  0.1481
 1142SOL     OW 4620   3.382   2.058   2.011  0.3575 -0.0055 -0.3283
 1142SOL    HW2 4621   3.460   2.020   1.972 -0.2373 -1.0852 -0.4885
 1142SOL    HW3 4622   3.369   2.140   1.964  1.1459 -0.0323 -0.5909
 1142SOL    MW4 4623   3.390   2.064   2.000  0.3831 -0.1514 -0.3841
 1143SOL     OW 4624   3.361   2.328   1.869  0.0109  0.2075 -0.1280
 1143SOL    HW2 4625   3.278   2.367   1.897  0.0965  0.4918 -0.2706
 1143SOL    HW3 4626   3.347   2.305   1.778 -0.0930 -0.2435  0.0010
 1143SOL    MW4 4627   3.348   2.330   1.861  0.0086  0.1855 -0.1298
 1144SOL     OW 4628   3.127   2.427   1.946  0.0036 -0.1789  0.2887
 1144SOL    HW2 4629   3.137   2.419   2.041  0.2636  0.8681  0.3597
 1144SOL    HW3 4630   3.121   2.521   1.930 -0.4260 -0.3635 -0.6989
 1144SOL    MW4 4631   3.128   2.438   1.956 -0.0188 -0.0651  0.1677
 1145SOL     OW 4632   3.121   2.701   1.897  0.0401  0.0036  0.1431
 1145SOL    HW2 4633   3.049   2.749   1.937  0.9332  2.2333 -0.8308
 1145SOL    HW3 4634   3.108   2.712   1.802  1.0132 -0.5147 -0.0605
 1145SOL    MW4 4635   3.110   2.709   1.890  0.2863  0.2294 -0.0124
 1146SOL     OW 4636   3.364   2.839   1.995  0.2016 -0.1031 -0.4892
 1146SOL    HW2 4637   3.367   2.844   2.091  0.6789 -0.6590 -0.4687
 1146SOL    HW3 4638   3.297   2.774   1.977  0.4040 -0.3029 -0.5219
 1146SOL    MW4 4639   3.356   2.831   2.005  0.2911 -0.2027 -0.4909
 1147SOL     OW 4640   3.349   3.077   1.856  0.1116 -0.4349 -0.3013
 1147SOL    HW2 4641   3.409   3.131   1.907 -0.7222 -0.3175  0.5639
 1147SOL    HW3 4642   3.345   2.994   1.903 -1.9293  0.2338  0.7719
 1147SOL    MW4 4643   3.356   3.073   1.869 -0.2677 -0.3312 -0.0454
 1148SOL     OW 4644   3.146   3.198   1.982  0.6657 -0.2709 -0.4637
 1148SOL    HW2 4645   3.155   3.289   1.953  1.8723  0.1350  1.1146
 1148SOL    HW3 4646   3.217   3.151   1.938  0.5513 -0.2808 -0.6360
 1148SOL    MW4 4647   3.157   3.204   1.973  0.8099 -0.2189 -0.2781
 1149SOL     OW 4648   3.172   3.466   1.926 -0.0220  0.1239  0.3111
 1149SOL    HW2 4649   3.248   3.522   1.944 -0.3069  0.4484  0.5041
 1149SOL    HW3 4650   3.157   3.475   1.832  1.1734 -1.2020 -0.0389
 1149SOL    MW4 4651   3.180   3.474   1.916  0.0982 -0.0083  0.2904
 1150SOL     OW 4652   3.384   3.638   1.999  0.4817 -0.4043 -0.2121
 1150SOL    HW2 4653   3.473   3.609   1.981  0.1127 -1.9674  0.3306
 1150SOL    HW3 4654   3.376   3.723   1.955  1.9844 -0.6066 -0.9003
 1150SOL    MW4 4655   3.395   3.645   1.991  0.6313 -0.6371 -0.2314
 1151SOL     OW 4656   3.362   3.887   1.900  0.0795 -0.0497  0.2074
 1151SOL    HW2 4657   3.280   3.926   1.929  0.8520  2.1256 -0.3975
 1151SOL    HW3 4658   3.351   3.874   1.806  0.4190  0.2135  0.1305
 1151SOL    MW4 4659   3.350   3.890   1.891  0.2263  0.2720  0.1173
 1152SOL     OW 4660   3.133   4.013   2.008 -0.3886 -0.0458 -0.0691
 1152SOL    HW2 4661   3.117   4.019   2.103  0.1800 -0.7751  0.0750
 1152SOL    HW3 4662   3.060   3.960   1.975  1.2842 -2.7797  0.4855
 1152SOL    MW4 4663   3.121   4.007   2.016 -0.0930 -0.5031  0.0231
 1153SOL     OW 4664   3.102   4.248   1.884  0.5280 -0.4005  0.2521
 1153SOL    HW2 4665   3.097   4.169   1.938  0.0974 -0.0564  0.7131
 1153SOL    HW3 4666   3.035   4.306   1.920  0.4663 -0.0406 -0.4389
 1153SOL    MW4 4667   3.092   4.245   1.896  0.4628 -0.3071  0.2217
 1154SOL     OW 4668   3.355   4.354   1.974 -0.3056 -0.3322  0.1555
 1154SOL    HW2 4669   3.428   4.297   1.948 -0.3641 -0.5000  0.3578
 1154SOL    HW3 4670   3.277   4.305   1.950 -0.3468  0.6771 -1.8366
 1154SOL    MW4 4671   3.354   4.340   1.968 -0.3188 -0.2213 -0.0806
 1155SOL     OW 4672   3.814   0.000   1.876  0.5294  0.2569 -0.1365
 1155SOL    HW2 4673   3.807  -0.091   1.904  1.1666  0.2928  0.1569
 1155SOL    HW3 4674   3.731   0.040   1.903 -0.9105 -0.8626 -2.6839
 1155SOL    MW4 4675   3.802  -0.006   1.883  0.4232  0.1144 -0.4339
 1156SOL     OW 4676   3.579   0.090   1.980  0.1210  0.3717  0.1469
 1156SOL    HW2 4677   3.570   0.080   2.075  0.6149  1.0794  0.2705
 1156SOL    HW3 4678   3.497   0.056   1.945  0.4253 -1.0237  0.7523
 1156SOL    MW4 4679   3.567   0.084   1.988  0.2265  0.2809  0.2429
 1157SOL     OW 4680   3.597   0.348   1.866  0.0755 -0.2673  0.4923
 1157SOL    HW2 4681   3.596   0.261   1.907 -0.4734  0.7194  2.5909
 1157SOL    HW3 4682   3.608   0.329   1.773 -3.0224 -2.7479  0.5319
 1157SOL    MW4 4683   3.598   0.334   1.859 -0.4055 -0.4644  0.7743
 1158SOL     OW 4684   3.833   0.491   1.965 -0.9468 -0.3270 -0.1610
 1158SOL    HW2 4685   3.810   0.572   1.919 -1.0978 -0.6641 -0.6805
 1158SOL    HW3 4686   3.766   0.429   1.940  0.7968 -1.4688 -2.0968
 1158SOL    MW4 4687   3.821   0.494   1.956 -0.7365 -0.5220 -0.4849
 1159SOL     OW 4688   3.864   0.790   1.868  0.1066 -0.2063  0.1632
 1159SOL    HW2 4689   3.781   0.821   1.904  0.7880  1.9793 -0.0664
 1159SOL    HW3 4690   3.846   0.773   1.776 -0.0714  0.3065  0.1041
 1159SOL    MW4 4691   3.851   0.792   1.861  0.1729  0.1497  0.1252
 1160SOL     OW 4692   3.587   0.858   1.972 -0.3851  0.0061  0.0043
 1160SOL    HW2 4693   3.572   0.944   1.935 -0.3940 -1.3478 -3.3203
 1160SOL    HW3 4694   3.522   0.802   1.930 -0.2811 -1.6449  1.9864
 1160SOL    MW4 4695   3.577   0.862   1.961 -0.3726 -0.3904 -0.1729
 1161SOL     OW 4696   3.602   1.113   1.856  0.2145  0.3512 -0.1698
 1161SOL    HW2 4697   3.523   1.165   1.869  0.8704  1.2319  0.3130
 1161SOL    HW3 4698   3.612   1.108   1.761  0.3748  1.4633 -0.2225
 1161SOL    MW4 4699   3.592   1.119   1.845  0.3223  0.6140 -0.1130
 1162SOL     OW 4700   3.796   1.271   1.995  0.3034 -0.3885  0.1491
 1162SOL    HW2 4701   3.779   1.257   2.088 -0.6646 -1.7649 -0.2203
 1162SOL    HW3 4702   3.730   1.218   1.950  0.7656  0.2522 -1.3243
 1162SOL    MW4 4703   3.785   1.262   2.001  0.2367 -0.4855 -0.0939
 1163SOL     OW 4704   3.818   1.543   1.888  0.3525 -0.3284 -0.5720
 1163SOL    HW2 4705   3.892   1.594   1.921 -0.3330 -0.1847  0.7414
 1163SOL    HW3 4706   3.827   1.458   1.932 -0.0772 -0.4181 -0.6605
 1163SOL    MW4 4707   3.829   1.538   1.898  0.2053 -0.3214 -0.4104
 1164SOL     OW 4708   3.580   1.671   1.981  0.3251 -0.0812 -0.2088
 1164SOL    HW2 4709   3.587   1.765   1.965 -0.1816  0.3091  1.7802
 1164SOL    HW3 4710   3.665   1.636   1.953  0.9905  1.1399  0.2267
 1164SOL    MW4 4711   3.592   1.679   1.975  0.3462  0.1315  0.1111
 1165SOL     OW 4712   3.601   1.929   1.901  0.3811  0.5886  0.0220
 1165SOL    HW2 4713   3.679   1.978   1.928  1.2781 -0.6194 -0.3064
 1165SOL    HW3 4714   3.618   1.906   1.809  0.6947 -1.6694  0.6276
 1165SOL    MW4 4715   3.614   1.932   1.892  0.5405  0.1312  0.0587
 1166SOL     OW 4716   3.850   2.056   1.981 -0.3979  0.1344  0.6663
 1166SOL    HW2 4717   3.940   2.029   1.961  0.1742  0.7264  2.3461
 1166SOL    HW3 4718   3.844   2.145   1.947 -0.3692  0.0748  0.5047
 1166SOL    MW4 4719   3.861   2.064   1.974 -0.3188  0.2048  0.8668
 1167SOL     OW 4720   3.816   2.318   1.865 -0.3055  0.5291 -0.1766
 1167SOL    HW2 4721   3.889   2.364   1.907 -0.4486 -0.0725  0.7450
 1167SOL    HW3 4722   3.738   2.365   1.893 -0.3595  0.4614 -0.2116
 1167SOL    MW4 4723   3.816   2.330   1.874 -0.3314  0.4406 -0.0597
 1168SOL     OW 4724   3.590   2.427   1.983 -0.2078  0.0903 -0.3930
 1168SOL    HW2 4725   3.578   2.519   1.963 -0.3442  0.2246  0.2846
 1168SOL    HW3 4726   3.508   2.386   1.955 -0.7207  0.4023  0.6010
 1168SOL    MW4 4727   3.577   2.433   1.977 -0.2935  0.1495 -0.1725
 1169SOL     OW 4728   3.603   2.702   1.910  0.5430 -0.0981  0.2854
 1169SOL    HW2 4729   3.678   2.746   1.949  0.3353  1.1584 -0.6987
 1169SOL    HW3 4730   3.527   2.745   1.949  0.3382  0.3102 -0.5397
 1169SOL    MW4 4731   3.603   2.713   1.920  0.4885  0.1218  0.0466
 1170SOL     OW 4732   3.848   2.854   2.022 -0.0032 -0.0897 -0.0828
 1170SOL    HW2 4733   3.876   2.853   2.114  1.2089 -0.4673 -0.4553
 1170SOL    HW3 4734   3.828   2.946   2.004 -0.7905 -0.0922  0.7147
 1170SOL    MW4 4735   3.849   2.866   2.032  0.0529 -0.1397 -0.0269
 1171SOL     OW 4736   3.799   3.104   1.917 -0.6638 -0.1250  0.3115
 1171SOL    HW2 4737   3.715   3.141   1.943 -1.3120 -2.6252  1.9600
 1171SOL    HW3 4738   3.790   3.089   1.823 -1.2754  1.5332  0.0844
 1171SOL    MW4 4739   3.787   3.107   1.908 -0.8302 -0.2360  0.4990
 1172SOL     OW 4740   3.564   3.215   1.997  0.2347  0.0784 -0.1715
 1172SOL    HW2 4741   3.561   3.187   2.088 -1.0054 -1.4843 -0.6509
 1172SOL    HW3 4742   3.597   3.304   1.999  0.0840  0.1003  1.8182
 1172SOL    MW4 4743   3.568   3.223   2.009  0.0513 -0.1249  0.0279
 1173SOL     OW 4744   3.603   3.490   1.891 -0.0652 -0.6332 -0.4887
 1173SOL    HW2 4745   3.684   3.537   1.911 -1.3832  0.9994  1.2052
 1173SOL    HW3 4746   3.590   3.504   1.797  1.2097 -0.2843 -0.6268
 1173SOL    MW4 4747   3.612   3.498   1.881 -0.0710 -0.3719 -0.2832
 1174SOL     OW 4748   3.828   3.599   1.998 -0.1660 -0.1179  0.1115
 1174SOL    HW2 4749   3.881   3.540   1.943 -0.1575  0.9082 -0.9986
 1174SOL    HW3 4750   3.837   3.685   1.957 -0.1578  0.6813  1.7350
 1174SOL    MW4 4751   3.836   3.602   1.985 -0.1638  0.1225  0.1792
 1175SOL     OW 4752   3.819   3.869   1.885 -0.2713 -0.1826  0.5787
 1175SOL    HW2 4753   3.746   3.917   1.925  0.0542  1.1434 -0.3662
 1175SOL    HW3 4754   3.795   3.865   1.792 -0.0354 -1.3988  0.5703
 1175SOL    MW4 4755   3.806   3.875   1.878 -0.1969 -0.1683  0.4530
 1176SOL     OW 4756   3.611   4.005   2.002 -0.0788  0.0916  0.2035
 1176SOL    HW2 4757   3.591   4.018   2.095  0.2558 -1.2356  0.4676
 1176SOL    HW3 4758   3.539   3.951   1.969  0.8464 -1.1373  0.1694
 1176SOL    MW4 4759   3.599   4.000   2.010  0.0875 -0.2451  0.2337
 1177SOL     OW 4760   3.590   4.245   1.851 -0.2459  0.1491 -0.1261
 1177SOL    HW2 4761   3.651   4.310   1.887  0.3984 -0.3087 -0.3739
 1177SOL    HW3 4762   3.600   4.169   1.909 -0.2531 -0.0815 -0.4278
 1177SOL    MW4 4763   3.600   4.244   1.863 -0.1619  0.0587 -0.1985
 1178SOL     OW 4764   3.780   4.402   1.962  0.1887 -0.0423 -0.3703
 1178SOL    HW2 4765   3.774   4.397   2.057  0.3183 -0.4504 -0.3836
 1178SOL    HW3 4766   3.864   4.362   1.941  1.5290  2.6813 -0.4328
 1178SOL    MW4 4767   3.790   4.396   1.972  0.3822  0.2627 -0.3804
 1179SOL     OW 4768   4.257   4.631   1.929  0.2176  0.4730 -0.7339
 1179SOL    HW2 4769   4.181   4.669   1.974  0.2273  0.9614 -1.1292
 1179SOL    HW3 4770   4.330   4.686   1.956  0.5333 -0.3481  0.1090
 1179SOL    MW4 4771   4.256   4.643   1.939  0.2604  0.4292 -0.6750
 1180SOL     OW 4772   4.023   0.100   2.018 -0.2179  0.0124  0.1134
 1180SOL    HW2 4773   4.010   0.099   2.113  1.0250 -0.4483  0.3002
 1180SOL    HW3 4774   3.944   0.060   1.982 -0.3409 -0.5663  1.0137
 1180SOL    MW4 4775   4.011   0.094   2.026 -0.0696 -0.1247  0.2568
 1181SOL     OW 4776   4.064   0.358   1.896 -0.4402  0.1508  0.5696
 1181SOL    HW2 4777   4.040   0.270   1.922 -1.9077  0.4049  0.1368
 1181SOL    HW3 4778   3.990   0.412   1.923 -0.6318  0.8789 -1.2879
 1181SOL    MW4 4779   4.051   0.354   1.903 -0.6595  0.2804  0.2674
 1182SOL     OW 4780   4.267   0.520   1.986 -0.2559  0.2195 -0.6354
 1182SOL    HW2 4781   4.269   0.525   2.082  0.3234  1.3220 -0.6968
 1182SOL    HW3 4782   4.182   0.481   1.966 -0.8544  1.0213  0.2993
 1182SOL    MW4 4783   4.256   0.516   1.996 -0.2584  0.4708 -0.5203
 1183SOL     OW 4784   4.275   0.780   1.863  0.3378 -0.5614 -0.3174
 1183SOL    HW2 4785   4.278   0.694   1.904  0.0986 -0.5945 -0.3678
 1183SOL    HW3 4786   4.278   0.761   1.769  0.1658 -0.5196 -0.3307
 1183SOL    MW4 4787   4.276   0.766   1.856  0.2837 -0.5603 -0.3258
 1184SOL     OW 4788   4.077   0.908   1.983  0.0230  0.3553 -0.0462
 1184SOL    HW2 4789   4.158   0.871   1.947  0.1468  0.4966  0.0880
 1184SOL    HW3 4790   4.007   0.856   1.942  0.2742 -1.6062  1.9162
 1184SOL    MW4 4791   4.079   0.896   1.973  0.0720  0.1152  0.2303
 1185SOL     OW 4792   4.036   1.165   1.881 -0.0925 -0.5656 -0.3064
 1185SOL    HW2 4793   4.052   1.077   1.916  0.6710  0.2662  1.5151
 1185SOL    HW3 4794   3.968   1.201   1.937  0.5093  0.4685 -0.2172
 1185SOL    MW4 4795   4.029   1.158   1.893  0.0882 -0.3195 -0.0542
 1186SOL     OW 4796   4.281   1.274   1.990  0.2271 -0.2382 -0.1440
 1186SOL    HW2 4797   4.281   1.290   2.084  1.8604  1.1505 -0.3520
 1186SOL    HW3 4798   4.200   1.227   1.974 -0.1604 -0.3330  1.9329
 1186SOL    MW4 4799   4.271   1.270   2.000  0.3920 -0.0676  0.1028
 1187SOL     OW 4800   4.254   1.537   1.904  0.3179  0.0908 -0.2576
 1187SOL    HW2 4801   4.270   1.443   1.914 -0.3039 -0.0199 -0.2429
 1187SOL    HW3 4802   4.274   1.555   1.812  0.8670  0.0319 -0.1472
 1187SOL    MW4 4803   4.259   1.527   1.893  0.3085  0.0684 -0.2412
 1188SOL     OW 4804   4.042   1.683   1.990 -0.0342 -0.0610  0.0833
 1188SOL    HW2 4805   4.038   1.680   2.086 -1.7060 -0.6604  0.0023
 1188SOL    HW3 4806   4.112   1.621   1.967  0.0714 -0.2478  0.8953
 1188SOL    MW4 4807   4.051   1.674   2.000 -0.2408 -0.1647  0.1799
 1189SOL     OW 4808   4.062   1.918   1.868 -0.5017 -0.2803  0.1329
 1189SOL    HW2 4809   4.055   1.830   1.905  0.5056 -0.5170 -0.2158
 1189SOL    HW3 4810   4.053   1.905   1.773  0.5295 -0.1283  0.0056
 1189SOL    MW4 4811   4.060   1.904   1.860 -0.2322 -0.2916  0.0700
 1190SOL     OW 4812   4.293   2.037   1.973 -0.4582 -0.1234 -0.2845
 1190SOL    HW2 4813   4.285   2.030   2.068 -0.4558 -1.4416 -0.3751
 1190SOL    HW3 4814   4.212   1.998   1.939 -0.7278  0.8928 -0.8082
 1190SOL    MW4 4815   4.281   2.031   1.981 -0.4935 -0.1631 -0.3656
 1191SOL     OW 4816   4.274   2.307   1.884 -0.0212 -0.1517  0.0861
 1191SOL    HW2 4817   4.288   2.219   1.921  0.1593  0.3271  1.1783
 1191SOL    HW3 4818   4.334   2.363   1.933 -3.3768  1.3921  2.6073
 1191SOL    MW4 4819   4.284   2.303   1.895 -0.4401  0.1152  0.5628
 1192SOL     OW 4820   4.039   2.439   1.980 -0.6711 -0.2168  0.5284
 1192SOL    HW2 4821   4.028   2.409   2.070 -0.5641  0.0762  0.6376
 1192SOL    HW3 4822   4.121   2.398   1.950 -0.0464  0.6984  0.9758
 1192SOL    MW4 4823   4.048   2.429   1.988 -0.5746 -0.0575  0.6018
 1193SOL     OW 4824   4.068   2.709   1.895 -0.3025 -0.2531  0.1878
 1193SOL    HW2 4825   4.059   2.621   1.930  0.1141 -0.4128 -0.1008
 1193SOL    HW3 4826   3.984   2.750   1.910 -0.6003 -0.8054  0.0386
 1193SOL    MW4 4827   4.056   2.703   1.901 -0.2866 -0.3469  0.1299
 1194SOL     OW 4828   4.299   2.792   2.018  0.1333  0.1144  0.3680
 1194SOL    HW2 4829   4.274   2.806   2.110  0.4161  0.9579  0.3194
 1194SOL    HW3 4830   4.218   2.764   1.976 -0.2084  0.6057  0.6898
 1194SOL    MW4 4831   4.285   2.790   2.025  0.1254  0.2909  0.4044
 1195SOL     OW 4832   4.308   3.046   1.897  0.8095  0.2310 -0.0674
 1195SOL    HW2 4833   4.232   3.089   1.936  0.1928 -1.1245  0.2677
 1195SOL    HW3 4834   4.312   2.960   1.940  2.5664  0.3125 -0.0394
 1195SOL    MW4 4835   4.299   3.040   1.908  0.9599  0.0632 -0.0194
 1196SOL     OW 4836   4.060   3.173   1.996 -0.3985  0.0443  0.0838
 1196SOL    HW2 4837   4.051   3.190   2.090 -0.9146 -0.5105  0.1376
 1196SOL    HW3 4838   3.971   3.160   1.966 -0.0950 -1.5068 -0.1559
 1196SOL    MW4 4839   4.047   3.174   2.005 -0.4268 -0.2337  0.0591
 1197SOL     OW 4840   4.041   3.434   1.896 -0.1771 -0.6374  0.1856
 1197SOL    HW2 4841   4.119   3.481   1.925 -0.2758 -1.1050  1.2446
 1197SOL    HW3 4842   4.051   3.346   1.932 -0.4568 -1.1592 -0.9647
 1197SOL    MW4 4843   4.052   3.429   1.905 -0.2275 -0.7679  0.1736
 1198SOL     OW 4844   4.253   3.617   1.996  0.3230 -0.0707  0.4577
 1198SOL    HW2 4845   4.256   3.709   1.971 -1.4268 -0.2378 -0.4009
 1198SOL    HW3 4846   4.332   3.579   1.959 -0.7404  0.3277 -2.3031
 1198SOL    MW4 4847   4.264   3.624   1.988 -0.0486 -0.0398 -0.0198
 1199SOL     OW 4848   4.272   3.911   1.932  0.0366 -0.3396 -0.4285
 1199SOL    HW2 4849   4.360   3.948   1.940  0.0918 -0.7566  1.1481
 1199SOL    HW3 4850   4.263   3.889   1.840  1.4791 -0.0160 -0.6564
 1199SOL    MW4 4851   4.283   3.913   1.921  0.2341 -0.3519 -0.2506
 1200SOL     OW 4852   4.022   3.997   2.019  0.1881 -0.0522 -0.2330
 1200SOL    HW2 4853   4.104   3.948   2.012 -0.5044 -0.9782 -2.1716
 1200SOL    HW3 4854   3.955   3.938   1.984 -1.1099  1.1899  0.0935
 1200SOL    MW4 4855   4.024   3.983   2.014 -0.0749 -0.0105 -0.4456
 1201SOL     OW 4856   4.005   4.254   1.895  0.0759 -0.8052 -0.0002
 1201SOL    HW2 4857   4.085   4.298   1.926 -0.0694 -0.1775 -0.4992
 1201SOL    HW3 4858   4.010   4.166   1.933  0.7712 -0.6176  0.3616
 1201SOL    MW4 4859   4.016   4.248   1.904  0.1483 -0.6981 -0.0184
 1202SOL     OW 4860   4.233   4.372   2.016 -0.3737  0.0931  0.3440
 1202SOL    HW2 4861   4.221   4.358   2.110 -0.0243  0.9898  0.5289
 1202SOL    HW3 4862   4.246   4.466   2.007  0.0049 -0.0382 -0.5624
 1202SOL    MW4 4863   4.233   4.383   2.027 -0.2775  0.1941  0.2491
 1203SOL     OW 4864   0.236   0.006   2.378  0.1325 -0.2299  0.3148
 1203SOL    HW2 4865   0.227   0.012   2.474  1.2716 -0.5147  0.4368
 1203SOL    HW3 4866   0.307   0.066   2.357 -0.6558  0.4546 -0.4566
 1203SOL    MW4 4867   0.244   0.015   2.388  0.1788 -0.1771  0.2294
 1204SOL     OW 4868   4.473   0.087   2.288 -0.0321 -0.1517 -0.0068
 1204SOL    HW2 4869   4.558   0.069   2.328  0.9020  1.5363 -1.1625
 1204SOL    HW3 4870   4.490   0.085   2.194 -1.5573 -1.0704 -0.2681
 1204SOL    MW4 4871   4.486   0.084   2.281 -0.1101 -0.0502 -0.1936
 1205SOL     OW 4872   4.441   0.357   2.336 -0.1631  0.1582  0.0748
 1205SOL    HW2 4873   4.512   0.389   2.280  0.7679  0.4117  1.3786
 1205SOL    HW3 4874   4.447   0.262   2.330 -0.8338  0.1717 -1.1785
 1205SOL    MW4 4875   4.451   0.349   2.327 -0.1292  0.1934  0.0815
 1206SOL     OW 4876   0.198   0.480   2.245 -0.0304 -0.2530  0.2814
 1206SOL    HW2 4877   0.285   0.447   2.269  0.8284  0.8576 -1.1805
 1206SOL    HW3 4878   0.208   0.508   2.154 -1.8711  0.0956  0.1741
 1206SOL    MW4 4879   0.211   0.480   2.236 -0.1600 -0.0604  0.0741
 1207SOL     OW 4880   0.196   0.748   2.328 -0.1865 -0.5735 -0.4420
 1207SOL    HW2 4881   0.229   0.759   2.417  1.8927  0.4832 -1.3090
 1207SOL    HW3 4882   0.204   0.655   2.310 -0.1829 -0.7206  0.3062
 1207SOL    MW4 4883   0.202   0.737   2.337  0.0883 -0.4535 -0.4575
 1208SOL     OW 4884   4.456   0.858   2.219 -0.1072  0.1884 -0.0725
 1208SOL    HW2 4885   4.534   0.811   2.249  0.2284  0.9994  0.3360
 1208SOL    HW3 4886   4.480   0.893   2.133  0.4159  1.4668  0.5758
 1208SOL    MW4 4887   4.470   0.856   2.211  0.0062  0.4640  0.0670
 1209SOL     OW 4888   4.488   1.118   2.353 -0.3424  0.3953  0.0629
 1209SOL    HW2 4889   4.485   1.103   2.447 -0.3197 -1.5623 -0.2320
 1209SOL    HW3 4890   4.458   1.036   2.314  0.2046  0.9758 -1.6469
 1209SOL    MW4 4891   4.484   1.105   2.360 -0.2666  0.2136 -0.2015
 1210SOL     OW 4892   0.235   1.239   2.263  0.6745 -0.0240 -0.5293
 1210SOL    HW2 4893   0.149   1.200   2.279  1.0385 -0.6400 -0.0304
 1210SOL    HW3 4894   0.249   1.231   2.169 -0.9842  2.5375 -1.0416
 1210SOL    MW4 4895   0.226   1.233   2.253  0.5037  0.2327 -0.5310
 1211SOL     OW 4896   0.241   1.515   2.347  0.3601 -0.0625  0.1143
 1211SOL    HW2 4897   0.237   1.532   2.441 -1.2424 -1.0073  0.2292
 1211SOL    HW3 4898   0.246   1.420   2.340  0.9533  0.0281 -0.7480
 1211SOL    MW4 4899   0.241   1.505   2.359  0.2270 -0.1752  0.0155
 1212SOL     OW 4900   4.484   1.650   2.256  0.2120  0.1589 -0.4760
 1212SOL    HW2 4901   4.495   1.743   2.277 -0.8603  0.4964 -1.3401
 1212SOL    HW3 4902   4.557   1.607   2.299  0.1977  1.2895  0.7155
 1212SOL    MW4 4903   4.495   1.657   2.264  0.0686  0.3527 -0.4325
 1213SOL     OW 4904   4.490   1.920   2.353 -0.2569 -0.1299 -0.3285
 1213SOL    HW2 4905   4.414   1.959   2.309 -0.2223 -2.1049 -2.1861
 1213SOL    HW3 4906   4.563   1.978   2.330 -0.5344 -0.2608 -1.5591
 1213SOL    MW4 4907   4.490   1.933   2.344 -0.2890 -0.4077 -0.7360
 1214SOL     OW 4908   0.217   2.078   2.274 -0.3759 -0.3653 -0.2908
 1214SOL    HW2 4909   0.286   2.026   2.316 -0.5728 -1.3884 -1.2012
 1214SOL    HW3 4910   0.235   2.070   2.181 -0.5068  1.0956 -0.4430
 1214SOL    MW4 4911   0.228   2.070   2.268 -0.4192 -0.3076 -0.4306
 1215SOL     OW 4912   0.177   2.326   2.359 -0.1409 -0.6742 -0.2170
 1215SOL    HW2 4913   0.185   2.320   2.454  1.1560  2.5177 -0.0258
 1215SOL    HW3 4914   0.191   2.237   2.328 -0.3423 -1.7341  2.5664
 1215SOL    MW4 4915   0.180   2.314   2.368  0.0036 -0.3932  0.1755
 1216SOL     OW 4916   4.437   2.455   2.298  0.0652  0.6051  0.4734
 1216SOL    HW2 4917   4.450   2.545   2.326 -0.8191  0.7172  0.5500
 1216SOL    HW3 4918   4.521   2.412   2.314  0.3662  1.3159  0.8103
 1216SOL    MW4 4919   4.450   2.461   2.304 -0.0119  0.7138  0.5279
 1217SOL     OW 4920   4.491   2.697   2.415  0.1621 -0.2537  0.1796
 1217SOL    HW2 4921   4.504   2.676   2.508 -0.1648 -0.5807  0.1562
 1217SOL    HW3 4922   4.568   2.748   2.391  1.2643 -1.9129  0.0952
 1217SOL    MW4 4923   4.503   2.701   2.424  0.2642 -0.5155  0.1655
 1218SOL     OW 4924   0.234   2.821   2.293 -0.2337 -0.4967 -0.0880
 1218SOL    HW2 4925   0.316   2.790   2.332 -0.6483  0.5406  1.6934
 1218SOL    HW3 4926   0.244   2.805   2.199  1.9103 -0.6142  0.1361
 1218SOL    MW4 4927   0.246   2.815   2.286 -0.0055 -0.3753  0.1764
 1219SOL     OW 4928   0.229   3.078   2.380  0.5755 -0.7810  0.3031
 1219SOL    HW2 4929   0.141   3.112   2.362  0.7025 -0.5186  0.1724
 1219SOL    HW3 4930   0.230   2.992   2.338  0.8451 -0.2003 -0.9058
 1219SOL    MW4 4931   0.218   3.071   2.372  0.6278 -0.6697  0.1264
 1220SOL     OW 4932   0.002   3.194   2.279 -0.2609  0.4422  0.1264
 1220SOL    HW2 4933  -0.001   3.282   2.317 -2.3444  0.9334 -1.1308
 1220SOL    HW3 4934   0.033   3.207   2.190  0.4863 -0.2382  0.2802
 1220SOL    MW4 4935   0.006   3.207   2.272 -0.4373  0.4172 -0.0193
 1221SOL     OW 4936   0.005   3.449   2.397  0.0139  0.2742  0.4003
 1221SOL    HW2 4937   0.009   3.464   2.491  1.0472  0.8609  0.2750
 1221SOL    HW3 4938  -0.086   3.468   2.373  0.3249  2.5065  0.8905
 1221SOL    MW4 4939  -0.006   3.453   2.406  0.1912  0.6461  0.4485
 1222SOL     OW 4940   0.205   3.594   2.276  0.2740 -0.2714  0.5311
 1222SOL    HW2 4941   0.282   3.555   2.317 -0.3002  1.1522  3.0815
 1222SOL    HW3 4942   0.130   3.546   2.313 -0.1613 -0.8127 -0.9845
 1222SOL    MW4 4943   0.205   3.583   2.286  0.1408 -0.1547  0.6676
 1223SOL     OW 4944   0.175   3.869   2.370  0.0072 -0.6137  0.0815
 1223SOL    HW2 4945   0.094   3.903   2.332 -0.9540 -1.6931  1.1028
 1223SOL    HW3 4946   0.175   3.776   2.347  1.9371 -0.2459 -1.5475
 1223SOL    MW4 4947   0.164   3.861   2.362  0.1350 -0.7074  0.0012
 1224SOL     OW 4948   4.450   4.006   2.276 -0.4940 -0.5156 -0.1974
 1224SOL    HW2 4949   4.473   4.086   2.322  0.5945 -1.3981  0.8265
 1224SOL    HW3 4950   4.454   4.029   2.183 -0.2274  0.6097  0.0904
 1224SOL    MW4 4951   4.453   4.020   2.269 -0.3152 -0.4840 -0.0243
 1225SOL     OW 4952   4.484   4.241   2.408 -0.2770  0.2557  0.0822
 1225SOL    HW2 4953   4.468   4.243   2.502  0.1769 -2.8288  0.2789
 1225SOL    HW3 4954   4.568   4.284   2.397  0.0610 -0.1072  1.1841
 1225SOL    MW4 4955   4.493   4.247   2.419 -0.1725 -0.1988  0.2537
 1226SOL     OW 4956   0.222   4.395   2.310 -0.1524  0.1471  0.0280
 1226SOL    HW2 4957   0.314   4.372   2.320 -0.1581  0.9004  2.0433
 1226SOL    HW3 4958   0.221   4.491   2.313 -1.0531  0.1238  0.5311
 1226SOL    MW4 4959   0.234   4.405   2.312 -0.2720  0.2432  0.3600
 1227SOL     OW 4960   0.666   0.004   2.378 -0.5997 -0.4766  0.0109
 1227SOL    HW2 4961   0.681  -0.007   2.472 -0.5393 -2.1088 -0.1655
 1227SOL    HW3 4962   0.749   0.036   2.343 -0.7295  0.4795  0.5543
 1227SOL    MW4 4963   0.679   0.007   2.386 -0.6089 -0.5658  0.0591
 1228SOL     OW 4964   0.440   0.171   2.281 -0.0318  0.2769 -0.4786
 1228SOL    HW2 4965   0.522   0.129   2.304 -0.9547 -1.1900  0.2558
 1228SOL    HW3 4966   0.431   0.158   2.186  0.4583  0.2271 -0.5160
 1228SOL    MW4 4967   0.449   0.164   2.271 -0.0889  0.0768 -0.3862
 1229SOL     OW 4968   0.443   0.423   2.376  0.6491  0.3508 -0.1069
 1229SOL    HW2 4969   0.455   0.421   2.471 -0.3519  0.4450  0.0239
 1229SOL    HW3 4970   0.437   0.330   2.351  1.6020  0.3030 -0.1710
 1229SOL    MW4 4971   0.444   0.410   2.385  0.6427  0.3569 -0.0982
 1230SOL     OW 4972   0.661   0.496   2.234  0.0455 -0.4647 -0.0225
 1230SOL    HW2 4973   0.662   0.584   2.272 -0.0346 -0.1501 -0.7444
 1230SOL    HW3 4974   0.577   0.459   2.262 -0.0961 -0.1659 -0.0557
 1230SOL    MW4 4975   0.650   0.503   2.243  0.0163 -0.3838 -0.1221
 1231SOL     OW 4976   0.694   0.745   2.336  0.0743  0.3871  0.4611
 1231SOL    HW2 4977   0.678   0.744   2.430 -0.9573 -2.2822  0.2927
 1231SOL    HW3 4978   0.622   0.796   2.300  0.6156  1.6456  1.1088
 1231SOL    MW4 4979   0.682   0.751   2.344  0.0097  0.2009  0.5240
 1232SOL     OW 4980   0.457   0.857   2.259  0.0105 -0.2040  0.0401
 1232SOL    HW2 4981   0.367   0.826   2.269 -0.4614  0.8528 -0.7848
 1232SOL    HW3 4982   0.468   0.868   2.164  0.4549  1.2682  0.2495
 1232SOL    MW4 4983   0.447   0.855   2.248  0.0069  0.1296 -0.0410
 1233SOL     OW 4984   0.454   1.124   2.364  0.0983 -0.4107  0.2897
 1233SOL    HW2 4985   0.465   1.038   2.322 -0.2145 -0.4004  0.1847
 1233SOL    HW3 4986   0.372   1.158   2.328 -0.5968 -0.7635  1.5341
 1233SOL    MW4 4987   0.445   1.117   2.354 -0.0347 -0.4560  0.4401
 1234SOL     OW 4988   0.651   1.290   2.245 -0.3388 -0.3473  0.0323
 1234SOL    HW2 4989   0.639   1.372   2.294 -0.7003  0.2837 -1.0877
 1234SOL    HW3 4990   0.581   1.233   2.276  0.2146 -0.4168  1.1778
 1234SOL    MW4 4991   0.640   1.294   2.255 -0.3135 -0.2731  0.0358
 1235SOL     OW 4992   0.651   1.541   2.363  0.2258  0.5934 -0.2709
 1235SOL    HW2 4993   0.656   1.561   2.456  0.2890  0.2208 -0.1927
 1235SOL    HW3 4994   0.734   1.572   2.327  0.7339 -0.4061  0.0204
 1235SOL    MW4 4995   0.662   1.548   2.370  0.3012  0.4125 -0.2222
 1236SOL     OW 4996   0.439   1.660   2.257  0.4544  0.0069  0.0233
 1236SOL    HW2 4997   0.515   1.616   2.295  0.3568 -0.5221 -0.3844
 1236SOL    HW3 4998   0.364   1.612   2.292  0.3633 -0.4702 -0.8097
 1236SOL    MW4 4999   0.439   1.648   2.267  0.4295 -0.1259 -0.1404
 1237SOL     OW 5000   0.436   1.923   2.363  0.3539  0.1500  0.3327
 1237SOL    HW2 5001   0.524   1.945   2.334 -0.4214  1.6013 -1.0383
 1237SOL    HW3 5002   0.420   1.835   2.330  0.5507  0.6771 -1.1737
 1237SOL    MW4 5003   0.445   1.915   2.355  0.2776  0.4112 -0.0470
 1238SOL     OW 5004   0.669   2.024   2.281 -0.2404 -0.3290  0.0294
 1238SOL    HW2 5005   0.751   1.987   2.312 -0.5469 -0.8379  0.2324
 1238SOL    HW3 5006   0.680   2.119   2.292  0.1226 -0.4283  0.5213
 1238SOL    MW4 5007   0.681   2.032   2.286 -0.2329 -0.4094  0.1209
 1239SOL     OW 5008   0.668   2.319   2.338  0.3628  0.0715 -0.2292
 1239SOL    HW2 5009   0.668   2.332   2.433  0.5031  0.8099 -0.3274
 1239SOL    HW3 5010   0.745   2.368   2.307  0.1020  0.1552 -0.7630
 1239SOL    MW4 5011   0.678   2.327   2.346  0.3469  0.1802 -0.3123
 1240SOL     OW 5012   0.408   2.461   2.292 -0.0831  0.2980  0.1022
 1240SOL    HW2 5013   0.484   2.412   2.322  0.3613  0.0344 -1.3857
 1240SOL    HW3 5014   0.333   2.410   2.321  0.3635 -0.8981 -0.8036
 1240SOL    MW4 5015   0.408   2.448   2.300  0.0345  0.1056 -0.2139
 1241SOL     OW 5016   0.484   2.736   2.380 -0.4026  0.0414  0.4948
 1241SOL    HW2 5017   0.484   2.750   2.475 -0.2465  0.5523  0.4208
 1241SOL    HW3 5018   0.476   2.641   2.370  1.5799 -0.2167  1.0477
 1241SOL    MW4 5019   0.483   2.725   2.391 -0.1205  0.0749  0.5579
 1242SOL     OW 5020   0.700   2.845   2.272 -0.3846 -0.3499 -0.0772
 1242SOL    HW2 5021   0.768   2.785   2.301 -0.8235 -0.4599  0.7502
 1242SOL    HW3 5022   0.618   2.802   2.296 -0.7189  0.3302  0.0281
 1242SOL    MW4 5023   0.698   2.831   2.279 -0.4867 -0.2749  0.0460
 1243SOL     OW 5024   0.690   3.093   2.376  0.1298 -0.0745  0.4562
 1243SOL    HW2 5025   0.607   3.131   2.347  0.0840  0.8001  1.6652
 1243SOL    HW3 5026   0.691   3.005   2.338 -0.3951  0.6435 -1.2589
 1243SOL    MW4 5027   0.679   3.086   2.368  0.0545  0.1359  0.3896
 1244SOL     OW 5028   0.456   3.213   2.281  0.3684 -0.1066  0.3175
 1244SOL    HW2 5029   0.372   3.179   2.313  0.6325 -0.8953  0.1836
 1244SOL    HW3 5030   0.448   3.211   2.186  0.5912 -0.3240  0.3024
 1244SOL    MW4 5031   0.444   3.208   2.273  0.4326 -0.2391  0.2980
 1245SOL     OW 5032   0.444   3.473   2.375 -0.0737  0.4839  0.0284
 1245SOL    HW2 5033   0.510   3.527   2.331  0.0470 -0.2569 -0.7183
 1245SOL    HW3 5034   0.454   3.386   2.336 -1.7562  0.4540 -0.3918
 1245SOL    MW4 5035   0.454   3.469   2.364 -0.2798  0.3819 -0.1254
 1246SOL     OW 5036   0.661   3.621   2.279 -0.3342  0.1235 -0.3992
 1246SOL    HW2 5037   0.660   3.712   2.310 -0.3565  0.3650 -1.1039
 1246SOL    HW3 5038   0.664   3.628   2.183  1.1152 -0.6151 -0.4259
 1246SOL    MW4 5039   0.661   3.634   2.270 -0.1459  0.0579 -0.4957
 1247SOL     OW 5040   0.645   3.893   2.349 -0.0761 -0.4371 -0.5106
 1247SOL    HW2 5041   0.640   3.889   2.445  0.3047 -0.1051 -0.4726
 1247SOL    HW3 5042   0.554   3.903   2.320 -0.0916  0.6069 -0.1229
 1247SOL    MW4 5043   0.632   3.894   2.358 -0.0280 -0.2556 -0.4547
 1248SOL     OW 5044   0.404   3.961   2.264 -0.2579 -0.1249 -0.1819
 1248SOL    HW2 5045   0.316   3.936   2.293 -0.1083 -2.1142 -1.3739
 1248SOL    HW3 5046   0.399   3.963   2.169  1.1527 -0.8271 -0.2779
 1248SOL    MW4 5047   0.391   3.958   2.255 -0.0520 -0.4802 -0.3519
 1249SOL     OW 5048   0.468   4.249   2.366 -0.1980 -0.4226  0.1206
 1249SOL    HW2 5049   0.542   4.300   2.332 -2.5223  1.7172 -1.8882
 1249SOL    HW3 5050   0.483   4.161   2.333  1.4015 -0.0144 -0.3079
 1249SOL    MW4 5051   0.480   4.244   2.358 -0.2936 -0.0863 -0.2010
 1250SOL     OW 5052   0.665   4.414   2.294 -0.0308  0.4039 -0.2393
 1250SOL    HW2 5053   0.681   4.503   2.326  1.0177  0.7239 -1.5896
 1250SOL    HW3 5054   0.669   4.423   2.199  1.5646 -1.3604 -0.3520
 1250SOL    MW4 5055   0.668   4.427   2.286  0.3180  0.2131 -0.4323
 1251SOL     OW 5056   1.118   4.664   2.408  0.3761 -0.3609  0.1560
 1251SOL    HW2 5057   1.127   4.654   2.503  0.5294  0.8221  0.2659
 1251SOL    HW3 5058   1.032   4.705   2.396  0.3472 -0.5278 -0.2223
 1251SOL    MW4 5059   1.108   4.668   2.419  0.3924 -0.2275  0.1206
 1252SOL     OW 5060   0.902   0.150   2.310 -0.2731  0.1301  0.0766
 1252SOL    HW2 5061   0.900   0.243   2.333  0.7159 -0.2079  1.6059
 1252SOL    HW3 5062   0.900   0.149   2.215 -0.7947  1.7014  0.0530
 1252SOL    MW4 5063   0.901   0.162   2.301 -0.2115  0.2928  0.2754
 1253SOL     OW 5064   0.885   0.416   2.377  0.4890  0.2794 -0.4891
 1253SOL    HW2 5065   0.961   0.459   2.339  0.8894  0.9389  1.0133
 1253SOL    HW3 5066   0.810   0.447   2.326  1.1162  0.4607 -1.2858
 1253SOL    MW4 5067   0.885   0.426   2.366  0.6245  0.3903 -0.3960
 1254SOL     OW 5068   1.113   0.546   2.281 -0.1912  0.7283 -0.2139
 1254SOL    HW2 5069   1.178   0.485   2.313 -0.1827  1.0098  0.3097
 1254SOL    HW3 5070   1.117   0.538   2.186 -1.2496 -1.2064 -0.1416
 1254SOL    MW4 5071   1.122   0.537   2.273 -0.3296  0.5102 -0.1352
 1255SOL     OW 5072   1.131   0.810   2.363  0.0251 -0.3338  0.1099
 1255SOL    HW2 5073   1.053   0.854   2.327  0.4330  0.1848 -0.1420
 1255SOL    HW3 5074   1.129   0.723   2.324  0.9437  0.5062 -1.8663
 1255SOL    MW4 5075   1.120   0.804   2.353  0.2002 -0.1546 -0.1841
 1256SOL     OW 5076   0.904   0.914   2.243  0.4286  0.1707 -0.3048
 1256SOL    HW2 5077   0.884   1.003   2.271  1.6506  0.4500 -0.2918
 1256SOL    HW3 5078   0.833   0.861   2.279  0.8803  0.8233  1.5867
 1256SOL    MW4 5079   0.892   0.918   2.251  0.6495  0.2936 -0.0534
 1257SOL     OW 5080   0.868   1.154   2.356  0.0110 -0.4852  0.4436
 1257SOL    HW2 5081   0.936   1.221   2.351  1.2237 -1.6703  0.7421
 1257SOL    HW3 5082   0.786   1.202   2.347  0.8869  0.9649  0.0737
 1257SOL    MW4 5083   0.866   1.169   2.354  0.2866 -0.4503  0.4339
 1258SOL     OW 5084   1.102   1.319   2.289 -0.1035  0.7671  0.0100
 1258SOL    HW2 5085   1.183   1.276   2.317  0.1687  1.3309  0.1034
 1258SOL    HW3 5086   1.102   1.311   2.194  0.5430  1.5895 -0.0711
 1258SOL    MW4 5087   1.113   1.312   2.280  0.0176  0.9501  0.0117
 1259SOL     OW 5088   1.100   1.575   2.385 -0.0280 -0.2382  0.4406
 1259SOL    HW2 5089   1.014   1.605   2.355 -0.4732 -0.5705  1.3442
 1259SOL    HW3 5090   1.107   1.486   2.350 -0.0361 -0.1919  0.3218
 1259SOL    MW4 5091   1.089   1.567   2.377 -0.0879 -0.2760  0.5443
 1260SOL     OW 5092   0.875   1.681   2.295  0.5788  0.4208 -0.1539
 1260SOL    HW2 5093   0.889   1.770   2.328  0.9264  0.1702  0.3963
 1260SOL    HW3 5094   0.889   1.687   2.201  1.6952  0.7265  0.0275
 1260SOL    MW4 5095   0.879   1.694   2.287  0.7720  0.4280 -0.0575
 1261SOL     OW 5096   0.908   1.935   2.363 -0.1006 -0.4042  0.4167
 1261SOL    HW2 5097   0.913   1.945   2.458  0.3610  1.5489  0.1975
 1261SOL    HW3 5098   0.988   1.975   2.330 -0.8579  0.0616 -0.8867
 1261SOL    MW4 5099   0.919   1.941   2.372 -0.1396 -0.0851  0.2158
 1262SOL     OW 5100   1.151   2.051   2.265  0.2999  0.5972 -0.2840
 1262SOL    HW2 5101   1.223   2.000   2.302 -1.6853 -1.5594  0.7263
 1262SOL    HW3 5102   1.164   2.048   2.170  0.5131 -1.3521 -0.1993
 1262SOL    MW4 5103   1.162   2.044   2.257  0.0660  0.0556 -0.1397
 1263SOL     OW 5104   1.159   2.324   2.341  0.2196  0.4547 -0.0189
 1263SOL    HW2 5105   1.234   2.377   2.313  0.8327 -0.1280  0.5174
 1263SOL    HW3 5106   1.165   2.245   2.286 -1.7148  1.6857 -2.0984
 1263SOL    MW4 5107   1.170   2.320   2.330  0.0453  0.5403 -0.2227
 1264SOL     OW 5108   0.914   2.451   2.258  0.0826 -0.2514  0.2892
 1264SOL    HW2 5109   1.001   2.421   2.281 -0.0530 -1.0714 -0.2261
 1264SOL    HW3 5110   0.920   2.471   2.164 -0.5843 -1.4530 -0.0196
 1264SOL    MW4 5111   0.926   2.450   2.248 -0.0232 -0.5183  0.1802
 1265SOL     OW 5112   0.927   2.701   2.362  0.5583 -0.2842  0.3545
 1265SOL    HW2 5113   0.924   2.684   2.456 -2.0603  0.1132  0.3622
 1265SOL    HW3 5114   0.934   2.615   2.322 -2.5937 -0.7732  0.7793
 1265SOL    MW4 5115   0.928   2.688   2.369 -0.2031 -0.2964  0.4115
 1266SOL     OW 5116   1.139   2.853   2.275 -0.0383  0.2713  0.2473
 1266SOL    HW2 5117   1.213   2.814   2.322 -0.6973  1.2198  2.1105
 1266SOL    HW3 5118   1.063   2.803   2.304 -0.2044 -0.5240 -1.4602
 1266SOL    MW4 5119   1.139   2.841   2.285 -0.1471  0.2916  0.2677
 1267SOL     OW 5120   1.118   3.109   2.391 -0.1736  0.7221 -0.0358
 1267SOL    HW2 5121   1.061   3.160   2.334 -0.4400  0.5212  0.0483
 1267SOL    HW3 5122   1.128   3.025   2.346  0.4640  0.9352 -0.2934
 1267SOL    MW4 5123   1.111   3.105   2.378 -0.1247  0.7236 -0.0587
 1268SOL     OW 5124   0.905   3.237   2.250  0.0102 -0.0071 -0.4069
 1268SOL    HW2 5125   0.902   3.330   2.275 -0.3708  0.0053 -0.4973
 1268SOL    HW3 5126   0.828   3.198   2.292 -0.6019  0.0022 -1.4975
 1268SOL    MW4 5127   0.895   3.244   2.259 -0.1209 -0.0041 -0.5624
 1269SOL     OW 5128   0.891   3.495   2.377 -0.3076  0.1668 -0.5602
 1269SOL    HW2 5129   0.890   3.481   2.472  0.7203 -0.5238 -0.6357
 1269SOL    HW3 5130   0.806   3.534   2.357 -0.4999  0.3880  0.6567
 1269SOL    MW4 5131   0.880   3.498   2.387 -0.1974  0.1047 -0.4098
 1270SOL     OW 5132   1.122   3.624   2.241  0.0392 -0.2286  0.1749
 1270SOL    HW2 5133   1.197   3.593   2.293 -0.1177 -1.8157 -0.5161
 1270SOL    HW3 5134   1.046   3.585   2.284 -0.2068 -0.4147 -0.4229
 1270SOL    MW4 5135   1.122   3.615   2.254 -0.0138 -0.4623  0.0048
 1271SOL     OW 5136   1.058   3.891   2.350 -0.0273 -0.0717 -0.2904
 1271SOL    HW2 5137   1.132   3.949   2.331  0.0578 -0.2643 -0.5588
 1271SOL    HW3 5138   1.079   3.810   2.303 -0.0597 -0.3798  0.2302
 1271SOL    MW4 5139   1.071   3.888   2.341 -0.0204 -0.1376 -0.2568
 1272SOL     OW 5140   0.840   4.021   2.218  0.6071  0.0771 -0.0959
 1272SOL    HW2 5141   0.914   3.973   2.256  0.2392 -0.1780  0.3027
 1272SOL    HW3 5142   0.763   3.983   2.261  0.1943 -0.1291 -1.0068
 1272SOL    MW4 5143   0.840   4.009   2.229  0.5041  0.0167 -0.1633
 1273SOL     OW 5144   0.879   4.253   2.358 -0.1145  0.4205 -0.3765
 1273SOL    HW2 5145   0.870   4.191   2.286 -0.0270 -1.1063  0.9006
 1273SOL    HW3 5146   0.808   4.315   2.345 -1.5610 -1.2060 -0.4432
 1273SOL    MW4 5147   0.869   4.253   2.347 -0.2938  0.0043 -0.2165
 1274SOL     OW 5148   1.115   4.405   2.299  0.5023 -0.2256  0.4393
 1274SOL    HW2 5149   1.041   4.356   2.335  1.5842 -1.0348  1.6426
 1274SOL    HW3 5150   1.112   4.490   2.342  0.5607 -0.4437  0.8790
 1274SOL    MW4 5151   1.105   4.410   2.310  0.6529 -0.3610  0.6559
 1275SOL     OW 5152   1.545   0.027   2.365  0.3808  0.0072  0.0989
 1275SOL    HW2 5153   1.627   0.062   2.328  0.7576  0.1662  1.0842
 1275SOL    HW3 5154   1.478   0.087   2.332  0.9296  1.2244  1.1211
 1275SOL    MW4 5155   1.547   0.040   2.355  0.5029  0.1893  0.3638
 1276SOL     OW 5156   1.313   0.138   2.278 -0.0810 -0.1822 -0.3414
 1276SOL    HW2 5157   1.323   0.226   2.313  0.0287 -0.1729 -0.3965
 1276SOL    HW3 5158   1.245   0.098   2.332  1.6876 -0.9468  1.3562
 1276SOL    MW4 5159   1.306   0.144   2.289  0.1668 -0.2818 -0.1247
 1277SOL     OW 5160   1.354   0.402   2.373 -0.1002 -0.0345  0.4487
 1277SOL    HW2 5161   1.369   0.368   2.461  1.0716  1.4417  0.8250
 1277SOL    HW3 5162   1.432   0.453   2.352 -0.4736 -0.1569 -1.3505
 1277SOL    MW4 5163   1.366   0.404   2.382  0.0051  0.1441  0.2608
 1278SOL     OW 5164   1.590   0.536   2.290  0.5104 -0.0173  0.2064
 1278SOL    HW2 5165   1.659   0.485   2.333  0.0498  0.5263  1.5962
 1278SOL    HW3 5166   1.604   0.520   2.196  1.0361 -1.8158  0.5762
 1278SOL    MW4 5167   1.601   0.527   2.283  0.5189 -0.1829  0.4387
 1279SOL     OW 5168   1.552   0.816   2.308 -0.0364 -0.0662  0.3434
 1279SOL    HW2 5169   1.641   0.843   2.285  0.2184 -0.3083  1.0411
 1279SOL    HW3 5170   1.553   0.721   2.297 -0.3558 -0.0133 -0.1488
 1279SOL    MW4 5171   1.564   0.807   2.303 -0.0449 -0.0911  0.3705
 1280SOL     OW 5172   1.324   0.954   2.243 -0.0069  0.4530  0.3557
 1280SOL    HW2 5173   1.404   0.916   2.278  0.7240  1.0399 -0.6310
 1280SOL    HW3 5174   1.253   0.910   2.290  0.9097  0.3787  1.6754
 1280SOL    MW4 5175   1.325   0.943   2.254  0.2105  0.5206  0.3994
 1281SOL     OW 5176   1.343   1.206   2.364 -0.1333 -0.2221  0.1918
 1281SOL    HW2 5177   1.343   1.190   2.459 -1.5851 -0.1217  0.2152
 1281SOL    HW3 5178   1.332   1.120   2.325 -1.9623  0.0063  0.1790
 1281SOL    MW4 5179   1.342   1.193   2.372 -0.5662 -0.1788  0.1934
 1282SOL     OW 5180   1.581   1.295   2.244  0.2711 -0.4726 -0.2288
 1282SOL    HW2 5181   1.493   1.260   2.257  0.2640 -0.7117 -0.8986
 1282SOL    HW3 5182   1.604   1.270   2.155  0.5993  0.5222 -0.4259
 1282SOL    MW4 5183   1.573   1.287   2.234  0.3134 -0.3729 -0.3431
 1283SOL     OW 5184   1.577   1.515   2.401 -0.1822 -0.3206 -0.0474
 1283SOL    HW2 5185   1.646   1.568   2.362 -0.4028  0.4675  0.6136
 1283SOL    HW3 5186   1.578   1.433   2.352  0.5897  0.0550 -0.6565
 1283SOL    MW4 5187   1.586   1.512   2.389 -0.1094 -0.1671 -0.0408
 1284SOL     OW 5188   1.361   1.662   2.283 -0.3197 -0.5729  0.0963
 1284SOL    HW2 5189   1.432   1.607   2.317 -0.4290 -1.2989 -0.8459
 1284SOL    HW3 5190   1.282   1.628   2.325 -0.1014  0.3589  1.2945
 1284SOL    MW4 5191   1.360   1.650   2.293 -0.3053 -0.5456  0.1302
 1285SOL     OW 5192   1.354   1.926   2.405  0.0029 -0.2623 -0.1609
 1285SOL    HW2 5193   1.426   1.970   2.361  0.3104 -0.8266 -0.2212
 1285SOL    HW3 5194   1.356   1.837   2.372 -0.4566 -0.3930  0.1594
 1285SOL    MW4 5195   1.364   1.920   2.395 -0.0172 -0.3539 -0.1266
 1286SOL     OW 5196   1.575   2.059   2.275 -0.3891 -0.2039 -0.0537
 1286SOL    HW2 5197   1.649   2.009   2.309 -0.4832 -0.3909 -0.1221
 1286SOL    HW3 5198   1.580   2.047   2.180  0.9654  1.8228 -0.2688
 1286SOL    MW4 5199   1.585   2.051   2.267 -0.2228  0.0389 -0.0911
 1287SOL     OW 5200   1.561   2.326   2.337 -0.6940  0.4915  0.5649
 1287SOL    HW2 5201   1.554   2.328   2.432  0.6358  0.5518  0.6720
 1287SOL    HW3 5202   1.578   2.234   2.316  0.4096  0.7027  0.5019
 1287SOL    MW4 5203   1.562   2.314   2.347 -0.3729  0.5274  0.5708
 1288SOL     OW 5204   1.363   2.483   2.252  0.5755  0.0157  0.0213
 1288SOL    HW2 5205   1.437   2.424   2.268  0.3334 -0.3047 -0.0390
 1288SOL    HW3 5206   1.352   2.481   2.157  0.5498  0.1361  0.0226
 1288SOL    MW4 5207   1.371   2.475   2.241  0.5403 -0.0110  0.0136
 1289SOL     OW 5208   1.368   2.744   2.371 -0.2386 -0.2468 -0.3612
 1289SOL    HW2 5209   1.446   2.782   2.332 -0.2327 -0.3770 -0.4782
 1289SOL    HW3 5210   1.362   2.656   2.333  0.1054 -0.5993  0.3840
 1289SOL    MW4 5211   1.377   2.737   2.361 -0.1924 -0.3104 -0.2785
 1290SOL     OW 5212   1.587   2.862   2.248  0.1823 -0.3962  0.1847
 1290SOL    HW2 5213   1.580   2.957   2.253  0.8048 -0.3409 -0.0238
 1290SOL    HW3 5214   1.593   2.843   2.154  2.5435 -0.4658  0.3184
 1290SOL    MW4 5215   1.587   2.872   2.236  0.5759 -0.3979  0.1750
 1291SOL     OW 5216   1.557   3.117   2.316  0.0130 -0.1476 -0.0364
 1291SOL    HW2 5217   1.567   3.110   2.410  0.6879  0.8920 -0.0173
 1291SOL    HW3 5218   1.472   3.161   2.304  1.0927  2.0546  0.1773
 1291SOL    MW4 5219   1.547   3.122   2.326  0.2445  0.2799 -0.0055
 1292SOL     OW 5220   1.323   3.277   2.284  0.3144 -0.6628  0.7847
 1292SOL    HW2 5221   1.261   3.214   2.320 -0.0385 -0.8980 -0.2257
 1292SOL    HW3 5222   1.329   3.255   2.191 -1.6001  2.2346 -0.0892
 1292SOL    MW4 5223   1.316   3.266   2.276  0.0153 -0.3114  0.5362
 1293SOL     OW 5224   1.337   3.531   2.378 -0.2679 -0.1689 -0.0148
 1293SOL    HW2 5225   1.333   3.517   2.473 -1.0994  0.0071 -0.0208
 1293SOL    HW3 5226   1.329   3.443   2.341 -1.6211 -0.0671  0.0388
 1293SOL    MW4 5227   1.336   3.517   2.386 -0.5561 -0.1321 -0.0083
 1294SOL     OW 5228   1.564   3.631   2.270  0.7702  0.1775 -0.0472
 1294SOL    HW2 5229   1.561   3.709   2.326  0.5420 -0.0003  0.1896
 1294SOL    HW3 5230   1.492   3.576   2.301  1.2827 -0.3849  0.1619
 1294SOL    MW4 5231   1.554   3.634   2.282  0.8076  0.0801  0.0117
 1295SOL     OW 5232   1.551   3.889   2.371  0.0614  0.2012 -0.4798
 1295SOL    HW2 5233   1.551   3.869   2.464  0.2797 -0.2913 -0.5843
 1295SOL    HW3 5234   1.633   3.935   2.355 -0.7306  1.7763 -0.1176
 1295SOL    MW4 5235   1.562   3.892   2.381 -0.0143  0.3445 -0.4456
 1296SOL     OW 5236   1.297   4.003   2.283 -0.3895  0.1004 -0.5375
 1296SOL    HW2 5237   1.375   3.953   2.305 -1.0519 -0.7524 -0.1149
 1296SOL    HW3 5238   1.298   4.007   2.187 -0.5362 -1.0424 -0.5936
 1296SOL    MW4 5239   1.308   3.997   2.273 -0.4961 -0.1628 -0.4892
 1297SOL     OW 5240   1.339   4.265   2.363 -0.2756  0.1447 -0.4293
 1297SOL    HW2 5241   1.335   4.173   2.336 -0.0583 -0.1670  0.5797
 1297SOL    HW3 5242   1.252   4.299   2.345  0.0545  0.1166 -2.1167
 1297SOL    MW4 5243   1.327   4.257   2.357 -0.2034  0.0997 -0.5188
 1298SOL     OW 5244   1.536   4.443   2.268 -0.2227  0.3191  0.0342
 1298SOL    HW2 5245   1.465   4.392   2.306 -1.0135  0.3576 -1.3510
 1298SOL    HW3 5246   1.522   4.532   2.301 -0.7617  0.3032 -0.1481
 1298SOL    MW4 5247   1.525   4.448   2.277 -0.3982  0.3223 -0.1729
 1299SOL     OW 5248   1.999   0.014   2.381  0.0219  0.0136  0.0212
 1299SOL    HW2 5249   2.076   0.065   2.358 -1.6163  1.6465 -2.0386
 1299SOL    HW3 5250   2.011  -0.070   2.337  1.1605 -0.1515  0.6500
 1299SOL    MW4 5251   2.011   0.010   2.372 -0.0441  0.2072 -0.1676
 1300SOL     OW 5252   1.781   0.131   2.265 -0.2854  0.1361 -0.5471
 1300SOL    HW2 5253   1.788   0.223   2.291 -2.0169  0.3733 -0.8543
 1300SOL    HW3 5254   1.853   0.088   2.310 -0.0479  1.4794  0.3868
 1300SOL    MW4 5255   1.791   0.137   2.275 -0.4826  0.3446 -0.4642
 1301SOL     OW 5256   1.814   0.387   2.383 -0.2804 -0.1348  0.4650
 1301SOL    HW2 5257   1.829   0.387   2.477 -0.3962 -0.0679  0.4846
 1301SOL    HW3 5258   1.888   0.435   2.346 -0.4375  0.1812  0.5587
 1301SOL    MW4 5259   1.825   0.393   2.391 -0.3164 -0.0843  0.4799
 1302SOL     OW 5260   2.034   0.537   2.301 -0.1096  0.3370 -0.3986
 1302SOL    HW2 5261   2.014   0.629   2.320 -0.8487  0.0301  0.3433
 1302SOL    HW3 5262   2.002   0.524   2.212 -1.5146  0.3681  0.0912
 1302SOL    MW4 5263   2.027   0.547   2.292 -0.3924  0.3007 -0.2363
 1303SOL     OW 5264   1.984   0.810   2.396  0.0728 -0.4909 -0.7173
 1303SOL    HW2 5265   2.056   0.857   2.354 -0.1222 -0.8592 -1.4726
 1303SOL    HW3 5266   1.905   0.839   2.350 -0.2269 -0.3604 -0.1328
 1303SOL    MW4 5267   1.983   0.820   2.385  0.0075 -0.5223 -0.7401
 1304SOL     OW 5268   1.797   0.918   2.230 -0.3386 -0.1988  0.4063
 1304SOL    HW2 5269   1.800   1.012   2.247 -1.9382  0.3001 -1.8107
 1304SOL    HW3 5270   1.790   0.911   2.135 -0.1079 -2.5796  0.5314
 1304SOL    MW4 5271   1.797   0.930   2.220 -0.5190 -0.4471  0.1302
 1305SOL     OW 5272   1.798   1.174   2.388  0.3884  0.3270  0.4534
 1305SOL    HW2 5273   1.870   1.217   2.341  0.4531  0.1139  0.3599
 1305SOL    HW3 5274   1.720   1.220   2.358  0.5145  0.7799  0.8040
 1305SOL    MW4 5275   1.797   1.186   2.378  0.4135  0.3586  0.4873
 1306SOL     OW 5276   2.023   1.286   2.282 -0.0072  0.1065 -0.1118
 1306SOL    HW2 5277   2.015   1.380   2.300  0.0703  0.4609 -1.8397
 1306SOL    HW3 5278   2.052   1.282   2.191 -0.3820 -1.6071 -0.1608
 1306SOL    MW4 5279   2.025   1.298   2.272 -0.0463 -0.0728 -0.3462
 1307SOL     OW 5280   2.028   1.541   2.368  0.4491 -0.0079  0.0665
 1307SOL    HW2 5281   2.022   1.531   2.463  1.1768  1.5426  0.3039
 1307SOL    HW3 5282   1.943   1.577   2.342  0.6818  0.7231  0.3050
 1307SOL    MW4 5283   2.016   1.544   2.377  0.5755  0.2930  0.1292
 1308SOL     OW 5284   1.797   1.653   2.300  0.4568 -0.1685  0.1127
 1308SOL    HW2 5285   1.812   1.742   2.330  2.2667 -0.8170  1.2078
 1308SOL    HW3 5286   1.800   1.659   2.204  0.6741  0.9156  0.1868
 1308SOL    MW4 5287   1.799   1.665   2.291  0.7242 -0.1110  0.2668
 1309SOL     OW 5288   1.805   1.927   2.367 -0.1685 -0.1878  0.1384
 1309SOL    HW2 5289   1.782   1.963   2.453 -1.5194  0.0083 -0.2959
 1309SOL    HW3 5290   1.884   1.973   2.342 -1.8122  2.4415 -0.3707
 1309SOL    MW4 5291   1.812   1.938   2.375 -0.5635  0.1851  0.0141
 1310SOL     OW 5292   2.036   2.100   2.292  0.9728  0.3839 -0.2114
 1310SOL    HW2 5293   2.100   2.031   2.308 -0.1521 -0.2060  1.9209
 1310SOL    HW3 5294   2.021   2.097   2.197  1.9416 -1.3822 -0.3268
 1310SOL    MW4 5295   2.042   2.090   2.281  0.9520  0.0732  0.0546
 1311SOL     OW 5296   1.987   2.372   2.361  0.1838  0.2031  0.0518
 1311SOL    HW2 5297   2.066   2.405   2.319 -0.8269  2.3639 -0.2160
 1311SOL    HW3 5298   1.982   2.280   2.334  1.8916  0.3886 -0.9761
 1311SOL    MW4 5299   1.997   2.364   2.352  0.2757  0.5128 -0.1192
 1312SOL     OW 5300   1.767   2.460   2.224  0.3630  0.4015 -0.0339
 1312SOL    HW2 5301   1.843   2.420   2.267  0.3854 -0.9388 -1.2806
 1312SOL    HW3 5302   1.692   2.412   2.259  0.2318  0.5415 -0.1228
 1312SOL    MW4 5303   1.767   2.448   2.235  0.3486  0.2432 -0.2100
 1313SOL     OW 5304   1.801   2.713   2.358 -0.3272  0.4649  0.0395
 1313SOL    HW2 5305   1.797   2.625   2.320 -0.2029  0.2865  0.4361
 1313SOL    HW3 5306   1.718   2.754   2.332  0.3561  0.8230 -1.5776
 1313SOL    MW4 5307   1.789   2.707   2.350 -0.2208  0.4885 -0.1218
 1314SOL     OW 5308   2.020   2.871   2.268  0.0888  0.3332 -0.3007
 1314SOL    HW2 5309   2.087   2.820   2.314  0.0070  0.8399  0.4071
 1314SOL    HW3 5310   1.939   2.824   2.283  0.0630  0.4966  0.0835
 1314SOL    MW4 5311   2.018   2.858   2.276  0.0746  0.4215 -0.1566
 1315SOL     OW 5312   2.045   3.115   2.380  0.4617 -0.2309  0.2854
 1315SOL    HW2 5313   2.110   3.164   2.330  1.2063 -1.2219  0.2856
 1315SOL    HW3 5314   2.044   3.028   2.341 -1.0823 -0.1563  0.0950
 1315SOL    MW4 5315   2.053   3.110   2.368  0.3564 -0.3517  0.2604
 1316SOL     OW 5316   1.806   3.253   2.300 -0.2278  0.3679  0.1271
 1316SOL    HW2 5317   1.889   3.212   2.324  0.3367  0.9072 -0.8292
 1316SOL    HW3 5318   1.741   3.184   2.308  0.4141 -0.2157  0.3283
 1316SOL    MW4 5319   1.809   3.239   2.304 -0.0685  0.3622  0.0277
 1317SOL     OW 5320   1.790   3.512   2.378  0.3621  0.1645  0.2124
 1317SOL    HW2 5321   1.788   3.422   2.348 -0.8568  0.3472 -0.2606
 1317SOL    HW3 5322   1.712   3.552   2.341  1.3523  1.6536 -0.3448
 1317SOL    MW4 5323   1.780   3.506   2.369  0.3319  0.3850  0.0765
 1318SOL     OW 5324   2.025   3.633   2.275  0.7108 -0.1707 -0.4355
 1318SOL    HW2 5325   1.943   3.589   2.298 -0.1506  2.2062  1.2561
 1318SOL    HW3 5326   2.025   3.637   2.180 -0.4990 -1.4002 -0.4966
 1318SOL    MW4 5327   2.014   3.628   2.266  0.4373 -0.0193 -0.2205
 1319SOL     OW 5328   2.011   3.887   2.385  0.1173 -0.3116  0.2666
 1319SOL    HW2 5329   2.019   3.869   2.479  0.0388 -0.8583  0.1669
 1319SOL    HW3 5330   2.022   3.802   2.343 -0.6262 -0.1882 -0.1764
 1319SOL    MW4 5331   2.014   3.874   2.392  0.0091 -0.3674  0.1948
 1320SOL     OW 5332   1.776   4.009   2.292 -0.1324 -0.4305  0.0464
 1320SOL    HW2 5333   1.858   3.967   2.319  0.1153  1.1200  1.7543
 1320SOL    HW3 5334   1.776   4.001   2.196  1.1588 -1.9887  0.1490
 1320SOL    MW4 5335   1.786   4.002   2.283  0.0707 -0.4311  0.2856
 1321SOL     OW 5336   1.790   4.290   2.303 -0.0100  0.6696 -0.2114
 1321SOL    HW2 5337   1.779   4.196   2.316 -0.8867  0.9883  1.4856
 1321SOL    HW3 5338   1.702   4.323   2.285  0.3958  1.0803 -1.5475
 1321SOL    MW4 5339   1.777   4.282   2.302 -0.0722  0.7658 -0.1638
 1322SOL     OW 5340   2.025   4.447   2.240 -0.1937 -0.7336 -0.1612
 1322SOL    HW2 5341   1.956   4.381   2.249 -0.7407 -0.0990  0.3490
 1322SOL    HW3 5342   2.043   4.451   2.146 -0.3856 -1.3749 -0.2247
 1322SOL    MW4 5343   2.019   4.439   2.229 -0.2911 -0.7343 -0.1020
 1323SOL     OW 5344   2.467   0.005   2.369  0.1647 -0.0608  0.1828
 1323SOL    HW2 5345   2.550   0.050   2.348  0.6100 -0.3738  1.2372
 1323SOL    HW3 5346   2.482  -0.086   2.344 -0.7177  0.3187 -1.8946
 1323SOL    MW4 5347   2.480  -0.001   2.363  0.1070 -0.0520  0.0479
 1324SOL     OW 5348   2.233   0.143   2.275 -0.1003  0.0416 -0.0842
 1324SOL    HW2 5349   2.237   0.225   2.324 -1.9651  0.4811 -0.6330
 1324SOL    HW3 5350   2.304   0.090   2.312  0.7918  1.6910  0.6310
 1324SOL    MW4 5351   2.243   0.146   2.286 -0.2286  0.3172 -0.0622
 1325SOL     OW 5352   2.253   0.400   2.385  0.2746  0.0467 -0.5018
 1325SOL    HW2 5353   2.331   0.448   2.355  0.3416  0.4625  0.3182
 1325SOL    HW3 5354   2.179   0.455   2.357  0.3703  0.9794  0.9880
 1325SOL    MW4 5355   2.254   0.414   2.377  0.2961  0.2246 -0.1969
 1326SOL     OW 5356   2.474   0.537   2.286 -0.2154 -0.5273 -0.1923
 1326SOL    HW2 5357   2.544   0.497   2.338  0.0396  0.4983  0.2522
 1326SOL    HW3 5358   2.496   0.513   2.196  0.3408 -0.7840  0.0071
 1326SOL    MW4 5359   2.486   0.528   2.281 -0.1085 -0.4259 -0.1073
 1327SOL     OW 5360   2.448   0.817   2.399 -0.3030  0.4535 -0.2323
 1327SOL    HW2 5361   2.527   0.851   2.358 -0.5135  0.4908 -0.6112
 1327SOL    HW3 5362   2.443   0.726   2.372 -1.4171  0.9552 -1.8085
 1327SOL    MW4 5363   2.458   0.809   2.390 -0.4776  0.5246 -0.4902
 1328SOL     OW 5364   2.225   0.926   2.274 -0.4277  0.6122 -0.0913
 1328SOL    HW2 5365   2.224   1.013   2.315  0.8119  1.0370 -0.9211
 1328SOL    HW3 5366   2.294   0.879   2.319 -1.8817 -0.3581  1.1515
 1328SOL    MW4 5367   2.234   0.931   2.285 -0.4559  0.5402 -0.0367
 1329SOL     OW 5368   2.250   1.177   2.391 -0.2054  0.2938  0.1918
 1329SOL    HW2 5369   2.314   1.203   2.325  1.4306  0.1494  1.6584
 1329SOL    HW3 5370   2.168   1.217   2.363  0.2866 -0.3914 -2.2947
 1329SOL    MW4 5371   2.248   1.186   2.379  0.0751  0.1843  0.0575
 1330SOL     OW 5372   2.468   1.245   2.240  0.2352 -0.1268 -0.3351
 1330SOL    HW2 5373   2.530   1.192   2.290 -1.8811 -1.2623  1.1857
 1330SOL    HW3 5374   2.471   1.331   2.283 -0.1140 -0.5319  0.5228
 1330SOL    MW4 5375   2.477   1.249   2.253 -0.0899 -0.3300 -0.0212
 1331SOL     OW 5376   2.469   1.482   2.374  0.2195 -0.0534  0.8734
 1331SOL    HW2 5377   2.479   1.479   2.469  1.5489  0.6867  0.7644
 1331SOL    HW3 5378   2.544   1.534   2.343  0.3607 -1.1266 -0.6514
 1331SOL    MW4 5379   2.480   1.488   2.383  0.4137 -0.0974  0.6576
 1332SOL     OW 5380   2.277   1.638   2.272 -0.1420  0.0661  0.0064
 1332SOL    HW2 5381   2.335   1.567   2.300 -0.1897 -0.5427 -1.4186
 1332SOL    HW3 5382   2.190   1.610   2.300 -0.3784 -1.1771 -1.9407
 1332SOL    MW4 5383   2.273   1.625   2.280 -0.1795 -0.1783 -0.4385
 1333SOL     OW 5384   2.220   1.910   2.352  0.0673 -0.1543 -0.2769
 1333SOL    HW2 5385   2.289   1.953   2.302 -1.3550  1.6296 -0.7678
 1333SOL    HW3 5386   2.225   1.819   2.326  1.6176  0.1147 -1.0018
 1333SOL    MW4 5387   2.230   1.904   2.342  0.0844  0.1163 -0.4373
 1334SOL     OW 5388   2.466   2.041   2.256  0.4329  0.5666 -0.1761
 1334SOL    HW2 5389   2.545   1.994   2.280  1.3933  1.5087 -1.4173
 1334SOL    HW3 5390   2.461   2.034   2.161 -0.6278  1.0476 -0.1649
 1334SOL    MW4 5391   2.475   2.034   2.247  0.4196  0.7548 -0.3383
 1335SOL     OW 5392   2.466   2.313   2.353 -0.1892  0.2015  0.0559
 1335SOL    HW2 5393   2.548   2.356   2.329  1.0705 -1.1533  1.7705
 1335SOL    HW3 5394   2.476   2.223   2.321 -1.3827  0.2403 -0.4782
 1335SOL    MW4 5395   2.478   2.307   2.345 -0.1802  0.0277  0.2115
 1336SOL     OW 5396   2.218   2.452   2.252  0.3731  0.3172 -0.0336
 1336SOL    HW2 5397   2.230   2.540   2.287  1.5268  0.5401 -0.9580
 1336SOL    HW3 5398   2.288   2.401   2.290  0.0843 -0.0542  0.0024
 1336SOL    MW4 5399   2.229   2.457   2.262  0.4873  0.2978 -0.1507
 1337SOL     OW 5400   2.236   2.707   2.358 -0.1416  0.5733  0.2162
 1337SOL    HW2 5401   2.223   2.717   2.453 -0.1654  0.1928  0.2560
 1337SOL    HW3 5402   2.322   2.746   2.342  0.4124 -0.4545  0.6018
 1337SOL    MW4 5403   2.246   2.714   2.369 -0.0715  0.3877  0.2723
 1338SOL     OW 5404   2.488   2.841   2.338  0.1138 -0.3276  0.3729
 1338SOL    HW2 5405   2.567   2.799   2.372  0.4720  0.8932  1.0558
 1338SOL    HW3 5406   2.507   2.853   2.245  1.8061  2.2801  0.9992
 1338SOL    MW4 5407   2.501   2.837   2.330  0.3841  0.1776  0.5457
 1339SOL     OW 5408   2.424   3.111   2.373 -0.8483  0.1995  0.6578
 1339SOL    HW2 5409   2.500   3.158   2.338 -1.3417  0.6882  0.2314
 1339SOL    HW3 5410   2.443   3.019   2.356 -0.9924  0.4197 -0.7286
 1339SOL    MW4 5411   2.436   3.105   2.366 -0.9322  0.2930  0.4187
 1340SOL     OW 5412   2.231   3.268   2.243  0.0315 -0.3073  0.1937
 1340SOL    HW2 5413   2.228   3.351   2.290  1.4441  0.2478 -0.6752
 1340SOL    HW3 5414   2.297   3.217   2.290  0.9249 -0.0207 -0.7452
 1340SOL    MW4 5415   2.239   3.272   2.256  0.3357 -0.1962 -0.0446
 1341SOL     OW 5416   2.234   3.510   2.398  0.1003  0.2797 -0.1560
 1341SOL    HW2 5417   2.231   3.496   2.493  2.1401  2.8699  0.3373
 1341SOL    HW3 5418   2.148   3.546   2.376  0.1512  1.0785  0.9461
 1341SOL    MW4 5419   2.222   3.513   2.408  0.3762  0.7265  0.0546
 1342SOL     OW 5420   2.480   3.636   2.302 -0.2654 -0.3216  0.0629
 1342SOL    HW2 5421   2.470   3.730   2.318  1.7194  0.1237 -1.1286
 1342SOL    HW3 5422   2.394   3.599   2.323 -1.2997  1.8659 -0.1597
 1342SOL    MW4 5423   2.467   3.644   2.307 -0.1400  0.0260 -0.1235
 1343SOL     OW 5424   2.454   3.890   2.386 -0.6841  0.0106 -0.5004
 1343SOL    HW2 5425   2.443   3.888   2.481 -1.2909 -0.8264 -0.5804
 1343SOL    HW3 5426   2.378   3.939   2.354 -0.6846 -0.0419 -0.5798
 1343SOL    MW4 5427   2.443   3.896   2.395 -0.7641 -0.1066 -0.5214
 1344SOL     OW 5428   2.241   4.011   2.266  0.0964 -0.0734 -0.0533
 1344SOL    HW2 5429   2.217   4.102   2.280 -1.3678 -0.2486 -1.2031
 1344SOL    HW3 5430   2.174   3.961   2.313  0.2525 -0.5522 -0.3315
 1344SOL    MW4 5431   2.229   4.016   2.274 -0.0763 -0.1593 -0.2420
 1345SOL     OW 5432   2.213   4.284   2.353  0.2844  0.0704  0.2658
 1345SOL    HW2 5433   2.217   4.296   2.448  0.0163 -0.5588  0.3611
 1345SOL    HW3 5434   2.143   4.342   2.325 -1.0935 -1.3328  0.7337
 1345SOL    MW4 5435   2.204   4.293   2.362  0.0675 -0.1974  0.3402
 1346SOL     OW 5436   2.471   4.407   2.300  0.1225  0.2199  0.2584
 1346SOL    HW2 5437   2.536   4.342   2.327  1.4557  0.7264 -1.5931
 1346SOL    HW3 5438   2.387   4.366   2.319  0.9563 -1.0222  1.4245
 1346SOL    MW4 5439   2.468   4.393   2.306  0.4084  0.1225  0.1678
 1347SOL     OW 5440   2.897   4.640   2.351  0.0512  0.1009  0.5133
 1347SOL    HW2 5441   2.971   4.666   2.296 -0.2016  0.3981  0.3088
 1347SOL    HW3 5442   2.882   4.548   2.329  0.8974 -0.2057  1.1773
 1347SOL    MW4 5443   2.905   4.631   2.341  0.1295  0.1001  0.5739
 1348SOL     OW 5444   2.695   0.133   2.262 -0.2630 -0.0510 -0.1122
 1348SOL    HW2 5445   2.700   0.215   2.311  0.0833  0.0464 -0.3088
 1348SOL    HW3 5446   2.761   0.076   2.303 -0.8458 -0.4016  0.3431
 1348SOL    MW4 5447   2.705   0.136   2.274 -0.2944 -0.0844 -0.0782
 1349SOL     OW 5448   2.674   0.383   2.391  0.4659  0.0781  0.1082
 1349SOL    HW2 5449   2.691   0.374   2.485 -0.5962  2.0565  0.5325
 1349SOL    HW3 5450   2.758   0.412   2.354  1.0026 -1.1286  0.3752
 1349SOL    MW4 5451   2.688   0.386   2.399  0.3965  0.1799  0.1996
 1350SOL     OW 5452   2.901   0.450   2.268 -0.0247 -0.2317 -0.0666
 1350SOL    HW2 5453   2.922   0.536   2.306 -1.3128 -0.0540  0.2431
 1350SOL    HW3 5454   2.909   0.463   2.174 -0.9707  0.4417 -0.0639
 1350SOL    MW4 5455   2.905   0.463   2.261 -0.3195 -0.1194 -0.0255
 1351SOL     OW 5456   2.918   0.702   2.398 -0.1157  0.4207  0.0723
 1351SOL    HW2 5457   2.898   0.711   2.491 -1.1424  0.6662 -0.1712
 1351SOL    HW3 5458   2.842   0.739   2.353 -1.2649 -2.9245 -0.8942
 1351SOL    MW4 5459   2.905   0.708   2.404 -0.4029  0.0117 -0.0875
 1352SOL     OW 5460   2.715   0.848   2.268 -0.4451  0.2525  0.1494
 1352SOL    HW2 5461   2.726   0.938   2.298 -1.3991  0.3657  0.1711
 1352SOL    HW3 5462   2.694   0.856   2.175  0.6059 -0.0029 -0.1112
 1352SOL    MW4 5463   2.713   0.861   2.260 -0.4323  0.2338  0.1180
 1353SOL     OW 5464   2.681   1.102   2.358 -0.1967  0.2616 -0.0554
 1353SOL    HW2 5465   2.695   1.118   2.451 -0.5460 -0.0676  0.0571
 1353SOL    HW3 5466   2.749   1.153   2.314  0.8961 -0.7381  0.4461
 1353SOL    MW4 5467   2.692   1.111   2.365 -0.0985  0.0863  0.0257
 1354SOL     OW 5468   2.932   1.261   2.280  0.0021 -0.3779  0.0136
 1354SOL    HW2 5469   3.003   1.208   2.316  0.8835  0.3089 -0.6913
 1354SOL    HW3 5470   2.959   1.278   2.189 -1.1891 -0.3333 -0.3445
 1354SOL    MW4 5471   2.945   1.256   2.273 -0.0386 -0.2815 -0.1268
 1355SOL     OW 5472   2.907   1.508   2.375 -0.1386  0.2630 -0.1990
 1355SOL    HW2 5473   2.916   1.502   2.471  1.0295 -0.6229 -0.3512
 1355SOL    HW3 5474   2.914   1.418   2.345 -0.0339  0.5920 -1.1697
 1355SOL    MW4 5475   2.909   1.496   2.384  0.0293  0.1895 -0.3469
 1356SOL     OW 5476   2.678   1.641   2.290 -0.0354 -0.7159  0.3201
 1356SOL    HW2 5477   2.758   1.600   2.322  0.6657  0.5857  0.2294
 1356SOL    HW3 5478   2.695   1.659   2.198 -0.2378  0.0387  0.4263
 1356SOL    MW4 5479   2.691   1.638   2.282  0.0303 -0.4445  0.3221
 1357SOL     OW 5480   2.702   1.898   2.379  0.0382  0.4060  0.1766
 1357SOL    HW2 5481   2.707   1.903   2.475  0.3880  0.5534  0.1538
 1357SOL    HW3 5482   2.699   1.805   2.360  3.2189  0.2397  0.1990
 1357SOL    MW4 5483   2.703   1.887   2.389  0.5038  0.4036  0.1767
 1358SOL     OW 5484   2.931   2.041   2.282 -0.1809 -0.0958  0.1453
 1358SOL    HW2 5485   3.009   1.991   2.307 -0.0348 -0.1968 -0.5084
 1358SOL    HW3 5486   2.858   1.989   2.316  0.0424  0.0949  0.9255
 1358SOL    MW4 5487   2.932   2.027   2.290 -0.1321 -0.0842  0.1619
 1359SOL     OW 5488   2.882   2.295   2.346 -0.0176 -0.3900 -0.4453
 1359SOL    HW2 5489   2.874   2.295   2.441 -0.1303 -1.4848 -0.4397
 1359SOL    HW3 5490   2.897   2.203   2.324  0.6737 -0.0470 -1.4309
 1359SOL    MW4 5491   2.883   2.283   2.356  0.0589 -0.4892 -0.5746
 1360SOL     OW 5492   2.677   2.458   2.254  0.3421 -0.0113  0.3248
 1360SOL    HW2 5493   2.742   2.396   2.287  1.3026  0.3017 -0.9336
 1360SOL    HW3 5494   2.669   2.436   2.161 -1.0381  0.2338  0.3832
 1360SOL    MW4 5495   2.685   2.447   2.246  0.2866  0.0625  0.1664
 1361SOL     OW 5496   2.707   2.703   2.398  0.4269  0.5468  0.1600
 1361SOL    HW2 5497   2.792   2.744   2.384  0.4356  0.2332 -0.6824
 1361SOL    HW3 5498   2.708   2.624   2.345 -0.7354  1.0047 -0.5679
 1361SOL    MW4 5499   2.718   2.698   2.389  0.2747  0.5660 -0.0472
 1362SOL     OW 5500   2.933   2.829   2.281 -0.3671 -0.3745  0.0482
 1362SOL    HW2 5501   2.914   2.914   2.320  0.2717 -0.5317  0.6941
 1362SOL    HW3 5502   2.921   2.844   2.187 -2.4044 -0.1336  0.3164
 1362SOL    MW4 5503   2.929   2.843   2.273 -0.5519 -0.3633  0.1688
 1363SOL     OW 5504   2.890   3.077   2.391  0.1706  0.0734 -0.1201
 1363SOL    HW2 5505   2.960   3.126   2.347 -0.9487  0.4832 -1.4820
 1363SOL    HW3 5506   2.811   3.129   2.374 -0.4817 -0.4398  1.3107
 1363SOL    MW4 5507   2.889   3.091   2.383 -0.0634  0.0596 -0.1109
 1364SOL     OW 5508   2.669   3.219   2.291  0.1028  0.0539  0.1465
 1364SOL    HW2 5509   2.664   3.306   2.331 -0.1062 -0.1957  0.6683
 1364SOL    HW3 5510   2.677   3.236   2.197  0.2964  0.6389  0.2686
 1364SOL    MW4 5511   2.669   3.233   2.284  0.1006  0.0982  0.2315
 1365SOL     OW 5512   2.660   3.462   2.419 -0.0796  0.0782 -0.3910
 1365SOL    HW2 5513   2.743   3.482   2.377  0.3508  1.7570  1.1825
 1365SOL    HW3 5514   2.598   3.527   2.385 -0.1438  0.3704  0.2713
 1365SOL    MW4 5515   2.662   3.473   2.409 -0.0312  0.3383 -0.0958
 1366SOL     OW 5516   2.899   3.526   2.308  0.0304 -1.0450 -0.3149
 1366SOL    HW2 5517   2.978   3.479   2.333  0.4905 -1.4069 -2.3356
 1366SOL    HW3 5518   2.917   3.617   2.332  0.8980 -1.1897 -0.3953
 1366SOL    MW4 5519   2.912   3.532   2.314  0.2053 -1.1120 -0.5925
 1367SOL     OW 5520   2.908   3.790   2.390  0.3348 -0.2918  0.2162
 1367SOL    HW2 5521   2.925   3.812   2.482 -0.2960 -0.5589  0.3995
 1367SOL    HW3 5522   2.829   3.840   2.368 -0.2251 -1.1754  0.1869
 1367SOL    MW4 5523   2.900   3.799   2.399  0.1779 -0.4435  0.2363
 1368SOL     OW 5524   2.694   3.959   2.286  0.0231  0.0278 -0.0193
 1368SOL    HW2 5525   2.604   3.943   2.315 -0.2704  1.7192  0.0947
 1368SOL    HW3 5526   2.689   3.957   2.190 -0.1639  0.2062 -0.0146
 1368SOL    MW4 5527   2.681   3.957   2.277 -0.0401  0.2744 -0.0038
 1369SOL     OW 5528   2.669   4.226   2.388 -0.7725  0.2214 -0.0830
 1369SOL    HW2 5529   2.696   4.241   2.478  1.2912 -0.2042 -0.6133
 1369SOL    HW3 5530   2.670   4.130   2.378  0.0665  0.3122 -0.8746
 1369SOL    MW4 5531   2.673   4.215   2.398 -0.3896  0.1774 -0.2577
 1370SOL     OW 5532   2.868   4.384   2.279 -0.1323  0.5650  0.4481
 1370SOL    HW2 5533   2.947   4.342   2.314 -0.1081  1.3521  1.3594
 1370SOL    HW3 5534   2.797   4.325   2.304 -0.0451  0.8133  1.2733
 1370SOL    MW4 5535   2.869   4.370   2.287 -0.1175  0.7014  0.6771
 1371SOL     OW 5536   3.333   4.639   2.352  0.6013  0.1794  0.1514
 1371SOL    HW2 5537   3.340   4.640   2.448 -0.1376 -1.4083  0.2460
 1371SOL    HW3 5538   3.413   4.681   2.321  1.1711  0.0846  1.4607
 1371SOL    MW4 5539   3.344   4.645   2.361  0.5789 -0.0429  0.3364
 1372SOL     OW 5540   3.112   0.088   2.251 -0.1806  0.2334  0.1420
 1372SOL    HW2 5541   3.111   0.173   2.296 -1.3536  0.3637 -0.1098
 1372SOL    HW3 5542   3.185   0.041   2.291 -0.1514  0.9818  1.0000
 1372SOL    MW4 5543   3.121   0.093   2.262 -0.3316  0.3494  0.2222
 1373SOL     OW 5544   3.131   0.350   2.372 -0.1358 -0.2435 -0.1755
 1373SOL    HW2 5545   3.214   0.388   2.341  0.9353 -1.6263  0.8978
 1373SOL    HW3 5546   3.064   0.390   2.317  1.1675  1.5182 -0.5325
 1373SOL    MW4 5547   3.133   0.360   2.361  0.1776 -0.1935 -0.0808
 1374SOL     OW 5548   3.368   0.443   2.281 -0.8285 -0.6341  0.2674
 1374SOL    HW2 5549   3.436   0.378   2.300  1.0609  1.1633 -0.1546
 1374SOL    HW3 5550   3.380   0.462   2.187 -2.7903 -1.2697 -0.1225
 1374SOL    MW4 5551   3.379   0.437   2.271 -0.8380 -0.4808  0.1602
 1375SOL     OW 5552   3.357   0.716   2.379 -0.4518  0.3092  0.2463
 1375SOL    HW2 5553   3.427   0.771   2.342  0.3979  0.4428  2.0031
 1375SOL    HW3 5554   3.377   0.628   2.349  0.0806  0.4544  0.1729
 1375SOL    MW4 5555   3.369   0.712   2.370 -0.2694  0.3460  0.4683
 1376SOL     OW 5556   3.118   0.839   2.275 -0.2291  0.0028 -0.4064
 1376SOL    HW2 5557   3.190   0.796   2.322 -0.2246 -1.0526 -1.3573
 1376SOL    HW3 5558   3.039   0.807   2.319 -0.1756 -0.0527 -0.3498
 1376SOL    MW4 5559   3.117   0.829   2.287 -0.2213 -0.1438 -0.5240
 1377SOL     OW 5560   3.150   1.117   2.372 -0.3281  0.1764 -0.3075
 1377SOL    HW2 5561   3.217   1.167   2.325 -0.3779 -0.5384 -1.1622
 1377SOL    HW3 5562   3.139   1.037   2.320 -0.6068 -0.4997  0.7726
 1377SOL    MW4 5563   3.157   1.113   2.359 -0.3715 -0.0070 -0.2775
 1378SOL     OW 5564   3.372   1.258   2.242 -0.0998 -0.5272  0.0421
 1378SOL    HW2 5565   3.435   1.212   2.297  0.1569 -0.2899 -0.0543
 1378SOL    HW3 5566   3.357   1.341   2.286  2.0352  0.7517 -1.5309
 1378SOL    MW4 5567   3.379   1.263   2.255  0.2155 -0.3273 -0.1781
 1379SOL     OW 5568   3.351   1.499   2.366 -0.2463 -0.1646  0.1485
 1379SOL    HW2 5569   3.340   1.529   2.456 -1.6096 -3.0357  0.9951
 1379SOL    HW3 5570   3.277   1.538   2.319  0.6289  1.5730  0.1495
 1379SOL    MW4 5571   3.340   1.508   2.371 -0.3111 -0.3141  0.2604
 1380SOL     OW 5572   3.131   1.616   2.250  0.1165  0.1650 -0.3987
 1380SOL    HW2 5573   3.137   1.703   2.291  1.7027 -1.2427  2.5829
 1380SOL    HW3 5574   3.055   1.575   2.292 -0.8520  0.2224 -2.0694
 1380SOL    MW4 5575   3.122   1.622   2.261  0.1981 -0.0131 -0.2258
 1381SOL     OW 5576   3.148   1.882   2.344 -0.5508  0.2786 -0.1075
 1381SOL    HW2 5577   3.130   1.911   2.434  1.9294 -0.7396  0.7324
 1381SOL    HW3 5578   3.230   1.924   2.321 -0.4401 -0.6138 -1.3975
 1381SOL    MW4 5579   3.156   1.892   2.353 -0.2091  0.0265 -0.1669
 1382SOL     OW 5580   3.393   2.046   2.280 -0.0138  0.0300 -0.2394
 1382SOL    HW2 5581   3.462   1.986   2.310 -1.3517 -0.5599  1.7528
 1382SOL    HW3 5582   3.409   2.056   2.186  1.0343 -2.4058 -0.3606
 1382SOL    MW4 5583   3.404   2.039   2.271 -0.0520 -0.3691  0.0074
 1383SOL     OW 5584   3.334   2.319   2.383 -0.3491 -0.0177 -0.0142
 1383SOL    HW2 5585   3.265   2.362   2.333  0.8165  1.3097 -0.5157
 1383SOL    HW3 5586   3.345   2.234   2.341 -1.1500  0.0603 -0.3882
 1383SOL    MW4 5587   3.326   2.314   2.371 -0.3009  0.1676 -0.1297
 1384SOL     OW 5588   3.136   2.406   2.217  0.1040 -0.1691 -0.5133
 1384SOL    HW2 5589   3.139   2.499   2.240  0.4150 -0.0806 -0.9099
 1384SOL    HW3 5590   3.057   2.374   2.261  0.4696  0.0822  0.3414
 1384SOL    MW4 5591   3.126   2.414   2.226  0.1931 -0.1242 -0.4528
 1385SOL     OW 5592   3.152   2.664   2.328 -0.0952 -0.0712 -0.3357
 1385SOL    HW2 5593   3.141   2.673   2.423 -2.4306 -1.1946 -0.4609
 1385SOL    HW3 5594   3.083   2.718   2.291  1.7708  1.5845 -1.4583
 1385SOL    MW4 5595   3.142   2.672   2.336 -0.1569 -0.0010 -0.5004
 1386SOL     OW 5596   3.394   2.819   2.274  0.0314 -0.0104 -0.0603
 1386SOL    HW2 5597   3.389   2.910   2.303 -0.6871  0.2907 -1.0776
 1386SOL    HW3 5598   3.312   2.780   2.303  0.0635 -0.1616 -0.1722
 1386SOL    MW4 5599   3.383   2.826   2.282 -0.0591  0.0093 -0.2091
 1387SOL     OW 5600   3.374   3.076   2.395 -0.2898  0.7803  0.0902
 1387SOL    HW2 5601   3.448   3.127   2.362  0.6013 -0.9964 -0.7080
 1387SOL    HW3 5602   3.299   3.108   2.346  0.1731  1.6666 -0.0409
 1387SOL    MW4 5603   3.374   3.087   2.384 -0.1111  0.6626 -0.0324
 1388SOL     OW 5604   3.138   3.173   2.267 -0.1417  0.1696  0.2400
 1388SOL    HW2 5605   3.150   3.260   2.303  0.9177  0.0411  0.2115
 1388SOL    HW3 5606   3.139   3.186   2.172 -0.6770  0.2209  0.2446
 1388SOL    MW4 5607   3.140   3.186   2.259 -0.0722  0.1595  0.2370
 1389SOL     OW 5608   3.149   3.418   2.369 -0.0190 -0.1520 -0.0092
 1389SOL    HW2 5609   3.133   3.435   2.462  0.3624 -0.4253  0.1096
 1389SOL    HW3 5610   3.211   3.486   2.343  1.3187 -1.1867  0.4061
 1389SOL    MW4 5611   3.155   3.429   2.378  0.2081 -0.3247  0.0615
 1390SOL     OW 5612   3.342   3.595   2.269 -0.5480 -0.1518 -0.1693
 1390SOL    HW2 5613   3.423   3.547   2.285  0.5878  1.6349 -0.3816
 1390SOL    HW3 5614   3.337   3.602   2.174 -0.5015  0.4405 -0.1339
 1390SOL    MW4 5615   3.352   3.590   2.259 -0.3920  0.1616 -0.1924
 1391SOL     OW 5616   3.329   3.850   2.403 -0.1387  0.2754 -0.2408
 1391SOL    HW2 5617   3.400   3.905   2.369  1.9848 -1.0339  1.9412
 1391SOL    HW3 5618   3.337   3.768   2.355  0.0941 -0.0250  0.3081
 1391SOL    MW4 5619   3.339   3.846   2.392  0.1724  0.0632  0.1194
 1392SOL     OW 5620   3.101   3.964   2.283  0.4064  0.6179 -0.2301
 1392SOL    HW2 5621   3.173   3.916   2.324 -0.3296  0.2817  0.6977
 1392SOL    HW3 5622   3.022   3.922   2.318 -0.2421  1.7061 -0.3737
 1392SOL    MW4 5623   3.100   3.952   2.293  0.2239  0.7174 -0.1268
 1393SOL     OW 5624   3.084   4.245   2.375 -0.0955 -0.0202 -0.1571
 1393SOL    HW2 5625   3.162   4.287   2.340 -0.3581  0.7561  0.1708
 1393SOL    HW3 5626   3.088   4.155   2.343  0.2332  0.3774 -1.2726
 1393SOL    MW4 5627   3.095   4.239   2.366 -0.0868  0.1345 -0.2611
 1394SOL     OW 5628   3.328   4.355   2.264 -0.2907  0.3362  0.0494
 1394SOL    HW2 5629   3.310   4.446   2.289 -1.5941  0.4459 -1.1920
 1394SOL    HW3 5630   3.326   4.356   2.168  1.0815 -0.7352  0.0037
 1394SOL    MW4 5631   3.325   4.367   2.255 -0.2816  0.2098 -0.1204
 1395SOL     OW 5632   3.769   4.603   2.384 -0.2193  0.3664  0.1186
 1395SOL    HW2 5633   3.772   4.602   2.480 -0.5732  0.8081  0.1322
 1395SOL    HW3 5634   3.850   4.646   2.358  0.1844 -0.3289  0.2021
 1395SOL    MW4 5635   3.780   4.608   2.393 -0.2127  0.3328  0.1316
 1396SOL     OW 5636   3.571   0.059   2.252  0.2310  0.3305 -0.0102
 1396SOL    HW2 5637   3.573   0.146   2.291 -1.1942  0.4957 -0.2900
 1396SOL    HW3 5638   3.642   0.012   2.295 -0.2646  1.0204  1.6028
 1396SOL    MW4 5639   3.581   0.064   2.263 -0.0226  0.4433  0.1657
 1397SOL     OW 5640   3.592   0.317   2.356  0.3702  0.1132 -0.1714
 1397SOL    HW2 5641   3.588   0.325   2.451 -0.4496 -1.2234 -0.0810
 1397SOL    HW3 5642   3.670   0.368   2.331  2.5294 -2.2295  1.5441
 1397SOL    MW4 5643   3.602   0.325   2.365  0.5469 -0.3723  0.0668
 1398SOL     OW 5644   3.803   0.469   2.248 -0.3318  0.1689  0.2396
 1398SOL    HW2 5645   3.800   0.557   2.284 -0.7859 -0.1699  1.0276
 1398SOL    HW3 5646   3.818   0.482   2.154 -0.6973  1.0881  0.3058
 1398SOL    MW4 5647   3.805   0.482   2.240 -0.4399  0.2455  0.3524
 1399SOL     OW 5648   3.789   0.720   2.353  0.3983  0.6176  0.4041
 1399SOL    HW2 5649   3.782   0.752   2.443 -0.1112  1.2485  0.1368
 1399SOL    HW3 5650   3.854   0.777   2.313 -0.6010  1.3985 -0.1089
 1399SOL    MW4 5651   3.797   0.731   2.360  0.1993  0.8038  0.3014
 1400SOL     OW 5652   3.562   0.860   2.276 -0.6456 -0.0627 -0.3544
 1400SOL    HW2 5653   3.631   0.795   2.281 -0.2118  0.2695 -1.7944
 1400SOL    HW3 5654   3.550   0.875   2.182 -0.9134  1.7406 -0.0420
 1400SOL    MW4 5655   3.569   0.853   2.264 -0.6235  0.2190 -0.5031
 1401SOL     OW 5656   3.568   1.123   2.392 -0.0357 -0.0149  0.1073
 1401SOL    HW2 5657   3.555   1.123   2.487  0.4627 -0.0486  0.1790
 1401SOL    HW3 5658   3.584   1.032   2.370  1.2687  0.1786  0.2002
 1401SOL    MW4 5659   3.568   1.111   2.401  0.2022  0.0062  0.1290
 1402SOL     OW 5660   3.816   1.237   2.270  0.0372 -0.2602  0.2470
 1402SOL    HW2 5661   3.815   1.325   2.307  0.7624 -0.7303  1.3987
 1402SOL    HW3 5662   3.733   1.198   2.297 -0.9344  0.5532 -1.4832
 1402SOL    MW4 5663   3.805   1.244   2.278  0.0045 -0.2149  0.1709
 1403SOL     OW 5664   3.824   1.481   2.356  0.0874 -0.0268 -0.1214
 1403SOL    HW2 5665   3.826   1.496   2.451 -2.3995  0.4771 -0.1128
 1403SOL    HW3 5666   3.744   1.524   2.327 -0.2978 -2.0047 -2.1278
 1403SOL    MW4 5667   3.813   1.488   2.365 -0.2913 -0.2213 -0.3853
 1404SOL     OW 5668   3.572   1.619   2.276  0.5228 -0.6288 -0.3729
 1404SOL    HW2 5669   3.490   1.583   2.311 -0.1460  2.3848  1.3063
 1404SOL    HW3 5670   3.553   1.634   2.183 -0.6004 -0.6501 -0.1589
 1404SOL    MW4 5671   3.559   1.616   2.268  0.2861 -0.2339 -0.1235
 1405SOL     OW 5672   3.596   1.878   2.368  0.1050 -0.2038  0.0699
 1405SOL    HW2 5673   3.670   1.919   2.322  0.5195 -0.3210  0.6217
 1405SOL    HW3 5674   3.601   1.786   2.344 -0.2773 -0.0908 -0.4430
 1405SOL    MW4 5675   3.607   1.872   2.359  0.1092 -0.2043  0.0749
 1406SOL     OW 5676   3.790   2.021   2.246  0.5598  0.1356 -0.4353
 1406SOL    HW2 5677   3.873   1.991   2.283  0.7934 -0.2781 -1.2671
 1406SOL    HW3 5678   3.809   2.032   2.152 -0.1627  0.6199 -0.5278
 1406SOL    MW4 5679   3.804   2.018   2.238  0.4952  0.1447 -0.5572
 1407SOL     OW 5680   3.776   2.268   2.381 -0.1457  0.1932  0.2513
 1407SOL    HW2 5681   3.698   2.312   2.348 -0.7003 -0.0504  1.2063
 1407SOL    HW3 5682   3.774   2.181   2.341  0.1090  0.4967 -0.4137
 1407SOL    MW4 5683   3.766   2.262   2.372 -0.1853  0.2012  0.2894
 1408SOL     OW 5684   3.575   2.412   2.258  0.3270  0.6279 -0.3124
 1408SOL    HW2 5685   3.486   2.396   2.288  0.8835 -0.4449  0.7870
 1408SOL    HW3 5686   3.569   2.409   2.162 -0.9003  1.0489 -0.2470
 1408SOL    MW4 5687   3.563   2.410   2.249  0.2384  0.5419 -0.1588
 1409SOL     OW 5688   3.605   2.672   2.378 -0.0628 -0.2618  0.1113
 1409SOL    HW2 5689   3.600   2.585   2.337  0.8476  1.0012 -2.7442
 1409SOL    HW3 5690   3.529   2.719   2.344  0.4085  0.6393  0.2954
 1409SOL    MW4 5691   3.594   2.666   2.368  0.1197  0.0236 -0.2413
 1410SOL     OW 5692   3.829   2.829   2.307 -0.0443  0.4987  0.0459
 1410SOL    HW2 5693   3.827   2.922   2.330 -0.8316  0.6716 -0.7109
 1410SOL    HW3 5694   3.739   2.799   2.319  0.1904 -0.1529  0.2101
 1410SOL    MW4 5695   3.817   2.837   2.311 -0.1171  0.4358 -0.0319
 1411SOL     OW 5696   3.831   3.097   2.386  0.1069 -0.0278 -0.0566
 1411SOL    HW2 5697   3.842   3.105   2.481  0.6385 -2.1520  0.0928
 1411SOL    HW3 5698   3.902   3.149   2.349 -0.0502  0.7398  0.7019
 1411SOL    MW4 5699   3.842   3.105   2.394  0.1562 -0.2069  0.0632
 1412SOL     OW 5700   3.593   3.179   2.273  0.2365  0.1073 -0.1068
 1412SOL    HW2 5701   3.590   3.275   2.271 -0.9501  0.0672 -0.9568
 1412SOL    HW3 5702   3.674   3.158   2.320  1.7346  1.5055 -1.9964
 1412SOL    MW4 5703   3.603   3.189   2.279  0.2778  0.2866 -0.4685
 1413SOL     OW 5704   3.603   3.442   2.338  0.0510  0.5346 -0.0499
 1413SOL    HW2 5705   3.592   3.437   2.433  1.4204 -1.5320  0.0484
 1413SOL    HW3 5706   3.676   3.503   2.325 -0.8588  1.6605  0.1708
 1413SOL    MW4 5707   3.611   3.449   2.349  0.1118  0.4106 -0.0079
 1414SOL     OW 5708   3.824   3.606   2.284  0.0440 -0.4031  0.0786
 1414SOL    HW2 5709   3.793   3.691   2.316  2.3773  0.9671 -1.2077
 1414SOL    HW3 5710   3.808   3.609   2.190  3.1758 -0.0033 -0.4797
 1414SOL    MW4 5711   3.818   3.618   2.276  0.7648 -0.1693 -0.1647
 1415SOL     OW 5712   3.758   3.865   2.362  0.0396 -0.5224  0.0461
 1415SOL    HW2 5713   3.769   3.877   2.456  1.4241 -1.4731  0.0336
 1415SOL    HW3 5714   3.838   3.901   2.324 -0.6224  0.0797 -0.7864
 1415SOL    MW4 5715   3.770   3.871   2.369  0.1349 -0.5682 -0.0653
 1416SOL     OW 5716   3.539   3.997   2.274 -0.3510 -0.1239  0.1031
 1416SOL    HW2 5717   3.563   4.081   2.314 -0.6269 -0.7161  1.5459
 1416SOL    HW3 5718   3.610   3.938   2.301  0.0426 -0.2658 -1.2309
 1416SOL    MW4 5719   3.552   4.000   2.283 -0.3352 -0.2208  0.1175
 1417SOL     OW 5720   3.561   4.251   2.380  0.2946 -0.5774 -0.1591
 1417SOL    HW2 5721   3.624   4.306   2.334 -1.4654  1.0429 -0.6562
 1417SOL    HW3 5722   3.475   4.282   2.352 -0.7778 -1.8691  1.5306
 1417SOL    MW4 5723   3.558   4.262   2.370 -0.0794 -0.5341 -0.0017
 1418SOL     OW 5724   3.777   4.371   2.243  0.0108 -0.2034  0.3502
 1418SOL    HW2 5725   3.851   4.321   2.277  2.0511  0.9498 -2.2041
 1418SOL    HW3 5726   3.784   4.456   2.286  0.7210  0.2041 -0.5592
 1418SOL    MW4 5727   3.788   4.376   2.253  0.3736  0.0024 -0.1070
 1419SOL     OW 5728   4.216   4.630   2.375 -0.3122  0.5328  0.0768
 1419SOL    HW2 5729   4.219   4.638   2.470  0.4638  0.8871  0.0291
 1419SOL    HW3 5730   4.301   4.664   2.346  0.0292 -0.9002 -0.6341
 1419SOL    MW4 5731   4.228   4.635   2.384 -0.1655  0.3905 -0.0229
 1420SOL     OW 5732   3.984   0.078   2.297  0.0525  0.1354 -0.1118
 1420SOL    HW2 5733   4.000   0.171   2.310  1.2439 -0.0647 -0.1334
 1420SOL    HW3 5734   4.063   0.034   2.329  0.3871 -0.7374 -2.0471
 1420SOL    MW4 5735   3.996   0.084   2.303  0.2537 -0.0062 -0.3703
 1421SOL     OW 5736   4.037   0.341   2.327 -0.1352 -0.1791 -0.4712
 1421SOL    HW2 5737   4.114   0.395   2.307 -0.0548  0.3315  1.1365
 1421SOL    HW3 5738   3.962   0.398   2.309 -0.0408  0.6941  1.7584
 1421SOL    MW4 5739   4.037   0.355   2.322 -0.1121  0.0035  0.0350
 1422SOL     OW 5740   4.241   0.524   2.262 -0.7453  0.1090  0.3877
 1422SOL    HW2 5741   4.250   0.604   2.315 -0.9500 -0.0803  0.7098
 1422SOL    HW3 5742   4.312   0.468   2.291  0.5989  0.9418 -1.2182
 1422SOL    MW4 5743   4.251   0.527   2.273 -0.5951  0.1940  0.2186
 1423SOL     OW 5744   4.230   0.785   2.362  0.1016 -0.5848  0.2071
 1423SOL    HW2 5745   4.146   0.814   2.325 -0.0274  0.3630  1.2062
 1423SOL    HW3 5746   4.296   0.824   2.303 -0.1372 -0.4739  0.0091
 1423SOL    MW4 5747   4.228   0.794   2.349  0.0534 -0.4451  0.3128
 1424SOL     OW 5748   3.996   0.868   2.247  0.2985 -0.4125 -0.3298
 1424SOL    HW2 5749   4.012   0.951   2.292  0.4365 -1.2893  1.2921
 1424SOL    HW3 5750   4.017   0.886   2.155  0.2600  1.3533 -0.0243
 1424SOL    MW4 5751   4.001   0.882   2.241  0.3114 -0.2953 -0.0753
 1425SOL     OW 5752   4.060   1.123   2.373 -0.3692 -0.6103 -0.4673
 1425SOL    HW2 5753   4.052   1.144   2.466 -0.2574 -0.0323 -0.5885
 1425SOL    HW3 5754   3.975   1.148   2.336  0.1428  0.6751 -0.8121
 1425SOL    MW4 5755   4.047   1.129   2.380 -0.2866 -0.3644 -0.5288
 1426SOL     OW 5756   4.261   1.278   2.285  0.4101 -0.3487 -0.6052
 1426SOL    HW2 5757   4.183   1.235   2.320  0.9974 -1.0061 -0.0730
 1426SOL    HW3 5758   4.333   1.238   2.334  0.9198  1.8029  0.4274
 1426SOL    MW4 5759   4.260   1.267   2.296  0.5546 -0.1514 -0.3986
 1427SOL     OW 5760   4.244   1.568   2.360 -0.1889 -0.4101  0.5096
 1427SOL    HW2 5761   4.243   1.478   2.327 -0.2771 -0.3376  0.3131
 1427SOL    HW3 5762   4.330   1.602   2.334 -0.5301 -0.1222 -0.2779
 1427SOL    MW4 5763   4.255   1.561   2.352 -0.2451 -0.3626  0.3796
 1428SOL     OW 5764   4.013   1.663   2.258 -0.4460  0.3005 -0.1903
 1428SOL    HW2 5765   4.096   1.627   2.289  0.0211 -0.2311 -2.0211
 1428SOL    HW3 5766   3.947   1.605   2.296  0.2624 -2.0093 -2.3873
 1428SOL    MW4 5767   4.015   1.651   2.267 -0.2909 -0.0743 -0.7219
 1429SOL     OW 5768   4.029   1.910   2.375 -0.1951 -0.0179  0.1054
 1429SOL    HW2 5769   4.023   1.913   2.470  0.7812  1.2619  0.1402
 1429SOL    HW3 5770   4.015   1.818   2.353 -0.5778 -0.2983  1.4692
 1429SOL    MW4 5771   4.026   1.898   2.385 -0.1168  0.1140  0.2899
 1430SOL     OW 5772   4.245   2.016   2.241 -0.2899 -0.3567  0.6301
 1430SOL    HW2 5773   4.224   2.108   2.260  0.0436 -0.0511 -0.4386
 1430SOL    HW3 5774   4.180   1.966   2.291 -1.2296  0.4919  0.2744
 1430SOL    MW4 5775   4.233   2.022   2.250 -0.3700 -0.2043  0.4423
 1431SOL     OW 5776   4.224   2.277   2.346  0.0906 -0.3158 -0.6045
 1431SOL    HW2 5777   4.144   2.321   2.316 -0.3627 -0.7937 -0.1143
 1431SOL    HW3 5778   4.293   2.341   2.332 -0.7330  1.0493  1.2536
 1431SOL    MW4 5779   4.222   2.292   2.340 -0.0772 -0.1988 -0.2942
 1432SOL     OW 5780   3.980   2.385   2.257  0.4924  0.6210  0.2267
 1432SOL    HW2 5781   3.969   2.479   2.276  2.0331  1.1414 -1.2668
 1432SOL    HW3 5782   3.904   2.343   2.297 -0.5040  2.5864  0.4570
 1432SOL    MW4 5783   3.969   2.392   2.265  0.5641  0.9489  0.0601
 1433SOL     OW 5784   4.027   2.647   2.351  0.2139  0.3286  0.0867
 1433SOL    HW2 5785   4.041   2.661   2.445 -0.5256  0.3005  0.2013
 1433SOL    HW3 5786   3.945   2.692   2.332  0.3659  0.3410 -0.5515
 1433SOL    MW4 5787   4.018   2.655   2.361  0.1364  0.3264  0.0174
 1434SOL     OW 5788   4.247   2.816   2.309 -0.2102  0.1134  0.6881
 1434SOL    HW2 5789   4.173   2.756   2.316 -0.1988 -0.0963 -0.9533
 1434SOL    HW3 5790   4.321   2.766   2.345 -0.4787 -0.3542  0.5946
 1434SOL    MW4 5791   4.247   2.801   2.315 -0.2441  0.0243  0.4594
 1435SOL     OW 5792   4.254   3.096   2.366 -0.2234 -0.0519 -0.1002
 1435SOL    HW2 5793   4.253   3.000   2.356  0.4820 -0.1284  0.5184
 1435SOL    HW3 5794   4.344   3.121   2.344 -0.6061  0.5517 -0.9911
 1435SOL    MW4 5795   4.266   3.086   2.362 -0.1807  0.0176 -0.1359
 1436SOL     OW 5796   4.038   3.249   2.276  0.3234 -0.5842 -0.3736
 1436SOL    HW2 5797   4.034   3.337   2.315  1.7793 -0.9428  0.6298
 1436SOL    HW3 5798   4.104   3.203   2.328  0.7964 -1.7469 -1.9726
 1436SOL    MW4 5799   4.046   3.254   2.288  0.5779 -0.7851 -0.4518
 1437SOL     OW 5800   4.044   3.496   2.426 -0.1297  0.2522 -0.2434
 1437SOL    HW2 5801   4.126   3.511   2.379  0.4501 -0.4470  0.5185
 1437SOL    HW3 5802   3.977   3.533   2.369  0.6745  0.5020 -1.0538
 1437SOL    MW4 5803   4.046   3.503   2.412  0.0529  0.1929 -0.2496
 1438SOL     OW 5804   4.250   3.567   2.273 -0.2207  0.5871 -0.3038
 1438SOL    HW2 5805   4.283   3.654   2.297 -2.7258  1.4703  0.1107
 1438SOL    HW3 5806   4.230   3.573   2.180 -0.6079  0.5299 -0.2250
 1438SOL    MW4 5807   4.252   3.579   2.264 -0.6022  0.6962 -0.2387
 1439SOL     OW 5808   4.276   3.829   2.376 -0.5489 -0.7328  0.4037
 1439SOL    HW2 5809   4.299   3.825   2.469  2.4828 -0.1064 -0.2461
 1439SOL    HW3 5810   4.337   3.893   2.340 -0.3960 -2.3626 -2.3589
 1439SOL    MW4 5811   4.287   3.837   2.384 -0.1283 -0.8652 -0.0465
 1440SOL     OW 5812   4.000   3.963   2.288  0.2641 -0.2780  0.1068
 1440SOL    HW2 5813   4.076   3.910   2.315  0.9776  0.2872 -0.7751
 1440SOL    HW3 5814   4.013   3.977   2.194 -1.4729 -1.0325 -0.2543
 1440SOL    MW4 5815   4.012   3.958   2.279  0.1287 -0.3026 -0.0572
 1441SOL     OW 5816   4.000   4.230   2.376 -0.0910 -0.1423  0.0907
 1441SOL    HW2 5817   4.082   4.276   2.359 -1.3450  1.9946 -0.3546
 1441SOL    HW3 5818   4.018   4.139   2.352  1.1923  0.8975 -3.2020
 1441SOL    MW4 5819   4.013   4.224   2.371 -0.0873  0.2766 -0.4025
 1442SOL     OW 5820   4.232   4.360   2.308 -0.1510  0.6357  0.6563
 1442SOL    HW2 5821   4.240   4.454   2.328  0.0928  0.5716  0.8557
 1442SOL    HW3 5822   4.299   4.318   2.361 -1.3246  0.1785  1.8293
 1442SOL    MW4 5823   4.242   4.367   2.318 -0.2732  0.5670  0.8376
 1443SOL     OW 5824   0.214   4.657   2.655  0.2231 -0.4817  0.6300
 1443SOL    HW2 5825   0.218   4.565   2.681 -0.6371 -0.9129 -0.6883
 1443SOL    HW3 5826   0.123   4.683   2.673  0.1535 -0.2263 -0.0598
 1443SOL    MW4 5827   0.202   4.649   2.661  0.1004 -0.5045  0.3653
 1444SOL     OW 5828   4.457   0.092   2.723  0.2764  0.0065 -0.1629
 1444SOL    HW2 5829   4.466   0.106   2.817 -0.5611 -1.6188  0.1698
 1444SOL    HW3 5830   4.463   0.180   2.685  1.5960  0.5764  1.3156
 1444SOL    MW4 5831   4.459   0.105   2.730  0.3405 -0.1327  0.0761
 1445SOL     OW 5832   4.467   0.357   2.623 -0.0898 -0.5997 -0.1249
 1445SOL    HW2 5833   4.542   0.409   2.651 -0.3800 -0.2004 -0.0932
 1445SOL    HW3 5834   4.465   0.367   2.528  0.3196 -1.1821 -0.2002
 1445SOL    MW4 5835   4.477   0.365   2.614 -0.0739 -0.6238 -0.1309
 1446SOL     OW 5836   0.213   0.464   2.726 -0.3596  0.2684 -0.0883
 1446SOL    HW2 5837   0.221   0.496   2.816  1.6609  1.8599 -0.7942
 1446SOL    HW3 5838   0.294   0.415   2.711 -1.4209 -1.3829 -0.5306
 1446SOL    MW4 5839   0.225   0.462   2.736 -0.2331  0.2605 -0.2396
 1447SOL     OW 5840   0.248   0.746   2.607 -0.0633 -0.0890  0.1015
 1447SOL    HW2 5841   0.331   0.770   2.649 -0.1210 -1.0236  0.7730
 1447SOL    HW3 5842   0.230   0.657   2.638 -0.7470 -0.3251 -0.9275
 1447SOL    MW4 5843   0.257   0.737   2.616 -0.1611 -0.2434  0.0546
 1448SOL     OW 5844   0.038   0.903   2.738 -0.2031 -0.3504 -0.0112
 1448SOL    HW2 5845  -0.040   0.864   2.699 -0.5724  0.0002  0.3646
 1448SOL    HW3 5846   0.111   0.861   2.693 -0.6094 -0.5956 -0.4499
 1448SOL    MW4 5847   0.037   0.892   2.727 -0.3055 -0.3365 -0.0196
 1449SOL     OW 5848   4.465   1.159   2.634 -0.1154 -0.4915  0.0080
 1449SOL    HW2 5849   4.529   1.219   2.672  0.1481 -0.8147  0.0699
 1449SOL    HW3 5850   4.476   1.077   2.683 -0.3675 -0.6408 -0.1829
 1449SOL    MW4 5851   4.475   1.156   2.646 -0.1135 -0.5538 -0.0091
 1450SOL     OW 5852   0.208   1.256   2.756  0.0567  0.1758  0.6141
 1450SOL    HW2 5853   0.272   1.195   2.721  0.4847  0.1829  1.3647
 1450SOL    HW3 5854   0.231   1.341   2.718 -2.9727 -0.7723 -3.6235
 1450SOL    MW4 5855   0.219   1.259   2.747 -0.2865  0.0517  0.1543
 1451SOL     OW 5856   0.224   1.510   2.627  0.6762  0.1152  0.2317
 1451SOL    HW2 5857   0.291   1.556   2.678  0.4185 -0.1288  0.7992
 1451SOL    HW3 5858   0.141   1.549   2.655  0.5013 -0.2900  0.2855
 1451SOL    MW4 5859   0.222   1.521   2.637  0.6191  0.0294  0.3138
 1452SOL     OW 5860   4.488   1.644   2.712 -0.1166 -0.1437 -0.5456
 1452SOL    HW2 5861   4.494   1.653   2.807  2.5739  1.3485 -0.8052
 1452SOL    HW3 5862   4.462   1.731   2.682  0.9442 -0.0711 -1.2795
 1452SOL    MW4 5863   4.486   1.657   2.721  0.3781  0.0626 -0.6769
 1453SOL     OW 5864   4.438   1.890   2.629 -0.2658 -0.2607 -0.2805
 1453SOL    HW2 5865   4.516   1.921   2.673 -1.1906  0.7140  0.6924
 1453SOL    HW3 5866   4.458   1.899   2.536  0.9792 -0.5323 -0.0386
 1453SOL    MW4 5867   4.451   1.895   2.622 -0.2236 -0.1680 -0.1202
 1454SOL     OW 5868   0.179   2.003   2.734  0.5002 -0.4362  0.1149
 1454SOL    HW2 5869   0.264   1.965   2.712  0.6071 -1.1403  1.7077
 1454SOL    HW3 5870   0.185   2.093   2.702  2.5151  0.0672  1.7682
 1454SOL    MW4 5871   0.191   2.010   2.727  0.7801 -0.4628  0.5431
 1455SOL     OW 5872   0.196   2.278   2.628  0.0270  0.6524  0.0216
 1455SOL    HW2 5873   0.273   2.327   2.654 -0.2290  1.3965 -0.6078
 1455SOL    HW3 5874   0.123   2.326   2.667 -0.1775  0.4170 -0.0726
 1455SOL    MW4 5875   0.196   2.291   2.637 -0.0338  0.7195 -0.0739
 1456SOL     OW 5876   4.472   2.413   2.748 -0.1201  0.7372  0.2278
 1456SOL    HW2 5877   4.434   2.430   2.834 -0.1446  1.3020  0.1069
 1456SOL    HW3 5878   4.403   2.367   2.700 -0.4283  1.2196  0.2107
 1456SOL    MW4 5879   4.458   2.409   2.753 -0.1640  0.8755  0.2096
 1457SOL     OW 5880   0.011   2.693   2.694 -0.0872  0.0482  0.2725
 1457SOL    HW2 5881  -0.063   2.746   2.724  0.6446  0.7482  0.8899
 1457SOL    HW3 5882  -0.015   2.603   2.713 -1.3773  0.1760 -0.8607
 1457SOL    MW4 5883  -0.002   2.688   2.701 -0.1609  0.1574  0.2043
 1458SOL     OW 5884   0.252   2.831   2.783 -0.1627  0.1107  0.1094
 1458SOL    HW2 5885   0.245   2.924   2.761 -1.5056  0.0156  0.1137
 1458SOL    HW3 5886   0.168   2.794   2.759  0.6828 -1.3005 -0.7649
 1458SOL    MW4 5887   0.240   2.838   2.777 -0.2284 -0.0880 -0.0055
 1459SOL     OW 5888   0.238   3.083   2.649 -0.1197 -0.3183 -0.2765
 1459SOL    HW2 5889   0.323   3.120   2.674  0.2621 -1.7950  0.6590
 1459SOL    HW3 5890   0.240   3.082   2.553  0.4342  0.7452 -0.2889
 1459SOL    MW4 5891   0.249   3.088   2.640  0.0037 -0.3729 -0.1547
 1460SOL     OW 5892   0.033   3.224   2.776 -0.6199  0.0443 -0.4130
 1460SOL    HW2 5893  -0.043   3.171   2.751 -0.6656  0.6783 -1.6682
 1460SOL    HW3 5894   0.102   3.199   2.714  0.4062 -0.9922  1.1129
 1460SOL    MW4 5895   0.032   3.214   2.765 -0.4906 -0.0088 -0.3772
 1461SOL     OW 5896   4.465   3.473   2.663  0.3187 -0.1096 -0.0643
 1461SOL    HW2 5897   4.545   3.518   2.689 -0.5765  0.3877  1.9106
 1461SOL    HW3 5898   4.469   3.389   2.709 -1.3881  0.8733  1.9648
 1461SOL    MW4 5899   4.476   3.468   2.672 -0.0243  0.0856  0.4642
 1462SOL     OW 5900   0.204   3.610   2.738 -0.1857  0.1219  0.0083
 1462SOL    HW2 5901   0.207   3.629   2.831 -1.5312 -0.9969  0.2922
 1462SOL    HW3 5902   0.291   3.575   2.718  0.3155  0.9515  0.6980
 1462SOL    MW4 5903   0.216   3.608   2.747 -0.2971  0.0839  0.1366
 1463SOL     OW 5904   0.213   3.863   2.665 -0.0411  0.3099 -0.3777
 1463SOL    HW2 5905   0.212   3.768   2.678 -1.5429  0.6229  1.9045
 1463SOL    HW3 5906   0.177   3.875   2.577 -0.3771 -1.1978 -0.4613
 1463SOL    MW4 5907   0.208   3.852   2.655 -0.2836  0.1523 -0.0875
 1464SOL     OW 5908   4.488   3.993   2.778  0.1196  0.3855 -0.3620
 1464SOL    HW2 5909   4.469   4.080   2.741 -0.2675  0.5088  0.1177
 1464SOL    HW3 5910   4.573   3.970   2.742 -0.5588  0.2026 -1.8781
 1464SOL    MW4 5911   4.497   4.002   2.768 -0.0210  0.3777 -0.4985
 1465SOL     OW 5912   4.433   4.249   2.679 -0.6267  0.1537  0.2733
 1465SOL    HW2 5913   4.358   4.304   2.703 -0.6384  0.2690 -0.0218
 1465SOL    HW3 5914   4.510   4.302   2.703 -0.6288 -0.6654  2.1704
 1465SOL    MW4 5915   4.434   4.264   2.685 -0.6285  0.0606  0.4847
 1466SOL     OW 5916   0.205   4.367   2.733  0.2001  0.1497  0.4189
 1466SOL    HW2 5917   0.233   4.383   2.823 -0.2060 -0.0946  0.5852
 1466SOL    HW3 5918   0.282   4.328   2.691  0.7158  1.1545  0.3947
 1466SOL    MW4 5919   0.219   4.364   2.739  0.2146  0.2503  0.4377
 1467SOL     OW 5920   0.690   4.634   2.647 -0.0700  0.0942  0.1632
 1467SOL    HW2 5921   0.766   4.679   2.684  0.2770 -0.8748  0.6402
 1467SOL    HW3 5922   0.615   4.685   2.676  0.2881  0.0856  1.1143
 1467SOL    MW4 5923   0.690   4.647   2.656  0.0230 -0.0343  0.3514
 1468SOL     OW 5924   0.477   0.126   2.722 -0.1475  0.2554 -0.1791
 1468SOL    HW2 5925   0.474   0.129   2.818 -1.3562  0.1193 -0.2050
 1468SOL    HW3 5926   0.399   0.078   2.697  1.1461 -1.3883 -1.1793
 1468SOL    MW4 5927   0.467   0.120   2.731 -0.1363  0.0206 -0.3145
 1469SOL     OW 5928   0.459   0.393   2.659  0.1941 -0.1796  0.2707
 1469SOL    HW2 5929   0.535   0.437   2.698 -0.7919  1.8234 -0.0098
 1469SOL    HW3 5930   0.475   0.300   2.675  1.1749  0.4024  2.9976
 1469SOL    MW4 5931   0.471   0.387   2.667  0.1934  0.1615  0.5937
 1470SOL     OW 5932   0.695   0.504   2.758 -0.2423  0.1409 -0.0514
 1470SOL    HW2 5933   0.698   0.502   2.853 -0.9190 -0.1299 -0.0315
 1470SOL    HW3 5934   0.776   0.461   2.730 -0.1663 -0.0097  0.3993
 1470SOL    MW4 5935   0.706   0.498   2.766 -0.3216  0.0853  0.0107
 1471SOL     OW 5936   0.709   0.744   2.611 -0.6231  0.0479  0.1297
 1471SOL    HW2 5937   0.786   0.786   2.650  0.4164 -0.3886 -1.4134
 1471SOL    HW3 5938   0.704   0.658   2.652  0.1858 -0.2241 -0.3248
 1471SOL    MW4 5939   0.719   0.739   2.622 -0.3792 -0.0456 -0.1340
 1472SOL     OW 5940   0.478   0.853   2.733 -0.1959  0.0724  0.2086
 1472SOL    HW2 5941   0.465   0.944   2.707 -0.0209  0.0159 -0.0730
 1472SOL    HW3 5942   0.557   0.826   2.687  1.1869  0.5360  2.2180
 1472SOL    MW4 5943   0.486   0.862   2.724  0.0097  0.1262  0.4365
 1473SOL     OW 5944   0.423   1.102   2.649 -0.2843 -0.2383  0.5794
 1473SOL    HW2 5945   0.493   1.158   2.682 -0.7001  0.1935  0.7276
 1473SOL    HW3 5946   0.428   1.110   2.554 -0.6174  0.3956  0.6087
 1473SOL    MW4 5947   0.433   1.110   2.641 -0.3831 -0.0978  0.6027
 1474SOL     OW 5948   0.637   1.276   2.705 -0.8002  0.0297  0.7801
 1474SOL    HW2 5949   0.626   1.303   2.796 -0.3511 -0.1149  0.8811
 1474SOL    HW3 5950   0.721   1.230   2.704 -0.3927  0.7758  0.1184
 1474SOL    MW4 5951   0.647   1.273   2.717 -0.6872  0.1091  0.7062
 1475SOL     OW 5952   0.680   1.537   2.652  0.4679 -0.5401  0.3380
 1475SOL    HW2 5953   0.599   1.569   2.693  1.6948 -0.0997  2.5369
 1475SOL    HW3 5954   0.674   1.442   2.656 -0.8098 -0.5435 -1.3234
 1475SOL    MW4 5955   0.669   1.529   2.658  0.4612 -0.4824  0.4091
 1476SOL     OW 5956   0.442   1.650   2.720  0.4401 -0.0851 -0.0694
 1476SOL    HW2 5957   0.433   1.677   2.811 -0.7261 -0.4697 -0.0584
 1476SOL    HW3 5958   0.439   1.731   2.670  0.1844  0.0514  0.1697
 1476SOL    MW4 5959   0.441   1.664   2.725  0.2526 -0.1178 -0.0362
 1477SOL     OW 5960   0.425   1.912   2.647  0.1393 -0.1430  0.0200
 1477SOL    HW2 5961   0.501   1.964   2.671  0.3166 -0.5161  0.2646
 1477SOL    HW3 5962   0.425   1.913   2.551  2.0937 -2.4865 -0.0645
 1477SOL    MW4 5963   0.435   1.919   2.637  0.4206 -0.5015  0.0412
 1478SOL     OW 5964   0.660   2.062   2.721 -0.6741  0.4444  0.2774
 1478SOL    HW2 5965   0.670   2.071   2.815 -0.7965  1.4220  0.2071
 1478SOL    HW3 5966   0.738   2.014   2.692 -0.8363 -0.2064  0.9218
 1478SOL    MW4 5967   0.671   2.057   2.729 -0.7117  0.4873  0.3529
 1479SOL     OW 5968   0.666   2.315   2.613 -0.4852 -0.1748  0.0343
 1479SOL    HW2 5969   0.749   2.354   2.638  0.2677 -0.8848 -1.3106
 1479SOL    HW3 5970   0.667   2.228   2.652 -1.2822  0.3760  1.3175
 1479SOL    MW4 5971   0.677   2.309   2.622 -0.4910 -0.1960  0.0262
 1480SOL     OW 5972   0.416   2.447   2.679  0.3885  0.1263 -0.7184
 1480SOL    HW2 5973   0.435   2.540   2.670 -0.2777  0.1065 -2.3307
 1480SOL    HW3 5974   0.495   2.403   2.646  0.5396  0.1076 -0.3378
 1480SOL    MW4 5975   0.429   2.453   2.674  0.3205  0.1214 -0.8807
 1481SOL     OW 5976   0.471   2.716   2.658 -0.0193 -0.5113 -0.1621
 1481SOL    HW2 5977   0.542   2.759   2.704 -0.1754 -0.9488  0.4845
 1481SOL    HW3 5978   0.391   2.753   2.696 -0.1476  0.9628 -1.8004
 1481SOL    MW4 5979   0.470   2.727   2.669 -0.0568 -0.3746 -0.2928
 1482SOL     OW 5980   0.726   2.772   2.736 -0.0499  0.3059  0.3179
 1482SOL    HW2 5981   0.723   2.788   2.831 -1.0586  0.7717  0.2053
 1482SOL    HW3 5982   0.728   2.859   2.697 -0.3870  0.1162 -0.1200
 1482SOL    MW4 5983   0.726   2.786   2.744 -0.2275  0.3424  0.2449
 1483SOL     OW 5984   0.716   3.048   2.654 -0.2187 -0.3478 -0.1208
 1483SOL    HW2 5985   0.792   3.093   2.692 -0.1123 -0.6908  0.0684
 1483SOL    HW3 5986   0.715   3.077   2.562 -0.4397  0.4239  0.1224
 1483SOL    MW4 5987   0.726   3.058   2.647 -0.2338 -0.2911 -0.0639
 1484SOL     OW 5988   0.471   3.185   2.738  0.1642 -0.3489  0.8303
 1484SOL    HW2 5989   0.463   3.194   2.832 -1.2142 -2.0035  0.9024
 1484SOL    HW3 5990   0.558   3.146   2.725  0.5738  0.3798  1.3657
 1484SOL    MW4 5991   0.482   3.181   2.748  0.0363 -0.4709  0.9100
 1485SOL     OW 5992   0.442   3.455   2.654  0.1382 -0.5597  0.4182
 1485SOL    HW2 5993   0.465   3.365   2.676 -0.0852 -0.9147 -0.7400
 1485SOL    HW3 5994   0.429   3.454   2.559  1.6890  1.0316  0.1546
 1485SOL    MW4 5995   0.443   3.443   2.644  0.3133 -0.3967  0.2306
 1486SOL     OW 5996   0.663   3.588   2.732 -0.0332 -0.8553  0.1836
 1486SOL    HW2 5997   0.665   3.592   2.827 -0.6086 -1.5179  0.2242
 1486SOL    HW3 5998   0.581   3.543   2.711 -2.1164  3.0772 -0.7209
 1486SOL    MW4 5999   0.653   3.583   2.742 -0.3840 -0.4239  0.0696
 1487SOL     OW 6000   0.665   3.868   2.631  0.2869  0.3826 -0.1184
 1487SOL    HW2 6001   0.582   3.890   2.671 -0.1729  1.0054 -1.3877
 1487SOL    HW3 6002   0.681   3.777   2.656 -0.6726  0.3350  0.3045
 1487SOL    MW4 6003   0.656   3.859   2.639  0.0996  0.4587 -0.2298
 1488SOL     OW 6004   0.451   3.976   2.753  0.1014 -0.3648 -0.4141
 1488SOL    HW2 6005   0.473   4.057   2.708  0.5115  0.3545  1.0503
 1488SOL    HW3 6006   0.360   3.958   2.729 -0.2518  0.9702 -0.0872
 1488SOL    MW4 6007   0.442   3.984   2.744  0.1089 -0.0939 -0.1781
 1489SOL     OW 6008   0.447   4.235   2.641 -0.4245  0.7496 -0.1013
 1489SOL    HW2 6009   0.523   4.278   2.680  0.5428 -0.7374 -0.3173
 1489SOL    HW3 6010   0.468   4.229   2.547  0.1850 -1.6337  0.1608
 1489SOL    MW4 6011   0.460   4.240   2.633 -0.2164  0.2394 -0.0949
 1490SOL     OW 6012   0.652   4.370   2.738  0.5208  0.3105 -0.3927
 1490SOL    HW2 6013   0.731   4.337   2.695 -0.8710 -1.1106 -1.9407
 1490SOL    HW3 6014   0.645   4.461   2.708  0.0739 -0.3866 -2.4764
 1490SOL    MW4 6015   0.662   4.378   2.728  0.2782  0.0310 -0.8719
 1491SOL     OW 6016   1.168   4.633   2.665 -0.1423  0.5621 -0.2151
 1491SOL    HW2 6017   1.257   4.659   2.690  0.3170  0.4826 -1.7372
 1491SOL    HW3 6018   1.161   4.542   2.693 -0.3932  1.0882  1.5467
 1491SOL    MW4 6019   1.179   4.625   2.672 -0.1149  0.6213 -0.1836
 1492SOL     OW 6020   0.946   0.105   2.719 -0.3367  0.2450 -0.1726
 1492SOL    HW2 6021   0.937   0.113   2.814 -1.3702  1.2840 -0.3343
 1492SOL    HW3 6022   1.024   0.052   2.706 -0.1847  0.0992  1.2595
 1492SOL    MW4 6023   0.955   0.099   2.730 -0.4531  0.3629 -0.0048
 1493SOL     OW 6024   0.935   0.372   2.637 -0.0095  0.3031 -0.3856
 1493SOL    HW2 6025   0.944   0.278   2.651  2.4808  0.4860 -0.5850
 1493SOL    HW3 6026   0.910   0.380   2.545 -1.1336 -0.1851 -0.1353
 1493SOL    MW4 6027   0.933   0.361   2.627  0.1709  0.2628 -0.3788
 1494SOL     OW 6028   1.165   0.480   2.724 -0.7874 -0.0183  0.5963
 1494SOL    HW2 6029   1.149   0.570   2.694  0.2407 -0.2501 -0.6783
 1494SOL    HW3 6030   1.091   0.430   2.690 -0.4356  0.0150 -0.2250
 1494SOL    MW4 6031   1.153   0.485   2.716 -0.6053 -0.0445  0.3200
 1495SOL     OW 6032   1.147   0.751   2.650  0.0763 -0.4850  0.0673
 1495SOL    HW2 6033   1.225   0.801   2.675  1.0387 -2.2630  0.6960
 1495SOL    HW3 6034   1.147   0.753   2.554 -0.1640  1.1010  0.0891
 1495SOL    MW4 6035   1.157   0.758   2.641  0.1715 -0.5103  0.1533
 1496SOL     OW 6036   0.913   0.905   2.739  0.2286 -0.1486  0.2277
 1496SOL    HW2 6037   0.918   0.901   2.835 -0.2027  0.5390  0.2869
 1496SOL    HW3 6038   0.990   0.858   2.709 -0.1209 -1.1872  0.9035
 1496SOL    MW4 6039   0.924   0.899   2.748  0.1256 -0.1949  0.3247
 1497SOL     OW 6040   0.887   1.169   2.651  0.1675 -0.0040 -0.4266
 1497SOL    HW2 6041   0.890   1.076   2.673 -1.5424 -0.2471 -1.1672
 1497SOL    HW3 6042   0.868   1.171   2.557 -1.4490  1.0897 -0.0929
 1497SOL    MW4 6043   0.885   1.157   2.641 -0.2714  0.1081 -0.4804
 1498SOL     OW 6044   1.107   1.303   2.762 -0.5646  0.2016  0.2088
 1498SOL    HW2 6045   1.099   1.397   2.745  1.2261 -0.0145 -2.0312
 1498SOL    HW3 6046   1.029   1.264   2.723 -0.5166  0.5912 -0.2723
 1498SOL    MW4 6047   1.095   1.310   2.755 -0.3220  0.2244 -0.1502
 1499SOL     OW 6048   1.120   1.582   2.703 -0.4661 -0.4787  0.3390
 1499SOL    HW2 6049   1.043   1.629   2.735 -1.0963 -1.2927  0.0253
 1499SOL    HW3 6050   1.113   1.585   2.608 -0.7446 -1.5950  0.3252
 1499SOL    MW4 6051   1.109   1.589   2.695 -0.5860 -0.7335  0.2956
 1500SOL     OW 6052   0.884   1.696   2.768 -0.0013  0.1848 -0.1761
 1500SOL    HW2 6053   0.881   1.673   2.861 -0.8989 -0.1051 -0.2760
 1500SOL    HW3 6054   0.817   1.641   2.728 -0.3479  1.0881 -0.8337
 1500SOL    MW4 6055   0.875   1.686   2.775 -0.1654  0.2657 -0.2761
 1501SOL     OW 6056   0.909   1.946   2.643 -0.2844 -0.3228  0.2789
 1501SOL    HW2 6057   0.989   1.996   2.663  0.7319 -1.8914  0.1999
 1501SOL    HW3 6058   0.915   1.869   2.699 -2.0350 -0.1779  0.6734
 1501SOL    MW4 6059   0.921   1.943   2.653 -0.3813 -0.5107  0.3207
 1502SOL     OW 6060   1.145   2.089   2.759  0.1913  0.0852  0.0679
 1502SOL    HW2 6061   1.224   2.042   2.733  0.3043 -0.3332  1.1267
 1502SOL    HW3 6062   1.150   2.172   2.711  1.6872  0.4030  0.7107
 1502SOL    MW4 6063   1.156   2.094   2.750  0.4036  0.0720  0.2923
 1503SOL     OW 6064   1.110   2.306   2.597  0.5694 -0.2530 -0.3853
 1503SOL    HW2 6065   1.183   2.358   2.632  1.0790 -0.8998 -0.4778
 1503SOL    HW3 6066   1.127   2.303   2.503  0.7722 -0.9325 -0.3313
 1503SOL    MW4 6067   1.122   2.313   2.589  0.6634 -0.4277 -0.3903
 1504SOL     OW 6068   0.891   2.420   2.738  0.0187 -0.2134 -0.2127
 1504SOL    HW2 6069   0.905   2.510   2.709  0.6505 -0.4121 -0.5531
 1504SOL    HW3 6070   0.957   2.370   2.690  0.5646 -0.6619  0.9933
 1504SOL    MW4 6071   0.902   2.425   2.728  0.1740 -0.2987 -0.0985
 1505SOL     OW 6072   0.947   2.671   2.625 -0.5166 -0.2193  0.3417
 1505SOL    HW2 6073   1.020   2.721   2.662 -1.3325  0.9312  0.3883
 1505SOL    HW3 6074   0.869   2.706   2.668 -1.0419 -2.0077  0.9111
 1505SOL    MW4 6075   0.947   2.682   2.636 -0.6936 -0.3035  0.4227
 1506SOL     OW 6076   1.113   2.829   2.765  0.1675  0.3425  0.1502
 1506SOL    HW2 6077   1.122   2.840   2.860  0.5922  0.2007  0.1261
 1506SOL    HW3 6078   1.191   2.779   2.739  0.6135  1.3438 -0.4399
 1506SOL    MW4 6079   1.125   2.824   2.774  0.2823  0.4559  0.0694
 1507SOL     OW 6080   1.148   3.096   2.671  0.0000  0.0000  0.1341
 1507SOL    HW2 6081   1.122   3.007   2.694  0.0000  0.0000  0.1375
 1507SOL    HW3 6082   1.136   3.101   2.576  0.0000  0.0000  0.1342
 1507SOL    MW4 6083   1.143   3.085   2.662  0.0000  0.0000  0.1347
 1508SOL     OW 6084   0.919   3.208   2.749  0.0000  0.0000 -0.0704
 1508SOL    HW2 6085   0.903   3.287   2.696  0.0000  0.0000 -0.0663
 1508SOL    HW3 6086   1.006   3.179   2.722  0.0000  0.0000 -0.0666
 1508SOL    MW4 6087   0.928   3.215   2.738  0.0000  0.0000 -0.0696
 1509SOL     OW 6088   0.887   3.462   2.636  0.0000  0.0000 -0.3193
 1509SOL    HW2 6089   0.961   3.509   2.676  0.0000  0.0000 -0.3149
 1509SOL    HW3 6090   0.810   3.512   2.664  0.0000  0.0000 -0.3012
 1509SOL    MW4 6091   0.887   3.475   2.645  0.0000  0.0000 -0.3164
 1510SOL     OW 6092   1.102   3.599   2.750  0.0000  0.0000  0.0721
 1510SOL    HW2 6093   1.101   3.626   2.842  0.0000  0.0000  0.0725
 1510SOL    HW3 6094   1.100   3.681   2.702  0.0000  0.0000  0.0730
 1510SOL    MW4 6095   1.102   3.613   2.756  0.0000  0.0000  0.0725
 1511SOL     OW 6096   1.098   3.851   2.628  0.0000  0.0000 -0.2916
 1511SOL    HW2 6097   1.178   3.889   2.666  0.0000  0.0000 -0.2921
 1511SOL    HW3 6098   1.110   3.859   2.534  0.0000  0.0000 -0.2918
 1511SOL    MW4 6099   1.110   3.857   2.621  0.0000  0.0000 -0.2918
 1512SOL     OW 6100   0.893   4.008   2.745  0.0000  0.0000  0.6065
 1512SOL    HW2 6101   0.957   3.963   2.690  0.0000  0.0000  0.6103
 1512SOL    HW3 6102   0.809   3.969   2.719  0.0000  0.0000  0.5970
 1512SOL    MW4 6103   0.890   3.997   2.734  0.0000  0.0000  0.6058
 1513SOL     OW 6104   0.888   4.266   2.639  0.0000  0.0000 -0.2272
 1513SOL    HW2 6105   0.892   4.173   2.664  0.0000  0.0000 -0.2238
 1513SOL    HW3 6106   0.884   4.265   2.544  0.0000  0.0000 -0.2273
 1513SOL    MW4 6107   0.888   4.254   2.630  0.0000  0.0000 -0.2267
 1514SOL     OW 6108   1.144   4.351   2.750  0.0000  0.0000 -0.2878
 1514SOL    HW2 6109   1.137   4.378   2.842  0.0000  0.0000 -0.2900
 1514SOL    HW3 6110   1.055   4.327   2.725  0.0000  0.0000 -0.2941
 1514SOL    MW4 6111   1.131   4.351   2.759  0.0000  0.0000 -0.2892
 1515SOL     OW 6112   1.593   4.643   2.647  0.0000  0.0000  0.0200
 1515SOL    HW2 6113   1.588   4.549   2.663  0.0000  0.0000  0.0265
 1515SOL    HW3 6114   1.581   4.652   2.552  0.0000  0.0000  0.0192
 1515SOL    MW4 6115   1.591   4.632   2.637  0.0000  0.0000  0.0205
 1516SOL     OW 6116   1.392   0.084   2.784 -0.3339 -0.1261 -0.4662
 1516SOL    HW2 6117   1.388   0.174   2.751 -2.3323  0.0879  0.3067
 1516SOL    HW3 6118   1.464   0.045   2.736  0.3818  1.8082 -1.0308
 1516SOL    MW4 6119   1.401   0.091   2.773 -0.5032  0.1574 -0.4387
 1517SOL     OW 6120   1.384   0.326   2.654 -0.0059  0.3386  0.3148
 1517SOL    HW2 6121   1.448   0.393   2.679 -0.2044  0.0175  1.7593
 1517SOL    HW3 6122   1.300   0.363   2.679 -0.1746 -0.1810  0.5201
 1517SOL    MW4 6123   1.382   0.340   2.661 -0.0544  0.2277  0.5324
 1518SOL     OW 6124   1.561   0.511   2.748 -0.2599  0.2532 -0.1332
 1518SOL    HW2 6125   1.645   0.473   2.725  0.1953  0.5448  1.0712
 1518SOL    HW3 6126   1.559   0.595   2.701  0.7534  0.9339  1.0396
 1518SOL    MW4 6127   1.572   0.517   2.738 -0.0662  0.3815  0.1802
 1519SOL     OW 6128   1.541   0.768   2.610  0.2313  0.4658 -0.2939
 1519SOL    HW2 6129   1.460   0.810   2.638  0.4338  0.3262  0.5186
 1519SOL    HW3 6130   1.548   0.790   2.517 -0.8067  0.3544 -0.4085
 1519SOL    MW4 6131   1.531   0.777   2.601  0.1210  0.4327 -0.2017
 1520SOL     OW 6132   1.344   0.918   2.738  0.0893 -0.3991  0.4440
 1520SOL    HW2 6133   1.353   0.909   2.833 -0.4290 -0.5720  0.4795
 1520SOL    HW3 6134   1.324   1.011   2.724  0.5624 -0.2926  0.4712
 1520SOL    MW4 6135   1.342   0.930   2.749  0.0832 -0.4078  0.4523
 1521SOL     OW 6136   1.328   1.179   2.645  0.1072 -0.0547  0.0574
 1521SOL    HW2 6137   1.404   1.219   2.687  0.8994 -1.0348 -0.3993
 1521SOL    HW3 6138   1.253   1.228   2.678  0.8454  0.2026  1.3875
 1521SOL    MW4 6139   1.328   1.191   2.655  0.3091 -0.1501  0.1726
 1522SOL     OW 6140   1.562   1.287   2.770  0.1215 -0.1711  0.3838
 1522SOL    HW2 6141   1.584   1.286   2.863  1.8071  0.4732  0.0198
 1522SOL    HW3 6142   1.635   1.241   2.728  0.1565  0.9037 -0.7542
 1522SOL    MW4 6143   1.575   1.281   2.777  0.3486  0.0557  0.1857
 1523SOL     OW 6144   1.569   1.548   2.682  0.4637 -0.0629 -0.1836
 1523SOL    HW2 6145   1.573   1.457   2.712  1.0370  0.5447  1.6704
 1523SOL    HW3 6146   1.560   1.542   2.587  0.1547 -2.0589 -0.0436
 1523SOL    MW4 6147   1.569   1.535   2.673  0.4987 -0.2462  0.0794
 1524SOL     OW 6148   1.369   1.681   2.786  0.2828  0.0147 -0.3717
 1524SOL    HW2 6149   1.447   1.633   2.761  0.0101 -0.3545 -0.5272
 1524SOL    HW3 6150   1.296   1.629   2.751 -0.0735 -0.1665  0.6317
 1524SOL    MW4 6151   1.369   1.668   2.778  0.1998 -0.0579 -0.2599
 1525SOL     OW 6152   1.379   1.949   2.697 -0.1948 -0.1864  0.4727
 1525SOL    HW2 6153   1.362   1.870   2.748 -1.0662  0.4281  1.1427
 1525SOL    HW3 6154   1.365   1.922   2.606  1.5191 -1.3225  0.5227
 1525SOL    MW4 6155   1.375   1.935   2.691 -0.0837 -0.2553  0.5674
 1526SOL     OW 6156   1.582   2.116   2.774  0.4187 -0.2354 -0.0978
 1526SOL    HW2 6157   1.654   2.068   2.732  0.1576 -0.9595  0.2571
 1526SOL    HW3 6158   1.503   2.069   2.746  0.1642 -0.0405  0.2959
 1526SOL    MW4 6159   1.581   2.103   2.765  0.3507 -0.3052  0.0012
 1527SOL     OW 6160   1.602   2.334   2.615  0.0358 -0.4101  0.4178
 1527SOL    HW2 6161   1.667   2.388   2.661  2.0900 -1.2409 -1.4263
 1527SOL    HW3 6162   1.604   2.250   2.661 -0.0432 -0.2967  0.6285
 1527SOL    MW4 6163   1.611   2.330   2.628  0.2964 -0.5047  0.2024
 1528SOL     OW 6164   1.343   2.415   2.707  0.2100  0.0811  0.0405
 1528SOL    HW2 6165   1.345   2.507   2.681 -0.2823  0.2138  0.4670
 1528SOL    HW3 6166   1.431   2.383   2.687  0.3910  0.6504 -0.0928
 1528SOL    MW4 6167   1.355   2.423   2.701  0.1692  0.1736  0.0794
 1529SOL     OW 6168   1.325   2.679   2.632  0.1095 -0.3513  0.0759
 1529SOL    HW2 6169   1.382   2.752   2.659  0.3878 -0.8819  0.9221
 1529SOL    HW3 6170   1.334   2.677   2.537  1.7914 -0.6295  0.2086
 1529SOL    MW4 6171   1.334   2.689   2.623  0.3680 -0.4580  0.2053
 1530SOL     OW 6172   1.519   2.867   2.715 -0.1180  0.3102  0.3402
 1530SOL    HW2 6173   1.532   2.855   2.809  0.2980 -0.0106  0.2416
 1530SOL    HW3 6174   1.586   2.812   2.674 -0.4674  0.2432 -0.1465
 1530SOL    MW4 6175   1.529   2.858   2.722 -0.1091  0.2589  0.2630
 1531SOL     OW 6176   1.602   3.112   2.590  0.2432  0.4172 -0.0019
 1531SOL    HW2 6177   1.675   3.153   2.635 -0.2092  1.1115  0.1056
 1531SOL    HW3 6178   1.593   3.026   2.632  2.1654 -0.4407 -1.2480
 1531SOL    MW4 6179   1.610   3.106   2.601  0.4369  0.3958 -0.1519
 1532SOL     OW 6180   1.361   3.250   2.723  0.0193 -0.1862  0.2113
 1532SOL    HW2 6181   1.432   3.196   2.690 -0.9902 -0.0269 -2.3483
 1532SOL    HW3 6182   1.282   3.201   2.701 -0.7842  1.0302  0.3536
 1532SOL    MW4 6183   1.360   3.236   2.716 -0.2197 -0.0043 -0.1075
 1533SOL     OW 6184   1.346   3.509   2.661 -0.1782  0.0793  0.1282
 1533SOL    HW2 6185   1.355   3.415   2.681 -0.9644 -0.3919 -1.6454
 1533SOL    HW3 6186   1.264   3.534   2.702  0.1051  0.0425  0.7334
 1533SOL    MW4 6187   1.337   3.500   2.669 -0.2446  0.0119 -0.0260
 1534SOL     OW 6188   1.575   3.615   2.757 -0.1259 -0.1911  0.6440
 1534SOL    HW2 6189   1.649   3.571   2.715  0.0752 -0.8994  1.7411
 1534SOL    HW3 6190   1.498   3.576   2.716  0.0640  2.5543 -2.6030
 1534SOL    MW4 6191   1.574   3.604   2.746 -0.0744  0.0780  0.3607
 1535SOL     OW 6192   1.572   3.865   2.650  0.4265 -0.2462  0.0470
 1535SOL    HW2 6193   1.489   3.895   2.686  0.2612  0.0553 -0.5813
 1535SOL    HW3 6194   1.582   3.775   2.683 -0.5774 -0.5986 -0.6201
 1535SOL    MW4 6195   1.563   3.857   2.659  0.2722 -0.2530 -0.1237
 1536SOL     OW 6196   1.348   3.979   2.738  0.1651  0.1893  0.1944
 1536SOL    HW2 6197   1.359   3.991   2.832  0.1046 -0.5533  0.2994
 1536SOL    HW3 6198   1.371   4.064   2.700 -0.6152  0.7400  0.9373
 1536SOL    MW4 6199   1.352   3.992   2.746  0.0542  0.1638  0.3061
 1537SOL     OW 6200   1.379   4.223   2.627 -0.3222 -0.0544 -0.0780
 1537SOL    HW2 6201   1.300   4.264   2.663 -0.5003  0.8290 -1.4512
 1537SOL    HW3 6202   1.380   4.250   2.535 -0.2167 -2.7769 -0.9168
 1537SOL    MW4 6203   1.368   4.232   2.619 -0.3318 -0.2966 -0.3698
 1538SOL     OW 6204   1.599   4.377   2.729 -0.4570  0.0294  0.0220
 1538SOL    HW2 6205   1.587   4.400   2.821  0.0830  0.3687  0.0091
 1538SOL    HW3 6206   1.527   4.317   2.710 -0.8605  0.3532  0.5288
 1538SOL    MW4 6207   1.588   4.372   2.739 -0.4389  0.1163  0.0873
 1539SOL     OW 6208   2.007   4.666   2.661  0.0988 -0.2570  0.1155
 1539SOL    HW2 6209   2.089   4.708   2.685  0.6378 -1.9367  1.2523
 1539SOL    HW3 6210   2.011   4.658   2.566  1.1977 -0.2221  0.1559
 1539SOL    MW4 6211   2.018   4.670   2.652  0.3147 -0.4740  0.2713
 1540SOL     OW 6212   1.792   0.121   2.765  0.2421 -0.0633 -0.0069
 1540SOL    HW2 6213   1.866   0.083   2.717 -0.0422  0.5145 -0.9068
 1540SOL    HW3 6214   1.716   0.073   2.732 -0.2199  1.8027 -1.7287
 1540SOL    MW4 6215   1.792   0.110   2.754  0.1436  0.2591 -0.3529
 1541SOL     OW 6216   1.804   0.393   2.675  0.3497 -0.2605 -0.1359
 1541SOL    HW2 6217   1.882   0.445   2.694 -0.2824  0.9427 -0.7381
 1541SOL    HW3 6218   1.811   0.316   2.731  0.5786  1.1890  1.8721
 1541SOL    MW4 6219   1.815   0.390   2.685  0.2966  0.0895  0.0494
 1542SOL     OW 6220   2.030   0.518   2.748  0.0032 -0.1302 -0.2416
 1542SOL    HW2 6221   2.113   0.476   2.723 -0.1186 -1.0202  0.7944
 1542SOL    HW3 6222   2.037   0.607   2.713  2.1421  0.3773  1.3529
 1542SOL    MW4 6223   2.042   0.524   2.740  0.2694 -0.1806  0.1054
 1543SOL     OW 6224   2.028   0.764   2.657  0.0554 -0.0940 -0.2671
 1543SOL    HW2 6225   1.957   0.815   2.698  0.3849  0.4787 -0.4114
 1543SOL    HW3 6226   2.005   0.762   2.564 -0.5566 -1.1776 -0.1055
 1543SOL    MW4 6227   2.015   0.770   2.650  0.0181 -0.1613 -0.2649
 1544SOL     OW 6228   1.778   0.879   2.738  0.1518 -0.3950  0.3312
 1544SOL    HW2 6229   1.769   0.968   2.704  0.7619 -0.1354  0.8630
 1544SOL    HW3 6230   1.705   0.831   2.698  0.6384  0.0015 -1.0545
 1544SOL    MW4 6231   1.767   0.884   2.728  0.2965 -0.3084  0.2184
 1545SOL     OW 6232   1.780   1.151   2.657 -0.5754  0.5726 -0.0242
 1545SOL    HW2 6233   1.856   1.185   2.704 -0.1389 -0.5295  0.0816
 1545SOL    HW3 6234   1.805   1.154   2.565  0.7658 -2.4994  0.1656
 1545SOL    MW4 6235   1.793   1.156   2.651 -0.3409  0.0218  0.0148
 1546SOL     OW 6236   1.993   1.284   2.783  0.1945  0.0799  0.0082
 1546SOL    HW2 6237   2.014   1.287   2.876  0.6148  1.1386 -0.1101
 1546SOL    HW3 6238   2.074   1.259   2.740  0.6084  1.8247 -0.2519
 1546SOL    MW4 6239   2.006   1.281   2.790  0.3047  0.4498 -0.0417
 1547SOL     OW 6240   1.964   1.524   2.640 -0.3681 -0.1121  0.3443
 1547SOL    HW2 6241   1.902   1.582   2.684 -1.9622 -1.6259  0.1333
 1547SOL    HW3 6242   1.964   1.444   2.692  0.8970 -0.3690 -0.0463
 1547SOL    MW4 6243   1.956   1.521   2.652 -0.4114 -0.3457  0.2651
 1548SOL     OW 6244   1.794   1.714   2.731 -0.1149  0.5508 -0.2827
 1548SOL    HW2 6245   1.804   1.725   2.825  1.4840 -1.3965 -0.1799
 1548SOL    HW3 6246   1.712   1.666   2.721  0.9282 -1.4143  0.3196
 1548SOL    MW4 6247   1.784   1.709   2.742  0.2338  0.0347 -0.1898
 1549SOL     OW 6248   1.791   1.990   2.651  0.1814 -0.3189 -0.0542
 1549SOL    HW2 6249   1.879   2.025   2.668  0.7854 -0.2495 -3.0834
 1549SOL    HW3 6250   1.800   1.896   2.667  0.9627 -0.3925 -0.8727
 1549SOL    MW4 6251   1.804   1.982   2.656  0.3641 -0.3195 -0.5615
 1550SOL     OW 6252   2.044   2.075   2.704  0.0149  0.6305  0.1092
 1550SOL    HW2 6253   2.035   2.067   2.799  2.0660  1.1178  0.3525
 1550SOL    HW3 6254   2.025   2.167   2.685 -0.2545  0.5655  0.0641
 1550SOL    MW4 6255   2.040   2.086   2.714  0.2501  0.6862  0.1352
 1551SOL     OW 6256   1.992   2.330   2.645  0.0364  0.8466  0.0790
 1551SOL    HW2 6257   2.070   2.367   2.686 -0.5678  1.4497  0.6944
 1551SOL    HW3 6258   1.999   2.355   2.552 -0.3201  2.4497  0.4637
 1551SOL    MW4 6259   2.003   2.338   2.638 -0.0904  1.1377  0.2110
 1552SOL     OW 6260   1.771   2.479   2.767 -0.0796 -0.1465  0.3834
 1552SOL    HW2 6261   1.774   2.496   2.861 -0.9511  1.4818  0.1233
 1552SOL    HW3 6262   1.860   2.451   2.745 -0.5224 -3.1671  2.1447
 1552SOL    MW4 6263   1.783   2.477   2.777 -0.2531 -0.3304  0.5810
 1553SOL     OW 6264   1.749   2.727   2.626 -0.0631  0.0062  0.6006
 1553SOL    HW2 6265   1.761   2.640   2.666 -0.2150  0.4020  1.5271
 1553SOL    HW3 6266   1.770   2.714   2.534 -1.0185 -1.2316  0.5462
 1553SOL    MW4 6267   1.754   2.714   2.619 -0.2090 -0.1049  0.7155
 1554SOL     OW 6268   1.969   2.861   2.749 -0.1514  0.0212  0.0835
 1554SOL    HW2 6269   2.051   2.820   2.720  0.3041  0.7979  0.2296
 1554SOL    HW3 6270   1.900   2.806   2.712  0.4388 -0.5568 -0.1749
 1554SOL    MW4 6271   1.971   2.849   2.740 -0.0135  0.0472  0.0687
 1555SOL     OW 6272   2.027   3.113   2.669  0.2771 -0.1845 -0.3404
 1555SOL    HW2 6273   1.990   3.026   2.688 -0.4824 -0.3021 -2.1710
 1555SOL    HW3 6274   2.051   3.108   2.576 -0.5047  1.8010 -0.6741
 1555SOL    MW4 6275   2.025   3.101   2.659  0.0737  0.0622 -0.6261
 1556SOL     OW 6276   1.793   3.218   2.762 -0.4826  0.1235 -0.1141
 1556SOL    HW2 6277   1.767   3.307   2.737  0.5864  0.3254 -0.5417
 1556SOL    HW3 6278   1.884   3.211   2.733 -0.6111 -1.1637 -0.2155
 1556SOL    MW4 6279   1.802   3.229   2.755 -0.3583 -0.0200 -0.1838
 1557SOL     OW 6280   1.783   3.474   2.648 -0.2978  0.0891 -0.3465
 1557SOL    HW2 6281   1.859   3.519   2.684 -0.3871 -0.0198 -0.0177
 1557SOL    HW3 6282   1.795   3.477   2.553  1.1316 -1.7102 -0.2388
 1557SOL    MW4 6283   1.794   3.480   2.640 -0.1209 -0.1626 -0.2890
 1558SOL     OW 6284   1.984   3.599   2.776  0.0601 -0.0022 -0.4655
 1558SOL    HW2 6285   1.987   3.609   2.871  0.1623  0.5259 -0.5261
 1558SOL    HW3 6286   2.070   3.562   2.753 -0.3393 -1.0986 -0.2409
 1558SOL    MW4 6287   1.996   3.595   2.786  0.0210 -0.0770 -0.4439
 1559SOL     OW 6288   2.020   3.855   2.663  0.0629 -0.1319  0.0236
 1559SOL    HW2 6289   1.940   3.906   2.676 -0.8362 -1.7463  0.9830
 1559SOL    HW3 6290   2.002   3.771   2.705  1.4837 -1.2690 -1.5873
 1559SOL    MW4 6291   2.007   3.851   2.670  0.1318 -0.4947 -0.0622
 1560SOL     OW 6292   1.795   4.006   2.718 -0.1202 -0.0783  0.0804
 1560SOL    HW2 6293   1.796   4.095   2.684  0.2245 -0.4907 -1.0149
 1560SOL    HW3 6294   1.713   3.969   2.686 -1.8103  0.8286  3.1828
 1560SOL    MW4 6295   1.785   4.013   2.709 -0.2979 -0.0134  0.3452
 1561SOL     OW 6296   1.805   4.276   2.571 -0.3057 -0.5598  0.0119
 1561SOL    HW2 6297   1.730   4.321   2.609 -0.1538  1.4839 -1.9823
 1561SOL    HW3 6298   1.802   4.298   2.478  2.6067 -0.6445 -0.1685
 1561SOL    MW4 6299   1.795   4.285   2.564  0.0986 -0.3014 -0.2751
 1562SOL     OW 6300   1.974   4.400   2.735 -0.4929 -0.5985  0.9070
 1562SOL    HW2 6301   1.913   4.351   2.680 -1.5782  0.0164  1.5470
 1562SOL    HW3 6302   1.966   4.491   2.705 -0.8013 -0.3193  1.8152
 1562SOL    MW4 6303   1.965   4.406   2.724 -0.6769 -0.4802  1.1113
 1563SOL     OW 6304   2.440   4.635   2.653  0.0503 -0.2817  0.2141
 1563SOL    HW2 6305   2.514   4.682   2.693 -0.1035  1.0030 -0.9482
 1563SOL    HW3 6306   2.448   4.654   2.559  0.1955 -2.9357 -0.3412
 1563SOL    MW4 6307   2.451   4.644   2.646  0.0491 -0.4625 -0.0129
 1564SOL     OW 6308   2.234   0.128   2.738  0.6351  0.3664  0.2038
 1564SOL    HW2 6309   2.243   0.138   2.833  1.2996 -0.4415  0.2289
 1564SOL    HW3 6310   2.310   0.075   2.712 -0.8302 -1.4435 -0.4609
 1564SOL    MW4 6311   2.245   0.123   2.747  0.5293  0.0210  0.1194
 1565SOL     OW 6312   2.267   0.399   2.669  0.0348 -0.7160 -0.5436
 1565SOL    HW2 6313   2.260   0.305   2.684 -0.3378 -0.8864 -1.7084
 1565SOL    HW3 6314   2.255   0.409   2.574  0.0389  0.5016 -0.4235
 1565SOL    MW4 6315   2.264   0.388   2.658 -0.0138 -0.5778 -0.6816
 1566SOL     OW 6316   2.479   0.507   2.801  0.4101  0.0362  0.5061
 1566SOL    HW2 6317   2.479   0.594   2.761 -1.4322  0.6492  1.7912
 1566SOL    HW3 6318   2.395   0.469   2.776  1.4896 -1.6693 -0.6167
 1566SOL    MW4 6319   2.468   0.513   2.793  0.3095 -0.1079  0.5276
 1567SOL     OW 6320   2.452   0.767   2.684  0.3711  0.2413  0.3374
 1567SOL    HW2 6321   2.375   0.814   2.715 -0.5886 -1.0452 -0.0350
 1567SOL    HW3 6322   2.455   0.786   2.590  0.4301  0.1900  0.3288
 1567SOL    MW4 6323   2.442   0.776   2.675  0.2522  0.0647  0.2868
 1568SOL     OW 6324   2.225   0.919   2.774  0.3111 -0.1363 -0.2576
 1568SOL    HW2 6325   2.230   0.894   2.866 -0.0833  0.4327 -0.0829
 1568SOL    HW3 6326   2.164   0.856   2.735 -0.6955  0.5436  0.1867
 1568SOL    MW4 6327   2.218   0.908   2.781  0.1264  0.0285 -0.1760
 1569SOL     OW 6328   2.224   1.181   2.676  0.1952 -0.2584  0.3520
 1569SOL    HW2 6329   2.220   1.088   2.698  0.2650 -0.3797 -0.1391
 1569SOL    HW3 6330   2.227   1.183   2.581  2.2161  0.1678  0.4047
 1569SOL    MW4 6331   2.224   1.169   2.667  0.4709 -0.2182  0.2942
 1570SOL     OW 6332   2.468   1.273   2.756  0.0485  0.1431 -0.0671
 1570SOL    HW2 6333   2.537   1.232   2.703 -0.1553  0.3567 -0.5034
 1570SOL    HW3 6334   2.387   1.239   2.719 -0.0897  0.1014  0.2723
 1570SOL    MW4 6335   2.466   1.263   2.744  0.0036  0.1658 -0.0801
 1571SOL     OW 6336   2.461   1.521   2.661  0.3532  0.2789 -0.0445
 1571SOL    HW2 6337   2.373   1.557   2.667  0.0216 -0.2455 -1.4972
 1571SOL    HW3 6338   2.460   1.444   2.719 -0.2418  0.0990 -0.2896
 1571SOL    MW4 6339   2.449   1.515   2.669  0.2308  0.1861 -0.2685
 1572SOL     OW 6340   2.208   1.625   2.761  0.4229  0.0268  0.0588
 1572SOL    HW2 6341   2.218   1.712   2.722  0.4909  0.5867  1.2971
 1572SOL    HW3 6342   2.124   1.594   2.727  0.5489  0.4357 -0.6504
 1572SOL    MW4 6343   2.198   1.632   2.751  0.4485  0.1547  0.1283
 1573SOL     OW 6344   2.256   1.877   2.619 -0.3441  0.3104  0.0801
 1573SOL    HW2 6345   2.183   1.932   2.649 -0.8969  0.3117 -1.2487
 1573SOL    HW3 6346   2.250   1.879   2.524 -1.4045 -3.4356 -0.0178
 1573SOL    MW4 6347   2.245   1.885   2.611 -0.5569 -0.1836 -0.1082
 1574SOL     OW 6348   2.467   2.020   2.747 -0.1589  0.2226 -0.1087
 1574SOL    HW2 6349   2.472   2.107   2.707 -0.9651 -0.3880 -1.5846
 1574SOL    HW3 6350   2.403   1.973   2.694  1.2115 -1.6925 -0.0947
 1574SOL    MW4 6351   2.459   2.025   2.735 -0.0842 -0.1106 -0.3018
 1575SOL     OW 6352   2.447   2.274   2.629 -0.5621  0.1508 -0.5462
 1575SOL    HW2 6353   2.513   2.335   2.663  0.8785 -2.0878  0.8260
 1575SOL    HW3 6354   2.461   2.274   2.534  0.6562  0.5739 -0.3784
 1575SOL    MW4 6355   2.458   2.282   2.621 -0.2110 -0.0887 -0.3428
 1576SOL     OW 6356   2.233   2.434   2.719 -0.4721 -0.1493 -0.3761
 1576SOL    HW2 6357   2.240   2.428   2.814 -1.2090 -0.0449 -0.3165
 1576SOL    HW3 6358   2.303   2.377   2.687 -1.0395 -1.2040  0.2279
 1576SOL    MW4 6359   2.243   2.426   2.727 -0.6442 -0.2749 -0.2885
 1577SOL     OW 6360   2.203   2.707   2.637 -0.3576 -0.0801 -0.3995
 1577SOL    HW2 6361   2.288   2.741   2.667 -0.5682 -0.2001  0.3499
 1577SOL    HW3 6362   2.209   2.612   2.652 -1.2881  0.1221  1.3556
 1577SOL    MW4 6363   2.215   2.699   2.643 -0.5081 -0.0694 -0.0691
 1578SOL     OW 6364   2.447   2.813   2.726 -0.1157 -0.3463  0.1897
 1578SOL    HW2 6365   2.529   2.766   2.715 -0.0267  0.0352 -0.7989
 1578SOL    HW3 6366   2.468   2.904   2.703 -1.1063 -0.4766 -1.2607
 1578SOL    MW4 6367   2.460   2.819   2.722 -0.2348 -0.3130 -0.1321
 1579SOL     OW 6368   2.493   3.079   2.654  0.6701  0.1961 -0.2201
 1579SOL    HW2 6369   2.431   3.136   2.700  0.7787  0.7718 -0.7841
 1579SOL    HW3 6370   2.476   3.095   2.561  0.9050 -0.4723 -0.3792
 1579SOL    MW4 6371   2.482   3.088   2.648  0.7155  0.1836 -0.3157
 1580SOL     OW 6372   2.294   3.229   2.773  0.3978  0.1806  0.7228
 1580SOL    HW2 6373   2.279   3.250   2.865 -1.7944 -0.1396  0.4627
 1580SOL    HW3 6374   2.219   3.175   2.748  0.7510  0.6189 -1.3765
 1580SOL    MW4 6375   2.282   3.224   2.782  0.1554  0.1957  0.4115
 1581SOL     OW 6376   2.209   3.464   2.671  0.6254  0.0978 -0.3938
 1581SOL    HW2 6377   2.277   3.511   2.720 -1.8763  0.9491  2.4440
 1581SOL    HW3 6378   2.227   3.372   2.687 -0.3464  0.3656  2.5240
 1581SOL    MW4 6379   2.221   3.458   2.680  0.1669  0.2456  0.3655
 1582SOL     OW 6380   2.435   3.621   2.767  0.4891  0.1882 -0.1087
 1582SOL    HW2 6381   2.427   3.633   2.862  0.0746  1.5538 -0.2986
 1582SOL    HW3 6382   2.421   3.709   2.731 -2.0328 -0.7568 -1.5912
 1582SOL    MW4 6383   2.432   3.634   2.775  0.1016  0.2437 -0.3295
 1583SOL     OW 6384   2.443   3.901   2.670 -0.6018 -0.1398  0.2368
 1583SOL    HW2 6385   2.523   3.941   2.705 -0.5327  0.2736 -0.3936
 1583SOL    HW3 6386   2.372   3.953   2.709 -0.5218  0.3837 -0.3158
 1583SOL    MW4 6387   2.444   3.913   2.680 -0.5820 -0.0160  0.0808
 1584SOL     OW 6388   2.210   4.053   2.753 -0.3437  0.0755 -0.2828
 1584SOL    HW2 6389   2.219   4.068   2.848  1.2854 -2.8059  0.0494
 1584SOL    HW3 6390   2.130   4.001   2.745 -0.5377  0.4065 -0.5124
 1584SOL    MW4 6391   2.200   4.048   2.765 -0.1543 -0.2608 -0.2694
 1585SOL     OW 6392   2.229   4.294   2.627 -0.4556 -0.7056  0.3500
 1585SOL    HW2 6393   2.238   4.201   2.647 -1.2309 -0.6604  0.9019
 1585SOL    HW3 6394   2.153   4.323   2.677  0.9203  0.6623  1.7016
 1585SOL    MW4 6395   2.221   4.285   2.636 -0.3765 -0.5193  0.6013
 1586SOL     OW 6396   2.480   4.376   2.725  0.3392 -0.1524 -0.1813
 1586SOL    HW2 6397   2.392   4.341   2.706  0.3163  0.3637 -1.0365
 1586SOL    HW3 6398   2.475   4.468   2.701  0.9426  0.0157  0.3410
 1586SOL    MW4 6399   2.467   4.383   2.719  0.4158 -0.0615 -0.2255
 1587SOL     OW 6400   2.915   4.608   2.639 -0.4153  0.0552  0.0529
 1587SOL    HW2 6401   2.985   4.665   2.669  1.5324 -1.9309 -0.5667
 1587SOL    HW3 6402   2.907   4.628   2.546  1.4799 -1.8069 -0.5706
 1587SOL    MW4 6403   2.923   4.618   2.631  0.0918 -0.4520 -0.1111
 1588SOL     OW 6404   2.695   0.082   2.760  0.3878  0.6136  0.5480
 1588SOL    HW2 6405   2.705   0.089   2.855  0.3890  1.5843  0.4802
 1588SOL    HW3 6406   2.767   0.025   2.732  0.5470  0.5497  1.0911
 1588SOL    MW4 6407   2.705   0.075   2.769  0.4091  0.7333  0.6111
 1589SOL     OW 6408   2.693   0.359   2.680  0.3074 -0.5409  0.0825
 1589SOL    HW2 6409   2.688   0.267   2.706 -0.3193 -0.4327  0.3303
 1589SOL    HW3 6410   2.617   0.400   2.720  0.4806  0.0498 -0.1905
 1589SOL    MW4 6411   2.683   0.352   2.688  0.2475 -0.4487  0.0789
 1590SOL     OW 6412   2.944   0.485   2.773  0.1275 -0.1669  0.0045
 1590SOL    HW2 6413   2.924   0.572   2.740 -0.6761  0.3420  1.7684
 1590SOL    HW3 6414   2.874   0.429   2.738 -0.7591  0.3802  0.8772
 1590SOL    MW4 6415   2.932   0.489   2.764 -0.0951 -0.0276  0.3526
 1591SOL     OW 6416   2.871   0.714   2.671  0.1892 -0.2593  0.7207
 1591SOL    HW2 6417   2.952   0.760   2.691 -0.7354  1.5480  0.4719
 1591SOL    HW3 6418   2.802   0.773   2.703 -1.0300 -1.4317  0.2954
 1591SOL    MW4 6419   2.872   0.728   2.678 -0.0935 -0.1755  0.6320
 1592SOL     OW 6420   2.679   0.890   2.752  0.2981 -0.1271  0.1521
 1592SOL    HW2 6421   2.688   0.911   2.845  2.4843  0.1142 -0.0764
 1592SOL    HW3 6422   2.595   0.846   2.745 -0.6367  1.2844  1.9902
 1592SOL    MW4 6423   2.669   0.887   2.763  0.4635  0.0910  0.3648
 1593SOL     OW 6424   2.676   1.140   2.633 -0.0645 -0.8107 -0.0882
 1593SOL    HW2 6425   2.740   1.170   2.699  0.5834 -1.8047 -0.2379
 1593SOL    HW3 6426   2.652   1.052   2.663 -1.6214 -0.3240  0.1338
 1593SOL    MW4 6427   2.682   1.132   2.646 -0.1843 -0.8776 -0.0787
 1594SOL     OW 6428   2.901   1.240   2.768  0.2964  0.3877  0.1297
 1594SOL    HW2 6429   2.909   1.253   2.863  0.0356  0.9898  0.0653
 1594SOL    HW3 6430   2.982   1.195   2.744  0.6399  0.7877  0.5360
 1594SOL    MW4 6431   2.913   1.236   2.777  0.3076  0.5199  0.1748
 1595SOL     OW 6432   2.914   1.492   2.650 -0.7333  0.0855 -0.5392
 1595SOL    HW2 6433   2.837   1.546   2.667 -0.7903  0.1629 -1.0221
 1595SOL    HW3 6434   2.895   1.409   2.694 -0.3525  0.6822  0.7798
 1595SOL    MW4 6435   2.901   1.489   2.658 -0.6909  0.1744 -0.4289
 1596SOL     OW 6436   2.704   1.643   2.722 -0.2733  0.1843  0.3320
 1596SOL    HW2 6437   2.715   1.650   2.817 -0.3798  0.3262  0.3339
 1596SOL    HW3 6438   2.622   1.595   2.711 -0.7022  0.9144  0.3088
 1596SOL    MW4 6439   2.695   1.638   2.733 -0.3438  0.2993  0.3290
 1597SOL     OW 6440   2.702   1.915   2.651 -0.2456  0.1906 -0.3846
 1597SOL    HW2 6441   2.688   1.822   2.667  0.3826  0.3037  0.9037
 1597SOL    HW3 6442   2.632   1.958   2.701 -0.8466  0.4061 -1.3852
 1597SOL    MW4 6443   2.691   1.909   2.660 -0.2422  0.2339 -0.3467
 1598SOL     OW 6444   2.905   2.037   2.761  0.7336 -0.4585 -0.1662
 1598SOL    HW2 6445   2.892   2.122   2.718  0.4982 -0.1674  0.4718
 1598SOL    HW3 6446   2.844   1.978   2.716  0.4379 -0.1385 -0.1931
 1598SOL    MW4 6447   2.895   2.041   2.750  0.6635 -0.3781 -0.0854
 1599SOL     OW 6448   2.896   2.297   2.650  0.5051 -0.6329  0.0707
 1599SOL    HW2 6449   2.968   2.357   2.666  0.6602 -0.6189 -0.6576
 1599SOL    HW3 6450   2.825   2.329   2.705  0.3467  0.6508 -0.8518
 1599SOL    MW4 6451   2.896   2.309   2.659  0.5045 -0.4618 -0.1471
 1600SOL     OW 6452   2.668   2.438   2.761  0.0827 -0.1831 -0.2632
 1600SOL    HW2 6453   2.648   2.467   2.850  0.5533  1.8929 -0.7998
 1600SOL    HW3 6454   2.667   2.519   2.709  0.2345 -1.3099 -2.0668
 1600SOL    MW4 6455   2.665   2.453   2.766  0.1647 -0.0577 -0.5720
 1601SOL     OW 6456   2.686   2.699   2.669  0.2315  0.3906  0.2643
 1601SOL    HW2 6457   2.776   2.713   2.696  0.6121 -1.0623 -0.1911
 1601SOL    HW3 6458   2.689   2.706   2.573 -0.0190 -0.2323  0.2071
 1601SOL    MW4 6459   2.698   2.702   2.660  0.2484  0.1166  0.1967
 1602SOL     OW 6460   2.947   2.836   2.722 -0.0902  0.3305 -0.2226
 1602SOL    HW2 6461   2.943   2.838   2.818 -1.7937  0.1552 -0.2723
 1602SOL    HW3 6462   2.928   2.926   2.696 -0.0154  0.2912 -0.4120
 1602SOL    MW4 6463   2.944   2.848   2.731 -0.3052  0.3021 -0.2542
 1603SOL     OW 6464   2.899   3.105   2.657  0.5403  0.2781  0.1316
 1603SOL    HW2 6465   2.813   3.138   2.685  1.3128  1.1174  1.5702
 1603SOL    HW3 6466   2.890   3.093   2.562 -1.6951 -1.2855  0.5055
 1603SOL    MW4 6467   2.886   3.108   2.648  0.3471  0.1826  0.3707
 1604SOL     OW 6468   2.668   3.238   2.783 -0.4585 -0.0461  0.2025
 1604SOL    HW2 6469   2.657   3.322   2.739  1.7889 -0.1271 -0.5783
 1604SOL    HW3 6470   2.600   3.182   2.746 -1.0355  1.0033 -0.3450
 1604SOL    MW4 6471   2.657   3.242   2.773 -0.2379  0.0818  0.0272
 1605SOL     OW 6472   2.660   3.512   2.694 -0.0353  0.3040  0.4534
 1605SOL    HW2 6473   2.575   3.545   2.723 -0.1291 -0.5287  1.1714
 1605SOL    HW3 6474   2.662   3.529   2.600 -1.5620 -0.8444  0.1870
 1605SOL    MW4 6475   2.649   3.518   2.686 -0.2491  0.0427  0.5131
 1606SOL     OW 6476   2.900   3.604   2.756 -0.1670 -0.4009 -0.5684
 1606SOL    HW2 6477   2.907   3.590   2.850 -1.0815  2.0421 -0.1080
 1606SOL    HW3 6478   2.811   3.578   2.734 -0.7449  1.3755 -0.3247
 1606SOL    MW4 6479   2.889   3.598   2.765 -0.3638  0.1559 -0.4756
 1607SOL     OW 6480   2.925   3.852   2.651 -0.2040 -0.0773 -0.3362
 1607SOL    HW2 6481   2.996   3.903   2.691  0.9643 -1.0151 -1.1782
 1607SOL    HW3 6482   2.922   3.771   2.701 -0.0705 -0.4143 -0.8627
 1607SOL    MW4 6483   2.934   3.848   2.662 -0.0322 -0.2453 -0.5167
 1608SOL     OW 6484   2.705   3.990   2.785 -0.4743  0.3647  0.1698
 1608SOL    HW2 6485   2.699   4.078   2.749  1.7625  0.3082 -0.4141
 1608SOL    HW3 6486   2.758   3.941   2.722  0.6417 -0.6405  1.8188
 1608SOL    MW4 6487   2.712   3.995   2.772 -0.0319  0.2251  0.3104
 1609SOL     OW 6488   2.715   4.235   2.671  0.2084  0.1578 -0.2067
 1609SOL    HW2 6489   2.775   4.285   2.725  0.6887  0.1688 -0.7406
 1609SOL    HW3 6490   2.631   4.279   2.681  0.3209  0.2337  0.4209
 1609SOL    MW4 6491   2.712   4.248   2.679  0.2868  0.1693 -0.1943
 1610SOL     OW 6492   2.930   4.360   2.792  0.1766 -0.1467 -0.0432
 1610SOL    HW2 6493   2.942   4.389   2.883 -1.3053 -0.8869  0.4107
 1610SOL    HW3 6494   2.919   4.441   2.742 -1.0295  0.2047  0.7638
 1610SOL    MW4 6495   2.930   4.375   2.797 -0.1783 -0.1979  0.1230
 1611SOL     OW 6496   3.326   4.656   2.611  0.2033 -0.1625  0.1619
 1611SOL    HW2 6497   3.328   4.576   2.663  0.2797 -0.1913  0.1155
 1611SOL    HW3 6498   3.242   4.696   2.632 -0.3736 -0.8674 -0.7293
 1611SOL    MW4 6499   3.315   4.650   2.620  0.1373 -0.2589  0.0381
 1612SOL     OW 6500   3.099   0.113   2.751 -0.4178  0.0661 -0.5177
 1612SOL    HW2 6501   3.105   0.118   2.847  3.3074 -1.3371 -0.6015
 1612SOL    HW3 6502   3.104   0.203   2.722 -0.4754  0.4319  0.5710
 1612SOL    MW4 6503   3.101   0.125   2.760  0.0660 -0.0708 -0.3850
 1613SOL     OW 6504   3.149   0.358   2.657  0.2870  0.2444  0.5703
 1613SOL    HW2 6505   3.084   0.421   2.688 -0.2455  0.2107 -0.4431
 1613SOL    HW3 6506   3.142   0.362   2.561 -0.3477 -1.9585  0.4845
 1613SOL    MW4 6507   3.140   0.367   2.648  0.1330 -0.0507  0.4253
 1614SOL     OW 6508   3.364   0.476   2.779 -0.0130 -0.5467 -0.4391
 1614SOL    HW2 6509   3.344   0.562   2.742 -0.4385 -0.6766 -0.5099
 1614SOL    HW3 6510   3.290   0.421   2.753 -0.2107 -0.6951  0.4171
 1614SOL    MW4 6511   3.352   0.480   2.770 -0.0954 -0.5835 -0.3355
 1615SOL     OW 6512   3.334   0.723   2.653 -0.0998  0.0305 -0.1427
 1615SOL    HW2 6513   3.413   0.776   2.664 -0.0789  0.0454 -0.3742
 1615SOL    HW3 6514   3.316   0.726   2.560 -0.3063 -0.0731 -0.1055
 1615SOL    MW4 6515   3.342   0.731   2.642 -0.1245  0.0188 -0.1683
 1616SOL     OW 6516   3.109   0.842   2.741  0.1940  0.2661 -0.2057
 1616SOL    HW2 6517   3.120   0.854   2.836  0.6880  1.3971 -0.3912
 1616SOL    HW3 6518   3.190   0.801   2.712  0.1878  0.2401 -0.1853
 1616SOL    MW4 6519   3.121   0.838   2.750  0.2580  0.4119 -0.2275
 1617SOL     OW 6520   3.100   1.101   2.653 -0.8139 -0.2974  0.3477
 1617SOL    HW2 6521   3.100   1.007   2.673 -0.8684 -0.7011 -1.4181
 1617SOL    HW3 6522   3.086   1.105   2.558 -0.7397  1.4990  0.3934
 1617SOL    MW4 6523   3.098   1.089   2.643 -0.8113 -0.1136  0.1206
 1618SOL     OW 6524   3.315   1.259   2.744 -0.1093  0.0709  0.2295
 1618SOL    HW2 6525   3.330   1.226   2.833 -1.9198 -0.2157  0.4525
 1618SOL    HW3 6526   3.250   1.198   2.708  0.0217  0.6692 -1.0036
 1618SOL    MW4 6527   3.308   1.246   2.751 -0.3309  0.1121  0.0963
 1619SOL     OW 6528   3.346   1.533   2.666  0.0497 -0.2333 -0.5662
 1619SOL    HW2 6529   3.264   1.576   2.686  0.2737 -0.3091  0.5685
 1619SOL    HW3 6530   3.343   1.451   2.716  1.5523  0.5731  0.8813
 1619SOL    MW4 6531   3.335   1.528   2.675  0.2778 -0.1367 -0.2255
 1620SOL     OW 6532   3.112   1.671   2.768 -0.0584  0.1465  0.0752
 1620SOL    HW2 6533   3.113   1.754   2.721 -0.3729 -0.2006 -0.5631
 1620SOL    HW3 6534   3.041   1.621   2.727 -0.3828 -0.1440  0.9620
 1620SOL    MW4 6535   3.102   1.675   2.756 -0.1426  0.0623  0.1078
 1621SOL     OW 6536   3.113   1.931   2.629 -0.5361 -0.8724 -0.0536
 1621SOL    HW2 6537   3.196   1.957   2.667 -0.4056  0.1263 -0.9583
 1621SOL    HW3 6538   3.047   1.973   2.684 -0.4494 -2.0219  0.9164
 1621SOL    MW4 6539   3.115   1.940   2.641 -0.5076 -0.8923 -0.0451
 1622SOL     OW 6540   3.348   2.023   2.753 -0.0431  0.4740  0.4023
 1622SOL    HW2 6541   3.341   2.021   2.848 -0.4203 -0.0910  0.3640
 1622SOL    HW3 6542   3.354   2.117   2.732 -0.4549  0.6241  0.9441
 1622SOL    MW4 6543   3.348   2.035   2.763 -0.1471  0.4191  0.4687
 1623SOL     OW 6544   3.334   2.289   2.664  0.3713  0.0989 -0.4185
 1623SOL    HW2 6545   3.409   2.344   2.689  0.1229  0.1808  0.1698
 1623SOL    HW3 6546   3.338   2.284   2.569  0.2787  1.3191 -0.4943
 1623SOL    MW4 6547   3.345   2.296   2.655  0.3262  0.2711 -0.3510
 1624SOL     OW 6548   3.111   2.450   2.729 -0.1915  0.5859 -0.3500
 1624SOL    HW2 6549   3.126   2.533   2.683  0.9493 -0.0486 -1.1339
 1624SOL    HW3 6550   3.190   2.399   2.712 -0.9843 -0.7430 -0.0405
 1624SOL    MW4 6551   3.123   2.455   2.721 -0.1454  0.3271 -0.4127
 1625SOL     OW 6552   3.154   2.698   2.614 -0.7553  0.3206 -0.1561
 1625SOL    HW2 6553   3.236   2.739   2.641 -0.3945 -0.6774  0.3163
 1625SOL    HW3 6554   3.086   2.753   2.652 -0.2969  0.9776 -0.2825
 1625SOL    MW4 6555   3.156   2.710   2.623 -0.6471  0.2754 -0.1104
 1626SOL     OW 6556   3.369   2.812   2.738  0.1178 -0.0742 -0.3904
 1626SOL    HW2 6557   3.366   2.786   2.830  0.4061 -2.3135 -0.9673
 1626SOL    HW3 6558   3.455   2.782   2.708 -0.4211 -0.4020 -1.6520
 1626SOL    MW4 6559   3.380   2.804   2.746  0.0849 -0.4127 -0.6328
 1627SOL     OW 6560   3.386   3.092   2.683 -0.1884  0.3882  0.1503
 1627SOL    HW2 6561   3.374   3.000   2.705 -2.0278  0.5535 -0.0768
 1627SOL    HW3 6562   3.390   3.094   2.587  0.6156  0.4615  0.1839
 1627SOL    MW4 6563   3.385   3.080   2.673 -0.3250  0.4199  0.1245
 1628SOL     OW 6564   3.124   3.198   2.782 -0.5805 -0.1740 -0.6411
 1628SOL    HW2 6565   3.192   3.145   2.741  0.1344  0.1758  0.0854
 1628SOL    HW3 6566   3.043   3.151   2.763  0.0251 -1.4554 -0.1551
 1628SOL    MW4 6567   3.122   3.184   2.774 -0.4063 -0.2968 -0.4811
 1629SOL     OW 6568   3.075   3.424   2.633  0.0674  0.7830  0.0334
 1629SOL    HW2 6569   3.072   3.341   2.682  0.6172  0.6046 -0.2281
 1629SOL    HW3 6570   3.010   3.479   2.676 -1.8939 -0.5273 -1.1488
 1629SOL    MW4 6571   3.066   3.420   2.645 -0.1187  0.5867 -0.1571
 1630SOL     OW 6572   3.310   3.567   2.735 -0.0773 -0.4684  0.4824
 1630SOL    HW2 6573   3.322   3.572   2.830 -1.1144 -1.4936  0.6709
 1630SOL    HW3 6574   3.245   3.499   2.722  0.7285 -0.9822 -1.0265
 1630SOL    MW4 6575   3.303   3.559   2.746 -0.1078 -0.6716  0.3080
 1631SOL     OW 6576   3.383   3.822   2.672 -0.1899 -0.4356 -0.1943
 1631SOL    HW2 6577   3.358   3.731   2.687  1.1097 -0.8345 -0.3614
 1631SOL    HW3 6578   3.382   3.833   2.577 -1.5407  0.0828 -0.1297
 1631SOL    MW4 6579   3.380   3.811   2.662 -0.1967 -0.4199 -0.2079
 1632SOL     OW 6580   3.166   3.970   2.763  0.1492  0.2104 -0.0162
 1632SOL    HW2 6581   3.185   4.059   2.732 -0.7697 -0.1206 -1.6089
 1632SOL    HW3 6582   3.240   3.917   2.733 -0.0058  0.1738 -0.3363
 1632SOL    MW4 6583   3.178   3.975   2.755  0.0072  0.1616 -0.2685
 1633SOL     OW 6584   3.155   4.250   2.644 -0.4666 -0.0163  0.1112
 1633SOL    HW2 6585   3.077   4.295   2.677 -0.7283 -0.8185  0.5877
 1633SOL    HW3 6586   3.138   4.236   2.551 -0.8991 -0.2087  0.2217
 1633SOL    MW4 6587   3.143   4.254   2.636 -0.5581 -0.1469  0.1886
 1634SOL     OW 6588   3.354   4.416   2.734 -0.1036 -0.0158  0.3816
 1634SOL    HW2 6589   3.346   4.400   2.828 -0.1322 -0.4712  0.3036
 1634SOL    HW3 6590   3.297   4.351   2.693  1.5848 -1.2865 -0.0423
 1634SOL    MW4 6591   3.346   4.405   2.741  0.1154 -0.2432  0.3154
 1635SOL     OW 6592   3.793   4.632   2.648 -0.2672  0.1600 -0.0332
 1635SOL    HW2 6593   3.781   4.549   2.695  0.1706  1.1384  1.8753
 1635SOL    HW3 6594   3.726   4.690   2.684  0.4409  1.1060 -0.2177
 1635SOL    MW4 6595   3.783   4.629   2.659 -0.1161  0.4139  0.1943
 1636SOL     OW 6596   3.559   0.126   2.732  0.3138  0.2472  0.0247
 1636SOL    HW2 6597   3.565   0.214   2.695 -0.0787  0.5968  0.7865
 1636SOL    HW3 6598   3.483   0.087   2.690  1.1891 -0.1720 -1.2188
 1636SOL    MW4 6599   3.550   0.132   2.722  0.3774  0.2380 -0.0389
 1637SOL     OW 6600   3.597   0.392   2.654  0.1509 -0.2572  0.3444
 1637SOL    HW2 6601   3.674   0.444   2.678 -0.4933  1.4896 -1.2553
 1637SOL    HW3 6602   3.526   0.427   2.709  0.0966 -0.6356  0.5179
 1637SOL    MW4 6603   3.598   0.404   2.664  0.0587 -0.0767  0.1564
 1638SOL     OW 6604   3.828   0.502   2.726 -0.0318  0.2211  0.0571
 1638SOL    HW2 6605   3.845   0.495   2.820 -0.2572  1.0823  0.1645
 1638SOL    HW3 6606   3.903   0.460   2.684  0.4657  0.5648  0.6054
 1638SOL    MW4 6607   3.840   0.495   2.733  0.0038  0.3801  0.1435
 1639SOL     OW 6608   3.809   0.770   2.626 -0.0672  0.2446  0.1923
 1639SOL    HW2 6609   3.735   0.805   2.676 -0.0442 -0.4981  0.7524
 1639SOL    HW3 6610   3.816   0.679   2.654 -0.3709 -0.3331 -1.5557
 1639SOL    MW4 6611   3.800   0.763   2.636 -0.1042  0.0705  0.0353
 1640SOL     OW 6612   3.572   0.888   2.742  0.5672 -0.1849 -0.0477
 1640SOL    HW2 6613   3.556   0.897   2.836  0.7404 -0.3434 -0.0034
 1640SOL    HW3 6614   3.560   0.976   2.707  0.9761 -0.0334  0.1933
 1640SOL    MW4 6615   3.568   0.901   2.750  0.6442 -0.1858 -0.0100
 1641SOL     OW 6616   3.570   1.157   2.654 -0.1368 -1.0120  0.1660
 1641SOL    HW2 6617   3.634   1.214   2.697 -0.1827  0.2696 -1.4263
 1641SOL    HW3 6618   3.485   1.191   2.680 -0.1724  0.3648 -1.6473
 1641SOL    MW4 6619   3.568   1.169   2.663 -0.1473 -0.6613 -0.2835
 1642SOL     OW 6620   3.758   1.314   2.760  0.4793  0.3104  0.3291
 1642SOL    HW2 6621   3.836   1.267   2.730  0.5187 -0.0428  0.9731
 1642SOL    HW3 6622   3.767   1.402   2.723  0.4245 -0.1744 -0.8538
 1642SOL    MW4 6623   3.769   1.319   2.751  0.4771  0.1999  0.2580
 1643SOL     OW 6624   3.785   1.557   2.634  0.1675  0.5511 -0.3249
 1643SOL    HW2 6625   3.862   1.601   2.670  0.0069 -0.4382  1.2820
 1643SOL    HW3 6626   3.711   1.599   2.677  0.0215 -1.3348  1.3401
 1643SOL    MW4 6627   3.786   1.568   2.644  0.1271  0.1717  0.1068
 1644SOL     OW 6628   3.559   1.659   2.804 -0.0464 -0.2629 -0.8897
 1644SOL    HW2 6629   3.554   1.743   2.758 -0.5012  0.4304  0.4291
 1644SOL    HW3 6630   3.475   1.616   2.785  0.6365 -0.9370 -2.5154
 1644SOL    MW4 6631   3.547   1.665   2.795 -0.0165 -0.2604 -0.9298
 1645SOL     OW 6632   3.573   1.903   2.647  0.3758 -0.0707 -0.1042
 1645SOL    HW2 6633   3.491   1.949   2.662  0.2633 -1.1665  3.0501
 1645SOL    HW3 6634   3.575   1.886   2.553 -1.2086  3.2327 -0.8021
 1645SOL    MW4 6635   3.563   1.907   2.637  0.1519  0.2205  0.2201
 1646SOL     OW 6636   3.778   2.042   2.771 -0.2576 -0.4106  0.1652
 1646SOL    HW2 6637   3.849   1.993   2.731 -0.6290 -0.3677 -0.5497
 1646SOL    HW3 6638   3.699   1.991   2.752 -0.5541  0.1001  0.0201
 1646SOL    MW4 6639   3.777   2.029   2.763 -0.3457 -0.3376  0.0517
 1647SOL     OW 6640   3.792   2.318   2.672 -0.3815  0.3748  0.0588
 1647SOL    HW2 6641   3.784   2.230   2.710 -0.2558  0.6892  0.8154
 1647SOL    HW3 6642   3.775   2.305   2.579 -1.3897 -0.3010  0.3251
 1647SOL    MW4 6643   3.788   2.305   2.665 -0.4981  0.3271  0.1936
 1648SOL     OW 6644   3.554   2.421   2.757 -0.3181  0.9849  0.1391
 1648SOL    HW2 6645   3.546   2.430   2.852 -1.5342 -0.1924  0.1527
 1648SOL    HW3 6646   3.632   2.367   2.744  0.6663  2.3132  0.4072
 1648SOL    MW4 6647   3.563   2.415   2.767 -0.3483  1.0047  0.1762
 1649SOL     OW 6648   3.634   2.690   2.668 -0.2042 -0.3522  0.3034
 1649SOL    HW2 6649   3.617   2.605   2.710 -1.3690 -0.8941 -1.2062
 1649SOL    HW3 6650   3.618   2.674   2.575  0.9402  1.1895 -0.1690
 1649SOL    MW4 6651   3.629   2.677   2.661 -0.2069 -0.2205  0.0417
 1650SOL     OW 6652   3.858   2.853   2.728 -0.3588 -0.0412  0.0525
 1650SOL    HW2 6653   3.935   2.817   2.683 -2.1600 -2.6286 -1.0986
 1650SOL    HW3 6654   3.787   2.794   2.704 -2.5900  1.9192  1.6378
 1650SOL    MW4 6655   3.859   2.840   2.719 -0.8910 -0.1240  0.1097
 1651SOL     OW 6656   3.845   3.116   2.676 -0.0422 -0.0048 -0.6740
 1651SOL    HW2 6657   3.760   3.147   2.707 -0.3762  0.9878 -2.4499
 1651SOL    HW3 6658   3.847   3.024   2.700 -1.3132  0.1312  0.0404
 1651SOL    MW4 6659   3.834   3.108   2.683 -0.2539  0.1440 -0.8140
 1652SOL     OW 6660   3.600   3.227   2.767 -0.3927 -0.1789 -0.4416
 1652SOL    HW2 6661   3.608   3.311   2.723  0.5743 -0.5572 -1.0008
 1652SOL    HW3 6662   3.518   3.190   2.735  0.1716 -0.3329 -1.7259
 1652SOL    MW4 6663   3.591   3.233   2.757 -0.1905 -0.2491 -0.6850
 1653SOL     OW 6664   3.554   3.460   2.617  0.3766  0.2083 -0.0927
 1653SOL    HW2 6665   3.621   3.515   2.658  0.9171 -0.5602  0.0833
 1653SOL    HW3 6666   3.471   3.492   2.652  0.7566  0.2509  0.7929
 1653SOL    MW4 6667   3.552   3.471   2.627  0.4981  0.1128  0.0474
 1654SOL     OW 6668   3.739   3.606   2.758 -0.0854 -0.0300 -0.2532
 1654SOL    HW2 6669   3.831   3.584   2.747 -0.2461 -1.1323  0.5618
 1654SOL    HW3 6670   3.731   3.694   2.721  1.1474 -0.2008 -0.9519
 1654SOL    MW4 6671   3.750   3.615   2.751  0.0563 -0.1979 -0.2377
 1655SOL     OW 6672   3.801   3.859   2.633  0.0796 -0.0814 -0.1351
 1655SOL    HW2 6673   3.882   3.891   2.673 -0.0033  1.5027 -1.1794
 1655SOL    HW3 6674   3.733   3.914   2.671 -0.1093  0.7819 -1.6946
 1655SOL    MW4 6675   3.803   3.871   2.643  0.0439  0.2418 -0.4785
 1656SOL     OW 6676   3.606   3.983   2.774  0.0976 -0.4076 -0.3385
 1656SOL    HW2 6677   3.595   4.073   2.744  1.2863 -0.2473 -0.3137
 1656SOL    HW3 6678   3.525   3.939   2.748 -1.4003  1.1653  1.5389
 1656SOL    MW4 6679   3.594   3.989   2.766  0.0567 -0.1791 -0.0875
 1657SOL     OW 6680   3.584   4.255   2.652 -0.2665 -0.2407 -0.6865
 1657SOL    HW2 6681   3.507   4.307   2.677 -0.3257 -0.0703 -1.2176
 1657SOL    HW3 6682   3.575   4.243   2.557  0.9041  0.6697 -0.9222
 1657SOL    MW4 6683   3.572   4.260   2.643 -0.1197 -0.0978 -0.7880
 1658SOL     OW 6684   3.797   4.371   2.757  0.4607 -0.4296  0.0090
 1658SOL    HW2 6685   3.871   4.328   2.714  1.0139  0.4628  0.0535
 1658SOL    HW3 6686   3.719   4.332   2.715  0.9761 -0.1355 -1.2534
 1658SOL    MW4 6687   3.796   4.360   2.746  0.6018 -0.2728 -0.1516
 1659SOL     OW 6688   4.207   4.627   2.655  0.1441  0.4770  0.5337
 1659SOL    HW2 6689   4.132   4.684   2.674  0.0309  1.0681 -1.5510
 1659SOL    HW3 6690   4.283   4.682   2.671  0.0347  1.2426 -1.4338
 1659SOL    MW4 6691   4.207   4.642   2.659  0.1149  0.6561 -0.0010
 1660SOL     OW 6692   3.995   0.143   2.731  0.0424 -0.4839 -0.0409
 1660SOL    HW2 6693   3.999   0.146   2.826 -1.1701  0.3586 -0.0043
 1660SOL    HW3 6694   3.915   0.094   2.712 -1.8330  2.6360 -0.5813
 1660SOL    MW4 6695   3.985   0.137   2.741 -0.3650  0.0389 -0.1073
 1661SOL     OW 6696   4.033   0.384   2.598  0.3878 -0.0550 -0.1814
 1661SOL    HW2 6697   4.012   0.293   2.619 -1.4476  0.4010  0.0169
 1661SOL    HW3 6698   4.025   0.389   2.503  0.1311 -0.0022 -0.1556
 1661SOL    MW4 6699   4.029   0.373   2.589  0.1116  0.0121 -0.1516
 1662SOL     OW 6700   4.266   0.520   2.701  0.4442  0.0211  0.1329
 1662SOL    HW2 6701   4.186   0.477   2.671  0.5683 -0.6879  0.8146
 1662SOL    HW3 6702   4.336   0.458   2.682  0.8066  0.5295 -0.2164
 1662SOL    MW4 6703   4.265   0.506   2.695  0.5088 -0.0054  0.1767
 1663SOL     OW 6704   4.274   0.796   2.638  0.0209 -0.6311  0.3518
 1663SOL    HW2 6705   4.274   0.705   2.666 -0.6723 -1.1468 -1.3101
 1663SOL    HW3 6706   4.263   0.793   2.543 -0.6833  1.2010  0.3495
 1663SOL    MW4 6707   4.273   0.784   2.630 -0.1636 -0.4575  0.1326
 1664SOL     OW 6708   4.037   0.916   2.711  0.2235 -0.2956  0.5535
 1664SOL    HW2 6709   4.120   0.882   2.677  0.8116  0.8407  0.8227
 1664SOL    HW3 6710   3.970   0.870   2.662  1.0444  1.4655 -2.3173
 1664SOL    MW4 6711   4.039   0.906   2.700  0.4096  0.0867  0.2103
 1665SOL     OW 6712   4.002   1.189   2.631 -0.2578  0.0326  0.1497
 1665SOL    HW2 6713   4.083   1.228   2.662  0.0323 -0.7868  0.4487
 1665SOL    HW3 6714   3.998   1.103   2.674 -2.0814  0.6995  1.3638
 1665SOL    MW4 6715   4.012   1.183   2.641 -0.4601  0.0125  0.3495
 1666SOL     OW 6716   4.248   1.277   2.724 -0.0916 -0.5194 -0.0021
 1666SOL    HW2 6717   4.258   1.369   2.700 -0.2246 -0.2227  1.0341
 1666SOL    HW3 6718   4.321   1.233   2.681 -0.3120 -0.0176 -0.9117
 1666SOL    MW4 6719   4.259   1.283   2.715 -0.1383 -0.4139  0.0148
 1667SOL     OW 6720   4.253   1.551   2.636 -0.0235 -0.0779  0.3071
 1667SOL    HW2 6721   4.335   1.586   2.670  0.7082 -1.9662  0.4911
 1667SOL    HW3 6722   4.262   1.559   2.541 -0.4241  1.4785  0.3887
 1667SOL    MW4 6723   4.265   1.557   2.628  0.0200 -0.1217  0.3419
 1668SOL     OW 6724   4.014   1.661   2.753  0.1241  0.1422  0.5928
 1668SOL    HW2 6725   4.019   1.625   2.841  0.8000  0.8573  0.8496
 1668SOL    HW3 6726   4.098   1.637   2.713 -0.1517 -0.1122  0.1667
 1668SOL    MW4 6727   4.026   1.653   2.759  0.1769  0.2031  0.5705
 1669SOL     OW 6728   3.993   1.926   2.649  0.2313 -0.5839 -0.5744
 1669SOL    HW2 6729   4.062   1.986   2.676 -0.1361 -1.2362  1.9578
 1669SOL    HW3 6730   4.017   1.842   2.689 -1.5788 -1.0113 -0.3284
 1669SOL    MW4 6731   4.005   1.923   2.658 -0.0553 -0.7263 -0.2079
 1670SOL     OW 6732   4.237   2.037   2.739  0.8577 -0.6603  0.2166
 1670SOL    HW2 6733   4.241   2.125   2.703  2.4207 -0.4678  0.8032
 1670SOL    HW3 6734   4.305   1.989   2.693  0.7339 -1.2697  0.6551
 1670SOL    MW4 6735   4.247   2.042   2.728  1.0471 -0.7153  0.3521
 1671SOL     OW 6736   4.254   2.297   2.626 -0.0077  0.2415 -0.2350
 1671SOL    HW2 6737   4.178   2.350   2.651 -1.0363 -0.6837 -1.3528
 1671SOL    HW3 6738   4.246   2.288   2.531  0.8206 -0.9162 -0.1980
 1671SOL    MW4 6739   4.243   2.303   2.616 -0.0343 -0.0334 -0.3779
 1672SOL     OW 6740   4.031   2.451   2.727  0.0719  0.4952 -0.2708
 1672SOL    HW2 6741   4.052   2.441   2.820  0.4121  0.1764 -0.3792
 1672SOL    HW3 6742   3.947   2.407   2.716  0.2456  0.1416 -0.2015
 1672SOL    MW4 6743   4.023   2.444   2.738  0.1397  0.4065 -0.2761
 1673SOL     OW 6744   4.070   2.708   2.616 -0.0181 -0.4461 -0.3590
 1673SOL    HW2 6745   4.143   2.752   2.661 -1.4302  1.0950  0.4927
 1673SOL    HW3 6746   4.055   2.629   2.668  1.8391 -1.4134 -1.2607
 1673SOL    MW4 6747   4.078   2.704   2.629  0.0405 -0.3700 -0.3653
 1674SOL     OW 6748   4.269   2.837   2.758 -0.0184  0.2905  0.0184
 1674SOL    HW2 6749   4.272   2.837   2.854 -0.0622  0.4807  0.0187
 1674SOL    HW3 6750   4.269   2.929   2.733  2.5750  0.2566 -0.2478
 1674SOL    MW4 6751   4.269   2.849   2.767  0.3185  0.3114 -0.0169
 1675SOL     OW 6752   4.307   3.098   2.668  0.3200  0.2251 -0.0120
 1675SOL    HW2 6753   4.226   3.139   2.699 -1.1822 -2.4235 -0.2655
 1675SOL    HW3 6754   4.301   3.103   2.572  0.2539 -0.3173 -0.0381
 1675SOL    MW4 6755   4.295   3.104   2.659  0.1130 -0.1960 -0.0486
 1676SOL     OW 6756   4.083   3.253   2.760  0.3468  0.3009 -0.1588
 1676SOL    HW2 6757   4.069   3.347   2.751 -0.2387  0.0791 -1.7120
 1676SOL    HW3 6758   4.002   3.213   2.728  0.2433 -0.7272  1.2971
 1676SOL    MW4 6759   4.070   3.260   2.755  0.2556  0.1359 -0.1717
 1677SOL     OW 6760   4.005   3.510   2.702 -0.6571 -0.2056 -0.0904
 1677SOL    HW2 6761   4.088   3.546   2.732 -1.2536  0.5531  0.6964
 1677SOL    HW3 6762   4.011   3.510   2.607  1.1375 -2.3241 -0.0098
 1677SOL    MW4 6763   4.017   3.514   2.694 -0.4992 -0.3848  0.0238
 1678SOL     OW 6764   4.265   3.604   2.785 -0.0308 -0.0973  0.3016
 1678SOL    HW2 6765   4.285   3.634   2.874  1.3194 -0.2956  0.0805
 1678SOL    HW3 6766   4.342   3.553   2.760 -0.3647  0.0420 -1.0176
 1678SOL    MW4 6767   4.278   3.601   2.794  0.1035 -0.1054  0.0985
 1679SOL     OW 6768   4.293   3.830   2.649  0.3142 -0.5556 -0.1888
 1679SOL    HW2 6769   4.277   3.751   2.700 -2.1299  0.7909  1.2319
 1679SOL    HW3 6770   4.349   3.884   2.705  0.1421 -0.3495 -0.2157
 1679SOL    MW4 6771   4.298   3.827   2.663 -0.0305 -0.3507 -0.0050
 1680SOL     OW 6772   4.059   3.960   2.719  0.4648 -0.2764 -0.2524
 1680SOL    HW2 6773   4.064   3.954   2.815 -1.0477  2.1748  0.0289
 1680SOL    HW3 6774   4.134   3.911   2.688  1.1518 -0.8650  2.2138
 1680SOL    MW4 6775   4.069   3.953   2.728  0.3562 -0.0308  0.1099
 1681SOL     OW 6776   4.003   4.221   2.661  0.1959 -0.1822  0.5273
 1681SOL    HW2 6777   4.031   4.132   2.679 -0.5114 -0.3693  0.7201
 1681SOL    HW3 6778   3.999   4.226   2.565 -0.1019 -0.4628  0.5248
 1681SOL    MW4 6779   4.006   4.210   2.650  0.0634 -0.2437  0.5522
 1682SOL     OW 6780   4.209   4.372   2.768 -0.0157 -0.2077  0.4363
 1682SOL    HW2 6781   4.149   4.312   2.724  0.1594 -0.1799  0.1517
 1682SOL    HW3 6782   4.196   4.455   2.724 -0.0602 -0.1046  0.6466
 1682SOL    MW4 6783   4.200   4.375   2.756  0.0014 -0.1907  0.4265
 1683SOL     OW 6784   0.250   4.664   3.113  0.0720  0.7703 -0.0250
 1683SOL    HW2 6785   0.230   4.654   3.205  2.0671 -0.4465  0.3178
 1683SOL    HW3 6786   0.168   4.692   3.073 -1.2210 -0.2426  1.8514
 1683SOL    MW4 6787   0.237   4.666   3.120  0.1647  0.4759  0.2675
 1684SOL     OW 6788   4.489   0.132   3.001  0.0058  0.1626 -0.3462
 1684SOL    HW2 6789   4.405   0.091   3.019  0.0106  0.1582 -0.3340
 1684SOL    HW3 6790   4.491   0.208   3.059  0.4745 -0.4485  0.4371
 1684SOL    MW4 6791   4.478   0.137   3.011  0.0682  0.0814 -0.2415
 1685SOL     OW 6792   0.006   0.407   3.137  0.5877  0.2034 -0.3784
 1685SOL    HW2 6793  -0.004   0.417   3.232  0.8931  0.5723 -0.3883
 1685SOL    HW3 6794  -0.080   0.432   3.102  1.2757  2.6211 -0.3949
 1685SOL    MW4 6795  -0.007   0.412   3.145  0.7186  0.5710 -0.3819
 1686SOL     OW 6796   0.217   0.517   2.996 -0.1988  0.0430 -0.3617
 1686SOL    HW2 6797   0.296   0.490   3.043 -0.9321  1.5481  1.8115
 1686SOL    HW3 6798   0.145   0.474   3.042 -1.0418  2.5531  0.7321
 1686SOL    MW4 6799   0.218   0.508   3.008 -0.4068  0.5728  0.0694
 1687SOL     OW 6800   0.238   0.761   3.124  0.6350  0.2791 -0.4669
 1687SOL    HW2 6801   0.238   0.762   3.220 -1.4412  1.1576 -0.4369
 1687SOL    HW3 6802   0.231   0.668   3.101  2.8574 -0.0817  0.1716
 1687SOL    MW4 6803   0.237   0.749   3.134  0.6543  0.3474 -0.3791
 1688SOL     OW 6804   0.028   0.918   3.015 -0.4019 -0.0894  0.1046
 1688SOL    HW2 6805   0.101   0.878   3.064  0.9326  0.7414 -1.1817
 1688SOL    HW3 6806   0.045   0.895   2.924 -1.0283  1.2280 -0.3542
 1688SOL    MW4 6807   0.040   0.909   3.010 -0.3085  0.1940 -0.1256
 1689SOL     OW 6808   4.487   1.153   3.133  0.2518  0.1520 -0.0285
 1689SOL    HW2 6809   4.417   1.194   3.083 -0.0081  1.0660  1.0520
 1689SOL    HW3 6810   4.498   1.066   3.094 -0.5286  0.5291 -1.0893
 1689SOL    MW4 6811   4.479   1.147   3.121  0.1140  0.3223 -0.0260
 1690SOL     OW 6812   0.222   1.274   3.032  0.2081 -0.6976 -0.3757
 1690SOL    HW2 6813   0.147   1.232   3.075 -0.0904  0.2546  0.0452
 1690SOL    HW3 6814   0.215   1.246   2.940 -0.8903 -0.3074 -0.4248
 1690SOL    MW4 6815   0.211   1.265   3.025  0.0238 -0.5205 -0.3266
 1691SOL     OW 6816   0.238   1.555   3.091  0.5025 -0.0993 -0.5443
 1691SOL    HW2 6817   0.172   1.606   3.043 -0.4913  0.0469  0.9394
 1691SOL    HW3 6818   0.222   1.464   3.063 -1.1941 -0.2257  0.7650
 1691SOL    MW4 6819   0.227   1.550   3.081  0.1476 -0.0967 -0.1757
 1692SOL     OW 6820   4.481   1.664   2.982 -0.2760  0.5576 -0.4276
 1692SOL    HW2 6821   4.423   1.605   3.029 -1.0927  1.5566 -0.1838
 1692SOL    HW3 6822   4.470   1.748   3.025  1.3510  0.7613 -0.3766
 1692SOL    MW4 6823   4.472   1.667   2.993 -0.1688  0.7164 -0.3886
 1693SOL     OW 6824   4.468   1.919   3.106 -0.0943  0.3972 -0.1748
 1693SOL    HW2 6825   4.395   1.973   3.077 -0.2818  0.3439  0.1906
 1693SOL    HW3 6826   4.546   1.969   3.083 -0.2948  1.5114  1.4900
 1693SOL    MW4 6827   4.469   1.932   3.099 -0.1459  0.5374  0.0930
 1694SOL     OW 6828   0.203   2.073   3.024 -0.1328  0.1804  0.0349
 1694SOL    HW2 6829   0.197   2.168   3.032 -1.6571 -0.0561  2.1151
 1694SOL    HW3 6830   0.187   2.055   2.931 -0.1595  1.9215 -0.3048
 1694SOL    MW4 6831   0.200   2.083   3.013 -0.3374  0.3788  0.2646
 1695SOL     OW 6832   0.221   2.347   3.064 -0.1417  0.1282  0.1951
 1695SOL    HW2 6833   0.233   2.338   3.159  1.2253  0.1041  0.0315
 1695SOL    HW3 6834   0.292   2.405   3.036 -0.6712  0.3160 -0.7864
 1695SOL    MW4 6835   0.232   2.354   3.073 -0.0312  0.1497  0.0439
 1696SOL     OW 6836   4.474   2.468   3.014  0.3274 -0.1051  0.5333
 1696SOL    HW2 6837   4.479   2.559   3.045  0.4106  0.3862 -0.8946
 1696SOL    HW3 6838   4.558   2.430   3.040  1.2143  0.8663 -0.8054
 1696SOL    MW4 6839   4.486   2.475   3.022  0.4554  0.0877  0.1681
 1697SOL     OW 6840   0.008   2.728   3.174 -0.5828  0.0063 -0.1282
 1697SOL    HW2 6841   0.008   2.752   3.267 -0.3891 -1.3123  0.2154
 1697SOL    HW3 6842   0.092   2.761   3.141 -1.1079  1.4073 -0.0854
 1697SOL    MW4 6843   0.019   2.736   3.182 -0.6265  0.0169 -0.0772
 1698SOL     OW 6844   0.231   2.832   3.045 -0.2815 -0.5195 -0.2863
 1698SOL    HW2 6845   0.313   2.812   3.089  0.3646  1.8645 -0.3424
 1698SOL    HW3 6846   0.249   2.813   2.952 -0.2909 -1.4111 -0.1154
 1698SOL    MW4 6847   0.244   2.827   3.038 -0.1975 -0.3226 -0.2711
 1699SOL     OW 6848   0.239   3.095   3.164  0.2713  0.4818 -0.1813
 1699SOL    HW2 6849   0.169   3.156   3.139  0.5944  0.1173 -2.0460
 1699SOL    HW3 6850   0.214   3.012   3.122  0.8275 -0.1591  0.7493
 1699SOL    MW4 6851   0.226   3.092   3.155  0.3873  0.3493 -0.3045
 1700SOL     OW 6852   0.021   3.284   3.066 -0.3674 -0.0346 -0.0216
 1700SOL    HW2 6853  -0.058   3.232   3.083 -0.8375  0.6297 -0.1686
 1700SOL    HW3 6854   0.031   3.283   2.971 -1.0831  1.1822 -0.1128
 1700SOL    MW4 6855   0.012   3.277   3.056 -0.5239  0.2134 -0.0534
 1701SOL     OW 6856   0.033   3.533   3.193 -0.2260  0.0334 -0.1291
 1701SOL    HW2 6857  -0.048   3.575   3.163 -1.1556 -0.9940  0.8881
 1701SOL    HW3 6858   0.031   3.445   3.155 -0.7487 -0.8067  1.7606
 1701SOL    MW4 6859   0.022   3.527   3.184 -0.4176 -0.2129  0.2544
 1702SOL     OW 6860   0.218   3.648   3.014 -0.1646 -0.2331 -0.4561
 1702SOL    HW2 6861   0.237   3.734   3.052  1.1460 -0.7917  0.1781
 1702SOL    HW3 6862   0.164   3.605   3.081  1.3766 -0.8728  0.3999
 1702SOL    MW4 6863   0.213   3.654   3.028  0.2117 -0.3910 -0.2594
 1703SOL     OW 6864   0.252   3.895   3.142  0.0344 -0.3030  0.3044
 1703SOL    HW2 6865   0.251   3.900   3.238 -0.3133  2.1215  0.2055
 1703SOL    HW3 6866   0.329   3.945   3.116  0.7775 -1.9172 -0.6627
 1703SOL    MW4 6867   0.262   3.902   3.152  0.0866 -0.1962  0.1638
 1704SOL     OW 6868   0.029   4.035   3.061 -0.0700 -0.3032  0.5595
 1704SOL    HW2 6869   0.104   3.981   3.086 -0.2248 -0.1740  1.2918
 1704SOL    HW3 6870   0.015   4.013   2.968 -1.0252 -2.5897  1.1923
 1704SOL    MW4 6871   0.037   4.025   3.052 -0.2163 -0.5879  0.7398
 1705SOL     OW 6872   4.463   4.289   3.123  0.1854  0.1804 -0.0584
 1705SOL    HW2 6873   4.460   4.269   3.217  0.0487  0.6501  0.0367
 1705SOL    HW3 6874   4.482   4.204   3.082  2.4988  0.3731  0.5376
 1705SOL    MW4 6875   4.465   4.275   3.130  0.4730  0.2680  0.0327
 1706SOL     OW 6876   0.206   4.395   3.014  0.2374 -0.2064  0.1481
 1706SOL    HW2 6877   0.129   4.352   3.051 -0.0358 -1.0196 -1.3179
 1706SOL    HW3 6878   0.209   4.480   3.057 -0.3329 -0.9339  1.6723
 1706SOL    MW4 6879   0.197   4.400   3.025  0.1261 -0.4096  0.1559
 1707SOL     OW 6880   0.680   0.031   3.144 -0.0410  0.1625 -0.3362
 1707SOL    HW2 6881   0.693  -0.056   3.105  0.3820 -0.1456  0.4656
 1707SOL    HW3 6882   0.608   0.069   3.094  0.4174 -0.2645 -1.3315
 1707SOL    MW4 6883   0.672   0.024   3.133  0.0752  0.0655 -0.3617
 1708SOL     OW 6884   0.459   0.142   3.000  0.1574  0.1484  0.0608
 1708SOL    HW2 6885   0.447   0.224   3.048 -1.8291  0.4966 -0.9713
 1708SOL    HW3 6886   0.387   0.087   3.031 -0.0442 -0.2705 -1.1586
 1708SOL    MW4 6887   0.448   0.146   3.011 -0.1313  0.1390 -0.2365
 1709SOL     OW 6888   0.432   0.388   3.106 -0.0508  0.4662 -0.0527
 1709SOL    HW2 6889   0.432   0.375   3.201 -0.1710  0.5193 -0.0456
 1709SOL    HW3 6890   0.514   0.433   3.088  0.9015 -1.2968 -0.2092
 1709SOL    MW4 6891   0.443   0.392   3.116  0.0590  0.2406 -0.0722
 1710SOL     OW 6892   0.667   0.535   3.025 -0.0956  0.1307  0.2721
 1710SOL    HW2 6893   0.733   0.487   3.077  0.1861  0.6042  0.3515
 1710SOL    HW3 6894   0.674   0.625   3.055 -0.0984  0.3629 -0.4269
 1710SOL    MW4 6895   0.677   0.540   3.036 -0.0588  0.2238  0.1903
 1711SOL     OW 6896   0.694   0.785   3.103 -0.2543  0.2737  0.4211
 1711SOL    HW2 6897   0.694   0.766   3.197 -1.2512 -1.1270  0.1523
 1711SOL    HW3 6898   0.621   0.845   3.091  0.1415  0.7982  0.5947
 1711SOL    MW4 6899   0.685   0.790   3.114 -0.3336  0.1581  0.4084
 1712SOL     OW 6900   0.449   0.898   3.038  0.0740 -0.5619 -0.0126
 1712SOL    HW2 6901   0.375   0.843   3.065 -0.7141  0.3685 -0.2472
 1712SOL    HW3 6902   0.469   0.870   2.949  0.0954 -0.9182  0.1050
 1712SOL    MW4 6903   0.442   0.887   3.030 -0.0271 -0.4863 -0.0279
 1713SOL     OW 6904   0.456   1.170   3.134  0.0428  0.1135 -0.0942
 1713SOL    HW2 6905   0.445   1.081   3.101  0.9506 -0.5159  1.2477
 1713SOL    HW3 6906   0.371   1.211   3.122 -0.5640 -1.1331 -0.1231
 1713SOL    MW4 6907   0.444   1.164   3.128  0.0826 -0.1340  0.0792
 1714SOL     OW 6908   0.663   1.296   2.997  0.0054 -0.0242 -0.1479
 1714SOL    HW2 6909   0.741   1.242   3.008  1.6072  2.5094  1.3794
 1714SOL    HW3 6910   0.595   1.250   3.046  1.2801 -0.7644  0.9516
 1714SOL    MW4 6911   0.664   1.283   3.005  0.3849  0.2124  0.1986
 1715SOL     OW 6912   0.681   1.538   3.148 -0.0114  0.6272 -0.0321
 1715SOL    HW2 6913   0.675   1.521   3.242  0.0370  0.8864  0.0174
 1715SOL    HW3 6914   0.675   1.451   3.108  0.8244  0.4344  0.2515
 1715SOL    MW4 6915   0.679   1.524   3.155  0.1053  0.6360  0.0119
 1716SOL     OW 6916   0.470   1.659   3.007  0.4883 -0.5761  0.1118
 1716SOL    HW2 6917   0.548   1.632   3.055  1.2453 -0.4585 -1.0278
 1716SOL    HW3 6918   0.398   1.609   3.046  0.9161  0.2493  2.0164
 1716SOL    MW4 6919   0.471   1.649   3.018  0.6446 -0.4517  0.2127
 1717SOL     OW 6920   0.446   1.939   3.063  0.6369 -0.3184 -0.1035
 1717SOL    HW2 6921   0.440   1.845   3.051  0.1599 -0.7740  3.0839
 1717SOL    HW3 6922   0.358   1.972   3.046  0.4936 -0.6191  0.0619
 1717SOL    MW4 6923   0.434   1.931   3.059  0.5551 -0.4182  0.3390
 1718SOL     OW 6924   0.664   2.087   2.997 -0.2528 -0.2859 -0.4990
 1718SOL    HW2 6925   0.739   2.032   3.020 -1.5124 -1.3582  1.2077
 1718SOL    HW3 6926   0.588   2.032   3.015 -1.5096  1.5614 -0.0079
 1718SOL    MW4 6927   0.664   2.072   3.003 -0.5849 -0.1836 -0.2091
 1719SOL     OW 6928   0.656   2.343   3.081  0.0358 -0.2656  0.7357
 1719SOL    HW2 6929   0.657   2.339   3.177 -0.8361 -2.0635  0.6884
 1719SOL    HW3 6930   0.664   2.252   3.053  1.7038  0.3629 -0.9342
 1719SOL    MW4 6931   0.657   2.331   3.090  0.1408 -0.4199  0.5093
 1720SOL     OW 6932   0.443   2.484   2.977  0.4460  0.0315  0.3433
 1720SOL    HW2 6933   0.508   2.416   2.998 -1.6110 -1.5399  1.7478
 1720SOL    HW3 6934   0.434   2.478   2.882  0.9264 -1.0984  0.3505
 1720SOL    MW4 6935   0.451   2.474   2.967  0.2380 -0.3247  0.5298
 1721SOL     OW 6936   0.473   2.726   3.119 -0.2565 -0.0502 -0.3082
 1721SOL    HW2 6937   0.558   2.759   3.088  0.2401 -0.6113  0.4669
 1721SOL    HW3 6938   0.462   2.642   3.075  0.0924 -0.4858  0.4320
 1721SOL    MW4 6939   0.483   2.719   3.109 -0.1449 -0.1817 -0.1080
 1722SOL     OW 6940   0.711   2.864   3.008 -0.7761  0.1098  0.6011
 1722SOL    HW2 6941   0.783   2.821   3.055 -0.3839 -0.2515 -0.3020
 1722SOL    HW3 6942   0.719   2.957   3.031  0.0833  0.0943  0.3784
 1722SOL    MW4 6943   0.722   2.871   3.017 -0.6109  0.0598  0.4525
 1723SOL     OW 6944   0.648   3.117   3.109  0.1522  0.3236  0.2465
 1723SOL    HW2 6945   0.646   3.126   3.204  1.0153  1.3178  0.1786
 1723SOL    HW3 6946   0.566   3.158   3.080 -0.4105 -0.5408  0.5937
 1723SOL    MW4 6947   0.637   3.124   3.117  0.1919  0.3409  0.2835
 1724SOL     OW 6948   0.425   3.220   3.001 -0.4696 -0.4136  0.0511
 1724SOL    HW2 6949   0.414   3.311   3.030 -0.0633 -0.4834  0.4257
 1724SOL    HW3 6950   0.355   3.172   3.045 -0.2555 -0.4030  0.4110
 1724SOL    MW4 6951   0.414   3.226   3.011 -0.3878 -0.4213  0.1478
 1725SOL     OW 6952   0.413   3.476   3.095  0.5745  0.3646 -0.2749
 1725SOL    HW2 6953   0.386   3.477   3.187  1.1999  2.2792 -0.0891
 1725SOL    HW3 6954   0.358   3.542   3.053 -0.0255 -0.8236 -1.3784
 1725SOL    MW4 6955   0.402   3.485   3.102  0.5779  0.4604 -0.3960
 1726SOL     OW 6956   0.628   3.622   3.032  0.0906 -0.0220 -0.6959
 1726SOL    HW2 6957   0.710   3.590   3.071 -0.8126  0.4792  1.7031
 1726SOL    HW3 6958   0.561   3.563   3.065 -0.6488  0.0871 -1.9770
 1726SOL    MW4 6959   0.630   3.610   3.042 -0.1262  0.0582 -0.5484
 1727SOL     OW 6960   0.673   3.883   3.138 -0.3814 -0.1646 -0.1484
 1727SOL    HW2 6961   0.655   3.891   3.231  1.5850 -0.6063  0.3122
 1727SOL    HW3 6962   0.655   3.791   3.118 -0.0379 -0.2621 -0.0153
 1727SOL    MW4 6963   0.668   3.872   3.148 -0.0766 -0.2358 -0.0703
 1728SOL     OW 6964   0.455   4.043   3.010  0.0424 -0.7895 -0.0178
 1728SOL    HW2 6965   0.532   3.991   3.031  0.7541  0.4195  0.3997
 1728SOL    HW3 6966   0.444   4.033   2.916  0.7590 -0.8966 -0.0937
 1728SOL    MW4 6967   0.464   4.035   3.001  0.2308 -0.6437  0.0272
 1729SOL     OW 6968   0.444   4.294   3.143 -0.3140 -0.2383 -0.1305
 1729SOL    HW2 6969   0.458   4.201   3.121  0.1142 -0.0040 -0.8975
 1729SOL    HW3 6970   0.369   4.319   3.090  0.3936  0.1955 -0.9482
 1729SOL    MW4 6971   0.436   4.285   3.133 -0.1642 -0.1502 -0.3397
 1730SOL     OW 6972   0.661   4.426   3.027 -0.3289 -0.0122 -0.1160
 1730SOL    HW2 6973   0.592   4.383   3.077  1.2805 -1.6491  0.7398
 1730SOL    HW3 6974   0.649   4.392   2.938 -0.5926 -0.3300  0.0356
 1730SOL    MW4 6975   0.650   4.416   3.022 -0.1513 -0.2699  0.0172
 1731SOL     OW 6976   1.103   4.658   3.136  0.2735 -0.4549  0.0203
 1731SOL    HW2 6977   1.188   4.691   3.106  0.0576 -1.6459 -1.9126
 1731SOL    HW3 6978   1.044   4.733   3.128  0.5784 -0.3213 -1.0460
 1731SOL    MW4 6979   1.107   4.672   3.131  0.2851 -0.5944 -0.3755
 1732SOL     OW 6980   0.900   0.164   3.028  0.1440  0.0695  0.2799
 1732SOL    HW2 6981   0.909   0.254   3.058  0.1705  0.8433 -1.9285
 1732SOL    HW3 6982   0.825   0.129   3.075 -1.1736  1.9274 -0.4288
 1732SOL    MW4 6983   0.892   0.171   3.038 -0.0263  0.4167 -0.1049
 1733SOL     OW 6984   0.895   0.428   3.123 -0.5137 -0.1736  0.3382
 1733SOL    HW2 6985   0.923   0.426   3.215  0.5824 -2.2163 -0.0230
 1733SOL    HW3 6986   0.970   0.466   3.076 -0.3740 -0.8084  0.0500
 1733SOL    MW4 6987   0.909   0.433   3.129 -0.3507 -0.5268  0.2525
 1734SOL     OW 6988   1.147   0.490   2.994  0.5563  0.1814 -0.1165
 1734SOL    HW2 6989   1.213   0.431   3.031 -0.5701 -0.6927  0.5121
 1734SOL    HW3 6990   1.167   0.492   2.900  1.7013  0.2264  0.1148
 1734SOL    MW4 6991   1.158   0.483   2.986  0.5587  0.0720 -0.0033
 1735SOL     OW 6992   1.162   0.749   3.119  0.5984  0.4768  0.5258
 1735SOL    HW2 6993   1.156   0.749   3.214  1.1130 -0.5150  0.5681
 1735SOL    HW3 6994   1.146   0.658   3.094  1.3610  0.5556 -0.2703
 1735SOL    MW4 6995   1.159   0.737   3.128  0.7670  0.3564  0.4268
 1736SOL     OW 6996   0.946   0.877   3.018  0.0896 -0.0682 -0.1369
 1736SOL    HW2 6997   1.017   0.834   3.066  0.8704  0.8801 -0.4345
 1736SOL    HW3 6998   0.867   0.830   3.045  0.8527 -1.2408  0.0608
 1736SOL    MW4 6999   0.945   0.865   3.028  0.2933 -0.0978 -0.1500
 1737SOL     OW 7000   0.886   1.144   3.112 -0.0637 -0.5192 -0.1259
 1737SOL    HW2 7001   0.967   1.192   3.098 -0.4155 -0.1494 -0.9103
 1737SOL    HW3 7002   0.905   1.055   3.082 -0.2393 -0.1931 -1.2316
 1737SOL    MW4 7003   0.899   1.138   3.106 -0.1334 -0.4275 -0.3753
 1738SOL     OW 7004   1.125   1.256   3.036 -0.7945  0.1071  0.0801
 1738SOL    HW2 7005   1.215   1.226   3.046 -0.3809  1.8566  1.9823
 1738SOL    HW3 7006   1.115   1.271   2.942  1.3434  1.1925  0.0033
 1738SOL    MW4 7007   1.136   1.254   3.025 -0.4578  0.4810  0.3211
 1739SOL     OW 7008   1.127   1.526   3.120 -0.1116 -0.1044  0.5632
 1739SOL    HW2 7009   1.205   1.575   3.094 -0.2988 -0.6158 -0.9870
 1739SOL    HW3 7010   1.146   1.435   3.096 -0.8353 -0.3668  0.9704
 1739SOL    MW4 7011   1.139   1.521   3.113 -0.2320 -0.2065  0.4122
 1740SOL     OW 7012   0.900   1.662   3.034  0.7922 -0.1600 -0.1476
 1740SOL    HW2 7013   0.976   1.608   3.056 -0.8736 -2.4961  0.0223
 1740SOL    HW3 7014   0.826   1.621   3.079 -0.6402  1.9290 -0.4920
 1740SOL    MW4 7015   0.900   1.649   3.042  0.3834 -0.1925 -0.1707
 1741SOL     OW 7016   0.880   1.941   3.112  0.3371 -0.4586  0.4423
 1741SOL    HW2 7017   0.894   1.941   3.207  1.0102 -2.1447  0.3741
 1741SOL    HW3 7018   0.877   1.848   3.089  1.0215 -0.0654 -1.3035
 1741SOL    MW4 7019   0.882   1.928   3.122  0.5162 -0.6291  0.2027
 1742SOL     OW 7020   1.106   2.103   3.045 -0.3558  0.0908 -0.0667
 1742SOL    HW2 7021   1.015   2.078   3.059 -0.5811  0.9168 -0.0283
 1742SOL    HW3 7022   1.125   2.074   2.955 -0.9214  0.6916 -0.3875
 1742SOL    MW4 7023   1.096   2.096   3.035 -0.4600  0.2794 -0.1040
 1743SOL     OW 7024   1.121   2.382   3.103  0.3998  0.1091  0.1786
 1743SOL    HW2 7025   1.034   2.416   3.079  0.6291  0.3232 -0.3635
 1743SOL    HW3 7026   1.122   2.293   3.069 -0.3626 -0.6198  1.9784
 1743SOL    MW4 7027   1.110   2.375   3.096  0.3295  0.0408  0.3445
 1744SOL     OW 7028   0.896   2.507   3.000 -0.2522 -0.0601 -0.3751
 1744SOL    HW2 7029   0.815   2.472   3.038 -0.8857  1.1021 -0.6486
 1744SOL    HW3 7030   0.903   2.464   2.915 -0.7171  0.0384 -0.4619
 1744SOL    MW4 7031   0.886   2.496   2.994 -0.3971  0.1063 -0.4227
 1745SOL     OW 7032   0.910   2.738   3.148  0.1537  0.3288 -0.3706
 1745SOL    HW2 7033   0.911   2.740   3.244 -0.5059  0.0589 -0.3562
 1745SOL    HW3 7034   0.903   2.645   3.126 -0.9442  0.4764 -0.6646
 1745SOL    MW4 7035   0.909   2.726   3.158 -0.0782  0.3128 -0.4075
 1746SOL     OW 7036   1.142   2.859   3.039 -0.0702  0.1061  0.1648
 1746SOL    HW2 7037   1.129   2.952   3.055  0.7644  0.1957  0.3266
 1746SOL    HW3 7038   1.066   2.817   3.080  0.0498  0.6377  0.9353
 1746SOL    MW4 7039   1.130   2.866   3.047  0.0558  0.1884  0.2875
 1747SOL     OW 7040   1.117   3.124   3.120 -0.3506  0.2893  0.3156
 1747SOL    HW2 7041   1.191   3.167   3.077  1.5641 -2.3196  0.8619
 1747SOL    HW3 7042   1.042   3.180   3.100  1.7207  2.9366 -0.3695
 1747SOL    MW4 7043   1.117   3.137   3.111  0.1755  0.2944  0.2973
 1748SOL     OW 7044   0.887   3.255   3.040  0.3015 -0.5223 -0.3598
 1748SOL    HW2 7045   0.819   3.198   3.076 -1.1263  1.1615 -0.3251
 1748SOL    HW3 7046   0.882   3.241   2.945  0.5966 -1.1526 -0.2834
 1748SOL    MW4 7047   0.877   3.245   3.032  0.1521 -0.3836 -0.3452
 1749SOL     OW 7048   0.869   3.530   3.109  0.0972  0.1241  0.1163
 1749SOL    HW2 7049   0.952   3.575   3.094 -0.2318  0.5619 -0.3773
 1749SOL    HW3 7050   0.887   3.439   3.084  0.3680  0.2579 -0.1732
 1749SOL    MW4 7051   0.882   3.524   3.104  0.0895  0.1996  0.0131
 1750SOL     OW 7052   1.150   3.633   3.015 -0.0403  0.1820 -0.0493
 1750SOL    HW2 7053   1.232   3.607   3.058 -0.3680 -0.2341  0.3343
 1750SOL    HW3 7054   1.143   3.727   3.031 -0.2510 -0.0035  0.9766
 1750SOL    MW4 7055   1.160   3.642   3.023 -0.1113  0.1025  0.1369
 1751SOL     OW 7056   1.129   3.898   3.092  0.1773  0.7238 -0.0720
 1751SOL    HW2 7057   1.126   3.894   3.187 -0.3775  0.2072 -0.1149
 1751SOL    HW3 7058   1.054   3.952   3.067 -0.2317  0.0665 -0.2703
 1751SOL    MW4 7059   1.119   3.905   3.101  0.0502  0.5689 -0.1037
 1752SOL     OW 7060   0.882   4.021   3.026  0.4749 -0.0146  0.1587
 1752SOL    HW2 7061   0.807   3.969   3.052  1.1193 -0.5924  0.8927
 1752SOL    HW3 7062   0.880   4.019   2.930 -0.4989  0.0734  0.1725
 1752SOL    MW4 7063   0.872   4.014   3.016  0.4315 -0.0796  0.2573
 1753SOL     OW 7064   0.893   4.287   3.136 -0.1422  0.1587 -0.3546
 1753SOL    HW2 7065   0.878   4.197   3.107  1.2369  0.4107 -1.9221
 1753SOL    HW3 7066   0.822   4.337   3.095  1.3604  0.3889 -2.7528
 1753SOL    MW4 7067   0.882   4.281   3.127  0.2380  0.2217 -0.8779
 1754SOL     OW 7068   1.117   4.403   3.018 -0.4349 -0.4001  0.9618
 1754SOL    HW2 7069   1.056   4.346   3.064 -1.7242  0.3067  0.1720
 1754SOL    HW3 7070   1.104   4.489   3.057  0.0087 -0.2311  0.7402
 1754SOL    MW4 7071   1.107   4.407   3.029 -0.5465 -0.2847  0.8285
 1755SOL     OW 7072   1.607   4.664   3.132 -0.1540 -0.1877  0.7719
 1755SOL    HW2 7073   1.606   4.643   3.225 -2.1512 -1.3714  0.5142
 1755SOL    HW3 7074   1.522   4.704   3.115 -0.2264 -0.9407 -0.7405
 1755SOL    MW4 7075   1.596   4.666   3.142 -0.4270 -0.4430  0.5383
 1756SOL     OW 7076   1.367   0.086   3.056 -0.3974  0.2802 -0.1890
 1756SOL    HW2 7077   1.373   0.179   3.077  1.3425  0.0592  0.3653
 1756SOL    HW3 7078   1.378   0.081   2.961  1.6929  0.4599  0.0395
 1756SOL    MW4 7079   1.369   0.097   3.047  0.1079  0.2748 -0.0856
 1757SOL     OW 7080   1.355   0.360   3.131 -0.0563  0.2825 -0.0700
 1757SOL    HW2 7081   1.368   0.370   3.225  0.9288  0.3891 -0.2207
 1757SOL    HW3 7082   1.424   0.412   3.091  0.4512 -0.9871 -0.8654
 1757SOL    MW4 7083   1.366   0.368   3.138  0.1405  0.1290 -0.1948
 1758SOL     OW 7084   1.597   0.466   3.015 -0.0236 -0.2828 -0.0128
 1758SOL    HW2 7085   1.588   0.549   3.062  2.3055 -0.2619  0.4419
 1758SOL    HW3 7086   1.589   0.489   2.923  2.6955  0.8140 -0.0271
 1758SOL    MW4 7087   1.595   0.480   3.009  0.6424 -0.1353  0.0455
 1759SOL     OW 7088   1.571   0.714   3.126  0.3752 -0.4330 -0.5025
 1759SOL    HW2 7089   1.555   0.728   3.220  2.0054 -0.4216 -0.2078
 1759SOL    HW3 7090   1.500   0.760   3.082 -0.6978 -0.8683  0.7360
 1759SOL    MW4 7091   1.560   0.722   3.133  0.4486 -0.4889 -0.3004
 1760SOL     OW 7092   1.385   0.888   3.023 -0.2167 -0.4057  0.1571
 1760SOL    HW2 7093   1.387   0.980   3.052 -1.1374  0.0350 -1.1178
 1760SOL    HW3 7094   1.298   0.857   3.048 -0.5490 -0.4017 -0.9783
 1760SOL    MW4 7095   1.374   0.896   3.030 -0.3821 -0.3470 -0.1607
 1761SOL     OW 7096   1.371   1.159   3.115 -0.3339  0.0215 -0.2203
 1761SOL    HW2 7097   1.353   1.160   3.209  0.2622  0.4752 -0.1087
 1761SOL    HW3 7098   1.445   1.219   3.104 -2.3400  2.3779 -1.3887
 1761SOL    MW4 7099   1.379   1.167   3.126 -0.5199  0.3923 -0.3598
 1762SOL     OW 7100   1.609   1.296   3.052  0.1637 -0.0946  0.3019
 1762SOL    HW2 7101   1.694   1.256   3.068 -1.0699 -1.8061  2.8878
 1762SOL    HW3 7102   1.621   1.388   3.075  1.3727 -0.2496  0.3273
 1762SOL    MW4 7103   1.622   1.303   3.057  0.1605 -0.3408  0.6464
 1763SOL     OW 7104   1.616   1.566   3.123 -0.2536  0.1049  0.0697
 1763SOL    HW2 7105   1.673   1.628   3.077  0.9250 -0.0635  1.2664
 1763SOL    HW3 7106   1.527   1.595   3.102  0.2795  1.2860 -0.6118
 1763SOL    MW4 7107   1.612   1.578   3.114 -0.0278  0.2385  0.1376
 1764SOL     OW 7108   1.361   1.669   3.061 -0.2225 -0.6968  0.0672
 1764SOL    HW2 7109   1.381   1.760   3.085  0.0463 -0.3764 -1.3217
 1764SOL    HW3 7110   1.354   1.671   2.966 -1.4054 -1.9099  0.1200
 1764SOL    MW4 7111   1.363   1.681   3.052 -0.3430 -0.8143 -0.1090
 1765SOL     OW 7112   1.337   1.934   3.145 -0.5977 -0.3775  0.5826
 1765SOL    HW2 7113   1.353   1.972   3.231 -1.9523  0.5694  0.4321
 1765SOL    HW3 7114   1.253   1.971   3.118 -0.9481 -1.9104 -0.4569
 1765SOL    MW4 7115   1.328   1.944   3.153 -0.8225 -0.4548  0.4253
 1766SOL     OW 7116   1.583   2.057   3.031 -0.0191 -0.4566  0.2962
 1766SOL    HW2 7117   1.495   2.020   3.038 -0.1432 -0.2588 -0.1659
 1766SOL    HW3 7118   1.585   2.096   2.943  0.5268 -0.4570  0.3084
 1766SOL    MW4 7119   1.572   2.057   3.020  0.0366 -0.4306  0.2367
 1767SOL     OW 7120   1.557   2.340   3.135  0.1291  0.0335  0.6951
 1767SOL    HW2 7121   1.487   2.393   3.097  1.4320  1.2883  0.0162
 1767SOL    HW3 7122   1.534   2.250   3.111  0.0636  0.6493 -1.6559
 1767SOL    MW4 7123   1.545   2.335   3.127  0.2923  0.2801  0.2954
 1768SOL     OW 7124   1.351   2.473   2.987  0.2860 -0.3266 -0.1841
 1768SOL    HW2 7125   1.262   2.445   3.009  0.3147 -0.1582  0.1586
 1768SOL    HW3 7126   1.356   2.465   2.892  0.0071 -0.6346 -0.1736
 1768SOL    MW4 7127   1.340   2.468   2.978  0.2531 -0.3448 -0.1376
 1769SOL     OW 7128   1.365   2.702   3.137  0.2164  0.0452  0.4816
 1769SOL    HW2 7129   1.343   2.630   3.077  0.3838 -1.3378  2.0390
 1769SOL    HW3 7130   1.297   2.767   3.122 -0.8652 -1.1293  0.1664
 1769SOL    MW4 7131   1.353   2.701   3.127  0.0957 -0.2923  0.6454
 1770SOL     OW 7132   1.552   2.850   2.996  0.6069 -0.1162  0.4037
 1770SOL    HW2 7133   1.635   2.816   3.029  0.3910  0.4595  1.5597
 1770SOL    HW3 7134   1.485   2.811   3.052  0.1729  0.2877  0.1790
 1770SOL    MW4 7135   1.554   2.840   3.007  0.5213  0.0134  0.5267
 1771SOL     OW 7136   1.602   3.132   3.116  0.5531 -0.2944 -0.0110
 1771SOL    HW2 7137   1.588   3.114   3.209  0.5529  0.8456  0.2226
 1771SOL    HW3 7138   1.586   3.049   3.072  1.5437 -1.0850  1.1096
 1771SOL    MW4 7139   1.598   3.119   3.122  0.6837 -0.2484  0.1676
 1772SOL     OW 7140   1.360   3.258   3.006 -0.4665  0.1361 -0.0923
 1772SOL    HW2 7141   1.447   3.231   3.036  0.1339  2.0903  0.0181
 1772SOL    HW3 7142   1.362   3.243   2.911  0.3762  1.1300 -0.2438
 1772SOL    MW4 7143   1.372   3.253   2.997 -0.2762  0.5250 -0.0978
 1773SOL     OW 7144   1.361   3.507   3.143 -0.1755 -0.0179 -0.3999
 1773SOL    HW2 7145   1.345   3.480   3.234 -1.7617 -1.1733 -0.9908
 1773SOL    HW3 7146   1.350   3.426   3.093  1.3690  0.4769 -1.5612
 1773SOL    MW4 7147   1.358   3.493   3.149 -0.1810 -0.1051 -0.6313
 1774SOL     OW 7148   1.584   3.632   3.038  0.3588  0.0641 -0.6033
 1774SOL    HW2 7149   1.509   3.585   3.073  1.2398 -0.3347  0.8287
 1774SOL    HW3 7150   1.577   3.624   2.943 -2.7236  2.0938 -0.6008
 1774SOL    MW4 7151   1.573   3.625   3.030  0.0684  0.2794 -0.4141
 1775SOL     OW 7152   1.558   3.885   3.120  0.3981 -0.1537  0.1268
 1775SOL    HW2 7153   1.643   3.923   3.097  0.1155  0.1039 -0.5191
 1775SOL    HW3 7154   1.564   3.794   3.090 -0.2943  0.4210 -1.8709
 1775SOL    MW4 7155   1.570   3.878   3.113  0.2695 -0.0443 -0.2222
 1776SOL     OW 7156   1.358   4.036   3.005  0.1084  0.1625  0.0875
 1776SOL    HW2 7157   1.430   3.986   3.044 -0.2250 -0.4184 -0.0365
 1776SOL    HW3 7158   1.279   4.000   3.044 -0.0894  1.2833  0.7632
 1776SOL    MW4 7159   1.357   4.025   3.015  0.0383  0.2337  0.1602
 1777SOL     OW 7160   1.331   4.283   3.134 -0.1383 -0.4966  0.2682
 1777SOL    HW2 7161   1.331   4.204   3.080 -0.3265 -0.5609  0.3645
 1777SOL    HW3 7162   1.261   4.337   3.097  2.0286  1.0112 -1.8563
 1777SOL    MW4 7163   1.322   4.280   3.122  0.1227 -0.3061  0.0007
 1778SOL     OW 7164   1.549   4.416   3.003  0.0246  0.3182 -0.1516
 1778SOL    HW2 7165   1.478   4.369   3.047  0.4598  0.1993  0.4278
 1778SOL    HW3 7166   1.564   4.493   3.058  0.9920 -0.1565  0.2563
 1778SOL    MW4 7167   1.542   4.420   3.016  0.2097  0.2394 -0.0210
 1779SOL     OW 7168   2.070   4.655   3.125 -0.2342  0.7195 -0.1261
 1779SOL    HW2 7169   2.078   4.668   3.219  0.4341 -0.9875  0.0635
 1779SOL    HW3 7170   1.983   4.690   3.103  0.6042  3.4498  0.6689
 1779SOL    MW4 7171   2.060   4.661   3.134 -0.0353  0.8540  0.0038
 1780SOL     OW 7172   1.844   0.118   3.038  0.0484  0.1875  0.4281
 1780SOL    HW2 7173   1.761   0.086   3.075  1.2273 -3.0358  0.4136
 1780SOL    HW3 7174   1.827   0.125   2.944 -0.0241 -1.0610  0.3455
 1780SOL    MW4 7175   1.831   0.115   3.030  0.1944 -0.4025  0.4153
 1781SOL     OW 7176   1.836   0.374   3.137  0.3448  0.1555 -0.3508
 1781SOL    HW2 7177   1.846   0.283   3.109  0.8582 -0.3634  1.4804
 1781SOL    HW3 7178   1.763   0.407   3.085  0.8467 -0.9807 -1.8104
 1781SOL    MW4 7179   1.828   0.366   3.126  0.4789 -0.0629 -0.3016
 1782SOL     OW 7180   2.057   0.504   3.055 -0.1355  0.0388 -0.2594
 1782SOL    HW2 7181   1.975   0.471   3.090 -1.8764  2.6524 -1.7262
 1782SOL    HW3 7182   2.043   0.510   2.961  1.6230  0.8109 -0.5034
 1782SOL    MW4 7183   2.044   0.501   3.047 -0.1333  0.4855 -0.4852
 1783SOL     OW 7184   2.038   0.790   3.151  0.0168  0.1508 -0.0945
 1783SOL    HW2 7185   1.968   0.822   3.094 -0.5149 -1.1128 -0.1617
 1783SOL    HW3 7186   2.052   0.700   3.122  0.4503 -0.1634  1.1053
 1783SOL    MW4 7187   2.031   0.782   3.139  0.0038 -0.0575  0.0551
 1784SOL     OW 7188   1.801   0.862   3.021  0.5186 -0.3271 -0.0002
 1784SOL    HW2 7189   1.723   0.817   3.053  1.3273 -1.4712  0.3771
 1784SOL    HW3 7190   1.787   0.871   2.927 -0.9088  1.1678  0.3196
 1784SOL    MW4 7191   1.789   0.857   3.013  0.4369 -0.2809  0.0920
 1785SOL     OW 7192   1.852   1.119   3.079 -0.1606  0.1760 -0.2115
 1785SOL    HW2 7193   1.847   1.132   3.174 -0.6241  0.6831 -0.2996
 1785SOL    HW3 7194   1.824   1.028   3.066  0.7526 -0.1628  0.2105
 1785SOL    MW4 7195   1.847   1.109   3.090 -0.1012  0.1981 -0.1674
 1786SOL     OW 7196   2.049   1.306   3.070  0.4700  0.1074 -0.3099
 1786SOL    HW2 7197   2.132   1.259   3.084  0.2226 -0.4624 -0.7234
 1786SOL    HW3 7198   1.983   1.238   3.070 -0.1064  0.6570  0.8574
 1786SOL    MW4 7199   2.051   1.291   3.072  0.3612  0.1048 -0.2105
 1787SOL     OW 7200   2.037   1.570   3.131  0.0431 -0.0223 -0.1106
 1787SOL    HW2 7201   2.057   1.573   3.224  0.4651  0.4384 -0.2112
 1787SOL    HW3 7202   2.040   1.477   3.109  1.2952 -0.0418  0.0565
 1787SOL    MW4 7203   2.040   1.558   3.140  0.2642  0.0359 -0.1020
 1788SOL     OW 7204   1.811   1.725   3.023 -0.0715 -0.0268  0.2867
 1788SOL    HW2 7205   1.793   1.812   3.059  0.5804 -0.4683  1.7372
 1788SOL    HW3 7206   1.894   1.700   3.064  0.4846 -0.7173 -1.2483
 1788SOL    MW4 7207   1.820   1.734   3.033  0.0879 -0.1761  0.2759
 1789SOL     OW 7208   1.828   1.977   3.125 -0.0010 -0.6667  0.7161
 1789SOL    HW2 7209   1.899   2.014   3.072  0.4986 -1.1374  1.0439
 1789SOL    HW3 7210   1.749   2.018   3.091  0.3183 -0.9014 -0.3390
 1789SOL    MW4 7211   1.827   1.987   3.113  0.1070 -0.7598  0.6201
 1790SOL     OW 7212   2.019   2.073   2.970  0.4074 -0.0929 -0.4902
 1790SOL    HW2 7213   2.095   2.051   3.024  0.0764 -1.5273 -0.5980
 1790SOL    HW3 7214   1.994   2.161   2.999  1.0269 -0.3248  0.7688
 1790SOL    MW4 7215   2.026   2.082   2.981  0.4454 -0.3128 -0.3381
 1791SOL     OW 7216   2.008   2.328   3.088 -0.5454  0.3141  0.1940
 1791SOL    HW2 7217   2.081   2.382   3.058  0.2483 -0.8903 -0.0682
 1791SOL    HW3 7218   1.930   2.381   3.071  0.2546  1.6172  0.4880
 1791SOL    MW4 7219   2.007   2.342   3.082 -0.3352  0.3271  0.1979
 1792SOL     OW 7220   1.782   2.490   3.049  0.1062  0.3843  0.1896
 1792SOL    HW2 7221   1.775   2.581   3.079 -0.2569  0.9716 -1.6210
 1792SOL    HW3 7222   1.696   2.452   3.069 -0.0454  0.6881  0.1190
 1792SOL    MW4 7223   1.770   2.497   3.056  0.0381  0.5016 -0.0587
 1793SOL     OW 7224   1.785   2.767   3.128  0.2842 -0.1235  0.1710
 1793SOL    HW2 7225   1.790   2.759   3.223  0.6082 -0.7640  0.1084
 1793SOL    HW3 7226   1.870   2.803   3.102  1.4684 -2.9378 -0.1394
 1793SOL    MW4 7227   1.797   2.771   3.137  0.4833 -0.5796  0.1221
 1794SOL     OW 7228   2.035   2.877   3.054  0.1204  0.3271 -0.1899
 1794SOL    HW2 7229   2.041   2.971   3.074 -1.5730  0.1482  1.3752
 1794SOL    HW3 7230   2.020   2.873   2.960 -0.3092  1.6674 -0.1871
 1794SOL    MW4 7231   2.034   2.889   3.045 -0.1597  0.4804  0.0169
 1795SOL     OW 7232   2.043   3.158   3.137 -0.5311  0.2130 -0.1747
 1795SOL    HW2 7233   2.021   3.162   3.230  0.8678  0.6977  0.1479
 1795SOL    HW3 7234   1.973   3.207   3.094 -0.9580  0.3502  0.6630
 1795SOL    MW4 7235   2.031   3.165   3.144 -0.4032  0.2952 -0.0215
 1796SOL     OW 7236   1.813   3.287   3.026 -0.3956  1.0616  0.0580
 1796SOL    HW2 7237   1.734   3.241   3.053 -0.6809  1.1642 -0.5903
 1796SOL    HW3 7238   1.823   3.265   2.934  1.2328 -0.2417  0.5427
 1796SOL    MW4 7239   1.804   3.278   3.018 -0.2183  0.9031  0.0362
 1797SOL     OW 7240   1.803   3.523   3.159  0.4455 -0.4423  0.1330
 1797SOL    HW2 7241   1.812   3.440   3.112  0.6052 -0.4487  0.1738
 1797SOL    HW3 7242   1.717   3.556   3.133 -0.5389 -1.6473  1.7543
 1797SOL    MW4 7243   1.793   3.517   3.149  0.3368 -0.6020  0.3524
 1798SOL     OW 7244   2.008   3.684   3.039  0.0010  0.0209 -0.1459
 1798SOL    HW2 7245   1.989   3.775   3.063 -0.1678 -0.2039  0.5584
 1798SOL    HW3 7246   1.939   3.633   3.082 -0.3395 -0.3722 -1.1413
 1798SOL    MW4 7247   1.996   3.689   3.048 -0.0662 -0.0606 -0.1843
 1799SOL     OW 7248   1.988   3.935   3.139 -0.0268 -0.1418  0.3659
 1799SOL    HW2 7249   1.979   3.951   3.232 -0.0437  1.3385  0.1192
 1799SOL    HW3 7250   1.901   3.949   3.103  0.6143  2.3523 -0.2961
 1799SOL    MW4 7251   1.975   3.939   3.146  0.0557  0.3824  0.2460
 1800SOL     OW 7252   1.772   3.989   2.991 -0.4892  0.5749  0.1452
 1800SOL    HW2 7253   1.763   4.081   3.015 -0.0644  0.4651  0.7599
 1800SOL    HW3 7254   1.791   3.990   2.897 -2.3854  1.0068 -0.2409
 1800SOL    MW4 7255   1.773   4.001   2.982 -0.6834  0.6175  0.1755
 1801SOL     OW 7256   1.759   4.248   3.094  0.2481  0.9312 -0.2452
 1801SOL    HW2 7257   1.835   4.306   3.086 -0.7170  2.1369 -0.9965
 1801SOL    HW3 7258   1.686   4.302   3.065 -0.9555 -0.0859  0.8432
 1801SOL    MW4 7259   1.760   4.263   3.089 -0.0380  0.9565 -0.2010
 1802SOL     OW 7260   1.977   4.413   3.020 -0.2887 -0.5667 -0.5225
 1802SOL    HW2 7261   2.013   4.491   3.060 -0.1268 -0.3990 -0.9957
 1802SOL    HW3 7262   1.985   4.428   2.926 -0.9127 -0.8399 -0.6227
 1802SOL    MW4 7263   1.983   4.425   3.013 -0.3496 -0.5798 -0.5980
 1803SOL     OW 7264   2.446   4.628   3.126  0.7397  0.0954 -0.1419
 1803SOL    HW2 7265   2.458   4.545   3.079  1.0250 -0.0842  0.2372
 1803SOL    HW3 7266   2.373   4.671   3.082  1.2099  0.0739 -0.9451
 1803SOL    MW4 7267   2.438   4.623   3.114  0.8392  0.0691 -0.1981
 1804SOL     OW 7268   2.278   0.133   3.002 -0.0805  0.1244  0.2571
 1804SOL    HW2 7269   2.295   0.213   3.052 -0.1758  0.7119 -0.6544
 1804SOL    HW3 7270   2.189   0.107   3.027 -0.4830  0.9434 -0.3381
 1804SOL    MW4 7271   2.268   0.140   3.012 -0.1457  0.3100  0.0584
 1805SOL     OW 7272   2.266   0.378   3.159 -0.0799 -0.0726  0.2600
 1805SOL    HW2 7273   2.263   0.389   3.254 -0.0927  0.3383  0.2118
 1805SOL    HW3 7274   2.185   0.417   3.127  0.5090  0.9235 -0.0299
 1805SOL    MW4 7275   2.255   0.385   3.167 -0.0038  0.1130  0.2153
 1806SOL     OW 7276   2.513   0.495   3.071  0.4444  0.1687 -0.0845
 1806SOL    HW2 7277   2.431   0.461   3.106  0.2608  1.5066  0.8161
 1806SOL    HW3 7278   2.500   0.498   2.976  0.0362 -1.0923 -0.0811
 1806SOL    MW4 7279   2.501   0.491   3.063  0.3664  0.1789  0.0348
 1807SOL     OW 7280   2.488   0.757   3.141  0.4231 -0.3228 -0.1148
 1807SOL    HW2 7281   2.566   0.797   3.103  0.0845 -0.7414 -1.2849
 1807SOL    HW3 7282   2.498   0.663   3.123 -0.2647 -0.4003 -0.1131
 1807SOL    MW4 7283   2.500   0.750   3.134  0.2873 -0.3883 -0.2689
 1808SOL     OW 7284   2.271   0.885   3.042  0.3858 -0.1249  0.0036
 1808SOL    HW2 7285   2.339   0.826   3.074  0.9780  1.3041  1.4753
 1808SOL    HW3 7286   2.194   0.865   3.095  0.8770  1.0871  1.1946
 1808SOL    MW4 7287   2.270   0.875   3.053  0.5288  0.2235  0.3550
 1809SOL     OW 7288   2.275   1.159   3.123  0.3088 -0.3111 -0.2716
 1809SOL    HW2 7289   2.272   1.162   3.219 -1.7420 -0.5076 -0.3024
 1809SOL    HW3 7290   2.284   1.067   3.102  1.2553 -0.2208 -0.2589
 1809SOL    MW4 7291   2.276   1.148   3.133  0.1628 -0.3250 -0.2739
 1810SOL     OW 7292   2.471   1.307   3.025 -0.4295  0.4789 -0.7571
 1810SOL    HW2 7293   2.403   1.252   3.064 -0.1708 -0.4365 -1.5958
 1810SOL    HW3 7294   2.466   1.289   2.931 -0.0967  1.6126 -0.9997
 1810SOL    MW4 7295   2.461   1.297   3.018 -0.3517  0.5077 -0.8996
 1811SOL     OW 7296   2.482   1.581   3.150 -0.2058 -0.0355  0.0602
 1811SOL    HW2 7297   2.403   1.616   3.107 -1.7076 -0.7137  2.1769
 1811SOL    HW3 7298   2.491   1.492   3.115 -1.0532 -0.3630  0.6615
 1811SOL    MW4 7299   2.472   1.574   3.140 -0.5159 -0.1682  0.4187
 1812SOL     OW 7300   2.253   1.691   3.037 -0.4680 -0.1793  0.2450
 1812SOL    HW2 7301   2.180   1.640   3.072  0.0523 -1.4588 -0.4805
 1812SOL    HW3 7302   2.264   1.659   2.948  1.2258 -0.3024  0.4689
 1812SOL    MW4 7303   2.245   1.680   3.030 -0.1760 -0.3643  0.1788
 1813SOL     OW 7304   2.205   1.946   3.120 -0.4901 -0.0756  0.1659
 1813SOL    HW2 7305   2.292   1.981   3.099 -0.8111  0.3750 -0.4201
 1813SOL    HW3 7306   2.203   1.860   3.079 -0.9470  0.6140 -1.3033
 1813SOL    MW4 7307   2.216   1.939   3.112 -0.5927  0.0750 -0.1051
 1814SOL     OW 7308   2.452   2.047   3.024  0.1224 -0.1388 -0.6799
 1814SOL    HW2 7309   2.531   2.006   3.059  0.1309 -0.3269 -0.9172
 1814SOL    HW3 7310   2.464   2.044   2.929  0.0827  0.3387 -0.6976
 1814SOL    MW4 7311   2.464   2.041   3.016  0.1185 -0.1006 -0.7136
 1815SOL     OW 7312   2.453   2.322   3.114 -0.0197  0.2822  0.2942
 1815SOL    HW2 7313   2.444   2.323   3.210 -2.0476 -0.1380  0.1236
 1815SOL    HW3 7314   2.475   2.231   3.094 -0.3027  0.2086  0.3116
 1815SOL    MW4 7315   2.455   2.310   3.124 -0.3245  0.2170  0.2742
 1816SOL     OW 7316   2.242   2.446   2.997  0.1084 -0.1811 -0.2644
 1816SOL    HW2 7317   2.250   2.531   3.039  0.4001  0.0973 -0.8758
 1816SOL    HW3 7318   2.319   2.397   3.025  0.7767  0.3204 -1.1808
 1816SOL    MW4 7319   2.253   2.451   3.006  0.2351 -0.0782 -0.4659
 1817SOL     OW 7320   2.234   2.688   3.117 -0.4659  0.2620 -0.4659
 1817SOL    HW2 7321   2.308   2.740   3.085  0.0083  0.4388  0.8555
 1817SOL    HW3 7322   2.159   2.748   3.113 -0.0250  0.9043  0.5524
 1817SOL    MW4 7323   2.234   2.703   3.112 -0.3452  0.3700 -0.1571
 1818SOL     OW 7324   2.431   2.847   3.019  0.2982  0.0112  0.3955
 1818SOL    HW2 7325   2.417   2.939   3.040 -0.2147 -0.2940  1.4003
 1818SOL    HW3 7326   2.428   2.844   2.923  1.4891  1.2191  0.2966
 1818SOL    MW4 7327   2.429   2.859   3.009  0.3877  0.1302  0.5147
 1819SOL     OW 7328   2.462   3.135   3.095  0.2200  0.3109 -0.0597
 1819SOL    HW2 7329   2.545   3.159   3.054  0.5069  0.1799  0.4454
 1819SOL    HW3 7330   2.401   3.204   3.069  0.0018 -0.5818 -1.9865
 1819SOL    MW4 7331   2.465   3.147   3.086  0.2291  0.1757 -0.2475
 1820SOL     OW 7332   2.243   3.321   3.040  0.1091 -0.5466 -0.0781
 1820SOL    HW2 7333   2.215   3.405   3.076 -0.4865 -0.2452 -1.2180
 1820SOL    HW3 7334   2.175   3.259   3.068 -1.4862  0.0915 -2.4316
 1820SOL    MW4 7335   2.230   3.324   3.048 -0.1800 -0.4227 -0.5388
 1821SOL     OW 7336   2.224   3.562   3.179  0.5140  0.0826 -0.3395
 1821SOL    HW2 7337   2.312   3.597   3.165  0.2321  0.8825 -0.0933
 1821SOL    HW3 7338   2.169   3.611   3.119  0.4264 -1.2822 -1.4100
 1821SOL    MW4 7339   2.228   3.573   3.169  0.4652  0.0081 -0.4482
 1822SOL     OW 7340   2.464   3.666   3.035  0.1712 -0.0438  0.0163
 1822SOL    HW2 7341   2.537   3.612   3.064 -0.8059 -1.2857  0.2384
 1822SOL    HW3 7342   2.484   3.754   3.068  1.0497 -0.5943  0.9735
 1822SOL    MW4 7343   2.476   3.671   3.043  0.1581 -0.2801  0.1721
 1823SOL     OW 7344   2.451   3.941   3.175  0.0419 -0.3411  0.2954
 1823SOL    HW2 7345   2.455   3.940   3.271  0.8178 -1.0933  0.2555
 1823SOL    HW3 7346   2.541   3.959   3.147 -0.2340  0.1482 -0.2883
 1823SOL    MW4 7347   2.464   3.943   3.184  0.1078 -0.3757  0.2131
 1824SOL     OW 7348   2.235   4.057   3.016  0.2182 -0.3653 -0.0918
 1824SOL    HW2 7349   2.309   4.014   3.059  0.4367  0.2867  0.1899
 1824SOL    HW3 7350   2.158   4.021   3.060  0.3724 -0.8764 -0.2322
 1824SOL    MW4 7351   2.235   4.046   3.027  0.2675 -0.3462 -0.0734
 1825SOL     OW 7352   2.223   4.312   3.121  0.0537 -0.1126  0.3685
 1825SOL    HW2 7353   2.236   4.225   3.085 -1.2652 -0.4039  0.5508
 1825SOL    HW3 7354   2.140   4.341   3.084  1.0464  1.5597 -0.6168
 1825SOL    MW4 7355   2.214   4.305   3.112  0.0107  0.0696  0.2625
 1826SOL     OW 7356   2.471   4.369   3.024  0.0171  0.3035  0.5387
 1826SOL    HW2 7357   2.384   4.366   3.063 -0.2375 -1.8549 -0.1348
 1826SOL    HW3 7358   2.454   4.373   2.930  0.6588  1.4558  0.4579
 1826SOL    MW4 7359   2.457   4.369   3.017  0.0682  0.1707  0.4389
 1827SOL     OW 7360   2.916   0.015   3.176 -0.1120 -1.1903  0.7965
 1827SOL    HW2 7361   2.980   0.080   3.148 -0.4856 -0.8092  0.8252
 1827SOL    HW3 7362   2.950  -0.068   3.143  0.0231 -0.8907  0.1806
 1827SOL    MW4 7363   2.929   0.013   3.168 -0.1435 -1.1005  0.7191
 1828SOL     OW 7364   2.698   0.087   3.029 -0.4001  0.3101 -0.0423
 1828SOL    HW2 7365   2.761   0.047   3.090 -0.1968  0.7523  0.0462
 1828SOL    HW3 7366   2.612   0.062   3.064 -0.2762 -1.2673 -0.8184
 1828SOL    MW4 7367   2.695   0.078   3.042 -0.3569  0.1603 -0.1330
 1829SOL     OW 7368   2.728   0.346   3.147 -0.3309  0.0440 -0.0069
 1829SOL    HW2 7369   2.736   0.277   3.081  1.2654 -0.5938  0.8295
 1829SOL    HW3 7370   2.657   0.401   3.115  0.7678  0.0529 -2.5372
 1829SOL    MW4 7371   2.720   0.344   3.134  0.0250 -0.0390 -0.2306
 1830SOL     OW 7372   2.926   0.503   3.050 -0.0879  0.1463 -0.0169
 1830SOL    HW2 7373   2.868   0.442   3.096  0.8490 -0.7678 -0.0364
 1830SOL    HW3 7374   2.925   0.472   2.959  0.9606 -0.2954  0.1160
 1830SOL    MW4 7375   2.918   0.491   3.044  0.1738 -0.0326 -0.0019
 1831SOL     OW 7376   2.930   0.770   3.145 -0.2877  0.0974  0.0341
 1831SOL    HW2 7377   2.941   0.758   3.240  0.4220  1.0210  0.0688
 1831SOL    HW3 7378   2.912   0.682   3.112  0.6681 -0.4177  0.8648
 1831SOL    MW4 7379   2.929   0.757   3.154 -0.0679  0.1513  0.1483
 1832SOL     OW 7380   2.704   0.897   3.038 -0.2526 -0.0048 -0.1663
 1832SOL    HW2 7381   2.706   0.988   3.068  1.7272 -0.0271 -0.1961
 1832SOL    HW3 7382   2.784   0.858   3.074 -1.4093 -1.9318  0.4276
 1832SOL    MW4 7383   2.715   0.904   3.047 -0.1440 -0.2620 -0.0918
 1833SOL     OW 7384   2.673   1.160   3.122  0.4019 -0.1593 -0.2906
 1833SOL    HW2 7385   2.749   1.216   3.104  0.4127  0.2202  0.8676
 1833SOL    HW3 7386   2.598   1.211   3.091  0.4096  0.5234  0.7779
 1833SOL    MW4 7387   2.673   1.174   3.116  0.4044 -0.0192  0.0033
 1834SOL     OW 7388   2.902   1.305   3.046 -0.5450 -0.0026  0.1587
 1834SOL    HW2 7389   2.980   1.272   3.090  1.2914  0.9560 -2.2970
 1834SOL    HW3 7390   2.905   1.400   3.060 -1.7495 -0.0516  0.8015
 1834SOL    MW4 7391   2.913   1.313   3.054 -0.4616  0.1175 -0.0806
 1835SOL     OW 7392   2.916   1.569   3.113  0.0982 -0.0184  0.2558
 1835SOL    HW2 7393   2.913   1.549   3.206  1.0790 -1.0941  0.0677
 1835SOL    HW3 7394   2.999   1.613   3.099  0.4209 -0.7691 -0.2702
 1835SOL    MW4 7395   2.926   1.572   3.123  0.2704 -0.2594  0.1616
 1836SOL     OW 7396   2.696   1.681   3.002  0.5999  0.3233 -0.3627
 1836SOL    HW2 7397   2.775   1.657   3.050  1.0843  1.9984 -0.2855
 1836SOL    HW3 7398   2.626   1.634   3.045  1.4852 -0.7917 -0.1139
 1836SOL    MW4 7399   2.697   1.672   3.014  0.7808  0.3972 -0.3200
 1837SOL     OW 7400   2.689   1.929   3.123  0.2787  0.0575  0.1238
 1837SOL    HW2 7401   2.771   1.974   3.102 -0.0193  0.5144 -0.0547
 1837SOL    HW3 7402   2.699   1.842   3.082  1.3645 -0.4985  1.5236
 1837SOL    MW4 7403   2.701   1.923   3.115  0.3829  0.0445  0.2847
 1838SOL     OW 7404   2.917   2.047   3.037 -0.1588  0.2459 -0.0373
 1838SOL    HW2 7405   2.900   2.139   3.056 -0.0331  0.2418  0.0942
 1838SOL    HW3 7406   2.928   2.044   2.942  0.0898  0.4070 -0.0131
 1838SOL    MW4 7407   2.916   2.059   3.027 -0.1094  0.2663 -0.0167
 1839SOL     OW 7408   2.904   2.319   3.118 -0.0949 -0.0246 -0.2312
 1839SOL    HW2 7409   2.982   2.356   3.076 -0.4018 -0.0258 -0.8174
 1839SOL    HW3 7410   2.833   2.377   3.091 -0.3097 -0.0726  0.2337
 1839SOL    MW4 7411   2.905   2.332   3.109 -0.1636 -0.0310 -0.2472
 1840SOL     OW 7412   2.691   2.461   3.052  0.3093 -0.7002  0.0328
 1840SOL    HW2 7413   2.685   2.551   3.082  0.2765 -0.7290  0.1135
 1840SOL    HW3 7414   2.608   2.421   3.076  0.2534 -0.7028 -0.1666
 1840SOL    MW4 7415   2.680   2.467   3.059  0.2978 -0.7045  0.0174
 1841SOL     OW 7416   2.671   2.730   3.130 -0.3780 -0.0239 -0.2411
 1841SOL    HW2 7417   2.668   2.745   3.225  2.6222  0.5645 -0.1897
 1841SOL    HW3 7418   2.600   2.784   3.096 -0.5709  0.9237  1.5558
 1841SOL    MW4 7419   2.661   2.739   3.138 -0.0074  0.1791  0.0029
 1842SOL     OW 7420   2.912   2.861   3.000 -0.0674 -0.4195 -0.1781
 1842SOL    HW2 7421   2.994   2.826   3.035 -0.6095 -0.8618  0.6593
 1842SOL    HW3 7422   2.844   2.816   3.049 -0.8122  0.1426 -0.6902
 1842SOL    MW4 7423   2.914   2.851   3.011 -0.2372 -0.4039 -0.1354
 1843SOL     OW 7424   2.925   3.084   3.167 -0.0027 -0.2624 -0.2601
 1843SOL    HW2 7425   2.844   3.128   3.142  0.7060  1.2066 -0.0211
 1843SOL    HW3 7426   2.932   3.010   3.106 -0.3122  0.9961 -1.8607
 1843SOL    MW4 7427   2.915   3.080   3.155  0.0501  0.0973 -0.4399
 1844SOL     OW 7428   2.719   3.229   3.044  0.4451 -0.1281 -0.6274
 1844SOL    HW2 7429   2.701   3.317   3.078 -1.6248 -0.8439  0.2183
 1844SOL    HW3 7430   2.697   3.235   2.951 -0.9511 -0.0684 -0.3085
 1844SOL    MW4 7431   2.714   3.241   3.036 -0.0124 -0.2146 -0.4737
 1845SOL     OW 7432   2.663   3.490   3.119 -0.0228  0.2842  0.2893
 1845SOL    HW2 7433   2.681   3.497   3.213  2.1014 -0.6308 -0.0103
 1845SOL    HW3 7434   2.743   3.524   3.078 -1.4443  1.9279 -1.2148
 1845SOL    MW4 7435   2.676   3.496   3.126  0.0699  0.3800  0.0517
 1846SOL     OW 7436   2.910   3.590   3.035  0.4143 -0.0271  0.3710
 1846SOL    HW2 7437   2.986   3.550   3.078 -0.1005 -0.7564  0.6103
 1846SOL    HW3 7438   2.910   3.680   3.065  0.3691 -0.3931  1.4782
 1846SOL    MW4 7439   2.920   3.596   3.044  0.3402 -0.1717  0.5488
 1847SOL     OW 7440   2.939   3.863   3.111  0.0715  0.3562  0.1881
 1847SOL    HW2 7441   2.944   3.868   3.207 -1.6227  0.6251  0.2868
 1847SOL    HW3 7442   2.857   3.909   3.090  0.6545  0.6679 -1.4197
 1847SOL    MW4 7443   2.929   3.870   3.121 -0.0751  0.4330 -0.0112
 1848SOL     OW 7444   2.701   3.985   3.058 -0.1764  0.1013  0.0423
 1848SOL    HW2 7445   2.702   4.079   3.073 -3.0024  0.2150 -0.2425
 1848SOL    HW3 7446   2.693   3.975   2.963 -1.8389 -0.3808  0.2189
 1848SOL    MW4 7447   2.700   3.996   3.048 -0.7687  0.0525  0.0279
 1849SOL     OW 7448   2.723   4.253   3.101 -0.0216  0.3740 -0.2205
 1849SOL    HW2 7449   2.729   4.249   3.196 -0.6635 -0.4348 -0.2075
 1849SOL    HW3 7450   2.639   4.296   3.084 -0.0420  0.2571 -0.4182
 1849SOL    MW4 7451   2.713   4.258   3.111 -0.1094  0.2513 -0.2451
 1850SOL     OW 7452   2.952   4.421   3.057 -0.1842 -0.0793 -0.1689
 1850SOL    HW2 7453   3.021   4.367   3.096 -1.2428  0.6810  2.8294
 1850SOL    HW3 7454   2.874   4.367   3.064 -0.6887  0.7020  0.1765
 1850SOL    MW4 7455   2.951   4.406   3.063 -0.3903  0.1245  0.2723
 1851SOL     OW 7456   3.339   4.643   3.130  0.7532 -0.4420 -0.0724
 1851SOL    HW2 7457   3.417   4.681   3.090  0.0787  0.5694 -0.4444
 1851SOL    HW3 7458   3.336   4.553   3.097  1.2145 -0.1751 -0.8466
 1851SOL    MW4 7459   3.349   4.636   3.120  0.7253 -0.2737 -0.2236
 1852SOL     OW 7460   3.143   0.143   3.032  0.2300 -0.0413 -0.2437
 1852SOL    HW2 7461   3.145   0.222   3.086 -1.7069  0.4259 -0.8178
 1852SOL    HW3 7462   3.211   0.087   3.069  1.2076  1.6385  0.5616
 1852SOL    MW4 7463   3.152   0.146   3.044  0.1032  0.2419 -0.2134
 1853SOL     OW 7464   3.153   0.384   3.153  0.1472  0.2696  0.0354
 1853SOL    HW2 7465   3.235   0.415   3.115  0.3728 -0.2914  0.0605
 1853SOL    HW3 7466   3.086   0.440   3.114  0.3493 -0.4348 -1.3850
 1853SOL    MW4 7467   3.155   0.395   3.143  0.2036  0.1026 -0.1488
 1854SOL     OW 7468   3.378   0.494   3.050 -0.1615 -0.1043 -0.3973
 1854SOL    HW2 7469   3.461   0.452   3.074  0.0754 -0.1523 -1.2771
 1854SOL    HW3 7470   3.367   0.472   2.957  0.2752  2.2931 -1.0517
 1854SOL    MW4 7471   3.388   0.485   3.041 -0.0725  0.2057 -0.5996
 1855SOL     OW 7472   3.382   0.769   3.146  0.0383  0.1179 -0.0734
 1855SOL    HW2 7473   3.393   0.761   3.241  2.0978  1.8534 -0.1287
 1855SOL    HW3 7474   3.380   0.679   3.114  0.0986 -0.4645  1.5280
 1855SOL    MW4 7475   3.383   0.756   3.154  0.3178  0.2700  0.1307
 1856SOL     OW 7476   3.153   0.878   3.022  0.2962  0.1012  0.3512
 1856SOL    HW2 7477   3.225   0.829   3.060  0.2726  0.8088  1.3086
 1856SOL    HW3 7478   3.075   0.844   3.066  0.3240  1.3135  1.3578
 1856SOL    MW4 7479   3.152   0.867   3.033  0.2964  0.3545  0.6104
 1857SOL     OW 7480   3.147   1.146   3.118  0.1472 -0.2393 -0.6918
 1857SOL    HW2 7481   3.229   1.189   3.096 -0.7957  1.1752 -1.5624
 1857SOL    HW3 7482   3.151   1.061   3.074  0.7659  0.1842 -1.4593
 1857SOL    MW4 7483   3.158   1.140   3.109  0.1042  0.0032 -0.9079
 1858SOL     OW 7484   3.374   1.268   3.030 -0.4575 -0.5168 -0.1389
 1858SOL    HW2 7485   3.451   1.227   3.070  0.9539  0.6180 -1.6309
 1858SOL    HW3 7486   3.374   1.357   3.064 -0.9802 -0.4482 -0.3227
 1858SOL    MW4 7487   3.384   1.274   3.040 -0.3405 -0.3580 -0.3600
 1859SOL     OW 7488   3.346   1.534   3.154 -0.5206  0.1439  0.6237
 1859SOL    HW2 7489   3.355   1.545   3.249 -1.3047  2.0269  0.4998
 1859SOL    HW3 7490   3.418   1.585   3.117 -1.8403  1.7031  0.1446
 1859SOL    MW4 7491   3.356   1.542   3.162 -0.7982  0.5981  0.5441
 1860SOL     OW 7492   3.149   1.695   3.043 -0.2304 -0.2898 -0.2686
 1860SOL    HW2 7493   3.207   1.621   3.064  0.2748 -0.0440 -0.7995
 1860SOL    HW3 7494   3.139   1.691   2.948  0.0684  0.5328 -0.3315
 1860SOL    MW4 7495   3.155   1.684   3.033 -0.1245 -0.1489 -0.3469
 1861SOL     OW 7496   3.153   1.932   3.164 -0.3456 -0.5329  0.5094
 1861SOL    HW2 7497   3.162   1.838   3.147  1.4003  0.0799 -2.3631
 1861SOL    HW3 7498   3.072   1.956   3.121 -0.1056 -0.4932  0.0732
 1861SOL    MW4 7499   3.144   1.923   3.156 -0.0837 -0.4468  0.0727
 1862SOL     OW 7500   3.358   2.033   3.032  0.2136  0.1996 -0.4365
 1862SOL    HW2 7501   3.431   2.000   3.084  0.3618  0.1818 -0.6549
 1862SOL    HW3 7502   3.282   1.983   3.062  0.7849 -1.8361 -2.1932
 1862SOL    MW4 7503   3.358   2.022   3.043  0.3085 -0.0710 -0.6974
 1863SOL     OW 7504   3.323   2.319   3.132 -0.2719 -0.1622 -0.3571
 1863SOL    HW2 7505   3.350   2.310   3.223 -1.6040 -0.6144  0.0053
 1863SOL    HW3 7506   3.331   2.231   3.096 -2.1273 -0.5231  0.0220
 1863SOL    MW4 7507   3.327   2.306   3.139 -0.6926 -0.2692 -0.2594
 1864SOL     OW 7508   3.113   2.464   3.014 -0.3268  0.2054 -0.2093
 1864SOL    HW2 7509   3.191   2.418   3.046 -0.1692  0.3324 -0.4088
 1864SOL    HW3 7510   3.119   2.458   2.919 -1.1408 -0.7430 -0.2069
 1864SOL    MW4 7511   3.124   2.457   3.006 -0.4137  0.0970 -0.2353
 1865SOL     OW 7512   3.112   2.726   3.095 -0.0470  0.3334  0.0689
 1865SOL    HW2 7513   3.129   2.709   3.187  2.3514  0.4122 -0.3404
 1865SOL    HW3 7514   3.081   2.641   3.061 -0.5145  0.1940  0.8319
 1865SOL    MW4 7515   3.110   2.712   3.102  0.2077  0.3254  0.1156
 1866SOL     OW 7516   3.365   2.750   3.003  0.2309 -0.1405 -0.0847
 1866SOL    HW2 7517   3.383   2.835   3.044 -0.7654  0.0855 -0.1167
 1866SOL    HW3 7518   3.275   2.730   3.027  1.0377 -2.1154  1.5650
 1866SOL    MW4 7519   3.356   2.758   3.012  0.2060 -0.3712  0.1290
 1867SOL     OW 7520   3.391   3.023   3.098 -0.7139 -0.1499  0.3562
 1867SOL    HW2 7521   3.394   3.045   3.191 -0.0873 -1.8526  0.7566
 1867SOL    HW3 7522   3.309   3.062   3.067 -0.9442  0.3945  1.6235
 1867SOL    MW4 7523   3.380   3.031   3.107 -0.6614 -0.3028  0.5763
 1868SOL     OW 7524   3.163   3.188   3.064 -0.8863 -0.0671 -0.1800
 1868SOL    HW2 7525   3.085   3.164   3.113 -0.5173 -0.4633  0.2092
 1868SOL    HW3 7526   3.134   3.191   2.973 -1.2337 -0.7040 -0.0880
 1868SOL    MW4 7527   3.149   3.185   3.058 -0.8836 -0.2034 -0.1163
 1869SOL     OW 7528   3.141   3.468   3.137 -0.2217  0.1335  0.1231
 1869SOL    HW2 7529   3.218   3.516   3.107  0.3473 -0.1317  1.1392
 1869SOL    HW3 7530   3.153   3.380   3.101 -0.6367  0.4100 -0.6933
 1869SOL    MW4 7531   3.153   3.463   3.128 -0.2012  0.1349  0.1497
 1870SOL     OW 7532   3.360   3.595   3.000 -0.4957  0.1751  0.4875
 1870SOL    HW2 7533   3.444   3.558   3.027  0.0631  0.9502 -0.1697
 1870SOL    HW3 7534   3.360   3.683   3.037 -0.6604  0.4743 -0.2226
 1870SOL    MW4 7535   3.371   3.602   3.009 -0.4437  0.3169  0.3071
 1871SOL     OW 7536   3.378   3.860   3.111 -0.3870 -0.4698 -0.2279
 1871SOL    HW2 7537   3.382   3.867   3.206 -0.1938 -0.4620 -0.2371
 1871SOL    HW3 7538   3.295   3.903   3.087 -0.2229 -0.0747 -0.1012
 1871SOL    MW4 7539   3.368   3.867   3.120 -0.3400 -0.4165 -0.2122
 1872SOL     OW 7540   3.146   4.006   3.037  0.1048 -0.0434  0.2972
 1872SOL    HW2 7541   3.068   3.957   3.066 -0.4479 -0.4350 -1.8099
 1872SOL    HW3 7542   3.147   3.997   2.942  1.3224  2.0987  0.0672
 1872SOL    MW4 7543   3.136   3.998   3.029  0.1924  0.1876 -0.0112
 1873SOL     OW 7544   3.133   4.251   3.152  0.2204  0.1317 -0.1849
 1873SOL    HW2 7545   3.162   4.236   3.242 -0.8827 -0.3500  0.1032
 1873SOL    HW3 7546   3.149   4.168   3.108  2.6262  0.9697 -0.9737
 1873SOL    MW4 7547   3.139   4.238   3.158  0.3922  0.1783 -0.2511
 1874SOL     OW 7548   3.332   4.384   3.022  0.0780  0.1833 -0.2491
 1874SOL    HW2 7549   3.391   4.313   3.046  1.1447  1.6540  1.5952
 1874SOL    HW3 7550   3.245   4.353   3.050  0.4314 -0.6636 -0.0652
 1874SOL    MW4 7551   3.328   4.371   3.029  0.2654  0.2656  0.0188
 1875SOL     OW 7552   3.793   4.643   3.114 -0.1130  0.0513 -0.2293
 1875SOL    HW2 7553   3.789   4.550   3.094 -0.6725  0.5556 -2.5597
 1875SOL    HW3 7554   3.717   4.681   3.071 -0.6484  1.4070  1.8218
 1875SOL    MW4 7555   3.783   4.636   3.106 -0.2573  0.2966 -0.2663
 1876SOL     OW 7556   3.554   0.096   3.007 -0.6010 -0.3035 -0.4178
 1876SOL    HW2 7557   3.554   0.185   3.044 -1.1637 -0.3216 -0.3801
 1876SOL    HW3 7558   3.572   0.109   2.914  1.1599 -0.2802 -0.0924
 1876SOL    MW4 7559   3.556   0.110   3.000 -0.4430 -0.3028 -0.3700
 1877SOL     OW 7560   3.612   0.350   3.119  0.3288  0.0919  0.3423
 1877SOL    HW2 7561   3.628   0.351   3.214 -1.8403  0.3708  0.7354
 1877SOL    HW3 7562   3.682   0.403   3.082  0.0267  1.7185  2.0152
 1877SOL    MW4 7563   3.623   0.357   3.127  0.0031  0.3433  0.6146
 1878SOL     OW 7564   3.819   0.489   3.015  0.0146 -0.2331 -0.2226
 1878SOL    HW2 7565   3.894   0.450   3.061 -0.4018 -0.7604  0.0103
 1878SOL    HW3 7566   3.812   0.577   3.052  0.5571 -0.1629 -0.2856
 1878SOL    MW4 7567   3.828   0.495   3.026  0.0310 -0.2934 -0.2005
 1879SOL     OW 7568   3.822   0.758   3.123  0.2271  0.3045 -0.0509
 1879SOL    HW2 7569   3.839   0.752   3.217  0.3038 -2.1500 -0.1918
 1879SOL    HW3 7570   3.906   0.784   3.085  0.4847  0.2095  0.4509
 1879SOL    MW4 7571   3.835   0.760   3.131  0.2716 -0.0318 -0.0033
 1880SOL     OW 7572   3.594   0.895   3.031  0.0644  0.3068  0.3597
 1880SOL    HW2 7573   3.675   0.849   3.054  0.1614  0.8671  1.1702
 1880SOL    HW3 7574   3.526   0.851   3.083  0.2485  1.4346  1.5829
 1880SOL    MW4 7575   3.596   0.883   3.041  0.1013  0.5295  0.6280
 1881SOL     OW 7576   3.597   1.147   3.150  0.0892 -0.3427 -0.4772
 1881SOL    HW2 7577   3.651   1.204   3.095 -0.2571  0.2017 -0.2604
 1881SOL    HW3 7578   3.597   1.063   3.105  0.5329 -0.1491 -0.8461
 1881SOL    MW4 7579   3.604   1.143   3.137  0.1018 -0.2453 -0.4973
 1882SOL     OW 7580   3.805   1.295   3.040 -0.0284 -0.4121 -0.5458
 1882SOL    HW2 7581   3.808   1.388   3.062  0.4098 -0.4042 -0.6246
 1882SOL    HW3 7582   3.773   1.293   2.949 -3.0742 -0.5132  0.4759
 1882SOL    MW4 7583   3.801   1.307   3.031 -0.3726 -0.4244 -0.4215
 1883SOL     OW 7584   3.806   1.543   3.133  0.3678  0.5681  0.4745
 1883SOL    HW2 7585   3.809   1.521   3.226  0.2771  1.1141  0.6062
 1883SOL    HW3 7586   3.720   1.583   3.120  0.6944  1.2278  0.3167
 1883SOL    MW4 7587   3.795   1.545   3.143  0.3989  0.7271  0.4709
 1884SOL     OW 7588   3.573   1.679   3.082 -0.0313 -0.2059  0.2648
 1884SOL    HW2 7589   3.578   1.773   3.100  0.1599  0.0422 -1.0241
 1884SOL    HW3 7590   3.577   1.673   2.987 -1.6351 -1.4400  0.2576
 1884SOL    MW4 7591   3.574   1.690   3.072 -0.2177 -0.3361  0.0939
 1885SOL     OW 7592   3.601   1.946   3.174 -0.1131  0.3642 -0.0232
 1885SOL    HW2 7593   3.607   1.959   3.268  0.6510  2.2111 -0.3092
 1885SOL    HW3 7594   3.685   1.976   3.140 -0.4896  0.0005 -1.3223
 1885SOL    MW4 7595   3.613   1.952   3.182 -0.0618  0.5598 -0.2320
 1886SOL     OW 7596   3.827   2.026   3.048 -0.3482 -0.3115 -0.5051
 1886SOL    HW2 7597   3.825   2.119   3.068 -1.3509 -0.4739  0.2123
 1886SOL    HW3 7598   3.798   2.020   2.957 -0.5484  0.0502 -0.4654
 1886SOL    MW4 7599   3.823   2.037   3.039 -0.5069 -0.2854 -0.4053
 1887SOL     OW 7600   3.829   2.326   3.088 -0.0895 -0.2684 -0.0440
 1887SOL    HW2 7601   3.837   2.332   3.184  0.8188  2.3050 -0.2490
 1887SOL    HW3 7602   3.735   2.336   3.072 -0.2045 -0.3459  0.5428
 1887SOL    MW4 7603   3.817   2.328   3.099  0.0150  0.0608  0.0064
 1888SOL     OW 7604   3.570   2.400   3.049 -0.1266 -0.1289  0.0667
 1888SOL    HW2 7605   3.576   2.494   3.068 -0.8586  0.2515 -1.5051
 1888SOL    HW3 7606   3.485   2.374   3.084 -0.1125 -0.1091  0.1153
 1888SOL    MW4 7607   3.560   2.409   3.056 -0.2215 -0.0761 -0.1342
 1889SOL     OW 7608   3.585   2.671   3.153 -0.4079  0.4156  0.0502
 1889SOL    HW2 7609   3.660   2.719   3.119 -0.1310 -0.3682 -0.4530
 1889SOL    HW3 7610   3.513   2.692   3.094 -0.5938  1.1952  0.5538
 1889SOL    MW4 7611   3.585   2.680   3.141 -0.3958  0.4148  0.0503
 1890SOL     OW 7612   3.811   2.808   2.997 -0.7951 -0.0369 -0.6232
 1890SOL    HW2 7613   3.814   2.896   3.034  0.5440 -0.3039 -0.0572
 1890SOL    HW3 7614   3.807   2.822   2.903  0.1333  0.6447 -0.5746
 1890SOL    MW4 7615   3.811   2.821   2.990 -0.4959  0.0176 -0.5419
 1891SOL     OW 7616   3.842   3.045   3.116  0.7237  0.0610  0.3057
 1891SOL    HW2 7617   3.924   3.092   3.104 -0.3023  1.9010  0.2517
 1891SOL    HW3 7618   3.774   3.109   3.094 -0.7231 -1.4888  0.1239
 1891SOL    MW4 7619   3.844   3.060   3.112  0.3972  0.0994  0.2744
 1892SOL     OW 7620   3.605   3.185   3.051 -0.1942 -0.0264 -0.2688
 1892SOL    HW2 7621   3.526   3.136   3.075 -0.0174 -0.9366 -1.4764
 1892SOL    HW3 7622   3.601   3.192   2.955  0.5063  1.0951 -0.2212
 1892SOL    MW4 7623   3.594   3.179   3.041 -0.0787  0.0014 -0.4218
 1893SOL     OW 7624   3.577   3.460   3.130 -0.3644 -0.0006 -0.3454
 1893SOL    HW2 7625   3.656   3.504   3.096 -0.0296  0.2063  0.6985
 1893SOL    HW3 7626   3.598   3.367   3.123 -0.0248  0.0541 -0.0555
 1893SOL    MW4 7627   3.590   3.454   3.124 -0.2756  0.0341 -0.1690
 1894SOL     OW 7628   3.799   3.566   3.024  0.0486 -0.5545  0.0511
 1894SOL    HW2 7629   3.819   3.657   3.043  1.4149 -0.9262  0.4208
 1894SOL    HW3 7630   3.775   3.565   2.932 -2.4069  0.5689  0.6293
 1894SOL    MW4 7631   3.798   3.577   3.015 -0.0951 -0.4554  0.1764
 1895SOL     OW 7632   3.864   3.817   3.103  0.4061  0.2086 -0.5950
 1895SOL    HW2 7633   3.882   3.819   3.197 -0.6081 -0.1773 -0.3783
 1895SOL    HW3 7634   3.783   3.867   3.093 -0.4288 -1.1938 -1.0293
 1895SOL    MW4 7635   3.855   3.823   3.114  0.1621 -0.0274 -0.6237
 1896SOL     OW 7636   3.622   3.969   3.051  0.1710 -0.0003  0.5351
 1896SOL    HW2 7637   3.542   3.921   3.072  0.2159 -0.1892  0.2879
 1896SOL    HW3 7638   3.629   3.963   2.956  0.0586  0.6957  0.4859
 1896SOL    MW4 7639   3.613   3.962   3.041  0.1621  0.0668  0.4961
 1897SOL     OW 7640   3.547   4.217   3.110 -0.1354  0.7419 -0.1467
 1897SOL    HW2 7641   3.621   4.274   3.089 -0.0175  0.7914  0.4090
 1897SOL    HW3 7642   3.582   4.128   3.101 -0.0521  0.7642 -0.0423
 1897SOL    MW4 7643   3.561   4.213   3.106 -0.1090  0.7510 -0.0596
 1898SOL     OW 7644   3.767   4.364   3.042 -0.0031 -0.5345 -0.1331
 1898SOL    HW2 7645   3.849   4.324   3.073 -0.0685 -0.9572 -0.4937
 1898SOL    HW3 7646   3.785   4.386   2.951  0.2642  0.9052  0.2602
 1898SOL    MW4 7647   3.780   4.362   3.034  0.0236 -0.4005 -0.1287
 1899SOL     OW 7648   4.262   0.003   3.086  0.2316 -0.1651 -0.1499
 1899SOL    HW2 7649   4.273   0.018   3.180  0.3480 -0.4094 -0.1233
 1899SOL    HW3 7650   4.257  -0.092   3.078 -2.0906 -0.0939 -0.1332
 1899SOL    MW4 7651   4.262  -0.007   3.097 -0.0596 -0.1879 -0.1440
 1900SOL     OW 7652   4.033   0.150   3.013  0.1837  0.2134 -0.0900
 1900SOL    HW2 7653   4.103   0.088   3.035 -0.2615 -0.9815 -1.9196
 1900SOL    HW3 7654   3.954   0.112   3.051 -0.0801 -0.3425 -1.1640
 1900SOL    MW4 7655   4.032   0.137   3.021  0.0901 -0.0176 -0.4733
 1901SOL     OW 7656   4.052   0.402   3.125  0.1393  0.1400  0.5248
 1901SOL    HW2 7657   4.118   0.458   3.084  0.5084  0.4565  1.5328
 1901SOL    HW3 7658   4.064   0.317   3.085  0.0332  0.6150 -0.5232
 1901SOL    MW4 7659   4.062   0.398   3.115  0.1740  0.2444  0.5198
 1902SOL     OW 7660   4.284   0.524   2.984  0.2542  0.3337 -0.2904
 1902SOL    HW2 7661   4.292   0.617   3.007  1.6355  0.2825 -0.5558
 1902SOL    HW3 7662   4.258   0.524   2.892  0.7264  0.4428 -0.4212
 1902SOL    MW4 7663   4.282   0.536   2.975  0.4983  0.3414 -0.3426
 1903SOL     OW 7664   4.301   0.767   3.096  0.0053 -0.5668  0.4752
 1903SOL    HW2 7665   4.219   0.805   3.065 -0.0398  0.5274  1.9077
 1903SOL    HW3 7666   4.368   0.832   3.074  0.5243 -1.5363 -0.8518
 1903SOL    MW4 7667   4.299   0.780   3.089  0.0672 -0.5503  0.4892
 1904SOL     OW 7668   4.055   0.870   2.992 -0.2616 -0.4017  0.0988
 1904SOL    HW2 7669   4.031   0.955   3.028  1.1319  0.1219 -0.1699
 1904SOL    HW3 7670   4.043   0.880   2.897 -1.4625 -0.9673  0.1780
 1904SOL    MW4 7671   4.050   0.882   2.984 -0.2365 -0.4072  0.0739
 1905SOL     OW 7672   4.033   1.143   3.101 -0.2140  0.4297  0.7309
 1905SOL    HW2 7673   4.032   1.137   3.197  2.3828  0.7991  0.8232
 1905SOL    HW3 7674   3.969   1.210   3.081 -1.5475 -0.3842  2.1414
 1905SOL    MW4 7675   4.025   1.151   3.111 -0.0472  0.3710  0.9289
 1906SOL     OW 7676   4.267   1.259   3.014  0.0409 -0.0158 -0.2684
 1906SOL    HW2 7677   4.198   1.205   3.053  2.1095 -2.0469  0.7385
 1906SOL    HW3 7678   4.256   1.248   2.920 -1.2225 -0.0092 -0.1296
 1906SOL    MW4 7679   4.257   1.250   3.007  0.1473 -0.2829 -0.1173
 1907SOL     OW 7680   4.278   1.518   3.100 -0.5792  0.5551  0.0916
 1907SOL    HW2 7681   4.192   1.550   3.071 -0.9440 -0.1404  0.3729
 1907SOL    HW3 7682   4.278   1.426   3.072  0.2818  0.6883 -0.3576
 1907SOL    MW4 7683   4.267   1.510   3.092 -0.5140  0.4810  0.0694
 1908SOL     OW 7684   4.042   1.652   3.021  0.0986 -0.2123  0.2066
 1908SOL    HW2 7685   4.043   1.740   3.059 -0.4538  0.5784 -1.5410
 1908SOL    HW3 7686   3.965   1.610   3.062 -1.3696  1.1326 -1.1092
 1908SOL    MW4 7687   4.032   1.658   3.032 -0.1678  0.0695 -0.1976
 1909SOL     OW 7688   4.060   1.903   3.139  0.2360  0.3687 -0.5988
 1909SOL    HW2 7689   4.133   1.957   3.108 -0.0551  0.2687 -1.4757
 1909SOL    HW3 7690   3.983   1.943   3.099 -0.3618  1.3216  1.4434
 1909SOL    MW4 7691   4.060   1.916   3.129  0.1192  0.4814 -0.4449
 1910SOL     OW 7692   4.252   2.047   3.008  0.0891  0.5433  0.0538
 1910SOL    HW2 7693   4.246   2.137   3.041  0.1082  0.3063  0.7038
 1910SOL    HW3 7694   4.250   2.057   2.913 -1.1730  1.1529  0.1265
 1910SOL    MW4 7695   4.251   2.061   3.000 -0.0753  0.5922  0.1490
 1911SOL     OW 7696   4.269   2.295   3.117 -0.7595 -0.3033  0.6497
 1911SOL    HW2 7697   4.191   2.347   3.097 -0.8126 -0.2841  0.8998
 1911SOL    HW3 7698   4.342   2.346   3.082 -0.7382  0.3191  1.5834
 1911SOL    MW4 7699   4.268   2.309   3.110 -0.7634 -0.2186  0.8059
 1912SOL     OW 7700   4.067   2.445   3.002  0.1029 -0.4673 -0.5347
 1912SOL    HW2 7701   4.060   2.532   3.042 -1.1008 -0.2218 -1.2506
 1912SOL    HW3 7702   3.983   2.404   3.021  0.5062 -1.3192 -0.5788
 1912SOL    MW4 7703   4.055   2.451   3.010 -0.0024 -0.5474 -0.6349
 1913SOL     OW 7704   4.049   2.696   3.110 -0.2777 -0.1760  0.0304
 1913SOL    HW2 7705   4.036   2.695   3.204  0.2453 -0.0826  0.1024
 1913SOL    HW3 7706   3.963   2.722   3.074 -0.3321  0.2943  0.5025
 1913SOL    MW4 7707   4.036   2.700   3.117 -0.2160 -0.1016  0.1023
 1914SOL     OW 7708   4.276   2.832   3.045  0.2700  0.3818 -0.1655
 1914SOL    HW2 7709   4.195   2.785   3.065  0.4733 -0.6054 -1.5909
 1914SOL    HW3 7710   4.343   2.786   3.095  0.2525 -0.0262 -0.5124
 1914SOL    MW4 7711   4.274   2.820   3.054  0.2942  0.1974 -0.3994
 1915SOL     OW 7712   4.302   3.102   3.122 -0.3151 -0.0610 -0.0105
 1915SOL    HW2 7713   4.221   3.137   3.085  0.6690  1.2283 -1.0170
 1915SOL    HW3 7714   4.303   3.010   3.096 -1.9249 -0.3478  0.8671
 1915SOL    MW4 7715   4.292   3.094   3.114 -0.3967  0.0710 -0.0274
 1916SOL     OW 7716   4.057   3.200   3.037  0.5721  0.6893  0.0358
 1916SOL    HW2 7717   4.048   3.286   3.077 -0.8926  1.1967 -1.3216
 1916SOL    HW3 7718   4.063   3.218   2.943  1.7006 -0.6044 -0.1518
 1916SOL    MW4 7719   4.057   3.214   3.030  0.5279  0.5856 -0.1681
 1917SOL     OW 7720   4.070   3.489   3.104  0.2449 -0.3047  0.3996
 1917SOL    HW2 7721   4.040   3.471   3.193  0.1691  0.1151  0.4616
 1917SOL    HW3 7722   3.997   3.535   3.063  0.6530  0.4040  0.4421
 1917SOL    MW4 7723   4.057   3.493   3.111  0.2885 -0.1559  0.4132
 1918SOL     OW 7724   4.310   3.647   3.068  0.1835 -0.3503 -0.5921
 1918SOL    HW2 7725   4.299   3.739   3.094  0.1917 -0.5321  0.0849
 1918SOL    HW3 7726   4.223   3.609   3.079  0.3617 -0.6165 -0.0456
 1918SOL    MW4 7727   4.297   3.654   3.073  0.2074 -0.4098 -0.4308
 1919SOL     OW 7728   4.282   3.905   3.156  0.0952 -0.4250 -0.0192
 1919SOL    HW2 7729   4.207   3.940   3.107  0.0864 -1.0075 -0.4295
 1919SOL    HW3 7730   4.356   3.958   3.127 -0.5659  1.8018  2.2260
 1919SOL    MW4 7731   4.282   3.917   3.145  0.0067 -0.2084  0.2227
 1920SOL     OW 7732   4.073   3.983   2.994  0.0254 -0.5495  0.0326
 1920SOL    HW2 7733   4.057   4.074   3.020  0.6390 -0.2187 -0.7228
 1920SOL    HW3 7734   3.998   3.935   3.028 -1.1075  0.4992 -0.9310
 1920SOL    MW4 7735   4.061   3.989   3.002 -0.0434 -0.3672 -0.1943
 1921SOL     OW 7736   4.004   4.240   3.130 -0.1422  0.2305  0.4445
 1921SOL    HW2 7737   4.025   4.235   3.223 -1.0097  1.7544  0.7367
 1921SOL    HW3 7738   4.064   4.306   3.096  1.0429 -1.2120 -0.3606
 1921SOL    MW4 7739   4.015   4.248   3.137 -0.1001  0.2408  0.3769
 1922SOL     OW 7740   4.216   4.397   3.037  0.2257 -0.3812 -0.4391
 1922SOL    HW2 7741   4.303   4.372   3.068  0.7052  1.2303 -0.4442
 1922SOL    HW3 7742   4.215   4.373   2.944 -0.3060 -2.8466  0.1506
 1922SOL    MW4 7743   4.227   4.390   3.029  0.2184 -0.4940 -0.3619
 1923SOL     OW 7744   0.219   4.625   3.387 -0.0541  0.3612  0.3463
 1923SOL    HW2 7745   0.301   4.668   3.411 -1.2770  1.8998  1.8694
 1923SOL    HW3 7746   0.230   4.534   3.415  0.6883  0.8350  1.5985
 1923SOL    MW4 7747   0.231   4.619   3.394 -0.1175  0.6266  0.7124
 1924SOL     OW 7748   0.014   0.100   3.496 -0.4615  0.2019 -0.1175
 1924SOL    HW2 7749   0.024   0.187   3.457 -1.1106 -0.3336 -1.5268
 1924SOL    HW3 7750   0.085   0.048   3.458  0.0575  0.1614  0.8898
 1924SOL    MW4 7751   0.024   0.104   3.485 -0.4787  0.1259 -0.1707
 1925SOL     OW 7752   0.074   0.389   3.430  0.1123  0.0708 -0.4586
 1925SOL    HW2 7753  -0.001   0.437   3.465  1.0384  0.4316  1.0746
 1925SOL    HW3 7754   0.150   0.424   3.478  1.1578 -0.8786 -1.3814
 1925SOL    MW4 7755   0.074   0.400   3.441  0.3724 -0.0069 -0.3779
 1926SOL     OW 7756   0.283   0.534   3.534  0.1100 -0.1779  0.4819
 1926SOL    HW2 7757   0.350   0.483   3.488  0.8291  0.7151  0.5154
 1926SOL    HW3 7758   0.264   0.606   3.474  0.4415  0.5298  1.2178
 1926SOL    MW4 7759   0.289   0.537   3.520  0.2486  0.0333  0.5832
 1927SOL     OW 7760   0.232   0.775   3.402  0.2603  0.1341 -0.9330
 1927SOL    HW2 7761   0.304   0.816   3.450  0.2467 -1.5089  0.5304
 1927SOL    HW3 7762   0.153   0.814   3.439  0.3400  0.9806 -1.6379
 1927SOL    MW4 7763   0.231   0.786   3.413  0.2691  0.0290 -0.8330
 1928SOL     OW 7764   4.490   0.900   3.478  0.3426 -0.3805 -0.7236
 1928SOL    HW2 7765   4.501   0.900   3.573  0.4569 -0.6709 -0.7356
 1928SOL    HW3 7766   4.492   0.993   3.453 -0.1851 -0.2776 -0.3874
 1928SOL    MW4 7767   4.492   0.912   3.487  0.2880 -0.4053 -0.6809
 1929SOL     OW 7768   4.491   1.162   3.413  0.4311  0.0483 -0.3640
 1929SOL    HW2 7769   4.562   1.221   3.437 -0.8364  1.7906 -0.8445
 1929SOL    HW3 7770   4.492   1.159   3.318  0.2192 -0.3703 -0.3572
 1929SOL    MW4 7771   4.500   1.169   3.404  0.2360  0.2230 -0.4263
 1930SOL     OW 7772   0.233   1.309   3.473 -0.0241  0.1202 -0.4330
 1930SOL    HW2 7773   0.288   1.259   3.413  0.6998  0.3609  0.0298
 1930SOL    HW3 7774   0.242   1.400   3.443  0.0487  0.1953 -0.1831
 1930SOL    MW4 7775   0.241   1.315   3.461  0.0810  0.1618 -0.3388
 1931SOL     OW 7776   0.225   1.554   3.380  0.0924  0.2442 -0.1577
 1931SOL    HW2 7777   0.304   1.598   3.410 -0.8884  1.9278 -0.0145
 1931SOL    HW3 7778   0.231   1.558   3.284  0.6920 -0.5713 -0.1594
 1931SOL    MW4 7779   0.236   1.560   3.371  0.0421  0.3587 -0.1390
 1932SOL     OW 7780   0.007   1.680   3.481 -0.3156  0.0529  0.2383
 1932SOL    HW2 7781  -0.064   1.628   3.445 -0.0710  0.0048 -0.1707
 1932SOL    HW3 7782   0.086   1.629   3.463 -0.1396  0.2712  0.3868
 1932SOL    MW4 7783   0.008   1.666   3.474 -0.2601  0.0752  0.2038
 1933SOL     OW 7784   0.024   1.925   3.376 -0.4269  0.0334 -0.3384
 1933SOL    HW2 7785   0.031   1.837   3.415  1.3955 -0.8299 -2.5217
 1933SOL    HW3 7786   0.001   1.909   3.285  0.5525  1.8070 -0.9068
 1933SOL    MW4 7787   0.022   1.911   3.369 -0.0572  0.1534 -0.7014
 1934SOL     OW 7788   0.250   2.066   3.440  0.0393 -0.0816 -0.2553
 1934SOL    HW2 7789   0.245   2.069   3.535  1.1263 -1.1191 -0.1394
 1934SOL    HW3 7790   0.165   2.030   3.413 -0.5420  0.8778  0.2647
 1934SOL    MW4 7791   0.238   2.061   3.449  0.1061 -0.0920 -0.1717
 1935SOL     OW 7792   0.253   2.325   3.342 -0.0521  0.0633  0.1198
 1935SOL    HW2 7793   0.171   2.349   3.385 -0.2227 -0.7190  0.2258
 1935SOL    HW3 7794   0.268   2.234   3.367  0.7198  0.1261 -0.1051
 1935SOL    MW4 7795   0.244   2.316   3.351  0.0273 -0.0315  0.1042
 1936SOL     OW 7796   0.050   2.411   3.515  0.5053  0.1377  0.0596
 1936SOL    HW2 7797   0.055   2.394   3.609  0.4665  0.4151  0.1110
 1936SOL    HW3 7798  -0.031   2.368   3.487  0.7112 -0.2697  0.0829
 1936SOL    MW4 7799   0.040   2.403   3.524  0.5273  0.1209  0.0694
 1937SOL     OW 7800   0.032   2.688   3.455 -0.3878 -0.3311 -0.4154
 1937SOL    HW2 7801   0.101   2.723   3.512 -1.5664  0.0170  0.8186
 1937SOL    HW3 7802   0.034   2.593   3.470 -0.5607 -0.2612  0.0386
 1937SOL    MW4 7803   0.042   2.680   3.465 -0.5661 -0.2759 -0.1926
 1938SOL     OW 7804   0.254   2.830   3.557  0.2758 -0.2243 -0.0269
 1938SOL    HW2 7805   0.323   2.799   3.498  0.1465 -0.1620 -0.2135
 1938SOL    HW3 7806   0.235   2.918   3.527  2.3313  0.9569  2.0206
 1938SOL    MW4 7807   0.260   2.837   3.545  0.5299 -0.0603  0.2184
 1939SOL     OW 7808   0.192   3.079   3.443 -0.1274 -0.1144 -0.4370
 1939SOL    HW2 7809   0.124   3.131   3.485 -1.1057 -1.5502 -0.2008
 1939SOL    HW3 7810   0.185   3.100   3.350  0.4150  1.2250 -0.1749
 1939SOL    MW4 7811   0.182   3.088   3.436 -0.1849 -0.1276 -0.3712
 1940SOL     OW 7812   4.468   3.191   3.559  0.3562  0.1121 -0.2293
 1940SOL    HW2 7813   4.388   3.162   3.514  0.7433 -1.3605  0.0417
 1940SOL    HW3 7814   4.480   3.281   3.528  0.1387 -0.5711 -2.4316
 1940SOL    MW4 7815   4.459   3.199   3.549  0.3786 -0.1721 -0.4840
 1941SOL     OW 7816   0.033   3.464   3.467  0.4429  0.7377 -0.1142
 1941SOL    HW2 7817  -0.058   3.492   3.465  0.1755 -0.0618  0.8323
 1941SOL    HW3 7818   0.067   3.485   3.380 -1.1298 -0.6465 -1.0703
 1941SOL    MW4 7819   0.026   3.471   3.455  0.2003  0.4499 -0.1154
 1942SOL     OW 7820   0.232   3.636   3.554  0.1185  0.5341 -0.1972
 1942SOL    HW2 7821   0.256   3.609   3.642  1.8518 -1.7636 -1.3247
 1942SOL    HW3 7822   0.156   3.582   3.532 -0.0939  0.8516 -0.2504
 1942SOL    MW4 7823   0.225   3.625   3.563  0.3192  0.2728 -0.3531
 1943SOL     OW 7824   0.197   3.911   3.427  0.0973 -0.4560  0.4013
 1943SOL    HW2 7825   0.110   3.941   3.452  0.2397  1.1717 -0.9645
 1943SOL    HW3 7826   0.205   3.824   3.466 -1.4407  0.1208  2.0395
 1943SOL    MW4 7827   0.187   3.903   3.435 -0.0869 -0.1652  0.4370
 1944SOL     OW 7828   4.443   4.004   3.516 -0.0999 -0.5172 -0.2290
 1944SOL    HW2 7829   4.457   4.005   3.611  0.3484 -1.5020 -0.2817
 1944SOL    HW3 7830   4.454   4.095   3.489 -0.5889 -0.1707  0.7154
 1944SOL    MW4 7831   4.446   4.016   3.525 -0.1054 -0.6008 -0.1113
 1945SOL     OW 7832   4.460   4.258   3.389 -0.0077  0.2547 -0.1527
 1945SOL    HW2 7833   4.406   4.337   3.394  1.9141  1.5636  0.8506
 1945SOL    HW3 7834   4.547   4.287   3.417  0.6999 -2.2749  0.3965
 1945SOL    MW4 7835   4.464   4.272   3.393  0.3395  0.0935  0.0522
 1946SOL     OW 7836   0.217   4.374   3.496 -0.0853 -0.5179 -0.1973
 1946SOL    HW2 7837   0.220   4.357   3.590  0.6525  2.1887  0.3178
 1946SOL    HW3 7838   0.300   4.338   3.463  0.2780 -0.2522  0.4164
 1946SOL    MW4 7839   0.228   4.367   3.504  0.0600 -0.1259 -0.0484
 1947SOL     OW 7840   0.689   0.008   3.430 -0.5008 -0.3824 -0.2685
 1947SOL    HW2 7841   0.762   0.059   3.466 -1.2252  0.6414 -0.2172
 1947SOL    HW3 7842   0.690   0.028   3.336 -0.3430 -0.8391 -0.3645
 1947SOL    MW4 7843   0.699   0.018   3.422 -0.5755 -0.3076 -0.2744
 1948SOL     OW 7844   0.425   0.123   3.455 -0.0888 -0.3137 -0.6071
 1948SOL    HW2 7845   0.425   0.135   3.550 -1.0849 -0.1206 -0.6290
 1948SOL    HW3 7846   0.507   0.078   3.437 -0.3301 -1.2171  0.4640
 1948SOL    MW4 7847   0.436   0.119   3.465 -0.2521 -0.4075 -0.4687
 1949SOL     OW 7848   0.457   0.397   3.375  0.3064  0.0358  0.0439
 1949SOL    HW2 7849   0.548   0.401   3.404 -0.3375  0.0458  2.0781
 1949SOL    HW3 7850   0.428   0.309   3.396 -0.2048  0.0637 -0.5088
 1949SOL    MW4 7851   0.465   0.386   3.381  0.1540  0.0408  0.2394
 1950SOL     OW 7852   0.709   0.487   3.503 -0.0853  0.0644  0.3944
 1950SOL    HW2 7853   0.723   0.493   3.598 -0.1749  0.6879  0.3691
 1950SOL    HW3 7854   0.778   0.427   3.473 -1.3668 -1.8323  1.1399
 1950SOL    MW4 7855   0.720   0.480   3.512 -0.2662 -0.1036  0.4897
 1951SOL     OW 7856   0.657   0.756   3.369  0.1539 -0.3693  0.4543
 1951SOL    HW2 7857   0.583   0.793   3.416 -0.5992 -0.9914 -0.2140
 1951SOL    HW3 7858   0.683   0.680   3.421  1.5151  0.9153  1.6712
 1951SOL    MW4 7859   0.651   0.751   3.382  0.2342 -0.2819  0.5267
 1952SOL     OW 7860   0.462   0.902   3.517 -0.0553  0.0613 -0.0527
 1952SOL    HW2 7861   0.471   0.925   3.610  2.1414 -1.7172  0.2222
 1952SOL    HW3 7862   0.462   0.986   3.471 -0.0474  0.9157  1.4699
 1952SOL    MW4 7863   0.463   0.916   3.524  0.2356 -0.0606  0.1843
 1953SOL     OW 7864   0.451   1.150   3.404 -0.1023 -0.1058 -0.2100
 1953SOL    HW2 7865   0.532   1.187   3.439  0.4712 -0.5169 -1.0887
 1953SOL    HW3 7866   0.460   1.157   3.309 -2.9919  3.9778 -0.3437
 1953SOL    MW4 7867   0.463   1.156   3.396 -0.4079  0.3787 -0.3436
 1954SOL     OW 7868   0.670   1.255   3.495 -0.1305  0.7981 -0.4932
 1954SOL    HW2 7869   0.752   1.222   3.457 -0.2550  0.2341 -0.2881
 1954SOL    HW3 7870   0.661   1.344   3.461 -0.3609  0.2206 -1.9931
 1954SOL    MW4 7871   0.680   1.262   3.486 -0.1773  0.6474 -0.6640
 1955SOL     OW 7872   0.650   1.514   3.431  0.0988  0.2959  0.0937
 1955SOL    HW2 7873   0.729   1.554   3.467  0.9857 -0.3464 -1.0960
 1955SOL    HW3 7874   0.582   1.580   3.444  0.7812  0.7725  1.3199
 1955SOL    MW4 7875   0.652   1.528   3.437  0.3059  0.2742  0.0985
 1956SOL     OW 7876   0.447   1.698   3.446 -0.8209 -0.6341  0.1200
 1956SOL    HW2 7877   0.446   1.717   3.540  1.1222 -1.0769  0.2543
 1956SOL    HW3 7878   0.465   1.782   3.404  1.9272 -1.0200  0.3884
 1956SOL    MW4 7879   0.449   1.711   3.453 -0.2019 -0.7435  0.1729
 1957SOL     OW 7880   0.488   1.957   3.347  0.4854  0.0357 -0.4665
 1957SOL    HW2 7881   0.406   1.994   3.380  2.2176  1.8550  2.0019
 1957SOL    HW3 7882   0.476   1.951   3.252 -2.3714  0.5756 -0.1622
 1957SOL    MW4 7883   0.476   1.961   3.339  0.3370  0.3470 -0.1009
 1958SOL     OW 7884   0.712   2.061   3.458  0.4648  0.2073  0.0323
 1958SOL    HW2 7885   0.678   2.069   3.547  1.7232  1.7541  0.3837
 1958SOL    HW3 7886   0.637   2.029   3.407 -0.8895  1.4628  1.2014
 1958SOL    MW4 7887   0.698   2.058   3.463  0.4522  0.5772  0.2329
 1959SOL     OW 7888   0.702   2.329   3.350  0.2934 -0.2215  0.5860
 1959SOL    HW2 7889   0.782   2.371   3.383  0.9455 -2.0120  1.3557
 1959SOL    HW3 7890   0.702   2.243   3.391 -0.7421 -1.1868 -1.3721
 1959SOL    MW4 7891   0.713   2.324   3.360  0.2428 -0.5851  0.4292
 1960SOL     OW 7892   0.474   2.432   3.475  0.4888  0.2425 -0.3191
 1960SOL    HW2 7893   0.549   2.394   3.429 -0.6584 -2.3428 -0.1429
 1960SOL    HW3 7894   0.398   2.402   3.424 -0.4945  1.8454  0.1800
 1960SOL    MW4 7895   0.474   2.423   3.462  0.2077  0.1130 -0.2296
 1961SOL     OW 7896   0.453   2.715   3.397  0.1159 -0.2482 -0.0118
 1961SOL    HW2 7897   0.466   2.625   3.429  0.3874 -0.0285  0.5012
 1961SOL    HW3 7898   0.472   2.710   3.304 -0.6008 -0.8812 -0.1262
 1961SOL    MW4 7899   0.457   2.702   3.389  0.0572 -0.3028  0.0405
 1962SOL     OW 7900   0.670   2.838   3.502 -0.4160 -0.1679  0.2145
 1962SOL    HW2 7901   0.751   2.802   3.465 -0.3862 -0.1252  0.2385
 1962SOL    HW3 7902   0.601   2.780   3.468 -0.5092  0.5243 -0.8193
 1962SOL    MW4 7903   0.671   2.825   3.492 -0.4244 -0.0708  0.0813
 1963SOL     OW 7904   0.635   3.106   3.396 -0.2371  0.1376  0.0983
 1963SOL    HW2 7905   0.563   3.158   3.432 -1.0367 -1.0993  0.2844
 1963SOL    HW3 7906   0.641   3.030   3.453  1.8175  0.6512  0.6292
 1963SOL    MW4 7907   0.626   3.103   3.408 -0.0715  0.0420  0.1929
 1964SOL     OW 7908   0.424   3.250   3.523 -0.3699  0.4068  0.2563
 1964SOL    HW2 7909   0.423   3.269   3.617  1.4081 -1.2194  0.6339
 1964SOL    HW3 7910   0.352   3.189   3.510  0.3050 -0.5337  0.8500
 1964SOL    MW4 7911   0.415   3.245   3.534 -0.0463  0.0682  0.3846
 1965SOL     OW 7912   0.412   3.492   3.378 -0.0750 -0.1220  0.0172
 1965SOL    HW2 7913   0.422   3.404   3.414  1.3411  0.4786  1.1473
 1965SOL    HW3 7914   0.345   3.532   3.433  0.6585  0.1338  0.7334
 1965SOL    MW4 7915   0.405   3.486   3.390  0.2086 -0.0091  0.2608
 1966SOL     OW 7916   0.625   3.619   3.510 -0.5860  0.3018  0.4332
 1966SOL    HW2 7917   0.687   3.575   3.450  0.1530  1.9738 -0.0542
 1966SOL    HW3 7918   0.539   3.590   3.480 -0.0800 -1.8314  0.9316
 1966SOL    MW4 7919   0.622   3.609   3.498 -0.4218  0.2410  0.4346
 1967SOL     OW 7920   0.645   3.895   3.436  0.1187  0.0614  0.1106
 1967SOL    HW2 7921   0.559   3.928   3.461 -0.7569 -1.2997 -1.0181
 1967SOL    HW3 7922   0.641   3.801   3.453  1.3873 -0.0105  0.0630
 1967SOL    MW4 7923   0.633   3.887   3.441  0.1706 -0.1276 -0.0448
 1968SOL     OW 7924   0.425   4.047   3.508 -0.2775 -0.4659  0.4209
 1968SOL    HW2 7925   0.437   4.132   3.465  0.8565 -0.5394  0.5719
 1968SOL    HW3 7926   0.334   4.023   3.489  0.1572 -0.4488 -1.8922
 1968SOL    MW4 7927   0.414   4.055   3.500 -0.0706 -0.4730  0.1357
 1969SOL     OW 7928   0.456   4.287   3.405  0.0303  0.1894 -0.0416
 1969SOL    HW2 7929   0.530   4.337   3.439 -1.1010  1.3249  0.8095
 1969SOL    HW3 7930   0.464   4.294   3.310 -0.0272  1.8720  0.0629
 1969SOL    MW4 7931   0.467   4.295   3.397 -0.1266  0.5612  0.0844
 1970SOL     OW 7932   0.686   4.389   3.542 -0.1934 -0.1903 -0.0272
 1970SOL    HW2 7933   0.751   4.340   3.491 -0.0711 -2.5947  2.3307
 1970SOL    HW3 7934   0.704   4.480   3.521  1.4527 -0.9764 -2.3564
 1970SOL    MW4 7935   0.697   4.394   3.532  0.0399 -0.6113 -0.0231
 1971SOL     OW 7936   1.116   4.659   3.431  0.7195 -0.2963 -0.0701
 1971SOL    HW2 7937   1.204   4.689   3.452  0.6347  0.5208 -0.8296
 1971SOL    HW3 7938   1.112   4.663   3.335 -0.9340  2.0446  0.0602
 1971SOL    MW4 7939   1.127   4.664   3.421  0.4901  0.1202 -0.1533
 1972SOL     OW 7940   0.897   0.144   3.535 -0.0271  0.1627  0.0918
 1972SOL    HW2 7941   0.902   0.137   3.631  0.0157 -0.1205  0.0700
 1972SOL    HW3 7942   0.976   0.099   3.504  0.0385  0.3924 -0.0701
 1972SOL    MW4 7943   0.908   0.137   3.544 -0.0128  0.1557  0.0677
 1973SOL     OW 7944   0.931   0.368   3.390  0.3290  0.0735 -0.0383
 1973SOL    HW2 7945   0.999   0.417   3.436  0.3284 -0.8595  0.9746
 1973SOL    HW3 7946   0.929   0.283   3.434 -1.9005  0.2844  0.3467
 1973SOL    MW4 7947   0.939   0.363   3.402  0.0347 -0.0218  0.1462
 1974SOL     OW 7948   1.144   0.489   3.503 -0.1225  0.2829  0.2001
 1974SOL    HW2 7949   1.120   0.492   3.596  0.7307 -0.5443  0.4528
 1974SOL    HW3 7950   1.128   0.578   3.472  1.9720  1.2498  1.7595
 1974SOL    MW4 7951   1.139   0.502   3.511  0.2666  0.3012  0.4394
 1975SOL     OW 7952   1.101   0.736   3.394  0.2287  0.1843 -0.1803
 1975SOL    HW2 7953   1.177   0.786   3.422  0.4793 -0.3722  0.1535
 1975SOL    HW3 7954   1.026   0.786   3.426  0.4182  1.2396 -1.3638
 1975SOL    MW4 7955   1.101   0.749   3.402  0.2868  0.2501 -0.2923
 1976SOL     OW 7956   0.877   0.871   3.489 -0.0944  0.0484 -0.4411
 1976SOL    HW2 7957   0.882   0.957   3.446  0.3192 -0.2760 -1.0431
 1976SOL    HW3 7958   0.796   0.833   3.458  0.5217 -0.4597 -1.4598
 1976SOL    MW4 7959   0.867   0.878   3.479  0.0414 -0.0615 -0.6549
 1977SOL     OW 7960   0.894   1.139   3.393  0.6258  0.1339  0.2357
 1977SOL    HW2 7961   0.965   1.198   3.418 -0.0082  1.8502 -1.8445
 1977SOL    HW3 7962   0.905   1.128   3.298 -2.1129  0.7453 -0.1771
 1977SOL    MW4 7963   0.905   1.145   3.384  0.1808  0.4408 -0.0932
 1978SOL     OW 7964   1.109   1.295   3.485 -0.0906  0.2893 -0.1441
 1978SOL    HW2 7965   1.120   1.305   3.579 -0.4154  0.1820 -0.0926
 1978SOL    HW3 7966   1.147   1.375   3.447  1.8345 -0.5635 -0.0532
 1978SOL    MW4 7967   1.115   1.307   3.492  0.1206  0.1626 -0.1254
 1979SOL     OW 7968   1.167   1.560   3.394  0.5673 -0.3347 -0.0851
 1979SOL    HW2 7969   1.243   1.617   3.404  0.5979 -0.5215  0.8051
 1979SOL    HW3 7970   1.155   1.552   3.299  0.9265  0.6636 -0.2243
 1979SOL    MW4 7971   1.175   1.567   3.383  0.6188 -0.2276  0.0141
 1980SOL     OW 7972   0.893   1.635   3.478  0.6680 -0.2496 -0.2727
 1980SOL    HW2 7973   0.905   1.720   3.436  0.8497 -0.4876 -0.7056
 1980SOL    HW3 7974   0.980   1.595   3.477  0.8694  0.1402  1.2011
 1980SOL    MW4 7975   0.906   1.641   3.472  0.7185 -0.2296 -0.1354
 1981SOL     OW 7976   0.916   1.908   3.393  0.3357 -0.1519 -0.2572
 1981SOL    HW2 7977   0.992   1.965   3.401  0.1363  0.2324 -1.0097
 1981SOL    HW3 7978   0.843   1.960   3.426  0.3461 -0.4050  0.1683
 1981SOL    MW4 7979   0.916   1.922   3.398  0.3108 -0.1345 -0.3004
 1982SOL     OW 7980   1.121   2.066   3.480  0.0937 -0.5680 -0.4650
 1982SOL    HW2 7981   1.210   2.049   3.449  0.8153  1.4401  0.4099
 1982SOL    HW3 7982   1.101   2.154   3.448 -1.0956 -0.5065  0.4188
 1982SOL    MW4 7983   1.130   2.075   3.471  0.0321 -0.2944 -0.2329
 1983SOL     OW 7984   1.133   2.320   3.373 -0.0567  0.1636  0.1698
 1983SOL    HW2 7985   1.219   2.346   3.408  1.5271 -2.6031 -1.5475
 1983SOL    HW3 7986   1.139   2.340   3.279 -0.8191 -1.2488 -0.1794
 1983SOL    MW4 7987   1.145   2.326   3.365  0.0517 -0.3879 -0.1025
 1984SOL     OW 7988   0.919   2.473   3.457  0.0240  0.2448 -0.2493
 1984SOL    HW2 7989   0.924   2.448   3.550 -0.1882 -0.6459 -0.4757
 1984SOL    HW3 7990   0.995   2.431   3.417 -1.6201 -2.0419 -1.0820
 1984SOL    MW4 7991   0.930   2.464   3.464 -0.2210 -0.1745 -0.3893
 1985SOL     OW 7992   0.918   2.749   3.428 -0.1435  0.3185  0.2370
 1985SOL    HW2 7993   0.995   2.781   3.474  0.0708  0.9400 -0.5484
 1985SOL    HW3 7994   0.917   2.655   3.445  1.2853  0.1630 -0.4606
 1985SOL    MW4 7995   0.928   2.741   3.436  0.0733  0.3800  0.0415
 1986SOL     OW 7996   1.167   2.869   3.483 -0.1549  0.3277  0.0499
 1986SOL    HW2 7997   1.167   2.865   3.579 -0.1669 -0.0456  0.0325
 1986SOL    HW3 7998   1.250   2.831   3.457 -0.9300 -1.2460 -0.1631
 1986SOL    MW4 7999   1.178   2.864   3.492 -0.2586  0.0708  0.0193
 1987SOL     OW 8000   1.099   3.101   3.392  0.8719 -0.1776 -0.4395
 1987SOL    HW2 8001   1.112   3.010   3.419  1.2646  0.1776  0.5952
 1987SOL    HW3 8002   1.125   3.103   3.300  0.7464 -1.1365 -0.5012
 1987SOL    MW4 8003   1.104   3.089   3.384  0.9073 -0.2575 -0.3114
 1988SOL     OW 8004   0.871   3.240   3.459 -0.0741 -0.2995  0.4936
 1988SOL    HW2 8005   0.941   3.186   3.422  0.1750 -0.3228  1.0006
 1988SOL    HW3 8006   0.790   3.194   3.435  0.1162 -0.6604  0.5455
 1988SOL    MW4 8007   0.870   3.226   3.451 -0.0161 -0.3505  0.5670
 1989SOL     OW 8008   0.842   3.510   3.379  0.1658 -0.1964  0.0658
 1989SOL    HW2 8009   0.844   3.418   3.405  1.7767 -0.2634 -0.2794
 1989SOL    HW3 8010   0.879   3.511   3.291  0.3077  0.8031  0.1327
 1989SOL    MW4 8011   0.847   3.498   3.371  0.3970 -0.0734  0.0291
 1990SOL     OW 8012   1.073   3.617   3.454  0.0506 -0.5053 -0.0135
 1990SOL    HW2 8013   1.102   3.600   3.543 -2.5240  2.6970  1.5792
 1990SOL    HW3 8014   0.990   3.569   3.446  1.4407 -2.7438 -1.5861
 1990SOL    MW4 8015   1.066   3.608   3.464 -0.1057 -0.3784 -0.0107
 1991SOL     OW 8016   1.098   3.876   3.372  0.2320 -0.0631  0.1779
 1991SOL    HW2 8017   1.177   3.905   3.418  0.0352 -0.1087  0.5446
 1991SOL    HW3 8018   1.092   3.783   3.393  0.6840 -0.3023 -0.7339
 1991SOL    MW4 8019   1.108   3.868   3.381  0.2657 -0.1006  0.1061
 1992SOL     OW 8020   0.883   3.994   3.539  0.0244 -0.0084  0.0977
 1992SOL    HW2 8021   0.953   3.945   3.497  0.2733  1.1056 -0.8232
 1992SOL    HW3 8022   0.802   3.957   3.504  0.1190 -1.5071  1.3970
 1992SOL    MW4 8023   0.881   3.983   3.529  0.0697 -0.0594  0.1476
 1993SOL     OW 8024   0.887   4.249   3.414 -0.2861  0.1555  0.0635
 1993SOL    HW2 8025   0.882   4.158   3.442  0.7861  0.7641  2.3028
 1993SOL    HW3 8026   0.897   4.244   3.319  0.8703 -2.0894  0.2768
 1993SOL    MW4 8027   0.888   4.236   3.405  0.0079 -0.0601  0.3870
 1994SOL     OW 8028   1.104   4.400   3.517 -0.3824  0.4842  0.0704
 1994SOL    HW2 8029   1.041   4.346   3.469  0.2554  1.2308 -1.6493
 1994SOL    HW3 8030   1.102   4.485   3.472  0.2970  1.1835  1.3203
 1994SOL    MW4 8031   1.095   4.404   3.504 -0.2085  0.6747  0.0081
 1995SOL     OW 8032   1.606   0.008   3.413 -0.1571  0.2617 -0.1290
 1995SOL    HW2 8033   1.598  -0.080   3.451 -1.3405  0.0873 -0.7377
 1995SOL    HW3 8034   1.523   0.051   3.435  0.1171  0.9708 -0.4703
 1995SOL    MW4 8035   1.594   0.002   3.421 -0.2770  0.3324 -0.2542
 1996SOL     OW 8036   1.361   0.103   3.470  0.0126 -0.2339  0.3173
 1996SOL    HW2 8037   1.322   0.113   3.557 -0.8540  0.2487 -0.1259
 1996SOL    HW3 8038   1.369   0.192   3.437 -0.7037 -0.4897 -0.5617
 1996SOL    MW4 8039   1.357   0.116   3.477 -0.1962 -0.2040  0.1431
 1997SOL     OW 8040   1.369   0.366   3.401 -0.3803  0.1350  0.0730
 1997SOL    HW2 8041   1.433   0.429   3.434 -0.0341  0.0341 -0.4003
 1997SOL    HW3 8042   1.284   0.402   3.428 -0.1501  0.4686  0.3649
 1997SOL    MW4 8043   1.366   0.379   3.409 -0.3042  0.1657  0.0491
 1998SOL     OW 8044   1.571   0.531   3.517  0.1112 -0.1598  0.1628
 1998SOL    HW2 8045   1.574   0.537   3.613  2.0905  1.6182  0.0269
 1998SOL    HW3 8046   1.654   0.491   3.492 -0.2457 -0.3030 -0.8223
 1998SOL    MW4 8047   1.582   0.527   3.526  0.3252  0.0559  0.0150
 1999SOL     OW 8048   1.560   0.779   3.399 -0.1745  0.1488 -0.1558
 1999SOL    HW2 8049   1.475   0.817   3.418  0.0063 -0.1747  1.3044
 1999SOL    HW3 8050   1.560   0.695   3.443  0.8575  0.0892 -0.2575
 1999SOL    MW4 8051   1.549   0.773   3.407 -0.0145  0.0983  0.0234
 2000SOL     OW 8052   1.318   0.900   3.465  0.1712  0.1314 -0.4212
 2000SOL    HW2 8053   1.330   0.901   3.560 -0.6003  0.6294 -0.3303
 2000SOL    HW3 8054   1.309   0.992   3.441  1.8407  0.1284 -1.1711
 2000SOL    MW4 8055   1.319   0.913   3.475  0.2897  0.1968 -0.5083
 2001SOL     OW 8056   1.317   1.154   3.386 -0.1851  0.6712  0.0560
 2001SOL    HW2 8057   1.394   1.201   3.420 -0.3378  1.9759 -1.3380
 2001SOL    HW3 8058   1.242   1.203   3.420 -0.3434  1.5761 -1.5184
 2001SOL    MW4 8059   1.318   1.167   3.395 -0.2261  0.9626 -0.3357
 2002SOL     OW 8060   1.545   1.268   3.464  0.2828  0.2835 -0.2912
 2002SOL    HW2 8061   1.552   1.277   3.559  1.1165 -1.4770 -0.1611
 2002SOL    HW3 8062   1.627   1.226   3.438  0.0149  0.6497 -1.7832
 2002SOL    MW4 8063   1.557   1.264   3.473  0.3576  0.0995 -0.4709
 2003SOL     OW 8064   1.587   1.524   3.393 -0.0243  0.1231  0.3554
 2003SOL    HW2 8065   1.568   1.431   3.403 -0.3074  0.2156  0.7083
 2003SOL    HW3 8066   1.611   1.534   3.301 -1.1973 -0.0932  0.0188
 2003SOL    MW4 8067   1.587   1.513   3.382 -0.2166  0.1067  0.3576
 2004SOL     OW 8068   1.392   1.706   3.474 -0.0093  0.1737 -0.2797
 2004SOL    HW2 8069   1.385   1.698   3.569 -1.5369  0.4045 -0.3670
 2004SOL    HW3 8070   1.459   1.642   3.450  1.0305  0.7346  1.0356
 2004SOL    MW4 8071   1.400   1.696   3.483 -0.0737  0.2781 -0.1178
 2005SOL     OW 8072   1.363   1.983   3.425 -0.1877  0.0090 -0.1510
 2005SOL    HW2 8073   1.436   2.030   3.466 -0.6951  0.7961 -0.1257
 2005SOL    HW3 8074   1.376   1.892   3.450 -0.8881  0.5726  2.4349
 2005SOL    MW4 8075   1.374   1.977   3.434 -0.3473  0.1872  0.1934
 2006SOL     OW 8076   1.606   2.094   3.528 -0.5208 -0.0160  0.2685
 2006SOL    HW2 8077   1.678   2.047   3.486 -0.1373 -0.0008  0.9034
 2006SOL    HW3 8078   1.608   2.182   3.489 -0.9575 -0.3810 -0.5890
 2006SOL    MW4 8079   1.616   2.100   3.517 -0.5279 -0.0622  0.2391
 2007SOL     OW 8080   1.600   2.351   3.422 -0.8226  0.0258 -0.2377
 2007SOL    HW2 8081   1.514   2.382   3.450 -0.8694 -0.0517 -0.2939
 2007SOL    HW3 8082   1.592   2.341   3.327 -0.4582  0.9134 -0.3588
 2007SOL    MW4 8083   1.588   2.353   3.413 -0.7807  0.1326 -0.2611
 2008SOL     OW 8084   1.352   2.417   3.512 -0.2424 -0.2052 -0.0786
 2008SOL    HW2 8085   1.364   2.411   3.607 -1.1365 -0.1363  0.0411
 2008SOL    HW3 8086   1.337   2.510   3.496 -3.0356 -0.6095  0.0726
 2008SOL    MW4 8087   1.352   2.429   3.522 -0.7290 -0.2494 -0.0429
 2009SOL     OW 8088   1.374   2.696   3.415  0.0634 -0.0190 -0.0755
 2009SOL    HW2 8089   1.458   2.737   3.435 -0.4149  0.8485  0.1682
 2009SOL    HW3 8090   1.376   2.683   3.320 -0.1120  1.3349 -0.2798
 2009SOL    MW4 8091   1.385   2.700   3.405 -0.0228  0.2739 -0.0703
 2010SOL     OW 8092   1.617   2.846   3.494 -0.2090 -0.5764  0.1370
 2010SOL    HW2 8093   1.703   2.824   3.459 -0.2242 -1.3255  0.5566
 2010SOL    HW3 8094   1.601   2.936   3.465  1.6377  0.3375  1.8874
 2010SOL    MW4 8095   1.626   2.855   3.486  0.0327 -0.5546  0.4232
 2011SOL     OW 8096   1.559   3.109   3.395  0.1070  0.3100 -0.1771
 2011SOL    HW2 8097   1.622   3.168   3.435  0.2559 -0.7141  1.1156
 2011SOL    HW3 8098   1.474   3.152   3.409  0.2081  0.2019  0.8034
 2011SOL    MW4 8099   1.556   3.122   3.402  0.1400  0.1605  0.1228
 2012SOL     OW 8100   1.325   3.219   3.501  0.0785 -0.0190 -0.2128
 2012SOL    HW2 8101   1.328   3.213   3.596 -1.9196  0.8519 -0.0673
 2012SOL    HW3 8102   1.243   3.176   3.477  0.0282  0.7388 -1.4382
 2012SOL    MW4 8103   1.315   3.212   3.510 -0.1919  0.1955 -0.3552
 2013SOL     OW 8104   1.331   3.476   3.420  0.2755  0.1323 -0.0490
 2013SOL    HW2 8105   1.321   3.386   3.451  0.9498  0.0620 -0.0211
 2013SOL    HW3 8106   1.247   3.518   3.440 -0.7562 -1.0224 -1.8563
 2013SOL    MW4 8107   1.319   3.469   3.427  0.2283 -0.0293 -0.2840
 2014SOL     OW 8108   1.552   3.631   3.509 -0.1579  0.1561 -0.3996
 2014SOL    HW2 8109   1.558   3.622   3.604 -0.1645  0.9146 -0.3231
 2014SOL    HW3 8110   1.479   3.574   3.484 -1.4105  1.4271  0.2822
 2014SOL    MW4 8111   1.543   3.622   3.518 -0.3241  0.4241 -0.2995
 2015SOL     OW 8112   1.567   3.897   3.404 -0.2182  0.7451 -0.2310
 2015SOL    HW2 8113   1.558   3.807   3.438 -1.2530  1.1171  0.5127
 2015SOL    HW3 8114   1.565   3.887   3.309  1.0034 -0.1489 -0.1780
 2015SOL    MW4 8115   1.566   3.884   3.396 -0.1936  0.6762 -0.1256
 2016SOL     OW 8116   1.317   3.990   3.495  0.2008  0.3382  0.4331
 2016SOL    HW2 8117   1.315   4.084   3.477 -0.1212  0.5998  1.7849
 2016SOL    HW3 8118   1.402   3.961   3.462  0.0264  0.9727 -0.6003
 2016SOL    MW4 8119   1.328   3.998   3.488  0.1352  0.4566  0.4754
 2017SOL     OW 8120   1.320   4.261   3.422 -0.2390 -0.3313  0.1869
 2017SOL    HW2 8121   1.254   4.319   3.459 -1.4163 -1.4361 -0.1484
 2017SOL    HW3 8122   1.331   4.291   3.332 -1.6994 -1.3292 -0.3429
 2017SOL    MW4 8123   1.313   4.272   3.415 -0.5870 -0.6089  0.0730
 2018SOL     OW 8124   1.537   4.416   3.501  0.1609  0.1588  0.7326
 2018SOL    HW2 8125   1.612   4.377   3.455  0.0375 -0.1541  0.7932
 2018SOL    HW3 8126   1.463   4.362   3.475  0.0733  0.0387  1.2241
 2018SOL    MW4 8127   1.537   4.403   3.492  0.1330  0.1016  0.8056
 2019SOL     OW 8128   2.083   0.019   3.382  0.0307  0.2913  0.1766
 2019SOL    HW2 8129   2.161   0.045   3.431  0.6748  1.0382 -1.2350
 2019SOL    HW3 8130   2.012   0.068   3.425  1.0777  3.6702 -1.7660
 2019SOL    MW4 8131   2.084   0.029   3.394  0.2537  0.8359 -0.2661
 2020SOL     OW 8132   1.849   0.120   3.500 -0.5400  0.7236  0.0806
 2020SOL    HW2 8133   1.832   0.128   3.593  0.0772  0.4042  0.2205
 2020SOL    HW3 8134   1.775   0.070   3.466 -0.3749  0.1657  0.5306
 2020SOL    MW4 8135   1.837   0.114   3.507 -0.4369  0.6079  0.1585
 2021SOL     OW 8136   1.786   0.375   3.419 -0.4853 -0.1925  0.2850
 2021SOL    HW2 8137   1.801   0.286   3.450 -0.4429 -0.4151 -0.3605
 2021SOL    HW3 8138   1.806   0.371   3.325 -1.7942  0.1718 -0.0149
 2021SOL    MW4 8139   1.791   0.363   3.411 -0.6524 -0.1738  0.1605
 2022SOL     OW 8140   2.037   0.513   3.487 -0.2145 -0.1136 -0.2832
 2022SOL    HW2 8141   2.030   0.597   3.441 -1.5808  0.5942  1.1883
 2022SOL    HW3 8142   1.951   0.472   3.474 -0.0125 -0.6851  0.1714
 2022SOL    MW4 8143   2.025   0.519   3.479 -0.3681 -0.0956 -0.0291
 2023SOL     OW 8144   2.010   0.784   3.419 -0.3891 -0.0912  0.2126
 2023SOL    HW2 8145   2.085   0.829   3.458  0.7968 -1.1906 -0.7319
 2023SOL    HW3 8146   2.023   0.794   3.324 -0.9995 -0.9712  0.0279
 2023SOL    MW4 8147   2.021   0.792   3.411 -0.3133 -0.3524  0.0639
 2024SOL     OW 8148   1.802   0.956   3.491 -0.0167 -0.2648 -0.0843
 2024SOL    HW2 8149   1.877   0.901   3.468  1.0846  0.0396  2.6041
 2024SOL    HW3 8150   1.726   0.908   3.457  1.1722 -1.9344 -0.4455
 2024SOL    MW4 8151   1.802   0.942   3.483  0.2855 -0.4449  0.2227
 2025SOL     OW 8152   1.815   1.177   3.337 -0.3066  0.0866  0.0621
 2025SOL    HW2 8153   1.885   1.228   3.377 -0.5311  0.7655 -0.3945
 2025SOL    HW3 8154   1.816   1.093   3.383 -0.2586  0.6836  1.1532
 2025SOL    MW4 8155   1.824   1.173   3.348 -0.3300  0.2550  0.1462
 2026SOL     OW 8156   2.029   1.313   3.480 -0.0162 -0.2241  0.0967
 2026SOL    HW2 8157   2.015   1.323   3.574 -3.6577 -0.0437 -0.4083
 2026SOL    HW3 8158   2.050   1.401   3.449 -0.3448 -0.0039  0.5071
 2026SOL    MW4 8159   2.030   1.326   3.488 -0.5398 -0.1712  0.0844
 2027SOL     OW 8160   2.080   1.601   3.406  0.1137  0.2294  0.3273
 2027SOL    HW2 8161   2.146   1.646   3.459  0.0347  0.9563 -0.1847
 2027SOL    HW3 8162   1.997   1.636   3.436  0.0427  0.3301  0.0131
 2027SOL    MW4 8163   2.078   1.612   3.417  0.0939  0.3386  0.2182
 2028SOL     OW 8164   1.819   1.682   3.507 -1.0285  0.1604 -0.2056
 2028SOL    HW2 8165   1.804   1.769   3.469  0.2500 -0.4331 -2.1418
 2028SOL    HW3 8166   1.747   1.629   3.472 -1.3563  0.2344  0.3448
 2028SOL    MW4 8167   1.807   1.687   3.497 -0.9030  0.0918 -0.3889
 2029SOL     OW 8168   1.799   1.960   3.405  0.2199  0.0886 -0.4043
 2029SOL    HW2 8169   1.879   2.001   3.439 -0.4688  0.2468  1.0880
 2029SOL    HW3 8170   1.812   1.956   3.311  1.5150  1.1304 -0.2867
 2029SOL    MW4 8171   1.811   1.965   3.397  0.2999  0.2469 -0.1917
 2030SOL     OW 8172   2.035   2.068   3.494  0.3488  0.2745  0.0960
 2030SOL    HW2 8173   2.118   2.034   3.460  0.2891  0.6955 -0.4879
 2030SOL    HW3 8174   2.020   2.148   3.443 -1.8315 -1.2700 -1.7359
 2030SOL    MW4 8175   2.044   2.074   3.483  0.0536  0.1264 -0.2224
 2031SOL     OW 8176   1.974   2.304   3.365  0.4277 -0.2742  0.2777
 2031SOL    HW2 8177   2.057   2.343   3.393  0.6372 -0.7313  0.2947
 2031SOL    HW3 8178   1.970   2.321   3.271  1.4982 -2.0155 -0.0951
 2031SOL    MW4 8179   1.984   2.312   3.356  0.5965 -0.5641  0.2306
 2032SOL     OW 8180   1.821   2.464   3.541  0.0186  0.1507 -0.5571
 2032SOL    HW2 8181   1.887   2.413   3.493 -0.7840  0.1319 -1.6716
 2032SOL    HW3 8182   1.738   2.438   3.502 -0.6514  0.2573  0.7635
 2032SOL    MW4 8183   1.819   2.454   3.529 -0.1758  0.1624 -0.5298
 2033SOL     OW 8184   1.840   2.709   3.393 -0.6120 -0.0381  0.3017
 2033SOL    HW2 8185   1.903   2.765   3.439  0.1324 -0.0790 -0.6439
 2033SOL    HW3 8186   1.845   2.625   3.438  0.5999 -0.2764 -0.2351
 2033SOL    MW4 8187   1.849   2.705   3.405 -0.3539 -0.0751  0.1061
 2034SOL     OW 8188   2.047   2.872   3.498  0.7449 -0.0174  0.0042
 2034SOL    HW2 8189   2.038   2.886   3.593  1.2860 -0.2646  0.0969
 2034SOL    HW3 8190   2.040   2.960   3.460  0.0561  0.0264  0.2356
 2034SOL    MW4 8191   2.045   2.886   3.506  0.7253 -0.0441  0.0470
 2035SOL     OW 8192   1.999   3.142   3.412 -0.1656  0.1336  0.4144
 2035SOL    HW2 8193   2.075   3.188   3.447 -0.0267 -0.5820  1.0661
 2035SOL    HW3 8194   1.925   3.175   3.464 -0.1743  0.1724  0.3778
 2035SOL    MW4 8195   1.999   3.152   3.424 -0.1483  0.0443  0.4957
 2036SOL     OW 8196   1.763   3.255   3.513 -0.4056  0.2394  0.1566
 2036SOL    HW2 8197   1.778   3.239   3.606  0.4175  0.9300  0.1493
 2036SOL    HW3 8198   1.775   3.350   3.503 -1.1437  0.2624 -0.5330
 2036SOL    MW4 8199   1.767   3.266   3.524 -0.3945  0.3335  0.0646
 2037SOL     OW 8200   1.805   3.531   3.448 -0.0908  0.2587 -0.2256
 2037SOL    HW2 8201   1.721   3.568   3.472  0.0625  1.6295 -1.6624
 2037SOL    HW3 8202   1.804   3.529   3.352  0.5510 -2.0084 -0.2101
 2037SOL    MW4 8203   1.794   3.536   3.439  0.0142  0.1402 -0.4129
 2038SOL     OW 8204   2.001   3.709   3.527  0.8012  0.3572 -0.1727
 2038SOL    HW2 8205   2.077   3.654   3.508  0.1779 -0.4748 -0.2766
 2038SOL    HW3 8206   1.925   3.653   3.511  0.2036 -0.0259  3.4759
 2038SOL    MW4 8207   2.001   3.694   3.522  0.6399  0.1967  0.2949
 2039SOL     OW 8208   1.984   3.963   3.402 -0.0541  0.0497  0.0912
 2039SOL    HW2 8209   1.900   3.991   3.438 -0.2665  0.8059 -0.9841
 2039SOL    HW3 8210   2.001   3.878   3.444 -1.1080  0.1308  0.6863
 2039SOL    MW4 8211   1.975   3.955   3.412 -0.2211  0.1600  0.0277
 2040SOL     OW 8212   1.755   4.087   3.513 -0.1955 -0.3172 -0.2340
 2040SOL    HW2 8213   1.760   4.080   3.609  0.6137  0.4277 -0.2135
 2040SOL    HW3 8214   1.680   4.033   3.489 -0.3381 -0.6010  0.8144
 2040SOL    MW4 8215   1.746   4.079   3.523 -0.1075 -0.2565 -0.0930
 2041SOL     OW 8216   1.771   4.326   3.361 -0.6007  0.3112 -0.0450
 2041SOL    HW2 8217   1.782   4.246   3.412 -1.8500  0.6364  0.7719
 2041SOL    HW3 8218   1.752   4.296   3.273 -0.2731 -0.2824  0.0814
 2041SOL    MW4 8219   1.770   4.311   3.356 -0.7223  0.2756  0.0794
 2042SOL     OW 8220   2.003   4.436   3.500 -0.3576 -0.1728 -0.0879
 2042SOL    HW2 8221   1.931   4.410   3.442  0.3387 -0.8266 -0.6696
 2042SOL    HW3 8222   2.022   4.526   3.475 -1.0761  0.0560  0.1766
 2042SOL    MW4 8223   1.996   4.444   3.489 -0.3605 -0.2294 -0.1297
 2043SOL     OW 8224   2.523   4.619   3.394 -0.5090  0.2957 -0.4862
 2043SOL    HW2 8225   2.539   4.530   3.426 -0.1160  0.6533  0.3280
 2043SOL    HW3 8226   2.495   4.608   3.303  0.0791 -0.6221 -0.5531
 2043SOL    MW4 8227   2.521   4.606   3.386 -0.3798  0.2217 -0.3874
 2044SOL     OW 8228   2.312   0.115   3.502 -0.0827 -0.1637  0.8479
 2044SOL    HW2 8229   2.318   0.207   3.477 -1.3128 -0.3302 -0.1415
 2044SOL    HW3 8230   2.378   0.071   3.449 -0.2839 -0.0080  0.4658
 2044SOL    MW4 8231   2.321   0.121   3.492 -0.2716 -0.1651  0.6669
 2045SOL     OW 8232   2.275   0.385   3.440 -0.2548 -0.1393 -0.3480
 2045SOL    HW2 8233   2.347   0.444   3.461 -0.4106 -0.0052 -0.1907
 2045SOL    HW3 8234   2.196   0.438   3.451 -0.3165  0.0734 -1.7540
 2045SOL    MW4 8235   2.274   0.400   3.444 -0.2837 -0.0936 -0.5128
 2046SOL     OW 8236   2.493   0.544   3.539  0.1490 -0.0775 -0.0739
 2046SOL    HW2 8237   2.561   0.494   3.493  0.1719 -1.2800  1.2209
 2046SOL    HW3 8238   2.491   0.629   3.495  2.7790  0.1241  0.1447
 2046SOL    MW4 8239   2.501   0.549   3.527  0.4992 -0.2095  0.1256
 2047SOL     OW 8240   2.504   0.782   3.406 -0.0976 -0.2030  0.1848
 2047SOL    HW2 8241   2.580   0.836   3.429 -0.3830  0.3283 -0.1145
 2047SOL    HW3 8242   2.501   0.784   3.310 -1.9422  1.8403  0.2260
 2047SOL    MW4 8243   2.513   0.790   3.397 -0.3788  0.1368  0.1507
 2048SOL     OW 8244   2.254   0.901   3.510  0.1253  0.0808  0.3167
 2048SOL    HW2 8245   2.244   0.990   3.477  0.0637  0.0695  0.3056
 2048SOL    HW3 8246   2.329   0.866   3.462 -0.1936 -0.0625 -0.0737
 2048SOL    MW4 8247   2.263   0.908   3.499  0.0751  0.0604  0.2637
 2049SOL     OW 8248   2.248   1.166   3.393  0.3707  0.0806 -0.0957
 2049SOL    HW2 8249   2.328   1.205   3.427  0.6904 -1.1302  0.5616
 2049SOL    HW3 8250   2.178   1.218   3.431  0.8089  0.3083  0.4107
 2049SOL    MW4 8251   2.249   1.178   3.403  0.4706 -0.0491  0.0579
 2050SOL     OW 8252   2.464   1.297   3.516  0.3606 -0.2464 -0.1069
 2050SOL    HW2 8253   2.485   1.267   3.605 -0.3835 -0.2242  0.0764
 2050SOL    HW3 8254   2.534   1.260   3.462  0.3025 -1.0492  0.3493
 2050SOL    MW4 8255   2.476   1.288   3.521  0.2551 -0.3495 -0.0226
 2051SOL     OW 8256   2.508   1.574   3.428  0.2309 -0.6311  0.0908
 2051SOL    HW2 8257   2.482   1.485   3.454 -1.1089 -0.2558  0.0468
 2051SOL    HW3 8258   2.489   1.579   3.335  0.0627 -0.1977  0.1508
 2051SOL    MW4 8259   2.502   1.563   3.419  0.0319 -0.5243  0.0927
 2052SOL     OW 8260   2.306   1.727   3.537 -0.0357  0.1554  0.7208
 2052SOL    HW2 8261   2.298   1.733   3.632 -0.1991  1.5253  0.6285
 2052SOL    HW3 8262   2.387   1.679   3.522  0.0298  0.0129  1.5563
 2052SOL    MW4 8263   2.316   1.722   3.547 -0.0489  0.3172  0.8190
 2053SOL     OW 8264   2.262   1.963   3.393  0.4868  0.0309 -0.1459
 2053SOL    HW2 8265   2.257   1.872   3.423 -0.8780  0.3634  0.7031
 2053SOL    HW3 8266   2.228   1.961   3.304 -0.7515 -0.0989  0.3245
 2053SOL    MW4 8267   2.257   1.950   3.385  0.1433  0.0575  0.0284
 2054SOL     OW 8268   2.507   2.078   3.514 -0.5631  0.3941  0.0707
 2054SOL    HW2 8269   2.492   2.095   3.608 -0.0478 -1.2094  0.4602
 2054SOL    HW3 8270   2.428   2.030   3.487 -0.5202  0.4901 -0.2169
 2054SOL    MW4 8271   2.494   2.074   3.523 -0.4897  0.1950  0.0839
 2055SOL     OW 8272   2.447   2.316   3.394  0.4709  0.1232 -0.4378
 2055SOL    HW2 8273   2.518   2.374   3.422  1.2809 -0.6801 -0.7980
 2055SOL    HW3 8274   2.469   2.231   3.433 -1.3494  0.3175  1.1125
 2055SOL    MW4 8275   2.459   2.313   3.403  0.3376  0.0429 -0.2809
 2056SOL     OW 8276   2.199   2.423   3.473 -0.4386  0.5935 -0.1718
 2056SOL    HW2 8277   2.218   2.512   3.444 -0.8180  0.9717  0.7193
 2056SOL    HW3 8278   2.276   2.372   3.448  0.3109  1.4196  0.4143
 2056SOL    MW4 8279   2.211   2.428   3.466 -0.3898  0.7522  0.0234
 2057SOL     OW 8280   2.250   2.705   3.408  0.0595 -0.3028 -0.1150
 2057SOL    HW2 8281   2.174   2.761   3.425  0.3711  0.2041 -0.3956
 2057SOL    HW3 8282   2.261   2.707   3.313 -0.4732 -1.5666 -0.2171
 2057SOL    MW4 8283   2.241   2.713   3.398  0.0303 -0.4027 -0.1657
 2058SOL     OW 8284   2.466   2.846   3.512  0.5814 -0.1583 -0.0426
 2058SOL    HW2 8285   2.451   2.929   3.467 -1.5550  0.1722  1.2085
 2058SOL    HW3 8286   2.395   2.789   3.483  1.1415 -1.0404  0.3028
 2058SOL    MW4 8287   2.455   2.849   3.502  0.3734 -0.2310  0.1678
 2059SOL     OW 8288   2.478   3.097   3.387  0.2518  0.3551 -0.2822
 2059SOL    HW2 8289   2.564   3.130   3.414  0.9399 -0.0485 -1.9197
 2059SOL    HW3 8290   2.471   3.121   3.295 -0.6070 -1.2380 -0.6519
 2059SOL    MW4 8291   2.488   3.105   3.379  0.2291  0.0913 -0.5472
 2060SOL     OW 8292   2.230   3.244   3.507  0.1527 -0.2817 -0.5657
 2060SOL    HW2 8293   2.235   3.250   3.602 -0.3338  1.0668 -0.6176
 2060SOL    HW3 8294   2.312   3.203   3.481  0.0873 -1.0875  0.4702
 2060SOL    MW4 8295   2.241   3.239   3.516  0.0801 -0.2103 -0.4358
 2061SOL     OW 8296   2.183   3.502   3.437 -0.5032  0.4290  0.2505
 2061SOL    HW2 8297   2.191   3.408   3.449  1.2970  0.5100 -0.1365
 2061SOL    HW3 8298   2.193   3.516   3.343 -1.7968  0.9183  0.1773
 2061SOL    MW4 8299   2.185   3.492   3.426 -0.4363  0.5043  0.1898
 2062SOL     OW 8300   2.470   3.596   3.468  0.2658 -0.0261  0.0833
 2062SOL    HW2 8301   2.468   3.691   3.465  0.1446 -0.0250  0.1892
 2062SOL    HW3 8302   2.379   3.569   3.458  0.5080 -0.1858 -1.7814
 2062SOL    MW4 8303   2.458   3.605   3.466  0.2818 -0.0470 -0.1485
 2063SOL     OW 8304   2.437   3.884   3.446  0.1027 -0.2837  0.1628
 2063SOL    HW2 8305   2.524   3.910   3.476 -0.3119  0.6461  0.5738
 2063SOL    HW3 8306   2.383   3.963   3.456 -0.6650 -0.7097 -0.5641
 2063SOL    MW4 8307   2.441   3.898   3.452 -0.0532 -0.2172  0.1214
 2064SOL     OW 8308   2.225   4.054   3.490 -0.4155 -0.4089  0.8140
 2064SOL    HW2 8309   2.235   4.147   3.472  0.7132 -0.5181  0.8507
 2064SOL    HW3 8310   2.138   4.032   3.455 -0.5951  0.5998  0.6093
 2064SOL    MW4 8311   2.215   4.063   3.483 -0.2904 -0.2894  0.7918
 2065SOL     OW 8312   2.239   4.305   3.392 -0.0302  0.1670  0.0531
 2065SOL    HW2 8313   2.163   4.358   3.418 -0.1774  0.5267 -1.0929
 2065SOL    HW3 8314   2.224   4.287   3.300  2.2619  1.9004 -0.7010
 2065SOL    MW4 8315   2.227   4.310   3.384  0.2525  0.4425 -0.1974
 2066SOL     OW 8316   2.511   4.343   3.481 -0.2946 -0.3632 -0.0666
 2066SOL    HW2 8317   2.506   4.360   3.575  0.5725  0.9630 -0.2444
 2066SOL    HW3 8318   2.419   4.344   3.452 -0.5233 -0.1355  0.6457
 2066SOL    MW4 8319   2.498   4.345   3.489 -0.2105 -0.1578  0.0041
 2067SOL     OW 8320   2.932   4.632   3.444  0.0985 -0.4363 -0.0295
 2067SOL    HW2 8321   2.855   4.670   3.486 -0.2462 -0.8889 -0.2440
 2067SOL    HW3 8322   2.925   4.659   3.352  1.9052  2.2536  0.5579
 2067SOL    MW4 8323   2.921   4.640   3.437  0.2911 -0.1411  0.0196
 2068SOL     OW 8324   2.715   0.123   3.510  0.3351  0.2164 -0.0130
 2068SOL    HW2 8325   2.695   0.212   3.483 -0.9784 -0.1784 -0.3848
 2068SOL    HW3 8326   2.641   0.071   3.478  0.4407 -0.7927  1.3546
 2068SOL    MW4 8327   2.702   0.128   3.502  0.1757  0.0312  0.1183
 2069SOL     OW 8328   2.704   0.402   3.412  0.2108  0.1291 -0.0347
 2069SOL    HW2 8329   2.790   0.433   3.440  0.1433  1.0099 -0.7748
 2069SOL    HW3 8330   2.715   0.381   3.319 -0.1630 -0.5397  0.0680
 2069SOL    MW4 8331   2.717   0.403   3.403  0.1526  0.1571 -0.1190
 2070SOL     OW 8332   2.940   0.491   3.515  0.5122  0.1116 -0.0684
 2070SOL    HW2 8333   2.947   0.503   3.610  2.2031  0.5311 -0.2290
 2070SOL    HW3 8334   2.952   0.579   3.479 -0.0649 -0.0565 -0.6826
 2070SOL    MW4 8335   2.942   0.504   3.523  0.6592  0.1447 -0.1705
 2071SOL     OW 8336   2.950   0.747   3.421 -0.1790  0.0365 -0.2542
 2071SOL    HW2 8337   3.034   0.781   3.451 -0.5686  0.9201 -0.1393
 2071SOL    HW3 8338   2.887   0.816   3.443 -0.8028 -0.2476 -1.1130
 2071SOL    MW4 8339   2.953   0.761   3.428 -0.3126  0.1157 -0.3526
 2072SOL     OW 8340   2.744   0.938   3.488  0.2748 -0.6091 -0.2397
 2072SOL    HW2 8341   2.762   0.932   3.581  0.4390 -1.1969 -0.3100
 2072SOL    HW3 8342   2.722   1.030   3.474 -1.5164 -0.8777  0.6739
 2072SOL    MW4 8343   2.744   0.950   3.498  0.0598 -0.7221 -0.1285
 2073SOL     OW 8344   2.680   1.178   3.399  0.4167 -0.5484 -0.2686
 2073SOL    HW2 8345   2.766   1.220   3.409  0.7484 -1.5663  1.1570
 2073SOL    HW3 8346   2.679   1.149   3.308  0.6901  1.4333 -0.9314
 2073SOL    MW4 8347   2.691   1.180   3.388  0.4969 -0.4212 -0.1681
 2074SOL     OW 8348   2.967   1.255   3.450  0.2151 -0.0594 -0.2693
 2074SOL    HW2 8349   2.971   1.268   3.545 -1.6635  0.9610 -0.3106
 2074SOL    HW3 8350   3.036   1.191   3.432  0.4691 -0.4093  1.8084
 2074SOL    MW4 8351   2.977   1.248   3.460  0.0010  0.0290 -0.0007
 2075SOL     OW 8352   2.944   1.523   3.392  0.3218  0.8455  0.3605
 2075SOL    HW2 8353   2.879   1.562   3.451 -0.3746  0.6785 -0.2881
 2075SOL    HW3 8354   2.957   1.435   3.426 -0.2105  0.6882  0.1649
 2075SOL    MW4 8355   2.937   1.517   3.404  0.1600  0.8028  0.2491
 2076SOL     OW 8356   2.741   1.669   3.510 -0.2159 -0.3232 -0.3835
 2076SOL    HW2 8357   2.739   1.761   3.485 -2.5322  0.2479  1.7042
 2076SOL    HW3 8358   2.659   1.634   3.475 -0.7413 -0.8739  1.3782
 2076SOL    MW4 8359   2.730   1.676   3.502 -0.5910 -0.3204  0.1242
 2077SOL     OW 8360   2.711   1.921   3.414  0.0432  0.1477 -0.0112
 2077SOL    HW2 8361   2.631   1.958   3.449 -0.7676 -0.0371 -1.6167
 2077SOL    HW3 8362   2.705   1.935   3.320  1.4445 -0.7328 -0.2518
 2077SOL    MW4 8363   2.700   1.928   3.406  0.1214  0.0072 -0.2549
 2078SOL     OW 8364   2.933   2.076   3.530  0.3334 -0.1780  0.2397
 2078SOL    HW2 8365   2.948   2.068   3.624  0.2514  0.0300  0.2701
 2078SOL    HW3 8366   2.861   2.015   3.511 -2.2074  2.4729  0.9461
 2078SOL    MW4 8367   2.925   2.067   3.540 -0.0124  0.1991  0.3369
 2079SOL     OW 8368   2.923   2.333   3.388  0.1248 -0.1520 -0.3373
 2079SOL    HW2 8369   2.906   2.241   3.411 -1.4134  0.1328 -0.2378
 2079SOL    HW3 8370   2.926   2.333   3.292 -0.0981 -0.2707 -0.3447
 2079SOL    MW4 8371   2.921   2.320   3.378 -0.1075 -0.1302 -0.3252
 2080SOL     OW 8372   2.689   2.445   3.480 -0.4468  0.0213  0.4016
 2080SOL    HW2 8373   2.687   2.432   3.574  0.6729 -0.5223  0.3586
 2080SOL    HW3 8374   2.778   2.422   3.454 -0.7417  0.1628 -0.7896
 2080SOL    MW4 8375   2.700   2.440   3.489 -0.3381 -0.0317  0.2387
 2081SOL     OW 8376   2.687   2.717   3.434  0.0816  0.2660  0.5840
 2081SOL    HW2 8377   2.687   2.623   3.452 -0.3443  0.3027  0.7939
 2081SOL    HW3 8378   2.603   2.747   3.468  0.0844  0.6687  0.2282
 2081SOL    MW4 8379   2.676   2.708   3.441  0.0257  0.3238  0.5648
 2082SOL     OW 8380   2.940   2.830   3.489  0.2947  0.0154 -0.4685
 2082SOL    HW2 8381   2.949   2.832   3.584 -1.9489  0.9409 -0.2503
 2082SOL    HW3 8382   2.858   2.782   3.473  0.3511  0.3597 -1.9010
 2082SOL    MW4 8383   2.930   2.824   3.499  0.0060  0.1831 -0.6287
 2083SOL     OW 8384   2.921   3.105   3.435  0.3418 -0.2530  0.1482
 2083SOL    HW2 8385   2.910   3.014   3.462  2.0462 -0.5261 -0.0278
 2083SOL    HW3 8386   2.931   3.102   3.340  0.1920  0.1419  0.1159
 2083SOL    MW4 8387   2.920   3.093   3.426  0.5467 -0.2370  0.1209
 2084SOL     OW 8388   2.703   3.228   3.499  0.4464  0.4858  0.3314
 2084SOL    HW2 8389   2.695   3.214   3.593 -0.1679 -0.5997  0.1192
 2084SOL    HW3 8390   2.779   3.176   3.473 -0.6515 -0.9159 -0.1210
 2084SOL    MW4 8391   2.712   3.219   3.508  0.2205  0.1576  0.2439
 2085SOL     OW 8392   2.694   3.470   3.386  0.3118 -0.1526 -0.3942
 2085SOL    HW2 8393   2.692   3.381   3.422 -0.1092  0.9133  2.3446
 2085SOL    HW3 8394   2.613   3.510   3.417  1.8001  2.0521  0.7768
 2085SOL    MW4 8395   2.683   3.463   3.395  0.4528  0.2789  0.1218
 2086SOL     OW 8396   2.920   3.597   3.477  0.8121 -0.3603  0.0856
 2086SOL    HW2 8397   2.915   3.684   3.437 -1.2034  0.0467  1.1733
 2086SOL    HW3 8398   2.846   3.549   3.441  0.9466 -1.0889  0.7621
 2086SOL    MW4 8399   2.910   3.602   3.467  0.5639 -0.4025  0.3183
 2087SOL     OW 8400   2.927   3.861   3.397  0.1181  0.0874  0.0892
 2087SOL    HW2 8401   2.995   3.915   3.437 -0.2246 -0.3265  1.2407
 2087SOL    HW3 8402   2.846   3.888   3.441 -0.1585 -0.8582  0.1798
 2087SOL    MW4 8403   2.925   3.872   3.408  0.0365 -0.0920  0.2530
 2088SOL     OW 8404   2.697   3.948   3.495 -0.4176 -0.1950  0.1208
 2088SOL    HW2 8405   2.698   3.978   3.585  3.1414 -1.0097  0.4437
 2088SOL    HW3 8406   2.700   4.028   3.442  0.0156  0.2146  0.7687
 2088SOL    MW4 8407   2.698   3.962   3.500  0.1090 -0.2484  0.2489
 2089SOL     OW 8408   2.712   4.211   3.369 -0.0417  0.0191  0.4647
 2089SOL    HW2 8409   2.786   4.247   3.417 -0.7119  0.7873  0.9416
 2089SOL    HW3 8410   2.637   4.264   3.397 -0.7712 -0.7517  0.0045
 2089SOL    MW4 8411   2.712   4.223   3.379 -0.2263  0.0191  0.4673
 2090SOL     OW 8412   2.930   4.353   3.463 -0.1224 -0.3378 -0.0937
 2090SOL    HW2 8413   2.922   4.342   3.558 -0.6197 -0.3161 -0.1271
 2090SOL    HW3 8414   2.941   4.447   3.451  1.3207 -0.4877  0.0240
 2090SOL    MW4 8415   2.930   4.364   3.474  0.0024 -0.3548 -0.0827
 2091SOL     OW 8416   3.414   4.646   3.400 -0.1117  0.1624 -0.6457
 2091SOL    HW2 8417   3.338   4.692   3.438  0.2287  1.3974 -1.4133
 2091SOL    HW3 8418   3.388   4.629   3.309 -0.4624 -1.7313 -0.2141
 2091SOL    MW4 8419   3.400   4.650   3.393 -0.1132  0.0753 -0.6900
 2092SOL     OW 8420   3.190   0.091   3.530 -0.5223 -0.1217 -0.2573
 2092SOL    HW2 8421   3.192   0.184   3.508  0.6082 -0.1628 -0.3827
 2092SOL    HW3 8422   3.104   0.061   3.502 -0.3927  0.5891 -1.4553
 2092SOL    MW4 8423   3.179   0.100   3.524 -0.3562 -0.0333 -0.4320
 2093SOL     OW 8424   3.153   0.341   3.440  0.0584 -0.0131  0.4286
 2093SOL    HW2 8425   3.070   0.372   3.476 -0.0575  1.1500 -0.8263
 2093SOL    HW3 8426   3.147   0.356   3.346  2.2082  1.3339  0.4591
 2093SOL    MW4 8427   3.142   0.347   3.433  0.3264  0.3181  0.2670
 2094SOL     OW 8428   3.410   0.468   3.506 -0.1430  0.3159  0.0719
 2094SOL    HW2 8429   3.418   0.481   3.600  0.7177  0.5134 -0.0231
 2094SOL    HW3 8430   3.329   0.419   3.496  1.7786 -3.3463  1.2986
 2094SOL    MW4 8431   3.401   0.463   3.517  0.2241 -0.1412  0.2213
 2095SOL     OW 8432   3.422   0.736   3.410 -0.6570 -0.2410 -0.0798
 2095SOL    HW2 8433   3.496   0.785   3.447 -0.2392 -0.0068 -1.1843
 2095SOL    HW3 8434   3.437   0.646   3.438 -0.0283 -0.1684 -0.1584
 2095SOL    MW4 8435   3.434   0.730   3.418 -0.5188 -0.2005 -0.2360
 2096SOL     OW 8436   3.185   0.852   3.510 -0.1860 -0.1918  0.2884
 2096SOL    HW2 8437   3.187   0.937   3.466 -0.8270 -0.0502  0.5201
 2096SOL    HW3 8438   3.261   0.805   3.477  0.4538  0.6680  0.5463
 2096SOL    MW4 8439   3.195   0.857   3.500 -0.1862 -0.0597  0.3531
 2097SOL     OW 8440   3.186   1.097   3.404 -0.2617 -0.1783  0.2628
 2097SOL    HW2 8441   3.256   1.159   3.427 -0.4090  0.0049  0.2193
 2097SOL    HW3 8442   3.176   1.106   3.310 -0.7776  0.2528  0.3593
 2097SOL    MW4 8443   3.194   1.106   3.395 -0.3490 -0.0973  0.2699
 2098SOL     OW 8444   3.369   1.297   3.503  0.1999  0.0720 -0.6702
 2098SOL    HW2 8445   3.428   1.270   3.433 -0.3165  0.6219 -1.3280
 2098SOL    HW3 8446   3.362   1.392   3.493  0.7995  0.2565  0.6650
 2098SOL    MW4 8447   3.376   1.306   3.492  0.2110  0.1690 -0.5808
 2099SOL     OW 8448   3.373   1.571   3.431  0.0431  0.2585 -0.1860
 2099SOL    HW2 8449   3.445   1.617   3.473 -0.1883 -0.3171  0.8698
 2099SOL    HW3 8450   3.295   1.621   3.456  0.0065  0.5076 -0.7905
 2099SOL    MW4 8451   3.372   1.583   3.440  0.0079  0.2154 -0.1264
 2100SOL     OW 8452   3.139   1.690   3.530 -0.1455 -0.1792 -0.1025
 2100SOL    HW2 8453   3.129   1.780   3.498  1.2946  0.0364  0.0289
 2100SOL    HW3 8454   3.084   1.638   3.471 -0.5081  0.7045 -0.5620
 2100SOL    MW4 8455   3.131   1.695   3.518 -0.0033 -0.0342 -0.1457
 2101SOL     OW 8456   3.150   1.954   3.437 -0.0587 -0.1746 -0.2799
 2101SOL    HW2 8457   3.080   2.014   3.463 -0.5564 -0.9474  0.1738
 2101SOL    HW3 8458   3.153   1.961   3.341  1.3105  2.1522 -0.0978
 2101SOL    MW4 8459   3.141   1.963   3.427  0.0565  0.0303 -0.1962
 2102SOL     OW 8460   3.410   2.087   3.517 -0.8385  0.6442 -0.0123
 2102SOL    HW2 8461   3.408   2.178   3.487 -0.8690  0.6252 -0.0693
 2102SOL    HW3 8462   3.340   2.045   3.467 -0.5309  0.4865 -0.3166
 2102SOL    MW4 8463   3.400   2.094   3.506 -0.8020  0.6211 -0.0598
 2103SOL     OW 8464   3.394   2.341   3.403  0.2074  0.2001 -0.0701
 2103SOL    HW2 8465   3.463   2.393   3.443  0.6595 -0.4272 -0.0335
 2103SOL    HW3 8466   3.313   2.377   3.440  0.6142 -0.2879  1.3131
 2103SOL    MW4 8467   3.392   2.353   3.413  0.3207  0.0529  0.1173
 2104SOL     OW 8468   3.157   2.427   3.470 -0.2030 -0.3706 -0.8264
 2104SOL    HW2 8469   3.165   2.516   3.436  0.5909 -0.2268 -0.2819
 2104SOL    HW3 8470   3.070   2.398   3.442 -0.2515  0.3783 -1.4653
 2104SOL    MW4 8471   3.147   2.435   3.462 -0.1049 -0.2527 -0.8390
 2105SOL     OW 8472   3.163   2.691   3.370  0.8160  0.0591 -0.2191
 2105SOL    HW2 8473   3.242   2.738   3.396  0.5079  1.0284 -1.0085
 2105SOL    HW3 8474   3.091   2.745   3.403  0.4684 -0.4944 -0.0535
 2105SOL    MW4 8475   3.164   2.704   3.378  0.7293  0.1140 -0.3016
 2106SOL     OW 8476   3.372   2.828   3.497 -0.1027  0.6405  0.0312
 2106SOL    HW2 8477   3.445   2.773   3.469  0.1198  0.5488  0.7904
 2106SOL    HW3 8478   3.389   2.913   3.456 -0.9321 -0.0994 -1.9033
 2106SOL    MW4 8479   3.384   2.832   3.488 -0.1829  0.5307 -0.1237
 2107SOL     OW 8480   3.398   3.063   3.376 -0.0921  0.2262  0.3652
 2107SOL    HW2 8481   3.472   3.102   3.423 -0.3526 -0.3388  1.2507
 2107SOL    HW3 8482   3.321   3.102   3.416 -0.3168 -0.2959  0.4416
 2107SOL    MW4 8483   3.398   3.074   3.388 -0.1562  0.0825  0.4921
 2108SOL     OW 8484   3.181   3.192   3.506  0.6094 -0.3539  0.1813
 2108SOL    HW2 8485   3.190   3.287   3.493 -0.4176 -0.2258  0.4309
 2108SOL    HW3 8486   3.093   3.172   3.476  1.2886 -1.4591 -1.1658
 2108SOL    MW4 8487   3.171   3.202   3.500  0.5636 -0.4830  0.0367
 2109SOL     OW 8488   3.161   3.468   3.428 -0.1468 -0.0396  0.0396
 2109SOL    HW2 8489   3.076   3.505   3.449 -0.3682 -0.3778 -0.2507
 2109SOL    HW3 8490   3.171   3.481   3.333  0.5805  0.9379  0.2460
 2109SOL    MW4 8491   3.151   3.475   3.418 -0.0799  0.0451  0.0288
 2110SOL     OW 8492   3.417   3.605   3.517  0.3347  0.0798 -0.2571
 2110SOL    HW2 8493   3.422   3.692   3.477 -1.9116 -0.5912 -2.0926
 2110SOL    HW3 8494   3.332   3.571   3.490  2.1643 -3.6724 -1.6768
 2110SOL    MW4 8495   3.407   3.612   3.508  0.2799 -0.5035 -0.6864
 2111SOL     OW 8496   3.414   3.867   3.387 -0.5293  0.0213 -0.0324
 2111SOL    HW2 8497   3.494   3.920   3.393 -0.8042  0.5870 -1.3121
 2111SOL    HW3 8498   3.346   3.921   3.427 -0.8249  0.6732 -1.4054
 2111SOL    MW4 8499   3.416   3.881   3.393 -0.6046  0.1819 -0.3822
 2112SOL     OW 8500   3.178   3.980   3.510 -0.2096 -0.4840 -0.7287
 2112SOL    HW2 8501   3.173   3.982   3.605  1.1707 -0.9055 -0.6282
 2112SOL    HW3 8502   3.186   4.072   3.484 -0.5681 -0.3719 -0.4465
 2112SOL    MW4 8503   3.178   3.992   3.519 -0.0751 -0.5248 -0.6783
 2113SOL     OW 8504   3.180   4.237   3.433  0.1093  0.1866 -0.2478
 2113SOL    HW2 8505   3.243   4.302   3.462  1.5532 -0.6060 -1.5388
 2113SOL    HW3 8506   3.094   4.278   3.448  0.8729  0.8913  2.3924
 2113SOL    MW4 8507   3.177   4.251   3.438  0.4008  0.1750 -0.0699
 2114SOL     OW 8508   3.420   4.382   3.507 -0.0584  0.2689  0.1453
 2114SOL    HW2 8509   3.416   4.387   3.602  0.1618  0.6963  0.1345
 2114SOL    HW3 8510   3.417   4.473   3.477  0.5236  0.1760 -0.2236
 2114SOL    MW4 8511   3.419   4.395   3.515  0.0474  0.3133  0.0951
 2115SOL     OW 8512   3.832   4.609   3.389  0.0687  0.1004  0.1213
 2115SOL    HW2 8513   3.762   4.645   3.445  0.4248 -0.0126  0.6409
 2115SOL    HW3 8514   3.801   4.625   3.300 -0.1576  0.9690  0.3453
 2115SOL    MW4 8515   3.819   4.616   3.385  0.0858  0.2003  0.2196
 2116SOL     OW 8516   3.649   0.089   3.546 -0.3465  0.2786  0.0798
 2116SOL    HW2 8517   3.666   0.175   3.508 -1.3216  0.6537  0.4843
 2116SOL    HW3 8518   3.572   0.057   3.498  0.3029 -0.5802 -0.4084
 2116SOL    MW4 8519   3.641   0.096   3.535 -0.3891  0.2148  0.0689
 2117SOL     OW 8520   3.649   0.339   3.433  0.0015 -0.2194 -0.4168
 2117SOL    HW2 8521   3.714   0.401   3.465 -1.1084  0.1867  1.0859
 2117SOL    HW3 8522   3.565   0.378   3.458 -0.7816 -1.2663 -1.3888
 2117SOL    MW4 8523   3.646   0.353   3.440 -0.2482 -0.3040 -0.3469
 2118SOL     OW 8524   3.851   0.503   3.500  0.3302 -0.2035  0.0084
 2118SOL    HW2 8525   3.831   0.506   3.593  0.0552 -0.0182 -0.0584
 2118SOL    HW3 8526   3.928   0.446   3.494  0.2382 -0.3627  0.3294
 2118SOL    MW4 8527   3.859   0.496   3.511  0.2820 -0.2001  0.0417
 2119SOL     OW 8528   3.840   0.735   3.385  0.1381 -0.2304 -0.1478
 2119SOL    HW2 8529   3.909   0.779   3.434  1.2916 -0.5718 -1.4224
 2119SOL    HW3 8530   3.847   0.643   3.410  0.4357 -0.3344 -0.6092
 2119SOL    MW4 8531   3.850   0.728   3.395  0.3297 -0.2892 -0.3767
 2120SOL     OW 8532   3.628   0.870   3.520 -0.3651  0.0857 -0.0208
 2120SOL    HW2 8533   3.637   0.899   3.611  0.6558 -0.2178 -0.0237
 2120SOL    HW3 8534   3.713   0.832   3.498 -0.1095  1.5132 -1.5839
 2120SOL    MW4 8535   3.640   0.869   3.529 -0.1965  0.2340 -0.2275
 2121SOL     OW 8536   3.596   1.151   3.415 -0.0944 -0.2842  0.0409
 2121SOL    HW2 8537   3.595   1.066   3.459  1.7747 -0.8136 -0.8895
 2121SOL    HW3 8538   3.609   1.130   3.322 -4.2912  0.8016 -0.9266
 2121SOL    MW4 8539   3.597   1.137   3.408 -0.4015 -0.2108 -0.2093
 2122SOL     OW 8540   3.838   1.241   3.487 -0.0318 -0.2254  0.2920
 2122SOL    HW2 8541   3.847   1.253   3.581  0.2533  0.4209  0.1882
 2122SOL    HW3 8542   3.748   1.212   3.474  0.1822 -1.1414  0.8373
 2122SOL    MW4 8543   3.827   1.239   3.498  0.0343 -0.2609  0.3505
 2123SOL     OW 8544   3.776   1.509   3.404 -0.3558 -0.0933 -0.4927
 2123SOL    HW2 8545   3.857   1.553   3.430 -1.6996  1.4281  1.2181
 2123SOL    HW3 8546   3.792   1.416   3.424  1.4140  0.0132 -1.3605
 2123SOL    MW4 8547   3.789   1.502   3.410 -0.2995  0.1215 -0.3815
 2124SOL     OW 8548   3.612   1.697   3.529 -0.1809 -0.0350  0.2239
 2124SOL    HW2 8549   3.640   1.781   3.492 -1.6312  1.8284  3.1708
 2124SOL    HW3 8550   3.664   1.631   3.482  0.5059  2.4348 -2.6056
 2124SOL    MW4 8551   3.622   1.699   3.518 -0.2818  0.5368  0.2396
 2125SOL     OW 8552   3.666   1.978   3.446 -0.1818  0.3129 -0.0688
 2125SOL    HW2 8553   3.747   2.021   3.474 -0.3096  0.3837  0.1916
 2125SOL    HW3 8554   3.596   2.024   3.492 -0.2080 -1.2114  1.4888
 2125SOL    MW4 8555   3.667   1.990   3.455 -0.2019  0.1211  0.1712
 2126SOL     OW 8556   3.896   2.101   3.532 -0.1424  0.7534  0.4405
 2126SOL    HW2 8557   3.883   2.085   3.625 -0.7488  2.0273  0.5765
 2126SOL    HW3 8558   3.976   2.052   3.510  0.2747  0.8510  1.7219
 2126SOL    MW4 8559   3.905   2.092   3.541 -0.1674  0.9344  0.6275
 2127SOL     OW 8560   3.838   2.334   3.371 -0.5653 -0.4404 -0.0984
 2127SOL    HW2 8561   3.916   2.383   3.398 -0.6847  0.7321 -1.7772
 2127SOL    HW3 8562   3.852   2.246   3.405  1.8369 -0.4463 -0.9807
 2127SOL    MW4 8563   3.850   2.329   3.379 -0.2639 -0.2863 -0.4365
 2128SOL     OW 8564   3.628   2.427   3.553 -0.1673 -0.2520  0.1516
 2128SOL    HW2 8565   3.611   2.513   3.516 -0.8172 -0.5470 -0.2479
 2128SOL    HW3 8566   3.694   2.388   3.496  2.1256  1.0194  1.8838
 2128SOL    MW4 8567   3.634   2.433   3.541  0.0494 -0.1233  0.3271
 2129SOL     OW 8568   3.583   2.668   3.429 -0.0355  0.8950 -0.0622
 2129SOL    HW2 8569   3.666   2.708   3.457 -0.6256  2.3365 -0.3266
 2129SOL    HW3 8570   3.588   2.667   3.333  0.5799 -1.0219 -0.0415
 2129SOL    MW4 8571   3.595   2.673   3.420 -0.0319  0.8323 -0.0944
 2130SOL     OW 8572   3.813   2.809   3.501 -0.2524 -0.0944 -0.0795
 2130SOL    HW2 8573   3.806   2.833   3.593 -1.7201 -0.2244 -0.1417
 2130SOL    HW3 8574   3.797   2.890   3.453  2.1438  0.3162 -0.2125
 2130SOL    MW4 8575   3.810   2.823   3.507 -0.1297 -0.0575 -0.1054
 2131SOL     OW 8576   3.799   3.062   3.392  0.3621  0.0147  0.0781
 2131SOL    HW2 8577   3.882   3.089   3.432  0.9431  0.1478 -1.2162
 2131SOL    HW3 8578   3.808   3.084   3.300 -1.4057  0.7008  0.0495
 2131SOL    MW4 8579   3.811   3.068   3.385  0.2058  0.1225 -0.0966
 2132SOL     OW 8580   3.590   3.190   3.523  0.0294  0.3257  0.0195
 2132SOL    HW2 8581   3.607   3.278   3.488  0.8301 -0.1103 -0.6899
 2132SOL    HW3 8582   3.652   3.134   3.478 -0.6098 -0.6449  0.3431
 2132SOL    MW4 8583   3.600   3.194   3.513  0.0505  0.1402 -0.0312
 2133SOL     OW 8584   3.596   3.441   3.413  0.2680 -0.0450 -0.4168
 2133SOL    HW2 8585   3.531   3.498   3.454 -1.3464 -1.8246 -0.4441
 2133SOL    HW3 8586   3.575   3.442   3.320 -0.9154 -2.0740 -0.1981
 2133SOL    MW4 8587   3.585   3.449   3.406 -0.1016 -0.5474 -0.3917
 2134SOL     OW 8588   3.838   3.584   3.484  0.0021  0.1271  0.1213
 2134SOL    HW2 8589   3.833   3.587   3.579 -1.0381  0.3239  0.0699
 2134SOL    HW3 8590   3.754   3.547   3.457 -0.0362  0.8326 -0.7510
 2134SOL    MW4 8591   3.826   3.579   3.493 -0.1404  0.2460 -0.0007
 2135SOL     OW 8592   3.878   3.836   3.370 -0.1042  0.5305 -0.0228
 2135SOL    HW2 8593   3.798   3.879   3.401 -1.7583 -1.9230 -0.7354
 2135SOL    HW3 8594   3.867   3.744   3.395  1.5777 -0.2229 -1.9014
 2135SOL    MW4 8595   3.866   3.829   3.377 -0.1004  0.1073 -0.3648
 2136SOL     OW 8596   3.651   3.985   3.438 -0.2207  0.0008  0.4480
 2136SOL    HW2 8597   3.620   3.981   3.529 -2.0764  0.3544 -0.1480
 2136SOL    HW3 8598   3.655   4.078   3.418  2.1331  0.0115  0.7754
 2136SOL    MW4 8599   3.647   3.997   3.448 -0.1547  0.0489  0.4125
 2137SOL     OW 8600   3.623   4.243   3.390  0.6573 -0.0430 -0.5613
 2137SOL    HW2 8601   3.550   4.282   3.438  0.2975 -0.2507 -0.9351
 2137SOL    HW3 8602   3.591   4.235   3.300  0.6621 -1.3102 -0.4651
 2137SOL    MW4 8603   3.609   4.247   3.385  0.6106 -0.2375 -0.5975
 2138SOL     OW 8604   3.828   4.375   3.519  0.3865 -0.0999 -0.2831
 2138SOL    HW2 8605   3.745   4.339   3.487  0.2042  1.0076 -1.0845
 2138SOL    HW3 8606   3.834   4.461   3.478  1.3091  0.3648  0.8049
 2138SOL    MW4 8607   3.818   4.382   3.510  0.4842  0.1082 -0.2456
 2139SOL     OW 8608   4.269   0.023   3.370 -0.2177 -0.7597  0.0265
 2139SOL    HW2 8609   4.260  -0.067   3.400  1.5748 -1.8170 -2.4381
 2139SOL    HW3 8610   4.353   0.052   3.405 -0.9594  0.0949  1.1176
 2139SOL    MW4 8611   4.279   0.015   3.378 -0.0787 -0.7864 -0.1545
 2140SOL     OW 8612   4.024   0.106   3.478  0.5192 -0.0364 -0.0582
 2140SOL    HW2 8613   4.109   0.088   3.437  0.6043 -0.3509  0.2557
 2140SOL    HW3 8614   3.965   0.042   3.438  0.5244 -0.1083  0.0515
 2140SOL    MW4 8615   4.028   0.095   3.467  0.5307 -0.0874 -0.0024
 2141SOL     OW 8616   4.072   0.373   3.420  0.2508 -0.1584 -0.1953
 2141SOL    HW2 8617   4.046   0.282   3.434 -1.7565  0.5355  0.7923
 2141SOL    HW3 8618   4.058   0.388   3.326  0.7636 -0.9184 -0.3937
 2141SOL    MW4 8619   4.066   0.363   3.409  0.0534 -0.1671 -0.0911
 2142SOL     OW 8620   4.315   0.527   3.460 -0.3546  0.0193 -0.4470
 2142SOL    HW2 8621   4.298   0.619   3.438 -0.2312  0.1181 -0.1349
 2142SOL    HW3 8622   4.241   0.479   3.425 -0.6804  0.3014 -0.1435
 2142SOL    MW4 8623   4.303   0.533   3.453 -0.3815  0.0696 -0.3657
 2143SOL     OW 8624   4.251   0.785   3.380  0.0203  0.0058 -0.1174
 2143SOL    HW2 8625   4.324   0.835   3.416  0.4576 -0.0766 -0.8841
 2143SOL    HW3 8626   4.270   0.779   3.287 -1.0873  0.1877 -0.3621
 2143SOL    MW4 8627   4.263   0.791   3.373 -0.0677  0.0189 -0.2506
 2144SOL     OW 8628   4.035   0.896   3.522 -0.1656 -0.1631  0.3447
 2144SOL    HW2 8629   4.016   0.979   3.480 -1.4355 -0.5214  0.1781
 2144SOL    HW3 8630   4.119   0.869   3.486 -0.9189 -0.1344 -1.4795
 2144SOL    MW4 8631   4.044   0.903   3.512 -0.4325 -0.2066  0.0820
 2145SOL     OW 8632   4.059   1.144   3.387 -0.1158  0.1368  0.6260
 2145SOL    HW2 8633   4.128   1.192   3.435  0.3778  0.7908 -0.7127
 2145SOL    HW3 8634   3.977   1.182   3.419  0.2777  2.5557 -1.0277
 2145SOL    MW4 8635   4.058   1.156   3.398  0.0014  0.5422  0.2310
 2146SOL     OW 8636   4.279   1.298   3.503  0.1760 -0.0260  0.1273
 2146SOL    HW2 8637   4.276   1.383   3.460 -0.0067 -0.4332 -0.6634
 2146SOL    HW3 8638   4.354   1.254   3.464 -0.2536 -0.5663 -0.0910
 2146SOL    MW4 8639   4.289   1.303   3.492  0.0958 -0.1510 -0.0057
 2147SOL     OW 8640   4.284   1.546   3.373  0.5949  0.1804 -0.2765
 2147SOL    HW2 8641   4.206   1.596   3.395  0.8404  0.4354  0.0261
 2147SOL    HW3 8642   4.279   1.533   3.278 -0.7510 -1.3943 -0.0011
 2147SOL    MW4 8643   4.273   1.551   3.363  0.4497  0.0063 -0.2000
 2148SOL     OW 8644   4.038   1.653   3.462 -0.0953  0.1834  0.0396
 2148SOL    HW2 8645   4.047   1.642   3.556  0.2910 -1.0219 -0.1287
 2148SOL    HW3 8646   4.033   1.747   3.449 -1.9177  0.3201  1.4337
 2148SOL    MW4 8647   4.038   1.664   3.473 -0.2851  0.0424  0.2010
 2149SOL     OW 8648   4.074   1.926   3.416  0.1742 -0.1308 -0.4008
 2149SOL    HW2 8649   4.155   1.956   3.458 -0.4501  0.6209  0.2695
 2149SOL    HW3 8650   4.095   1.928   3.322  0.6072  1.0928 -0.3010
 2149SOL    MW4 8651   4.088   1.931   3.409  0.1483  0.1298 -0.2992
 2150SOL     OW 8652   4.299   2.047   3.499 -0.4407  0.0326  0.3910
 2150SOL    HW2 8653   4.316   2.132   3.460 -0.2368 -0.0740  0.2497
 2150SOL    HW3 8654   4.369   1.990   3.466 -0.1807 -0.0226  1.0204
 2150SOL    MW4 8655   4.310   2.051   3.489 -0.3800  0.0112  0.4551
 2151SOL     OW 8656   4.320   2.302   3.403 -0.1535  0.0601 -0.2031
 2151SOL    HW2 8657   4.243   2.355   3.424  0.6473  0.7089  1.1938
 2151SOL    HW3 8658   4.321   2.297   3.308 -0.1606  2.6931 -0.3666
 2151SOL    MW4 8659   4.310   2.308   3.393 -0.0486  0.4930 -0.0403
 2152SOL     OW 8660   4.071   2.436   3.469  0.4548 -0.0247  0.2767
 2152SOL    HW2 8661   4.078   2.448   3.563  1.6103 -1.8697  0.4609
 2152SOL    HW3 8662   4.064   2.524   3.433  0.9182  0.7293  2.0257
 2152SOL    MW4 8663   4.071   2.449   3.477  0.6690 -0.1686  0.5317
 2153SOL     OW 8664   4.045   2.694   3.391 -0.2504 -0.2310 -0.3373
 2153SOL    HW2 8665   4.120   2.745   3.421  0.4518 -0.8468 -1.0233
 2153SOL    HW3 8666   3.971   2.728   3.441  0.2642  1.2387 -0.5395
 2153SOL    MW4 8667   4.045   2.705   3.401 -0.0892 -0.1185 -0.4547
 2154SOL     OW 8668   4.278   2.793   3.482 -0.1978  0.4975  0.1507
 2154SOL    HW2 8669   4.254   2.782   3.574  0.3769  0.7459  0.3342
 2154SOL    HW3 8670   4.366   2.756   3.476  0.4898  2.0774  0.0958
 2154SOL    MW4 8671   4.287   2.787   3.494 -0.0310  0.7386  0.1676
 2155SOL     OW 8672   4.272   3.048   3.415 -0.4889 -0.2785 -0.0715
 2155SOL    HW2 8673   4.275   2.954   3.433 -0.5292 -0.5371 -1.4002
 2155SOL    HW3 8674   4.295   3.056   3.322 -1.1000  0.9708 -0.1286
 2155SOL    MW4 8675   4.275   3.037   3.405 -0.5746 -0.1478 -0.2544
 2156SOL     OW 8676   4.038   3.168   3.493  0.2627  0.2436  0.1992
 2156SOL    HW2 8677   4.049   3.258   3.462 -1.6746  0.4081 -0.0805
 2156SOL    HW3 8678   4.113   3.121   3.458  0.2250  1.3167 -1.3399
 2156SOL    MW4 8679   4.049   3.174   3.485  0.0019  0.4067 -0.0408
 2157SOL     OW 8680   4.033   3.425   3.361 -0.5134  0.5777 -0.2049
 2157SOL    HW2 8681   4.115   3.467   3.387 -0.7313  0.6690  0.3377
 2157SOL    HW3 8682   3.964   3.482   3.395 -0.8042  0.4759 -0.6154
 2157SOL    MW4 8683   4.035   3.438   3.369 -0.5808  0.5760 -0.1874
 2158SOL     OW 8684   4.265   3.558   3.466  0.4708 -0.1968  0.0536
 2158SOL    HW2 8685   4.258   3.562   3.562 -0.6358 -0.6291 -0.0033
 2158SOL    HW3 8686   4.277   3.649   3.440  2.1105 -0.2107  0.6922
 2158SOL    MW4 8687   4.265   3.571   3.475  0.5407 -0.2558  0.1299
 2159SOL     OW 8688   4.278   3.812   3.420 -0.3786 -0.0490 -0.2534
 2159SOL    HW2 8689   4.341   3.872   3.458 -1.4951  0.3321  1.0402
 2159SOL    HW3 8690   4.267   3.843   3.330 -0.9408  1.7127  0.3878
 2159SOL    MW4 8691   4.285   3.824   3.413 -0.5999  0.2337  0.0021
 2160SOL     OW 8692   4.070   3.971   3.508  0.3569  0.1201  0.1552
 2160SOL    HW2 8693   4.151   3.927   3.482 -0.1623 -2.1744  2.2000
 2160SOL    HW3 8694   4.002   3.928   3.456 -0.0813 -1.1834  1.7513
 2160SOL    MW4 8695   4.072   3.960   3.498  0.2303 -0.3545  0.6354
 2161SOL     OW 8696   4.039   4.242   3.415  0.0741  0.4525  0.4288
 2161SOL    HW2 8697   4.043   4.154   3.453  0.1632  0.3139  0.0983
 2161SOL    HW3 8698   3.954   4.276   3.444  0.2276  0.4222  0.9140
 2161SOL    MW4 8699   4.028   4.235   3.424  0.1059  0.4301  0.4492
 2162SOL     OW 8700   4.233   4.438   3.480 -0.0123 -0.2087 -0.3451
 2162SOL    HW2 8701   4.257   4.414   3.569  0.2059  2.1078  0.2430
 2162SOL    HW3 8702   4.159   4.381   3.459 -0.3032 -0.5120  1.4367
 2162SOL    MW4 8703   4.226   4.427   3.489 -0.0224  0.0567 -0.0322
 2163SOL     OW 8704   0.255   4.634   3.854  0.1196 -0.1849  0.1737
 2163SOL    HW2 8705   0.273   4.639   3.947  1.6303  0.5853 -0.1361
 2163SOL    HW3 8706   0.168   4.673   3.843  0.1507  0.1652  1.1975
 2163SOL    MW4 8707   0.246   4.640   3.865  0.3230 -0.0372  0.2680
 2164SOL     OW 8708   0.029   0.113   3.788 -0.5570 -0.2824 -0.3961
 2164SOL    HW2 8709   0.026   0.208   3.801  1.2797 -0.2350 -0.0758
 2164SOL    HW3 8710   0.035   0.101   3.693  2.0486  0.0698 -0.3118
 2164SOL    MW4 8711   0.030   0.124   3.777  0.0291 -0.2297 -0.3428
 2165SOL     OW 8712   0.008   0.389   3.863 -0.1423 -0.4211  0.5586
 2165SOL    HW2 8713  -0.058   0.448   3.827  0.7078 -0.5001 -1.1699
 2165SOL    HW3 8714   0.089   0.438   3.858  0.3563 -1.2576  0.3199
 2165SOL    MW4 8715   0.010   0.403   3.858  0.0357 -0.5419  0.2990
 2166SOL     OW 8716   0.250   0.528   3.828  0.2542  0.0722  0.2977
 2166SOL    HW2 8717   0.266   0.616   3.864 -1.7604  1.1229 -1.2748
 2166SOL    HW3 8718   0.282   0.533   3.738 -1.1915 -0.3426 -0.2567
 2166SOL    MW4 8719   0.256   0.541   3.820 -0.2023  0.1562  0.0172
 2167SOL     OW 8720   0.257   0.789   3.905  0.2187  0.3242  0.4607
 2167SOL    HW2 8721   0.228   0.806   3.995  0.8253  2.7082  0.2602
 2167SOL    HW3 8722   0.186   0.824   3.850  0.8151  0.8789  0.0204
 2167SOL    MW4 8723   0.244   0.796   3.909  0.3774  0.7120  0.3762
 2168SOL     OW 8724   0.040   0.901   3.749 -0.2854  0.4154  0.4326
 2168SOL    HW2 8725  -0.036   0.865   3.795 -0.3335  0.2144  0.1978
 2168SOL    HW3 8726   0.053   0.987   3.787 -0.2072  0.1714  0.9592
 2168SOL    MW4 8727   0.031   0.907   3.760 -0.2815  0.3567  0.4711
 2169SOL     OW 8728   0.067   1.161   3.879 -0.1668  0.1033 -0.0651
 2169SOL    HW2 8729  -0.011   1.205   3.844 -0.1132  0.7032  0.5491
 2169SOL    HW3 8730   0.139   1.194   3.825 -0.1105  0.8830  0.4644
 2169SOL    MW4 8731   0.066   1.171   3.867 -0.1523  0.2853  0.0856
 2170SOL     OW 8732   0.280   1.270   3.727 -0.1470 -0.0195  0.1543
 2170SOL    HW2 8733   0.277   1.359   3.760  1.7538  0.7417 -1.5899
 2170SOL    HW3 8734   0.272   1.279   3.632  1.5782 -1.5451 -0.1805
 2170SOL    MW4 8735   0.279   1.283   3.719  0.3314 -0.1205 -0.1199
 2171SOL     OW 8736   0.259   1.523   3.821  0.2041  0.4035  0.7761
 2171SOL    HW2 8737   0.266   1.523   3.916  0.1497  0.1554  0.7817
 2171SOL    HW3 8738   0.174   1.565   3.804  0.7773  1.5730  0.7845
 2171SOL    MW4 8739   0.249   1.528   3.831  0.2725  0.5252  0.7780
 2172SOL     OW 8740   0.030   1.665   3.761 -0.4648  0.6628 -0.5927
 2172SOL    HW2 8741   0.027   1.747   3.809 -1.5908 -0.1603  0.7798
 2172SOL    HW3 8742   0.017   1.690   3.670 -0.4730  2.0269 -0.2278
 2172SOL    MW4 8743   0.028   1.679   3.755 -0.6146  0.7341 -0.3633
 2173SOL     OW 8744   0.044   1.929   3.886 -0.0624 -0.2644 -0.0292
 2173SOL    HW2 8745   0.041   1.921   3.981 -0.1688 -0.6213 -0.0601
 2173SOL    HW3 8746  -0.042   1.963   3.862 -0.4049 -1.1479 -0.0810
 2173SOL    MW4 8747   0.032   1.932   3.896 -0.1216 -0.4280 -0.0403
 2174SOL     OW 8748   0.216   2.051   3.716 -0.8325 -0.1301 -0.0119
 2174SOL    HW2 8749   0.229   2.130   3.768 -1.0784  0.2556 -0.5309
 2174SOL    HW3 8750   0.143   2.006   3.757 -0.9529  0.1170  0.0456
 2174SOL    MW4 8751   0.208   2.055   3.728 -0.8809 -0.0467 -0.0730
 2175SOL     OW 8752   0.261   2.258   3.894  0.0320  0.3404 -0.5221
 2175SOL    HW2 8753   0.259   2.254   3.990  1.7974  1.3243 -0.4275
 2175SOL    HW3 8754   0.186   2.312   3.871 -0.0807  0.5607  0.3478
 2175SOL    MW4 8755   0.251   2.265   3.904  0.2500  0.4990 -0.3951
 2176SOL     OW 8756   0.016   2.394   3.792 -0.1886 -0.2900  0.3547
 2176SOL    HW2 8757  -0.059   2.351   3.832  0.7870 -0.8966  1.5455
 2176SOL    HW3 8758   0.005   2.486   3.814 -0.8620 -0.2881  0.0487
 2176SOL    MW4 8759   0.004   2.401   3.800 -0.1487 -0.3693  0.4716
 2177SOL     OW 8760   0.014   2.657   3.878  0.2316  0.0590  0.1663
 2177SOL    HW2 8761   0.012   2.641   3.973 -0.6239  0.3937  0.2119
 2177SOL    HW3 8762   0.096   2.703   3.863 -0.3115  1.3396  0.9799
 2177SOL    MW4 8763   0.024   2.661   3.889  0.0471  0.2723  0.2794
 2178SOL     OW 8764   0.260   2.835   3.840 -0.3044  0.0563 -0.2597
 2178SOL    HW2 8765   0.333   2.779   3.867  0.2705  0.2290 -1.4353
 2178SOL    HW3 8766   0.266   2.838   3.744 -2.3479 -0.5927 -0.4304
 2178SOL    MW4 8767   0.270   2.828   3.831 -0.4981 -0.0062 -0.4373
 2179SOL     OW 8768   0.265   3.126   3.931 -0.1709  0.1310  0.1767
 2179SOL    HW2 8769   0.254   3.131   4.026 -0.5208 -1.2004  0.2143
 2179SOL    HW3 8770   0.284   3.034   3.913  0.3365  0.4524 -1.0043
 2179SOL    MW4 8771   0.266   3.115   3.941 -0.1501 -0.0024  0.0257
 2180SOL     OW 8772   0.017   3.214   3.828 -0.3142  0.0031 -0.4069
 2180SOL    HW2 8773   0.101   3.177   3.854 -1.2271 -1.4425  0.5212
 2180SOL    HW3 8774   0.009   3.193   3.735  0.5972  0.6658 -0.6511
 2180SOL    MW4 8775   0.027   3.207   3.819 -0.3144 -0.1001 -0.3169
 2181SOL     OW 8776   0.009   3.495   3.865  0.1632  0.1747  0.2995
 2181SOL    HW2 8777   0.099   3.524   3.854  0.2351 -0.2782 -0.3598
 2181SOL    HW3 8778   0.010   3.403   3.836 -0.3437 -0.0645  1.0326
 2181SOL    MW4 8779   0.021   3.486   3.860  0.1059  0.0834  0.3092
 2182SOL     OW 8780   0.256   3.604   3.833  0.6742  0.4666  0.1365
 2182SOL    HW2 8781   0.327   3.587   3.895 -1.0072  0.4948  2.1180
 2182SOL    HW3 8782   0.246   3.699   3.833  0.5405  0.4522 -0.0211
 2182SOL    MW4 8783   0.264   3.614   3.841  0.4348  0.4683  0.3772
 2183SOL     OW 8784   0.235   3.874   3.849 -0.4635  0.5387  0.0937
 2183SOL    HW2 8785   0.237   3.882   3.944  0.8052 -2.2812  0.3609
 2183SOL    HW3 8786   0.312   3.922   3.818  1.1988 -1.6110  0.7999
 2183SOL    MW4 8787   0.245   3.881   3.857 -0.0768 -0.1171  0.2220
 2184SOL     OW 8788   4.469   3.977   3.781  0.0646 -0.0708  0.7231
 2184SOL    HW2 8789   4.404   3.913   3.807  0.1078 -0.6845 -0.6471
 2184SOL    HW3 8790   4.553   3.938   3.807  0.0426 -0.2307  0.5479
 2184SOL    MW4 8791   4.472   3.963   3.788  0.0674 -0.1729  0.5190
 2185SOL     OW 8792   0.007   4.222   3.929  0.2003  0.2278  0.2553
 2185SOL    HW2 8793   0.083   4.254   3.880 -1.1200  1.8524 -0.7749
 2185SOL    HW3 8794  -0.017   4.141   3.885  0.9255  0.0514  0.1733
 2185SOL    MW4 8795   0.014   4.216   3.916  0.1218  0.4187  0.1087
 2186SOL     OW 8796   0.225   4.367   3.787 -0.4783 -0.2810 -0.1003
 2186SOL    HW2 8797   0.302   4.325   3.826 -1.7297 -1.9388  0.6847
 2186SOL    HW3 8798   0.226   4.456   3.822  1.3063 -0.1394 -0.4439
 2186SOL    MW4 8799   0.235   4.373   3.797 -0.4080 -0.4816 -0.0420
 2187SOL     OW 8800   0.658   0.025   3.855  0.4189  0.3211  0.1863
 2187SOL    HW2 8801   0.649  -0.066   3.826  1.0573  0.5802 -0.8215
 2187SOL    HW3 8802   0.584   0.071   3.814  0.6044  0.4391 -0.0132
 2187SOL    MW4 8803   0.647   0.019   3.846  0.5276  0.3709  0.0269
 2188SOL     OW 8804   0.447   0.157   3.743  0.4316  0.2150 -0.2565
 2188SOL    HW2 8805   0.462   0.234   3.798  1.2098 -0.8938  1.1104
 2188SOL    HW3 8806   0.361   0.124   3.771  0.3607  0.2505 -0.4324
 2188SOL    MW4 8807   0.437   0.163   3.754  0.5249  0.0734 -0.0992
 2189SOL     OW 8808   0.484   0.382   3.898  0.2579 -0.3011  0.1659
 2189SOL    HW2 8809   0.553   0.430   3.850 -0.1858 -0.6969 -0.8889
 2189SOL    HW3 8810   0.403   0.426   3.874  0.2260  0.8263  2.2435
 2189SOL    MW4 8811   0.483   0.394   3.888  0.1951 -0.2045  0.3006
 2190SOL     OW 8812   0.692   0.555   3.814 -0.3056  0.1370  0.0331
 2190SOL    HW2 8813   0.761   0.513   3.864 -0.0783  0.6563  0.1675
 2190SOL    HW3 8814   0.675   0.637   3.861  1.0176  1.4029 -1.5808
 2190SOL    MW4 8815   0.699   0.561   3.827 -0.1010  0.3725 -0.1621
 2191SOL     OW 8816   0.686   0.798   3.955  0.3860 -0.1102 -0.1028
 2191SOL    HW2 8817   0.754   0.807   3.888  0.7312  1.7729  0.4671
 2191SOL    HW3 8818   0.606   0.827   3.911  0.4311  0.1617 -0.0076
 2191SOL    MW4 8819   0.685   0.803   3.940  0.4376  0.1742 -0.0148
 2192SOL     OW 8820   0.478   0.904   3.790 -0.0174  0.2715 -0.0837
 2192SOL    HW2 8821   0.479   0.990   3.832  1.2631 -0.2698  1.0328
 2192SOL    HW3 8822   0.401   0.860   3.826  0.2657  0.3378  0.6014
 2192SOL    MW4 8823   0.468   0.910   3.800  0.1889  0.2089  0.1540
 2193SOL     OW 8824   0.486   1.160   3.869 -0.2932 -0.1141  0.1735
 2193SOL    HW2 8825   0.566   1.199   3.834 -0.9057  1.3011  0.3219
 2193SOL    HW3 8826   0.416   1.204   3.822 -0.9701 -1.8492 -0.4596
 2193SOL    MW4 8827   0.488   1.171   3.858 -0.4633 -0.1562  0.1094
 2194SOL     OW 8828   0.720   1.278   3.781 -0.5865 -0.2579 -0.6388
 2194SOL    HW2 8829   0.789   1.224   3.820 -0.7251  0.4886  0.6528
 2194SOL    HW3 8830   0.730   1.264   3.686  0.4336 -1.2505 -0.4011
 2194SOL    MW4 8831   0.730   1.269   3.773 -0.4702 -0.2903 -0.4375
 2195SOL     OW 8832   0.672   1.536   3.809  0.4978  0.1776 -0.4980
 2195SOL    HW2 8833   0.760   1.567   3.787  0.9244 -0.2305  0.5922
 2195SOL    HW3 8834   0.678   1.441   3.800  0.2974  0.1145  0.0187
 2195SOL    MW4 8835   0.685   1.527   3.805  0.5277  0.1154 -0.2861
 2196SOL     OW 8836   0.454   1.671   3.725 -0.4995  0.1606 -0.0355
 2196SOL    HW2 8837   0.538   1.631   3.750  0.2214  1.2186 -0.7367
 2196SOL    HW3 8838   0.388   1.614   3.765  0.5654 -0.1928  1.2663
 2196SOL    MW4 8839   0.456   1.658   3.734 -0.2639  0.2537  0.0441
 2197SOL     OW 8840   0.432   1.916   3.844  0.1330 -0.2265 -0.1248
 2197SOL    HW2 8841   0.426   1.828   3.807 -0.9002 -0.3837  0.4009
 2197SOL    HW3 8842   0.346   1.955   3.827  0.2244  0.2988  0.6093
 2197SOL    MW4 8843   0.420   1.910   3.837  0.0087 -0.1780  0.0415
 2198SOL     OW 8844   0.634   2.082   3.716  0.5134 -0.2183  0.2320
 2198SOL    HW2 8845   0.652   2.152   3.779 -1.1416  1.0113 -0.6234
 2198SOL    HW3 8846   0.568   2.028   3.759  2.4639 -1.8652  1.2883
 2198SOL    MW4 8847   0.628   2.085   3.730  0.5524 -0.2735  0.2582
 2199SOL     OW 8848   0.726   2.308   3.850  0.0740  0.2981  0.2610
 2199SOL    HW2 8849   0.796   2.367   3.824  0.9091 -0.9006 -0.2840
 2199SOL    HW3 8850   0.646   2.347   3.814  0.6706  0.8729 -0.4507
 2199SOL    MW4 8851   0.725   2.321   3.842  0.2629  0.2158  0.0951
 2200SOL     OW 8852   0.490   2.422   3.752 -0.0937  0.2847 -0.3112
 2200SOL    HW2 8853   0.423   2.358   3.777  0.5110 -1.3339 -2.7137
 2200SOL    HW3 8854   0.490   2.421   3.657  0.8610  2.9366 -0.3727
 2200SOL    MW4 8855   0.481   2.413   3.743  0.1121  0.4213 -0.6366
 2201SOL     OW 8856   0.489   2.674   3.892 -0.3225  0.3852 -0.5006
 2201SOL    HW2 8857   0.556   2.720   3.842  0.1597  0.7812  0.4943
 2201SOL    HW3 8858   0.475   2.592   3.844  0.7209  0.3968 -0.8365
 2201SOL    MW4 8859   0.496   2.669   3.879 -0.1212  0.4389 -0.4137
 2202SOL     OW 8860   0.670   2.848   3.778  0.0381  0.7817  0.4851
 2202SOL    HW2 8861   0.739   2.788   3.808 -0.8752  0.0532  1.1819
 2202SOL    HW3 8862   0.673   2.843   3.683  1.1493  0.9796  0.5113
 2202SOL    MW4 8863   0.679   2.839   3.769  0.0642  0.7117  0.5805
 2203SOL     OW 8864   0.677   3.114   3.891 -0.1093 -0.3069 -0.0271
 2203SOL    HW2 8865   0.666   3.098   3.985 -2.3305 -0.3684 -0.2624
 2203SOL    HW3 8866   0.665   3.028   3.851 -1.0038  0.0354 -0.4988
 2203SOL    MW4 8867   0.674   3.100   3.898 -0.5204 -0.2701 -0.1202
 2204SOL     OW 8868   0.459   3.274   3.788  0.1293 -0.3976  0.3388
 2204SOL    HW2 8869   0.538   3.230   3.820  0.0909 -1.0961 -0.5003
 2204SOL    HW3 8870   0.387   3.223   3.825  0.0851 -1.2559 -0.8977
 2204SOL    MW4 8871   0.460   3.261   3.797  0.1184 -0.6030  0.0648
 2205SOL     OW 8872   0.498   3.515   3.951 -0.0421  0.0188 -0.3048
 2205SOL    HW2 8873   0.556   3.569   3.898  1.1090 -0.2874  0.6150
 2205SOL    HW3 8874   0.488   3.434   3.900 -0.6428  0.5395 -1.0251
 2205SOL    MW4 8875   0.504   3.511   3.937  0.0306  0.0472 -0.2785
 2206SOL     OW 8876   0.682   3.612   3.767 -0.3145  0.2306  0.2531
 2206SOL    HW2 8877   0.685   3.704   3.791 -1.5423  0.0906  1.0306
 2206SOL    HW3 8878   0.671   3.612   3.672 -1.2347  0.9103  0.3483
 2206SOL    MW4 8879   0.681   3.624   3.758 -0.5978  0.3018  0.3684
 2207SOL     OW 8880   0.661   3.872   3.853  0.4286  0.1425 -0.0219
 2207SOL    HW2 8881   0.659   3.859   3.948  1.8441  0.5594  0.0728
 2207SOL    HW3 8882   0.732   3.935   3.839  0.3866 -0.1013 -1.3778
 2207SOL    MW4 8883   0.670   3.878   3.864  0.6099  0.1655 -0.1881
 2208SOL     OW 8884   0.445   4.044   3.800 -0.1737 -0.1353 -0.4235
 2208SOL    HW2 8885   0.515   3.981   3.821  0.3209  0.2586 -0.8924
 2208SOL    HW3 8886   0.444   4.047   3.704 -0.8873 -0.1951 -0.4184
 2208SOL    MW4 8887   0.454   4.036   3.790 -0.2026 -0.0916 -0.4845
 2209SOL     OW 8888   0.440   4.296   3.958 -0.1419 -0.1228  0.1655
 2209SOL    HW2 8889   0.500   4.346   3.903  0.9426 -0.1759  1.2894
 2209SOL    HW3 8890   0.446   4.206   3.926  0.0857 -0.0629  0.0389
 2209SOL    MW4 8891   0.448   4.291   3.946  0.0312 -0.1225  0.2971
 2210SOL     OW 8892   0.647   4.420   3.819 -0.4416  0.0490  0.3273
 2210SOL    HW2 8893   0.723   4.371   3.851  0.1572  1.2871  0.8442
 2210SOL    HW3 8894   0.644   4.401   3.726  2.9531  3.1393 -0.5159
 2210SOL    MW4 8895   0.657   4.411   3.811  0.0852  0.6199  0.2842
 2211SOL     OW 8896   1.148   0.025   3.893 -0.2650  0.1614  0.3105
 2211SOL    HW2 8897   1.205   0.081   3.841 -0.3664  0.8529  0.9293
 2211SOL    HW3 8898   1.155  -0.062   3.853  1.2649  0.2297  0.4136
 2211SOL    MW4 8899   1.156   0.021   3.881 -0.0765  0.2613  0.4058
 2212SOL     OW 8900   0.897   0.143   3.807 -0.3755  0.2321 -0.0737
 2212SOL    HW2 8901   0.964   0.090   3.851 -0.5804  1.4914  1.8452
 2212SOL    HW3 8902   0.815   0.097   3.824 -0.3147  0.1204 -0.0857
 2212SOL    MW4 8903   0.895   0.130   3.815 -0.3945  0.3835  0.1779
 2213SOL     OW 8904   0.891   0.392   3.927 -0.3292  0.5312 -0.3650
 2213SOL    HW2 8905   0.895   0.373   4.020  1.6001  0.3419 -0.4638
 2213SOL    HW3 8906   0.900   0.307   3.884 -0.5161  0.6916 -0.7235
 2213SOL    MW4 8907   0.893   0.379   3.933 -0.0993  0.5273 -0.4253
 2214SOL     OW 8908   1.102   0.482   3.771  0.0113 -0.0806 -0.4814
 2214SOL    HW2 8909   1.176   0.440   3.815 -0.1646 -0.4658 -0.5518
 2214SOL    HW3 8910   1.024   0.447   3.815 -0.1467 -0.0627 -0.7458
 2214SOL    MW4 8911   1.101   0.472   3.782 -0.0327 -0.1291 -0.5255
 2215SOL     OW 8912   1.153   0.759   3.833 -0.2453  0.0119 -0.4543
 2215SOL    HW2 8913   1.166   0.745   3.927 -0.8264 -0.6070 -0.4625
 2215SOL    HW3 8914   1.134   0.672   3.798  0.8933  0.0930 -1.3004
 2215SOL    MW4 8915   1.152   0.746   3.841 -0.1718 -0.0590 -0.5667
 2216SOL     OW 8916   0.893   0.861   3.763  0.3552  0.0158  0.2544
 2216SOL    HW2 8917   0.985   0.843   3.782  0.3974  0.3595  0.3717
 2216SOL    HW3 8918   0.889   0.862   3.667  0.1956 -1.4239  0.2393
 2216SOL    MW4 8919   0.905   0.859   3.753  0.3397 -0.1289  0.2680
 2217SOL     OW 8920   0.943   1.132   3.871  0.5440  0.7297 -0.4368
 2217SOL    HW2 8921   0.945   1.131   3.967  0.3467  0.5757 -0.4350
 2217SOL    HW3 8922   0.923   1.041   3.847  0.7572  0.7343 -0.6263
 2217SOL    MW4 8923   0.941   1.120   3.881  0.5461  0.7100 -0.4616
 2218SOL     OW 8924   1.143   1.307   3.758  0.2206 -0.3077  0.2853
 2218SOL    HW2 8925   1.138   1.394   3.796  1.0713 -1.0547  2.1484
 2218SOL    HW3 8926   1.059   1.266   3.781  0.2018 -0.3157  0.2053
 2218SOL    MW4 8927   1.131   1.313   3.766  0.3302 -0.4073  0.5205
 2219SOL     OW 8928   1.131   1.589   3.847  0.1171 -0.3769 -0.4717
 2219SOL    HW2 8929   1.148   1.574   3.940 -0.4011 -1.8032 -0.5893
 2219SOL    HW3 8930   1.205   1.641   3.817 -0.1036  0.7702  0.9052
 2219SOL    MW4 8931   1.143   1.594   3.855  0.0194 -0.4138 -0.3057
 2220SOL     OW 8932   0.890   1.687   3.749 -0.5127  0.0632 -0.9635
 2220SOL    HW2 8933   0.980   1.663   3.770 -0.0619  3.0140  0.8352
 2220SOL    HW3 8934   0.884   1.682   3.654  1.2705 -1.0668 -1.0209
 2220SOL    MW4 8935   0.901   1.683   3.739 -0.2179  0.3034 -0.7339
 2221SOL     OW 8936   0.879   1.957   3.823  0.1389 -0.1389  0.2433
 2221SOL    HW2 8937   0.874   1.861   3.818 -0.7693 -0.0515 -1.1137
 2221SOL    HW3 8938   0.802   1.987   3.773  1.1730  1.3035 -0.5121
 2221SOL    MW4 8939   0.868   1.948   3.816  0.1556  0.0629 -0.0355
 2222SOL     OW 8940   1.126   2.064   3.753 -0.3866 -0.1213  0.1752
 2222SOL    HW2 8941   1.040   2.035   3.781 -0.7749  0.6093 -0.2613
 2222SOL    HW3 8942   1.124   2.059   3.658  0.3124 -0.8309  0.1933
 2222SOL    MW4 8943   1.115   2.060   3.744 -0.3456 -0.1185  0.1199
 2223SOL     OW 8944   1.133   2.327   3.833  0.1942 -0.1521  0.0873
 2223SOL    HW2 8945   1.152   2.321   3.927 -0.3465  0.5748  0.2463
 2223SOL    HW3 8946   1.133   2.236   3.803  0.3983 -0.3875  0.7907
 2223SOL    MW4 8947   1.135   2.314   3.841  0.1497 -0.0873  0.2012
 2224SOL     OW 8948   0.919   2.469   3.733 -0.1681 -0.3437  0.1283
 2224SOL    HW2 8949   0.909   2.559   3.763  0.0831 -0.4416  0.5063
 2224SOL    HW3 8950   1.003   2.441   3.769  0.1963 -0.4261 -0.7535
 2224SOL    MW4 8951   0.929   2.477   3.741 -0.0868 -0.3676  0.0620
 2225SOL     OW 8952   0.905   2.721   3.840  0.3229  0.2867  1.1073
 2225SOL    HW2 8953   0.920   2.727   3.935 -0.0617  0.8463  1.1362
 2225SOL    HW3 8954   0.983   2.759   3.801  0.1533  0.7390  1.2103
 2225SOL    MW4 8955   0.917   2.726   3.848  0.2497  0.4203  1.1249
 2226SOL     OW 8956   1.133   2.847   3.760  0.2155  0.2937  0.0983
 2226SOL    HW2 8957   1.194   2.789   3.805  1.1433  0.8934 -0.3661
 2226SOL    HW3 8958   1.132   2.927   3.812  1.6584  1.1673 -1.1646
 2226SOL    MW4 8959   1.141   2.850   3.773  0.5282  0.4880 -0.1297
 2227SOL     OW 8960   1.114   3.095   3.896  0.3862  0.4606 -0.1015
 2227SOL    HW2 8961   1.185   3.142   3.852  1.3889 -1.2256 -0.3330
 2227SOL    HW3 8962   1.035   3.125   3.851  1.2423  0.0683 -1.9200
 2227SOL    MW4 8963   1.113   3.105   3.884  0.6315  0.1864 -0.3722
 2228SOL     OW 8964   0.896   3.219   3.732 -0.1949  0.0219  0.4749
 2228SOL    HW2 8965   0.818   3.183   3.774 -0.3754  1.2160  1.2177
 2228SOL    HW3 8966   0.877   3.215   3.638 -1.4276  0.8518  0.6598
 2228SOL    MW4 8967   0.883   3.214   3.725 -0.3813  0.2887  0.5972
 2229SOL     OW 8968   0.913   3.488   3.844 -0.2514  0.2438 -0.1078
 2229SOL    HW2 8969   0.902   3.402   3.803 -1.6561 -1.4195  3.5269
 2229SOL    HW3 8970   0.832   3.534   3.824  0.0237  0.3256 -1.0818
 2229SOL    MW4 8971   0.901   3.483   3.836 -0.4004  0.0353  0.2432
 2230SOL     OW 8972   1.130   3.610   3.734 -0.4854  0.4301 -0.2873
 2230SOL    HW2 8973   1.138   3.699   3.769 -2.1967  0.8029 -0.7936
 2230SOL    HW3 8974   1.045   3.579   3.766 -0.8773 -0.2075 -1.8831
 2230SOL    MW4 8975   1.120   3.618   3.743 -0.7628  0.3953 -0.5646
 2231SOL     OW 8976   1.120   3.872   3.865  0.4259  0.4335  0.0470
 2231SOL    HW2 8977   1.133   3.870   3.959 -0.4789  0.0949  0.1724
 2231SOL    HW3 8978   1.191   3.928   3.832  1.0255  0.1667  0.8686
 2231SOL    MW4 8979   1.131   3.879   3.873  0.3856  0.3536  0.1719
 2232SOL     OW 8980   0.899   4.048   3.807 -0.0832 -0.4667  0.6754
 2232SOL    HW2 8981   0.974   4.000   3.842  0.1296 -1.0117 -0.5046
 2232SOL    HW3 8982   0.910   4.042   3.712 -0.6448  0.9955  0.5164
 2232SOL    MW4 8983   0.911   4.041   3.799 -0.1292 -0.3448  0.4985
 2233SOL     OW 8984   0.859   4.294   3.920 -0.0968 -0.8546 -0.3887
 2233SOL    HW2 8985   0.842   4.291   4.015 -0.3276 -1.1644 -0.4369
 2233SOL    HW3 8986   0.874   4.202   3.896  2.1747 -0.5526 -0.2657
 2233SOL    MW4 8987   0.859   4.281   3.930  0.1724 -0.8550 -0.3786
 2234SOL     OW 8988   1.083   4.418   3.790  0.2673  0.5882 -0.2110
 2234SOL    HW2 8989   1.018   4.362   3.833 -0.9567  1.8863 -0.3071
 2234SOL    HW3 8990   1.072   4.399   3.697  0.5615  0.2386 -0.1728
 2234SOL    MW4 8991   1.073   4.408   3.784  0.1447  0.7138 -0.2184
 2235SOL     OW 8992   1.530   0.052   3.842 -0.0372 -0.3091  0.1201
 2235SOL    HW2 8993   1.524   0.058   3.937 -1.9027 -1.1695  0.0674
 2235SOL    HW3 8994   1.544  -0.041   3.824 -0.6899 -0.2983 -0.4876
 2235SOL    MW4 8995   1.531   0.040   3.852 -0.3693 -0.4212  0.0327
 2236SOL     OW 8996   1.297   0.165   3.722 -0.0248  0.1143 -0.0268
 2236SOL    HW2 8997   1.303   0.258   3.744  0.1693  0.8463 -2.9565
 2236SOL    HW3 8998   1.383   0.129   3.746  1.3185  1.5613 -2.4397
 2236SOL    MW4 8999   1.309   0.172   3.728  0.1779  0.4018 -0.7317
 2237SOL     OW 9000   1.349   0.406   3.897  0.1523  0.1089 -0.1431
 2237SOL    HW2 9001   1.380   0.376   3.982  0.5359  2.1739  0.4649
 2237SOL    HW3 9002   1.422   0.455   3.860 -1.1757  2.1713 -0.1406
 2237SOL    MW4 9003   1.363   0.408   3.903  0.0277  0.6535 -0.0627
 2238SOL     OW 9004   1.583   0.535   3.789  0.2338 -0.2011 -0.0652
 2238SOL    HW2 9005   1.664   0.494   3.819  0.4011  0.4639  0.4130
 2238SOL    HW3 9006   1.586   0.623   3.827 -0.8453 -0.2640  0.1739
 2238SOL    MW4 9007   1.594   0.542   3.798  0.1136 -0.1217  0.0296
 2239SOL     OW 9008   1.600   0.804   3.861  0.4310  0.4799 -0.5465
 2239SOL    HW2 9009   1.666   0.860   3.819 -0.0575  0.4959 -1.3061
 2239SOL    HW3 9010   1.517   0.846   3.841  0.2559  1.1466  1.4676
 2239SOL    MW4 9011   1.598   0.817   3.853  0.3434  0.5699 -0.3810
 2240SOL     OW 9012   1.362   0.918   3.745 -0.2295  0.3363 -0.0070
 2240SOL    HW2 9013   1.361   1.003   3.789  0.2076  0.6648 -0.6144
 2240SOL    HW3 9014   1.288   0.870   3.782  0.9597  0.0772  2.1109
 2240SOL    MW4 9015   1.352   0.923   3.755 -0.0150  0.3455  0.1922
 2241SOL     OW 9016   1.367   1.170   3.860 -0.6140 -0.4829 -0.2103
 2241SOL    HW2 9017   1.428   1.221   3.808  0.7052  0.0048  1.7568
 2241SOL    HW3 9018   1.282   1.211   3.845 -0.0051  0.5650 -0.8178
 2241SOL    MW4 9019   1.364   1.182   3.851 -0.3597 -0.2803 -0.0308
 2242SOL     OW 9020   1.580   1.307   3.745  0.0113  0.4297  0.4386
 2242SOL    HW2 9021   1.659   1.276   3.789 -0.1148  0.6257  0.8132
 2242SOL    HW3 9022   1.573   1.399   3.772 -0.6633  0.2544  0.8842
 2242SOL    MW4 9023   1.589   1.315   3.754 -0.0944  0.4325  0.5467
 2243SOL     OW 9024   1.566   1.583   3.852  0.3253 -0.0278  0.0385
 2243SOL    HW2 9025   1.561   1.595   3.947 -1.0620  0.2497 -0.0527
 2243SOL    HW3 9026   1.655   1.609   3.829  0.4507  0.5811  1.1810
 2243SOL    MW4 9027   1.577   1.588   3.861  0.1588  0.0892  0.1774
 2244SOL     OW 9028   1.353   1.722   3.755 -0.1235  0.0166  0.0378
 2244SOL    HW2 9029   1.359   1.815   3.779  0.4054  0.3465 -1.3270
 2244SOL    HW3 9030   1.422   1.679   3.807 -2.0920 -0.0764  2.7079
 2244SOL    MW4 9031   1.363   1.729   3.765 -0.3135  0.0479  0.2103
 2245SOL     OW 9032   1.391   1.981   3.856 -0.3598  0.5088  0.3576
 2245SOL    HW2 9033   1.401   1.982   3.951 -0.4611 -0.7116  0.3862
 2245SOL    HW3 9034   1.301   2.011   3.840 -0.7691 -0.4964  0.7205
 2245SOL    MW4 9035   1.380   1.985   3.866 -0.4272  0.2153  0.4094
 2246SOL     OW 9036   1.642   2.083   3.800  0.5983 -0.0304  0.5132
 2246SOL    HW2 9037   1.561   2.038   3.826 -0.8737  2.0321 -0.3190
 2246SOL    HW3 9038   1.631   2.097   3.706  1.7409  0.6680  0.4823
 2246SOL    MW4 9039   1.630   2.079   3.791  0.5548  0.3338  0.3991
 2247SOL     OW 9040   1.598   2.332   3.940  0.5242  0.0801  0.2807
 2247SOL    HW2 9041   1.677   2.368   3.901  0.7269 -0.5210  0.1286
 2247SOL    HW3 9042   1.604   2.238   3.923 -0.4264  0.0834 -0.1036
 2247SOL    MW4 9043   1.609   2.324   3.932  0.4256  0.0014  0.2100
 2248SOL     OW 9044   1.392   2.430   3.795 -0.3479  0.1939 -0.1330
 2248SOL    HW2 9045   1.459   2.397   3.856 -0.7181  1.6171  1.0769
 2248SOL    HW3 9046   1.312   2.385   3.821 -0.4598  0.6377  0.2969
 2248SOL    MW4 9047   1.390   2.419   3.806 -0.4116  0.4399  0.0834
 2249SOL     OW 9048   1.350   2.688   3.855 -0.0717 -0.3436  0.0696
 2249SOL    HW2 9049   1.349   2.694   3.950 -2.7186 -0.3469  0.0712
 2249SOL    HW3 9050   1.374   2.597   3.836  0.1868 -0.4101  0.7164
 2249SOL    MW4 9051   1.353   2.677   3.865 -0.3868 -0.3526  0.1552
 2250SOL     OW 9052   1.606   2.812   3.766 -0.0436  0.0413  0.6755
 2250SOL    HW2 9053   1.519   2.774   3.773 -0.0083 -0.1017  0.3699
 2250SOL    HW3 9054   1.619   2.824   3.672  0.4702 -0.4092  0.6906
 2250SOL    MW4 9055   1.596   2.809   3.754  0.0287 -0.0372  0.6373
 2251SOL     OW 9056   1.599   3.063   3.874  0.0674  0.0643  0.1355
 2251SOL    HW2 9057   1.599   3.048   3.969 -0.5236 -0.9747 -0.0149
 2251SOL    HW3 9058   1.601   2.975   3.836 -0.3239  0.4576 -0.8130
 2251SOL    MW4 9059   1.599   3.050   3.882 -0.0622 -0.0210 -0.0095
 2252SOL     OW 9060   1.349   3.196   3.785  0.0036 -0.1298 -0.3996
 2252SOL    HW2 9061   1.345   3.287   3.815  0.7282  0.1057 -1.0247
 2252SOL    HW3 9062   1.428   3.161   3.827 -0.6241 -0.6670  0.3612
 2252SOL    MW4 9063   1.359   3.203   3.795  0.0163 -0.1695 -0.3817
 2253SOL     OW 9064   1.338   3.483   3.846  0.0657 -0.1700 -0.0661
 2253SOL    HW2 9065   1.425   3.524   3.840 -0.6353  1.5498  1.1609
 2253SOL    HW3 9066   1.280   3.543   3.800 -1.0088  0.2867  1.8708
 2253SOL    MW4 9067   1.342   3.496   3.839 -0.1687  0.1168  0.3512
 2254SOL     OW 9068   1.594   3.615   3.794 -0.1187 -0.1996  0.1235
 2254SOL    HW2 9069   1.657   3.563   3.844  0.7784  0.3504 -0.4113
 2254SOL    HW3 9070   1.601   3.703   3.831 -1.9688 -0.5249  1.3380
 2254SOL    MW4 9071   1.603   3.619   3.806 -0.2445 -0.1698  0.2131
 2255SOL     OW 9072   1.565   3.872   3.861 -0.5249 -0.6693 -0.1082
 2255SOL    HW2 9073   1.548   3.881   3.954  0.1376 -1.0531  0.0592
 2255SOL    HW3 9074   1.494   3.920   3.818 -0.4746  0.0482  0.6030
 2255SOL    MW4 9075   1.554   3.880   3.867 -0.4309 -0.6254  0.0079
 2256SOL     OW 9076   1.354   4.021   3.774  0.0126  0.2719 -0.2503
 2256SOL    HW2 9077   1.342   4.113   3.797 -2.2501  0.0129 -0.2947
 2256SOL    HW3 9078   1.347   4.018   3.679  1.8353  0.2872 -0.3946
 2256SOL    MW4 9079   1.352   4.032   3.765 -0.0455  0.2394 -0.2751
 2257SOL     OW 9080   1.333   4.305   3.838  0.4931  0.3505  0.2343
 2257SOL    HW2 9081   1.407   4.365   3.833  0.6706 -0.0368 -2.3473
 2257SOL    HW3 9082   1.256   4.360   3.821  0.5587  0.0618 -1.0387
 2257SOL    MW4 9083   1.332   4.320   3.835  0.5252  0.2613 -0.2744
 2258SOL     OW 9084   1.569   4.446   3.786 -0.4228 -0.0534  0.0424
 2258SOL    HW2 9085   1.659   4.412   3.793 -0.5380 -0.2785  0.4386
 2258SOL    HW3 9086   1.551   4.444   3.692 -0.4853 -1.2639  0.0651
 2258SOL    MW4 9087   1.579   4.441   3.774 -0.4462 -0.2427  0.0978
 2259SOL     OW 9088   1.975   0.008   3.860 -0.0015  0.2719  0.1341
 2259SOL    HW2 9089   2.053   0.059   3.842 -0.1881  0.3043 -0.5901
 2259SOL    HW3 9090   2.003  -0.083   3.850 -0.1556  0.2958 -0.5449
 2259SOL    MW4 9091   1.989   0.003   3.856 -0.0464  0.2789 -0.0508
 2260SOL     OW 9092   1.785   0.158   3.762 -0.6266 -0.2882 -0.5133
 2260SOL    HW2 9093   1.848   0.104   3.810 -0.3914 -0.5395 -1.0929
 2260SOL    HW3 9094   1.699   0.124   3.788 -0.5107 -0.2759 -0.1083
 2260SOL    MW4 9095   1.782   0.146   3.772 -0.5802 -0.3197 -0.5364
 2261SOL     OW 9096   1.830   0.407   3.862 -0.1322 -0.1355  0.3313
 2261SOL    HW2 9097   1.853   0.397   3.955 -1.2977  1.8512  0.8633
 2261SOL    HW3 9098   1.821   0.317   3.831  0.2211 -0.8422  2.1683
 2261SOL    MW4 9099   1.832   0.394   3.870 -0.2393  0.0333  0.6435
 2262SOL     OW 9100   2.045   0.567   3.775  0.5638  0.2623 -0.2741
 2262SOL    HW2 9101   1.966   0.529   3.813  0.1258  1.3360 -0.0717
 2262SOL    HW3 9102   2.047   0.535   3.685  0.7057 -0.9635  0.1662
 2262SOL    MW4 9103   2.035   0.558   3.768  0.5245  0.2423 -0.1895
 2263SOL     OW 9104   2.037   0.837   3.834 -0.0623  0.1589  0.1193
 2263SOL    HW2 9105   2.062   0.835   3.926  0.5389 -0.1334 -0.0474
 2263SOL    HW3 9106   2.038   0.745   3.806  0.1170  0.2777 -0.2733
 2263SOL    MW4 9107   2.041   0.824   3.842  0.0405  0.1360  0.0455
 2264SOL     OW 9108   1.805   0.968   3.778  0.2117  0.2884 -0.0766
 2264SOL    HW2 9109   1.888   0.925   3.800  0.3228  0.4584 -0.1640
 2264SOL    HW3 9110   1.802   0.967   3.682 -0.4412 -0.7793 -0.0539
 2264SOL    MW4 9111   1.815   0.962   3.768  0.1403  0.1699 -0.0851
 2265SOL     OW 9112   1.793   1.220   3.877 -0.0657  0.0770  0.1840
 2265SOL    HW2 9113   1.792   1.220   3.973 -0.1346 -0.0777  0.1837
 2265SOL    HW3 9114   1.789   1.127   3.854 -0.4979  0.1335  0.0279
 2265SOL    MW4 9115   1.792   1.208   3.887 -0.1320  0.0641  0.1633
 2266SOL     OW 9116   2.062   1.304   3.807 -0.0866 -0.2994 -0.9669
 2266SOL    HW2 9117   2.120   1.248   3.858 -0.2949 -0.1839 -0.5982
 2266SOL    HW3 9118   1.974   1.268   3.823 -0.2773  0.4410 -0.3144
 2266SOL    MW4 9119   2.058   1.292   3.816 -0.1392 -0.1863 -0.8321
 2267SOL     OW 9120   2.068   1.575   3.862 -0.2987  0.3060 -0.3895
 2267SOL    HW2 9121   1.978   1.596   3.836 -0.6755  0.2659  0.8313
 2267SOL    HW3 9122   2.076   1.481   3.845 -0.7963  0.1232  0.3539
 2267SOL    MW4 9123   2.057   1.565   3.856 -0.4141  0.2766 -0.1304
 2268SOL     OW 9124   1.820   1.666   3.781 -0.3646  0.2287 -0.1344
 2268SOL    HW2 9125   1.832   1.760   3.794 -1.0349  0.3337 -0.2156
 2268SOL    HW3 9126   1.822   1.655   3.686  1.0324 -0.0339 -0.0853
 2268SOL    MW4 9127   1.822   1.677   3.770 -0.2687  0.2078 -0.1385
 2269SOL     OW 9128   1.864   1.929   3.855 -0.2447 -0.1277  0.1639
 2269SOL    HW2 9129   1.858   1.934   3.950  0.0833 -0.6260  0.2123
 2269SOL    HW3 9130   1.781   1.966   3.824  0.3952  1.7046  0.5782
 2269SOL    MW4 9131   1.852   1.934   3.863 -0.1169  0.0483  0.2251
 2270SOL     OW 9132   2.045   2.115   3.781 -0.4634  0.3056 -0.3296
 2270SOL    HW2 9133   1.981   2.048   3.805 -0.8666  0.7948 -0.0343
 2270SOL    HW3 9134   2.043   2.116   3.685 -0.4129 -0.1398 -0.3393
 2270SOL    MW4 9135   2.036   2.106   3.771 -0.5100  0.3116 -0.2921
 2271SOL     OW 9136   2.066   2.345   3.929  0.2563  0.1685  0.0448
 2271SOL    HW2 9137   1.988   2.396   3.908  0.0891 -0.4763 -0.9522
 2271SOL    HW3 9138   2.055   2.263   3.881 -0.1156 -1.3627  2.6427
 2271SOL    MW4 9139   2.054   2.341   3.920  0.1850 -0.1187  0.2558
 2272SOL     OW 9140   1.819   2.456   3.812 -0.2854 -0.1030 -0.0613
 2272SOL    HW2 9141   1.840   2.548   3.832  1.1389 -0.6005  0.7962
 2272SOL    HW3 9142   1.827   2.450   3.717  0.2394  0.5189 -0.0671
 2272SOL    MW4 9143   1.823   2.468   3.802 -0.0281 -0.0865  0.0510
 2273SOL     OW 9144   1.839   2.717   3.896 -0.1927 -0.1166  0.1867
 2273SOL    HW2 9145   1.818   2.699   3.987  0.0767  0.2140  0.3156
 2273SOL    HW3 9146   1.755   2.735   3.854 -0.3271 -0.3767  0.3431
 2273SOL    MW4 9147   1.826   2.717   3.902 -0.1748 -0.1073  0.2244
 2274SOL     OW 9148   2.037   2.878   3.768 -0.3557 -0.1901 -0.1877
 2274SOL    HW2 9149   2.121   2.838   3.792 -1.1259 -1.8228 -0.1402
 2274SOL    HW3 9150   1.971   2.823   3.811 -1.5022  0.2646 -1.3361
 2274SOL    MW4 9151   2.039   2.865   3.777 -0.6084 -0.3452 -0.3331
 2275SOL     OW 9152   2.034   3.110   3.894 -0.8576 -0.2615 -0.4891
 2275SOL    HW2 9153   2.113   3.161   3.874 -1.1264  0.1358 -0.5486
 2275SOL    HW3 9154   2.044   3.029   3.844 -1.5259  0.7225 -2.2343
 2275SOL    MW4 9155   2.046   3.106   3.885 -0.9813 -0.0792 -0.7269
 2276SOL     OW 9156   1.806   3.243   3.791 -0.1686  0.4261  0.5934
 2276SOL    HW2 9157   1.882   3.189   3.815  0.8317  1.8811  0.7978
 2276SOL    HW3 9158   1.730   3.193   3.822  0.7451 -0.7186  1.0265
 2276SOL    MW4 9159   1.806   3.229   3.799  0.0839  0.4668  0.6773
 2277SOL     OW 9160   1.791   3.491   3.928  0.3670  0.2855  0.1718
 2277SOL    HW2 9161   1.847   3.555   3.883  0.0772  0.0056 -0.5993
 2277SOL    HW3 9162   1.793   3.414   3.871 -1.0786  0.3939 -0.0467
 2277SOL    MW4 9163   1.799   3.489   3.914  0.1382  0.2627  0.0417
 2278SOL     OW 9164   1.986   3.665   3.806  0.5807 -0.2411 -0.5122
 2278SOL    HW2 9165   2.071   3.627   3.825  0.5745 -0.8557 -1.6283
 2278SOL    HW3 9166   1.988   3.681   3.711 -0.1921  0.6150 -0.3926
 2278SOL    MW4 9167   1.997   3.662   3.796  0.4779 -0.2091 -0.6437
 2279SOL     OW 9168   2.010   3.936   3.884  0.2592  0.2766 -0.1126
 2279SOL    HW2 9169   2.087   3.976   3.843  0.8470 -1.0289 -0.2961
 2279SOL    HW3 9170   2.007   3.847   3.848 -0.7871  0.0048  0.6266
 2279SOL    MW4 9171   2.020   3.930   3.874  0.1986  0.0687 -0.0393
 2280SOL     OW 9172   1.778   4.060   3.788 -0.2208  0.4861 -0.3437
 2280SOL    HW2 9173   1.857   4.011   3.811  0.0556  0.4069 -1.4452
 2280SOL    HW3 9174   1.706   4.007   3.824  0.2686  1.0156  1.4383
 2280SOL    MW4 9175   1.779   4.046   3.796 -0.1199  0.5455 -0.2539
 2281SOL     OW 9176   1.805   4.319   3.849  0.3349 -0.1023 -0.1189
 2281SOL    HW2 9177   1.889   4.350   3.814  0.5000 -0.8435 -0.3807
 2281SOL    HW3 9178   1.802   4.226   3.827 -0.7237  0.0006 -0.4255
 2281SOL    MW4 9179   1.816   4.311   3.842  0.2170 -0.1864 -0.1938
 2282SOL     OW 9180   2.051   4.414   3.773 -0.0059  0.0914 -0.1302
 2282SOL    HW2 9181   2.143   4.395   3.789 -0.0451  0.5761  0.6868
 2282SOL    HW3 9182   2.042   4.412   3.677  0.5748 -1.1895 -0.1602
 2282SOL    MW4 9183   2.062   4.411   3.762  0.0656 -0.0134 -0.0262
 2283SOL     OW 9184   2.446   0.003   3.840  0.1077 -0.4144 -0.2058
 2283SOL    HW2 9185   2.442  -0.002   3.936 -0.4812 -1.7645 -0.2872
 2283SOL    HW3 9186   2.533   0.038   3.821  0.6491 -1.1943  0.7956
 2283SOL    MW4 9187   2.457   0.007   3.850  0.1016 -0.6954 -0.0844
 2284SOL     OW 9188   2.207   0.116   3.761  0.0680  0.3857 -0.1937
 2284SOL    HW2 9189   2.289   0.078   3.792 -0.3240 -0.5185 -0.2321
 2284SOL    HW3 9190   2.220   0.127   3.667 -0.1677 -0.6048 -0.3527
 2284SOL    MW4 9191   2.219   0.112   3.753 -0.0148  0.1357 -0.2201
 2285SOL     OW 9192   2.258   0.385   3.863 -0.1581  0.4311  0.3772
 2285SOL    HW2 9193   2.224   0.298   3.841  0.1293  0.3566  0.2241
 2285SOL    HW3 9194   2.191   0.445   3.832 -0.6664  0.2335  1.0794
 2285SOL    MW4 9195   2.245   0.381   3.856 -0.1872  0.3952  0.4497
 2286SOL     OW 9196   2.510   0.520   3.824 -0.5391 -0.3841  0.0077
 2286SOL    HW2 9197   2.427   0.480   3.850 -0.2748 -1.5787 -0.9173
 2286SOL    HW3 9198   2.513   0.508   3.729  1.2786 -1.5172  0.1775
 2286SOL    MW4 9199   2.499   0.513   3.815 -0.2644 -0.6913 -0.0920
 2287SOL     OW 9200   2.553   0.785   3.873 -0.7242  0.1162  0.1921
 2287SOL    HW2 9201   2.470   0.824   3.846 -0.1272  1.2598 -0.0303
 2287SOL    HW3 9202   2.538   0.691   3.869 -1.6056  0.3072 -1.1288
 2287SOL    MW4 9203   2.540   0.778   3.869 -0.7620  0.2922 -0.0117
 2288SOL     OW 9204   2.300   0.890   3.786  0.0600 -0.0769 -0.6208
 2288SOL    HW2 9205   2.207   0.871   3.798  0.4846 -2.5617 -0.9338
 2288SOL    HW3 9206   2.310   0.899   3.691  0.3546 -1.1444 -0.6991
 2288SOL    MW4 9207   2.289   0.888   3.775  0.1550 -0.5456 -0.6723
 2289SOL     OW 9208   2.276   1.162   3.890 -0.3421 -0.3443  0.0392
 2289SOL    HW2 9209   2.269   1.154   3.986  0.2719 -0.9920  0.0312
 2289SOL    HW3 9210   2.255   1.075   3.857 -1.5785  0.1419 -0.4775
 2289SOL    MW4 9211   2.272   1.150   3.899 -0.4244 -0.3656 -0.0300
 2290SOL     OW 9212   2.532   1.247   3.786  0.5109  0.0902  0.2267
 2290SOL    HW2 9213   2.522   1.341   3.798  0.5932  0.3161 -1.3768
 2290SOL    HW3 9214   2.449   1.210   3.817  0.0254  0.7938 -0.2147
 2290SOL    MW4 9215   2.520   1.254   3.792  0.4575  0.2128 -0.0432
 2291SOL     OW 9216   2.484   1.531   3.831  0.1603 -0.1841  0.4007
 2291SOL    HW2 9217   2.569   1.571   3.812  0.4700 -1.8770 -2.1073
 2291SOL    HW3 9218   2.420   1.600   3.815  0.9624  0.5541  0.4042
 2291SOL    MW4 9219   2.487   1.545   3.826  0.3071 -0.3099  0.0703
 2292SOL     OW 9220   2.292   1.734   3.815 -0.2632 -0.0308  0.1435
 2292SOL    HW2 9221   2.279   1.823   3.847  0.0296 -0.1380  0.5727
 2292SOL    HW3 9222   2.207   1.692   3.825 -0.0882 -0.1711  1.1441
 2292SOL    MW4 9223   2.279   1.740   3.821 -0.2015 -0.0635  0.3321
 2293SOL     OW 9224   2.256   1.988   3.910 -0.3078 -0.0462  0.0122
 2293SOL    HW2 9225   2.245   1.969   4.003 -0.1639  0.1645  0.0723
 2293SOL    HW3 9226   2.181   2.043   3.888 -0.6021 -0.5035 -0.1070
 2293SOL    MW4 9227   2.245   1.993   3.919 -0.3278 -0.0788  0.0045
 2294SOL     OW 9228   2.475   2.112   3.784 -0.7078  0.0450 -0.0720
 2294SOL    HW2 9229   2.486   2.190   3.838 -2.9317  1.0283 -0.9954
 2294SOL    HW3 9230   2.395   2.071   3.816 -0.9483 -0.4536 -1.2831
 2294SOL    MW4 9231   2.466   2.117   3.795 -1.0331  0.1090 -0.3538
 2295SOL     OW 9232   2.471   2.365   3.909 -0.0486 -0.0773 -0.2565
 2295SOL    HW2 9233   2.542   2.406   3.860  0.2505 -0.2340  0.0456
 2295SOL    HW3 9234   2.391   2.404   3.873  0.2894  1.8654  1.0133
 2295SOL    MW4 9235   2.469   2.376   3.898  0.0355  0.1583 -0.0489
 2296SOL     OW 9236   2.241   2.461   3.737 -0.0505  0.0686 -0.0047
 2296SOL    HW2 9237   2.175   2.414   3.787  1.0916 -1.2780  0.2982
 2296SOL    HW3 9238   2.219   2.443   3.645 -0.3449 -0.0415  0.0862
 2296SOL    MW4 9239   2.230   2.452   3.731  0.0613 -0.1235  0.0472
 2297SOL     OW 9240   2.236   2.715   3.856 -0.1881  0.0457  0.5542
 2297SOL    HW2 9241   2.238   2.702   3.951  2.3357 -1.9287  0.2917
 2297SOL    HW3 9242   2.237   2.627   3.819  1.2541  0.8032 -1.3058
 2297SOL    MW4 9243   2.237   2.702   3.864  0.3352 -0.1149  0.2739
 2298SOL     OW 9244   2.482   2.860   3.782 -0.1880  0.4892 -0.4079
 2298SOL    HW2 9245   2.417   2.794   3.806  0.8894 -0.9494 -1.3260
 2298SOL    HW3 9246   2.474   2.867   3.687  1.1024  0.1550 -0.5579
 2298SOL    MW4 9247   2.473   2.852   3.772  0.1242  0.2553 -0.5491
 2299SOL     OW 9248   2.472   3.114   3.882 -0.5548  0.0513 -0.1269
 2299SOL    HW2 9249   2.501   3.105   3.972  1.4650  1.9241 -0.5406
 2299SOL    HW3 9250   2.477   3.025   3.846 -0.1576 -0.4931  1.2461
 2299SOL    MW4 9251   2.477   3.101   3.889 -0.2358  0.2265 -0.0002
 2300SOL     OW 9252   2.254   3.234   3.787  0.8129 -0.3402 -0.3313
 2300SOL    HW2 9253   2.248   3.327   3.809 -0.4922 -0.2261 -1.1095
 2300SOL    HW3 9254   2.326   3.201   3.841  2.0889  1.3746 -0.9422
 2300SOL    MW4 9255   2.263   3.242   3.797  0.8090 -0.0989 -0.5147
 2301SOL     OW 9256   2.213   3.522   3.838 -0.3045  0.3214  0.7516
 2301SOL    HW2 9257   2.219   3.514   3.933 -0.0211 -0.3310  0.6751
 2301SOL    HW3 9258   2.287   3.579   3.815 -0.1308  0.1460  0.8741
 2301SOL    MW4 9259   2.224   3.529   3.848 -0.2441  0.2124  0.7577
 2302SOL     OW 9260   2.473   3.616   3.735  0.3622  0.0013  0.1453
 2302SOL    HW2 9261   2.550   3.579   3.777  1.0447  1.0593 -0.1516
 2302SOL    HW3 9262   2.486   3.599   3.641 -0.6088 -1.3411  0.2273
 2302SOL    MW4 9263   2.485   3.609   3.728  0.3240 -0.0360  0.1171
 2303SOL     OW 9264   2.476   3.868   3.866 -0.8352 -0.1432  0.2532
 2303SOL    HW2 9265   2.547   3.919   3.827 -1.2887 -0.1756 -0.6364
 2303SOL    HW3 9266   2.481   3.783   3.821  0.2342 -1.0632  2.0808
 2303SOL    MW4 9267   2.487   3.863   3.855 -0.7539 -0.2689  0.3772
 2304SOL     OW 9268   2.249   4.000   3.780  0.1318  0.1066  0.2463
 2304SOL    HW2 9269   2.331   3.958   3.805  0.4637  0.0079 -0.9778
 2304SOL    HW3 9270   2.250   4.001   3.684 -1.3664 -0.0283  0.2069
 2304SOL    MW4 9271   2.260   3.995   3.770 -0.0222  0.0756  0.0794
 2305SOL     OW 9272   2.272   4.272   3.841 -0.4735  0.3339 -0.0863
 2305SOL    HW2 9273   2.256   4.262   3.935 -1.6561 -0.3601 -0.3598
 2305SOL    HW3 9274   2.255   4.186   3.804  1.6691  0.1414 -0.7325
 2305SOL    MW4 9275   2.268   4.260   3.849 -0.3467  0.2174 -0.2074
 2306SOL     OW 9276   2.475   4.417   3.741  0.1724 -0.1087 -0.0233
 2306SOL    HW2 9277   2.392   4.383   3.774 -0.7692 -0.7867 -2.8983
 2306SOL    HW3 9278   2.485   4.503   3.781 -1.0962 -0.7221  1.6166
 2306SOL    MW4 9279   2.466   4.424   3.751 -0.1192 -0.2789 -0.1862
 2307SOL     OW 9280   2.900   4.580   3.862 -0.1067  0.5160  0.0817
 2307SOL    HW2 9281   2.900   4.593   3.957  0.9048 -0.7569  0.2760
 2307SOL    HW3 9282   2.980   4.622   3.832  0.7084 -0.9828  0.0975
 2307SOL    MW4 9283   2.911   4.587   3.871  0.1342  0.1502  0.1092
 2308SOL     OW 9284   2.704   0.105   3.792  0.0780 -0.0528 -0.4687
 2308SOL    HW2 9285   2.763   0.034   3.820  0.9514  1.0324  0.4996
 2308SOL    HW3 9286   2.716   0.110   3.698 -1.2126 -2.2686 -0.7958
 2308SOL    MW4 9287   2.714   0.096   3.784  0.0229 -0.2020 -0.3841
 2309SOL     OW 9288   2.736   0.377   3.901 -0.0411 -0.4118  0.3378
 2309SOL    HW2 9289   2.726   0.287   3.870 -1.0066 -0.3247  0.3920
 2309SOL    HW3 9290   2.659   0.423   3.867  0.7622  0.5419 -0.2244
 2309SOL    MW4 9291   2.725   0.371   3.892 -0.0625 -0.2745  0.2708
 2310SOL     OW 9292   2.962   0.495   3.780 -0.4075  0.5817  0.0441
 2310SOL    HW2 9293   3.033   0.449   3.826  0.8970 -1.0908 -3.4703
 2310SOL    HW3 9294   2.882   0.450   3.810  0.5319 -1.4486 -0.3697
 2310SOL    MW4 9295   2.960   0.483   3.790 -0.1113  0.0932 -0.4745
 2311SOL     OW 9296   2.978   0.754   3.889 -0.5107 -0.3571  0.5140
 2311SOL    HW2 9297   3.050   0.784   3.834 -1.3915  0.7363 -0.0500
 2311SOL    HW3 9298   2.966   0.662   3.865 -1.5435  0.3796 -1.8240
 2311SOL    MW4 9299   2.986   0.746   3.879 -0.7634 -0.1157  0.1311
 2312SOL     OW 9300   2.790   0.895   3.752  0.3512  0.0045  0.4785
 2312SOL    HW2 9301   2.861   0.852   3.799 -0.0029  0.1630  1.1775
 2312SOL    HW3 9302   2.712   0.843   3.775  0.0184  0.6579  0.8550
 2312SOL    MW4 9303   2.789   0.883   3.762  0.2604  0.1116  0.6206
 2313SOL     OW 9304   2.781   1.160   3.856 -0.1499 -0.2537  0.3565
 2313SOL    HW2 9305   2.773   1.074   3.815  0.1371 -0.1541  0.0903
 2313SOL    HW3 9306   2.695   1.201   3.844 -0.0590 -0.2114 -0.1843
 2313SOL    MW4 9307   2.769   1.154   3.849 -0.1001 -0.2350  0.2501
 2314SOL     OW 9308   2.972   1.302   3.716 -0.5966 -0.0031  0.0854
 2314SOL    HW2 9309   2.959   1.392   3.748 -1.4725 -0.3332  0.6677
 2314SOL    HW3 9310   2.912   1.249   3.768  0.8076 -1.1124  0.6030
 2314SOL    MW4 9311   2.962   1.307   3.727 -0.5269 -0.1931  0.2306
 2315SOL     OW 9312   2.958   1.560   3.848  0.4681  0.0965 -0.0145
 2315SOL    HW2 9313   2.962   1.545   3.943  0.1598 -1.0280 -0.1685
 2315SOL    HW3 9314   3.039   1.605   3.827  0.1343  1.1407  0.9261
 2315SOL    MW4 9315   2.969   1.564   3.858  0.3834  0.0859  0.0892
 2316SOL     OW 9316   2.710   1.677   3.781 -0.2278  0.1894 -0.1669
 2316SOL    HW2 9317   2.795   1.649   3.814 -1.0896 -1.4287  0.7120
 2316SOL    HW3 9318   2.716   1.668   3.686  0.6211  0.2181 -0.1140
 2316SOL    MW4 9319   2.722   1.672   3.772 -0.2296 -0.0203 -0.0441
 2317SOL     OW 9320   2.672   1.937   3.911 -0.1799 -0.1813  0.5587
 2317SOL    HW2 9321   2.678   1.849   3.874  1.3123  0.5818 -1.0563
 2317SOL    HW3 9322   2.600   1.978   3.863  1.5612  0.7090 -1.3301
 2317SOL    MW4 9323   2.663   1.931   3.900  0.2463  0.0370  0.0961
 2318SOL     OW 9324   2.919   2.054   3.825 -0.2863 -0.3593  0.4889
 2318SOL    HW2 9325   2.899   2.143   3.854 -0.1884  0.6497 -2.3483
 2318SOL    HW3 9326   2.839   2.004   3.845 -1.2461  0.9240 -0.0441
 2318SOL    MW4 9327   2.906   2.059   3.831 -0.4001 -0.0570  0.0443
 2319SOL     OW 9328   2.882   2.333   3.865 -0.3789  0.4228  0.2725
 2319SOL    HW2 9329   2.877   2.361   3.957 -0.2698  1.0893  0.0746
 2319SOL    HW3 9330   2.967   2.364   3.835  0.7510 -2.1213  0.6963
 2319SOL    MW4 9331   2.892   2.341   3.873 -0.2155  0.1750  0.3021
 2320SOL     OW 9332   2.674   2.470   3.751 -0.0911  0.2617  0.1292
 2320SOL    HW2 9333   2.692   2.561   3.776  1.0382 -0.1109  0.6926
 2320SOL    HW3 9334   2.749   2.421   3.783 -0.1799 -0.7235 -1.1312
 2320SOL    MW4 9335   2.686   2.476   3.758  0.0463  0.0825  0.0372
 2321SOL     OW 9336   2.735   2.727   3.820  0.0745  0.0326  0.6913
 2321SOL    HW2 9337   2.746   2.712   3.914  0.6246 -0.5183  0.5444
 2321SOL    HW3 9338   2.650   2.772   3.812 -0.7469 -1.3744  1.3119
 2321SOL    MW4 9339   2.725   2.731   3.831  0.0384 -0.2258  0.7536
 2322SOL     OW 9340   2.961   2.855   3.759 -0.1115  0.1252 -0.1651
 2322SOL    HW2 9341   2.953   2.944   3.793  1.4553 -0.1615  0.9943
 2322SOL    HW3 9342   2.878   2.813   3.782 -0.1007  0.7201  0.9837
 2322SOL    MW4 9343   2.949   2.861   3.766  0.0966  0.1659  0.1395
 2323SOL     OW 9344   2.928   3.121   3.932  0.0260  0.3812 -0.0769
 2323SOL    HW2 9345   2.998   3.159   3.879 -0.2874 -0.0272 -0.7874
 2323SOL    HW3 9346   2.847   3.157   3.895 -0.2254 -0.3239 -0.2278
 2323SOL    MW4 9347   2.926   3.131   3.921 -0.0489  0.2341 -0.1905
 2324SOL     OW 9348   2.705   3.212   3.773 -0.5126 -0.2432 -0.0827
 2324SOL    HW2 9349   2.716   3.306   3.787  0.1683 -0.1686 -1.0905
 2324SOL    HW3 9350   2.621   3.192   3.814  0.1746  0.4692  1.7063
 2324SOL    MW4 9351   2.695   3.222   3.780 -0.3319 -0.1395  0.0203
 2325SOL     OW 9352   2.697   3.482   3.847 -0.1505  0.4478  0.3141
 2325SOL    HW2 9353   2.673   3.494   3.939  0.5671  0.1416  0.5433
 2325SOL    HW3 9354   2.772   3.540   3.833  0.4049 -0.2748  0.2054
 2325SOL    MW4 9355   2.704   3.491   3.857  0.0172  0.3119  0.3300
 2326SOL     OW 9356   2.917   3.632   3.783 -0.1837 -0.1477 -0.1605
 2326SOL    HW2 9357   2.989   3.583   3.821  0.5431  0.4992 -0.7018
 2326SOL    HW3 9358   2.913   3.602   3.692  0.3433  0.8716 -0.5296
 2326SOL    MW4 9359   2.926   3.621   3.776 -0.0184  0.0722 -0.2804
 2327SOL     OW 9360   2.923   3.908   3.853 -0.1626  0.4801  0.4236
 2327SOL    HW2 9361   2.928   3.910   3.949 -0.8507 -0.5945  0.5005
 2327SOL    HW3 9362   2.925   3.815   3.832 -0.3769  0.7033 -0.5906
 2327SOL    MW4 9363   2.924   3.896   3.863 -0.2813  0.3676  0.2999
 2328SOL     OW 9364   2.694   4.032   3.752  0.2169  0.6052 -0.0402
 2328SOL    HW2 9365   2.687   4.122   3.785  0.4804 -0.1464  2.1913
 2328SOL    HW3 9366   2.774   3.998   3.792 -1.7328 -1.7398  2.0295
 2328SOL    MW4 9367   2.704   4.040   3.762 -0.0057  0.1969  0.5271
 2329SOL     OW 9368   2.694   4.283   3.874 -0.0909 -0.1309 -0.4444
 2329SOL    HW2 9369   2.770   4.324   3.832 -0.3240  0.1667 -0.5788
 2329SOL    HW3 9370   2.619   4.330   3.839 -0.3014 -0.0148  0.1614
 2329SOL    MW4 9371   2.694   4.294   3.864 -0.1497 -0.0768 -0.3819
 2330SOL     OW 9372   2.939   4.350   3.743 -0.1950 -0.1454  0.0735
 2330SOL    HW2 9373   3.029   4.326   3.766  0.4660  0.9235 -1.3245
 2330SOL    HW3 9374   2.924   4.434   3.786 -0.3055 -0.0241 -0.1972
 2330SOL    MW4 9375   2.949   4.358   3.751 -0.1223  0.0114 -0.1469
 2331SOL     OW 9376   3.382   4.619   3.897  0.0982 -0.4068  0.0264
 2331SOL    HW2 9377   3.377   4.635   3.992  0.1833  0.7900 -0.1722
 2331SOL    HW3 9378   3.450   4.679   3.866 -0.1779 -0.5523 -0.8585
 2331SOL    MW4 9379   3.391   4.629   3.906  0.0730 -0.2675 -0.1166
 2332SOL     OW 9380   3.133   0.054   3.809 -0.0537 -0.0044  0.5242
 2332SOL    HW2 9381   3.220   0.022   3.832  0.0764  0.1469  0.2477
 2332SOL    HW3 9382   3.143   0.087   3.720 -0.3166  0.3125  0.6124
 2332SOL    MW4 9383   3.146   0.054   3.800 -0.0713  0.0574  0.4992
 2333SOL     OW 9384   3.159   0.344   3.919  0.2825 -0.2956  0.3822
 2333SOL    HW2 9385   3.176   0.353   4.013 -2.0471 -1.0427  0.8850
 2333SOL    HW3 9386   3.157   0.250   3.904 -0.6225 -0.1929 -0.1668
 2333SOL    MW4 9387   3.161   0.333   3.930 -0.1445 -0.3806  0.3760
 2334SOL     OW 9388   3.369   0.486   3.776 -0.0612 -0.2300 -0.2008
 2334SOL    HW2 9389   3.449   0.461   3.822 -0.5465 -0.1518  0.7046
 2334SOL    HW3 9390   3.301   0.429   3.813 -0.4566 -0.1968 -0.8574
 2334SOL    MW4 9391   3.370   0.475   3.787 -0.1776 -0.2153 -0.1681
 2335SOL     OW 9392   3.377   0.767   3.839 -0.0735  0.1494  0.2432
 2335SOL    HW2 9393   3.392   0.772   3.933  2.3466  0.8133 -0.1489
 2335SOL    HW3 9394   3.373   0.673   3.820  0.6605 -0.0025  0.8417
 2335SOL    MW4 9395   3.379   0.755   3.849  0.3424  0.2170  0.2704
 2336SOL     OW 9396   3.178   0.927   3.774  0.0848  0.1425 -0.4298
 2336SOL    HW2 9397   3.254   0.873   3.793 -1.5042 -1.8622  0.5043
 2336SOL    HW3 9398   3.162   0.915   3.681  0.9047  0.5936 -0.6321
 2336SOL    MW4 9399   3.186   0.919   3.764 -0.0167 -0.0625 -0.3331
 2337SOL     OW 9400   3.196   1.184   3.854 -0.3168  0.6294  0.2865
 2337SOL    HW2 9401   3.186   1.093   3.825  0.3677  0.5163  0.4074
 2337SOL    HW3 9402   3.128   1.231   3.806  0.7886  0.4460 -1.4952
 2337SOL    MW4 9403   3.186   1.178   3.844 -0.0803  0.5903  0.0675
 2338SOL     OW 9404   3.424   1.298   3.766  0.4209  0.6997 -0.7768
 2338SOL    HW2 9405   3.347   1.255   3.802  1.0338  0.1456 -0.1063
 2338SOL    HW3 9406   3.422   1.277   3.672 -0.2731  0.7422 -0.7721
 2338SOL    MW4 9407   3.414   1.289   3.758  0.4103  0.6323 -0.6878
 2339SOL     OW 9408   3.384   1.558   3.910 -0.2595 -0.6449  0.1282
 2339SOL    HW2 9409   3.321   1.612   3.862  0.6264 -0.1087 -0.4525
 2339SOL    HW3 9410   3.395   1.480   3.855 -1.6950 -1.5347  1.0674
 2339SOL    MW4 9411   3.377   1.555   3.896 -0.3319 -0.6917  0.1752
 2340SOL     OW 9412   3.202   1.718   3.787  0.1667  0.0510 -0.0798
 2340SOL    HW2 9413   3.199   1.809   3.816 -0.4958  0.2033 -0.6129
 2340SOL    HW3 9414   3.203   1.723   3.692 -1.2280 -0.5296 -0.1287
 2340SOL    MW4 9415   3.202   1.730   3.778 -0.1047 -0.0054 -0.1564
 2341SOL     OW 9416   3.179   1.991   3.879 -0.0926  0.2630 -0.0657
 2341SOL    HW2 9417   3.180   1.973   3.973 -1.2826 -0.9087 -0.2664
 2341SOL    HW3 9418   3.089   2.018   3.860 -0.0685 -0.3093 -1.0066
 2341SOL    MW4 9419   3.168   1.992   3.889 -0.2463  0.0329 -0.2162
 2342SOL     OW 9420   3.419   2.052   3.789  0.8038  0.1206 -0.1711
 2342SOL    HW2 9421   3.327   2.034   3.807  1.0342  0.0903  1.0240
 2342SOL    HW3 9422   3.421   2.081   3.698 -0.5429  1.3475  0.1785
 2342SOL    MW4 9423   3.407   2.053   3.779  0.6561  0.2785  0.0327
 2343SOL     OW 9424   3.352   2.290   3.914 -0.1907 -0.0692 -0.1017
 2343SOL    HW2 9425   3.279   2.318   3.859 -0.5881  0.1038  0.5197
 2343SOL    HW3 9426   3.369   2.200   3.887 -1.0543 -0.3248  0.2164
 2343SOL    MW4 9427   3.345   2.282   3.903 -0.3572 -0.0801  0.0224
 2344SOL     OW 9428   3.127   2.405   3.763 -0.0284  0.4702  0.4715
 2344SOL    HW2 9429   3.152   2.494   3.788  0.6629  0.1663  0.8445
 2344SOL    HW3 9430   3.141   2.403   3.668 -0.3058  0.8408  0.4182
 2344SOL    MW4 9431   3.132   2.417   3.753  0.0262  0.4790  0.5138
 2345SOL     OW 9432   3.162   2.666   3.835 -0.1430  0.4706 -0.0819
 2345SOL    HW2 9433   3.149   2.675   3.930  1.5002  0.0813  0.2096
 2345SOL    HW3 9434   3.082   2.700   3.796  0.1086  2.8810  1.3869
 2345SOL    MW4 9435   3.150   2.672   3.843  0.1068  0.7374  0.1502
 2346SOL     OW 9436   3.369   2.819   3.768 -0.5914  0.2129  0.2556
 2346SOL    HW2 9437   3.296   2.758   3.774  0.3907 -1.0525 -0.4896
 2346SOL    HW3 9438   3.385   2.829   3.674  0.5800  0.0033  0.4209
 2346SOL    MW4 9439   3.361   2.812   3.756 -0.3073  0.0181  0.1793
 2347SOL     OW 9440   3.374   3.070   3.897  0.0440 -0.6292  0.0431
 2347SOL    HW2 9441   3.462   3.098   3.872 -0.1088  0.8662  1.1220
 2347SOL    HW3 9442   3.364   2.984   3.856  1.2001  0.1040 -1.8254
 2347SOL    MW4 9443   3.385   3.062   3.888  0.1767 -0.3352 -0.0610
 2348SOL     OW 9444   3.146   3.203   3.785 -0.3062 -0.2469  0.1861
 2348SOL    HW2 9445   3.231   3.176   3.820  0.4116  3.0273  1.1803
 2348SOL    HW3 9446   3.156   3.198   3.690  1.6813  1.8814  0.2335
 2348SOL    MW4 9447   3.159   3.199   3.777  0.0508  0.4656  0.3238
 2349SOL     OW 9448   3.134   3.480   3.857  0.1734  0.4668  0.4537
 2349SOL    HW2 9449   3.211   3.536   3.850  0.3490  0.1272 -0.3108
 2349SOL    HW3 9450   3.158   3.400   3.810 -0.4770  0.1759  0.6118
 2349SOL    MW4 9451   3.148   3.476   3.850  0.1106  0.3839  0.3738
 2350SOL     OW 9452   3.371   3.612   3.798  0.0327  0.5557  0.3165
 2350SOL    HW2 9453   3.371   3.704   3.824  0.3726  0.9982 -1.1881
 2350SOL    HW3 9454   3.389   3.614   3.704 -1.5258 -0.9660 -0.0303
 2350SOL    MW4 9455   3.373   3.625   3.789 -0.1280  0.4132  0.0722
 2351SOL     OW 9456   3.397   3.858   3.891 -0.5671 -0.3704  0.4201
 2351SOL    HW2 9457   3.463   3.897   3.834  0.1367 -1.0768  0.7488
 2351SOL    HW3 9458   3.315   3.901   3.866  0.1074  0.9137  0.4057
 2351SOL    MW4 9459   3.395   3.868   3.880 -0.3850 -0.2942  0.4616
 2352SOL     OW 9460   3.180   3.965   3.803  0.3373  0.4473  0.3834
 2352SOL    HW2 9461   3.187   4.059   3.818 -0.8255  0.4783  0.7373
 2352SOL    HW3 9462   3.090   3.943   3.827  0.4046 -0.6383 -0.3304
 2352SOL    MW4 9463   3.169   3.974   3.808  0.1926  0.3080  0.3362
 2353SOL     OW 9464   3.181   4.235   3.875 -0.2615  0.3544  0.2991
 2353SOL    HW2 9465   3.167   4.255   3.968 -0.3971 -0.1978  0.4018
 2353SOL    HW3 9466   3.261   4.281   3.852  0.7336 -0.9266  1.1506
 2353SOL    MW4 9467   3.190   4.244   3.884 -0.1481  0.1121  0.4249
 2354SOL     OW 9468   3.413   4.354   3.806  0.5025  0.6493  0.1497
 2354SOL    HW2 9469   3.493   4.304   3.822 -0.2628 -0.9915 -0.9412
 2354SOL    HW3 9470   3.424   4.435   3.856  1.1181 -1.2858  3.2966
 2354SOL    MW4 9471   3.425   4.358   3.815  0.4828  0.1774  0.4210
 2355SOL     OW 9472   3.817   0.014   3.875  0.0653  0.1546  0.6655
 2355SOL    HW2 9473   3.883   0.064   3.828  0.7706 -0.4636  0.9913
 2355SOL    HW3 9474   3.828  -0.076   3.843 -0.8548  0.1003  0.4573
 2355SOL    MW4 9475   3.827   0.008   3.864  0.0370  0.0658  0.6812
 2356SOL     OW 9476   3.569   0.143   3.806  0.0423 -0.2476  0.6491
 2356SOL    HW2 9477   3.644   0.092   3.836  1.6181  1.6419 -0.0257
 2356SOL    HW3 9478   3.577   0.143   3.710 -0.4737  0.4826  0.6062
 2356SOL    MW4 9479   3.580   0.136   3.797  0.1822  0.0980  0.5546
 2357SOL     OW 9480   3.592   0.389   3.915  0.0908 -0.5677  0.0046
 2357SOL    HW2 9481   3.673   0.419   3.873  0.3086 -1.3965 -0.1761
 2357SOL    HW3 9482   3.573   0.305   3.873 -0.2412 -0.9220  0.8557
 2357SOL    MW4 9483   3.600   0.382   3.904  0.0753 -0.7237  0.0932
 2358SOL     OW 9484   3.821   0.502   3.781  0.2619  0.2158  0.8428
 2358SOL    HW2 9485   3.907   0.461   3.790  1.7171  2.1221 -2.7413
 2358SOL    HW3 9486   3.830   0.586   3.826  0.8839  1.1093 -0.8827
 2358SOL    MW4 9487   3.834   0.508   3.788  0.5360  0.5853  0.1423
 2359SOL     OW 9488   3.840   0.752   3.890 -0.2569  0.0718  0.0878
 2359SOL    HW2 9489   3.914   0.796   3.849  0.9587 -1.0625  1.0301
 2359SOL    HW3 9490   3.763   0.801   3.860  0.7635  0.4827 -1.9282
 2359SOL    MW4 9491   3.839   0.764   3.881  0.0379 -0.0236 -0.0539
 2360SOL     OW 9492   3.631   0.915   3.800  0.0355 -0.1618  0.0064
 2360SOL    HW2 9493   3.619   0.990   3.858  0.3129  0.3516 -0.5907
 2360SOL    HW3 9494   3.552   0.862   3.811 -1.1817  1.3595 -1.2398
 2360SOL    MW4 9495   3.619   0.918   3.809 -0.0885  0.1066 -0.2367
 2361SOL     OW 9496   3.626   1.173   3.903 -0.1154 -0.0214  0.0093
 2361SOL    HW2 9497   3.705   1.178   3.848  0.2977 -1.2063  0.4672
 2361SOL    HW3 9498   3.557   1.213   3.850  0.4289 -0.4937 -1.0730
 2361SOL    MW4 9499   3.628   1.179   3.889  0.0107 -0.2401 -0.0732
 2362SOL     OW 9500   3.860   1.245   3.763 -0.3443  0.3840 -0.3740
 2362SOL    HW2 9501   3.945   1.223   3.802 -0.0012  1.5003 -0.4845
 2362SOL    HW3 9502   3.833   1.326   3.807 -0.2520  1.3179 -1.9844
 2362SOL    MW4 9503   3.868   1.253   3.774 -0.2868  0.6545 -0.6011
 2363SOL     OW 9504   3.836   1.526   3.858 -0.0552  0.0533 -0.1225
 2363SOL    HW2 9505   3.841   1.527   3.954 -0.0203  0.6439 -0.1263
 2363SOL    HW3 9506   3.756   1.573   3.837 -0.4452 -0.7134 -0.3683
 2363SOL    MW4 9507   3.826   1.533   3.868 -0.1020  0.0300 -0.1557
 2364SOL     OW 9508   3.633   1.692   3.798  0.2403 -0.0197  0.1844
 2364SOL    HW2 9509   3.553   1.651   3.831  0.1568  0.6690  0.8717
 2364SOL    HW3 9510   3.618   1.704   3.705  0.1727 -1.3210  0.0140
 2364SOL    MW4 9511   3.621   1.688   3.790  0.2203 -0.1005  0.2530
 2365SOL     OW 9512   3.625   1.923   3.931  0.0111 -0.7919 -0.3483
 2365SOL    HW2 9513   3.634   1.837   3.890  0.3616  0.1367 -2.2910
 2365SOL    HW3 9514   3.546   1.960   3.891 -0.0144 -0.1311  0.3088
 2365SOL    MW4 9515   3.616   1.916   3.920  0.0541 -0.5822 -0.5181
 2366SOL     OW 9516   3.832   2.054   3.806  0.5174  0.3265  0.1222
 2366SOL    HW2 9517   3.911   2.001   3.821 -0.2447 -1.0178 -0.4624
 2366SOL    HW3 9518   3.762   2.005   3.850 -0.1285  1.1134 -0.0137
 2366SOL    MW4 9519   3.833   2.040   3.814  0.3316  0.2532  0.0272
 2367SOL     OW 9520   3.841   2.316   3.899  0.0408  0.2990  0.4076
 2367SOL    HW2 9521   3.755   2.351   3.872 -0.1583  0.2614  0.9944
 2367SOL    HW3 9522   3.840   2.225   3.869 -0.6110 -0.0581  1.4790
 2367SOL    MW4 9523   3.829   2.308   3.891 -0.0715  0.2470  0.6261
 2368SOL     OW 9524   3.595   2.437   3.840 -0.2179 -0.3177 -0.0934
 2368SOL    HW2 9525   3.515   2.395   3.870  0.4550 -1.9299 -0.5205
 2368SOL    HW3 9526   3.593   2.428   3.744  0.5380 -0.5220 -0.0967
 2368SOL    MW4 9527   3.584   2.430   3.831 -0.0291 -0.5574 -0.1502
 2369SOL     OW 9528   3.575   2.703   3.885 -0.5574 -0.3199 -0.0377
 2369SOL    HW2 9529   3.576   2.608   3.883 -0.8483 -0.3525  0.9530
 2369SOL    HW3 9530   3.492   2.728   3.845  0.1140 -0.4289 -1.5371
 2369SOL    MW4 9531   3.565   2.694   3.880 -0.5074 -0.3386 -0.1047
 2370SOL     OW 9532   3.794   2.840   3.784  0.8671 -0.2175  0.1303
 2370SOL    HW2 9533   3.873   2.786   3.789  0.8561 -0.1761  0.8334
 2370SOL    HW3 9534   3.725   2.786   3.821  0.2742 -0.7564 -1.7232
 2370SOL    MW4 9535   3.795   2.826   3.790  0.7875 -0.2835 -0.0215
 2371SOL     OW 9536   3.869   3.079   3.882  0.9772  1.1398  0.1169
 2371SOL    HW2 9537   3.790   3.131   3.870  1.4565  1.5044 -1.5911
 2371SOL    HW3 9538   3.846   2.993   3.848  0.7658  0.7501  1.2405
 2371SOL    MW4 9539   3.856   3.075   3.876  1.0126  1.1363  0.0398
 2372SOL     OW 9540   3.627   3.216   3.817 -0.4999 -0.1418 -0.1300
 2372SOL    HW2 9541   3.613   3.310   3.831  1.2166  0.1675 -0.3231
 2372SOL    HW3 9542   3.615   3.204   3.723 -0.5834 -0.0877 -0.1265
 2372SOL    MW4 9543   3.624   3.227   3.806 -0.2844 -0.0937 -0.1550
 2373SOL     OW 9544   3.596   3.489   3.884  0.2442  0.4028  0.2490
 2373SOL    HW2 9545   3.608   3.493   3.979  0.3627 -0.8298  0.3013
 2373SOL    HW3 9546   3.525   3.550   3.866  0.3420  0.7694  1.1156
 2373SOL    MW4 9547   3.588   3.497   3.894  0.2725  0.2887  0.3703
 2374SOL     OW 9548   3.832   3.581   3.760  0.1447 -0.3810 -0.0425
 2374SOL    HW2 9549   3.818   3.675   3.770 -0.3766 -0.2063 -2.2203
 2374SOL    HW3 9550   3.755   3.541   3.801  0.4269  0.1244  0.9960
 2374SOL    MW4 9551   3.820   3.588   3.767  0.1132 -0.2916 -0.1926
 2375SOL     OW 9552   3.796   3.850   3.841 -0.5029 -0.2761  0.3869
 2375SOL    HW2 9553   3.800   3.834   3.935  0.4483 -1.3493  0.1752
 2375SOL    HW3 9554   3.868   3.910   3.823 -0.9879  0.3103  0.4263
 2375SOL    MW4 9555   3.806   3.856   3.851 -0.4413 -0.3405  0.3645
 2376SOL     OW 9556   3.587   4.007   3.712  0.2430  0.2082  0.2548
 2376SOL    HW2 9557   3.604   4.088   3.760  0.4914  0.1650  0.2408
 2376SOL    HW3 9558   3.660   3.950   3.736 -0.2121 -0.2033  0.6835
 2376SOL    MW4 9559   3.599   4.011   3.722  0.2158  0.1483  0.3095
 2377SOL     OW 9560   3.658   4.237   3.857 -0.6244  0.2203 -0.3022
 2377SOL    HW2 9561   3.644   4.231   3.952 -1.1137 -0.0016 -0.3877
 2377SOL    HW3 9562   3.712   4.315   3.846 -0.4425  0.1649  0.1729
 2377SOL    MW4 9563   3.663   4.246   3.868 -0.6647  0.1841 -0.2508
 2378SOL     OW 9564   3.843   4.416   3.794 -0.2302 -0.2407  0.4729
 2378SOL    HW2 9565   3.923   4.369   3.820  0.7942  0.0102 -2.0394
 2378SOL    HW3 9566   3.836   4.401   3.699 -2.6272  0.5749  0.4842
 2378SOL    MW4 9567   3.853   4.408   3.785 -0.4115 -0.1001  0.1433
 2379SOL     OW 9568   4.264   4.656   3.852  0.4296 -0.0571 -0.0487
 2379SOL    HW2 9569   4.276   4.658   3.947 -0.8975  0.2142  0.1288
 2379SOL    HW3 9570   4.341   4.702   3.817  0.5734  0.4714  0.9319
 2379SOL    MW4 9571   4.276   4.662   3.860  0.2737  0.0486  0.1044
 2380SOL     OW 9572   4.036   0.132   3.769 -0.1544  0.1752 -0.1249
 2380SOL    HW2 9573   4.099   0.068   3.802 -0.3673 -0.0002 -0.0515
 2380SOL    HW3 9574   4.039   0.122   3.674 -0.8516 -0.5976 -0.0766
 2380SOL    MW4 9575   4.045   0.122   3.761 -0.2747  0.0501 -0.1090
 2381SOL     OW 9576   4.076   0.401   3.833  0.8577  0.2585  0.5723
 2381SOL    HW2 9577   4.089   0.406   3.927 -1.7916 -1.6020  1.0753
 2381SOL    HW3 9578   4.067   0.308   3.815 -0.4526  0.7125 -1.2730
 2381SOL    MW4 9579   4.077   0.389   3.843  0.3352  0.0730  0.3951
 2382SOL     OW 9580   4.292   0.542   3.754 -0.1571 -0.0937 -0.5756
 2382SOL    HW2 9581   4.215   0.488   3.773  0.8153 -1.6935 -1.0304
 2382SOL    HW3 9582   4.310   0.525   3.662  1.2458 -0.4038 -0.2527
 2382SOL    MW4 9583   4.284   0.533   3.744  0.1559 -0.3457 -0.5929
 2383SOL     OW 9584   4.306   0.787   3.869 -0.1582 -0.0520  0.0561
 2383SOL    HW2 9585   4.218   0.820   3.850  1.2135  3.0116 -1.2876
 2383SOL    HW3 9586   4.305   0.696   3.837 -2.6692  0.0919 -0.3560
 2383SOL    MW4 9587   4.294   0.779   3.862 -0.3090  0.3712 -0.1752
 2384SOL     OW 9588   4.053   0.904   3.808 -0.1070  0.0197  0.5869
 2384SOL    HW2 9589   4.059   0.998   3.828  0.4483 -0.1015  1.0257
 2384SOL    HW3 9590   4.070   0.898   3.714 -0.0407  0.3515  0.5761
 2384SOL    MW4 9591   4.056   0.915   3.799 -0.0253  0.0474  0.6435
 2385SOL     OW 9592   4.083   1.169   3.900 -0.1624  0.1589 -0.1387
 2385SOL    HW2 9593   4.075   1.183   3.994  1.1358 -0.0401  0.0080
 2385SOL    HW3 9594   4.171   1.198   3.879  0.9151 -3.2837 -0.6633
 2385SOL    MW4 9595   4.093   1.175   3.909  0.1512 -0.3216 -0.1886
 2386SOL     OW 9596   4.326   1.267   3.785 -0.0496 -0.2941 -0.0564
 2386SOL    HW2 9597   4.330   1.357   3.819  0.0528 -0.5573  0.6502
 2386SOL    HW3 9598   4.310   1.277   3.692  1.0873  0.4871 -0.1808
 2386SOL    MW4 9599   4.324   1.281   3.777  0.1140 -0.2257  0.0203
 2387SOL     OW 9600   4.288   1.536   3.867  0.3533  0.4472 -0.1762
 2387SOL    HW2 9601   4.214   1.586   3.833  0.5697  1.0452  0.2259
 2387SOL    HW3 9602   4.365   1.578   3.828  0.5460  0.5223  0.2878
 2387SOL    MW4 9603   4.288   1.548   3.857  0.4077  0.5361 -0.0620
 2388SOL     OW 9604   4.064   1.651   3.754  0.2095  0.0536  0.5296
 2388SOL    HW2 9605   4.050   1.741   3.784  0.9981  0.1146  0.7137
 2388SOL    HW3 9606   3.988   1.603   3.786  0.2663  0.4495  1.2598
 2388SOL    MW4 9607   4.052   1.657   3.762  0.3209  0.1137  0.6502
 2389SOL     OW 9608   4.057   1.909   3.867 -0.1137 -0.0627  0.3283
 2389SOL    HW2 9609   4.061   1.916   3.963  0.6108 -1.1729  0.3875
 2389SOL    HW3 9610   4.137   1.953   3.837 -1.3634  2.1383  0.1076
 2389SOL    MW4 9611   4.068   1.916   3.876 -0.1836  0.0813  0.3068
 2390SOL     OW 9612   4.306   2.025   3.786  0.3369  0.1792 -0.2977
 2390SOL    HW2 9613   4.296   2.115   3.817  0.5402  0.2413 -0.4071
 2390SOL    HW3 9614   4.313   2.033   3.691  0.8570  0.0940 -0.2675
 2390SOL    MW4 9615   4.306   2.038   3.777  0.4320  0.1762 -0.3080
 2391SOL     OW 9616   4.247   2.275   3.873 -0.1701  0.0797  0.5490
 2391SOL    HW2 9617   4.219   2.270   3.965 -0.4510  0.2722  0.4755
 2391SOL    HW3 9618   4.180   2.329   3.831 -0.1525 -0.1791  0.1864
 2391SOL    MW4 9619   4.234   2.282   3.880 -0.2050  0.0710  0.4911
 2392SOL     OW 9620   4.062   2.438   3.761 -0.2805 -0.3579 -0.3414
 2392SOL    HW2 9621   4.054   2.531   3.780 -0.0639 -0.0984 -1.5032
 2392SOL    HW3 9622   3.985   2.398   3.802 -1.0019  0.4869 -0.8635
 2392SOL    MW4 9623   4.051   2.445   3.769 -0.3476 -0.2122 -0.5636
 2393SOL     OW 9624   4.044   2.693   3.858 -0.3084  0.0127 -0.3113
 2393SOL    HW2 9625   4.045   2.671   3.951 -0.1645 -0.1291 -0.3470
 2393SOL    HW3 9626   4.133   2.722   3.839 -0.1727 -0.5445 -0.5449
 2393SOL    MW4 9627   4.056   2.694   3.868 -0.2718 -0.0796 -0.3469
 2394SOL     OW 9628   4.282   2.802   3.780  0.3027 -0.3094 -0.2449
 2394SOL    HW2 9629   4.287   2.893   3.807  1.3367 -0.5379  0.3859
 2394SOL    HW3 9630   4.360   2.761   3.819 -1.5828 -2.0511  1.8847
 2394SOL    MW4 9631   4.293   2.808   3.789  0.1903 -0.5696  0.1194
 2395SOL     OW 9632   4.305   3.061   3.907 -0.3670  0.3576  0.4267
 2395SOL    HW2 9633   4.224   3.096   3.871 -0.4709  0.4077  0.7108
 2395SOL    HW3 9634   4.374   3.116   3.870 -0.5501  1.0161  1.0574
 2395SOL    MW4 9635   4.304   3.073   3.897 -0.4044  0.4511  0.5474
 2396SOL     OW 9636   4.077   3.194   3.759 -0.1260  0.3446  0.1699
 2396SOL    HW2 9637   3.998   3.156   3.796  0.0331  0.2936  0.4544
 2396SOL    HW3 9638   4.063   3.190   3.664  0.1584 -1.0165  0.1697
 2396SOL    MW4 9639   4.065   3.188   3.751 -0.0677  0.1583  0.2074
 2397SOL     OW 9640   4.038   3.442   3.891  0.4432 -0.0232  0.4103
 2397SOL    HW2 9641   4.057   3.357   3.851  0.0918 -0.2273  0.6742
 2397SOL    HW3 9642   3.964   3.476   3.841  0.9390  0.3809 -0.0555
 2397SOL    MW4 9643   4.031   3.435   3.879  0.4625  0.0029  0.3836
 2398SOL     OW 9644   4.249   3.546   3.736 -0.4454 -0.0842 -0.4316
 2398SOL    HW2 9645   4.187   3.535   3.808 -0.8778 -0.1652 -0.8211
 2398SOL    HW3 9646   4.334   3.526   3.775 -0.9240 -2.4737 -0.5142
 2398SOL    MW4 9647   4.252   3.542   3.751 -0.5655 -0.4103 -0.4938
 2399SOL     OW 9648   4.254   3.808   3.842 -0.4146 -0.0473  0.4834
 2399SOL    HW2 9649   4.169   3.845   3.818  0.5095  1.0864 -1.1100
 2399SOL    HW3 9650   4.258   3.724   3.796  0.4755  1.1684 -1.7141
 2399SOL    MW4 9651   4.243   3.802   3.833 -0.1750  0.2627 -0.0169
 2400SOL     OW 9652   4.035   3.967   3.786 -0.0837 -0.4841 -0.2100
 2400SOL    HW2 9653   4.028   4.058   3.815 -2.9655 -0.5595 -0.4404
 2400SOL    HW3 9654   4.055   3.972   3.693 -0.1648 -0.0864 -0.2065
 2400SOL    MW4 9655   4.036   3.979   3.778 -0.4749 -0.4416 -0.2398
 2401SOL     OW 9656   4.073   4.249   3.847 -0.5996  0.1291  0.6076
 2401SOL    HW2 9657   4.067   4.258   3.943  0.7751  0.4341  0.6660
 2401SOL    HW3 9658   4.158   4.286   3.824 -0.6587 -0.4981 -0.6727
 2401SOL    MW4 9659   4.083   4.255   3.857 -0.4258  0.0868  0.4463
 2402SOL     OW 9660   4.310   4.368   3.782 -0.1210  0.0138 -0.3630
 2402SOL    HW2 9661   4.316   4.455   3.821 -1.6220  0.5793 -1.3401
 2402SOL    HW3 9662   4.376   4.317   3.827  1.7889  2.0516 -0.7785
 2402SOL    MW4 9663   4.319   4.373   3.793 -0.0677  0.3576 -0.5467
 2403SOL     OW 9664   0.296   4.641   4.146 -0.0042 -0.3484  0.0144
 2403SOL    HW2 9665   0.284   4.553   4.182 -0.3142 -0.4054 -0.2212
 2403SOL    HW3 9666   0.390   4.654   4.145  0.0239 -0.4695  0.5515
 2403SOL    MW4 9667   0.307   4.631   4.151 -0.0415 -0.3715  0.0539
 2404SOL     OW 9668   0.054   0.117   4.215  0.5709  0.1916  0.3322
 2404SOL    HW2 9669   0.063   0.145   4.306  1.1933 -1.3847  0.7813
 2404SOL    HW3 9670   0.136   0.072   4.196  0.3450  0.3045 -0.9397
 2404SOL    MW4 9671   0.066   0.115   4.225  0.6232 -0.0015  0.2236
 2405SOL     OW 9672   0.031   0.380   4.136  0.2183 -0.4593 -0.3137
 2405SOL    HW2 9673   0.016   0.391   4.042 -0.4697 -1.0919 -0.2795
 2405SOL    HW3 9674   0.031   0.285   4.150  0.3349 -0.3715  0.3248
 2405SOL    MW4 9675   0.029   0.369   4.126  0.1429 -0.5312 -0.2255
 2406SOL     OW 9676   0.244   0.376   4.305 -0.5292 -0.1800 -0.0810
 2406SOL    HW2 9677   0.216   0.301   4.357 -1.0179 -0.1214 -0.2632
 2406SOL    HW3 9678   0.178   0.384   4.236  0.3098 -0.4902 -0.9426
 2406SOL    MW4 9679   0.232   0.367   4.303 -0.4830 -0.2132 -0.2184
 2407SOL     OW 9680   0.115   0.851   4.184 -0.4477 -0.3241 -0.1220
 2407SOL    HW2 9681   0.029   0.810   4.175  0.2276 -1.4247 -1.9693
 2407SOL    HW3 9682   0.162   0.796   4.246  0.3664 -2.3027 -2.4002
 2407SOL    MW4 9683   0.110   0.838   4.191 -0.2512 -0.7303 -0.6661
 2408SOL     OW 9684   0.020   1.249   4.329  0.3117  0.0531  0.1834
 2408SOL    HW2 9685  -0.075   1.260   4.322  0.4607  0.5980 -1.0149
 2408SOL    HW3 9686   0.043   1.196   4.253  1.0481  0.3689  0.1911
 2408SOL    MW4 9687   0.010   1.243   4.318  0.4285  0.1668  0.0257
 2409SOL     OW 9688   0.145   1.129   4.122  0.1340  0.1511  0.1824
 2409SOL    HW2 9689   0.110   1.139   4.033  0.3733 -0.0482  0.0657
 2409SOL    HW3 9690   0.145   1.035   4.137 -1.1245  0.2610  0.8842
 2409SOL    MW4 9691   0.140   1.118   4.112 -0.0005  0.1394  0.2599
 2410SOL     OW 9692   0.397   1.226   4.113 -0.4262  0.1347  0.1308
 2410SOL    HW2 9693   0.430   1.195   4.029 -1.4741  0.6969 -0.5044
 2410SOL    HW3 9694   0.313   1.181   4.124 -0.2351 -0.0325  0.9417
 2410SOL    MW4 9695   0.390   1.216   4.104 -0.5393  0.1868  0.1535
 2411SOL     OW 9696   2.987   3.091   4.629 -0.0158  0.1165  0.1182
 2411SOL    HW2 9697   2.981   3.055   4.717 -0.1207  1.1633  0.5328
 2411SOL    HW3 9698   2.918   3.045   4.580  0.4671 -0.9337  0.4049
 2411SOL    MW4 9699   2.977   3.080   4.634  0.0343  0.1161  0.2108
 2412SOL     OW 9700   4.405   1.683   4.278  0.8421  0.6113 -0.2589
 2412SOL    HW2 9701   4.356   1.715   4.355  0.7417 -1.1674  0.4307
 2412SOL    HW3 9702   4.452   1.760   4.247  0.4791  1.4891  1.2894
 2412SOL    MW4 9703   4.405   1.698   4.284  0.7815  0.4923  0.0362
 2413SOL     OW 9704   1.407   3.060   4.696  0.5068 -0.3704 -0.1377
 2413SOL    HW2 9705   1.470   3.097   4.758 -0.5962  0.9528  0.2285
 2413SOL    HW3 9706   1.399   3.126   4.627  1.1451 -1.4988 -1.3033
 2413SOL    MW4 9707   1.414   3.074   4.695  0.4455 -0.3448 -0.2427
 2414SOL     OW 9708   0.740   2.966   4.501  0.3332 -0.1554  0.1869
 2414SOL    HW2 9709   0.799   2.938   4.571 -0.2622  0.4864  0.9615
 2414SOL    HW3 9710   0.748   2.898   4.434  0.7185 -0.9128  0.9903
 2414SOL    MW4 9711   0.749   2.953   4.502  0.3054 -0.1705  0.3948
 2415SOL     OW 9712   0.215   2.305   4.182 -0.2588 -0.4691 -0.3468
 2415SOL    HW2 9713   0.297   2.346   4.209 -0.3238 -0.9312  0.5813
 2415SOL    HW3 9714   0.223   2.214   4.212 -1.5677 -0.2334  0.7447
 2415SOL    MW4 9715   0.227   2.298   4.190 -0.4401 -0.4990 -0.0806
 2416SOL     OW 9716   4.487   2.414   4.305  0.3456  0.2648 -0.1258
 2416SOL    HW2 9717   4.409   2.368   4.274  0.5865 -0.0401 -0.2724
 2416SOL    HW3 9718   4.560   2.369   4.263  0.6951 -0.3587  1.1173
 2416SOL    MW4 9719   4.486   2.402   4.296  0.4234  0.1423  0.0191
 2417SOL     OW 9720   0.034   2.643   4.145 -0.2504 -0.2563  0.1427
 2417SOL    HW2 9721   0.038   2.566   4.202 -1.6290  0.0652  0.6834
 2417SOL    HW3 9722   0.099   2.703   4.181 -0.7464 -0.2669  1.0713
 2417SOL    MW4 9723   0.043   2.640   4.157 -0.4977 -0.2155  0.3371
 2418SOL     OW 9724   4.274   1.747   4.523 -0.4620  0.6221  0.4608
 2418SOL    HW2 9725   4.356   1.720   4.564  0.3065  0.2142 -1.2904
 2418SOL    HW3 9726   4.261   1.837   4.554  1.3596  1.1792 -0.2951
 2418SOL    MW4 9727   4.283   1.755   4.532 -0.1202  0.6418  0.1297
 2419SOL     OW 9728   0.257   3.111   4.232  0.2826  0.5921  0.2954
 2419SOL    HW2 9729   0.342   3.138   4.267  0.2988 -0.1486  0.8224
 2419SOL    HW3 9730   0.193   3.164   4.280  0.3210 -0.2260  1.2607
 2419SOL    MW4 9731   0.260   3.121   4.243  0.2898  0.3867  0.4921
 2420SOL     OW 9732   0.061   3.284   4.328 -0.2303 -0.5919  0.3161
 2420SOL    HW2 9733  -0.014   3.242   4.371 -0.0055  0.6876  2.0218
 2420SOL    HW3 9734   0.023   3.352   4.273 -0.3409  0.2347  1.3859
 2420SOL    MW4 9735   0.046   3.287   4.327 -0.2152 -0.3142  0.6824
 2421SOL     OW 9736   4.467   3.484   4.144  0.1995  0.5661  0.1717
 2421SOL    HW2 9737   4.397   3.545   4.165 -0.2806  0.5872 -1.4879
 2421SOL    HW3 9738   4.465   3.476   4.049 -0.6690 -3.1110  0.4146
 2421SOL    MW4 9739   4.458   3.491   4.135  0.0215  0.0837 -0.0153
 2422SOL     OW 9740   0.245   3.606   4.188  0.6365 -0.1007  0.4788
 2422SOL    HW2 9741   0.318   3.544   4.180 -0.2470 -0.9658 -1.2534
 2422SOL    HW3 9742   0.169   3.557   4.156 -0.6382  0.9243  1.8749
 2422SOL    MW4 9743   0.245   3.591   4.182  0.3517 -0.0799  0.4349
 2423SOL     OW 9744   0.258   3.881   4.129 -0.2431  0.0885  0.0278
 2423SOL    HW2 9745   0.248   3.787   4.144 -2.5910  0.1556 -0.9006
 2423SOL    HW3 9746   0.188   3.920   4.180 -0.1905  1.2259 -0.7642
 2423SOL    MW4 9747   0.248   3.873   4.138 -0.5460  0.2475 -0.1993
 2424SOL     OW 9748   4.477   4.033   4.689 -0.4146  0.0192 -0.0072
 2424SOL    HW2 9749   4.562   4.032   4.733 -0.6935 -0.0389  0.5321
 2424SOL    HW3 9750   4.486   3.967   4.620 -0.2378 -0.4461  0.4557
 2424SOL    MW4 9751   4.490   4.024   4.686 -0.4282 -0.0496  0.1249
 2425SOL     OW 9752   4.488   4.267   4.196 -0.1943  0.0233  0.2217
 2425SOL    HW2 9753   4.403   4.311   4.207  0.1517  0.3637  1.5731
 2425SOL    HW3 9754   4.496   4.255   4.101 -0.7004  2.1155 -0.1278
 2425SOL    MW4 9755   4.478   4.271   4.185 -0.2155  0.3443  0.3538
 2426SOL     OW 9756   0.225   4.429   4.287  0.5059  0.2588  0.0485
 2426SOL    HW2 9757   0.232   4.446   4.381  0.1997 -1.7387  0.4462
 2426SOL    HW3 9758   0.140   4.387   4.277  1.0977 -0.7115 -0.9494
 2426SOL    MW4 9759   0.214   4.426   4.298  0.5436 -0.1330 -0.0305
 2427SOL     OW 9760   0.581   4.556   4.387  0.2293 -0.1536  0.0513
 2427SOL    HW2 9761   0.657   4.602   4.423 -1.1436  1.6778  0.7090
 2427SOL    HW3 9762   0.563   4.599   4.304  0.3068 -1.0334 -0.4333
 2427SOL    MW4 9763   0.588   4.567   4.381  0.0584 -0.0281  0.0739
 2428SOL     OW 9764   0.570   0.053   4.134 -0.1510 -0.0520 -0.1747
 2428SOL    HW2 9765   0.537   0.142   4.137  2.3197  0.8944  0.1712
 2428SOL    HW3 9766   0.596   0.040   4.043  1.3873  0.3097  0.2092
 2428SOL    MW4 9767   0.569   0.063   4.123  0.3780  0.1206 -0.0782
 2429SOL     OW 9768   0.487   0.300   4.182 -0.6762 -0.6751  0.0291
 2429SOL    HW2 9769   0.407   0.321   4.230 -0.2104  0.8646  0.1372
 2429SOL    HW3 9770   0.484   0.354   4.104 -0.1367 -1.2129 -0.3724
 2429SOL    MW4 9771   0.476   0.310   4.178 -0.5435 -0.5429 -0.0095
 2430SOL     OW 9772   0.663   0.482   4.320 -0.0284  0.5118 -0.5775
 2430SOL    HW2 9773   0.584   0.435   4.293  0.7564 -0.6415 -0.8844
 2430SOL    HW3 9774   0.630   0.565   4.355 -1.5099 -0.6427  0.8730
 2430SOL    MW4 9775   0.648   0.487   4.321 -0.1203  0.2074 -0.4268
 2431SOL     OW 9776   0.654   0.907   4.211  0.2216 -0.2151  0.2843
 2431SOL    HW2 9777   0.619   0.846   4.277 -0.5628  0.4517  0.4956
 2431SOL    HW3 9778   0.649   0.859   4.129  3.1034 -1.8099  0.9891
 2431SOL    MW4 9779   0.649   0.893   4.209  0.4984 -0.3375  0.4048
 2432SOL     OW 9780   0.563   0.729   4.400 -0.3166  0.3861  0.2445
 2432SOL    HW2 9781   0.560   0.760   4.491 -1.6150 -0.9909  0.6988
 2432SOL    HW3 9782   0.474   0.699   4.382 -0.1408  0.9001 -1.5910
 2432SOL    MW4 9783   0.551   0.729   4.410 -0.4647  0.2723  0.0625
 2433SOL     OW 9784   0.569   1.146   4.311  0.0675  0.1366  0.4560
 2433SOL    HW2 9785   0.607   1.063   4.282  0.5307  0.5576 -0.1625
 2433SOL    HW3 9786   0.505   1.168   4.244  1.2631  1.1967 -0.3579
 2433SOL    MW4 9787   0.566   1.138   4.298  0.2864  0.3321  0.2670
 2434SOL     OW 9788   0.765   1.339   4.282 -0.0900 -0.4538 -0.0519
 2434SOL    HW2 9789   0.693   1.277   4.288  1.0051 -1.9564 -1.7367
 2434SOL    HW3 9790   0.732   1.411   4.227 -0.5558 -0.7827 -0.1977
 2434SOL    MW4 9791   0.751   1.341   4.275 -0.0070 -0.6956 -0.2937
 2435SOL     OW 9792   0.696   1.567   4.096 -0.8819 -0.1992  0.0652
 2435SOL    HW2 9793   0.775   1.615   4.120  1.1991 -3.6323  0.5176
 2435SOL    HW3 9794   0.701   1.558   4.001 -0.8780 -0.1553  0.0614
 2435SOL    MW4 9795   0.707   1.572   4.087 -0.6068 -0.6465  0.1245
 2436SOL     OW 9796   0.261   1.471   4.078  0.2059 -0.1825  0.3868
 2436SOL    HW2 9797   0.309   1.389   4.084 -1.7998 -1.3635  0.5168
 2436SOL    HW3 9798   0.210   1.475   4.159  0.1624  1.1091  0.3052
 2436SOL    MW4 9799   0.261   1.461   4.089 -0.0645 -0.1678  0.3929
 2437SOL     OW 9800   0.429   1.925   4.119 -0.1949  0.7369 -0.1301
 2437SOL    HW2 9801   0.442   1.836   4.150  1.7653  1.5926  1.6422
 2437SOL    HW3 9802   0.453   1.922   4.027  0.7828 -0.3942  0.1387
 2437SOL    MW4 9803   0.434   1.913   4.111  0.1927  0.7006  0.1402
 2438SOL     OW 9804   0.632   2.081   4.229  0.1946  0.3144 -0.5791
 2438SOL    HW2 9805   0.616   2.086   4.323  1.6150 -0.0557 -0.3048
 2438SOL    HW3 9806   0.564   2.021   4.197  0.3268 -0.3607  0.3632
 2438SOL    MW4 9807   0.621   2.074   4.237  0.3995  0.1767 -0.4182
 2439SOL     OW 9808   0.719   2.337   4.142  0.0282 -0.3273 -0.1431
 2439SOL    HW2 9809   0.697   2.246   4.161 -0.1966 -0.3969 -0.7199
 2439SOL    HW3 9810   0.733   2.338   4.047  1.7536 -0.1393  0.0932
 2439SOL    MW4 9811   0.718   2.325   4.132  0.2261 -0.3116 -0.1884
 2440SOL     OW 9812   0.461   2.411   4.212 -0.3875 -0.0045  0.0213
 2440SOL    HW2 9813   0.446   2.505   4.201  0.3858  0.2231  0.8856
 2440SOL    HW3 9814   0.549   2.396   4.179 -0.3590 -0.3592  0.2533
 2440SOL    MW4 9815   0.470   2.421   4.206 -0.2817 -0.0212  0.1659
 2441SOL     OW 9816   0.453   2.702   4.182 -0.0152  0.4003 -0.0695
 2441SOL    HW2 9817   0.540   2.733   4.209 -0.2463  0.4301  0.6472
 2441SOL    HW3 9818   0.457   2.702   4.086  1.4057 -1.4093 -0.0342
 2441SOL    MW4 9819   0.465   2.706   4.173  0.1418  0.1655  0.0300
 2442SOL     OW 9820   0.718   2.810   4.251 -0.0823  0.0602  0.0816
 2442SOL    HW2 9821   0.792   2.777   4.200 -0.8612 -0.2408 -0.8636
 2442SOL    HW3 9822   0.705   2.899   4.220  0.1749  0.2681  0.5726
 2442SOL    MW4 9823   0.726   2.817   4.240 -0.1512  0.0477  0.0215
 2443SOL     OW 9824   0.679   3.065   4.169  0.2083 -0.2048 -0.0795
 2443SOL    HW2 9825   0.761   3.112   4.182 -0.4417  0.9075  0.0365
 2443SOL    HW3 9826   0.614   3.113   4.221 -0.3686 -1.5177  0.4558
 2443SOL    MW4 9827   0.681   3.078   4.178  0.0464 -0.2313  0.0067
 2444SOL     OW 9828   0.489   3.207   4.316  0.1416  0.2988 -0.2883
 2444SOL    HW2 9829   0.508   3.223   4.408 -1.0085  0.2069 -0.0205
 2444SOL    HW3 9830   0.467   3.294   4.281 -0.3855  0.1923 -0.2315
 2444SOL    MW4 9831   0.488   3.221   4.323 -0.0797  0.2725 -0.2451
 2445SOL     OW 9832   0.480   3.461   4.216  0.2467  0.2179  0.3046
 2445SOL    HW2 9833   0.547   3.516   4.257 -0.1184 -0.2909  1.6114
 2445SOL    HW3 9834   0.494   3.472   4.122 -0.1368  2.9558  0.5181
 2445SOL    MW4 9835   0.491   3.470   4.209  0.1480  0.5124  0.5054
 2446SOL     OW 9836   0.659   3.868   4.146 -0.1760  0.2141 -0.0371
 2446SOL    HW2 9837   0.595   3.903   4.208 -2.0216 -0.5622 -1.4693
 2446SOL    HW3 9838   0.690   3.787   4.187  0.2431  0.8284  0.8730
 2446SOL    MW4 9839   0.655   3.862   4.159 -0.3644  0.1926 -0.1059
 2447SOL     OW 9840   0.721   3.616   4.256  0.1600  0.4244 -0.0011
 2447SOL    HW2 9841   0.735   3.585   4.346 -0.3206  1.6294  0.5030
 2447SOL    HW3 9842   0.780   3.563   4.203  0.3010 -0.4441  1.0005
 2447SOL    MW4 9843   0.731   3.605   4.261  0.1152  0.4690  0.1974
 2448SOL     OW 9844   0.080   2.979   4.540 -0.5273 -0.2867  0.0748
 2448SOL    HW2 9845  -0.001   3.011   4.499  0.7699  1.3628 -1.2398
 2448SOL    HW3 9846   0.122   2.928   4.471  0.2205 -0.0175  0.3383
 2448SOL    MW4 9847   0.075   2.976   4.525 -0.2575 -0.0336 -0.0634
 2449SOL     OW 9848   0.448   4.251   4.236  0.0122  0.3595  0.1375
 2449SOL    HW2 9849   0.368   4.300   4.255 -0.3737 -0.1794 -0.0625
 2449SOL    HW3 9850   0.458   4.258   4.141  0.4909  0.8584  0.2226
 2449SOL    MW4 9851   0.438   4.258   4.226  0.0244  0.3543  0.1225
 2450SOL     OW 9852   0.646   4.292   4.404 -0.5752  0.2629 -0.1885
 2450SOL    HW2 9853   0.570   4.265   4.352 -0.7021  0.8710 -0.3225
 2450SOL    HW3 9854   0.642   4.388   4.405 -0.4545  0.2596  0.7680
 2450SOL    MW4 9855   0.636   4.301   4.397 -0.5760  0.3424 -0.0801
 2451SOL     OW 9856   1.082   0.017   4.155 -0.0928 -0.6531 -0.3499
 2451SOL    HW2 9857   1.106   0.031   4.064 -1.0229 -1.3260 -0.6964
 2451SOL    HW3 9858   1.000   0.065   4.167  0.7981  0.7166  0.5489
 2451SOL    MW4 9859   1.074   0.025   4.145 -0.0979 -0.5612 -0.2766
 2452SOL     OW 9860   0.809   0.130   4.247  0.1804 -0.0865  0.2265
 2452SOL    HW2 9861   0.815   0.075   4.325  1.5091 -1.3340 -0.7440
 2452SOL    HW3 9862   0.731   0.098   4.202 -0.9759  1.0777  1.3557
 2452SOL    MW4 9863   0.799   0.118   4.252  0.2031 -0.0975  0.2475
 2453SOL     OW 9864   0.892   0.386   4.199  0.0843  0.2283  0.3927
 2453SOL    HW2 9865   0.875   0.294   4.220 -1.0765  0.2887 -0.2189
 2453SOL    HW3 9866   0.822   0.434   4.243 -0.1942  0.6773 -0.5219
 2453SOL    MW4 9867   0.881   0.380   4.207 -0.1056  0.2955  0.1912
 2454SOL     OW 9868   1.154   0.508   4.196 -0.0975 -0.0187  0.0352
 2454SOL    HW2 9869   1.153   0.530   4.289 -1.7274 -0.4107  0.1178
 2454SOL    HW3 9870   1.071   0.462   4.180  0.2267 -0.1019 -1.5757
 2454SOL    MW4 9871   1.143   0.505   4.206 -0.2698 -0.0815 -0.1669
 2455SOL     OW 9872   1.169   0.796   4.119 -0.1949 -0.5119  0.3791
 2455SOL    HW2 9873   1.241   0.849   4.153 -0.8430  0.9438 -0.4656
 2455SOL    HW3 9874   1.182   0.710   4.158  1.0524  0.1847  1.5413
 2455SOL    MW4 9875   1.180   0.792   4.128 -0.1158 -0.2279  0.4206
 2456SOL     OW 9876   0.945   0.903   4.276 -0.3832 -0.3172  0.1875
 2456SOL    HW2 9877   0.986   0.853   4.206  0.1544 -0.0944  0.3386
 2456SOL    HW3 9878   0.851   0.898   4.258 -0.3675 -1.6627  0.3907
 2456SOL    MW4 9879   0.938   0.896   4.265 -0.3101 -0.4654  0.2337
 2457SOL     OW 9880   0.934   1.170   4.149  0.3390 -0.0657 -0.2862
 2457SOL    HW2 9881   0.938   1.083   4.187 -0.0418 -0.4447 -1.1009
 2457SOL    HW3 9882   0.876   1.219   4.207  0.2713 -0.4550 -0.0269
 2457SOL    MW4 9883   0.927   1.165   4.161  0.2798 -0.1673 -0.3595
 2458SOL     OW 9884   1.187   1.283   4.251 -0.3498  0.2697 -0.0410
 2458SOL    HW2 9885   1.201   1.264   4.343  0.5898  0.5619 -0.1151
 2458SOL    HW3 9886   1.108   1.234   4.228  1.2382 -2.4999  0.1188
 2458SOL    MW4 9887   1.178   1.274   4.260 -0.0163 -0.0571 -0.0300
 2459SOL     OW 9888   1.167   1.547   4.129  0.0831  0.5041 -0.1788
 2459SOL    HW2 9889   1.086   1.583   4.165 -0.5017 -0.3615 -0.6100
 2459SOL    HW3 9890   1.177   1.463   4.172  0.6850  0.5455 -0.2347
 2459SOL    MW4 9891   1.158   1.541   4.139  0.0852  0.3954 -0.2432
 2460SOL     OW 9892   0.924   1.700   4.201 -0.0893 -0.4347  0.0232
 2460SOL    HW2 9893   0.940   1.703   4.295 -0.6285  0.9935  0.0899
 2460SOL    HW3 9894   0.907   1.791   4.177  0.5504 -0.7056 -1.5446
 2460SOL    MW4 9895   0.924   1.713   4.210 -0.0761 -0.2819 -0.1745
 2461SOL     OW 9896   0.871   1.964   4.127  0.1829  0.5560 -0.2883
 2461SOL    HW2 9897   0.790   2.005   4.156 -0.9938 -1.5007 -0.6179
 2461SOL    HW3 9898   0.869   1.971   4.032  1.3725  2.2884 -0.2096
 2461SOL    MW4 9899   0.860   1.970   4.119  0.1847  0.5132 -0.3219
 2462SOL     OW 9900   1.119   2.035   4.244 -0.2470  0.1117 -0.0314
 2462SOL    HW2 9901   1.108   2.060   4.335  0.1795 -2.0281  0.6260
 2462SOL    HW3 9902   1.030   2.016   4.213 -0.4058  0.9722 -0.1143
 2462SOL    MW4 9903   1.106   2.036   4.252 -0.2117 -0.0570  0.0448
 2463SOL     OW 9904   1.185   2.275   4.111  0.0466 -0.3678  0.5198
 2463SOL    HW2 9905   1.255   2.326   4.152  1.8320 -1.8434 -0.5926
 2463SOL    HW3 9906   1.179   2.196   4.164  0.6343 -1.1489 -0.5590
 2463SOL    MW4 9907   1.193   2.271   4.123  0.3597 -0.6654  0.2308
 2464SOL     OW 9908   0.973   2.448   4.173  0.4291 -0.3506 -0.0344
 2464SOL    HW2 9909   0.885   2.413   4.167  0.7982 -1.1570 -0.8171
 2464SOL    HW3 9910   1.030   2.375   4.149  1.2051  0.7922 -1.7228
 2464SOL    MW4 9911   0.969   2.434   4.169  0.5803 -0.3064 -0.3605
 2465SOL     OW 9912   0.948   2.720   4.109 -0.2921 -0.2601 -0.0367
 2465SOL    HW2 9913   0.965   2.629   4.134 -0.0627  0.0556  0.9756
 2465SOL    HW3 9914   1.018   2.771   4.150  0.0428  0.2922 -1.2632
 2465SOL    MW4 9915   0.959   2.715   4.118 -0.2177 -0.1454 -0.0648
 2466SOL     OW 9916   1.155   2.839   4.232  0.1950 -0.1476  0.6964
 2466SOL    HW2 9917   1.177   2.929   4.211 -0.0229 -0.4175 -0.7353
 2466SOL    HW3 9918   1.153   2.836   4.328  0.5600  1.2685  0.7517
 2466SOL    MW4 9919   1.158   2.850   4.242  0.2143  0.0036  0.5150
 2467SOL     OW 9920   1.181   3.107   4.169 -0.1927 -0.3376 -0.0656
 2467SOL    HW2 9921   1.260   3.159   4.187  1.0572 -2.4232  0.5543
 2467SOL    HW3 9922   1.173   3.108   4.074  0.7347 -0.3252 -0.1513
 2467SOL    MW4 9923   1.190   3.114   4.159  0.0945 -0.6111  0.0048
 2468SOL     OW 9924   0.912   3.214   4.221 -0.0798 -0.3021 -0.0173
 2468SOL    HW2 9925   0.885   3.213   4.312  1.7646 -0.7920  0.5421
 2468SOL    HW3 9926   1.000   3.176   4.221 -0.6093 -1.6232 -2.1884
 2468SOL    MW4 9927   0.920   3.209   4.233  0.0937 -0.5412 -0.2303
 2469SOL     OW 9928   0.910   3.474   4.114 -0.5063  0.0489 -0.2633
 2469SOL    HW2 9929   0.911   3.387   4.153 -1.2863  0.5720  0.9421
 2469SOL    HW3 9930   0.925   3.459   4.021  1.6410 -1.1942  0.2597
 2469SOL    MW4 9931   0.912   3.461   4.107 -0.3259 -0.0463 -0.0358
 2470SOL     OW 9932   1.138   3.599   4.264 -0.1332 -0.1037 -0.0353
 2470SOL    HW2 9933   1.079   3.552   4.205 -1.1517  1.6195 -0.4326
 2470SOL    HW3 9934   1.142   3.688   4.228 -1.4048  1.2094  2.9113
 2470SOL    MW4 9935   1.131   3.605   4.252 -0.4355  0.2971  0.3009
 2471SOL     OW 9936   1.117   3.863   4.165  0.4272  0.0360 -0.0357
 2471SOL    HW2 9937   1.189   3.921   4.191  1.4206 -1.5338  0.7356
 2471SOL    HW3 9938   1.041   3.898   4.212  1.0913  0.4997  0.7068
 2471SOL    MW4 9939   1.117   3.875   4.175  0.6459 -0.1099  0.1645
 2472SOL     OW 9940   0.862   3.976   4.301  0.1643  0.0077  0.1814
 2472SOL    HW2 9941   0.858   4.066   4.269 -0.8653  0.2714  1.0261
 2472SOL    HW3 9942   0.798   3.929   4.247  1.1470 -0.3520 -0.6744
 2472SOL    MW4 9943   0.853   3.981   4.290  0.1582 -0.0048  0.1798
 2473SOL     OW 9944   0.843   4.241   4.207  0.1745 -0.2455  0.0287
 2473SOL    HW2 9945   0.924   4.293   4.212  0.7801 -1.2476  0.6500
 2473SOL    HW3 9946   0.791   4.270   4.282  0.4542 -0.4385  0.2973
 2473SOL    MW4 9947   0.847   4.252   4.218  0.2912 -0.4034  0.1459
 2474SOL     OW 9948   0.142   0.157   4.487  0.1907  0.5732 -0.4890
 2474SOL    HW2 9949   0.064   0.169   4.541  1.6415  2.8289  1.1253
 2474SOL    HW3 9950   0.180   0.074   4.517 -0.5993  0.3509 -0.0925
 2474SOL    MW4 9951   0.137   0.147   4.498  0.2779  0.8415 -0.2236
 2475SOL     OW 9952   1.584   4.476   4.492 -0.1628 -0.1790 -0.2917
 2475SOL    HW2 9953   1.596   4.394   4.542  0.2019 -0.1681 -0.3647
 2475SOL    HW3 9954   1.560   4.447   4.404  1.1085 -0.2283 -0.6300
 2475SOL    MW4 9955   1.582   4.461   4.487  0.0530 -0.1845 -0.3457
 2476SOL     OW 9956   1.080   4.401   4.215  0.0128  0.0462  0.0139
 2476SOL    HW2 9957   1.164   4.370   4.181 -0.2134  1.1612 -1.6087
 2476SOL    HW3 9958   1.080   4.495   4.197 -1.1920  0.2166  0.8532
 2476SOL    MW4 9959   1.091   4.409   4.209 -0.1761  0.2155 -0.0892
 2477SOL     OW 9960   0.892   0.493   4.543 -0.3676  0.3707 -0.2382
 2477SOL    HW2 9961   0.851   0.543   4.614 -1.2017  0.0163 -0.4658
 2477SOL    HW3 9962   0.823   0.486   4.476  0.1541  0.0100 -0.7377
 2477SOL    MW4 9963   0.877   0.499   4.544 -0.4088  0.2764 -0.3338
 2478SOL     OW 9964   3.099   4.664   4.529  0.1007 -0.3239 -0.1161
 2478SOL    HW2 9965   3.181   4.642   4.572  0.6668 -1.8263 -1.8888
 2478SOL    HW3 9966   3.045   4.585   4.538 -0.3748 -0.0765 -0.7222
 2478SOL    MW4 9967   3.102   4.651   4.536  0.1125 -0.4897 -0.4306
 2479SOL     OW 9968   1.593   0.801   4.133  0.3487  0.2311 -0.2902
 2479SOL    HW2 9969   1.683   0.826   4.153  0.7462 -0.6731 -0.9201
 2479SOL    HW3 9970   1.585   0.815   4.039 -0.1897  0.3574 -0.2265
 2479SOL    MW4 9971   1.604   0.806   4.123  0.3301  0.1284 -0.3643
 2480SOL     OW 9972   1.373   0.943   4.233 -0.4635 -0.3787 -0.0744
 2480SOL    HW2 9973   1.448   0.894   4.199 -1.1571  0.3387 -2.7227
 2480SOL    HW3 9974   1.385   1.032   4.199 -0.8187  0.5699  2.1942
 2480SOL    MW4 9975   1.385   0.948   4.224 -0.6019 -0.1589 -0.1240
 2481SOL     OW 9976   1.441   1.209   4.133 -0.0276  0.5910 -0.2288
 2481SOL    HW2 9977   1.362   1.254   4.163 -0.3947 -0.2469  0.0724
 2481SOL    HW3 9978   1.427   1.195   4.040 -0.8924 -0.9021  0.1274
 2481SOL    MW4 9979   1.429   1.213   4.125 -0.1901  0.2834 -0.1421
 2482SOL     OW 9980   1.627   1.268   4.326 -0.2974 -0.1266  0.0891
 2482SOL    HW2 9981   1.601   1.359   4.342 -0.7275 -0.3275  0.5505
 2482SOL    HW3 9982   1.565   1.236   4.261 -1.3238 -0.6560  1.3118
 2482SOL    MW4 9983   1.615   1.276   4.320 -0.4896 -0.2229  0.3114
 2483SOL     OW 9984   1.575   1.641   4.125 -0.0000 -0.2995  0.2623
 2483SOL    HW2 9985   1.564   1.598   4.210 -0.6767 -1.9651 -0.6304
 2483SOL    HW3 9986   1.545   1.731   4.140  1.5051 -0.0902  2.1970
 2483SOL    MW4 9987   1.569   1.647   4.138  0.1092 -0.4916  0.4005
 2484SOL     OW 9988   1.250   1.801   4.238  0.3843  0.0125  0.0605
 2484SOL    HW2 9989   1.198   1.880   4.225 -0.1430 -0.2428  0.6337
 2484SOL    HW3 9990   1.223   1.743   4.167  0.5479  0.2291 -0.1790
 2484SOL    MW4 9991   1.240   1.804   4.227  0.3364  0.0073  0.1044
 2485SOL     OW 9992   1.459   1.895   4.120  0.2749 -0.1383  0.0873
 2485SOL    HW2 9993   1.509   1.945   4.184  1.0901 -1.0077  0.1458
 2485SOL    HW3 9994   1.382   1.865   4.167  0.8839 -0.7955  0.6778
 2485SOL    MW4 9995   1.456   1.898   4.134  0.4628 -0.3396  0.1731
 2486SOL     OW 9996   1.657   1.963   4.536  0.1388  0.3761  0.1403
 2486SOL    HW2 9997   1.695   1.875   4.532 -2.0580 -0.6040 -0.0960
 2486SOL    HW3 9998   1.646   1.989   4.445 -1.8984 -0.3399  0.1571
 2486SOL    MW4 9999   1.661   1.955   4.524 -0.4200  0.1525  0.1111
 2487SOL     OW10000   1.622   2.322   4.228 -0.2551  0.4277 -0.0330
 2487SOL    HW210001   1.703   2.363   4.260  0.8204 -2.2042  0.7099
 2487SOL    HW310002   1.629   2.329   4.132  1.5314 -1.0128 -0.0348
 2487SOL    MW410003   1.634   2.329   4.219  0.1225 -0.1094  0.0648
 2488SOL     OW10004   1.361   2.426   4.285 -0.3076 -0.1359  0.0256
 2488SOL    HW210005   1.361   2.507   4.234 -0.1682 -0.0408  0.1772
 2488SOL    HW310006   1.450   2.393   4.278 -0.5815 -0.7298 -0.7491
 2488SOL    MW410007   1.372   2.433   4.277 -0.3254 -0.2017 -0.0558
 2489SOL     OW10008   1.366   2.669   4.140  0.6844  0.1601  0.3540
 2489SOL    HW210009   1.442   2.701   4.188  0.8961 -0.5505  0.4892
 2489SOL    HW310010   1.292   2.714   4.180  1.2511  2.7330 -1.3719
 2489SOL    MW410011   1.366   2.679   4.151  0.7870  0.4060  0.1450
 2490SOL     OW10012   1.834   2.707   4.178  0.9226 -0.4380  0.4456
 2490SOL    HW210013   1.751   2.732   4.217  0.6440 -0.4231 -0.1401
 2490SOL    HW310014   1.849   2.617   4.208  0.6078 -0.4995  0.4187
 2490SOL    MW410015   1.825   2.698   4.187  0.8442 -0.4444  0.3648
 2491SOL     OW10016   1.605   3.034   4.137 -0.5397 -0.1014  0.3116
 2491SOL    HW210017   1.686   3.049   4.187 -0.9773 -0.2668  1.0755
 2491SOL    HW310018   1.539   3.087   4.182 -0.7856  0.3101 -0.5202
 2491SOL    MW410019   1.607   3.043   4.149 -0.6298 -0.0689  0.3023
 2492SOL     OW10020   1.450   3.247   4.234  0.0229  0.3442  0.0627
 2492SOL    HW210021   1.424   3.249   4.326  0.3708  0.0836  0.1699
 2492SOL    HW310022   1.422   3.331   4.198  1.6132  1.2523  0.8767
 2492SOL    MW410023   1.443   3.258   4.241  0.2787  0.4296  0.1845
 2493SOL     OW10024   1.345   3.479   4.133 -0.0170  0.0003 -0.1316
 2493SOL    HW210025   1.268   3.518   4.176 -0.5477 -1.1609 -0.0161
 2493SOL    HW310026   1.337   3.505   4.041  0.6560  1.7635  0.2877
 2493SOL    MW410027   1.334   3.488   4.127  0.0019  0.0796 -0.0610
 2494SOL     OW10028   1.559   3.643   4.264 -0.3245 -0.4519  0.2396
 2494SOL    HW210029   1.552   3.674   4.355 -0.3453 -0.3741  0.2119
 2494SOL    HW310030   1.485   3.583   4.254 -0.8506  0.2253  0.0035
 2494SOL    MW410031   1.548   3.639   4.275 -0.3965 -0.3524  0.2046
 2495SOL     OW10032   1.527   3.895   4.130 -0.6901 -0.6284 -0.3020
 2495SOL    HW210033   1.480   3.956   4.186  0.4230  0.0572 -0.1071
 2495SOL    HW310034   1.537   3.815   4.182  0.6366  0.1199  0.6112
 2495SOL    MW410035   1.522   3.892   4.144 -0.3681 -0.4392 -0.1559
 2496SOL     OW10036   1.308   4.047   4.259 -0.0665 -0.1705  0.4701
 2496SOL    HW210037   1.306   4.055   4.355  0.8644 -0.0103  0.4826
 2496SOL    HW310038   1.320   4.137   4.228 -1.1650 -0.1221  0.1684
 2496SOL    MW410039   1.310   4.060   4.268 -0.0885 -0.1431  0.4315
 2497SOL     OW10040   1.323   4.295   4.119  0.3484 -0.1904 -0.0818
 2497SOL    HW210041   1.329   4.297   4.024 -1.3736  2.0124 -0.1889
 2497SOL    HW310042   1.404   4.336   4.149  0.5186 -0.1292 -0.6187
 2497SOL    MW410043   1.335   4.301   4.110  0.1438  0.1082 -0.1669
 2498SOL     OW10044   1.537   0.029   4.110  0.3376 -0.0605 -0.3205
 2498SOL    HW210045   1.460   0.062   4.157  0.4572  0.0611 -0.2137
 2498SOL    HW310046   1.612   0.057   4.162  0.4213 -1.0106  0.0973
 2498SOL    MW410047   1.536   0.037   4.123  0.3644 -0.1698 -0.2518
 2499SOL     OW10048   1.997   0.041   4.124  0.1164 -0.1555  0.2230
 2499SOL    HW210049   1.992  -0.051   4.151 -0.2854 -0.0960  0.3444
 2499SOL    HW310050   1.985   0.039   4.029 -0.7244 -0.1497  0.3276
 2499SOL    MW410051   1.995   0.028   4.115 -0.0474 -0.1469  0.2522
 2500SOL     OW10052   1.568   4.217   4.609  0.9172  0.5428 -0.1188
 2500SOL    HW210053   1.486   4.173   4.585  0.5204  0.7234  0.8891
 2500SOL    HW310054   1.573   4.208   4.704  1.0235  2.3548  0.0611
 2500SOL    MW410055   1.558   4.210   4.618  0.8789  0.8059  0.0381
 2501SOL     OW10056   1.409   0.359   4.158 -0.2041  0.4624  0.3387
 2501SOL    HW210057   1.333   0.417   4.157  0.5180  1.4295  0.9668
 2501SOL    HW310058   1.476   0.408   4.205  0.1455 -1.2356  1.6666
 2501SOL    MW410059   1.407   0.373   4.164 -0.0627  0.3660  0.5965
 2502SOL     OW10060   1.821   0.369   4.133 -0.1288 -0.0228 -0.4487
 2502SOL    HW210061   1.900   0.412   4.167 -0.3116  0.6082 -0.8041
 2502SOL    HW310062   1.750   0.428   4.158 -0.4483 -0.4206 -0.4288
 2502SOL    MW410063   1.822   0.383   4.141 -0.1950  0.0080 -0.4930
 2503SOL     OW10064   2.063   0.787   4.103 -0.1186 -0.0900  0.1886
 2503SOL    HW210065   2.122   0.839   4.158 -0.1380 -0.5020  0.6059
 2503SOL    HW310066   2.048   0.707   4.154 -0.2467 -0.4158 -0.3594
 2503SOL    MW410067   2.069   0.783   4.117 -0.1383 -0.1874  0.1712
 2504SOL     OW10068   1.838   0.912   4.208  0.4564 -0.3664 -0.1443
 2504SOL    HW210069   1.848   1.004   4.181  0.1766 -0.1461  0.4743
 2504SOL    HW310070   1.909   0.866   4.163  1.4904  0.3988  0.6576
 2504SOL    MW410071   1.849   0.918   4.198  0.5560 -0.2364  0.0424
 2505SOL     OW10072   1.820   1.198   4.147 -0.0659  0.2062  0.4528
 2505SOL    HW210073   1.750   1.217   4.210  0.2309  0.7883  0.6107
 2505SOL    HW310074   1.891   1.257   4.171  0.0204  0.4931 -0.4832
 2505SOL    MW410075   1.820   1.208   4.158 -0.0153  0.3208  0.3500
 2506SOL     OW10076   2.045   1.342   4.231  0.3386 -0.1142  0.3225
 2506SOL    HW210077   2.030   1.345   4.326  0.3743  0.8859  0.3017
 2506SOL    HW310078   2.073   1.431   4.208  0.4905 -0.3949 -0.5996
 2506SOL    MW410079   2.046   1.354   4.241  0.3631 -0.0193  0.1979
 2507SOL     OW10080   2.101   1.591   4.128 -0.0552 -0.2281 -0.3400
 2507SOL    HW210081   2.018   1.620   4.166 -0.8083 -1.9055 -0.6763
 2507SOL    HW310082   2.084   1.587   4.034  0.1853 -1.2492 -0.3445
 2507SOL    MW410083   2.088   1.595   4.121 -0.1228 -0.5841 -0.3848
 2508SOL     OW10084   2.288   1.464   4.555 -0.2562  0.1559 -0.4845
 2508SOL    HW210085   2.308   1.539   4.611 -0.9441  0.2289 -0.3352
 2508SOL    HW310086   2.363   1.406   4.565  0.7711  1.2860 -1.3872
 2508SOL    MW410087   2.301   1.466   4.564 -0.2115  0.3146 -0.5836
 2509SOL     OW10088   1.843   1.937   4.145  0.4666 -0.0075  0.2629
 2509SOL    HW210089   1.821   1.847   4.170  0.6777 -0.1192  0.0530
 2509SOL    HW310090   1.925   1.956   4.191  0.6036 -0.0453  0.0370
 2509SOL    MW410091   1.851   1.927   4.154  0.5125 -0.0272  0.2050
 2510SOL     OW10092   2.089   1.823   4.549  0.3843 -0.0821  0.2637
 2510SOL    HW210093   2.124   1.912   4.541 -0.4901  0.0700 -2.4797
 2510SOL    HW310094   2.155   1.776   4.600 -0.0548  2.5998  3.4490
 2510SOL    MW410095   2.103   1.828   4.555  0.2110  0.2917  0.3223
 2511SOL     OW10096   2.065   2.017   4.294 -0.5524  0.3422 -0.1412
 2511SOL    HW210097   2.149   2.031   4.250 -0.0388  1.0002  1.0264
 2511SOL    HW310098   2.083   2.035   4.386 -1.4158 -1.8768  0.4768
 2511SOL    MW410099   2.078   2.021   4.300 -0.5984  0.1364  0.0944
 2512SOL     OW10100   1.893   2.456   4.267  0.0210 -0.0784  0.4027
 2512SOL    HW210101   1.983   2.432   4.245 -0.3575 -1.4148  0.2915
 2512SOL    HW310102   1.881   2.426   4.357 -0.4393 -0.2565  0.2844
 2512SOL    MW410103   1.903   2.449   4.276 -0.0895 -0.2782  0.3719
 2513SOL     OW10104   1.589   2.792   4.286 -0.0438  0.6102  0.2718
 2513SOL    HW210105   1.542   2.809   4.367 -0.6211  1.0447 -0.1534
 2513SOL    HW310106   1.588   2.876   4.240  1.6753  0.7992  0.5315
 2513SOL    MW410107   1.583   2.805   4.291  0.1069  0.6926  0.2503
 2514SOL     OW10108   2.056   2.836   4.250 -0.0086  0.0234  0.3098
 2514SOL    HW210109   2.074   2.802   4.338 -0.9040 -1.5495 -0.1012
 2514SOL    HW310110   1.977   2.790   4.222 -0.1547  1.0473 -1.0466
 2514SOL    MW410111   2.048   2.826   4.258 -0.1462 -0.0491  0.0768
 2515SOL     OW10112   2.022   3.098   4.173  0.5215  0.6007  0.0687
 2515SOL    HW210113   2.039   3.006   4.195  0.3155  0.5990  0.2139
 2515SOL    HW310114   2.017   3.098   4.077 -0.7436  0.2482  0.1324
 2515SOL    MW410115   2.024   3.086   4.163  0.3273  0.5541  0.0963
 2516SOL     OW10116   1.796   3.081   4.320  0.0458 -0.2709 -0.0328
 2516SOL    HW210117   1.769   3.169   4.346  1.5195 -0.4484  2.3107
 2516SOL    HW310118   1.872   3.095   4.263 -0.0801  0.0044 -0.1349
 2516SOL    MW410119   1.802   3.095   4.316  0.2236 -0.2577  0.2627
 2517SOL     OW10120   1.795   3.515   4.218  0.1820 -0.6181  0.2273
 2517SOL    HW210121   1.714   3.564   4.230 -0.8893 -2.4874  0.8261
 2517SOL    HW310122   1.802   3.503   4.124  0.4207  0.5753  0.0744
 2517SOL    MW410123   1.785   3.520   4.207  0.0721 -0.7074  0.2866
 2518SOL     OW10124   2.050   3.648   4.267 -0.0183  0.1637  0.2653
 2518SOL    HW210125   2.015   3.736   4.253 -0.2767  0.3231  1.8270
 2518SOL    HW310126   1.976   3.589   4.249  0.7202  0.1083 -2.8813
 2518SOL    MW410127   2.036   3.652   4.263  0.0446  0.1771  0.0563
 2519SOL     OW10128   1.973   3.888   4.152  0.0496 -0.0611  0.5023
 2519SOL    HW210129   1.904   3.952   4.171  1.1394  1.4507 -0.4548
 2519SOL    HW310130   1.989   3.899   4.058  0.6145 -1.3949  0.4407
 2519SOL    MW410131   1.966   3.898   4.142  0.2680 -0.0374  0.3681
 2520SOL     OW10132   1.756   4.060   4.226  0.0342  0.0287  0.0372
 2520SOL    HW210133   1.774   4.140   4.176  1.1847 -1.1863 -1.5339
 2520SOL    HW310134   1.689   4.014   4.174 -1.0415  0.2131  1.2260
 2520SOL    MW410135   1.749   4.064   4.213  0.0441 -0.1073 -0.0134
 2521SOL     OW10136   1.787   4.327   4.119 -0.2915 -0.1278  0.2411
 2521SOL    HW210137   1.865   4.375   4.146  0.8114 -2.0541  0.5675
 2521SOL    HW310138   1.794   4.321   4.024  0.2641 -0.8082  0.3250
 2521SOL    MW410139   1.798   4.332   4.110 -0.0727 -0.4716  0.2956
 2522SOL     OW10140   2.015   4.460   4.242  0.2807  0.1829 -0.5880
 2522SOL    HW210141   2.083   4.402   4.207  0.0570  0.0391 -0.7908
 2522SOL    HW310142   2.046   4.484   4.329  0.8310  0.5142 -0.8675
 2522SOL    MW410143   2.028   4.455   4.249  0.3235  0.2074 -0.6514
 2523SOL     OW10144   3.233   0.365   4.504 -0.4384  0.4564  0.3624
 2523SOL    HW210145   3.239   0.345   4.411 -1.8045 -2.1080  0.7750
 2523SOL    HW310146   3.283   0.446   4.515  0.7798  0.1101 -2.3703
 2523SOL    MW410147   3.240   0.373   4.494 -0.4580  0.0724  0.0558
 2524SOL     OW10148   2.186   3.401   4.913 -0.0741  0.5266  0.0605
 2524SOL    HW210149   2.104   3.366   4.879  0.0377  1.6727 -1.4458
 2524SOL    HW310150   2.174   3.496   4.911  1.2168  0.6947 -0.0133
 2524SOL    MW410151   2.174   3.409   4.908  0.1111  0.7002 -0.1478
 2525SOL     OW10152   2.270   0.415   4.149 -0.0647 -0.0858  0.4206
 2525SOL    HW210153   2.274   0.327   4.186 -1.2244 -0.1867  0.3283
 2525SOL    HW310154   2.259   0.401   4.055  0.6604  0.1623  0.2982
 2525SOL    MW410155   2.269   0.402   4.141 -0.1223 -0.0664  0.3924
 2526SOL     OW10156   2.256   0.907   4.237 -0.0498  0.1210  0.3807
 2526SOL    HW210157   2.257   0.905   4.333  0.9836 -0.3142  0.3682
 2526SOL    HW310158   2.280   0.997   4.215 -1.8740  0.6781  0.5265
 2526SOL    MW410159   2.259   0.918   4.247 -0.1543  0.1371  0.3982
 2527SOL     OW10160   2.521   0.790   4.162 -0.1599 -0.0712  0.1835
 2527SOL    HW210161   2.511   0.814   4.069 -0.4779  1.1178  0.5193
 2527SOL    HW310162   2.440   0.821   4.203  0.8356  1.1916  1.2219
 2527SOL    MW410163   2.509   0.797   4.155 -0.0708  0.2523  0.3653
 2528SOL     OW10164   2.719   0.258   4.637  0.4326 -0.0045 -0.0116
 2528SOL    HW210165   2.681   0.170   4.644  0.0363  0.0534 -1.2762
 2528SOL    HW310166   2.813   0.242   4.625  0.7586 -0.1649  2.4162
 2528SOL    MW410167   2.727   0.244   4.636  0.4230 -0.0180  0.1416
 2529SOL     OW10168   2.044   1.361   4.514  0.1422  0.0377  0.0914
 2529SOL    HW210169   2.132   1.396   4.528  0.7147 -0.8781 -1.1279
 2529SOL    HW310170   2.053   1.267   4.531 -0.2678 -0.2872 -1.4080
 2529SOL    MW410171   2.057   1.353   4.518  0.1636 -0.1260 -0.2675
 2530SOL     OW10172   2.269   1.177   4.184  0.4264 -0.2893  0.1727
 2530SOL    HW210173   2.196   1.239   4.187  0.7013  0.0341  0.1160
 2530SOL    HW310174   2.341   1.222   4.227  0.6456 -0.5462  0.0762
 2530SOL    MW410175   2.269   1.191   4.190  0.4916 -0.2806  0.1526
 2531SOL     OW10176   2.315   1.597   4.297 -0.0725  0.4294  0.3881
 2531SOL    HW210177   2.296   1.537   4.370 -0.0032 -0.0811 -0.0103
 2531SOL    HW310178   2.236   1.595   4.243  1.1955 -2.0011 -1.4815
 2531SOL    MW410179   2.302   1.589   4.300  0.1037  0.0412  0.0892
 2532SOL     OW10180   2.533   1.559   4.135  0.3368 -0.2820 -0.0246
 2532SOL    HW210181   2.503   1.550   4.045  0.0647  0.4518 -0.0121
 2532SOL    HW310182   2.454   1.583   4.185  0.2508 -1.8263  0.6097
 2532SOL    MW410183   2.519   1.561   4.130  0.2897 -0.3889  0.0610
 2533SOL     OW10184   2.315   2.051   4.190 -0.2477  0.3008  0.3193
 2533SOL    HW210185   2.367   2.131   4.189  0.6361 -0.2835 -1.5483
 2533SOL    HW310186   2.361   1.993   4.251 -0.3801  0.8785  0.9684
 2533SOL    MW410187   2.328   2.054   4.198 -0.1485  0.2999  0.1583
 2534SOL     OW10188   2.706   2.235   4.253 -0.1808 -0.2593  0.0373
 2534SOL    HW210189   2.766   2.161   4.242 -2.2739 -1.9700  0.0248
 2534SOL    HW310190   2.711   2.256   4.346  1.6921  0.7236 -0.2483
 2534SOL    MW410191   2.715   2.228   4.263 -0.2098 -0.3555 -0.0019
 2535SOL     OW10192   2.446   2.283   4.172 -0.3641  0.1484  0.1530
 2535SOL    HW210193   2.536   2.265   4.202 -0.6066  0.5148  1.1076
 2535SOL    HW310194   2.457   2.310   4.081  0.5836  1.0255  0.5131
 2535SOL    MW410195   2.460   2.284   4.164 -0.2711  0.3126  0.3262
 2536SOL     OW10196   2.152   2.387   4.173  0.1120 -0.3895 -0.1740
 2536SOL    HW210197   2.242   2.359   4.186  0.8046  1.5315 -0.6035
 2536SOL    HW310198   2.130   2.359   4.084  0.4282 -0.4980 -0.2172
 2536SOL    MW410199   2.161   2.380   4.163  0.2451 -0.1504 -0.2360
 2537SOL     OW10200   2.214   2.649   4.120  0.2304  0.0246  0.0036
 2537SOL    HW210201   2.192   2.558   4.141 -1.8241 -0.1456 -2.5383
 2537SOL    HW310202   2.152   2.701   4.170  0.5734 -0.0422  0.4932
 2537SOL    MW410203   2.203   2.644   4.129  0.0048 -0.0069 -0.2670
 2538SOL     OW10204   2.478   2.786   4.169 -0.6562  0.0703  0.1824
 2538SOL    HW210205   2.400   2.754   4.124 -1.6232 -1.0833  2.5478
 2538SOL    HW310206   2.456   2.779   4.262  1.8743  0.7688  0.8768
 2538SOL    MW410207   2.465   2.781   4.176 -0.4501  0.0105  0.5856
 2539SOL     OW10208   2.513   3.061   4.150  0.4240 -0.0145  0.1196
 2539SOL    HW210209   2.426   3.097   4.168 -0.1116 -0.1650 -2.0802
 2539SOL    HW310210   2.502   2.967   4.159  0.0944 -0.1071 -1.2264
 2539SOL    MW410211   2.500   3.054   4.154  0.3099 -0.0463 -0.3481
 2540SOL     OW10212   2.282   3.214   4.153  0.0759  0.6167  0.6037
 2540SOL    HW210213   2.268   3.308   4.136 -0.4679  0.5412  0.6481
 2540SOL    HW310214   2.195   3.179   4.171  0.0919 -0.1612 -0.7267
 2540SOL    MW410215   2.269   3.222   4.153  0.0062  0.5038  0.4344
 2541SOL     OW10216   2.241   3.505   4.105 -0.1567 -0.2376 -0.4073
 2541SOL    HW210217   2.313   3.527   4.164  0.3255 -1.0446 -0.6850
 2541SOL    HW310218   2.165   3.550   4.142  0.4796  0.6225 -0.1060
 2541SOL    MW410219   2.240   3.514   4.118 -0.0091 -0.2303 -0.4044
 2542SOL     OW10220   2.458   3.617   4.244  0.4542  0.0526 -0.0221
 2542SOL    HW210221   2.454   3.629   4.339 -0.3323  1.1426 -0.1795
 2542SOL    HW310222   2.422   3.699   4.209  0.8254 -0.3163 -1.2550
 2542SOL    MW410223   2.453   3.630   4.252  0.3994  0.1478 -0.2055
 2543SOL     OW10224   2.414   3.879   4.138 -0.1219 -0.0325 -0.7106
 2543SOL    HW210225   2.502   3.900   4.168 -0.5266  0.0620  0.4695
 2543SOL    HW310226   2.419   3.881   4.043  0.9442  0.7976 -0.6393
 2543SOL    MW410227   2.426   3.882   4.130 -0.0346  0.0892 -0.5460
 2544SOL     OW10228   2.204   4.029   4.240  0.3028 -0.1422  0.1412
 2544SOL    HW210229   2.287   3.994   4.209  0.1689  0.4600 -0.9149
 2544SOL    HW310230   2.138   3.969   4.205  0.3236 -0.9788  1.5037
 2544SOL    MW410231   2.206   4.016   4.231  0.2880 -0.1726  0.1817
 2545SOL     OW10232   2.223   4.277   4.120 -0.0775 -0.6536 -0.0849
 2545SOL    HW210233   2.195   4.193   4.156 -1.6678  0.6169  1.7487
 2545SOL    HW310234   2.302   4.299   4.169  0.0378 -0.8227 -0.1941
 2545SOL    MW410235   2.230   4.269   4.131 -0.2723 -0.5083  0.1421
 2546SOL     OW10236   2.473   4.375   4.235  0.0825 -0.3176  0.1923
 2546SOL    HW210237   2.551   4.322   4.220  0.3042  0.1362 -0.2519
 2546SOL    HW310238   2.464   4.377   4.331  0.3967 -0.6775  0.2312
 2546SOL    MW410239   2.482   4.368   4.246  0.1531 -0.3047  0.1388
 2547SOL     OW10240   2.896   0.547   4.537 -0.1497 -0.0282  0.1541
 2547SOL    HW210241   2.802   0.555   4.555 -0.3643 -0.5952 -0.6520
 2547SOL    HW310242   2.917   0.457   4.563 -0.1580 -0.3837 -1.0359
 2547SOL    MW410243   2.886   0.536   4.543 -0.1791 -0.1498 -0.1097
 2548SOL     OW10244   2.666   0.094   4.247  0.0962  0.0856 -0.1634
 2548SOL    HW210245   2.752   0.052   4.244  0.1210  0.1865 -1.5126
 2548SOL    HW310246   2.683   0.185   4.221 -0.0115  0.8685  2.3839
 2548SOL    MW410247   2.680   0.100   4.243  0.0854  0.2022 -0.0052
 2549SOL     OW10248   2.502   0.531   4.270 -0.4183  0.1501  0.6311
 2549SOL    HW210249   2.419   0.494   4.241 -1.4075  2.3520  0.5168
 2549SOL    HW310250   2.502   0.620   4.235  2.3702 -0.0678 -0.0563
 2549SOL    MW410251   2.491   0.538   4.261 -0.1812  0.4118  0.5255
 2550SOL     OW10252   2.605   0.486   4.536  0.2808 -0.3681  0.3623
 2550SOL    HW210253   2.574   0.474   4.446  1.3653  1.3163 -0.2715
 2550SOL    HW310254   2.624   0.397   4.567  0.5868 -0.9193 -1.3418
 2550SOL    MW410255   2.604   0.473   4.528  0.4644 -0.2186  0.0539
 2551SOL     OW10256   2.962   0.761   4.178 -0.0125  0.2036 -0.4943
 2551SOL    HW210257   2.971   0.763   4.082  2.6957 -0.6766 -0.2947
 2551SOL    HW310258   2.950   0.669   4.199 -0.2786  0.3630  0.0497
 2551SOL    MW410259   2.962   0.749   4.168  0.3097  0.1085 -0.3958
 2552SOL     OW10260   2.744   0.933   4.278  0.2244  0.1056  0.4066
 2552SOL    HW210261   2.811   0.867   4.258  0.8526  0.9343 -0.2719
 2552SOL    HW310262   2.662   0.892   4.252  0.4086 -1.0953  1.6786
 2552SOL    MW410263   2.742   0.919   4.272  0.3316  0.0564  0.4849
 2553SOL     OW10264   2.728   1.163   4.118  0.6123 -0.2838 -0.0819
 2553SOL    HW210265   2.758   1.144   4.029  1.6891  2.8066 -0.4177
 2553SOL    HW310266   2.741   1.080   4.165 -0.1620 -2.0307 -2.8038
 2553SOL    MW410267   2.734   1.149   4.113  0.6521 -0.1066 -0.4849
 2554SOL     OW10268   3.002   0.805   4.551  0.5634 -0.0955 -0.1213
 2554SOL    HW210269   3.098   0.799   4.544  0.5596  1.1576 -1.6871
 2554SOL    HW310270   2.973   0.714   4.552  1.8262 -0.5167  1.5169
 2554SOL    MW410271   3.011   0.793   4.550  0.7296  0.0142 -0.1116
 2555SOL     OW10272   3.007   1.551   4.119 -0.6165 -0.1388 -0.0936
 2555SOL    HW210273   2.933   1.597   4.158  0.7173  0.8536  1.3329
 2555SOL    HW310274   3.001   1.462   4.155 -1.7777 -0.4106 -0.9244
 2555SOL    MW410275   2.997   1.545   4.129 -0.5937 -0.0439 -0.0153
 2556SOL     OW10276   2.437   1.861   4.348  0.0008  0.4717  0.0486
 2556SOL    HW210277   2.387   1.782   4.329  1.3121 -0.0323 -1.4457
 2556SOL    HW310278   2.488   1.840   4.426  1.1805 -0.5843 -0.9763
 2556SOL    MW410279   2.437   1.848   4.356  0.3295  0.2660 -0.2837
 2557SOL     OW10280   3.176   1.958   4.174 -0.0899  0.1312  0.1950
 2557SOL    HW210281   3.229   2.010   4.234  0.7582 -0.5781  0.0658
 2557SOL    HW310282   3.088   1.996   4.181  0.2548  0.7966  1.0058
 2557SOL    MW410283   3.171   1.970   4.182  0.0672  0.1255  0.2847
 2558SOL     OW10284   2.918   1.243   4.498  0.5168  0.4625 -0.0961
 2558SOL    HW210285   2.918   1.267   4.405  1.5443  0.9697  0.0275
 2558SOL    HW310286   2.879   1.156   4.500  0.8156  0.2947 -1.0516
 2558SOL    MW410287   2.913   1.235   4.486  0.6917  0.5072 -0.2060
 2559SOL     OW10288   2.564   3.012   5.036 -1.0104 -0.4633 -0.2895
 2559SOL    HW210289   2.611   2.979   4.960 -0.7653  1.0596 -0.8312
 2559SOL    HW310290   2.630   3.060   5.086 -1.1434 -1.5565  0.9640
 2559SOL    MW410291   2.579   3.014   5.033 -0.9954 -0.4065 -0.1960
 2560SOL     OW10292   2.861   2.425   4.112  0.3379  0.0988 -0.0779
 2560SOL    HW210293   2.805   2.361   4.157 -0.1746  0.5001 -0.1328
 2560SOL    HW310294   2.943   2.424   4.162  0.3116 -0.5523 -0.0427
 2560SOL    MW410295   2.864   2.416   4.125  0.2668  0.0660 -0.0811
 2561SOL     OW10296   2.740   2.681   4.091  0.4666 -0.2767  0.1707
 2561SOL    HW210297   2.760   2.588   4.091  0.8593 -0.2070 -2.2072
 2561SOL    HW310298   2.647   2.686   4.115 -0.1174 -1.4214 -1.7683
 2561SOL    MW410299   2.730   2.670   4.094  0.4413 -0.4187 -0.3986
 2562SOL     OW10300   2.922   2.831   4.241  0.0919 -0.4007  0.1010
 2562SOL    HW210301   2.887   2.841   4.330  0.8000 -2.0509  0.5761
 2562SOL    HW310302   2.850   2.790   4.192  0.1003 -0.5093  0.1803
 2562SOL    MW410303   2.908   2.827   4.246  0.1867 -0.6328  0.1745
 2563SOL     OW10304   2.947   3.116   4.208  0.1527 -0.3444 -0.1978
 2563SOL    HW210305   2.933   3.021   4.218 -1.7334 -0.1530 -0.7743
 2563SOL    HW310306   2.967   3.127   4.115  0.4526 -0.1770 -0.1146
 2563SOL    MW410307   2.948   3.105   4.197 -0.0565 -0.2971 -0.2632
 2564SOL     OW10308   2.699   3.232   4.240 -0.5219  0.2572 -0.3251
 2564SOL    HW210309   2.783   3.194   4.216 -0.9791  0.2447 -1.9988
 2564SOL    HW310310   2.635   3.163   4.217 -1.1744  1.1962 -1.3867
 2564SOL    MW410311   2.701   3.218   4.234 -0.6683  0.3796 -0.6857
 2565SOL     OW10312   2.675   3.492   4.141  0.0544  0.4959 -0.5138
 2565SOL    HW210313   2.665   3.403   4.173  0.8925  0.7272  0.4033
 2565SOL    HW310314   2.613   3.544   4.193  0.1655  0.5865 -0.4717
 2565SOL    MW410315   2.665   3.487   4.152  0.1798  0.5383 -0.3872
 2566SOL     OW10316   2.929   3.575   4.231  0.2200 -0.3662 -0.2168
 2566SOL    HW210317   2.919   3.587   4.326 -0.0079  2.3637 -0.5459
 2566SOL    HW310318   2.841   3.553   4.201 -0.0441  0.3597  0.0080
 2566SOL    MW410319   2.916   3.574   4.240  0.1552  0.0901 -0.2308
 2567SOL     OW10320   2.925   3.850   4.134 -0.6017  0.2920  0.0798
 2567SOL    HW210321   3.009   3.887   4.159 -1.2603  1.7482  0.2078
 2567SOL    HW310322   2.930   3.758   4.161  1.5852 -0.0943 -1.5124
 2567SOL    MW410323   2.937   3.842   4.141 -0.4003  0.4332 -0.1135
 2568SOL     OW10324   2.674   3.953   4.238  0.0335  0.1919  0.1980
 2568SOL    HW210325   2.680   4.042   4.204 -1.2757  0.5853  0.9473
 2568SOL    HW310326   2.745   3.905   4.195  0.3585  1.4434 -0.6691
 2568SOL    MW410327   2.684   3.958   4.228 -0.0961  0.4089  0.1826
 2569SOL     OW10328   2.698   4.236   4.161  0.3519  0.0697 -0.0106
 2569SOL    HW210329   2.768   4.288   4.201 -0.2879  2.3001 -1.7076
 2569SOL    HW310330   2.702   4.258   4.068 -1.7676 -0.7538 -0.3296
 2569SOL    MW410331   2.708   4.246   4.154 -0.0124  0.2551 -0.2766
 2570SOL     OW10332   1.825   4.082   4.487 -0.2035 -0.7826  0.3142
 2570SOL    HW210333   1.804   4.085   4.393 -1.4032 -4.2168  0.3967
 2570SOL    HW310334   1.751   4.125   4.529 -0.2148 -0.2513 -0.2308
 2570SOL    MW410335   1.813   4.088   4.480 -0.3632 -1.1659  0.2532
 2571SOL     OW10336   2.726   4.006   4.511  0.5657 -0.2528 -0.0961
 2571SOL    HW210337   2.717   3.982   4.418 -1.3932 -1.2450  0.3206
 2571SOL    HW310338   2.726   3.922   4.557  0.9532  0.2612  0.8425
 2571SOL    MW410339   2.725   3.992   4.505  0.3583 -0.3159  0.0825
 2572SOL     OW10340   3.407   4.100   4.630 -0.2592 -0.3634  0.0180
 2572SOL    HW210341   3.475   4.040   4.602 -0.2909 -0.3392 -0.1111
 2572SOL    HW310342   3.381   4.068   4.717  2.1016  1.4577  1.4605
 2572SOL    MW410343   3.412   4.088   4.638  0.0482 -0.1206  0.1912
 2573SOL     OW10344   1.329   4.579   4.500 -0.2101 -0.1398  0.2696
 2573SOL    HW210345   1.334   4.622   4.415 -0.9140  0.6715  0.6263
 2573SOL    HW310346   1.418   4.548   4.518 -0.2296 -1.0247 -1.1192
 2573SOL    MW410347   1.341   4.580   4.491 -0.3055 -0.1497  0.1335
 2574SOL     OW10348   3.840   3.603   4.255 -0.6360 -0.2859  0.0217
 2574SOL    HW210349   3.915   3.558   4.217 -0.3612 -0.0584  0.2828
 2574SOL    HW310350   3.844   3.691   4.218 -1.5831 -0.6857 -1.0374
 2574SOL    MW410351   3.851   3.609   4.245 -0.7246 -0.3085 -0.0839
 2575SOL     OW10352   1.763   0.200   4.501 -0.0742  0.3415  0.7099
 2575SOL    HW210353   1.752   0.180   4.408  0.9235 -1.2975  0.9383
 2575SOL    HW310354   1.857   0.212   4.512 -0.1869  0.4945  1.5232
 2575SOL    MW410355   1.774   0.199   4.490  0.0426  0.1454  0.8473
 2576SOL     OW10356   2.953   4.416   4.535  0.1483 -0.2338 -0.4876
 2576SOL    HW210357   2.973   4.325   4.555  0.2373 -0.4814 -1.6609
 2576SOL    HW310358   2.859   4.424   4.553 -0.0895 -0.8518 -1.4527
 2576SOL    MW410359   2.943   4.405   4.540  0.1290 -0.3486 -0.7696
 2577SOL     OW10360   3.165   1.154   4.127 -0.3015 -0.1252 -0.4096
 2577SOL    HW210361   3.245   1.192   4.163 -0.3544 -1.4286  1.1139
 2577SOL    HW310362   3.175   1.165   4.032  1.2823  0.4972 -0.2002
 2577SOL    MW410363   3.177   1.161   4.119 -0.0999 -0.2151 -0.1807
 2578SOL     OW10364   3.386   1.242   4.272 -0.1803 -0.3668  0.0242
 2578SOL    HW210365   3.340   1.218   4.352 -1.2282  0.3326 -0.3473
 2578SOL    HW310366   3.353   1.329   4.251  1.1798  0.0611 -0.3766
 2578SOL    MW410367   3.375   1.250   4.280 -0.1390 -0.2179 -0.0777
 2579SOL     OW10368   3.355   1.515   4.174 -0.1544 -0.5121 -0.3253
 2579SOL    HW210369   3.301   1.588   4.205  0.1926  0.1524 -1.2809
 2579SOL    HW310370   3.365   1.530   4.080  1.1685 -0.9722 -0.2680
 2579SOL    MW410371   3.349   1.526   4.166  0.0660 -0.4852 -0.4435
 2580SOL     OW10372   4.402   3.597   4.532  0.0220  0.0249 -0.4838
 2580SOL    HW210373   4.471   3.660   4.511 -0.9239  0.0023 -3.9228
 2580SOL    HW310374   4.448   3.526   4.577  1.6382  1.5983  0.4399
 2580SOL    MW410375   4.417   3.596   4.535  0.1101  0.2294 -0.8154
 2581SOL     OW10376   3.060   2.249   4.651 -0.2403 -0.1638  0.2235
 2581SOL    HW210377   3.026   2.304   4.722  0.6327  1.5193 -0.6176
 2581SOL    HW310378   3.126   2.194   4.693 -1.2952 -0.7579  1.1279
 2581SOL    MW410379   3.064   2.249   4.666 -0.2644 -0.0205  0.2317
 2582SOL     OW10380   3.390   2.048   4.333  0.1876 -0.0225  0.3215
 2582SOL    HW210381   3.381   2.129   4.282  0.6876  0.2407  0.6490
 2582SOL    HW310382   3.445   1.992   4.279 -0.3692 -0.2484 -0.0235
 2582SOL    MW410383   3.396   2.051   4.319  0.1800 -0.0176  0.3195
 2583SOL     OW10384   3.329   2.278   4.190 -0.1200  0.0304 -0.0246
 2583SOL    HW210385   3.262   2.339   4.220 -0.4890 -0.1541 -0.4648
 2583SOL    HW310386   3.329   2.287   4.095  1.8455  1.4536  0.0683
 2583SOL    MW410387   3.321   2.287   4.182  0.0908  0.1941 -0.0701
 2584SOL     OW10388   3.142   2.462   4.228  0.1170 -0.2410 -0.0860
 2584SOL    HW210389   3.133   2.477   4.322 -1.1383  0.1145 -0.2458
 2584SOL    HW310390   3.138   2.550   4.189  3.7179 -0.0975 -0.2775
 2584SOL    MW410391   3.140   2.476   4.235  0.4265 -0.1752 -0.1321
 2585SOL     OW10392   3.132   2.728   4.105  0.1412  0.0291 -0.3318
 2585SOL    HW210393   3.212   2.760   4.147  1.0827  0.2629 -2.2390
 2585SOL    HW310394   3.061   2.771   4.153  1.1870  0.5857  0.7537
 2585SOL    MW410395   3.133   2.738   4.117  0.4032  0.1335 -0.4401
 2586SOL     OW10396   3.363   2.812   4.220 -0.3615  0.2706 -0.0413
 2586SOL    HW210397   3.452   2.777   4.213  0.0748  1.2071  0.7524
 2586SOL    HW310398   3.374   2.907   4.214 -1.4020  0.3526 -0.7728
 2586SOL    MW410399   3.376   2.820   4.218 -0.4413  0.4048 -0.0329
 2587SOL     OW10400   3.393   3.077   4.181 -0.1164 -0.1325 -0.1763
 2587SOL    HW210401   3.330   3.144   4.209  1.4170  2.0529 -1.7290
 2587SOL    HW310402   3.373   3.064   4.088 -0.2150 -1.6400  0.0531
 2587SOL    MW410403   3.382   3.084   4.172  0.0730 -0.0434 -0.3510
 2588SOL     OW10404   3.188   3.238   4.292  0.3438 -0.1729 -0.0817
 2588SOL    HW210405   3.190   3.317   4.237  0.6135 -0.1237 -0.0033
 2588SOL    HW310406   3.105   3.196   4.270  0.2767  0.0444 -0.2503
 2588SOL    MW410407   3.178   3.243   4.281  0.3705 -0.1378 -0.0935
 2589SOL     OW10408   3.169   3.453   4.122  0.2776 -0.0101 -0.3112
 2589SOL    HW210409   3.088   3.487   4.159 -0.6112 -3.2715  0.9148
 2589SOL    HW310410   3.156   3.456   4.027 -1.8857 -1.7915 -0.1112
 2589SOL    MW410411   3.157   3.458   4.114 -0.1252 -0.6754 -0.1230
 2590SOL     OW10412   3.381   3.580   4.560  0.0600  0.4646 -0.1447
 2590SOL    HW210413   3.408   3.490   4.576 -1.3830  0.0935  0.2363
 2590SOL    HW310414   3.377   3.587   4.464 -0.2928 -0.0177 -0.1677
 2590SOL    MW410415   3.384   3.569   4.549 -0.1769  0.3521 -0.0978
 2591SOL     OW10416   3.412   3.848   4.161  0.1453 -0.0047  0.0257
 2591SOL    HW210417   3.389   3.827   4.070  0.1485  0.3711 -0.0619
 2591SOL    HW310418   3.403   3.765   4.208  1.6453 -0.5419 -0.6176
 2591SOL    MW410419   3.408   3.834   4.155  0.3436 -0.0262 -0.0710
 2592SOL     OW10420   4.249   4.413   4.248  0.3367 -0.0248 -1.0149
 2592SOL    HW210421   4.241   4.427   4.342  0.7059 -1.2848 -0.7945
 2592SOL    HW310422   4.269   4.500   4.213  0.1088  0.4623  0.0546
 2592SOL    MW410423   4.251   4.427   4.256  0.3552 -0.1268 -0.8445
 2593SOL     OW10424   3.147   0.107   4.263  0.1784  0.4063 -0.1007
 2593SOL    HW210425   3.126   0.068   4.348  0.7389 -0.3409 -0.2961
 2593SOL    HW310426   3.235   0.074   4.243  0.1209  0.7272 -0.8870
 2593SOL    MW410427   3.156   0.098   4.271  0.2446  0.3501 -0.2303
 2594SOL     OW10428   3.194   4.001   4.224 -0.0220 -0.1169  0.3253
 2594SOL    HW210429   3.277   3.953   4.216 -0.5654 -1.3738  1.8572
 2594SOL    HW310430   3.182   4.011   4.319 -0.5483  1.9790  0.0584
 2594SOL    MW410431   3.204   3.996   4.236 -0.1631 -0.0064  0.4930
 2595SOL     OW10432   3.862   0.001   4.147 -0.1917 -0.2532 -0.5220
 2595SOL    HW210433   3.777   0.034   4.177  0.2444  0.4280 -0.0348
 2595SOL    HW310434   3.852  -0.007   4.052 -1.2854 -1.5844 -0.3043
 2595SOL    MW410435   3.849   0.004   4.139 -0.2787 -0.3390 -0.4292
 2596SOL     OW10436   3.379   4.654   4.180 -0.3786 -0.2079 -0.7793
 2596SOL    HW210437   3.463   4.678   4.219  1.1362 -0.2783 -3.8356
 2596SOL    HW310438   3.374   4.559   4.189 -1.8038  0.1114  2.4999
 2596SOL    MW410439   3.390   4.645   4.186 -0.3667 -0.1750 -0.7496
 2597SOL     OW10440   3.670   0.325   4.174 -0.4645 -0.1145 -0.1852
 2597SOL    HW210441   3.653   0.332   4.080  1.1479 -0.9848 -0.5545
 2597SOL    HW310442   3.742   0.386   4.190 -0.7442  0.0422  0.4893
 2597SOL    MW410443   3.677   0.334   4.164 -0.2887 -0.2087 -0.1450
 2598SOL     OW10444   3.872   0.484   4.236 -0.1123  0.0197 -0.4484
 2598SOL    HW210445   3.861   0.491   4.331 -0.0423 -0.1710 -0.4252
 2598SOL    HW310446   3.892   0.573   4.208  0.6604 -0.0554 -0.1740
 2598SOL    MW410447   3.873   0.497   4.245 -0.0014 -0.0154 -0.4096
 2599SOL     OW10448   3.901   0.764   4.170  0.4108  0.1245  0.4041
 2599SOL    HW210449   3.821   0.806   4.202  0.6073 -0.0611  1.1660
 2599SOL    HW310450   3.892   0.762   4.075  0.0971  1.2745  0.4126
 2599SOL    MW410451   3.889   0.769   4.162  0.3953  0.2517  0.5054
 2600SOL     OW10452   3.423   0.753   4.109  0.4899 -0.3492  0.0393
 2600SOL    HW210453   3.340   0.786   4.143  0.8835 -0.6299  1.2928
 2600SOL    HW310454   3.431   0.665   4.145  2.1114  0.2901  1.2777
 2600SOL    MW410455   3.413   0.746   4.118  0.7560 -0.3018  0.3676
 2601SOL     OW10456   3.608   1.127   4.175 -0.3021 -0.2136 -0.4116
 2601SOL    HW210457   3.538   1.173   4.222 -0.1301 -1.2188  0.8774
 2601SOL    HW310458   3.591   1.145   4.083 -2.2875 -0.4528 -0.1264
 2601SOL    MW410459   3.596   1.135   4.169 -0.5412 -0.3777 -0.2036
 2602SOL     OW10460   3.813   1.270   4.273  0.2518  0.0218  0.4599
 2602SOL    HW210461   3.744   1.224   4.224 -0.0273 -0.4384  1.2717
 2602SOL    HW310462   3.817   1.356   4.232  0.0203 -0.3541 -0.3728
 2602SOL    MW410463   3.804   1.275   4.261  0.1845 -0.0885  0.4568
 2603SOL     OW10464   3.808   1.344   4.560  0.0711 -0.2226 -0.0746
 2603SOL    HW210465   3.813   1.317   4.468  0.4714  0.2831 -0.2023
 2603SOL    HW310466   3.766   1.430   4.558  0.8091  0.1503  0.1430
 2603SOL    MW410467   3.803   1.352   4.547  0.2210 -0.1067 -0.0625
 2604SOL     OW10468   0.499   1.123   4.584 -0.3944 -0.5593 -0.1712
 2604SOL    HW210469   0.518   1.126   4.490 -0.8304 -1.3060 -0.2876
 2604SOL    HW310470   0.444   1.199   4.600  1.4923  0.8195 -0.1054
 2604SOL    MW410471   0.494   1.133   4.573 -0.2030 -0.4759 -0.1779
 2605SOL     OW10472   3.602   1.901   4.227  0.0255  0.0171  0.0706
 2605SOL    HW210473   3.624   1.808   4.232  0.4164  0.1365  0.5665
 2605SOL    HW310474   3.606   1.922   4.134 -1.3480 -0.7756 -0.1660
 2605SOL    MW410475   3.605   1.892   4.216 -0.1044 -0.0718  0.1044
 2606SOL     OW10476   3.835   2.049   4.269 -0.1148 -0.0348 -0.3042
 2606SOL    HW210477   3.852   2.085   4.356 -0.3797  0.8210 -0.6037
 2606SOL    HW310478   3.756   1.997   4.280  2.4988 -3.9666  1.0840
 2606SOL    MW410479   3.827   2.047   4.282  0.1950 -0.4406 -0.1607
 2607SOL     OW10480   3.759   2.301   4.154 -0.5048 -0.2884 -0.3653
 2607SOL    HW210481   3.782   2.212   4.179  0.2022 -0.4584 -1.5950
 2607SOL    HW310482   3.784   2.308   4.062 -1.6614  0.8036 -0.6135
 2607SOL    MW410483   3.765   2.290   4.145 -0.5641 -0.1667 -0.5603
 2608SOL     OW10484   3.554   2.463   4.253  0.2716 -0.0581 -0.2360
 2608SOL    HW210485   3.624   2.409   4.219 -0.0876 -0.4631 -0.3407
 2608SOL    HW310486   3.474   2.422   4.221 -0.0195  0.3358 -0.0303
 2608SOL    MW410487   3.552   2.451   4.244  0.1855 -0.0596 -0.2227
 2609SOL     OW10488   3.612   2.717   4.166  0.0867  0.4985 -0.1669
 2609SOL    HW210489   3.595   2.629   4.198  2.9691  0.3113  1.0124
 2609SOL    HW310490   3.589   2.714   4.073 -1.5128 -0.9648  0.2456
 2609SOL    MW410491   3.607   2.705   4.158  0.2561  0.2809  0.0429
 2610SOL     OW10492   3.861   2.793   4.242  0.0940 -0.0999 -0.0083
 2610SOL    HW210493   3.869   2.817   4.334 -0.9821  3.4494 -0.7406
 2610SOL    HW310494   3.768   2.773   4.231  0.1268 -0.0426 -0.4078
 2610SOL    MW410495   3.849   2.794   4.253 -0.0436  0.3757 -0.1574
 2611SOL     OW10496   3.808   3.044   4.156 -0.0722 -0.0397 -0.3868
 2611SOL    HW210497   3.839   2.959   4.188  0.7712  0.1949 -0.5504
 2611SOL    HW310498   3.822   3.041   4.061 -0.5310  0.0794 -0.4566
 2611SOL    MW410499   3.814   3.033   4.148 -0.0215  0.0069 -0.4172
 2612SOL     OW10500   3.603   3.237   4.237  0.0154  0.1443 -0.0670
 2612SOL    HW210501   3.530   3.177   4.251 -0.5978  0.9515  0.2424
 2612SOL    HW310502   3.675   3.181   4.207 -0.0688 -0.9786  1.7084
 2612SOL    MW410503   3.603   3.222   4.235 -0.0768  0.1028  0.2084
 2613SOL     OW10504   3.927   3.642   4.518 -0.0665  0.1914 -0.1127
 2613SOL    HW210505   3.910   3.633   4.425 -0.2911  1.6383 -0.2333
 2613SOL    HW310506   3.842   3.666   4.556 -0.0117 -0.5415  0.4823
 2613SOL    MW410507   3.914   3.644   4.511 -0.0887  0.2856 -0.0496
 2614SOL     OW10508   3.600   3.508   4.180  0.8218 -0.0635  0.3350
 2614SOL    HW210509   3.688   3.531   4.209  1.9691 -0.5069 -2.5710
 2614SOL    HW310510   3.591   3.415   4.201  0.6106  0.2541  1.6544
 2614SOL    MW410511   3.610   3.499   4.186  0.9453 -0.0801  0.1264
 2615SOL     OW10512   3.828   3.867   4.166  0.2694  0.0405 -0.0314
 2615SOL    HW210513   3.753   3.907   4.211 -0.7215 -0.0131 -1.5743
 2615SOL    HW310514   3.895   3.935   4.165 -0.3674  0.6752 -0.0795
 2615SOL    MW410515   3.827   3.881   4.172  0.0546  0.1171 -0.2413
 2616SOL     OW10516   0.316   4.504   4.531 -0.2723  0.3511 -0.8279
 2616SOL    HW210517   0.330   4.428   4.588 -1.5565  0.0482 -0.8987
 2616SOL    HW310518   0.401   4.517   4.488  0.4328 -0.0342  0.3954
 2616SOL    MW410519   0.329   4.496   4.533 -0.3487  0.2599 -0.6762
 2617SOL     OW10520   3.384   4.382   4.186 -0.2499  0.1191 -0.2654
 2617SOL    HW210521   3.457   4.332   4.148  0.1730 -0.4851  1.2931
 2617SOL    HW310522   3.398   4.376   4.280 -1.2810  1.5879 -0.0038
 2617SOL    MW410523   3.396   4.375   4.193 -0.3302  0.2337 -0.0257
 2618SOL     OW10524   3.841   4.405   4.247 -0.0928  0.2288  0.0804
 2618SOL    HW210525   3.916   4.356   4.213 -0.4104 -0.7500  0.7635
 2618SOL    HW310526   3.856   4.495   4.219  0.7432 -0.1752 -0.7887
 2618SOL    MW410527   3.852   4.410   4.239 -0.0246  0.0467  0.0553
 2619SOL     OW10528   4.312   0.001   4.120  0.0356 -0.2307 -0.0521
 2619SOL    HW210529   4.257   0.069   4.159 -0.9155 -1.4842  0.8362
 2619SOL    HW310530   4.400   0.020   4.149  0.2232  2.2468 -2.0903
 2619SOL    MW410531   4.316   0.012   4.129 -0.0653 -0.0696 -0.2041
 2620SOL     OW10532   4.108   0.403   4.115 -0.3752  0.3201  0.2076
 2620SOL    HW210533   4.028   0.424   4.163 -0.1614  1.1516  0.2136
 2620SOL    HW310534   4.178   0.442   4.167  0.1509 -1.3380  0.7722
 2620SOL    MW410535   4.107   0.411   4.128 -0.2770  0.2111  0.2823
 2621SOL     OW10536   4.318   0.501   4.279 -0.3534  0.1899  0.4068
 2621SOL    HW210537   4.390   0.462   4.230  0.4158  2.2338 -0.1305
 2621SOL    HW310538   4.318   0.593   4.253 -3.5630  0.1147 -0.0886
 2621SOL    MW410539   4.327   0.508   4.269 -0.6752  0.4497  0.2708
 2622SOL     OW10540   0.062   1.740   4.595  0.3101 -0.0940 -0.7935
 2622SOL    HW210541   0.100   1.820   4.556  0.0949  0.2130 -0.3763
 2622SOL    HW310542   0.137   1.681   4.606  0.7142  0.5978  0.2451
 2622SOL    MW410543   0.077   1.743   4.591  0.3350  0.0378 -0.6013
 2623SOL     OW10544   4.343   0.745   4.142  0.1916 -0.2256  0.3448
 2623SOL    HW210545   4.280   0.808   4.177  0.7751  0.3140  0.4248
 2623SOL    HW310546   4.336   0.754   4.047  0.8575  0.5378  0.3676
 2623SOL    MW410547   4.334   0.754   4.134  0.3562 -0.0536  0.3586
 2624SOL     OW10548   4.136   0.905   4.235 -0.0473 -0.3498  0.6622
 2624SOL    HW210549   4.115   0.997   4.216  0.3609  0.0467  2.1226
 2624SOL    HW310550   4.060   0.856   4.202 -0.6648  0.5834  0.6899
 2624SOL    MW410551   4.123   0.911   4.228 -0.0744 -0.1745  0.8583
 2625SOL     OW10552   4.058   1.164   4.171 -0.1579 -0.2400  0.5836
 2625SOL    HW210553   4.120   1.207   4.230 -0.0957  0.3743  0.0682
 2625SOL    HW310554   3.972   1.184   4.208 -0.1164  0.1185  0.4843
 2625SOL    MW410555   4.055   1.173   4.184 -0.1440 -0.1117  0.5026
 2626SOL     OW10556   4.234   1.300   4.327 -0.5281  0.0595  0.0883
 2626SOL    HW210557   4.227   1.385   4.282 -1.5426 -0.5207 -0.8867
 2626SOL    HW310558   4.187   1.313   4.409  0.6167  0.8864  0.6276
 2626SOL    MW410559   4.227   1.313   4.332 -0.5107  0.0920  0.0310
 2627SOL     OW10560   4.216   1.537   4.155  0.2002 -0.2128 -0.2170
 2627SOL    HW210561   4.293   1.581   4.190  0.5661 -1.8635  1.1159
 2627SOL    HW310562   4.233   1.529   4.061  1.2795  0.1817 -0.0513
 2627SOL    MW410563   4.228   1.542   4.147  0.3910 -0.3786 -0.0196
 2628SOL     OW10564   4.002   1.672   4.266 -0.0048 -0.3439 -0.0897
 2628SOL    HW210565   4.002   1.663   4.361 -1.1126 -0.2652 -0.0771
 2628SOL    HW310566   4.071   1.612   4.236 -0.9702 -1.8657  0.6380
 2628SOL    MW410567   4.011   1.663   4.275 -0.2785 -0.5343  0.0076
 2629SOL     OW10568   4.288   2.058   4.243  0.1810  0.0032  0.0053
 2629SOL    HW210569   4.210   2.010   4.215  0.3383  0.3533 -1.0382
 2629SOL    HW310570   4.274   2.075   4.336 -2.0463  2.0863 -0.6668
 2629SOL    MW410571   4.276   2.054   4.251 -0.0930  0.3245 -0.2213
 2630SOL     OW10572   0.016   1.908   4.161  0.0948 -0.3641  0.1557
 2630SOL    HW210573  -0.052   1.962   4.203 -0.6686 -0.6990 -0.6284
 2630SOL    HW310574   0.098   1.949   4.188 -0.3882 -0.3365  1.6622
 2630SOL    MW410575   0.018   1.921   4.170 -0.0696 -0.4045  0.2513
 2631SOL     OW10576   4.235   2.309   4.166 -0.1642  0.2282 -0.1806
 2631SOL    HW210577   4.154   2.339   4.208 -1.7718 -1.7877 -1.6966
 2631SOL    HW310578   4.248   2.220   4.200 -0.5121 -0.7578 -2.4601
 2631SOL    MW410579   4.226   2.301   4.176 -0.4225 -0.1681 -0.6819
 2632SOL     OW10580   0.474   1.828   4.638 -0.2379  0.1566  0.5736
 2632SOL    HW210581   0.507   1.755   4.586 -2.2596 -0.7656  0.5260
 2632SOL    HW310582   0.448   1.789   4.721  0.5718  1.1850  1.3279
 2632SOL    MW410583   0.475   1.813   4.642 -0.3978  0.1706  0.6666
 2633SOL     OW10584   4.076   2.651   4.136  0.3902  0.1436 -0.5376
 2633SOL    HW210585   4.155   2.690   4.173 -0.8669  0.6339  1.7043
 2633SOL    HW310586   4.004   2.697   4.179 -1.1380 -1.2106 -1.5669
 2633SOL    MW410587   4.077   2.662   4.146  0.0224  0.0296 -0.3772
 2634SOL     OW10588   0.276   4.036   4.782  0.1519  0.6385  0.2540
 2634SOL    HW210589   0.325   4.004   4.858 -0.1402 -1.0267 -0.2377
 2634SOL    HW310590   0.311   3.985   4.709 -0.9106  0.8690 -0.4145
 2634SOL    MW410591   0.287   4.025   4.783 -0.0269  0.4497  0.1006
 2635SOL     OW10592   4.270   3.046   4.199  0.3896  0.0526 -0.2416
 2635SOL    HW210593   4.287   2.952   4.206  2.0955  0.3606 -0.0827
 2635SOL    HW310594   4.273   3.064   4.105  0.2782 -0.0021 -0.2558
 2635SOL    MW410595   4.273   3.036   4.188  0.5999  0.0861 -0.2222
 2636SOL     OW10596   4.038   3.199   4.268 -0.3263 -0.0805  0.1672
 2636SOL    HW210597   4.111   3.140   4.250  0.3242  0.1567  1.9175
 2636SOL    HW310598   3.961   3.153   4.235  0.2062 -1.7487  1.2134
 2636SOL    MW410599   4.037   3.185   4.261 -0.1702 -0.2694  0.5369
 2637SOL     OW10600   4.050   3.450   4.164 -0.0464 -0.2221  0.1353
 2637SOL    HW210601   4.036   3.366   4.208  1.6138 -0.6439 -0.1019
 2637SOL    HW310602   4.043   3.431   4.071  0.3236 -0.0901  0.0804
 2637SOL    MW410603   4.047   3.437   4.158  0.2222 -0.2604  0.0973
 2638SOL     OW10604   4.253   3.614   4.280 -0.7431 -0.2822  0.2707
 2638SOL    HW210605   4.293   3.601   4.366 -1.3479 -0.7926  0.4690
 2638SOL    HW310606   4.187   3.546   4.273 -1.5637  0.5456 -0.0772
 2638SOL    MW410607   4.250   3.604   4.291 -0.9317 -0.2401  0.2513
 2639SOL     OW10608   4.100   1.376   4.582  0.0463 -0.0811 -0.0940
 2639SOL    HW210609   4.008   1.351   4.578 -0.0164 -0.0139  0.7413
 2639SOL    HW310610   4.137   1.320   4.650  0.2682  0.9747  0.6715
 2639SOL    MW410611   4.093   1.365   4.591  0.0668  0.0670  0.1168
 2640SOL     OW10612   4.076   3.994   4.192  0.4868  0.2277  0.6160
 2640SOL    HW210613   4.150   3.936   4.176  1.6786  1.8433  0.1203
 2640SOL    HW310614   4.076   4.007   4.287 -0.2766 -1.1997  0.8177
 2640SOL    MW410615   4.085   3.988   4.203  0.5431  0.2522  0.5770
 2641SOL     OW10616   4.061   4.259   4.119 -0.3781  0.1539  0.3662
 2641SOL    HW210617   4.127   4.312   4.165  0.8843 -0.9155 -0.1752
 2641SOL    HW310618   4.076   4.170   4.149 -1.4307 -0.1333  0.0488
 2641SOL    MW410619   4.072   4.254   4.129 -0.3505 -0.0248  0.2527
 2642SOL     OW10620   2.396   4.105   4.765 -0.2733 -0.2273 -0.2419
 2642SOL    HW210621   2.412   4.079   4.674 -0.6032  0.6026 -0.5362
 2642SOL    HW310622   2.479   4.144   4.793 -0.4460  0.3125 -0.4679
 2642SOL    MW410623   2.409   4.107   4.756 -0.3400 -0.0467 -0.3109
 2643SOL     OW10624   3.415   4.361   4.471 -0.1777  0.0605 -0.3854
 2643SOL    HW210625   3.396   4.437   4.525 -1.7919 -0.0239 -0.8062
 2643SOL    HW310626   3.437   4.292   4.534  1.0382  0.7908  0.0048
 2643SOL    MW410627   3.416   4.362   4.486 -0.2298  0.1459 -0.3891
 2644SOL     OW10628   4.327   3.841   4.106 -0.1174 -0.2789 -0.0198
 2644SOL    HW210629   4.325   3.763   4.160  1.7384 -0.6172 -0.3926
 2644SOL    HW310630   4.311   3.809   4.017  1.0288 -0.3040 -0.2264
 2644SOL    MW410631   4.325   3.827   4.101  0.2794 -0.3269 -0.0963
 2645SOL     OW10632   0.611   2.079   4.514  0.1538 -0.6126 -0.5049
 2645SOL    HW210633   0.561   2.012   4.560 -0.9934 -0.8070 -1.9939
 2645SOL    HW310634   0.701   2.047   4.514  0.0037 -1.0782  0.6988
 2645SOL    MW410635   0.616   2.066   4.520 -0.0174 -0.6998 -0.5426
 2646SOL     OW10636   1.843   0.917   4.480 -0.2750 -0.0916 -0.1298
 2646SOL    HW210637   1.860   0.909   4.386  0.8032  1.0751 -0.0461
 2646SOL    HW310638   1.850   0.827   4.513  2.2038 -0.1413 -0.7081
 2646SOL    MW410639   1.846   0.904   4.472  0.1943  0.0558 -0.1955
 2647SOL     OW10640   1.153   0.590   4.461 -0.0702 -0.1327  0.3421
 2647SOL    HW210641   1.060   0.575   4.475 -0.4607  1.6481 -0.3165
 2647SOL    HW310642   1.178   0.653   4.529  0.5382 -0.1735  0.1635
 2647SOL    MW410643   1.144   0.596   4.472 -0.0417  0.0968  0.2317
 2648SOL     OW10644   1.130   2.081   4.533  0.6032 -0.2005 -0.1654
 2648SOL    HW210645   1.167   2.169   4.547  0.4729 -0.1025 -0.4258
 2648SOL    HW310646   1.194   2.022   4.572  0.4818  0.0364  0.4062
 2648SOL    MW410647   1.143   2.085   4.540  0.5701 -0.1559 -0.1245
 2649SOL     OW10648   2.113   3.668   4.869  0.0281  0.2008 -0.0296
 2649SOL    HW210649   2.163   3.744   4.898 -0.8173  1.0714 -0.8470
 2649SOL    HW310650   2.023   3.699   4.861 -0.4532 -1.0588  0.2951
 2649SOL    MW410651   2.108   3.682   4.872 -0.1469  0.1497 -0.0949
 2650SOL     OW10652   0.941   1.699   4.485  0.5728 -0.0015  0.0155
 2650SOL    HW210653   1.034   1.685   4.503  0.8124 -0.4744 -1.4955
 2650SOL    HW310654   0.900   1.615   4.505  0.5344  0.0841  0.2953
 2650SOL    MW410655   0.948   1.686   4.490  0.5994 -0.0526 -0.1464
 2651SOL     OW10656   1.617   2.062   4.267 -0.1958 -0.2501 -0.2290
 2651SOL    HW210657   1.695   2.037   4.217 -1.3336 -0.1752 -2.1308
 2651SOL    HW310658   1.611   2.157   4.257 -1.5050 -0.4419 -1.6903
 2651SOL    MW410659   1.626   2.071   4.259 -0.5186 -0.2656 -0.6728
 2652SOL     OW10660   4.006   1.655   4.528  0.2064  0.0789 -0.2421
 2652SOL    HW210661   4.085   1.708   4.536  0.3109 -0.2439  0.9959
 2652SOL    HW310662   4.033   1.568   4.559 -0.6422 -0.0189  0.2419
 2652SOL    MW410663   4.020   1.650   4.533  0.1082  0.0234 -0.0148
 2653SOL     OW10664   1.252   0.183   4.596  0.5998  0.3376  0.5336
 2653SOL    HW210665   1.281   0.106   4.547 -2.4545 -0.4762 -0.1149
 2653SOL    HW310666   1.285   0.169   4.684  2.3923 -0.3627 -0.2273
 2653SOL    MW410667   1.260   0.171   4.601  0.4334  0.1378  0.3471
 2654SOL     OW10668   0.477   1.665   4.213  0.2933  0.2059 -0.4550
 2654SOL    HW210669   0.418   1.602   4.173  0.1726  0.3669 -0.5316
 2654SOL    HW310670   0.559   1.656   4.164 -0.4113  1.6920 -1.9572
 2654SOL    MW410671   0.480   1.656   4.202  0.1844  0.4232 -0.6633
 2655SOL     OW10672   0.507   2.366   4.483  0.4342 -0.1605  0.2437
 2655SOL    HW210673   0.547   2.279   4.492  0.0125 -0.4071 -0.2169
 2655SOL    HW310674   0.511   2.384   4.389  0.7032  0.4096  0.3612
 2655SOL    MW410675   0.513   2.357   4.472  0.4141 -0.1180  0.1979
 2656SOL     OW10676   3.756   1.091   4.670  0.4007 -0.1131 -0.1336
 2656SOL    HW210677   3.684   1.039   4.636 -0.1549  0.4906  0.1200
 2656SOL    HW310678   3.735   1.181   4.646  0.0825  0.3018  1.6607
 2656SOL    MW410679   3.744   1.096   4.662  0.2851  0.0213  0.1364
 2657SOL     OW10680   2.012   3.380   4.536 -0.0849 -0.1953  0.7250
 2657SOL    HW210681   2.029   3.474   4.535 -0.1752 -0.1597  2.4024
 2657SOL    HW310682   2.091   3.342   4.496 -0.2893  0.6105 -0.4835
 2657SOL    MW410683   2.025   3.387   4.530 -0.1235 -0.0846  0.7863
 2658SOL     OW10684   0.118   1.075   4.537  0.0598  0.1965 -0.0558
 2658SOL    HW210685   0.165   1.147   4.577 -0.6520  0.2678  0.6882
 2658SOL    HW310686   0.082   1.111   4.456  0.7870  0.3012 -0.3369
 2658SOL    MW410687   0.119   1.089   4.532  0.0619  0.2198  0.0052
 2659SOL     OW10688   3.813   1.512   4.139 -0.3512  0.1006  0.2643
 2659SOL    HW210689   3.877   1.568   4.183  0.1607  0.3181 -0.7378
 2659SOL    HW310690   3.728   1.552   4.158 -0.0078  1.0575 -0.2124
 2659SOL    MW410691   3.810   1.525   4.147 -0.2384  0.2557  0.0691
 2660SOL     OW10692   4.404   2.734   4.531  0.3531 -0.3234 -0.3555
 2660SOL    HW210693   4.468   2.804   4.535  1.0058 -0.9599  0.5509
 2660SOL    HW310694   4.455   2.654   4.543 -0.5355 -0.8722 -0.1745
 2660SOL    MW410695   4.419   2.733   4.533  0.3223 -0.4799 -0.2122
 2661SOL     OW10696   3.884   0.008   4.552 -0.3724  0.5739  0.3919
 2661SOL    HW210697   3.875  -0.086   4.571 -0.1692  0.5104  0.1722
 2661SOL    HW310698   3.977   0.019   4.533  0.0876  1.2532  2.8353
 2661SOL    MW410699   3.895  -0.003   4.552 -0.2854  0.6551  0.6852
 2662SOL     OW10700   2.982   3.897   4.765 -0.2311  0.3398  0.0741
 2662SOL    HW210701   3.055   3.856   4.719  0.6526  2.5888 -0.5833
 2662SOL    HW310702   2.971   3.982   4.722 -1.9062  0.8812  1.5076
 2662SOL    MW410703   2.990   3.903   4.753 -0.3355  0.7081  0.1760
 2663SOL     OW10704   3.700   0.224   4.566 -0.1135  0.0035  0.4029
 2663SOL    HW210705   3.754   0.300   4.544  0.5978 -0.4909  0.4192
 2663SOL    HW310706   3.761   0.150   4.568 -0.6144 -0.4001  1.4297
 2663SOL    MW410707   3.715   0.224   4.563 -0.0858 -0.1149  0.5403
 2664SOL     OW10708   2.352   0.601   4.585 -0.0036  0.6215  0.7729
 2664SOL    HW210709   2.342   0.621   4.678 -1.3066 -2.5037  1.3705
 2664SOL    HW310710   2.440   0.564   4.579  0.0738  0.8070  0.7429
 2664SOL    MW410711   2.362   0.599   4.597 -0.1655  0.2337  0.8478
 2665SOL     OW10712   0.851   4.638   4.471 -0.3494  0.4569  0.4719
 2665SOL    HW210713   0.881   4.720   4.510 -0.7733  0.2934  1.1542
 2665SOL    HW310714   0.927   4.579   4.477 -0.8575 -0.0523  2.4758
 2665SOL    MW410715   0.865   4.641   4.477 -0.4722  0.3681  0.8259
 2666SOL     OW10716   4.089   4.056   4.460 -0.4409 -0.0532 -0.4191
 2666SOL    HW210717   4.158   4.117   4.487 -0.3508  0.4447 -1.7370
 2666SOL    HW310718   4.109   3.975   4.507  0.1929  0.5343  0.3427
 2666SOL    MW410719   4.101   4.053   4.470 -0.3452  0.0901 -0.4921
 2667SOL     OW10720   0.514   0.847   4.654 -0.0737 -0.3508  0.0643
 2667SOL    HW210721   0.515   0.942   4.643 -0.4980 -0.3756 -0.2209
 2667SOL    HW310722   0.421   0.825   4.665  0.1721 -0.5435  1.8671
 2667SOL    MW410723   0.502   0.856   4.654 -0.0972 -0.3795  0.2642
 2668SOL     OW10724   3.617   4.003   4.248  0.2688  0.4612  0.1484
 2668SOL    HW210725   3.613   4.000   4.344 -0.2915 -0.8317  0.1073
 2668SOL    HW310726   3.546   3.945   4.220  0.7372  0.4482 -1.0387
 2668SOL    MW410727   3.607   3.995   4.257  0.2565  0.2892 -0.0138
 2669SOL     OW10728   2.468   4.643   4.118 -0.3816  0.5585  0.2279
 2669SOL    HW210729   2.474   4.554   4.151 -1.4473  0.7854  1.0378
 2669SOL    HW310730   2.548   4.686   4.149  0.0335 -0.0445  0.0062
 2669SOL    MW410731   2.480   4.637   4.126 -0.4678  0.5093  0.3052
 2670SOL     OW10732   3.392   0.591   4.502  0.2312 -0.3740 -0.0136
 2670SOL    HW210733   3.428   0.595   4.413  0.5553 -0.6190  0.1036
 2670SOL    HW310734   3.470   0.593   4.558  0.0340 -0.4120  0.2585
 2670SOL    MW410735   3.407   0.592   4.498  0.2480 -0.4114  0.0381
 2671SOL     OW10736   1.463   2.845   4.533  0.1749  0.1944  0.2748
 2671SOL    HW210737   1.499   2.774   4.586 -1.4421 -0.3485  0.7006
 2671SOL    HW310738   1.414   2.899   4.596 -0.6023  0.3209 -0.4285
 2671SOL    MW410739   1.461   2.842   4.549 -0.1410  0.1395  0.2379
 2672SOL     OW10740   0.781   2.546   4.606 -0.1131 -0.4798  0.2049
 2672SOL    HW210741   0.759   2.626   4.653 -0.1265 -0.5596  0.3312
 2672SOL    HW310742   0.699   2.499   4.596 -0.0055 -0.7567  0.6407
 2672SOL    MW410743   0.768   2.551   4.611 -0.1007 -0.5269  0.2785
 2673SOL     OW10744   1.219   0.788   4.648  0.2207 -0.6431  0.1570
 2673SOL    HW210745   1.290   0.844   4.616  1.2968 -1.9558  0.1833
 2673SOL    HW310746   1.241   0.770   4.739 -1.0528  0.3321  0.6577
 2673SOL    MW410747   1.232   0.793   4.655  0.1947 -0.6877  0.2265
 2674SOL     OW10748   4.294   0.475   4.560  0.5335  0.0943  0.0125
 2674SOL    HW210749   4.302   0.487   4.465 -0.2160  0.4658 -0.0129
 2674SOL    HW310750   4.322   0.385   4.575  0.0495 -0.1765 -0.6459
 2674SOL    MW410751   4.299   0.465   4.549  0.3710  0.1076 -0.0777
 2675SOL     OW10752   2.086   0.490   4.555 -0.0178 -0.3522 -0.2844
 2675SOL    HW210753   2.180   0.506   4.560  0.0397 -0.9539  0.5663
 2675SOL    HW310754   2.077   0.395   4.552 -0.6272 -0.3184  0.2772
 2675SOL    MW410755   2.097   0.480   4.555 -0.0906 -0.4271 -0.0978
 2676SOL     OW10756   1.841   2.423   4.956 -0.1025  0.0060  0.2771
 2676SOL    HW210757   1.866   2.481   5.028 -0.9683  0.9822 -0.1972
 2676SOL    HW310758   1.917   2.366   4.943  0.8179  1.1276  0.6630
 2676SOL    MW410759   1.854   2.423   4.963 -0.0952  0.2828  0.2651
 2677SOL     OW10760   0.672   3.841   4.633 -0.3905  0.3414 -0.0795
 2677SOL    HW210761   0.726   3.916   4.609 -1.5166  1.5083  0.9357
 2677SOL    HW310762   0.582   3.872   4.622 -0.8705 -0.7707  0.5944
 2677SOL    MW410763   0.667   3.855   4.628 -0.6024  0.3488  0.1431
 2678SOL     OW10764   1.470   2.341   4.740  0.2303 -0.2925 -0.3668
 2678SOL    HW210765   1.443   2.381   4.822  0.7845  1.3209 -0.9469
 2678SOL    HW310766   1.388   2.323   4.694 -0.0826 -1.2783  0.5647
 2678SOL    MW410767   1.455   2.344   4.744  0.2623 -0.2100 -0.3204
 2679SOL     OW10768   4.299   2.773   4.268  0.2651  0.0240 -0.4046
 2679SOL    HW210769   4.320   2.761   4.361  2.1398  1.4055 -0.6111
 2679SOL    HW310770   4.373   2.736   4.221 -1.9244 -3.1359 -1.4753
 2679SOL    MW410771   4.312   2.767   4.274  0.2241 -0.2105 -0.5732
 2680SOL     OW10772   4.282   4.194   4.616  0.0420 -0.2126  0.2379
 2680SOL    HW210773   4.214   4.188   4.683 -0.9326  1.5474 -0.5384
 2680SOL    HW310774   4.352   4.137   4.647 -0.8694 -0.3259  2.1651
 2680SOL    MW410775   4.282   4.186   4.629 -0.2069  0.0048  0.3896
 2681SOL     OW10776   0.020   2.427   4.575  0.4440  0.3303  0.0313
 2681SOL    HW210777  -0.046   2.370   4.613  0.5096  1.1096  1.3160
 2681SOL    HW310778   0.017   2.407   4.481 -1.0992 -0.1613  0.1700
 2681SOL    MW410779   0.011   2.417   4.567  0.2490  0.3681  0.2184
 2682SOL     OW10780   0.452   3.974   4.304  0.3246 -0.0074 -0.4280
 2682SOL    HW210781   0.393   3.940   4.237 -0.7168  1.6472 -0.3821
 2682SOL    HW310782   0.441   4.069   4.299  2.0183  0.2476  0.4720
 2682SOL    MW410783   0.443   3.982   4.295  0.4106  0.2444 -0.3037
 2683SOL     OW10784   0.038   3.991   4.240  0.1962  0.0412 -0.2114
 2683SOL    HW210785  -0.027   3.946   4.186  0.6662 -0.2313 -0.5576
 2683SOL    HW310786   0.023   4.084   4.223  0.1342 -0.0331 -0.5694
 2683SOL    MW410787   0.028   3.998   4.231  0.2500 -0.0048 -0.3047
 2684SOL     OW10788   1.023   2.519   4.473  0.2601 -0.1819 -0.0154
 2684SOL    HW210789   1.007   2.499   4.381  1.0757 -0.1434 -0.1702
 2684SOL    HW310790   0.935   2.532   4.510  0.0191  3.6897 -1.6560
 2684SOL    MW410791   1.009   2.518   4.466  0.3361  0.3340 -0.2513
 2685SOL     OW10792   3.868   0.705   4.799 -0.4307 -0.3643  0.0608
 2685SOL    HW210793   3.937   0.655   4.755 -0.2634 -0.6171  0.6124
 2685SOL    HW310794   3.908   0.791   4.816  0.1259 -0.8841  1.3972
 2685SOL    MW410795   3.882   0.710   4.796 -0.3352 -0.4663  0.3099
 2686SOL     OW10796   1.547   3.695   4.545  0.1312  0.1582  0.5873
 2686SOL    HW210797   1.607   3.747   4.598  0.0895  0.5569  0.2485
 2686SOL    HW310798   1.544   3.610   4.588 -1.4075  1.0654  2.3424
 2686SOL    MW410799   1.554   3.690   4.558 -0.0772  0.3307  0.7739
 2687SOL     OW10800   1.964   3.268   4.805 -0.2647 -0.4587  0.2142
 2687SOL    HW210801   2.007   3.182   4.805 -0.7160 -0.6812  0.9324
 2687SOL    HW310802   1.969   3.296   4.713  0.9795 -0.6973  0.1910
 2687SOL    MW410803   1.971   3.260   4.793 -0.1600 -0.5195  0.3057
 2688SOL     OW10804   4.208   4.448   4.518  0.1408 -0.5435  0.3010
 2688SOL    HW210805   4.259   4.377   4.556  0.4364 -0.1024  0.7332
 2688SOL    HW310806   4.117   4.417   4.522  0.3007 -1.0208  0.2122
 2688SOL    MW410807   4.203   4.434   4.524  0.2007 -0.5484  0.3457
 2689SOL     OW10808   1.096   3.331   4.565 -0.1619  0.4102  0.2586
 2689SOL    HW210809   1.014   3.299   4.525 -0.1384  1.0492 -0.3027
 2689SOL    HW310810   1.102   3.422   4.537  2.1487 -0.3894 -1.9818
 2689SOL    MW410811   1.086   3.338   4.556  0.1460  0.3893 -0.1106
 2690SOL     OW10812   4.484   0.682   4.641 -0.1527 -0.1679 -0.1752
 2690SOL    HW210813   4.428   0.606   4.624 -0.8174 -0.1890  1.9337
 2690SOL    HW310814   4.423   0.756   4.641  0.0119 -0.0192  0.6962
 2690SOL    MW410815   4.468   0.682   4.639 -0.2189 -0.1510  0.2179
 2691SOL     OW10816   0.258   1.542   4.538  0.2901  0.1888  0.4079
 2691SOL    HW210817   0.351   1.554   4.521  0.5922 -2.1643  0.1809
 2691SOL    HW310818   0.217   1.541   4.452  0.2001  0.2522  0.4503
 2691SOL    MW410819   0.265   1.543   4.525  0.3181 -0.1134  0.3839
 2692SOL     OW10820   3.718   3.212   4.515 -0.2443 -0.4510 -0.7803
 2692SOL    HW210821   3.683   3.249   4.434 -0.8791  0.0592 -0.2707
 2692SOL    HW310822   3.787   3.272   4.541  2.2952 -2.3841 -2.7428
 2692SOL    MW410823   3.723   3.225   4.507  0.0072 -0.6390 -0.9723
 2693SOL     OW10824   2.514   1.006   4.555 -0.6083 -0.2277  0.7280
 2693SOL    HW210825   2.592   1.004   4.611  0.8787  0.9304 -1.2587
 2693SOL    HW310826   2.498   1.100   4.540 -1.4242 -0.5136 -0.2038
 2693SOL    MW410827   2.522   1.018   4.560 -0.5195 -0.1127  0.3428
 2694SOL     OW10828   2.642   1.893   4.854  0.0094  0.2034 -0.0091
 2694SOL    HW210829   2.663   1.835   4.781  0.0546  0.4125 -0.1630
 2694SOL    HW310830   2.548   1.881   4.867 -0.4111  1.7086 -1.4618
 2694SOL    MW410831   2.632   1.884   4.846 -0.0403  0.4297 -0.2208
 2695SOL     OW10832   1.543   4.426   4.219 -0.0033 -0.0944  0.6032
 2695SOL    HW210833   1.528   4.512   4.180  0.8517  0.3985  1.3289
 2695SOL    HW310834   1.632   4.403   4.191 -0.4067 -0.9684  0.0116
 2695SOL    MW410835   1.553   4.434   4.210  0.0564 -0.1445  0.6213
 2696SOL     OW10836   3.201   1.129   4.464 -0.2214  0.0939 -0.5691
 2696SOL    HW210837   3.110   1.146   4.491  0.0503 -0.4481  0.7297
 2696SOL    HW310838   3.217   1.039   4.490  0.7473  0.2436 -0.6452
 2696SOL    MW410839   3.191   1.120   4.471 -0.0575  0.0421 -0.4077
 2697SOL     OW10840   1.647   1.353   4.700 -0.0860  0.0090 -0.1899
 2697SOL    HW210841   1.646   1.258   4.687  0.2843  0.2385 -2.0496
 2697SOL    HW310842   1.557   1.380   4.685 -0.3557 -0.1430  1.1381
 2697SOL    MW410843   1.635   1.344   4.696 -0.0727  0.0193 -0.2604
 2698SOL     OW10844   0.771   1.461   4.525  0.0151 -0.1851  0.5309
 2698SOL    HW210845   0.775   1.423   4.437 -0.0074  0.8376  0.0796
 2698SOL    HW310846   0.753   1.387   4.583 -1.9917 -0.5530 -0.5496
 2698SOL    MW410847   0.769   1.446   4.521 -0.2526 -0.0987  0.3290
 2699SOL     OW10848   1.239   1.709   4.515 -0.0542  0.0655 -0.1068
 2699SOL    HW210849   1.288   1.774   4.566  1.4413 -0.1937 -1.1689
 2699SOL    HW310850   1.250   1.736   4.424 -1.3353 -0.3974 -0.4131
 2699SOL    MW410851   1.247   1.721   4.510 -0.0259 -0.0298 -0.2871
 2700SOL     OW10852   4.120   0.873   4.506 -0.1070  0.2472  0.6331
 2700SOL    HW210853   4.210   0.892   4.531 -0.2371  0.9896  0.5406
 2700SOL    HW310854   4.115   0.898   4.414 -0.1635 -0.6418  0.3868
 2700SOL    MW410855   4.131   0.879   4.497 -0.1316  0.2279  0.5879
 2701SOL     OW10856   4.003   2.949   4.650  0.2995 -0.0218  0.1454
 2701SOL    HW210857   3.941   2.925   4.581  0.6414 -1.2026  0.2508
 2701SOL    HW310858   3.953   2.940   4.731 -0.0782  1.2901  0.0812
 2701SOL    MW410859   3.988   2.945   4.651  0.2947 -0.0045  0.1502
 2702SOL     OW10860   3.164   3.754   4.582  0.0751  0.1855  0.2341
 2702SOL    HW210861   3.092   3.693   4.565 -0.2182  0.6979 -0.3721
 2702SOL    HW310862   3.241   3.698   4.593 -0.1586 -0.2860 -0.4998
 2702SOL    MW410863   3.165   3.738   4.581  0.0055  0.1907  0.0572
 2703SOL     OW10864   2.933   3.617   4.502 -0.0598 -0.5426 -0.5655
 2703SOL    HW210865   2.923   3.530   4.540  2.2857 -0.0292  1.2625
 2703SOL    HW310866   2.853   3.663   4.527  0.6402 -0.7839  2.2677
 2703SOL    MW410867   2.921   3.611   4.510  0.3421 -0.5066  0.0496
 2704SOL     OW10868   0.239   3.649   4.477  0.1311  0.0321 -0.0408
 2704SOL    HW210869   0.211   3.572   4.526  0.5322  0.5435  1.0021
 2704SOL    HW310870   0.229   3.624   4.385  2.3335 -2.0292  0.2621
 2704SOL    MW410871   0.234   3.636   4.471  0.4746 -0.1726  0.1364
 2705SOL     OW10872   0.958   0.847   4.538  0.3068 -0.1544  0.0460
 2705SOL    HW210873   1.045   0.825   4.569  0.8441  0.9911 -0.6225
 2705SOL    HW310874   0.967   0.853   4.443 -0.5070 -0.1108 -0.0335
 2705SOL    MW410875   0.970   0.845   4.529  0.2704  0.0025 -0.0529
 2706SOL     OW10876   0.958   0.199   4.570  0.0352  0.2403 -0.4873
 2706SOL    HW210877   0.925   0.288   4.581 -0.8388 -0.1087 -0.1924
 2706SOL    HW310878   1.051   0.205   4.591 -0.3663  0.7576  1.2377
 2706SOL    MW410879   0.966   0.212   4.574 -0.1332  0.2625 -0.2203
 2707SOL     OW10880   0.403   3.895   4.569 -0.2164 -0.0335  0.1432
 2707SOL    HW210881   0.431   3.923   4.482 -0.7558  0.9989  0.2971
 2707SOL    HW310882   0.365   3.809   4.555 -0.7547  0.3437 -0.7279
 2707SOL    MW410883   0.402   3.887   4.556 -0.3586  0.1523  0.0482
 2708SOL     OW10884   3.266   3.136   4.547 -0.6645  0.0873 -0.2217
 2708SOL    HW210885   3.177   3.115   4.577 -0.8359 -0.2797 -0.9585
 2708SOL    HW310886   3.254   3.159   4.454  0.0317 -0.1201 -0.3623
 2708SOL    MW410887   3.253   3.136   4.539 -0.5953  0.0117 -0.3376
 2709SOL     OW10888   3.902   3.377   4.603  0.4230  0.1075  0.5009
 2709SOL    HW210889   3.930   3.464   4.574 -0.1224  0.4414  0.9703
 2709SOL    HW310890   3.983   3.326   4.606  0.6146  0.3301 -0.7080
 2709SOL    MW410891   3.917   3.382   4.599  0.3762  0.1807  0.4034
 2710SOL     OW10892   1.704   2.973   4.564 -0.3215 -0.1302  0.3304
 2710SOL    HW210893   1.720   3.000   4.474 -0.0872  0.5348  0.5627
 2710SOL    HW310894   1.613   2.945   4.566 -0.0079 -1.2002 -0.3653
 2710SOL    MW410895   1.694   2.973   4.553 -0.2493 -0.1836  0.2699
 2711SOL     OW10896   0.295   0.655   4.329 -0.1767 -0.4022 -0.5229
 2711SOL    HW210897   0.258   0.567   4.334  0.3119 -0.5755  0.1277
 2711SOL    HW310898   0.274   0.695   4.414  1.4491 -0.6387  0.0081
 2711SOL    MW410899   0.287   0.649   4.341  0.1023 -0.4563 -0.3676
 2712SOL     OW10900   1.063   4.176   4.587 -0.1870 -0.4619  0.2978
 2712SOL    HW210901   0.972   4.148   4.578 -0.3227 -0.1898  0.7930
 2712SOL    HW310902   1.061   4.271   4.579  0.1383 -0.5015 -0.3090
 2712SOL    MW410903   1.051   4.185   4.585 -0.1619 -0.4311  0.2832
 2713SOL     OW10904   1.075   3.621   4.528 -0.3292  0.0244 -0.2540
 2713SOL    HW210905   1.104   3.617   4.437  1.4896 -1.9743  0.3805
 2713SOL    HW310906   0.980   3.610   4.523 -0.2406 -0.0808 -1.9230
 2713SOL    MW410907   1.066   3.619   4.515 -0.0776 -0.2532 -0.3905
 2714SOL     OW10908   2.819   3.162   5.103  0.2817 -0.2308  0.1085
 2714SOL    HW210909   2.851   3.104   5.033  1.0315  0.5843 -0.2291
 2714SOL    HW310910   2.898   3.189   5.150 -0.2618 -1.1837  1.6121
 2714SOL    MW410911   2.834   3.158   5.100  0.3088 -0.2491  0.2623
 2715SOL     OW10912   0.771   0.720   4.690  0.2915  0.0588  0.6915
 2715SOL    HW210913   0.817   0.758   4.615 -0.4991 -1.7694 -0.7688
 2715SOL    HW310914   0.681   0.754   4.682 -0.1861 -1.3477 -0.0977
 2715SOL    MW410915   0.765   0.729   4.679  0.1242 -0.3680  0.3948
 2716SOL     OW10916   4.405   0.204   4.632 -0.2201 -0.2033  0.0848
 2716SOL    HW210917   4.326   0.166   4.594 -0.2834  0.0118 -0.0033
 2716SOL    HW310918   4.400   0.183   4.725 -0.5000  0.0084  0.1187
 2716SOL    MW410919   4.394   0.196   4.640 -0.2646 -0.1470  0.0777
 2717SOL     OW10920   0.125   1.496   4.307 -0.1750  0.0591  0.0803
 2717SOL    HW210921   0.043   1.545   4.303 -0.4680 -0.5230 -1.8855
 2717SOL    HW310922   0.099   1.405   4.319  0.2895  0.1203  1.6795
 2717SOL    MW410923   0.111   1.491   4.308 -0.1524 -0.0097  0.0319
 2718SOL     OW10924   2.811   3.718   4.886  0.2193 -0.0961 -0.2258
 2718SOL    HW210925   2.872   3.772   4.836 -0.3084  1.3069  0.5901
 2718SOL    HW310926   2.864   3.646   4.920  1.1332  0.4008 -0.5812
 2718SOL    MW410927   2.826   3.716   4.884  0.2704  0.1545 -0.1650
 2719SOL     OW10928   1.632   0.535   4.231 -0.0632  0.1789 -0.0232
 2719SOL    HW210929   1.610   0.624   4.207 -1.3581 -0.2494 -0.4501
 2719SOL    HW310930   1.620   0.532   4.326 -1.5751  0.0223 -0.2221
 2719SOL    MW410931   1.628   0.546   4.241 -0.4334  0.1017 -0.1059
 2720SOL     OW10932   1.935   1.781   4.792  0.1339  0.1979 -0.2752
 2720SOL    HW210933   1.914   1.688   4.782  3.0163 -0.6995  1.4784
 2720SOL    HW310934   1.970   1.807   4.707 -1.7822  0.0360 -1.1487
 2720SOL    MW410935   1.937   1.772   4.779  0.2613  0.0582 -0.1593
 2721SOL     OW10936   0.829   3.230   4.495 -0.2645  0.4935 -0.2079
 2721SOL    HW210937   0.801   3.140   4.513  0.4232  0.2383 -0.3675
 2721SOL    HW310938   0.783   3.283   4.559 -0.5959  0.0116 -0.0392
 2721SOL    MW410939   0.819   3.225   4.506 -0.2174  0.3963 -0.2065
 2722SOL     OW10940   2.252   0.035   4.476  0.5517 -0.6226  0.2006
 2722SOL    HW210941   2.207  -0.049   4.488  0.2604 -0.7255 -1.3992
 2722SOL    HW310942   2.254   0.047   4.381 -2.3848  2.8225  0.4623
 2722SOL    MW410943   2.246   0.025   4.465  0.1259 -0.1816  0.0238
 2723SOL     OW10944   2.513   1.300   4.240  0.5268  0.3204  0.1927
 2723SOL    HW210945   2.586   1.244   4.216 -1.0010 -1.2187 -0.9350
 2723SOL    HW310946   2.530   1.383   4.195  1.5985 -0.0090 -0.0039
 2723SOL    MW410947   2.525   1.304   4.231  0.4666  0.0739  0.0176
 2724SOL     OW10948   1.372   1.937   4.635  0.2749  0.3150  0.2609
 2724SOL    HW210949   1.403   1.961   4.722 -0.1408  2.0894 -0.0617
 2724SOL    HW310950   1.440   1.970   4.576  0.0371  0.0744 -0.1438
 2724SOL    MW410951   1.385   1.945   4.639  0.1887  0.5172  0.1645
 2725SOL     OW10952   1.914   2.838   4.727 -0.1471  0.5222  0.1670
 2725SOL    HW210953   1.861   2.893   4.670  1.4975  1.5319 -0.4238
 2725SOL    HW310954   1.972   2.899   4.773  1.5681 -0.6613 -0.3617
 2725SOL    MW410955   1.915   2.853   4.726  0.2962  0.4992  0.0196
 2726SOL     OW10956   1.760   3.344   4.427 -0.4450 -0.5454 -0.0395
 2726SOL    HW210957   1.846   3.347   4.468 -0.1636 -2.0120 -0.5072
 2726SOL    HW310958   1.765   3.408   4.355  0.6001 -1.3622 -0.7120
 2726SOL    MW410959   1.772   3.353   4.423 -0.2700 -0.8466 -0.1903
 2727SOL     OW10960   0.992   2.905   4.637 -0.2076  0.5216  0.2914
 2727SOL    HW210961   1.037   2.978   4.678  0.4283  0.7698 -0.8417
 2727SOL    HW310962   1.061   2.854   4.595 -0.9011  0.5155 -0.8505
 2727SOL    MW410963   1.007   2.908   4.637 -0.2152  0.5536 -0.0086
 2728SOL     OW10964   1.663   3.185   4.762 -0.0813 -0.1739  0.1131
 2728SOL    HW210965   1.748   3.211   4.796  0.5425 -2.1254  0.1485
 2728SOL    HW310966   1.682   3.108   4.707 -1.6254  0.2603 -1.0611
 2728SOL    MW410967   1.676   3.178   4.759 -0.2028 -0.3741 -0.0372
 2729SOL     OW10968   1.008   1.095   4.675  0.3588  0.0852 -0.4276
 2729SOL    HW210969   0.988   1.011   4.634  2.3930 -0.4012 -0.4923
 2729SOL    HW310970   0.999   1.079   4.769 -1.7438  0.5024 -0.5319
 2729SOL    MW410971   1.004   1.082   4.682  0.3498  0.0759 -0.4501
 2730SOL     OW10972   2.455   3.381   4.596 -0.3816  0.2349 -0.1014
 2730SOL    HW210973   2.393   3.341   4.535  0.2226  0.7707 -1.0988
 2730SOL    HW310974   2.539   3.339   4.576  0.0183  1.1119 -0.3248
 2730SOL    MW410975   2.458   3.370   4.585 -0.2494  0.4213 -0.2623
 2731SOL     OW10976   2.748   3.390   4.919 -0.1569 -0.1714  0.7725
 2731SOL    HW210977   2.777   3.324   4.981 -2.6195 -2.6626 -0.6049
 2731SOL    HW310978   2.652   3.386   4.922 -0.3416  0.9147 -1.8247
 2731SOL    MW410979   2.739   3.381   4.928 -0.5062 -0.3567  0.2484
 2732SOL     OW10980   1.374   0.986   4.510 -0.0843  0.1881  0.1548
 2732SOL    HW210981   1.467   0.988   4.531 -0.3364  0.9614  1.2071
 2732SOL    HW310982   1.371   0.965   4.416  1.0961 -1.1829  0.4019
 2732SOL    MW410983   1.386   0.983   4.500  0.0384  0.1092  0.3266
 2733SOL     OW10984   1.325   4.093   4.534 -0.4094  0.2226 -0.5246
 2733SOL    HW210985   1.323   4.000   4.559  0.8317  0.1875 -0.5351
 2733SOL    HW310986   1.235   4.123   4.550 -0.1565 -0.2943  2.0851
 2733SOL    MW410987   1.313   4.084   4.540 -0.2123  0.1497 -0.1807
 2734SOL     OW10988   1.251   2.337   4.560  0.3888 -0.0872  0.4687
 2734SOL    HW210989   1.290   2.359   4.475  0.9111 -1.2073  0.4058
 2734SOL    HW310990   1.177   2.398   4.569  1.4949  1.3372  0.0969
 2734SOL    MW410991   1.246   2.348   4.550  0.6036 -0.0470  0.4120
 2735SOL     OW10992   2.296   3.102   5.035 -0.0016 -0.1578  0.2854
 2735SOL    HW210993   2.389   3.083   5.022  0.0396  0.9432 -1.1906
 2735SOL    HW310994   2.294   3.190   5.072 -0.4298 -0.5543  1.2263
 2735SOL    MW410995   2.308   3.111   5.038 -0.0525 -0.0651  0.2151
 2736SOL     OW10996   1.580   3.416   4.623 -0.3049 -0.5833  0.0703
 2736SOL    HW210997   1.649   3.408   4.557  1.0921  0.9985  1.3023
 2736SOL    HW310998   1.593   3.340   4.680  0.9855  0.1655  0.7964
 2736SOL    MW410999   1.591   3.405   4.622  0.0497 -0.2759  0.3281
 2737SOL     OW11000   0.384   4.288   4.693 -0.0409 -0.4748  0.9444
 2737SOL    HW211001   0.473   4.262   4.669  0.4536  0.7586  1.3961
 2737SOL    HW311002   0.343   4.207   4.725  0.3822 -1.3987 -0.7738
 2737SOL    MW411003   0.390   4.274   4.694  0.0802 -0.4339  0.7772
 2738SOL     OW11004   1.311   3.821   4.577  0.2754  0.2533 -0.1701
 2738SOL    HW211005   1.246   3.753   4.594  0.2671  0.1051 -0.8072
 2738SOL    HW311006   1.393   3.773   4.565  0.5187  0.4463  0.7121
 2738SOL    MW411007   1.313   3.806   4.578  0.3065  0.2592 -0.1378
 2739SOL     OW11008   1.403   1.439   4.559  0.3388 -0.3070 -0.0395
 2739SOL    HW211009   1.338   1.370   4.549  1.7040 -1.7581  0.7273
 2739SOL    HW311010   1.353   1.520   4.563 -1.3615 -1.3434 -0.0668
 2739SOL    MW411011   1.388   1.440   4.559  0.2946 -0.6350  0.0577
 2740SOL     OW11012   1.630   1.098   4.575 -0.0651  0.1916 -0.0692
 2740SOL    HW211013   1.695   1.029   4.562 -0.3826 -0.1099 -0.0693
 2740SOL    HW311014   1.641   1.155   4.499 -0.3266 -0.2822 -0.4699
 2740SOL    MW411015   1.640   1.096   4.563 -0.1414  0.0894 -0.1221
 2741SOL     OW11016   2.252   3.254   4.444 -0.3009 -0.0538  0.1867
 2741SOL    HW211017   2.279   3.247   4.353 -0.1598  1.0104  0.1482
 2741SOL    HW311018   2.258   3.164   4.477  0.6274 -0.2800 -0.5700
 2741SOL    MW411019   2.257   3.241   4.437 -0.1597  0.0565  0.0825
 2742SOL     OW11020   0.669   3.393   4.670 -0.0178  0.0968 -0.1617
 2742SOL    HW211021   0.603   3.327   4.650  0.6766 -0.8308  0.5118
 2742SOL    HW311022   0.651   3.419   4.760 -0.6166  1.2228 -0.6071
 2742SOL    MW411023   0.658   3.388   4.679 -0.0052  0.1228 -0.1307
 2743SOL     OW11024   2.036   0.532   4.246 -0.2955 -0.1044 -0.0421
 2743SOL    HW211025   2.125   0.508   4.219 -0.0496  0.8975 -0.1495
 2743SOL    HW311026   2.040   0.535   4.341 -0.4327 -0.8743 -0.0098
 2743SOL    MW411027   2.048   0.529   4.255 -0.2813 -0.0739 -0.0525
 2744SOL     OW11028   2.258   0.133   4.218 -0.0697  0.3887  0.5555
 2744SOL    HW211029   2.325   0.083   4.172 -0.0839  0.8424  0.0340
 2744SOL    HW311030   2.178   0.120   4.167  0.2341  2.0719 -0.4033
 2744SOL    MW411031   2.256   0.125   4.206 -0.0315  0.6706  0.3600
 2745SOL     OW11032   2.036   0.207   4.545  0.1804  0.0935 -0.2091
 2745SOL    HW211033   2.097   0.142   4.510 -0.5762 -0.3449 -0.7434
 2745SOL    HW311034   2.046   0.200   4.640  0.9631  0.0300 -0.2897
 2745SOL    MW411035   2.045   0.197   4.553  0.1838  0.0272 -0.2899
 2746SOL     OW11036   1.859   0.654   4.558  0.3960 -0.5605  0.5914
 2746SOL    HW211037   1.781   0.599   4.556 -0.0579  0.0975 -0.6998
 2746SOL    HW311038   1.932   0.593   4.569 -0.1046 -1.4145 -0.7479
 2746SOL    MW411039   1.858   0.639   4.559  0.2702 -0.5864  0.2437
 2747SOL     OW11040   2.280   0.873   4.529 -0.0653  0.0046  0.1184
 2747SOL    HW211041   2.365   0.915   4.545  0.7316 -0.5396 -2.4200
 2747SOL    HW311042   2.300   0.780   4.523 -0.5945 -0.0114 -1.7728
 2747SOL    MW411043   2.294   0.867   4.530 -0.0300 -0.0693 -0.4663
 2748SOL     OW11044   1.710   2.203   4.686  0.2008  0.6609 -0.0430
 2748SOL    HW211045   1.688   2.127   4.631  2.0882  0.6539 -0.8326
 2748SOL    HW311046   1.626   2.237   4.715 -0.7452 -0.5624 -1.3010
 2748SOL    MW411047   1.696   2.197   4.683  0.3251  0.4985 -0.3133
 2749SOL     OW11048   2.946   1.310   4.222 -0.5073  0.4668  0.3907
 2749SOL    HW211049   3.024   1.267   4.187 -0.3901  1.0335 -0.0472
 2749SOL    HW311050   2.873   1.269   4.175 -0.3850  0.8592 -0.1413
 2749SOL    MW411051   2.947   1.299   4.212 -0.4756  0.5933  0.2618
 2750SOL     OW11052   1.873   2.376   4.537 -0.4157  0.1255 -0.3261
 2750SOL    HW211053   1.827   2.299   4.572  0.0833  0.2410  0.6142
 2750SOL    HW311054   1.861   2.443   4.605  0.9777  0.2116 -0.1558
 2750SOL    MW411055   1.865   2.375   4.551 -0.1659  0.1521 -0.1798
 2751SOL     OW11056   0.860   1.975   4.544 -0.2401  0.1248 -0.3590
 2751SOL    HW211057   0.881   1.882   4.530  1.5561  0.6206 -1.1989
 2751SOL    HW311058   0.946   2.017   4.555 -1.0678  1.5950  0.6126
 2751SOL    MW411059   0.874   1.968   4.544 -0.1124  0.3840 -0.3419
 2752SOL     OW11060   2.126   2.783   4.515 -0.0050  0.5266 -0.5098
 2752SOL    HW211061   2.042   2.783   4.562  0.6401  0.4199  0.6725
 2752SOL    HW311062   2.145   2.690   4.502 -0.6268  0.5685 -1.8277
 2752SOL    MW411063   2.117   2.770   4.520 -0.0019  0.5181 -0.5274
 2753SOL     OW11064   2.761   1.412   4.634 -0.4451 -0.2673  0.1996
 2753SOL    HW211065   2.826   1.361   4.586  0.2658  0.7579  0.0520
 2753SOL    HW311066   2.766   1.379   4.724  1.2113  0.6792  0.4816
 2753SOL    MW411067   2.770   1.401   4.639 -0.1328 -0.0070  0.2170
 2754SOL     OW11068   0.812   4.083   4.557  0.1284  0.3748  0.0897
 2754SOL    HW211069   0.747   4.146   4.526 -0.8931 -0.8237 -0.2524
 2754SOL    HW311070   0.834   4.031   4.479  1.1105  0.4448  0.3161
 2754SOL    MW411071   0.806   4.084   4.543  0.1232  0.2255  0.0739
 2755SOL     OW11072   2.692   3.249   4.516  0.3699  0.2070 -0.2193
 2755SOL    HW211073   2.770   3.291   4.551 -0.4373  1.4033  0.1682
 2755SOL    HW311074   2.707   3.245   4.422  1.6328 -1.1284  0.0089
 2755SOL    MW411075   2.704   3.254   4.508  0.4301  0.1886 -0.1383
 2756SOL     OW11076   2.510   3.684   4.907  0.1348 -0.0639 -0.2135
 2756SOL    HW211077   2.494   3.590   4.921 -0.2031  0.0215 -0.0289
 2756SOL    HW311078   2.603   3.695   4.923 -0.0717 -0.1338  1.0340
 2756SOL    MW411079   2.520   3.673   4.911  0.0629 -0.0620 -0.0248
 2757SOL     OW11080   2.200   4.266   4.623  0.6718 -0.6410  0.0127
 2757SOL    HW211081   2.249   4.239   4.700 -1.2344 -0.0611  1.4574
 2757SOL    HW311082   2.161   4.186   4.590  1.2103 -0.8344 -0.1626
 2757SOL    MW411083   2.202   4.252   4.629  0.4911 -0.5898  0.1802
 2758SOL     OW11084   2.700   3.757   4.600  0.0565  0.2359  0.2871
 2758SOL    HW211085   2.714   3.735   4.692  1.3512 -0.6621 -0.0934
 2758SOL    HW311086   2.617   3.714   4.578  0.0902 -0.1388  0.8551
 2758SOL    MW411087   2.691   3.748   4.609  0.2320  0.0679  0.3119
 2759SOL     OW11088   2.265   3.005   4.585  0.2044 -0.4358 -0.1052
 2759SOL    HW211089   2.233   2.928   4.538  0.3215  0.1850 -1.2260
 2759SOL    HW311090   2.359   2.991   4.593  0.0760 -0.8957  0.6106
 2759SOL    MW411091   2.273   2.993   4.580  0.2029 -0.4146 -0.1593
 2760SOL     OW11092   1.546   2.604   4.642 -0.6129 -0.0545  0.0997
 2760SOL    HW211093   1.518   2.513   4.644  0.5108 -0.4049  0.0028
 2760SOL    HW311094   1.639   2.602   4.663 -0.4860  1.0309 -0.2843
 2760SOL    MW411095   1.555   2.592   4.645 -0.4480  0.0424  0.0362
 2761SOL     OW11096   2.994   0.246   4.596 -0.3736 -0.0531 -0.2065
 2761SOL    HW211097   3.058   0.296   4.547 -0.8745  0.3353 -0.4589
 2761SOL    HW311098   3.017   0.154   4.578  0.4587  0.0701  0.1576
 2761SOL    MW411099   3.006   0.240   4.587 -0.3297  0.0143 -0.1917
 2762SOL     OW11100   2.912   3.394   4.672  0.1638  0.7465  0.8718
 2762SOL    HW211101   2.956   3.309   4.668 -0.1269  0.6110  0.5562
 2762SOL    HW311102   2.875   3.397   4.760  0.2551  0.5883  0.9170
 2762SOL    MW411103   2.913   3.383   4.683  0.1376  0.7074  0.8364
 2763SOL     OW11104   0.509   3.180   4.594  0.1853  0.0637  0.0493
 2763SOL    HW211105   0.554   3.101   4.566 -1.0385 -0.0550 -1.6363
 2763SOL    HW311106   0.427   3.149   4.632  0.4534  0.4344  0.9606
 2763SOL    MW411107   0.504   3.166   4.596  0.0592  0.0970 -0.0529
 2764SOL     OW11108   1.567   1.549   4.382 -0.0804  0.1649 -0.1615
 2764SOL    HW211109   1.648   1.557   4.434 -0.8427 -0.1345  1.0835
 2764SOL    HW311110   1.506   1.502   4.439 -1.7398  1.9844 -0.3820
 2764SOL    MW411111   1.570   1.544   4.397 -0.3998  0.3655 -0.0257
 2765SOL     OW11112   1.814   2.588   4.719  0.3330 -0.1439  0.1520
 2765SOL    HW211113   1.815   2.543   4.803 -0.7298 -1.0970 -0.3325
 2765SOL    HW311114   1.850   2.675   4.738 -1.0502  0.1028  1.8579
 2765SOL    MW411115   1.819   2.594   4.732  0.0103 -0.2370  0.3128
 2766SOL     OW11116   1.142   3.104   4.750  0.2743  0.0003  0.4651
 2766SOL    HW211117   1.141   3.193   4.714  0.2899  0.2919  1.1933
 2766SOL    HW311118   1.235   3.080   4.751  0.0987 -0.9664 -2.0433
 2766SOL    MW411119   1.155   3.113   4.745  0.2532 -0.0887  0.2303
 2767SOL     OW11120   1.847   1.663   4.216  0.1796  0.2444 -0.1690
 2767SOL    HW211121   1.763   1.629   4.184  0.5641 -1.0630  0.1586
 2767SOL    HW311122   1.830   1.684   4.308 -0.5943  2.8422 -0.8827
 2767SOL    MW411123   1.833   1.661   4.224  0.1281  0.4146 -0.2203
 2768SOL     OW11124   3.435   0.516   4.228  0.3665  0.1259  0.1564
 2768SOL    HW211125   3.351   0.472   4.215  0.6804 -0.5243  0.3166
 2768SOL    HW311126   3.500   0.446   4.223  0.8948  0.6192  0.0814
 2768SOL    MW411127   3.432   0.501   4.226  0.4773  0.1051  0.1674
 2769SOL     OW11128   2.676   1.901   4.182  0.0146 -1.2835 -0.0172
 2769SOL    HW211129   2.668   1.922   4.089  0.4291  1.7527  0.5645
 2769SOL    HW311130   2.587   1.905   4.216  0.1734  0.5735  0.2504
 2769SOL    MW411131   2.663   1.904   4.174  0.0901 -0.6379  0.0949
 2770SOL     OW11132   2.658   4.462   4.621 -0.0604  0.0480 -0.1694
 2770SOL    HW211133   2.611   4.545   4.612  0.2423  0.5845  2.7002
 2770SOL    HW311134   2.598   4.397   4.584 -1.2440  1.2747 -0.4696
 2770SOL    MW411135   2.644   4.465   4.615 -0.1767  0.2809  0.1698
 2771SOL     OW11136   1.793   3.814   4.598  0.1477 -0.3384  0.2254
 2771SOL    HW211137   1.802   3.893   4.543 -1.0058  0.4532  1.1409
 2771SOL    HW311138   1.867   3.759   4.573 -0.0606  0.2225 -1.7740
 2771SOL    MW411139   1.804   3.817   4.587 -0.0317 -0.1600  0.0825
 2772SOL     OW11140   2.636   4.228   4.806 -0.4224 -0.3574 -0.6483
 2772SOL    HW211141   2.714   4.223   4.861  0.3212 -1.7085 -1.8127
 2772SOL    HW311142   2.645   4.311   4.759 -0.3603  0.1271  0.2119
 2772SOL    MW411143   2.647   4.238   4.807 -0.3164 -0.4716 -0.6881
 2773SOL     OW11144   3.625   2.080   4.511 -0.0604  0.0546  0.1146
 2773SOL    HW211145   3.613   1.994   4.551 -2.0564  0.7191  1.0149
 2773SOL    HW311146   3.565   2.082   4.437  0.0594  0.6371  0.0249
 2773SOL    MW411147   3.616   2.069   4.506 -0.3080  0.2191  0.2217
 2774SOL     OW11148   1.866   1.517   4.665 -0.1244  0.7872  0.1194
 2774SOL    HW211149   1.930   1.453   4.636 -0.5100  0.7889 -0.7427
 2774SOL    HW311150   1.793   1.465   4.700 -0.1735  0.7673 -0.0138
 2774SOL    MW411151   1.864   1.502   4.666 -0.1816  0.7848 -0.0119
 2775SOL     OW11152   2.108   3.044   4.832 -0.5007 -0.2821  0.3386
 2775SOL    HW211153   2.175   3.038   4.763 -0.5130 -0.4374  0.3398
 2775SOL    HW311154   2.157   3.068   4.910 -0.4998 -0.0111  0.2540
 2775SOL    MW411155   2.124   3.046   4.833 -0.5023 -0.2670  0.3276
 2776SOL     OW11156   2.325   1.717   4.661  0.2086  0.4581 -0.1015
 2776SOL    HW211157   2.328   1.777   4.736 -0.5725 -1.0640  1.2116
 2776SOL    HW311158   2.399   1.741   4.607  1.1935  1.1698  1.5246
 2776SOL    MW411159   2.335   1.728   4.664  0.2356  0.3512  0.2861
 2777SOL     OW11160   1.413   2.452   4.981  0.9326 -0.4675 -0.6394
 2777SOL    HW211161   1.474   2.519   5.011 -0.0950 -0.2997  1.0997
 2777SOL    HW311162   1.332   2.468   5.030  0.2053 -2.0825 -1.2619
 2777SOL    MW411163   1.410   2.463   4.991  0.7011 -0.6585 -0.4921
 2778SOL     OW11164   3.059   2.740   4.574 -0.1204  0.4489 -0.2812
 2778SOL    HW211165   3.144   2.779   4.554  0.7172 -1.0168  0.3836
 2778SOL    HW311166   3.056   2.737   4.669 -1.4422  1.6007 -0.2707
 2778SOL    MW411167   3.070   2.745   4.584 -0.1843  0.4077 -0.1922
 2779SOL     OW11168   3.437   0.143   4.537 -0.3973  0.4960  0.6195
 2779SOL    HW211169   3.526   0.169   4.561  0.1145 -0.0174 -0.6868
 2779SOL    HW311170   3.386   0.225   4.540  0.5725  1.1701 -0.6406
 2779SOL    MW411171   3.442   0.158   4.540 -0.2019  0.5172  0.2804
 2780SOL     OW11172   2.106   4.014   4.508 -0.0756 -0.1404 -0.3103
 2780SOL    HW211173   2.146   4.028   4.422 -0.1739 -1.8925 -0.6584
 2780SOL    HW311174   2.017   4.047   4.499 -0.5161 -1.5788 -1.3058
 2780SOL    MW411175   2.100   4.021   4.495 -0.1469 -0.5617 -0.4878
 2781SOL     OW11176   1.377   3.276   4.510  0.0656 -0.0170  0.0911
 2781SOL    HW211177   1.441   3.326   4.561  0.1091 -1.8116  1.8545
 2781SOL    HW311178   1.292   3.308   4.540  0.0990 -0.5964  0.8104
 2781SOL    MW411179   1.375   3.287   4.520  0.0758 -0.3302  0.4187
 2782SOL     OW11180   2.565   3.016   4.590  0.0237  0.2747 -0.3060
 2782SOL    HW211181   2.600   3.101   4.565 -0.4140  0.4455 -0.3437
 2782SOL    HW311182   2.606   2.996   4.674  1.5618 -0.3358 -1.1876
 2782SOL    MW411183   2.575   3.024   4.598  0.1688  0.2165 -0.4272
 2783SOL     OW11184   2.583   0.037   4.525  0.0448 -0.2901 -0.3054
 2783SOL    HW211185   2.617   0.073   4.443 -0.6009 -0.6252 -0.7233
 2783SOL    HW311186   2.489   0.028   4.511  0.0436 -1.1272  0.1769
 2783SOL    MW411187   2.575   0.041   4.513 -0.0403 -0.4447 -0.2966
 2784SOL     OW11188   2.309   3.872   4.902 -0.0822 -0.2627  0.0369
 2784SOL    HW211189   2.382   3.810   4.906  0.3523  0.3280  2.4082
 2784SOL    HW311190   2.351   3.956   4.880  0.0407  0.1399  1.7095
 2784SOL    MW411191   2.324   3.875   4.900 -0.0086 -0.1316  0.5708
 2785SOL     OW11192   2.262   3.809   4.625 -0.1596  0.1882  0.7425
 2785SOL    HW211193   2.258   3.832   4.718 -0.1057  0.9196  0.5703
 2785SOL    HW311194   2.201   3.870   4.583 -2.1567 -1.8085  0.6045
 2785SOL    MW411195   2.253   3.820   4.631 -0.4160  0.0212  0.7014
 2786SOL     OW11196   3.807   0.477   4.505  0.1631 -0.0503  0.0730
 2786SOL    HW211197   3.889   0.498   4.551  0.3610 -1.4998  0.3803
 2786SOL    HW311198   3.745   0.543   4.536  0.5981 -0.3191  1.5678
 2786SOL    MW411199   3.810   0.489   4.515  0.2468 -0.2770  0.3114
 2787SOL     OW11200   3.043   1.814   4.504  0.2407 -0.2104  0.1739
 2787SOL    HW211201   3.093   1.767   4.437  0.3003  0.4874 -0.2764
 2787SOL    HW311202   2.976   1.752   4.531  0.2362 -0.5122 -0.5139
 2787SOL    MW411203   3.041   1.800   4.499  0.2480 -0.1582  0.0238
 2788SOL     OW11204   1.764   0.126   4.230  1.0314 -0.0496 -0.0367
 2788SOL    HW211205   1.765   0.213   4.188  2.2112 -0.1560 -0.2571
 2788SOL    HW311206   1.840   0.082   4.194  0.4951 -1.1456  0.1723
 2788SOL    MW411207   1.774   0.132   4.220  1.1163 -0.2083 -0.0381
 2789SOL     OW11208   2.908   2.062   4.217 -0.0170 -0.1424  0.2560
 2789SOL    HW211209   2.844   1.997   4.190 -0.8909  0.1549  1.5753
 2789SOL    HW311210   2.922   2.046   4.310  0.2690  1.1119  0.4454
 2789SOL    MW411211   2.902   2.052   4.225 -0.0947  0.0622  0.4554
 2790SOL     OW11212   4.063   1.927   4.162 -0.1478  0.0023  0.1953
 2790SOL    HW211213   3.987   1.975   4.195 -0.7160 -0.8061  0.0911
 2790SOL    HW311214   4.054   1.839   4.199 -0.1241 -0.5554 -1.0812
 2790SOL    MW411215   4.052   1.922   4.171 -0.2198 -0.1781  0.0134
 2791SOL     OW11216   3.927   4.410   4.525  0.5067  0.3516  0.0543
 2791SOL    HW211217   3.884   4.332   4.560 -0.7574  0.9180 -0.2088
 2791SOL    HW311218   3.903   4.411   4.432 -0.8962  1.9461  0.3920
 2791SOL    MW411219   3.918   4.400   4.517  0.1547  0.6366  0.0644
 2792SOL     OW11220   3.200   0.889   4.212  0.1052 -0.0386 -0.2339
 2792SOL    HW211221   3.110   0.855   4.206 -0.0417  0.0447  1.2409
 2792SOL    HW311222   3.190   0.984   4.213  0.2330 -0.0235 -0.4236
 2792SOL    MW411223   3.186   0.897   4.212  0.1025 -0.0256 -0.0644
 2793SOL     OW11224   3.620   0.063   4.279 -0.2941 -0.1765  0.2493
 2793SOL    HW211225   3.645   0.072   4.371 -1.6484 -0.2692  0.6487
 2793SOL    HW311226   3.621   0.152   4.245 -0.3786 -0.0714  0.5183
 2793SOL    MW411227   3.623   0.076   4.287 -0.4840 -0.1749  0.3376
 2794SOL     OW11228   4.065   0.638   4.620  0.0347 -0.0173  0.2293
 2794SOL    HW211229   4.078   0.723   4.577  1.6196 -0.7633 -0.8319
 2794SOL    HW311230   4.150   0.594   4.612 -0.3374 -1.1302  2.0708
 2794SOL    MW411231   4.078   0.643   4.613  0.1945 -0.2626  0.3324
 2795SOL     OW11232   3.295   2.857   4.491 -0.2963  0.1151 -1.0140
 2795SOL    HW211233   3.320   2.831   4.403 -1.3197 -0.9788 -0.9997
 2795SOL    HW311234   3.298   2.953   4.490 -1.3290  0.1455 -2.5616
 2795SOL    MW411235   3.298   2.866   4.480 -0.5674 -0.0253 -1.2169
 2796SOL     OW11236   3.335   1.915   4.582  0.0430  0.1473  0.1320
 2796SOL    HW211237   3.332   1.959   4.497  0.7550  0.9533  0.5248
 2796SOL    HW311238   3.244   1.890   4.599 -0.4092  1.7111  0.0367
 2796SOL    MW411239   3.322   1.918   4.573  0.0770  0.4601  0.1717
 2797SOL     OW11240   3.449   2.510   4.516 -0.0153 -0.0827  0.4734
 2797SOL    HW211241   3.480   2.473   4.433  0.8938 -0.7498  1.0955
 2797SOL    HW311242   3.354   2.509   4.508  0.0446 -0.8444 -0.2689
 2797SOL    MW411243   3.441   2.505   4.504  0.1125 -0.2711  0.4578
 2798SOL     OW11244   3.915   2.180   4.515 -0.1008 -0.0816 -0.0166
 2798SOL    HW211245   3.933   2.264   4.557  0.5866 -0.5012  0.5608
 2798SOL    HW311246   3.825   2.159   4.540 -0.0657  0.1924  0.3453
 2798SOL    MW411247   3.906   2.188   4.524 -0.0050 -0.1011  0.1078
 2799SOL     OW11248   3.277   2.115   4.778  0.3787 -0.0314 -0.1389
 2799SOL    HW211249   3.344   2.183   4.770  0.3889 -0.1133 -0.7699
 2799SOL    HW311250   3.311   2.042   4.727  0.2718 -0.4404  0.3694
 2799SOL    MW411251   3.290   2.114   4.770  0.3660 -0.0963 -0.1545
 2800SOL     OW11252   2.874   2.408   4.808 -0.1300  0.0257 -0.1955
 2800SOL    HW211253   2.835   2.496   4.810  0.6899  0.3904 -0.2748
 2800SOL    HW311254   2.800   2.350   4.826 -0.7586  0.7000 -0.5345
 2800SOL    MW411255   2.859   2.412   4.811 -0.1047  0.1626 -0.2508
 2801SOL     OW11256   3.040   2.736   4.848 -0.0911  0.1883  0.4721
 2801SOL    HW211257   3.085   2.684   4.915  0.4821 -1.0675 -0.8714
 2801SOL    HW311258   2.949   2.709   4.855  0.1116 -0.5960  0.1578
 2801SOL    MW411259   3.034   2.725   4.858  0.0117 -0.0808  0.2532
 2802SOL     OW11260   4.117   3.190   4.535 -0.4589 -0.2812 -0.0014
 2802SOL    HW211261   4.091   3.189   4.443  0.0015  2.8681 -0.2320
 2802SOL    HW311262   4.081   3.109   4.571 -2.1629 -0.7182 -2.5365
 2802SOL    MW411263   4.109   3.179   4.527 -0.6227  0.0768 -0.3667
 2803SOL     OW11264   3.554   2.778   4.577  0.4092 -0.2688  0.3534
 2803SOL    HW211265   3.468   2.819   4.569  0.3548 -0.3541  0.5007
 2803SOL    HW311266   3.541   2.688   4.548  0.5592 -0.1427 -0.1003
 2803SOL    MW411267   3.541   2.772   4.572  0.4215 -0.2635  0.3133
 2804SOL     OW11268   2.443   4.028   4.514  0.3551  0.2523  0.2170
 2804SOL    HW211269   2.537   4.014   4.517  0.3821 -0.0332 -1.6435
 2804SOL    HW311270   2.405   3.940   4.524  0.3076  0.2632  0.1411
 2804SOL    MW411271   2.450   4.014   4.516  0.3524  0.2155 -0.0381
 2805SOL     OW11272   3.995   0.983   4.744 -0.0733 -0.0153 -0.1305
 2805SOL    HW211273   4.028   0.948   4.661 -1.2474 -0.9820 -0.2072
 2805SOL    HW311274   3.905   1.010   4.724 -0.3051 -0.0982  0.7898
 2805SOL    MW411275   3.987   0.982   4.730 -0.2589 -0.1537 -0.0191
 2806SOL     OW11276   1.334   0.108   4.296 -0.5091 -0.1004  0.0626
 2806SOL    HW211277   1.256   0.098   4.243  0.6510 -0.9141 -1.5348
 2806SOL    HW311278   1.365   0.197   4.279  0.3962 -0.6765 -1.4138
 2806SOL    MW411279   1.328   0.118   4.287 -0.2365 -0.2838 -0.3428
 2807SOL     OW11280   2.476   3.403   4.884 -0.0801 -0.5681 -0.6522
 2807SOL    HW211281   2.473   3.395   4.788  0.6445 -0.2759 -0.7049
 2807SOL    HW311282   2.384   3.405   4.911 -0.3800  2.4714 -1.6342
 2807SOL    MW411283   2.463   3.402   4.875 -0.0241 -0.1285 -0.7892
 2808SOL     OW11284   2.026   3.659   4.533  0.0880 -0.4088 -0.5434
 2808SOL    HW211285   2.058   3.662   4.443  1.3265  1.1578 -0.0697
 2808SOL    HW311286   2.098   3.694   4.586 -0.7574 -0.9683  1.0260
 2808SOL    MW411287   2.039   3.664   4.528  0.1397 -0.2759 -0.2742
 2809SOL     OW11288   2.055   4.479   4.512  0.1757  0.2351 -0.3031
 2809SOL    HW211289   2.075   4.404   4.568 -1.3730  0.5081  0.6368
 2809SOL    HW311290   1.977   4.518   4.550 -0.5854  0.7641 -2.3169
 2809SOL    MW411291   2.047   4.474   4.524 -0.1290  0.3405 -0.4449
 2810SOL     OW11292   3.181   0.377   4.216 -0.1302 -0.4413 -0.1496
 2810SOL    HW211293   3.104   0.430   4.236  0.6874  0.4504  0.6886
 2810SOL    HW311294   3.152   0.286   4.230 -0.8346 -0.0784  0.7939
 2810SOL    MW411295   3.167   0.372   4.220 -0.1154 -0.2758  0.0858
 2811SOL     OW11296   4.159   0.078   4.506 -0.0389  0.5548  0.1353
 2811SOL    HW211297   4.192  -0.012   4.511  0.2097  0.6872  1.1140
 2811SOL    HW311298   4.143   0.093   4.413  1.8869  0.1873 -0.2890
 2811SOL    MW411299   4.161   0.068   4.495  0.2475  0.5238  0.2084
 2812SOL     OW11300   1.824   4.607   4.606 -0.1481  0.3140 -0.4181
 2812SOL    HW211301   1.822   4.701   4.591  0.7675  0.0061 -2.6119
 2812SOL    HW311302   1.742   4.574   4.568 -0.4731  0.2145  0.3554
 2812SOL    MW411303   1.813   4.615   4.599 -0.0702  0.2599 -0.6056
 2813SOL     OW11304   3.339   4.575   4.644 -0.1683  0.4324  0.1744
 2813SOL    HW211305   3.320   4.603   4.733 -1.6047  0.0028  0.0296
 2813SOL    HW311306   3.389   4.647   4.606 -2.4066  2.1236  0.3003
 2813SOL    MW411307   3.343   4.588   4.651 -0.6533  0.5984  0.1717
 2814SOL     OW11308   2.808   0.982   4.536 -0.4977 -0.2337 -0.4790
 2814SOL    HW211309   2.886   0.928   4.546 -1.4274 -1.2866  1.4886
 2814SOL    HW311310   2.773   0.958   4.450 -0.2961 -1.9810 -0.0928
 2814SOL    MW411311   2.814   0.972   4.526 -0.5939 -0.6032 -0.1683
 2815SOL     OW11312   2.923   2.061   4.503 -0.0825  0.0556  0.1801
 2815SOL    HW211313   2.979   1.986   4.524  0.9867  0.7048 -0.3171
 2815SOL    HW311314   2.963   2.134   4.549  0.2506  0.7933 -1.2701
 2815SOL    MW411315   2.936   2.061   4.512  0.1028  0.2387 -0.0772
 2816SOL     OW11316   3.659   3.681   4.584  0.5281 -0.0188 -0.2204
 2816SOL    HW211317   3.677   3.646   4.672  0.4007  0.3518 -0.0451
 2816SOL    HW311318   3.575   3.643   4.560  0.2444  0.4103  0.0960
 2816SOL    MW411319   3.650   3.671   4.593  0.4737  0.0868 -0.1554
 2817SOL     OW11320   4.057   2.446   4.571  0.2818 -0.1060 -0.4598
 2817SOL    HW211321   4.029   2.433   4.481  0.7975  0.6362 -0.7352
 2817SOL    HW311322   4.080   2.539   4.576 -1.0536  0.1622  0.8088
 2817SOL    MW411323   4.057   2.456   4.560  0.1731  0.0269 -0.3285
 2818SOL     OW11324   3.273   0.842   4.474 -0.2524 -0.4539 -0.2394
 2818SOL    HW211325   3.238   0.843   4.384  0.8558  0.1919 -0.6775
 2818SOL    HW311326   3.311   0.755   4.484 -0.9388 -0.7530 -0.1616
 2818SOL    MW411327   3.273   0.831   4.463 -0.1969 -0.4081 -0.2871
 2819SOL     OW11328   2.772   1.651   4.261  0.0963 -0.0281 -0.7204
 2819SOL    HW211329   2.711   1.585   4.229  1.0478 -0.8981 -0.7471
 2819SOL    HW311330   2.736   1.734   4.229 -1.4298 -0.4615 -0.1624
 2819SOL    MW411331   2.759   1.654   4.252  0.0205 -0.2000 -0.6509
 2820SOL     OW11332   3.176   1.705   4.270  0.2237  0.2454 -0.0353
 2820SOL    HW211333   3.121   1.653   4.212  0.8834  0.1477 -0.5704
 2820SOL    HW311334   3.179   1.792   4.229  0.1734  0.3536  0.1860
 2820SOL    MW411335   3.169   1.710   4.257  0.3040  0.2469 -0.0768
 2821SOL     OW11336   2.508   1.300   4.518 -0.0110  0.0263 -0.1244
 2821SOL    HW211337   2.590   1.326   4.559  0.4935 -1.2772 -0.2681
 2821SOL    HW311338   2.522   1.312   4.424 -0.2958  0.6549 -0.0848
 2821SOL    MW411339   2.520   1.305   4.511  0.0179 -0.0627 -0.1378
 2822SOL     OW11340   1.814   1.720   4.483  0.5552 -0.1989  0.2272
 2822SOL    HW211341   1.894   1.773   4.483  1.4264 -1.4038 -2.3447
 2822SOL    HW311342   1.835   1.645   4.538  1.7071 -1.1604 -1.4644
 2822SOL    MW411343   1.828   1.717   4.490  0.8221 -0.4847 -0.3357
 2823SOL     OW11344   2.837   2.882   4.488 -0.1623  0.3008  0.1327
 2823SOL    HW211345   2.923   2.858   4.522  0.2801  1.2103 -0.3411
 2823SOL    HW311346   2.777   2.866   4.561  0.3702 -0.5799  0.3752
 2823SOL    MW411347   2.840   2.877   4.502 -0.0339  0.3042  0.1020
 2824SOL     OW11348   3.162   2.480   4.509  0.4046  0.1804 -0.4421
 2824SOL    HW211349   3.116   2.555   4.547  0.8537  0.2181  0.0336
 2824SOL    HW311350   3.116   2.404   4.546  1.4147  0.2093  0.9109
 2824SOL    MW411351   3.150   2.480   4.519  0.5970  0.1893 -0.2012
 2825SOL     OW11352   3.704   3.502   4.780 -0.2533  0.2079 -0.1790
 2825SOL    HW211353   3.631   3.448   4.752 -1.5761  1.1256  1.4160
 2825SOL    HW311354   3.782   3.457   4.747 -1.4483 -1.4870 -0.7294
 2825SOL    MW411355   3.704   3.489   4.772 -0.5856  0.1051 -0.0410
 2826SOL     OW11356   3.485   3.332   4.660 -0.2196 -0.7699 -0.2048
 2826SOL    HW211357   3.557   3.280   4.624 -0.6651  0.4865 -3.0995
 2826SOL    HW311358   3.410   3.273   4.658  0.2175 -1.3619  0.6403
 2826SOL    MW411359   3.485   3.317   4.655 -0.2205 -0.6824 -0.4754
 2827SOL     OW11360   3.866   4.135   4.601 -0.1743 -0.6275 -0.7871
 2827SOL    HW211361   3.936   4.113   4.539  1.1758 -1.0230  0.8366
 2827SOL    HW311362   3.910   4.138   4.686 -1.9105  0.3560  0.0944
 2827SOL    MW411363   3.881   4.132   4.604 -0.2253 -0.5498 -0.4568
 2828SOL     OW11364   4.267   2.281   4.668 -0.1721 -0.1257  0.4638
 2828SOL    HW211365   4.251   2.278   4.762  0.3128 -0.7107  0.5253
 2828SOL    HW311366   4.209   2.351   4.636 -0.7354 -0.2913  1.1107
 2828SOL    MW411367   4.257   2.290   4.676 -0.1826 -0.2246  0.5574
 2829SOL     OW11368   0.264   2.241   4.574 -0.0309 -0.1543  0.3344
 2829SOL    HW211369   0.343   2.294   4.566  0.6751 -0.7649  2.8742
 2829SOL    HW311370   0.192   2.304   4.577  0.4926  0.4768 -0.3792
 2829SOL    MW411371   0.265   2.256   4.573  0.1314 -0.1516  0.5755
 2830SOL     OW11372   2.926   2.999   4.895  0.1410 -0.1230  0.2957
 2830SOL    HW211373   2.989   2.927   4.905 -0.2219 -0.6142 -0.9040
 2830SOL    HW311374   2.843   2.956   4.875 -0.6037  0.5239  1.8582
 2830SOL    MW411375   2.923   2.984   4.894 -0.0050 -0.1025  0.3438
 2831SOL     OW11376   2.960   4.144   4.594 -0.4195  0.0049  0.1651
 2831SOL    HW211377   2.879   4.104   4.561  0.6171 -1.4391 -0.6826
 2831SOL    HW311378   3.030   4.100   4.546  0.9087  0.9022  1.2318
 2831SOL    MW411379   2.958   4.133   4.583 -0.1073 -0.0668  0.1941
 2832SOL     OW11380   4.251   3.897   4.843 -0.1084  0.2834 -0.2119
 2832SOL    HW211381   4.341   3.921   4.818 -0.1310 -0.4930 -1.0547
 2832SOL    HW311382   4.218   3.848   4.768 -0.9953 -0.0456  0.3942
 2832SOL    MW411383   4.259   3.893   4.830 -0.2279  0.1376 -0.2432
 2833SOL     OW11384   1.072   4.454   4.490 -0.4917 -0.1760 -0.0091
 2833SOL    HW211385   1.156   4.486   4.522 -1.1775  1.1385  0.5122
 2833SOL    HW311386   1.087   4.435   4.398 -0.2097  2.2557 -0.4972
 2833SOL    MW411387   1.085   4.456   4.482 -0.5450  0.3185 -0.0048
 2834SOL     OW11388   2.903   4.620   4.139  0.1651 -0.0623 -0.2993
 2834SOL    HW211389   2.899   4.528   4.168 -0.5252  0.4606  1.3207
 2834SOL    HW311390   2.996   4.642   4.142  0.0163  0.3235  2.7130
 2834SOL    MW411391   2.915   4.611   4.143  0.0546  0.0577  0.3114
 2835SOL     OW11392   2.458   3.652   4.524  0.0676 -0.0318  0.0300
 2835SOL    HW211393   2.454   3.564   4.561 -0.4758  0.0294  0.1221
 2835SOL    HW311394   2.390   3.701   4.571 -0.0137  0.2838 -0.4112
 2835SOL    MW411395   2.448   3.646   4.535 -0.0148  0.0181 -0.0162
 2836SOL     OW11396   2.696   0.356   4.172 -0.1685 -0.0244 -0.1312
 2836SOL    HW211397   2.708   0.365   4.078 -0.2621 -1.5309 -0.2936
 2836SOL    HW311398   2.631   0.423   4.194  0.0670  0.5278 -1.0831
 2836SOL    MW411399   2.689   0.366   4.163 -0.1500 -0.1503 -0.2785
 2837SOL     OW11400   3.633   0.874   4.253  0.2467 -0.7436  0.1164
 2837SOL    HW211401   3.630   0.963   4.217 -1.4548 -0.3773  1.1102
 2837SOL    HW311402   3.572   0.824   4.198 -0.2005 -0.8569  0.7186
 2837SOL    MW411403   3.625   0.879   4.241 -0.0367 -0.7102  0.3271
 2838SOL     OW11404   2.067   1.077   4.536  0.1036  0.2548  0.1379
 2838SOL    HW211405   1.997   1.013   4.522  0.4966  0.0962 -1.1520
 2838SOL    HW311406   2.147   1.025   4.538  0.2830  0.5465  0.6001
 2838SOL    MW411407   2.068   1.061   4.534  0.1793  0.2725  0.0286
 2839SOL     OW11408   2.582   1.813   4.576  0.2680 -0.1610  0.8228
 2839SOL    HW211409   2.659   1.762   4.553 -0.6377 -1.5000  0.6919
 2839SOL    HW311410   2.611   1.904   4.574  1.6090 -0.6068 -0.0738
 2839SOL    MW411411   2.596   1.819   4.573  0.3254 -0.3965  0.6876
 2840SOL     OW11412   3.765   2.922   4.486  0.3224  0.2538  0.3028
 2840SOL    HW211413   3.688   2.873   4.514  0.1124 -0.3121 -1.2055
 2840SOL    HW311414   3.734   3.012   4.477 -0.2396 -0.0143 -0.5373
 2840SOL    MW411415   3.751   2.927   4.488  0.2203  0.1438 -0.0076
 2841SOL     OW11416   0.274   1.280   4.639 -0.0663 -0.5287  0.0249
 2841SOL    HW211417   0.255   1.311   4.728 -1.8994 -0.5053 -0.3737
 2841SOL    HW311418   0.284   1.360   4.587 -1.0075 -0.5625 -0.2095
 2841SOL    MW411419   0.273   1.295   4.644 -0.4323 -0.5301 -0.0582
 2842SOL     OW11420   3.644   3.971   4.517 -0.0741  0.0890 -0.3709
 2842SOL    HW211421   3.654   3.879   4.540 -1.6349  0.3825  1.6815
 2842SOL    HW311422   3.726   4.012   4.544  0.0510 -0.4527  0.0790
 2842SOL    MW411423   3.656   3.965   4.523 -0.2637  0.0565 -0.0410
 2843SOL     OW11424   3.476   2.274   4.682 -0.0145 -0.1618  0.3990
 2843SOL    HW211425   3.533   2.221   4.626 -0.8220 -1.8666  1.1262
 2843SOL    HW311426   3.474   2.360   4.641  0.8267 -0.8787 -1.1949
 2843SOL    MW411427   3.483   2.278   4.669 -0.0100 -0.4814  0.2847
 2844SOL     OW11428   4.146   2.699   4.633 -0.1521 -0.3870  0.1870
 2844SOL    HW211429   4.236   2.714   4.603  0.3314 -2.1938  0.7042
 2844SOL    HW311430   4.117   2.785   4.663  1.0226  0.4420 -0.9642
 2844SOL    MW411431   4.154   2.712   4.633  0.0658 -0.5159  0.1035
 2845SOL     OW11432   0.206   2.831   4.277  0.0612 -0.0010  0.1802
 2845SOL    HW211433   0.294   2.795   4.285  0.1765 -0.0567 -1.2464
 2845SOL    HW311434   0.219   2.923   4.257 -0.1628 -0.4140 -1.9881
 2845SOL    MW411435   0.219   2.838   4.275  0.0468 -0.0629 -0.2937
 2846SOL     OW11436   0.759   1.216   4.673  0.2827 -0.7546 -0.1219
 2846SOL    HW211437   0.694   1.150   4.647  1.0618 -1.7285  0.3727
 2846SOL    HW311438   0.843   1.169   4.670  0.6023 -0.4253  2.4416
 2846SOL    MW411439   0.762   1.201   4.669  0.4276 -0.8396  0.2813
 2847SOL     OW11440   0.224   0.807   4.561  0.2867 -0.0443  0.0953
 2847SOL    HW211441   0.196   0.898   4.551  0.9031  0.1949  0.5276
 2847SOL    HW311442   0.147   0.763   4.597  0.1259  0.3960  0.3025
 2847SOL    MW411443   0.210   0.814   4.564  0.3468  0.0454  0.1802
 2848SOL     OW11444   3.636   0.665   4.622 -0.4115 -0.1061  0.5260
 2848SOL    HW211445   3.709   0.670   4.684  0.2034  0.6673 -0.2558
 2848SOL    HW311446   3.621   0.756   4.595 -0.2897 -0.5035 -0.9063
 2848SOL    MW411447   3.644   0.678   4.627 -0.3145 -0.0564  0.2341
 2849SOL     OW11448   4.366   0.939   4.620 -0.3377  0.2626  0.7183
 2849SOL    HW211449   4.322   1.020   4.648  0.5619  0.7529  0.7281
 2849SOL    HW311450   4.454   0.967   4.597 -0.2530 -0.6005 -0.0086
 2849SOL    MW411451   4.372   0.954   4.621 -0.2079  0.2134  0.6237
 2850SOL     OW11452   2.659   2.076   4.573 -0.5381  0.2142  0.2509
 2850SOL    HW211453   2.664   2.115   4.660  0.2415  0.7585 -0.0371
 2850SOL    HW311454   2.750   2.069   4.544 -0.6443 -1.9793  0.3767
 2850SOL    MW411455   2.671   2.080   4.580 -0.4492 -0.0033  0.2298
 2851SOL     OW11456   3.723   1.602   4.511  0.2380  0.0922  0.2682
 2851SOL    HW211457   3.682   1.652   4.581 -0.7926  0.7545 -0.7998
 2851SOL    HW311458   3.804   1.650   4.492  0.1672  0.3118  0.5227
 2851SOL    MW411459   3.728   1.615   4.517  0.0925  0.2086  0.1612
 2852SOL     OW11460   3.590   1.840   4.661 -0.0178 -0.2015  0.2918
 2852SOL    HW211461   3.497   1.856   4.645  0.2517  0.6993 -0.4347
 2852SOL    HW311462   3.607   1.885   4.744  0.3132  1.7803 -0.8148
 2852SOL    MW411463   3.580   1.848   4.670  0.0613  0.1788  0.0501
 2853SOL     OW11464   3.586   1.614   4.235  0.0708  0.0116 -0.1293
 2853SOL    HW211465   3.614   1.606   4.326  2.0558 -1.0064 -0.7803
 2853SOL    HW311466   3.503   1.567   4.231  0.5992 -1.0428  0.9066
 2853SOL    MW411467   3.579   1.607   4.246  0.4025 -0.2619 -0.0787
 2854SOL     OW11468   3.564   0.921   4.511 -0.3273  0.3778 -0.0522
 2854SOL    HW211469   3.582   0.897   4.421  0.4261 -0.0188  0.2028
 2854SOL    HW311470   3.468   0.925   4.517 -0.3769  0.2799 -0.8262
 2854SOL    MW411471   3.553   0.919   4.500 -0.2341  0.3126 -0.1202
 2855SOL     OW11472   3.374   3.595   4.291 -0.4415  0.3333  0.1540
 2855SOL    HW211473   3.298   3.554   4.248 -0.7398 -2.1571  2.8955
 2855SOL    HW311474   3.450   3.557   4.247 -0.7449  1.0628 -1.0222
 2855SOL    MW411475   3.374   3.585   4.279 -0.5207  0.1011  0.3605
 2856SOL     OW11476   0.789   3.590   4.527 -0.9600  0.6370 -0.4573
 2856SOL    HW211477   0.754   3.667   4.572  1.1225  0.4529  1.5841
 2856SOL    HW311478   0.751   3.516   4.575  1.3261  0.4365  1.1042
 2856SOL    MW411479   0.779   3.590   4.540 -0.3836  0.5860  0.0176
 2857SOL     OW11480   0.513   1.600   4.476  0.4096 -0.0467 -0.2904
 2857SOL    HW211481   0.592   1.550   4.498  0.0833 -0.3887  0.1154
 2857SOL    HW311482   0.522   1.618   4.382  0.9169 -0.1795 -0.2708
 2857SOL    MW411483   0.525   1.595   4.466  0.4335 -0.1092 -0.2341
 2858SOL     OW11484   0.147   3.397   4.579 -0.0694 -0.2304  0.3531
 2858SOL    HW211485   0.178   3.317   4.621 -1.4673 -1.1281 -0.2718
 2858SOL    HW311486   0.119   3.369   4.492 -1.6944  0.6921  0.5504
 2858SOL    MW411487   0.147   3.383   4.573 -0.4683 -0.2272  0.2966
 2859SOL     OW11488   1.215   1.222   4.520  0.3907 -0.6413 -0.0467
 2859SOL    HW211489   1.275   1.148   4.513 -0.7429 -1.6448  0.7712
 2859SOL    HW311490   1.144   1.191   4.575 -0.4169  0.8536 -0.2107
 2859SOL    MW411491   1.213   1.208   4.526  0.1346 -0.5765  0.0405
 2860SOL     OW11492   1.648   0.472   4.495  0.0331 -0.5992  0.0715
 2860SOL    HW211493   1.560   0.463   4.533  0.2491  1.6116  1.1812
 2860SOL    HW311494   1.687   0.385   4.502 -0.8923 -0.8401  2.5714
 2860SOL    MW411495   1.641   0.459   4.501 -0.0606 -0.3393  0.5479
 2861SOL     OW11496   2.926   0.515   4.253 -1.0707 -0.3527 -0.1123
 2861SOL    HW211497   2.911   0.535   4.345  1.8779 -1.5135  0.6825
 2861SOL    HW311498   2.857   0.452   4.230 -0.5630 -1.7240  1.9438
 2861SOL    MW411499   2.915   0.509   4.262 -0.6144 -0.6868  0.2642
 2862SOL     OW11500   4.221   1.144   4.718  0.4554 -0.6924  0.3505
 2862SOL    HW211501   4.264   1.138   4.804 -0.2029 -3.2373  0.5607
 2862SOL    HW311502   4.133   1.109   4.733 -0.4086  0.8756 -0.9167
 2862SOL    MW411503   4.215   1.138   4.731  0.2551 -0.8214  0.2108
 2863SOL     OW11504   0.867   0.900   4.880  0.0867  0.0618 -0.1634
 2863SOL    HW211505   0.833   0.830   4.825 -0.3707  0.8784 -0.9350
 2863SOL    HW311506   0.807   0.904   4.954 -0.8317  0.7071 -0.9286
 2863SOL    MW411507   0.854   0.891   4.882 -0.0948  0.2546 -0.3653
 2864SOL     OW11508   2.804   1.658   4.529 -0.1344  0.3014 -0.4432
 2864SOL    HW211509   2.807   1.569   4.564 -0.8314  0.7489  0.8204
 2864SOL    HW311510   2.794   1.647   4.435  0.1211 -0.9526 -0.3366
 2864SOL    MW411511   2.803   1.645   4.521 -0.1926  0.1950 -0.2623
 2865SOL     OW11512   4.187   2.066   4.507  0.1365 -0.2073 -0.0680
 2865SOL    HW211513   4.229   2.135   4.557  1.1160 -1.0184  0.2504
 2865SOL    HW311514   4.094   2.088   4.509  0.1757 -0.1614  2.0219
 2865SOL    MW411515   4.180   2.078   4.514  0.2708 -0.3083  0.2494
 2866SOL     OW11516   1.368   0.429   4.535 -0.0546 -0.2052 -0.2066
 2866SOL    HW211517   1.333   0.342   4.551  0.1095 -0.3693 -0.7450
 2866SOL    HW311518   1.294   0.478   4.498 -0.3306  0.0692  0.7125
 2866SOL    MW411519   1.354   0.424   4.532 -0.0693 -0.1907 -0.1564
 2867SOL     OW11520   0.232   2.050   4.260 -0.4769 -0.0057  0.0554
 2867SOL    HW211521   0.245   2.023   4.351  0.4226 -0.1327 -0.1072
 2867SOL    HW311522   0.295   1.999   4.210 -0.9602  0.0682 -0.6445
 2867SOL    MW411523   0.242   2.040   4.265 -0.4220 -0.0129 -0.0587
 2868SOL     OW11524   2.691   2.190   4.836 -0.4672 -0.0985  0.0607
 2868SOL    HW211525   2.600   2.196   4.865  0.1418  0.1419  2.0032
 2868SOL    HW311526   2.718   2.102   4.861 -0.0240 -0.0022 -0.0764
 2868SOL    MW411527   2.683   2.179   4.843 -0.3285 -0.0541  0.2990
 2869SOL     OW11528   1.185   2.750   4.511  0.1616  0.5751  0.0964
 2869SOL    HW211529   1.132   2.670   4.514 -0.1517  0.6811 -2.1715
 2869SOL    HW311530   1.274   2.720   4.527 -0.0077 -0.1659 -0.3455
 2869SOL    MW411531   1.189   2.735   4.514  0.0981  0.4914 -0.2608
 2870SOL     OW11532   0.239   1.952   4.505  0.3115 -0.3970 -0.3470
 2870SOL    HW211533   0.233   2.039   4.545 -0.6698  0.0856 -1.5277
 2870SOL    HW311534   0.316   1.913   4.547  0.2016  0.6647  0.9021
 2870SOL    MW411535   0.248   1.959   4.516  0.1676 -0.1932 -0.3376
 2871SOL     OW11536   0.218   3.137   4.715 -0.1874  0.4114 -0.0305
 2871SOL    HW211537   0.196   3.093   4.797 -0.5988  0.6650 -0.0078
 2871SOL    HW311538   0.174   3.085   4.647  1.2760 -0.6100 -0.2228
 2871SOL    MW411539   0.210   3.124   4.717 -0.0486  0.3104 -0.0525
 2872SOL     OW11540   3.997   2.429   4.291 -0.1314 -0.0036 -0.2125
 2872SOL    HW211541   4.024   2.503   4.238  1.1700 -0.3491 -0.0442
 2872SOL    HW311542   3.923   2.391   4.244  0.6112  0.0613 -1.4572
 2872SOL    MW411543   3.991   2.434   4.278  0.1380 -0.0408 -0.3548
 2873SOL     OW11544   4.171   3.783   4.572 -0.1862 -0.2086 -0.3794
 2873SOL    HW211545   4.236   3.714   4.558  0.1602  0.2295 -0.9504
 2873SOL    HW311546   4.087   3.738   4.566  0.0548 -0.7059 -0.0448
 2873SOL    MW411547   4.169   3.768   4.569 -0.1092 -0.2165 -0.4110
 2874SOL     OW11548   3.186   4.007   4.489  0.2654  0.2258  0.5445
 2874SOL    HW211549   3.183   3.915   4.515 -0.0291 -0.0532 -0.4752
 2874SOL    HW311550   3.264   4.042   4.533  0.5676 -0.5927  0.6614
 2874SOL    MW411551   3.196   4.000   4.498  0.2666  0.0811  0.4253
 2875SOL     OW11552   4.363   3.115   4.451 -0.4795 -0.1533 -0.3762
 2875SOL    HW211553   4.284   3.145   4.497 -0.2606 -0.9947  0.5650
 2875SOL    HW311554   4.334   3.099   4.361 -1.0662  0.8614 -0.3754
 2875SOL    MW411555   4.349   3.117   4.445 -0.5279 -0.1302 -0.2518
 2876SOL     OW11556   0.045   3.843   4.480 -0.0130 -0.3976  0.5627
 2876SOL    HW211557   0.128   3.797   4.473 -0.0972 -0.3333 -1.2272
 2876SOL    HW311558   0.043   3.900   4.403 -1.7527 -0.4798  0.5219
 2876SOL    MW411559   0.055   3.845   4.469 -0.2536 -0.4001  0.3209
 2877SOL     OW11560   2.447   4.322   4.499 -0.4381 -0.0985  0.0331
 2877SOL    HW211561   2.362   4.328   4.542 -0.1986 -1.0117  0.6370
 2877SOL    HW311562   2.458   4.229   4.479  0.4451 -0.0030  0.0335
 2877SOL    MW411563   2.437   4.311   4.502 -0.2899 -0.2065  0.1125
 2878SOL     OW11564   3.621   4.248   4.129  0.1153 -0.0305  0.7933
 2878SOL    HW211565   3.611   4.167   4.179  1.6017 -0.3433  0.6217
 2878SOL    HW311566   3.686   4.298   4.178  0.6008  0.2362 -0.1055
 2878SOL    MW411567   3.628   4.244   4.142  0.3753 -0.0367  0.6518
 2879SOL     OW11568   2.908   4.373   4.276  0.2663 -0.3682  0.2025
 2879SOL    HW211569   2.928   4.392   4.368 -1.5193  2.0251  0.1621
 2879SOL    HW311570   2.990   4.341   4.240  2.4168  3.3132  1.4848
 2879SOL    MW411571   2.921   4.372   4.284  0.3145  0.4325  0.3662
 2880SOL     OW11572   4.076   4.128   4.822 -0.1700  0.3996  0.2317
 2880SOL    HW211573   4.074   4.161   4.912 -0.9722  1.7515 -0.2723
 2880SOL    HW311574   4.128   4.048   4.827  1.1716  1.3363  1.6095
 2880SOL    MW411575   4.083   4.122   4.835 -0.0987  0.7014  0.3462
 2881SOL     OW11576   3.122   4.273   4.144  0.0953 -0.1537 -0.3015
 2881SOL    HW211577   3.134   4.183   4.174 -0.1974 -0.4176 -0.9608
 2881SOL    HW311578   3.205   4.316   4.163  0.2436 -0.5651  0.0033
 2881SOL    MW411579   3.134   4.267   4.151  0.0763 -0.2427 -0.3481
 2882SOL     OW11580   4.099   0.151   4.227  0.3753  0.3135  0.3784
 2882SOL    HW211581   4.102   0.233   4.179 -1.4481  0.9779  1.3792
 2882SOL    HW311582   4.016   0.111   4.201  1.0729 -1.0393  0.1913
 2882SOL    MW411583   4.089   0.156   4.217  0.2265  0.2227  0.4859
 2883NA      NA11584   2.689   3.138   0.469  0.6692  0.0975  0.2222
   4.49070   4.66690  10.00000
