Gromacs Runs On Most of All Computer Systems in water t= 40000.00000 step= 40000000
11584
    1RU5    O5'    1   2.616   2.155   4.579  0.2027 -0.6444  0.2437
    1RU5    H5T    2   2.640   2.194   4.663  0.9116  0.1628 -0.3360
    1RU5    C5'    3   2.703   2.205   4.479  0.6095 -0.8485 -0.1404
    1RU5   H5'1    4   2.701   2.142   4.390  0.2593 -0.4892 -0.3896
    1RU5   H5'2    5   2.806   2.193   4.513  0.5050 -0.4362  0.3368
    1RU5    C4'    6   2.676   2.350   4.441 -0.4609  0.3255 -0.0803
    1RU5    H4'    7   2.741   2.388   4.362  2.3029 -1.5704  1.2137
    1RU5    O4'    8   2.543   2.355   4.393 -0.0002  0.1409 -0.0396
    1RU5    C1'    9   2.490   2.481   4.418 -0.1283 -0.1763  0.2975
    1RU5    H1'   10   2.487   2.539   4.325  1.5090 -1.0871 -0.3507
    1RU5     N1   11   2.352   2.470   4.474 -0.1045  0.0904 -0.1737
    1RU5     C6   12   2.305   2.354   4.528  0.1723  0.3431 -0.2400
    1RU5     H6   13   2.362   2.262   4.539 -0.7589 -0.3231 -0.9166
    1RU5     C5   14   2.178   2.344   4.567  0.3103  0.2986  0.0819
    1RU5     H5   15   2.147   2.246   4.600 -0.6761  0.4059 -0.5219
    1RU5     C4   16   2.078   2.449   4.552 -0.2642 -0.4481 -0.0292
    1RU5     O4   17   1.954   2.445   4.571  0.1095  0.2004 -0.5239
    1RU5     N3   18   2.134   2.570   4.510  0.1268  0.1580 -0.1790
    1RU5     H3   19   2.073   2.650   4.506 -0.6622 -0.4393 -0.2568
    1RU5     C2   20   2.271   2.584   4.475 -0.0040  0.4382  0.1442
    1RU5     O2   21   2.305   2.697   4.438 -0.0601 -0.4473  0.2230
    1RU5    C3'   22   2.678   2.449   4.556 -0.2351 -0.3003  0.2239
    1RU5    H3'   23   2.638   2.401   4.644 -0.3568 -2.0434 -0.7537
    1RU5    C2'   24   2.590   2.554   4.505 -0.3170 -0.3066 -0.2001
    1RU5   H2'1   25   2.532   2.598   4.587 -1.4807 -0.4485 -0.9459
    1RU5    O2'   26   2.657   2.656   4.431 -0.3772 -0.0041  0.1004
    1RU5   HO'2   27   2.735   2.618   4.389 -1.5643 -2.1960 -0.2082
    1RU5    O3'   28   2.808   2.500   4.584 -0.5693 -0.5742  0.3647
    2RG3      P   29   2.850   2.547   4.729  0.0643  0.1005  0.2769
    2RG3    O1P   30   2.979   2.624   4.719  0.1224 -0.3544  0.8205
    2RG3    O2P   31   2.839   2.423   4.813  0.4308 -0.0609 -0.2328
    2RG3    O5'   32   2.732   2.647   4.765  0.5763  0.1093 -0.1712
    2RG3    C5'   33   2.732   2.781   4.719 -0.1600 -0.2998  0.0563
    2RG3   H5'1   34   2.742   2.787   4.611 -0.0884 -0.5970  0.0453
    2RG3   H5'2   35   2.817   2.836   4.759 -1.1786  1.4963 -0.2002
    2RG3    C4'   36   2.609   2.859   4.769 -0.9338  0.0025  0.0747
    2RG3    H4'   37   2.612   2.966   4.747  3.1159 -0.2674 -1.0834
    2RG3    O4'   38   2.492   2.809   4.698  0.7131  0.3155  0.4289
    2RG3    C1'   39   2.381   2.815   4.791 -0.2249  0.1308 -0.6581
    2RG3    H1'   40   2.303   2.874   4.742  0.1509 -0.0001 -1.4310
    2RG3     N9   41   2.331   2.683   4.815  0.1426 -0.2832  0.5186
    2RG3     C8   42   2.405   2.566   4.833 -0.0915 -0.5815 -0.5809
    2RG3     H8   43   2.513   2.568   4.829 -0.0576 -0.0351  0.4457
    2RG3     N7   44   2.330   2.459   4.852 -0.0090  0.2300 -0.4522
    2RG3     C5   45   2.198   2.512   4.849 -0.2271 -0.3231  0.1828
    2RG3     C6   46   2.070   2.449   4.869 -1.0403 -0.5145  0.8707
    2RG3     O6   47   2.039   2.332   4.885 -0.2695 -0.6559 -0.1649
    2RG3     N1   48   1.968   2.535   4.858  0.4257  0.1917 -0.1053
    2RG3     H1   49   1.874   2.497   4.864  1.5490 -2.7754 -0.3730
    2RG3     C2   50   1.982   2.669   4.844 -0.3701 -0.0881 -0.1680
    2RG3     N2   51   1.868   2.732   4.831 -0.1708  0.3638  0.7349
    2RG3    H21   52   1.779   2.690   4.850 -0.1002  0.1970  0.7038
    2RG3    H22   53   1.885   2.830   4.810  2.9317  0.1646  2.0365
    2RG3     N3   54   2.095   2.736   4.826  0.3274 -0.0509  0.0938
    2RG3     C4   55   2.199   2.647   4.832 -0.6200 -0.4150  0.7656
    2RG3    C3'   56   2.587   2.852   4.917  0.3701  0.0488 -0.4668
    2RG3    H3'   57   2.595   2.750   4.954  1.3948 -0.2383 -1.4866
    2RG3    C2'   58   2.437   2.888   4.917  0.0442 -0.2377 -0.3871
    2RG3   H2'1   59   2.392   2.848   5.008 -0.4985 -0.1238 -0.6070
    2RG3    O2'   60   2.421   3.030   4.914  0.3344 -0.1292 -0.1197
    2RG3   HO'2   61   2.502   3.064   4.953  0.8709 -0.7574 -0.6737
    2RG3    O3'   62   2.659   2.942   4.999  0.6182 -0.2488 -0.2792
    2RG3    H3T   63   2.754   2.925   4.995  0.6585 -0.1974  0.4276
    3SOL     OW   64   0.978   3.949   0.404 -0.3738  0.0181 -0.2079
    3SOL    HW2   65   0.937   3.862   0.406 -2.2635  0.8793  1.7450
    3SOL    HW3   66   0.903   4.010   0.406  0.9167  1.6759 -1.6917
    3SOL    MW4   67   0.962   3.946   0.405 -0.4529  0.3507 -0.1460
    4SOL     OW   68   3.114   0.055   0.548 -0.0435  0.0894 -0.0372
    4SOL    HW2   69   3.180   0.104   0.501 -0.1710 -0.5051 -0.8449
    4SOL    HW3   70   3.032   0.101   0.530  0.0777  0.5547  0.5835
    4SOL    MW4   71   3.112   0.067   0.540 -0.0443  0.0723 -0.0619
    5SOL     OW   72   1.559   2.339   0.832  0.5168 -0.2770 -0.1390
    5SOL    HW2   73   1.481   2.383   0.800  1.2083  1.3711  0.4049
    5SOL    HW3   74   1.543   2.246   0.814 -2.9033 -0.3517  2.7854
    5SOL    MW4   75   1.547   2.332   0.826  0.1569 -0.0696  0.3186
    6SOL     OW   76   4.435   3.645   0.468  0.3208  0.2649 -0.2619
    6SOL    HW2   77   4.388   3.724   0.441 -0.3708 -0.3644 -0.9309
    6SOL    HW3   78   4.393   3.574   0.418 -0.1615 -0.7549  1.5497
    6SOL    MW4   79   4.423   3.646   0.458  0.1659  0.0470 -0.1111
    7SOL     OW   80   0.230   2.187   0.602 -0.0227  0.4731  0.2154
    7SOL    HW2   81   0.302   2.239   0.567  0.6251  0.4928  1.5608
    7SOL    HW3   82   0.202   2.234   0.680 -0.4233 -0.4106  0.6097
    7SOL    MW4   83   0.236   2.200   0.608  0.0099  0.3591  0.4450
    8SOL     OW   84   0.275   3.271   0.355  0.4300 -0.0629 -0.0562
    8SOL    HW2   85   0.281   3.266   0.259  3.5338  1.0275  0.0099
    8SOL    HW3   86   0.254   3.363   0.372  1.0820  0.0141  0.3332
    8SOL    MW4   87   0.273   3.283   0.344  0.9255  0.0911  0.0039
    9SOL     OW   88   3.600   2.871   0.352  0.4262  0.0742 -0.1624
    9SOL    HW2   89   3.537   2.801   0.370  1.1441 -0.4444  0.3724
    9SOL    HW3   90   3.561   2.922   0.281 -1.6314  1.0780  1.6272
    9SOL    MW4   91   3.587   2.869   0.345  0.2494  0.1383  0.1443
   10SOL     OW   92   0.483   0.256   0.363 -0.0094  0.4798 -0.2281
   10SOL    HW2   93   0.455   0.219   0.280 -0.2574  1.3815 -0.5542
   10SOL    HW3   94   0.465   0.188   0.428 -0.6042  0.1032 -0.7893
   10SOL    MW4   95   0.477   0.242   0.360 -0.1206  0.5490 -0.3452
   11SOL     OW   96   3.382   3.079   0.689  0.2826  0.1837  0.0889
   11SOL    HW2   97   3.459   3.114   0.645  0.7511  0.8509  1.4401
   11SOL    HW3   98   3.401   2.985   0.699  0.2672  0.0671 -0.9124
   11SOL    MW4   99   3.395   3.071   0.684  0.3426  0.2565  0.1351
   12SOL     OW  100   0.199   1.928   0.668 -0.0975 -0.0170  0.1447
   12SOL    HW2  101   0.120   1.926   0.723 -1.0135  0.6962 -1.1194
   12SOL    HW3  102   0.207   2.020   0.641  1.8161  0.1514  1.1514
   12SOL    MW4  103   0.190   1.940   0.672  0.0341  0.0993  0.1107
   13SOL     OW  104   4.428   2.476   0.458  0.8061  0.0882 -0.9258
   13SOL    HW2  105   4.507   2.512   0.418  0.5491  0.5126 -1.0587
   13SOL    HW3  106   4.356   2.513   0.407  0.4848  0.4315 -0.2341
   13SOL    MW4  107   4.429   2.486   0.446  0.7296  0.1895 -0.8520
   14SOL     OW  108   1.465   1.361   0.512  0.0495 -0.0688  0.2634
   14SOL    HW2  109   1.430   1.450   0.508 -1.1813 -0.5861 -1.0311
   14SOL    HW3  110   1.527   1.356   0.439 -1.3102 -0.8436 -0.8645
   14SOL    MW4  111   1.469   1.372   0.502 -0.2924 -0.2393 -0.0563
   15SOL     OW  112   1.511   2.783   0.470  0.5585 -0.0139 -0.0085
   15SOL    HW2  113   1.576   2.833   0.422  1.0518 -1.6641 -1.1082
   15SOL    HW3  114   1.427   2.810   0.432  0.7803  0.3245 -0.2597
   15SOL    MW4  115   1.508   2.793   0.459  0.6529 -0.1867 -0.1867
   16SOL     OW  116   4.474   1.934   0.843  0.6461  0.0388 -0.1463
   16SOL    HW2  117   4.406   1.988   0.802  1.7316  0.9321 -0.7802
   16SOL    HW3  118   4.447   1.844   0.826  0.7088  0.3971 -2.1794
   16SOL    MW4  119   4.461   1.929   0.836  0.7977  0.2038 -0.4982
   17SOL     OW  120   3.147   2.041   0.308  0.0711  0.2687  0.1447
   17SOL    HW2  121   3.153   2.136   0.311 -0.4365  0.2749  1.7071
   17SOL    HW3  122   3.235   2.012   0.282  0.3943  1.1428  0.2565
   17SOL    MW4  123   3.160   2.050   0.305  0.0465  0.3850  0.3656
   18SOL     OW  124   2.948   3.720   0.486 -0.1972  0.0344  0.0951
   18SOL    HW2  125   2.938   3.815   0.481 -1.0695  0.0107  1.3262
   18SOL    HW3  126   3.029   3.702   0.438 -0.7740  1.2446 -1.3795
   18SOL    MW4  127   2.957   3.730   0.479 -0.3886  0.1910  0.0630
   19SOL     OW  128   2.234   0.176   0.702 -0.3007  0.0096  0.2534
   19SOL    HW2  129   2.249   0.206   0.612 -2.7591 -0.6646 -0.4331
   19SOL    HW3  130   2.309   0.120   0.722 -0.0473 -0.3570 -1.6384
   19SOL    MW4  131   2.246   0.172   0.693 -0.5915 -0.1277 -0.0868
   20SOL     OW  132   1.962   1.803   0.500 -0.3531  0.2178 -0.2136
   20SOL    HW2  133   1.934   1.762   0.582 -0.9018  1.6629  0.3441
   20SOL    HW3  134   1.948   1.897   0.515  1.8737  0.7080 -1.0744
   20SOL    MW4  135   1.956   1.810   0.513 -0.1317  0.4731 -0.2535
   21SOL     OW  136   3.518   3.222   0.888 -0.3286 -0.7769 -0.3254
   21SOL    HW2  137   3.465   3.231   0.967  1.0169 -0.1333  0.5362
   21SOL    HW3  138   3.458   3.191   0.821 -1.7103 -0.3485  0.7051
   21SOL    MW4  139   3.503   3.219   0.890 -0.3333 -0.6356 -0.0757
   22SOL     OW  140   3.445   1.966   0.354 -0.1502  0.2135  0.7570
   22SOL    HW2  141   3.507   1.971   0.281  0.7382 -1.1092  1.4002
   22SOL    HW3  142   3.489   1.912   0.420 -1.0111  1.2462  2.2149
   22SOL    MW4  143   3.459   1.959   0.353 -0.1466  0.1752  1.0342
   23SOL     OW  144   4.215   2.608   0.318 -0.0278  0.2202 -0.3749
   23SOL    HW2  145   4.142   2.569   0.366 -0.0166  0.0032 -0.5326
   23SOL    HW3  146   4.223   2.554   0.239  1.0657 -0.4894  0.2017
   23SOL    MW4  147   4.206   2.595   0.314  0.1183  0.0978 -0.3196
   24SOL     OW  148   3.233   3.657   0.402 -0.1701  0.3371 -0.2106
   24SOL    HW2  149   3.325   3.650   0.429  0.1559 -0.5492 -1.4994
   24SOL    HW3  150   3.225   3.745   0.366  0.1776  0.4146 -0.0981
   24SOL    MW4  151   3.244   3.667   0.401 -0.0811  0.2303 -0.3658
   25SOL     OW  152   3.859   3.943   0.400  0.3173  0.3811  0.0414
   25SOL    HW2  153   3.780   3.990   0.423 -0.4959 -0.2191 -1.4645
   25SOL    HW3  154   3.840   3.851   0.421 -0.1863 -0.0798 -2.2321
   25SOL    MW4  155   3.846   3.937   0.405  0.1438  0.2410 -0.4572
   26SOL     OW  156   1.014   2.872   0.493  0.2454 -0.1702 -0.2951
   26SOL    HW2  157   0.971   2.824   0.423  0.3933  0.2814 -0.6962
   26SOL    HW3  158   1.026   2.961   0.458 -0.5901  0.3315  0.6741
   26SOL    MW4  159   1.010   2.878   0.479  0.1549 -0.0443 -0.2201
   27SOL     OW  160   3.302   0.492   0.361  0.0283 -0.4413 -0.0182
   27SOL    HW2  161   3.217   0.524   0.392  0.1549 -0.2021  0.0849
   27SOL    HW3  162   3.366   0.539   0.415  0.2352 -0.3937 -0.3061
   27SOL    MW4  163   3.299   0.502   0.372  0.0722 -0.4035 -0.0426
   28SOL     OW  164   0.703   3.846   0.806  0.0508 -0.0305 -0.2182
   28SOL    HW2  165   0.691   3.751   0.799 -0.1768  0.0257 -0.6016
   28SOL    HW3  166   0.624   3.882   0.766  1.0902  0.3450 -1.9745
   28SOL    MW4  167   0.691   3.838   0.800  0.1579  0.0262 -0.5006
   29SOL     OW  168   0.780   4.124   0.488  0.2977 -0.9173  0.2947
   29SOL    HW2  169   0.698   4.082   0.464 -0.3054 -0.0121  0.7552
   29SOL    HW3  170   0.765   4.217   0.473  1.4545 -0.7985 -0.2520
   29SOL    MW4  171   0.767   4.131   0.482  0.3707 -0.7820  0.2833
   30SOL     OW  172   3.785   0.555   0.469 -0.1956 -0.2775  0.0567
   30SOL    HW2  173   3.855   0.620   0.462  0.0743 -0.6532 -0.8432
   30SOL    HW3  174   3.705   0.607   0.482  0.2184  0.1604  0.8281
   30SOL    MW4  175   3.783   0.570   0.470 -0.1056 -0.2693  0.0398
   31SOL     OW  176   1.161   3.541   0.442 -0.0962 -0.2903  0.1062
   31SOL    HW2  177   1.202   3.455   0.429 -0.8773 -0.6298 -0.1755
   31SOL    HW3  178   1.148   3.547   0.537  0.9132 -0.0340  0.2269
   31SOL    MW4  179   1.164   3.530   0.453 -0.0660 -0.3014  0.0850
   32SOL     OW  180   0.438   0.861   0.769  0.0832  0.2766  0.0937
   32SOL    HW2  181   0.503   0.797   0.799  0.0482 -0.0679 -0.5418
   32SOL    HW3  182   0.355   0.832   0.807  0.0095 -0.2521 -0.4585
   32SOL    MW4  183   0.436   0.849   0.778  0.0689  0.1613 -0.0630
   33SOL     OW  184   4.449   0.837   0.772  0.3614  0.3073 -0.0063
   33SOL    HW2  185   4.535   0.813   0.806  1.4451  0.0482 -2.7615
   33SOL    HW3  186   4.448   0.933   0.772  0.6434  0.3095  0.0945
   33SOL    MW4  187   4.460   0.847   0.776  0.5417  0.2733 -0.3566
   34SOL     OW  188   3.809   0.269   0.378 -0.1772  0.3142 -0.4586
   34SOL    HW2  189   3.807   0.359   0.408  0.4701  0.4410 -0.7837
   34SOL    HW3  190   3.850   0.273   0.291  2.1025 -0.5594  0.5313
   34SOL    MW4  191   3.814   0.281   0.370  0.2089  0.2156 -0.3709
   35SOL     OW  192   3.695   1.350   0.733  0.5314  0.6886 -0.1465
   35SOL    HW2  193   3.656   1.391   0.655  2.3129 -0.0361 -1.4483
   35SOL    HW3  194   3.757   1.286   0.698  1.9028  0.8657  1.8804
   35SOL    MW4  195   3.698   1.347   0.718  0.9472  0.6164 -0.0508
   36SOL     OW  196   2.448   2.006   0.460  0.2558  0.2562 -0.0525
   36SOL    HW2  197   2.387   1.933   0.459 -0.3128  0.7242  0.6326
   36SOL    HW3  198   2.530   1.969   0.427 -0.3387 -0.4107 -0.7855
   36SOL    MW4  199   2.451   1.992   0.456  0.1023  0.2300 -0.0589
   37SOL     OW  200   3.032   2.881   0.475  0.4426 -0.0874  0.1714
   37SOL    HW2  201   3.087   2.932   0.415 -0.2026  0.8405  0.3617
   37SOL    HW3  202   3.059   2.790   0.460  0.8262  0.1989 -0.9748
   37SOL    MW4  203   3.043   2.875   0.465  0.4082  0.0730  0.0453
   38SOL     OW  204   4.451   2.188   0.454  0.1909  0.2481 -0.3517
   38SOL    HW2  205   4.433   2.274   0.417 -0.4836  0.4991  0.5592
   38SOL    HW3  206   4.530   2.200   0.506  0.4310  0.1739 -0.6935
   38SOL    MW4  207   4.459   2.201   0.456  0.1335  0.2716 -0.2767
   39SOL     OW  208   0.250   0.735   0.448  0.5837  0.3682 -0.2503
   39SOL    HW2  209   0.313   0.663   0.452  0.6549  0.4913  1.0847
   39SOL    HW3  210   0.304   0.814   0.450  0.3869  0.5079  2.4608
   39SOL    MW4  211   0.265   0.736   0.449  0.5671  0.4028  0.2836
   40SOL     OW  212   1.798   2.464   0.741  0.1993  0.0758  0.1006
   40SOL    HW2  213   1.783   2.553   0.774 -1.0133  0.2767 -0.9652
   40SOL    HW3  214   1.723   2.414   0.773 -0.1990 -0.0785 -1.0605
   40SOL    MW4  215   1.787   2.469   0.750 -0.0135  0.0818 -0.1932
   41SOL     OW  216   4.229   3.102   0.830 -0.2596 -0.4427  0.0412
   41SOL    HW2  217   4.312   3.139   0.798  0.0198 -0.4696  0.7355
   41SOL    HW3  218   4.233   3.010   0.805 -0.0860 -0.4433  0.0679
   41SOL    MW4  219   4.241   3.095   0.822 -0.2003 -0.4463  0.1363
   42SOL     OW  220   0.622   2.846   0.749 -0.1155  0.6140  0.3722
   42SOL    HW2  221   0.611   2.847   0.654 -0.4821 -0.1078  0.4090
   42SOL    HW3  222   0.544   2.801   0.782  0.5158 -0.0659  0.9489
   42SOL    MW4  223   0.611   2.840   0.741 -0.0805  0.4289  0.4532
   43SOL     OW  224   1.595   0.403   0.479 -0.1757  0.3665 -0.1489
   43SOL    HW2  225   1.552   0.447   0.406  1.5655 -0.0137 -1.4520
   43SOL    HW3  226   1.545   0.322   0.491 -0.2458  0.2418 -1.2011
   43SOL    MW4  227   1.583   0.398   0.471  0.0446  0.2999 -0.4596
   44SOL     OW  228   0.954   3.717   0.102 -0.0751  0.2349  0.0943
   44SOL    HW2  229   1.035   3.767   0.096  0.2583 -0.1356  1.3476
   44SOL    HW3  230   0.910   3.732   0.018  1.7822 -0.4675 -1.0142
   44SOL    MW4  231   0.959   3.726   0.090  0.2139  0.0932  0.1134
   45SOL     OW  232   2.412   0.781   0.887 -0.0687 -0.1778  0.0752
   45SOL    HW2  233   2.418   0.703   0.833  3.5074 -0.7121  1.0727
   45SOL    HW3  234   2.483   0.837   0.857 -1.1663  1.7069  0.8810
   45SOL    MW4  235   2.422   0.778   0.876  0.2582  0.0004  0.3132
   46SOL     OW  236   2.125   4.490   0.464  0.2304  0.0575  0.2103
   46SOL    HW2  237   2.092   4.543   0.392 -0.2127 -0.2724  0.1723
   46SOL    HW3  238   2.220   4.487   0.450  0.2667  0.9243  0.2714
   46SOL    MW4  239   2.133   4.496   0.453  0.1767  0.1278  0.2133
   47SOL     OW  240   1.029   0.633   0.863  0.2886  0.1784 -0.3151
   47SOL    HW2  241   1.108   0.637   0.809 -0.3261  0.1878 -1.2341
   47SOL    HW3  242   1.053   0.676   0.945  1.3965 -0.3160 -0.3782
   47SOL    MW4  243   1.042   0.639   0.867  0.3536  0.1144 -0.4447
   48SOL     OW  244   2.229   4.012   0.459 -0.3041  0.3346  0.2446
   48SOL    HW2  245   2.155   4.070   0.439  0.1707 -0.4040 -4.2855
   48SOL    HW3  246   2.192   3.924   0.456  0.5573 -0.0046 -1.4944
   48SOL    MW4  247   2.214   4.008   0.456 -0.1278  0.1917 -0.5825
   49SOL     OW  248   0.722   4.413   0.750  0.0743 -0.4192 -0.0563
   49SOL    HW2  249   0.724   4.497   0.797 -0.2863  1.1864 -2.7869
   49SOL    HW3  250   0.800   4.367   0.781  1.3811  1.7586  0.0535
   49SOL    MW4  251   0.733   4.418   0.760  0.1992  0.0801 -0.4021
   50SOL     OW  252   1.120   3.593   0.705  0.2116 -0.0103  0.6225
   50SOL    HW2  253   1.123   3.686   0.727 -0.4989 -0.0085  0.7234
   50SOL    HW3  254   1.191   3.554   0.757  0.1264  0.3754  1.0347
   50SOL    MW4  255   1.130   3.600   0.715  0.1067  0.0408  0.6902
   51SOL     OW  256   3.775   3.094   0.849 -0.6113  0.2844 -0.4179
   51SOL    HW2  257   3.691   3.134   0.828 -0.7627 -0.2470 -0.8339
   51SOL    HW3  258   3.838   3.138   0.792 -0.6012  0.7075 -0.0797
   51SOL    MW4  259   3.772   3.105   0.839 -0.6297  0.2701 -0.4283
   52SOL     OW  260   1.398   1.132   0.895 -0.2352 -0.3042  0.1498
   52SOL    HW2  261   1.441   1.051   0.919  0.3202 -0.1646 -0.3770
   52SOL    HW3  262   1.467   1.186   0.857 -0.7106  0.2090  0.0038
   52SOL    MW4  263   1.413   1.129   0.893 -0.2248 -0.2180  0.0610
   53SOL     OW  264   0.822   2.729   0.350  0.2321 -0.3154 -0.3248
   53SOL    HW2  265   0.849   2.649   0.396 -0.1930  0.2686  0.9721
   53SOL    HW3  266   0.768   2.697   0.278  1.0884 -1.2689 -0.5522
   53SOL    MW4  267   0.818   2.714   0.347  0.2890 -0.3643 -0.1837
   54SOL     OW  268   2.654   1.645   0.438  0.1449  0.2466  0.0757
   54SOL    HW2  269   2.645   1.673   0.529 -0.3433 -0.2931  0.2018
   54SOL    HW3  270   2.740   1.604   0.434 -0.2739 -0.7227  0.5829
   54SOL    MW4  271   2.664   1.643   0.450  0.0255  0.0477  0.1593
   55SOL     OW  272   3.530   2.440   0.717  0.3655  0.9127 -0.0493
   55SOL    HW2  273   3.607   2.388   0.741  0.5152  1.2615  0.2419
   55SOL    HW3  274   3.546   2.526   0.758 -0.5718  0.7259  0.7360
   55SOL    MW4  275   3.542   2.445   0.726  0.2613  0.9344  0.0927
   56SOL     OW  276   1.381   4.006   0.726  0.1858  0.1953  0.2770
   56SOL    HW2  277   1.442   3.966   0.787 -0.4217  0.3217  0.9719
   56SOL    HW3  278   1.297   3.963   0.744 -0.1779  0.8285  0.1062
   56SOL    MW4  279   1.378   3.995   0.736  0.0577  0.2954  0.3461
   57SOL     OW  280   3.629   1.424   0.458 -0.1615  0.2388 -0.0192
   57SOL    HW2  281   3.545   1.456   0.424 -0.4011  1.5395  1.7040
   57SOL    HW3  282   3.694   1.484   0.422  0.0601 -0.8152 -1.4167
   57SOL    MW4  283   3.626   1.436   0.449 -0.1640  0.2714  0.0238
   58SOL     OW  284   3.992   1.629   0.728 -0.1612 -0.0396 -0.2803
   58SOL    HW2  285   4.035   1.576   0.795 -0.2428 -0.0017 -0.1982
   58SOL    HW3  286   4.031   1.599   0.645 -0.0303 -0.0562 -0.2126
   58SOL    MW4  287   4.003   1.618   0.726 -0.1550 -0.0367 -0.2605
   59SOL     OW  288   3.744   4.315   0.515 -0.1578 -0.6891 -0.5254
   59SOL    HW2  289   3.679   4.382   0.495 -0.2616 -0.8698 -0.7867
   59SOL    HW3  290   3.760   4.325   0.609  1.6900  1.3643 -1.0380
   59SOL    MW4  291   3.738   4.325   0.525  0.0725 -0.4425 -0.6275
   60SOL     OW  292   0.694   2.327   0.844 -0.4009  0.0519  0.0496
   60SOL    HW2  293   0.662   2.238   0.827 -0.1249 -0.1276  0.4761
   60SOL    HW3  294   0.700   2.333   0.939 -1.0021  0.7353  0.0465
   60SOL    MW4  295   0.690   2.316   0.854 -0.4439  0.1187  0.1055
   61SOL     OW  296   2.785   2.633   0.372  0.0160  0.0877  0.3135
   61SOL    HW2  297   2.739   2.571   0.429 -1.0750  0.7617  0.1894
   61SOL    HW3  298   2.878   2.619   0.392 -0.2185 -1.4002  0.4633
   61SOL    MW4  299   2.791   2.623   0.382 -0.1590 -0.0198  0.3169
   62SOL     OW  300   3.992   2.461   0.712 -0.0862 -0.0634  0.3370
   62SOL    HW2  301   3.919   2.432   0.767  0.4379  0.7657  1.4914
   62SOL    HW3  302   4.064   2.403   0.735 -0.5056 -1.2064 -1.1665
   62SOL    MW4  303   3.992   2.450   0.722 -0.0725 -0.1049  0.2910
   63SOL     OW  304   3.947   4.482   0.350  0.3451  0.0496  0.0437
   63SOL    HW2  305   3.868   4.446   0.392  1.1146 -0.7043  0.8797
   63SOL    HW3  306   3.933   4.468   0.257  0.0512 -1.2600  0.2728
   63SOL    MW4  307   3.935   4.475   0.343  0.4077 -0.2217  0.1842
   64SOL     OW  308   2.520   3.648   0.724  0.3590  0.2327 -0.2429
   64SOL    HW2  309   2.601   3.624   0.768 -0.0051  1.0980  0.9343
   64SOL    HW3  310   2.452   3.596   0.768  0.0804  0.5624 -0.2825
   64SOL    MW4  311   2.522   3.638   0.735  0.2742  0.3903 -0.0927
   65SOL     OW  312   1.264   0.981   0.481  0.1964  0.2502  0.1822
   65SOL    HW2  313   1.307   0.947   0.403 -0.1658 -1.0970  0.5399
   65SOL    HW3  314   1.268   1.076   0.472  0.3087  0.1115 -1.3826
   65SOL    MW4  315   1.270   0.989   0.470  0.1634  0.0542  0.0229
   66SOL     OW  316   0.298   4.438   0.509  0.2203 -0.7034  0.1818
   66SOL    HW2  317   0.273   4.406   0.595 -0.1008 -1.6515 -0.2654
   66SOL    HW3  318   0.216   4.465   0.469  0.1636 -1.7950 -0.4525
   66SOL    MW4  319   0.284   4.438   0.515  0.1704 -0.9727  0.0391
   67SOL     OW  320   4.250   1.793   0.389 -0.4521  0.1273  0.3964
   67SOL    HW2  321   4.281   1.725   0.449 -0.7686  0.4871  0.9674
   67SOL    HW3  322   4.330   1.839   0.361 -0.3540  0.2859  0.9367
   67SOL    MW4  323   4.265   1.790   0.393 -0.4811  0.1956  0.5430
   68SOL     OW  324   1.000   0.896   0.474  0.1158  0.4980  0.3801
   68SOL    HW2  325   1.088   0.933   0.477  0.1267  0.5290 -0.2990
   68SOL    HW3  326   1.004   0.828   0.407 -0.7607  1.5185 -0.7186
   68SOL    MW4  327   1.012   0.892   0.466  0.0017  0.6368  0.1456
   69SOL     OW  328   4.046   1.110   0.300 -0.1385  0.1503  0.4042
   69SOL    HW2  329   4.131   1.074   0.276 -0.2264 -1.0087  1.7673
   69SOL    HW3  330   4.066   1.196   0.338  0.3296  0.3097 -0.2039
   69SOL    MW4  331   4.060   1.117   0.302 -0.0887  0.0184  0.5038
   70SOL     OW  332   1.627   4.512   0.474  0.5100 -0.0241 -0.4480
   70SOL    HW2  333   1.549   4.516   0.418  1.6084 -0.8574 -2.0532
   70SOL    HW3  334   1.669   4.429   0.451  1.4117  0.0033  1.0416
   70SOL    MW4  335   1.622   4.501   0.464  0.7738 -0.1307 -0.4632
   71SOL     OW  336   4.253   0.727   0.373 -0.1998 -0.6904 -0.5160
   71SOL    HW2  337   4.326   0.758   0.426  0.8073 -1.3059 -1.5008
   71SOL    HW3  338   4.244   0.792   0.304 -0.1833 -0.9302 -0.7457
   71SOL    MW4  339   4.262   0.739   0.371 -0.0648 -0.8032 -0.6762
   72SOL     OW  340   1.793   1.572   0.373  0.3793 -0.1134  0.1974
   72SOL    HW2  341   1.865   1.635   0.367  1.0125 -0.7177  1.3105
   72SOL    HW3  342   1.719   1.623   0.407  0.1859  0.5627 -1.1779
   72SOL    MW4  343   1.792   1.587   0.377  0.4374 -0.1038  0.1628
   73SOL     OW  344   4.066   2.984   0.401  0.4470 -0.1579 -0.1226
   73SOL    HW2  345   4.008   2.908   0.403 -0.1618  0.2664 -1.0832
   73SOL    HW3  346   4.010   3.058   0.423  0.3510  0.4030 -2.1328
   73SOL    MW4  347   4.051   2.984   0.404  0.3538 -0.0277 -0.5146
   74SOL     OW  348   1.399   0.855   0.690 -0.2767 -0.5970 -0.3607
   74SOL    HW2  349   1.352   0.910   0.627 -0.4173  0.4736  0.6762
   74SOL    HW3  350   1.343   0.778   0.700 -0.0564 -0.9718 -1.8457
   74SOL    MW4  351   1.385   0.852   0.683 -0.2663 -0.5052 -0.4197
   75SOL     OW  352   1.198   2.514   0.446  0.1740 -0.0162 -0.1992
   75SOL    HW2  353   1.193   2.424   0.415  1.5083 -0.5146  0.9871
   75SOL    HW3  354   1.225   2.507   0.538 -0.3264  1.5669  0.1016
   75SOL    MW4  355   1.201   2.501   0.454  0.2842  0.1271 -0.0030
   76SOL     OW  356   3.417   4.383   0.185  0.0269 -0.0839 -0.0729
   76SOL    HW2  357   3.342   4.442   0.175  0.4281  0.3908 -0.2533
   76SOL    HW3  358   3.449   4.369   0.096 -0.3027 -0.8794 -0.0713
   76SOL    MW4  359   3.411   4.389   0.172  0.0365 -0.1264 -0.0965
   77SOL     OW  360   1.573   1.283   0.745 -0.2433  0.5286 -0.8779
   77SOL    HW2  361   1.655   1.242   0.717 -0.7828 -0.0799 -1.5858
   77SOL    HW3  362   1.522   1.291   0.664 -0.8808  0.8910 -0.4360
   77SOL    MW4  363   1.577   1.278   0.730 -0.3985  0.4960 -0.9130
   78SOL     OW  364   1.175   3.915   0.189 -0.1607  0.2607  0.1986
   78SOL    HW2  365   1.106   3.927   0.254  0.6509  1.2234  0.8994
   78SOL    HW3  366   1.212   4.002   0.177  0.6646 -0.1753 -0.4717
   78SOL    MW4  367   1.171   3.928   0.196  0.0552  0.3300  0.2026
   79SOL     OW  368   1.647   0.753   0.556  0.2312  0.4540  0.2678
   79SOL    HW2  369   1.663   0.680   0.616  1.5412 -0.1261 -0.7551
   79SOL    HW3  370   1.570   0.797   0.592  0.2289 -0.6344  1.6509
   79SOL    MW4  371   1.639   0.749   0.569  0.4036  0.2339  0.3154
   80SOL     OW  372   0.716   1.215   0.497 -0.4170 -0.6205  0.3541
   80SOL    HW2  373   0.651   1.285   0.489 -0.7727 -0.9240  0.6096
   80SOL    HW3  374   0.798   1.256   0.469 -1.0677 -0.7687 -1.8605
   80SOL    MW4  375   0.719   1.230   0.492 -0.5498 -0.6802  0.0956
   81SOL     OW  376   1.179   1.485   0.851 -0.3008  0.4748 -0.4239
   81SOL    HW2  377   1.117   1.524   0.790 -0.8799  0.5162  0.1912
   81SOL    HW3  378   1.175   1.391   0.832 -1.1923  0.3801  0.1942
   81SOL    MW4  379   1.171   1.478   0.841 -0.4948  0.4678 -0.2612
   82SOL     OW  380   0.672   0.668   0.510 -0.1371 -0.4930  0.3760
   82SOL    HW2  381   0.681   0.664   0.606 -0.1782 -0.7266  0.3690
   82SOL    HW3  382   0.692   0.759   0.489 -1.2898 -0.1368  0.7359
   82SOL    MW4  383   0.675   0.680   0.520 -0.2946 -0.4769  0.4226
   83SOL     OW  384   2.978   1.911   0.485 -0.1276 -0.4325 -0.1588
   83SOL    HW2  385   2.985   1.949   0.572 -1.3635 -0.9383  0.1725
   83SOL    HW3  386   3.046   1.954   0.434 -1.3899  2.1270  0.2407
   83SOL    MW4  387   2.988   1.922   0.490 -0.4570 -0.1614 -0.0624
   84SOL     OW  388   1.880   0.353   0.459  0.3142 -0.1844  0.2511
   84SOL    HW2  389   1.789   0.375   0.475  0.3380 -0.8244  1.2687
   84SOL    HW3  390   1.881   0.258   0.451  1.0145 -0.2450  1.0040
   84SOL    MW4  391   1.868   0.343   0.460  0.4097 -0.2768  0.4847
   85SOL     OW  392   3.998   0.741   0.466 -0.5210  0.4291 -0.0961
   85SOL    HW2  393   4.018   0.759   0.558 -0.3547 -1.5281  0.2649
   85SOL    HW3  394   4.083   0.726   0.425 -0.7189 -0.5209 -0.1666
   85SOL    MW4  395   4.012   0.741   0.473 -0.5250  0.0455 -0.0577
   86SOL     OW  396   1.970   2.062   0.812  0.5976  0.0824 -0.1588
   86SOL    HW2  397   1.964   2.056   0.716  2.3191 -1.2432 -0.2137
   86SOL    HW3  398   1.997   2.152   0.828  0.7730  0.1852 -0.9659
   86SOL    MW4  399   1.973   2.073   0.801  0.8479 -0.0789 -0.2726
   87SOL     OW  400   3.336   2.195   0.482  0.3040  0.3896  0.0860
   87SOL    HW2  401   3.322   2.166   0.572  1.0870 -0.2086  0.0244
   87SOL    HW3  402   3.368   2.117   0.436 -0.5604  0.5622 -0.8302
   87SOL    MW4  403   3.339   2.181   0.488  0.2930  0.3333 -0.0430
   88SOL     OW  404   1.736   2.937   0.368  0.4083 -0.4623 -0.4425
   88SOL    HW2  405   1.798   2.867   0.392  1.0854 -0.4174 -1.9718
   88SOL    HW3  406   1.759   2.958   0.277  0.2006  1.7407 -0.0092
   88SOL    MW4  407   1.747   2.931   0.359  0.4703 -0.1657 -0.5871
   89SOL     OW  408   1.365   0.426   0.824  0.4823  0.0640  0.2146
   89SOL    HW2  409   1.346   0.421   0.918  0.0688 -0.6771  0.1000
   89SOL    HW3  410   1.377   0.335   0.798  0.6385  0.2730 -0.4446
   89SOL    MW4  411   1.364   0.413   0.833  0.4483 -0.0062  0.1125
   90SOL     OW  412   1.759   2.708   0.865  0.4065  0.8610  0.0780
   90SOL    HW2  413   1.671   2.742   0.852  0.0958 -0.4664 -1.4273
   90SOL    HW3  414   1.817   2.779   0.839 -0.2327  0.8443 -1.4451
   90SOL    MW4  415   1.755   2.722   0.860  0.2813  0.6838 -0.3215
   91SOL     OW  416   2.932   4.655   0.879  0.4905 -0.0273 -0.3814
   91SOL    HW2  417   3.012   4.706   0.863  0.9440 -0.7512 -0.4646
   91SOL    HW3  418   2.949   4.571   0.836 -0.8827  0.3087 -1.6395
   91SOL    MW4  419   2.945   4.651   0.871  0.3691 -0.0787 -0.5584
   92SOL     OW  420   0.871   3.222   0.755  0.0731 -0.2931 -0.7469
   92SOL    HW2  421   0.884   3.309   0.793  1.1698 -1.1189  0.8605
   92SOL    HW3  422   0.793   3.188   0.801 -0.4454 -0.1098 -1.4824
   92SOL    MW4  423   0.862   3.229   0.766  0.1494 -0.3777 -0.6319
   93SOL     OW  424   1.114   2.288   0.819 -0.2507  0.2345 -0.1696
   93SOL    HW2  425   1.100   2.295   0.914  1.6081 -0.9651  0.2163
   93SOL    HW3  426   1.049   2.347   0.781 -2.2080 -0.6120  1.7579
   93SOL    MW4  427   1.104   2.297   0.827 -0.2635 -0.0355  0.1357
   94SOL     OW  428   1.184   2.254   0.388 -0.3319  0.2758  0.0896
   94SOL    HW2  429   1.274   2.238   0.416  0.2066  1.5007 -0.8451
   94SOL    HW3  430   1.137   2.174   0.410  1.2842 -0.9068 -0.5884
   94SOL    MW4  431   1.190   2.241   0.394 -0.0477  0.2816 -0.1231
   95SOL     OW  432   2.865   0.163   0.498  0.3102 -0.0464 -0.5443
   95SOL    HW2  433   2.812   0.104   0.445  0.1485 -1.1555  0.8304
   95SOL    HW3  434   2.839   0.144   0.588  1.8853  0.5195  0.0420
   95SOL    MW4  435   2.855   0.153   0.502  0.4964 -0.1181 -0.2856
   96SOL     OW  436   2.655   1.147   0.868  0.2807 -0.0447  0.0837
   96SOL    HW2  437   2.589   1.210   0.839  0.9686  0.3113 -0.7062
   96SOL    HW3  438   2.634   1.067   0.821  0.1685 -0.0476  0.1380
   96SOL    MW4  439   2.643   1.145   0.858  0.3564  0.0018 -0.0134
   97SOL     OW  440   1.150   3.856   0.770  0.0644  0.3253 -0.2018
   97SOL    HW2  441   1.075   3.909   0.742 -0.5510 -0.7909 -0.7157
   97SOL    HW3  442   1.143   3.855   0.866  0.1187  1.2198 -0.1868
   97SOL    MW4  443   1.139   3.863   0.779 -0.0097  0.2959 -0.2676
   98SOL     OW  444   0.409   2.670   0.538  0.0057 -0.1003  0.2473
   98SOL    HW2  445   0.470   2.730   0.494 -1.0476  0.1574 -0.8933
   98SOL    HW3  446   0.357   2.727   0.594 -0.6698  0.0113 -0.4724
   98SOL    MW4  447   0.410   2.685   0.539 -0.2224 -0.0513  0.0018
   99SOL     OW  448   0.133   0.170   0.470  0.0550 -0.0485 -0.5250
   99SOL    HW2  449   0.090   0.125   0.542 -0.0627  1.1906  0.1844
   99SOL    HW3  450   0.131   0.262   0.494  0.9372  0.2724 -1.6268
   99SOL    MW4  451   0.127   0.176   0.482  0.1559  0.1573 -0.5768
  100SOL     OW  452   3.230   3.911   0.312  0.1864 -0.1697  0.1639
  100SOL    HW2  453   3.234   3.944   0.222 -1.5208  0.2523  0.2359
  100SOL    HW3  454   3.280   3.976   0.362 -0.8407  0.8555 -0.1237
  100SOL    MW4  455   3.237   3.924   0.307 -0.1743  0.0210  0.1355
  101SOL     OW  456   1.437   2.269   0.511  0.2598 -0.1360  0.2254
  101SOL    HW2  457   1.394   2.323   0.577  0.7520 -0.3124  0.6871
  101SOL    HW3  458   1.483   2.332   0.455 -0.1637  0.0126  0.0368
  101SOL    MW4  459   1.437   2.285   0.512  0.2687 -0.1395  0.2614
  102SOL     OW  460   3.375   1.542   0.440  0.0834  0.1929 -0.0825
  102SOL    HW2  461   3.347   1.451   0.438  0.0177  0.1960  0.5172
  102SOL    HW3  462   3.295   1.592   0.456  0.2270  0.2975  0.3277
  102SOL    MW4  463   3.361   1.537   0.442  0.0932  0.2069  0.0507
  103SOL     OW  464   1.162   0.059   0.218  0.3540 -0.2856  0.4103
  103SOL    HW2  465   1.089   0.010   0.255 -0.6073  0.9039  0.1494
  103SOL    HW3  466   1.129   0.091   0.134  1.0899  0.4674  0.4005
  103SOL    MW4  467   1.148   0.057   0.212  0.3242 -0.0293  0.3746
  104SOL     OW  468   2.260   1.814   0.511 -0.3419  0.0316 -0.1277
  104SOL    HW2  469   2.166   1.816   0.491 -0.5320 -2.9795  0.3300
  104SOL    HW3  470   2.264   1.797   0.605  0.6920  0.9389  0.0011
  104SOL    MW4  471   2.248   1.812   0.520 -0.2303 -0.2459 -0.0503
  105SOL     OW  472   3.760   3.678   0.465  0.2574 -0.1616  0.0300
  105SOL    HW2  473   3.799   3.636   0.542  0.2228 -1.1834 -0.5011
  105SOL    HW3  474   3.667   3.684   0.485  0.3454  0.1780  0.3412
  105SOL    MW4  475   3.753   3.673   0.478  0.2646 -0.2515  0.0010
  106SOL     OW  476   1.105   2.811   0.756  0.0194 -0.0362  0.2439
  106SOL    HW2  477   1.078   2.816   0.664 -0.4961 -1.9633  0.2592
  106SOL    HW3  478   1.026   2.786   0.803  0.2352  1.1367  1.2626
  106SOL    MW4  479   1.091   2.808   0.750 -0.0201 -0.1357  0.3803
  107SOL     OW  480   1.988   0.794   0.851 -0.0181 -0.5470  0.3177
  107SOL    HW2  481   1.989   0.705   0.816  1.4386 -0.6378  0.5811
  107SOL    HW3  482   2.057   0.840   0.804 -0.2635  0.2354  0.7173
  107SOL    MW4  483   1.997   0.788   0.840  0.1417 -0.4558  0.4052
  108SOL     OW  484   2.751   1.280   0.434  0.4926 -0.0157  0.3045
  108SOL    HW2  485   2.745   1.193   0.395 -2.1938 -0.9622  2.6378
  108SOL    HW3  486   2.804   1.268   0.513  1.4247  0.7967 -0.1867
  108SOL    MW4  487   2.757   1.267   0.439  0.2611 -0.0334  0.5475
  109SOL     OW  488   1.070   2.002   0.507  0.0253  0.3408 -0.7775
  109SOL    HW2  489   1.069   2.020   0.601  0.6103  1.7881 -1.0293
  109SOL    HW3  490   0.981   2.018   0.478 -0.0272  0.4342 -0.5642
  109SOL    MW4  491   1.058   2.007   0.516  0.0954  0.5441 -0.7826
  110SOL     OW  492   0.765   2.060   0.499 -0.4438  0.1079  0.1043
  110SOL    HW2  493   0.742   2.148   0.471  1.0502  0.3408 -0.3905
  110SOL    HW3  494   0.736   2.056   0.590 -0.2417  1.2102  0.2241
  110SOL    MW4  495   0.758   2.071   0.507 -0.2201  0.2842  0.0548
  111SOL     OW  496   2.289   0.168   0.253  0.2631  0.7950 -0.1878
  111SOL    HW2  497   2.268   0.202   0.166  0.8427 -0.6032 -0.8899
  111SOL    HW3  498   2.219   0.106   0.272  0.4137  0.7189  0.1242
  111SOL    MW4  499   2.277   0.164   0.244  0.3593  0.6005 -0.2393
  112SOL     OW  500   0.148   2.635   0.382 -0.8051 -0.2351  0.1333
  112SOL    HW2  501   0.121   2.727   0.385 -0.7359 -0.2358  1.0151
  112SOL    HW3  502   0.232   2.634   0.427 -0.1160 -0.5011 -1.1479
  112SOL    MW4  503   0.155   2.647   0.388 -0.7050 -0.2704  0.0807
  113SOL     OW  504   0.637   2.062   0.758 -0.4878 -0.2130  0.2257
  113SOL    HW2  505   0.700   2.010   0.809 -0.9874 -0.0081  1.0595
  113SOL    HW3  506   0.555   2.013   0.764 -1.0611  0.8449  1.3376
  113SOL    MW4  507   0.635   2.048   0.765 -0.6293 -0.0463  0.4824
  114SOL     OW  508   2.282   0.914   0.510  0.0379  0.2996 -0.7999
  114SOL    HW2  509   2.292   1.005   0.481 -0.6123  0.5889 -0.1214
  114SOL    HW3  510   2.211   0.879   0.455  0.6511  0.0387 -1.4325
  114SOL    MW4  511   2.274   0.921   0.499  0.0331  0.3033 -0.7938
  115SOL     OW  512   1.618   1.742   0.503 -0.0950  0.3436  0.0518
  115SOL    HW2  513   1.616   1.836   0.487  0.8298  0.5808  1.2418
  115SOL    HW3  514   1.527   1.717   0.516 -0.4758  0.8216 -1.6177
  115SOL    MW4  515   1.606   1.751   0.503 -0.0235  0.4380 -0.0115
  116SOL     OW  516   3.812   0.990   0.395  0.1624  0.2940  0.4915
  116SOL    HW2  517   3.852   0.906   0.417  0.7216  0.4852  0.2280
  116SOL    HW3  518   3.880   1.036   0.346  0.0113  1.0607  0.9897
  116SOL    MW4  519   3.826   0.985   0.392  0.2162  0.4203  0.5225
  117SOL     OW  520   3.969   0.201   0.152 -0.2078  0.1740 -0.4767
  117SOL    HW2  521   3.975   0.172   0.061  0.7923 -0.4314 -0.2336
  117SOL    HW3  522   4.061   0.207   0.180 -0.5076  0.5594  0.4205
  117SOL    MW4  523   3.982   0.198   0.144 -0.1156  0.1450 -0.3262
  118SOL     OW  524   3.347   4.334   0.531 -0.1301 -0.0240 -0.1328
  118SOL    HW2  525   3.275   4.387   0.499  0.3701  1.2901  0.8873
  118SOL    HW3  526   3.426   4.384   0.511  0.3001  0.0156  1.5513
  118SOL    MW4  527   3.348   4.347   0.524 -0.0074  0.1540  0.2240
  119SOL     OW  528   2.426   4.443   0.714 -0.0446  0.1049 -0.2958
  119SOL    HW2  529   2.509   4.406   0.742  0.3128  1.2008  0.1372
  119SOL    HW3  530   2.427   4.533   0.748 -1.1324  0.3260 -0.8142
  119SOL    MW4  531   2.437   4.450   0.722 -0.1409  0.2794 -0.3071
  120SOL     OW  532   2.439   0.534   0.746 -0.0636  0.0986  0.0972
  120SOL    HW2  533   2.356   0.486   0.751  0.9514 -1.5443  1.4636
  120SOL    HW3  534   2.461   0.536   0.653 -1.1206 -0.3244 -0.1641
  120SOL    MW4  535   2.431   0.528   0.735 -0.0691 -0.1741  0.2430
  121SOL     OW  536   2.028   4.239   0.518 -0.1818 -0.5826 -0.0268
  121SOL    HW2  537   2.072   4.321   0.497  0.8617 -1.2560 -0.5293
  121SOL    HW3  538   2.002   4.248   0.610  0.0605  0.2415 -0.0356
  121SOL    MW4  539   2.030   4.251   0.528 -0.0124 -0.5622 -0.0943
  122SOL     OW  540   1.186   4.648   0.871  0.0346 -0.0857  0.1871
  122SOL    HW2  541   1.181   4.553   0.855  3.1441 -0.1443 -0.6908
  122SOL    HW3  542   1.105   4.682   0.833 -0.8167 -2.2967 -0.0985
  122SOL    MW4  543   1.175   4.640   0.864  0.3327 -0.3853  0.0336
  123SOL     OW  544   1.552   3.358   0.449  0.2341 -0.0740  0.1435
  123SOL    HW2  545   1.565   3.451   0.430  0.1949 -0.1407 -0.2194
  123SOL    HW3  546   1.640   3.320   0.447  0.0950 -0.3545 -1.3947
  123SOL    MW4  547   1.565   3.365   0.446  0.2105 -0.1199 -0.1073
  124SOL     OW  548   1.951   1.414   0.202 -0.2958 -0.1806  0.2340
  124SOL    HW2  549   1.893   1.339   0.191 -0.0598 -0.1301 -1.3931
  124SOL    HW3  550   1.892   1.488   0.218 -0.6666 -0.2204 -0.9144
  124SOL    MW4  551   1.936   1.414   0.203 -0.3136 -0.1792 -0.1321
  125SOL     OW  552   2.628   2.867   0.347 -0.6328 -0.2924  0.1571
  125SOL    HW2  553   2.628   2.871   0.251  1.1938  0.1502  0.1666
  125SOL    HW3  554   2.687   2.794   0.367  0.6534  0.9697  0.9921
  125SOL    MW4  555   2.636   2.858   0.337 -0.2222 -0.0677  0.2685
  126SOL     OW  556   3.299   1.246   0.489  0.0188 -0.3119  0.1345
  126SOL    HW2  557   3.299   1.287   0.575 -1.8053  2.4946 -1.1458
  126SOL    HW3  558   3.388   1.212   0.478  0.7128  0.6859  2.4484
  126SOL    MW4  559   3.311   1.247   0.499 -0.1302  0.1901  0.2709
  127SOL     OW  560   0.772   1.668   0.740  0.0449  0.3801  0.0960
  127SOL    HW2  561   0.742   1.703   0.656  0.5892 -0.0215 -0.2682
  127SOL    HW3  562   0.787   1.746   0.794  0.1649  0.6678 -0.3433
  127SOL    MW4  563   0.770   1.683   0.736  0.1325  0.3650 -0.0100
  128SOL     OW  564   0.494   4.017   0.705  0.2007 -0.0435 -0.0625
  128SOL    HW2  565   0.412   3.981   0.740 -0.5387  0.3280 -1.3815
  128SOL    HW3  566   0.502   4.103   0.747  0.5745 -0.6072  1.0310
  128SOL    MW4  567   0.484   4.024   0.715  0.1524 -0.0687 -0.0923
  129SOL     OW  568   3.060   2.599   0.429  0.1379  0.0661  0.3409
  129SOL    HW2  569   3.068   2.576   0.521 -0.0911  0.8363  0.5512
  129SOL    HW3  570   3.066   2.515   0.383  0.8524 -0.2570  1.0160
  129SOL    MW4  571   3.062   2.584   0.435  0.2022  0.1249  0.4577
  130SOL     OW  572   2.459   3.502   0.488  0.4660 -0.5251  0.3894
  130SOL    HW2  573   2.479   3.416   0.524 -0.2812 -0.4663  0.9495
  130SOL    HW3  574   2.469   3.563   0.561 -0.4152 -0.3225  0.3510
  130SOL    MW4  575   2.463   3.499   0.502  0.2511 -0.4909  0.4582
  131SOL     OW  576   3.535   1.747   0.539 -0.1979  0.4287 -0.3044
  131SOL    HW2  577   3.541   1.736   0.634  0.8817 -0.5812 -0.4731
  131SOL    HW3  578   3.477   1.677   0.509 -0.3129  0.5727 -0.4226
  131SOL    MW4  579   3.528   1.736   0.547 -0.0706  0.3145 -0.3422
  132SOL     OW  580   2.218   2.466   0.818 -0.4570  0.3290 -0.3188
  132SOL    HW2  581   2.302   2.421   0.828 -0.5219  0.3959  0.6185
  132SOL    HW3  582   2.153   2.397   0.829 -0.5362  0.4363 -0.1078
  132SOL    MW4  583   2.221   2.451   0.821 -0.4759  0.3517 -0.1673
  133SOL     OW  584   0.055   3.155   0.453  0.0764  0.1690  0.0626
  133SOL    HW2  585   0.087   3.065   0.460  0.7766  0.3189 -1.1009
  133SOL    HW3  586   0.126   3.202   0.409 -0.9445  0.9417 -0.7841
  133SOL    MW4  587   0.069   3.149   0.448  0.0341  0.2909 -0.2026
  134SOL     OW  588   0.952   4.567   0.368 -0.1403  0.0002 -0.3191
  134SOL    HW2  589   0.870   4.524   0.391 -0.3013  0.1738 -0.5669
  134SOL    HW3  590   1.020   4.512   0.407 -0.3650 -0.2681 -0.3072
  134SOL    MW4  591   0.950   4.554   0.376 -0.1912 -0.0124 -0.3502
  135SOL     OW  592   2.904   2.108   0.705  0.2606  0.4247 -0.3933
  135SOL    HW2  593   2.873   2.164   0.634 -0.9814 -0.2542 -0.3993
  135SOL    HW3  594   2.826   2.061   0.735  0.8682  0.3105  1.0636
  135SOL    MW4  595   2.890   2.109   0.700  0.1771  0.3202 -0.2018
  136SOL     OW  596   0.594   2.864   0.478 -0.0980 -0.2020 -0.3441
  136SOL    HW2  597   0.576   2.957   0.459 -2.0619 -0.3052  0.7919
  136SOL    HW3  598   0.682   2.849   0.445  0.2943  2.1140 -0.4467
  136SOL    MW4  599   0.603   2.875   0.472 -0.3054  0.0901 -0.2078
  137SOL     OW  600   3.176   1.001   0.476 -0.2196  0.0810 -0.0753
  137SOL    HW2  601   3.204   1.092   0.476  0.2303 -0.0522 -0.0367
  137SOL    HW3  602   3.147   0.984   0.566 -0.2455  0.1684 -0.0673
  137SOL    MW4  603   3.176   1.010   0.488 -0.1638  0.0750 -0.0692
  138SOL     OW  604   0.230   3.607   0.731 -0.3494  0.3594  0.2846
  138SOL    HW2  605   0.247   3.580   0.640  1.5361  0.7124  0.5269
  138SOL    HW3  606   0.255   3.699   0.734 -1.9870  0.8041  0.7606
  138SOL    MW4  607   0.235   3.615   0.719 -0.3167  0.4649  0.3793
  139SOL     OW  608   2.011   4.445   0.724 -0.2549  0.0674  0.0862
  139SOL    HW2  609   2.088   4.399   0.755 -0.0873  0.1900 -0.1386
  139SOL    HW3  610   2.033   4.469   0.634 -1.3006 -1.5662 -0.6255
  139SOL    MW4  611   2.024   4.442   0.716 -0.3705 -0.1321 -0.0375
  140SOL     OW  612   1.325   2.447   0.701  0.8227 -0.5093 -0.1352
  140SOL    HW2  613   1.330   2.537   0.733  0.7077 -0.4928 -0.1654
  140SOL    HW3  614   1.268   2.402   0.763  0.3868 -0.4140 -0.4610
  140SOL    MW4  615   1.318   2.453   0.713  0.7501 -0.4947 -0.1822
  141SOL     OW  616   3.024   0.565   0.333  0.3629 -0.8301  0.4680
  141SOL    HW2  617   3.036   0.536   0.243  0.4933  1.8822 -0.4443
  141SOL    HW3  618   2.938   0.533   0.359  0.4411 -1.8493 -0.5361
  141SOL    MW4  619   3.015   0.557   0.325  0.3905 -0.6067  0.2152
  142SOL     OW  620   3.195   4.535   0.123 -0.5630 -0.2138 -0.2439
  142SOL    HW2  621   3.100   4.521   0.117 -0.5535 -0.8079  0.8812
  142SOL    HW3  622   3.206   4.630   0.114 -1.5271  0.2094  2.4970
  142SOL    MW4  623   3.184   4.546   0.121 -0.6888 -0.2365  0.2662
  143SOL     OW  624   0.373   0.042   0.513  0.4190  0.1708  0.1427
  143SOL    HW2  625   0.359  -0.053   0.516  0.0077  0.2001 -0.7421
  143SOL    HW3  626   0.285   0.079   0.506  0.5584  0.6372  0.8520
  143SOL    MW4  627   0.359   0.034   0.512  0.3832  0.2362  0.1196
  144SOL     OW  628   1.160   4.412   0.498  0.3480 -0.0482  0.1360
  144SOL    HW2  629   1.235   4.467   0.477 -1.3110  1.7654 -1.2899
  144SOL    HW3  630   1.182   4.326   0.463  1.6135  0.5446 -0.5504
  144SOL    MW4  631   1.172   4.408   0.491  0.2961  0.2694 -0.1427
  145SOL     OW  632   4.310   4.413   0.700 -0.4877  0.2907  0.1846
  145SOL    HW2  633   4.371   4.357   0.747 -1.2324 -0.1559  0.6232
  145SOL    HW3  634   4.291   4.485   0.760  0.6759  1.1645 -0.4807
  145SOL    MW4  635   4.315   4.415   0.714 -0.4325  0.3467  0.1547
  146SOL     OW  636   2.149   1.400   0.394  0.1369  0.3305  0.3999
  146SOL    HW2  637   2.204   1.478   0.385 -1.8478  1.7828  0.5427
  146SOL    HW3  638   2.082   1.409   0.326  0.0494 -1.4091  0.2173
  146SOL    MW4  639   2.147   1.411   0.383 -0.1361  0.2925  0.3946
  147SOL     OW  640   3.585   0.113   0.477  0.3733  0.2230  0.0280
  147SOL    HW2  641   3.609   0.121   0.570  1.0201 -0.2009 -0.1047
  147SOL    HW3  642   3.659   0.150   0.429  0.3745 -0.2629 -0.3465
  147SOL    MW4  643   3.598   0.119   0.483  0.4587  0.1030 -0.0390
  148SOL     OW  644   0.554   3.926   0.468 -0.2701  0.3104 -0.3752
  148SOL    HW2  645   0.492   3.972   0.411 -1.2675  0.5016  0.8509
  148SOL    HW3  646   0.534   3.957   0.556  1.7278  0.5481  0.0255
  148SOL    MW4  647   0.543   3.936   0.472 -0.1381  0.3669 -0.1606
  149SOL     OW  648   1.451   0.157   0.517  0.3082 -0.4803  0.2510
  149SOL    HW2  649   1.373   0.202   0.482  0.1912 -0.5556  0.4160
  149SOL    HW3  650   1.434   0.149   0.611  1.3433  1.1874  0.6056
  149SOL    MW4  651   1.438   0.162   0.524  0.4295 -0.2702  0.3196
  150SOL     OW  652   3.219   3.090   0.414  0.4866  0.0870 -0.5117
  150SOL    HW2  653   3.194   3.182   0.408 -0.7999 -0.2931 -0.9463
  150SOL    HW3  654   3.254   3.080   0.503 -0.3652  0.7411 -0.1042
  150SOL    MW4  655   3.221   3.101   0.425  0.2046  0.1233 -0.5153
  151SOL     OW  656   2.077   0.524   0.458  0.2189 -0.1697 -0.1337
  151SOL    HW2  657   2.008   0.458   0.452 -0.6099  0.5159  1.3488
  151SOL    HW3  658   2.159   0.474   0.463 -0.3252 -1.0519 -0.0434
  151SOL    MW4  659   2.079   0.509   0.458  0.0377 -0.1957  0.0738
  152SOL     OW  660   2.916   4.401   0.734 -0.1199  0.0740  0.0808
  152SOL    HW2  661   2.837   4.383   0.785  0.2013  0.3920  0.6941
  152SOL    HW3  662   2.983   4.346   0.774  0.0562  0.0744 -0.2140
  152SOL    MW4  663   2.914   4.391   0.746 -0.0541  0.1154  0.1227
  153SOL     OW  664   1.804   0.376   0.866  0.4034  0.0938 -0.1387
  153SOL    HW2  665   1.740   0.434   0.826 -0.1917 -0.5084 -0.0738
  153SOL    HW3  666   1.800   0.296   0.814  1.1907  0.0883 -0.2058
  153SOL    MW4  667   1.795   0.373   0.854  0.4289  0.0136 -0.1389
  154SOL     OW  668   0.713   3.523   0.492  0.2366  0.0608  0.6858
  154SOL    HW2  669   0.722   3.429   0.476  0.0907  0.4293 -1.7329
  154SOL    HW3  670   0.793   3.561   0.457  0.2832  0.8574  1.6359
  154SOL    MW4  671   0.725   3.516   0.485  0.2235  0.2146  0.4920
  155SOL     OW  672   1.179   0.539   0.446  0.1270 -0.0050  0.4478
  155SOL    HW2  673   1.185   0.444   0.452  0.4534 -0.0532 -0.5246
  155SOL    HW3  674   1.085   0.557   0.444  0.0649 -0.3052  0.6583
  155SOL    MW4  675   1.167   0.529   0.447  0.1619 -0.0509  0.3473
  156SOL     OW  676   2.619   0.907   0.726 -0.0335 -0.0697  0.2755
  156SOL    HW2  677   2.589   0.873   0.642 -1.4194 -0.0461  0.7475
  156SOL    HW3  678   2.707   0.870   0.736  0.5856  0.8147 -1.6737
  156SOL    MW4  679   2.627   0.897   0.716 -0.1347  0.0501  0.0806
  157SOL     OW  680   2.882   2.382   0.856 -0.1059 -0.2475  0.2520
  157SOL    HW2  681   2.884   2.290   0.829  0.3465 -0.4017  0.8077
  157SOL    HW3  682   2.905   2.381   0.948  0.4115  0.4699  0.1373
  157SOL    MW4  683   2.886   2.370   0.864  0.0219 -0.1733  0.3101
  158SOL     OW  684   1.394   0.896   0.257  0.5053  0.2036 -0.4361
  158SOL    HW2  685   1.392   0.869   0.165  0.5773 -0.3141 -0.2880
  158SOL    HW3  686   1.484   0.926   0.270  1.0578 -1.5862 -0.0151
  158SOL    MW4  687   1.406   0.896   0.247  0.5876 -0.1009 -0.3610
  159SOL     OW  688   0.680   0.438   0.764 -0.0064  0.4030 -0.1015
  159SOL    HW2  689   0.686   0.404   0.675 -1.5232 -0.6506  0.1853
  159SOL    HW3  690   0.762   0.412   0.806  0.8122  1.0993 -1.2423
  159SOL    MW4  691   0.692   0.430   0.758 -0.0986  0.3559 -0.2142
  160SOL     OW  692   0.001   0.087   0.704  0.3458 -0.0478 -0.4400
  160SOL    HW2  693  -0.090   0.062   0.724 -0.5377  1.6648 -2.1704
  160SOL    HW3  694   0.011   0.173   0.744  0.9939  0.0654 -0.8429
  160SOL    MW4  695  -0.010   0.095   0.712  0.3147  0.1931 -0.7215
  161SOL     OW  696   0.423   1.695   0.480  0.4850 -0.1281 -0.4696
  161SOL    HW2  697   0.431   1.678   0.574  0.4750  1.3738 -0.1905
  161SOL    HW3  698   0.448   1.612   0.438 -0.6400 -1.1670  0.8774
  161SOL    MW4  699   0.427   1.682   0.487  0.3353 -0.0670 -0.2551
  162SOL     OW  700   3.525   3.348   0.453  0.0191  0.1483  0.0781
  162SOL    HW2  701   3.609   3.379   0.417 -0.2703  1.2160  0.2908
  162SOL    HW3  702   3.530   3.253   0.448  0.5394  0.2477 -1.5533
  162SOL    MW4  703   3.537   3.340   0.447  0.0496  0.3023 -0.1092
  163SOL     OW  704   0.416   0.518   0.483 -0.2222 -0.2390 -0.3760
  163SOL    HW2  705   0.502   0.559   0.489 -0.2636 -0.2895  0.5561
  163SOL    HW3  706   0.434   0.429   0.452 -0.1853  0.6486 -3.0382
  163SOL    MW4  707   0.429   0.512   0.479 -0.2228 -0.1286 -0.6042
  164SOL     OW  708   0.091   2.883   0.501 -0.1568 -0.4897  0.0472
  164SOL    HW2  709  -0.004   2.876   0.511 -0.1919  0.1644  0.2388
  164SOL    HW3  710   0.126   2.860   0.587 -0.2107  0.4330  0.3288
  164SOL    MW4  711   0.083   2.879   0.514 -0.1685 -0.2818  0.1096
  165SOL     OW  712   2.718   0.121   0.736  0.4136  0.0745 -0.1749
  165SOL    HW2  713   2.711   0.215   0.751  1.1370  0.1029  0.0018
  165SOL    HW3  714   2.780   0.091   0.803 -0.7532 -0.7263  0.5799
  165SOL    MW4  715   2.725   0.129   0.747  0.3552 -0.0274 -0.0520
  166SOL     OW  716   0.916   1.079   0.871  0.1337 -0.0524  0.0612
  166SOL    HW2  717   0.908   0.990   0.839 -1.6935 -0.2134  0.9107
  166SOL    HW3  718   0.835   1.122   0.843 -0.3864  0.4708  2.2788
  166SOL    MW4  719   0.905   1.073   0.863 -0.1761 -0.0046  0.4658
  167SOL     OW  720   4.480   3.216   0.718  0.2856 -0.5179  0.0652
  167SOL    HW2  721   4.496   3.219   0.624  0.4838 -0.1459  0.1131
  167SOL    HW3  722   4.499   3.304   0.750 -1.7136 -0.0829  0.1420
  167SOL    MW4  723   4.484   3.228   0.710  0.0477 -0.4113  0.0817
  168SOL     OW  724   2.025   4.638   0.255 -0.0096  0.4669 -0.1386
  168SOL    HW2  725   1.961   4.667   0.321 -0.1497  0.2226 -0.1667
  168SOL    HW3  726   1.984   4.562   0.214  0.2661  0.3590 -0.2136
  168SOL    MW4  727   2.011   4.632   0.259  0.0081  0.4206 -0.1522
  169SOL     OW  728   2.932   0.863   0.362  0.1585 -0.0715  0.0469
  169SOL    HW2  729   3.008   0.918   0.380  1.4356 -1.9144  0.4360
  169SOL    HW3  730   2.965   0.773   0.369 -1.8544 -0.8970 -0.6523
  169SOL    MW4  731   2.946   0.858   0.366  0.0615 -0.4236  0.0060
  170SOL     OW  732   2.212   2.423   0.538  0.6085 -0.3132  0.3439
  170SOL    HW2  733   2.192   2.506   0.496  1.0148  0.1664  1.0763
  170SOL    HW3  734   2.218   2.444   0.632  0.2973 -1.2420  0.5854
  170SOL    MW4  735   2.210   2.436   0.545  0.6213 -0.3724  0.4724
  171SOL     OW  736   3.903   3.200   0.483  0.0908  0.2477  0.3414
  171SOL    HW2  737   3.890   3.290   0.452  1.6206  0.3144 -0.1391
  171SOL    HW3  738   3.930   3.209   0.574  0.4519  0.2897  0.2312
  171SOL    MW4  739   3.905   3.213   0.491  0.3402  0.2620  0.2635
  172SOL     OW  740   1.531   2.496   0.377 -0.4157 -0.5401 -0.1507
  172SOL    HW2  741   1.520   2.489   0.283 -1.1684 -1.1312 -0.0259
  172SOL    HW3  742   1.507   2.586   0.398  0.7214 -0.1164 -0.6455
  172SOL    MW4  743   1.526   2.507   0.368 -0.3649 -0.5622 -0.1995
  173SOL     OW  744   1.290   3.273   0.463 -0.1943 -0.1194 -0.0802
  173SOL    HW2  745   1.298   3.274   0.558 -0.6819  0.5696 -0.0431
  173SOL    HW3  746   1.375   3.305   0.431  0.2189 -1.0172  0.0994
  173SOL    MW4  747   1.303   3.277   0.471 -0.2041 -0.1469 -0.0516
  174SOL     OW  748   1.544   4.438   0.759  0.1069 -0.3462 -0.0549
  174SOL    HW2  749   1.631   4.402   0.779  0.1656  0.9243  2.0353
  174SOL    HW3  750   1.556   4.478   0.672  1.1029 -1.7564 -0.6064
  174SOL    MW4  751   1.557   4.438   0.750  0.2460 -0.3648  0.1482
  175SOL     OW  752   4.319   3.389   0.383  0.3950 -0.2455 -0.0973
  175SOL    HW2  753   4.267   3.344   0.316 -0.7953 -0.8052  1.1821
  175SOL    HW3  754   4.372   3.319   0.422  0.2451 -0.1307  0.3137
  175SOL    MW4  755   4.319   3.374   0.379  0.2184 -0.3042  0.1257
  176SOL     OW  756   2.927   3.991   0.475  0.0913  0.1321  0.0711
  176SOL    HW2  757   2.980   4.005   0.554  0.6318  0.0142 -0.2646
  176SOL    HW3  758   2.985   4.017   0.404 -0.2230 -0.2509 -0.3210
  176SOL    MW4  759   2.942   3.997   0.476  0.1211  0.0660 -0.0249
  177SOL     OW  760   2.015   2.307   0.884 -0.1862  0.3722  0.0179
  177SOL    HW2  761   2.018   2.329   0.977 -0.0573  0.8709 -0.1045
  177SOL    HW3  762   1.937   2.352   0.851 -0.2252  0.2060 -0.1192
  177SOL    MW4  763   2.005   2.316   0.892 -0.1745  0.4160 -0.0164
  178SOL     OW  764   2.434   4.188   0.386  0.8957 -0.0028 -0.2051
  178SOL    HW2  765   2.378   4.113   0.403  1.9611 -0.6477  0.5086
  178SOL    HW3  766   2.519   4.163   0.422  1.8989  0.5833 -2.1279
  178SOL    MW4  767   2.438   4.175   0.393  1.1685 -0.0105 -0.3646
  179SOL     OW  768   1.713   4.019   0.477 -0.0174 -0.2818 -0.5692
  179SOL    HW2  769   1.621   4.020   0.453  0.3064 -0.5800 -1.8585
  179SOL    HW3  770   1.752   3.951   0.422  1.2718  0.9156 -1.1671
  179SOL    MW4  771   1.706   4.010   0.467  0.1954 -0.1631 -0.8182
  180SOL     OW  772   2.313   0.364   0.467  0.0140 -0.8335 -0.2522
  180SOL    HW2  773   2.321   0.302   0.395  0.2729 -2.8373  1.4476
  180SOL    HW3  774   2.392   0.418   0.461  0.9343 -2.1689 -0.4177
  180SOL    MW4  775   2.325   0.363   0.457  0.1695 -1.2741 -0.0498
  181SOL     OW  776   2.376   2.871   0.461  0.2773  0.1546  0.2224
  181SOL    HW2  777   2.460   2.871   0.415  0.0611  0.0702 -0.1734
  181SOL    HW3  778   2.397   2.838   0.548  0.6386  0.0209  0.0866
  181SOL    MW4  779   2.390   2.867   0.466  0.2964  0.1259  0.1523
  182SOL     OW  780   3.782   2.076   0.716 -0.1165  0.3259  0.4968
  182SOL    HW2  781   3.690   2.051   0.723 -0.1947  0.2526 -0.7137
  182SOL    HW3  782   3.803   2.064   0.624  1.2724 -0.2107  0.8768
  182SOL    MW4  783   3.773   2.071   0.705  0.0565  0.2453  0.3873
  183SOL     OW  784   1.016   1.580   0.660  0.3598 -0.7876  0.3404
  183SOL    HW2  785   1.003   1.505   0.601  0.1069 -0.1983 -0.3601
  183SOL    HW3  786   0.928   1.607   0.684  0.3418  0.8108 -1.3687
  183SOL    MW4  787   1.003   1.574   0.655  0.3240 -0.4991  0.0225
  184SOL     OW  788   2.665   1.766   0.180  0.5358  0.0100  0.2126
  184SOL    HW2  789   2.654   1.712   0.258  1.4684 -0.7353 -0.1660
  184SOL    HW3  790   2.607   1.727   0.115  0.2917  0.2041  0.3129
  184SOL    MW4  791   2.656   1.754   0.182  0.6268 -0.0627  0.1759
  185SOL     OW  792   1.124   1.732   0.465 -0.0844  0.1519 -0.5599
  185SOL    HW2  793   1.087   1.687   0.542  0.7250  0.2412 -0.1177
  185SOL    HW3  794   1.104   1.824   0.479  0.1740  0.1833 -0.3889
  185SOL    MW4  795   1.116   1.738   0.477  0.0564  0.1676 -0.4790
  186SOL     OW  796   2.775   3.471   0.410  0.2439 -0.2938 -0.1186
  186SOL    HW2  797   2.822   3.552   0.430 -0.2051 -0.1687  0.4505
  186SOL    HW3  798   2.684   3.498   0.402  0.0022 -0.8338  0.7138
  186SOL    MW4  799   2.769   3.485   0.412  0.1526 -0.3486  0.0663
  187SOL     OW  800   2.920   2.833   0.737  0.2214  0.0464  0.2606
  187SOL    HW2  801   2.949   2.849   0.647  1.8217  0.9343  0.9029
  187SOL    HW3  802   2.995   2.792   0.779  0.2399  1.5122  1.7165
  187SOL    MW4  803   2.933   2.830   0.731  0.4349  0.3569  0.5375
  188SOL     OW  804   4.391   3.969   0.434  0.0144 -0.8183 -0.4969
  188SOL    HW2  805   4.296   3.982   0.434  0.2760  1.2631 -0.2890
  188SOL    HW3  806   4.425   4.042   0.382  1.5068 -1.5709 -0.6031
  188SOL    MW4  807   4.383   3.981   0.427  0.2460 -0.6435 -0.4835
  189SOL     OW  808   1.358   4.587   0.407 -0.0511  0.4972  0.3616
  189SOL    HW2  809   1.398   4.669   0.438 -0.3701  0.6047  0.4887
  189SOL    HW3  810   1.308   4.613   0.329 -0.2515  0.4449  0.4735
  189SOL    MW4  811   1.357   4.601   0.401 -0.1197  0.5045  0.3931
  190SOL     OW  812   0.034   4.491   0.442 -0.2584  0.1717 -0.2478
  190SOL    HW2  813  -0.008   4.558   0.389  0.5207  0.1746 -0.8758
  190SOL    HW3  814  -0.014   4.491   0.525 -0.8511  0.8526 -0.5934
  190SOL    MW4  815   0.022   4.500   0.446 -0.2341  0.2623 -0.3762
  191SOL     OW  816   1.576   3.603   0.751 -0.3368  0.1442 -0.2247
  191SOL    HW2  817   1.657   3.558   0.774 -1.5052 -1.7538  0.2937
  191SOL    HW3  818   1.583   3.616   0.656 -0.0264 -1.3127 -0.4292
  191SOL    MW4  819   1.587   3.598   0.741 -0.4500 -0.2983 -0.1833
  192SOL     OW  820   4.420   2.438   0.740  0.0590  0.4516 -0.1406
  192SOL    HW2  821   4.511   2.417   0.761 -0.0782 -0.2443 -0.2508
  192SOL    HW3  822   4.419   2.451   0.646  0.0258  0.3828 -0.1494
  192SOL    MW4  823   4.432   2.437   0.731  0.0367  0.3505 -0.1563
  193SOL     OW  824   0.458   2.453   0.810  0.2228  0.5418 -0.5982
  193SOL    HW2  825   0.457   2.446   0.715 -0.4031 -0.5399 -0.5284
  193SOL    HW3  826   0.540   2.412   0.837 -0.4531 -0.8374 -0.5775
  193SOL    MW4  827   0.468   2.447   0.801  0.0511  0.2172 -0.5862
  194SOL     OW  828   2.786   4.626   0.327 -0.8828 -0.2282  0.0305
  194SOL    HW2  829   2.698   4.628   0.288  0.0582 -0.8247 -2.1897
  194SOL    HW3  830   2.787   4.546   0.379 -1.1710 -1.0288 -1.1698
  194SOL    MW4  831   2.774   4.616   0.328 -0.7966 -0.4125 -0.4208
  195SOL     OW  832   1.972   2.847   0.762  0.2480 -0.3261 -0.2822
  195SOL    HW2  833   2.052   2.801   0.789 -1.8780 -3.0998  1.7338
  195SOL    HW3  834   1.971   2.842   0.667  0.9420 -3.1219 -0.1799
  195SOL    MW4  835   1.982   2.840   0.753  0.0591 -1.0610 -0.0027
  196SOL     OW  836   0.424   2.391   0.534 -0.0472  0.1037 -0.0525
  196SOL    HW2  837   0.425   2.487   0.527 -1.4329 -0.0312 -2.9758
  196SOL    HW3  838   0.501   2.363   0.484  0.0721 -0.3359  0.3773
  196SOL    MW4  839   0.434   2.400   0.527 -0.2143  0.0281 -0.3815
  197SOL     OW  840   2.676   0.381   0.847  0.0224  0.0766 -0.1930
  197SOL    HW2  841   2.605   0.443   0.831 -0.3611 -0.2546  0.2142
  197SOL    HW3  842   2.682   0.376   0.943  0.8117  0.3492 -0.2184
  197SOL    MW4  843   2.668   0.389   0.858  0.0761  0.0688 -0.1427
  198SOL     OW  844   2.232   4.033   0.734  0.0930  0.7362  0.2821
  198SOL    HW2  845   2.157   3.981   0.765 -0.8542  1.3550 -0.9059
  198SOL    HW3  846   2.238   4.013   0.641  0.7330  1.5098  0.1540
  198SOL    MW4  847   2.223   4.024   0.726  0.0525  0.9203  0.1085
  199SOL     OW  848   0.959   0.095   0.767 -0.4007  0.2602 -0.1095
  199SOL    HW2  849   0.959   0.187   0.796  0.6625  0.5139 -0.9014
  199SOL    HW3  850   0.882   0.057   0.810 -0.6626  1.4364  0.4930
  199SOL    MW4  851   0.949   0.102   0.776 -0.2949  0.4489 -0.1344
  200SOL     OW  852   0.478   3.677   0.365  0.1886 -0.5860  0.1731
  200SOL    HW2  853   0.513   3.758   0.402 -0.9517 -0.1024  0.2119
  200SOL    HW3  854   0.544   3.611   0.386  1.9844  0.6675 -1.4298
  200SOL    MW4  855   0.491   3.679   0.373  0.2751 -0.3564 -0.0333
  201SOL     OW  856   0.278   1.191   0.483 -0.0524 -0.4498  0.1597
  201SOL    HW2  857   0.193   1.164   0.447 -0.5027  0.4828  0.5000
  201SOL    HW3  858   0.338   1.120   0.460 -0.7260 -0.6911 -0.8893
  201SOL    MW4  859   0.275   1.178   0.475 -0.2007 -0.3586  0.0662
  202SOL     OW  860   3.558   4.483   0.421  0.4659 -0.1838 -0.0515
  202SOL    HW2  861   3.508   4.459   0.343 -1.7649 -0.3829  1.3845
  202SOL    HW3  862   3.551   4.579   0.426  2.5919  0.0722 -1.3514
  202SOL    MW4  863   3.550   4.493   0.412  0.4518 -0.1769 -0.0335
  203SOL     OW  864   4.009   0.833   0.742  0.2988  0.1425 -0.5370
  203SOL    HW2  865   4.023   0.924   0.767 -0.0049  0.3413 -1.0934
  203SOL    HW3  866   3.924   0.811   0.779 -0.3030  0.5374 -1.6643
  203SOL    MW4  867   4.000   0.842   0.750  0.1795  0.2209 -0.7592
  204SOL     OW  868   0.696   0.322   0.517  0.0128  0.7906  0.8108
  204SOL    HW2  869   0.767   0.261   0.497 -0.2375  0.6891  0.2116
  204SOL    HW3  870   0.628   0.301   0.453 -0.2937  1.3268  0.9589
  204SOL    MW4  871   0.697   0.311   0.506 -0.0607  0.8480  0.7512
  205SOL     OW  872   4.395   1.678   0.777 -0.4508 -0.2125  0.5077
  205SOL    HW2  873   4.321   1.629   0.812 -0.0664 -0.1241  1.4763
  205SOL    HW3  874   4.471   1.621   0.793 -0.4799 -0.9407 -1.7911
  205SOL    MW4  875   4.395   1.664   0.784 -0.4039 -0.2968  0.3322
  206SOL     OW  876   3.400   4.134   0.341  0.7295  0.3678 -0.1399
  206SOL    HW2  877   3.357   4.192   0.404  0.2067 -0.1265 -0.0301
  206SOL    HW3  878   3.428   4.191   0.270 -0.1382  0.6843 -0.2238
  206SOL    MW4  879   3.398   4.149   0.340  0.5460  0.3448 -0.1365
  207SOL     OW  880   3.631   4.067   0.483  0.1841  0.4466 -0.0354
  207SOL    HW2  881   3.555   4.066   0.425  0.0492  0.0173  0.1465
  207SOL    HW3  882   3.657   4.159   0.487  1.6971  0.1767 -2.7542
  207SOL    MW4  883   3.624   4.079   0.476  0.3657  0.3543 -0.3702
  208SOL     OW  884   3.242   3.372   0.411  0.3082 -0.2640 -0.0360
  208SOL    HW2  885   3.229   3.466   0.400  0.4226 -0.2177  0.2198
  208SOL    HW3  886   3.333   3.363   0.437  0.7463 -0.5779 -1.6271
  208SOL    MW4  887   3.252   3.383   0.413  0.3808 -0.2995 -0.2122
  209SOL     OW  888   4.199   0.218   0.323 -0.8853  0.5274  0.6056
  209SOL    HW2  889   4.234   0.305   0.346  0.3577  0.1173  0.3121
  209SOL    HW3  890   4.146   0.193   0.398 -0.4218  1.1124  1.1332
  209SOL    MW4  891   4.197   0.227   0.336 -0.6604  0.5505  0.6365
  210SOL     OW  892   2.872   1.538   0.803 -0.4423 -0.1698 -0.0588
  210SOL    HW2  893   2.881   1.448   0.773 -0.5110 -0.6040  1.1754
  210SOL    HW3  894   2.955   1.580   0.782 -0.5411 -0.4203 -0.9589
  210SOL    MW4  895   2.884   1.532   0.796 -0.4644 -0.2601 -0.0148
  211SOL     OW  896   3.999   0.083   0.496  0.2335  0.0612 -0.5236
  211SOL    HW2  897   4.012  -0.004   0.459  0.0214 -0.0332 -0.3719
  211SOL    HW3  898   3.944   0.128   0.432 -1.1867 -0.5106  0.2786
  211SOL    MW4  899   3.993   0.078   0.482  0.0181 -0.0266 -0.3977
  212SOL     OW  900   2.910   0.509   0.731 -0.5024 -0.4422 -0.4467
  212SOL    HW2  901   2.833   0.490   0.785  0.8298 -2.9201  0.6623
  212SOL    HW3  902   2.985   0.488   0.788  0.9960  1.2112 -1.7543
  212SOL    MW4  903   2.910   0.504   0.746 -0.1290 -0.5510 -0.4728
  213SOL     OW  904   2.536   3.242   0.553  0.3528 -0.4028  0.1479
  213SOL    HW2  905   2.527   3.198   0.638  0.7447 -2.0650 -0.6432
  213SOL    HW3  906   2.464   3.209   0.501  0.7146 -0.1844 -0.4962
  213SOL    MW4  907   2.526   3.232   0.558  0.4523 -0.5932 -0.0415
  214SOL     OW  908   0.010   1.107   0.384  0.6878 -0.4759 -0.1955
  214SOL    HW2  909   0.003   1.021   0.427 -1.4563 -0.0303  0.4174
  214SOL    HW3  910  -0.034   1.167   0.444  1.7679  0.9807 -0.8504
  214SOL    MW4  911   0.003   1.103   0.397  0.5474 -0.2251 -0.2010
  215SOL     OW  912   4.413   1.594   0.519  0.0474 -0.0373  0.5087
  215SOL    HW2  913   4.399   1.609   0.612  0.1675 -0.3737  0.5841
  215SOL    HW3  914   4.482   1.656   0.494 -0.0870  0.1500  0.6130
  215SOL    MW4  915   4.421   1.604   0.528  0.0453 -0.0571  0.5324
  216SOL     OW  916   4.023   1.902   0.833 -0.0543 -0.1009  0.4753
  216SOL    HW2  917   3.946   1.954   0.813  0.0351  0.1176  0.6943
  216SOL    HW3  918   4.005   1.817   0.794 -0.2850  0.0355  0.2845
  216SOL    MW4  919   4.010   1.897   0.825 -0.0725 -0.0541  0.4790
  217SOL     OW  920   2.227   4.287   0.813  0.0594  0.1960  0.1270
  217SOL    HW2  921   2.230   4.196   0.782 -1.2227  0.1031  0.2412
  217SOL    HW3  922   2.300   4.330   0.768  0.1960 -0.7030 -0.5331
  217SOL    MW4  923   2.237   4.281   0.803 -0.0918  0.0648  0.0550
  218SOL     OW  924   2.532   4.635   0.249 -0.2954  0.1972  0.5169
  218SOL    HW2  925   2.487   4.717   0.224  0.0189  0.2599  0.1481
  218SOL    HW3  926   2.470   4.591   0.306 -1.0909  0.0014 -0.4698
  218SOL    MW4  927   2.518   4.640   0.253 -0.3591  0.1798  0.3380
  219SOL     OW  928   3.581   4.212   0.864  0.5971 -0.1621 -0.1954
  219SOL    HW2  929   3.501   4.264   0.857  0.2107 -0.5482  1.2414
  219SOL    HW3  930   3.650   4.268   0.827 -0.3076  0.1869 -1.3992
  219SOL    MW4  931   3.580   4.226   0.858  0.4268 -0.1669 -0.1646
  220SOL     OW  932   2.675   4.128   0.506  0.2173  0.9621 -0.1830
  220SOL    HW2  933   2.747   4.070   0.482 -0.5243  0.4758 -1.2627
  220SOL    HW3  934   2.706   4.215   0.482  0.2317  0.6937 -1.1534
  220SOL    MW4  935   2.689   4.132   0.500  0.1211  0.8621 -0.4535
  221SOL     OW  936   1.198   1.262   0.487  0.1213 -0.0636  0.8145
  221SOL    HW2  937   1.196   1.260   0.583  1.7625  1.3278  0.9061
  221SOL    HW3  938   1.284   1.298   0.466 -0.4271  0.1312 -1.1763
  221SOL    MW4  939   1.209   1.267   0.497  0.2656  0.1457  0.5639
  222SOL     OW  940   2.547   0.818   0.435  0.6166 -0.1963 -0.1796
  222SOL    HW2  941   2.455   0.837   0.452  0.1666 -2.1510 -0.3203
  222SOL    HW3  942   2.585   0.903   0.411 -0.8181  0.8879  1.2509
  222SOL    MW4  943   2.540   0.832   0.434  0.3679 -0.3111 -0.0094
  223SOL     OW  944   3.080   1.186   0.839  0.4044  0.1675  0.3949
  223SOL    HW2  945   3.084   1.178   0.934 -1.5283  2.9902  0.7959
  223SOL    HW3  946   3.155   1.241   0.817 -0.0776  0.8898  0.5174
  223SOL    MW4  947   3.091   1.192   0.849  0.0861  0.6351  0.4640
  224SOL     OW  948   2.723   1.978   0.373  0.2608  0.3854  0.2338
  224SOL    HW2  949   2.712   1.920   0.298 -0.8512  0.0825  0.6257
  224SOL    HW3  950   2.805   1.950   0.413  1.0060  0.7307 -1.0223
  224SOL    MW4  951   2.732   1.967   0.368  0.2127  0.3911  0.1198
  225SOL     OW  952   4.319   0.480   0.419 -0.6987  0.3368  0.2562
  225SOL    HW2  953   4.279   0.477   0.506  0.5865  0.8234  0.8896
  225SOL    HW3  954   4.313   0.573   0.393  1.3495  0.7179  1.0293
  225SOL    MW4  955   4.313   0.492   0.427 -0.2589  0.4512  0.4417
  226SOL     OW  956   1.800   2.514   0.457  0.4573 -0.3304  0.2546
  226SOL    HW2  957   1.810   2.480   0.546 -1.2049  0.3265  0.7084
  226SOL    HW3  958   1.711   2.488   0.432  0.8588 -0.3550 -1.1473
  226SOL    MW4  959   1.789   2.506   0.466  0.2912 -0.2468  0.1295
  227SOL     OW  960   2.541   0.518   0.490  0.2467 -0.0339 -0.2067
  227SOL    HW2  961   2.545   0.613   0.477 -0.0422  0.1100  0.7211
  227SOL    HW3  962   2.633   0.491   0.498  0.4606 -0.1677 -2.6944
  227SOL    MW4  963   2.554   0.527   0.489  0.2370 -0.0326 -0.4125
  228SOL     OW  964   1.615   3.634   0.467  0.6873  0.1489  0.2655
  228SOL    HW2  965   1.534   3.667   0.426  0.8043 -0.0314 -0.1195
  228SOL    HW3  966   1.685   3.673   0.416  0.8227 -0.8725 -0.3504
  228SOL    MW4  967   1.613   3.643   0.455  0.7206 -0.0095  0.1335
  229SOL     OW  968   0.494   1.394   0.549  0.0973 -0.0784 -0.1353
  229SOL    HW2  969   0.417   1.345   0.520  0.5624 -0.6453 -0.4142
  229SOL    HW3  970   0.493   1.386   0.645  0.6197 -1.3134 -0.2244
  229SOL    MW4  971   0.484   1.387   0.558  0.2276 -0.3160 -0.1839
  230SOL     OW  972   1.806   3.195   0.499 -0.1600  0.1243  0.2367
  230SOL    HW2  973   1.895   3.213   0.470  0.1488  0.9467  1.6385
  230SOL    HW3  974   1.788   3.105   0.471  0.8497  0.2111 -0.6704
  230SOL    MW4  975   1.815   3.185   0.492  0.0139  0.2444  0.3019
  231SOL     OW  976   2.209   2.450   0.203  0.3180 -0.2369 -0.1431
  231SOL    HW2  977   2.131   2.406   0.236  1.0394 -1.7317 -0.4114
  231SOL    HW3  978   2.281   2.393   0.227  1.4275  1.5078  0.7806
  231SOL    MW4  979   2.208   2.437   0.211  0.5598 -0.2036 -0.0566
  232SOL     OW  980   1.057   3.134   0.406 -0.0886 -0.0428  0.0949
  232SOL    HW2  981   0.988   3.197   0.427 -0.1388  0.6343 -1.9353
  232SOL    HW3  982   1.138   3.179   0.427 -0.1467  0.5553 -0.8894
  232SOL    MW4  983   1.058   3.149   0.411 -0.1030  0.1254 -0.3028
  233SOL     OW  984   3.862   1.163   0.610 -0.0096  0.0132 -0.0610
  233SOL    HW2  985   3.818   1.103   0.550  0.8025 -1.3672  0.6854
  233SOL    HW3  986   3.938   1.194   0.561  0.7543 -1.2535  0.2955
  233SOL    MW4  987   3.866   1.159   0.596  0.1981 -0.3359  0.0844
  234SOL     OW  988   1.625   1.519   0.882 -0.0737  0.4748 -0.2979
  234SOL    HW2  989   1.599   1.504   0.973  2.0876 -2.7028 -0.0983
  234SOL    HW3  990   1.638   1.431   0.846  2.7091  1.7099 -2.5596
  234SOL    MW4  991   1.623   1.505   0.889  0.5785  0.2185 -0.5699
  235SOL     OW  992   3.789   3.441   0.346 -0.5026  0.1343 -0.7318
  235SOL    HW2  993   3.792   3.534   0.367 -0.7351 -0.0851  0.2779
  235SOL    HW3  994   3.812   3.437   0.253  0.7307  1.0933 -0.4845
  235SOL    MW4  995   3.792   3.453   0.336 -0.3707  0.2320 -0.5660
  236SOL     OW  996   2.096   3.252   0.474  0.4406 -0.0162 -0.2902
  236SOL    HW2  997   2.121   3.263   0.566  0.9851 -0.7871 -0.3422
  236SOL    HW3  998   2.131   3.329   0.430 -0.1014  0.5155  0.2044
  236SOL    MW4  999   2.103   3.263   0.480  0.4411 -0.0479 -0.2318
  237SOL     OW 1000   0.226   3.538   0.449 -0.2020 -0.4524 -0.2488
  237SOL    HW2 1001   0.152   3.595   0.430  0.3398  0.3281 -0.0712
  237SOL    HW3 1002   0.303   3.591   0.426  0.3023 -1.1645 -0.2178
  237SOL    MW4 1003   0.227   3.553   0.443 -0.0640 -0.4432 -0.2213
  238SOL     OW 1004   3.774   2.287   0.406 -0.1538  0.0662  0.6080
  238SOL    HW2 1005   3.688   2.327   0.397  0.4287  1.2996  0.4293
  238SOL    HW3 1006   3.831   2.358   0.435  0.9353 -0.6027  0.1507
  238SOL    MW4 1007   3.771   2.301   0.409  0.0663  0.1407  0.5241
  239SOL     OW 1008   3.348   2.628   0.420 -0.4543 -0.8414  0.1500
  239SOL    HW2 1009   3.256   2.605   0.418 -0.8675  0.6348  0.9722
  239SOL    HW3 1010   3.395   2.545   0.411 -1.8580 -1.6394  0.1713
  239SOL    MW4 1011   3.342   2.614   0.419 -0.6938 -0.7520  0.2614
  240SOL     OW 1012   2.809   3.049   0.448 -0.1513 -0.5524  1.1161
  240SOL    HW2 1013   2.889   3.000   0.466 -0.2087 -0.2516  2.2857
  240SOL    HW3 1014   2.747   2.983   0.418  0.0758 -1.0392  1.7062
  240SOL    MW4 1015   2.811   3.034   0.447 -0.1290 -0.5770  1.3483
  241SOL     OW 1016   1.847   0.941   0.476  0.0958  0.3900  0.1117
  241SOL    HW2 1017   1.933   0.899   0.463  0.1625 -0.1385  2.0864
  241SOL    HW3 1018   1.795   0.874   0.521 -1.3641  0.7059 -1.0879
  241SOL    MW4 1019   1.852   0.926   0.480 -0.0880  0.3619  0.2140
  242SOL     OW 1020   4.418   4.235   0.330  0.5160  0.6782 -0.2859
  242SOL    HW2 1021   4.449   4.321   0.359  0.7481  0.8242 -0.9681
  242SOL    HW3 1022   4.323   4.247   0.319  0.2906  0.3986  1.1853
  242SOL    MW4 1023   4.409   4.248   0.333  0.5164  0.6599 -0.1818
  243SOL     OW 1024   0.479   0.049   0.758 -0.2208  0.6380  0.0390
  243SOL    HW2 1025   0.453   0.060   0.667  0.8267  2.0564 -0.0994
  243SOL    HW3 1026   0.400   0.019   0.802 -0.5013 -0.9407 -1.5019
  243SOL    MW4 1027   0.465   0.046   0.752 -0.1196  0.6168 -0.1826
  244SOL     OW 1028   0.216   4.644   0.867  0.6294 -0.1836 -0.0891
  244SOL    HW2 1029   0.152   4.689   0.812 -0.6116  0.0714  1.5276
  244SOL    HW3 1030   0.222   4.556   0.830  0.7013  0.3358 -1.3312
  244SOL    MW4 1031   0.209   4.638   0.855  0.4752 -0.0811 -0.0396
  245SOL     OW 1032   0.036   0.329   0.814 -0.3191  0.7284  0.1174
  245SOL    HW2 1033   0.108   0.391   0.802  0.1281  0.2561  0.3133
  245SOL    HW3 1034  -0.004   0.354   0.897  0.6353 -0.0082  0.8053
  245SOL    MW4 1035   0.040   0.340   0.823 -0.1342  0.5689  0.2340
  246SOL     OW 1036   0.183   0.746   0.875  0.1384 -0.2828 -0.1632
  246SOL    HW2 1037   0.187   0.729   0.969  0.1191 -1.4696 -0.3665
  246SOL    HW3 1038   0.210   0.663   0.835 -1.9218 -0.4732 -1.2276
  246SOL    MW4 1039   0.187   0.733   0.882 -0.1360 -0.4644 -0.3304
  247SOL     OW 1040   0.248   0.496   0.760  0.0945 -0.4720 -0.4665
  247SOL    HW2 1041   0.269   0.508   0.667 -0.0103 -0.8035 -0.5348
  247SOL    HW3 1042   0.310   0.429   0.790  0.4724  0.0128 -0.1690
  247SOL    MW4 1043   0.259   0.488   0.752  0.1305 -0.4518 -0.4362
  248SOL     OW 1044   4.035   1.103   0.822  0.0135  0.5004 -0.3127
  248SOL    HW2 1045   3.959   1.125   0.768 -0.1544  1.8616  0.4684
  248SOL    HW3 1046   4.009   1.126   0.911  0.4287 -1.3627  0.3260
  248SOL    MW4 1047   4.021   1.109   0.827  0.0458  0.4342 -0.1254
  249SOL     OW 1048   2.421   2.294   0.389  0.3198 -0.4751  0.2665
  249SOL    HW2 1049   2.434   2.200   0.396  1.5257 -0.4054 -0.9483
  249SOL    HW3 1050   2.344   2.312   0.444  0.0170 -2.1683  0.4090
  249SOL    MW4 1051   2.412   2.284   0.397  0.4392 -0.6893  0.1251
  250SOL     OW 1052   4.258   1.254   0.780  0.4868 -0.4624 -0.1228
  250SOL    HW2 1053   4.172   1.212   0.787  0.8407 -1.1266  0.2854
  250SOL    HW3 1054   4.320   1.189   0.813  1.0666  0.3062  0.3407
  250SOL    MW4 1055   4.255   1.240   0.785  0.6104 -0.4487 -0.0079
  251SOL     OW 1056   4.298   0.995   0.230 -0.1698  0.5651  0.0391
  251SOL    HW2 1057   4.322   0.982   0.138 -0.4074  1.0685 -0.0980
  251SOL    HW3 1058   4.369   1.049   0.266  0.4964 -0.5634  0.4453
  251SOL    MW4 1059   4.311   1.001   0.223 -0.1140  0.4826  0.0746
  252SOL     OW 1060   0.436   1.890   0.812 -0.2446 -0.4289 -0.0551
  252SOL    HW2 1061   0.432   1.905   0.906  0.5397 -0.2123 -0.0495
  252SOL    HW3 1062   0.348   1.910   0.780 -0.3453  0.0873  0.5399
  252SOL    MW4 1063   0.424   1.894   0.820 -0.1544 -0.3322  0.0241
  253SOL     OW 1064   0.899   1.644   0.307  0.0111 -0.3688  0.0429
  253SOL    HW2 1065   0.826   1.666   0.365  0.1885  1.1911 -0.3025
  253SOL    HW3 1066   0.975   1.688   0.346  0.0161  1.2209 -1.6625
  253SOL    MW4 1067   0.900   1.653   0.320  0.0351  0.0468 -0.2277
  254SOL     OW 1068   1.447   0.596   0.306 -0.0231  0.1605 -0.0875
  254SOL    HW2 1069   1.481   0.684   0.322 -0.3123  0.3061 -0.2696
  254SOL    HW3 1070   1.352   0.605   0.311 -0.2016  0.4455 -3.0205
  254SOL    MW4 1071   1.439   0.609   0.309 -0.0846  0.2173 -0.4985
  255SOL     OW 1072   0.188   2.371   0.825  0.6963  0.0383  0.0813
  255SOL    HW2 1073   0.173   2.341   0.915 -2.2001 -0.7076 -0.6223
  255SOL    HW3 1074   0.277   2.407   0.827  0.6366  0.1666  3.2769
  255SOL    MW4 1075   0.198   2.372   0.838  0.3063 -0.0432  0.4101
  256SOL     OW 1076   4.187   2.301   0.818 -0.2897  0.2301  0.0203
  256SOL    HW2 1077   4.270   2.346   0.802 -0.2064  0.8105  1.9273
  256SOL    HW3 1078   4.203   2.210   0.792 -0.0740  1.0162 -2.6888
  256SOL    MW4 1079   4.200   2.295   0.813 -0.2508  0.4106 -0.0855
  257SOL     OW 1080   4.475   2.702   0.810  0.3162 -0.3044 -0.5632
  257SOL    HW2 1081   4.436   2.618   0.787 -0.2470  0.0216 -0.8028
  257SOL    HW3 1082   4.495   2.695   0.903 -1.8707  0.1438 -0.0408
  257SOL    MW4 1083   4.473   2.690   0.819 -0.0472 -0.2022 -0.5258
  258SOL     OW 1084   0.246   2.821   0.741 -0.3669 -0.3891 -0.1631
  258SOL    HW2 1085   0.161   2.802   0.780 -0.6533  0.0123 -0.5918
  258SOL    HW3 1086   0.261   2.914   0.760  0.0275 -0.4851  0.0086
  258SOL    MW4 1087   0.237   2.831   0.749 -0.3527 -0.3488 -0.1971
  259SOL     OW 1088   0.224   3.085   0.819  0.4937  0.5590  0.0033
  259SOL    HW2 1089   0.220   3.092   0.915  1.0322 -2.6209  0.3023
  259SOL    HW3 1090   0.146   3.132   0.789 -0.7150  0.0088  2.1146
  259SOL    MW4 1091   0.213   3.092   0.828  0.4053  0.0668  0.3213
  260SOL     OW 1092   4.180   2.049   0.447 -0.0518  0.6484  0.0933
  260SOL    HW2 1093   4.264   2.096   0.439 -0.4026  1.1332 -0.8325
  260SOL    HW3 1094   4.201   1.959   0.423  0.4447  0.4991  1.0297
  260SOL    MW4 1095   4.194   2.044   0.443 -0.0324  0.6928  0.0947
  261SOL     OW 1096   0.021   3.454   0.837 -0.0346 -0.0502  0.4812
  261SOL    HW2 1097  -0.050   3.506   0.799  0.4957  1.3022  1.2999
  261SOL    HW3 1098   0.101   3.499   0.807  0.4680 -1.1794  0.0986
  261SOL    MW4 1099   0.022   3.467   0.828  0.1017 -0.0207  0.5387
  262SOL     OW 1100   3.592   0.953   0.739  0.1774  0.3658 -0.4077
  262SOL    HW2 1101   3.566   1.039   0.772  0.1254  0.4057 -0.5485
  262SOL    HW3 1102   3.533   0.938   0.665  0.6597  0.5222 -0.8269
  262SOL    MW4 1103   3.581   0.962   0.733  0.2341  0.3918 -0.4815
  263SOL     OW 1104   3.834   3.565   0.713  0.1644  0.2597 -0.5952
  263SOL    HW2 1105   3.763   3.537   0.771 -0.2070  0.4893 -0.9398
  263SOL    HW3 1106   3.910   3.517   0.745 -0.4058 -0.9331 -1.0016
  263SOL    MW4 1107   3.835   3.555   0.725  0.0401  0.1326 -0.6943
  264SOL     OW 1108   0.283   3.875   0.800  0.2563  0.3244  0.0430
  264SOL    HW2 1109   0.290   3.891   0.894  0.5812 -0.1788  0.1050
  264SOL    HW3 1110   0.199   3.914   0.775 -0.5845 -0.9367  0.8426
  264SOL    MW4 1111   0.273   3.882   0.809  0.1882  0.0918  0.1567
  265SOL     OW 1112   4.463   4.237   0.857 -0.1547 -0.4535  0.2453
  265SOL    HW2 1113   4.484   4.145   0.842  1.1855  0.2283 -2.3385
  265SOL    HW3 1114   4.459   4.246   0.952  2.5061 -2.5755  0.6102
  265SOL    MW4 1115   4.465   4.226   0.867  0.3732 -0.6437 -0.0474
  266SOL     OW 1116   4.143   4.308   0.438 -0.2097  0.1536 -0.0392
  266SOL    HW2 1117   4.068   4.361   0.413  0.1108  1.0341  0.7999
  266SOL    HW3 1118   4.169   4.343   0.524  1.5088  0.2489 -0.5833
  266SOL    MW4 1119   4.137   4.320   0.446  0.0596  0.2818 -0.0003
  267SOL     OW 1120   0.712   0.003   0.870  0.2570 -0.2113  0.2362
  267SOL    HW2 1121   0.694   0.002   0.964 -0.0609 -0.1288  0.1790
  267SOL    HW3 1122   0.627   0.021   0.830  0.6556  1.2086  0.0075
  267SOL    MW4 1123   0.698   0.005   0.877  0.2677 -0.0131  0.1985
  268SOL     OW 1124   1.858   0.037   0.474 -0.5469 -0.0687 -0.1720
  268SOL    HW2 1125   1.793  -0.028   0.447 -0.0998 -0.5403 -0.1270
  268SOL    HW3 1126   1.831   0.064   0.561 -0.7307 -0.2025 -0.1874
  268SOL    MW4 1127   1.846   0.032   0.482 -0.5121 -0.1486 -0.1681
  269SOL     OW 1128   0.439   0.318   0.847 -0.3648 -0.1540  0.0309
  269SOL    HW2 1129   0.447   0.225   0.825 -1.0197 -0.0297 -0.7685
  269SOL    HW3 1130   0.523   0.356   0.823  0.8341 -0.9867  2.7179
  269SOL    MW4 1131   0.451   0.311   0.841 -0.2931 -0.2474  0.2800
  270SOL     OW 1132   0.439   0.933   0.469  0.2451  0.0968 -0.5185
  270SOL    HW2 1133   0.529   0.915   0.442  0.7833  2.0631 -0.0863
  270SOL    HW3 1134   0.439   0.922   0.564  0.5001  2.0286 -0.2908
  270SOL    MW4 1135   0.451   0.929   0.478  0.3497  0.6111 -0.4314
  271SOL     OW 1136   0.681   0.708   0.792 -0.1776  0.2814 -0.1395
  271SOL    HW2 1137   0.696   0.614   0.779 -0.3276 -0.0786  2.1043
  271SOL    HW3 1138   0.758   0.749   0.752  1.8061 -1.0209  2.1816
  271SOL    MW4 1139   0.693   0.701   0.785  0.0643  0.0622  0.4628
  272SOL     OW 1140   4.480   1.104   0.814  0.1168  0.3322 -0.1383
  272SOL    HW2 1141   4.564   1.145   0.791  0.7926 -0.4921  0.8088
  272SOL    HW3 1142   4.477   1.108   0.910 -0.8889  0.2648 -0.1642
  272SOL    MW4 1143   4.491   1.110   0.824  0.0734  0.2145 -0.0169
  273SOL     OW 1144   0.472   1.137   0.896 -0.1610 -0.2273 -0.2703
  273SOL    HW2 1145   0.550   1.180   0.861 -0.7092 -0.5637 -1.9105
  273SOL    HW3 1146   0.470   1.051   0.855 -2.1309  0.2838 -1.3156
  273SOL    MW4 1147   0.482   1.132   0.886 -0.4932 -0.2042 -0.6245
  274SOL     OW 1148   2.002   1.557   0.821  0.0878  0.7462  0.3868
  274SOL    HW2 1149   2.020   1.486   0.759  0.0931  1.7030 -0.7298
  274SOL    HW3 1150   1.925   1.601   0.785 -0.2905  0.9290  1.4061
  274SOL    MW4 1151   1.995   1.553   0.808  0.0385  0.8966  0.3740
  275SOL     OW 1152   0.365   1.621   0.818  0.1773 -0.7008 -0.2680
  275SOL    HW2 1153   0.439   1.567   0.846  1.2159 -0.1204 -1.8281
  275SOL    HW3 1154   0.404   1.706   0.800 -0.6301 -0.7410 -2.3465
  275SOL    MW4 1155   0.380   1.625   0.819  0.2078 -0.6295 -0.7480
  276SOL     OW 1156   0.101   1.501   0.837  0.1568  0.2953 -0.1084
  276SOL    HW2 1157   0.179   1.548   0.808  0.1378  0.2867 -0.1737
  276SOL    HW3 1158   0.125   1.408   0.829  0.2033  0.2942  0.0454
  276SOL    MW4 1159   0.115   1.495   0.832  0.1605  0.2940 -0.0966
  277SOL     OW 1160   4.289   2.845   0.487 -0.0832 -0.3135 -0.6000
  277SOL    HW2 1161   4.269   2.764   0.440 -0.2983 -0.9531  0.5893
  277SOL    HW3 1162   4.225   2.909   0.454 -1.4353 -1.2521  0.1892
  277SOL    MW4 1163   4.278   2.843   0.476 -0.2899 -0.5214 -0.3389
  278SOL     OW 1164   0.654   3.087   0.858 -0.4060  0.0737  0.1279
  278SOL    HW2 1165   0.652   3.007   0.806  0.8070  1.3086 -1.9001
  278SOL    HW3 1166   0.584   3.141   0.823 -0.0757  0.6129  0.2838
  278SOL    MW4 1167   0.645   3.083   0.847 -0.2024  0.3078 -0.1191
  279SOL     OW 1168   0.917   2.480   0.742  0.1732 -0.2127  0.1532
  279SOL    HW2 1169   0.850   2.421   0.775  0.9847 -0.4085  1.4654
  279SOL    HW3 1170   0.895   2.565   0.778  0.7424 -0.3166  0.7508
  279SOL    MW4 1171   0.906   2.483   0.751  0.3554 -0.2522  0.4052
  280SOL     OW 1172   0.858   2.736   0.847  0.0895 -0.0086 -0.4994
  280SOL    HW2 1173   0.855   2.730   0.943  0.5644  0.3642 -0.4576
  280SOL    HW3 1174   0.769   2.756   0.821 -0.0436 -0.1156 -0.1320
  280SOL    MW4 1175   0.846   2.738   0.857  0.1346  0.0265 -0.4454
  281SOL     OW 1176   0.431   2.704   0.904 -0.2242  0.1950 -0.0781
  281SOL    HW2 1177   0.368   2.739   0.842  0.7178  0.4131 -0.9229
  281SOL    HW3 1178   0.438   2.611   0.881  0.5887  0.4081 -0.7088
  281SOL    MW4 1179   0.423   2.696   0.893  0.0074  0.2520 -0.2728
  282SOL     OW 1180   3.625   3.088   0.524  0.1227  0.2980  0.1027
  282SOL    HW2 1181   3.717   3.110   0.516 -0.4938  2.8956 -0.1218
  282SOL    HW3 1182   3.616   3.004   0.478  2.0612  0.7998 -1.2407
  282SOL    MW4 1183   3.636   3.080   0.517  0.2968  0.7071 -0.1041
  283SOL     OW 1184   0.493   4.258   0.434  0.1608  0.1807  0.1487
  283SOL    HW2 1185   0.502   4.198   0.508  0.6244  1.5261  1.2029
  283SOL    HW3 1186   0.418   4.313   0.457 -0.6839 -0.4312 -1.1233
  283SOL    MW4 1187   0.484   4.258   0.447  0.1105  0.2775  0.1200
  284SOL     OW 1188   0.429   3.458   0.861  0.1296  0.2849 -0.4208
  284SOL    HW2 1189   0.421   3.482   0.953  1.4811 -0.5887 -0.0640
  284SOL    HW3 1190   0.365   3.513   0.816  0.9641  2.3027  0.7838
  284SOL    MW4 1191   0.420   3.469   0.867  0.4180  0.4361 -0.2148
  285SOL     OW 1192   0.675   2.328   0.392 -0.0616 -0.1159  0.0682
  285SOL    HW2 1193   0.752   2.374   0.424  0.3347 -0.7606  0.0607
  285SOL    HW3 1194   0.697   2.304   0.301 -0.6019  0.4331 -0.2092
  285SOL    MW4 1195   0.688   2.331   0.384 -0.0806 -0.1285  0.0306
  286SOL     OW 1196   4.477   1.939   0.324  0.2077 -0.2136  0.1357
  286SOL    HW2 1197   4.556   1.888   0.339  0.6913  0.4950  0.0482
  286SOL    HW3 1198   4.503   2.029   0.345 -0.7265 -0.0559  0.6277
  286SOL    MW4 1199   4.491   1.944   0.328  0.1478 -0.0994  0.1890
  287SOL     OW 1200   0.028   3.985   0.733  0.0916  0.0330  0.0311
  287SOL    HW2 1201   0.020   3.976   0.638  0.6292 -1.6349  0.1261
  287SOL    HW3 1202  -0.045   3.934   0.768  0.3445  0.0092  0.5274
  287SOL    MW4 1203   0.018   3.977   0.725  0.1959 -0.1903  0.1091
  288SOL     OW 1204   0.223   1.239   0.756 -0.1164 -0.0257  0.2032
  288SOL    HW2 1205   0.301   1.202   0.796 -0.3548  0.3234  1.0065
  288SOL    HW3 1206   0.247   1.254   0.664  0.4837 -0.6884  0.2487
  288SOL    MW4 1207   0.236   1.236   0.749 -0.0687 -0.0671  0.3152
  289SOL     OW 1208   0.503   4.274   0.817 -0.3093  0.1410  0.0166
  289SOL    HW2 1209   0.511   4.271   0.912 -0.9722 -0.0844  0.0662
  289SOL    HW3 1210   0.574   4.332   0.789 -0.3065  0.4606  0.6717
  289SOL    MW4 1211   0.513   4.281   0.826 -0.3963  0.1531  0.1096
  290SOL     OW 1212   3.814   0.492   0.743  0.1056 -0.5882 -0.4752
  290SOL    HW2 1213   3.783   0.576   0.776 -1.0675 -0.7941 -1.0301
  290SOL    HW3 1214   3.816   0.502   0.648  0.4251 -1.0277 -0.5195
  290SOL    MW4 1215   3.810   0.504   0.734 -0.0072 -0.6734 -0.5543
  291SOL     OW 1216   3.900   2.014   0.467  0.0051 -0.1116 -0.0968
  291SOL    HW2 1217   3.995   2.027   0.463  0.0958 -0.7240 -0.0668
  291SOL    HW3 1218   3.863   2.085   0.416  0.4612  0.4209  0.3102
  291SOL    MW4 1219   3.908   2.025   0.460  0.0775 -0.1221 -0.0392
  292SOL     OW 1220   4.228   0.713   0.860 -0.3055  0.3706  0.3948
  292SOL    HW2 1221   4.148   0.751   0.825 -1.1545 -1.1162  0.6652
  292SOL    HW3 1222   4.298   0.760   0.815 -1.3322 -1.4177 -3.3331
  292SOL    MW4 1223   4.227   0.724   0.849 -0.5527 -0.0615 -0.0613
  293SOL     OW 1224   0.930   0.355   0.873 -0.1820 -0.1161 -0.4663
  293SOL    HW2 1225   0.904   0.347   0.964 -1.2960 -0.6969 -0.8308
  293SOL    HW3 1226   0.975   0.440   0.868 -1.0013  0.3795  0.4029
  293SOL    MW4 1227   0.933   0.365   0.884 -0.4371 -0.1274 -0.3997
  294SOL     OW 1228   0.608   1.484   0.841  0.4358  0.1988 -0.3842
  294SOL    HW2 1229   0.666   1.550   0.802  1.7541 -0.4458  0.4570
  294SOL    HW3 1230   0.637   1.478   0.932 -1.1540  0.0667  0.1191
  294SOL    MW4 1231   0.619   1.492   0.848  0.4000  0.0964 -0.2068
  295SOL     OW 1232   1.240   0.639   0.693  0.2722 -0.5037 -0.1593
  295SOL    HW2 1233   1.225   0.635   0.599 -0.8352 -0.7573  0.0262
  295SOL    HW3 1234   1.264   0.549   0.717 -0.1282 -0.5868 -0.0792
  295SOL    MW4 1235   1.241   0.626   0.684  0.0733 -0.5481 -0.1243
  296SOL     OW 1236   0.731   0.928   0.437 -0.0346  0.0440  0.3819
  296SOL    HW2 1237   0.825   0.921   0.454  0.5610  0.3184 -2.6698
  296SOL    HW3 1238   0.716   1.023   0.431 -0.5425  0.0043  1.0106
  296SOL    MW4 1239   0.742   0.940   0.439 -0.0231  0.0750  0.0622
  297SOL     OW 1240   0.897   0.846   0.725  0.1225 -0.3839  0.0799
  297SOL    HW2 1241   0.942   0.863   0.643 -0.5366 -1.0187 -0.4139
  297SOL    HW3 1242   0.947   0.776   0.766  1.9027  1.5807  1.3804
  297SOL    MW4 1243   0.909   0.839   0.720  0.2705 -0.2084  0.1863
  298SOL     OW 1244   1.758   1.708   0.736  0.2617  0.1921 -0.1804
  298SOL    HW2 1245   1.697   1.713   0.663  1.1656  1.4345 -0.8743
  298SOL    HW3 1246   1.726   1.636   0.790  0.9332 -2.3604 -3.0551
  298SOL    MW4 1247   1.746   1.700   0.734  0.4696  0.0193 -0.6512
  299SOL     OW 1248   1.152   1.215   0.781  0.0381  0.0170  0.1479
  299SOL    HW2 1249   1.077   1.159   0.802 -0.0083 -0.5915 -1.5649
  299SOL    HW3 1250   1.225   1.176   0.829 -0.0332 -1.4393 -0.8837
  299SOL    MW4 1251   1.152   1.202   0.790  0.0224 -0.2553 -0.2142
  300SOL     OW 1252   0.700   1.222   0.768  0.0805 -0.2310 -0.1327
  300SOL    HW2 1253   0.713   1.221   0.673 -1.3455 -0.0477 -0.3327
  300SOL    HW3 1254   0.717   1.312   0.794  0.6054 -0.3106 -0.1840
  300SOL    MW4 1255   0.704   1.233   0.759 -0.0385 -0.2173 -0.1659
  301SOL     OW 1256   1.054   2.007   0.806  0.0696  0.4185 -0.2336
  301SOL    HW2 1257   1.139   1.962   0.802 -0.9221 -1.7526  1.7577
  301SOL    HW3 1258   1.075   2.098   0.828  2.0207  0.5703 -2.5528
  301SOL    MW4 1259   1.068   2.013   0.808  0.1962  0.1519 -0.2768
  302SOL     OW 1260   1.210   0.270   0.434 -0.2705 -0.3778 -0.4357
  302SOL    HW2 1261   1.133   0.230   0.476  0.0827 -0.7819 -0.1744
  302SOL    HW3 1262   1.201   0.248   0.341 -0.7380  0.0106 -0.4870
  302SOL    MW4 1263   1.198   0.262   0.427 -0.2855 -0.3799 -0.4080
  303SOL     OW 1264   2.342   3.142   0.389  0.0049  0.1507 -0.6020
  303SOL    HW2 1265   2.254   3.157   0.425  0.7480 -0.7675  1.6738
  303SOL    HW3 1266   2.358   3.049   0.403  1.2444  0.2588 -1.2703
  303SOL    MW4 1267   2.332   3.132   0.395  0.2663  0.0436 -0.3899
  304SOL     OW 1268   1.432   3.995   0.442 -0.4180  0.5047 -0.0560
  304SOL    HW2 1269   1.398   3.907   0.426  0.5580 -0.0411  0.7415
  304SOL    HW3 1270   1.422   4.006   0.537  0.5824  0.7600  0.0238
  304SOL    MW4 1271   1.426   3.985   0.453 -0.1572  0.4663  0.0598
  305SOL     OW 1272   1.325   2.685   0.857  0.2208 -0.5365  0.1434
  305SOL    HW2 1273   1.329   2.695   0.952 -0.0310 -0.9944  0.2045
  305SOL    HW3 1274   1.252   2.741   0.830  0.4125 -0.2598  0.1986
  305SOL    MW4 1275   1.316   2.694   0.866  0.2128 -0.5608  0.1587
  306SOL     OW 1276   2.914   4.518   0.108 -0.6707 -0.1359  0.1038
  306SOL    HW2 1277   2.878   4.555   0.027 -0.5536  0.3230  0.2589
  306SOL    HW3 1278   2.876   4.572   0.178 -0.6081 -0.3983  0.3419
  306SOL    MW4 1279   2.904   4.530   0.106 -0.6471 -0.1101  0.1557
  307SOL     OW 1280   1.114   3.083   0.820 -0.2370  0.3032 -0.2027
  307SOL    HW2 1281   1.110   2.993   0.789 -0.1993  0.4861 -0.7474
  307SOL    HW3 1282   1.038   3.126   0.780  0.3224  0.7673 -0.7768
  307SOL    MW4 1283   1.103   3.077   0.811 -0.1583  0.3886 -0.3504
  308SOL     OW 1284   0.684   3.576   0.759  0.5747  0.0184 -0.4431
  308SOL    HW2 1285   0.605   3.531   0.790 -0.8078  2.9692  0.5174
  308SOL    HW3 1286   0.688   3.555   0.665 -1.3475 -0.1758 -0.5019
  308SOL    MW4 1287   0.674   3.567   0.751  0.1387  0.3819 -0.3241
  309SOL     OW 1288   0.926   3.476   0.851 -0.4593  0.2025  0.0186
  309SOL    HW2 1289   0.992   3.527   0.804 -1.7999  1.0607 -0.9645
  309SOL    HW3 1290   0.842   3.512   0.822 -1.3834 -1.2299  0.8369
  309SOL    MW4 1291   0.924   3.488   0.841 -0.7581  0.1266 -0.0031
  310SOL     OW 1292   1.329   3.241   0.745  0.3353  0.4325  0.0503
  310SOL    HW2 1293   1.411   3.192   0.752  0.2778  0.7431  4.0315
  310SOL    HW3 1294   1.262   3.178   0.774 -0.3363  1.3979  0.6048
  310SOL    MW4 1295   1.331   3.226   0.750  0.2390  0.6008  0.6488
  311SOL     OW 1296   1.220   4.156   0.407  0.3480 -0.0081 -0.1402
  311SOL    HW2 1297   1.148   4.095   0.423  0.7484 -0.6612 -0.8032
  311SOL    HW3 1298   1.299   4.102   0.412  0.7828  0.6904  0.5045
  311SOL    MW4 1299   1.221   4.141   0.409  0.4582 -0.0024 -0.1426
  312SOL     OW 1300   0.923   3.999   0.722 -0.3840  0.2316 -0.4353
  312SOL    HW2 1301   0.849   3.951   0.759  0.4241 -0.5733  0.1489
  312SOL    HW3 1302   0.895   4.021   0.633 -0.9151 -0.9592 -0.5634
  312SOL    MW4 1303   0.910   3.996   0.715 -0.3474 -0.0317 -0.3752
  313SOL     OW 1304   0.917   4.246   0.855 -0.0162 -0.0704 -0.0674
  313SOL    HW2 1305   0.911   4.156   0.823  0.4656 -0.0174 -0.3092
  313SOL    HW3 1306   1.000   4.278   0.821 -0.5476  0.7218 -0.6217
  313SOL    MW4 1307   0.927   4.238   0.847 -0.0227  0.0415 -0.1724
  314SOL     OW 1308   2.869   0.807   0.789 -0.1953 -0.1233  0.2326
  314SOL    HW2 1309   2.872   0.793   0.883  1.3634  0.5622  0.3060
  314SOL    HW3 1310   2.895   0.723   0.751  2.1151  0.4244  0.5068
  314SOL    MW4 1311   2.873   0.794   0.796  0.3150  0.0395  0.2785
  315SOL     OW 1312   1.570   0.020   0.893 -0.2409  0.5040  0.1289
  315SOL    HW2 1313   1.551   0.014   0.987  0.2658  1.4494  0.2916
  315SOL    HW3 1314   1.559  -0.070   0.861  2.5317 -0.4484  1.6515
  315SOL    MW4 1315   1.566   0.007   0.901  0.1918  0.5031  0.3513
  316SOL     OW 1316   1.139   4.383   0.768  0.2871  0.2450  0.2592
  316SOL    HW2 1317   1.220   4.334   0.783 -0.2950 -0.7950  0.0545
  316SOL    HW3 1318   1.138   4.399   0.673  0.2859  0.3233  0.2720
  316SOL    MW4 1319   1.149   4.379   0.757  0.2103  0.1183  0.2338
  317SOL     OW 1320   1.371   0.168   0.776 -0.4152 -0.0406 -0.0865
  317SOL    HW2 1321   1.447   0.132   0.823  0.0847 -0.4991 -1.2136
  317SOL    HW3 1322   1.298   0.114   0.805 -0.5222  1.1534  1.8924
  317SOL    MW4 1323   1.372   0.156   0.786 -0.3633  0.0564  0.0259
  318SOL     OW 1324   0.800   3.243   0.482  0.0360 -0.0425  0.1344
  318SOL    HW2 1325   0.714   3.204   0.469 -0.3704  0.4921  1.1591
  318SOL    HW3 1326   0.819   3.228   0.575 -0.0522  2.0148  0.5137
  318SOL    MW4 1327   0.791   3.236   0.492 -0.0292  0.2995  0.3197
  319SOL     OW 1328   3.376   0.549   0.738 -0.5717 -0.3522 -0.1977
  319SOL    HW2 1329   3.452   0.518   0.788  0.0289  1.1210 -0.1764
  319SOL    HW3 1330   3.360   0.638   0.771 -1.3378 -0.0707 -1.3010
  319SOL    MW4 1331   3.384   0.557   0.749 -0.5937 -0.1206 -0.3405
  320SOL     OW 1332   1.783   1.179   0.620 -0.7003 -0.0445 -0.1780
  320SOL    HW2 1333   1.805   1.107   0.561 -0.1258 -0.4560  0.5282
  320SOL    HW3 1334   1.868   1.214   0.648 -0.9388 -0.5915  1.2962
  320SOL    MW4 1335   1.797   1.174   0.616 -0.6559 -0.1708  0.1097
  321SOL     OW 1336   1.800   0.988   0.850 -0.2181  0.2188  0.4422
  321SOL    HW2 1337   1.798   1.027   0.762  0.1718 -0.6984  0.0195
  321SOL    HW3 1338   1.863   0.916   0.843 -2.1878 -1.5737  0.7443
  321SOL    MW4 1339   1.808   0.983   0.837 -0.4267 -0.1386  0.4262
  322SOL     OW 1340   0.695   1.767   0.478  0.0464  0.0638 -0.2713
  322SOL    HW2 1341   0.702   1.862   0.488  0.2277 -0.0624  0.8345
  322SOL    HW3 1342   0.601   1.751   0.463 -0.2091  0.2807  1.0583
  322SOL    MW4 1343   0.683   1.778   0.477  0.0366  0.0757  0.0501
  323SOL     OW 1344   1.385   1.631   0.785  0.2208  0.1665  0.0953
  323SOL    HW2 1345   1.313   1.578   0.820  1.0497 -0.0847  1.4557
  323SOL    HW3 1346   1.464   1.590   0.820  0.9743  1.1359 -0.4455
  323SOL    MW4 1347   1.386   1.619   0.794  0.4296  0.2612  0.2035
  324SOL     OW 1348   1.998   2.324   0.383 -0.3634  0.6079  0.0221
  324SOL    HW2 1349   2.065   2.347   0.447 -0.6641 -1.6250  1.1853
  324SOL    HW3 1350   1.933   2.394   0.388  0.6493  1.4992  0.6672
  324SOL    MW4 1351   1.998   2.336   0.392 -0.2693  0.4311  0.2607
  325SOL     OW 1352   0.814   1.900   0.898 -0.0193  0.5371 -0.3557
  325SOL    HW2 1353   0.814   1.909   0.993  0.2028  1.0839 -0.4070
  325SOL    HW3 1354   0.903   1.921   0.871 -0.0543  0.2868 -0.6778
  325SOL    MW4 1355   0.825   1.904   0.907  0.0054  0.5763 -0.4050
  326SOL     OW 1356   0.526   3.158   0.482 -0.1548 -0.1461  0.0282
  326SOL    HW2 1357   0.501   3.176   0.572  1.0102  1.9295 -0.0344
  326SOL    HW3 1358   0.447   3.175   0.431 -0.6314 -0.6923  0.5834
  326SOL    MW4 1359   0.512   3.163   0.487 -0.0640  0.0558  0.0932
  327SOL     OW 1360   0.745   4.409   0.477  0.0075 -0.3294  0.0061
  327SOL    HW2 1361   0.734   4.431   0.569  0.2009  2.9026 -0.6787
  327SOL    HW3 1362   0.658   4.383   0.447 -0.0780 -1.2597  1.0639
  327SOL    MW4 1363   0.732   4.409   0.485  0.0218 -0.0257  0.0553
  328SOL     OW 1364   1.244   2.778   0.368  0.3585  0.2555 -0.2898
  328SOL    HW2 1365   1.175   2.815   0.423  0.7886 -0.9591  1.0762
  328SOL    HW3 1366   1.227   2.684   0.369  1.6490  0.0205 -0.4994
  328SOL    MW4 1367   1.232   2.771   0.375  0.5856  0.0644 -0.1373
  329SOL     OW 1368   2.660   2.413   0.502 -0.1309  0.1419  0.0278
  329SOL    HW2 1369   2.580   2.374   0.468  0.7235 -1.6727 -0.0236
  329SOL    HW3 1370   2.640   2.434   0.593 -1.1666  1.2274 -0.4473
  329SOL    MW4 1371   2.647   2.410   0.509 -0.1547  0.0453 -0.0417
  330SOL     OW 1372   1.531   2.831   0.759 -0.3213  0.1257 -0.0296
  330SOL    HW2 1373   1.452   2.789   0.792 -0.8632 -0.1976 -1.7359
  330SOL    HW3 1374   1.538   2.803   0.668  1.1264  1.0672 -0.2268
  330SOL    MW4 1375   1.522   2.822   0.752 -0.2019  0.2072 -0.2808
  331SOL     OW 1376   1.565   3.094   0.850 -0.1095  0.4239 -0.1122
  331SOL    HW2 1377   1.559   3.082   0.945  1.6081 -0.1212 -0.0511
  331SOL    HW3 1378   1.549   3.008   0.813  0.4986  0.3643 -0.2465
  331SOL    MW4 1379   1.562   3.081   0.858  0.1974  0.3440 -0.1218
  332SOL     OW 1380   2.096   3.731   0.466  0.2651 -0.0497 -0.1567
  332SOL    HW2 1381   2.149   3.655   0.441  1.4037  0.7366 -0.1677
  332SOL    HW3 1382   2.073   3.715   0.558  2.9177  0.9321  0.7340
  332SOL    MW4 1383   2.100   3.719   0.475  0.7651  0.1836 -0.0407
  333SOL     OW 1384   1.322   3.499   0.849 -0.0721  0.2780  0.5676
  333SOL    HW2 1385   1.344   3.409   0.823 -1.2065  0.2815 -0.4690
  333SOL    HW3 1386   1.400   3.550   0.827  0.7193 -0.5047  1.5047
  333SOL    MW4 1387   1.335   3.494   0.843 -0.1174  0.1752  0.5544
  334SOL     OW 1388   2.990   3.307   0.570 -0.2483  0.1200  0.2719
  334SOL    HW2 1389   3.046   3.344   0.502  0.8370 -1.4172  0.2802
  334SOL    HW3 1390   3.051   3.266   0.631 -1.3659 -1.4482  0.3759
  334SOL    MW4 1391   3.005   3.306   0.569 -0.2527 -0.2897  0.2867
  335SOL     OW 1392   1.593   3.854   0.855  0.1570  0.2587  0.4203
  335SOL    HW2 1393   1.606   3.770   0.811 -0.1273  0.9480 -0.9784
  335SOL    HW3 1394   1.647   3.916   0.806 -0.9871  1.2478  0.3852
  335SOL    MW4 1395   1.602   3.851   0.843 -0.0317  0.4804  0.2311
  336SOL     OW 1396   1.937   2.757   0.450 -0.2374  0.6425  0.1394
  336SOL    HW2 1397   2.029   2.736   0.436 -0.3556 -0.1430  0.4983
  336SOL    HW3 1398   1.893   2.672   0.455 -1.1215  1.0269 -0.9125
  336SOL    MW4 1399   1.943   2.743   0.449 -0.3698  0.5896  0.0480
  337SOL     OW 1400   1.372   4.246   0.862  0.1291  0.1359 -0.2530
  337SOL    HW2 1401   1.389   4.168   0.810  0.9232  0.0465  0.1255
  337SOL    HW3 1402   1.434   4.311   0.830  0.8847 -0.0359  0.8171
  337SOL    MW4 1403   1.383   4.244   0.851  0.3337  0.1016 -0.0619
  338SOL     OW 1404   0.910   2.493   0.469  0.0239 -0.0685  0.0322
  338SOL    HW2 1405   1.003   2.489   0.445 -0.3740 -0.3188 -1.5406
  338SOL    HW3 1406   0.909   2.485   0.564  1.5919 -0.4013  0.0311
  338SOL    MW4 1407   0.922   2.492   0.478  0.1783 -0.1457 -0.1754
  339SOL     OW 1408   2.025   0.043   0.839 -0.2183  0.1098 -0.0692
  339SOL    HW2 1409   2.088   0.087   0.781  0.7538 -0.2220  0.7149
  339SOL    HW3 1410   2.018  -0.045   0.803 -1.1174  0.4830 -0.8305
  339SOL    MW4 1411   2.032   0.037   0.827 -0.2086  0.1153 -0.0662
  340SOL     OW 1412   1.775   0.123   0.741 -0.0039 -0.5378  0.3513
  340SOL    HW2 1413   1.704   0.084   0.792 -0.3203 -0.1523  0.2048
  340SOL    HW3 1414   1.855   0.096   0.786 -0.3223  0.6880  1.6782
  340SOL    MW4 1415   1.776   0.114   0.754 -0.0877 -0.3252  0.5070
  341SOL     OW 1416   1.614   0.529   0.720 -0.0508  0.3554 -0.0626
  341SOL    HW2 1417   1.605   0.490   0.634  0.7697  0.7493 -0.3351
  341SOL    HW3 1418   1.524   0.549   0.747 -0.2991  0.3842 -0.8973
  341SOL    MW4 1419   1.601   0.527   0.712  0.0248  0.4112 -0.2087
  342SOL     OW 1420   1.640   1.042   0.280 -0.2900 -0.1301  0.0092
  342SOL    HW2 1421   1.721   1.011   0.321  0.3546  2.3511  0.6892
  342SOL    HW3 1422   1.642   1.136   0.292 -1.9102  0.2680 -2.4980
  342SOL    MW4 1423   1.651   1.050   0.287 -0.4188  0.2499 -0.2319
  343SOL     OW 1424   3.575   1.148   0.430 -0.8954 -0.2689 -0.5039
  343SOL    HW2 1425   3.617   1.233   0.440  0.1110 -0.6930 -1.0998
  343SOL    HW3 1426   3.644   1.084   0.445 -1.6492 -0.9926 -0.0360
  343SOL    MW4 1427   3.589   1.150   0.433 -0.8621 -0.4203 -0.5208
  344SOL     OW 1428   3.794   1.747   0.464  0.2303 -0.1209  0.3211
  344SOL    HW2 1429   3.825   1.836   0.445 -0.7838  1.0931  3.8596
  344SOL    HW3 1430   3.715   1.761   0.517  0.1848 -3.1419  1.0902
  344SOL    MW4 1431   3.787   1.761   0.468  0.0906 -0.3594  0.8894
  345SOL     OW 1432   1.619   2.017   0.561  0.1969  0.4010  0.0948
  345SOL    HW2 1433   1.559   2.077   0.517 -0.8850 -0.7812 -0.0628
  345SOL    HW3 1434   1.594   2.021   0.653  0.0550  0.1161  0.0692
  345SOL    MW4 1435   1.608   2.025   0.567  0.0354  0.2074  0.0706
  346SOL     OW 1436   2.206   0.922   0.768  0.1225 -0.2678 -0.0119
  346SOL    HW2 1437   2.226   0.922   0.674  1.7146 -0.6782  0.3007
  346SOL    HW3 1438   2.276   0.868   0.807 -0.5219 -0.0997  1.4031
  346SOL    MW4 1439   2.218   0.915   0.761  0.2475 -0.2998  0.2161
  347SOL     OW 1440   2.038   1.346   0.656  0.1208  0.0528  0.1782
  347SOL    HW2 1441   2.092   1.285   0.706 -1.1405 -1.9283 -0.8247
  347SOL    HW3 1442   2.081   1.354   0.571  1.3232  2.0997  0.9236
  347SOL    MW4 1443   2.050   1.339   0.652  0.1130  0.0615  0.1442
  348SOL     OW 1444   1.295   1.887   0.844 -0.5423  0.5076 -0.3586
  348SOL    HW2 1445   1.324   1.805   0.803 -1.3250  0.8173 -1.5511
  348SOL    HW3 1446   1.297   1.868   0.938 -1.3739 -1.1243 -0.6377
  348SOL    MW4 1447   1.299   1.873   0.851 -0.7554  0.3332 -0.5528
  349SOL     OW 1448   1.748   1.947   0.939  0.3847 -0.2498  0.0488
  349SOL    HW2 1449   1.806   2.009   0.894  0.8581 -0.8886 -0.2236
  349SOL    HW3 1450   1.740   1.874   0.879  0.7682 -0.9745  0.8715
  349SOL    MW4 1451   1.754   1.946   0.925  0.4978 -0.4299  0.1215
  350SOL     OW 1452   1.366   1.614   0.507 -0.0041 -0.3342 -0.4870
  350SOL    HW2 1453   1.281   1.650   0.481 -0.4352 -1.9476 -1.3599
  350SOL    HW3 1454   1.367   1.623   0.603 -1.1914 -0.3744 -0.4657
  350SOL    MW4 1455   1.355   1.620   0.516 -0.2177 -0.5523 -0.5993
  351SOL     OW 1456   1.522   2.061   0.823  0.1636  0.1183 -0.0457
  351SOL    HW2 1457   1.445   2.006   0.833 -0.5643  1.0526 -0.4675
  351SOL    HW3 1458   1.582   2.030   0.891 -0.7263 -0.3583  0.5366
  351SOL    MW4 1459   1.520   2.049   0.833 -0.0497  0.1786 -0.0246
  352SOL     OW 1460   1.334   3.749   0.350  0.6586  0.1183 -0.0393
  352SOL    HW2 1461   1.283   3.671   0.373  1.3782 -0.4893 -0.4772
  352SOL    HW3 1462   1.282   3.793   0.283  0.6143 -0.3856 -0.3361
  352SOL    MW4 1463   1.321   3.744   0.344  0.7477 -0.0284 -0.1362
  353SOL     OW 1464   1.775   4.273   0.411  0.1957  0.0757  0.0836
  353SOL    HW2 1465   1.748   4.181   0.418 -0.4816  0.2986  0.4794
  353SOL    HW3 1466   1.863   4.275   0.449  0.0171 -0.3237  0.5336
  353SOL    MW4 1467   1.783   4.261   0.417  0.0827  0.0525  0.1952
  354SOL     OW 1468   2.186   2.663   0.389 -0.1990 -0.2437  0.6127
  354SOL    HW2 1469   2.202   2.621   0.305 -0.1076 -0.9410  0.9662
  354SOL    HW3 1470   2.259   2.724   0.401  0.9694 -1.7249  1.1727
  354SOL    MW4 1471   2.198   2.665   0.380 -0.0329 -0.5312  0.7332
  355SOL     OW 1472   2.003   3.127   0.893  0.1434 -0.1050 -0.4187
  355SOL    HW2 1473   2.008   3.043   0.848 -2.1270 -0.6713  0.3099
  355SOL    HW3 1474   1.919   3.163   0.866  0.7623  1.6079 -0.1371
  355SOL    MW4 1475   1.993   3.121   0.883 -0.0745  0.0465 -0.2855
  356SOL     OW 1476   1.790   3.231   0.765  0.1780 -0.0593  0.6361
  356SOL    HW2 1477   1.708   3.185   0.781  0.0343  0.6375  1.9724
  356SOL    HW3 1478   1.803   3.225   0.670 -0.3891 -1.9042  0.6597
  356SOL    MW4 1479   1.781   3.224   0.754  0.0842 -0.2105  0.8156
  357SOL     OW 1480   1.808   3.500   0.838  0.1459 -0.1604 -0.4848
  357SOL    HW2 1481   1.822   3.501   0.932 -0.6671 -0.9753 -0.3490
  357SOL    HW3 1482   1.802   3.407   0.815 -0.0436  0.0398 -1.2842
  357SOL    MW4 1483   1.809   3.488   0.847  0.0136 -0.2418 -0.5723
  358SOL     OW 1484   2.016   3.632   0.724 -0.6503  0.8272  0.3058
  358SOL    HW2 1485   2.017   3.714   0.772 -0.6729  1.2399 -0.3944
  358SOL    HW3 1486   1.941   3.584   0.760 -0.2276  0.8172  1.1922
  358SOL    MW4 1487   2.006   3.636   0.735 -0.5975  0.8805  0.3303
  359SOL     OW 1488   2.021   3.881   0.814  0.1539  0.0921  0.2642
  359SOL    HW2 1489   2.036   3.891   0.908 -0.1055 -1.3375  0.4685
  359SOL    HW3 1490   1.942   3.932   0.797  0.5742  0.8962  0.6934
  359SOL    MW4 1491   2.012   3.889   0.824  0.1750  0.0093  0.3477
  360SOL     OW 1492   1.787   4.030   0.740 -0.4184 -0.2621  0.1967
  360SOL    HW2 1493   1.780   4.116   0.781 -1.2795  0.7857 -2.0720
  360SOL    HW3 1494   1.760   4.044   0.649 -0.7465 -2.9671 -0.1696
  360SOL    MW4 1495   1.783   4.043   0.733 -0.5753 -0.4807 -0.1510
  361SOL     OW 1496   1.779   4.295   0.807 -0.1504 -0.7851 -0.0343
  361SOL    HW2 1497   1.786   4.302   0.902 -0.7686  0.3694 -0.0678
  361SOL    HW3 1498   1.848   4.351   0.773  0.2790 -1.4449 -0.2777
  361SOL    MW4 1499   1.789   4.303   0.815 -0.1754 -0.7195 -0.0708
  362SOL     OW 1500   0.917   3.689   0.369  0.2402  0.1756 -0.0313
  362SOL    HW2 1501   0.887   3.704   0.279 -0.6933  1.1379  0.4307
  362SOL    HW3 1502   0.991   3.629   0.360 -1.0662 -1.3095 -1.3036
  362SOL    MW4 1503   0.923   3.683   0.356 -0.0553  0.1063 -0.1382
  363SOL     OW 1504   2.438   0.056   0.821  0.1625  0.1177 -0.7797
  363SOL    HW2 1505   2.458   0.023   0.909 -1.3833 -1.0351 -0.8292
  363SOL    HW3 1506   2.522   0.084   0.786  0.9665 -0.4335  0.6631
  363SOL    MW4 1507   2.451   0.055   0.828  0.0646 -0.1071 -0.5959
  364SOL     OW 1508   3.188   0.439   0.105 -0.1459 -0.3412  0.1151
  364SOL    HW2 1509   3.238   0.444   0.187  1.4088  0.1711 -0.8543
  364SOL    HW3 1510   3.243   0.482   0.040 -1.0546 -1.3800 -1.3698
  364SOL    MW4 1511   3.202   0.445   0.108 -0.0608 -0.4107 -0.2087
  365SOL     OW 1512   1.988   0.545   0.735 -0.2902 -0.5289  0.1292
  365SOL    HW2 1513   1.924   0.475   0.749 -0.1656 -0.6578  0.0560
  365SOL    HW3 1514   2.027   0.525   0.650  0.2506 -0.7610  0.4368
  365SOL    MW4 1515   1.984   0.533   0.725 -0.2024 -0.5766  0.1601
  366SOL     OW 1516   2.819   0.440   0.476  0.0861  0.0576 -0.2991
  366SOL    HW2 1517   2.835   0.345   0.475 -0.6468 -0.0637 -0.5130
  366SOL    HW3 1518   2.851   0.468   0.562 -1.2840 -0.6681  0.4654
  366SOL    MW4 1519   2.825   0.431   0.487 -0.1912 -0.0542 -0.2265
  367SOL     OW 1520   2.694   1.027   0.332 -0.0759 -0.1590  0.0007
  367SOL    HW2 1521   2.652   0.997   0.251  1.2129  0.0145 -0.7370
  367SOL    HW3 1522   2.770   0.971   0.342  0.0527  0.1583  0.8307
  367SOL    MW4 1523   2.698   1.016   0.322  0.1109 -0.0943  0.0129
  368SOL     OW 1524   0.152   1.760   0.451  0.1711  0.0914 -0.9060
  368SOL    HW2 1525   0.164   1.817   0.527 -0.7916  2.5449 -2.5376
  368SOL    HW3 1526   0.237   1.717   0.439  0.1087 -1.0234  2.0255
  368SOL    MW4 1527   0.164   1.762   0.460  0.0359  0.2681 -0.7345
  369SOL     OW 1528   2.210   1.192   0.838  0.3941 -0.6344  0.5540
  369SOL    HW2 1529   2.209   1.193   0.933 -0.2772 -0.2476  0.5446
  369SOL    HW3 1530   2.210   1.099   0.815  1.7742 -0.7257  0.9391
  369SOL    MW4 1531   2.210   1.180   0.847  0.4878 -0.5955  0.6036
  370SOL     OW 1532   2.460   1.329   0.792 -0.6187 -0.2045 -0.5544
  370SOL    HW2 1533   2.372   1.295   0.807 -1.4079  1.7446 -0.5501
  370SOL    HW3 1534   2.476   1.315   0.698 -0.9759 -0.4661 -0.5758
  370SOL    MW4 1535   2.451   1.323   0.781 -0.7701  0.0181 -0.5566
  371SOL     OW 1536   2.429   1.582   0.833 -0.2225  0.0053  0.1124
  371SOL    HW2 1537   2.440   1.489   0.813  0.9039  0.2335 -0.3373
  371SOL    HW3 1538   2.514   1.622   0.812 -1.3177  1.4814 -1.7283
  371SOL    MW4 1539   2.442   1.575   0.828 -0.2186  0.2302 -0.1898
  372SOL     OW 1540   2.212   1.746   0.766  0.4411 -0.2603 -0.1964
  372SOL    HW2 1541   2.291   1.703   0.800 -0.0039 -1.2319 -0.3463
  372SOL    HW3 1542   2.143   1.679   0.775  0.3129 -0.6005 -3.0182
  372SOL    MW4 1543   2.213   1.731   0.771  0.3655 -0.4334 -0.5885
  373SOL     OW 1544   2.219   1.980   0.903  0.4612 -0.1661 -0.4134
  373SOL    HW2 1545   2.226   1.893   0.863  0.4831 -0.2499 -0.2301
  373SOL    HW3 1546   2.131   2.010   0.880  0.4776 -0.2091 -0.5327
  373SOL    MW4 1547   2.208   1.972   0.895  0.4663 -0.1829 -0.4050
  374SOL     OW 1548   2.450   2.078   0.736  0.0657 -0.1969 -0.3600
  374SOL    HW2 1549   2.437   2.066   0.642 -1.4018 -0.2743 -0.1597
  374SOL    HW3 1550   2.373   2.038   0.776  1.0125 -0.7863  0.9186
  374SOL    MW4 1551   2.438   2.071   0.729 -0.0029 -0.2849 -0.1649
  375SOL     OW 1552   2.436   2.330   0.858 -0.2059 -0.0075 -0.0641
  375SOL    HW2 1553   2.439   2.249   0.807 -0.4159 -0.0355 -0.0311
  375SOL    HW3 1554   2.510   2.382   0.824 -1.5192  0.7871 -1.7909
  375SOL    MW4 1555   2.446   2.326   0.847 -0.4070  0.0939 -0.2877
  376SOL     OW 1556   2.484   1.317   0.518  0.2122 -0.3440 -0.4516
  376SOL    HW2 1557   2.452   1.403   0.491 -0.5975 -0.8995 -1.2898
  376SOL    HW3 1558   2.574   1.313   0.486  0.5869  0.5720  0.4643
  376SOL    MW4 1559   2.492   1.328   0.510  0.1550 -0.2965 -0.4413
  377SOL     OW 1560   2.225   2.734   0.865  0.2657  0.1633  0.1285
  377SOL    HW2 1561   2.229   2.752   0.958 -0.9176 -0.4667  0.3228
  377SOL    HW3 1562   2.203   2.640   0.860  2.3754 -0.3013 -0.7931
  377SOL    MW4 1563   2.222   2.724   0.876  0.3881  0.0191  0.0325
  378SOL     OW 1564   2.438   2.838   0.740 -0.0905 -0.0766 -0.0768
  378SOL    HW2 1565   2.524   2.815   0.777 -0.5107 -0.9990  0.3187
  378SOL    HW3 1566   2.375   2.796   0.798 -0.8249  0.7419 -0.2718
  378SOL    MW4 1567   2.441   2.830   0.753 -0.2427 -0.0901 -0.0504
  379SOL     OW 1568   2.449   3.120   0.841  0.2403 -0.0258 -0.2153
  379SOL    HW2 1569   2.461   3.120   0.936  0.3122 -1.4411 -0.2217
  379SOL    HW3 1570   2.448   3.028   0.816  0.3896  0.3328 -1.6161
  379SOL    MW4 1571   2.450   3.108   0.850  0.2699 -0.1655 -0.4010
  380SOL     OW 1572   2.221   3.249   0.753 -0.6670 -0.0054 -0.0613
  380SOL    HW2 1573   2.144   3.216   0.798 -0.4161  0.8376  1.0078
  380SOL    HW3 1574   2.293   3.195   0.785 -0.7042 -0.3537 -0.5551
  380SOL    MW4 1575   2.221   3.238   0.763 -0.6387  0.0601  0.0146
  381SOL     OW 1576   2.292   3.509   0.784  0.2690 -0.3822 -0.1727
  381SOL    HW2 1577   2.274   3.419   0.758 -0.1242  0.2220 -2.1136
  381SOL    HW3 1578   2.210   3.555   0.768  0.4833  0.3420  0.7475
  381SOL    MW4 1579   2.279   3.503   0.779  0.2453 -0.2072 -0.3073
  382SOL     OW 1580   4.098   4.020   0.504 -0.3929  0.1761  0.2045
  382SOL    HW2 1581   4.099   4.110   0.472  0.8123 -0.7240 -2.4397
  382SOL    HW3 1582   4.013   3.986   0.475 -0.7324  0.3602  0.9655
  382SOL    MW4 1583   4.087   4.028   0.496 -0.2789  0.0820 -0.0440
  383SOL     OW 1584   3.522   2.396   0.439  0.4236 -0.4677  0.0779
  383SOL    HW2 1585   3.528   2.411   0.533  1.4392  0.1520 -0.0759
  383SOL    HW3 1586   3.455   2.328   0.429 -2.0028  1.7281  1.0043
  383SOL    MW4 1587   3.514   2.389   0.450  0.2372 -0.0963  0.1798
  384SOL     OW 1588   0.932   1.399   0.431 -0.0522 -0.4577 -0.1171
  384SOL    HW2 1589   0.917   1.475   0.374  1.9945  0.6559  0.7938
  384SOL    HW3 1590   1.018   1.366   0.407  1.3274  0.6541  2.9467
  384SOL    MW4 1591   0.941   1.405   0.421  0.3998 -0.1640  0.4073
  385SOL     OW 1592   2.450   3.903   0.827  0.2887 -0.1723 -0.1820
  385SOL    HW2 1593   2.463   3.821   0.779  0.9467 -0.2096  0.0452
  385SOL    HW3 1594   2.364   3.935   0.799  0.6270 -0.2390 -1.3076
  385SOL    MW4 1595   2.441   3.896   0.817  0.4201 -0.1860 -0.3005
  386SOL     OW 1596   3.851   2.795   0.451 -0.5146  0.1845 -0.1185
  386SOL    HW2 1597   3.840   2.842   0.534 -0.6882  0.5075 -0.3199
  386SOL    HW3 1598   3.766   2.806   0.407 -0.0816  0.9009 -0.7849
  386SOL    MW4 1599   3.838   2.803   0.456 -0.4804  0.3216 -0.2331
  387SOL     OW 1600   0.002   0.837   0.509  0.2088 -0.0503  0.5713
  387SOL    HW2 1601   0.001   0.835   0.604 -0.1934 -1.7489  0.5440
  387SOL    HW3 1602   0.080   0.788   0.485  0.9250  1.3267  0.0339
  387SOL    MW4 1603   0.012   0.831   0.518  0.2503 -0.0927  0.4968
  388SOL     OW 1604   1.859   3.790   0.331 -0.7150  0.1282  0.2919
  388SOL    HW2 1605   1.881   3.811   0.240  0.0031 -1.6227  0.0456
  388SOL    HW3 1606   1.944   3.786   0.375 -1.0353  0.5769  0.9564
  388SOL    MW4 1607   1.873   3.793   0.324 -0.6624 -0.0434  0.3471
  389SOL     OW 1608   2.208   0.429   0.831 -0.3548  0.0141  0.2823
  389SOL    HW2 1609   2.124   0.474   0.816 -0.2088 -0.0961 -0.9010
  389SOL    HW3 1610   2.193   0.340   0.801  0.1371 -0.0499  0.2242
  389SOL    MW4 1611   2.195   0.423   0.825 -0.2706 -0.0089  0.1185
  390SOL     OW 1612   2.215   3.469   0.360  0.3486  0.4750 -0.2254
  390SOL    HW2 1613   2.302   3.480   0.398  0.4276 -0.3066 -0.1751
  390SOL    HW3 1614   2.228   3.477   0.266  0.6719 -0.8041 -0.3038
  390SOL    MW4 1615   2.228   3.471   0.353  0.4017  0.2031 -0.2291
  391SOL     OW 1616   3.119   0.945   0.737  0.1786 -0.3297  0.5978
  391SOL    HW2 1617   3.124   1.029   0.782  2.0405  0.4991 -1.0774
  391SOL    HW3 1618   3.031   0.912   0.756 -2.0092  3.7674 -1.8272
  391SOL    MW4 1619   3.108   0.952   0.746  0.1354  0.3202  0.0568
  392SOL     OW 1620   2.277   1.172   0.425 -0.0729  0.4305  0.2999
  392SOL    HW2 1621   2.357   1.217   0.452  1.1423 -1.4674 -0.0186
  392SOL    HW3 1622   2.220   1.241   0.392  1.9185  1.6631 -0.6366
  392SOL    MW4 1623   2.280   1.187   0.424  0.3502  0.3426  0.1343
  393SOL     OW 1624   3.439   0.905   0.485 -0.5380 -0.3931 -0.6351
  393SOL    HW2 1625   3.346   0.923   0.471 -0.7689 -1.5383 -0.6173
  393SOL    HW3 1626   3.484   0.977   0.441 -1.4209 -0.0392 -0.9724
  393SOL    MW4 1627   3.433   0.917   0.477 -0.6847 -0.4975 -0.6772
  394SOL     OW 1628   2.662   1.705   0.701 -0.0725  0.7023 -0.5877
  394SOL    HW2 1629   2.690   1.790   0.736 -0.1641  1.1267 -1.5411
  394SOL    HW3 1630   2.727   1.643   0.734  0.3916  1.2462 -0.4645
  394SOL    MW4 1631   2.674   1.708   0.710 -0.0234  0.8301 -0.6972
  395SOL     OW 1632   3.099   1.687   0.773 -0.2442  0.1413  0.4238
  395SOL    HW2 1633   3.115   1.780   0.785 -0.6266  0.3518 -0.6587
  395SOL    HW3 1634   3.122   1.670   0.682 -2.3684 -0.3452 -0.0484
  395SOL    MW4 1635   3.104   1.697   0.763 -0.5751  0.1049  0.2187
  396SOL     OW 1636   3.446   3.064   0.218 -0.0249  0.1249  0.1054
  396SOL    HW2 1637   3.360   3.073   0.259  0.0522 -2.0252  0.8292
  396SOL    HW3 1638   3.434   3.093   0.128 -1.3207  0.5365  0.4041
  396SOL    MW4 1639   3.433   3.069   0.212 -0.1857 -0.1044  0.2403
  397SOL     OW 1640   2.700   1.961   0.810  0.2010 -0.1544 -0.3336
  397SOL    HW2 1641   2.699   1.951   0.906  0.5637 -0.1522 -0.3288
  397SOL    HW3 1642   2.610   1.985   0.788  0.1839  0.1372  0.0382
  397SOL    MW4 1643   2.688   1.963   0.820  0.2465 -0.1156 -0.2839
  398SOL     OW 1644   3.311   0.194   0.403  0.2540 -0.0602 -0.2859
  398SOL    HW2 1645   3.406   0.187   0.418  0.5126  1.6349 -0.9424
  398SOL    HW3 1646   3.294   0.289   0.404 -1.3141 -0.3192 -0.9359
  398SOL    MW4 1647   3.322   0.206   0.405  0.0813  0.1293 -0.4583
  399SOL     OW 1648   2.402   4.457   0.443  0.2591 -0.2238  0.1425
  399SOL    HW2 1649   2.417   4.370   0.407  2.2881 -0.1537  0.7807
  399SOL    HW3 1650   2.421   4.448   0.537 -0.8542  0.5937  0.4611
  399SOL    MW4 1651   2.407   4.444   0.451  0.3798 -0.1063  0.2687
  400SOL     OW 1652   2.645   2.491   0.766  0.4058  0.5552  0.1509
  400SOL    HW2 1653   2.656   2.581   0.795  1.1198  0.4234  0.2866
  400SOL    HW3 1654   2.718   2.443   0.806 -0.5964 -0.2983  1.0031
  400SOL    MW4 1655   2.656   2.496   0.775  0.3679  0.4251  0.2812
  401SOL     OW 1656   2.673   2.772   0.866  0.3978 -0.3081  0.2814
  401SOL    HW2 1657   2.681   2.740   0.956  2.0830 -1.8758 -0.3799
  401SOL    HW3 1658   2.762   2.764   0.830 -0.1031  1.0074 -1.2952
  401SOL    MW4 1659   2.686   2.766   0.873  0.5541 -0.3417 -0.0138
  402SOL     OW 1660   1.543   0.917   0.919  0.2125 -0.2798  0.1805
  402SOL    HW2 1661   1.634   0.943   0.901 -0.6261  1.8229 -1.1316
  402SOL    HW3 1662   1.505   0.900   0.833 -1.2177  0.8839  0.5539
  402SOL    MW4 1663   1.550   0.918   0.905 -0.0868  0.1512  0.0566
  403SOL     OW 1664   2.916   3.092   0.912  0.0566 -0.3763 -0.1073
  403SOL    HW2 1665   2.852   3.151   0.872  0.6516 -0.2544 -0.9086
  403SOL    HW3 1666   2.908   3.011   0.862  0.3517 -0.4450 -0.0412
  403SOL    MW4 1667   2.906   3.089   0.900  0.1740 -0.3693 -0.2043
  404SOL     OW 1668   2.723   3.248   0.777 -0.2399 -0.2589 -0.3040
  404SOL    HW2 1669   2.709   3.337   0.809 -1.5933 -0.4783 -0.2324
  404SOL    HW3 1670   2.652   3.197   0.816  0.3171 -1.3008 -0.6223
  404SOL    MW4 1671   2.712   3.253   0.786 -0.3450 -0.4256 -0.3366
  405SOL     OW 1672   2.741   3.522   0.829  0.1027  0.0374 -0.3687
  405SOL    HW2 1673   2.737   3.510   0.924  0.3339 -1.8631 -0.5866
  405SOL    HW3 1674   2.815   3.581   0.815  1.4734 -1.4657  0.4903
  405SOL    MW4 1675   2.750   3.528   0.840  0.3140 -0.4115 -0.2841
  406SOL     OW 1676   2.978   3.669   0.755 -0.6805 -0.0941 -0.3806
  406SOL    HW2 1677   2.963   3.757   0.789  0.6581 -0.0099  0.0526
  406SOL    HW3 1678   2.986   3.680   0.660 -0.4461  0.2671 -0.3177
  406SOL    MW4 1679   2.977   3.682   0.747 -0.4733 -0.0353 -0.3152
  407SOL     OW 1680   2.877   3.914   0.871  0.3585 -0.1843 -0.5143
  407SOL    HW2 1681   2.878   3.905   0.967 -1.4222 -0.1812 -0.4860
  407SOL    HW3 1682   2.800   3.967   0.853 -0.0096 -1.2122 -2.0406
  407SOL    MW4 1683   2.867   3.919   0.882  0.0749 -0.3192 -0.7119
  408SOL     OW 1684   2.663   4.066   0.779 -0.5591  0.0881 -0.0494
  408SOL    HW2 1685   2.668   4.078   0.684  1.1394 -0.6298 -0.0547
  408SOL    HW3 1686   2.591   4.004   0.791  0.8194 -1.7305 -1.0419
  408SOL    MW4 1687   2.654   4.059   0.768 -0.1531 -0.2465 -0.1811
  409SOL     OW 1688   2.650   4.328   0.846  0.0249  0.2827 -0.2351
  409SOL    HW2 1689   2.647   4.338   0.941 -1.5740  1.8968 -0.4511
  409SOL    HW3 1690   2.653   4.233   0.832  0.9105  0.0527  1.4296
  409SOL    MW4 1691   2.650   4.317   0.857 -0.0691  0.4649 -0.0439
  410SOL     OW 1692   3.162   4.479   0.388  0.0845 -0.3602  0.5308
  410SOL    HW2 1693   3.131   4.552   0.441 -1.0598 -0.5110  0.0760
  410SOL    HW3 1694   3.182   4.517   0.302  0.6778 -0.3611  0.6627
  410SOL    MW4 1695   3.161   4.493   0.384  0.0119 -0.3810  0.4882
  411SOL     OW 1696   3.369   4.628   0.885 -0.2471 -0.3244 -0.4971
  411SOL    HW2 1697   3.384   4.624   0.979  1.8435  1.8933 -0.6948
  411SOL    HW3 1698   3.300   4.693   0.875  1.0809  1.0942 -0.6135
  411SOL    MW4 1699   3.362   4.636   0.896  0.2038  0.1554 -0.5385
  412SOL     OW 1700   0.917   0.577   0.409  0.2631 -0.5522 -0.3722
  412SOL    HW2 1701   0.894   0.514   0.341  0.1707 -1.9477  0.9272
  412SOL    HW3 1702   0.834   0.599   0.450  0.3968 -0.1737 -0.3003
  412SOL    MW4 1703   0.903   0.572   0.405  0.2686 -0.6863 -0.1913
  413SOL     OW 1704   2.989   4.281   0.283  0.5685 -0.3438 -0.2932
  413SOL    HW2 1705   3.073   4.312   0.315  1.3601 -0.8477 -1.8652
  413SOL    HW3 1706   2.956   4.353   0.229 -0.1795 -0.0164  0.5679
  413SOL    MW4 1707   2.995   4.295   0.280  0.5744 -0.3667 -0.3870
  414SOL     OW 1708   3.165   0.130   0.831 -0.1541 -0.1493 -0.0450
  414SOL    HW2 1709   3.162   0.225   0.839 -2.2467 -0.1942  0.0361
  414SOL    HW3 1710   3.186   0.115   0.739  1.5581  0.3621  0.2332
  414SOL    MW4 1711   3.167   0.141   0.820 -0.2041 -0.0877  0.0024
  415SOL     OW 1712   3.365   0.807   0.858 -0.3046  0.2923  0.4781
  415SOL    HW2 1713   3.436   0.870   0.851  0.2461 -0.4269 -0.5996
  415SOL    HW3 1714   3.289   0.852   0.821 -0.0326  0.5103  0.1764
  415SOL    MW4 1715   3.364   0.821   0.852 -0.1957  0.2262  0.2961
  416SOL     OW 1716   2.376   1.570   0.414 -0.0838 -0.0022 -0.0773
  416SOL    HW2 1717   2.328   1.643   0.453 -1.9059 -1.0975 -0.1893
  416SOL    HW3 1718   2.466   1.602   0.406 -0.8269  2.1897 -0.0776
  416SOL    MW4 1719   2.382   1.584   0.418 -0.4222  0.1425 -0.0921
  417SOL     OW 1720   2.864   1.263   0.701  0.1597  0.0654  0.4581
  417SOL    HW2 1721   2.786   1.225   0.741  0.4206 -2.1567 -1.0557
  417SOL    HW3 1722   2.937   1.220   0.745  0.5833  2.2499  1.9771
  417SOL    MW4 1723   2.863   1.252   0.712  0.2499  0.0604  0.4587
  418SOL     OW 1724   3.307   1.322   0.758 -0.3658  0.0583  0.5241
  418SOL    HW2 1725   3.329   1.411   0.785  0.9268 -0.3779  0.9481
  418SOL    HW3 1726   3.371   1.266   0.803 -1.7342 -1.1716  0.9789
  418SOL    MW4 1727   3.318   1.326   0.767 -0.3760 -0.1615  0.6401
  419SOL     OW 1728   3.363   1.578   0.838 -0.4018  0.2014 -0.2686
  419SOL    HW2 1729   3.273   1.600   0.814 -1.1561 -1.1148  1.2125
  419SOL    HW3 1730   3.362   1.574   0.934  1.6684  1.8789 -0.1482
  419SOL    MW4 1731   3.351   1.580   0.847 -0.2284  0.2489 -0.0573
  420SOL     OW 1732   4.059   1.325   0.493  0.3887 -0.2314  0.1590
  420SOL    HW2 1733   4.153   1.318   0.510  0.6522  1.1669 -0.5904
  420SOL    HW3 1734   4.048   1.414   0.458 -0.7253 -1.5536 -2.9955
  420SOL    MW4 1735   4.070   1.336   0.491  0.2766 -0.2211 -0.3560
  421SOL     OW 1736   3.110   1.952   0.839 -0.2659 -0.0986 -0.0882
  421SOL    HW2 1737   3.037   2.007   0.812 -0.0253  0.0046 -0.5288
  421SOL    HW3 1738   3.114   1.961   0.934 -1.3130 -0.7045  0.0208
  421SOL    MW4 1739   3.101   1.960   0.848 -0.3722 -0.1651 -0.1319
  422SOL     OW 1740   2.076   0.781   0.365 -0.0885 -0.4839 -0.3071
  422SOL    HW2 1741   2.076   0.692   0.403 -0.1678 -0.8515 -1.1647
  422SOL    HW3 1742   2.031   0.771   0.282  1.1509  0.0941 -1.0584
  422SOL    MW4 1743   2.070   0.768   0.359  0.0644 -0.4561 -0.5194
  423SOL     OW 1744   3.298   2.380   0.848 -0.2057 -0.1041  0.0323
  423SOL    HW2 1745   3.313   2.362   0.941  0.2590 -0.0910 -0.0380
  423SOL    HW3 1746   3.385   2.403   0.814 -0.6288  1.3064 -0.0993
  423SOL    MW4 1747   3.312   2.380   0.856 -0.2000  0.0837  0.0057
  424SOL     OW 1748   3.096   2.507   0.690  0.0253 -0.4433 -0.0550
  424SOL    HW2 1749   3.164   2.456   0.735  0.0151 -1.0843 -0.7537
  424SOL    HW3 1750   3.015   2.485   0.736  0.2489  0.1517  0.6400
  424SOL    MW4 1751   3.094   2.497   0.702  0.0532 -0.4497 -0.0554
  425SOL     OW 1752   3.356   2.780   0.665 -0.1625 -0.0744  0.6816
  425SOL    HW2 1753   3.428   2.748   0.719  0.1679 -0.3629  0.0797
  425SOL    HW3 1754   3.366   2.734   0.582 -0.0681  1.0917  0.0247
  425SOL    MW4 1755   3.367   2.770   0.661 -0.1063  0.0412  0.5155
  426SOL     OW 1756   3.095   2.335   0.362  0.3982 -0.5951 -0.3794
  426SOL    HW2 1757   3.005   2.320   0.390  0.6957  1.6666  2.0120
  426SOL    HW3 1758   3.148   2.297   0.432  1.2134  1.9369  0.4448
  426SOL    MW4 1759   3.090   2.328   0.375  0.5453  0.0374  0.0449
  427SOL     OW 1760   3.146   2.739   0.851  0.8985  0.1516  0.1820
  427SOL    HW2 1761   3.209   2.769   0.787 -0.6715  0.4225 -1.2741
  427SOL    HW3 1762   3.134   2.646   0.834  0.1355  0.3193 -0.2357
  427SOL    MW4 1763   3.153   2.731   0.841  0.5903  0.2093 -0.0652
  428SOL     OW 1764   3.149   3.211   0.766  0.1715  0.5895  0.0642
  428SOL    HW2 1765   3.213   3.145   0.738 -0.0565  1.1451 -1.7909
  428SOL    HW3 1766   3.085   3.161   0.817  0.4362 -0.4936 -0.6395
  428SOL    MW4 1767   3.149   3.195   0.769  0.1762  0.5202 -0.2735
  429SOL     OW 1768   3.175   3.475   0.851 -0.0686  0.2770  0.0257
  429SOL    HW2 1769   3.168   3.390   0.807 -0.4540  0.9852 -1.3283
  429SOL    HW3 1770   3.111   3.530   0.805  2.7798  2.3335 -1.6249
  429SOL    MW4 1771   3.166   3.471   0.839  0.2565  0.6418 -0.3707
  430SOL     OW 1772   3.399   3.634   0.790 -0.5904 -0.0790 -0.1920
  430SOL    HW2 1773   3.382   3.717   0.834 -0.7060 -1.2617  2.0793
  430SOL    HW3 1774   3.324   3.579   0.813  0.0536 -1.1924 -0.6961
  430SOL    MW4 1775   3.387   3.638   0.799 -0.5207 -0.3822  0.0412
  431SOL     OW 1776   3.315   3.896   0.842  0.2191  0.1389 -0.0030
  431SOL    HW2 1777   3.334   3.881   0.935  0.6705  1.9675  0.2214
  431SOL    HW3 1778   3.398   3.928   0.806  0.0575 -0.6026 -1.0538
  431SOL    MW4 1779   3.329   3.898   0.849  0.2573  0.2825 -0.1119
  432SOL     OW 1780   3.093   4.014   0.711 -0.5037 -0.1910  0.0675
  432SOL    HW2 1781   3.163   3.967   0.756 -0.0184  0.1493 -0.3350
  432SOL    HW3 1782   3.013   3.989   0.759 -0.1384 -0.7318  0.3976
  432SOL    MW4 1783   3.092   4.005   0.723 -0.3915 -0.2179  0.0579
  433SOL     OW 1784   3.119   4.264   0.857  0.0055  0.2964  0.0996
  433SOL    HW2 1785   3.205   4.300   0.836 -0.2120  0.1125 -1.1783
  433SOL    HW3 1786   3.109   4.189   0.798 -1.5477  1.0883 -0.6985
  433SOL    MW4 1787   3.129   4.259   0.846 -0.2277  0.3767 -0.1742
  434SOL     OW 1788   3.359   4.377   0.800  0.5501 -0.0708  0.2811
  434SOL    HW2 1789   3.340   4.361   0.707 -1.4933  0.2231  0.6247
  434SOL    HW3 1790   3.354   4.472   0.808 -0.0070 -0.1461  0.8355
  434SOL    MW4 1791   3.356   4.388   0.789  0.2067 -0.0424  0.3996
  435SOL     OW 1792   3.813   4.633   0.841  0.1799 -0.2778 -1.3357
  435SOL    HW2 1793   3.727   4.673   0.825  0.4738  0.7766 -0.3909
  435SOL    HW3 1794   3.876   4.700   0.814  0.6865 -0.1026  0.2541
  435SOL    MW4 1795   3.810   4.647   0.835  0.2856 -0.1154 -1.0013
  436SOL     OW 1796   3.582   0.120   0.799  0.2456  0.1531  0.3844
  436SOL    HW2 1797   3.500   0.084   0.834  0.0908  0.9734  0.8900
  436SOL    HW3 1798   3.569   0.215   0.802  0.1098  0.2435 -2.1869
  436SOL    MW4 1799   3.569   0.128   0.804  0.2069  0.2733  0.1118
  437SOL     OW 1800   3.163   0.414   0.833 -0.6495 -0.4391  0.2028
  437SOL    HW2 1801   3.231   0.471   0.797 -0.3687 -1.0909 -0.3219
  437SOL    HW3 1802   3.179   0.414   0.928 -0.0900 -0.3647  0.1104
  437SOL    MW4 1803   3.174   0.421   0.841 -0.5386 -0.5153  0.1214
  438SOL     OW 1804   0.100   0.450   0.506 -0.3791 -0.0466 -0.0981
  438SOL    HW2 1805   0.010   0.449   0.475 -0.5690 -1.9283  0.4315
  438SOL    HW3 1806   0.136   0.532   0.474 -2.7700  1.5229  1.0978
  438SOL    MW4 1807   0.093   0.461   0.498 -0.7196 -0.0878  0.1295
  439SOL     OW 1808   4.317   0.502   0.683  0.4819  0.1546  0.0055
  439SOL    HW2 1809   4.296   0.569   0.747  0.4726  0.7869 -0.6560
  439SOL    HW3 1810   4.399   0.464   0.714  0.4478  0.4192  0.4228
  439SOL    MW4 1811   4.325   0.506   0.696  0.4759  0.2730 -0.0268
  440SOL     OW 1812   3.764   0.754   0.820  0.1033 -0.0589  0.4769
  440SOL    HW2 1813   3.765   0.752   0.916 -0.7614  0.1149  0.4912
  440SOL    HW3 1814   3.701   0.822   0.798 -0.1183 -0.4868 -0.2197
  440SOL    MW4 1815   3.756   0.763   0.830 -0.0403 -0.0924  0.3868
  441SOL     OW 1816   3.513   0.621   0.498 -0.0574  0.1136 -0.3394
  441SOL    HW2 1817   3.482   0.582   0.580  0.5059 -0.1012 -0.2314
  441SOL    HW3 1818   3.469   0.706   0.494 -0.7189 -0.2219 -0.2194
  441SOL    MW4 1819   3.503   0.627   0.508 -0.0703  0.0409 -0.3093
  442SOL     OW 1820   2.819   4.383   0.483  0.2407 -0.2283 -0.3248
  442SOL    HW2 1821   2.879   4.333   0.428  2.1774  0.6548  0.9322
  442SOL    HW3 1822   2.862   4.386   0.569 -1.0066  1.4844  0.2640
  442SOL    MW4 1823   2.832   4.377   0.487  0.3319  0.1140 -0.0812
  443SOL     OW 1824   3.757   1.588   0.858 -0.1445  0.0974 -0.5303
  443SOL    HW2 1825   3.829   1.614   0.800 -0.0094  0.8082 -0.0571
  443SOL    HW3 1826   3.735   1.499   0.831 -0.0046  0.3762 -1.5944
  443SOL    MW4 1827   3.764   1.580   0.847 -0.1082  0.2280 -0.6083
  444SOL     OW 1828   3.563   1.763   0.810 -0.6422 -0.3356  0.2248
  444SOL    HW2 1829   3.644   1.713   0.822  0.4765  1.6719  1.4793
  444SOL    HW3 1830   3.493   1.701   0.827  0.6462 -1.9188 -0.0831
  444SOL    MW4 1831   3.565   1.749   0.814 -0.3247 -0.2795  0.3496
  445SOL     OW 1832   4.235   2.035   0.717 -0.0485  0.1048  0.0444
  445SOL    HW2 1833   4.219   2.041   0.623 -0.4621  0.4528  0.1320
  445SOL    HW3 1834   4.156   1.993   0.752  0.6316 -1.1472  0.0837
  445SOL    MW4 1835   4.222   2.031   0.710 -0.0134 -0.0145  0.0611
  446SOL     OW 1836   0.447   3.224   0.737 -0.0646 -0.0539 -0.2587
  446SOL    HW2 1837   0.368   3.176   0.762  0.0184  0.1605  0.4118
  446SOL    HW3 1838   0.434   3.311   0.772  0.3717  0.0477 -0.3511
  446SOL    MW4 1839   0.435   3.229   0.745  0.0039 -0.0122 -0.1824
  447SOL     OW 1840   3.300   2.131   0.748 -0.2377 -0.1783  0.2300
  447SOL    HW2 1841   3.289   2.216   0.791 -0.0258  0.3975 -0.8294
  447SOL    HW3 1842   3.230   2.076   0.784 -0.3458  0.4351  0.9555
  447SOL    MW4 1843   3.289   2.135   0.758 -0.2241 -0.0212  0.1860
  448SOL     OW 1844   3.766   2.331   0.820  0.5112  0.2608 -0.3440
  448SOL    HW2 1845   3.772   2.246   0.776  2.2222  0.0782  0.2372
  448SOL    HW3 1846   3.746   2.309   0.911  0.0674  0.5227 -0.3773
  448SOL    MW4 1847   3.764   2.316   0.826  0.6783  0.2713 -0.2717
  449SOL     OW 1848   3.577   2.687   0.822 -0.2507  0.7582  0.4875
  449SOL    HW2 1849   3.580   2.723   0.910  1.3709  1.1981  0.2634
  449SOL    HW3 1850   3.660   2.713   0.782  0.7165 -2.6014  0.0834
  449SOL    MW4 1851   3.588   2.695   0.828  0.0906  0.3731  0.4046
  450SOL     OW 1852   3.086   1.645   0.497 -0.0613  0.2640  0.0480
  450SOL    HW2 1853   3.040   1.729   0.492  0.4525  0.5589  0.1647
  450SOL    HW3 1854   3.041   1.589   0.435 -0.3412  0.6636 -0.1114
  450SOL    MW4 1855   3.074   1.649   0.488 -0.0305  0.3556  0.0423
  451SOL     OW 1856   4.003   2.703   0.839 -0.4125  0.1518  0.5843
  451SOL    HW2 1857   4.083   2.749   0.813 -0.6571  1.0938  1.4436
  451SOL    HW3 1858   4.007   2.619   0.793  0.2818  0.8370 -0.6277
  451SOL    MW4 1859   4.014   2.698   0.830 -0.3529  0.3667  0.5378
  452SOL     OW 1860   2.900   1.514   0.352  0.0310 -0.2163  0.6602
  452SOL    HW2 1861   2.889   1.526   0.257  4.4035 -2.2705 -0.2178
  452SOL    HW3 1862   2.852   1.434   0.372 -0.3115 -0.1644  0.0619
  452SOL    MW4 1863   2.892   1.505   0.342  0.5627 -0.4804  0.4655
  453SOL     OW 1864   3.614   3.480   0.849  0.0754 -0.1397 -0.0081
  453SOL    HW2 1865   3.573   3.393   0.850  1.2253 -0.7074  2.1846
  453SOL    HW3 1866   3.543   3.540   0.829 -1.0091 -1.4621 -0.2289
  453SOL    MW4 1867   3.600   3.476   0.846  0.0839 -0.3891  0.2520
  454SOL     OW 1868   0.953   0.146   0.498 -0.1583  0.0785  0.1288
  454SOL    HW2 1869   0.949   0.061   0.454  0.5245 -0.1604  0.5147
  454SOL    HW3 1870   0.957   0.124   0.592  0.7420  0.5163  0.1913
  454SOL    MW4 1871   0.953   0.132   0.505  0.0505  0.1047  0.1880
  455SOL     OW 1872   3.850   3.826   0.820  0.6438 -0.2007 -0.3661
  455SOL    HW2 1873   3.770   3.866   0.787  0.7646  0.6813  0.4023
  455SOL    HW3 1874   3.851   3.739   0.781 -0.6970 -0.2241 -0.3602
  455SOL    MW4 1875   3.840   3.820   0.811  0.4828 -0.0875 -0.2639
  456SOL     OW 1876   3.582   3.956   0.772  0.2352  0.1249  0.0435
  456SOL    HW2 1877   3.611   3.984   0.686  0.5650 -0.9835 -0.2173
  456SOL    HW3 1878   3.575   4.037   0.823  1.0969  0.6747 -0.6970
  456SOL    MW4 1879   3.585   3.970   0.767  0.3924  0.0510 -0.0886
  457SOL     OW 1880   3.817   4.357   0.778 -0.2562 -0.1221  0.4404
  457SOL    HW2 1881   3.903   4.320   0.798 -0.2698  0.2586  1.2475
  457SOL    HW3 1882   3.823   4.448   0.808 -0.6695  0.1455 -0.2699
  457SOL    MW4 1883   3.829   4.364   0.785 -0.3123 -0.0367  0.4531
  458SOL     OW 1884   4.042   0.110   0.767  0.0058 -0.3107  0.0925
  458SOL    HW2 1885   4.063   0.201   0.789  1.1821 -0.5751  0.0992
  458SOL    HW3 1886   4.051   0.105   0.672 -0.1953 -0.3902  0.0766
  458SOL    MW4 1887   4.046   0.121   0.757  0.1345 -0.3561  0.0914
  459SOL     OW 1888   4.274   4.639   0.839  0.2131 -0.1193  0.1645
  459SOL    HW2 1889   4.285   4.667   0.930 -0.8780 -1.5888  0.7647
  459SOL    HW3 1890   4.187   4.670   0.816  0.3640 -0.0315 -0.2785
  459SOL    MW4 1891   4.264   4.647   0.848  0.0892 -0.3014  0.1852
  460SOL     OW 1892   4.080   0.390   0.841 -0.1324  0.0370  0.0290
  460SOL    HW2 1893   4.152   0.448   0.815  0.4198  0.0843  1.6019
  460SOL    HW3 1894   4.001   0.438   0.818  0.3323  0.4948 -0.6371
  460SOL    MW4 1895   4.079   0.404   0.834  0.0014  0.1036  0.1487
  461SOL     OW 1896   4.417   0.045   0.306  0.2692  0.3710 -0.2095
  461SOL    HW2 1897   4.342   0.105   0.297 -0.1125  0.4330  2.8983
  461SOL    HW3 1898   4.493   0.103   0.309  0.4757  0.3303 -2.9333
  461SOL    MW4 1899   4.417   0.061   0.305  0.2456  0.3738 -0.1588
  462SOL     OW 1900   3.573   0.384   0.859 -0.5866 -0.1076 -0.3150
  462SOL    HW2 1901   3.657   0.419   0.829 -0.5256 -0.1510 -0.1963
  462SOL    HW3 1902   3.584   0.375   0.954 -1.1749  1.1001 -0.1315
  462SOL    MW4 1903   3.586   0.387   0.868 -0.6561  0.0460 -0.2751
  463SOL     OW 1904   3.955   2.536   0.457 -0.2556  0.3259 -0.1126
  463SOL    HW2 1905   3.974   2.509   0.547  0.6079  1.6349  0.1075
  463SOL    HW3 1906   3.923   2.626   0.465  0.5912  0.7334 -1.1774
  463SOL    MW4 1907   3.953   2.544   0.470 -0.0303  0.5527 -0.2240
  464SOL     OW 1908   1.899   2.072   0.546  0.3355  0.3102  0.0972
  464SOL    HW2 1909   1.804   2.071   0.543  0.3353  0.8277 -0.1946
  464SOL    HW3 1910   1.924   2.153   0.500  0.8768  0.7020  1.0667
  464SOL    MW4 1911   1.890   2.083   0.539  0.4069  0.4303  0.1866
  465SOL     OW 1912   4.018   1.599   0.449 -0.1757 -0.6898  0.0805
  465SOL    HW2 1913   3.938   1.652   0.445  0.4887  0.3235 -0.0938
  465SOL    HW3 1914   4.070   1.630   0.375 -0.6123 -3.0122 -1.2385
  465SOL    MW4 1915   4.014   1.610   0.439 -0.1459 -0.8625 -0.1165
  466SOL     OW 1916   3.526   1.180   0.881 -0.0689 -0.0697  0.1913
  466SOL    HW2 1917   3.558   1.174   0.972 -0.6401 -0.1019  0.3919
  466SOL    HW3 1918   3.573   1.255   0.845  0.8662 -0.6290  0.2252
  466SOL    MW4 1919   3.536   1.189   0.889 -0.0210 -0.1477  0.2223
  467SOL     OW 1920   4.200   1.514   0.887  0.2286  0.1561  0.2301
  467SOL    HW2 1921   4.221   1.521   0.981  2.1196  0.2220 -0.1793
  467SOL    HW3 1922   4.212   1.422   0.867  2.4923  0.5882 -0.5314
  467SOL    MW4 1923   4.204   1.503   0.897  0.7768  0.2218  0.0756
  468SOL     OW 1924   2.844   2.231   0.450  0.2800 -0.0886 -0.0392
  468SOL    HW2 1925   2.777   2.299   0.464  0.2946 -0.1643  0.4055
  468SOL    HW3 1926   2.794   2.156   0.417  0.2148  0.0136 -0.1788
  468SOL    MW4 1927   2.828   2.230   0.447  0.2732 -0.0851  0.0011
  469SOL     OW 1928   3.534   2.032   0.876  0.2748  0.3481  0.0399
  469SOL    HW2 1929   3.531   1.940   0.849  0.4708  0.3472  0.0180
  469SOL    HW3 1930   3.461   2.073   0.831  0.2547  0.2250 -0.0402
  469SOL    MW4 1931   3.524   2.025   0.866  0.2980  0.3316  0.0263
  470SOL     OW 1932   3.486   3.622   0.526  0.1216  0.2984  0.0072
  470SOL    HW2 1933   3.525   3.535   0.522  0.2370  0.3164  0.7553
  470SOL    HW3 1934   3.454   3.631   0.615  0.4799  1.1726  0.0610
  470SOL    MW4 1935   3.487   3.612   0.537  0.1843  0.4160  0.1130
  471SOL     OW 1936   4.348   1.295   0.527 -0.6193  0.0234 -0.2128
  471SOL    HW2 1937   4.328   1.294   0.620 -0.4249  0.5443 -0.1617
  471SOL    HW3 1938   4.379   1.384   0.510  0.5234 -0.4258 -0.5287
  471SOL    MW4 1939   4.350   1.307   0.537 -0.4430  0.0328 -0.2477
  472SOL     OW 1940   3.240   0.159   0.128 -0.2833  0.2234  0.3432
  472SOL    HW2 1941   3.253   0.171   0.222 -0.2409  1.5724  0.1719
  472SOL    HW3 1942   3.203   0.242   0.098 -0.7655 -0.3746 -0.7460
  472SOL    MW4 1943   3.237   0.171   0.136 -0.3412  0.3225  0.1769
  473SOL     OW 1944   3.787   2.841   0.721 -0.3223  0.1889 -0.2097
  473SOL    HW2 1945   3.858   2.789   0.760 -0.7025 -0.4993 -0.4188
  473SOL    HW3 1946   3.791   2.925   0.766  0.2440 -0.0582  0.2060
  473SOL    MW4 1947   3.797   2.845   0.732 -0.2975  0.0656 -0.1824
  474SOL     OW 1948   1.693   1.314   0.364  0.1280 -0.3033 -0.3678
  474SOL    HW2 1949   1.722   1.404   0.347 -0.9626 -0.1484 -1.4411
  474SOL    HW3 1950   1.733   1.292   0.448 -0.0698  1.3934  0.1875
  474SOL    MW4 1951   1.702   1.323   0.373 -0.0420 -0.0589 -0.4361
  475SOL     OW 1952   3.993   3.222   0.748  0.4317 -0.1058  0.3067
  475SOL    HW2 1953   4.024   3.311   0.759  0.0903  0.0149  0.3033
  475SOL    HW3 1954   4.068   3.167   0.771  1.1359  0.2003 -1.1956
  475SOL    MW4 1955   4.007   3.226   0.752  0.4797 -0.0494  0.1081
  476SOL     OW 1956   4.063   3.476   0.824 -0.0843  0.2632  0.3607
  476SOL    HW2 1957   4.075   3.490   0.918 -0.1970  1.4289  0.2116
  476SOL    HW3 1958   4.145   3.507   0.784 -0.5241  0.9684 -0.0173
  476SOL    MW4 1959   4.076   3.482   0.831 -0.1574  0.5102  0.2912
  477SOL     OW 1960   4.236   2.846   0.756  0.0944 -0.3059 -0.0396
  477SOL    HW2 1961   4.317   2.796   0.767 -0.0620 -0.6914 -0.6430
  477SOL    HW3 1962   4.230   2.864   0.663 -0.0803  0.4607  0.1191
  477SOL    MW4 1963   4.246   2.842   0.745  0.0505 -0.2558 -0.0982
  478SOL     OW 1964   4.298   3.599   0.719 -0.1798 -0.2405  0.0409
  478SOL    HW2 1965   4.326   3.610   0.628  1.9102 -0.3422  0.6342
  478SOL    HW3 1966   4.294   3.689   0.753 -2.5136 -0.0859 -0.5586
  478SOL    MW4 1967   4.301   3.613   0.712 -0.2122 -0.2334  0.0401
  479SOL     OW 1968   4.289   3.853   0.834 -0.3174 -0.0241  0.2199
  479SOL    HW2 1969   4.290   3.851   0.930 -1.2551 -0.4427  0.2288
  479SOL    HW3 1970   4.228   3.923   0.813 -0.9048 -0.6099 -0.0625
  479SOL    MW4 1971   4.281   3.862   0.844 -0.5183 -0.1564  0.1839
  480SOL     OW 1972   4.073   4.035   0.780  0.0481 -0.3417  0.2997
  480SOL    HW2 1973   4.001   3.976   0.804  0.3778 -0.9224 -0.1174
  480SOL    HW3 1974   4.081   4.024   0.685 -0.6418  1.2314  0.0481
  480SOL    MW4 1975   4.064   4.025   0.770  0.0005 -0.2108  0.2115
  481SOL     OW 1976   4.078   4.297   0.844 -0.0331  0.8380  0.2567
  481SOL    HW2 1977   4.156   4.334   0.802 -0.1760  1.4458  0.5195
  481SOL    HW3 1978   4.078   4.205   0.818  1.2108  0.6502  0.8815
  481SOL    MW4 1979   4.089   4.290   0.835  0.1121  0.8936  0.3738
  482SOL     OW 1980   0.234   4.390   0.768  0.2840  0.0854  0.4385
  482SOL    HW2 1981   0.313   4.344   0.797 -0.3303 -1.0120  0.3905
  482SOL    HW3 1982   0.162   4.331   0.792 -0.3494 -0.0940 -1.8287
  482SOL    MW4 1983   0.235   4.376   0.775  0.1194 -0.0834  0.1330
  483SOL     OW 1984   0.184   4.628   1.139  0.2619  0.0467 -0.2426
  483SOL    HW2 1985   0.252   4.683   1.178 -0.4569  1.6815 -1.2568
  483SOL    HW3 1986   0.185   4.650   1.046 -1.6184  0.0527 -0.2752
  483SOL    MW4 1987   0.193   4.638   1.132 -0.0810  0.2632 -0.3808
  484SOL     OW 1988   4.490   0.125   1.214  0.2084 -0.0993 -0.0077
  484SOL    HW2 1989   4.405   0.086   1.193  0.1314 -1.7004  2.9642
  484SOL    HW3 1990   4.554   0.059   1.190  0.3589 -0.3624  1.0890
  484SOL    MW4 1991   4.487   0.111   1.208  0.2179 -0.3453  0.5293
  485SOL     OW 1992   4.482   0.364   1.082  0.0515 -0.4114  0.5249
  485SOL    HW2 1993   4.423   0.422   1.129  0.0908 -0.5564  0.7584
  485SOL    HW3 1994   4.469   0.278   1.123 -0.2634 -0.6410 -0.0543
  485SOL    MW4 1995   4.473   0.360   1.094  0.0148 -0.4608  0.4793
  486SOL     OW 1996   0.216   0.440   1.211  0.4538 -0.1713 -0.0284
  486SOL    HW2 1997   0.215   0.535   1.204  0.9802 -0.2457 -1.2682
  486SOL    HW3 1998   0.142   0.410   1.159 -0.0741 -0.4244  0.8473
  486SOL    MW4 1999   0.206   0.448   1.203  0.4536 -0.2145 -0.0764
  487SOL     OW 2000   0.208   0.705   1.171  0.4310 -0.5743 -0.1168
  487SOL    HW2 2001   0.275   0.764   1.205 -0.1248 -1.5269  2.7124
  487SOL    HW3 2002   0.130   0.759   1.165  0.3073 -0.6239  1.0035
  487SOL    MW4 2003   0.207   0.720   1.175  0.3413 -0.7066  0.4042
  488SOL     OW 2004   0.003   0.879   1.177  0.0588 -0.0446  0.0088
  488SOL    HW2 2005   0.010   0.874   1.273  0.1051  0.8303  0.0495
  488SOL    HW3 2006  -0.087   0.855   1.158  0.1773 -0.6910  0.2335
  488SOL    MW4 2007  -0.008   0.875   1.187  0.0806 -0.0145  0.0437
  489SOL     OW 2008   4.482   1.155   1.071 -0.4704 -0.0502 -0.0558
  489SOL    HW2 2009   4.405   1.178   1.123 -0.8617 -1.2750 -0.0839
  489SOL    HW3 2010   4.525   1.085   1.121  1.5422  1.7421  0.7996
  489SOL    MW4 2011   4.478   1.149   1.084 -0.2565  0.0248  0.0533
  490SOL     OW 2012   0.208   1.315   1.179 -0.2351  0.0233  0.0885
  490SOL    HW2 2013   0.293   1.274   1.163 -0.6604 -1.0656  0.5676
  490SOL    HW3 2014   0.146   1.259   1.132 -0.7843  0.3192  0.4672
  490SOL    MW4 2015   0.211   1.302   1.170 -0.3637 -0.0814  0.2016
  491SOL     OW 2016   0.192   1.576   1.103  0.2756  0.0745 -0.0047
  491SOL    HW2 2017   0.177   1.487   1.136 -0.1333 -0.0384 -0.4900
  491SOL    HW3 2018   0.181   1.568   1.008  1.0204  0.4828 -0.1241
  491SOL    MW4 2019   0.188   1.563   1.095  0.3199  0.1134 -0.0845
  492SOL     OW 2020   4.459   1.696   1.228  0.4713  0.1046 -0.3163
  492SOL    HW2 2021   4.451   1.779   1.182 -0.1664  0.7078  0.8404
  492SOL    HW3 2022   4.543   1.660   1.199  0.1803  0.5602 -1.7591
  492SOL    MW4 2023   4.469   1.702   1.218  0.3486  0.2444 -0.3541
  493SOL     OW 2024   4.461   1.944   1.122  0.2675  0.4055 -0.0089
  493SOL    HW2 2025   4.394   2.000   1.161  0.2262  0.2961  0.0786
  493SOL    HW3 2026   4.450   1.956   1.028 -1.1675 -1.0849 -0.0587
  493SOL    MW4 2027   4.451   1.953   1.115  0.0725  0.1944 -0.0041
  494SOL     OW 2028   0.215   2.033   1.208  0.3671  0.4050  0.3260
  494SOL    HW2 2029   0.220   2.119   1.166  0.3871  0.7548  1.0294
  494SOL    HW3 2030   0.128   2.000   1.185 -0.3176  1.3696  1.4757
  494SOL    MW4 2031   0.204   2.040   1.199  0.2794  0.5784  0.5704
  495SOL     OW 2032   0.211   2.308   1.102 -0.4865  0.1300 -0.0683
  495SOL    HW2 2033   0.290   2.335   1.147 -0.4641 -0.5299  0.2899
  495SOL    HW3 2034   0.140   2.351   1.149 -0.4882 -0.7960  0.7938
  495SOL    MW4 2035   0.212   2.317   1.114 -0.4838 -0.0796  0.0926
  496SOL     OW 2036   0.000   2.448   1.220  0.2028  0.0290  0.1389
  496SOL    HW2 2037  -0.010   2.477   1.310 -1.3555  3.5266 -1.0790
  496SOL    HW3 2038  -0.071   2.385   1.207  0.5667 -0.6626  1.3548
  496SOL    MW4 2039  -0.011   2.443   1.230  0.0448  0.3994  0.1386
  497SOL     OW 2040   0.004   2.705   1.111  0.1951 -0.0517 -0.2042
  497SOL    HW2 2041  -0.086   2.733   1.129  0.2769  0.5627 -0.7430
  497SOL    HW3 2042   0.011   2.618   1.152 -0.1543  0.5837  1.2258
  497SOL    MW4 2043  -0.007   2.697   1.119  0.1597  0.1135 -0.0868
  498SOL     OW 2044   0.195   2.859   1.237 -0.1109  0.1632  0.4395
  498SOL    HW2 2045   0.183   2.849   1.332 -0.3984 -1.4055  0.2490
  498SOL    HW3 2046   0.120   2.814   1.199  0.5223 -0.0511 -0.5613
  498SOL    MW4 2047   0.183   2.852   1.245 -0.0653 -0.0718  0.2823
  499SOL     OW 2048   0.200   3.106   1.085  0.2479  0.9929 -0.2560
  499SOL    HW2 2049   0.278   3.145   1.123  0.2659  0.8831 -0.1804
  499SOL    HW3 2050   0.189   3.023   1.132  0.9373  0.3059 -1.2881
  499SOL    MW4 2051   0.209   3.100   1.096  0.3412  0.8876 -0.3822
  500SOL     OW 2052   4.475   3.243   1.232  0.2890  0.1073 -0.5671
  500SOL    HW2 2053   4.406   3.220   1.171  0.3194 -2.6433  0.3528
  500SOL    HW3 2054   4.555   3.205   1.195  0.2230 -2.0460  1.3620
  500SOL    MW4 2055   4.477   3.235   1.219  0.2847 -0.5398 -0.1911
  501SOL     OW 2056   0.016   3.501   1.105  0.1975 -0.5436  0.0368
  501SOL    HW2 2057   0.005   3.416   1.148 -0.6616 -1.0287 -1.1336
  501SOL    HW3 2058   0.018   3.481   1.011  1.7368  0.5410 -0.1843
  501SOL    MW4 2059   0.015   3.487   1.098  0.2872 -0.4647 -0.1469
  502SOL     OW 2060   0.235   3.645   1.198  0.2729 -0.0438  0.0906
  502SOL    HW2 2061   0.238   3.649   1.294 -2.9486  2.9834  0.1666
  502SOL    HW3 2062   0.154   3.598   1.179 -0.7981  2.2379 -1.1080
  502SOL    MW4 2063   0.225   3.640   1.209 -0.2934  0.6566 -0.0575
  503SOL     OW 2064   0.274   3.897   1.079 -0.0133  0.2363  0.0352
  503SOL    HW2 2065   0.197   3.941   1.114  0.5263  1.5281 -0.3773
  503SOL    HW3 2066   0.273   3.810   1.119 -0.8527  0.7720  1.1798
  503SOL    MW4 2067   0.264   3.892   1.089 -0.0528  0.4773  0.1317
  504SOL     OW 2068   0.051   4.007   1.226  0.3978 -0.0702  0.2360
  504SOL    HW2 2069   0.036   4.011   1.320 -0.0913 -0.6477  0.1848
  504SOL    HW3 2070  -0.027   3.964   1.190  1.1459 -1.0513 -0.2739
  504SOL    MW4 2071   0.039   4.002   1.234  0.4319 -0.2756  0.1621
  505SOL     OW 2072   0.039   4.279   1.145 -0.0767  0.2361 -0.2399
  505SOL    HW2 2073   0.130   4.305   1.159  0.1558  0.2519 -1.6921
  505SOL    HW3 2074   0.036   4.187   1.173  0.0362  0.6416  1.1516
  505SOL    MW4 2075   0.051   4.270   1.151 -0.0311  0.2918 -0.2481
  506SOL     OW 2076   0.286   4.394   1.217  0.1828  0.3561 -0.1559
  506SOL    HW2 2077   0.277   4.402   1.312  1.2175  0.4078 -0.0619
  506SOL    HW3 2078   0.257   4.478   1.183 -1.0839  0.0170  0.0477
  506SOL    MW4 2079   0.281   4.406   1.225  0.1522  0.3185 -0.1167
  507SOL     OW 2080   0.651   4.650   1.144  0.4312 -0.0879  0.5891
  507SOL    HW2 2081   0.726   4.697   1.179  2.2689 -2.1599 -0.4349
  507SOL    HW3 2082   0.664   4.560   1.172  0.0526 -1.0790 -2.2687
  507SOL    MW4 2083   0.663   4.645   1.152  0.6238 -0.4921  0.0770
  508SOL     OW 2084   0.412   0.095   1.220  0.1255  0.5226 -0.6851
  508SOL    HW2 2085   0.423   0.181   1.180  2.5424  0.9659  0.8395
  508SOL    HW3 2086   0.496   0.052   1.208 -0.3998 -0.8472  0.4343
  508SOL    MW4 2087   0.424   0.101   1.213  0.3751  0.4004 -0.3364
  509SOL     OW 2088   0.450   0.344   1.128 -0.2997 -0.3709 -0.0357
  509SOL    HW2 2089   0.363   0.376   1.152 -0.8158 -1.4912 -0.4024
  509SOL    HW3 2090   0.447   0.335   1.033 -0.0445 -1.1758  0.0272
  509SOL    MW4 2091   0.438   0.347   1.119 -0.3341 -0.6249 -0.0757
  510SOL     OW 2092   0.665   0.495   1.232  0.3242 -0.0547 -0.8265
  510SOL    HW2 2093   0.673   0.583   1.194 -0.0495 -0.1457 -1.1189
  510SOL    HW3 2094   0.588   0.457   1.189 -0.7990  0.2563  0.8392
  510SOL    MW4 2095   0.656   0.502   1.222  0.1267 -0.0257 -0.6453
  511SOL     OW 2096   0.671   0.755   1.087  0.1740  0.2173  0.0191
  511SOL    HW2 2097   0.589   0.802   1.101  0.2921  0.1903  0.7864
  511SOL    HW3 2098   0.676   0.744   0.992 -0.8272  0.0241 -0.0144
  511SOL    MW4 2099   0.661   0.759   1.076  0.0575  0.1882  0.1159
  512SOL     OW 2100   0.446   0.862   1.235  0.2325  0.4863  0.3884
  512SOL    HW2 2101   0.453   0.856   1.330 -2.7736  1.1191  0.6827
  512SOL    HW3 2102   0.415   0.951   1.218 -1.7440 -0.4201 -1.0036
  512SOL    MW4 2103   0.443   0.873   1.245 -0.4248  0.4503  0.2437
  513SOL     OW 2104   0.427   1.140   1.188 -0.2977 -0.2687 -0.1568
  513SOL    HW2 2105   0.511   1.168   1.226 -0.2875  0.9617 -1.0506
  513SOL    HW3 2106   0.446   1.127   1.095 -1.1494  0.2064 -0.3965
  513SOL    MW4 2107   0.440   1.142   1.181 -0.4087 -0.0436 -0.3062
  514SOL     OW 2108   0.670   1.261   1.246 -0.1335  0.0857  0.1414
  514SOL    HW2 2109   0.754   1.229   1.214 -0.0428 -0.0874  0.5590
  514SOL    HW3 2110   0.652   1.339   1.193 -0.3194 -0.6035 -0.8323
  514SOL    MW4 2111   0.679   1.267   1.235 -0.1460 -0.0281  0.0678
  515SOL     OW 2112   0.669   1.510   1.123  0.0585 -0.4195 -0.1318
  515SOL    HW2 2113   0.750   1.546   1.160  0.7486 -1.8835 -0.1923
  515SOL    HW3 2114   0.600   1.569   1.155  1.0016  0.1137  0.9709
  515SOL    MW4 2115   0.671   1.523   1.132  0.2740 -0.5423  0.0057
  516SOL     OW 2116   0.454   1.651   1.204 -0.0432 -0.1270  0.2655
  516SOL    HW2 2117   0.427   1.671   1.294 -1.5486  0.3257 -0.2821
  516SOL    HW3 2118   0.378   1.609   1.164  0.9720 -1.2838 -0.5023
  516SOL    MW4 2119   0.441   1.648   1.211 -0.1079 -0.2198  0.0919
  517SOL     OW 2120   0.435   1.913   1.082 -0.0744 -0.1319 -0.1953
  517SOL    HW2 2121   0.448   1.827   1.122  0.5011 -0.3476 -0.8422
  517SOL    HW3 2122   0.359   1.949   1.128 -0.6195 -1.1859 -0.2584
  517SOL    MW4 2123   0.427   1.906   1.093 -0.0704 -0.2995 -0.2891
  518SOL     OW 2124   0.657   2.058   1.185 -0.2588 -0.1163  0.2345
  518SOL    HW2 2125   0.652   2.067   1.280 -0.8263  1.7115  0.0472
  518SOL    HW3 2126   0.570   2.026   1.160 -0.0918 -0.6519  0.3188
  518SOL    MW4 2127   0.645   2.055   1.195 -0.3116  0.0536  0.2208
  519SOL     OW 2128   0.676   2.341   1.124  0.0573  0.0017 -0.0125
  519SOL    HW2 2129   0.600   2.384   1.164  1.2281  0.8201  1.3618
  519SOL    HW3 2130   0.663   2.248   1.143  0.2448  0.3096  1.6750
  519SOL    MW4 2131   0.664   2.334   1.131  0.2365  0.1502  0.3914
  520SOL     OW 2132   0.435   2.415   1.249 -0.4650 -0.2698  0.2117
  520SOL    HW2 2133   0.425   2.407   1.344 -1.5079  1.8570  0.3061
  520SOL    HW3 2134   0.408   2.505   1.229 -0.0367 -0.6117 -2.0749
  520SOL    MW4 2135   0.431   2.426   1.259 -0.5461 -0.0343 -0.0776
  521SOL     OW 2136   0.394   2.693   1.189 -0.2010 -0.2098 -0.3968
  521SOL    HW2 2137   0.320   2.749   1.211  0.8090  1.1159 -0.2975
  521SOL    HW3 2138   0.398   2.694   1.094 -0.0093  0.1251 -0.3859
  521SOL    MW4 2139   0.385   2.700   1.179 -0.0424  0.0093 -0.3822
  522SOL     OW 2140   0.635   2.828   1.229  0.1464  0.4341 -0.1231
  522SOL    HW2 2141   0.626   2.921   1.212 -0.1149  0.2858 -0.8219
  522SOL    HW3 2142   0.554   2.789   1.195  0.1567 -0.0194  0.3619
  522SOL    MW4 2143   0.623   2.835   1.222  0.1132  0.3545 -0.1513
  523SOL     OW 2144   0.667   3.107   1.149 -0.1953 -0.0412  0.1997
  523SOL    HW2 2145   0.753   3.142   1.169 -0.6910  0.6824  1.1065
  523SOL    HW3 2146   0.665   3.099   1.054  0.5163  0.8275  0.1138
  523SOL    MW4 2147   0.678   3.110   1.139 -0.1668  0.1690  0.3080
  524SOL     OW 2148   0.414   3.204   1.210 -0.2106  0.0290  0.2253
  524SOL    HW2 2149   0.440   3.294   1.194 -0.3879  0.1017  0.3460
  524SOL    HW3 2150   0.496   3.154   1.208 -0.1802  0.1008 -0.4646
  524SOL    MW4 2151   0.428   3.209   1.207 -0.2300  0.0477  0.1503
  525SOL     OW 2152   0.457   3.478   1.153 -0.7516 -0.2151  0.3674
  525SOL    HW2 2153   0.537   3.527   1.168 -0.8701 -0.6275  2.5296
  525SOL    HW3 2154   0.386   3.540   1.172 -0.9184 -0.6144  1.0613
  525SOL    MW4 2155   0.458   3.493   1.157 -0.7892 -0.3221  0.7443
  526SOL     OW 2156   0.710   3.602   1.216 -0.0680  0.2977 -0.2086
  526SOL    HW2 2157   0.704   3.613   1.311 -0.2132 -0.9623 -0.0682
  526SOL    HW3 2158   0.710   3.692   1.182 -0.0918  0.7568  0.9721
  526SOL    MW4 2159   0.709   3.616   1.224 -0.0903  0.1922 -0.0342
  527SOL     OW 2160   0.714   3.845   1.102 -0.1354  0.5251 -0.1375
  527SOL    HW2 2161   0.642   3.904   1.125 -0.2113  1.0710 -1.6980
  527SOL    HW3 2162   0.716   3.846   1.006  1.9925  0.5862 -0.1293
  527SOL    MW4 2163   0.705   3.853   1.093  0.1353  0.6053 -0.3424
  528SOL     OW 2164   0.494   3.982   1.220  0.5921 -0.1990 -0.7340
  528SOL    HW2 2165   0.506   4.071   1.186  0.8161 -0.0028 -0.1578
  528SOL    HW3 2166   0.417   3.949   1.174 -0.7065  1.0310  0.4783
  528SOL    MW4 2167   0.485   3.990   1.209  0.4504 -0.0107 -0.4981
  529SOL     OW 2168   0.513   4.256   1.122  0.4021  0.5009  0.0108
  529SOL    HW2 2169   0.584   4.305   1.163  0.7409  0.7228 -0.8296
  529SOL    HW3 2170   0.433   4.301   1.152  0.6915  1.2826 -0.3676
  529SOL    MW4 2171   0.512   4.269   1.132  0.4850  0.6332 -0.1500
  530SOL     OW 2172   0.707   4.396   1.232 -0.4274  0.3322  0.1039
  530SOL    HW2 2173   0.704   4.390   1.328 -1.5263 -0.4518  0.0344
  530SOL    HW3 2174   0.785   4.348   1.207  0.7566  1.8932  0.6942
  530SOL    MW4 2175   0.717   4.389   1.242 -0.4162  0.4344  0.1726
  531SOL     OW 2176   1.078   4.650   1.140  0.2207  0.0493 -0.1766
  531SOL    HW2 2177   1.094   4.558   1.160 -0.5760 -0.0981 -0.2132
  531SOL    HW3 2178   1.118   4.663   1.053 -0.0324 -0.3607 -0.3532
  531SOL    MW4 2179   1.086   4.640   1.131  0.0821 -0.0238 -0.2048
  532SOL     OW 2180   0.872   0.119   1.255  0.0667 -0.2578  0.3163
  532SOL    HW2 2181   0.876   0.118   1.350  0.1042  1.3453  0.3374
  532SOL    HW3 2182   0.940   0.057   1.227 -0.3616 -1.2073  1.3178
  532SOL    MW4 2183   0.881   0.110   1.264  0.0151 -0.1716  0.4513
  533SOL     OW 2184   0.922   0.383   1.160 -0.4068  0.4255  0.0197
  533SOL    HW2 2185   0.926   0.292   1.191 -1.2451  0.2291 -0.4170
  533SOL    HW3 2186   0.835   0.413   1.189  0.1846  1.3511  0.8754
  533SOL    MW4 2187   0.911   0.375   1.168 -0.4393  0.5217  0.0750
  534SOL     OW 2188   1.146   0.517   1.241 -0.3812  0.0928 -0.3084
  534SOL    HW2 2189   1.143   0.515   1.337  0.1433  0.3393 -0.2883
  534SOL    HW3 2190   1.064   0.474   1.214 -1.0709  1.0364  0.2515
  534SOL    MW4 2191   1.135   0.511   1.250 -0.4030  0.2498 -0.2319
  535SOL     OW 2192   1.099   0.765   1.104 -0.1494  0.6097  0.3752
  535SOL    HW2 2193   1.026   0.801   1.154 -1.5509 -0.1990 -1.0204
  535SOL    HW3 2194   1.125   0.687   1.153  1.2373  2.0783  2.0404
  535SOL    MW4 2195   1.093   0.759   1.117 -0.1513  0.6967  0.4107
  536SOL     OW 2196   0.883   0.886   1.224  0.0946 -0.0220 -0.0517
  536SOL    HW2 2197   0.892   0.982   1.221 -0.3233 -0.0154 -1.2739
  536SOL    HW3 2198   0.805   0.868   1.172 -0.3120 -0.9694  0.8784
  536SOL    MW4 2199   0.874   0.896   1.217 -0.0141 -0.1462 -0.0902
  537SOL     OW 2200   0.892   1.165   1.142 -0.2624 -0.5062  0.0973
  537SOL    HW2 2201   0.974   1.207   1.167  0.3115 -1.3007 -0.4093
  537SOL    HW3 2202   0.907   1.136   1.052 -0.5125 -2.0858  0.5457
  537SOL    MW4 2203   0.905   1.166   1.133 -0.2196 -0.8194  0.0895
  538SOL     OW 2204   1.139   1.281   1.255  0.2765 -0.7166 -0.2788
  538SOL    HW2 2205   1.131   1.285   1.351 -0.4725  0.6354 -0.3902
  538SOL    HW3 2206   1.221   1.235   1.240  0.6288 -0.5327  1.0199
  538SOL    MW4 2207   1.149   1.275   1.266  0.2241 -0.5138 -0.1221
  539SOL     OW 2208   1.161   1.525   1.143  0.3384 -0.6515 -0.2555
  539SOL    HW2 2209   1.144   1.436   1.174  0.9852 -1.3847 -1.9498
  539SOL    HW3 2210   1.172   1.516   1.049  1.1098  1.1252 -0.3613
  539SOL    MW4 2211   1.161   1.512   1.135  0.5255 -0.5137 -0.4929
  540SOL     OW 2212   0.915   1.616   1.225  0.5922  0.4001 -0.2473
  540SOL    HW2 2213   0.894   1.705   1.199  1.1201  0.8106  0.7294
  540SOL    HW3 2214   1.000   1.598   1.186 -0.1608 -0.2075 -1.6733
  540SOL    MW4 2215   0.923   1.625   1.217  0.5624  0.3741 -0.3066
  541SOL     OW 2216   0.882   1.886   1.170 -0.0135  0.1766 -0.0200
  541SOL    HW2 2217   0.959   1.943   1.165 -1.1117  1.6298 -0.6523
  541SOL    HW3 2218   0.809   1.946   1.187 -1.1195 -1.0979 -0.2150
  541SOL    MW4 2219   0.882   1.902   1.172 -0.3043  0.2002 -0.1291
  542SOL     OW 2220   1.118   2.022   1.206 -0.4669  0.0248  0.0601
  542SOL    HW2 2221   1.131   2.034   1.300 -0.7436  0.2686  0.0694
  542SOL    HW3 2222   1.099   2.110   1.173 -0.8633 -0.1363 -0.1424
  542SOL    MW4 2223   1.117   2.035   1.214 -0.5558  0.0355  0.0346
  543SOL     OW 2224   1.078   2.305   1.093 -0.1834  0.0068 -0.0348
  543SOL    HW2 2225   1.153   2.347   1.134 -1.6404  1.1705  1.5128
  543SOL    HW3 2226   1.002   2.353   1.127 -1.6254 -1.0679 -1.6387
  543SOL    MW4 2227   1.078   2.317   1.103 -0.5660  0.0186 -0.0422
  544SOL     OW 2228   0.881   2.465   1.221 -0.0067 -0.1533  0.3681
  544SOL    HW2 2229   0.894   2.445   1.314 -1.1020  0.1189  0.5823
  544SOL    HW3 2230   0.798   2.423   1.198  0.4083 -0.4793 -0.5700
  544SOL    MW4 2231   0.872   2.457   1.230 -0.0964 -0.1602  0.2725
  545SOL     OW 2232   0.882   2.735   1.115  0.0194  0.0562  0.2374
  545SOL    HW2 2233   0.888   2.656   1.168 -0.0966  0.1617  0.4071
  545SOL    HW3 2234   0.800   2.776   1.142 -1.5442 -1.3872 -2.0606
  545SOL    MW4 2235   0.872   2.730   1.126 -0.2022 -0.1199 -0.0433
  546SOL     OW 2236   1.112   2.845   1.207  0.2553  0.2389  0.2206
  546SOL    HW2 2237   1.099   2.852   1.302  1.1375 -0.4430  0.3966
  546SOL    HW3 2238   1.028   2.814   1.174  0.2832 -0.6037  0.9200
  546SOL    MW4 2239   1.099   2.842   1.215  0.3754  0.0381  0.3361
  547SOL     OW 2240   1.163   3.095   1.086  0.0935 -0.4447  0.2463
  547SOL    HW2 2241   1.172   3.008   1.125 -0.4851 -1.0365 -0.9177
  547SOL    HW3 2242   1.144   3.078   0.994 -0.0421  0.9196  0.0143
  547SOL    MW4 2243   1.162   3.081   1.079 -0.0006 -0.3428  0.0620
  548SOL     OW 2244   0.932   3.192   1.215 -0.0200 -0.5145 -0.1378
  548SOL    HW2 2245   0.941   3.285   1.191 -0.7640 -0.2797  0.4523
  548SOL    HW3 2246   1.001   3.148   1.166 -0.3394  0.2024 -1.2591
  548SOL    MW4 2247   0.942   3.199   1.205 -0.1603 -0.3889 -0.2079
  549SOL     OW 2248   0.953   3.452   1.125  0.1448 -0.0773 -0.0074
  549SOL    HW2 2249   0.876   3.506   1.141 -1.5625 -2.4475  0.0066
  549SOL    HW3 2250   0.972   3.464   1.032 -0.2939  0.4397 -0.0297
  549SOL    MW4 2251   0.945   3.460   1.115 -0.1383 -0.3219 -0.0086
  550SOL     OW 2252   1.159   3.623   1.219  0.0147  0.2415  0.1101
  550SOL    HW2 2253   1.224   3.563   1.183  0.5972  0.5965  0.5491
  550SOL    HW3 2254   1.075   3.580   1.205  0.3802 -0.3939 -0.1278
  550SOL    MW4 2255   1.156   3.609   1.213  0.1398  0.2046  0.1366
  551SOL     OW 2256   1.145   3.843   1.053 -0.1470 -0.6475 -0.2802
  551SOL    HW2 2257   1.081   3.882   1.113 -0.4822 -0.9680 -0.4259
  551SOL    HW3 2258   1.158   3.754   1.087 -0.0324 -0.6933 -0.4431
  551SOL    MW4 2259   1.138   3.836   1.066 -0.1762 -0.6959 -0.3209
  552SOL     OW 2260   0.937   3.969   1.226 -0.7904 -0.6710 -0.2603
  552SOL    HW2 2261   0.915   3.981   1.319 -0.5825  0.4951 -0.3537
  552SOL    HW3 2262   0.856   3.939   1.186 -1.3357  0.4287  0.0006
  552SOL    MW4 2263   0.924   3.967   1.233 -0.8349 -0.3722 -0.2382
  553SOL     OW 2264   0.939   4.236   1.143  0.3672 -0.2452  0.4711
  553SOL    HW2 2265   0.935   4.142   1.161  0.4457 -0.4202 -0.4324
  553SOL    HW3 2266   0.940   4.243   1.048 -1.8895  0.7395  0.4770
  553SOL    MW4 2267   0.938   4.225   1.133  0.0798 -0.1383  0.3527
  554SOL     OW 2268   1.159   4.397   1.240  0.0271 -0.2121 -0.2096
  554SOL    HW2 2269   1.179   4.401   1.334  0.6009 -1.0904 -0.2859
  554SOL    HW3 2270   1.086   4.335   1.234  0.1276 -0.3156 -0.3606
  554SOL    MW4 2271   1.152   4.389   1.252  0.1161 -0.3419 -0.2397
  555SOL     OW 2272   1.551   0.000   1.162 -0.3270 -0.1318 -0.3611
  555SOL    HW2 2273   1.626   0.042   1.204  1.0488 -0.1470 -2.7059
  555SOL    HW3 2274   1.562  -0.093   1.180  0.0519 -0.0984 -0.4162
  555SOL    MW4 2275   1.562  -0.007   1.170 -0.0955 -0.1294 -0.6777
  556SOL     OW 2276   1.314   0.145   1.224  0.2961  0.1044  0.0049
  556SOL    HW2 2277   1.386   0.082   1.222 -0.4594 -0.9498  3.0058
  556SOL    HW3 2278   1.237   0.095   1.201  0.1606  0.7120 -0.8944
  556SOL    MW4 2279   1.314   0.130   1.221  0.1786  0.0454  0.2823
  557SOL     OW 2280   1.346   0.392   1.118  0.2866  0.3011  0.4261
  557SOL    HW2 2281   1.339   0.306   1.160  0.4472  0.5239  0.9199
  557SOL    HW3 2282   1.272   0.442   1.153  1.3360  1.0161  1.7246
  557SOL    MW4 2283   1.335   0.387   1.128  0.4463  0.4248  0.6624
  558SOL     OW 2284   1.553   0.506   1.256 -0.6438  0.3856  0.5306
  558SOL    HW2 2285   1.549   0.598   1.230 -0.8679 -0.1778 -1.5139
  558SOL    HW3 2286   1.480   0.465   1.209 -0.2359 -0.9313  1.0423
  558SOL    MW4 2287   1.543   0.513   1.246 -0.6195  0.1376  0.3283
  559SOL     OW 2288   1.553   0.774   1.159  0.1101 -0.3522  0.1574
  559SOL    HW2 2289   1.618   0.831   1.200  0.5509  1.2152 -2.6740
  559SOL    HW3 2290   1.553   0.798   1.067 -3.0246 -1.7721 -0.2872
  559SOL    MW4 2291   1.561   0.784   1.152 -0.2455 -0.3327 -0.2748
  560SOL     OW 2292   1.308   0.866   1.254 -0.5455 -0.1561  0.0808
  560SOL    HW2 2293   1.381   0.824   1.208 -0.4749  1.5619 -1.4221
  560SOL    HW3 2294   1.230   0.826   1.216 -0.4262 -1.8314  1.5307
  560SOL    MW4 2295   1.307   0.855   1.243 -0.5206 -0.1505  0.0738
  561SOL     OW 2296   1.374   1.134   1.173  0.3546  0.1689 -0.0688
  561SOL    HW2 2297   1.367   1.045   1.208 -0.1370  0.5484  0.8263
  561SOL    HW3 2298   1.391   1.122   1.080 -0.8475 -0.8542 -0.1637
  561SOL    MW4 2299   1.375   1.121   1.165  0.1312  0.0840  0.0366
  562SOL     OW 2300   1.597   1.244   1.266 -0.2496 -0.1602 -0.3555
  562SOL    HW2 2301   1.667   1.202   1.216  0.0985 -0.1039  0.0820
  562SOL    HW3 2302   1.516   1.206   1.230 -0.0222  0.1323 -1.1902
  562SOL    MW4 2303   1.595   1.233   1.255 -0.1736 -0.1141 -0.4078
  563SOL     OW 2304   1.589   1.526   1.161 -0.4700  0.0201 -0.2166
  563SOL    HW2 2305   1.661   1.576   1.199 -0.3487 -0.3535  0.0429
  563SOL    HW3 2306   1.609   1.435   1.181 -1.9121  0.0281  1.4232
  563SOL    MW4 2307   1.601   1.521   1.169 -0.6443 -0.0281  0.0340
  564SOL     OW 2308   1.369   1.671   1.254  0.3150  0.5928 -0.0942
  564SOL    HW2 2309   1.447   1.627   1.221  0.6060  0.6847  0.4677
  564SOL    HW3 2310   1.297   1.613   1.230  0.5589  0.4911 -0.5831
  564SOL    MW4 2311   1.370   1.658   1.247  0.3855  0.5915 -0.0845
  565SOL     OW 2312   1.369   1.917   1.117  0.1079 -0.4996  0.2529
  565SOL    HW2 2313   1.286   1.943   1.158 -0.0104  0.4752 -0.5798
  565SOL    HW3 2314   1.388   1.831   1.154 -2.0136 -1.3809 -0.5823
  565SOL    MW4 2315   1.360   1.909   1.127 -0.1876 -0.4871  0.0329
  566SOL     OW 2316   1.559   2.097   1.240 -0.6003  0.0491 -0.0752
  566SOL    HW2 2317   1.536   2.182   1.202 -0.0147 -0.1098 -0.8000
  566SOL    HW3 2318   1.512   2.033   1.186  0.7989 -0.2207 -0.9856
  566SOL    MW4 2319   1.550   2.100   1.228 -0.3384 -0.0076 -0.2909
  567SOL     OW 2320   1.535   2.377   1.132 -0.1936 -0.1625  0.1861
  567SOL    HW2 2321   1.449   2.411   1.157 -0.0607  0.4824 -0.2147
  567SOL    HW3 2322   1.536   2.381   1.037  0.5517  0.5370  0.2124
  567SOL    MW4 2323   1.524   2.382   1.123 -0.0777  0.0148  0.1367
  568SOL     OW 2324   1.285   2.452   1.214  0.6204  0.0726  0.6504
  568SOL    HW2 2325   1.262   2.446   1.307 -0.5588  0.0081  0.3674
  568SOL    HW3 2326   1.285   2.546   1.195 -0.4639  0.0375  0.4130
  568SOL    MW4 2327   1.282   2.463   1.224  0.3217  0.0594  0.5816
  569SOL     OW 2328   1.346   2.709   1.125 -0.2864  0.5397 -0.1732
  569SOL    HW2 2329   1.422   2.739   1.174 -1.4587  1.2486  1.2390
  569SOL    HW3 2330   1.274   2.764   1.155 -0.9330  1.3900 -3.1069
  569SOL    MW4 2331   1.346   2.720   1.135 -0.5265  0.7455 -0.3740
  570SOL     OW 2332   1.594   2.803   1.234 -0.0581  0.2621 -0.0572
  570SOL    HW2 2333   1.673   2.757   1.207  1.1873  0.4856  2.9643
  570SOL    HW3 2334   1.605   2.892   1.203 -0.2171 -0.2658 -1.6622
  570SOL    MW4 2335   1.606   2.809   1.227  0.0852  0.2220  0.1296
  571SOL     OW 2336   1.563   3.055   1.132  0.0546 -0.5506 -0.2906
  571SOL    HW2 2337   1.638   3.114   1.140  0.6738 -1.2460 -0.9066
  571SOL    HW3 2338   1.491   3.102   1.175  1.3157 -0.7371  2.0766
  571SOL    MW4 2339   1.563   3.069   1.139  0.3027 -0.6669 -0.0595
  572SOL     OW 2340   1.365   3.232   1.212 -0.3830 -0.4749  0.5193
  572SOL    HW2 2341   1.368   3.228   1.307  0.1820  1.5207  0.5965
  572SOL    HW3 2342   1.282   3.189   1.189 -1.6452  1.0754  2.0532
  572SOL    MW4 2343   1.354   3.225   1.222 -0.4750 -0.0069  0.7318
  573SOL     OW 2344   1.375   3.494   1.119  0.0895 -0.7226 -0.3725
  573SOL    HW2 2345   1.371   3.400   1.135 -0.1088 -0.5253  0.7961
  573SOL    HW3 2346   1.361   3.503   1.025  0.6210 -1.8948 -0.5798
  573SOL    MW4 2347   1.373   3.483   1.109  0.1335 -0.8512 -0.2456
  574SOL     OW 2348   1.599   3.629   1.217  0.1465 -0.1791  0.2179
  574SOL    HW2 2349   1.590   3.721   1.194  1.2487 -0.7833 -2.8830
  574SOL    HW3 2350   1.526   3.586   1.172  0.0127 -0.8978  1.1208
  574SOL    MW4 2351   1.588   3.636   1.208  0.2742 -0.3538 -0.0721
  575SOL     OW 2352   1.595   3.913   1.145  0.0590 -0.3562  0.7996
  575SOL    HW2 2353   1.508   3.927   1.180  0.6341 -0.3500  2.2610
  575SOL    HW3 2354   1.581   3.885   1.055 -1.4730 -1.3634  1.3500
  575SOL    MW4 2355   1.582   3.911   1.138 -0.0672 -0.4883  1.0650
  576SOL     OW 2356   1.328   3.979   1.223 -0.2274 -0.2637  0.1160
  576SOL    HW2 2357   1.336   4.067   1.187 -0.3962 -0.7963 -1.2667
  576SOL    HW3 2358   1.256   3.939   1.173  0.4515 -1.4725  0.0863
  576SOL    MW4 2359   1.320   3.985   1.211 -0.1600 -0.4935 -0.0702
  577SOL     OW 2360   1.366   4.243   1.141  0.1939 -0.2891  0.3009
  577SOL    HW2 2361   1.297   4.304   1.169  0.0794  0.0090 -0.6222
  577SOL    HW3 2362   1.352   4.232   1.047  1.2158 -0.4691  0.1661
  577SOL    MW4 2363   1.355   4.250   1.132  0.3139 -0.2737  0.1613
  578SOL     OW 2364   1.573   4.403   1.213  0.4316  0.2399  0.0641
  578SOL    HW2 2365   1.583   4.402   1.309  0.2473 -1.7798  0.0793
  578SOL    HW3 2366   1.492   4.355   1.197  0.7987  0.0195 -1.1524
  578SOL    MW4 2367   1.564   4.397   1.224  0.4557 -0.0558 -0.0943
  579SOL     OW 2368   2.015   0.012   1.142 -0.0994 -0.0544  0.1602
  579SOL    HW2 2369   2.014  -0.083   1.153 -2.2156 -0.1056 -0.3761
  579SOL    HW3 2370   2.006   0.026   1.048  1.4225  0.6890  0.0997
  579SOL    MW4 2371   2.014   0.001   1.131 -0.1776  0.0369  0.0814
  580SOL     OW 2372   1.780   0.131   1.252 -0.0225 -0.3071  0.6538
  580SOL    HW2 2373   1.785   0.221   1.219  0.1537 -0.2294  0.8913
  580SOL    HW3 2374   1.853   0.086   1.210  0.1053 -0.2494  0.8179
  580SOL    MW4 2375   1.790   0.137   1.242  0.0176 -0.2892  0.7067
  581SOL     OW 2376   1.803   0.406   1.154  0.1843  0.3414 -0.0238
  581SOL    HW2 2377   1.719   0.439   1.185 -0.2680 -2.3002  1.7085
  581SOL    HW3 2378   1.790   0.389   1.061 -1.1927 -0.0232  0.2336
  581SOL    MW4 2379   1.791   0.408   1.145 -0.0572 -0.0553  0.2387
  582SOL     OW 2380   2.046   0.521   1.200  0.0057  0.5260  0.2437
  582SOL    HW2 2381   2.060   0.518   1.294  0.5130  0.7517  0.1786
  582SOL    HW3 2382   1.968   0.468   1.185  0.9545 -1.0049  0.5834
  582SOL    MW4 2383   2.038   0.514   1.210  0.1979  0.3538  0.2799
  583SOL     OW 2384   2.003   0.772   1.126 -0.4796 -0.2912  0.1445
  583SOL    HW2 2385   2.016   0.678   1.138 -0.8351 -0.5142 -1.1581
  583SOL    HW3 2386   1.995   0.784   1.031  0.0244  1.1174  0.2602
  583SOL    MW4 2387   2.004   0.761   1.115 -0.4601 -0.1348 -0.0120
  584SOL     OW 2388   1.781   0.916   1.250  0.1139  0.4990 -0.0880
  584SOL    HW2 2389   1.798   0.914   1.344 -1.1552 -0.4744  0.1353
  584SOL    HW3 2390   1.851   0.862   1.212 -0.5059 -0.7437  0.5016
  584SOL    MW4 2391   1.792   0.908   1.257 -0.1353  0.2066  0.0193
  585SOL     OW 2392   1.788   1.137   1.105 -0.3240  0.6888  0.3765
  585SOL    HW2 2393   1.795   1.120   1.011 -0.8454  1.0647  0.2677
  585SOL    HW3 2394   1.788   1.049   1.145 -0.2517  0.5245  0.0136
  585SOL    MW4 2395   1.789   1.123   1.098 -0.3831  0.7167  0.3144
  586SOL     OW 2396   1.991   1.293   1.210  0.1087 -0.5321  0.1563
  586SOL    HW2 2397   2.069   1.245   1.182 -0.7293 -2.0924  0.4696
  586SOL    HW3 2398   1.917   1.243   1.175 -0.7472  1.9876 -1.7888
  586SOL    MW4 2399   1.992   1.280   1.202 -0.1148 -0.4055 -0.0590
  587SOL     OW 2400   2.004   1.555   1.108  0.1773  0.0733 -0.1396
  587SOL    HW2 2401   2.006   1.462   1.130 -0.2305  0.0738 -0.0891
  587SOL    HW3 2402   2.021   1.559   1.014 -2.5711 -0.2532 -0.6798
  587SOL    MW4 2403   2.007   1.543   1.099 -0.2394  0.0300 -0.2040
  588SOL     OW 2404   1.811   1.657   1.278 -0.4863 -0.0540 -0.0390
  588SOL    HW2 2405   1.825   1.751   1.262  0.9176 -0.1798  0.4021
  588SOL    HW3 2406   1.872   1.613   1.219 -0.6743 -0.6829  0.2323
  588SOL    MW4 2407   1.821   1.664   1.268 -0.3258 -0.1534  0.0550
  589SOL     OW 2408   1.787   1.932   1.204 -0.4091  0.5789  0.3177
  589SOL    HW2 2409   1.714   1.981   1.241 -0.6437  0.5672 -0.1309
  589SOL    HW3 2410   1.770   1.931   1.110 -0.4893 -0.4965  0.3372
  589SOL    MW4 2411   1.775   1.939   1.196 -0.4506  0.4356  0.2611
  590SOL     OW 2412   2.003   2.086   1.279  0.4380  0.0991  0.0896
  590SOL    HW2 2413   2.009   2.081   1.374  2.4046 -0.2617 -0.0352
  590SOL    HW3 2414   1.922   2.039   1.258 -0.1267  0.3804  1.5846
  590SOL    MW4 2415   1.993   2.079   1.289  0.6231  0.0887  0.2704
  591SOL     OW 2416   2.008   2.357   1.157 -0.3351  0.0346 -0.2683
  591SOL    HW2 2417   2.084   2.410   1.177 -0.1621 -0.0371 -0.7362
  591SOL    HW3 2418   2.020   2.277   1.208 -0.2267  0.1352 -0.1387
  591SOL    MW4 2419   2.019   2.353   1.166 -0.2980  0.0384 -0.3130
  592SOL     OW 2420   1.768   2.446   1.247  0.6510 -0.0989  0.0689
  592SOL    HW2 2421   1.845   2.405   1.208  0.6693 -0.3781  0.3967
  592SOL    HW3 2422   1.695   2.415   1.194  0.6948 -0.3443  0.1502
  592SOL    MW4 2423   1.768   2.437   1.235  0.6592 -0.1681  0.1228
  593SOL     OW 2424   1.819   2.692   1.143 -0.2701 -0.9772 -0.1546
  593SOL    HW2 2425   1.819   2.601   1.173 -0.8193 -1.9705 -3.0353
  593SOL    HW3 2426   1.804   2.687   1.049  2.0227  1.9843 -0.7696
  593SOL    MW4 2427   1.817   2.679   1.135 -0.0401 -0.7174 -0.6158
  594SOL     OW 2428   2.026   2.834   1.252  0.0229 -0.1087 -0.2319
  594SOL    HW2 2429   2.018   2.926   1.225  0.6210  0.4066  1.3258
  594SOL    HW3 2430   1.961   2.788   1.199  0.1019  1.1279 -1.4273
  594SOL    MW4 2431   2.016   2.840   1.241  0.1121  0.1223 -0.1841
  595SOL     OW 2432   2.008   3.126   1.157  0.0197 -0.1190 -0.2656
  595SOL    HW2 2433   1.921   3.161   1.176 -0.1826 -0.5777 -0.3502
  595SOL    HW3 2434   2.010   3.117   1.062  0.2301  0.0800 -0.2799
  595SOL    MW4 2435   1.997   3.129   1.147  0.0206 -0.1533 -0.2787
  596SOL     OW 2436   1.774   3.264   1.191  0.2939 -0.1955 -0.1458
  596SOL    HW2 2437   1.779   3.277   1.286 -2.9857 -0.2303  0.0970
  596SOL    HW3 2438   1.811   3.344   1.154  2.2162 -0.4523  1.1258
  596SOL    MW4 2439   1.779   3.276   1.199  0.1148 -0.2341  0.0540
  597SOL     OW 2440   1.845   3.524   1.111  0.1812  0.0381  0.2811
  597SOL    HW2 2441   1.915   3.584   1.137 -0.3858  0.0565  1.8906
  597SOL    HW3 2442   1.765   3.571   1.135 -0.3273 -0.5854 -0.1886
  597SOL    MW4 2443   1.843   3.538   1.118  0.0395 -0.0417  0.4313
  598SOL     OW 2444   2.067   3.669   1.209  0.1821  0.1208 -0.6340
  598SOL    HW2 2445   2.058   3.654   1.304  0.0408 -0.1663 -0.6896
  598SOL    HW3 2446   2.133   3.605   1.181 -0.4346 -0.4139 -0.8795
  598SOL    MW4 2447   2.074   3.658   1.218  0.0823  0.0124 -0.6737
  599SOL     OW 2448   2.065   3.921   1.088  0.2551 -0.6697 -0.0179
  599SOL    HW2 2449   1.982   3.955   1.120  0.2637 -1.6310  1.0351
  599SOL    HW3 2450   2.065   3.828   1.113  0.9215 -1.0772 -1.4508
  599SOL    MW4 2451   2.054   3.913   1.095  0.3443 -0.8504 -0.0679
  600SOL     OW 2452   1.833   4.026   1.213 -0.1164 -0.4219 -0.2064
  600SOL    HW2 2453   1.847   4.039   1.307  0.2186  0.4491 -0.3722
  600SOL    HW3 2454   1.753   3.975   1.208 -0.8491  0.6407  0.5042
  600SOL    MW4 2455   1.825   4.021   1.225 -0.1689 -0.1664 -0.1346
  601SOL     OW 2456   1.779   4.280   1.093  0.1031  0.0759  0.4443
  601SOL    HW2 2457   1.790   4.195   1.135 -1.5787 -1.2993 -1.7662
  601SOL    HW3 2458   1.696   4.313   1.127 -1.0203 -0.8220 -1.3727
  601SOL    MW4 2459   1.770   4.273   1.103 -0.2671 -0.2236 -0.0870
  602SOL     OW 2460   2.007   4.407   1.209  0.1635 -0.2602  0.3511
  602SOL    HW2 2461   2.012   4.391   1.303 -1.2090 -0.7091  0.3643
  602SOL    HW3 2462   1.935   4.350   1.179 -0.2719  0.8365 -0.7495
  602SOL    MW4 2463   1.998   4.397   1.218 -0.0749 -0.1740  0.2078
  603SOL     OW 2464   2.517   0.008   1.097  0.2822 -0.3129  0.6340
  603SOL    HW2 2465   2.595   0.055   1.129  0.5031  0.8920 -1.5887
  603SOL    HW3 2466   2.444   0.056   1.135  0.5121  1.8196 -1.5161
  603SOL    MW4 2467   2.518   0.020   1.106  0.3417  0.1278  0.0571
  604SOL     OW 2468   2.271   0.098   1.207  0.4400 -0.1888  0.6023
  604SOL    HW2 2469   2.268   0.189   1.175 -0.9177  0.2854  2.0069
  604SOL    HW3 2470   2.186   0.062   1.184  1.0068 -1.1632 -0.0228
  604SOL    MW4 2471   2.260   0.105   1.199  0.3355 -0.2548  0.7051
  605SOL     OW 2472   2.262   0.373   1.103 -0.3936 -0.0168 -0.1949
  605SOL    HW2 2473   2.178   0.418   1.116 -0.7067 -0.9199  1.0154
  605SOL    HW3 2474   2.280   0.384   1.009 -2.0188 -0.0634 -0.5424
  605SOL    MW4 2475   2.253   0.380   1.092 -0.6497 -0.1421 -0.0811
  606SOL     OW 2476   2.493   0.480   1.221  0.3381  0.4242  0.2977
  606SOL    HW2 2477   2.494   0.494   1.316 -1.7844  1.0952  0.2411
  606SOL    HW3 2478   2.411   0.435   1.204  1.0207 -0.3037 -1.1585
  606SOL    MW4 2479   2.483   0.476   1.231  0.1481  0.4167  0.0980
  607SOL     OW 2480   2.442   0.743   1.146 -0.0537 -0.2699  0.2564
  607SOL    HW2 2481   2.466   0.652   1.166 -0.1056 -0.2927  0.2141
  607SOL    HW3 2482   2.432   0.745   1.051  1.4837  0.1433  0.0878
  607SOL    MW4 2483   2.444   0.731   1.136  0.1421 -0.2185  0.2285
  608SOL     OW 2484   2.225   0.910   1.225  0.3576 -0.3381  0.4210
  608SOL    HW2 2485   2.296   0.861   1.184 -0.2393  1.7986 -3.4540
  608SOL    HW3 2486   2.145   0.869   1.192 -0.1524  0.7820  0.2202
  608SOL    MW4 2487   2.224   0.898   1.215  0.2115  0.0916 -0.1167
  609SOL     OW 2488   2.226   1.198   1.118  0.0545  0.4703  0.6980
  609SOL    HW2 2489   2.298   1.236   1.169 -0.5348  0.7871  1.3001
  609SOL    HW3 2490   2.229   1.105   1.138 -0.1584  0.5881  1.2963
  609SOL    MW4 2491   2.236   1.191   1.127 -0.0513  0.5275  0.8563
  610SOL     OW 2492   2.465   1.289   1.220  0.0955 -0.4323 -0.0557
  610SOL    HW2 2493   2.548   1.248   1.197  0.4234 -0.2861  0.8418
  610SOL    HW3 2494   2.468   1.376   1.180  0.3816 -0.4226 -0.0109
  610SOL    MW4 2495   2.476   1.295   1.212  0.1767 -0.4117  0.0684
  611SOL     OW 2496   2.453   1.545   1.126  0.0570  0.0879  0.3296
  611SOL    HW2 2497   2.390   1.600   1.172 -1.5322 -1.2670 -0.1851
  611SOL    HW3 2498   2.439   1.564   1.034  0.9107  0.2992  0.2356
  611SOL    MW4 2499   2.443   1.555   1.120 -0.0401 -0.0631  0.2494
  612SOL     OW 2500   2.216   1.678   1.264 -0.0519 -0.5591  0.4392
  612SOL    HW2 2501   2.228   1.763   1.222  0.4020 -0.4117  0.8680
  612SOL    HW3 2502   2.153   1.633   1.208 -0.3123  0.0671  0.2259
  612SOL    MW4 2503   2.210   1.683   1.251 -0.0262 -0.4570  0.4677
  613SOL     OW 2504   2.227   1.936   1.173 -0.1099  0.1446  0.2283
  613SOL    HW2 2505   2.164   1.994   1.216  0.5647  0.1322  1.2387
  613SOL    HW3 2506   2.215   1.953   1.080 -0.1161  1.7025  0.5030
  613SOL    MW4 2507   2.217   1.946   1.167 -0.0219  0.3486  0.3978
  614SOL     OW 2508   2.472   2.034   1.247 -0.0874  0.4718 -0.2638
  614SOL    HW2 2509   2.549   1.993   1.208 -0.2836  0.0572 -0.2255
  614SOL    HW3 2510   2.399   1.980   1.216 -0.1370 -0.6503  1.7064
  614SOL    MW4 2511   2.472   2.021   1.238 -0.1199  0.2689  0.0012
  615SOL     OW 2512   2.465   2.312   1.145 -0.1157  0.2717  0.1057
  615SOL    HW2 2513   2.440   2.226   1.178  0.0521 -0.1287 -0.7891
  615SOL    HW3 2514   2.444   2.309   1.052  1.3476  0.6416 -0.2494
  615SOL    MW4 2515   2.459   2.301   1.137  0.0994  0.2677 -0.0591
  616SOL     OW 2516   2.248   2.478   1.230 -0.0468 -0.1895  0.4322
  616SOL    HW2 2517   2.260   2.480   1.325 -0.8513 -1.3544  0.5603
  616SOL    HW3 2518   2.320   2.424   1.198 -0.2915 -0.5244  0.4539
  616SOL    MW4 2519   2.259   2.471   1.239 -0.1853 -0.3872  0.4519
  617SOL     OW 2520   2.258   2.732   1.143 -0.0705  0.3136 -0.0469
  617SOL    HW2 2521   2.254   2.640   1.172  0.6585  0.4349  0.4340
  617SOL    HW3 2522   2.182   2.773   1.184  0.0760  0.1183  0.4272
  617SOL    MW4 2523   2.247   2.725   1.152  0.0453  0.3037  0.0793
  618SOL     OW 2524   2.473   2.863   1.239  0.2336 -0.0577 -0.6136
  618SOL    HW2 2525   2.462   2.860   1.334  0.2738 -0.8757 -0.6282
  618SOL    HW3 2526   2.388   2.835   1.205 -0.3368  1.9069 -0.8469
  618SOL    MW4 2527   2.460   2.859   1.247  0.1638  0.0935 -0.6465
  619SOL     OW 2528   2.487   3.105   1.122 -0.2051 -0.1392  0.1671
  619SOL    HW2 2529   2.420   3.156   1.167  0.6450  0.1252  1.1593
  619SOL    HW3 2530   2.487   3.021   1.168  1.5454  0.5688  1.5297
  619SOL    MW4 2531   2.478   3.100   1.134  0.1383 -0.0110  0.4778
  620SOL     OW 2532   2.266   3.248   1.209  0.2686 -0.0975 -0.1680
  620SOL    HW2 2533   2.255   3.330   1.162  1.9615 -0.5304 -1.3558
  620SOL    HW3 2534   2.180   3.206   1.204 -0.4669  1.3610  0.0201
  620SOL    MW4 2535   2.253   3.253   1.203  0.3948  0.0379 -0.2999
  621SOL     OW 2536   2.251   3.499   1.089 -0.0694 -0.4210 -0.5538
  621SOL    HW2 2537   2.331   3.542   1.121  0.0687 -0.9129 -0.2372
  621SOL    HW3 2538   2.265   3.490   0.995  0.2363 -0.4823 -0.5020
  621SOL    MW4 2539   2.264   3.503   1.081 -0.0107 -0.4940 -0.5052
  622SOL     OW 2540   2.490   3.621   1.170  0.2129 -0.2469  0.1657
  622SOL    HW2 2541   2.503   3.622   1.265 -1.1337  1.0813  0.3439
  622SOL    HW3 2542   2.464   3.710   1.148  1.7771 -0.2075 -1.6493
  622SOL    MW4 2543   2.489   3.633   1.180  0.2418 -0.0663 -0.0503
  623SOL     OW 2544   2.438   3.881   1.103 -0.1235  0.3187 -0.3380
  623SOL    HW2 2545   2.374   3.945   1.133 -0.9933 -0.2682 -0.9266
  623SOL    HW3 2546   2.443   3.894   1.009 -1.0738 -1.1644 -0.6060
  623SOL    MW4 2547   2.430   3.891   1.095 -0.3641  0.0458 -0.4508
  624SOL     OW 2548   2.283   4.060   1.235 -0.1140 -0.0073  0.2803
  624SOL    HW2 2549   2.261   4.139   1.186 -1.1533  0.0419  0.8036
  624SOL    HW3 2550   2.206   4.004   1.225  0.9918 -1.3379 -0.8645
  624SOL    MW4 2551   2.270   4.063   1.227 -0.1051 -0.1760  0.1984
  625SOL     OW 2552   2.240   4.290   1.088  0.1644 -0.6174 -0.1291
  625SOL    HW2 2553   2.159   4.327   1.123  0.0349 -1.2052  0.1942
  625SOL    HW3 2554   2.234   4.303   0.993 -0.1093 -0.2684 -0.0628
  625SOL    MW4 2555   2.228   4.296   1.080  0.1113 -0.6499 -0.0777
  626SOL     OW 2556   2.434   4.447   1.235 -0.0974  0.4187 -0.2106
  626SOL    HW2 2557   2.375   4.399   1.177 -0.7375  0.7299  0.1787
  626SOL    HW3 2558   2.456   4.527   1.187  0.0306  0.2906 -0.3656
  626SOL    MW4 2559   2.429   4.451   1.221 -0.1652  0.4430 -0.1798
  627SOL     OW 2560   2.953   4.646   1.152  0.1145 -0.2615 -0.1471
  627SOL    HW2 2561   2.924   4.559   1.178  0.2111 -0.1780  0.2444
  627SOL    HW3 2562   2.929   4.653   1.059 -0.9068 -0.2817  0.1142
  627SOL    MW4 2563   2.946   4.635   1.143 -0.0074 -0.2527 -0.0610
  628SOL     OW 2564   2.731   0.125   1.234  0.0509  0.1572  0.5291
  628SOL    HW2 2565   2.736   0.113   1.329 -0.5570 -2.2717  0.3021
  628SOL    HW3 2566   2.802   0.070   1.200 -0.0183  0.6653 -0.4294
  628SOL    MW4 2567   2.741   0.116   1.242 -0.0386 -0.0962  0.3728
  629SOL     OW 2568   2.716   0.381   1.122  0.2811 -0.0380  0.3246
  629SOL    HW2 2569   2.728   0.294   1.160  0.6223  1.0184  2.7335
  629SOL    HW3 2570   2.627   0.406   1.148 -1.1126 -0.9781 -3.2120
  629SOL    MW4 2571   2.706   0.373   1.130  0.1423 -0.0226  0.1757
  630SOL     OW 2572   2.946   0.518   1.206 -0.4064  0.5262 -0.1361
  630SOL    HW2 2573   2.928   0.607   1.176 -1.9587  0.3135  0.1030
  630SOL    HW3 2574   2.874   0.466   1.169 -0.7854 -0.2170  1.5990
  630SOL    MW4 2575   2.934   0.523   1.197 -0.6614  0.4001  0.1242
  631SOL     OW 2576   2.903   0.759   1.069 -0.0347  0.0611  0.2501
  631SOL    HW2 2577   2.977   0.808   1.104 -0.0965  0.3636 -0.0409
  631SOL    HW3 2578   2.826   0.805   1.101 -0.0969  1.1405 -1.3605
  631SOL    MW4 2579   2.903   0.772   1.078 -0.0513  0.2435 -0.0008
  632SOL     OW 2580   2.682   0.877   1.193 -0.2031  0.5436  0.2837
  632SOL    HW2 2581   2.679   0.972   1.196 -0.2003  0.5161  1.0729
  632SOL    HW3 2582   2.591   0.849   1.200 -0.6144  0.5818 -3.6080
  632SOL    MW4 2583   2.670   0.885   1.194 -0.2570  0.5450 -0.1255
  633SOL     OW 2584   2.681   1.145   1.151  0.4343 -0.7083 -0.2127
  633SOL    HW2 2585   2.761   1.190   1.176  0.7423 -1.2067 -0.2832
  633SOL    HW3 2586   2.676   1.155   1.056  0.2409 -0.4028 -0.1721
  633SOL    MW4 2587   2.691   1.152   1.142  0.4494 -0.7336 -0.2166
  634SOL     OW 2588   2.902   1.305   1.214 -0.3046  0.0889 -0.1106
  634SOL    HW2 2589   2.911   1.304   1.309  1.3124  0.5779 -0.2373
  634SOL    HW3 2590   2.890   1.397   1.192 -2.5932 -0.2110 -0.2467
  634SOL    MW4 2591   2.902   1.317   1.223 -0.3934  0.1140 -0.1453
  635SOL     OW 2592   2.896   1.567   1.083 -0.2722 -0.3898  0.2139
  635SOL    HW2 2593   2.962   1.631   1.108 -0.3432 -0.1161 -0.2824
  635SOL    HW3 2594   2.894   1.571   0.987 -0.7105 -0.6922  0.2072
  635SOL    MW4 2595   2.904   1.576   1.074 -0.3393 -0.3936  0.1475
  636SOL     OW 2596   2.699   1.691   1.225  0.1423 -0.3695  0.1562
  636SOL    HW2 2597   2.748   1.630   1.170  0.5804 -1.0864  1.3122
  636SOL    HW3 2598   2.610   1.656   1.225  0.1999 -0.5193  0.1046
  636SOL    MW4 2599   2.694   1.678   1.218  0.2079 -0.4839  0.3018
  637SOL     OW 2600   2.710   1.926   1.097  0.3344 -0.0257 -0.6681
  637SOL    HW2 2601   2.760   1.990   1.147 -0.2805 -0.1739  0.1442
  637SOL    HW3 2602   2.723   1.843   1.142 -0.6295 -0.0693 -0.4461
  637SOL    MW4 2603   2.718   1.924   1.109  0.1261 -0.0510 -0.5316
  638SOL     OW 2604   2.840   2.096   1.251 -0.3150 -0.0954 -0.2817
  638SOL    HW2 2605   2.884   2.081   1.335  1.8640 -1.2139 -1.6117
  638SOL    HW3 2606   2.862   2.186   1.228 -0.0988 -0.1191 -0.1650
  638SOL    MW4 2607   2.848   2.106   1.259  0.0012 -0.2463 -0.4418
  639SOL     OW 2608   2.915   2.366   1.135  0.0319  0.2217  0.4144
  639SOL    HW2 2609   2.998   2.392   1.177 -0.6523 -0.1665  2.0480
  639SOL    HW3 2610   2.849   2.422   1.177 -0.6533 -0.0988 -0.2334
  639SOL    MW4 2611   2.917   2.377   1.146 -0.1490  0.1283  0.5444
  640SOL     OW 2612   2.683   2.463   1.258 -0.0440 -0.0725  0.2588
  640SOL    HW2 2613   2.668   2.442   1.351  0.4515 -1.3210  0.0657
  640SOL    HW3 2614   2.616   2.414   1.211  0.3226 -0.2299 -0.1072
  640SOL    MW4 2615   2.672   2.454   1.264  0.0699 -0.2580  0.1850
  641SOL     OW 2616   2.677   2.698   1.134  0.0222  0.6116  0.3675
  641SOL    HW2 2617   2.687   2.623   1.192 -0.2374  0.5936  0.3890
  641SOL    HW3 2618   2.608   2.751   1.175 -0.7061  0.2071 -0.3387
  641SOL    MW4 2619   2.669   2.695   1.147 -0.1080  0.5558  0.2770
  642SOL     OW 2620   2.901   2.825   1.216 -0.0366  0.6325  0.0874
  642SOL    HW2 2621   2.887   2.819   1.310 -0.6157 -0.9845 -0.0934
  642SOL    HW3 2622   2.824   2.783   1.177  0.6219  0.4872 -1.0898
  642SOL    MW4 2623   2.889   2.819   1.223 -0.0260  0.3998 -0.0918
  643SOL     OW 2624   2.931   3.107   1.184  0.3860 -0.4025 -0.1211
  643SOL    HW2 2625   2.924   3.014   1.204 -0.3873 -0.6487 -1.4623
  643SOL    HW3 2626   2.920   3.112   1.089  1.1287  0.9900 -0.1497
  643SOL    MW4 2627   2.929   3.095   1.174  0.3819 -0.2511 -0.3018
  644SOL     OW 2628   2.701   3.241   1.246 -0.4849  0.0114 -0.1852
  644SOL    HW2 2629   2.780   3.190   1.229 -1.0396 -0.3928 -1.6685
  644SOL    HW3 2630   2.630   3.188   1.208 -1.3592  0.7474  0.4089
  644SOL    MW4 2631   2.702   3.227   1.239 -0.6735  0.0551 -0.3027
  645SOL     OW 2632   2.717   3.460   1.093  0.7576  0.1407  0.0880
  645SOL    HW2 2633   2.719   3.383   1.149  1.7820 -0.2048 -0.4137
  645SOL    HW3 2634   2.645   3.514   1.128  0.9976 -0.3499  1.3424
  645SOL    MW4 2635   2.707   3.457   1.105  0.9246  0.0305  0.1874
  646SOL     OW 2636   2.927   3.613   1.242 -0.2824  0.0884  0.0171
  646SOL    HW2 2637   3.012   3.574   1.219  0.1533  2.2149 -2.1386
  646SOL    HW3 2638   2.864   3.566   1.188 -0.3382 -0.6652  0.7282
  646SOL    MW4 2639   2.930   3.602   1.232 -0.2322  0.2697 -0.1736
  647SOL     OW 2640   2.883   3.859   1.136 -0.1333  0.3071 -0.2755
  647SOL    HW2 2641   2.963   3.903   1.164  0.2385 -0.3869 -0.2370
  647SOL    HW3 2642   2.897   3.767   1.158 -0.5621  0.0390 -1.1028
  647SOL    MW4 2643   2.895   3.853   1.142 -0.1411  0.1802 -0.3797
  648SOL     OW 2644   2.681   4.028   1.171  0.4552  0.2947  0.3172
  648SOL    HW2 2645   2.750   3.966   1.147  0.7244  0.5114  0.5241
  648SOL    HW3 2646   2.601   3.975   1.173  0.6199  0.0364  0.1068
  648SOL    MW4 2647   2.679   4.013   1.168  0.5124  0.2894  0.3167
  649SOL     OW 2648   2.660   4.305   1.126  0.5292  0.0729  0.5858
  649SOL    HW2 2649   2.647   4.211   1.136  0.7463 -0.1303 -0.9573
  649SOL    HW3 2650   2.575   4.344   1.146  0.3042 -0.4947  0.7262
  649SOL    MW4 2651   2.647   4.298   1.130  0.5283 -0.0286  0.4008
  650SOL     OW 2652   2.868   4.394   1.257 -0.5167  0.3730 -0.0245
  650SOL    HW2 2653   2.933   4.339   1.214  0.9243  2.1568 -0.1740
  650SOL    HW3 2654   2.784   4.365   1.221  0.1858 -1.9135  0.1290
  650SOL    MW4 2655   2.866   4.383   1.247 -0.2337  0.3066 -0.0240
  651SOL     OW 2656   3.387   4.598   1.170 -0.2155 -0.7766  0.2210
  651SOL    HW2 2657   3.478   4.624   1.190 -0.2506  0.4755 -1.0935
  651SOL    HW3 2658   3.334   4.666   1.211 -0.4223 -0.0866 -1.1305
  651SOL    MW4 2659   3.392   4.611   1.178 -0.2475 -0.5202 -0.1307
  652SOL     OW 2660   3.179   0.116   1.241 -0.0807  0.4144 -0.0285
  652SOL    HW2 2661   3.185   0.114   1.337  0.9477 -2.5268 -0.0959
  652SOL    HW3 2662   3.103   0.061   1.221  1.3530 -1.2568 -0.9789
  652SOL    MW4 2663   3.170   0.108   1.251  0.2441 -0.1942 -0.1627
  653SOL     OW 2664   3.173   0.383   1.115  0.1326 -0.0951  0.0076
  653SOL    HW2 2665   3.157   0.297   1.154  0.5195  0.3326  1.1437
  653SOL    HW3 2666   3.096   0.434   1.138  1.0726  0.6392  1.6390
  653SOL    MW4 2667   3.161   0.379   1.123  0.3076  0.0582  0.3728
  654SOL     OW 2668   3.420   0.494   1.199 -0.1293 -0.0016  0.1251
  654SOL    HW2 2669   3.393   0.583   1.176  0.3292 -0.1129 -0.8510
  654SOL    HW3 2670   3.341   0.441   1.185  0.3246 -0.1785 -1.8527
  654SOL    MW4 2671   3.406   0.499   1.194 -0.0088 -0.0397 -0.2646
  655SOL     OW 2672   3.348   0.765   1.122 -0.0329  0.0444 -0.4849
  655SOL    HW2 2673   3.262   0.795   1.151 -0.0447 -0.0340 -0.4367
  655SOL    HW3 2674   3.346   0.774   1.027  0.6309  1.9438 -0.3414
  655SOL    MW4 2675   3.336   0.770   1.114  0.0534  0.2846 -0.4597
  656SOL     OW 2676   3.103   0.907   1.201  0.0563  0.0725 -0.1639
  656SOL    HW2 2677   3.099   0.922   1.296  0.4216  0.3867 -0.1967
  656SOL    HW3 2678   3.121   0.994   1.164  1.0913 -0.2606 -0.4363
  656SOL    MW4 2679   3.105   0.921   1.209  0.2410  0.0701 -0.2043
  657SOL     OW 2680   3.125   1.187   1.109 -0.0968  0.5254 -0.5084
  657SOL    HW2 2681   3.193   1.248   1.137 -1.1841  1.8144 -0.6129
  657SOL    HW3 2682   3.044   1.223   1.145 -0.7098 -1.0943 -0.2239
  657SOL    MW4 2683   3.124   1.200   1.117 -0.3214  0.4818 -0.4847
  658SOL     OW 2684   3.355   1.312   1.183  0.0911 -0.0461  0.3958
  658SOL    HW2 2685   3.352   1.302   1.278 -1.2360  0.4410  0.4154
  658SOL    HW3 2686   3.346   1.407   1.169 -2.0401 -0.3387 -0.2980
  658SOL    MW4 2687   3.354   1.323   1.194 -0.3655 -0.0204  0.3068
  659SOL     OW 2688   3.334   1.578   1.124  0.2806 -0.2297 -0.7271
  659SOL    HW2 2689   3.412   1.624   1.155  1.0577 -1.2262 -1.1670
  659SOL    HW3 2690   3.262   1.616   1.174  0.7530  2.2171 -1.8643
  659SOL    MW4 2691   3.335   1.589   1.135  0.4456 -0.0383 -0.9352
  660SOL     OW 2692   3.120   1.734   1.209 -0.0630 -0.5890  0.0180
  660SOL    HW2 2693   3.138   1.752   1.302  0.2650  0.9969 -0.3226
  660SOL    HW3 2694   3.107   1.821   1.171 -2.7321 -1.3718 -0.9378
  660SOL    MW4 2695   3.121   1.748   1.217 -0.3719 -0.4829 -0.1529
  661SOL     OW 2696   3.083   2.006   1.121  0.2397 -0.0258  0.3567
  661SOL    HW2 2697   3.159   2.020   1.176 -0.2476 -2.9472  1.8540
  661SOL    HW3 2698   3.009   2.031   1.175 -0.0185  0.7041 -0.3196
  661SOL    MW4 2699   3.083   2.011   1.135  0.1416 -0.3147  0.4650
  662SOL     OW 2700   3.333   2.087   1.242 -0.2560  0.1273 -0.8060
  662SOL    HW2 2701   3.420   2.049   1.234 -0.3911 -0.1285 -1.0848
  662SOL    HW3 2702   3.340   2.171   1.196 -0.3043 -0.1420 -1.3131
  662SOL    MW4 2703   3.345   2.093   1.235 -0.2799  0.0582 -0.9096
  663SOL     OW 2704   3.330   2.331   1.114  0.1712 -0.3899 -0.3994
  663SOL    HW2 2705   3.415   2.371   1.133  0.4591 -1.3724  0.4660
  663SOL    HW3 2706   3.268   2.380   1.168  0.2588  0.0048 -0.6528
  663SOL    MW4 2707   3.333   2.343   1.124  0.2205 -0.4675 -0.3186
  664SOL     OW 2708   3.149   2.493   1.254 -0.1751 -0.1979  0.2344
  664SOL    HW2 2709   3.124   2.509   1.346  0.1349 -0.9493  0.4521
  664SOL    HW3 2710   3.124   2.573   1.209  0.8961  0.7031  1.2152
  664SOL    MW4 2711   3.142   2.506   1.260  0.0072 -0.1786  0.3926
  665SOL     OW 2712   3.146   2.736   1.136 -0.6904  0.2528 -0.3861
  665SOL    HW2 2713   3.058   2.765   1.157 -0.1246  1.0102  0.9808
  665SOL    HW3 2714   3.151   2.740   1.041 -2.0640  0.3860 -0.4539
  665SOL    MW4 2715   3.135   2.740   1.126 -0.7973  0.3705 -0.2146
  666SOL     OW 2716   3.378   2.870   1.220  0.3235  0.0647 -0.4760
  666SOL    HW2 2717   3.378   2.949   1.167  0.6469 -0.2818 -1.0035
  666SOL    HW3 2718   3.304   2.819   1.187 -0.1979  0.3668  0.2058
  666SOL    MW4 2719   3.368   2.873   1.209  0.2973  0.0589 -0.4556
  667SOL     OW 2720   3.368   3.146   1.105  0.3857 -0.3206  0.2523
  667SOL    HW2 2721   3.442   3.168   1.162  0.7597 -0.1951 -0.2711
  667SOL    HW3 2722   3.291   3.177   1.152  0.8372  1.4937 -0.1521
  667SOL    MW4 2723   3.368   3.153   1.119  0.4947 -0.0646  0.1299
  668SOL     OW 2724   3.150   3.253   1.235 -0.1095 -0.4818 -0.1502
  668SOL    HW2 2725   3.136   3.335   1.188  0.2164 -0.5053 -0.2932
  668SOL    HW3 2726   3.071   3.201   1.218  0.2322 -0.7007 -1.1159
  668SOL    MW4 2727   3.138   3.257   1.226 -0.0215 -0.5138 -0.2965
  669SOL     OW 2728   3.135   3.502   1.116 -0.1434  0.5026 -0.3906
  669SOL    HW2 2729   3.211   3.542   1.157  0.2646 -0.9569  0.3028
  669SOL    HW3 2730   3.151   3.509   1.022  0.3491  1.1239 -0.2593
  669SOL    MW4 2731   3.147   3.508   1.109 -0.0246  0.3920 -0.2816
  670SOL     OW 2732   3.379   3.629   1.210 -0.3153 -0.1833  0.2672
  670SOL    HW2 2733   3.379   3.641   1.305 -0.2566  0.1540  0.2242
  670SOL    HW3 2734   3.468   3.600   1.190 -0.2681 -0.0507  0.2882
  670SOL    MW4 2735   3.391   3.627   1.220 -0.3014 -0.1211  0.2642
  671SOL     OW 2736   3.364   3.898   1.114 -0.4259  0.2708  0.4384
  671SOL    HW2 2737   3.289   3.941   1.155  0.2841  1.8788  0.0844
  671SOL    HW3 2738   3.358   3.806   1.143 -0.9895  0.9609  2.6160
  671SOL    MW4 2739   3.353   3.891   1.123 -0.4067  0.5739  0.6790
  672SOL     OW 2740   3.136   3.989   1.226  0.0746 -0.3595  0.4477
  672SOL    HW2 2741   3.116   3.992   1.320  1.3595 -1.3150  0.7692
  672SOL    HW3 2742   3.106   4.074   1.193  0.0963  0.2091  1.8306
  672SOL    MW4 2743   3.130   4.001   1.234  0.2470 -0.4101  0.6726
  673SOL     OW 2744   3.077   4.242   1.125 -0.4499  0.1348  0.1831
  673SOL    HW2 2745   3.164   4.278   1.141 -0.6099  0.8652 -0.5454
  673SOL    HW3 2746   3.064   4.254   1.031 -1.4312  0.2497  0.3337
  673SOL    MW4 2747   3.087   4.248   1.115 -0.6003  0.2460  0.1068
  674SOL     OW 2748   3.340   4.331   1.173 -0.1283  0.3619  0.3580
  674SOL    HW2 2749   3.424   4.299   1.141  0.1755 -0.2439  1.7109
  674SOL    HW3 2750   3.346   4.426   1.166  0.8075  0.3379  0.7628
  674SOL    MW4 2751   3.352   4.339   1.168  0.0353  0.2789  0.5900
  675SOL     OW 2752   3.874   4.653   1.120 -0.0642 -0.0001  0.6797
  675SOL    HW2 2753   3.873   4.563   1.154  0.5243 -0.6894 -1.0344
  675SOL    HW3 2754   3.853   4.643   1.027 -1.4742  1.8021  0.7859
  675SOL    MW4 2755   3.872   4.640   1.112 -0.1729  0.1464  0.4675
  676SOL     OW 2756   3.644   0.083   1.234  0.3019  0.2901 -0.3961
  676SOL    HW2 2757   3.637   0.166   1.187 -0.2772  0.8113  0.5606
  676SOL    HW3 2758   3.731   0.050   1.213  0.2020  0.7037 -1.4959
  676SOL    MW4 2759   3.654   0.090   1.225  0.2124  0.4134 -0.4148
  677SOL     OW 2760   3.624   0.348   1.141 -0.5242 -0.2970  0.2235
  677SOL    HW2 2761   3.696   0.410   1.151  0.6654 -1.5985 -0.2429
  677SOL    HW3 2762   3.546   0.400   1.161  0.6350  0.7357  2.2971
  677SOL    MW4 2763   3.623   0.363   1.145 -0.2143 -0.3324  0.4356
  678SOL     OW 2764   3.831   0.528   1.193 -0.2124 -0.1512  0.3802
  678SOL    HW2 2765   3.913   0.482   1.174 -1.0864 -0.7473 -2.2763
  678SOL    HW3 2766   3.837   0.610   1.143 -1.4479 -0.4650 -0.3125
  678SOL    MW4 2767   3.843   0.533   1.184 -0.4907 -0.2713 -0.0618
  679SOL     OW 2768   3.782   0.785   1.094 -0.0979  0.3619 -0.2655
  679SOL    HW2 2769   3.854   0.840   1.125 -0.9909  1.0548  0.6159
  679SOL    HW3 2770   3.706   0.815   1.143 -1.1765  0.2086 -1.8163
  679SOL    MW4 2771   3.782   0.796   1.105 -0.3579  0.4331 -0.3538
  680SOL     OW 2772   3.568   0.884   1.231  0.5369  0.1024  0.0993
  680SOL    HW2 2773   3.565   0.979   1.223  1.3682  0.0860 -0.4652
  680SOL    HW3 2774   3.482   0.854   1.201  0.2414  0.6799  0.3739
  680SOL    MW4 2775   3.556   0.892   1.226  0.6077  0.1764  0.0609
  681SOL     OW 2776   3.572   1.144   1.146  0.1082 -0.6399 -0.2986
  681SOL    HW2 2777   3.653   1.196   1.146  0.4334 -1.1382 -0.4350
  681SOL    HW3 2778   3.503   1.207   1.168  0.8912 -0.7605  2.8606
  681SOL    MW4 2779   3.574   1.159   1.149  0.2546 -0.7217  0.1003
  682SOL     OW 2780   3.821   1.306   1.201 -0.3362 -0.0815  0.3481
  682SOL    HW2 2781   3.821   1.304   1.297  1.5465  0.4046  0.3850
  682SOL    HW3 2782   3.803   1.398   1.179 -0.9222 -0.2240  0.2347
  682SOL    MW4 2783   3.819   1.318   1.211 -0.1650 -0.0362  0.3381
  683SOL     OW 2784   3.761   1.571   1.140  0.1440 -0.3489 -0.0589
  683SOL    HW2 2785   3.850   1.593   1.169  0.0648 -0.2278  0.0933
  683SOL    HW3 2786   3.759   1.598   1.048  0.2121 -0.1977 -0.0165
  683SOL    MW4 2787   3.772   1.577   1.131  0.1428 -0.3130 -0.0333
  684SOL     OW 2788   3.545   1.701   1.244  1.0983 -0.1859  0.3582
  684SOL    HW2 2789   3.550   1.794   1.222 -0.8983 -0.1449 -0.0056
  684SOL    HW3 2790   3.618   1.661   1.198 -0.8168  0.4543 -3.4628
  684SOL    MW4 2791   3.555   1.708   1.235  0.5822 -0.0960 -0.1941
  685SOL     OW 2792   3.564   1.971   1.158  0.3227 -0.0123  0.3014
  685SOL    HW2 2793   3.657   1.987   1.173  0.2391  0.1663  0.6346
  685SOL    HW3 2794   3.551   1.991   1.066  0.1472  2.1725  0.7795
  685SOL    MW4 2795   3.575   1.975   1.148  0.2887  0.2997  0.4084
  686SOL     OW 2796   3.809   2.044   1.228 -0.1135 -0.0672 -0.6516
  686SOL    HW2 2797   3.813   2.059   1.322  2.1959  1.6766 -0.9915
  686SOL    HW3 2798   3.894   2.008   1.205 -0.7061 -0.6043 -2.0623
  686SOL    MW4 2799   3.821   2.041   1.237  0.1128  0.0923 -0.8825
  687SOL     OW 2800   3.796   2.304   1.089  0.2757 -0.5448 -0.6331
  687SOL    HW2 2801   3.883   2.339   1.110 -0.0246 -0.1826  0.0250
  687SOL    HW3 2802   3.794   2.217   1.130  0.2213 -0.4325 -0.3965
  687SOL    MW4 2803   3.807   2.297   1.097  0.2286 -0.4821 -0.5151
  688SOL     OW 2804   3.570   2.463   1.151  0.4512 -0.8034 -0.3418
  688SOL    HW2 2805   3.561   2.466   1.246  0.4414  1.0492 -0.3764
  688SOL    HW3 2806   3.651   2.415   1.136  0.6884 -0.7220  0.6294
  688SOL    MW4 2807   3.579   2.457   1.161  0.4809 -0.5484 -0.2183
  689SOL     OW 2808   3.574   2.742   1.089  0.1975  0.3263 -0.0567
  689SOL    HW2 2809   3.567   2.649   1.109 -0.3623 -0.1779 -2.4768
  689SOL    HW3 2810   3.507   2.784   1.144  0.9675 -0.5784  1.6066
  689SOL    MW4 2811   3.564   2.735   1.099  0.2253  0.1404 -0.1565
  690SOL     OW 2812   3.811   2.844   1.203 -0.0164 -0.2557 -0.0215
  690SOL    HW2 2813   3.785   2.862   1.293  0.2016 -1.3027  0.2478
  690SOL    HW3 2814   3.729   2.822   1.158 -0.0996  0.0945 -0.0465
  690SOL    MW4 2815   3.797   2.844   1.209  0.0012 -0.3476  0.0106
  691SOL     OW 2816   3.781   3.108   1.123 -0.0326  0.1720 -1.1189
  691SOL    HW2 2817   3.795   3.018   1.150  1.7478  0.2965 -1.5814
  691SOL    HW3 2818   3.775   3.104   1.027 -0.0910  0.5345 -1.1321
  691SOL    MW4 2819   3.782   3.096   1.114  0.1945  0.2363 -1.1816
  692SOL     OW 2820   3.588   3.259   1.263  0.6322 -0.1866 -0.1653
  692SOL    HW2 2821   3.586   3.342   1.215 -1.0698 -1.0835 -1.6978
  692SOL    HW3 2822   3.665   3.213   1.230  0.8341  0.2314 -0.2664
  692SOL    MW4 2823   3.598   3.264   1.253  0.4344 -0.2499 -0.3808
  693SOL     OW 2824   3.608   3.501   1.132 -0.0639  0.0493  0.1378
  693SOL    HW2 2825   3.693   3.543   1.143 -0.7009  1.4280 -0.0322
  693SOL    HW3 2826   3.598   3.491   1.037 -0.1286 -0.0351  0.1534
  693SOL    MW4 2827   3.618   3.506   1.121 -0.1566  0.2203  0.1174
  694SOL     OW 2828   3.866   3.632   1.180  0.0421  0.4468 -0.1545
  694SOL    HW2 2829   3.845   3.630   1.274  1.2200  0.5275  0.1257
  694SOL    HW3 2830   3.877   3.725   1.161 -1.3153  0.5138 -0.6418
  694SOL    MW4 2831   3.865   3.644   1.190  0.0184  0.4663 -0.1818
  695SOL     OW 2832   3.876   3.891   1.108  0.0683 -0.5189 -0.2959
  695SOL    HW2 2833   3.786   3.916   1.127 -0.0661 -0.2467 -1.2256
  695SOL    HW3 2834   3.874   3.864   1.016  0.6182 -2.0404  0.1275
  695SOL    MW4 2835   3.864   3.891   1.098  0.1228 -0.6835 -0.3628
  696SOL     OW 2836   3.611   3.980   1.181 -0.1749 -0.2145 -0.2319
  696SOL    HW2 2837   3.605   4.000   1.275  0.6091 -0.6649 -0.0856
  696SOL    HW3 2838   3.523   3.950   1.158 -0.2554 -0.5222  0.4579
  696SOL    MW4 2839   3.599   3.979   1.190 -0.0823 -0.3145 -0.1216
  697SOL     OW 2840   3.615   4.250   1.133  0.0897 -0.5723 -0.1048
  697SOL    HW2 2841   3.617   4.161   1.169  0.4007 -0.6230 -0.2469
  697SOL    HW3 2842   3.610   4.237   1.038  0.7120 -0.4419 -0.1580
  697SOL    MW4 2843   3.614   4.236   1.125  0.2127 -0.5617 -0.1307
  698SOL     OW 2844   3.840   4.388   1.219 -0.5640  0.0058 -0.4882
  698SOL    HW2 2845   3.816   4.395   1.311 -0.4717  0.7376 -0.5187
  698SOL    HW3 2846   3.765   4.346   1.177 -1.0983  0.7734 -0.2944
  698SOL    MW4 2847   3.827   4.383   1.226 -0.6220  0.2036 -0.4666
  699SOL     OW 2848   4.265   0.004   1.103 -0.1428 -0.2093 -0.0861
  699SOL    HW2 2849   4.263  -0.080   1.149 -0.3201 -0.9573 -1.4188
  699SOL    HW3 2850   4.190   0.052   1.137 -0.5610 -0.9484  0.0548
  699SOL    MW4 2851   4.255  -0.001   1.114 -0.2213 -0.4058 -0.2433
  700SOL     OW 2852   4.063   0.160   1.229 -0.6513  0.0785 -0.3526
  700SOL    HW2 2853   4.067   0.149   1.324 -0.6055  0.2823 -0.3308
  700SOL    HW3 2854   3.994   0.100   1.200 -0.8741  0.2396 -0.1569
  700SOL    MW4 2855   4.055   0.151   1.238 -0.6752  0.1266 -0.3239
  701SOL     OW 2856   4.064   0.421   1.121  0.1205  0.0185  0.1456
  701SOL    HW2 2857   4.063   0.331   1.153 -0.5235  0.2123  0.6853
  701SOL    HW3 2858   4.067   0.413   1.026  0.0625 -0.5748  0.1930
  701SOL    MW4 2859   4.064   0.408   1.113  0.0277 -0.0342  0.2232
  702SOL     OW 2860   4.317   0.507   1.237  0.2929  0.4930  0.0404
  702SOL    HW2 2861   4.307   0.494   1.332 -0.4401  2.6392  0.2715
  702SOL    HW3 2862   4.238   0.467   1.200  1.6692 -2.4223  0.1120
  702SOL    MW4 2863   4.305   0.500   1.245  0.3781  0.3915  0.0803
  703SOL     OW 2864   4.256   0.772   1.137  0.1683 -0.3139  0.5499
  703SOL    HW2 2865   4.282   0.684   1.165 -0.2505 -0.4670  0.4645
  703SOL    HW3 2866   4.240   0.764   1.044  0.4188 -0.0732  0.4838
  703SOL    MW4 2867   4.257   0.760   1.129  0.1459 -0.3024  0.5299
  704SOL     OW 2868   4.022   0.877   1.216  0.2263 -0.5988  0.1078
  704SOL    HW2 2869   4.025   0.882   1.311 -1.9993 -1.9417  0.2922
  704SOL    HW3 2870   4.099   0.825   1.192 -0.5068 -2.2986  1.3725
  704SOL    MW4 2871   4.032   0.871   1.225 -0.1645 -1.0003  0.2990
  705SOL     OW 2872   4.028   1.154   1.091 -0.1893 -0.0663  0.3620
  705SOL    HW2 2873   4.005   1.073   1.137  0.4214  0.2626  1.2873
  705SOL    HW3 2874   3.960   1.216   1.116  0.6426  0.3818  1.6209
  705SOL    MW4 2875   4.016   1.151   1.100  0.0014  0.0361  0.6502
  706SOL     OW 2876   4.262   1.235   1.213 -0.4781  0.3817  0.2180
  706SOL    HW2 2877   4.257   1.226   1.308  0.2617  0.1988  0.2449
  706SOL    HW3 2878   4.177   1.205   1.182 -1.2377  1.7682  0.9092
  706SOL    MW4 2879   4.250   1.230   1.222 -0.4807  0.5403  0.3128
  707SOL     OW 2880   4.252   1.502   1.159 -0.1054 -0.2380  0.1663
  707SOL    HW2 2881   4.273   1.415   1.193 -2.2236 -1.0682 -0.5829
  707SOL    HW3 2882   4.330   1.554   1.177  1.7442 -2.6467 -0.5813
  707SOL    MW4 2883   4.265   1.498   1.166 -0.1407 -0.6654 -0.0311
  708SOL     OW 2884   4.010   1.639   1.241 -0.2714  0.3665 -0.1708
  708SOL    HW2 2885   4.021   1.676   1.328 -0.7735 -1.6134  0.7520
  708SOL    HW3 2886   4.086   1.583   1.228 -0.1897  0.6574 -1.0271
  708SOL    MW4 2887   4.021   1.636   1.251 -0.3266  0.1436 -0.1621
  709SOL     OW 2888   4.041   1.904   1.113  0.3184 -0.5041 -0.0284
  709SOL    HW2 2889   4.013   1.814   1.130 -0.3446 -0.4079 -0.5692
  709SOL    HW3 2890   4.041   1.911   1.017 -2.4312  0.9193  0.0239
  709SOL    MW4 2891   4.038   1.893   1.103 -0.1316 -0.3035 -0.0927
  710SOL     OW 2892   4.232   2.072   1.238 -0.0015  0.0756 -0.4857
  710SOL    HW2 2893   4.238   2.158   1.195  0.8726 -0.0709 -0.6749
  710SOL    HW3 2894   4.156   2.030   1.197  0.9042 -0.1174 -2.0180
  710SOL    MW4 2895   4.223   2.078   1.227  0.2337  0.0308 -0.7129
  711SOL     OW 2896   4.264   2.333   1.104 -0.0216 -0.5638  0.1386
  711SOL    HW2 2897   4.183   2.371   1.140  0.6987  0.6397  0.5172
  711SOL    HW3 2898   4.247   2.328   1.009  0.1914  1.5544 -0.0388
  711SOL    MW4 2899   4.251   2.337   1.096  0.1020 -0.1256  0.1650
  712SOL     OW 2900   4.026   2.428   1.198 -0.0732  0.2266  0.2315
  712SOL    HW2 2901   4.010   2.441   1.291 -1.6587  0.6264 -0.0753
  712SOL    HW3 2902   4.025   2.517   1.161  2.0323  0.1964  0.0403
  712SOL    MW4 2903   4.024   2.441   1.205 -0.0043  0.2754  0.1658
  713SOL     OW 2904   4.016   2.683   1.109 -0.4064 -0.4616  0.0518
  713SOL    HW2 2905   3.941   2.734   1.139 -1.1108 -1.5309  0.1287
  713SOL    HW3 2906   4.012   2.688   1.014 -0.5297 -0.4552  0.0576
  713SOL    MW4 2907   4.006   2.691   1.101 -0.5155 -0.6018  0.0627
  714SOL     OW 2908   4.256   2.831   1.172  0.2055  0.1802  0.4356
  714SOL    HW2 2909   4.242   2.919   1.138  0.6449  0.2156  0.3487
  714SOL    HW3 2910   4.180   2.781   1.142  0.4939  0.2637 -0.4275
  714SOL    MW4 2911   4.244   2.836   1.164  0.3018  0.1957  0.3102
  715SOL     OW 2912   4.250   3.111   1.102 -0.2155 -0.0863 -0.4371
  715SOL    HW2 2913   4.166   3.154   1.119 -0.4005 -0.6416  0.0823
  715SOL    HW3 2914   4.258   3.111   1.007 -0.9806 -0.3542 -0.5022
  715SOL    MW4 2915   4.240   3.117   1.092 -0.3409 -0.1950 -0.3772
  716SOL     OW 2916   4.026   3.250   1.187  0.6894 -0.3046 -0.2767
  716SOL    HW2 2917   4.010   3.221   1.277 -1.6593  0.9247 -0.2583
  716SOL    HW3 2918   3.951   3.216   1.138  0.5708  1.3162 -1.2430
  716SOL    MW4 2919   4.014   3.241   1.192  0.3648  0.0713 -0.4017
  717SOL     OW 2920   4.101   3.498   1.088 -0.1468 -0.0587 -0.0423
  717SOL    HW2 2921   4.107   3.409   1.123  0.0617 -0.2251 -0.4939
  717SOL    HW3 2922   4.021   3.533   1.125 -0.0342 -0.3050  0.4377
  717SOL    MW4 2923   4.092   3.491   1.097 -0.1044 -0.1130 -0.0386
  718SOL     OW 2924   4.306   3.646   1.215  0.3510  0.1620  0.2469
  718SOL    HW2 2925   4.235   3.606   1.166 -0.5088  1.1404  0.6752
  718SOL    HW3 2926   4.385   3.603   1.182 -0.4160 -0.8227 -0.3402
  718SOL    MW4 2927   4.307   3.635   1.204  0.1364  0.1609  0.2259
  719SOL     OW 2928   4.305   3.890   1.118  0.3029  0.5522  0.0459
  719SOL    HW2 2929   4.222   3.931   1.143  0.1626  0.1775  0.1950
  719SOL    HW3 2930   4.297   3.799   1.147  0.8724  0.5822  0.3163
  719SOL    MW4 2931   4.293   3.884   1.125  0.3591  0.5069  0.1012
  720SOL     OW 2932   4.085   3.997   1.214  0.3464 -0.0062 -0.0491
  720SOL    HW2 2933   4.089   4.090   1.191 -2.3668  0.3535  0.7527
  720SOL    HW3 2934   4.014   3.962   1.161 -0.3224 -1.0556  1.4959
  720SOL    MW4 2935   4.076   4.005   1.204 -0.0992 -0.0968  0.2605
  721SOL     OW 2936   4.074   4.277   1.112  0.0831  0.8333  0.6664
  721SOL    HW2 2937   3.989   4.307   1.144  0.3514  1.3955  0.8641
  721SOL    HW3 2938   4.071   4.293   1.018 -0.5064 -0.3305  0.4830
  721SOL    MW4 2939   4.063   4.283   1.104  0.0410  0.7539  0.6683
  722SOL     OW 2940   4.304   4.430   1.222 -0.0771 -0.0704 -0.3893
  722SOL    HW2 2941   4.240   4.370   1.183 -0.5089 -0.4191  0.8259
  722SOL    HW3 2942   4.388   4.386   1.211 -0.2200 -0.2756 -0.6909
  722SOL    MW4 2943   4.307   4.417   1.215 -0.1535 -0.1431 -0.2688
  723SOL     OW 2944   0.224   4.635   1.613 -0.1150 -0.0588  0.4618
  723SOL    HW2 2945   0.286   4.697   1.574 -0.5388  1.1855  1.7033
  723SOL    HW3 2946   0.139   4.660   1.576 -0.1747 -0.4349  0.3433
  723SOL    MW4 2947   0.221   4.647   1.603 -0.1788  0.0553  0.6101
  724SOL     OW 2948   0.003   0.094   1.515 -0.2139 -0.1969 -0.2045
  724SOL    HW2 2949  -0.076   0.054   1.552  1.1712 -1.7743  1.1806
  724SOL    HW3 2950  -0.007   0.084   1.420 -1.0873 -1.5588  0.0124
  724SOL    MW4 2951  -0.008   0.087   1.507 -0.1464 -0.5847  0.0069
  725SOL     OW 2952   0.029   0.336   1.624  0.1779 -0.3707 -0.0224
  725SOL    HW2 2953   0.010   0.312   1.715 -1.2150 -0.8047 -0.4121
  725SOL    HW3 2954   0.014   0.256   1.575 -1.3207  0.4379 -0.9219
  725SOL    MW4 2955   0.024   0.323   1.630 -0.2037 -0.3212 -0.1926
  726SOL     OW 2956   0.212   0.489   1.501  0.0167  0.2074 -0.0679
  726SOL    HW2 2957   0.153   0.429   1.547 -0.8889  0.2521 -1.1424
  726SOL    HW3 2958   0.200   0.468   1.409 -0.2346  1.9631 -0.4516
  726SOL    MW4 2959   0.202   0.478   1.495 -0.1359  0.4450 -0.2602
  727SOL     OW 2960   0.186   0.741   1.617 -0.6805 -0.2397 -0.1980
  727SOL    HW2 2961   0.268   0.781   1.586 -0.1786 -1.2247 -0.1690
  727SOL    HW3 2962   0.183   0.656   1.573 -1.9874  0.0406 -0.6404
  727SOL    MW4 2963   0.197   0.735   1.607 -0.7867 -0.3327 -0.2526
  728SOL     OW 2964   4.489   0.869   1.463  0.2850  0.0117  0.1992
  728SOL    HW2 2965   4.496   0.961   1.491 -0.2869  0.0401  0.2621
  728SOL    HW3 2966   4.555   0.823   1.515 -0.4661  0.1434  1.2973
  728SOL    MW4 2967   4.499   0.875   1.474  0.1104  0.0327  0.3524
  729SOL     OW 2968   4.489   1.149   1.579  0.1598  0.2395 -0.5740
  729SOL    HW2 2969   4.494   1.146   1.674 -0.5411  1.1484 -0.5037
  729SOL    HW3 2970   4.562   1.205   1.553 -0.3563  0.9513 -0.4965
  729SOL    MW4 2971   4.499   1.156   1.588 -0.0010  0.4534 -0.5547
  730SOL     OW 2972   0.222   1.296   1.460  0.2614  0.0141 -0.7103
  730SOL    HW2 2973   0.183   1.376   1.495  1.7548 -0.0424  1.1369
  730SOL    HW3 2974   0.212   1.305   1.365  0.0512  2.2155 -0.5181
  730SOL    MW4 2975   0.215   1.308   1.452  0.4307  0.2971 -0.4412
  731SOL     OW 2976   0.176   1.551   1.592 -0.4462 -0.6811  0.0662
  731SOL    HW2 2977   0.182   1.560   1.687 -1.5363 -0.4674  0.1192
  731SOL    HW3 2978   0.093   1.593   1.568 -0.9741 -2.1439 -0.7886
  731SOL    MW4 2979   0.166   1.558   1.601 -0.6597 -0.8458 -0.0395
  732SOL     OW 2980   4.447   1.686   1.500 -0.1636 -0.3921 -0.2379
  732SOL    HW2 2981   4.461   1.775   1.533  0.5377 -0.6891  0.2997
  732SOL    HW3 2982   4.447   1.695   1.405  0.3640  0.1247 -0.1935
  732SOL    MW4 2983   4.449   1.699   1.492 -0.0019 -0.3631 -0.1611
  733SOL     OW 2984   0.019   1.939   1.591  0.1361  0.4776 -0.5127
  733SOL    HW2 2985   0.008   1.947   1.686  2.7482  4.1002 -0.3977
  733SOL    HW3 2986  -0.046   1.998   1.554 -0.1819 -0.1408 -0.9552
  733SOL    MW4 2987   0.009   1.948   1.599  0.4387  0.8739 -0.5560
  734SOL     OW 2988   0.235   2.067   1.505 -0.0434 -0.0961 -0.2216
  734SOL    HW2 2989   0.159   2.017   1.533 -0.4230  0.4183 -0.3237
  734SOL    HW3 2990   0.233   2.061   1.409  0.0857 -0.1427 -0.2213
  734SOL    MW4 2991   0.225   2.059   1.496 -0.0765 -0.0343 -0.2350
  735SOL     OW 2992   0.162   2.328   1.592 -0.1397 -0.1777  0.2421
  735SOL    HW2 2993   0.184   2.333   1.685  0.4487 -0.2452  0.1042
  735SOL    HW3 2994   0.194   2.243   1.564  0.0790  0.0256 -0.1254
  735SOL    MW4 2995   0.169   2.318   1.601 -0.0332 -0.1597  0.1754
  736SOL     OW 2996   4.457   2.497   1.493  0.2729  0.0949 -0.2650
  736SOL    HW2 2997   4.381   2.447   1.522  0.4344  0.4324  0.7801
  736SOL    HW3 2998   4.532   2.442   1.516  0.4941  1.1296  1.6128
  736SOL    MW4 2999   4.457   2.483   1.500  0.3233  0.2759  0.1206
  737SOL     OW 3000   4.420   2.758   1.570 -0.0244 -0.2248 -0.0354
  737SOL    HW2 3001   4.339   2.789   1.530  0.2659 -0.9970 -1.2563
  737SOL    HW3 3002   4.420   2.663   1.553  0.7632 -0.3454  0.6198
  737SOL    MW4 3003   4.409   2.749   1.562  0.1178 -0.3426 -0.1101
  738SOL     OW 3004   0.192   2.850   1.512  0.5334  0.5559  0.5410
  738SOL    HW2 3005   0.254   2.783   1.540  0.6327 -0.6481 -2.4261
  738SOL    HW3 3006   0.108   2.821   1.548  1.1279  0.5786  1.9809
  738SOL    MW4 3007   0.189   2.838   1.520  0.6249  0.4003  0.3394
  739SOL     OW 3008   0.232   3.104   1.628 -0.3819 -0.0090  0.1536
  739SOL    HW2 3009   0.164   3.154   1.584  0.9066  0.4267 -1.4168
  739SOL    HW3 3010   0.223   3.015   1.593 -0.7008 -0.1553  0.6069
  739SOL    MW4 3011   0.222   3.099   1.618 -0.2540  0.0293  0.0063
  740SOL     OW 3012   0.014   3.253   1.520 -0.3197  0.6148  0.4604
  740SOL    HW2 3013   0.028   3.348   1.520  1.3063  0.3970  0.4880
  740SOL    HW3 3014   0.000   3.230   1.428  2.0914  0.5188  0.0940
  740SOL    MW4 3015   0.014   3.263   1.508  0.2129  0.5736  0.4158
  741SOL     OW 3016   0.033   3.544   1.571  0.2361 -0.4755  0.3626
  741SOL    HW2 3017   0.020   3.538   1.666 -1.0397  0.3382  0.2607
  741SOL    HW3 3018  -0.050   3.579   1.538  0.3439 -1.5917 -1.1575
  741SOL    MW4 3019   0.020   3.548   1.579  0.0820 -0.5152  0.1485
  742SOL     OW 3020   0.282   3.638   1.492  0.3672 -0.3582  0.2652
  742SOL    HW2 3021   0.283   3.729   1.524  1.1621 -0.0667 -0.5449
  742SOL    HW3 3022   0.192   3.609   1.505  0.0620  0.6040  0.3801
  742SOL    MW4 3023   0.271   3.646   1.498  0.4318 -0.1926  0.1734
  743SOL     OW 3024   0.460   3.987   1.493  0.2058  0.5832  0.4020
  743SOL    HW2 3025   0.539   3.952   1.535  0.6737 -0.0512 -0.9901
  743SOL    HW3 3026   0.476   3.977   1.399 -1.2515  1.0705  0.0906
  743SOL    MW4 3027   0.473   3.981   1.486  0.0752  0.5636  0.1773
  744SOL     OW 3028   4.489   3.980   1.496 -0.0926 -0.5640  0.3809
  744SOL    HW2 3029   4.501   4.073   1.519 -0.0859 -0.5124  0.1664
  744SOL    HW3 3030   4.555   3.934   1.549  2.8924 -0.0468 -2.7042
  744SOL    MW4 3031   4.499   3.987   1.506  0.3014 -0.4890 -0.0545
  745SOL     OW 3032   0.017   4.255   1.572  0.7008  0.1042 -0.0681
  745SOL    HW2 3033   0.029   4.261   1.667  0.1429 -1.9793  0.1414
  745SOL    HW3 3034  -0.069   4.294   1.556 -0.0411 -1.2636  0.5169
  745SOL    MW4 3035   0.008   4.261   1.582  0.5298 -0.3505  0.0368
  746SOL     OW 3036   0.244   4.391   1.488  0.0227 -0.7351  0.3939
  746SOL    HW2 3037   0.164   4.343   1.512 -0.4672 -0.9246 -1.5305
  746SOL    HW3 3038   0.238   4.473   1.537 -0.8571 -1.1645  1.0348
  746SOL    MW4 3039   0.232   4.395   1.498 -0.1580 -0.8163  0.2245
  747SOL     OW 3040   0.647   4.644   1.634  0.0458  0.3514 -0.1339
  747SOL    HW2 3041   0.727   4.667   1.587  0.3467 -1.2829 -0.4646
  747SOL    HW3 3042   0.577   4.687   1.585  0.5602  0.3631 -0.8695
  747SOL    MW4 3043   0.648   4.652   1.621  0.1534  0.1373 -0.2745
  748SOL     OW 3044   0.444   0.110   1.497  0.2956 -0.1237  0.3623
  748SOL    HW2 3045   0.453   0.200   1.528  2.3231 -0.4092  0.6846
  748SOL    HW3 3046   0.429   0.118   1.403 -1.4336  0.5985  0.6756
  748SOL    MW4 3047   0.444   0.123   1.489  0.3350 -0.0661  0.4462
  749SOL     OW 3048   0.426   0.353   1.612  0.3729  0.4324 -0.4178
  749SOL    HW2 3049   0.511   0.395   1.599  0.9896 -1.1579 -1.6870
  749SOL    HW3 3050   0.363   0.412   1.571  1.0405  0.8596 -0.8395
  749SOL    MW4 3051   0.429   0.366   1.605  0.5424  0.2789 -0.6407
  750SOL     OW 3052   0.662   0.501   1.517  0.1022  0.1266 -0.1133
  750SOL    HW2 3053   0.662   0.593   1.545  2.6131 -0.0316  0.4843
  750SOL    HW3 3054   0.656   0.505   1.422  1.2812  0.9591 -0.1659
  750SOL    MW4 3055   0.661   0.514   1.508  0.5891  0.2156 -0.0414
  751SOL     OW 3056   0.640   0.753   1.627 -0.0068  0.4570 -0.0212
  751SOL    HW2 3057   0.651   0.751   1.722  1.9864  0.9791 -0.2122
  751SOL    HW3 3058   0.720   0.794   1.594 -0.2476 -0.5532 -1.9862
  751SOL    MW4 3059   0.652   0.758   1.635  0.2244  0.3926 -0.3055
  752SOL     OW 3060   0.414   0.881   1.536 -0.4302  0.1906  0.5403
  752SOL    HW2 3061   0.434   0.965   1.579  0.8039 -0.4020  1.1530
  752SOL    HW3 3062   0.493   0.829   1.549 -1.4256 -1.2914  0.7136
  752SOL    MW4 3063   0.427   0.885   1.543 -0.3987 -0.0831  0.6440
  753SOL     OW 3064   0.436   1.157   1.581 -0.1129  0.6362  0.8967
  753SOL    HW2 3065   0.521   1.198   1.565  0.3139 -1.1685 -1.8309
  753SOL    HW3 3066   0.375   1.206   1.527 -0.3749  0.3691  0.9464
  753SOL    MW4 3067   0.439   1.169   1.572 -0.0912  0.3626  0.5435
  754SOL     OW 3068   0.697   1.317   1.523 -0.0617  0.2500 -0.0849
  754SOL    HW2 3069   0.669   1.404   1.550  2.4227  1.3493 -0.9289
  754SOL    HW3 3070   0.702   1.321   1.428  1.0276 -0.4927 -0.0718
  754SOL    MW4 3071   0.694   1.329   1.514  0.4098  0.2971 -0.1945
  755SOL     OW 3072   0.607   1.560   1.579  0.0437 -0.1390 -0.1735
  755SOL    HW2 3073   0.689   1.597   1.547 -0.6059  2.1140  0.6501
  755SOL    HW3 3074   0.540   1.597   1.521 -0.5870 -0.3085  0.4401
  755SOL    MW4 3075   0.609   1.570   1.567 -0.1252  0.1359  0.0160
  756SOL     OW 3076   0.383   1.667   1.463 -0.1113  0.0549 -0.7347
  756SOL    HW2 3077   0.398   1.743   1.520  0.2623 -0.9773  0.5731
  756SOL    HW3 3078   0.313   1.618   1.507  0.7390 -1.1815 -0.7330
  756SOL    MW4 3079   0.376   1.670   1.477  0.0502 -0.2443 -0.5620
  757SOL     OW 3080   0.452   1.913   1.593  0.2045  0.3192 -0.1996
  757SOL    HW2 3081   0.461   1.917   1.688 -0.2631  0.7355 -0.1690
  757SOL    HW3 3082   0.377   1.970   1.574  0.7396  0.8041 -0.8773
  757SOL    MW4 3083   0.443   1.921   1.603  0.2134  0.4381 -0.2850
  758SOL     OW 3084   0.669   2.056   1.501  0.5413  0.4306 -0.2768
  758SOL    HW2 3085   0.750   2.011   1.526  0.7141  1.2986  0.7482
  758SOL    HW3 3086   0.600   1.996   1.528  0.7767  0.7016  0.9983
  758SOL    MW4 3087   0.671   2.042   1.508  0.5952  0.5805  0.0268
  759SOL     OW 3088   0.665   2.298   1.608  0.0706  0.2286 -0.2643
  759SOL    HW2 3089   0.583   2.336   1.575 -0.8817  0.0311  1.8220
  759SOL    HW3 3090   0.660   2.206   1.582 -0.2967  0.2525 -0.2844
  759SOL    MW4 3091   0.654   2.291   1.600 -0.1035  0.2060  0.0082
  760SOL     OW 3092   0.420   2.430   1.527  0.1579 -0.0768 -0.2103
  760SOL    HW2 3093   0.419   2.523   1.550  1.0167 -0.8210  3.1309
  760SOL    HW3 3094   0.334   2.398   1.555  1.1970 -0.9874  2.1056
  760SOL    MW4 3095   0.409   2.438   1.534  0.4083 -0.2952  0.5361
  761SOL     OW 3096   0.403   2.701   1.605  0.2902 -0.3429  0.2307
  761SOL    HW2 3097   0.415   2.693   1.699 -0.4639  2.0374  0.5661
  761SOL    HW3 3098   0.479   2.751   1.575  0.2336 -0.5944 -0.3478
  761SOL    MW4 3099   0.415   2.706   1.613  0.1833 -0.0620  0.1985
  762SOL     OW 3100   0.621   2.822   1.504 -0.4046  0.1379  0.0469
  762SOL    HW2 3101   0.639   2.911   1.534 -1.8440  0.3641  0.3015
  762SOL    HW3 3102   0.636   2.826   1.409  0.9991  0.2575  0.2735
  762SOL    MW4 3103   0.625   2.834   1.495 -0.4094  0.1836  0.1105
  763SOL     OW 3104   0.667   3.067   1.596 -0.1634 -0.1707 -0.4416
  763SOL    HW2 3105   0.750   3.094   1.556 -0.0711  0.2304  0.0084
  763SOL    HW3 3106   0.600   3.117   1.550 -0.1161 -0.1743 -0.5139
  763SOL    MW4 3107   0.669   3.077   1.585 -0.1450 -0.1183 -0.3917
  764SOL     OW 3108   0.446   3.234   1.503  0.0633  0.1592  0.3748
  764SOL    HW2 3109   0.379   3.175   1.536  0.0640  0.3969  0.8170
  764SOL    HW3 3110   0.442   3.225   1.408  0.1581 -0.6562  0.4405
  764SOL    MW4 3111   0.437   3.225   1.495  0.0758  0.0830  0.4418
  765SOL     OW 3112   0.473   3.483   1.624 -0.2641  0.4591 -0.0498
  765SOL    HW2 3113   0.477   3.393   1.593 -0.9338  0.6221 -0.6036
  765SOL    HW3 3114   0.403   3.523   1.573 -0.0226  1.2706  0.2535
  765SOL    MW4 3115   0.465   3.476   1.613 -0.3206  0.5879 -0.0829
  766SOL     OW 3116   0.661   3.624   1.487 -0.0512  0.3479 -0.5480
  766SOL    HW2 3117   0.738   3.578   1.520 -0.3619 -1.0271 -1.7174
  766SOL    HW3 3118   0.587   3.580   1.528 -0.3017  0.5491 -0.7772
  766SOL    MW4 3119   0.662   3.612   1.497 -0.1252  0.1931 -0.7325
  767SOL     OW 3120   0.644   3.857   1.638  0.2434 -0.3453  0.3083
  767SOL    HW2 3121   0.709   3.901   1.583 -1.6155  1.1621 -0.7520
  767SOL    HW3 3122   0.624   3.777   1.589 -1.9317  1.3305 -1.6819
  767SOL    MW4 3123   0.650   3.852   1.624 -0.2888  0.0746 -0.0942
  768SOL     OW 3124   0.229   3.893   1.611  0.4998  0.2392  0.0944
  768SOL    HW2 3125   0.233   3.894   1.707 -1.1556  2.0756  0.1591
  768SOL    HW3 3126   0.309   3.937   1.583  0.7057  0.2053  0.6285
  768SOL    MW4 3127   0.240   3.899   1.620  0.3086  0.4768  0.1733
  769SOL     OW 3128   0.448   4.239   1.611  0.1229  0.1025 -0.3323
  769SOL    HW2 3129   0.458   4.150   1.578 -0.3765 -0.4056  0.8759
  769SOL    HW3 3130   0.379   4.277   1.557  0.0539 -0.3703 -0.5775
  769SOL    MW4 3131   0.441   4.233   1.599  0.0479 -0.0267 -0.2053
  770SOL     OW 3132   0.651   4.411   1.517  0.0920  0.1309 -0.0350
  770SOL    HW2 3133   0.580   4.358   1.553  1.7748 -1.0864  1.5720
  770SOL    HW3 3134   0.649   4.493   1.566 -0.4549  0.2530 -0.2661
  770SOL    MW4 3135   0.642   4.414   1.528  0.2418 -0.0138  0.1466
  771SOL     OW 3136   1.130   4.666   1.563  0.0479  0.0190  0.1305
  771SOL    HW2 3137   1.121   4.658   1.658  0.7420  0.9994  0.2898
  771SOL    HW3 3138   1.212   4.714   1.550 -1.3919  2.2983 -0.8644
  771SOL    MW4 3139   1.139   4.672   1.574 -0.0504  0.4492  0.0203
  772SOL     OW 3140   0.870   0.102   1.537  0.8629 -0.2572 -0.3280
  772SOL    HW2 3141   0.868   0.195   1.560  1.5081  0.4280 -2.9449
  772SOL    HW3 3142   0.963   0.079   1.538  0.8477 -0.3816 -1.5919
  772SOL    MW4 3143   0.882   0.111   1.540  0.9460 -0.1832 -0.8399
  773SOL     OW 3144   0.884   0.366   1.612 -0.4995 -0.3706  0.2401
  773SOL    HW2 3145   0.897   0.379   1.706 -1.2501  0.5969  0.2170
  773SOL    HW3 3146   0.811   0.423   1.589 -0.5386 -0.8411 -0.8762
  773SOL    MW4 3147   0.876   0.375   1.621 -0.6036 -0.3050  0.0898
  774SOL     OW 3148   1.106   0.520   1.540  0.2327 -0.5947  0.0391
  774SOL    HW2 3149   1.101   0.610   1.574 -0.3867  0.7650 -3.4360
  774SOL    HW3 3150   1.029   0.477   1.577  0.2215  0.4750  1.3060
  774SOL    MW4 3151   1.095   0.526   1.549  0.1495 -0.2742 -0.2522
  775SOL     OW 3152   1.099   0.777   1.636 -0.0988  0.3900 -0.0261
  775SOL    HW2 3153   1.103   0.786   1.731 -1.1336  1.4005 -0.0693
  775SOL    HW3 3154   1.178   0.821   1.605 -0.1076  0.6668  0.3356
  775SOL    MW4 3155   1.110   0.784   1.644 -0.2365  0.5599  0.0160
  776SOL     OW 3156   0.860   0.874   1.523 -0.2654 -0.4215  0.3961
  776SOL    HW2 3157   0.935   0.842   1.573  0.0585 -1.7278 -0.8678
  776SOL    HW3 3158   0.890   0.870   1.432 -2.1591 -1.7697 -0.1820
  776SOL    MW4 3159   0.874   0.869   1.517 -0.4725 -0.7717  0.1531
  777SOL     OW 3160   0.883   1.133   1.636 -0.0500 -0.2977 -0.0082
  777SOL    HW2 3161   0.891   1.057   1.578 -0.7366 -1.1083  0.9503
  777SOL    HW3 3162   0.820   1.190   1.591 -2.1115 -1.8311  0.8721
  777SOL    MW4 3163   0.875   1.131   1.622 -0.4126 -0.6069  0.2344
  778SOL     OW 3164   1.090   1.267   1.520 -0.2181 -0.2280 -0.0515
  778SOL    HW2 3165   1.169   1.221   1.548  0.0986 -0.4178 -1.2373
  778SOL    HW3 3166   1.019   1.222   1.566  0.1805 -1.2904 -0.4585
  778SOL    MW4 3167   1.091   1.255   1.530 -0.1237 -0.3932 -0.2617
  779SOL     OW 3168   1.065   1.546   1.627 -0.2145  0.3460 -0.4767
  779SOL    HW2 3169   1.154   1.566   1.597  0.5931  0.8955  2.1800
  779SOL    HW3 3170   1.053   1.453   1.605  1.4604 -0.0376  0.1246
  779SOL    MW4 3171   1.075   1.536   1.620  0.1131  0.3679 -0.0467
  780SOL     OW 3172   0.872   1.663   1.489  0.1396 -0.3529 -0.5299
  780SOL    HW2 3173   0.939   1.614   1.537 -1.6939 -1.9474  0.4386
  780SOL    HW3 3174   0.887   1.639   1.397  0.9899 -0.5784 -0.3379
  780SOL    MW4 3175   0.883   1.653   1.483  0.0100 -0.5931 -0.3769
  781SOL     OW 3176   0.913   1.928   1.561 -0.0118 -0.4473 -0.3855
  781SOL    HW2 3177   0.997   1.964   1.531  0.4116 -0.4963  0.7359
  781SOL    HW3 3178   0.917   1.835   1.538 -0.3348 -0.1770 -1.5814
  781SOL    MW4 3179   0.925   1.921   1.554  0.0014 -0.4181 -0.3954
  782SOL     OW 3180   1.148   2.051   1.483  0.0618 -0.1636 -0.6309
  782SOL    HW2 3181   1.217   2.001   1.528 -0.0564  0.4120  0.2094
  782SOL    HW3 3182   1.150   2.137   1.525 -1.8820 -0.4679  0.1442
  782SOL    MW4 3183   1.158   2.055   1.495 -0.2102 -0.1278 -0.4178
  783SOL     OW 3184   1.135   2.295   1.613 -0.1075 -0.3649  0.3037
  783SOL    HW2 3185   1.209   2.344   1.578 -0.0355 -1.7132 -1.4649
  783SOL    HW3 3186   1.058   2.348   1.588  0.1454  0.2719  0.8498
  783SOL    MW4 3187   1.134   2.309   1.605 -0.0647 -0.4587  0.1422
  784SOL     OW 3188   0.906   2.420   1.535  0.2885 -0.0983  0.0531
  784SOL    HW2 3189   0.888   2.513   1.548  0.5309 -0.1238  0.5880
  784SOL    HW3 3190   0.827   2.375   1.564  0.1912 -0.0633 -0.1565
  784SOL    MW4 3191   0.894   2.426   1.540  0.3077 -0.0970  0.0960
  785SOL     OW 3192   0.861   2.685   1.596  0.0677  0.0207 -0.3963
  785SOL    HW2 3193   0.872   2.710   1.688  0.1705  1.0680 -0.6821
  785SOL    HW3 3194   0.772   2.713   1.575  0.1088 -0.0532 -0.6643
  785SOL    MW4 3195   0.851   2.692   1.605  0.0867  0.1490 -0.4692
  786SOL     OW 3196   1.068   2.834   1.482  0.5653  0.2688 -0.1758
  786SOL    HW2 3197   1.072   2.922   1.520  0.1544  0.1357  0.1894
  786SOL    HW3 3198   0.985   2.798   1.514 -1.8313  1.6412 -4.5001
  786SOL    MW4 3199   1.058   2.841   1.491  0.1949  0.4320 -0.6981
  787SOL     OW 3200   1.124   3.082   1.604  0.1215 -0.4408  0.4354
  787SOL    HW2 3201   1.142   3.110   1.693  0.2625 -0.4166  0.3991
  787SOL    HW3 3202   1.196   3.118   1.552  0.7573 -1.5895  0.5212
  787SOL    MW4 3203   1.136   3.091   1.609  0.2240 -0.5889  0.4418
  788SOL     OW 3204   0.891   3.186   1.488  0.0229  0.4767 -0.4360
  788SOL    HW2 3205   0.970   3.152   1.529 -0.3583  1.8113  1.4963
  788SOL    HW3 3206   0.912   3.191   1.395  1.7226 -0.4853 -0.1179
  788SOL    MW4 3207   0.904   3.183   1.481  0.1968  0.5260 -0.1391
  789SOL     OW 3208   0.887   3.479   1.577 -0.0130 -0.6144  0.4598
  789SOL    HW2 3209   0.970   3.520   1.552 -0.4702 -0.4022 -0.7196
  789SOL    HW3 3210   0.900   3.386   1.556 -0.1800 -0.5325 -0.0095
  789SOL    MW4 3211   0.900   3.472   1.571 -0.0954 -0.5758  0.2424
  790SOL     OW 3212   1.121   3.611   1.518 -0.6103  0.3781  0.2818
  790SOL    HW2 3213   1.193   3.558   1.551 -1.5426 -0.9518  0.2289
  790SOL    HW3 3214   1.138   3.620   1.424 -0.4973  0.1134  0.2772
  790SOL    MW4 3215   1.133   3.605   1.510 -0.7184  0.1678  0.2742
  791SOL     OW 3216   1.082   3.875   1.609  0.4423 -0.2012 -0.3354
  791SOL    HW2 3217   1.165   3.913   1.580  1.4583 -1.9967  0.1146
  791SOL    HW3 3218   1.088   3.783   1.586 -1.8235 -0.1944 -1.0950
  791SOL    MW4 3219   1.094   3.868   1.602  0.2774 -0.4370 -0.3761
  792SOL     OW 3220   0.845   4.006   1.500 -0.5250  0.3746 -0.1275
  792SOL    HW2 3221   0.861   4.100   1.511 -0.3931  0.2467  0.8307
  792SOL    HW3 3222   0.921   3.964   1.539 -0.3521 -0.1307 -0.9962
  792SOL    MW4 3223   0.857   4.013   1.507 -0.4848  0.2909 -0.1158
  793SOL     OW 3224   0.900   4.275   1.578  0.4575 -0.0216 -0.1483
  793SOL    HW2 3225   0.890   4.255   1.671 -1.0591 -0.0361 -0.2916
  793SOL    HW3 3226   0.816   4.315   1.553  0.8356 -0.0323 -1.5056
  793SOL    MW4 3227   0.888   4.278   1.587  0.3073 -0.0248 -0.3463
  794SOL     OW 3228   1.166   4.389   1.533 -0.3910  0.0609  0.0247
  794SOL    HW2 3229   1.078   4.355   1.544 -0.7867  0.1546 -2.5715
  794SOL    HW3 3230   1.156   4.484   1.541 -0.4496  0.0345  0.2513
  794SOL    MW4 3231   1.153   4.397   1.535 -0.4510  0.0696 -0.2879
  795SOL     OW 3232   1.573   0.009   1.614  0.4768  0.5980  0.1313
  795SOL    HW2 3233   1.549   0.009   1.707 -1.4234 -0.5184 -0.3389
  795SOL    HW3 3234   1.504   0.059   1.571 -0.2166 -1.3252 -1.0337
  795SOL    MW4 3235   1.561   0.015   1.621  0.1345  0.1969 -0.0845
  796SOL     OW 3236   1.355   0.141   1.513  0.2257  0.2461  0.3780
  796SOL    HW2 3237   1.334   0.221   1.561  1.6869  0.1893  1.1492
  796SOL    HW3 3238   1.342   0.165   1.421 -0.5111  1.0042  0.6729
  796SOL    MW4 3239   1.351   0.155   1.507  0.3213  0.3386  0.5186
  797SOL     OW 3240   1.328   0.392   1.638  0.2911 -0.1480 -0.3277
  797SOL    HW2 3241   1.403   0.440   1.605  1.4359 -0.4378  1.7309
  797SOL    HW3 3242   1.253   0.429   1.592  1.4103  1.8892 -0.5681
  797SOL    MW4 3243   1.328   0.403   1.628  0.5898  0.0826 -0.0877
  798SOL     OW 3244   1.562   0.521   1.537 -0.0031  0.0533 -0.0375
  798SOL    HW2 3245   1.650   0.488   1.556 -0.2683 -0.8950 -0.4094
  798SOL    HW3 3246   1.551   0.506   1.443 -0.5041  0.3178 -0.0217
  798SOL    MW4 3247   1.572   0.515   1.527 -0.1043 -0.0370 -0.0845
  799SOL     OW 3248   1.618   0.790   1.577 -0.6768 -0.4060  0.3329
  799SOL    HW2 3249   1.601   0.792   1.671  1.1840 -2.0489  0.7366
  799SOL    HW3 3250   1.604   0.699   1.552  0.8651 -0.4078 -0.5797
  799SOL    MW4 3251   1.614   0.778   1.586 -0.2278 -0.6230  0.2657
  800SOL     OW 3252   1.335   0.902   1.522  0.2498  0.1560 -0.4299
  800SOL    HW2 3253   1.415   0.857   1.552 -0.3418 -0.9741 -0.5134
  800SOL    HW3 3254   1.326   0.875   1.431  0.3981  1.2006 -0.7524
  800SOL    MW4 3255   1.345   0.892   1.514  0.1913  0.1447 -0.4834
  801SOL     OW 3256   1.342   1.172   1.601 -0.2141 -0.0320 -0.0632
  801SOL    HW2 3257   1.342   1.163   1.697  1.6981 -0.4443 -0.0923
  801SOL    HW3 3258   1.323   1.084   1.569  0.8378 -0.2604 -0.0778
  801SOL    MW4 3259   1.340   1.160   1.610  0.1770 -0.1165 -0.0689
  802SOL     OW 3260   1.601   1.289   1.541 -0.0703 -0.4258  0.4130
  802SOL    HW2 3261   1.529   1.231   1.565 -0.6400  0.0531 -0.1420
  802SOL    HW3 3262   1.602   1.288   1.445 -0.3399  0.8031  0.3941
  802SOL    MW4 3263   1.592   1.281   1.531 -0.1811 -0.2005  0.3372
  803SOL     OW 3264   1.564   1.559   1.661 -0.5110  0.6951 -0.2584
  803SOL    HW2 3265   1.579   1.541   1.754  0.8473 -1.2010 -0.8157
  803SOL    HW3 3266   1.552   1.472   1.621  1.2632  1.3098 -2.2281
  803SOL    MW4 3267   1.565   1.545   1.668 -0.0976  0.5261 -0.5918
  804SOL     OW 3268   1.324   1.643   1.541 -0.5595 -0.7231 -0.0579
  804SOL    HW2 3269   1.409   1.622   1.580 -0.6337  0.5818  0.8175
  804SOL    HW3 3270   1.340   1.642   1.446  0.0165 -2.2063  0.0414
  804SOL    MW4 3271   1.337   1.640   1.533 -0.4933 -0.7466  0.0707
  805SOL     OW 3272   1.352   1.914   1.621  0.7326 -0.3720 -0.4362
  805SOL    HW2 3273   1.350   1.919   1.716 -0.0336 -0.6106 -0.4372
  805SOL    HW3 3274   1.323   1.825   1.601 -0.7056  0.1887 -0.9414
  805SOL    MW4 3275   1.348   1.903   1.631  0.4418 -0.3295 -0.5029
  806SOL     OW 3276   1.582   2.050   1.510 -0.4141  0.1777  0.2638
  806SOL    HW2 3277   1.516   1.990   1.544 -0.3705  0.1775  0.3518
  806SOL    HW3 3278   1.572   2.047   1.415 -0.3290 -0.0623  0.2628
  806SOL    MW4 3279   1.572   2.042   1.502 -0.3972  0.1459  0.2753
  807SOL     OW 3280   1.548   2.306   1.630 -0.2537  0.1576  0.3261
  807SOL    HW2 3281   1.633   2.344   1.607 -0.3400  0.0913 -0.1097
  807SOL    HW3 3282   1.548   2.220   1.587 -0.0170 -0.3781  1.3920
  807SOL    MW4 3283   1.560   2.299   1.621 -0.2338  0.0782  0.4092
  808SOL     OW 3284   1.327   2.454   1.500  0.0864  0.0988 -0.5433
  808SOL    HW2 3285   1.319   2.545   1.528  2.2952  0.6171 -1.4923
  808SOL    HW3 3286   1.413   2.427   1.531  0.2164 -1.0891 -1.8845
  808SOL    MW4 3287   1.337   2.463   1.508  0.3951  0.0105 -0.8456
  809SOL     OW 3288   1.316   2.722   1.603  0.3007  0.1722 -0.1860
  809SOL    HW2 3289   1.384   2.767   1.553 -0.3940  0.1454 -1.1698
  809SOL    HW3 3290   1.234   2.759   1.571 -0.1981 -0.5727  0.2072
  809SOL    MW4 3291   1.314   2.732   1.592  0.1433  0.0706 -0.2638
  810SOL     OW 3292   1.553   2.849   1.507  0.0422 -0.0019 -0.3271
  810SOL    HW2 3293   1.629   2.812   1.551  0.5124  0.3486 -0.8374
  810SOL    HW3 3294   1.564   2.822   1.415 -0.1624  0.5148 -0.5028
  810SOL    MW4 3295   1.564   2.840   1.500  0.0772  0.1125 -0.4176
  811SOL     OW 3296   1.569   3.108   1.602  0.3845  0.1484 -0.2157
  811SOL    HW2 3297   1.647   3.149   1.566 -0.0323  0.4748 -0.7538
  811SOL    HW3 3298   1.563   3.023   1.559  1.0761 -0.3578  0.6711
  811SOL    MW4 3299   1.578   3.102   1.592  0.4208  0.1247 -0.1698
  812SOL     OW 3300   1.340   3.222   1.478 -0.1467  0.1469 -0.4668
  812SOL    HW2 3301   1.332   3.305   1.525  0.4786 -0.4896  0.8177
  812SOL    HW3 3302   1.419   3.181   1.515 -1.0117 -1.4600 -0.3399
  812SOL    MW4 3303   1.349   3.227   1.489 -0.1783 -0.1490 -0.2806
  813SOL     OW 3304   1.345   3.464   1.613 -0.1488  0.1539  0.1504
  813SOL    HW2 3305   1.355   3.464   1.708  0.4842 -0.5343  0.0929
  813SOL    HW3 3306   1.423   3.509   1.581 -1.3184  2.1630  0.0273
  813SOL    MW4 3307   1.357   3.470   1.622 -0.2196  0.3283  0.1266
  814SOL     OW 3308   1.601   3.606   1.496 -0.2925 -0.1381 -0.3930
  814SOL    HW2 3309   1.597   3.697   1.526  2.2127 -0.0262 -0.2985
  814SOL    HW3 3310   1.598   3.611   1.401  1.4367  0.1848 -0.4494
  814SOL    MW4 3311   1.600   3.618   1.488  0.2661 -0.0806 -0.3880
  815SOL     OW 3312   1.576   3.888   1.566  0.8360  0.0654 -0.2532
  815SOL    HW2 3313   1.563   3.869   1.660  0.6766 -1.1579 -0.5077
  815SOL    HW3 3314   1.489   3.913   1.535  0.3675 -1.8901 -0.5808
  815SOL    MW4 3315   1.563   3.889   1.575  0.7532 -0.3541 -0.3301
  816SOL     OW 3316   1.319   3.969   1.501  0.1662  0.0597  0.5826
  816SOL    HW2 3317   1.328   4.062   1.522 -0.5656  0.0923  0.7780
  816SOL    HW3 3318   1.303   3.968   1.407  2.1214 -0.0015  0.2265
  816SOL    MW4 3319   1.318   3.981   1.492  0.3276  0.0558  0.5615
  817SOL     OW 3320   1.401   4.234   1.573  0.5821  0.0176 -0.1024
  817SOL    HW2 3321   1.482   4.282   1.554  0.3275  0.4696 -0.0498
  817SOL    HW3 3322   1.331   4.296   1.553  0.2748  0.0098  0.9192
  817SOL    MW4 3323   1.403   4.249   1.568  0.5080  0.0763  0.0393
  818SOL     OW 3324   1.595   4.426   1.488  0.2851  0.1572 -0.2169
  818SOL    HW2 3325   1.671   4.388   1.531 -0.1616  0.3343  0.7496
  818SOL    HW3 3326   1.592   4.516   1.521  0.4265  0.5509 -1.2738
  818SOL    MW4 3327   1.605   4.433   1.498  0.2447  0.2322 -0.2289
  819SOL     OW 3328   2.063   4.652   1.603  0.0951  0.2846 -0.2495
  819SOL    HW2 3329   2.049   4.654   1.697  0.6453  0.1337 -0.1615
  819SOL    HW3 3330   1.983   4.689   1.566 -0.0919  0.4127  0.2771
  819SOL    MW4 3331   2.050   4.657   1.610  0.1431  0.2813 -0.1684
  820SOL     OW 3332   1.836   0.140   1.527 -0.1061  0.6358  0.1237
  820SOL    HW2 3333   1.765   0.122   1.589 -1.0191  1.1274 -0.7672
  820SOL    HW3 3334   1.795   0.132   1.441  1.8709 -3.2425 -0.5849
  820SOL    MW4 3335   1.821   0.136   1.524  0.0343  0.1889 -0.0875
  821SOL     OW 3336   1.820   0.401   1.570  0.1261 -0.1108  0.5043
  821SOL    HW2 3337   1.903   0.437   1.538 -0.5254  0.9125 -0.0627
  821SOL    HW3 3338   1.825   0.308   1.546  2.0351 -0.5512  2.4431
  821SOL    MW4 3339   1.832   0.393   1.562  0.2921 -0.0339  0.6852
  822SOL     OW 3340   2.079   0.506   1.480 -0.1735 -0.0527  0.0309
  822SOL    HW2 3341   2.167   0.476   1.502 -0.5593 -1.2222  0.0022
  822SOL    HW3 3342   2.078   0.599   1.505  0.8070 -0.2361  0.7521
  822SOL    MW4 3343   2.091   0.515   1.486 -0.0951 -0.2312  0.1223
  823SOL     OW 3344   2.072   0.777   1.589  0.2314  0.0831  0.4911
  823SOL    HW2 3345   2.146   0.821   1.548 -0.0006 -0.4859 -0.5453
  823SOL    HW3 3346   1.995   0.824   1.558  0.0658 -0.2318  0.4227
  823SOL    MW4 3347   2.072   0.789   1.580  0.1788 -0.0335  0.3453
  824SOL     OW 3348   1.849   0.909   1.528 -0.5899 -0.1826 -0.1173
  824SOL    HW2 3349   1.838   0.990   1.577  0.6962  1.8879 -3.1220
  824SOL    HW3 3350   1.770   0.858   1.547 -1.9081  2.2359  0.9773
  824SOL    MW4 3351   1.837   0.913   1.537 -0.5941  0.4097 -0.3693
  825SOL     OW 3352   1.832   1.164   1.643  0.3876  0.8926 -0.4426
  825SOL    HW2 3353   1.898   1.204   1.586  0.3830  0.3367 -0.8345
  825SOL    HW3 3354   1.750   1.206   1.616  0.3350  0.3918 -1.0724
  825SOL    MW4 3355   1.830   1.175   1.632  0.3799  0.7533 -0.5774
  826SOL     OW 3356   2.031   1.315   1.482  0.3368 -0.0926 -0.0420
  826SOL    HW2 3357   2.051   1.401   1.517 -0.4986  0.2101 -0.2929
  826SOL    HW3 3358   2.030   1.327   1.387 -0.0982 -0.3022 -0.0675
  826SOL    MW4 3359   2.033   1.328   1.474  0.1695 -0.0803 -0.0783
  827SOL     OW 3360   2.001   1.558   1.631  0.4186 -0.3920  0.3227
  827SOL    HW2 3361   2.072   1.613   1.598 -0.4185  1.6662  1.8443
  827SOL    HW3 3362   1.921   1.601   1.599 -0.2642 -0.4896  1.8631
  827SOL    MW4 3363   2.000   1.571   1.622  0.2179 -0.1333  0.7267
  828SOL     OW 3364   1.789   1.685   1.543 -0.3454 -0.3131 -0.3464
  828SOL    HW2 3365   1.715   1.635   1.576  1.2407 -1.9982  0.7442
  828SOL    HW3 3366   1.788   1.670   1.448 -0.5162 -1.5503 -0.1549
  828SOL    MW4 3367   1.779   1.676   1.535 -0.1585 -0.6986 -0.1773
  829SOL     OW 3368   1.806   1.938   1.656  0.0064 -0.4247  0.0188
  829SOL    HW2 3369   1.806   1.854   1.611 -2.6675 -0.3393 -0.2210
  829SOL    HW3 3370   1.736   1.988   1.613  0.1831  1.1660  1.5289
  829SOL    MW4 3371   1.797   1.934   1.644 -0.3231 -0.2035  0.1863
  830SOL     OW 3372   2.027   2.082   1.546  0.1287  0.0657  0.3622
  830SOL    HW2 3373   2.104   2.031   1.572  0.5147  0.8438  0.7652
  830SOL    HW3 3374   1.955   2.045   1.598  0.5780  0.5223  1.3287
  830SOL    MW4 3375   2.028   2.070   1.556  0.2391  0.2284  0.5429
  831SOL     OW 3376   2.049   2.364   1.583 -0.6494 -0.4599  0.2532
  831SOL    HW2 3377   2.047   2.361   1.679 -1.3553 -0.7643  0.2319
  831SOL    HW3 3378   2.045   2.272   1.557 -1.0462 -0.3491 -0.0793
  831SOL    MW4 3379   2.048   2.351   1.592 -0.7946 -0.4854  0.2065
  832SOL     OW 3380   1.784   2.434   1.525  0.3697 -0.2522  0.1398
  832SOL    HW2 3381   1.875   2.419   1.549 -0.1488 -1.9977  1.0979
  832SOL    HW3 3382   1.783   2.428   1.430  0.9248 -2.2413  0.2402
  832SOL    MW4 3383   1.796   2.431   1.516  0.3744 -0.7451  0.2794
  833SOL     OW 3384   1.778   2.702   1.618 -0.1376  0.9287 -0.0991
  833SOL    HW2 3385   1.857   2.747   1.586  1.1508 -0.7758  0.6154
  833SOL    HW3 3386   1.782   2.615   1.577 -0.4744  0.0560  1.7057
  833SOL    MW4 3387   1.789   2.697   1.608 -0.0120  0.5889  0.2332
  834SOL     OW 3388   1.988   2.839   1.520 -0.1097 -0.0329 -0.0233
  834SOL    HW2 3389   2.005   2.931   1.543 -0.6263 -0.0669  0.5187
  834SOL    HW3 3390   2.013   2.832   1.428 -1.0915  0.9249 -0.3710
  834SOL    MW4 3391   1.994   2.850   1.511 -0.3073  0.0889  0.0023
  835SOL     OW 3392   2.023   3.115   1.581  0.0818  0.3161 -0.1915
  835SOL    HW2 3393   2.034   3.122   1.676  2.1296 -0.3969 -0.3552
  835SOL    HW3 3394   2.102   3.154   1.545  1.1669 -2.9757 -1.5148
  835SOL    MW4 3395   2.035   3.121   1.589  0.4952 -0.2122 -0.3877
  836SOL     OW 3396   1.798   3.276   1.488  0.3602 -0.4038  0.5662
  836SOL    HW2 3397   1.822   3.359   1.528 -0.5586  0.5391 -0.7947
  836SOL    HW3 3398   1.870   3.217   1.510  1.5363  1.0340  0.6484
  836SOL    MW4 3399   1.811   3.279   1.496  0.3940 -0.0896  0.3974
  837SOL     OW 3400   1.855   3.528   1.599 -0.3805 -0.1797 -0.1784
  837SOL    HW2 3401   1.869   3.544   1.692 -0.2233  0.6438 -0.3415
  837SOL    HW3 3402   1.770   3.568   1.580 -0.1977  0.0639 -0.4902
  837SOL    MW4 3403   1.846   3.535   1.609 -0.3357 -0.0386 -0.2410
  838SOL     OW 3404   2.062   3.670   1.478 -0.5071 -0.2663  0.3082
  838SOL    HW2 3405   2.137   3.622   1.513  0.4100 -0.1786 -1.4727
  838SOL    HW3 3406   1.986   3.623   1.512  0.3710 -1.8543  0.1228
  838SOL    MW4 3407   2.062   3.657   1.487 -0.2701 -0.4642  0.0489
  839SOL     OW 3408   2.022   3.924   1.607  0.9779  0.4082  0.5374
  839SOL    HW2 3409   2.101   3.970   1.579  1.5213 -0.0524  1.2991
  839SOL    HW3 3410   2.029   3.838   1.565 -0.6197  1.3777 -1.8581
  839SOL    MW4 3411   2.033   3.919   1.598  0.8390  0.4756  0.3217
  840SOL     OW 3412   1.806   4.036   1.501 -0.0484 -0.2765 -0.1686
  840SOL    HW2 3413   1.883   3.995   1.541  0.5417 -0.5304 -1.5469
  840SOL    HW3 3414   1.734   3.976   1.521  0.4332 -0.9398 -0.3994
  840SOL    MW4 3415   1.807   4.023   1.509  0.0930 -0.3972 -0.3809
  841SOL     OW 3416   1.804   4.296   1.608  0.1476 -0.0242 -0.0446
  841SOL    HW2 3417   1.892   4.321   1.581  0.2159 -0.2247 -0.0105
  841SOL    HW3 3418   1.791   4.208   1.570 -0.6323  0.6505 -1.3991
  841SOL    MW4 3419   1.814   4.287   1.599  0.0538  0.0386 -0.2190
  842SOL     OW 3420   2.033   4.394   1.485  0.4947  0.4829  0.0815
  842SOL    HW2 3421   2.114   4.358   1.521  1.6485  0.6921 -2.2049
  842SOL    HW3 3422   2.030   4.483   1.520  1.8489  0.8464 -0.6801
  842SOL    MW4 3423   2.044   4.401   1.495  0.8254  0.5589 -0.3208
  843SOL     OW 3424   2.453   4.645   1.582 -0.1218 -0.1583 -0.2946
  843SOL    HW2 3425   2.447   4.638   1.677 -2.2153 -1.9010 -0.5155
  843SOL    HW3 3426   2.374   4.694   1.556  0.2246 -0.0428 -1.1625
  843SOL    MW4 3427   2.441   4.651   1.591 -0.3524 -0.3730 -0.4383
  844SOL     OW 3428   2.249   0.130   1.473 -0.3172 -0.0118  0.7878
  844SOL    HW2 3429   2.171   0.082   1.501 -0.9589  0.4569 -0.1750
  844SOL    HW3 3430   2.255   0.112   1.379  0.7214 -0.0161  0.8463
  844SOL    MW4 3431   2.240   0.121   1.464 -0.2649  0.0495  0.6684
  845SOL     OW 3432   2.318   0.362   1.575  0.4107  0.1670 -0.2605
  845SOL    HW2 3433   2.308   0.350   1.669  1.5960 -0.1279 -0.1591
  845SOL    HW3 3434   2.288   0.280   1.536 -0.3747  0.4075 -0.1569
  845SOL    MW4 3435   2.313   0.350   1.582  0.4635  0.1598 -0.2334
  846SOL     OW 3436   2.512   0.521   1.497 -0.3271 -0.0216  0.3798
  846SOL    HW2 3437   2.575   0.459   1.533  0.7082  0.9313  0.2352
  846SOL    HW3 3438   2.427   0.482   1.515  0.2926 -1.1620  0.8801
  846SOL    MW4 3439   2.509   0.508   1.504 -0.1087 -0.0464  0.4267
  847SOL     OW 3440   2.511   0.781   1.577  0.0353 -0.2105 -0.1120
  847SOL    HW2 3441   2.426   0.812   1.546  0.4728  1.0640 -0.0535
  847SOL    HW3 3442   2.517   0.691   1.544 -1.1140 -0.1353 -0.5447
  847SOL    MW4 3443   2.501   0.773   1.569 -0.0584 -0.0325 -0.1613
  848SOL     OW 3444   2.285   0.916   1.489  0.0114 -0.1388 -0.5506
  848SOL    HW2 3445   2.279   1.006   1.521  0.8977 -0.5808  0.9116
  848SOL    HW3 3446   2.262   0.922   1.396  0.4792  1.6566 -0.5753
  848SOL    MW4 3447   2.281   0.929   1.481  0.1903  0.0397 -0.3610
  849SOL     OW 3448   2.259   1.170   1.590  0.3032  0.1575 -0.4538
  849SOL    HW2 3449   2.241   1.173   1.684 -0.1456 -0.1672 -0.5273
  849SOL    HW3 3450   2.198   1.234   1.552  0.8162  0.6371 -0.4735
  849SOL    MW4 3451   2.249   1.179   1.597  0.3119  0.1780 -0.4661
  850SOL     OW 3452   2.487   1.275   1.505  0.1235  0.1970  0.0152
  850SOL    HW2 3453   2.409   1.235   1.544  0.1909  0.1048  0.0557
  850SOL    HW3 3454   2.479   1.258   1.411  0.6039 -0.7012  0.1319
  850SOL    MW4 3455   2.475   1.268   1.498  0.1957  0.0663  0.0360
  851SOL     OW 3456   2.477   1.576   1.583  0.1642 -0.3669 -0.2481
  851SOL    HW2 3457   2.559   1.615   1.553  1.2220 -1.3217  1.3407
  851SOL    HW3 3458   2.478   1.488   1.547  0.7030 -0.9896  1.2459
  851SOL    MW4 3459   2.488   1.570   1.574  0.3750 -0.5749  0.1585
  852SOL     OW 3460   2.225   1.668   1.525  0.2752  0.5140  0.1663
  852SOL    HW2 3461   2.308   1.625   1.547  0.2688  0.6966  0.5569
  852SOL    HW3 3462   2.225   1.674   1.430  0.1692 -0.5586  0.0980
  852SOL    MW4 3463   2.236   1.663   1.516  0.2604  0.3966  0.2087
  853SOL     OW 3464   2.240   1.936   1.625 -0.2679 -0.2746 -0.3302
  853SOL    HW2 3465   2.238   1.942   1.720  0.6784 -2.1889 -0.1734
  853SOL    HW3 3466   2.234   1.843   1.606  1.5102 -0.0697 -2.0692
  853SOL    MW4 3467   2.239   1.925   1.635  0.0916 -0.5003 -0.5389
  854SOL     OW 3468   2.464   2.070   1.530  0.3242  0.4471 -0.0485
  854SOL    HW2 3469   2.386   2.023   1.558  0.1081  0.0775 -1.2425
  854SOL    HW3 3470   2.464   2.063   1.434  1.2085  1.4073 -0.1363
  854SOL    MW4 3471   2.454   2.063   1.521  0.4122  0.5252 -0.2176
  855SOL     OW 3472   2.478   2.319   1.638 -0.3061 -0.5194  0.7465
  855SOL    HW2 3473   2.478   2.297   1.731 -1.4554 -0.8194  0.6881
  855SOL    HW3 3474   2.477   2.235   1.593 -2.2737 -0.3799  0.4966
  855SOL    MW4 3475   2.478   2.305   1.644 -0.7172 -0.5407  0.7058
  856SOL     OW 3476   2.281   2.474   1.508  0.0755  0.5055  0.1734
  856SOL    HW2 3477   2.344   2.410   1.541 -0.4509 -0.0797  0.0715
  856SOL    HW3 3478   2.196   2.439   1.535 -0.2746  0.6927 -0.6778
  856SOL    MW4 3479   2.278   2.461   1.516 -0.0401  0.4530  0.0474
  857SOL     OW 3480   2.229   2.727   1.608 -0.1121  0.3354  0.6680
  857SOL    HW2 3481   2.249   2.648   1.558 -2.6438  0.2706 -0.2821
  857SOL    HW3 3482   2.137   2.745   1.590  0.2574  3.1879  1.3175
  857SOL    MW4 3483   2.220   2.719   1.599 -0.3972  0.7033  0.6284
  858SOL     OW 3484   2.446   2.875   1.516  0.0931  0.0526 -0.2768
  858SOL    HW2 3485   2.448   2.957   1.564  2.2242  0.2724 -0.7244
  858SOL    HW3 3486   2.366   2.831   1.547 -0.8718  2.1081  0.2188
  858SOL    MW4 3487   2.435   2.880   1.527  0.2468  0.3531 -0.2705
  859SOL     OW 3488   2.460   3.128   1.638 -0.1075 -0.2618 -0.4501
  859SOL    HW2 3489   2.543   3.166   1.610  0.0742 -0.8359 -0.6939
  859SOL    HW3 3490   2.394   3.165   1.579  0.1469 -0.7540 -1.0466
  859SOL    MW4 3491   2.462   3.138   1.627 -0.0501 -0.4027 -0.5609
  860SOL     OW 3492   2.247   3.240   1.491  0.2230 -0.2688  0.1684
  860SOL    HW2 3493   2.266   3.324   1.533  0.6668 -0.1389 -0.2828
  860SOL    HW3 3494   2.263   3.256   1.398 -0.5731 -0.6019 -0.0242
  860SOL    MW4 3495   2.252   3.253   1.484  0.1764 -0.2954  0.0836
  861SOL     OW 3496   2.277   3.502   1.577  0.2947  0.1703 -0.0028
  861SOL    HW2 3497   2.268   3.512   1.672 -0.8028  1.3962 -0.2242
  861SOL    HW3 3498   2.347   3.563   1.553  0.3482  0.0994 -0.0269
  861SOL    MW4 3499   2.285   3.511   1.586  0.1569  0.3226 -0.0353
  862SOL     OW 3500   2.489   3.647   1.450 -0.2196  0.3182  0.1950
  862SOL    HW2 3501   2.558   3.604   1.500  1.2657  0.2614 -1.8434
  862SOL    HW3 3502   2.476   3.731   1.495 -1.7355 -1.3363  2.9968
  862SOL    MW4 3503   2.497   3.652   1.463 -0.2236  0.0925  0.2959
  863SOL     OW 3504   2.491   3.899   1.557  0.2382  0.0706  0.3710
  863SOL    HW2 3505   2.509   3.901   1.651 -1.5000  0.4762  0.7214
  863SOL    HW3 3506   2.563   3.948   1.517  1.2994 -0.6131  1.4336
  863SOL    MW4 3507   2.502   3.906   1.564  0.1490  0.0339  0.5574
  864SOL     OW 3508   2.255   4.026   1.500 -0.0744  0.1936  0.1251
  864SOL    HW2 3509   2.341   3.990   1.522 -0.6738 -2.0618 -1.0240
  864SOL    HW3 3510   2.258   4.037   1.405 -0.4853  1.7200  0.2734
  864SOL    MW4 3511   2.267   4.023   1.490 -0.2077  0.0973 -0.0069
  865SOL     OW 3512   2.265   4.290   1.599 -0.6171 -0.4263 -0.2220
  865SOL    HW2 3513   2.347   4.307   1.553 -1.1806 -0.2066 -1.1651
  865SOL    HW3 3514   2.248   4.197   1.584 -1.0654 -0.2410 -0.9191
  865SOL    MW4 3515   2.273   4.280   1.591 -0.7505 -0.3729 -0.4382
  866SOL     OW 3516   2.512   4.397   1.491 -0.0494 -0.5837 -0.4946
  866SOL    HW2 3517   2.472   4.477   1.526 -0.7416 -1.1072 -0.0662
  866SOL    HW3 3518   2.489   4.398   1.398 -1.9032 -1.3412 -0.0855
  866SOL    MW4 3519   2.503   4.408   1.483 -0.3853 -0.7524 -0.3841
  867SOL     OW 3520   2.947   0.003   1.595 -0.6323  0.0247 -0.1300
  867SOL    HW2 3521   2.935   0.002   1.690  0.6857 -0.3090  0.0391
  867SOL    HW3 3522   2.869   0.048   1.562 -0.6995  0.8918  1.1648
  867SOL    MW4 3523   2.935   0.008   1.603 -0.4673  0.0950  0.0629
  868SOL     OW 3524   2.703   0.083   1.509  0.1100 -0.0674  0.1335
  868SOL    HW2 3525   2.686   0.173   1.539  2.6591 -0.4451  2.9928
  868SOL    HW3 3526   2.629   0.033   1.541  0.6193  0.3580  2.0835
  868SOL    MW4 3527   2.691   0.089   1.518  0.5131 -0.0611  0.7679
  869SOL     OW 3528   2.687   0.347   1.596  0.0904 -0.3178  0.1664
  869SOL    HW2 3529   2.695   0.357   1.691 -1.1605  0.2902  0.2258
  869SOL    HW3 3530   2.770   0.379   1.562  0.2669  0.1732  1.0241
  869SOL    MW4 3531   2.699   0.353   1.604 -0.0515 -0.1728  0.2875
  870SOL     OW 3532   2.929   0.457   1.473 -0.2497 -0.3262  0.4750
  870SOL    HW2 3533   2.921   0.545   1.508 -1.4125 -0.4705  0.5913
  870SOL    HW3 3534   2.930   0.469   1.378  2.1356  0.0019  0.5126
  870SOL    MW4 3535   2.928   0.470   1.465 -0.0885 -0.3019  0.4953
  871SOL     OW 3536   2.926   0.727   1.563  0.3057  0.1591  0.0758
  871SOL    HW2 3537   2.936   0.736   1.657  0.6257 -1.4496  0.2106
  871SOL    HW3 3538   2.856   0.788   1.540 -0.7887 -0.5112  1.5661
  871SOL    MW4 3539   2.918   0.736   1.572  0.2034 -0.1416  0.2903
  872SOL     OW 3540   2.735   0.897   1.477  0.4245 -0.0369  0.3472
  872SOL    HW2 3541   2.653   0.864   1.513 -0.7264  3.1259  0.8236
  872SOL    HW3 3542   2.728   0.883   1.383 -0.9598  0.7576  0.3169
  872SOL    MW4 3543   2.724   0.891   1.469  0.0901  0.4852  0.4060
  873SOL     OW 3544   2.730   1.160   1.592  0.4532 -0.3281 -0.5127
  873SOL    HW2 3545   2.718   1.071   1.558 -1.5439  0.7543 -2.8158
  873SOL    HW3 3546   2.648   1.205   1.572  1.2950  1.9676  0.9115
  873SOL    MW4 3547   2.718   1.154   1.585  0.3009  0.1177 -0.6287
  874SOL     OW 3548   2.952   1.289   1.477  0.1397 -0.5467  0.4351
  874SOL    HW2 3549   3.036   1.254   1.506  0.8588  1.9242  1.4854
  874SOL    HW3 3550   2.887   1.229   1.513  1.3852 -1.6426  0.8972
  874SOL    MW4 3551   2.955   1.277   1.486  0.3989 -0.3654  0.6346
  875SOL     OW 3552   2.936   1.540   1.612 -0.0594  0.2165 -0.0318
  875SOL    HW2 3553   2.851   1.575   1.586 -0.4019  0.1829  1.0467
  875SOL    HW3 3554   2.943   1.457   1.565 -0.4653  0.3947 -0.4056
  875SOL    MW4 3555   2.926   1.534   1.602 -0.1581  0.2356  0.0613
  876SOL     OW 3556   2.728   1.654   1.500 -0.1331  0.0294 -0.9205
  876SOL    HW2 3557   2.736   1.747   1.524 -3.1797 -0.1108  1.0057
  876SOL    HW3 3558   2.736   1.653   1.405  1.9125  1.9870 -0.8243
  876SOL    MW4 3559   2.730   1.667   1.491 -0.2651  0.2692 -0.6535
  877SOL     OW 3560   2.698   1.928   1.573 -0.1449  0.1680 -0.7482
  877SOL    HW2 3561   2.705   1.926   1.669  2.4978  0.0201 -0.9075
  877SOL    HW3 3562   2.612   1.966   1.556 -2.1750 -2.9790  1.7021
  877SOL    MW4 3563   2.687   1.933   1.583 -0.0644 -0.2666 -0.4458
  878SOL     OW 3564   2.931   2.063   1.496 -0.1078 -0.4453  0.5825
  878SOL    HW2 3565   2.927   2.148   1.541 -0.4675 -0.4350  0.5279
  878SOL    HW3 3566   2.855   2.015   1.529  0.9899 -1.3611  1.8544
  878SOL    MW4 3567   2.920   2.068   1.507 -0.0103 -0.5651  0.7430
  879SOL     OW 3568   2.900   2.309   1.632 -0.3750 -0.0752  0.1673
  879SOL    HW2 3569   2.878   2.296   1.724 -0.2691  1.3903  0.4129
  879SOL    HW3 3570   2.829   2.365   1.598  0.3491  0.5970 -0.2590
  879SOL    MW4 3571   2.888   2.315   1.639 -0.2656  0.2069  0.1435
  880SOL     OW 3572   2.690   2.458   1.531  0.5415 -0.1659 -0.0807
  880SOL    HW2 3573   2.688   2.552   1.547 -1.9660  0.1437 -1.9862
  880SOL    HW3 3574   2.608   2.425   1.566  1.0934 -1.5431 -0.0315
  880SOL    MW4 3575   2.679   2.466   1.537  0.2832 -0.3066 -0.3257
  881SOL     OW 3576   2.659   2.713   1.642 -0.1357  0.3785  0.5171
  881SOL    HW2 3577   2.728   2.765   1.601 -0.4795 -0.1803 -0.8174
  881SOL    HW3 3578   2.578   2.755   1.615 -0.3143  1.2092  2.3320
  881SOL    MW4 3579   2.658   2.725   1.633 -0.2048  0.4144  0.5804
  882SOL     OW 3580   2.872   2.834   1.517 -0.2082 -0.3100  0.3070
  882SOL    HW2 3581   2.946   2.785   1.554 -1.1159 -0.4263  2.0093
  882SOL    HW3 3582   2.886   2.924   1.547  0.5994  0.1928 -1.5003
  882SOL    MW4 3583   2.884   2.840   1.526 -0.2217 -0.2592  0.2933
  883SOL     OW 3584   2.897   3.101   1.614 -0.0735 -0.0747 -0.1518
  883SOL    HW2 3585   2.903   3.108   1.710 -0.1396  1.0687 -0.2257
  883SOL    HW3 3586   2.980   3.137   1.583 -0.4796  0.5171 -0.5595
  883SOL    MW4 3587   2.909   3.107   1.623 -0.1354  0.1543 -0.2153
  884SOL     OW 3588   2.682   3.249   1.526  0.3588  0.5858  0.3001
  884SOL    HW2 3589   2.767   3.213   1.549 -0.2100 -0.9799  0.0529
  884SOL    HW3 3590   2.676   3.237   1.431 -1.9262 -3.4699  0.8415
  884SOL    MW4 3591   2.692   3.242   1.517 -0.0176 -0.1557  0.3389
  885SOL     OW 3592   2.675   3.522   1.603  0.2102  0.0641 -0.6906
  885SOL    HW2 3593   2.689   3.518   1.697 -0.5011  0.4568 -0.5674
  885SOL    HW3 3594   2.672   3.430   1.575  0.3457 -0.0516 -0.3201
  885SOL    MW4 3595   2.676   3.509   1.611  0.1345  0.1004 -0.6254
  886SOL     OW 3596   2.937   3.583   1.511 -0.8335 -0.7331  0.0687
  886SOL    HW2 3597   2.850   3.559   1.544 -1.5416  2.4168  0.6824
  886SOL    HW3 3598   2.922   3.605   1.419 -0.8890  0.5898  0.3749
  886SOL    MW4 3599   2.924   3.583   1.503 -0.9341 -0.1431  0.1899
  887SOL     OW 3600   2.907   3.863   1.620 -0.0565  0.1141 -0.0492
  887SOL    HW2 3601   2.837   3.911   1.575 -1.4342 -0.4536  1.4536
  887SOL    HW3 3602   2.906   3.777   1.579  1.6301  0.9501 -1.9306
  887SOL    MW4 3603   2.897   3.858   1.608 -0.0157  0.1495 -0.0991
  888SOL     OW 3604   2.730   4.033   1.466  0.5000  0.4635 -0.1248
  888SOL    HW2 3605   2.729   4.117   1.512 -1.5308  0.9282 -0.9807
  888SOL    HW3 3606   2.732   4.057   1.373  1.2969 -0.4619 -0.3588
  888SOL    MW4 3607   2.730   4.047   1.460  0.3371  0.4029 -0.2686
  889SOL     OW 3608   2.744   4.289   1.599 -0.2845 -0.2606  0.2498
  889SOL    HW2 3609   2.819   4.345   1.578  0.6178 -1.6549 -0.2871
  889SOL    HW3 3610   2.668   4.343   1.576  0.4640  1.8178  2.3819
  889SOL    MW4 3611   2.744   4.304   1.593 -0.0665 -0.1707  0.4604
  890SOL     OW 3612   2.967   4.416   1.522 -0.1987 -0.4510  0.0339
  890SOL    HW2 3613   2.973   4.511   1.533 -1.4253 -0.5846  1.9555
  890SOL    HW3 3614   2.936   4.404   1.432  1.8778  0.8912 -0.9111
  890SOL    MW4 3615   2.964   4.427   1.511 -0.0865 -0.2913  0.1627
  891SOL     OW 3616   3.405   4.604   1.644 -0.0588 -0.5452  0.1096
  891SOL    HW2 3617   3.485   4.652   1.626 -0.0498 -0.0175  1.4393
  891SOL    HW3 3618   3.403   4.533   1.580  0.0325  1.1127 -1.7711
  891SOL    MW4 3619   3.415   4.601   1.633 -0.0455 -0.2565  0.0370
  892SOL     OW 3620   3.207   0.098   1.513 -0.5356 -0.1534  0.6012
  892SOL    HW2 3621   3.284   0.063   1.559 -0.7419  1.2966  2.0821
  892SOL    HW3 3622   3.133   0.054   1.555 -0.5959 -0.7109 -0.0731
  892SOL    MW4 3623   3.207   0.087   1.524 -0.5708 -0.0356  0.7076
  893SOL     OW 3624   3.179   0.376   1.574  0.5770  0.0626  0.1241
  893SOL    HW2 3625   3.179   0.282   1.556  0.1137  0.1494 -0.3410
  893SOL    HW3 3626   3.098   0.408   1.533  0.3530  0.5380  0.9260
  893SOL    MW4 3627   3.168   0.368   1.566  0.4864  0.1368  0.1686
  894SOL     OW 3628   3.431   0.482   1.491 -0.3818  0.1075 -0.2069
  894SOL    HW2 3629   3.338   0.461   1.501 -0.3450 -0.7056 -1.4309
  894SOL    HW3 3630   3.438   0.517   1.402  0.3818  0.7844  0.1098
  894SOL    MW4 3631   3.420   0.484   1.481 -0.2761  0.0896 -0.3265
  895SOL     OW 3632   3.369   0.762   1.628 -0.0261  0.2000  0.1796
  895SOL    HW2 3633   3.373   0.768   1.723  1.1243  0.7055  0.1026
  895SOL    HW3 3634   3.367   0.667   1.610  2.9382  0.0061  0.6065
  895SOL    MW4 3635   3.369   0.750   1.638  0.5169  0.2410  0.2258
  896SOL     OW 3636   3.150   0.887   1.492  0.3470  0.4534  0.1727
  896SOL    HW2 3637   3.232   0.855   1.530 -0.1017 -0.6086  0.2504
  896SOL    HW3 3638   3.083   0.828   1.525 -0.1837  0.1016 -1.4807
  896SOL    MW4 3639   3.152   0.875   1.502  0.2177  0.2668 -0.0352
  897SOL     OW 3640   3.164   1.168   1.581  0.0594 -0.3379  0.2462
  897SOL    HW2 3641   3.148   1.169   1.676 -1.0186 -0.8301  0.0878
  897SOL    HW3 3642   3.164   1.075   1.558 -0.1692 -0.2069 -0.3023
  897SOL    MW4 3643   3.162   1.156   1.591 -0.1132 -0.3855  0.1529
  898SOL     OW 3644   3.391   1.288   1.453 -0.5329  0.0991  0.3912
  898SOL    HW2 3645   3.306   1.261   1.488 -0.6843  1.3582  1.0445
  898SOL    HW3 3646   3.455   1.233   1.499 -0.9697 -0.6043  0.1572
  898SOL    MW4 3647   3.389   1.278   1.464 -0.6101  0.1724  0.4466
  899SOL     OW 3648   3.357   1.549   1.598 -0.2204 -0.4206  0.0748
  899SOL    HW2 3649   3.345   1.529   1.690  0.5617 -0.5568  0.1458
  899SOL    HW3 3650   3.374   1.464   1.556 -0.1906 -0.3151 -0.1302
  899SOL    MW4 3651   3.358   1.535   1.604 -0.1132 -0.4247  0.0571
  900SOL     OW 3652   3.139   1.718   1.496  0.0576 -0.3588 -0.6037
  900SOL    HW2 3653   3.211   1.658   1.517  0.6709 -0.4757 -2.9310
  900SOL    HW3 3654   3.064   1.682   1.543  0.7526 -2.1456 -0.8132
  900SOL    MW4 3655   3.139   1.705   1.505  0.2303 -0.6100 -0.9384
  901SOL     OW 3656   3.138   1.949   1.635  0.1371 -0.1231 -0.0583
  901SOL    HW2 3657   3.124   1.863   1.597  0.1847  0.1560 -0.7195
  901SOL    HW3 3658   3.066   2.002   1.600 -0.4779 -0.1534  1.1499
  901SOL    MW4 3659   3.127   1.945   1.625  0.0622 -0.0904  0.0139
  902SOL     OW 3660   3.378   2.061   1.545 -0.5632 -0.0688  0.1652
  902SOL    HW2 3661   3.307   2.004   1.574  1.1849 -2.5993 -0.4368
  902SOL    HW3 3662   3.366   2.068   1.450  0.2225 -0.8313  0.0074
  902SOL    MW4 3663   3.367   2.055   1.536 -0.2291 -0.5031  0.0650
  903SOL     OW 3664   3.357   2.331   1.592 -0.0419  0.7617  0.4097
  903SOL    HW2 3665   3.421   2.379   1.539  1.7491 -0.2742  1.5604
  903SOL    HW3 3666   3.373   2.239   1.571 -1.3908  0.5108  0.4593
  903SOL    MW4 3667   3.368   2.325   1.583  0.0165  0.5918  0.5682
  904SOL     OW 3668   3.126   2.463   1.538 -0.5802  0.2177 -0.1558
  904SOL    HW2 3669   3.209   2.415   1.534 -0.3787  0.5522 -0.0340
  904SOL    HW3 3670   3.065   2.402   1.578 -0.2347  0.1844  0.3293
  904SOL    MW4 3671   3.129   2.449   1.543 -0.5083  0.2577 -0.0758
  905SOL     OW 3672   3.106   2.723   1.627 -0.2542 -0.1728 -0.0798
  905SOL    HW2 3673   3.183   2.774   1.603 -1.3698  1.1093 -0.9188
  905SOL    HW3 3674   3.122   2.636   1.589 -0.3403  0.7887 -2.3478
  905SOL    MW4 3675   3.119   2.718   1.619 -0.4127  0.1233 -0.4897
  906SOL     OW 3676   3.299   2.896   1.495 -0.2382 -0.1004  0.0487
  906SOL    HW2 3677   3.324   2.981   1.531  1.5170 -0.2820 -0.6837
  906SOL    HW3 3678   3.312   2.904   1.401  0.6842 -1.4148  0.0457
  906SOL    MW4 3679   3.304   2.908   1.487  0.1154 -0.2978 -0.0483
  907SOL     OW 3680   3.357   3.126   1.614 -0.2776 -0.1933  0.8975
  907SOL    HW2 3681   3.351   3.116   1.709  0.3167  0.5103  1.0131
  907SOL    HW3 3682   3.430   3.187   1.601 -0.3681 -0.2755 -0.0072
  907SOL    MW4 3683   3.366   3.133   1.625 -0.2110 -0.1113  0.7935
  908SOL     OW 3684   3.134   3.219   1.496  0.2705  0.3903 -0.1605
  908SOL    HW2 3685   3.218   3.184   1.523  0.5702  0.2527 -1.2588
  908SOL    HW3 3686   3.143   3.237   1.402 -0.9317  0.3111 -0.3119
  908SOL    MW4 3687   3.146   3.217   1.487  0.1512  0.3617 -0.3254
  909SOL     OW 3688   3.185   3.469   1.599 -0.1467 -0.4765  0.2325
  909SOL    HW2 3689   3.177   3.377   1.571 -0.0238 -0.2077 -0.6863
  909SOL    HW3 3690   3.107   3.511   1.562 -0.9282 -0.4888  1.8075
  909SOL    MW4 3691   3.173   3.462   1.590 -0.2334 -0.4430  0.3190
  910SOL     OW 3692   3.372   3.645   1.480 -0.4687 -0.0291 -0.6647
  910SOL    HW2 3693   3.457   3.611   1.506  0.1146  1.1239 -1.0266
  910SOL    HW3 3694   3.309   3.588   1.524  0.4796 -1.1859 -0.7789
  910SOL    MW4 3695   3.375   3.633   1.490 -0.2666 -0.0293 -0.7275
  911SOL     OW 3696   3.370   3.902   1.593 -0.2420 -0.1238  0.1825
  911SOL    HW2 3697   3.284   3.939   1.576 -0.3814 -0.1048  0.9175
  911SOL    HW3 3698   3.369   3.816   1.551 -0.5692 -0.0651  0.0765
  911SOL    MW4 3699   3.359   3.895   1.586 -0.3035 -0.1137  0.2655
  912SOL     OW 3700   3.115   4.005   1.508 -0.3996 -0.0327 -0.3530
  912SOL    HW2 3701   3.124   4.083   1.562  0.7155 -1.7152  1.9647
  912SOL    HW3 3702   3.039   3.959   1.544 -0.9641 -0.1196 -1.6080
  912SOL    MW4 3703   3.106   4.009   1.520 -0.3271 -0.2656 -0.2128
  913SOL     OW 3704   3.162   4.247   1.636 -0.0951 -0.3501 -0.0029
  913SOL    HW2 3705   3.176   4.250   1.731 -0.7362 -3.0786  0.2319
  913SOL    HW3 3706   3.094   4.313   1.620 -0.4612 -0.3251  1.5322
  913SOL    MW4 3707   3.155   4.256   1.646 -0.2277 -0.7071  0.2306
  914SOL     OW 3708   3.363   4.388   1.476  0.1944  0.0669  0.1427
  914SOL    HW2 3709   3.300   4.326   1.511  0.6362  0.3226  1.4033
  914SOL    HW3 3710   3.367   4.368   1.382 -0.4035 -1.1449  0.3723
  914SOL    MW4 3711   3.355   4.377   1.468  0.1738 -0.0596  0.3393
  915SOL     OW 3712   3.849   4.629   1.622 -0.2945  0.4018  0.2197
  915SOL    HW2 3713   3.854   4.653   1.715 -1.7271 -0.2463  0.4751
  915SOL    HW3 3714   3.913   4.686   1.579 -0.3555  1.4172  1.4602
  915SOL    MW4 3715   3.858   4.639   1.629 -0.4916  0.4497  0.4171
  916SOL     OW 3716   3.616   0.083   1.523  0.0718 -0.2853  0.6304
  916SOL    HW2 3717   3.702   0.044   1.540  0.2323 -0.0986  0.2454
  916SOL    HW3 3718   3.611   0.091   1.428  0.0490  0.6469  0.6993
  916SOL    MW4 3719   3.627   0.079   1.513  0.0896 -0.1376  0.5887
  917SOL     OW 3720   3.647   0.345   1.596  0.0775 -0.2897  0.3811
  917SOL    HW2 3721   3.634   0.252   1.575  0.1130 -0.4940  1.2274
  917SOL    HW3 3722   3.569   0.389   1.562  0.3132 -0.5567 -0.5019
  917SOL    MW4 3723   3.635   0.338   1.589  0.1130 -0.3519  0.3762
  918SOL     OW 3724   3.861   0.478   1.460  0.5686 -0.0691  0.3310
  918SOL    HW2 3725   3.795   0.421   1.498 -0.1095  0.4968 -0.0012
  918SOL    HW3 3726   3.841   0.479   1.366 -0.5392  2.1593  0.5600
  918SOL    MW4 3727   3.850   0.470   1.452  0.3331  0.2996  0.3173
  919SOL     OW 3728   3.808   0.734   1.601 -0.1125  0.0834 -0.1244
  919SOL    HW2 3729   3.739   0.781   1.555 -0.4292 -0.5833 -0.3329
  919SOL    HW3 3730   3.811   0.648   1.559  0.9902  0.1802 -0.2648
  919SOL    MW4 3731   3.799   0.729   1.589 -0.0088  0.0082 -0.1704
  920SOL     OW 3732   3.590   0.857   1.498 -0.1136  0.3892 -0.1565
  920SOL    HW2 3733   3.512   0.823   1.542 -0.6043  2.0285  0.2721
  920SOL    HW3 3734   3.565   0.863   1.405  0.3616 -1.4882 -0.4134
  920SOL    MW4 3735   3.576   0.853   1.491 -0.1156  0.3579 -0.1338
  921SOL     OW 3736   3.573   1.124   1.576 -0.6223  0.4195 -0.6093
  921SOL    HW2 3737   3.643   1.168   1.527  0.7938 -0.1047  0.9007
  921SOL    HW3 3738   3.575   1.033   1.545  0.4346  0.0307  0.5740
  921SOL    MW4 3739   3.582   1.118   1.565 -0.2959  0.2990 -0.2538
  922SOL     OW 3740   3.793   1.259   1.475 -0.3423  0.6754 -0.3416
  922SOL    HW2 3741   3.870   1.218   1.516 -1.3393 -1.1430 -0.2682
  922SOL    HW3 3742   3.779   1.339   1.526  0.1350 -0.1425  1.0958
  922SOL    MW4 3743   3.802   1.264   1.487 -0.4108  0.3276 -0.1423
  923SOL     OW 3744   3.802   1.506   1.604 -0.2191 -0.1494 -0.6817
  923SOL    HW2 3745   3.796   1.508   1.699 -0.2066  0.4317 -0.6921
  923SOL    HW3 3746   3.740   1.572   1.574 -0.1622 -0.2712 -1.0708
  923SOL    MW4 3747   3.793   1.515   1.613 -0.2098 -0.0889 -0.7342
  924SOL     OW 3748   3.586   1.692   1.513  0.5614 -0.5292 -0.5136
  924SOL    HW2 3749   3.509   1.640   1.538 -0.1262  0.6221 -0.1890
  924SOL    HW3 3750   3.587   1.689   1.418  0.1617 -0.6189 -0.5165
  924SOL    MW4 3751   3.576   1.685   1.504  0.4179 -0.3891 -0.4711
  925SOL     OW 3752   3.594   1.922   1.657  0.3125 -0.0641  0.2903
  925SOL    HW2 3753   3.583   1.834   1.619 -0.0064 -0.1787  0.6463
  925SOL    HW3 3754   3.524   1.974   1.617  0.8160  0.1626 -0.3125
  925SOL    MW4 3755   3.583   1.917   1.646  0.3371 -0.0494  0.2577
  926SOL     OW 3756   3.813   2.065   1.529  0.4542  0.2386 -0.1312
  926SOL    HW2 3757   3.797   2.157   1.548 -1.0958  0.1977 -1.1334
  926SOL    HW3 3758   3.745   2.018   1.577  1.0470 -0.3608  0.1333
  926SOL    MW4 3759   3.802   2.071   1.538  0.3278  0.1543 -0.2285
  927SOL     OW 3760   3.781   2.335   1.578 -0.0999  0.0131  0.2605
  927SOL    HW2 3761   3.781   2.344   1.674 -0.1737  0.4438  0.2196
  927SOL    HW3 3762   3.866   2.370   1.551  0.7036 -1.8206  0.3268
  927SOL    MW4 3763   3.792   2.341   1.587 -0.0036 -0.1719  0.2638
  928SOL     OW 3764   3.540   2.464   1.416 -0.2471  0.4219 -0.0027
  928SOL    HW2 3765   3.544   2.554   1.451  0.0131  0.5506 -0.3620
  928SOL    HW3 3766   3.611   2.418   1.461 -0.8676  0.1912  0.7533
  928SOL    MW4 3767   3.550   2.470   1.427 -0.2947  0.4084  0.0495
  929SOL     OW 3768   3.532   2.711   1.546  0.3932 -0.1062 -0.1184
  929SOL    HW2 3769   3.548   2.709   1.640 -1.0422  0.2255  0.1359
  929SOL    HW3 3770   3.465   2.779   1.534 -0.2732 -0.9447 -1.2520
  929SOL    MW4 3771   3.525   2.720   1.557  0.1161 -0.1729 -0.2344
  930SOL     OW 3772   3.777   2.864   1.473  0.3282  0.0306  0.2436
  930SOL    HW2 3773   3.844   2.799   1.492  0.0735 -0.1515  0.5325
  930SOL    HW3 3774   3.695   2.823   1.502 -0.0773 -0.2624 -1.2600
  930SOL    MW4 3775   3.775   2.850   1.480  0.2410 -0.0322  0.0833
  931SOL     OW 3776   3.819   3.124   1.600 -0.0245  0.3960  0.0272
  931SOL    HW2 3777   3.897   3.162   1.558 -1.4855  2.6198 -0.7872
  931SOL    HW3 3778   3.796   3.049   1.546 -0.2743  1.6039 -1.5738
  931SOL    MW4 3779   3.826   3.119   1.588 -0.2503  0.8485 -0.2915
  932SOL     OW 3780   3.575   3.282   1.533  0.4014 -0.0228 -0.1692
  932SOL    HW2 3781   3.662   3.252   1.559  0.7495  0.0033 -1.2903
  932SOL    HW3 3782   3.579   3.287   1.437 -1.4735 -2.0354 -0.4024
  932SOL    MW4 3783   3.587   3.278   1.524  0.2003 -0.2849 -0.3480
  933SOL     OW 3784   3.597   3.543   1.591 -0.0351  0.1446 -0.3478
  933SOL    HW2 3785   3.665   3.572   1.531  0.1882  0.4442  0.0446
  933SOL    HW3 3786   3.586   3.450   1.572  1.4331 -0.2200  0.4947
  933SOL    MW4 3787   3.604   3.534   1.581  0.1881  0.1361 -0.1848
  934SOL     OW 3788   3.804   3.637   1.444 -0.4022  0.0289 -0.0276
  934SOL    HW2 3789   3.881   3.602   1.489  0.4933  0.0935 -1.4790
  934SOL    HW3 3790   3.803   3.730   1.466 -1.0822 -0.3050  1.4134
  934SOL    MW4 3791   3.814   3.645   1.453 -0.3736 -0.0067 -0.0290
  935SOL     OW 3792   3.819   3.890   1.571 -0.0039 -0.0119 -0.2595
  935SOL    HW2 3793   3.904   3.919   1.536  0.0473 -1.2358 -1.1557
  935SOL    HW3 3794   3.755   3.949   1.530  0.3824  0.7123  0.1775
  935SOL    MW4 3795   3.822   3.902   1.561  0.0539 -0.0777 -0.3200
  936SOL     OW 3796   3.579   4.013   1.459  0.1043 -0.4219  0.0629
  936SOL    HW2 3797   3.576   4.101   1.497 -1.3480 -0.9415  1.2066
  936SOL    HW3 3798   3.508   3.965   1.503  2.3686 -2.8622  1.2371
  936SOL    MW4 3799   3.569   4.018   1.470  0.2115 -0.8121  0.3686
  937SOL     OW 3800   3.575   4.250   1.592  0.4762  0.1366 -0.0103
  937SOL    HW2 3801   3.581   4.231   1.685  1.2764  0.6658  0.0534
  937SOL    HW3 3802   3.502   4.312   1.584  2.1613  2.2681  0.6275
  937SOL    MW4 3803   3.566   4.256   1.603  0.8044  0.4873  0.0823
  938SOL     OW 3804   3.781   4.406   1.474 -0.2824 -0.0826  0.9365
  938SOL    HW2 3805   3.712   4.359   1.521 -0.3507  0.5174  1.4457
  938SOL    HW3 3806   3.793   4.486   1.524 -1.0177  1.0145 -0.5895
  938SOL    MW4 3807   3.773   4.410   1.487 -0.3886  0.1411  0.8024
  939SOL     OW 3808   4.252   4.665   1.608 -0.1103  0.2500  0.0263
  939SOL    HW2 3809   4.251   4.649   1.703 -1.0296 -0.6513 -0.1208
  939SOL    HW3 3810   4.254   4.577   1.570  1.5024  0.6196 -0.7898
  939SOL    MW4 3811   4.252   4.651   1.616 -0.0186  0.1798 -0.1009
  940SOL     OW 3812   4.040   0.125   1.500  0.2406 -0.2328 -0.0858
  940SOL    HW2 3813   4.029   0.212   1.539  0.0675 -0.2987  0.0129
  940SOL    HW3 3814   4.122   0.092   1.536  0.8901  0.3586 -1.0018
  940SOL    MW4 3815   4.049   0.132   1.510  0.3028 -0.1635 -0.1936
  941SOL     OW 3816   4.063   0.371   1.630  0.2026  0.4766  0.1788
  941SOL    HW2 3817   4.038   0.383   1.722 -0.8626  1.0682 -0.1843
  941SOL    HW3 3818   3.997   0.418   1.581  0.1525 -0.7569 -0.9563
  941SOL    MW4 3819   4.051   0.379   1.636  0.0553  0.3919 -0.0190
  942SOL     OW 3820   4.285   0.486   1.513  0.4707  0.0433 -0.6091
  942SOL    HW2 3821   4.213   0.433   1.547 -0.0287  1.2426  0.2297
  942SOL    HW3 3822   4.361   0.459   1.565  0.5896 -1.0352 -1.3190
  942SOL    MW4 3823   4.286   0.476   1.524  0.4201  0.0592 -0.5922
  943SOL     OW 3824   4.259   0.751   1.584  0.1990 -0.1834  0.6292
  943SOL    HW2 3825   4.261   0.657   1.566 -0.6064 -0.2337  0.7872
  943SOL    HW3 3826   4.345   0.783   1.555  0.1716 -0.8282 -0.1813
  943SOL    MW4 3827   4.271   0.743   1.578  0.0892 -0.2751  0.5431
  944SOL     OW 3828   4.034   0.875   1.490  0.0899 -0.0605 -0.8590
  944SOL    HW2 3829   4.115   0.831   1.516 -0.3013 -0.4287 -0.2645
  944SOL    HW3 3830   3.965   0.814   1.515 -0.3348 -0.0937 -2.0811
  944SOL    MW4 3831   4.036   0.861   1.496 -0.0172 -0.1135 -0.9418
  945SOL     OW 3832   4.033   1.144   1.604 -0.0184 -0.0147  0.2460
  945SOL    HW2 3833   4.055   1.160   1.696 -0.0556  0.1686  0.2233
  945SOL    HW3 3834   4.034   1.049   1.595 -0.6807 -0.0577  0.5952
  945SOL    MW4 3835   4.036   1.134   1.615 -0.1106  0.0038  0.2890
  946SOL     OW 3836   4.252   1.247   1.484 -0.1285  0.0655 -0.2330
  946SOL    HW2 3837   4.172   1.208   1.519 -0.0604 -0.2492 -0.4268
  946SOL    HW3 3838   4.323   1.198   1.525 -0.0127  0.9952  0.6980
  946SOL    MW4 3839   4.251   1.235   1.494 -0.1040  0.1466 -0.1358
  947SOL     OW 3840   4.236   1.520   1.599  0.1930 -0.9087  0.2535
  947SOL    HW2 3841   4.245   1.429   1.570  0.7580 -0.2799 -1.6762
  947SOL    HW3 3842   4.309   1.566   1.557  0.2170  0.3441  1.6125
  947SOL    MW4 3843   4.247   1.514   1.589  0.2708 -0.6603  0.1783
  948SOL     OW 3844   4.022   1.681   1.510  0.4969  0.0237  0.0029
  948SOL    HW2 3845   4.092   1.621   1.535  0.3982 -0.1466 -0.1229
  948SOL    HW3 3846   3.942   1.637   1.541  0.5164  0.6167  0.9035
  948SOL    MW4 3847   4.020   1.667   1.518  0.4869  0.0794  0.1051
  949SOL     OW 3848   4.059   1.938   1.601  0.4359  0.0121 -0.0413
  949SOL    HW2 3849   4.040   1.851   1.567  1.2889  0.3603 -1.4649
  949SOL    HW3 3850   3.983   1.991   1.575 -0.3255 -0.4153  1.2834
  949SOL    MW4 3851   4.046   1.934   1.593  0.4478  0.0017 -0.0545
  950SOL     OW 3852   4.283   2.091   1.516  0.1095 -0.0580  0.2877
  950SOL    HW2 3853   4.205   2.053   1.556 -0.3198  0.7711  0.2457
  950SOL    HW3 3854   4.265   2.087   1.422 -0.2787  0.9859  0.3187
  950SOL    MW4 3855   4.270   2.085   1.509  0.0019  0.1891  0.2865
  951SOL     OW 3856   4.254   2.344   1.598  0.0252  0.3100 -0.1247
  951SOL    HW2 3857   4.258   2.345   1.693 -0.4567  0.4553 -0.1046
  951SOL    HW3 3858   4.269   2.253   1.574 -0.9126  0.0719  0.1421
  951SOL    MW4 3859   4.256   2.332   1.607 -0.1621  0.2975 -0.0868
  952SOL     OW 3860   4.020   2.433   1.488  0.1067 -0.1736  0.2587
  952SOL    HW2 3861   4.013   2.525   1.514  0.0073 -0.0446 -0.2299
  952SOL    HW3 3862   4.100   2.402   1.531  0.1735  0.1543  0.3724
  952SOL    MW4 3863   4.030   2.441   1.497  0.1025 -0.1132  0.2092
  953SOL     OW 3864   3.993   2.711   1.559  0.3844 -0.4503  0.5461
  953SOL    HW2 3865   4.026   2.700   1.648 -0.3028 -0.3514  0.8170
  953SOL    HW3 3866   4.051   2.776   1.519  0.8748 -0.7155  0.8214
  953SOL    MW4 3867   4.005   2.718   1.565  0.3586 -0.4721  0.6181
  954SOL     OW 3868   4.201   2.856   1.441 -0.4389 -0.9778  0.0647
  954SOL    HW2 3869   4.211   2.946   1.473 -1.6875 -0.8950  0.2433
  954SOL    HW3 3870   4.225   2.860   1.349 -1.4783 -0.2537 -0.1788
  954SOL    MW4 3871   4.206   2.869   1.433 -0.7405 -0.8712  0.0564
  955SOL     OW 3872   4.257   3.106   1.574  0.1533  0.0422 -0.3524
  955SOL    HW2 3873   4.242   3.117   1.668  0.7321 -1.7777 -0.0289
  955SOL    HW3 3874   4.340   3.151   1.558  0.1230  0.2385  0.0300
  955SOL    MW4 3875   4.266   3.113   1.584  0.2255 -0.1721 -0.2593
  956SOL     OW 3876   4.050   3.261   1.454 -0.3466  0.1185 -0.2521
  956SOL    HW2 3877   4.046   3.338   1.510 -0.2110  0.0538 -0.1537
  956SOL    HW3 3878   4.117   3.205   1.494 -0.1886  0.1124 -0.5239
  956SOL    MW4 3879   4.058   3.264   1.466 -0.3080  0.1092 -0.2749
  957SOL     OW 3880   4.032   3.508   1.555 -0.4494  0.1392 -0.0259
  957SOL    HW2 3881   4.034   3.521   1.650 -2.2334  0.7188 -0.0527
  957SOL    HW3 3882   4.116   3.543   1.525  0.3845 -0.5737  1.3942
  957SOL    MW4 3883   4.043   3.514   1.564 -0.5741  0.1214  0.1580
  958SOL     OW 3884   4.269   3.612   1.485  0.1942 -0.0517  0.1811
  958SOL    HW2 3885   4.249   3.697   1.523 -0.7813 -0.8142  1.4422
  958SOL    HW3 3886   4.292   3.630   1.394  0.1995  1.5675  0.4965
  958SOL    MW4 3887   4.269   3.625   1.478  0.0658  0.0615  0.3891
  959SOL     OW 3888   4.269   3.855   1.601  0.2584  0.6436  0.3387
  959SOL    HW2 3889   4.202   3.900   1.549  0.5552 -0.9807 -1.5346
  959SOL    HW3 3890   4.351   3.896   1.575  0.2490  0.8838  0.6908
  959SOL    MW4 3891   4.271   3.866   1.591  0.2961  0.4611  0.1380
  960SOL     OW 3892   4.064   4.007   1.493  0.4828  0.3220 -0.2707
  960SOL    HW2 3893   4.050   4.100   1.509  0.9302  0.3197  0.1764
  960SOL    HW3 3894   4.070   3.999   1.398 -1.6456  0.4338 -0.4384
  960SOL    MW4 3895   4.063   4.018   1.483  0.2613  0.3366 -0.2339
  961SOL     OW 3896   4.000   4.271   1.574  0.2544 -0.1289 -0.2943
  961SOL    HW2 3897   3.996   4.276   1.670  0.9423 -0.9823 -0.2162
  961SOL    HW3 3898   3.928   4.327   1.545 -0.7742 -0.8631  0.7467
  961SOL    MW4 3899   3.990   4.279   1.583  0.2096 -0.3381 -0.1467
  962SOL     OW 3900   4.256   4.398   1.526  0.0020  0.1244 -0.5623
  962SOL    HW2 3901   4.173   4.350   1.530  0.0428  0.1426  0.7124
  962SOL    HW3 3902   4.266   4.420   1.433 -1.3487  0.0094 -0.7508
  962SOL    MW4 3903   4.246   4.394   1.514 -0.1702  0.1116 -0.4189
  963SOL     OW 3904   0.255   4.629   1.899 -0.2810 -0.4873  0.3114
  963SOL    HW2 3905   0.316   4.695   1.932 -0.3854 -0.9040  1.3646
  963SOL    HW3 3906   0.245   4.650   1.806  2.2340 -1.0283 -0.1115
  963SOL    MW4 3907   0.262   4.641   1.891  0.0371 -0.6137  0.3946
  964SOL     OW 3908   0.011   0.053   2.011 -0.0435 -0.0357 -0.0279
  964SOL    HW2 3909   0.024   0.141   1.977 -1.1199  0.0557 -0.2134
  964SOL    HW3 3910   0.088   0.004   1.980 -0.4600  0.3192 -1.6923
  964SOL    MW4 3911   0.023   0.058   2.002 -0.2405  0.0232 -0.2720
  965SOL     OW 3912   0.007   0.301   1.910  0.1611  0.4614 -0.1429
  965SOL    HW2 3913  -0.074   0.345   1.937  0.2118 -0.1320  1.0138
  965SOL    HW3 3914   0.076   0.364   1.933  0.2020 -0.0280  1.1365
  965SOL    MW4 3915   0.005   0.315   1.917  0.1726  0.3185  0.1786
  966SOL     OW 3916   0.188   0.490   1.983  0.0828 -0.0251 -0.2805
  966SOL    HW2 3917   0.276   0.478   1.946  0.3375  1.0696 -0.0696
  966SOL    HW3 3918   0.161   0.576   1.951  0.3003  0.9517  2.0367
  966SOL    MW4 3919   0.196   0.500   1.974  0.1451  0.2482  0.0530
  967SOL     OW 3920   0.158   0.742   1.896 -0.0685 -0.4970  0.1484
  967SOL    HW2 3921   0.237   0.768   1.942  0.7051 -0.8453 -0.9712
  967SOL    HW3 3922   0.184   0.737   1.804 -1.1609 -1.4705 -0.1176
  967SOL    MW4 3923   0.172   0.745   1.890 -0.1106 -0.6714 -0.0345
  968SOL     OW 3924   4.440   0.896   1.958 -0.0946 -0.5974  0.2550
  968SOL    HW2 3925   4.359   0.856   1.925 -0.5800  1.2342 -0.8484
  968SOL    HW3 3926   4.510   0.838   1.929 -0.9117 -1.5469  0.1668
  968SOL    MW4 3927   4.438   0.883   1.950 -0.2661 -0.4811  0.0978
  969SOL     OW 3928   4.467   1.146   1.852  0.0021 -0.1245  0.2648
  969SOL    HW2 3929   4.394   1.191   1.895 -1.4383 -1.2593 -0.9370
  969SOL    HW3 3930   4.456   1.054   1.876 -0.2531 -0.6300 -1.6723
  969SOL    MW4 3931   4.456   1.140   1.860 -0.2217 -0.3409 -0.1493
  970SOL     OW 3932   0.219   1.289   1.961 -0.0011 -0.0677 -0.0381
  970SOL    HW2 3933   0.216   1.382   1.940  0.7953  0.2162  1.0581
  970SOL    HW3 3934   0.139   1.253   1.922 -0.9351  1.2974  0.5645
  970SOL    MW4 3935   0.208   1.297   1.953 -0.0193  0.1498  0.1861
  971SOL     OW 3936   0.186   1.557   1.866  0.3702 -0.1829  0.0842
  971SOL    HW2 3937   0.255   1.618   1.892  1.0379 -0.4919 -0.9494
  971SOL    HW3 3938   0.105   1.602   1.888  0.8921 -0.2263  2.2531
  971SOL    MW4 3939   0.184   1.571   1.872  0.5271 -0.2295  0.2340
  972SOL     OW 3940   4.454   1.693   1.951 -0.1868  0.4822 -0.6407
  972SOL    HW2 3941   4.460   1.696   2.047 -0.1618 -1.5840 -0.5430
  972SOL    HW3 3942   4.369   1.653   1.933  0.0747  0.2735 -1.4580
  972SOL    MW4 3943   4.444   1.688   1.961 -0.1493  0.1820 -0.7358
  973SOL     OW 3944   4.483   1.954   1.872 -0.3982  0.4971  0.1769
  973SOL    HW2 3945   4.423   2.003   1.928  0.3108  0.5170  0.9290
  973SOL    HW3 3946   4.479   1.865   1.905 -0.5486  0.3441 -0.2388
  973SOL    MW4 3947   4.474   1.949   1.883 -0.3242  0.4795  0.2214
  974SOL     OW 3948   0.246   2.077   1.939 -0.5482  0.0482 -0.0924
  974SOL    HW2 3949   0.254   2.159   1.889  0.4128  0.0936  0.1318
  974SOL    HW3 3950   0.162   2.041   1.911 -0.2590  0.3293 -1.3835
  974SOL    MW4 3951   0.236   2.083   1.928 -0.3833  0.0916 -0.2332
  975SOL     OW 3952   0.251   2.338   1.841 -0.4858  0.1923  0.3072
  975SOL    HW2 3953   0.326   2.374   1.888 -0.3795  0.6791 -0.2272
  975SOL    HW3 3954   0.175   2.369   1.890 -0.3515  0.0359  0.6153
  975SOL    MW4 3955   0.251   2.347   1.853 -0.4541  0.2358  0.2775
  976SOL     OW 3956   0.022   2.440   1.960 -0.4344  0.5453  0.3909
  976SOL    HW2 3957  -0.012   2.463   2.047  0.3487  0.5362  0.6953
  976SOL    HW3 3958   0.015   2.522   1.910 -0.1642  0.7494  0.6868
  976SOL    MW4 3959   0.016   2.454   1.965 -0.2954  0.5710  0.4702
  977SOL     OW 3960   4.482   2.680   1.846  0.5586  0.2475  0.2585
  977SOL    HW2 3961   4.415   2.725   1.898 -0.2229  0.4187 -0.8787
  977SOL    HW3 3962   4.462   2.704   1.755  2.4882  0.7328 -0.0578
  977SOL    MW4 3963   4.470   2.689   1.841  0.7100  0.3343  0.0668
  978SOL     OW 3964   0.210   2.800   2.001 -0.0736 -0.2587  0.0805
  978SOL    HW2 3965   0.189   2.888   1.967 -0.0856 -0.6805 -1.0271
  978SOL    HW3 3966   0.137   2.745   1.972  0.7295 -0.9669 -0.6334
  978SOL    MW4 3967   0.198   2.805   1.993  0.0308 -0.4075 -0.1597
  979SOL     OW 3968   0.220   3.059   1.906 -0.1170  0.2803  0.1514
  979SOL    HW2 3969   0.305   3.074   1.949 -0.0795 -0.0548  0.1954
  979SOL    HW3 3970   0.240   3.058   1.813 -0.2311  1.2214  0.1162
  979SOL    MW4 3971   0.234   3.061   1.899 -0.1271  0.3603  0.1527
  980SOL     OW 3972   0.003   3.226   1.952  0.3141  0.5020  0.2764
  980SOL    HW2 3973  -0.085   3.200   1.923 -0.1198  1.4154  0.7424
  980SOL    HW3 3974   0.061   3.159   1.915 -0.7294 -0.9237  1.1653
  980SOL    MW4 3975  -0.001   3.213   1.943  0.1197  0.4342  0.4553
  981SOL     OW 3976   0.020   3.497   1.852  0.3689 -0.1543 -0.0838
  981SOL    HW2 3977   0.091   3.545   1.895 -0.6429  0.9060  0.4064
  981SOL    HW3 3978   0.025   3.409   1.891 -0.5104  0.7724  2.2670
  981SOL    MW4 3979   0.030   3.491   1.863  0.1194  0.1080  0.2910
  982SOL     OW 3980   0.247   3.603   1.967  0.4310  0.1152  0.4510
  982SOL    HW2 3981   0.224   3.596   2.060 -0.6156  0.0625  0.2014
  982SOL    HW3 3982   0.313   3.535   1.954  2.0109  1.4162  1.5758
  982SOL    MW4 3983   0.253   3.593   1.977  0.5014  0.2799  0.5664
  983SOL     OW 3984   0.240   3.870   1.885  0.0906  0.0533  0.2962
  983SOL    HW2 3985   0.316   3.917   1.918  1.1059 -0.6625 -0.9752
  983SOL    HW3 3986   0.251   3.781   1.917 -0.1739 -0.0651  0.0570
  983SOL    MW4 3987   0.251   3.864   1.894  0.1896 -0.0567  0.0969
  984SOL     OW 3988   0.017   4.018   1.981  0.4534  0.1254 -0.0195
  984SOL    HW2 3989   0.039   4.104   1.946  1.2873 -0.1388 -0.1754
  984SOL    HW3 3990   0.098   3.968   1.972  0.3736 -0.2672  1.2971
  984SOL    MW4 3991   0.031   4.023   1.976  0.5529  0.0391  0.1336
  985SOL     OW 3992   4.485   4.260   1.866 -0.2443  0.2020 -0.0148
  985SOL    HW2 3993   4.415   4.315   1.902  0.9012  1.5288  0.2078
  985SOL    HW3 3994   4.566   4.299   1.899  0.5520 -2.6555  1.6078
  985SOL    MW4 3995   4.486   4.272   1.875  0.0119  0.0000  0.2286
  986SOL     OW 3996   0.228   4.365   1.952 -0.0501 -0.6526  0.2132
  986SOL    HW2 3997   0.208   4.362   2.045 -1.1596 -1.0348 -0.0414
  986SOL    HW3 3998   0.242   4.458   1.934  2.2165 -0.7765  1.1850
  986SOL    MW4 3999   0.227   4.377   1.961  0.1026 -0.7195  0.3079
  987SOL     OW 4000   0.667   0.012   1.905  0.3001  0.2013  0.0547
  987SOL    HW2 4001   0.661  -0.077   1.939 -1.9736  0.5795  0.7726
  987SOL    HW3 4002   0.644   0.004   1.812 -0.8258  0.1258  0.3243
  987SOL    MW4 4003   0.663  -0.001   1.897 -0.1484  0.2413  0.1851
  988SOL     OW 4004   0.440   0.133   1.991 -0.3374 -0.1902  0.1346
  988SOL    HW2 4005   0.448   0.224   1.963  0.9323 -0.2612  0.2630
  988SOL    HW3 4006   0.527   0.096   1.978 -0.5179 -1.0409  1.3140
  988SOL    MW4 4007   0.452   0.140   1.985 -0.1937 -0.3118  0.3071
  989SOL     OW 4008   0.441   0.385   1.894 -0.4038  0.1499  0.0732
  989SOL    HW2 4009   0.525   0.428   1.907 -0.0686 -0.3743 -0.3821
  989SOL    HW3 4010   0.427   0.387   1.799 -0.9756  0.3768  0.1606
  989SOL    MW4 4011   0.450   0.391   1.883 -0.4350  0.1107  0.0247
  990SOL     OW 4012   0.677   0.497   1.970  0.1135 -0.1472  0.6530
  990SOL    HW2 4013   0.675   0.487   2.065 -0.9827 -0.8646  0.5567
  990SOL    HW3 4014   0.756   0.449   1.943 -1.1462 -2.4792  0.9306
  990SOL    MW4 4015   0.687   0.489   1.979 -0.1973 -0.5496  0.6769
  991SOL     OW 4016   0.674   0.769   1.905  0.4687  0.2258  0.2890
  991SOL    HW2 4017   0.743   0.815   1.953  0.6645 -0.5923  0.8051
  991SOL    HW3 4018   0.691   0.676   1.923 -0.6981  0.0172  0.3264
  991SOL    MW4 4019   0.686   0.763   1.914  0.3406  0.0904  0.3620
  992SOL     OW 4020   0.403   0.880   1.936  0.3932 -0.0232  0.4189
  992SOL    HW2 4021   0.405   0.971   1.905  0.7846  0.0686  0.7036
  992SOL    HW3 4022   0.492   0.848   1.922  0.0043 -0.6886 -0.6074
  992SOL    MW4 4023   0.415   0.888   1.930  0.3935 -0.0989  0.3211
  993SOL     OW 4024   0.432   1.134   1.856  0.2591  0.3694 -0.4583
  993SOL    HW2 4025   0.362   1.193   1.885  1.1406  1.4451 -0.5101
  993SOL    HW3 4026   0.433   1.142   1.761 -0.7319 -1.0097 -0.6032
  993SOL    MW4 4027   0.423   1.142   1.847  0.2447  0.3293 -0.4842
  994SOL     OW 4028   0.617   1.301   1.963 -0.3808  0.7099 -0.3522
  994SOL    HW2 4029   0.611   1.305   2.059 -1.7250  1.5822 -0.4554
  994SOL    HW3 4030   0.556   1.232   1.939 -0.9750  1.3418 -0.6604
  994SOL    MW4 4031   0.608   1.292   1.972 -0.6365  0.9083 -0.4065
  995SOL     OW 4032   0.653   1.562   1.876 -0.0466  0.2332  0.6519
  995SOL    HW2 4033   0.640   1.471   1.901  0.9425  0.2587  1.2944
  995SOL    HW3 4034   0.626   1.566   1.784  0.9669 -0.9532  0.2902
  995SOL    MW4 4035   0.648   1.551   1.867  0.2177  0.0801  0.6889
  996SOL     OW 4036   0.426   1.696   1.980 -0.1167 -0.1873 -0.1038
  996SOL    HW2 4037   0.422   1.697   2.076 -1.3748 -0.8279 -0.1340
  996SOL    HW3 4038   0.502   1.642   1.959 -0.9355 -1.6097  0.5312
  996SOL    MW4 4039   0.435   1.689   1.990 -0.3907 -0.4594 -0.0241
  997SOL     OW 4040   0.478   1.938   1.860 -0.0096 -0.4353  0.5767
  997SOL    HW2 4041   0.463   1.858   1.909 -0.4203 -0.2930  0.6925
  997SOL    HW3 4042   0.402   1.993   1.881  0.1144 -0.1393  0.2604
  997SOL    MW4 4043   0.466   1.935   1.869 -0.0474 -0.3774  0.5503
  998SOL     OW 4044   0.698   2.057   1.973 -0.0515  0.0573  0.1484
  998SOL    HW2 4045   0.691   2.047   2.068 -0.2523 -0.8049  0.0422
  998SOL    HW3 4046   0.618   2.017   1.939 -0.2923  0.9382 -0.3524
  998SOL    MW4 4047   0.686   2.051   1.981 -0.1097  0.0596  0.0684
  999SOL     OW 4048   0.690   2.326   1.873  0.2458 -0.3922 -0.1059
  999SOL    HW2 4049   0.706   2.237   1.904 -1.7357 -0.3280  1.1877
  999SOL    HW3 4050   0.684   2.318   1.778 -0.1348 -1.6840  0.0183
  999SOL    MW4 4051   0.691   2.313   1.865 -0.0659 -0.5541  0.0809
 1000SOL     OW 4052   0.452   2.450   1.954  0.1142  0.0696 -0.1462
 1000SOL    HW2 4053   0.441   2.436   2.048 -0.1694  1.4141  0.0355
 1000SOL    HW3 4054   0.538   2.413   1.934  0.4670  0.3887  0.7745
 1000SOL    MW4 4055   0.462   2.443   1.964  0.1233  0.2890 -0.0008
 1001SOL     OW 4056   0.440   2.713   1.880  0.4917 -0.0363  0.5124
 1001SOL    HW2 4057   0.439   2.620   1.903 -0.3404 -0.4041 -0.9732
 1001SOL    HW3 4058   0.364   2.750   1.926 -0.0640 -0.3939 -0.1165
 1001SOL    MW4 4059   0.430   2.706   1.889  0.3086 -0.1321  0.2334
 1002SOL     OW 4060   0.688   2.835   1.945 -0.1361  0.0451  0.1142
 1002SOL    HW2 4061   0.692   2.841   2.040  0.0517 -0.7819  0.1613
 1002SOL    HW3 4062   0.605   2.791   1.927  0.3556 -0.8225 -0.0546
 1002SOL    MW4 4063   0.678   2.830   1.955 -0.0464 -0.1786  0.0981
 1003SOL     OW 4064   0.713   3.094   1.867  0.0344  0.5278  0.1454
 1003SOL    HW2 4065   0.704   3.000   1.885  0.3094  0.4266 -0.2556
 1003SOL    HW3 4066   0.695   3.103   1.774 -0.5811  0.9568  0.3020
 1003SOL    MW4 4067   0.709   3.083   1.857 -0.0106  0.5713  0.1132
 1004SOL     OW 4068   0.467   3.185   1.971 -0.0708 -0.3793  0.2507
 1004SOL    HW2 4069   0.457   3.276   1.945 -0.3084 -1.0632 -2.2072
 1004SOL    HW3 4070   0.557   3.162   1.947 -0.0908 -0.8616  0.6197
 1004SOL    MW4 4071   0.477   3.194   1.964 -0.1048 -0.5333 -0.0249
 1005SOL     OW 4072   0.455   3.450   1.906  0.2066 -0.6124 -0.1783
 1005SOL    HW2 4073   0.518   3.516   1.936 -1.7226  1.7882 -1.3012
 1005SOL    HW3 4074   0.470   3.444   1.812 -1.0372 -0.2542 -0.4017
 1005SOL    MW4 4075   0.465   3.458   1.898 -0.2120 -0.2484 -0.3558
 1006SOL     OW 4076   0.678   3.614   2.003  0.2278 -0.0777  0.1521
 1006SOL    HW2 4077   0.748   3.569   1.956  0.6271  1.0229 -0.3338
 1006SOL    HW3 4078   0.686   3.705   1.975 -0.7832  0.2297  0.8502
 1006SOL    MW4 4079   0.688   3.620   1.993  0.1471  0.1078  0.1801
 1007SOL     OW 4080   0.677   3.868   1.904 -0.1242  0.0783 -0.3066
 1007SOL    HW2 4081   0.764   3.907   1.902 -0.8647  1.8480  1.1436
 1007SOL    HW3 4082   0.656   3.854   1.811  1.4761  0.1011 -0.7003
 1007SOL    MW4 4083   0.686   3.871   1.891 -0.0108  0.3150 -0.1673
 1008SOL     OW 4084   0.455   3.991   2.001 -0.1140 -0.3825 -0.0447
 1008SOL    HW2 4085   0.452   4.084   1.978 -0.0382 -0.2617  0.4255
 1008SOL    HW3 4086   0.537   3.959   1.964 -0.3661 -0.3680 -0.6095
 1008SOL    MW4 4087   0.465   3.999   1.993 -0.1373 -0.3643 -0.0571
 1009SOL     OW 4088   0.458   4.249   1.888  0.1660 -0.1989 -0.5238
 1009SOL    HW2 4089   0.382   4.299   1.918  0.8218 -0.0637  0.9661
 1009SOL    HW3 4090   0.451   4.249   1.793 -1.1487  0.6843 -0.4354
 1009SOL    MW4 4091   0.447   4.256   1.880  0.0791 -0.0644 -0.3155
 1010SOL     OW 4092   0.682   4.397   1.959 -0.7956 -0.0343  0.3697
 1010SOL    HW2 4093   0.758   4.358   1.916 -0.6235  0.2793  0.3919
 1010SOL    HW3 4094   0.607   4.350   1.922 -0.5045 -1.3311  1.3836
 1010SOL    MW4 4095   0.682   4.385   1.949 -0.7344 -0.1640  0.5065
 1011SOL     OW 4096   1.137   4.644   1.848 -0.5844  0.1077 -0.6500
 1011SOL    HW2 4097   1.216   4.680   1.887 -0.4291  0.2981 -1.1288
 1011SOL    HW3 4098   1.144   4.550   1.862 -0.0286  0.0701 -1.1125
 1011SOL    MW4 4099   1.148   4.637   1.855 -0.4907  0.1278 -0.7741
 1012SOL     OW 4100   0.922   0.105   1.969  0.0223 -0.0449  0.0897
 1012SOL    HW2 4101   0.994   0.060   1.924 -0.3294 -0.5832  0.0558
 1012SOL    HW3 4102   0.842   0.067   1.931 -0.2820  0.7330 -0.0631
 1012SOL    MW4 4103   0.921   0.094   1.958 -0.0643 -0.0133  0.0650
 1013SOL     OW 4104   0.927   0.371   1.880  0.0649 -0.2086 -0.3731
 1013SOL    HW2 4105   0.987   0.426   1.931  0.4491 -0.8757 -0.0939
 1013SOL    HW3 4106   0.933   0.285   1.922 -1.4604 -0.1558 -0.0444
 1013SOL    MW4 4107   0.936   0.367   1.892 -0.0857 -0.2896 -0.2929
 1014SOL     OW 4108   1.120   0.523   1.996  0.0482 -0.2372  0.0972
 1014SOL    HW2 4109   1.206   0.494   1.964 -0.4840 -0.4468 -1.1779
 1014SOL    HW3 4110   1.117   0.616   1.974 -0.3120 -0.3792 -0.4807
 1014SOL    MW4 4111   1.131   0.532   1.989 -0.0695 -0.2835 -0.1475
 1015SOL     OW 4112   1.095   0.783   1.908 -0.4315  0.0413 -0.2023
 1015SOL    HW2 4113   1.173   0.823   1.946  0.1359 -1.7113  0.4884
 1015SOL    HW3 4114   1.023   0.816   1.962  0.2552 -1.4836  1.6791
 1015SOL    MW4 4115   1.096   0.793   1.920 -0.2661 -0.3911  0.1371
 1016SOL     OW 4116   0.883   0.890   2.043  0.4615 -0.3273 -0.5077
 1016SOL    HW2 4117   0.887   0.890   2.138 -1.4736 -0.4743 -0.4247
 1016SOL    HW3 4118   0.858   0.979   2.019 -1.7313 -0.9995 -0.7531
 1016SOL    MW4 4119   0.880   0.902   2.052 -0.0831 -0.4354 -0.5291
 1017SOL     OW 4120   0.849   1.140   1.917 -1.1288 -0.3004 -0.3104
 1017SOL    HW2 4121   0.770   1.191   1.930 -0.9119 -0.1614  0.4592
 1017SOL    HW3 4122   0.865   1.145   1.822 -0.1371  2.5271 -0.0579
 1017SOL    MW4 4123   0.841   1.148   1.906 -0.9694  0.0912 -0.1755
 1018SOL     OW 4124   1.109   1.249   1.978 -0.0940 -0.3815  0.1510
 1018SOL    HW2 4125   1.125   1.340   1.953 -0.4015 -0.7758 -1.5341
 1018SOL    HW3 4126   1.018   1.234   1.954  0.1275 -1.2948 -0.1171
 1018SOL    MW4 4127   1.099   1.259   1.971 -0.1053 -0.5540 -0.1068
 1019SOL     OW 4128   1.134   1.512   1.918  0.0130  0.2201 -0.0888
 1019SOL    HW2 4129   1.057   1.566   1.934 -0.4988 -0.4674 -0.1890
 1019SOL    HW3 4130   1.154   1.525   1.825 -0.1259  0.2141 -0.1185
 1019SOL    MW4 4131   1.127   1.521   1.908 -0.0730  0.1285 -0.1060
 1020SOL     OW 4132   0.883   1.686   1.985  0.2473 -0.0511  0.1147
 1020SOL    HW2 4133   0.908   1.768   1.941  0.1262  0.6080  1.2669
 1020SOL    HW3 4134   0.807   1.655   1.935  1.3076 -0.3324 -1.3458
 1020SOL    MW4 4135   0.876   1.693   1.972  0.3712 -0.0011  0.0741
 1021SOL     OW 4136   0.903   1.938   1.849  0.6415  0.2221 -0.4389
 1021SOL    HW2 4137   0.820   1.980   1.870  0.3356  0.5474 -2.2424
 1021SOL    HW3 4138   0.905   1.935   1.754  2.1582 -0.8746 -0.3867
 1021SOL    MW4 4139   0.893   1.943   1.840  0.8013  0.1204 -0.6701
 1022SOL     OW 4140   1.108   2.074   1.998  0.4495 -0.2607  0.0779
 1022SOL    HW2 4141   1.120   2.164   1.966  0.8158 -0.5656 -0.6663
 1022SOL    HW3 4142   1.032   2.041   1.950  1.1764 -0.8177 -0.7158
 1022SOL    MW4 4143   1.100   2.082   1.988  0.5938 -0.3743 -0.1249
 1023SOL     OW 4144   1.139   2.326   1.908 -0.3300  0.4976 -0.0053
 1023SOL    HW2 4145   1.215   2.368   1.948 -0.0201  0.4160 -0.4889
 1023SOL    HW3 4146   1.163   2.318   1.815 -0.4468 -0.6068  0.0571
 1023SOL    MW4 4147   1.152   2.331   1.901 -0.3046  0.3409 -0.0609
 1024SOL     OW 4148   0.916   2.483   1.966  0.2596  0.2720  0.0232
 1024SOL    HW2 4149   0.983   2.421   1.938  0.0302 -0.0679  0.2207
 1024SOL    HW3 4150   0.835   2.448   1.928 -0.2943 -0.9947  2.3071
 1024SOL    MW4 4151   0.914   2.470   1.957  0.1562  0.0598  0.3507
 1025SOL     OW 4152   0.921   2.732   1.850 -0.4255 -0.1441  0.2124
 1025SOL    HW2 4153   0.934   2.651   1.899  0.0089  0.9906  2.0245
 1025SOL    HW3 4154   0.837   2.766   1.881  0.2353  0.9993  0.7997
 1025SOL    MW4 4155   0.911   2.726   1.861 -0.2810  0.1564  0.5288
 1026SOL     OW 4156   1.148   2.871   1.960 -0.1082 -0.4584  0.1556
 1026SOL    HW2 4157   1.152   2.865   2.055  0.0212 -0.4300  0.1519
 1026SOL    HW3 4158   1.075   2.813   1.935  0.4475 -1.1756  0.2022
 1026SOL    MW4 4159   1.139   2.862   1.969 -0.0179 -0.5493  0.1612
 1027SOL     OW 4160   1.130   3.125   1.875 -0.0367  0.0568 -0.0953
 1027SOL    HW2 4161   1.050   3.165   1.910 -0.0543 -0.1077  0.0506
 1027SOL    HW3 4162   1.130   3.036   1.910  1.4200  0.7905  1.8569
 1027SOL    MW4 4163   1.119   3.119   1.884  0.1531  0.1318  0.1814
 1028SOL     OW 4164   0.912   3.256   1.965 -0.0100  0.1047  0.0136
 1028SOL    HW2 4165   0.902   3.240   2.059  0.0566  0.7826  0.1361
 1028SOL    HW3 4166   0.842   3.204   1.924 -0.5083  0.4041  0.4851
 1028SOL    MW4 4167   0.901   3.247   1.972 -0.0670  0.2334  0.0921
 1029SOL     OW 4168   0.897   3.515   1.860 -0.5291 -0.0552 -0.3541
 1029SOL    HW2 4169   0.896   3.422   1.886  1.2237 -0.5331 -1.8784
 1029SOL    HW3 4170   0.891   3.513   1.764  0.9332  1.3419 -0.4913
 1029SOL    MW4 4171   0.896   3.502   1.851 -0.1050  0.0660 -0.5734
 1030SOL     OW 4172   1.145   3.607   1.962 -0.4558  0.0515  0.4539
 1030SOL    HW2 4173   1.143   3.618   2.058  0.0487 -2.0898  0.7446
 1030SOL    HW3 4174   1.056   3.578   1.940 -0.7351  1.0880  0.1800
 1030SOL    MW4 4175   1.133   3.605   1.972 -0.4259 -0.0944  0.4562
 1031SOL     OW 4176   1.132   3.883   1.877  0.0100 -0.4306  0.4405
 1031SOL    HW2 4177   1.139   3.794   1.911  1.3322 -1.0605 -1.4175
 1031SOL    HW3 4178   1.115   3.873   1.784 -1.5176  1.2849  0.4967
 1031SOL    MW4 4179   1.131   3.870   1.870 -0.0172 -0.2873  0.2028
 1032SOL     OW 4180   0.903   3.996   1.987 -0.9282 -0.0005  0.0385
 1032SOL    HW2 4181   0.907   4.001   2.083 -0.2611  0.7261 -0.0207
 1032SOL    HW3 4182   0.985   3.953   1.962 -1.2092 -0.4041 -0.1972
 1032SOL    MW4 4183   0.915   3.991   1.996 -0.8773  0.0422 -0.0004
 1033SOL     OW 4184   0.893   4.247   1.846 -0.0051 -0.1194 -0.0556
 1033SOL    HW2 4185   0.980   4.273   1.876 -0.2243 -0.4883  0.9005
 1033SOL    HW3 4186   0.872   4.169   1.898 -1.6254  0.9720  0.9593
 1033SOL    MW4 4187   0.902   4.240   1.857 -0.2477 -0.0238  0.2044
 1034SOL     OW 4188   1.145   4.372   1.923 -0.1439  0.0324 -0.0553
 1034SOL    HW2 4189   1.123   4.375   2.016  0.0867  1.6595 -0.0494
 1034SOL    HW3 4190   1.229   4.326   1.920 -0.1657 -0.0502  0.5296
 1034SOL    MW4 4191   1.153   4.366   1.935 -0.1163  0.2360  0.0226
 1035SOL     OW 4192   1.590   0.010   1.901 -0.2345 -0.4718  0.5673
 1035SOL    HW2 4193   1.659   0.064   1.938 -1.4125 -0.8025  3.3505
 1035SOL    HW3 4194   1.603  -0.077   1.940 -1.7687 -0.7136  0.5983
 1035SOL    MW4 4195   1.601   0.006   1.911 -0.5924 -0.5473  0.9385
 1036SOL     OW 4196   1.348   0.119   1.963 -0.0424  0.0106  0.1935
 1036SOL    HW2 4197   1.357   0.130   2.058  1.2432 -0.1951  0.0985
 1036SOL    HW3 4198   1.432   0.086   1.935 -0.3968  0.1553 -1.0435
 1036SOL    MW4 4199   1.360   0.116   1.972  0.0805  0.0026  0.0178
 1037SOL     OW 4200   1.356   0.413   1.908 -0.0109  0.0299 -0.0850
 1037SOL    HW2 4201   1.357   0.321   1.935  1.8824 -0.0598 -0.3793
 1037SOL    HW3 4202   1.333   0.410   1.815 -1.8440  0.0082  0.3491
 1037SOL    MW4 4203   1.353   0.400   1.899 -0.0029  0.0151 -0.0666
 1038SOL     OW 4204   1.600   0.515   1.971 -0.2067  0.5707  0.2386
 1038SOL    HW2 4205   1.669   0.466   1.926 -0.8944  1.1415 -1.4678
 1038SOL    HW3 4206   1.519   0.471   1.946 -0.6219  1.0581  0.7140
 1038SOL    MW4 4207   1.599   0.503   1.962 -0.3523  0.7104  0.0762
 1039SOL     OW 4208   1.584   0.768   1.858  0.2220  0.3102  0.3816
 1039SOL    HW2 4209   1.654   0.804   1.913  0.6717 -1.1754  0.8156
 1039SOL    HW3 4210   1.579   0.676   1.884  0.0121 -0.2666 -1.6261
 1039SOL    MW4 4211   1.593   0.761   1.869  0.2537  0.0381  0.1740
 1040SOL     OW 4212   1.338   0.873   1.987  0.3468 -0.3792 -0.0953
 1040SOL    HW2 4213   1.346   0.856   2.081 -0.9654 -1.5171 -0.1758
 1040SOL    HW3 4214   1.415   0.831   1.949  0.6110 -0.3677  0.4179
 1040SOL    MW4 4215   1.350   0.865   1.995  0.2086 -0.5278 -0.0381
 1041SOL     OW 4216   1.331   1.124   1.874 -0.3087  0.4916 -0.0929
 1041SOL    HW2 4217   1.335   1.037   1.915  0.5718 -0.1852 -1.5757
 1041SOL    HW3 4218   1.260   1.169   1.920 -0.6247 -0.9312  0.8506
 1041SOL    MW4 4219   1.322   1.118   1.886 -0.2342  0.2147 -0.1639
 1042SOL     OW 4220   1.548   1.262   1.984 -0.7262  0.2448 -0.9247
 1042SOL    HW2 4221   1.549   1.354   1.959 -0.4061 -0.0450 -1.9985
 1042SOL    HW3 4222   1.467   1.228   1.946 -0.5455 -0.0508 -1.0478
 1042SOL    MW4 4223   1.537   1.270   1.976 -0.6601  0.1676 -1.0827
 1043SOL     OW 4224   1.562   1.528   1.936 -0.3592  0.1807 -0.1206
 1043SOL    HW2 4225   1.643   1.565   1.971 -0.6508 -0.5427  1.3077
 1043SOL    HW3 4226   1.493   1.586   1.969 -0.6628 -0.6759  0.7333
 1043SOL    MW4 4227   1.563   1.541   1.945 -0.4376 -0.0277  0.1806
 1044SOL     OW 4228   1.345   1.678   2.023 -0.1177 -0.1116 -0.6402
 1044SOL    HW2 4229   1.328   1.681   2.117 -0.3673 -1.0956 -0.6441
 1044SOL    HW3 4230   1.276   1.621   1.988 -0.0551  0.2848 -1.4263
 1044SOL    MW4 4231   1.334   1.671   2.031 -0.1425 -0.1891 -0.7443
 1045SOL     OW 4232   1.334   1.923   1.915 -0.0517  0.5428  0.1950
 1045SOL    HW2 4233   1.331   1.839   1.962  1.4073 -0.2733 -1.1185
 1045SOL    HW3 4234   1.252   1.966   1.939  0.3029 -0.1629  2.8666
 1045SOL    MW4 4235   1.323   1.917   1.924  0.1876  0.3421  0.3742
 1046SOL     OW 4236   1.561   2.065   2.032  0.5864  0.0432  0.2367
 1046SOL    HW2 4237   1.552   2.148   1.985 -1.4161 -0.2737 -0.0187
 1046SOL    HW3 4238   1.482   2.016   2.008  0.8780 -1.2245  1.7699
 1046SOL    MW4 4239   1.549   2.069   2.023  0.3606 -0.1659  0.4051
 1047SOL     OW 4240   1.547   2.323   1.899  0.4228  0.0836 -0.1901
 1047SOL    HW2 4241   1.622   2.378   1.921  1.0436 -0.9647  0.3524
 1047SOL    HW3 4242   1.547   2.319   1.803  3.1548 -2.7188 -0.1340
 1047SOL    MW4 4243   1.557   2.330   1.889  0.8651 -0.4241 -0.1111
 1048SOL     OW 4244   1.348   2.471   2.038  0.4183 -0.2091  0.0180
 1048SOL    HW2 4245   1.327   2.548   1.985 -0.9063 -0.0964  0.6906
 1048SOL    HW3 4246   1.416   2.425   1.988 -0.3141  0.2514 -1.4307
 1048SOL    MW4 4247   1.355   2.475   2.025  0.1470 -0.1335 -0.0844
 1049SOL     OW 4248   1.347   2.702   1.874 -0.3234 -0.7348 -0.1475
 1049SOL    HW2 4249   1.272   2.748   1.910 -0.1531 -0.1970 -0.4726
 1049SOL    HW3 4250   1.340   2.715   1.779  1.5739  1.4925 -0.0254
 1049SOL    MW4 4251   1.336   2.710   1.866 -0.0507 -0.3698 -0.1743
 1050SOL     OW 4252   1.575   2.869   1.973 -0.2952  0.6179  0.1170
 1050SOL    HW2 4253   1.654   2.823   1.942 -0.9105 -0.4784  0.1607
 1050SOL    HW3 4254   1.503   2.825   1.928 -0.9962  0.6915  1.1601
 1050SOL    MW4 4255   1.576   2.857   1.963 -0.4690  0.4830  0.2604
 1051SOL     OW 4256   1.584   3.140   1.889 -0.2750  0.0656 -0.0710
 1051SOL    HW2 4257   1.595   3.048   1.914 -1.2368 -0.0793 -0.1857
 1051SOL    HW3 4258   1.561   3.137   1.797 -1.9261  0.3313  0.3259
 1051SOL    MW4 4259   1.583   3.127   1.880 -0.6195  0.0815 -0.0339
 1052SOL     OW 4260   1.359   3.246   2.007  0.5464  0.5391  0.1942
 1052SOL    HW2 4261   1.432   3.209   1.958  0.6299  0.2186  0.5578
 1052SOL    HW3 4262   1.281   3.211   1.963  0.6232  0.0538  0.4422
 1052SOL    MW4 4263   1.358   3.236   1.995  0.5674  0.4330  0.2748
 1053SOL     OW 4264   1.377   3.478   1.873  0.4634  0.2823  0.0728
 1053SOL    HW2 4265   1.368   3.396   1.923 -0.1652  0.5267  0.3715
 1053SOL    HW3 4266   1.303   3.531   1.902  0.5725  0.7519 -0.5117
 1053SOL    MW4 4267   1.366   3.474   1.883  0.3949  0.3765  0.0352
 1054SOL     OW 4268   1.619   3.591   1.989 -0.5073  0.2514  0.5666
 1054SOL    HW2 4269   1.599   3.607   2.082 -1.0654  1.8130  0.1939
 1054SOL    HW3 4270   1.549   3.534   1.959 -0.0180 -0.7285  1.2324
 1054SOL    MW4 4271   1.607   3.586   1.998 -0.5164  0.3285  0.6052
 1055SOL     OW 4272   1.599   3.837   1.836  0.1599 -0.3493 -0.2810
 1055SOL    HW2 4273   1.661   3.883   1.892 -0.7202 -0.0277  0.4350
 1055SOL    HW3 4274   1.588   3.752   1.877  0.2168 -0.4531 -0.4779
 1055SOL    MW4 4275   1.606   3.832   1.848  0.0511 -0.3204 -0.2127
 1056SOL     OW 4276   1.380   3.974   1.944 -0.1118 -0.1588 -0.0420
 1056SOL    HW2 4277   1.453   3.929   1.902  0.0061 -0.0085 -0.0009
 1056SOL    HW3 4278   1.304   3.951   1.892  0.0665  0.1914 -0.4624
 1056SOL    MW4 4279   1.380   3.965   1.932 -0.0726 -0.0932 -0.0920
 1057SOL     OW 4280   1.385   4.238   1.873  0.0794 -0.0152  0.0527
 1057SOL    HW2 4281   1.373   4.148   1.903 -1.4565  0.1835  0.0750
 1057SOL    HW3 4282   1.369   4.234   1.778 -0.8343  0.3622  0.1805
 1057SOL    MW4 4283   1.381   4.225   1.864 -0.2438  0.0610  0.0726
 1058SOL     OW 4284   1.593   4.391   1.981 -0.1485 -0.2502 -0.2688
 1058SOL    HW2 4285   1.584   4.384   2.076  0.3658  0.1536 -0.1869
 1058SOL    HW3 4286   1.524   4.334   1.946 -0.0722 -0.7278  0.3471
 1058SOL    MW4 4287   1.583   4.382   1.989 -0.0706 -0.2594 -0.1768
 1059SOL     OW 4288   2.020   4.661   1.887  0.0210 -0.2990  0.7919
 1059SOL    HW2 4289   2.105   4.686   1.924  1.1138 -1.1787 -1.0214
 1059SOL    HW3 4290   2.011   4.568   1.908 -0.7285 -0.0798  1.4285
 1059SOL    MW4 4291   2.030   4.652   1.894  0.0660 -0.3862  0.6366
 1060SOL     OW 4292   1.803   0.142   1.985 -0.0362 -0.1651 -0.4404
 1060SOL    HW2 4293   1.827   0.161   2.076  0.2757 -0.8123 -0.3862
 1060SOL    HW3 4294   1.874   0.086   1.952 -0.2697 -0.1351 -1.0078
 1060SOL    MW4 4295   1.816   0.137   1.993 -0.0259 -0.2465 -0.5082
 1061SOL     OW 4296   1.821   0.410   1.849 -0.6498  0.2566 -0.1245
 1061SOL    HW2 4297   1.812   0.321   1.884 -1.7972  1.0221  1.5979
 1061SOL    HW3 4298   1.828   0.398   1.754 -2.2387 -1.5886 -0.0457
 1061SOL    MW4 4299   1.820   0.397   1.841 -1.0110  0.1142  0.1132
 1062SOL     OW 4300   2.053   0.522   1.951  0.0021  0.6086 -0.0562
 1062SOL    HW2 4301   2.044   0.610   1.916 -2.3127  0.8949  1.2366
 1062SOL    HW3 4302   1.979   0.474   1.914  0.8158 -0.6120 -0.1326
 1062SOL    MW4 4303   2.042   0.527   1.941 -0.1960  0.4854  0.1043
 1063SOL     OW 4304   2.023   0.779   1.858  0.4538 -0.0263  0.2227
 1063SOL    HW2 4305   2.094   0.829   1.897  0.4434  0.6904 -0.6597
 1063SOL    HW3 4306   2.036   0.788   1.764  0.0161 -1.0704  0.0538
 1063SOL    MW4 4307   2.034   0.787   1.851  0.3948 -0.0696  0.0840
 1064SOL     OW 4308   1.794   0.896   1.991 -0.3624  0.1152  0.3232
 1064SOL    HW2 4309   1.813   0.986   1.964 -0.7399 -0.0958 -0.6892
 1064SOL    HW3 4310   1.870   0.846   1.961  0.1571  0.1946  1.4802
 1064SOL    MW4 4311   1.806   0.901   1.983 -0.3437  0.0978  0.3422
 1065SOL     OW 4312   1.800   1.183   1.921  0.5941  0.2992 -0.0522
 1065SOL    HW2 4313   1.712   1.218   1.933  1.0351  1.2715  0.3880
 1065SOL    HW3 4314   1.812   1.180   1.826 -0.2670 -0.7560 -0.1418
 1065SOL    MW4 4315   1.790   1.187   1.910  0.5387  0.2881 -0.0058
 1066SOL     OW 4316   2.036   1.324   1.974  0.1534 -0.0627  0.2036
 1066SOL    HW2 4317   2.102   1.264   1.939 -0.6761  0.3374 -2.1296
 1066SOL    HW3 4318   1.954   1.275   1.967 -0.3589  0.9037 -0.6498
 1066SOL    MW4 4319   2.034   1.310   1.969 -0.0238  0.1175 -0.2170
 1067SOL     OW 4320   2.051   1.578   1.896 -0.0108  0.2561  0.1466
 1067SOL    HW2 4321   2.043   1.487   1.924 -0.5201  0.3068  0.1735
 1067SOL    HW3 4322   2.037   1.575   1.801 -0.9467  0.4197  0.2741
 1067SOL    MW4 4323   2.048   1.566   1.887 -0.2017  0.2844  0.1670
 1068SOL     OW 4324   1.797   1.640   2.007  0.1294  0.6503  0.0771
 1068SOL    HW2 4325   1.781   1.732   1.984  0.7427  0.4195 -1.3084
 1068SOL    HW3 4326   1.887   1.624   1.979  0.1215 -0.2920  0.5919
 1068SOL    MW4 4327   1.807   1.650   2.000  0.2095  0.4956 -0.0379
 1069SOL     OW 4328   1.784   1.920   1.939  0.0252 -0.5095 -0.1875
 1069SOL    HW2 4329   1.706   1.967   1.966  0.1803 -0.4968  0.2407
 1069SOL    HW3 4330   1.778   1.917   1.844 -0.9240 -1.2460 -0.1116
 1069SOL    MW4 4331   1.773   1.926   1.930 -0.0795 -0.6050 -0.1210
 1070SOL     OW 4332   2.026   2.071   1.957  0.3611 -0.1361  0.2941
 1070SOL    HW2 4333   2.103   2.020   1.931  0.9731 -0.0950  1.9631
 1070SOL    HW3 4334   1.952   2.013   1.939  0.8766 -0.6599 -0.1671
 1070SOL    MW4 4335   2.027   2.057   1.952  0.5100 -0.1998  0.4535
 1071SOL     OW 4336   2.048   2.317   1.871 -0.1280  0.1715 -0.0997
 1071SOL    HW2 4337   2.120   2.363   1.914 -1.3650  1.6132  0.4262
 1071SOL    HW3 4338   2.054   2.228   1.905 -0.4904  1.0373  2.3179
 1071SOL    MW4 4339   2.059   2.311   1.881 -0.3386  0.4759  0.2886
 1072SOL     OW 4340   1.805   2.430   1.962  0.4866 -0.1571  0.1070
 1072SOL    HW2 4341   1.801   2.409   2.056  1.5902  0.0768  0.2122
 1072SOL    HW3 4342   1.882   2.383   1.931 -0.7788 -1.5299 -1.0275
 1072SOL    MW4 4343   1.814   2.421   1.971  0.4652 -0.3076 -0.0288
 1073SOL     OW 4344   1.794   2.705   1.900  0.2031 -0.0094 -0.5188
 1073SOL    HW2 4345   1.790   2.614   1.931 -2.5828  0.0722 -0.5816
 1073SOL    HW3 4346   1.775   2.700   1.806  1.1078  0.5594 -0.7484
 1073SOL    MW4 4347   1.791   2.692   1.892 -0.0451  0.0763 -0.5574
 1074SOL     OW 4348   1.998   2.849   1.992 -0.0397  0.2937 -0.0530
 1074SOL    HW2 4349   2.003   2.850   2.087 -0.9118  0.1531 -0.0028
 1074SOL    HW3 4350   1.930   2.785   1.972  0.1865  0.2734 -0.7743
 1074SOL    MW4 4351   1.989   2.841   2.002 -0.1249  0.2725 -0.1416
 1075SOL     OW 4352   2.028   3.097   1.862 -0.0058 -0.1113  0.0038
 1075SOL    HW2 4353   1.948   3.142   1.888 -1.0785 -1.4262 -0.9096
 1075SOL    HW3 4354   2.019   3.009   1.899  0.1100 -0.8626 -1.6929
 1075SOL    MW4 4355   2.016   3.091   1.870 -0.1321 -0.3841 -0.3407
 1076SOL     OW 4356   1.822   3.253   1.974  0.0043 -0.6374  0.0648
 1076SOL    HW2 4357   1.820   3.237   2.068  1.2052  1.2284  0.4352
 1076SOL    HW3 4358   1.736   3.226   1.943 -0.4008 -1.2643  1.6901
 1076SOL    MW4 4359   1.811   3.248   1.982  0.1092 -0.4740  0.3281
 1077SOL     OW 4360   1.853   3.504   1.886 -0.0169  0.1049  0.3902
 1077SOL    HW2 4361   1.852   3.411   1.908  0.1250  0.5364  2.2523
 1077SOL    HW3 4362   1.767   3.536   1.912  0.0810  0.5944  0.1163
 1077SOL    MW4 4363   1.842   3.496   1.892  0.0147  0.2260  0.5997
 1078SOL     OW 4364   2.052   3.631   2.031 -0.2432 -0.2462  0.0183
 1078SOL    HW2 4365   2.072   3.711   1.982  1.9348 -0.0926  1.0779
 1078SOL    HW3 4366   1.971   3.599   1.992  0.0010  1.3056 -1.8916
 1078SOL    MW4 4367   2.044   3.637   2.019  0.0765 -0.0210 -0.0939
 1079SOL     OW 4368   2.059   3.853   1.877  0.0373 -0.0930  0.2649
 1079SOL    HW2 4369   2.140   3.893   1.910 -0.6313  0.2912  1.4680
 1079SOL    HW3 4370   2.053   3.882   1.786 -0.3684  2.4892  1.0665
 1079SOL    MW4 4371   2.069   3.862   1.869 -0.1042  0.2985  0.5294
 1080SOL     OW 4372   1.812   3.947   1.988 -0.1525  0.2315  0.2916
 1080SOL    HW2 4373   1.813   4.032   1.945 -1.1614  0.1777  0.1383
 1080SOL    HW3 4374   1.886   3.899   1.950  0.3553  0.9999  0.3080
 1080SOL    MW4 4375   1.822   3.952   1.978 -0.2187  0.3259  0.2736
 1081SOL     OW 4376   1.817   4.240   1.883  0.3165 -0.5110 -0.2720
 1081SOL    HW2 4377   1.747   4.294   1.921  0.7882  0.5082 -0.8302
 1081SOL    HW3 4378   1.808   4.252   1.789  2.0106  0.6261 -0.3121
 1081SOL    MW4 4379   1.807   4.249   1.876  0.6022 -0.2260 -0.3510
 1082SOL     OW 4380   2.028   4.382   1.969 -0.7246  0.2302 -0.1738
 1082SOL    HW2 4381   2.107   4.336   1.942  0.4348  0.0668  3.2274
 1082SOL    HW3 4382   1.957   4.321   1.950  0.3480 -1.1204  0.1051
 1082SOL    MW4 4383   2.029   4.368   1.963 -0.4301  0.0300  0.3119
 1083SOL     OW 4384   2.463   4.634   1.849  0.1544  0.2047  0.6908
 1083SOL    HW2 4385   2.526   4.680   1.904  2.1032  0.2950 -1.5290
 1083SOL    HW3 4386   2.468   4.543   1.877  2.2777 -0.0214 -0.3375
 1083SOL    MW4 4387   2.472   4.628   1.860  0.6919  0.1864  0.2623
 1084SOL     OW 4388   2.260   0.129   1.950  0.1280  0.0917 -0.3804
 1084SOL    HW2 4389   2.274   0.122   2.045 -0.5619 -0.4342 -0.3178
 1084SOL    HW3 4390   2.332   0.079   1.912 -0.1373 -0.5027 -0.1107
 1084SOL    MW4 4391   2.272   0.122   1.958  0.0019 -0.0561 -0.3368
 1085SOL     OW 4392   2.281   0.398   1.861 -0.1987  0.0947  0.3588
 1085SOL    HW2 4393   2.270   0.308   1.891  0.1072  0.0213  0.2558
 1085SOL    HW3 4394   2.198   0.441   1.882  0.0431  0.0678  1.3717
 1085SOL    MW4 4395   2.269   0.392   1.868 -0.1264  0.0815  0.4787
 1086SOL     OW 4396   2.516   0.517   1.986 -0.3209  0.0228  0.3487
 1086SOL    HW2 4397   2.591   0.465   1.957  0.4951  1.1199  0.4598
 1086SOL    HW3 4398   2.440   0.475   1.946  0.4969 -0.2741 -0.8998
 1086SOL    MW4 4399   2.516   0.505   1.977 -0.1051  0.1284  0.1987
 1087SOL     OW 4400   2.481   0.762   1.865 -0.1578  0.4167  0.3458
 1087SOL    HW2 4401   2.494   0.679   1.911  0.7936 -0.1248 -0.8623
 1087SOL    HW3 4402   2.460   0.736   1.776 -0.7338  1.4748  0.1723
 1087SOL    MW4 4403   2.480   0.747   1.860 -0.1082  0.4848  0.1634
 1088SOL     OW 4404   2.265   0.921   1.984 -0.0640  0.2549  0.2663
 1088SOL    HW2 4405   2.265   0.879   2.070 -0.4930 -1.6699 -0.6455
 1088SOL    HW3 4406   2.333   0.876   1.935  0.3314  1.4987 -0.3480
 1088SOL    MW4 4407   2.274   0.910   1.989 -0.0684  0.1652  0.0648
 1089SOL     OW 4408   2.226   1.174   1.859 -0.3269 -0.0042 -0.0766
 1089SOL    HW2 4409   2.298   1.223   1.898  0.0662  0.8859 -1.9082
 1089SOL    HW3 4410   2.225   1.091   1.907  2.1023 -0.1495 -0.2502
 1089SOL    MW4 4411   2.235   1.170   1.870  0.0455  0.0941 -0.3412
 1090SOL     OW 4412   2.488   1.278   1.938  0.0395  0.0248  0.0620
 1090SOL    HW2 4413   2.488   1.268   2.033  1.8710 -0.9241 -0.0231
 1090SOL    HW3 4414   2.518   1.368   1.922 -0.5729  0.2883  0.3702
 1090SOL    MW4 4415   2.492   1.289   1.948  0.2005 -0.0657  0.0913
 1091SOL     OW 4416   2.528   1.547   1.864  0.3159  0.1240 -0.3244
 1091SOL    HW2 4417   2.460   1.598   1.908  0.3003  0.5012 -0.7775
 1091SOL    HW3 4418   2.500   1.544   1.772  1.7309  1.7167 -0.8519
 1091SOL    MW4 4419   2.515   1.554   1.858  0.5002  0.3840 -0.4538
 1092SOL     OW 4420   2.312   1.674   1.985  0.6129 -0.6249  0.2220
 1092SOL    HW2 4421   2.308   1.682   2.080 -1.5082  2.4325 -0.0514
 1092SOL    HW3 4422   2.231   1.630   1.961  0.9902 -1.0953 -0.1870
 1092SOL    MW4 4423   2.301   1.669   1.994  0.3827 -0.2835  0.1318
 1093SOL     OW 4424   2.263   1.934   1.910  0.0856 -0.2738 -0.1814
 1093SOL    HW2 4425   2.327   1.989   1.953 -0.3136 -0.4087  0.5871
 1093SOL    HW3 4426   2.287   1.845   1.935  0.1888 -0.3960 -0.6953
 1093SOL    MW4 4427   2.274   1.929   1.919  0.0467 -0.3078 -0.1478
 1094SOL     OW 4428   2.493   2.033   2.017  0.0092 -0.3573  0.4548
 1094SOL    HW2 4429   2.551   1.989   1.954  0.1812  0.3526  0.1190
 1094SOL    HW3 4430   2.482   2.121   1.982 -1.1885 -0.4496  0.5791
 1094SOL    MW4 4431   2.499   2.039   2.004 -0.1261 -0.2759  0.4268
 1095SOL     OW 4432   2.470   2.284   1.904 -0.2888  0.4772  0.1805
 1095SOL    HW2 4433   2.548   2.333   1.928 -0.3542  1.7946 -2.1713
 1095SOL    HW3 4434   2.397   2.336   1.940 -0.1588 -0.0972  1.2901
 1095SOL    MW4 4435   2.471   2.297   1.912 -0.2804  0.5753  0.0167
 1096SOL     OW 4436   2.256   2.452   1.987 -0.8541  0.1871 -0.1257
 1096SOL    HW2 4437   2.243   2.459   2.082 -1.6327  0.5153 -0.2471
 1096SOL    HW3 4438   2.250   2.542   1.956 -1.9960 -0.0599 -0.6472
 1096SOL    MW4 4439   2.253   2.465   1.996 -1.1075  0.1976 -0.2105
 1097SOL     OW 4440   2.235   2.706   1.881  0.8495 -0.2006  0.4936
 1097SOL    HW2 4441   2.155   2.756   1.901  1.1190  0.4746 -0.0732
 1097SOL    HW3 4442   2.250   2.723   1.788  2.5861  1.0378  0.9814
 1097SOL    MW4 4443   2.226   2.715   1.871  1.1144  0.0520  0.4832
 1098SOL     OW 4444   2.469   2.793   2.008 -0.2719  0.4794 -0.0548
 1098SOL    HW2 4445   2.449   2.884   1.986 -0.7287 -0.1951 -2.5502
 1098SOL    HW3 4446   2.397   2.743   1.971  0.7837 -1.0566 -0.0663
 1098SOL    MW4 4447   2.457   2.799   2.001 -0.1926  0.1879 -0.3855
 1099SOL     OW 4448   2.432   3.074   1.905  0.1041 -0.2894 -0.5325
 1099SOL    HW2 4449   2.365   3.137   1.931  0.3301 -0.4665  0.4882
 1099SOL    HW3 4450   2.438   3.084   1.810  0.0684  1.1637 -0.3896
 1099SOL    MW4 4451   2.424   3.084   1.896  0.1292 -0.1211 -0.3790
 1100SOL     OW 4452   2.238   3.247   1.984 -0.2520  0.4735 -0.0293
 1100SOL    HW2 4453   2.245   3.229   2.078  2.4334 -0.6426 -0.4111
 1100SOL    HW3 4454   2.160   3.198   1.957 -0.9806  0.6881  1.5735
 1100SOL    MW4 4455   2.229   3.238   1.993  0.0062  0.3548  0.1318
 1101SOL     OW 4456   2.222   3.497   1.854 -0.4276  0.2940  0.0502
 1101SOL    HW2 4457   2.225   3.406   1.886 -1.2936 -0.4395 -1.8531
 1101SOL    HW3 4458   2.164   3.542   1.915 -1.6434 -0.9588 -0.1435
 1101SOL    MW4 4459   2.214   3.491   1.866 -0.7021  0.0317 -0.2264
 1102SOL     OW 4460   2.447   3.620   1.968  0.0542  0.1347 -0.1818
 1102SOL    HW2 4461   2.441   3.612   2.063 -0.2371  0.9409 -0.1370
 1102SOL    HW3 4462   2.363   3.588   1.935 -0.7976  2.1705 -0.0400
 1102SOL    MW4 4463   2.435   3.614   1.976 -0.0968  0.5097 -0.1571
 1103SOL     OW 4464   2.492   3.863   1.845  0.0069 -0.2049 -0.2171
 1103SOL    HW2 4465   2.429   3.916   1.893  0.1028 -0.1159 -0.1893
 1103SOL    HW3 4466   2.480   3.774   1.879  0.3659 -0.0662  0.2791
 1103SOL    MW4 4467   2.482   3.858   1.856  0.0668 -0.1750 -0.1478
 1104SOL     OW 4468   2.279   3.982   1.985  0.7470 -0.1360  0.0720
 1104SOL    HW2 4469   2.268   3.978   2.080 -2.0223 -0.5168 -0.2304
 1104SOL    HW3 4470   2.259   4.073   1.963 -0.4027 -0.4740 -0.3247
 1104SOL    MW4 4471   2.275   3.994   1.995  0.2296 -0.2306 -0.0201
 1105SOL     OW 4472   2.239   4.253   1.873 -0.3451 -0.2198 -0.0940
 1105SOL    HW2 4473   2.321   4.298   1.897  0.2084 -1.3943  0.2296
 1105SOL    HW3 4474   2.228   4.272   1.780  0.7214 -0.7228 -0.3250
 1105SOL    MW4 4475   2.248   4.262   1.864 -0.1314 -0.4406 -0.0819
 1106SOL     OW 4476   2.472   4.381   1.956  0.3038 -0.1128 -0.6397
 1106SOL    HW2 4477   2.468   4.400   2.050 -2.1134 -1.2157 -0.4706
 1106SOL    HW3 4478   2.551   4.329   1.945  0.8710  0.4431  0.7131
 1106SOL    MW4 4479   2.482   4.377   1.967  0.0594 -0.1850 -0.4388
 1107SOL     OW 4480   2.902   4.666   1.880 -0.0227 -0.0879 -0.4264
 1107SOL    HW2 4481   2.980   4.714   1.907 -0.3971 -0.0795  0.6620
 1107SOL    HW3 4482   2.918   4.576   1.908 -0.4280 -0.0747 -0.1459
 1107SOL    MW4 4483   2.915   4.661   1.887 -0.1259 -0.0854 -0.2457
 1108SOL     OW 4484   2.661   0.090   1.990 -0.8501  0.5531 -0.0754
 1108SOL    HW2 4485   2.680   0.089   2.084 -0.6974  0.5020 -0.1077
 1108SOL    HW3 4486   2.740   0.055   1.949 -1.1256  0.0618 -0.1865
 1108SOL    MW4 4487   2.674   0.085   1.997 -0.8662  0.4816 -0.0943
 1109SOL     OW 4488   2.707   0.357   1.882 -0.1971  0.1693  0.3692
 1109SOL    HW2 4489   2.779   0.408   1.920 -0.6250  0.6137  0.5934
 1109SOL    HW3 4490   2.708   0.274   1.930  1.7935 -0.8515 -1.3801
 1109SOL    MW4 4491   2.716   0.353   1.893  0.0091  0.0933  0.1681
 1110SOL     OW 4492   2.940   0.502   1.974 -1.0330 -0.1437 -0.1022
 1110SOL    HW2 4493   2.993   0.450   1.913 -2.4677 -1.1947 -0.4767
 1110SOL    HW3 4494   2.929   0.586   1.930 -2.0798 -0.8980 -1.3371
 1110SOL    MW4 4495   2.946   0.506   1.960 -1.3607 -0.3818 -0.3147
 1111SOL     OW 4496   2.923   0.753   1.837  0.0819 -0.4877 -0.1445
 1111SOL    HW2 4497   2.996   0.813   1.852 -0.4788  0.2309 -0.2499
 1111SOL    HW3 4498   2.851   0.789   1.888 -0.6635 -0.2885 -1.3211
 1111SOL    MW4 4499   2.923   0.766   1.845 -0.0908 -0.3666 -0.3138
 1112SOL     OW 4500   2.717   0.880   1.966 -0.2464  0.2295  0.1929
 1112SOL    HW2 4501   2.724   0.971   1.937 -0.9387  0.7288  1.5519
 1112SOL    HW3 4502   2.625   0.857   1.949 -0.2787  0.0479  0.6230
 1112SOL    MW4 4503   2.705   0.889   1.960 -0.3421  0.2714  0.4289
 1113SOL     OW 4504   2.734   1.158   1.876 -0.4303  0.2080 -0.3524
 1113SOL    HW2 4505   2.652   1.200   1.899 -0.8945  0.2766 -2.0131
 1113SOL    HW3 4506   2.733   1.155   1.780  0.9131 -0.9532 -0.3524
 1113SOL    MW4 4507   2.723   1.163   1.866 -0.3145  0.0637 -0.5716
 1114SOL     OW 4508   2.940   1.317   1.973  0.3462 -0.0896 -0.1399
 1114SOL    HW2 4509   2.919   1.405   1.943 -1.4203  0.2751  2.0626
 1114SOL    HW3 4510   2.867   1.263   1.944  0.5184 -0.4844  0.1586
 1114SOL    MW4 4511   2.928   1.322   1.965  0.1361 -0.0936  0.1900
 1115SOL     OW 4512   2.921   1.576   1.879  0.0605 -0.1060 -0.6970
 1115SOL    HW2 4513   3.000   1.596   1.929 -0.4558  0.2140  0.0032
 1115SOL    HW3 4514   2.948   1.581   1.788  0.8868 -0.1567 -0.4573
 1115SOL    MW4 4515   2.935   1.580   1.874  0.1016 -0.0706 -0.5729
 1116SOL     OW 4516   2.708   1.694   1.980 -0.2806  0.4562 -0.2167
 1116SOL    HW2 4517   2.788   1.648   1.955 -0.6602 -2.2175  3.0866
 1116SOL    HW3 4518   2.639   1.650   1.931 -0.3346 -0.9456  1.0650
 1116SOL    MW4 4519   2.709   1.682   1.971 -0.3378 -0.0814  0.3881
 1117SOL     OW 4520   2.710   1.934   1.847 -0.1019  0.4202 -0.1210
 1117SOL    HW2 4521   2.781   1.986   1.883  1.6210 -1.2234 -1.0523
 1117SOL    HW3 4522   2.722   1.847   1.886 -1.5549  0.1008 -0.3559
 1117SOL    MW4 4523   2.721   1.929   1.857 -0.0660  0.1611 -0.2749
 1118SOL     OW 4524   2.910   2.037   2.005  0.6979  0.1521 -0.0460
 1118SOL    HW2 4525   2.921   2.065   2.096 -0.1497 -0.8522  0.3831
 1118SOL    HW3 4526   2.987   1.982   1.988  0.3033 -0.5751  0.4473
 1118SOL    MW4 4527   2.921   2.033   2.015  0.5338 -0.0761  0.0758
 1119SOL     OW 4528   2.893   2.305   1.902 -0.1903  0.2243 -0.2790
 1119SOL    HW2 4529   2.978   2.349   1.909  0.2863 -0.5587 -1.0269
 1119SOL    HW3 4530   2.905   2.223   1.949 -0.4487 -0.0049 -0.6108
 1119SOL    MW4 4531   2.906   2.300   1.909 -0.1612  0.0908 -0.4215
 1120SOL     OW 4532   2.691   2.425   2.015  0.4081  0.5934  0.0378
 1120SOL    HW2 4533   2.707   2.518   1.998  0.5601  1.0391  2.4590
 1120SOL    HW3 4534   2.759   2.380   1.965  0.6506  1.8171 -0.7469
 1120SOL    MW4 4535   2.702   2.432   2.006  0.4601  0.8135  0.2537
 1121SOL     OW 4536   2.707   2.678   1.919 -0.3399 -0.2303 -0.0825
 1121SOL    HW2 4537   2.625   2.722   1.942 -0.5427 -1.3560  1.4305
 1121SOL    HW3 4538   2.707   2.675   1.823 -1.5371  0.7528 -0.1218
 1121SOL    MW4 4539   2.696   2.683   1.909 -0.5248 -0.2491  0.1119
 1122SOL     OW 4540   2.892   2.826   2.052  0.2905  0.1328  0.0655
 1122SOL    HW2 4541   2.872   2.909   2.008  0.1538  0.5242  0.8514
 1122SOL    HW3 4542   2.826   2.765   2.019 -0.4027  0.6693  0.4614
 1122SOL    MW4 4543   2.880   2.829   2.042  0.1812  0.2556  0.2215
 1123SOL     OW 4544   2.876   3.068   1.900 -0.0654 -0.0691 -0.1848
 1123SOL    HW2 4545   2.947   3.115   1.945  0.7605  0.3615 -1.8727
 1123SOL    HW3 4546   2.796   3.108   1.933  0.5818  1.3847 -0.3189
 1123SOL    MW4 4547   2.875   3.080   1.910  0.1287  0.1795 -0.4252
 1124SOL     OW 4548   2.667   3.210   1.991 -0.5956 -0.3714  0.3578
 1124SOL    HW2 4549   2.669   3.295   1.947  0.2625 -1.8104 -2.5702
 1124SOL    HW3 4550   2.585   3.170   1.963 -0.3121 -1.0892  0.5330
 1124SOL    MW4 4551   2.657   3.216   1.981 -0.4449 -0.6561 -0.0055
 1125SOL     OW 4552   2.693   3.474   1.874 -0.2231  0.0687 -0.2537
 1125SOL    HW2 4553   2.766   3.521   1.914  0.4253 -2.4956  1.7382
 1125SOL    HW3 4554   2.615   3.520   1.906  0.4030  0.2179  1.1055
 1125SOL    MW4 4555   2.692   3.486   1.883 -0.0551 -0.2501  0.1885
 1126SOL     OW 4556   2.905   3.612   1.985  0.1940 -0.0883  0.6201
 1126SOL    HW2 4557   2.917   3.595   2.079  1.2263 -1.5137  0.2493
 1126SOL    HW3 4558   2.965   3.551   1.942 -0.1216  0.7015 -0.9678
 1126SOL    MW4 4559   2.915   3.602   1.992  0.2887 -0.1721  0.3614
 1127SOL     OW 4560   2.912   3.880   1.885  0.0187  0.4036  0.3814
 1127SOL    HW2 4561   2.911   3.791   1.919  0.9716  0.3662  0.3220
 1127SOL    HW3 4562   2.910   3.870   1.790  1.6014  0.4063  0.3421
 1127SOL    MW4 4563   2.912   3.867   1.877  0.3533  0.3989  0.3685
 1128SOL     OW 4564   2.680   4.012   1.968 -0.4556 -0.3107  0.3824
 1128SOL    HW2 4565   2.761   3.986   1.924 -0.1438  0.9562  0.1998
 1128SOL    HW3 4566   2.611   3.964   1.922  0.0330 -0.2251 -0.4324
 1128SOL    MW4 4567   2.682   4.002   1.956 -0.3498 -0.1326  0.2508
 1129SOL     OW 4568   2.742   4.269   1.869  0.2025 -0.1581 -0.1696
 1129SOL    HW2 4569   2.723   4.179   1.895 -0.6937  0.2010  0.4371
 1129SOL    HW3 4570   2.744   4.266   1.773  0.1004 -0.8052 -0.1535
 1129SOL    MW4 4571   2.740   4.257   1.860  0.0710 -0.1960 -0.0875
 1130SOL     OW 4572   2.961   4.405   1.951  0.2785  0.0078  0.0094
 1130SOL    HW2 4573   2.943   4.416   2.044  0.5071  1.8377 -0.1309
 1130SOL    HW3 4574   2.884   4.358   1.917 -0.4512  0.5544  0.8807
 1130SOL    MW4 4575   2.948   4.400   1.959  0.2124  0.3214  0.1059
 1131SOL     OW 4576   3.354   4.614   1.925 -0.5074  0.0058  0.2848
 1131SOL    HW2 4577   3.354   4.526   1.963  1.9510  0.1732  0.7526
 1131SOL    HW3 4578   3.373   4.601   1.833 -1.3537 -0.0303  0.1118
 1131SOL    MW4 4579   3.356   4.601   1.918 -0.2949  0.0229  0.3237
 1132SOL     OW 4580   3.142   0.104   1.976  0.1704  0.6965 -0.1301
 1132SOL    HW2 4581   3.142   0.074   2.067 -1.1507 -1.5786 -0.8531
 1132SOL    HW3 4582   3.217   0.059   1.937 -0.3920  0.1934 -0.6306
 1132SOL    MW4 4583   3.152   0.094   1.983 -0.0784  0.3300 -0.2915
 1133SOL     OW 4584   3.144   0.374   1.858 -0.7104  0.4650 -0.2098
 1133SOL    HW2 4585   3.148   0.284   1.890 -3.6570  0.0068 -0.9810
 1133SOL    HW3 4586   3.167   0.368   1.765  1.0195  0.7930  0.1959
 1133SOL    MW4 4587   3.147   0.362   1.850 -0.8709  0.4478 -0.2580
 1134SOL     OW 4588   3.357   0.506   1.956  0.7204 -0.3777 -0.3128
 1134SOL    HW2 4589   3.423   0.446   1.919  0.0240 -0.7694 -0.9291
 1134SOL    HW3 4590   3.275   0.479   1.916  0.4970  1.4566 -1.1372
 1134SOL    MW4 4591   3.355   0.494   1.946  0.5991 -0.1873 -0.5029
 1135SOL     OW 4592   3.386   0.787   1.900 -0.4321 -0.1349  0.0555
 1135SOL    HW2 4593   3.298   0.821   1.916 -1.7151 -2.2433 -2.1551
 1135SOL    HW3 4594   3.381   0.694   1.925  1.3058 -0.1673  0.3545
 1135SOL    MW4 4595   3.374   0.779   1.906 -0.3719 -0.4174 -0.1967
 1136SOL     OW 4596   3.145   0.880   1.969  0.3272  0.0681  0.1179
 1136SOL    HW2 4597   3.146   0.880   2.065  2.6707  1.2426  0.1538
 1136SOL    HW3 4598   3.126   0.971   1.945 -0.3442 -0.2387 -0.5241
 1136SOL    MW4 4599   3.143   0.892   1.978  0.5479  0.1826  0.0380
 1137SOL     OW 4600   3.128   1.151   1.852 -0.0674 -0.1365 -0.1888
 1137SOL    HW2 4601   3.205   1.195   1.888 -0.5840 -0.8648  1.8616
 1137SOL    HW3 4602   3.054   1.193   1.895 -0.8736  0.9597 -2.5804
 1137SOL    MW4 4603   3.129   1.162   1.863 -0.2420 -0.0880 -0.2338
 1138SOL     OW 4604   3.361   1.257   1.958 -0.0476  0.0276 -0.3431
 1138SOL    HW2 4605   3.363   1.261   2.054 -0.4721  0.8821 -0.3645
 1138SOL    HW3 4606   3.372   1.348   1.930  1.6438 -0.4013 -1.1454
 1138SOL    MW4 4607   3.363   1.270   1.967  0.1197  0.0837 -0.4518
 1139SOL     OW 4608   3.365   1.525   1.872  0.1697 -0.1657 -0.4030
 1139SOL    HW2 4609   3.443   1.564   1.912 -0.9662  1.0377  0.7029
 1139SOL    HW3 4610   3.292   1.574   1.910 -1.0412 -0.0743 -2.7738
 1139SOL    MW4 4611   3.366   1.537   1.883 -0.1400  0.0051 -0.5698
 1140SOL     OW 4612   3.149   1.648   1.984  0.0310  0.3231  0.2196
 1140SOL    HW2 4613   3.161   1.643   2.079 -2.4665 -0.8640  0.5164
 1140SOL    HW3 4614   3.137   1.741   1.966 -1.6149  0.3705  1.3989
 1140SOL    MW4 4615   3.149   1.659   1.994 -0.5155  0.1727  0.4145
 1141SOL     OW 4616   3.141   1.907   1.913  0.7686  0.3280 -0.0997
 1141SOL    HW2 4617   3.215   1.962   1.939  0.2380  1.0328 -0.0541
 1141SOL    HW3 4618   3.127   1.928   1.821 -0.2750  1.2592  0.2615
 1141SOL    MW4 4619   3.149   1.917   1.904  0.5610  0.5438 -0.0460
 1142SOL     OW 4620   3.360   2.048   1.984 -0.5984  0.1536 -0.4327
 1142SOL    HW2 4621   3.448   2.012   1.969 -1.4178 -2.0496 -0.1043
 1142SOL    HW3 4622   3.362   2.133   1.940  1.8993  0.4317  0.1056
 1142SOL    MW4 4623   3.372   2.055   1.977 -0.3767 -0.1004 -0.3184
 1143SOL     OW 4624   3.328   2.309   1.872  0.8523  0.3439 -0.5100
 1143SOL    HW2 4625   3.255   2.371   1.882  0.6175 -0.0661  0.3300
 1143SOL    HW3 4626   3.346   2.309   1.778  0.4217  1.1941 -0.6050
 1143SOL    MW4 4627   3.321   2.317   1.860  0.7644  0.4020 -0.4116
 1144SOL     OW 4628   3.122   2.463   1.985 -0.0283  0.2921  0.0442
 1144SOL    HW2 4629   3.148   2.456   2.077 -0.0409  0.8643  0.0902
 1144SOL    HW3 4630   3.102   2.555   1.972 -1.1380  0.0114 -0.2443
 1144SOL    MW4 4631   3.123   2.474   1.996 -0.1762  0.3309  0.0123
 1145SOL     OW 4632   3.112   2.736   1.903  0.2312  0.0214 -0.4065
 1145SOL    HW2 4633   3.038   2.781   1.943  0.4697 -0.0861  0.1553
 1145SOL    HW3 4634   3.090   2.732   1.810 -0.7749 -0.5957 -0.1447
 1145SOL    MW4 4635   3.099   2.741   1.896  0.1299 -0.0741 -0.2978
 1146SOL     OW 4636   3.355   2.839   1.982 -0.0562 -0.6835 -0.1130
 1146SOL    HW2 4637   3.358   2.829   2.077 -0.8730 -1.2568 -0.1347
 1146SOL    HW3 4638   3.267   2.809   1.958  0.4063 -1.2521 -1.1292
 1146SOL    MW4 4639   3.344   2.833   1.991 -0.1030 -0.8342 -0.2500
 1147SOL     OW 4640   3.357   3.092   1.909 -0.3385  0.1560 -0.0795
 1147SOL    HW2 4641   3.432   3.141   1.943 -0.5416  0.3219  0.1350
 1147SOL    HW3 4642   3.364   3.006   1.950 -0.4892  0.3021  0.2566
 1147SOL    MW4 4643   3.368   3.087   1.919 -0.3853  0.1969 -0.0068
 1148SOL     OW 4644   3.124   3.223   1.985 -0.1132 -0.0965  0.4501
 1148SOL    HW2 4645   3.139   3.304   1.937  0.4946 -1.5179 -1.8133
 1148SOL    HW3 4646   3.205   3.173   1.977 -0.9149 -1.4955  0.6921
 1148SOL    MW4 4647   3.137   3.227   1.978 -0.1390 -0.4690  0.1835
 1149SOL     OW 4648   3.128   3.471   1.864 -0.3972 -0.5735  0.4337
 1149SOL    HW2 4649   3.207   3.513   1.897  0.1382 -1.6235  0.5072
 1149SOL    HW3 4650   3.132   3.484   1.769  0.1221 -1.0532  0.3868
 1149SOL    MW4 4651   3.139   3.479   1.856 -0.2580 -0.7753  0.4371
 1150SOL     OW 4652   3.378   3.596   1.987  0.3739 -0.0742  0.6136
 1150SOL    HW2 4653   3.451   3.557   1.940 -0.5379  0.5991 -1.3973
 1150SOL    HW3 4654   3.370   3.684   1.952 -0.4266  0.3927  1.9274
 1150SOL    MW4 4655   3.386   3.602   1.976  0.1481  0.0761  0.5217
 1151SOL     OW 4656   3.381   3.869   1.873 -0.2139 -0.3487  0.0797
 1151SOL    HW2 4657   3.301   3.909   1.906  0.5553  0.5736  0.8670
 1151SOL    HW3 4658   3.376   3.881   1.778 -0.5636  0.5468  0.2036
 1151SOL    MW4 4659   3.370   3.876   1.865 -0.1585 -0.1085  0.1998
 1152SOL     OW 4660   3.156   3.959   2.002  0.0709 -0.2875  0.3951
 1152SOL    HW2 4661   3.129   3.957   2.094  0.0433 -2.5418  0.3665
 1152SOL    HW3 4662   3.076   3.937   1.953  0.5276 -0.9919 -0.0494
 1152SOL    MW4 4663   3.142   3.955   2.007  0.1276 -0.6776  0.3326
 1153SOL     OW 4664   3.177   4.218   1.925 -0.1547  0.0847  0.4512
 1153SOL    HW2 4665   3.158   4.131   1.958 -1.5501  0.3734  0.4546
 1153SOL    HW3 4666   3.100   4.270   1.949 -1.1703  0.3383 -3.1006
 1153SOL    MW4 4667   3.164   4.214   1.933 -0.4728  0.1559 -0.0170
 1154SOL     OW 4668   3.403   4.320   2.022 -0.5394 -0.2152  0.4729
 1154SOL    HW2 4669   3.475   4.292   1.965  0.1486  0.8590  0.7901
 1154SOL    HW3 4670   3.326   4.274   1.988 -0.0037 -0.1624 -0.8669
 1154SOL    MW4 4671   3.402   4.310   2.010 -0.3779 -0.0668  0.3378
 1155SOL     OW 4672   3.840   4.655   1.905  0.5592  0.1326 -0.1047
 1155SOL    HW2 4673   3.827   4.565   1.933  0.6446  0.0960 -0.1839
 1155SOL    HW3 4674   3.756   4.698   1.922 -0.0659 -0.3994 -1.7951
 1155SOL    MW4 4675   3.827   4.649   1.911  0.4878  0.0572 -0.3382
 1156SOL     OW 4676   3.602   0.103   1.976  0.9302 -0.6411  0.2810
 1156SOL    HW2 4677   3.599   0.111   2.071 -2.0366  0.8844  0.1280
 1156SOL    HW3 4678   3.522   0.056   1.953  0.6558  0.6610 -1.5838
 1156SOL    MW4 4679   3.591   0.098   1.985  0.5026 -0.2680  0.0148
 1157SOL     OW 4680   3.558   0.345   1.853 -0.2735  0.0549  0.1374
 1157SOL    HW2 4681   3.577   0.254   1.875  2.6826  0.4267 -0.6871
 1157SOL    HW3 4682   3.588   0.355   1.763 -1.6850  1.5424 -0.2026
 1157SOL    MW4 4683   3.564   0.335   1.844 -0.0699  0.3002 -0.0161
 1158SOL     OW 4684   3.741   0.486   2.015 -0.1738  0.1787 -0.2263
 1158SOL    HW2 4685   3.745   0.572   1.973 -0.3793  0.6562  0.6979
 1158SOL    HW3 4686   3.673   0.439   1.968 -1.2611  1.1400  0.3430
 1158SOL    MW4 4687   3.733   0.491   2.004 -0.3448  0.3685 -0.0293
 1159SOL     OW 4688   3.797   0.733   1.883  0.3709 -0.3882  0.3610
 1159SOL    HW2 4689   3.733   0.798   1.911  0.3634 -0.0535 -0.4054
 1159SOL    HW3 4690   3.787   0.729   1.788  1.4131 -0.3988  0.2390
 1159SOL    MW4 4691   3.787   0.741   1.874  0.5074 -0.3454  0.2439
 1160SOL     OW 4692   3.620   0.934   1.975 -0.0866 -0.4134  0.4528
 1160SOL    HW2 4693   3.612   1.023   1.942  0.7607 -0.4581  0.1223
 1160SOL    HW3 4694   3.536   0.893   1.953 -0.7368  0.4810  1.1968
 1160SOL    MW4 4695   3.608   0.940   1.968 -0.0606 -0.3012  0.5075
 1161SOL     OW 4696   3.606   1.188   1.864 -0.1597  0.3859 -0.0826
 1161SOL    HW2 4697   3.522   1.221   1.898 -0.8325 -0.8570 -0.5146
 1161SOL    HW3 4698   3.584   1.156   1.776  0.5211 -1.0574  0.2674
 1161SOL    MW4 4699   3.592   1.188   1.857 -0.1585  0.0314 -0.0935
 1162SOL     OW 4700   3.857   1.268   1.971 -0.0127  0.3612 -0.0155
 1162SOL    HW2 4701   3.843   1.265   2.066  0.6245 -2.1098  0.0492
 1162SOL    HW3 4702   3.778   1.227   1.935  0.8217 -0.9608 -0.3861
 1162SOL    MW4 4703   3.844   1.262   1.979  0.1814 -0.1392 -0.0559
 1163SOL     OW 4704   3.805   1.523   1.866 -0.3229  0.4704 -0.3236
 1163SOL    HW2 4705   3.868   1.582   1.908 -0.1759  0.6647 -0.8152
 1163SOL    HW3 4706   3.829   1.436   1.898 -0.3637  0.6454  0.1830
 1163SOL    MW4 4707   3.817   1.520   1.876 -0.3090  0.5192 -0.3216
 1164SOL     OW 4708   3.579   1.627   1.980 -0.2333 -0.0360 -0.0549
 1164SOL    HW2 4709   3.593   1.721   1.970  0.1735 -0.0869  0.0243
 1164SOL    HW3 4710   3.658   1.587   1.946  0.0555 -0.3106  0.9153
 1164SOL    MW4 4711   3.591   1.634   1.975 -0.1414 -0.0790  0.0834
 1165SOL     OW 4712   3.589   1.899   1.930  0.5557 -0.6201 -0.1811
 1165SOL    HW2 4713   3.661   1.954   1.959 -0.1947  0.4379 -0.2868
 1165SOL    HW3 4714   3.592   1.904   1.834  1.1009 -1.5762 -0.2173
 1165SOL    MW4 4715   3.599   1.907   1.921  0.5283 -0.6067 -0.1998
 1166SOL     OW 4716   3.783   2.094   1.989 -0.1235 -0.0344  0.2224
 1166SOL    HW2 4717   3.865   2.060   1.952 -0.1086 -0.2061  0.4159
 1166SOL    HW3 4718   3.777   2.183   1.953 -0.2113 -0.2707 -0.3568
 1166SOL    MW4 4719   3.793   2.101   1.979 -0.1333 -0.0885  0.1715
 1167SOL     OW 4720   3.785   2.347   1.857  0.0278 -0.6522 -0.0727
 1167SOL    HW2 4721   3.871   2.383   1.881 -0.6898 -0.1970  1.9163
 1167SOL    HW3 4722   3.722   2.410   1.891 -1.1404 -1.7150 -0.2228
 1167SOL    MW4 4723   3.788   2.360   1.865 -0.2208 -0.7324  0.1699
 1168SOL     OW 4724   3.569   2.484   1.977 -0.0780  0.1065  0.1966
 1168SOL    HW2 4725   3.561   2.562   1.922  3.3803 -0.0216 -0.6483
 1168SOL    HW3 4726   3.499   2.426   1.947 -1.2742  1.9674 -0.7213
 1168SOL    MW4 4727   3.559   2.487   1.966  0.2205  0.3352 -0.0359
 1169SOL     OW 4728   3.585   2.718   1.820  0.2427 -0.0309 -0.4549
 1169SOL    HW2 4729   3.666   2.750   1.861  0.5452 -1.3985  0.0357
 1169SOL    HW3 4730   3.515   2.767   1.863  0.5301 -1.6445  1.9307
 1169SOL    MW4 4731   3.587   2.729   1.831  0.3207 -0.4241 -0.0755
 1170SOL     OW 4732   3.806   2.817   1.957 -0.1824 -0.0763  0.4346
 1170SOL    HW2 4733   3.794   2.818   2.052  0.4242 -1.8200  0.5518
 1170SOL    HW3 4734   3.813   2.909   1.933 -1.2805  0.4314  1.9520
 1170SOL    MW4 4735   3.805   2.829   1.967 -0.2475 -0.2394  0.6500
 1171SOL     OW 4736   3.802   3.094   1.883 -0.2091  0.3473  0.3713
 1171SOL    HW2 4737   3.722   3.132   1.918  0.7633  1.9498  0.8903
 1171SOL    HW3 4738   3.802   3.119   1.791 -0.0343  0.8020  0.4958
 1171SOL    MW4 4739   3.791   3.102   1.875 -0.0577  0.6189  0.4560
 1172SOL     OW 4740   3.574   3.241   1.979 -0.4476 -0.2966 -0.1460
 1172SOL    HW2 4741   3.585   3.251   2.074 -0.7479 -1.3648  0.0059
 1172SOL    HW3 4742   3.596   3.327   1.944 -0.7459  0.2321  0.9288
 1172SOL    MW4 4743   3.578   3.254   1.987 -0.5264 -0.3679  0.0157
 1173SOL     OW 4744   3.620   3.509   1.875  0.2595 -0.0192 -0.0745
 1173SOL    HW2 4745   3.698   3.557   1.902  0.4841  0.4359 -1.5156
 1173SOL    HW3 4746   3.620   3.513   1.780 -0.4895 -1.6748 -0.1700
 1173SOL    MW4 4747   3.630   3.516   1.866  0.1905 -0.1774 -0.2772
 1174SOL     OW 4748   3.844   3.645   1.974 -0.1084  0.4769 -0.6398
 1174SOL    HW2 4749   3.914   3.597   1.932  1.0535  1.5799 -0.0203
 1174SOL    HW3 4750   3.858   3.736   1.948 -1.3263  0.7075 -0.5382
 1174SOL    MW4 4751   3.855   3.651   1.965 -0.1156  0.6528 -0.5447
 1175SOL     OW 4752   3.859   3.896   1.860 -0.0650  0.1654 -0.2281
 1175SOL    HW2 4753   3.774   3.925   1.894  0.0266  1.8357 -1.4016
 1175SOL    HW3 4754   3.849   3.897   1.765  1.7810  1.9736 -0.4266
 1175SOL    MW4 4755   3.847   3.900   1.852  0.1907  0.6244 -0.4091
 1176SOL     OW 4756   3.616   3.982   1.964 -0.5282  0.6029  0.0138
 1176SOL    HW2 4757   3.634   3.981   2.058 -0.0284  1.0507 -0.0732
 1176SOL    HW3 4758   3.531   3.938   1.955 -0.0373 -0.4972  0.5653
 1176SOL    MW4 4759   3.607   3.976   1.975 -0.3974  0.5167  0.0750
 1177SOL     OW 4760   3.610   4.227   1.863  0.1324 -0.3501  0.3683
 1177SOL    HW2 4761   3.683   4.272   1.905  0.3268  0.4723 -0.8286
 1177SOL    HW3 4762   3.613   4.138   1.899  2.0734 -0.4896 -0.0854
 1177SOL    MW4 4763   3.620   4.221   1.873  0.4144 -0.2599  0.1507
 1178SOL     OW 4764   3.817   4.374   1.986 -0.0700  0.1904 -0.0738
 1178SOL    HW2 4765   3.843   4.367   2.078 -1.5533 -2.1821  0.2168
 1178SOL    HW3 4766   3.885   4.327   1.938 -1.5031 -2.3637  0.2841
 1178SOL    MW4 4767   3.829   4.367   1.992 -0.4549 -0.4601  0.0117
 1179SOL     OW 4768   4.248   0.007   1.891 -0.2535  0.1626  0.4242
 1179SOL    HW2 4769   4.188   0.072   1.929 -0.1343  0.4339  0.1544
 1179SOL    HW3 4770   4.335   0.034   1.921 -0.1068  0.6665 -0.4390
 1179SOL    MW4 4771   4.252   0.019   1.900 -0.2189  0.2649  0.2748
 1180SOL     OW 4772   4.043   0.156   2.002  0.3750  0.3454 -0.1603
 1180SOL    HW2 4773   4.061   0.146   2.096  0.8133 -2.2649 -0.4778
 1180SOL    HW3 4774   3.975   0.090   1.984 -0.3833  1.4780 -1.4997
 1180SOL    MW4 4775   4.036   0.146   2.012  0.3333  0.1505 -0.3788
 1181SOL     OW 4776   3.977   0.410   1.903 -0.3712 -0.4034  0.1920
 1181SOL    HW2 4777   3.982   0.321   1.939  0.4986 -0.0012  1.0694
 1181SOL    HW3 4778   3.895   0.445   1.937 -0.0403 -0.3810  0.9817
 1181SOL    MW4 4779   3.967   0.403   1.912 -0.2129 -0.3473  0.4120
 1182SOL     OW 4780   4.248   0.494   1.951 -0.2249  0.4147 -0.6563
 1182SOL    HW2 4781   4.243   0.484   2.046  1.5300 -2.4669 -0.8216
 1182SOL    HW3 4782   4.159   0.476   1.920 -0.8639  1.6631  0.4672
 1182SOL    MW4 4783   4.236   0.490   1.959 -0.0782  0.1992 -0.5298
 1183SOL     OW 4784   4.221   0.763   1.856  0.1859 -0.0276  0.1174
 1183SOL    HW2 4785   4.252   0.676   1.881  0.6913  0.0407 -0.2624
 1183SOL    HW3 4786   4.232   0.766   1.760 -2.7657 -0.7001 -0.2923
 1183SOL    MW4 4787   4.226   0.752   1.846 -0.1364 -0.1072  0.0134
 1184SOL     OW 4788   4.021   0.859   2.006  0.1176 -0.3174 -0.0253
 1184SOL    HW2 4789   4.096   0.822   1.958  0.3394  0.1659 -0.0500
 1184SOL    HW3 4790   3.946   0.806   1.978 -0.0288  0.8957 -2.0407
 1184SOL    MW4 4791   4.021   0.847   1.996  0.1273 -0.0936 -0.2944
 1185SOL     OW 4792   4.069   1.113   1.877 -0.1531  0.0898  0.0238
 1185SOL    HW2 4793   4.055   1.024   1.908  0.2314  0.0659  0.1292
 1185SOL    HW3 4794   3.999   1.164   1.919 -0.0480 -0.0655  0.3895
 1185SOL    MW4 4795   4.058   1.108   1.887 -0.0887  0.0663  0.0859
 1186SOL     OW 4796   4.262   1.302   1.972  0.1181 -0.2486  0.2487
 1186SOL    HW2 4797   4.261   1.293   2.067 -0.5128  0.0395  0.2698
 1186SOL    HW3 4798   4.188   1.249   1.942 -1.8148  2.3978  0.1615
 1186SOL    MW4 4799   4.252   1.294   1.980 -0.2203  0.1386  0.2398
 1187SOL     OW 4800   4.227   1.550   1.877 -0.0113  0.0916  0.1471
 1187SOL    HW2 4801   4.248   1.466   1.917 -0.8611 -0.3555 -0.3381
 1187SOL    HW3 4802   4.229   1.534   1.783  1.4308  1.0126  0.0111
 1187SOL    MW4 4803   4.230   1.537   1.870  0.0672  0.1541  0.0650
 1188SOL     OW 4804   4.003   1.695   1.989  0.2947  0.8260 -0.0029
 1188SOL    HW2 4805   4.021   1.698   2.083  0.4249 -0.2088  0.0048
 1188SOL    HW3 4806   4.078   1.648   1.951 -1.8374 -2.6784 -0.0943
 1188SOL    MW4 4807   4.016   1.689   1.996  0.0305  0.2271 -0.0137
 1189SOL     OW 4808   4.010   1.971   1.879  0.1573  0.2585 -0.0129
 1189SOL    HW2 4809   3.995   1.878   1.896  3.0609 -0.3528 -0.6466
 1189SOL    HW3 4810   4.040   1.975   1.788 -1.3543  1.9963 -0.4698
 1189SOL    MW4 4811   4.012   1.959   1.869  0.3414  0.4071 -0.1569
 1190SOL     OW 4812   4.254   2.077   1.992  0.3492 -0.1193 -0.1960
 1190SOL    HW2 4813   4.239   2.085   2.086  1.9619 -0.3696  0.1112
 1190SOL    HW3 4814   4.175   2.035   1.959 -0.6318  0.8201  0.8939
 1190SOL    MW4 4815   4.242   2.072   2.000  0.4330 -0.0284 -0.0114
 1191SOL     OW 4816   4.267   2.318   1.862 -0.3619  0.0844  0.1551
 1191SOL    HW2 4817   4.262   2.230   1.901  0.9262 -0.7524 -1.5254
 1191SOL    HW3 4818   4.353   2.351   1.888 -0.9923  1.0212  1.0963
 1191SOL    MW4 4819   4.278   2.311   1.871 -0.2751  0.0978  0.0576
 1192SOL     OW 4820   4.027   2.432   1.962  0.3897 -0.2167  0.4249
 1192SOL    HW2 4821   4.019   2.435   2.057  0.3289  0.0228  0.4110
 1192SOL    HW3 4822   4.111   2.389   1.946  0.0443 -0.9670  0.5827
 1192SOL    MW4 4823   4.037   2.426   1.972  0.3362 -0.2842  0.4438
 1193SOL     OW 4824   4.047   2.691   1.848  0.4881 -0.2389 -0.1921
 1193SOL    HW2 4825   4.040   2.598   1.869 -1.8055  0.0077  0.2710
 1193SOL    HW3 4826   3.980   2.732   1.903  1.1377  1.6290 -0.7777
 1193SOL    MW4 4827   4.037   2.684   1.858  0.2708  0.0401 -0.2083
 1194SOL     OW 4828   4.282   2.843   1.985  0.3618  0.4651 -0.0761
 1194SOL    HW2 4829   4.257   2.842   2.077  1.0871  0.8021  0.1255
 1194SOL    HW3 4830   4.204   2.812   1.939  0.2800 -0.5720  0.7211
 1194SOL    MW4 4831   4.269   2.839   1.991  0.4463  0.3729  0.0557
 1195SOL     OW 4832   4.258   3.102   1.863  0.2829  0.5411 -0.4028
 1195SOL    HW2 4833   4.183   3.141   1.908 -0.8405  0.2090 -1.9331
 1195SOL    HW3 4834   4.261   3.012   1.897 -1.1919 -0.0273 -1.6827
 1195SOL    MW4 4835   4.248   3.095   1.873 -0.0601  0.4222 -0.7737
 1196SOL     OW 4836   4.032   3.225   1.995  0.2681  0.1515  0.0726
 1196SOL    HW2 4837   4.027   3.249   2.088  1.0747 -0.9880  0.4320
 1196SOL    HW3 4838   3.947   3.183   1.977 -0.0557  0.7607  0.1838
 1196SOL    MW4 4839   4.020   3.222   2.005  0.3324  0.0815  0.1347
 1197SOL     OW 4840   4.036   3.480   1.854  0.3519 -0.0229 -0.0874
 1197SOL    HW2 4841   4.121   3.511   1.884  0.2920 -0.6751  0.7660
 1197SOL    HW3 4842   4.023   3.397   1.900 -0.0968 -0.6425 -1.3188
 1197SOL    MW4 4843   4.045   3.473   1.864  0.2847 -0.1905 -0.1373
 1198SOL     OW 4844   4.284   3.605   1.946 -0.6796 -0.1702  0.4324
 1198SOL    HW2 4845   4.298   3.692   1.907 -1.2021 -0.4452 -0.3812
 1198SOL    HW3 4846   4.361   3.555   1.919 -0.7428 -0.1820  0.2757
 1198SOL    MW4 4847   4.296   3.610   1.937 -0.7567 -0.2079  0.3045
 1199SOL     OW 4848   4.306   3.862   1.870 -0.3909  0.5321  0.5127
 1199SOL    HW2 4849   4.376   3.921   1.896 -1.5966  1.9391  0.6381
 1199SOL    HW3 4850   4.306   3.865   1.775  2.0411 -2.2743  0.3494
 1199SOL    MW4 4851   4.315   3.870   1.861 -0.2294  0.3471  0.5077
 1200SOL     OW 4852   4.094   4.008   1.958 -0.4531 -0.1710 -0.6090
 1200SOL    HW2 4853   4.167   3.958   1.920  1.2973 -0.3304  2.7837
 1200SOL    HW3 4854   4.015   3.966   1.922  1.0695 -1.6131 -2.3826
 1200SOL    MW4 4855   4.093   3.996   1.948 -0.0215 -0.3824 -0.3953
 1201SOL     OW 4856   4.034   4.261   1.863 -0.0900 -0.1241 -0.4717
 1201SOL    HW2 4857   4.116   4.307   1.880  0.3048 -1.0165  0.0969
 1201SOL    HW3 4858   4.048   4.174   1.900 -1.1835 -0.3784 -0.6496
 1201SOL    MW4 4859   4.047   4.256   1.870 -0.1822 -0.2751 -0.4202
 1202SOL     OW 4860   4.254   4.405   1.957 -0.2234 -0.3806  0.0628
 1202SOL    HW2 4861   4.262   4.401   2.052  0.6513 -0.9219 -0.0344
 1202SOL    HW3 4862   4.252   4.498   1.937 -1.7063 -0.2559  0.7159
 1202SOL    MW4 4863   4.255   4.417   1.967 -0.3033 -0.4358  0.1363
 1203SOL     OW 4864   0.221   4.633   2.381 -0.2554  0.1497  0.0886
 1203SOL    HW2 4865   0.212   4.635   2.476  0.9768 -1.0444  0.2454
 1203SOL    HW3 4866   0.299   4.685   2.363 -0.0852 -0.2059 -0.2068
 1203SOL    MW4 4867   0.230   4.640   2.391 -0.0703 -0.0548  0.0706
 1204SOL     OW 4868   0.026   0.124   2.290 -0.2226 -0.3375 -1.0084
 1204SOL    HW2 4869   0.100   0.074   2.323  2.4460  2.6715 -2.1241
 1204SOL    HW3 4870   0.021   0.103   2.197 -0.4799 -0.1697 -1.0348
 1204SOL    MW4 4871   0.035   0.115   2.282  0.0955  0.0816 -1.1590
 1205SOL     OW 4872   0.001   0.382   2.364  0.2308 -0.1869  0.1769
 1205SOL    HW2 4873   0.085   0.418   2.336  0.4551 -0.7889  0.0538
 1205SOL    HW3 4874   0.004   0.290   2.335 -0.7614 -0.0212 -0.4538
 1205SOL    MW4 4875   0.013   0.374   2.356  0.1297 -0.2445  0.0772
 1206SOL     OW 4876   0.228   0.507   2.261 -0.3229  0.0482 -0.2971
 1206SOL    HW2 4877   0.308   0.466   2.293  0.3568  1.3815 -0.2870
 1206SOL    HW3 4878   0.224   0.482   2.169  0.4568  0.5411 -0.4659
 1206SOL    MW4 4879   0.238   0.498   2.253 -0.1304  0.2891 -0.3181
 1207SOL     OW 4880   0.200   0.776   2.322  0.7057 -0.1327  0.0767
 1207SOL    HW2 4881   0.191   0.785   2.417  1.4043  1.5141 -0.0066
 1207SOL    HW3 4882   0.216   0.682   2.309 -2.7518 -0.9618  1.2901
 1207SOL    MW4 4883   0.201   0.765   2.333  0.3417 -0.0247  0.2260
 1208SOL     OW 4884   4.448   0.894   2.243  0.3505  0.5059 -0.8255
 1208SOL    HW2 4885   4.538   0.867   2.261 -0.1646 -0.8146 -0.2199
 1208SOL    HW3 4886   4.441   0.890   2.148  0.6678 -0.2765 -0.8230
 1208SOL    MW4 4887   4.459   0.890   2.233  0.3247  0.2284 -0.7455
 1209SOL     OW 4888   0.018   1.149   2.350 -0.5974 -0.4787  0.1596
 1209SOL    HW2 4889   0.005   1.137   2.445  1.4254  0.2216  0.5531
 1209SOL    HW3 4890  -0.002   1.064   2.312  1.1234 -1.5428  1.5332
 1209SOL    MW4 4891   0.014   1.137   2.358 -0.1035 -0.5268  0.3929
 1210SOL     OW 4892   0.242   1.265   2.238 -0.2218  0.1598 -0.1006
 1210SOL    HW2 4893   0.165   1.223   2.275 -1.2715  1.5393 -0.6525
 1210SOL    HW3 4894   0.225   1.268   2.144  0.4508  0.5564 -0.2138
 1210SOL    MW4 4895   0.230   1.260   2.230 -0.2715  0.3941 -0.1884
 1211SOL     OW 4896   0.182   1.557   2.332  0.3313 -0.1066  0.1561
 1211SOL    HW2 4897   0.186   1.541   2.426  1.4407  0.8971  0.2963
 1211SOL    HW3 4898   0.231   1.485   2.293 -0.3310 -0.6555  0.3136
 1211SOL    MW4 4899   0.189   1.545   2.339  0.3903 -0.0466  0.1953
 1212SOL     OW 4900   4.443   1.677   2.231 -0.0340  0.2127  0.4602
 1212SOL    HW2 4901   4.449   1.759   2.279 -1.2017 -1.0555  2.8881
 1212SOL    HW3 4902   4.521   1.628   2.256  0.3849  0.3488 -0.5530
 1212SOL    MW4 4903   4.454   1.681   2.241 -0.1326  0.0632  0.6468
 1213SOL     OW 4904   4.469   1.919   2.348  0.3572 -0.0348 -0.0833
 1213SOL    HW2 4905   4.400   1.974   2.312  0.9821  0.7381 -0.1269
 1213SOL    HW3 4906   4.549   1.950   2.306  0.5028 -2.1152 -1.3752
 1213SOL    MW4 4907   4.470   1.931   2.338  0.4582 -0.2072 -0.2594
 1214SOL     OW 4908   0.203   2.042   2.238  0.6782  0.1142  0.2832
 1214SOL    HW2 4909   0.280   2.003   2.281  0.4542 -1.1923 -0.4946
 1214SOL    HW3 4910   0.224   2.040   2.145  0.0838  0.6080  0.1398
 1214SOL    MW4 4911   0.216   2.037   2.232  0.5703  0.0072  0.1614
 1215SOL     OW 4912   0.153   2.311   2.327 -0.2998  0.1480 -0.3924
 1215SOL    HW2 4913   0.152   2.299   2.422  3.2764 -0.1534 -0.3172
 1215SOL    HW3 4914   0.161   2.222   2.291 -0.4072  0.3554 -0.9412
 1215SOL    MW4 4915   0.154   2.298   2.335  0.1579  0.1359 -0.4547
 1216SOL     OW 4916   4.445   2.469   2.228 -0.1485  0.5192 -0.0856
 1216SOL    HW2 4917   4.445   2.547   2.283 -1.3780 -0.1448  0.8910
 1216SOL    HW3 4918   4.506   2.409   2.272 -0.1190  0.4778 -0.1823
 1216SOL    MW4 4919   4.453   2.471   2.241 -0.3071  0.4263  0.0305
 1217SOL     OW 4920   4.439   2.702   2.365 -0.2755 -0.0546  0.3186
 1217SOL    HW2 4921   4.449   2.713   2.460  1.6621  2.2458 -0.1079
 1217SOL    HW3 4922   4.522   2.733   2.329 -2.1543  2.0219 -2.3461
 1217SOL    MW4 4923   4.451   2.708   2.373 -0.2680  0.5231 -0.0892
 1218SOL     OW 4924   0.213   2.787   2.285 -0.3484 -0.5774  0.1830
 1218SOL    HW2 4925   0.293   2.745   2.315 -0.3954  0.3355  1.6122
 1218SOL    HW3 4926   0.220   2.787   2.189  2.5758  1.8178  0.3264
 1218SOL    MW4 4927   0.224   2.781   2.276  0.0312 -0.1409  0.3903
 1219SOL     OW 4928   0.214   3.055   2.361  0.5104 -0.1983 -0.1807
 1219SOL    HW2 4929   0.137   3.100   2.326  0.6237 -0.0696 -0.2661
 1219SOL    HW3 4930   0.201   2.963   2.338  0.9133 -0.0153 -1.1501
 1219SOL    MW4 4931   0.202   3.049   2.353  0.5785 -0.1571 -0.3197
 1220SOL     OW 4932   4.488   3.163   2.229 -0.1598 -0.1525  0.4582
 1220SOL    HW2 4933   4.490   3.252   2.263  0.4252 -0.1876  0.5198
 1220SOL    HW3 4934   4.498   3.173   2.134 -1.2501 -0.0866  0.3455
 1220SOL    MW4 4935   4.489   3.176   2.221 -0.2260 -0.1485  0.4513
 1221SOL     OW 4936   4.490   3.423   2.332  0.1354  0.1551 -0.5562
 1221SOL    HW2 4937   4.483   3.424   2.427 -0.6211  0.4204 -0.6108
 1221SOL    HW3 4938   4.410   3.465   2.301  0.1920 -0.2754 -1.3184
 1221SOL    MW4 4939   4.479   3.428   2.340  0.0424  0.1335 -0.6640
 1222SOL     OW 4940   0.214   3.569   2.238 -0.1599  0.3590 -0.4988
 1222SOL    HW2 4941   0.284   3.524   2.285 -0.3115  0.3013 -0.3273
 1222SOL    HW3 4942   0.133   3.531   2.273 -0.2536 -0.3895 -1.5185
 1222SOL    MW4 4943   0.212   3.558   2.249 -0.1923  0.2527 -0.6111
 1223SOL     OW 4944   0.235   3.824   2.319  0.6098  0.0372  0.3253
 1223SOL    HW2 4945   0.156   3.874   2.298 -0.1825 -0.8446  1.1316
 1223SOL    HW3 4946   0.220   3.738   2.279  2.5724  0.8634 -2.2538
 1223SOL    MW4 4947   0.223   3.819   2.311  0.7642  0.0298  0.0916
 1224SOL     OW 4948   4.483   3.969   2.289 -0.7134 -0.3297  0.0927
 1224SOL    HW2 4949   4.477   4.057   2.327 -1.9517 -0.4984  0.3240
 1224SOL    HW3 4950   4.489   3.983   2.195  0.8232  0.0453  0.2240
 1224SOL    MW4 4951   4.483   3.983   2.282 -0.6741 -0.3021  0.1407
 1225SOL     OW 4952   4.485   4.231   2.353  0.0094 -0.0494 -0.2609
 1225SOL    HW2 4953   4.491   4.251   2.446 -1.4516 -0.8098  0.0123
 1225SOL    HW3 4954   4.555   4.282   2.312  0.4594  0.5178  1.2106
 1225SOL    MW4 4955   4.495   4.240   2.360 -0.1240 -0.0749 -0.0303
 1226SOL     OW 4956   0.187   4.382   2.226 -0.3961 -0.3081  0.1715
 1226SOL    HW2 4957   0.264   4.351   2.274  1.1456  0.2921 -1.8583
 1226SOL    HW3 4958   0.174   4.471   2.257  0.7854  0.1867 -0.7345
 1226SOL    MW4 4959   0.195   4.389   2.236 -0.0368 -0.1640 -0.2158
 1227SOL     OW 4960   0.657   4.626   2.320  0.1289  0.0692 -0.1002
 1227SOL    HW2 4961   0.671   4.625   2.415  1.9640 -1.5628 -0.3485
 1227SOL    HW3 4962   0.739   4.661   2.285  0.0404 -0.7915 -1.1686
 1227SOL    MW4 4963   0.670   4.631   2.328  0.3594 -0.2594 -0.2737
 1228SOL     OW 4964   0.444   0.126   2.267 -0.1024 -0.1451  0.5690
 1228SOL    HW2 4965   0.512   0.059   2.277 -1.9321 -2.2614 -0.6662
 1228SOL    HW3 4966   0.436   0.138   2.172 -2.5991 -1.2039  0.6030
 1228SOL    MW4 4967   0.452   0.118   2.256 -0.6732 -0.5640  0.4108
 1229SOL     OW 4968   0.436   0.370   2.379  0.5267  0.0130  0.1907
 1229SOL    HW2 4969   0.419   0.366   2.473  0.3869 -0.9827  0.1331
 1229SOL    HW3 4970   0.448   0.278   2.353 -2.4695 -0.0148 -1.3216
 1229SOL    MW4 4971   0.435   0.357   2.388  0.1130 -0.1221 -0.0167
 1230SOL     OW 4972   0.672   0.456   2.253  0.3208  0.0028 -0.2668
 1230SOL    HW2 4973   0.684   0.535   2.306 -0.8479  0.3204 -0.4661
 1230SOL    HW3 4974   0.595   0.413   2.291  0.9936 -1.0843 -0.1131
 1230SOL    MW4 4975   0.663   0.461   2.265  0.2555 -0.0987 -0.2725
 1231SOL     OW 4976   0.664   0.695   2.390 -0.7536 -0.2454 -0.1702
 1231SOL    HW2 4977   0.660   0.712   2.484  0.5295  0.2075 -0.1924
 1231SOL    HW3 4978   0.615   0.768   2.351 -1.1477 -0.3458  0.1308
 1231SOL    MW4 4979   0.657   0.707   2.397 -0.6363 -0.1988 -0.1333
 1232SOL     OW 4980   0.459   0.882   2.246 -0.5529 -0.3699  0.1936
 1232SOL    HW2 4981   0.376   0.855   2.286 -1.0488  1.3052  0.3576
 1232SOL    HW3 4982   0.436   0.904   2.155 -0.2723  0.0148  0.2144
 1232SOL    MW4 4983   0.445   0.881   2.239 -0.5813 -0.0982  0.2177
 1233SOL     OW 4984   0.433   1.113   2.372 -0.3102  0.9726  0.3784
 1233SOL    HW2 4985   0.451   1.035   2.321  0.5185  1.2370  0.2618
 1233SOL    HW3 4986   0.366   1.160   2.322  0.2916  1.0928 -0.3256
 1233SOL    MW4 4987   0.427   1.109   2.359 -0.1215  1.0234  0.2699
 1234SOL     OW 4988   0.637   1.249   2.244 -0.3808  0.4784 -0.6779
 1234SOL    HW2 4989   0.637   1.338   2.279 -1.8470  0.3360 -0.2641
 1234SOL    HW3 4990   0.571   1.203   2.296  1.0730 -1.1345 -0.1820
 1234SOL    MW4 4991   0.629   1.254   2.256 -0.3825  0.2469 -0.5579
 1235SOL     OW 4992   0.615   1.500   2.363 -0.1415 -0.4205  0.1131
 1235SOL    HW2 4993   0.624   1.510   2.458 -0.7641  0.3700  0.0923
 1235SOL    HW3 4994   0.691   1.545   2.327 -0.3548  0.0136  0.2054
 1235SOL    MW4 4995   0.627   1.507   2.371 -0.2518 -0.2588  0.1228
 1236SOL     OW 4996   0.441   1.695   2.267 -0.5342 -0.5231  0.0572
 1236SOL    HW2 4997   0.501   1.625   2.291  0.0530  0.3537  1.1648
 1236SOL    HW3 4998   0.355   1.664   2.297 -0.0422 -0.0962  1.9519
 1236SOL    MW4 4999   0.437   1.681   2.274 -0.3918 -0.3510  0.4535
 1237SOL     OW 5000   0.439   1.941   2.385 -0.1310 -0.0417  0.1686
 1237SOL    HW2 5001   0.523   1.974   2.353 -0.9487  1.0244 -0.9256
 1237SOL    HW3 5002   0.434   1.851   2.353  0.7301 -0.2076  0.4997
 1237SOL    MW4 5003   0.449   1.934   2.377 -0.1253  0.0770  0.0677
 1238SOL     OW 5004   0.688   2.025   2.257 -0.4369 -0.4669 -0.1550
 1238SOL    HW2 5005   0.743   1.979   2.319 -1.2212  0.1532  1.0076
 1238SOL    HW3 5006   0.699   2.117   2.278 -2.2588 -0.3550  0.4071
 1238SOL    MW4 5007   0.697   2.031   2.268 -0.7808 -0.3703  0.0725
 1239SOL     OW 5008   0.661   2.288   2.321 -0.3484 -0.1863  0.1346
 1239SOL    HW2 5009   0.664   2.295   2.416  0.5919 -0.5297  0.1321
 1239SOL    HW3 5010   0.729   2.349   2.291  0.1223 -0.9128 -0.2786
 1239SOL    MW4 5011   0.670   2.297   2.329 -0.1623 -0.3273  0.0796
 1240SOL     OW 5012   0.428   2.426   2.237 -0.2720  0.0041  0.3605
 1240SOL    HW2 5013   0.512   2.396   2.271 -0.6383  0.5818  1.8291
 1240SOL    HW3 5014   0.363   2.377   2.287 -0.8112  0.0680 -0.2760
 1240SOL    MW4 5015   0.431   2.416   2.248 -0.3915  0.0887  0.4704
 1241SOL     OW 5016   0.471   2.696   2.328  0.5277  0.4219  0.4944
 1241SOL    HW2 5017   0.470   2.685   2.423  1.4149 -1.7340  0.2833
 1241SOL    HW3 5018   0.439   2.613   2.294  0.5901  1.0382 -1.1157
 1241SOL    MW4 5019   0.467   2.684   2.336  0.6530  0.2189  0.2544
 1242SOL     OW 5020   0.680   2.853   2.227  0.0854  0.1245 -0.1051
 1242SOL    HW2 5021   0.758   2.813   2.264 -0.5395  0.3466  1.4983
 1242SOL    HW3 5022   0.608   2.795   2.256 -0.7553  2.0069  1.6984
 1242SOL    MW4 5023   0.681   2.840   2.236 -0.1079  0.4022  0.3443
 1243SOL     OW 5024   0.649   3.117   2.369 -0.8024 -0.0802 -0.2218
 1243SOL    HW2 5025   0.566   3.152   2.336 -1.4839 -0.9477  0.5361
 1243SOL    HW3 5026   0.650   3.026   2.339 -0.8241 -0.5011  1.0092
 1243SOL    MW4 5027   0.638   3.109   2.361 -0.8951 -0.2503  0.0405
 1244SOL     OW 5028   0.414   3.201   2.248 -0.3563  0.1006 -0.2965
 1244SOL    HW2 5029   0.345   3.140   2.272 -1.2684  1.0412 -0.5120
 1244SOL    HW3 5030   0.413   3.201   2.152  0.4464 -0.4425 -0.3118
 1244SOL    MW4 5031   0.405   3.193   2.239 -0.3707  0.1528 -0.3269
 1245SOL     OW 5032   0.417   3.476   2.380 -0.1466 -0.0075 -0.2288
 1245SOL    HW2 5033   0.502   3.510   2.352  1.0028 -1.8688  0.9338
 1245SOL    HW3 5034   0.411   3.389   2.341 -1.2679 -0.1289  0.1757
 1245SOL    MW4 5035   0.427   3.469   2.371 -0.1429 -0.2692 -0.0219
 1246SOL     OW 5036   0.636   3.591   2.272 -0.2032 -0.4067  0.0617
 1246SOL    HW2 5037   0.637   3.677   2.314 -2.7129 -1.0979  1.5955
 1246SOL    HW3 5038   0.650   3.611   2.179 -1.4567  1.7442  0.2923
 1246SOL    MW4 5039   0.638   3.605   2.265 -0.6997 -0.2143  0.2942
 1247SOL     OW 5040   0.677   3.847   2.366 -0.0376 -0.2645  0.0307
 1247SOL    HW2 5041   0.679   3.848   2.462  0.2176  0.0704  0.0222
 1247SOL    HW3 5042   0.602   3.902   2.344 -0.0151 -0.2315  0.0364
 1247SOL    MW4 5043   0.667   3.855   2.376 -0.0010 -0.2160  0.0303
 1248SOL     OW 5044   0.445   4.005   2.282 -0.0754 -0.5877 -0.4045
 1248SOL    HW2 5045   0.377   3.942   2.305 -0.2169 -0.9504 -1.7329
 1248SOL    HW3 5046   0.449   4.001   2.186  0.5945  0.7099 -0.4441
 1248SOL    MW4 5047   0.436   3.996   2.272 -0.0057 -0.4644 -0.5851
 1249SOL     OW 5048   0.406   4.276   2.360 -0.1476 -0.0526 -0.0522
 1249SOL    HW2 5049   0.483   4.329   2.338 -1.3640  1.5230 -0.5616
 1249SOL    HW3 5050   0.424   4.191   2.320  0.7223  0.7145 -1.3293
 1249SOL    MW4 5051   0.418   4.272   2.352 -0.1933  0.2565 -0.2880
 1250SOL     OW 5052   0.643   4.373   2.239 -0.1105 -0.1172  0.5336
 1250SOL    HW2 5053   0.654   4.461   2.275 -0.6622  0.0556  0.2770
 1250SOL    HW3 5054   0.648   4.385   2.144 -2.6847 -0.0144  0.3908
 1250SOL    MW4 5055   0.645   4.386   2.231 -0.5229 -0.0811  0.4809
 1251SOL     OW 5056   1.154   4.616   2.310  0.0317  0.0181 -0.1270
 1251SOL    HW2 5057   1.132   4.622   2.402 -0.7180  2.6931 -0.4302
 1251SOL    HW3 5058   1.084   4.664   2.265  0.0153 -1.8190 -2.1468
 1251SOL    MW4 5059   1.142   4.623   2.316 -0.0695  0.1283 -0.4334
 1252SOL     OW 5060   0.898   0.078   2.233 -0.5181  0.2679  0.0429
 1252SOL    HW2 5061   0.897   0.163   2.277  0.4280 -0.1603  0.9126
 1252SOL    HW3 5062   0.899   0.099   2.140  1.1992  1.2285  0.2680
 1252SOL    MW4 5063   0.898   0.092   2.226 -0.1668  0.3382  0.1874
 1253SOL     OW 5064   0.892   0.319   2.350 -0.0241 -0.0269  0.5276
 1253SOL    HW2 5065   0.965   0.369   2.312 -0.7277  0.6565  0.0494
 1253SOL    HW3 5066   0.814   0.357   2.309 -0.4977 -2.4138 -0.8633
 1253SOL    MW4 5067   0.891   0.331   2.340 -0.1794 -0.2517  0.2811
 1254SOL     OW 5068   1.100   0.449   2.249  0.3863  0.2606  0.1113
 1254SOL    HW2 5069   1.187   0.435   2.287  1.4598 -0.8359 -2.6011
 1254SOL    HW3 5070   1.117   0.472   2.158 -2.1732 -0.7183 -0.6673
 1254SOL    MW4 5071   1.113   0.450   2.242  0.1901 -0.0132 -0.3495
 1255SOL     OW 5072   1.146   0.737   2.347 -0.6844 -0.3031  0.1002
 1255SOL    HW2 5073   1.066   0.789   2.345 -0.2915  0.3160  0.5538
 1255SOL    HW3 5074   1.117   0.648   2.325 -1.1767  0.3214 -1.9689
 1255SOL    MW4 5075   1.131   0.732   2.344 -0.6975 -0.1390 -0.1130
 1256SOL     OW 5076   0.877   0.847   2.327  0.4899  0.0845  0.2127
 1256SOL    HW2 5077   0.864   0.934   2.365  1.2175  0.4954 -0.4647
 1256SOL    HW3 5078   0.804   0.795   2.361  0.1577  0.9052  0.7767
 1256SOL    MW4 5079   0.866   0.852   2.336  0.5419  0.2470  0.1976
 1257SOL     OW 5080   0.860   1.140   2.389 -0.4491 -0.7550  0.1799
 1257SOL    HW2 5081   0.941   1.167   2.346 -0.0156 -0.0870  1.3759
 1257SOL    HW3 5082   0.793   1.199   2.354  0.1076  0.5306  1.2200
 1257SOL    MW4 5083   0.862   1.151   2.379 -0.3184 -0.4972  0.4752
 1258SOL     OW 5084   1.087   1.262   2.264  0.1120 -0.4786 -0.2483
 1258SOL    HW2 5085   1.169   1.224   2.297 -0.0706 -0.8840 -0.2509
 1258SOL    HW3 5086   1.096   1.260   2.169 -0.2684 -1.3596 -0.2698
 1258SOL    MW4 5087   1.099   1.257   2.256  0.0377 -0.6484 -0.2518
 1259SOL     OW 5088   1.088   1.542   2.315  0.1423 -0.1204  0.0261
 1259SOL    HW2 5089   1.004   1.582   2.292 -0.6795 -1.1738  1.1964
 1259SOL    HW3 5090   1.076   1.449   2.299  1.1070 -0.2762  0.1721
 1259SOL    MW4 5091   1.075   1.535   2.310  0.1612 -0.2798  0.1998
 1260SOL     OW 5092   0.830   1.639   2.246 -0.7623 -0.4802 -0.6522
 1260SOL    HW2 5093   0.835   1.730   2.276  2.1676 -1.1374  1.1035
 1260SOL    HW3 5094   0.834   1.645   2.150  1.7219  1.2007 -0.5018
 1260SOL    MW4 5095   0.831   1.652   2.237 -0.0480 -0.3452 -0.4005
 1261SOL     OW 5096   0.909   1.878   2.378  0.7443  0.0902 -0.2591
 1261SOL    HW2 5097   0.907   1.883   2.473  1.0582 -0.0713 -0.2420
 1261SOL    HW3 5098   0.954   1.959   2.351 -1.8159  1.5031 -0.4131
 1261SOL    MW4 5099   0.915   1.889   2.387  0.4479  0.2552 -0.2770
 1262SOL     OW 5100   1.089   2.085   2.293 -1.0010  0.0532  0.1521
 1262SOL    HW2 5101   1.162   2.032   2.325  0.3288  2.4723  1.2581
 1262SOL    HW3 5102   1.093   2.078   2.198 -0.4189 -1.2278  0.2591
 1262SOL    MW4 5103   1.099   2.077   2.285 -0.7488  0.2031  0.3119
 1263SOL     OW 5104   1.091   2.360   2.382 -0.2190 -0.0625  0.2736
 1263SOL    HW2 5105   1.179   2.391   2.359 -0.4937  0.8029  0.3608
 1263SOL    HW3 5106   1.088   2.270   2.351  0.1507  0.4123 -1.1782
 1263SOL    MW4 5107   1.102   2.353   2.375 -0.2065  0.1144  0.0935
 1264SOL     OW 5108   0.874   2.454   2.252  0.4419 -0.2916 -0.0934
 1264SOL    HW2 5109   0.953   2.419   2.293  0.7681  0.2136 -0.2776
 1264SOL    HW3 5110   0.901   2.471   2.161  0.4688  1.0012  0.1528
 1264SOL    MW4 5111   0.888   2.452   2.245  0.4885 -0.0544 -0.0854
 1265SOL     OW 5112   0.892   2.710   2.347  0.2426 -0.0198 -0.4674
 1265SOL    HW2 5113   0.879   2.708   2.442  2.3636  1.5743 -0.1150
 1265SOL    HW3 5114   0.895   2.618   2.321  2.9993 -0.5238  1.5052
 1265SOL    MW4 5115   0.890   2.698   2.356  0.8861  0.1240 -0.1602
 1266SOL     OW 5116   1.119   2.842   2.238 -0.0814  0.3413  0.0200
 1266SOL    HW2 5117   1.198   2.815   2.285  0.2105 -0.0877 -0.7023
 1266SOL    HW3 5118   1.051   2.781   2.268  0.4767 -0.9579 -1.2918
 1266SOL    MW4 5119   1.120   2.830   2.248  0.0308  0.1132 -0.2482
 1267SOL     OW 5120   1.110   3.075   2.380  0.1438 -0.1634 -1.2882
 1267SOL    HW2 5121   1.050   3.130   2.330  0.0771  1.0285  0.0793
 1267SOL    HW3 5122   1.105   2.989   2.337 -2.5147 -0.0787 -1.2319
 1267SOL    MW4 5123   1.102   3.071   2.367 -0.2155  0.0048 -1.1005
 1268SOL     OW 5124   0.916   3.216   2.238 -0.0589  0.5697 -0.2494
 1268SOL    HW2 5125   0.896   3.307   2.262 -0.0839  0.1190  1.4609
 1268SOL    HW3 5126   0.847   3.165   2.281 -0.1807 -0.2469 -1.4035
 1268SOL    MW4 5127   0.904   3.221   2.247 -0.0783  0.4025 -0.1757
 1269SOL     OW 5128   0.902   3.484   2.321 -0.7723  0.3845 -0.3133
 1269SOL    HW2 5129   0.904   3.483   2.417  0.9574  0.9825 -0.3140
 1269SOL    HW3 5130   0.812   3.507   2.299 -1.4011 -0.5615  1.1537
 1269SOL    MW4 5131   0.891   3.487   2.331 -0.6271  0.3386 -0.1199
 1270SOL     OW 5132   1.130   3.629   2.241 -0.4603 -0.1800 -0.3429
 1270SOL    HW2 5133   1.194   3.571   2.283 -1.0554 -0.0188  0.7893
 1270SOL    HW3 5134   1.046   3.587   2.257 -0.7551  0.2390 -0.7878
 1270SOL    MW4 5135   1.128   3.616   2.249 -0.5777 -0.1035 -0.2522
 1271SOL     OW 5136   1.131   3.901   2.339 -0.5970  0.2038 -1.0532
 1271SOL    HW2 5137   1.206   3.948   2.303 -0.1590  1.1950  1.0964
 1271SOL    HW3 5138   1.144   3.811   2.308  1.8302  0.2164 -0.2301
 1271SOL    MW4 5139   1.143   3.895   2.330 -0.2191  0.3362 -0.6611
 1272SOL     OW 5140   0.876   4.016   2.265 -0.1667  0.5951  0.0962
 1272SOL    HW2 5141   0.954   3.978   2.307 -0.1722  0.1001 -0.3327
 1272SOL    HW3 5142   0.805   3.955   2.287 -0.2696  0.6058 -0.2010
 1272SOL    MW4 5143   0.877   4.003   2.273 -0.1810  0.5312  0.0005
 1273SOL     OW 5144   0.875   4.266   2.364  0.1820  0.0017  0.2113
 1273SOL    HW2 5145   0.884   4.177   2.330 -0.8392  0.8525 -2.3816
 1273SOL    HW3 5146   0.792   4.297   2.329 -0.4798  1.2783  2.7910
 1273SOL    MW4 5147   0.865   4.258   2.355 -0.0401  0.2823  0.2093
 1274SOL     OW 5148   1.111   4.348   2.209  0.4638  0.2832  0.0138
 1274SOL    HW2 5149   1.026   4.337   2.253  0.3829  1.2176  0.0929
 1274SOL    HW3 5150   1.141   4.435   2.236  0.7027  0.6141 -1.2905
 1274SOL    MW4 5151   1.104   4.358   2.219  0.4846  0.4501 -0.1478
 1275SOL     OW 5152   1.569   4.644   2.374 -0.0779 -0.4139  0.3733
 1275SOL    HW2 5153   1.651   4.672   2.333  0.4112 -1.6231  0.4832
 1275SOL    HW3 5154   1.503   4.703   2.339  0.8983  0.8293  0.5661
 1275SOL    MW4 5155   1.571   4.656   2.364  0.1153 -0.4095  0.4132
 1276SOL     OW 5156   1.365   0.125   2.233  0.4121  0.4570  0.5734
 1276SOL    HW2 5157   1.360   0.203   2.289 -0.1259 -0.4508  1.7987
 1276SOL    HW3 5158   1.292   0.070   2.261 -0.9928  0.7832 -2.2815
 1276SOL    MW4 5159   1.355   0.128   2.244  0.1557  0.3803  0.3583
 1277SOL     OW 5160   1.364   0.385   2.362  0.2526  0.3518 -0.0744
 1277SOL    HW2 5161   1.372   0.370   2.456 -1.7731  2.0204  0.4149
 1277SOL    HW3 5162   1.449   0.418   2.335  0.9262 -0.3875  1.1232
 1277SOL    MW4 5163   1.376   0.388   2.371  0.0741  0.4744  0.1478
 1278SOL     OW 5164   1.589   0.511   2.246  0.0387  0.0014 -0.1053
 1278SOL    HW2 5165   1.670   0.461   2.255  0.3432  0.5683  0.3440
 1278SOL    HW3 5166   1.578   0.523   2.151 -0.0489 -0.9315 -0.2144
 1278SOL    MW4 5167   1.598   0.506   2.234  0.0674 -0.0468 -0.0603
 1279SOL     OW 5168   1.596   0.758   2.365  0.1476  0.2483  0.2164
 1279SOL    HW2 5169   1.680   0.796   2.339  0.1459  0.5651  0.6591
 1279SOL    HW3 5170   1.587   0.679   2.313 -0.2555  1.3292 -1.3813
 1279SOL    MW4 5171   1.606   0.753   2.355  0.0942  0.4327  0.0641
 1280SOL     OW 5172   1.367   0.868   2.263 -0.1889  0.3695  0.2540
 1280SOL    HW2 5173   1.441   0.829   2.310 -0.7587 -0.2833  0.6288
 1280SOL    HW3 5174   1.292   0.814   2.288 -0.7201  0.7718 -0.4428
 1280SOL    MW4 5175   1.367   0.855   2.272 -0.3344  0.3365  0.2115
 1281SOL     OW 5176   1.334   1.154   2.354  0.2933 -0.2563  0.3759
 1281SOL    HW2 5177   1.307   1.142   2.445  2.3554 -0.1138  1.0314
 1281SOL    HW3 5178   1.343   1.065   2.320 -0.5493 -0.3094  0.2574
 1281SOL    MW4 5179   1.331   1.141   2.362  0.4542 -0.2445  0.4470
 1282SOL     OW 5180   1.596   1.227   2.268 -0.0368 -0.4716 -0.0300
 1282SOL    HW2 5181   1.513   1.201   2.308 -0.6917  1.2251 -0.2417
 1282SOL    HW3 5182   1.574   1.240   2.176  0.6382 -0.7506 -0.2279
 1282SOL    MW4 5183   1.582   1.225   2.261 -0.0342 -0.2844 -0.0839
 1283SOL     OW 5184   1.554   1.477   2.375 -0.9892  0.5434  0.7070
 1283SOL    HW2 5185   1.631   1.529   2.354  0.0673 -0.0285  3.0505
 1283SOL    HW3 5186   1.567   1.395   2.327 -1.2921  1.3183 -0.7348
 1283SOL    MW4 5187   1.566   1.473   2.366 -0.8898  0.5703  0.8261
 1284SOL     OW 5188   1.336   1.679   2.291 -0.1436  0.2166 -0.0906
 1284SOL    HW2 5189   1.401   1.623   2.333  1.0574  0.4630 -1.5674
 1284SOL    HW3 5190   1.255   1.628   2.293  0.2928 -0.4389  1.0032
 1284SOL    MW4 5191   1.334   1.665   2.297  0.0724  0.1627 -0.1411
 1285SOL     OW 5192   1.300   1.932   2.396  0.0488 -0.4975 -0.4262
 1285SOL    HW2 5193   1.382   1.976   2.372 -0.7192 -0.8764 -4.0379
 1285SOL    HW3 5194   1.308   1.844   2.359 -1.8784 -0.6174 -0.6119
 1285SOL    MW4 5195   1.312   1.926   2.388 -0.3067 -0.5634 -0.9272
 1286SOL     OW 5196   1.539   2.054   2.306  0.3407 -0.1436 -0.4118
 1286SOL    HW2 5197   1.610   1.995   2.331 -0.1270 -0.8874 -0.8093
 1286SOL    HW3 5198   1.543   2.057   2.210 -0.5184 -0.6446 -0.4698
 1286SOL    MW4 5199   1.549   2.046   2.297  0.1656 -0.3080 -0.4721
 1287SOL     OW 5200   1.567   2.316   2.370  0.2030  0.2589  0.4381
 1287SOL    HW2 5201   1.542   2.311   2.463  0.0037  1.2077  0.4421
 1287SOL    HW3 5202   1.571   2.225   2.342 -1.5815  0.0078  0.9020
 1287SOL    MW4 5203   1.564   2.303   2.379 -0.0587  0.3512  0.4995
 1288SOL     OW 5204   1.333   2.465   2.309  0.2912 -0.0598  0.6572
 1288SOL    HW2 5205   1.416   2.425   2.336  0.0477 -0.7665  0.3691
 1288SOL    HW3 5206   1.339   2.470   2.213  0.3263  0.6102  0.6915
 1288SOL    MW4 5207   1.345   2.460   2.300  0.2637 -0.0646  0.6237
 1289SOL     OW 5208   1.339   2.740   2.374 -0.4144 -0.2148 -0.0099
 1289SOL    HW2 5209   1.422   2.750   2.328 -0.8392 -0.5374 -0.8612
 1289SOL    HW3 5210   1.319   2.647   2.367 -0.7177 -0.1822  0.4131
 1289SOL    MW4 5211   1.348   2.729   2.367 -0.5103 -0.2532 -0.0663
 1290SOL     OW 5212   1.575   2.814   2.241  0.2364  0.2423 -0.0877
 1290SOL    HW2 5213   1.597   2.905   2.263 -1.2459  0.6071 -0.0430
 1290SOL    HW3 5214   1.566   2.813   2.146 -1.5289  0.5728  0.0594
 1290SOL    MW4 5215   1.577   2.826   2.232 -0.1920  0.3340 -0.0625
 1291SOL     OW 5216   1.596   3.074   2.316 -0.5649 -0.6070 -0.5000
 1291SOL    HW2 5217   1.586   3.082   2.411  0.4748  0.0674 -0.4368
 1291SOL    HW3 5218   1.517   3.111   2.279  0.8348  3.0302  0.0026
 1291SOL    MW4 5219   1.584   3.080   2.323 -0.2432 -0.0379 -0.4253
 1292SOL     OW 5220   1.360   3.223   2.277  0.1176 -0.2877  0.1911
 1292SOL    HW2 5221   1.281   3.179   2.307  0.0596  0.9162  1.8886
 1292SOL    HW3 5222   1.348   3.233   2.183 -0.6777 -2.2127  0.0665
 1292SOL    MW4 5223   1.348   3.219   2.269  0.0049 -0.3827  0.3986
 1293SOL     OW 5224   1.345   3.503   2.381 -0.2386  0.0649  0.1632
 1293SOL    HW2 5225   1.337   3.510   2.476 -0.2392  1.2652  0.0840
 1293SOL    HW3 5226   1.344   3.409   2.364  1.2549 -0.2172  1.4794
 1293SOL    MW4 5227   1.344   3.492   2.392 -0.0416  0.1860  0.3266
 1294SOL     OW 5228   1.580   3.623   2.270 -0.7451  0.6133 -0.4528
 1294SOL    HW2 5229   1.578   3.715   2.297 -0.8364  0.4608  0.0602
 1294SOL    HW3 5230   1.497   3.587   2.299 -0.8756  0.4676 -1.0115
 1294SOL    MW4 5231   1.569   3.630   2.278 -0.7744  0.5744 -0.4590
 1295SOL     OW 5232   1.617   3.879   2.354 -0.1046  0.2677  0.2730
 1295SOL    HW2 5233   1.604   3.883   2.449  0.9315  0.1636  0.4234
 1295SOL    HW3 5234   1.691   3.937   2.337 -0.2314  0.2253 -0.4633
 1295SOL    MW4 5235   1.625   3.887   2.364  0.0154  0.2480  0.1955
 1296SOL     OW 5236   1.376   3.993   2.229 -0.1811  0.4233 -0.7335
 1296SOL    HW2 5237   1.465   3.960   2.234 -0.9195 -1.4235  1.0974
 1296SOL    HW3 5238   1.351   3.984   2.137  1.3806  0.6250 -1.1871
 1296SOL    MW4 5239   1.385   3.988   2.218 -0.0726  0.2065 -0.5519
 1297SOL     OW 5240   1.317   4.248   2.367 -0.1686  0.1769 -0.0880
 1297SOL    HW2 5241   1.334   4.160   2.333 -2.6159 -1.1193  1.8204
 1297SOL    HW3 5242   1.253   4.286   2.307 -0.1629  0.0997 -0.1411
 1297SOL    MW4 5243   1.310   4.241   2.355 -0.4907 -0.0048  0.1571
 1298SOL     OW 5244   1.530   4.386   2.255  0.3461  0.1969 -0.4179
 1298SOL    HW2 5245   1.455   4.339   2.291 -0.6829  0.3864 -2.2416
 1298SOL    HW3 5246   1.518   4.476   2.284  0.2120  0.0976 -0.1689
 1298SOL    MW4 5247   1.518   4.392   2.263  0.1928  0.2089 -0.6256
 1299SOL     OW 5248   2.115   0.045   2.346 -0.5205  0.3031  0.2490
 1299SOL    HW2 5249   2.192   0.086   2.308 -0.3550  0.3579  0.6399
 1299SOL    HW3 5250   2.111  -0.042   2.306 -0.0417  0.1592  0.5182
 1299SOL    MW4 5251   2.125   0.039   2.336 -0.4354  0.2913  0.3359
 1300SOL     OW 5252   1.829   0.111   2.286 -0.1135 -0.6016 -0.4390
 1300SOL    HW2 5253   1.820   0.202   2.315 -1.3175 -1.0997  0.8445
 1300SOL    HW3 5254   1.921   0.091   2.298  0.0539  0.2808 -0.1897
 1300SOL    MW4 5255   1.840   0.120   2.291 -0.2502 -0.5509 -0.2367
 1301SOL     OW 5256   1.814   0.380   2.349  0.1001  0.1178  0.7272
 1301SOL    HW2 5257   1.804   0.403   2.442  0.5063  1.2783  0.4956
 1301SOL    HW3 5258   1.888   0.433   2.320 -1.1118  1.0589 -0.6910
 1301SOL    MW4 5259   1.822   0.390   2.358 -0.0063  0.3951  0.5093
 1302SOL     OW 5260   2.046   0.499   2.251  0.5076  0.2575 -0.1817
 1302SOL    HW2 5261   2.050   0.581   2.299 -0.8789  0.1268  0.1839
 1302SOL    HW3 5262   2.035   0.526   2.159 -0.0194  0.4968 -0.0549
 1302SOL    MW4 5263   2.045   0.513   2.245  0.2551  0.2719 -0.1171
 1303SOL     OW 5264   2.032   0.743   2.423  0.2327  0.2552  0.4463
 1303SOL    HW2 5265   2.102   0.794   2.384  0.4321  0.0081  0.4819
 1303SOL    HW3 5266   1.954   0.767   2.374  0.6728 -0.8870 -0.8434
 1303SOL    MW4 5267   2.031   0.752   2.412  0.3171  0.0719  0.2806
 1304SOL     OW 5268   1.821   0.861   2.272 -0.4356 -0.0992 -0.1561
 1304SOL    HW2 5269   1.837   0.951   2.301 -0.8986  0.1744 -0.7494
 1304SOL    HW3 5270   1.806   0.868   2.178  2.1230 -1.0951 -0.6844
 1304SOL    MW4 5271   1.821   0.873   2.263 -0.1591 -0.1944 -0.3040
 1305SOL     OW 5272   1.823   1.138   2.356 -0.5014 -0.0148  0.0347
 1305SOL    HW2 5273   1.899   1.195   2.343 -0.7712  0.2860 -0.2244
 1305SOL    HW3 5274   1.752   1.183   2.311 -0.2177 -1.7089 -2.1904
 1305SOL    MW4 5275   1.824   1.151   2.349 -0.4995 -0.1985 -0.2930
 1306SOL     OW 5276   2.040   1.300   2.277  0.2496  0.1650 -0.3010
 1306SOL    HW2 5277   2.034   1.382   2.327 -0.2674  0.0375 -0.1461
 1306SOL    HW3 5278   2.015   1.326   2.188 -1.2949 -0.0807  0.0392
 1306SOL    MW4 5279   2.036   1.315   2.271 -0.0224  0.1158 -0.2356
 1307SOL     OW 5280   2.026   1.570   2.360  0.0448  0.3550 -0.1501
 1307SOL    HW2 5281   2.015   1.539   2.450  0.0106  2.3871  0.5756
 1307SOL    HW3 5282   1.938   1.594   2.332  0.0704 -0.1872 -0.6921
 1307SOL    MW4 5283   2.013   1.569   2.369  0.0436  0.5517 -0.1261
 1308SOL     OW 5284   1.767   1.651   2.293  0.1856 -0.1711 -0.4261
 1308SOL    HW2 5285   1.787   1.743   2.310 -0.7481  0.3080 -1.8040
 1308SOL    HW3 5286   1.769   1.643   2.198 -0.5622 -1.3794 -0.3532
 1308SOL    MW4 5287   1.770   1.662   2.283 -0.0362 -0.2673 -0.5984
 1309SOL     OW 5288   1.801   1.909   2.345  0.0853 -0.9156 -0.3020
 1309SOL    HW2 5289   1.804   1.897   2.440 -1.0317  1.4822  0.0914
 1309SOL    HW3 5290   1.886   1.948   2.323 -0.1612 -0.2578 -0.0900
 1309SOL    MW4 5291   1.813   1.913   2.355 -0.0944 -0.5125 -0.2222
 1310SOL     OW 5292   2.041   2.066   2.233 -0.1835 -0.4114  0.0011
 1310SOL    HW2 5293   2.123   2.019   2.242  0.3634  0.7189  0.9928
 1310SOL    HW3 5294   2.024   2.067   2.139  1.9625  1.0640 -0.4151
 1310SOL    MW4 5295   2.049   2.060   2.222  0.1721 -0.0677  0.0770
 1311SOL     OW 5296   1.998   2.311   2.377 -0.1734 -0.1358  0.1635
 1311SOL    HW2 5297   2.056   2.374   2.333 -1.1992  0.8900  0.2555
 1311SOL    HW3 5298   2.018   2.227   2.335 -1.5981  0.9183 -2.7519
 1311SOL    MW4 5299   2.008   2.308   2.365 -0.4966  0.1385 -0.2089
 1312SOL     OW 5300   1.785   2.416   2.232 -0.6683  0.2654 -0.0513
 1312SOL    HW2 5301   1.862   2.374   2.272 -0.2725 -0.3790 -1.4461
 1312SOL    HW3 5302   1.711   2.384   2.284 -0.0099  0.8504  1.2703
 1312SOL    MW4 5303   1.785   2.406   2.244 -0.5293  0.2575 -0.0613
 1313SOL     OW 5304   1.792   2.692   2.335  0.0144 -0.5468  0.4876
 1313SOL    HW2 5305   1.789   2.598   2.314 -1.2157 -0.2696 -0.6652
 1313SOL    HW3 5306   1.706   2.724   2.310  1.0788  1.2719 -0.9794
 1313SOL    MW4 5307   1.780   2.684   2.329 -0.0073 -0.2701  0.1421
 1314SOL     OW 5308   2.026   2.853   2.250 -0.3257  0.0080  0.0627
 1314SOL    HW2 5309   2.113   2.818   2.267  0.0553  1.5265  1.4182
 1314SOL    HW3 5310   1.967   2.790   2.292  0.2996  0.4746  1.6884
 1314SOL    MW4 5311   2.029   2.840   2.258 -0.1926  0.2699  0.4559
 1315SOL     OW 5312   2.050   3.105   2.373  0.4905 -0.0679  0.7688
 1315SOL    HW2 5313   2.117   3.151   2.324 -1.1384  0.7008 -0.7957
 1315SOL    HW3 5314   2.045   3.018   2.332  0.2261  0.0332  0.5832
 1315SOL    MW4 5315   2.058   3.100   2.361  0.2408  0.0467  0.5379
 1316SOL     OW 5316   1.809   3.236   2.254 -0.2060  0.4087  0.2084
 1316SOL    HW2 5317   1.884   3.202   2.302  0.3920  1.3813 -0.0211
 1316SOL    HW3 5318   1.737   3.179   2.279  0.9724 -1.6131 -0.9066
 1316SOL    MW4 5319   1.810   3.224   2.264  0.0284  0.2701  0.0312
 1317SOL     OW 5320   1.798   3.475   2.382 -0.3086  0.0215  0.2924
 1317SOL    HW2 5321   1.803   3.400   2.323  1.1036  0.8401 -0.6744
 1317SOL    HW3 5322   1.732   3.532   2.343 -1.2948 -0.6550  0.9621
 1317SOL    MW4 5323   1.790   3.473   2.369 -0.2525  0.0403  0.2530
 1318SOL     OW 5324   2.032   3.607   2.307  0.0010  0.0369 -0.3712
 1318SOL    HW2 5325   1.953   3.555   2.323 -0.4349  0.7799 -0.1007
 1318SOL    HW3 5326   2.044   3.605   2.212  0.3990 -1.1524 -0.3116
 1318SOL    MW4 5327   2.023   3.600   2.297 -0.0041 -0.0224 -0.3276
 1319SOL     OW 5328   2.034   3.883   2.391  0.1491  0.2856 -0.1900
 1319SOL    HW2 5329   2.016   3.866   2.484  1.4461  0.3736  0.0779
 1319SOL    HW3 5330   2.030   3.796   2.350  0.3172  0.1513  0.0771
 1319SOL    MW4 5331   2.031   3.869   2.398  0.3421  0.2794 -0.1192
 1320SOL     OW 5332   1.836   4.031   2.242 -0.5052 -0.3664 -0.3896
 1320SOL    HW2 5333   1.908   3.990   2.289  0.4943  0.8833 -0.8006
 1320SOL    HW3 5334   1.847   4.005   2.151  0.7993  1.6927 -0.8481
 1320SOL    MW4 5335   1.847   4.022   2.236 -0.2011  0.0706 -0.5045
 1321SOL     OW 5336   1.809   4.322   2.340  0.1683  0.2840 -0.2317
 1321SOL    HW2 5337   1.809   4.237   2.296  1.4758 -0.2031  0.6725
 1321SOL    HW3 5338   1.726   4.362   2.315 -0.5124 -1.3039 -0.5786
 1321SOL    MW4 5339   1.798   4.316   2.331  0.2508  0.0105 -0.1583
 1322SOL     OW 5340   2.042   4.456   2.248 -0.0358  0.4250 -0.2240
 1322SOL    HW2 5341   1.959   4.434   2.291  1.0693 -1.8328  0.8124
 1322SOL    HW3 5342   2.034   4.419   2.160  0.2818 -0.7730  0.2382
 1322SOL    MW4 5343   2.030   4.448   2.242  0.1519 -0.0315 -0.0267
 1323SOL     OW 5344   2.489   4.633   2.380  0.1452  0.2394  0.0155
 1323SOL    HW2 5345   2.572   4.666   2.345  0.6043 -1.2688 -0.3503
 1323SOL    HW3 5346   2.479   4.547   2.341 -1.1319  0.0233  0.7996
 1323SOL    MW4 5347   2.499   4.626   2.370  0.0372  0.0119  0.0703
 1324SOL     OW 5348   2.325   0.149   2.220 -0.0255 -0.3795  0.2422
 1324SOL    HW2 5349   2.320   0.233   2.267 -1.5669 -0.7405  0.7533
 1324SOL    HW3 5350   2.391   0.099   2.268  1.7230  0.9326 -0.7345
 1324SOL    MW4 5351   2.333   0.154   2.233  0.0019 -0.2540  0.1807
 1325SOL     OW 5352   2.282   0.378   2.362 -0.1091 -0.6762 -0.5193
 1325SOL    HW2 5353   2.355   0.433   2.334 -0.3145 -0.8866 -1.4877
 1325SOL    HW3 5354   2.205   0.416   2.320 -0.4843 -0.7711  0.0719
 1325SOL    MW4 5355   2.282   0.390   2.353 -0.1857 -0.7165 -0.5689
 1326SOL     OW 5356   2.496   0.533   2.272  0.1970 -0.3366  0.2072
 1326SOL    HW2 5357   2.567   0.479   2.308  0.6932 -0.2497 -0.6266
 1326SOL    HW3 5358   2.501   0.519   2.178 -1.4236 -0.9462  0.2137
 1326SOL    MW4 5359   2.506   0.524   2.265  0.0486 -0.4055  0.0982
 1327SOL     OW 5360   2.484   0.776   2.383  0.3322  0.2125  0.2034
 1327SOL    HW2 5361   2.558   0.819   2.339 -0.6404  1.5359 -0.1525
 1327SOL    HW3 5362   2.476   0.692   2.338  1.2937  0.2663 -0.0992
 1327SOL    MW4 5363   2.493   0.771   2.371  0.3307  0.3942  0.1163
 1328SOL     OW 5364   2.255   0.883   2.285  0.2975 -0.1947 -0.2555
 1328SOL    HW2 5365   2.269   0.977   2.292 -0.5938 -0.1750  1.4566
 1328SOL    HW3 5366   2.332   0.844   2.325 -0.0708 -0.1763  0.4733
 1328SOL    MW4 5367   2.267   0.890   2.291  0.1314 -0.1897  0.0665
 1329SOL     OW 5368   2.269   1.148   2.320 -0.5156  0.4359 -0.2528
 1329SOL    HW2 5369   2.347   1.198   2.295 -0.1273 -0.1315 -0.1896
 1329SOL    HW3 5370   2.197   1.208   2.305 -0.0114  1.1913  0.2977
 1329SOL    MW4 5371   2.270   1.162   2.314 -0.3979  0.4607 -0.1717
 1330SOL     OW 5372   2.486   1.302   2.220  0.5956  0.0023 -0.2669
 1330SOL    HW2 5373   2.563   1.256   2.254 -0.5033 -0.7455  1.2750
 1330SOL    HW3 5374   2.494   1.391   2.253 -0.4016 -0.6860  1.9407
 1330SOL    MW4 5375   2.497   1.307   2.229  0.3190 -0.1873  0.2282
 1331SOL     OW 5376   2.471   1.534   2.368 -0.1201  0.1884  0.3722
 1331SOL    HW2 5377   2.470   1.547   2.463  0.5857  0.5740  0.3311
 1331SOL    HW3 5378   2.552   1.575   2.339  0.1897 -0.8584 -0.2638
 1331SOL    MW4 5379   2.481   1.541   2.377  0.0138  0.1010  0.2828
 1332SOL     OW 5380   2.261   1.676   2.264  0.0661 -0.1233  0.1194
 1332SOL    HW2 5381   2.324   1.614   2.302 -1.2340 -1.2478  0.5065
 1332SOL    HW3 5382   2.177   1.648   2.300 -1.1608 -0.9437 -3.2750
 1332SOL    MW4 5383   2.259   1.664   2.274 -0.2673 -0.3800 -0.2775
 1333SOL     OW 5384   2.255   1.955   2.325 -0.4728  0.1994  0.0137
 1333SOL    HW2 5385   2.345   1.985   2.316 -0.6136  0.0786 -1.8564
 1333SOL    HW3 5386   2.258   1.861   2.304 -1.5533  0.8762 -3.3951
 1333SOL    MW4 5387   2.267   1.946   2.321 -0.6342  0.2728 -0.6826
 1334SOL     OW 5388   2.515   2.043   2.276  0.2669  0.5669 -0.5387
 1334SOL    HW2 5389   2.595   2.002   2.307 -0.2629  0.4589  0.7508
 1334SOL    HW3 5390   2.515   2.029   2.182  0.5029 -1.6556 -0.2365
 1334SOL    MW4 5391   2.525   2.036   2.268  0.2282  0.2596 -0.3288
 1335SOL     OW 5392   2.421   2.301   2.357 -0.2262 -0.1646 -0.2302
 1335SOL    HW2 5393   2.500   2.355   2.349 -0.7131  0.7326  0.9760
 1335SOL    HW3 5394   2.449   2.214   2.327  0.8370  0.4927 -1.1740
 1335SOL    MW4 5395   2.435   2.297   2.352 -0.1502  0.0408 -0.1953
 1336SOL     OW 5396   2.210   2.450   2.248 -1.1076  0.1191 -0.1863
 1336SOL    HW2 5397   2.225   2.539   2.280 -1.9659  0.7741 -1.5669
 1336SOL    HW3 5398   2.278   2.398   2.290 -0.0380  1.5818 -0.0620
 1336SOL    MW4 5399   2.221   2.455   2.258 -1.0796  0.3986 -0.3519
 1337SOL     OW 5400   2.249   2.697   2.353 -0.2216 -0.1085 -0.3655
 1337SOL    HW2 5401   2.246   2.697   2.448  0.0138  0.0418 -0.3582
 1337SOL    HW3 5402   2.317   2.761   2.331  0.1841 -0.6204 -0.6185
 1337SOL    MW4 5403   2.258   2.706   2.362 -0.1369 -0.1559 -0.3979
 1338SOL     OW 5404   2.485   2.811   2.284  0.0799  0.2251  0.4165
 1338SOL    HW2 5405   2.570   2.781   2.318  0.0464 -0.8435 -0.4234
 1338SOL    HW3 5406   2.491   2.798   2.190 -0.3191  1.9498  0.1352
 1338SOL    MW4 5407   2.497   2.805   2.276  0.0226  0.3116  0.2687
 1339SOL     OW 5408   2.475   3.075   2.355  0.3068  0.6284  0.0899
 1339SOL    HW2 5409   2.560   3.112   2.330  0.9605 -0.1904  1.0337
 1339SOL    HW3 5410   2.479   2.984   2.326  0.4678  0.0916  1.7378
 1339SOL    MW4 5411   2.487   3.068   2.348  0.4144  0.4497  0.4320
 1340SOL     OW 5412   2.264   3.218   2.255  0.1363  0.1760  0.0373
 1340SOL    HW2 5413   2.281   3.305   2.291 -1.6340 -0.0507  1.4966
 1340SOL    HW3 5414   2.339   3.165   2.282  0.7492  1.0055 -0.0346
 1340SOL    MW4 5415   2.276   3.223   2.263 -0.0162  0.2556  0.2205
 1341SOL     OW 5416   2.258   3.471   2.380 -0.1274  0.4039  0.1443
 1341SOL    HW2 5417   2.260   3.457   2.475 -0.9701 -0.0115  0.1057
 1341SOL    HW3 5418   2.177   3.520   2.365 -0.5431 -0.4691 -0.4853
 1341SOL    MW4 5419   2.248   3.476   2.391 -0.2935  0.2341  0.0563
 1342SOL     OW 5420   2.461   3.613   2.250 -0.1361 -0.0706  0.3961
 1342SOL    HW2 5421   2.454   3.697   2.296 -0.5566 -0.1658  0.5093
 1342SOL    HW3 5422   2.399   3.556   2.295  0.3330 -0.5186  0.4832
 1342SOL    MW4 5423   2.452   3.616   2.262 -0.1295 -0.1423  0.4227
 1343SOL     OW 5424   2.457   3.872   2.343  0.0934  0.3336 -0.1450
 1343SOL    HW2 5425   2.455   3.877   2.439 -1.2707 -1.4030 -0.0614
 1343SOL    HW3 5426   2.378   3.918   2.315 -0.9633 -1.5441 -0.3001
 1343SOL    MW4 5427   2.446   3.879   2.352 -0.2263 -0.1433 -0.1545
 1344SOL     OW 5428   2.235   4.007   2.258 -0.3485 -0.6281 -0.3285
 1344SOL    HW2 5429   2.231   4.100   2.281  1.9953 -0.8471  1.2222
 1344SOL    HW3 5430   2.174   3.964   2.317  0.5829 -0.3685  0.8392
 1344SOL    MW4 5431   2.227   4.013   2.269  0.0834 -0.6232  0.0300
 1345SOL     OW 5432   2.228   4.275   2.331  0.4498  0.4470  0.3347
 1345SOL    HW2 5433   2.241   4.271   2.426 -0.3955  2.6426  0.5637
 1345SOL    HW3 5434   2.150   4.328   2.319 -0.5686 -1.3956 -1.5395
 1345SOL    MW4 5435   2.220   4.282   2.342  0.2036  0.4935  0.1178
 1346SOL     OW 5436   2.474   4.396   2.230 -0.1156 -0.1950  0.0453
 1346SOL    HW2 5437   2.548   4.339   2.251 -0.7756 -0.8203  0.6842
 1346SOL    HW3 5438   2.396   4.345   2.252 -0.7165  0.9226  0.5718
 1346SOL    MW4 5439   2.473   4.382   2.236 -0.2818 -0.1302  0.1988
 1347SOL     OW 5440   2.946   4.650   2.356  0.2910  0.1080 -0.1714
 1347SOL    HW2 5441   3.029   4.682   2.322  0.1920 -0.1565 -0.6742
 1347SOL    HW3 5442   2.933   4.565   2.313  1.0839 -1.1290  1.9762
 1347SOL    MW4 5443   2.955   4.643   2.345  0.3827 -0.0901  0.0458
 1348SOL     OW 5444   2.705   0.125   2.270 -0.5204 -0.1658  0.1339
 1348SOL    HW2 5445   2.697   0.206   2.320  1.6474  0.2580 -0.1520
 1348SOL    HW3 5446   2.793   0.093   2.290  0.5826  0.2438 -3.6816
 1348SOL    MW4 5447   2.715   0.132   2.279 -0.0889 -0.0559 -0.4072
 1349SOL     OW 5448   2.676   0.375   2.393 -0.0470 -0.0791 -0.0210
 1349SOL    HW2 5449   2.701   0.368   2.485 -0.1134 -1.0414 -0.0747
 1349SOL    HW3 5450   2.751   0.418   2.351 -0.5106  1.4634  0.6912
 1349SOL    MW4 5451   2.689   0.380   2.400 -0.1168 -0.0026  0.0660
 1350SOL     OW 5452   2.903   0.467   2.256 -0.1165 -0.3303 -0.3767
 1350SOL    HW2 5453   2.915   0.555   2.292 -2.2184 -0.0545 -0.3135
 1350SOL    HW3 5454   2.919   0.478   2.162 -0.7338  0.1910 -0.4220
 1350SOL    MW4 5455   2.907   0.480   2.248 -0.4754 -0.2251 -0.3743
 1351SOL     OW 5456   2.911   0.748   2.337 -0.4728 -0.0073 -0.1309
 1351SOL    HW2 5457   2.898   0.749   2.432  0.0824 -0.5660 -0.0439
 1351SOL    HW3 5458   2.835   0.793   2.302 -1.1090 -0.5385  0.5405
 1351SOL    MW4 5459   2.899   0.754   2.345 -0.4835 -0.1510 -0.0310
 1352SOL     OW 5460   2.681   0.895   2.253  0.0261  0.2604 -0.0856
 1352SOL    HW2 5461   2.682   0.989   2.270  0.8897  0.1786  0.3412
 1352SOL    HW3 5462   2.694   0.887   2.158  1.3009  0.5285  0.0671
 1352SOL    MW4 5463   2.683   0.906   2.242  0.3083  0.2850 -0.0093
 1353SOL     OW 5464   2.684   1.157   2.326 -0.3937  0.0463  0.3741
 1353SOL    HW2 5465   2.675   1.176   2.419  1.6555 -0.5081  0.6892
 1353SOL    HW3 5466   2.772   1.185   2.303 -1.1172  0.8755 -1.5953
 1353SOL    MW4 5467   2.694   1.163   2.335 -0.2189  0.0825  0.1559
 1354SOL     OW 5468   2.925   1.269   2.234 -0.1020 -0.4442 -0.3284
 1354SOL    HW2 5469   3.008   1.227   2.254 -0.2387 -0.6154 -0.1166
 1354SOL    HW3 5470   2.932   1.295   2.142  0.2706 -0.2596 -0.2470
 1354SOL    MW4 5471   2.937   1.267   2.225 -0.0708 -0.4424 -0.2897
 1355SOL     OW 5472   2.925   1.533   2.336 -0.1150 -0.2408 -0.2699
 1355SOL    HW2 5473   2.938   1.536   2.431  0.3854 -0.5143 -0.3241
 1355SOL    HW3 5474   2.930   1.440   2.314 -0.7965 -0.2274 -0.4930
 1355SOL    MW4 5475   2.928   1.521   2.346 -0.1390 -0.2751 -0.3064
 1356SOL     OW 5476   2.702   1.659   2.260  0.3242  0.0495 -0.0584
 1356SOL    HW2 5477   2.787   1.624   2.288  0.0515 -0.7295 -0.1960
 1356SOL    HW3 5478   2.708   1.664   2.165  0.0756 -0.3839 -0.0989
 1356SOL    MW4 5479   2.714   1.655   2.251  0.2553 -0.1105 -0.0820
 1357SOL     OW 5480   2.751   1.936   2.382 -0.5120  0.1190 -0.3527
 1357SOL    HW2 5481   2.738   1.921   2.475  0.6438 -0.4474 -0.2783
 1357SOL    HW3 5482   2.737   1.851   2.341  0.8420 -0.0391 -0.4946
 1357SOL    MW4 5483   2.747   1.923   2.389 -0.1807  0.0235 -0.3617
 1358SOL     OW 5484   2.959   2.099   2.261  0.5622  0.3133  0.3756
 1358SOL    HW2 5485   3.032   2.041   2.280  0.0985 -0.4312 -0.1126
 1358SOL    HW3 5486   2.887   2.065   2.314  0.4804  0.8751  0.6368
 1358SOL    MW4 5487   2.959   2.087   2.271  0.4904  0.2892  0.3457
 1359SOL     OW 5488   2.914   2.361   2.361  0.5201 -0.2673  0.1101
 1359SOL    HW2 5489   2.907   2.346   2.455  1.5552 -1.1561  0.0527
 1359SOL    HW3 5490   2.928   2.274   2.324  1.8013  0.2807 -0.7106
 1359SOL    MW4 5491   2.915   2.347   2.368  0.8261 -0.3123 -0.0057
 1360SOL     OW 5492   2.668   2.479   2.289 -0.1144  0.2220 -0.0887
 1360SOL    HW2 5493   2.749   2.436   2.315 -0.3848 -0.8160 -0.9435
 1360SOL    HW3 5494   2.649   2.445   2.202 -1.2687  0.7372 -0.0506
 1360SOL    MW4 5495   2.676   2.469   2.281 -0.3023  0.1531 -0.1967
 1361SOL     OW 5496   2.722   2.731   2.359  0.0019  0.5666  0.0859
 1361SOL    HW2 5497   2.814   2.754   2.346 -0.2693  0.7738 -1.5214
 1361SOL    HW3 5498   2.717   2.639   2.332  0.1829 -0.1277  2.3173
 1361SOL    MW4 5499   2.733   2.722   2.354 -0.0100  0.5021  0.1681
 1362SOL     OW 5500   2.960   2.838   2.312 -0.2463  0.0597  0.0218
 1362SOL    HW2 5501   2.938   2.924   2.349 -2.4456  0.1671 -1.4491
 1362SOL    HW3 5502   2.933   2.845   2.220  1.9272 -1.3566 -0.7576
 1362SOL    MW4 5503   2.954   2.850   2.305 -0.2499 -0.1128 -0.2749
 1363SOL     OW 5504   2.930   3.110   2.385  0.6494  0.3367 -0.3806
 1363SOL    HW2 5505   2.995   3.171   2.351  0.1285  0.6374 -0.8560
 1363SOL    HW3 5506   2.849   3.135   2.342  0.0243  0.5408  0.8945
 1363SOL    MW4 5507   2.928   3.121   2.375  0.4983  0.4034 -0.2749
 1364SOL     OW 5508   2.695   3.215   2.276  0.1769  0.0288  0.0855
 1364SOL    HW2 5509   2.690   3.307   2.302  0.7963  0.2882 -0.6674
 1364SOL    HW3 5510   2.699   3.218   2.180  1.6711 -0.7060  0.1108
 1364SOL    MW4 5511   2.695   3.228   2.267  0.4556 -0.0341 -0.0105
 1365SOL     OW 5512   2.695   3.482   2.363  0.2655  0.1631  0.0653
 1365SOL    HW2 5513   2.777   3.528   2.349 -0.0213  0.9245  0.8597
 1365SOL    HW3 5514   2.630   3.533   2.315 -0.1218  0.8280  1.2786
 1365SOL    MW4 5515   2.697   3.495   2.355  0.1762  0.3512  0.3302
 1366SOL     OW 5516   2.935   3.579   2.259  0.7868 -0.2482  0.3647
 1366SOL    HW2 5517   3.012   3.534   2.293  1.0855 -0.8018 -1.0027
 1366SOL    HW3 5518   2.941   3.667   2.294  0.6342 -1.0251  2.4213
 1366SOL    MW4 5519   2.946   3.584   2.268  0.8061 -0.4237  0.4559
 1367SOL     OW 5520   2.904   3.839   2.352 -0.0764  0.1956  0.1835
 1367SOL    HW2 5521   2.912   3.853   2.446  1.1436 -0.0230  0.1239
 1367SOL    HW3 5522   2.818   3.874   2.329  0.7812  2.8632  0.8931
 1367SOL    MW4 5523   2.893   3.845   2.361  0.1979  0.5186  0.2692
 1368SOL     OW 5524   2.689   3.990   2.250 -0.1187 -0.0207 -0.6362
 1368SOL    HW2 5525   2.604   3.951   2.270  0.0951  0.2300  0.8415
 1368SOL    HW3 5526   2.696   3.985   2.155 -1.8202  0.0527 -0.7767
 1368SOL    MW4 5527   2.679   3.984   2.240 -0.3150  0.0219 -0.4594
 1369SOL     OW 5528   2.694   4.256   2.364  0.1482 -0.0893 -0.7940
 1369SOL    HW2 5529   2.683   4.244   2.458  1.0232  0.5331 -0.6076
 1369SOL    HW3 5530   2.690   4.168   2.328  1.2937 -0.4785 -0.0046
 1369SOL    MW4 5531   2.692   4.243   2.371  0.4148 -0.0587 -0.6654
 1370SOL     OW 5532   2.914   4.399   2.252 -0.3368  0.1403 -0.1648
 1370SOL    HW2 5533   2.984   4.358   2.303 -0.7107 -1.7709 -1.1593
 1370SOL    HW3 5534   2.836   4.349   2.274 -1.3134  1.9196  0.5153
 1370SOL    MW4 5535   2.913   4.387   2.262 -0.5147  0.1230 -0.2060
 1371SOL     OW 5536   3.376   4.624   2.360  0.1805  0.2221 -0.2242
 1371SOL    HW2 5537   3.369   4.610   2.455  1.1560 -0.8327 -0.2986
 1371SOL    HW3 5538   3.463   4.663   2.348  0.5486 -0.7560 -0.7940
 1371SOL    MW4 5539   3.387   4.627   2.371  0.3579 -0.0463 -0.3092
 1372SOL     OW 5540   3.171   0.093   2.251  0.4651  0.2318  0.0297
 1372SOL    HW2 5541   3.173   0.175   2.300 -0.2415 -0.2323  0.8441
 1372SOL    HW3 5542   3.249   0.045   2.279  1.1991  0.8648 -0.8864
 1372SOL    MW4 5543   3.182   0.097   2.261  0.4687  0.2541  0.0162
 1373SOL     OW 5544   3.146   0.367   2.354 -0.5782 -0.3695  0.2800
 1373SOL    HW2 5545   3.210   0.423   2.310  0.5892 -0.0687  2.3148
 1373SOL    HW3 5546   3.061   0.402   2.326  0.1280  1.2613  0.0853
 1373SOL    MW4 5547   3.143   0.379   2.344 -0.3309 -0.1146  0.5226
 1374SOL     OW 5548   3.353   0.519   2.230  0.3224  0.1634  0.2526
 1374SOL    HW2 5549   3.413   0.455   2.268 -1.3162 -1.6999 -0.1922
 1374SOL    HW3 5550   3.346   0.494   2.138 -0.7590  0.6377  0.1927
 1374SOL    MW4 5551   3.360   0.507   2.223 -0.0362 -0.0198  0.1860
 1375SOL     OW 5552   3.379   0.764   2.362 -0.1932 -0.5523  0.1774
 1375SOL    HW2 5553   3.446   0.818   2.319 -0.5281 -0.0579  0.2735
 1375SOL    HW3 5554   3.382   0.681   2.315 -1.7039  0.5306 -1.9118
 1375SOL    MW4 5555   3.388   0.760   2.350 -0.4368 -0.3442 -0.0856
 1376SOL     OW 5556   3.138   0.882   2.241  0.1161 -0.0676 -0.1015
 1376SOL    HW2 5557   3.218   0.840   2.273  0.4195  1.1458  0.7381
 1376SOL    HW3 5558   3.067   0.838   2.288  0.3932  0.0383  0.4122
 1376SOL    MW4 5559   3.140   0.870   2.251  0.1931  0.1065  0.0772
 1377SOL     OW 5560   3.179   1.131   2.329 -0.1810 -0.1525  0.0351
 1377SOL    HW2 5561   3.252   1.167   2.279 -1.3592  0.6152 -1.1669
 1377SOL    HW3 5562   3.167   1.043   2.293  0.2258 -0.3300  0.3263
 1377SOL    MW4 5563   3.187   1.124   2.317 -0.2830 -0.0745 -0.0851
 1378SOL     OW 5564   3.399   1.270   2.228  0.6656 -0.3642  0.3352
 1378SOL    HW2 5565   3.468   1.216   2.267 -1.1370 -0.7319  3.1005
 1378SOL    HW3 5566   3.388   1.343   2.288 -0.7025  0.2049 -0.5791
 1378SOL    MW4 5567   3.407   1.272   2.241  0.2470 -0.3376  0.5794
 1379SOL     OW 5568   3.369   1.508   2.371  0.0551 -0.3653 -0.3138
 1379SOL    HW2 5569   3.363   1.534   2.463  1.2532 -0.1642 -0.2800
 1379SOL    HW3 5570   3.295   1.551   2.329 -0.3118 -0.1946  0.5003
 1379SOL    MW4 5571   3.359   1.517   2.377  0.1647 -0.3161 -0.2022
 1380SOL     OW 5572   3.161   1.628   2.256  0.3203 -0.3294 -0.1423
 1380SOL    HW2 5573   3.166   1.720   2.281  0.0605 -0.3437 -0.0357
 1380SOL    HW3 5574   3.080   1.597   2.296  0.7846 -0.8006  0.4554
 1380SOL    MW4 5575   3.151   1.636   2.265  0.3471 -0.3935 -0.0496
 1381SOL     OW 5576   3.166   1.908   2.309  0.2467 -0.4504  0.3268
 1381SOL    HW2 5577   3.186   1.907   2.403  1.0177 -0.0469  0.1760
 1381SOL    HW3 5578   3.220   1.979   2.274  0.6002 -1.1422 -0.5641
 1381SOL    MW4 5579   3.176   1.917   2.317  0.3951 -0.4885  0.1891
 1382SOL     OW 5580   3.356   2.107   2.261  0.0823 -0.3135 -0.1195
 1382SOL    HW2 5581   3.433   2.054   2.283  0.0785  0.2335  1.2880
 1382SOL    HW3 5582   3.345   2.096   2.167  1.2444 -1.2548 -0.1584
 1382SOL    MW4 5583   3.364   2.098   2.252  0.2348 -0.3660  0.0608
 1383SOL     OW 5584   3.383   2.353   2.367 -0.3070  0.1079  0.0613
 1383SOL    HW2 5585   3.310   2.398   2.325  0.0136  0.9756  0.4216
 1383SOL    HW3 5586   3.388   2.269   2.322  1.7095  2.0257 -3.4969
 1383SOL    MW4 5587   3.374   2.348   2.356  0.0012  0.4754 -0.3607
 1384SOL     OW 5588   3.157   2.475   2.273 -0.0707  0.3561 -0.0433
 1384SOL    HW2 5589   3.158   2.560   2.316  1.2668 -0.5605  1.8280
 1384SOL    HW3 5590   3.069   2.440   2.290  0.0809  0.4768  1.0162
 1384SOL    MW4 5591   3.145   2.481   2.281  0.1259  0.2513  0.3431
 1385SOL     OW 5592   3.165   2.712   2.424 -0.3037  0.4202 -0.5782
 1385SOL    HW2 5593   3.156   2.724   2.518  0.6434 -0.2814 -0.3924
 1385SOL    HW3 5594   3.084   2.748   2.387 -1.4747 -0.9464  0.6274
 1385SOL    MW4 5595   3.154   2.718   2.431 -0.3331  0.1473 -0.3946
 1386SOL     OW 5596   3.341   2.838   2.273  0.6269 -0.3250 -0.1660
 1386SOL    HW2 5597   3.359   2.925   2.309  0.0445 -0.1939 -0.1966
 1386SOL    HW3 5598   3.277   2.800   2.332 -0.3016 -0.1266 -1.0273
 1386SOL    MW4 5599   3.335   2.845   2.285  0.4275 -0.2816 -0.2837
 1387SOL     OW 5600   3.399   3.086   2.383  0.5731  0.0636 -0.2475
 1387SOL    HW2 5601   3.471   3.139   2.348  0.6224 -0.3422 -0.7593
 1387SOL    HW3 5602   3.320   3.122   2.342  0.7016 -0.8577 -1.3051
 1387SOL    MW4 5603   3.398   3.098   2.373  0.5965 -0.1111 -0.4544
 1388SOL     OW 5604   3.157   3.215   2.261  0.2925 -0.4242 -0.1147
 1388SOL    HW2 5605   3.184   3.305   2.279  1.9828 -1.2279  1.5108
 1388SOL    HW3 5606   3.138   3.214   2.167  0.1644  1.6329 -0.1342
 1388SOL    MW4 5607   3.158   3.227   2.251  0.4985 -0.2584  0.0975
 1389SOL     OW 5608   3.165   3.476   2.362  0.1940 -0.2220  0.2897
 1389SOL    HW2 5609   3.158   3.498   2.455 -0.1604 -0.5898  0.3549
 1389SOL    HW3 5610   3.238   3.528   2.330 -1.0845  1.5731  0.2575
 1389SOL    MW4 5611   3.174   3.486   2.370 -0.0212 -0.0334  0.2940
 1390SOL     OW 5612   3.385   3.622   2.279 -0.3893  0.2289 -0.3801
 1390SOL    HW2 5613   3.456   3.562   2.302 -2.5173 -2.0511  0.4926
 1390SOL    HW3 5614   3.381   3.618   2.184  1.3055  1.2022 -0.5188
 1390SOL    MW4 5615   3.394   3.614   2.270 -0.4466  0.0563 -0.2832
 1391SOL     OW 5616   3.341   3.884   2.369  0.5117 -0.2795 -0.1994
 1391SOL    HW2 5617   3.414   3.935   2.332  0.9229 -0.1074  0.8345
 1391SOL    HW3 5618   3.357   3.794   2.340  0.5397 -0.0600 -0.8746
 1391SOL    MW4 5619   3.353   3.879   2.360  0.5693 -0.2279 -0.1521
 1392SOL     OW 5620   3.103   3.987   2.279  0.2830 -0.3520  0.0605
 1392SOL    HW2 5621   3.175   3.934   2.313  1.1651  0.7683 -0.0331
 1392SOL    HW3 5622   3.024   3.938   2.302  1.0463 -1.3640  0.5689
 1392SOL    MW4 5623   3.102   3.974   2.286  0.5002 -0.3378  0.1156
 1393SOL     OW 5624   3.122   4.255   2.373  0.0668  0.0406 -0.1780
 1393SOL    HW2 5625   3.204   4.271   2.326 -0.6936 -0.8033 -1.8647
 1393SOL    HW3 5626   3.105   4.161   2.360 -1.6110  0.3890 -0.6461
 1393SOL    MW4 5627   3.131   4.244   2.365 -0.2549 -0.0248 -0.4621
 1394SOL     OW 5628   3.381   4.356   2.298  0.0537  0.0611  0.0847
 1394SOL    HW2 5629   3.377   4.450   2.315  2.2721  0.2863 -0.4471
 1394SOL    HW3 5630   3.401   4.350   2.204  0.9537 -0.9211  0.3321
 1394SOL    MW4 5631   3.383   4.368   2.288  0.4652 -0.0386  0.0472
 1395SOL     OW 5632   3.824   4.630   2.323 -0.2587  0.1138  0.0029
 1395SOL    HW2 5633   3.835   4.632   2.418  0.0243 -0.5342 -0.0137
 1395SOL    HW3 5634   3.901   4.676   2.289  0.1876 -0.5851  0.0529
 1395SOL    MW4 5635   3.836   4.636   2.331 -0.1624 -0.0644  0.0074
 1396SOL     OW 5636   3.586   0.098   2.252  0.0713  0.3362  0.3224
 1396SOL    HW2 5637   3.581   0.188   2.283  0.9353 -0.0345  1.5706
 1396SOL    HW3 5638   3.671   0.066   2.283 -0.9435 -1.4284  1.3769
 1396SOL    MW4 5639   3.596   0.105   2.260  0.0515  0.0544  0.6263
 1397SOL     OW 5640   3.538   0.346   2.344  0.0172 -0.1863 -0.7144
 1397SOL    HW2 5641   3.549   0.340   2.439 -1.5033  1.2672 -0.4176
 1397SOL    HW3 5642   3.621   0.384   2.313 -0.0367  0.7233  0.2108
 1397SOL    MW4 5643   3.551   0.351   2.352 -0.1907  0.1255 -0.5534
 1398SOL     OW 5644   3.800   0.447   2.274  0.0040 -0.2551 -0.1196
 1398SOL    HW2 5645   3.818   0.533   2.310 -1.8614 -0.1810  0.6927
 1398SOL    HW3 5646   3.779   0.463   2.182  0.4296  0.0587 -0.1647
 1398SOL    MW4 5647   3.799   0.460   2.266 -0.1857 -0.2039 -0.0184
 1399SOL     OW 5648   3.795   0.721   2.372 -0.4425  0.6700 -0.2161
 1399SOL    HW2 5649   3.800   0.723   2.468 -0.1668  0.8610 -0.2353
 1399SOL    HW3 5650   3.873   0.767   2.342 -0.8252  1.1285 -0.5280
 1399SOL    MW4 5651   3.806   0.727   2.381 -0.4566  0.7557 -0.2596
 1400SOL     OW 5652   3.605   0.897   2.251 -0.3540  0.1490  0.0666
 1400SOL    HW2 5653   3.662   0.823   2.276  0.2479  0.5454 -0.1116
 1400SOL    HW3 5654   3.624   0.910   2.158 -0.1246  0.8203  0.2072
 1400SOL    MW4 5655   3.615   0.889   2.242 -0.2444  0.2899  0.0615
 1401SOL     OW 5656   3.635   1.153   2.344  0.0151  0.1563  0.3977
 1401SOL    HW2 5657   3.618   1.157   2.438  0.2271  1.0210  0.3964
 1401SOL    HW3 5658   3.635   1.059   2.324 -0.8677  0.0036  1.1055
 1401SOL    MW4 5659   3.633   1.141   2.354 -0.0734  0.2502  0.4909
 1402SOL     OW 5660   3.848   1.279   2.235  0.6312 -0.2983  0.1905
 1402SOL    HW2 5661   3.849   1.370   2.266  0.3322 -0.4040  0.5205
 1402SOL    HW3 5662   3.776   1.238   2.284  1.9034 -1.1612  1.3562
 1402SOL    MW4 5663   3.838   1.285   2.246  0.7594 -0.4259  0.3879
 1403SOL     OW 5664   3.825   1.539   2.348  0.1198 -0.2130  0.5027
 1403SOL    HW2 5665   3.821   1.538   2.444  0.2110  0.8741  0.5256
 1403SOL    HW3 5666   3.751   1.594   2.322  1.2782  1.1519  0.0337
 1403SOL    MW4 5667   3.814   1.546   2.357  0.2849  0.1104  0.4437
 1404SOL     OW 5668   3.606   1.659   2.249 -0.1823  0.0970  0.2972
 1404SOL    HW2 5669   3.525   1.623   2.285  0.3076 -1.2642  0.0672
 1404SOL    HW3 5670   3.597   1.650   2.154  0.5099 -0.7159  0.2935
 1404SOL    MW4 5671   3.594   1.653   2.241 -0.0262 -0.1899  0.2663
 1405SOL     OW 5672   3.575   1.929   2.306  0.2045 -0.6046  0.2714
 1405SOL    HW2 5673   3.655   1.977   2.284 -0.1613 -0.3740 -0.5756
 1405SOL    HW3 5674   3.596   1.837   2.287  0.1763 -0.5096 -0.2243
 1405SOL    MW4 5675   3.589   1.923   2.301  0.1523 -0.5616  0.0942
 1406SOL     OW 5676   3.794   2.079   2.268 -0.3868  0.2593 -0.4674
 1406SOL    HW2 5677   3.863   2.019   2.295 -1.3779 -0.4389  0.5769
 1406SOL    HW3 5678   3.803   2.086   2.173  1.8765  1.1426 -0.2041
 1406SOL    MW4 5679   3.804   2.072   2.259 -0.2191  0.2837 -0.2952
 1407SOL     OW 5680   3.816   2.307   2.398 -0.0099  0.1449  0.1116
 1407SOL    HW2 5681   3.738   2.353   2.367 -0.3694 -0.2705  0.4017
 1407SOL    HW3 5682   3.815   2.223   2.354 -0.7425 -0.6079  1.5319
 1407SOL    MW4 5683   3.806   2.302   2.388 -0.1540 -0.0093  0.3371
 1408SOL     OW 5684   3.615   2.469   2.271 -0.1286  0.1398 -0.4740
 1408SOL    HW2 5685   3.544   2.419   2.311  1.8784 -1.5049  1.1395
 1408SOL    HW3 5686   3.589   2.478   2.179 -2.7500  0.2022  0.2331
 1408SOL    MW4 5687   3.602   2.464   2.264 -0.2096 -0.0691 -0.1681
 1409SOL     OW 5688   3.569   2.730   2.393 -0.1745 -0.0477  0.2977
 1409SOL    HW2 5689   3.585   2.638   2.375  0.3113  0.3798 -1.5570
 1409SOL    HW3 5690   3.493   2.752   2.339 -0.8321  0.4162  1.4043
 1409SOL    MW4 5691   3.561   2.721   2.383 -0.1969  0.0701  0.1991
 1410SOL     OW 5692   3.795   2.829   2.265  0.3502  0.1150 -0.4939
 1410SOL    HW2 5693   3.813   2.918   2.294  0.2660  0.3720 -1.2147
 1410SOL    HW3 5694   3.724   2.799   2.322 -1.2729  1.3663 -1.8147
 1410SOL    MW4 5695   3.788   2.837   2.276  0.1247  0.3140 -0.7634
 1411SOL     OW 5696   3.843   3.112   2.334  0.1153 -0.7337  0.0484
 1411SOL    HW2 5697   3.854   3.106   2.429 -0.9003 -1.3729  0.1450
 1411SOL    HW3 5698   3.913   3.170   2.305 -0.0854  0.1528  1.2913
 1411SOL    MW4 5699   3.854   3.119   2.343 -0.0451 -0.7012  0.2251
 1412SOL     OW 5700   3.611   3.233   2.248 -0.3199 -0.3013  0.3970
 1412SOL    HW2 5701   3.606   3.321   2.283 -0.5810 -0.2280  0.1809
 1412SOL    HW3 5702   3.689   3.195   2.288  0.1086  0.2170  0.0557
 1412SOL    MW4 5703   3.620   3.239   2.258 -0.2978 -0.2232  0.3240
 1413SOL     OW 5704   3.607   3.462   2.378 -0.0884  0.6082  0.4108
 1413SOL    HW2 5705   3.610   3.455   2.474 -0.6515  0.0627  0.3874
 1413SOL    HW3 5706   3.681   3.520   2.357  0.8039 -0.2684  1.0670
 1413SOL    MW4 5707   3.617   3.469   2.388 -0.0448  0.4206  0.4942
 1414SOL     OW 5708   3.814   3.614   2.258 -0.0581  0.1085  0.2914
 1414SOL    HW2 5709   3.799   3.705   2.283 -1.1745  0.1181 -0.3973
 1414SOL    HW3 5710   3.825   3.617   2.163  0.2825 -0.4224  0.3158
 1414SOL    MW4 5711   3.813   3.626   2.249 -0.1605  0.0393  0.2038
 1415SOL     OW 5712   3.823   3.876   2.342  0.1785  0.1551  0.0349
 1415SOL    HW2 5713   3.833   3.880   2.437  0.7993  0.0619 -0.0230
 1415SOL    HW3 5714   3.909   3.900   2.308 -0.5130  1.8888 -0.5399
 1415SOL    MW4 5715   3.836   3.880   2.350  0.1693  0.3712 -0.0486
 1416SOL     OW 5716   3.598   4.007   2.240  0.3699 -0.1680 -0.2244
 1416SOL    HW2 5717   3.602   4.089   2.288  2.8469  0.1850 -0.9569
 1416SOL    HW3 5718   3.668   3.953   2.278 -0.0776 -1.2820 -0.9373
 1416SOL    MW4 5719   3.607   4.011   2.251  0.6375 -0.2689 -0.4153
 1417SOL     OW 5720   3.624   4.228   2.409  0.5047 -0.0097  0.4782
 1417SOL    HW2 5721   3.698   4.252   2.353 -0.6510 -1.6714 -1.8177
 1417SOL    HW3 5722   3.551   4.281   2.377  0.2460  0.3379  1.6006
 1417SOL    MW4 5723   3.624   4.238   2.398  0.3181 -0.1831  0.3233
 1418SOL     OW 5724   3.834   4.350   2.263 -0.0221  0.6065  0.2895
 1418SOL    HW2 5725   3.919   4.308   2.277  0.3201  1.0420 -0.4618
 1418SOL    HW3 5726   3.844   4.438   2.298 -0.3926  0.4243  0.8562
 1418SOL    MW4 5727   3.847   4.356   2.269 -0.0257  0.6399  0.2649
 1419SOL     OW 5728   4.297   4.628   2.351  0.3397  0.5895 -0.1138
 1419SOL    HW2 5729   4.289   4.613   2.445  0.3064  1.2914  0.0000
 1419SOL    HW3 5730   4.369   4.691   2.343 -0.3131  1.3077 -0.4750
 1419SOL    MW4 5731   4.305   4.635   2.362  0.2489  0.7768 -0.1464
 1420SOL     OW 5732   4.075   0.093   2.284 -0.1891 -0.2670  0.0576
 1420SOL    HW2 5733   4.080   0.162   2.351  1.3406 -0.5165  0.2098
 1420SOL    HW3 5734   4.154   0.041   2.297 -1.4103 -2.1630  0.0445
 1420SOL    MW4 5735   4.086   0.095   2.295 -0.1483 -0.5501  0.0758
 1421SOL     OW 5736   4.039   0.374   2.357 -0.0794 -0.0436  0.2737
 1421SOL    HW2 5737   4.100   0.423   2.301 -0.4588 -0.3025 -0.3819
 1421SOL    HW3 5738   3.954   0.389   2.317 -0.2496 -0.9027  0.3076
 1421SOL    MW4 5739   4.036   0.382   2.344 -0.1521 -0.1911  0.1917
 1422SOL     OW 5740   4.257   0.500   2.223 -0.2236 -0.4014  0.0435
 1422SOL    HW2 5741   4.250   0.579   2.276 -2.6387 -0.7422  0.2825
 1422SOL    HW3 5742   4.330   0.451   2.262  1.4400  1.7595 -0.2482
 1422SOL    MW4 5743   4.266   0.504   2.235 -0.3228 -0.1612  0.0367
 1423SOL     OW 5744   4.237   0.740   2.371  0.1830 -0.6236 -0.6681
 1423SOL    HW2 5745   4.150   0.779   2.357  0.3750 -0.4677 -1.4477
 1423SOL    HW3 5746   4.296   0.794   2.318  0.6924 -1.0007 -0.4875
 1423SOL    MW4 5747   4.233   0.752   2.362  0.2756 -0.6528 -0.7472
 1424SOL     OW 5748   4.001   0.869   2.278 -0.8039  0.1369 -0.5527
 1424SOL    HW2 5749   4.002   0.956   2.317  1.6794 -0.1414  0.1227
 1424SOL    HW3 5750   4.017   0.884   2.185 -0.0899  0.3935 -0.3913
 1424SOL    MW4 5751   4.003   0.882   2.271 -0.3824  0.1340 -0.4425
 1425SOL     OW 5752   4.067   1.127   2.349 -0.1185 -0.5666 -0.0202
 1425SOL    HW2 5753   4.063   1.123   2.445 -0.2872 -0.0361  0.0010
 1425SOL    HW3 5754   3.994   1.183   2.324 -0.0633 -0.6859 -0.4586
 1425SOL    MW4 5755   4.057   1.134   2.358 -0.1330 -0.5124 -0.0751
 1426SOL     OW 5756   4.274   1.280   2.262  0.3819 -0.1953 -0.0663
 1426SOL    HW2 5757   4.209   1.214   2.287  0.2089 -0.0580 -0.1515
 1426SOL    HW3 5758   4.357   1.245   2.292 -0.0399  0.8062  2.3516
 1426SOL    MW4 5759   4.276   1.267   2.269  0.3028 -0.0449  0.2415
 1427SOL     OW 5760   4.238   1.539   2.351 -0.3769  0.0702  0.1737
 1427SOL    HW2 5761   4.253   1.448   2.324 -0.7925 -0.0868  0.4543
 1427SOL    HW3 5762   4.316   1.586   2.321 -0.2002 -0.3599 -0.0587
 1427SOL    MW4 5763   4.250   1.533   2.343 -0.4086 -0.0073  0.1800
 1428SOL     OW 5764   4.028   1.702   2.263 -0.1638  0.4630  0.0965
 1428SOL    HW2 5765   4.096   1.647   2.301 -0.3420  1.4363  1.8927
 1428SOL    HW3 5766   3.946   1.663   2.294 -0.3404  0.7522 -0.0015
 1428SOL    MW4 5767   4.026   1.690   2.272 -0.2108  0.6297  0.3204
 1429SOL     OW 5768   4.028   1.938   2.404 -0.1273  0.3078 -0.5158
 1429SOL    HW2 5769   4.036   1.926   2.499  1.2949  2.2241 -0.3828
 1429SOL    HW3 5770   4.040   1.850   2.368  0.4886 -0.2502  1.0142
 1429SOL    MW4 5771   4.030   1.925   2.412  0.1416  0.4871 -0.2961
 1430SOL     OW 5772   4.252   2.080   2.283  0.4374 -0.5435  0.8160
 1430SOL    HW2 5773   4.264   2.172   2.307  0.8878 -0.1269 -0.9348
 1430SOL    HW3 5774   4.173   2.053   2.329  0.6055  0.5651  1.7633
 1430SOL    MW4 5775   4.243   2.088   2.292  0.5188 -0.3419  0.7100
 1431SOL     OW 5776   4.235   2.355   2.367  0.1405 -0.2794  0.5960
 1431SOL    HW2 5777   4.163   2.381   2.310 -0.8831 -2.1881  1.0049
 1431SOL    HW3 5778   4.313   2.390   2.323 -0.7053 -1.0073 -1.5510
 1431SOL    MW4 5779   4.236   2.363   2.353 -0.1068 -0.6270  0.3667
 1432SOL     OW 5780   4.008   2.433   2.239 -0.2538  0.4727  0.3153
 1432SOL    HW2 5781   4.018   2.515   2.287 -0.8788  0.2708  0.8016
 1432SOL    HW3 5782   3.950   2.380   2.293  0.3742 -0.4105  0.1475
 1432SOL    MW4 5783   4.002   2.437   2.252 -0.2532  0.3295  0.3574
 1433SOL     OW 5784   4.031   2.694   2.345 -0.6046 -0.1501 -0.0912
 1433SOL    HW2 5785   4.024   2.712   2.439 -2.0688  1.0537 -0.4059
 1433SOL    HW3 5786   3.947   2.723   2.309  0.0910 -0.2485 -1.8336
 1433SOL    MW4 5787   4.019   2.700   2.353 -0.7062 -0.0043 -0.3626
 1434SOL     OW 5788   4.236   2.852   2.264  0.0549  0.0010  0.7166
 1434SOL    HW2 5789   4.165   2.797   2.297 -0.1065 -0.3364 -0.1661
 1434SOL    HW3 5790   4.316   2.811   2.295 -0.1290  0.5070  1.9078
 1434SOL    MW4 5791   4.237   2.840   2.272  0.0095  0.0236  0.7572
 1435SOL     OW 5792   4.240   3.104   2.377  0.4913  0.0540  0.0428
 1435SOL    HW2 5793   4.210   3.027   2.329  0.3525 -0.4866  0.9853
 1435SOL    HW3 5794   4.321   3.129   2.333 -0.4850  0.5518 -1.4924
 1435SOL    MW4 5795   4.247   3.097   2.365  0.3438  0.0479 -0.0355
 1436SOL     OW 5796   4.047   3.270   2.255  0.0517 -0.3886  0.4350
 1436SOL    HW2 5797   4.048   3.353   2.302 -0.1626 -0.2699  0.2298
 1436SOL    HW3 5798   4.108   3.214   2.303  1.1998  0.3107 -0.2047
 1436SOL    MW4 5799   4.055   3.273   2.267  0.1750 -0.2806  0.3238
 1437SOL     OW 5800   4.053   3.525   2.389  0.5967 -0.2166 -0.1421
 1437SOL    HW2 5801   4.137   3.548   2.349  0.2408 -0.4129 -1.0078
 1437SOL    HW3 5802   3.988   3.568   2.334  0.1254 -0.0441  0.5469
 1437SOL    MW4 5803   4.056   3.534   2.377  0.4873 -0.2201 -0.1657
 1438SOL     OW 5804   4.289   3.580   2.231  0.4154  0.0651 -0.5791
 1438SOL    HW2 5805   4.288   3.666   2.273  1.3022 -0.4030  0.4333
 1438SOL    HW3 5806   4.268   3.598   2.140 -0.5959  1.2190 -0.1376
 1438SOL    MW4 5807   4.287   3.594   2.225  0.3986  0.1554 -0.3874
 1439SOL     OW 5808   4.267   3.846   2.363  0.1849 -0.0346  0.2430
 1439SOL    HW2 5809   4.257   3.845   2.458  1.4566  1.3940  0.4237
 1439SOL    HW3 5810   4.348   3.896   2.348  0.9113 -1.6621 -1.5079
 1439SOL    MW4 5811   4.276   3.853   2.373  0.4482 -0.0608  0.0358
 1440SOL     OW 5812   4.057   3.957   2.233 -0.3427 -0.1266  0.5520
 1440SOL    HW2 5813   4.130   3.911   2.276 -0.5256 -1.1356 -0.2103
 1440SOL    HW3 5814   4.077   3.953   2.140 -1.0854  0.1059  0.3779
 1440SOL    MW4 5815   4.070   3.951   2.227 -0.4649 -0.2289  0.4282
 1441SOL     OW 5816   4.076   4.229   2.329 -0.0241  0.5590  0.2975
 1441SOL    HW2 5817   4.147   4.287   2.303  1.2295 -0.7732  0.6827
 1441SOL    HW3 5818   4.103   4.142   2.298 -1.1529 -0.0840  1.0655
 1441SOL    MW4 5819   4.089   4.225   2.322 -0.0072  0.2990  0.4497
 1442SOL     OW 5820   4.279   4.378   2.242  0.1311  0.0069 -0.3839
 1442SOL    HW2 5821   4.289   4.469   2.272 -1.2804 -0.5822  2.0041
 1442SOL    HW3 5822   4.346   4.330   2.290  1.3855 -0.0957 -2.2350
 1442SOL    MW4 5823   4.289   4.384   2.253  0.1106 -0.0844 -0.3130
 1443SOL     OW 5824   0.212   4.628   2.679  0.2886 -0.0545  0.1358
 1443SOL    HW2 5825   0.193   4.535   2.695 -0.2936 -0.2036 -1.3250
 1443SOL    HW3 5826   0.136   4.674   2.714  0.4332 -0.1592  0.5829
 1443SOL    MW4 5827   0.199   4.622   2.685  0.2309 -0.0882  0.0021
 1444SOL     OW 5828   4.478   0.130   2.723  0.0487 -0.1305 -0.5813
 1444SOL    HW2 5829   4.472   0.140   2.818  0.9571 -0.5166 -0.4835
 1444SOL    HW3 5830   4.493   0.218   2.690  1.3215 -0.2131 -0.2396
 1444SOL    MW4 5831   4.479   0.143   2.731  0.3362 -0.1923 -0.5233
 1445SOL     OW 5832   4.465   0.378   2.628  0.3183 -0.4790  0.1732
 1445SOL    HW2 5833   4.534   0.433   2.666 -0.7575  1.0663 -0.0607
 1445SOL    HW3 5834   4.469   0.397   2.534 -0.0286 -0.8475  0.0857
 1445SOL    MW4 5835   4.475   0.388   2.621  0.1302 -0.3237  0.1309
 1446SOL     OW 5836   0.216   0.503   2.755 -0.0424  0.4781  0.3582
 1446SOL    HW2 5837   0.227   0.500   2.850  0.8797  0.4271  0.2532
 1446SOL    HW3 5838   0.293   0.458   2.720  0.9887  2.8282 -0.4939
 1446SOL    MW4 5839   0.227   0.496   2.763  0.2153  0.7815  0.2320
 1447SOL     OW 5840   0.213   0.753   2.605  0.0662 -0.5358 -0.0639
 1447SOL    HW2 5841   0.286   0.794   2.651 -0.4774 -0.1412  0.4631
 1447SOL    HW3 5842   0.213   0.662   2.636 -0.2403 -0.2948  0.6519
 1447SOL    MW4 5843   0.222   0.746   2.615 -0.0459 -0.4519  0.0999
 1448SOL     OW 5844   4.484   0.851   2.724 -0.4936  0.0127 -0.3258
 1448SOL    HW2 5845   4.401   0.819   2.688  0.1127 -1.3455 -0.5641
 1448SOL    HW3 5846   4.551   0.818   2.664  0.2850  0.3937  0.3110
 1448SOL    MW4 5847   4.482   0.842   2.711 -0.3109 -0.1161 -0.2735
 1449SOL     OW 5848   4.449   1.123   2.627 -0.3872 -0.5630 -0.2080
 1449SOL    HW2 5849   4.523   1.172   2.662  0.7241 -1.7022 -0.9000
 1449SOL    HW3 5850   4.464   1.032   2.655 -1.4013 -0.8429 -0.5394
 1449SOL    MW4 5851   4.461   1.117   2.635 -0.3743 -0.7502 -0.3431
 1450SOL     OW 5852   0.167   1.243   2.746  0.3177  0.1493 -0.1639
 1450SOL    HW2 5853   0.249   1.196   2.730 -0.0766 -0.4666 -0.3884
 1450SOL    HW3 5854   0.184   1.332   2.714  0.5622 -0.2424 -1.1385
 1450SOL    MW4 5855   0.180   1.248   2.740  0.2979  0.0163 -0.3219
 1451SOL     OW 5856   0.206   1.512   2.615 -0.4560 -0.5241  0.3858
 1451SOL    HW2 5857   0.281   1.551   2.659 -0.7524 -0.0137  0.4408
 1451SOL    HW3 5858   0.129   1.548   2.661 -0.7708  0.1472 -0.6351
 1451SOL    MW4 5859   0.205   1.522   2.627 -0.5367 -0.3682  0.2582
 1452SOL     OW 5860   4.473   1.624   2.735 -0.0950  0.1240 -0.5663
 1452SOL    HW2 5861   4.487   1.629   2.829 -0.7628 -0.7097 -0.4245
 1452SOL    HW3 5862   4.487   1.714   2.704  1.4878  0.1340  0.1283
 1452SOL    MW4 5863   4.477   1.637   2.743  0.0262  0.0154 -0.4561
 1453SOL     OW 5864   0.003   1.877   2.624  0.6224  0.0917 -0.0777
 1453SOL    HW2 5865   0.086   1.920   2.645 -0.1743  1.7481 -0.3039
 1453SOL    HW3 5866  -0.013   1.899   2.532 -1.2811  1.8402  0.6391
 1453SOL    MW4 5867   0.012   1.885   2.614  0.2666  0.5410 -0.0129
 1454SOL     OW 5868   0.181   2.024   2.757 -0.2778 -0.0178 -0.1990
 1454SOL    HW2 5869   0.271   2.010   2.728  0.5139  0.0503  2.0866
 1454SOL    HW3 5870   0.168   2.119   2.751  0.8971  0.3498  2.3745
 1454SOL    MW4 5871   0.191   2.035   2.753 -0.0183  0.0393  0.4420
 1455SOL     OW 5872   0.185   2.281   2.614 -0.1541 -0.1522  0.2906
 1455SOL    HW2 5873   0.272   2.306   2.643 -0.6234 -0.0733  1.6781
 1455SOL    HW3 5874   0.126   2.340   2.660 -1.0436 -1.2972  0.6621
 1455SOL    MW4 5875   0.188   2.292   2.624 -0.3333 -0.2930  0.5229
 1456SOL     OW 5876   0.008   2.437   2.746 -0.1501  0.3053  0.3515
 1456SOL    HW2 5877   0.010   2.438   2.842  1.5920 -1.2518  0.3681
 1456SOL    HW3 5878  -0.075   2.395   2.725 -0.3878  0.3243  1.1989
 1456SOL    MW4 5879  -0.003   2.431   2.756  0.0485  0.1025  0.4659
 1457SOL     OW 5880   4.475   2.708   2.649  0.3338 -0.0141  0.5802
 1457SOL    HW2 5881   4.390   2.742   2.676 -0.6775 -0.5793 -1.7671
 1457SOL    HW3 5882   4.478   2.619   2.683  0.4468  0.3722  1.5851
 1457SOL    MW4 5883   4.465   2.701   2.657  0.2151 -0.0374  0.4032
 1458SOL     OW 5884   0.240   2.787   2.750 -0.4253 -0.0617  0.0894
 1458SOL    HW2 5885   0.240   2.863   2.692 -2.0652 -0.6300 -0.6620
 1458SOL    HW3 5886   0.152   2.750   2.743 -0.0442 -1.2881  1.4336
 1458SOL    MW4 5887   0.229   2.792   2.742 -0.5913 -0.2987  0.1676
 1459SOL     OW 5888   0.253   3.041   2.656 -0.2986  0.0057  0.3271
 1459SOL    HW2 5889   0.333   3.089   2.678 -0.4278  0.0272  0.7516
 1459SOL    HW3 5890   0.244   3.051   2.561  0.4241 -0.3452  0.2206
 1459SOL    MW4 5891   0.262   3.049   2.647 -0.2203 -0.0377  0.3691
 1460SOL     OW 5892   0.041   3.200   2.739  0.5915  0.2479  0.0019
 1460SOL    HW2 5893  -0.030   3.142   2.711  1.1009 -0.5188  0.2584
 1460SOL    HW3 5894   0.120   3.158   2.705  1.0341  0.4122  0.8179
 1460SOL    MW4 5895   0.042   3.187   2.731  0.7171  0.1683  0.1435
 1461SOL     OW 5896   0.001   3.458   2.608 -0.2701  0.1982  0.5550
 1461SOL    HW2 5897   0.078   3.504   2.642  0.6256  1.7898 -3.3471
 1461SOL    HW3 5898   0.001   3.374   2.653  2.9275  0.7468  1.7025
 1461SOL    MW4 5899   0.011   3.453   2.618  0.2694  0.4807  0.1917
 1462SOL     OW 5900   0.218   3.578   2.734  0.1932  0.0267  0.1196
 1462SOL    HW2 5901   0.215   3.568   2.829 -0.5781 -1.7865 -0.0742
 1462SOL    HW3 5902   0.301   3.537   2.708  0.4653  0.6355  0.0184
 1462SOL    MW4 5903   0.229   3.571   2.743  0.1274 -0.1321  0.0808
 1463SOL     OW 5904   0.184   3.820   2.596 -0.2776  0.0684  0.3973
 1463SOL    HW2 5905   0.205   3.731   2.625 -0.8970 -0.3862 -0.5414
 1463SOL    HW3 5906   0.191   3.817   2.501 -1.5685  0.6971  0.2803
 1463SOL    MW4 5907   0.188   3.808   2.588 -0.5297  0.0913  0.2582
 1464SOL     OW 5908   4.474   3.974   2.740 -0.2404 -0.2417  0.4685
 1464SOL    HW2 5909   4.482   4.061   2.700  0.3377  0.1400  1.3956
 1464SOL    HW3 5910   4.539   3.921   2.695 -0.1078 -0.0135  0.3879
 1464SOL    MW4 5911   4.483   3.979   2.729 -0.1464 -0.1612  0.5801
 1465SOL     OW 5912   4.483   4.235   2.630  0.0938  0.0267 -0.6511
 1465SOL    HW2 5913   4.413   4.289   2.668 -0.3997  1.2870 -3.2824
 1465SOL    HW3 5914   4.563   4.267   2.672 -0.7001 -0.3024  1.1591
 1465SOL    MW4 5915   4.484   4.247   2.641 -0.0761  0.1497 -0.7594
 1466SOL     OW 5916   0.200   4.365   2.738 -0.2096 -0.1034 -0.1179
 1466SOL    HW2 5917   0.206   4.367   2.833 -2.2018  1.5546  0.0009
 1466SOL    HW3 5918   0.277   4.315   2.710  0.8029  0.0364  2.3117
 1466SOL    MW4 5919   0.211   4.359   2.747 -0.3389  0.1335  0.2184
 1467SOL     OW 5920   0.669   4.629   2.589  0.1095  0.1122  0.1417
 1467SOL    HW2 5921   0.752   4.664   2.620  0.4734  0.1155 -0.8165
 1467SOL    HW3 5922   0.603   4.674   2.641  0.5738  2.1638 -1.0113
 1467SOL    MW4 5923   0.671   4.639   2.600  0.2187  0.3834 -0.1366
 1468SOL     OW 5924   0.461   0.100   2.711 -0.7928  0.0880 -0.4133
 1468SOL    HW2 5925   0.464   0.109   2.806 -0.4189  0.0238 -0.4182
 1468SOL    HW3 5926   0.380   0.052   2.694 -0.7805 -0.0396 -0.1172
 1468SOL    MW4 5927   0.450   0.095   2.721 -0.7419  0.0627 -0.3748
 1469SOL     OW 5928   0.423   0.364   2.659  0.1114 -0.3427 -0.1360
 1469SOL    HW2 5929   0.494   0.420   2.689 -0.1248  1.1166 -2.1804
 1469SOL    HW3 5930   0.450   0.275   2.683  2.8882  0.1226 -1.3648
 1469SOL    MW4 5931   0.436   0.360   2.666  0.4466 -0.0888 -0.5679
 1470SOL     OW 5932   0.655   0.487   2.752 -0.0553  0.4557  0.2762
 1470SOL    HW2 5933   0.659   0.464   2.845 -1.8962 -0.4104  0.1590
 1470SOL    HW3 5934   0.738   0.457   2.716  0.0536 -0.5640  1.3522
 1470SOL    MW4 5935   0.666   0.480   2.759 -0.2838  0.2069  0.4025
 1471SOL     OW 5936   0.649   0.737   2.659 -0.0452  0.4939 -0.3826
 1471SOL    HW2 5937   0.729   0.781   2.687  0.5527  0.4935 -2.0737
 1471SOL    HW3 5938   0.661   0.646   2.687 -0.3921  0.9240  1.2526
 1471SOL    MW4 5939   0.661   0.731   2.667 -0.0120  0.5506 -0.3898
 1472SOL     OW 5940   0.411   0.875   2.738  0.0059 -0.0078  0.0825
 1472SOL    HW2 5941   0.426   0.962   2.702  0.6102  1.2464  3.2490
 1472SOL    HW3 5942   0.487   0.824   2.711  0.7474  1.0819  0.0920
 1472SOL    MW4 5943   0.423   0.880   2.730  0.1835  0.3015  0.5016
 1473SOL     OW 5944   0.411   1.126   2.645  0.4239  0.0681 -0.6063
 1473SOL    HW2 5945   0.489   1.176   2.670 -1.2416  2.2245  0.3434
 1473SOL    HW3 5946   0.417   1.121   2.549  1.5963  0.4203 -0.5688
 1473SOL    MW4 5947   0.422   1.132   2.635  0.3588  0.3990 -0.4761
 1474SOL     OW 5948   0.645   1.254   2.751 -0.5281 -0.3295 -0.3321
 1474SOL    HW2 5949   0.645   1.267   2.846 -0.0577 -0.3442 -0.3290
 1474SOL    HW3 5950   0.736   1.231   2.730 -0.4017  0.7312 -0.9358
 1474SOL    MW4 5951   0.657   1.252   2.761 -0.4494 -0.1916 -0.4115
 1475SOL     OW 5952   0.654   1.515   2.650 -0.5262 -0.5192 -0.0964
 1475SOL    HW2 5953   0.580   1.563   2.686  0.9116  1.3997  0.3189
 1475SOL    HW3 5954   0.649   1.429   2.692 -1.9925 -0.1156  0.5935
 1475SOL    MW4 5955   0.644   1.510   2.660 -0.5299 -0.2128  0.0496
 1476SOL     OW 5956   0.436   1.639   2.738  0.3297 -0.1540 -0.4061
 1476SOL    HW2 5957   0.430   1.638   2.834 -0.2630  1.4144 -0.4234
 1476SOL    HW3 5958   0.420   1.730   2.713 -1.6764 -0.9187 -2.1194
 1476SOL    MW4 5959   0.433   1.651   2.747 -0.0132 -0.0479 -0.6344
 1477SOL     OW 5960   0.413   1.913   2.651  0.0036 -0.0573 -0.2573
 1477SOL    HW2 5961   0.503   1.934   2.675 -0.2734  0.6646  0.1573
 1477SOL    HW3 5962   0.412   1.915   2.555  0.1570  1.0776 -0.2392
 1477SOL    MW4 5963   0.424   1.916   2.642 -0.0127  0.1876 -0.2000
 1478SOL     OW 5964   0.657   2.028   2.742 -0.1232  0.4185 -0.0853
 1478SOL    HW2 5965   0.678   2.021   2.835 -0.3004 -2.4521 -0.2143
 1478SOL    HW3 5966   0.737   2.003   2.697 -0.9005 -1.1893 -0.6431
 1478SOL    MW4 5967   0.670   2.024   2.748 -0.2491 -0.1724 -0.1762
 1479SOL     OW 5968   0.656   2.291   2.611  0.1086 -0.4028 -0.2166
 1479SOL    HW2 5969   0.728   2.337   2.654 -1.4778 -0.0825  2.1688
 1479SOL    HW3 5970   0.644   2.211   2.661  0.1597 -1.4834 -1.8780
 1479SOL    MW4 5971   0.664   2.287   2.623 -0.0940 -0.5031 -0.1211
 1480SOL     OW 5972   0.420   2.418   2.701  0.0706  0.3620 -0.3799
 1480SOL    HW2 5973   0.423   2.505   2.662  0.5711  0.0451 -1.0652
 1480SOL    HW3 5974   0.499   2.374   2.668 -1.3270 -1.1206 -1.8923
 1480SOL    MW4 5975   0.431   2.424   2.691 -0.0477  0.1245 -0.6700
 1481SOL     OW 5976   0.442   2.674   2.601  0.4107  0.1622  0.1427
 1481SOL    HW2 5977   0.508   2.712   2.660 -0.5647 -0.5711  1.7256
 1481SOL    HW3 5978   0.359   2.703   2.637 -0.2022 -0.4728 -0.7607
 1481SOL    MW4 5979   0.440   2.683   2.614  0.2011 -0.0184  0.2322
 1482SOL     OW 5980   0.633   2.802   2.741 -0.5175  0.4281  0.4079
 1482SOL    HW2 5981   0.636   2.811   2.836 -0.2375  2.1717  0.2449
 1482SOL    HW3 5982   0.665   2.885   2.707 -2.1289  0.4252 -1.2284
 1482SOL    MW4 5983   0.637   2.814   2.749 -0.6932  0.6580  0.1705
 1483SOL     OW 5984   0.716   3.034   2.645  0.0827 -0.0910 -0.2246
 1483SOL    HW2 5985   0.781   3.098   2.675 -0.2034 -0.5086  1.3421
 1483SOL    HW3 5986   0.701   3.056   2.553 -1.1472  3.0782  0.6666
 1483SOL    MW4 5987   0.723   3.046   2.637 -0.1172  0.2720  0.0999
 1484SOL     OW 5988   0.466   3.176   2.740 -0.0523 -0.1767 -0.0133
 1484SOL    HW2 5989   0.476   3.194   2.833 -2.1485 -2.5164  0.7061
 1484SOL    HW3 5990   0.540   3.119   2.719 -0.1581 -0.4757  0.4317
 1484SOL    MW4 5991   0.477   3.171   2.749 -0.3428 -0.5250  0.1404
 1485SOL     OW 5992   0.450   3.447   2.663  0.1044  0.3594  0.0549
 1485SOL    HW2 5993   0.459   3.358   2.696  0.6066  0.8944  1.3710
 1485SOL    HW3 5994   0.439   3.437   2.568 -0.1989 -1.1144  0.2462
 1485SOL    MW4 5995   0.450   3.434   2.655  0.1307  0.2358  0.2539
 1486SOL     OW 5996   0.686   3.613   2.716 -0.4312  0.0763  0.0505
 1486SOL    HW2 5997   0.687   3.606   2.811 -2.1577 -0.8310  0.0287
 1486SOL    HW3 5998   0.599   3.581   2.690  0.2171 -0.2412 -1.8616
 1486SOL    MW4 5999   0.675   3.608   2.725 -0.5735 -0.0854 -0.2046
 1487SOL     OW 6000   0.668   3.876   2.639 -0.2186 -0.1024  0.4286
 1487SOL    HW2 6001   0.577   3.905   2.651  0.0840  0.5008  1.3082
 1487SOL    HW3 6002   0.669   3.786   2.672 -0.5113 -0.1315  0.3565
 1487SOL    MW4 6003   0.656   3.868   2.645 -0.2173 -0.0265  0.5350
 1488SOL     OW 6004   0.421   3.974   2.689  0.4507 -0.6422 -0.1798
 1488SOL    HW2 6005   0.428   4.065   2.660 -0.5631  0.1496  1.9719
 1488SOL    HW3 6006   0.345   3.939   2.642  1.1373 -0.5335 -1.3786
 1488SOL    MW4 6007   0.412   3.981   2.679  0.4076 -0.5231 -0.0539
 1489SOL     OW 6008   0.437   4.239   2.632  0.3710 -0.0526  0.0648
 1489SOL    HW2 6009   0.511   4.284   2.673  2.3102 -1.5255 -1.7415
 1489SOL    HW3 6010   0.446   4.256   2.539 -2.2403  0.6598 -0.1150
 1489SOL    MW4 6011   0.448   4.247   2.625  0.2823 -0.1531 -0.1974
 1490SOL     OW 6012   0.640   4.374   2.742 -0.0806  0.0201 -0.3768
 1490SOL    HW2 6013   0.718   4.329   2.712  0.4933  0.8524 -0.1339
 1490SOL    HW3 6014   0.632   4.451   2.686 -0.8721 -0.1972 -0.5762
 1490SOL    MW4 6015   0.649   4.378   2.731 -0.1093  0.1011 -0.3710
 1491SOL     OW 6016   1.125   4.610   2.594 -0.1568  0.5556 -0.0726
 1491SOL    HW2 6017   1.187   4.662   2.647 -0.3260  0.5185  0.1606
 1491SOL    HW3 6018   1.144   4.519   2.617 -0.6530  0.5684  0.3894
 1491SOL    MW4 6019   1.136   4.605   2.604 -0.2446  0.5522  0.0188
 1492SOL     OW 6020   0.903   0.065   2.697  0.0887 -0.1847 -0.3730
 1492SOL    HW2 6021   0.902   0.065   2.793  0.4219  2.2039 -0.3358
 1492SOL    HW3 6022   0.990   0.031   2.674 -0.1741 -1.2405  0.1388
 1492SOL    MW4 6023   0.915   0.060   2.707  0.0980 -0.0088 -0.3004
 1493SOL     OW 6024   0.870   0.353   2.625  0.1273 -0.0630  0.8921
 1493SOL    HW2 6025   0.894   0.265   2.654  0.8786  0.1092  0.7957
 1493SOL    HW3 6026   0.857   0.343   2.530  1.0905  0.1166  0.7365
 1493SOL    MW4 6027   0.871   0.340   2.616  0.3535 -0.0166  0.8588
 1494SOL     OW 6028   1.107   0.494   2.701 -0.5854 -0.1638 -0.0234
 1494SOL    HW2 6029   1.100   0.582   2.665 -0.0222  0.6467  1.7930
 1494SOL    HW3 6030   1.026   0.450   2.675 -1.7894  1.5444  0.7854
 1494SOL    MW4 6031   1.095   0.500   2.693 -0.6700  0.1685  0.3231
 1495SOL     OW 6032   1.079   0.768   2.637 -0.0051  0.0955 -0.5775
 1495SOL    HW2 6033   1.149   0.785   2.700 -0.9548 -0.3905  0.6164
 1495SOL    HW3 6034   1.120   0.783   2.551  1.3892  0.4013  0.1306
 1495SOL    MW4 6035   1.093   0.773   2.634  0.0535  0.0718 -0.3266
 1496SOL     OW 6036   0.863   0.880   2.743  0.0693 -0.5997 -0.3951
 1496SOL    HW2 6037   0.869   0.877   2.839  0.4175  0.9570 -0.3463
 1496SOL    HW3 6038   0.937   0.828   2.712 -0.8803 -2.3330  0.1658
 1496SOL    MW4 6039   0.873   0.873   2.752 -0.0101 -0.6230 -0.3145
 1497SOL     OW 6040   0.896   1.147   2.666  0.5680  0.1157  0.0855
 1497SOL    HW2 6041   0.888   1.053   2.683  1.5077 -0.0583 -0.4225
 1497SOL    HW3 6042   0.874   1.157   2.573  1.0590  0.3221 -0.0094
 1497SOL    MW4 6043   0.892   1.136   2.656  0.7568  0.1199  0.0060
 1498SOL     OW 6044   1.124   1.279   2.744  0.2480  0.2500 -0.2462
 1498SOL    HW2 6045   1.117   1.362   2.697  0.1012 -0.0986 -0.8383
 1498SOL    HW3 6046   1.043   1.233   2.723  0.6279 -0.3216 -0.4490
 1498SOL    MW4 6047   1.112   1.284   2.735  0.2787  0.1286 -0.3510
 1499SOL     OW 6048   1.106   1.530   2.606  0.6404 -0.0920  0.4037
 1499SOL    HW2 6049   1.029   1.570   2.647  0.6943  1.7715 -1.2104
 1499SOL    HW3 6050   1.097   1.552   2.513  3.4074  0.6215  0.2651
 1499SOL    MW4 6051   1.094   1.538   2.599  1.0124  0.2481  0.1724
 1500SOL     OW 6052   0.900   1.642   2.734  0.4510  0.1059  0.8040
 1500SOL    HW2 6053   0.904   1.628   2.828 -0.8576 -1.9634  0.5810
 1500SOL    HW3 6054   0.823   1.593   2.705  0.7508  0.8108 -1.3199
 1500SOL    MW4 6055   0.890   1.634   2.742  0.3179 -0.0740  0.4945
 1501SOL     OW 6056   0.883   1.909   2.645 -0.5775  0.0388  0.1984
 1501SOL    HW2 6057   0.955   1.953   2.690  0.1496 -0.8189 -0.1000
 1501SOL    HW3 6058   0.877   1.824   2.688 -1.0052 -0.1345 -0.2001
 1501SOL    MW4 6059   0.892   1.904   2.657 -0.5381 -0.0972  0.1066
 1502SOL     OW 6060   1.098   2.045   2.763 -0.7590 -0.6657 -0.0717
 1502SOL    HW2 6061   1.179   2.004   2.733  0.1160  0.5018  0.6242
 1502SOL    HW3 6062   1.098   2.132   2.723 -1.3834 -0.4550  0.3693
 1502SOL    MW4 6063   1.109   2.051   2.754 -0.7257 -0.4840  0.0782
 1503SOL     OW 6064   1.088   2.304   2.646 -0.0628 -0.1660 -0.0928
 1503SOL    HW2 6065   1.151   2.363   2.688  0.5070 -0.6825 -0.2159
 1503SOL    HW3 6066   1.090   2.329   2.554 -0.9204  0.6124  0.0970
 1503SOL    MW4 6067   1.097   2.315   2.639 -0.1010 -0.1316 -0.0842
 1504SOL     OW 6068   0.865   2.424   2.750  0.0669 -0.1353 -0.0487
 1504SOL    HW2 6069   0.863   2.508   2.705 -0.2641 -1.4010 -2.4320
 1504SOL    HW3 6070   0.946   2.382   2.720 -0.8783 -1.5985 -0.5701
 1504SOL    MW4 6071   0.876   2.429   2.740 -0.1015 -0.4954 -0.4318
 1505SOL     OW 6072   0.859   2.694   2.621  0.5826  0.1350  0.1190
 1505SOL    HW2 6073   0.935   2.732   2.665  1.2647  0.3890 -1.2613
 1505SOL    HW3 6074   0.784   2.736   2.662  1.2405  0.9027  0.5414
 1505SOL    MW4 6075   0.859   2.705   2.632  0.7594  0.2699 -0.0074
 1506SOL     OW 6076   1.083   2.832   2.729 -0.3105  0.4885 -0.2434
 1506SOL    HW2 6077   1.081   2.828   2.825 -1.2479  1.4272 -0.2175
 1506SOL    HW3 6078   1.161   2.781   2.705 -0.6603 -0.6394  0.9574
 1506SOL    MW4 6079   1.093   2.824   2.738 -0.4803  0.4637 -0.0815
 1507SOL     OW 6080   1.148   3.096   2.657  0.0000  0.0000 -0.0397
 1507SOL    HW2 6081   1.122   3.007   2.679  0.0000  0.0000 -0.0399
 1507SOL    HW3 6082   1.136   3.101   2.562  0.0000  0.0000 -0.0393
 1507SOL    MW4 6083   1.143   3.085   2.647  0.0000  0.0000 -0.0396
 1508SOL     OW 6084   0.919   3.208   2.739  0.0000  0.0000 -0.4784
 1508SOL    HW2 6085   0.903   3.287   2.687  0.0000  0.0000 -0.4822
 1508SOL    HW3 6086   1.006   3.179   2.712  0.0000  0.0000 -0.4748
 1508SOL    MW4 6087   0.928   3.215   2.729  0.0000  0.0000 -0.4785
 1509SOL     OW 6088   0.887   3.462   2.603  0.0000  0.0000 -0.0870
 1509SOL    HW2 6089   0.961   3.509   2.643  0.0000  0.0000 -0.0730
 1509SOL    HW3 6090   0.810   3.512   2.632  0.0000  0.0000 -0.0883
 1509SOL    MW4 6091   0.887   3.475   2.612  0.0000  0.0000 -0.0854
 1510SOL     OW 6092   1.102   3.599   2.716  0.0000  0.0000 -0.2429
 1510SOL    HW2 6093   1.101   3.626   2.808  0.0000  0.0000 -0.2438
 1510SOL    HW3 6094   1.100   3.681   2.667  0.0000  0.0000 -0.2459
 1510SOL    MW4 6095   1.102   3.613   2.722  0.0000  0.0000 -0.2437
 1511SOL     OW 6096   1.098   3.851   2.613  0.0000  0.0000 -0.1780
 1511SOL    HW2 6097   1.178   3.889   2.651  0.0000  0.0000 -0.1793
 1511SOL    HW3 6098   1.110   3.859   2.519  0.0000  0.0000 -0.1783
 1511SOL    MW4 6099   1.110   3.857   2.606  0.0000  0.0000 -0.1783
 1512SOL     OW 6100   0.893   4.008   2.738  0.0000  0.0000  0.7890
 1512SOL    HW2 6101   0.957   3.963   2.683  0.0000  0.0000  0.7824
 1512SOL    HW3 6102   0.809   3.969   2.712  0.0000  0.0000  0.7901
 1512SOL    MW4 6103   0.890   3.997   2.727  0.0000  0.0000  0.7885
 1513SOL     OW 6104   0.888   4.266   2.652  0.0000  0.0000 -0.3375
 1513SOL    HW2 6105   0.892   4.173   2.677  0.0000  0.0000 -0.3353
 1513SOL    HW3 6106   0.884   4.265   2.557  0.0000  0.0000 -0.3375
 1513SOL    MW4 6107   0.888   4.254   2.643  0.0000  0.0000 -0.3371
 1514SOL     OW 6108   1.144   4.351   2.728  0.0000  0.0000 -0.0501
 1514SOL    HW2 6109   1.137   4.378   2.819  0.0000  0.0000 -0.0497
 1514SOL    HW3 6110   1.055   4.327   2.703  0.0000  0.0000 -0.0524
 1514SOL    MW4 6111   1.131   4.351   2.737  0.0000  0.0000 -0.0503
 1515SOL     OW 6112   1.593   4.643   2.648  0.0000  0.0000  0.4557
 1515SOL    HW2 6113   1.588   4.549   2.664  0.0000  0.0000  0.4532
 1515SOL    HW3 6114   1.581   4.652   2.554  0.0000  0.0000  0.4558
 1515SOL    MW4 6115   1.591   4.632   2.638  0.0000  0.0000  0.4551
 1516SOL     OW 6116   1.343   0.088   2.724 -0.0008  0.6543  0.2790
 1516SOL    HW2 6117   1.339   0.178   2.690 -0.5462  0.0833 -1.2324
 1516SOL    HW3 6118   1.430   0.057   2.697  0.0920  0.6524  0.5860
 1516SOL    MW4 6119   1.354   0.096   2.716 -0.0607  0.5787  0.1199
 1517SOL     OW 6120   1.355   0.356   2.644 -0.2166 -0.0598 -0.1228
 1517SOL    HW2 6121   1.419   0.412   2.687  0.3127 -0.2968 -0.5961
 1517SOL    HW3 6122   1.271   0.397   2.663  0.0876  0.3598  0.3426
 1517SOL    MW4 6123   1.353   0.369   2.652 -0.1068 -0.0357 -0.1237
 1518SOL     OW 6124   1.550   0.516   2.738 -0.3457 -0.3682 -0.0088
 1518SOL    HW2 6125   1.631   0.472   2.710 -0.2071 -0.5567  0.6849
 1518SOL    HW3 6126   1.560   0.607   2.709 -0.2878 -0.6034 -0.7423
 1518SOL    MW4 6127   1.562   0.522   2.730 -0.3198 -0.4241 -0.0141
 1519SOL     OW 6128   1.584   0.774   2.649  0.1891  0.3662 -0.2844
 1519SOL    HW2 6129   1.494   0.792   2.675  0.1616 -0.2818  0.0790
 1519SOL    HW3 6130   1.582   0.777   2.554 -0.4842 -0.8809 -0.3214
 1519SOL    MW4 6131   1.572   0.777   2.640  0.0967  0.1161 -0.2410
 1520SOL     OW 6132   1.329   0.843   2.754 -0.2421 -0.0877  0.6608
 1520SOL    HW2 6133   1.335   0.831   2.849 -0.3856  1.1556  0.8426
 1520SOL    HW3 6134   1.349   0.936   2.741 -0.3704 -0.2213 -0.5116
 1520SOL    MW4 6135   1.332   0.854   2.765 -0.2779  0.0587  0.5302
 1521SOL     OW 6136   1.349   1.111   2.648 -0.6228 -0.4773 -0.1533
 1521SOL    HW2 6137   1.429   1.158   2.671 -0.3295 -1.3636  0.7001
 1521SOL    HW3 6138   1.278   1.164   2.685 -0.5105  0.8870 -1.8817
 1521SOL    MW4 6139   1.350   1.124   2.656 -0.5693 -0.4141 -0.2689
 1522SOL     OW 6140   1.558   1.273   2.755 -0.0885 -0.0389 -0.2872
 1522SOL    HW2 6141   1.568   1.262   2.850 -0.9943  0.2809 -0.1449
 1522SOL    HW3 6142   1.639   1.238   2.718 -0.2622 -1.3395  0.5339
 1522SOL    MW4 6143   1.570   1.267   2.763 -0.2308 -0.1683 -0.1600
 1523SOL     OW 6144   1.569   1.537   2.686  0.2188  0.5199  0.1350
 1523SOL    HW2 6145   1.567   1.449   2.724  2.1703 -0.3400 -1.6531
 1523SOL    HW3 6146   1.562   1.523   2.591 -2.0459  2.4681 -0.0452
 1523SOL    MW4 6147   1.568   1.524   2.678  0.1776  0.6635 -0.1247
 1524SOL     OW 6148   1.325   1.658   2.762  0.0048 -0.0023  0.0976
 1524SOL    HW2 6149   1.411   1.626   2.737 -0.5231 -1.3317 -0.0713
 1524SOL    HW3 6150   1.264   1.605   2.711 -0.9764 -0.5338  1.7648
 1524SOL    MW4 6151   1.328   1.647   2.752 -0.1944 -0.2478  0.2952
 1525SOL     OW 6152   1.315   1.923   2.657 -0.1536  0.3178 -0.3180
 1525SOL    HW2 6153   1.337   1.833   2.682 -0.8326  0.1355 -0.3687
 1525SOL    HW3 6154   1.306   1.919   2.562  0.1435  0.5079 -0.3518
 1525SOL    MW4 6155   1.317   1.910   2.648 -0.2040  0.3189 -0.3290
 1526SOL     OW 6156   1.561   2.055   2.700 -0.2723 -0.0333  0.0026
 1526SOL    HW2 6157   1.635   2.014   2.657 -1.1197 -0.9111 -0.6338
 1526SOL    HW3 6158   1.484   2.012   2.662 -1.0770  0.2968  1.2337
 1526SOL    MW4 6159   1.560   2.044   2.689 -0.4903 -0.1059  0.0811
 1527SOL     OW 6160   1.497   2.318   2.643  0.2123 -0.1631  0.2913
 1527SOL    HW2 6161   1.573   2.364   2.680  0.2187  0.1943 -0.1635
 1527SOL    HW3 6162   1.511   2.226   2.667  0.6348 -0.0554  0.4674
 1527SOL    MW4 6163   1.509   2.312   2.651  0.2689 -0.1016  0.2544
 1528SOL     OW 6164   1.304   2.466   2.779 -0.0771  0.0769 -0.7076
 1528SOL    HW2 6165   1.299   2.555   2.744 -0.1967 -0.0869 -1.1005
 1528SOL    HW3 6166   1.374   2.424   2.729 -0.8631 -0.4376 -1.3692
 1528SOL    MW4 6167   1.313   2.472   2.768 -0.1967 -0.0124 -0.8469
 1529SOL     OW 6168   1.317   2.712   2.645 -0.7457  0.2871 -0.1977
 1529SOL    HW2 6169   1.396   2.748   2.685 -0.8344  0.6292 -0.3300
 1529SOL    HW3 6170   1.328   2.729   2.551 -0.7620 -0.0802 -0.2675
 1529SOL    MW4 6171   1.329   2.719   2.638 -0.7596  0.2837 -0.2244
 1530SOL     OW 6172   1.566   2.849   2.741 -0.3380 -0.4096  0.2280
 1530SOL    HW2 6173   1.572   2.844   2.836 -1.1312  0.4972  0.3401
 1530SOL    HW3 6174   1.635   2.792   2.709 -0.4324 -1.1629  1.3490
 1530SOL    MW4 6175   1.576   2.841   2.749 -0.4551 -0.3893  0.3908
 1531SOL     OW 6176   1.594   3.098   2.621 -0.4245  0.5232 -0.0293
 1531SOL    HW2 6177   1.667   3.131   2.673 -0.7133  1.5362 -0.2744
 1531SOL    HW3 6178   1.577   3.011   2.657  0.4762  0.5404  0.4583
 1531SOL    MW4 6179   1.601   3.091   2.632 -0.3438  0.6592  0.0026
 1532SOL     OW 6180   1.385   3.225   2.755  0.5143 -0.1107  0.0791
 1532SOL    HW2 6181   1.457   3.184   2.705 -0.1915  0.3226 -1.3357
 1532SOL    HW3 6182   1.307   3.178   2.726  0.0670  0.2968  0.6260
 1532SOL    MW4 6183   1.384   3.213   2.744  0.3622  0.0005 -0.0350
 1533SOL     OW 6184   1.338   3.474   2.654 -0.0258  0.4510 -0.0552
 1533SOL    HW2 6185   1.346   3.393   2.704  0.3965  0.2375 -0.4617
 1533SOL    HW3 6186   1.259   3.516   2.689  0.7999  0.7885  1.4602
 1533SOL    MW4 6187   1.329   3.468   2.665  0.1388  0.4671  0.0913
 1534SOL     OW 6188   1.575   3.619   2.742 -0.3687  0.4426  0.0102
 1534SOL    HW2 6189   1.649   3.559   2.730  0.1283  1.1857 -0.6971
 1534SOL    HW3 6190   1.500   3.572   2.705  0.0236  0.2712 -0.5747
 1534SOL    MW4 6191   1.575   3.605   2.736 -0.2515  0.5181 -0.1607
 1535SOL     OW 6192   1.546   3.869   2.616 -0.1376  0.1152  0.0064
 1535SOL    HW2 6193   1.460   3.902   2.642 -0.2364  0.4682 -0.7393
 1535SOL    HW3 6194   1.554   3.785   2.661 -0.7653  0.1989  0.2867
 1535SOL    MW4 6195   1.535   3.862   2.625 -0.2334  0.1729 -0.0551
 1536SOL     OW 6196   1.316   3.978   2.722  0.0771  0.1254 -0.3877
 1536SOL    HW2 6197   1.345   3.983   2.813 -1.3276 -1.4293  0.1812
 1536SOL    HW3 6198   1.323   4.067   2.689 -0.9574  1.0207  1.7485
 1536SOL    MW4 6199   1.321   3.990   2.730 -0.2446  0.0386 -0.0308
 1537SOL     OW 6200   1.367   4.234   2.638 -0.5768  0.0015  0.1992
 1537SOL    HW2 6201   1.290   4.268   2.684 -0.5909 -0.5717  0.6180
 1537SOL    HW3 6202   1.342   4.235   2.546 -0.9964  0.0479  0.3105
 1537SOL    MW4 6203   1.353   4.238   2.632 -0.6340 -0.0682  0.2692
 1538SOL     OW 6204   1.603   4.370   2.708  0.2373  0.1250  0.6236
 1538SOL    HW2 6205   1.597   4.388   2.802 -0.8414  0.7840  0.4291
 1538SOL    HW3 6206   1.524   4.321   2.687  0.6136 -0.2708  0.1059
 1538SOL    MW4 6207   1.592   4.366   2.717  0.1446  0.1597  0.5298
 1539SOL     OW 6208   2.031   4.664   2.617  0.1944 -0.0297  0.2895
 1539SOL    HW2 6209   2.112   4.693   2.659  0.2921  0.2284 -0.0713
 1539SOL    HW3 6210   2.049   4.671   2.523 -0.2037 -0.0925  0.2068
 1539SOL    MW4 6211   2.044   4.669   2.610  0.1547 -0.0040  0.2308
 1540SOL     OW 6212   1.826   0.131   2.737  0.7221 -0.2403 -0.5966
 1540SOL    HW2 6213   1.903   0.106   2.686 -0.2549 -1.1591 -1.6423
 1540SOL    HW3 6214   1.755   0.078   2.701 -0.6233  1.3696 -0.3649
 1540SOL    MW4 6215   1.826   0.121   2.725  0.4157 -0.1491 -0.7038
 1541SOL     OW 6216   1.773   0.386   2.645 -0.0655 -0.3220 -0.1084
 1541SOL    HW2 6217   1.840   0.433   2.695  0.7584 -1.8322  0.2403
 1541SOL    HW3 6218   1.788   0.294   2.666 -0.4887 -0.8904 -2.1886
 1541SOL    MW4 6219   1.784   0.380   2.655 -0.0128 -0.5962 -0.3369
 1542SOL     OW 6220   2.001   0.472   2.791  0.0077 -0.5133 -0.3557
 1542SOL    HW2 6221   2.069   0.420   2.747 -0.3454  0.1228 -1.6770
 1542SOL    HW3 6222   2.017   0.561   2.761  0.7905  0.2310  2.1258
 1542SOL    MW4 6223   2.012   0.477   2.781  0.0644 -0.3312 -0.2027
 1543SOL     OW 6224   1.999   0.733   2.691 -0.2270  0.1837 -0.9124
 1543SOL    HW2 6225   1.925   0.793   2.704  0.3211  0.5226  0.7845
 1543SOL    HW3 6226   2.016   0.735   2.597 -1.9042  0.6680 -1.2211
 1543SOL    MW4 6227   1.991   0.741   2.680 -0.3760  0.2923 -0.7293
 1544SOL     OW 6228   1.793   0.915   2.778  0.2142 -0.4610  0.0908
 1544SOL    HW2 6229   1.787   1.002   2.738  0.1644 -0.2030  0.6523
 1544SOL    HW3 6230   1.721   0.866   2.738  0.3815 -0.3123 -0.3938
 1544SOL    MW4 6231   1.782   0.920   2.768  0.2297 -0.4073  0.1009
 1545SOL     OW 6232   1.782   1.149   2.640 -0.0227 -0.1675 -0.2803
 1545SOL    HW2 6233   1.867   1.187   2.661 -0.3072  0.5851 -0.4900
 1545SOL    HW3 6234   1.777   1.151   2.545 -0.3689  0.0066 -0.2620
 1545SOL    MW4 6235   1.792   1.154   2.630 -0.1060 -0.0452 -0.3057
 1546SOL     OW 6236   2.018   1.275   2.742 -0.0251  0.2286  0.1599
 1546SOL    HW2 6237   2.018   1.295   2.836 -1.1300 -1.2125  0.4971
 1546SOL    HW3 6238   2.099   1.226   2.728  0.6942  1.4140  0.1280
 1546SOL    MW4 6239   2.029   1.271   2.753 -0.0763  0.1948  0.2000
 1547SOL     OW 6240   1.993   1.536   2.636 -0.0024 -0.0857 -0.0859
 1547SOL    HW2 6241   1.937   1.591   2.691  0.8365  0.3731  0.3169
 1547SOL    HW3 6242   1.985   1.448   2.673 -0.4612 -0.0260 -0.0395
 1547SOL    MW4 6243   1.985   1.532   2.648  0.0478 -0.0172 -0.0267
 1548SOL     OW 6244   1.794   1.692   2.763 -0.0688  0.2101  0.5406
 1548SOL    HW2 6245   1.811   1.668   2.854 -0.9501 -0.5687  0.5011
 1548SOL    HW3 6246   1.712   1.647   2.740  0.0676  0.5102 -0.5924
 1548SOL    MW4 6247   1.785   1.683   2.772 -0.1670  0.1470  0.3860
 1549SOL     OW 6248   1.823   1.927   2.610  0.6025  0.7486 -0.0006
 1549SOL    HW2 6249   1.895   1.980   2.646  0.5496  0.6202  0.2909
 1549SOL    HW3 6250   1.815   1.853   2.670 -0.0182  0.9556  0.1743
 1549SOL    MW4 6251   1.831   1.925   2.622  0.5138  0.7591  0.0610
 1550SOL     OW 6252   2.021   2.064   2.737 -0.5589  0.0607  0.0512
 1550SOL    HW2 6253   2.032   2.059   2.832 -1.7793 -0.3792  0.1824
 1550SOL    HW3 6254   1.990   2.152   2.721 -0.4650  0.0984  0.0746
 1550SOL    MW4 6255   2.019   2.075   2.748 -0.7076  0.0076  0.0718
 1551SOL     OW 6256   1.955   2.332   2.675  0.1069  0.1195  0.5550
 1551SOL    HW2 6257   2.030   2.374   2.716  1.1988 -1.5925  0.3624
 1551SOL    HW3 6258   1.984   2.314   2.585 -0.1532 -1.4578  0.7686
 1551SOL    MW4 6259   1.969   2.335   2.668  0.2167 -0.3145  0.5577
 1552SOL     OW 6260   1.725   2.473   2.737  0.2456  0.0888 -0.0977
 1552SOL    HW2 6261   1.748   2.474   2.830 -0.8887  0.1402  0.1984
 1552SOL    HW3 6262   1.791   2.418   2.696  0.7667  0.0818  0.7368
 1552SOL    MW4 6263   1.737   2.466   2.744  0.1647  0.0947  0.0513
 1553SOL     OW 6264   1.812   2.724   2.617 -0.6243 -0.5298  0.2724
 1553SOL    HW2 6265   1.784   2.639   2.650  0.7588 -1.1620 -0.1361
 1553SOL    HW3 6266   1.807   2.716   2.522 -1.0663  0.0498  0.2448
 1553SOL    MW4 6267   1.808   2.712   2.609 -0.5000 -0.5367  0.2151
 1554SOL     OW 6268   2.007   2.824   2.780 -0.0041  0.1370 -0.0822
 1554SOL    HW2 6269   2.092   2.798   2.747 -0.2141  1.1158 -1.4247
 1554SOL    HW3 6270   1.944   2.780   2.723 -0.4034 -0.2404  0.6369
 1554SOL    MW4 6271   2.010   2.815   2.768 -0.0844  0.2160 -0.1645
 1555SOL     OW 6272   2.022   3.112   2.636  0.6434 -0.0071  0.2969
 1555SOL    HW2 6273   2.001   3.020   2.653 -1.5149  0.3880 -0.0240
 1555SOL    HW3 6274   2.028   3.118   2.541 -0.7012  0.4520  0.2240
 1555SOL    MW4 6275   2.020   3.101   2.626  0.1812  0.1054  0.2449
 1556SOL     OW 6276   1.805   3.208   2.750  0.0760 -0.5269 -0.4523
 1556SOL    HW2 6277   1.792   3.297   2.717 -1.0065 -0.5415 -0.0905
 1556SOL    HW3 6278   1.890   3.182   2.715  0.9867  1.1008  0.4435
 1556SOL    MW4 6279   1.814   3.217   2.741  0.0534 -0.3142 -0.2863
 1557SOL     OW 6280   1.785   3.472   2.654 -0.4995 -0.1115  0.5902
 1557SOL    HW2 6281   1.867   3.512   2.682 -0.8404 -0.3482  1.9716
 1557SOL    HW3 6282   1.794   3.462   2.559  1.0139 -0.0190  0.7140
 1557SOL    MW4 6283   1.797   3.476   2.645 -0.3449 -0.1304  0.7892
 1558SOL     OW 6284   2.011   3.606   2.714  0.0727 -0.0291 -0.0772
 1558SOL    HW2 6285   2.016   3.604   2.809 -1.5095  0.4928  0.0402
 1558SOL    HW3 6286   2.097   3.577   2.684  1.3738  2.0288  1.5180
 1558SOL    MW4 6287   2.023   3.602   2.723  0.0355  0.3114  0.1488
 1559SOL     OW 6288   1.994   3.886   2.682 -0.5451 -0.0899  0.2017
 1559SOL    HW2 6289   1.915   3.930   2.715 -0.6902  0.1850 -0.5030
 1559SOL    HW3 6290   1.984   3.795   2.711 -0.1600  0.3795  1.8086
 1559SOL    MW4 6291   1.982   3.880   2.690 -0.5136  0.0081  0.3207
 1560SOL     OW 6292   1.754   4.005   2.745 -0.1250 -0.1995  0.0379
 1560SOL    HW2 6293   1.767   4.096   2.720 -0.0419 -0.3756 -0.5851
 1560SOL    HW3 6294   1.689   3.972   2.682  1.0645 -1.0162 -0.7969
 1560SOL    MW4 6295   1.747   4.013   2.733  0.0429 -0.3309 -0.1545
 1561SOL     OW 6296   1.839   4.266   2.618  0.3651  0.1660  0.2417
 1561SOL    HW2 6297   1.761   4.306   2.657 -0.5203 -1.4781  0.2002
 1561SOL    HW3 6298   1.830   4.282   2.524  0.1378  0.0590  0.2464
 1561SOL    MW4 6299   1.827   4.274   2.611  0.2183 -0.0648  0.2370
 1562SOL     OW 6300   2.053   4.407   2.728 -0.4176 -0.9055  0.2299
 1562SOL    HW2 6301   1.984   4.371   2.674  0.8773 -1.0437 -1.3566
 1562SOL    HW3 6302   2.062   4.498   2.699  0.4262 -1.0367  0.0599
 1562SOL    MW4 6303   2.045   4.415   2.717 -0.1354 -0.9403 -0.0019
 1563SOL     OW 6304   2.476   4.607   2.657  0.1739  0.7194 -0.0702
 1563SOL    HW2 6305   2.546   4.662   2.693  0.7975 -0.2611  0.2618
 1563SOL    HW3 6306   2.486   4.615   2.562 -0.1701  1.7093 -0.0215
 1563SOL    MW4 6307   2.487   4.615   2.649  0.2108  0.7205 -0.0198
 1564SOL     OW 6308   2.265   0.081   2.728 -0.2596 -0.0292  0.6105
 1564SOL    HW2 6309   2.267   0.088   2.823 -1.0786  0.0551  0.6274
 1564SOL    HW3 6310   2.346   0.035   2.705  0.1316  0.3118  1.3133
 1564SOL    MW4 6311   2.276   0.076   2.738 -0.3159  0.0269  0.7055
 1565SOL     OW 6312   2.224   0.369   2.654 -0.5446 -0.5138  0.1240
 1565SOL    HW2 6313   2.233   0.274   2.647 -0.1316 -0.4635  0.0212
 1565SOL    HW3 6314   2.244   0.403   2.567 -1.1235 -0.3637  0.0449
 1565SOL    MW4 6315   2.228   0.361   2.642 -0.5665 -0.4874  0.0999
 1566SOL     OW 6316   2.471   0.481   2.760  0.3188  0.1396 -0.3065
 1566SOL    HW2 6317   2.455   0.572   2.734  0.8047  0.5206  0.6962
 1566SOL    HW3 6318   2.390   0.435   2.736 -0.0778  0.9085 -0.4813
 1566SOL    MW4 6319   2.458   0.487   2.754  0.3307  0.2913 -0.1974
 1567SOL     OW 6320   2.461   0.758   2.657  0.2849  0.0708  0.5210
 1567SOL    HW2 6321   2.389   0.816   2.682 -1.7399 -2.4905  0.8996
 1567SOL    HW3 6322   2.468   0.768   2.562  1.5094  2.6276  0.8671
 1567SOL    MW4 6323   2.452   0.767   2.648  0.1793  0.0702  0.6166
 1568SOL     OW 6324   2.217   0.899   2.743  0.4050  0.2367  0.1830
 1568SOL    HW2 6325   2.225   0.891   2.838 -1.2758  0.6043  0.3844
 1568SOL    HW3 6326   2.150   0.834   2.719  0.0062  0.9181 -0.5870
 1568SOL    MW4 6327   2.209   0.889   2.752  0.1307  0.3750  0.1080
 1569SOL     OW 6328   2.242   1.143   2.609 -0.7872 -0.0010 -0.8267
 1569SOL    HW2 6329   2.224   1.057   2.647  0.9160  0.1090  0.2537
 1569SOL    HW3 6330   2.259   1.126   2.517  3.2590 -1.3318  0.0913
 1569SOL    MW4 6331   2.242   1.129   2.602 -0.0286 -0.1620 -0.5629
 1570SOL     OW 6332   2.476   1.264   2.764 -0.2817  0.3030  0.7026
 1570SOL    HW2 6333   2.554   1.237   2.716 -0.0175  2.0984  0.0600
 1570SOL    HW3 6334   2.404   1.218   2.721  0.2208  0.1315  0.0345
 1570SOL    MW4 6335   2.477   1.255   2.752 -0.1805  0.5171  0.5295
 1571SOL     OW 6336   2.444   1.519   2.653 -0.1100 -0.3860 -0.2148
 1571SOL    HW2 6337   2.372   1.570   2.689  0.4568  0.8598 -0.8143
 1571SOL    HW3 6338   2.442   1.437   2.702 -0.4434  0.5765  1.4150
 1571SOL    MW4 6339   2.434   1.515   2.664 -0.0796 -0.0948 -0.0787
 1572SOL     OW 6340   2.216   1.679   2.734 -0.0196 -0.2540 -0.1187
 1572SOL    HW2 6341   2.220   1.767   2.695  0.0861  0.4817  1.5103
 1572SOL    HW3 6342   2.155   1.631   2.678 -0.4082  0.9954 -0.7906
 1572SOL    MW4 6343   2.208   1.684   2.722 -0.0570  0.0077  0.0076
 1573SOL     OW 6344   2.224   1.922   2.611  0.1797  0.3093 -0.1507
 1573SOL    HW2 6345   2.152   1.977   2.642 -0.0224  0.3437 -0.6691
 1573SOL    HW3 6346   2.235   1.947   2.519 -0.0184 -0.6337 -0.4337
 1573SOL    MW4 6347   2.216   1.932   2.603  0.1268  0.1894 -0.2563
 1574SOL     OW 6348   2.460   2.020   2.701  0.1545  0.4519  0.1321
 1574SOL    HW2 6349   2.445   2.114   2.689  0.5852  0.5990  0.7098
 1574SOL    HW3 6350   2.373   1.981   2.696  0.0890  0.7501 -1.2407
 1574SOL    MW4 6351   2.447   2.027   2.699  0.2024  0.5105  0.0272
 1575SOL     OW 6352   2.404   2.286   2.660 -0.1731  0.3914  0.0560
 1575SOL    HW2 6353   2.491   2.317   2.687  0.6162 -0.1330 -1.7872
 1575SOL    HW3 6354   2.402   2.301   2.565 -1.9704  0.0745  0.0269
 1575SOL    MW4 6355   2.415   2.292   2.651 -0.3059  0.2804 -0.1910
 1576SOL     OW 6356   2.192   2.440   2.746  0.0265 -0.1632 -0.1366
 1576SOL    HW2 6357   2.216   2.463   2.835  1.3417  2.8719 -1.1999
 1576SOL    HW3 6358   2.261   2.380   2.717  1.6144  1.6562 -0.2502
 1576SOL    MW4 6359   2.205   2.435   2.754  0.4094  0.4771 -0.2921
 1577SOL     OW 6360   2.236   2.704   2.655  0.0458 -0.2224  0.4090
 1577SOL    HW2 6361   2.319   2.729   2.695  0.6179 -0.2332 -0.7545
 1577SOL    HW3 6362   2.222   2.613   2.683  0.3244 -0.1490  0.7770
 1577SOL    MW4 6363   2.245   2.695   2.664  0.1578 -0.2141  0.3037
 1578SOL     OW 6364   2.478   2.778   2.751 -0.3468  0.4891  0.2055
 1578SOL    HW2 6365   2.559   2.737   2.721 -0.2560  0.0585  1.0349
 1578SOL    HW3 6366   2.488   2.871   2.729 -0.0341  0.2794 -0.5531
 1578SOL    MW4 6367   2.490   2.785   2.744 -0.2937  0.4046  0.2146
 1579SOL     OW 6368   2.488   3.058   2.639 -0.3104 -0.3434  0.2479
 1579SOL    HW2 6369   2.412   3.103   2.676  0.4280 -0.2782  1.7589
 1579SOL    HW3 6370   2.475   3.062   2.545 -0.2619  3.0986  0.3160
 1579SOL    MW4 6371   2.476   3.065   2.632 -0.2065  0.1194  0.4563
 1580SOL     OW 6372   2.270   3.189   2.740 -0.1779 -0.1365  0.2200
 1580SOL    HW2 6373   2.254   3.214   2.831 -0.3657  0.7468 -0.0516
 1580SOL    HW3 6374   2.184   3.165   2.706 -0.3594  0.9993 -0.1549
 1580SOL    MW4 6375   2.257   3.189   2.748 -0.2267  0.1302  0.1349
 1581SOL     OW 6376   2.250   3.454   2.649 -0.7181  0.3868  0.2849
 1581SOL    HW2 6377   2.316   3.512   2.688 -1.1035 -0.0352  1.6103
 1581SOL    HW3 6378   2.264   3.370   2.692 -2.3307  0.3873  0.8371
 1581SOL    MW4 6379   2.261   3.451   2.660 -0.9818  0.3309  0.5324
 1582SOL     OW 6380   2.450   3.628   2.741  0.1980  0.2767 -0.1013
 1582SOL    HW2 6381   2.433   3.635   2.835  0.3432  0.9544 -0.1207
 1582SOL    HW3 6382   2.449   3.718   2.710 -2.0756 -0.0831 -1.1599
 1582SOL    MW4 6383   2.448   3.641   2.750 -0.0832  0.3185 -0.2437
 1583SOL     OW 6384   2.465   3.903   2.629  0.0884  0.1906  0.0128
 1583SOL    HW2 6385   2.527   3.928   2.698 -0.1143  3.2352 -0.8159
 1583SOL    HW3 6386   2.390   3.960   2.644 -0.8560 -0.6921 -1.3871
 1583SOL    MW4 6387   2.464   3.914   2.640 -0.0627  0.4756 -0.2809
 1584SOL     OW 6388   2.227   4.006   2.727  0.6058  0.1513  0.1605
 1584SOL    HW2 6389   2.219   4.024   2.821  1.1192 -1.0546  0.4531
 1584SOL    HW3 6390   2.146   3.960   2.705  0.9283 -0.4523  0.2339
 1584SOL    MW4 6391   2.215   4.002   2.736  0.7160 -0.0873  0.2089
 1585SOL     OW 6392   2.241   4.251   2.611  0.3538  0.2950 -0.9124
 1585SOL    HW2 6393   2.231   4.161   2.644  3.1075  0.4723  0.5399
 1585SOL    HW3 6394   2.174   4.301   2.657  1.1548 -0.3540  1.0429
 1585SOL    MW4 6395   2.231   4.245   2.621  0.8230  0.2332 -0.4630
 1586SOL     OW 6396   2.466   4.365   2.760  0.1461  0.1584 -0.0077
 1586SOL    HW2 6397   2.393   4.320   2.718  0.3352 -0.2267  0.0718
 1586SOL    HW3 6398   2.467   4.452   2.721  0.1909 -0.1295 -0.6407
 1586SOL    MW4 6399   2.456   4.370   2.750  0.1771  0.0691 -0.0808
 1587SOL     OW 6400   2.909   4.637   2.629 -0.1258  0.1167 -0.1660
 1587SOL    HW2 6401   2.970   4.693   2.677  0.5746  0.3855 -1.3533
 1587SOL    HW3 6402   2.938   4.642   2.538 -1.7085 -0.0274 -0.6975
 1587SOL    MW4 6403   2.920   4.645   2.623 -0.2420  0.1335 -0.3929
 1588SOL     OW 6404   2.684   0.082   2.760  0.4387  0.2390  0.0793
 1588SOL    HW2 6405   2.696   0.054   2.851 -0.5468  0.1464  0.1819
 1588SOL    HW3 6406   2.748   0.032   2.711 -0.6660 -1.5143  0.3861
 1588SOL    MW4 6407   2.694   0.072   2.766  0.1631 -0.0046  0.1330
 1589SOL     OW 6408   2.683   0.349   2.660 -0.2894  0.3172 -0.0615
 1589SOL    HW2 6409   2.684   0.257   2.685 -0.2483 -0.2452 -2.0831
 1589SOL    HW3 6410   2.602   0.384   2.698 -1.0423 -0.9027 -0.5372
 1589SOL    MW4 6411   2.673   0.342   2.668 -0.3834  0.0820 -0.3910
 1590SOL     OW 6412   2.894   0.515   2.728 -0.2177  0.0012  0.0862
 1590SOL    HW2 6413   2.887   0.598   2.681  1.6026 -0.1566 -0.5238
 1590SOL    HW3 6414   2.812   0.469   2.709 -0.6232  1.0599 -0.7513
 1590SOL    MW4 6415   2.882   0.520   2.719 -0.0310  0.1200 -0.1047
 1591SOL     OW 6416   2.909   0.760   2.596  0.0311 -0.8536  0.3842
 1591SOL    HW2 6417   2.982   0.813   2.630 -0.6395  0.4075 -0.1074
 1591SOL    HW3 6418   2.831   0.801   2.633 -0.4270 -2.2643  0.9875
 1591SOL    MW4 6419   2.909   0.773   2.605 -0.1175 -0.8734  0.3989
 1592SOL     OW 6420   2.679   0.892   2.718 -0.5281 -0.2115  0.0731
 1592SOL    HW2 6421   2.677   0.882   2.813 -0.8829  0.0131  0.0914
 1592SOL    HW3 6422   2.602   0.845   2.687 -0.0577 -0.8339 -0.1613
 1592SOL    MW4 6423   2.668   0.885   2.726 -0.5131 -0.2640  0.0446
 1593SOL     OW 6424   2.686   1.170   2.622 -0.2332 -0.5543 -0.1797
 1593SOL    HW2 6425   2.758   1.210   2.671  0.3407 -1.3662 -0.3461
 1593SOL    HW3 6426   2.674   1.084   2.662 -1.1869 -0.3821 -0.0882
 1593SOL    MW4 6427   2.694   1.164   2.634 -0.2832 -0.6386 -0.1898
 1594SOL     OW 6428   2.929   1.287   2.724  0.1043  0.3616  0.2194
 1594SOL    HW2 6429   2.936   1.273   2.818  0.5057 -0.6917  0.0404
 1594SOL    HW3 6430   2.998   1.232   2.686 -1.1410 -0.5461 -0.7918
 1594SOL    MW4 6431   2.939   1.278   2.731 -0.0072  0.1029  0.0622
 1595SOL     OW 6432   2.926   1.559   2.613 -0.0839 -0.2423  0.0710
 1595SOL    HW2 6433   2.841   1.601   2.627 -0.2607 -0.3809 -0.5593
 1595SOL    HW3 6434   2.913   1.469   2.644 -0.0903 -0.1908  0.2185
 1595SOL    MW4 6435   2.913   1.552   2.619 -0.1082 -0.2538  0.0076
 1596SOL     OW 6436   2.685   1.641   2.724  0.1842  0.2117  0.0588
 1596SOL    HW2 6437   2.683   1.640   2.820 -1.5383 -0.7647  0.0297
 1596SOL    HW3 6438   2.598   1.611   2.698  0.7388  0.1823 -1.8180
 1596SOL    MW4 6439   2.674   1.637   2.733  0.0300  0.0789 -0.1926
 1597SOL     OW 6440   2.691   1.896   2.647  0.6396 -0.1146 -0.4144
 1597SOL    HW2 6441   2.671   1.812   2.688 -0.9934  0.0594 -0.7940
 1597SOL    HW3 6442   2.607   1.943   2.647  0.8738  0.3577 -2.8119
 1597SOL    MW4 6443   2.677   1.891   2.652  0.4549 -0.0292 -0.7811
 1598SOL     OW 6444   2.928   2.050   2.741  0.0581 -0.6444  0.0367
 1598SOL    HW2 6445   2.914   2.130   2.691  0.4975 -0.5165  0.1125
 1598SOL    HW3 6446   2.845   2.003   2.736 -0.1495 -0.2583 -0.1409
 1598SOL    MW4 6447   2.916   2.054   2.734  0.0887 -0.5765  0.0234
 1599SOL     OW 6448   2.871   2.291   2.629 -0.3390  0.1862 -0.1301
 1599SOL    HW2 6449   2.935   2.353   2.665  1.2273 -0.6555 -1.3912
 1599SOL    HW3 6450   2.789   2.314   2.673  0.7892  1.3560  1.4674
 1599SOL    MW4 6451   2.869   2.302   2.640  0.0167  0.2294 -0.0858
 1600SOL     OW 6452   2.630   2.406   2.723  0.6076 -0.3490 -0.3078
 1600SOL    HW2 6453   2.644   2.432   2.814 -3.4003  0.2236  0.2280
 1600SOL    HW3 6454   2.641   2.487   2.673  0.2037 -0.1273 -0.0394
 1600SOL    MW4 6455   2.634   2.420   2.729  0.0255 -0.2441 -0.2022
 1601SOL     OW 6456   2.724   2.666   2.631 -0.0541  0.5370  0.0326
 1601SOL    HW2 6457   2.786   2.730   2.666 -0.6906  1.7356 -0.9517
 1601SOL    HW3 6458   2.711   2.693   2.540  1.4047 -2.3629 -1.0802
 1601SOL    MW4 6459   2.730   2.678   2.623  0.0546  0.3123 -0.2441
 1602SOL     OW 6460   2.907   2.828   2.768 -0.0863 -0.1433 -0.5777
 1602SOL    HW2 6461   2.879   2.850   2.857  0.9254 -0.1698 -0.2521
 1602SOL    HW3 6462   2.913   2.913   2.723 -0.9408 -0.1603 -0.7229
 1602SOL    MW4 6463   2.904   2.842   2.774 -0.0656 -0.1490 -0.5541
 1603SOL     OW 6464   2.925   3.085   2.667 -0.4113 -0.2459 -0.0945
 1603SOL    HW2 6465   2.842   3.129   2.687 -0.0819  0.3354  0.0074
 1603SOL    HW3 6466   2.937   3.097   2.573 -0.7571 -0.8889 -0.2266
 1603SOL    MW4 6467   2.916   3.092   2.657 -0.4132 -0.2542 -0.0985
 1604SOL     OW 6468   2.677   3.208   2.751  0.1859 -0.1400  0.3678
 1604SOL    HW2 6469   2.649   3.297   2.731 -0.4927 -0.3570  0.3375
 1604SOL    HW3 6470   2.612   3.152   2.709  0.0746 -0.6354  1.1910
 1604SOL    MW4 6471   2.665   3.212   2.743  0.0813 -0.2341  0.4723
 1605SOL     OW 6472   2.669   3.469   2.638  0.1071  0.2435 -0.4072
 1605SOL    HW2 6473   2.592   3.519   2.665 -1.3094 -1.7027 -0.7197
 1605SOL    HW3 6474   2.666   3.469   2.542  1.0332  0.9455 -0.4460
 1605SOL    MW4 6475   2.659   3.476   2.629  0.0422  0.0794 -0.4537
 1606SOL     OW 6476   2.910   3.588   2.718 -0.4281 -0.1394  0.3748
 1606SOL    HW2 6477   2.913   3.587   2.814 -1.4077 -0.3168  0.4157
 1606SOL    HW3 6478   2.828   3.542   2.697 -0.5408  0.4667 -0.5217
 1606SOL    MW4 6479   2.899   3.582   2.728 -0.5724 -0.0830  0.2620
 1607SOL     OW 6480   2.894   3.870   2.635  0.2690 -0.1723 -0.0859
 1607SOL    HW2 6481   2.979   3.900   2.666  0.3405 -0.4306 -0.0288
 1607SOL    HW3 6482   2.888   3.780   2.666  0.1253 -0.2686 -0.3884
 1607SOL    MW4 6483   2.904   3.862   2.643  0.2594 -0.2191 -0.1187
 1608SOL     OW 6484   2.672   3.993   2.765  0.2014  0.4315 -0.3343
 1608SOL    HW2 6485   2.658   4.074   2.717  1.3028  0.4657 -0.6157
 1608SOL    HW3 6486   2.743   3.949   2.717 -0.0241 -0.4436  0.1245
 1608SOL    MW4 6487   2.679   3.998   2.752  0.3166  0.3202 -0.3109
 1609SOL     OW 6488   2.686   4.246   2.647  0.0561 -0.1183  0.5948
 1609SOL    HW2 6489   2.765   4.295   2.668 -0.8038  1.2450  0.6742
 1609SOL    HW3 6490   2.616   4.290   2.694 -1.1620  0.2112 -1.4570
 1609SOL    MW4 6491   2.687   4.258   2.656 -0.2177  0.1049  0.3345
 1610SOL     OW 6492   2.932   4.368   2.738 -0.3382 -0.1774  0.4117
 1610SOL    HW2 6493   2.923   4.380   2.833 -2.1840 -0.8164  0.3357
 1610SOL    HW3 6494   2.924   4.457   2.702 -2.5658 -0.2338  0.6739
 1610SOL    MW4 6495   2.929   4.382   2.746 -0.8755 -0.2685  0.4363
 1611SOL     OW 6496   3.343   4.642   2.642 -0.3380 -0.7497 -0.0946
 1611SOL    HW2 6497   3.344   4.557   2.687 -0.7498 -1.5025 -1.4819
 1611SOL    HW3 6498   3.261   4.682   2.669  0.2178 -0.4368  1.1884
 1611SOL    MW4 6499   3.333   4.636   2.652 -0.3192 -0.8078 -0.1082
 1612SOL     OW 6500   3.106   0.118   2.730  0.1797 -0.1170 -0.1500
 1612SOL    HW2 6501   3.098   0.123   2.826 -1.1919  0.5484 -0.2897
 1612SOL    HW3 6502   3.101   0.209   2.701  1.0816 -0.2796 -0.8272
 1612SOL    MW4 6503   3.105   0.130   2.739  0.1178 -0.0506 -0.2577
 1613SOL     OW 6504   3.140   0.389   2.636  0.1946 -0.0838  0.5541
 1613SOL    HW2 6505   3.056   0.431   2.655 -0.3615 -1.3338  0.9508
 1613SOL    HW3 6506   3.147   0.391   2.540  0.2633  1.0536  0.5786
 1613SOL    MW4 6507   3.130   0.395   2.626  0.1304 -0.0986  0.6096
 1614SOL     OW 6508   3.367   0.523   2.735  0.2098 -0.0841  0.1589
 1614SOL    HW2 6509   3.348   0.610   2.699 -0.0357  0.1688  0.8808
 1614SOL    HW3 6510   3.290   0.471   2.714 -0.3239  0.3106  1.0844
 1614SOL    MW4 6511   3.354   0.528   2.728  0.1070  0.0014  0.3762
 1615SOL     OW 6512   3.362   0.788   2.636  0.1002  0.1250 -0.0185
 1615SOL    HW2 6513   3.452   0.803   2.664 -0.3954  0.1769  1.5758
 1615SOL    HW3 6514   3.366   0.792   2.540  1.9455 -0.7867 -0.0003
 1615SOL    MW4 6515   3.375   0.790   2.627  0.2782  0.0115  0.1943
 1616SOL     OW 6516   3.136   0.916   2.706  0.6149  0.0600 -0.6046
 1616SOL    HW2 6517   3.129   0.910   2.802  1.7402  1.2518 -0.4377
 1616SOL    HW3 6518   3.220   0.875   2.686  1.2667  1.5466 -0.9003
 1616SOL    MW4 6519   3.146   0.909   2.716  0.8492  0.4135 -0.6216
 1617SOL     OW 6520   3.146   1.181   2.595 -0.6966 -0.4267 -0.5050
 1617SOL    HW2 6521   3.163   1.091   2.624 -1.0234 -0.7338 -1.2641
 1617SOL    HW3 6522   3.146   1.176   2.500 -0.1466  0.4884 -0.5574
 1617SOL    MW4 6523   3.148   1.168   2.586 -0.6671 -0.3465 -0.6120
 1618SOL     OW 6524   3.341   1.338   2.727 -1.0164 -0.0364  0.2865
 1618SOL    HW2 6525   3.334   1.295   2.812 -0.9278 -1.2704 -0.3246
 1618SOL    HW3 6526   3.267   1.306   2.676 -0.7593  0.2602 -0.2923
 1618SOL    MW4 6527   3.331   1.328   2.731 -0.9711 -0.1601  0.1297
 1619SOL     OW 6528   3.373   1.602   2.633 -0.3440 -0.2157 -0.0362
 1619SOL    HW2 6529   3.295   1.645   2.667  0.6807  0.7630  1.1144
 1619SOL    HW3 6530   3.372   1.515   2.673 -0.5526 -0.0074  0.4125
 1619SOL    MW4 6531   3.363   1.596   2.643 -0.2363 -0.0590  0.1750
 1620SOL     OW 6532   3.152   1.712   2.747 -0.4161  0.2946 -0.2780
 1620SOL    HW2 6533   3.144   1.800   2.708 -2.6010  0.7197  1.0565
 1620SOL    HW3 6534   3.073   1.666   2.719 -0.0173 -0.7409  0.2765
 1620SOL    MW4 6535   3.141   1.718   2.738 -0.6518  0.2141 -0.0291
 1621SOL     OW 6536   3.155   1.948   2.623  0.0513  0.2538 -0.2883
 1621SOL    HW2 6537   3.233   1.987   2.661 -0.6515  0.0790  1.3696
 1621SOL    HW3 6538   3.082   1.997   2.661 -0.7310 -1.0255 -0.1019
 1621SOL    MW4 6539   3.156   1.959   2.633 -0.1447  0.0620 -0.0448
 1622SOL     OW 6540   3.386   2.056   2.726  0.5051  0.1507 -0.0170
 1622SOL    HW2 6541   3.391   2.067   2.821 -1.0254 -1.8083  0.3193
 1622SOL    HW3 6542   3.368   2.144   2.693  1.7427  0.9887  1.4278
 1622SOL    MW4 6543   3.385   2.069   2.734  0.4666  0.0026  0.2179
 1623SOL     OW 6544   3.330   2.320   2.651 -0.4788 -0.3444  0.3079
 1623SOL    HW2 6545   3.405   2.367   2.687  0.3363 -2.0803  0.9207
 1623SOL    HW3 6546   3.338   2.331   2.556  0.7110 -0.7420  0.3501
 1623SOL    MW4 6547   3.341   2.328   2.643 -0.2146 -0.6258  0.3943
 1624SOL     OW 6548   3.080   2.443   2.726  0.2088  0.3730  0.3984
 1624SOL    HW2 6549   3.092   2.537   2.710 -0.2008  0.0407 -2.0924
 1624SOL    HW3 6550   3.163   2.403   2.700  0.0808 -0.0430  0.6285
 1624SOL    MW4 6551   3.092   2.450   2.721  0.1376  0.2744  0.1004
 1625SOL     OW 6552   3.141   2.708   2.703 -0.0766 -0.0074  0.6104
 1625SOL    HW2 6553   3.211   2.752   2.751 -1.1276  2.7216 -0.2644
 1625SOL    HW3 6554   3.061   2.748   2.736 -1.0516 -0.9504 -0.5644
 1625SOL    MW4 6555   3.140   2.719   2.714 -0.3440  0.2282  0.3400
 1626SOL     OW 6556   3.343   2.879   2.781 -0.0840 -0.0688 -0.3351
 1626SOL    HW2 6557   3.362   2.878   2.875 -1.6338 -1.4110 -0.0177
 1626SOL    HW3 6558   3.413   2.826   2.743 -0.4468 -1.0031  0.2748
 1626SOL    MW4 6559   3.355   2.872   2.789 -0.3364 -0.3691 -0.2127
 1627SOL     OW 6560   3.416   3.141   2.660  0.2575 -0.4393 -0.2415
 1627SOL    HW2 6561   3.402   3.062   2.711 -0.7060 -0.3205 -0.2999
 1627SOL    HW3 6562   3.403   3.113   2.569  0.5647 -0.3555 -0.3105
 1627SOL    MW4 6563   3.412   3.127   2.655  0.1709 -0.4127 -0.2582
 1628SOL     OW 6564   3.152   3.240   2.739  0.0744 -0.1894 -0.0344
 1628SOL    HW2 6565   3.233   3.199   2.708  0.3621 -1.4572  2.2713
 1628SOL    HW3 6566   3.083   3.180   2.711  0.0150  0.3460 -1.0603
 1628SOL    MW4 6567   3.154   3.227   2.731  0.1047 -0.2859  0.1345
 1629SOL     OW 6568   3.153   3.495   2.644 -0.1083 -0.0227 -0.3108
 1629SOL    HW2 6569   3.149   3.402   2.663  0.0062 -0.1704 -1.0004
 1629SOL    HW3 6570   3.068   3.529   2.672 -0.8659 -0.6639 -1.7770
 1629SOL    MW4 6571   3.141   3.487   2.651 -0.1931 -0.1268 -0.5951
 1630SOL     OW 6572   3.387   3.598   2.754  0.0556 -0.8442  0.1319
 1630SOL    HW2 6573   3.397   3.596   2.850 -0.5282  0.4816  0.2242
 1630SOL    HW3 6574   3.313   3.540   2.737 -2.1464  1.6569  0.8138
 1630SOL    MW4 6575   3.379   3.590   2.765 -0.3119 -0.3393  0.2339
 1631SOL     OW 6576   3.370   3.854   2.654 -0.0055 -0.2863  0.2863
 1631SOL    HW2 6577   3.376   3.762   2.681  0.4783 -0.4033 -0.2016
 1631SOL    HW3 6578   3.369   3.850   2.558 -1.0828  0.1544  0.2799
 1631SOL    MW4 6579   3.371   3.841   2.645 -0.0837 -0.2434  0.2208
 1632SOL     OW 6580   3.146   3.975   2.729 -0.2514 -0.2498  0.4566
 1632SOL    HW2 6581   3.153   4.065   2.699 -1.7623 -0.1563  0.3676
 1632SOL    HW3 6582   3.232   3.937   2.710  0.2820  1.0597  0.1750
 1632SOL    MW4 6583   3.158   3.982   2.723 -0.3805 -0.0648  0.4077
 1633SOL     OW 6584   3.161   4.245   2.654 -0.1519 -0.0169  0.0712
 1633SOL    HW2 6585   3.080   4.280   2.690 -0.5647 -1.3668  0.4822
 1633SOL    HW3 6586   3.149   4.251   2.559 -1.6910 -2.2560  0.0766
 1633SOL    MW4 6587   3.149   4.250   2.646 -0.4096 -0.4907  0.1264
 1634SOL     OW 6588   3.379   4.383   2.739  0.3813  0.3840 -0.0165
 1634SOL    HW2 6589   3.397   4.375   2.832  1.4027 -1.4792 -0.3526
 1634SOL    HW3 6590   3.299   4.331   2.726  0.1232  0.8136 -0.1292
 1634SOL    MW4 6591   3.370   4.375   2.749  0.4818  0.1945 -0.0756
 1635SOL     OW 6592   3.829   4.636   2.630 -0.1185 -0.3554  0.2734
 1635SOL    HW2 6593   3.817   4.551   2.673 -1.2384 -0.1860  0.3305
 1635SOL    HW3 6594   3.750   4.685   2.652 -0.0806  0.2337 -0.8364
 1635SOL    MW4 6595   3.817   4.631   2.638 -0.2613 -0.2556  0.1342
 1636SOL     OW 6596   3.587   0.110   2.693 -0.3922  0.2824 -0.2162
 1636SOL    HW2 6597   3.572   0.202   2.670 -1.4343  0.2934  0.4588
 1636SOL    HW3 6598   3.502   0.068   2.679 -0.3526 -0.2404  1.0989
 1636SOL    MW4 6599   3.574   0.116   2.688 -0.5245  0.2149  0.0465
 1637SOL     OW 6600   3.584   0.372   2.623  0.1847 -0.1210 -0.0826
 1637SOL    HW2 6601   3.653   0.413   2.676 -0.7505  1.8084 -0.3031
 1637SOL    HW3 6602   3.505   0.421   2.645 -0.9494 -1.7137 -0.5238
 1637SOL    MW4 6603   3.583   0.384   2.633 -0.0885 -0.0766 -0.1700
 1638SOL     OW 6604   3.802   0.500   2.761  0.6030 -0.1980  0.1944
 1638SOL    HW2 6605   3.817   0.477   2.853  0.1128 -1.6249 -0.0684
 1638SOL    HW3 6606   3.877   0.465   2.714  0.4246 -0.2273 -0.0699
 1638SOL    MW4 6607   3.814   0.493   2.767  0.5150 -0.3901  0.1247
 1639SOL     OW 6608   3.791   0.748   2.653 -0.2684  0.1219  0.0392
 1639SOL    HW2 6609   3.715   0.796   2.685 -2.5264 -1.5164 -2.5120
 1639SOL    HW3 6610   3.786   0.663   2.697 -0.4969 -0.3216 -0.8166
 1639SOL    MW4 6611   3.780   0.743   2.663 -0.5963 -0.1528 -0.4101
 1640SOL     OW 6612   3.600   0.930   2.724  0.1881 -0.2034 -0.0785
 1640SOL    HW2 6613   3.553   0.948   2.805  0.0104 -0.6823 -0.0752
 1640SOL    HW3 6614   3.595   1.012   2.674  0.7991  0.2794  0.6397
 1640SOL    MW4 6615   3.593   0.943   2.728  0.2451 -0.2028  0.0167
 1641SOL     OW 6616   3.573   1.194   2.630 -0.2653 -0.5189  0.3024
 1641SOL    HW2 6617   3.652   1.235   2.666 -0.2586 -0.7186  0.5159
 1641SOL    HW3 6618   3.501   1.245   2.667 -0.2015  0.3645 -0.7750
 1641SOL    MW4 6619   3.574   1.206   2.640 -0.2561 -0.4287  0.1886
 1642SOL     OW 6620   3.808   1.295   2.729 -0.4489  0.4040 -0.4506
 1642SOL    HW2 6621   3.868   1.230   2.693  0.1255  0.4149  0.4603
 1642SOL    HW3 6622   3.823   1.374   2.678  0.4722  0.4678 -0.0837
 1642SOL    MW4 6623   3.818   1.297   2.718 -0.2515  0.4138 -0.2820
 1643SOL     OW 6624   3.830   1.537   2.616 -0.0825  0.2539 -0.2902
 1643SOL    HW2 6625   3.911   1.564   2.659  0.5391  0.5317 -1.6023
 1643SOL    HW3 6626   3.761   1.589   2.657  0.3784 -0.0869  0.9362
 1643SOL    MW4 6627   3.832   1.547   2.627  0.0606  0.2457 -0.3014
 1644SOL     OW 6628   3.635   1.682   2.728  0.6428 -0.6091  0.8956
 1644SOL    HW2 6629   3.654   1.772   2.705  1.3777 -0.4812  1.9396
 1644SOL    HW3 6630   3.542   1.671   2.711  0.7862  0.0015 -0.3175
 1644SOL    MW4 6631   3.625   1.692   2.723  0.7586 -0.5118  0.8731
 1645SOL     OW 6632   3.607   1.933   2.621 -0.7301  0.5843  0.3570
 1645SOL    HW2 6633   3.528   1.962   2.667 -0.4777 -0.2822  1.3570
 1645SOL    HW3 6634   3.580   1.923   2.530 -1.7174  0.4838  0.6562
 1645SOL    MW4 6635   3.593   1.936   2.615 -0.8268  0.4567  0.5288
 1646SOL     OW 6636   3.837   2.061   2.763  0.3963 -0.0832 -0.0603
 1646SOL    HW2 6637   3.922   2.023   2.741 -0.3423 -1.0948 -1.2049
 1646SOL    HW3 6638   3.779   2.033   2.692 -0.6151  1.5880  0.0836
 1646SOL    MW4 6639   3.840   2.052   2.751  0.1655  0.0038 -0.1924
 1647SOL     OW 6640   3.821   2.321   2.676  0.0734  0.8194 -0.1780
 1647SOL    HW2 6641   3.845   2.237   2.715 -0.3580  0.4806 -0.6294
 1647SOL    HW3 6642   3.807   2.301   2.583 -0.0224  1.3919 -0.2908
 1647SOL    MW4 6643   3.822   2.307   2.669  0.0038  0.8504 -0.2525
 1648SOL     OW 6644   3.591   2.459   2.736  0.0515  0.0053 -0.3074
 1648SOL    HW2 6645   3.575   2.452   2.830  1.2057  1.0726 -0.0098
 1648SOL    HW3 6646   3.671   2.408   2.722 -0.3144 -0.4377 -0.7658
 1648SOL    MW4 6647   3.599   2.452   2.747  0.1554  0.0875 -0.3285
 1649SOL     OW 6648   3.548   2.737   2.667 -0.2466  0.0521  0.0110
 1649SOL    HW2 6649   3.559   2.644   2.683 -1.2262  0.0337  0.5807
 1649SOL    HW3 6650   3.557   2.746   2.572  0.8788 -0.4734  0.0591
 1649SOL    MW4 6651   3.551   2.726   2.657 -0.2272 -0.0196  0.0930
 1650SOL     OW 6652   3.793   2.843   2.758  0.9403  0.0712 -0.0590
 1650SOL    HW2 6653   3.860   2.791   2.714  0.6647  2.2116 -3.2588
 1650SOL    HW3 6654   3.711   2.810   2.722  0.4800 -0.3902  1.4146
 1650SOL    MW4 6655   3.791   2.832   2.747  0.8430  0.2928 -0.2866
 1651SOL     OW 6656   3.830   3.090   2.617 -0.2304  0.3077 -0.2737
 1651SOL    HW2 6657   3.759   3.133   2.666  1.7548  1.5355  1.6027
 1651SOL    HW3 6658   3.839   3.004   2.658  0.2169  0.6400  0.3253
 1651SOL    MW4 6659   3.822   3.085   2.629  0.0906  0.5136  0.0527
 1652SOL     OW 6660   3.641   3.246   2.770 -0.1432  0.3183 -0.3497
 1652SOL    HW2 6661   3.639   3.337   2.741 -0.2034  0.6043  0.5549
 1652SOL    HW3 6662   3.564   3.206   2.729 -0.5494  0.8649 -0.1152
 1652SOL    MW4 6663   3.631   3.253   2.761 -0.2046  0.4284 -0.1993
 1653SOL     OW 6664   3.616   3.502   2.657  0.4552  0.1083 -0.1314
 1653SOL    HW2 6665   3.687   3.561   2.684  0.0569  0.7837 -0.5656
 1653SOL    HW3 6666   3.536   3.547   2.684  0.1341 -0.0818 -0.7615
 1653SOL    MW4 6667   3.615   3.516   2.664  0.3605  0.1721 -0.2716
 1654SOL     OW 6668   3.847   3.620   2.765 -0.3141 -0.0809  0.0896
 1654SOL    HW2 6669   3.917   3.564   2.732  0.7976 -0.1744  2.4423
 1654SOL    HW3 6670   3.862   3.705   2.723  2.1405  0.3019  1.5971
 1654SOL    MW4 6671   3.858   3.624   2.755  0.1564 -0.0427  0.5987
 1655SOL     OW 6672   3.846   3.854   2.607 -0.9046  0.0018 -0.2147
 1655SOL    HW2 6673   3.906   3.915   2.649  0.0003 -0.6287 -0.5693
 1655SOL    HW3 6674   3.760   3.877   2.641 -0.2467 -0.2175  1.6310
 1655SOL    MW4 6675   3.843   3.865   2.617 -0.6986 -0.1101 -0.0179
 1656SOL     OW 6676   3.620   3.946   2.740 -0.4607 -0.3326 -0.3773
 1656SOL    HW2 6677   3.621   4.040   2.724  0.3616 -0.4177 -0.8805
 1656SOL    HW3 6678   3.532   3.918   2.716 -0.3349  0.1267 -1.3924
 1656SOL    MW4 6679   3.609   3.955   2.735 -0.3357 -0.2832 -0.5774
 1657SOL     OW 6680   3.614   4.228   2.692  0.4044  0.2236  0.0580
 1657SOL    HW2 6681   3.550   4.298   2.703 -0.5767 -0.7791  0.7927
 1657SOL    HW3 6682   3.626   4.221   2.597  0.4894  1.3659 -0.0145
 1657SOL    MW4 6683   3.607   4.236   2.681  0.2861  0.2422  0.1457
 1658SOL     OW 6684   3.842   4.392   2.747 -0.2349 -0.1449 -0.6584
 1658SOL    HW2 6685   3.921   4.359   2.704  0.7458 -0.5729  1.4538
 1658SOL    HW3 6686   3.778   4.322   2.735  0.7978 -1.3552  0.7338
 1658SOL    MW4 6687   3.844   4.378   2.740  0.0310 -0.3610 -0.1960
 1659SOL     OW 6688   4.277   4.615   2.646  0.2892 -0.1169  0.3149
 1659SOL    HW2 6689   4.201   4.665   2.676 -0.1674 -1.9835  2.4258
 1659SOL    HW3 6690   4.352   4.670   2.669 -0.2688  0.3420  1.0719
 1659SOL    MW4 6691   4.277   4.629   2.653  0.1554 -0.3027  0.6931
 1660SOL     OW 6692   4.046   0.098   2.730  0.3091 -0.6660 -0.4917
 1660SOL    HW2 6693   4.044   0.105   2.826  1.3155  0.2234 -0.5239
 1660SOL    HW3 6694   3.965   0.052   2.708 -0.6594  0.4318  0.6694
 1660SOL    MW4 6695   4.035   0.093   2.740  0.3142 -0.4038 -0.3428
 1661SOL     OW 6696   4.017   0.371   2.644  0.0652 -0.3361 -0.3695
 1661SOL    HW2 6697   4.035   0.280   2.668  0.3971 -0.0141  0.6416
 1661SOL    HW3 6698   4.022   0.372   2.548  0.4854 -1.2880 -0.3670
 1661SOL    MW4 6699   4.020   0.359   2.635  0.1645 -0.4192 -0.2356
 1662SOL     OW 6700   4.245   0.506   2.731 -0.3130 -0.2607 -0.2288
 1662SOL    HW2 6701   4.167   0.458   2.704 -1.3871  1.7434 -0.7865
 1662SOL    HW3 6702   4.318   0.455   2.696 -1.3140 -2.7141  1.2037
 1662SOL    MW4 6703   4.245   0.493   2.723 -0.5870 -0.3200 -0.1132
 1663SOL     OW 6704   4.236   0.763   2.648  0.3392 -0.1783  0.0195
 1663SOL    HW2 6705   4.238   0.677   2.689 -0.6913  0.0454  0.5376
 1663SOL    HW3 6706   4.214   0.746   2.556  0.8003 -0.5168 -0.0294
 1663SOL    MW4 6707   4.234   0.750   2.641  0.2637 -0.1934  0.0815
 1664SOL     OW 6708   4.026   0.862   2.777  0.8244  0.2343 -0.2139
 1664SOL    HW2 6709   4.096   0.828   2.722 -0.4494 -1.0270 -1.1223
 1664SOL    HW3 6710   3.949   0.810   2.752 -0.2047  0.9121  1.4422
 1664SOL    MW4 6711   4.025   0.851   2.767  0.5202  0.1574 -0.1154
 1665SOL     OW 6712   3.997   1.091   2.632 -0.0292 -0.0528  0.3636
 1665SOL    HW2 6713   4.068   1.134   2.679 -1.1629  1.8939  0.3391
 1665SOL    HW3 6714   3.988   1.006   2.674  1.1378  0.3837  1.5218
 1665SOL    MW4 6715   4.005   1.086   2.644 -0.0243  0.2617  0.5133
 1666SOL     OW 6716   4.259   1.250   2.771 -0.2420 -0.0865 -0.1295
 1666SOL    HW2 6717   4.241   1.327   2.716 -0.0520 -0.9427 -1.4169
 1666SOL    HW3 6718   4.315   1.195   2.717  1.8676  0.0851  1.8152
 1666SOL    MW4 6719   4.264   1.253   2.756  0.0620 -0.1769 -0.0429
 1667SOL     OW 6720   4.261   1.488   2.636 -0.1862  0.0403 -0.0496
 1667SOL    HW2 6721   4.347   1.521   2.662 -0.5099  0.4319  0.5411
 1667SOL    HW3 6722   4.253   1.513   2.544 -0.0121  0.7440  0.1239
 1667SOL    MW4 6723   4.271   1.496   2.627 -0.2060  0.1849  0.0508
 1668SOL     OW 6724   4.057   1.635   2.743  0.8075  0.2659 -0.4129
 1668SOL    HW2 6725   4.063   1.632   2.839 -0.3073 -1.6461 -0.3612
 1668SOL    HW3 6726   4.130   1.581   2.713  0.2334 -0.4464 -0.5663
 1668SOL    MW4 6727   4.067   1.627   2.752  0.5851 -0.0803 -0.4263
 1669SOL     OW 6728   4.065   1.906   2.682  0.0398  0.0186 -0.1146
 1669SOL    HW2 6729   4.143   1.935   2.728  0.0978 -0.1158 -0.1285
 1669SOL    HW3 6730   4.055   1.814   2.706 -0.5487  0.2358  0.4912
 1669SOL    MW4 6731   4.074   1.898   2.691 -0.0305  0.0294 -0.0362
 1670SOL     OW 6732   4.309   2.037   2.764 -0.2310  0.0006  0.0635
 1670SOL    HW2 6733   4.284   2.117   2.718 -1.2672 -1.2309 -1.5666
 1670SOL    HW3 6734   4.381   2.001   2.712  1.0534  0.4729  1.4686
 1670SOL    MW4 6735   4.315   2.043   2.751 -0.1984 -0.0997  0.0339
 1671SOL     OW 6736   4.272   2.301   2.632 -0.3230 -0.7484 -0.6530
 1671SOL    HW2 6737   4.206   2.358   2.673 -0.7015 -1.9778  0.4648
 1671SOL    HW3 6738   4.276   2.332   2.542 -0.3325  1.2368 -0.0145
 1671SOL    MW4 6739   4.264   2.313   2.626 -0.3748 -0.6487 -0.4215
 1672SOL     OW 6740   4.071   2.459   2.741  0.4965 -0.2074  0.3738
 1672SOL    HW2 6741   4.058   2.473   2.835 -0.4407 -0.6014  0.3059
 1672SOL    HW3 6742   3.988   2.424   2.710  0.7854 -0.0305 -0.6183
 1672SOL    MW4 6743   4.058   2.456   2.749  0.4106 -0.2358  0.2337
 1673SOL     OW 6744   4.006   2.708   2.625  0.1134  0.0555  0.5643
 1673SOL    HW2 6745   4.078   2.761   2.659 -0.0493  0.4877  0.2379
 1673SOL    HW3 6746   4.028   2.619   2.651  0.1911  0.3297  1.4579
 1673SOL    MW4 6747   4.019   2.703   2.633  0.1020  0.1488  0.6392
 1674SOL     OW 6748   4.242   2.815   2.727 -0.1408 -0.1410 -0.1436
 1674SOL    HW2 6749   4.240   2.807   2.823  0.3942 -0.2115 -0.1357
 1674SOL    HW3 6750   4.244   2.909   2.711  2.1318 -0.1343 -0.0166
 1674SOL    MW4 6751   4.242   2.826   2.738  0.2298 -0.1493 -0.1254
 1675SOL     OW 6752   4.287   3.072   2.638 -0.2252 -0.5044  0.3173
 1675SOL    HW2 6753   4.231   3.131   2.688 -0.7244 -0.8262  0.1430
 1675SOL    HW3 6754   4.254   3.077   2.549  1.5517  1.1325 -0.2658
 1675SOL    MW4 6755   4.275   3.080   2.633 -0.0567 -0.3309  0.2172
 1676SOL     OW 6756   4.059   3.205   2.722  0.1317  0.1443  0.3394
 1676SOL    HW2 6757   4.041   3.299   2.713  1.9966  0.5612  0.7115
 1676SOL    HW3 6758   3.989   3.162   2.673 -1.2382  1.6978  0.8811
 1676SOL    MW4 6759   4.048   3.212   2.714  0.1974  0.4039  0.4599
 1677SOL     OW 6760   4.051   3.465   2.669  0.4025 -0.1765  0.1045
 1677SOL    HW2 6761   4.128   3.504   2.711  0.3137 -0.0966  0.1933
 1677SOL    HW3 6762   4.061   3.485   2.576 -0.0240  0.6979  0.2443
 1677SOL    MW4 6763   4.063   3.473   2.663  0.3347 -0.0505  0.1347
 1678SOL     OW 6764   4.283   3.603   2.731  0.5125  0.2405  0.3537
 1678SOL    HW2 6765   4.297   3.598   2.826 -1.4953  1.8074  0.7571
 1678SOL    HW3 6766   4.344   3.538   2.695 -0.9128 -2.6451  2.9117
 1678SOL    MW4 6767   4.293   3.594   2.739  0.0591  0.0663  0.7446
 1679SOL     OW 6768   4.254   3.855   2.630  0.1497 -0.2846 -0.0096
 1679SOL    HW2 6769   4.256   3.761   2.648 -1.7679 -0.0747  1.5451
 1679SOL    HW3 6770   4.337   3.888   2.665  0.2387 -1.2044  0.6723
 1679SOL    MW4 6771   4.265   3.847   2.637 -0.0911 -0.3781  0.2856
 1680SOL     OW 6772   4.034   4.007   2.736 -0.2191 -0.2942 -0.0491
 1680SOL    HW2 6773   4.045   4.002   2.831 -0.2441 -0.6631 -0.0663
 1680SOL    HW3 6774   4.106   3.956   2.701  1.1870  1.7727 -0.2914
 1680SOL    MW4 6775   4.045   4.000   2.744 -0.0372 -0.0701 -0.0834
 1681SOL     OW 6776   4.047   4.251   2.609 -0.3972 -0.3137  0.1236
 1681SOL    HW2 6777   4.026   4.165   2.646  0.5032 -1.1359 -1.2397
 1681SOL    HW3 6778   4.047   4.237   2.515  0.9122  0.9063 -0.0670
 1681SOL    MW4 6779   4.044   4.238   2.602 -0.1054 -0.2613 -0.0815
 1682SOL     OW 6780   4.260   4.371   2.759 -0.5749 -0.5422  0.3249
 1682SOL    HW2 6781   4.186   4.325   2.720 -0.7699 -0.1137  0.1847
 1682SOL    HW3 6782   4.256   4.459   2.721  0.3200 -0.6775 -0.0983
 1682SOL    MW4 6783   4.250   4.376   2.749 -0.4826 -0.5035  0.2506
 1683SOL     OW 6784   0.237   4.600   3.083  0.5620  0.2338 -0.5694
 1683SOL    HW2 6785   0.254   4.614   3.176 -0.3904  0.1216 -0.3698
 1683SOL    HW3 6786   0.162   4.656   3.063  0.5354 -0.0102 -1.1866
 1683SOL    MW4 6787   0.230   4.609   3.093  0.4328  0.1869 -0.6244
 1684SOL     OW 6788   4.490   0.115   2.994  0.1923 -0.3827  0.2712
 1684SOL    HW2 6789   4.413   0.072   3.032 -0.6090 -0.1897 -1.0924
 1684SOL    HW3 6790   4.478   0.208   3.015 -0.2244 -0.2829 -0.3838
 1684SOL    MW4 6791   4.478   0.122   3.002  0.0319 -0.3441  0.0045
 1685SOL     OW 6792   0.004   0.369   3.116  0.4911  0.5042  0.1335
 1685SOL    HW2 6793  -0.024   0.353   3.207 -1.8543 -0.1637 -0.6604
 1685SOL    HW3 6794  -0.065   0.424   3.080  1.9375  1.6174 -0.9741
 1685SOL    MW4 6795  -0.009   0.374   3.123  0.3724  0.5630 -0.1173
 1686SOL     OW 6796   0.237   0.466   3.029  0.3404  0.0243  0.4346
 1686SOL    HW2 6797   0.304   0.405   3.060 -0.0288 -0.0835  1.0144
 1686SOL    HW3 6798   0.154   0.423   3.050  0.0800 -0.5705 -1.6928
 1686SOL    MW4 6799   0.235   0.452   3.036  0.2573 -0.0684  0.2303
 1687SOL     OW 6800   0.224   0.719   3.116  0.1052 -0.1023  0.2194
 1687SOL    HW2 6801   0.188   0.719   3.204 -1.0738  0.1516 -0.2541
 1687SOL    HW3 6802   0.224   0.627   3.089 -1.2562  0.0055 -0.1955
 1687SOL    MW4 6803   0.219   0.707   3.124 -0.2300 -0.0546  0.1020
 1688SOL     OW 6804   0.004   0.842   3.001 -0.7717  0.1756  0.0687
 1688SOL    HW2 6805   0.084   0.799   3.030 -1.0536 -0.3811  0.0190
 1688SOL    HW3 6806   0.006   0.835   2.906  0.0205  1.7698 -0.0542
 1688SOL    MW4 6807   0.015   0.836   2.993 -0.7044  0.3126  0.0460
 1689SOL     OW 6808   4.487   1.097   3.130  0.0892  0.2041 -0.2595
 1689SOL    HW2 6809   4.412   1.153   3.108 -1.2919 -0.5008  2.4826
 1689SOL    HW3 6810   4.464   1.011   3.095 -0.3850 -0.0096  0.5728
 1689SOL    MW4 6811   4.474   1.093   3.122 -0.1555  0.0829  0.2124
 1690SOL     OW 6812   0.196   1.247   3.028  0.1375  0.1938 -0.4293
 1690SOL    HW2 6813   0.123   1.207   3.075  1.3225 -2.4647 -0.7467
 1690SOL    HW3 6814   0.175   1.236   2.936  1.1661 -1.0966 -0.5289
 1690SOL    MW4 6815   0.184   1.240   3.022  0.4295 -0.3272 -0.4842
 1691SOL     OW 6816   0.222   1.519   3.131 -0.5034  0.3053  0.3958
 1691SOL    HW2 6817   0.163   1.565   3.071 -1.4146  0.3012  1.2659
 1691SOL    HW3 6818   0.226   1.430   3.098  0.1490  0.6625 -0.4909
 1691SOL    MW4 6819   0.214   1.514   3.119 -0.5376  0.3519  0.3934
 1692SOL     OW 6820   0.024   1.641   3.003 -0.1812  0.2910 -0.4718
 1692SOL    HW2 6821  -0.045   1.584   3.038  0.4556  0.9629  1.9550
 1692SOL    HW3 6822   0.015   1.722   3.053  1.6252  0.8014 -0.9658
 1692SOL    MW4 6823   0.014   1.644   3.014  0.1411  0.4470 -0.2167
 1693SOL     OW 6824   4.488   1.890   3.148 -0.2478  0.2153  0.1877
 1693SOL    HW2 6825   4.415   1.943   3.117 -1.0507 -0.1656  1.3689
 1693SOL    HW3 6826   4.565   1.932   3.111 -0.7407  3.0618  2.1622
 1693SOL    MW4 6827   4.488   1.903   3.139 -0.4188  0.5407  0.6042
 1694SOL     OW 6828   0.214   2.033   3.043 -0.3583  0.0170 -0.4012
 1694SOL    HW2 6829   0.189   2.124   3.057  1.3863  0.4646 -0.0773
 1694SOL    HW3 6830   0.214   2.022   2.948 -0.0801  0.5079 -0.4589
 1694SOL    MW4 6831   0.211   2.043   3.032 -0.0914  0.1407 -0.3662
 1695SOL     OW 6832   0.184   2.314   3.095  0.2596  0.3763 -0.0890
 1695SOL    HW2 6833   0.198   2.308   3.189  0.3144  0.2216 -0.1060
 1695SOL    HW3 6834   0.259   2.365   3.063  0.4705  0.0635 -0.1028
 1695SOL    MW4 6835   0.196   2.320   3.103  0.2947  0.3147 -0.0930
 1696SOL     OW 6836   4.464   2.451   3.012 -0.0396 -0.0062  0.1868
 1696SOL    HW2 6837   4.467   2.538   3.052  0.1234  0.0600  0.0301
 1696SOL    HW3 6838   4.539   2.405   3.049 -1.4431 -0.8577  2.0585
 1696SOL    MW4 6839   4.474   2.457   3.022 -0.2031 -0.1101  0.4129
 1697SOL     OW 6840   0.018   2.697   3.132  0.2815 -0.2690 -0.2309
 1697SOL    HW2 6841   0.032   2.691   3.226 -0.5658  0.7709 -0.0321
 1697SOL    HW3 6842   0.091   2.750   3.100  0.4448 -0.4336 -0.1304
 1697SOL    MW4 6843   0.030   2.703   3.140  0.1912 -0.1538 -0.1915
 1698SOL     OW 6844   0.250   2.834   3.017  0.0839 -0.5023  0.1135
 1698SOL    HW2 6845   0.323   2.783   3.051  0.9477 -0.3114 -1.3927
 1698SOL    HW3 6846   0.260   2.831   2.922 -0.4787  1.5320 -0.0460
 1698SOL    MW4 6847   0.261   2.827   3.009  0.1237 -0.2084 -0.1063
 1699SOL     OW 6848   0.297   3.100   3.135  0.0145 -0.2263 -0.5355
 1699SOL    HW2 6849   0.210   3.135   3.117 -0.0011 -0.2525 -0.5117
 1699SOL    HW3 6850   0.296   3.012   3.096 -0.8056 -1.2127  1.6370
 1699SOL    MW4 6851   0.286   3.093   3.127 -0.0958 -0.3603 -0.2456
 1700SOL     OW 6852   0.053   3.181   3.022 -0.4155  0.2922 -0.4237
 1700SOL    HW2 6853  -0.027   3.138   3.053 -1.2179  2.8340  1.2319
 1700SOL    HW3 6854   0.038   3.198   2.929 -0.5639 -1.8736 -0.8133
 1700SOL    MW4 6855   0.041   3.178   3.014 -0.5410  0.3419 -0.2565
 1701SOL     OW 6856   0.010   3.424   3.143 -0.0737 -0.0840  0.5207
 1701SOL    HW2 6857  -0.064   3.469   3.101  0.5168  1.3734  0.9999
 1701SOL    HW3 6858   0.016   3.340   3.097 -1.0167  0.4389 -0.6081
 1701SOL    MW4 6859   0.001   3.419   3.131 -0.1202  0.1771  0.4346
 1702SOL     OW 6860   0.234   3.551   3.010 -0.3032  0.4000 -0.2847
 1702SOL    HW2 6861   0.225   3.643   3.036 -0.6779 -0.6005  3.2743
 1702SOL    HW3 6862   0.161   3.507   3.053 -0.0972 -1.6058 -1.9285
 1702SOL    MW4 6863   0.223   3.557   3.019 -0.3255  0.0033 -0.0319
 1703SOL     OW 6864   0.224   3.823   3.089 -0.1593  0.2979 -0.2028
 1703SOL    HW2 6865   0.239   3.836   3.182  0.1282 -1.9749  0.0956
 1703SOL    HW3 6866   0.298   3.866   3.046  1.2865 -1.1850  0.7618
 1703SOL    MW4 6867   0.236   3.831   3.095  0.0694 -0.1979 -0.0360
 1704SOL     OW 6868   4.479   3.984   3.025  0.1200 -0.1616  0.3617
 1704SOL    HW2 6869   4.546   3.920   3.050  0.0060 -0.1424  0.7191
 1704SOL    HW3 6870   4.477   3.981   2.929  1.5448  0.7518  0.2772
 1704SOL    MW4 6871   4.488   3.975   3.016  0.2928 -0.0384  0.3977
 1705SOL     OW 6872   0.014   4.240   3.130  0.0003 -0.2085 -0.6128
 1705SOL    HW2 6873   0.009   4.228   3.225  1.0699  0.8587 -0.4170
 1705SOL    HW3 6874   0.022   4.152   3.095  0.2558 -0.5664  0.3329
 1705SOL    MW4 6875   0.014   4.227   3.138  0.1750 -0.1149 -0.4623
 1706SOL     OW 6876   0.245   4.348   3.002  0.0760 -0.2325  0.3475
 1706SOL    HW2 6877   0.174   4.303   3.048  0.9222 -1.1747  0.7426
 1706SOL    HW3 6878   0.245   4.436   3.039 -1.3605  0.0005 -0.1721
 1706SOL    MW4 6879   0.236   4.353   3.013 -0.0019 -0.3266  0.3312
 1707SOL     OW 6880   0.696   4.612   3.104 -0.2737  0.2707 -0.3400
 1707SOL    HW2 6881   0.679   4.520   3.083 -0.3998 -0.2555  1.9659
 1707SOL    HW3 6882   0.617   4.658   3.077 -0.2473 -0.2937 -1.4135
 1707SOL    MW4 6883   0.684   4.606   3.098 -0.2869  0.1268 -0.1774
 1708SOL     OW 6884   0.477   0.085   3.018  0.4885  0.4705 -0.2241
 1708SOL    HW2 6885   0.463   0.171   3.056  0.0417 -0.6688  2.2957
 1708SOL    HW3 6886   0.396   0.037   3.038  0.6164 -0.4483 -1.8579
 1708SOL    MW4 6887   0.464   0.090   3.026  0.4464  0.1989 -0.1070
 1709SOL     OW 6888   0.456   0.331   3.131 -0.0494  0.3613  0.4236
 1709SOL    HW2 6889   0.455   0.340   3.227  1.1217  0.6663  0.4153
 1709SOL    HW3 6890   0.541   0.366   3.105 -0.1296 -0.2504 -0.6819
 1709SOL    MW4 6891   0.467   0.337   3.140  0.0945  0.3208  0.2766
 1710SOL     OW 6892   0.668   0.485   3.027 -0.0750 -0.3265  0.2934
 1710SOL    HW2 6893   0.754   0.451   3.049 -0.0309  0.6223  1.6228
 1710SOL    HW3 6894   0.665   0.572   3.066 -1.3864 -0.0806 -0.3134
 1710SOL    MW4 6895   0.679   0.492   3.035 -0.2423 -0.1689  0.3889
 1711SOL     OW 6896   0.671   0.750   3.114  0.3063 -0.0035 -0.1173
 1711SOL    HW2 6897   0.662   0.761   3.209  0.1595  0.0365 -0.1369
 1711SOL    HW3 6898   0.594   0.793   3.077  0.6204  0.4193 -0.2827
 1711SOL    MW4 6899   0.660   0.757   3.122  0.3284  0.0576 -0.1416
 1712SOL     OW 6900   0.450   0.871   3.020  0.5693  0.4515  0.0598
 1712SOL    HW2 6901   0.367   0.850   3.062  0.4472  1.9807  0.6113
 1712SOL    HW3 6902   0.429   0.878   2.927 -0.0493  1.3847  0.2613
 1712SOL    MW4 6903   0.436   0.870   3.013  0.4716  0.7764  0.1590
 1713SOL     OW 6904   0.458   1.160   3.099  0.1302  0.3094  0.3507
 1713SOL    HW2 6905   0.463   1.070   3.069  1.3862  0.8527 -1.1170
 1713SOL    HW3 6906   0.374   1.192   3.064 -0.7244 -0.5151  1.5922
 1713SOL    MW4 6907   0.447   1.153   3.090  0.1832  0.2723  0.3207
 1714SOL     OW 6908   0.700   1.255   3.020  0.3860 -0.1114 -0.0377
 1714SOL    HW2 6909   0.770   1.210   3.068  0.1583 -0.1505  0.2591
 1714SOL    HW3 6910   0.619   1.224   3.061  0.2403  0.9358  0.4917
 1714SOL    MW4 6911   0.699   1.245   3.032  0.3368  0.0217  0.0713
 1715SOL     OW 6912   0.645   1.496   3.096 -0.2241 -0.1637 -0.3263
 1715SOL    HW2 6913   0.660   1.508   3.189 -1.6559 -2.2300  0.2237
 1715SOL    HW3 6914   0.681   1.409   3.077 -2.4363 -0.9494 -1.0711
 1715SOL    MW4 6915   0.652   1.486   3.106 -0.7049 -0.5400 -0.3524
 1716SOL     OW 6916   0.434   1.657   3.026  0.4348 -0.0831  0.1200
 1716SOL    HW2 6917   0.507   1.600   3.051  0.4315 -0.0416  0.2207
 1716SOL    HW3 6918   0.358   1.620   3.070  0.2360 -0.6481 -0.6923
 1716SOL    MW4 6919   0.433   1.644   3.035  0.4082 -0.1520  0.0260
 1717SOL     OW 6920   0.483   1.917   3.122  0.0395 -0.1794 -0.2263
 1717SOL    HW2 6921   0.466   1.825   3.104  1.5533 -0.9663  2.1343
 1717SOL    HW3 6922   0.399   1.960   3.108 -0.4966 -1.7848 -2.1227
 1717SOL    MW4 6923   0.470   1.911   3.118  0.1685 -0.4951 -0.1652
 1718SOL     OW 6924   0.699   2.040   3.026 -0.7036  0.1283 -0.3085
 1718SOL    HW2 6925   0.777   1.998   3.063 -0.3432  0.9697 -0.0982
 1718SOL    HW3 6926   0.625   1.997   3.068 -0.3507 -0.6506 -0.4784
 1718SOL    MW4 6927   0.700   2.029   3.036 -0.6095  0.1366 -0.3030
 1719SOL     OW 6928   0.655   2.308   3.111 -0.2857 -0.2655  0.2555
 1719SOL    HW2 6929   0.629   2.311   3.203 -0.4238 -1.7421  0.2694
 1719SOL    HW3 6930   0.668   2.215   3.092  0.1719  0.0588 -1.0971
 1719SOL    MW4 6931   0.653   2.296   3.120 -0.2435 -0.4177  0.0787
 1720SOL     OW 6932   0.441   2.432   2.995  0.3852 -0.1271 -0.2451
 1720SOL    HW2 6933   0.518   2.378   3.012  0.2440 -0.2071  0.1532
 1720SOL    HW3 6934   0.430   2.429   2.900  1.3472  0.5468 -0.3858
 1720SOL    MW4 6935   0.449   2.425   2.985  0.4935 -0.0486 -0.2108
 1721SOL     OW 6936   0.438   2.672   3.157 -0.1716  0.0035  0.3355
 1721SOL    HW2 6937   0.514   2.716   3.120 -0.3907 -0.5000 -0.7436
 1721SOL    HW3 6938   0.434   2.588   3.111 -1.8896  0.3853 -0.2605
 1721SOL    MW4 6939   0.448   2.667   3.146 -0.4272 -0.0129  0.1144
 1722SOL     OW 6940   0.649   2.793   3.017  0.3561 -0.0579  0.0922
 1722SOL    HW2 6941   0.723   2.745   3.054  0.4899 -1.0836 -1.4816
 1722SOL    HW3 6942   0.667   2.885   3.038  0.2607 -0.6109  2.8411
 1722SOL    MW4 6943   0.661   2.799   3.025  0.3611 -0.2661  0.2475
 1723SOL     OW 6944   0.685   3.060   3.117 -0.2665  0.7136 -0.1865
 1723SOL    HW2 6945   0.671   3.055   3.212 -0.8438  1.5079 -0.2245
 1723SOL    HW3 6946   0.622   3.125   3.087 -0.4499  0.0823 -1.1941
 1723SOL    MW4 6947   0.675   3.068   3.126 -0.3668  0.7353 -0.3247
 1724SOL     OW 6948   0.497   3.238   3.009  0.0578  0.0787  0.7722
 1724SOL    HW2 6949   0.498   3.324   3.051 -0.9704  0.3064  0.3592
 1724SOL    HW3 6950   0.425   3.192   3.052 -1.6485  0.6647 -1.3618
 1724SOL    MW4 6951   0.488   3.244   3.020 -0.3030  0.1860  0.4361
 1725SOL     OW 6952   0.479   3.488   3.128 -0.1042  0.1543  0.3512
 1725SOL    HW2 6953   0.463   3.485   3.222 -1.2565 -0.0537  0.1640
 1725SOL    HW3 6954   0.393   3.508   3.090  0.0115 -1.3429 -0.7491
 1725SOL    MW4 6955   0.465   3.491   3.135 -0.2410 -0.0706  0.1814
 1726SOL     OW 6956   0.698   3.588   2.984  0.0773 -0.2642  0.3326
 1726SOL    HW2 6957   0.772   3.540   3.021 -0.1380  0.6275  1.9852
 1726SOL    HW3 6958   0.621   3.549   3.025 -0.2368  0.1023  0.0918
 1726SOL    MW4 6959   0.698   3.577   2.994  0.0075 -0.0980  0.5188
 1727SOL     OW 6960   0.645   3.848   3.102  0.4941 -0.0621  0.5170
 1727SOL    HW2 6961   0.656   3.839   3.197 -0.7867  0.2668  0.7074
 1727SOL    HW3 6962   0.663   3.761   3.067 -0.6379 -0.6039  1.2332
 1727SOL    MW4 6963   0.649   3.836   3.110  0.1757 -0.0901  0.6366
 1728SOL     OW 6964   0.437   3.981   2.982  0.5950 -0.0238 -0.3358
 1728SOL    HW2 6965   0.512   3.929   3.010 -0.4242 -1.2164  0.2521
 1728SOL    HW3 6966   0.437   3.974   2.886  1.2403  0.0165 -0.3408
 1728SOL    MW4 6967   0.447   3.973   2.973  0.5457 -0.1757 -0.2589
 1729SOL     OW 6968   0.457   4.208   3.122 -0.2006  0.1024  0.1698
 1729SOL    HW2 6969   0.453   4.132   3.064  0.1753  0.6958 -0.6493
 1729SOL    HW3 6970   0.387   4.266   3.090  0.0956  0.4901  0.2213
 1729SOL    MW4 6971   0.447   4.206   3.110 -0.1119  0.2313  0.0684
 1730SOL     OW 6972   0.677   4.348   3.020  0.3391 -0.6607  0.3561
 1730SOL    HW2 6973   0.601   4.300   3.051 -0.0866 -0.5330 -0.4805
 1730SOL    HW3 6974   0.663   4.357   2.925  0.9053  0.2254  0.3488
 1730SOL    MW4 6975   0.665   4.343   3.011  0.3577 -0.5264  0.2446
 1731SOL     OW 6976   1.090   4.628   3.111 -0.1178 -0.0534  0.2843
 1731SOL    HW2 6977   1.169   4.672   3.078 -0.0256  1.1740  2.0510
 1731SOL    HW3 6978   1.017   4.682   3.080 -0.2470 -0.8509 -0.8342
 1731SOL    MW4 6979   1.091   4.641   3.103 -0.1228  0.0033  0.3698
 1732SOL     OW 6980   0.884   0.097   2.978  0.4556 -0.0680 -0.0700
 1732SOL    HW2 6981   0.861   0.188   2.997  1.0211  0.0951 -0.1575
 1732SOL    HW3 6982   0.812   0.046   3.015 -0.3095  0.4653 -0.8097
 1732SOL    MW4 6983   0.871   0.102   2.986  0.4292  0.0238 -0.1791
 1733SOL     OW 6984   0.888   0.356   3.062 -0.3939  0.1446  0.2851
 1733SOL    HW2 6985   0.886   0.329   3.153  0.6146 -0.7308  0.0590
 1733SOL    HW3 6986   0.974   0.395   3.050  0.2652 -1.5905 -0.7939
 1733SOL    MW4 6987   0.899   0.357   3.072 -0.1739 -0.1999  0.1128
 1734SOL     OW 6988   1.129   0.457   2.997 -0.5482  0.4296 -0.3197
 1734SOL    HW2 6989   1.198   0.399   3.030 -1.0071 -0.0499 -0.2081
 1734SOL    HW3 6990   1.137   0.452   2.902 -1.2005 -0.5445 -0.3204
 1734SOL    MW4 6991   1.139   0.449   2.989 -0.6949  0.2378 -0.3049
 1735SOL     OW 6992   1.109   0.708   3.109 -0.3245 -0.4689 -0.0106
 1735SOL    HW2 6993   1.088   0.699   3.202  3.2863 -0.8577  0.8409
 1735SOL    HW3 6994   1.114   0.618   3.077 -0.3921 -0.3636 -0.3221
 1735SOL    MW4 6995   1.107   0.695   3.117  0.1431 -0.5063  0.0608
 1736SOL     OW 6996   0.902   0.886   3.007  0.0487 -0.1145  0.1730
 1736SOL    HW2 6997   0.977   0.831   3.028  0.4403  0.1253 -0.5689
 1736SOL    HW3 6998   0.827   0.837   3.038  0.3498 -1.3087 -0.9398
 1736SOL    MW4 6999   0.902   0.872   3.014  0.1400 -0.2404 -0.0718
 1737SOL     OW 7000   0.936   1.135   3.126 -0.3287  0.2059  0.4895
 1737SOL    HW2 7001   1.003   1.192   3.088  1.2527 -0.2343  2.5207
 1737SOL    HW3 7002   0.942   1.054   3.075 -0.7491  0.8641 -0.6493
 1737SOL    MW4 7003   0.945   1.132   3.114 -0.1755  0.2346  0.6073
 1738SOL     OW 7004   1.132   1.277   3.015 -0.1132  0.2231 -0.2841
 1738SOL    HW2 7005   1.203   1.223   3.050  0.3712  0.0576 -1.4676
 1738SOL    HW3 7006   1.151   1.282   2.921 -1.6308  0.2370 -0.6044
 1738SOL    MW4 7007   1.144   1.270   3.007 -0.2495  0.2030 -0.4826
 1739SOL     OW 7008   1.100   1.518   3.144  0.1322  0.0948 -0.7876
 1739SOL    HW2 7009   1.170   1.577   3.116  0.5704 -0.2768 -0.4775
 1739SOL    HW3 7010   1.121   1.434   3.103  0.3766 -0.2630  0.0584
 1739SOL    MW4 7011   1.112   1.515   3.135  0.2222 -0.0014 -0.6349
 1740SOL     OW 7012   0.887   1.619   3.015  0.1391  0.2545  0.1034
 1740SOL    HW2 7013   0.953   1.572   3.065 -0.7502  0.0127  1.0750
 1740SOL    HW3 7014   0.804   1.579   3.042 -0.5174  1.4750 -0.0743
 1740SOL    MW4 7015   0.884   1.607   3.025 -0.0648  0.3836  0.2081
 1741SOL     OW 7016   0.912   1.870   3.118  0.2256 -0.5071 -0.8452
 1741SOL    HW2 7017   0.903   1.872   3.213  1.2430  2.4700 -0.7696
 1741SOL    HW3 7018   0.895   1.779   3.094  0.8960 -1.4943  2.2674
 1741SOL    MW4 7019   0.909   1.858   3.127  0.4482 -0.2446 -0.4244
 1742SOL     OW 7020   1.124   2.049   3.029  0.5819 -0.5452  0.0922
 1742SOL    HW2 7021   1.054   1.991   3.058 -0.7763  0.8162 -0.4156
 1742SOL    HW3 7022   1.113   2.054   2.934  1.8379 -0.9171 -0.0778
 1742SOL    MW4 7023   1.113   2.042   3.020  0.5684 -0.4146  0.0029
 1743SOL     OW 7024   1.099   2.309   3.126 -0.4684 -0.0548 -0.6182
 1743SOL    HW2 7025   1.021   2.359   3.100 -1.1295 -0.1481  1.1188
 1743SOL    HW3 7026   1.089   2.225   3.082 -1.2382  0.0135 -0.5806
 1743SOL    MW4 7027   1.087   2.305   3.117 -0.6572 -0.0579 -0.3839
 1744SOL     OW 7028   0.897   2.453   3.029  0.1715 -0.1987 -0.1355
 1744SOL    HW2 7029   0.817   2.415   3.064  0.2469 -0.0272  0.2300
 1744SOL    HW3 7030   0.884   2.454   2.934  0.8911 -2.7681 -0.2937
 1744SOL    MW4 7031   0.885   2.448   3.021  0.2764 -0.5152 -0.1080
 1745SOL     OW 7032   0.904   2.711   3.113 -0.4954  0.2918  0.1009
 1745SOL    HW2 7033   0.889   2.712   3.208 -2.9971 -0.5875 -0.2384
 1745SOL    HW3 7034   0.900   2.619   3.089  0.7558  0.4547 -0.7831
 1745SOL    MW4 7035   0.902   2.699   3.123 -0.6603  0.1974 -0.0606
 1746SOL     OW 7036   1.132   2.832   3.007  0.0747 -0.0053  0.2089
 1746SOL    HW2 7037   1.152   2.903   3.068 -1.2036  1.8531 -1.4892
 1746SOL    HW3 7038   1.054   2.791   3.043  1.0342 -0.8364  1.3983
 1746SOL    MW4 7039   1.124   2.836   3.020  0.0327  0.1302  0.1419
 1747SOL     OW 7040   1.138   3.067   3.154 -0.3398  0.1361  0.0674
 1747SOL    HW2 7041   1.216   3.108   3.118 -0.6108  1.1277  0.5925
 1747SOL    HW3 7042   1.065   3.118   3.118 -0.6796  0.0891  0.6852
 1747SOL    MW4 7043   1.139   3.079   3.145 -0.4205  0.2606  0.2182
 1748SOL     OW 7044   0.909   3.196   3.026 -0.4347  0.4016 -0.1286
 1748SOL    HW2 7045   0.839   3.150   3.073 -0.4353 -0.9607 -1.4282
 1748SOL    HW3 7046   0.882   3.193   2.934  0.7597  0.8793 -0.5006
 1748SOL    MW4 7047   0.897   3.189   3.020 -0.2772  0.2849 -0.3493
 1749SOL     OW 7048   0.913   3.447   3.114 -0.6030 -0.1325  0.6432
 1749SOL    HW2 7049   0.985   3.500   3.079 -0.7419  0.3696  1.1197
 1749SOL    HW3 7050   0.925   3.362   3.072  0.3324 -0.0880  0.8001
 1749SOL    MW4 7051   0.924   3.443   3.104 -0.4979 -0.0601  0.7265
 1750SOL     OW 7052   1.125   3.606   2.989 -0.2253  0.2926  0.1287
 1750SOL    HW2 7053   1.198   3.546   3.002  0.1035  0.5505 -0.5113
 1750SOL    HW3 7054   1.150   3.685   3.038  0.0231  0.4561 -0.2561
 1750SOL    MW4 7055   1.138   3.609   2.997 -0.1491  0.3483 -0.0067
 1751SOL     OW 7056   1.141   3.873   3.107  0.2648 -0.1860 -0.0731
 1751SOL    HW2 7057   1.145   3.874   3.203 -0.3157 -3.1257  0.0079
 1751SOL    HW3 7058   1.055   3.910   3.087  0.7349  1.2508  0.4903
 1751SOL    MW4 7059   1.130   3.878   3.117  0.2503 -0.3843  0.0119
 1752SOL     OW 7060   0.879   3.961   3.018 -0.4997  0.2666  0.5612
 1752SOL    HW2 7061   0.799   3.909   3.024  0.0396 -0.2682  3.4048
 1752SOL    HW3 7062   0.900   3.961   2.924 -2.1368 -2.1328  0.1501
 1752SOL    MW4 7063   0.871   3.954   3.006 -0.6446 -0.1206  0.8824
 1753SOL     OW 7064   0.918   4.241   3.099  0.1852 -0.1756  0.1694
 1753SOL    HW2 7065   0.902   4.148   3.084  1.0620 -0.0737 -1.6139
 1753SOL    HW3 7066   0.840   4.284   3.065  0.3149 -0.1948 -0.1563
 1753SOL    MW4 7067   0.905   4.234   3.092  0.3179 -0.1650 -0.1087
 1754SOL     OW 7068   1.150   4.385   2.999  0.6322  0.1436 -0.2196
 1754SOL    HW2 7069   1.089   4.322   3.038  1.1052  0.6388  1.3595
 1754SOL    HW3 7070   1.132   4.467   3.045  2.6045  0.2542  0.3847
 1754SOL    MW4 7071   1.140   4.388   3.010  0.9549  0.2232  0.0687
 1755SOL     OW 7072   1.563   0.014   3.093 -0.1840 -0.1271 -0.1606
 1755SOL    HW2 7073   1.563   0.025   3.188 -0.6611  0.6408 -0.2417
 1755SOL    HW3 7074   1.471   0.019   3.068  0.1180  2.3772 -0.9398
 1755SOL    MW4 7075   1.551   0.016   3.102 -0.2071  0.3047 -0.2742
 1756SOL     OW 7076   1.318   0.065   2.992 -0.2582 -0.5856  0.2306
 1756SOL    HW2 7077   1.357   0.148   3.019  0.3551 -1.1951  1.2517
 1756SOL    HW3 7078   1.328   0.064   2.896 -2.0656  1.4012 -0.0465
 1756SOL    MW4 7079   1.324   0.076   2.983 -0.4156 -0.4039  0.3285
 1757SOL     OW 7080   1.349   0.317   3.083  0.1317 -0.4073  0.3126
 1757SOL    HW2 7081   1.332   0.348   3.173  1.0413 -2.1247  1.0902
 1757SOL    HW3 7082   1.416   0.377   3.050  0.9878 -0.7613  1.3666
 1757SOL    MW4 7083   1.356   0.329   3.091  0.3647 -0.6806  0.5543
 1758SOL     OW 7084   1.564   0.476   2.998  0.7687  0.2629  0.2303
 1758SOL    HW2 7085   1.573   0.566   3.030 -0.1999  0.4373  0.0151
 1758SOL    HW3 7086   1.563   0.485   2.903 -1.4758  0.2406  0.2355
 1758SOL    MW4 7087   1.565   0.489   2.989  0.3448  0.2829  0.2027
 1759SOL     OW 7088   1.583   0.737   3.127  0.3282  0.1664  0.3323
 1759SOL    HW2 7089   1.572   0.756   3.220 -0.0958  0.7511  0.1668
 1759SOL    HW3 7090   1.497   0.753   3.089  0.5507  0.1199 -0.1954
 1759SOL    MW4 7091   1.570   0.741   3.134  0.3016  0.2373  0.2410
 1760SOL     OW 7092   1.344   0.822   3.027 -0.2782  0.0250 -0.3098
 1760SOL    HW2 7093   1.332   0.913   3.054 -1.4705 -0.3076  0.2970
 1760SOL    HW3 7094   1.270   0.775   3.066 -0.5021 -0.9478 -1.8706
 1760SOL    MW4 7095   1.333   0.828   3.036 -0.4650 -0.1472 -0.4358
 1761SOL     OW 7096   1.364   1.116   3.104 -0.5308  0.3496  0.0382
 1761SOL    HW2 7097   1.355   1.126   3.199  1.3773 -1.5993  0.4767
 1761SOL    HW3 7098   1.452   1.150   3.085 -0.6624  0.1483 -0.9349
 1761SOL    MW4 7099   1.374   1.122   3.114 -0.2964  0.0658 -0.0322
 1762SOL     OW 7100   1.587   1.272   3.046 -0.3107 -0.0017  0.0316
 1762SOL    HW2 7101   1.678   1.245   3.062  0.0162  0.7328 -0.5573
 1762SOL    HW3 7102   1.582   1.361   3.082 -0.8872 -0.1693  0.3608
 1762SOL    MW4 7103   1.598   1.280   3.053 -0.3437  0.0732 -0.0026
 1763SOL     OW 7104   1.576   1.541   3.110  0.0614  0.5840  0.2492
 1763SOL    HW2 7105   1.648   1.593   3.073 -0.2441  1.0333  0.2773
 1763SOL    HW3 7106   1.497   1.581   3.074 -0.1200 -1.1803 -1.4240
 1763SOL    MW4 7107   1.575   1.553   3.101 -0.0027  0.4106  0.0319
 1764SOL     OW 7108   1.326   1.668   3.039  0.2119  0.2206  0.0939
 1764SOL    HW2 7109   1.347   1.759   3.059  0.6209  0.3017 -0.6520
 1764SOL    HW3 7110   1.312   1.667   2.944 -0.7405 -0.3129  0.2269
 1764SOL    MW4 7111   1.327   1.680   3.029  0.1403  0.1608  0.0131
 1765SOL     OW 7112   1.371   1.931   3.103  0.0980  0.5106  0.0875
 1765SOL    HW2 7113   1.355   1.918   3.197  1.2407  0.3681  0.2699
 1765SOL    HW3 7114   1.286   1.957   3.068 -0.9499 -1.9665  0.7070
 1765SOL    MW4 7115   1.358   1.933   3.111  0.1106  0.1650  0.1936
 1766SOL     OW 7116   1.577   2.088   2.997  0.0899 -0.3909  0.7708
 1766SOL    HW2 7117   1.512   2.031   3.036  0.6868 -1.2741  0.4954
 1766SOL    HW3 7118   1.579   2.064   2.904  0.5597 -0.1342  0.7078
 1766SOL    MW4 7119   1.569   2.078   2.990  0.2306 -0.4735  0.7262
 1767SOL     OW 7120   1.574   2.340   3.127 -0.2217  0.7833 -0.3438
 1767SOL    HW2 7121   1.487   2.378   3.117 -0.5387  0.1772  0.0986
 1767SOL    HW3 7122   1.571   2.258   3.078 -0.4906 -0.1637  1.2372
 1767SOL    MW4 7123   1.562   2.334   3.120 -0.2991  0.5784 -0.0772
 1768SOL     OW 7124   1.331   2.453   3.066 -0.2138 -0.1411 -0.2124
 1768SOL    HW2 7125   1.263   2.400   3.108 -0.5912  0.3000 -0.2576
 1768SOL    HW3 7126   1.309   2.451   2.973  0.8982 -1.5103 -0.4479
 1768SOL    MW4 7127   1.319   2.446   3.060 -0.1168 -0.2635 -0.2496
 1769SOL     OW 7128   1.352   2.714   3.125  0.2015  0.0760 -0.2021
 1769SOL    HW2 7129   1.326   2.622   3.116  1.8204 -0.3273 -1.0721
 1769SOL    HW3 7130   1.286   2.763   3.077 -0.3241 -0.7018 -0.2723
 1769SOL    MW4 7131   1.340   2.708   3.117  0.3458 -0.0796 -0.3259
 1770SOL     OW 7132   1.577   2.808   3.016 -0.2112 -0.2718 -0.5090
 1770SOL    HW2 7133   1.652   2.780   3.069 -0.3436 -1.4074 -0.9106
 1770SOL    HW3 7134   1.501   2.765   3.056 -0.4913 -0.0533 -0.8014
 1770SOL    MW4 7135   1.577   2.798   3.028 -0.2657 -0.3929 -0.6001
 1771SOL     OW 7136   1.591   3.060   3.106 -0.1744 -0.0677 -0.2237
 1771SOL    HW2 7137   1.593   3.055   3.201 -1.3448 -1.5497 -0.2435
 1771SOL    HW3 7138   1.586   2.968   3.078  1.7969  0.2611 -1.7647
 1771SOL    MW4 7139   1.590   3.047   3.115 -0.0687 -0.2201 -0.4299
 1772SOL     OW 7140   1.354   3.191   3.046  0.1571  0.0814  0.3438
 1772SOL    HW2 7141   1.418   3.130   3.083  0.0842  0.1823  0.6299
 1772SOL    HW3 7142   1.378   3.196   2.953  1.2519  0.9750  0.6602
 1772SOL    MW4 7143   1.366   3.184   3.038  0.2919  0.2127  0.4232
 1773SOL     OW 7144   1.339   3.471   3.117 -0.0090 -0.1380 -0.6316
 1773SOL    HW2 7145   1.356   3.484   3.210  0.2443 -0.6867 -0.5952
 1773SOL    HW3 7146   1.350   3.377   3.104  1.1949  0.1136 -1.4634
 1773SOL    MW4 7147   1.343   3.460   3.127  0.1835 -0.1771 -0.7367
 1774SOL     OW 7148   1.549   3.632   3.016 -0.1442  0.3676  0.0889
 1774SOL    HW2 7149   1.471   3.581   3.036 -0.5670  0.8540 -0.3026
 1774SOL    HW3 7150   1.561   3.621   2.922  0.3336  0.1956  0.1669
 1774SOL    MW4 7151   1.540   3.624   3.006 -0.1369  0.4091  0.0477
 1775SOL     OW 7152   1.540   3.886   3.144 -0.3257  0.2138  0.1107
 1775SOL    HW2 7153   1.613   3.941   3.117 -1.0652  0.6201 -1.0895
 1775SOL    HW3 7154   1.552   3.804   3.095 -0.6772  0.2832 -0.0941
 1775SOL    MW4 7155   1.551   3.882   3.134 -0.4697  0.2766 -0.0746
 1776SOL     OW 7156   1.359   4.012   2.996  0.6825 -0.4380  0.2496
 1776SOL    HW2 7157   1.421   3.969   3.055  0.1221  0.4869  1.5387
 1776SOL    HW3 7158   1.274   3.978   3.023  0.3715  0.4177  0.3590
 1776SOL    MW4 7159   1.356   4.001   3.007  0.5676 -0.2031  0.4342
 1777SOL     OW 7160   1.361   4.273   3.118  0.1016 -0.0709 -0.0779
 1777SOL    HW2 7161   1.359   4.185   3.081 -1.4766  0.2555 -0.7807
 1777SOL    HW3 7162   1.289   4.319   3.076  0.8580  1.5446  0.3396
 1777SOL    MW4 7163   1.351   4.268   3.108 -0.0069  0.1850 -0.1154
 1778SOL     OW 7164   1.583   4.417   2.984 -0.1849 -0.1480 -0.0816
 1778SOL    HW2 7165   1.511   4.386   3.040  0.3040 -1.8324 -0.3617
 1778SOL    HW3 7166   1.592   4.510   3.007 -2.3917  0.0813  0.0035
 1778SOL    MW4 7167   1.574   4.425   2.995 -0.4116 -0.3400 -0.1075
 1779SOL     OW 7168   2.029   0.010   3.121 -0.2842 -0.0994  0.4776
 1779SOL    HW2 7169   2.032   0.004   3.216 -1.1774 -0.6454  0.4762
 1779SOL    HW3 7170   1.946   0.055   3.102  1.2957  2.7815  0.0675
 1779SOL    MW4 7171   2.019   0.015   3.131 -0.1936  0.2089  0.4232
 1780SOL     OW 7172   1.804   0.109   3.014  0.0220  0.0029 -0.3544
 1780SOL    HW2 7173   1.712   0.084   3.024  0.1867 -1.4037 -2.1737
 1780SOL    HW3 7174   1.820   0.105   2.920  2.0783 -0.2101 -0.0247
 1780SOL    MW4 7175   1.794   0.105   3.003  0.3150 -0.2108 -0.5510
 1781SOL     OW 7176   1.756   0.354   3.146  0.1495  0.3226 -0.2441
 1781SOL    HW2 7177   1.758   0.274   3.095 -0.4759 -0.9194  1.6055
 1781SOL    HW3 7178   1.681   0.403   3.111  0.7507  0.2704 -1.6146
 1781SOL    MW4 7179   1.746   0.350   3.135  0.1464  0.1519 -0.1810
 1782SOL     OW 7180   1.985   0.474   3.064 -0.0729 -0.1180  0.2833
 1782SOL    HW2 7181   1.909   0.428   3.099  0.2530 -0.0631  1.0936
 1782SOL    HW3 7182   1.976   0.469   2.969 -0.9708 -0.2980  0.3791
 1782SOL    MW4 7183   1.974   0.467   3.056 -0.1483 -0.1346  0.4029
 1783SOL     OW 7184   2.008   0.756   3.112 -0.9940 -0.1283  0.5025
 1783SOL    HW2 7185   1.925   0.799   3.091 -0.4795  0.1247 -1.1122
 1783SOL    HW3 7186   1.994   0.664   3.091 -0.4381  0.1457 -1.1841
 1783SOL    MW4 7187   1.995   0.750   3.106 -0.8531 -0.0588  0.0670
 1784SOL     OW 7188   1.783   0.910   3.061 -0.0226  0.2111 -0.1230
 1784SOL    HW2 7189   1.709   0.852   3.079 -0.4490  0.2580 -1.6231
 1784SOL    HW3 7190   1.788   0.913   2.965  1.5775  0.6461 -0.0469
 1784SOL    MW4 7191   1.774   0.903   3.050  0.1322  0.2747 -0.3109
 1785SOL     OW 7192   1.834   1.170   3.125  0.4377 -0.4054 -0.0989
 1785SOL    HW2 7193   1.816   1.187   3.218 -2.7333  0.8235 -0.8834
 1785SOL    HW3 7194   1.817   1.077   3.114  0.1160 -0.4071  0.3930
 1785SOL    MW4 7195   1.829   1.160   3.136 -0.0231 -0.2434 -0.1373
 1786SOL     OW 7196   2.058   1.281   3.018 -0.2998 -0.2774  0.2793
 1786SOL    HW2 7197   2.130   1.229   3.054 -0.6621 -1.8271 -1.1913
 1786SOL    HW3 7198   1.979   1.236   3.046 -0.6096 -0.7719 -1.3470
 1786SOL    MW4 7199   2.057   1.268   3.026 -0.3886 -0.5471 -0.1295
 1787SOL     OW 7200   2.052   1.551   3.136  0.1361 -0.0970 -0.3397
 1787SOL    HW2 7201   2.053   1.554   3.232 -0.2940  0.2037 -0.3433
 1787SOL    HW3 7202   2.069   1.459   3.115 -0.0461 -0.2159  0.0317
 1787SOL    MW4 7203   2.055   1.539   3.146  0.0553 -0.0730 -0.2913
 1788SOL     OW 7204   1.825   1.676   3.053  0.0443 -0.3015 -0.3177
 1788SOL    HW2 7205   1.824   1.764   3.091  0.7561  0.6443 -2.3819
 1788SOL    HW3 7206   1.908   1.638   3.081 -0.2391 -0.2952  0.5366
 1788SOL    MW4 7207   1.836   1.683   3.062  0.1009 -0.1758 -0.4776
 1789SOL     OW 7208   1.807   1.947   3.087 -0.4133 -0.1016 -0.2063
 1789SOL    HW2 7209   1.888   1.977   3.046  0.6241 -0.9967  1.1241
 1789SOL    HW3 7210   1.739   2.003   3.051  0.5775 -0.3116 -2.4920
 1789SOL    MW4 7211   1.809   1.958   3.077 -0.1458 -0.2474 -0.3324
 1790SOL     OW 7212   2.032   2.095   3.020  0.1871  0.1843  0.2264
 1790SOL    HW2 7213   2.103   2.043   3.058  0.5729  0.4616 -0.1217
 1790SOL    HW3 7214   2.052   2.185   3.045  1.4152  0.6048 -2.1424
 1790SOL    MW4 7215   2.044   2.100   3.028  0.3998  0.2763 -0.1318
 1791SOL     OW 7216   2.018   2.361   3.132  0.0298  0.2533  0.4684
 1791SOL    HW2 7217   2.078   2.421   3.088 -0.3417 -1.0199 -1.8618
 1791SOL    HW3 7218   1.931   2.388   3.102 -0.2832 -0.2077  0.9561
 1791SOL    MW4 7219   2.014   2.373   3.122 -0.0606  0.0246  0.2255
 1792SOL     OW 7220   1.792   2.469   3.035 -0.1045 -0.2379 -0.3892
 1792SOL    HW2 7221   1.789   2.550   3.086  2.1182 -0.2738 -0.1085
 1792SOL    HW3 7222   1.717   2.418   3.066 -0.7386  1.1466  0.4151
 1792SOL    MW4 7223   1.782   2.473   3.046  0.1051 -0.0601 -0.2460
 1793SOL     OW 7224   1.787   2.696   3.169 -0.0186  0.3689 -0.1386
 1793SOL    HW2 7225   1.789   2.681   3.264  1.0361  0.5098 -0.1403
 1793SOL    HW3 7226   1.847   2.768   3.155  1.1074 -0.7366 -1.1114
 1793SOL    MW4 7227   1.795   2.703   3.180  0.2692  0.2420 -0.2673
 1794SOL     OW 7228   2.000   2.878   3.058 -0.2665 -0.2021  0.4617
 1794SOL    HW2 7229   1.995   2.974   3.066  1.3856 -0.0368 -0.3425
 1794SOL    HW3 7230   1.997   2.862   2.964  2.0335 -0.7615  0.4472
 1794SOL    MW4 7231   1.999   2.889   3.047  0.2551 -0.2542  0.3538
 1795SOL     OW 7232   1.986   3.153   3.103  0.5791  0.2344  0.2439
 1795SOL    HW2 7233   1.982   3.151   3.198 -2.7627 -2.8627  0.1745
 1795SOL    HW3 7234   1.902   3.191   3.077 -0.0596 -2.2474 -1.4615
 1795SOL    MW4 7235   1.974   3.158   3.112  0.0539 -0.5016  0.0095
 1796SOL     OW 7236   1.751   3.274   3.020 -0.4840 -0.2535 -0.0264
 1796SOL    HW2 7237   1.686   3.214   3.056  1.4995 -1.7914  1.0744
 1796SOL    HW3 7238   1.777   3.233   2.937  0.0025 -0.2840  0.1439
 1796SOL    MW4 7239   1.746   3.261   3.013 -0.1580 -0.4604  0.1411
 1797SOL     OW 7240   1.778   3.521   3.126 -0.1054  0.0731  0.0032
 1797SOL    HW2 7241   1.773   3.433   3.089 -1.9591 -0.2523  0.9573
 1797SOL    HW3 7242   1.692   3.559   3.109  0.1994  1.1700  0.8633
 1797SOL    MW4 7243   1.766   3.514   3.119 -0.3098  0.1748  0.2425
 1798SOL     OW 7244   1.999   3.616   2.995  0.5919  0.1498  0.2372
 1798SOL    HW2 7245   1.993   3.709   3.014  3.1402  0.1501  1.3337
 1798SOL    HW3 7246   1.931   3.576   3.049  0.2709  1.2650  0.6723
 1798SOL    MW4 7247   1.989   3.623   3.005  0.8857  0.2971  0.4392
 1799SOL     OW 7248   2.009   3.898   3.069  0.1835  0.6829  0.4556
 1799SOL    HW2 7249   2.011   3.886   3.164 -0.3097 -1.3707  0.2421
 1799SOL    HW3 7250   1.921   3.930   3.050 -0.3495 -0.6720  0.5427
 1799SOL    MW4 7251   1.998   3.901   3.079  0.0482  0.2332  0.4389
 1800SOL     OW 7252   1.762   4.009   3.030 -0.3092 -0.1776  0.0773
 1800SOL    HW2 7253   1.782   4.101   3.046  1.4053 -0.2539 -1.4857
 1800SOL    HW3 7254   1.746   4.004   2.936  1.2951 -1.7582 -0.1468
 1800SOL    MW4 7255   1.762   4.021   3.020  0.1286 -0.3963 -0.1585
 1801SOL     OW 7256   1.822   4.260   3.115 -0.0017  0.1475  0.4650
 1801SOL    HW2 7257   1.898   4.309   3.083  0.0293 -0.5858 -0.6106
 1801SOL    HW3 7258   1.747   4.310   3.082  0.0278 -0.1625 -0.0808
 1801SOL    MW4 7259   1.822   4.273   3.106  0.0063  0.0095  0.2513
 1802SOL     OW 7260   2.020   4.415   3.010 -0.5412  0.0153 -0.2911
 1802SOL    HW2 7261   2.039   4.508   3.027  0.9067 -0.5314  1.2701
 1802SOL    HW3 7262   2.022   4.407   2.915  0.9647  1.2870 -0.3976
 1802SOL    MW4 7263   2.023   4.427   3.000 -0.1516  0.1106 -0.0989
 1803SOL     OW 7264   2.458   4.650   3.198  0.2489  0.6023 -0.3624
 1803SOL    HW2 7265   2.474   4.560   3.171 -1.4137 -0.4170  1.9086
 1803SOL    HW3 7266   2.404   4.687   3.128  0.9309 -0.1403 -1.2968
 1803SOL    MW4 7267   2.453   4.643   3.185  0.1194  0.3700 -0.1860
 1804SOL     OW 7268   2.271   0.099   3.017  0.1783  0.1079 -0.0321
 1804SOL    HW2 7269   2.264   0.185   3.059 -0.1885  0.3086 -0.5126
 1804SOL    HW3 7270   2.194   0.050   3.047 -0.7282  0.6612 -1.4252
 1804SOL    MW4 7271   2.260   0.104   3.027  0.0103  0.2074 -0.2794
 1805SOL     OW 7272   2.239   0.355   3.108  0.0514  0.5879  0.2035
 1805SOL    HW2 7273   2.228   0.356   3.203 -1.9631 -1.1210  0.0029
 1805SOL    HW3 7274   2.160   0.396   3.074  0.9853  1.6619 -0.7691
 1805SOL    MW4 7275   2.227   0.361   3.116 -0.0913  0.5041  0.0489
 1806SOL     OW 7276   2.471   0.484   3.052 -0.1313 -0.3944  0.0252
 1806SOL    HW2 7277   2.389   0.436   3.064 -0.7249  0.4449 -0.6030
 1806SOL    HW3 7278   2.490   0.476   2.959 -0.5454  1.0416 -0.2061
 1806SOL    MW4 7279   2.462   0.477   3.041 -0.2642 -0.0942 -0.0882
 1807SOL     OW 7280   2.475   0.767   3.106  0.4880 -0.0690  0.1235
 1807SOL    HW2 7281   2.555   0.807   3.073  0.5076  0.0869  0.3568
 1807SOL    HW3 7282   2.485   0.674   3.085  0.9064 -0.1128  0.4982
 1807SOL    MW4 7283   2.487   0.760   3.099  0.5460 -0.0542  0.2038
 1808SOL     OW 7284   2.235   0.882   3.016  0.1733 -0.0489 -0.3820
 1808SOL    HW2 7285   2.316   0.844   3.048 -0.3497  0.4909  1.6671
 1808SOL    HW3 7286   2.167   0.821   3.043 -0.5235  1.6132  1.7187
 1808SOL    MW4 7287   2.237   0.869   3.023  0.0122  0.2416  0.1657
 1809SOL     OW 7288   2.273   1.133   3.122 -0.3135  0.1848 -0.0608
 1809SOL    HW2 7289   2.272   1.129   3.217  0.5966 -0.3157 -0.0609
 1809SOL    HW3 7290   2.267   1.041   3.094  1.3097  0.1810 -0.4399
 1809SOL    MW4 7291   2.272   1.120   3.131  0.0210  0.1181 -0.1109
 1810SOL     OW 7292   2.489   1.288   3.032 -0.1851 -0.6130  0.2090
 1810SOL    HW2 7293   2.415   1.232   3.056 -1.0262  0.5497  0.4047
 1810SOL    HW3 7294   2.491   1.283   2.936 -1.0894  0.0449  0.1462
 1810SOL    MW4 7295   2.480   1.280   3.022 -0.4153 -0.3728  0.2270
 1811SOL     OW 7296   2.473   1.544   3.107  0.1976 -0.5640  0.3972
 1811SOL    HW2 7297   2.392   1.582   3.076  0.0524 -1.0876  0.1266
 1811SOL    HW3 7298   2.471   1.454   3.075  1.3276 -0.3103 -0.4215
 1811SOL    MW4 7299   2.462   1.537   3.099  0.3273 -0.5996  0.2534
 1812SOL     OW 7300   2.265   1.677   3.005  0.1520 -0.0590  0.4121
 1812SOL    HW2 7301   2.188   1.639   3.049  0.8699 -0.7955  1.0346
 1812SOL    HW3 7302   2.237   1.686   2.914  0.1412 -2.6586  0.1041
 1812SOL    MW4 7303   2.251   1.673   2.999  0.2453 -0.4992  0.4539
 1813SOL     OW 7304   2.260   1.937   3.113  0.0497 -0.2984  0.4524
 1813SOL    HW2 7305   2.335   1.980   3.073  0.3609  0.4587  1.7958
 1813SOL    HW3 7306   2.266   1.846   3.085  0.2388  0.2139 -1.1983
 1813SOL    MW4 7307   2.270   1.931   3.104  0.1161 -0.1309  0.4120
 1814SOL     OW 7308   2.489   2.045   2.989  0.4810 -0.2291 -0.1516
 1814SOL    HW2 7309   2.556   1.988   3.027  1.3674  0.2285 -1.0133
 1814SOL    HW3 7310   2.500   2.035   2.894  0.2174  0.8676 -0.3021
 1814SOL    MW4 7311   2.500   2.036   2.982  0.5634 -0.0241 -0.2851
 1815SOL     OW 7312   2.469   2.320   3.115 -0.0653  0.1482 -0.1004
 1815SOL    HW2 7313   2.468   2.305   3.209 -1.7967 -0.0007 -0.1183
 1815SOL    HW3 7314   2.461   2.233   3.077  1.1449  0.1634 -0.3958
 1815SOL    MW4 7315   2.468   2.307   3.122 -0.1340  0.1307 -0.1416
 1816SOL     OW 7316   2.253   2.510   3.009 -0.1419  0.8498  0.0388
 1816SOL    HW2 7317   2.258   2.597   3.048  0.0175  0.5057  0.7976
 1816SOL    HW3 7318   2.318   2.459   3.057  0.5717  0.6086 -1.1804
 1816SOL    MW4 7319   2.262   2.515   3.020 -0.0267  0.7727 -0.0219
 1817SOL     OW 7320   2.239   2.754   3.135  0.0291 -0.1152  0.6717
 1817SOL    HW2 7321   2.322   2.789   3.102  0.3311 -0.0452  1.4946
 1817SOL    HW3 7322   2.173   2.814   3.100  0.3394 -0.0595  0.1686
 1817SOL    MW4 7323   2.241   2.766   3.126  0.1099 -0.0987  0.7138
 1818SOL     OW 7324   2.480   2.830   3.025  0.1327 -0.0949 -0.0893
 1818SOL    HW2 7325   2.467   2.925   3.035  1.4427  0.1060 -0.2206
 1818SOL    HW3 7326   2.465   2.814   2.932 -1.1273 -0.1932  0.1215
 1818SOL    MW4 7327   2.476   2.841   3.014  0.1390 -0.0818 -0.0787
 1819SOL     OW 7328   2.458   3.102   3.078 -0.3392  0.0555 -0.1448
 1819SOL    HW2 7329   2.528   3.164   3.061 -0.2356  0.0598  0.2913
 1819SOL    HW3 7330   2.378   3.150   3.056 -0.1773 -0.1151 -1.1074
 1819SOL    MW4 7331   2.456   3.117   3.073 -0.3040  0.0331 -0.2146
 1820SOL     OW 7332   2.238   3.260   3.024 -0.2261  0.3407 -0.0563
 1820SOL    HW2 7333   2.232   3.350   3.057 -0.3693  0.4691 -0.4302
 1820SOL    HW3 7334   2.152   3.223   3.044  0.3066 -0.1646  1.3912
 1820SOL    MW4 7335   2.226   3.267   3.031 -0.1748  0.2909  0.0854
 1821SOL     OW 7336   2.211   3.509   3.121  0.8259 -0.3102  0.1248
 1821SOL    HW2 7337   2.281   3.569   3.095  1.1819 -1.2475 -1.1437
 1821SOL    HW3 7338   2.133   3.543   3.078  0.4738  0.7831  1.6069
 1821SOL    MW4 7339   2.210   3.521   3.111  0.8264 -0.2899  0.1533
 1822SOL     OW 7340   2.422   3.652   3.021  0.3854  0.7005  0.1913
 1822SOL    HW2 7341   2.513   3.624   3.031 -0.2041 -0.6283  2.0498
 1822SOL    HW3 7342   2.419   3.739   3.061  0.7584  0.6176  0.3980
 1822SOL    MW4 7343   2.433   3.660   3.027  0.3569  0.5143  0.4637
 1823SOL     OW 7344   2.426   3.918   3.100  0.1816 -0.1656 -0.0195
 1823SOL    HW2 7345   2.429   3.897   3.193  0.3055  0.6240  0.1544
 1823SOL    HW3 7346   2.513   3.952   3.080  0.1846 -0.4190 -0.4493
 1823SOL    MW4 7347   2.438   3.919   3.109  0.1984 -0.0949 -0.0532
 1824SOL     OW 7348   2.215   4.069   2.997 -0.3374  0.6597  0.3112
 1824SOL    HW2 7349   2.283   4.003   3.011 -1.6871 -0.7924  0.1525
 1824SOL    HW3 7350   2.133   4.020   3.000 -1.3518  2.2943 -0.0972
 1824SOL    MW4 7351   2.213   4.054   2.999 -0.6492  0.6838  0.2365
 1825SOL     OW 7352   2.229   4.286   3.156 -0.3176 -0.1600  0.5465
 1825SOL    HW2 7353   2.231   4.207   3.101  0.1424 -0.4269  0.9473
 1825SOL    HW3 7354   2.145   4.326   3.137  0.1627  0.1740 -0.9648
 1825SOL    MW4 7355   2.218   4.281   3.146 -0.1934 -0.1507  0.3998
 1826SOL     OW 7356   2.457   4.392   3.056 -0.2983  0.6890  0.5035
 1826SOL    HW2 7357   2.376   4.355   3.091  0.1642  0.5483  1.4447
 1826SOL    HW3 7358   2.440   4.403   2.962 -2.0211  2.3336  0.9745
 1826SOL    MW4 7359   2.444   4.388   3.048 -0.4644  0.8874  0.6902
 1827SOL     OW 7360   2.915   4.646   3.118  0.6138  0.4670 -0.6308
 1827SOL    HW2 7361   2.991   4.694   3.084  1.0969  0.2299  0.1075
 1827SOL    HW3 7362   2.934   4.554   3.098  1.1557  0.2670  0.7438
 1827SOL    MW4 7363   2.928   4.640   3.111  0.7489  0.4086 -0.3519
 1828SOL     OW 7364   2.679   0.083   3.045  0.3178  0.2932 -0.0739
 1828SOL    HW2 7365   2.760   0.046   3.079  0.7379  0.6540 -0.6672
 1828SOL    HW3 7366   2.613   0.063   3.111  0.5357 -1.5195 -0.3793
 1828SOL    MW4 7367   2.681   0.075   3.058  0.4017  0.1016 -0.1924
 1829SOL     OW 7368   2.713   0.366   3.118  0.9075 -0.1609  0.0301
 1829SOL    HW2 7369   2.715   0.277   3.083  1.2508 -0.7078  1.4179
 1829SOL    HW3 7370   2.623   0.396   3.101  0.7429 -0.8276 -0.2901
 1829SOL    MW4 7371   2.701   0.358   3.111  0.9310 -0.3209  0.1709
 1830SOL     OW 7372   2.903   0.526   3.020  0.2257 -0.1590 -0.1601
 1830SOL    HW2 7373   2.828   0.480   3.057  0.0147  0.2783 -0.0460
 1830SOL    HW3 7374   2.899   0.508   2.926 -0.5035  0.5546 -0.2734
 1830SOL    MW4 7375   2.893   0.518   3.012  0.1016 -0.0072 -0.1597
 1831SOL     OW 7376   2.928   0.776   3.119 -0.4519 -0.3619  0.2399
 1831SOL    HW2 7377   2.941   0.773   3.214  0.2975  0.0734  0.1537
 1831SOL    HW3 7378   2.921   0.684   3.093 -0.9881 -0.4721  0.7551
 1831SOL    MW4 7379   2.929   0.764   3.128 -0.4237 -0.3191  0.2966
 1832SOL     OW 7380   2.703   0.878   3.010 -0.1171  0.2640 -0.3215
 1832SOL    HW2 7381   2.710   0.970   3.036  0.3705  0.2608 -0.4344
 1832SOL    HW3 7382   2.785   0.839   3.040  0.0844  0.0722 -1.1007
 1832SOL    MW4 7383   2.715   0.885   3.017 -0.0260  0.2383 -0.4394
 1833SOL     OW 7384   2.699   1.127   3.108 -0.1408  0.1333 -0.0188
 1833SOL    HW2 7385   2.771   1.176   3.068  0.2011 -0.9388 -0.7073
 1833SOL    HW3 7386   2.620   1.176   3.083  0.1880  0.2583 -0.8083
 1833SOL    MW4 7387   2.698   1.140   3.100 -0.0525  0.0083 -0.2141
 1834SOL     OW 7388   2.925   1.262   3.002  0.0837  0.1963 -0.3247
 1834SOL    HW2 7389   3.001   1.219   3.041 -0.1450 -0.4855 -0.6254
 1834SOL    HW3 7390   2.933   1.354   3.028 -1.1783 -0.5999  3.1134
 1834SOL    MW4 7391   2.936   1.269   3.010 -0.1130  0.0013  0.0894
 1835SOL     OW 7392   2.925   1.524   3.093 -0.1211 -0.0649  0.3949
 1835SOL    HW2 7393   2.917   1.550   3.185 -0.2267  0.0464  0.3545
 1835SOL    HW3 7394   3.006   1.565   3.063 -0.4009  0.4014  0.2701
 1835SOL    MW4 7395   2.934   1.533   3.102 -0.1719  0.0114  0.3731
 1836SOL     OW 7396   2.705   1.636   2.994 -0.1515 -0.2440 -0.0270
 1836SOL    HW2 7397   2.777   1.598   3.045 -0.5629  2.1043  2.4588
 1836SOL    HW3 7398   2.627   1.590   3.024  0.0641 -1.4070 -1.2490
 1836SOL    MW4 7399   2.705   1.625   3.005 -0.1774 -0.0876  0.1400
 1837SOL     OW 7400   2.710   1.904   3.116 -0.3066 -0.2974  0.0422
 1837SOL    HW2 7401   2.780   1.938   3.060 -0.2503 -1.3139 -0.5144
 1837SOL    HW3 7402   2.703   1.811   3.093 -2.2590 -0.0686 -0.3358
 1837SOL    MW4 7403   2.718   1.896   3.106 -0.5567 -0.4013 -0.0813
 1838SOL     OW 7404   2.906   2.069   3.012 -0.2157  0.3672  0.0936
 1838SOL    HW2 7405   2.916   2.157   3.048 -1.3763  1.2066 -1.5399
 1838SOL    HW3 7406   2.911   2.082   2.917  0.1879 -1.4182 -0.1513
 1838SOL    MW4 7407   2.908   2.083   3.004 -0.3157  0.2425 -0.1545
 1839SOL     OW 7408   2.879   2.326   3.107 -0.2572 -0.1668  0.2187
 1839SOL    HW2 7409   2.943   2.394   3.087 -0.4002  0.0847  0.6146
 1839SOL    HW3 7410   2.799   2.354   3.062  0.4658 -1.5216 -1.9954
 1839SOL    MW4 7411   2.877   2.339   3.098 -0.1807 -0.3123 -0.0210
 1840SOL     OW 7412   2.658   2.476   3.004 -0.1697  0.3503 -0.2898
 1840SOL    HW2 7413   2.671   2.565   3.035  0.7160 -0.0766  0.5883
 1840SOL    HW3 7414   2.588   2.441   3.058 -0.1301  0.3222 -0.2570
 1840SOL    MW4 7415   2.650   2.483   3.015 -0.0477  0.2904 -0.1695
 1841SOL     OW 7416   2.708   2.715   3.138  0.0575 -0.3273  0.5060
 1841SOL    HW2 7417   2.698   2.711   3.233  0.1052 -0.8565  0.4919
 1841SOL    HW3 7418   2.631   2.763   3.108 -0.5482 -1.1530  0.7183
 1841SOL    MW4 7419   2.696   2.721   3.146 -0.0162 -0.5059  0.5319
 1842SOL     OW 7420   2.889   2.887   3.031 -0.1301  0.8718  0.0169
 1842SOL    HW2 7421   2.973   2.841   3.026 -0.2687  0.5775  0.3247
 1842SOL    HW3 7422   2.832   2.827   3.079 -1.0409  0.2857 -1.7336
 1842SOL    MW4 7423   2.893   2.873   3.037 -0.2687  0.7555 -0.1733
 1843SOL     OW 7424   2.901   3.144   3.133  0.0371  0.4111  0.0737
 1843SOL    HW2 7425   2.826   3.188   3.094 -0.4962  0.2163  0.8884
 1843SOL    HW3 7426   2.888   3.051   3.112 -0.4762  0.2537  1.1050
 1843SOL    MW4 7427   2.890   3.138   3.125 -0.1009  0.3645  0.3171
 1844SOL     OW 7428   2.653   3.266   3.016 -0.4593  0.0583  0.3930
 1844SOL    HW2 7429   2.667   3.358   3.036 -2.5322  0.2915  0.8630
 1844SOL    HW3 7430   2.661   3.261   2.920 -1.3444  0.9220  0.2634
 1844SOL    MW4 7431   2.656   3.277   3.006 -0.8492  0.2031  0.4380
 1845SOL     OW 7432   2.694   3.533   3.067  0.1702 -0.1162 -0.1857
 1845SOL    HW2 7433   2.690   3.546   3.162 -0.1098  0.8447 -0.3204
 1845SOL    HW3 7434   2.776   3.575   3.041  0.0005  0.0633 -0.4343
 1845SOL    MW4 7435   2.705   3.540   3.076  0.1111  0.0343 -0.2363
 1846SOL     OW 7436   2.933   3.618   2.977  0.0414  0.5697  0.0706
 1846SOL    HW2 7437   3.000   3.560   3.013 -0.6722  0.3785  1.1374
 1846SOL    HW3 7438   2.930   3.692   3.037 -2.8479 -0.8890  1.8771
 1846SOL    MW4 7439   2.941   3.620   2.990 -0.4339  0.3517  0.4494
 1847SOL     OW 7440   2.913   3.842   3.128 -0.2509  0.1049 -0.1377
 1847SOL    HW2 7441   2.910   3.840   3.224  0.3793  0.1654 -0.1157
 1847SOL    HW3 7442   2.845   3.904   3.103  0.1199  0.6867  0.3022
 1847SOL    MW4 7443   2.904   3.850   3.137 -0.1190  0.1895 -0.0765
 1848SOL     OW 7444   2.699   4.009   3.046 -0.0448 -0.3756 -0.4569
 1848SOL    HW2 7445   2.704   4.103   3.060  1.4785 -0.3084 -1.3097
 1848SOL    HW3 7446   2.700   3.999   2.950 -2.5868 -1.1474 -0.4290
 1848SOL    MW4 7447   2.700   4.020   3.035 -0.1795 -0.4683 -0.5655
 1849SOL     OW 7448   2.705   4.266   3.116  0.4934  0.1323  0.1668
 1849SOL    HW2 7449   2.713   4.269   3.211 -0.3847 -0.3589  0.2606
 1849SOL    HW3 7450   2.617   4.300   3.098  0.6121  0.1083 -0.4566
 1849SOL    MW4 7451   2.694   4.271   3.126  0.3934  0.0648  0.0970
 1850SOL     OW 7452   2.947   4.385   3.033 -0.3088 -0.1892 -0.2096
 1850SOL    HW2 7453   3.022   4.328   3.049 -0.4864 -0.8263 -1.6357
 1850SOL    HW3 7454   2.872   4.337   3.066 -0.1265  0.4035  1.1193
 1850SOL    MW4 7455   2.947   4.371   3.040 -0.3083 -0.1950 -0.2224
 1851SOL     OW 7456   3.377   4.655   3.091 -0.0029 -0.1447 -0.4867
 1851SOL    HW2 7457   3.439   4.709   3.043  0.2134  0.0361 -0.0076
 1851SOL    HW3 7458   3.395   4.566   3.061  0.7404 -0.1373 -0.0820
 1851SOL    MW4 7459   3.388   4.650   3.081  0.1240 -0.1199 -0.3700
 1852SOL     OW 7460   3.141   0.124   3.005  0.6516 -0.6457  0.4189
 1852SOL    HW2 7461   3.128   0.210   3.046  0.3683 -0.4026 -0.1736
 1852SOL    HW3 7462   3.229   0.098   3.034  1.0952  0.2373 -0.0951
 1852SOL    MW4 7463   3.151   0.132   3.015  0.6726 -0.4971  0.2730
 1853SOL     OW 7464   3.115   0.376   3.127  0.0124 -0.1468  0.3337
 1853SOL    HW2 7465   3.193   0.425   3.099  1.0539 -1.1324  1.4240
 1853SOL    HW3 7466   3.041   0.426   3.093  1.1258  0.9097 -0.5640
 1853SOL    MW4 7467   3.116   0.389   3.119  0.2968 -0.1375  0.3595
 1854SOL     OW 7468   3.328   0.517   3.014 -0.0492 -0.1963  0.0104
 1854SOL    HW2 7469   3.411   0.479   3.042  0.7536  1.4218 -0.1095
 1854SOL    HW3 7470   3.339   0.535   2.920 -0.6211 -0.2201 -0.0670
 1854SOL    MW4 7471   3.340   0.515   3.005 -0.0188  0.0141 -0.0157
 1855SOL     OW 7472   3.363   0.771   3.143  0.2167  0.2808  0.4569
 1855SOL    HW2 7473   3.332   0.775   3.233 -0.1792  0.1598  0.3284
 1855SOL    HW3 7474   3.350   0.680   3.117 -0.6986  0.5549 -0.0807
 1855SOL    MW4 7475   3.357   0.760   3.151  0.0439  0.3009  0.3688
 1856SOL     OW 7476   3.156   0.881   2.981  0.5939 -0.1103  0.4294
 1856SOL    HW2 7477   3.233   0.860   3.034  0.5463  1.2333  1.0484
 1856SOL    HW3 7478   3.087   0.825   3.016  1.3966 -1.6895 -0.4567
 1856SOL    MW4 7479   3.157   0.871   2.993  0.6936 -0.1414  0.3939
 1857SOL     OW 7480   3.170   1.119   3.132  0.0652 -0.2503 -0.2977
 1857SOL    HW2 7481   3.237   1.159   3.076 -0.4197  2.3042  0.8990
 1857SOL    HW3 7482   3.154   1.034   3.091  2.7944 -0.2197 -1.5832
 1857SOL    MW4 7483   3.177   1.113   3.119  0.3614  0.0908 -0.3097
 1858SOL     OW 7484   3.354   1.266   2.993 -0.2447  0.3941 -0.2226
 1858SOL    HW2 7485   3.433   1.230   3.033 -0.0126  0.5189 -0.5598
 1858SOL    HW3 7486   3.353   1.357   3.019 -0.4549  0.3106  0.0560
 1858SOL    MW4 7487   3.364   1.273   3.001 -0.2418  0.3996 -0.2301
 1859SOL     OW 7488   3.381   1.566   3.063 -0.3708  0.2032 -0.4638
 1859SOL    HW2 7489   3.377   1.554   3.158  0.4962 -3.2460 -0.8087
 1859SOL    HW3 7490   3.474   1.581   3.045 -0.2412 -1.2036 -0.9773
 1859SOL    MW4 7491   3.393   1.567   3.074 -0.2391 -0.4375 -0.5772
 1860SOL     OW 7492   3.127   1.691   3.007 -0.0581  0.0863  0.1878
 1860SOL    HW2 7493   3.207   1.641   3.024 -0.0372  0.0114 -0.1371
 1860SOL    HW3 7494   3.128   1.706   2.913 -0.2461  0.3922  0.2359
 1860SOL    MW4 7495   3.138   1.686   2.997 -0.0801  0.1168  0.1514
 1861SOL     OW 7496   3.135   1.950   3.121 -0.0373 -0.0973  0.0046
 1861SOL    HW2 7497   3.141   1.861   3.086  0.1737 -0.0699 -0.0348
 1861SOL    HW3 7498   3.059   1.988   3.078  0.2668 -0.0404 -0.4773
 1861SOL    MW4 7499   3.126   1.943   3.111  0.0308 -0.0861 -0.0644
 1862SOL     OW 7500   3.359   2.080   3.005 -0.2468  0.3132  0.3955
 1862SOL    HW2 7501   3.438   2.039   3.041  0.8504  1.3978 -0.6963
 1862SOL    HW3 7502   3.287   2.033   3.045  0.9581 -1.7274  0.2526
 1862SOL    MW4 7503   3.360   2.069   3.015  0.0570  0.1872  0.2325
 1863SOL     OW 7504   3.323   2.321   3.128 -0.4288 -0.0410 -0.0095
 1863SOL    HW2 7505   3.344   2.309   3.220 -0.8092  0.2954  0.1201
 1863SOL    HW3 7506   3.340   2.235   3.088  1.6844  0.3529 -0.0091
 1863SOL    MW4 7507   3.328   2.308   3.135 -0.2003  0.0553  0.0074
 1864SOL     OW 7508   3.109   2.463   3.022  0.2888 -0.0393  0.5140
 1864SOL    HW2 7509   3.179   2.418   3.070  0.4486  0.6224  0.9139
 1864SOL    HW3 7510   3.124   2.440   2.931 -0.8351 -2.4170  0.9065
 1864SOL    MW4 7511   3.120   2.454   3.016  0.1614 -0.2654  0.6187
 1865SOL     OW 7512   3.129   2.733   3.073 -0.0405  0.2871  0.3527
 1865SOL    HW2 7513   3.108   2.725   3.166 -0.2695  1.5298  0.4223
 1865SOL    HW3 7514   3.133   2.643   3.041 -1.5161 -0.0967  1.2130
 1865SOL    MW4 7515   3.127   2.720   3.081 -0.2654  0.4008  0.4754
 1866SOL     OW 7516   3.390   2.865   3.067 -0.2867  0.4706 -0.3367
 1866SOL    HW2 7517   3.374   2.957   3.089 -3.2349  0.1196 -0.7195
 1866SOL    HW3 7518   3.306   2.822   3.085  0.5810 -1.8434 -1.6375
 1866SOL    MW4 7519   3.377   2.872   3.072 -0.5610  0.1192 -0.5586
 1867SOL     OW 7520   3.371   3.129   3.132 -0.1454 -0.4356 -0.0324
 1867SOL    HW2 7521   3.375   3.129   3.227  0.4549 -0.9751 -0.0569
 1867SOL    HW3 7522   3.293   3.180   3.111 -0.0412  0.0479  0.7383
 1867SOL    MW4 7523   3.362   3.136   3.141 -0.0522 -0.4435  0.0660
 1868SOL     OW 7524   3.143   3.257   3.021 -0.2980 -0.1043 -0.1501
 1868SOL    HW2 7525   3.054   3.237   3.050 -0.2501 -0.4305 -0.2206
 1868SOL    HW3 7526   3.136   3.261   2.925 -0.3061  0.2075 -0.1348
 1868SOL    MW4 7527   3.130   3.255   3.012 -0.2928 -0.1061 -0.1574
 1869SOL     OW 7528   3.127   3.524   3.127  0.2335  0.1491 -0.1689
 1869SOL    HW2 7529   3.209   3.564   3.099  0.0103  0.1805 -0.8024
 1869SOL    HW3 7530   3.132   3.434   3.096  0.5065 -0.1709  0.7887
 1869SOL    MW4 7531   3.138   3.517   3.119  0.2401  0.1113 -0.1259
 1870SOL     OW 7532   3.380   3.615   3.023  0.0734  0.1249 -0.8048
 1870SOL    HW2 7533   3.456   3.569   3.059  0.1997 -0.5388 -1.8920
 1870SOL    HW3 7534   3.381   3.701   3.066  0.3823 -0.5432  0.5421
 1870SOL    MW4 7535   3.390   3.620   3.034  0.1309 -0.0508 -0.7706
 1871SOL     OW 7536   3.374   3.862   3.136  0.3129 -0.2483  0.2314
 1871SOL    HW2 7537   3.373   3.880   3.230 -1.5540 -1.0306  0.3755
 1871SOL    HW3 7538   3.292   3.899   3.103  1.9441  2.0536 -1.5128
 1871SOL    MW4 7539   3.363   3.869   3.144  0.2820 -0.0477  0.0203
 1872SOL     OW 7540   3.144   3.972   3.018 -0.4544 -0.2701 -0.1361
 1872SOL    HW2 7541   3.062   3.934   3.050 -0.8361  0.8726  0.2568
 1872SOL    HW3 7542   3.137   3.965   2.923 -1.2205  0.2553 -0.1265
 1872SOL    MW4 7543   3.132   3.966   3.010 -0.6058 -0.0501 -0.0830
 1873SOL     OW 7544   3.189   4.229   3.121 -0.1790 -0.1566 -0.5600
 1873SOL    HW2 7545   3.189   4.219   3.216  0.2038 -1.3061 -0.6729
 1873SOL    HW3 7546   3.188   4.139   3.087 -0.5125  0.2404 -1.6417
 1873SOL    MW4 7547   3.189   4.216   3.129 -0.1724 -0.2556 -0.7176
 1874SOL     OW 7548   3.403   4.398   3.014  0.4075  0.0663 -0.5831
 1874SOL    HW2 7549   3.485   4.369   3.053 -0.6630 -0.6248  1.1928
 1874SOL    HW3 7550   3.336   4.342   3.053 -0.9031  0.5259 -2.1160
 1874SOL    MW4 7551   3.405   4.387   3.024  0.0937  0.0362 -0.5510
 1875SOL     OW 7552   3.815   4.630   3.121  0.2750 -0.2390 -0.2050
 1875SOL    HW2 7553   3.825   4.542   3.084  1.4638 -0.0841 -0.2663
 1875SOL    HW3 7554   3.738   4.666   3.077 -0.7475 -1.5713  0.4575
 1875SOL    MW4 7555   3.806   4.623   3.111  0.2971 -0.3939 -0.1259
 1876SOL     OW 7556   3.585   0.126   2.989  0.3076  0.2370  0.2501
 1876SOL    HW2 7557   3.590   0.219   3.012  1.1443  0.2160  0.1479
 1876SOL    HW3 7558   3.591   0.123   2.894 -1.3189  0.1854  0.1333
 1876SOL    MW4 7559   3.586   0.138   2.980  0.2036  0.2275  0.2210
 1877SOL     OW 7560   3.565   0.402   3.084  0.4068 -0.7641  0.3552
 1877SOL    HW2 7561   3.549   0.383   3.176 -1.1697  0.5238  0.3659
 1877SOL    HW3 7562   3.657   0.428   3.080  0.4726 -0.8049  1.5758
 1877SOL    MW4 7563   3.575   0.403   3.096  0.2074 -0.5996  0.5178
 1878SOL     OW 7564   3.844   0.512   3.026  0.3163  0.5446  0.0001
 1878SOL    HW2 7565   3.921   0.479   3.071  0.2168 -0.5653 -0.6269
 1878SOL    HW3 7566   3.842   0.605   3.047  1.4076  0.4352  0.6211
 1878SOL    MW4 7567   3.854   0.520   3.035  0.4473  0.3837 -0.0007
 1879SOL     OW 7568   3.816   0.799   3.097  0.5573 -0.3433 -0.8427
 1879SOL    HW2 7569   3.808   0.802   3.192 -0.4889 -1.2788 -0.8916
 1879SOL    HW3 7570   3.904   0.832   3.079  1.1931 -1.2483  0.5192
 1879SOL    MW4 7571   3.826   0.804   3.107  0.5033 -0.5862 -0.6695
 1880SOL     OW 7572   3.557   0.906   2.998  0.1761 -0.5511 -0.2196
 1880SOL    HW2 7573   3.640   0.867   3.025  1.1306  1.6175  0.1324
 1880SOL    HW3 7574   3.490   0.851   3.039  1.4571 -1.6110  0.5082
 1880SOL    MW4 7575   3.560   0.894   3.007  0.4709 -0.4048 -0.0770
 1881SOL     OW 7576   3.591   1.168   3.111  0.6554 -0.0245  0.1672
 1881SOL    HW2 7577   3.675   1.208   3.089  0.8011 -0.2802  0.2602
 1881SOL    HW3 7578   3.594   1.081   3.070  0.2192  0.1703 -0.2905
 1881SOL    MW4 7579   3.602   1.162   3.103  0.6170 -0.0325  0.1192
 1882SOL     OW 7580   3.835   1.269   3.017  0.0455  0.8679  0.1090
 1882SOL    HW2 7581   3.862   1.356   3.046  1.4039  0.5382 -0.1590
 1882SOL    HW3 7582   3.829   1.276   2.922  1.3283  0.3446 -0.0142
 1882SOL    MW4 7583   3.838   1.281   3.008  0.3941  0.7553  0.0577
 1883SOL     OW 7584   3.885   1.536   3.112 -0.6127 -0.0718 -0.1354
 1883SOL    HW2 7585   3.876   1.548   3.206 -0.9144  1.5526 -0.3537
 1883SOL    HW3 7586   3.802   1.566   3.076 -0.1970  0.0882 -0.9761
 1883SOL    MW4 7587   3.873   1.542   3.119 -0.5972  0.1636 -0.2749
 1884SOL     OW 7588   3.653   1.650   3.017 -0.0261  0.5000  0.0865
 1884SOL    HW2 7589   3.630   1.738   3.047 -0.5846  0.2104  0.5330
 1884SOL    HW3 7590   3.650   1.654   2.922 -0.8377  0.7585  0.1221
 1884SOL    MW4 7591   3.649   1.662   3.009 -0.2067  0.4959  0.1504
 1885SOL     OW 7592   3.595   1.913   3.084 -0.1214 -0.5808  0.2695
 1885SOL    HW2 7593   3.581   1.917   3.179  0.5730  1.3890  0.2980
 1885SOL    HW3 7594   3.670   1.971   3.068  1.5945 -3.0911 -1.1412
 1885SOL    MW4 7595   3.603   1.921   3.094  0.1967 -0.6521  0.0870
 1886SOL     OW 7596   3.819   2.058   3.043  0.5291  0.2414  0.0045
 1886SOL    HW2 7597   3.811   2.152   3.055 -0.8675  0.1308  0.0740
 1886SOL    HW3 7598   3.823   2.046   2.948  0.5262  0.3558 -0.0098
 1886SOL    MW4 7599   3.818   2.069   3.032  0.3448  0.2418  0.0117
 1887SOL     OW 7600   3.801   2.329   3.104  0.1939 -0.7048 -0.2912
 1887SOL    HW2 7601   3.784   2.316   3.197 -0.6380 -1.0322 -0.4882
 1887SOL    HW3 7602   3.714   2.341   3.065  0.6732  1.8217 -0.6633
 1887SOL    MW4 7603   3.787   2.329   3.111  0.1473 -0.4148 -0.3662
 1888SOL     OW 7604   3.562   2.439   3.007 -0.2026  0.1771  0.4955
 1888SOL    HW2 7605   3.563   2.523   3.053  0.0760  1.0400 -1.0901
 1888SOL    HW3 7606   3.476   2.402   3.028 -0.5230  1.0690  0.7777
 1888SOL    MW4 7607   3.551   2.445   3.016 -0.2079  0.4084  0.3235
 1889SOL     OW 7608   3.614   2.680   3.114  0.0622 -0.1386 -0.1264
 1889SOL    HW2 7609   3.688   2.736   3.088  0.2645 -0.2802  0.1392
 1889SOL    HW3 7610   3.536   2.731   3.092  0.2395  0.0240 -0.3852
 1889SOL    MW4 7611   3.614   2.694   3.108  0.1121 -0.1357 -0.1256
 1890SOL     OW 7612   3.830   2.830   3.031  0.2111 -0.2186  0.1021
 1890SOL    HW2 7613   3.823   2.924   3.043 -0.7211 -0.0829 -1.3090
 1890SOL    HW3 7614   3.806   2.816   2.939 -1.2379 -1.9737  0.7007
 1890SOL    MW4 7615   3.826   2.840   3.020 -0.1030 -0.4320 -0.0050
 1891SOL     OW 7616   3.855   3.084   3.133 -0.1361 -0.0047  0.0253
 1891SOL    HW2 7617   3.927   3.124   3.084  1.0054 -1.7093  0.2708
 1891SOL    HW3 7618   3.776   3.124   3.096  0.9264  1.9909 -0.1472
 1891SOL    MW4 7619   3.854   3.095   3.122  0.1550  0.0336  0.0353
 1892SOL     OW 7620   3.617   3.218   3.044 -0.3559  0.6392  0.2899
 1892SOL    HW2 7621   3.530   3.185   3.068 -0.3882  0.6516  0.1923
 1892SOL    HW3 7622   3.615   3.223   2.949  0.1371 -0.4079  0.2210
 1892SOL    MW4 7623   3.605   3.215   3.035 -0.2952  0.5026  0.2680
 1893SOL     OW 7624   3.591   3.483   3.120  0.0398  0.1217  0.1055
 1893SOL    HW2 7625   3.673   3.523   3.090  0.5890  0.0462  1.4676
 1893SOL    HW3 7626   3.600   3.391   3.099 -0.2564  0.3294 -0.9460
 1893SOL    MW4 7627   3.603   3.476   3.113  0.0730  0.1390  0.1466
 1894SOL     OW 7628   3.827   3.602   3.034  0.4581 -0.0557  0.0793
 1894SOL    HW2 7629   3.805   3.693   3.058 -0.9672 -0.5109  0.5614
 1894SOL    HW3 7630   3.831   3.603   2.938 -0.4069  0.3399  0.0378
 1894SOL    MW4 7631   3.824   3.614   3.024  0.1557 -0.0637  0.1373
 1895SOL     OW 7632   3.803   3.867   3.101 -0.2072 -0.1600  0.2610
 1895SOL    HW2 7633   3.804   3.842   3.194  0.9214  2.3960  0.9815
 1895SOL    HW3 7634   3.725   3.922   3.092  0.1369  0.2706 -0.1132
 1895SOL    MW4 7635   3.793   3.871   3.112 -0.0126  0.2344  0.3066
 1896SOL     OW 7636   3.589   4.012   3.013 -0.2518  0.1672 -0.2402
 1896SOL    HW2 7637   3.520   3.966   3.060 -0.1530  0.3642  0.0998
 1896SOL    HW3 7638   3.586   3.976   2.924 -0.7917  0.1763 -0.2259
 1896SOL    MW4 7639   3.580   4.002   3.007 -0.3099  0.1950 -0.1934
 1897SOL     OW 7640   3.608   4.263   3.151  0.4338  0.0390 -0.3090
 1897SOL    HW2 7641   3.694   4.301   3.138  1.0524 -1.0272  0.5748
 1897SOL    HW3 7642   3.607   4.186   3.095  0.0073  0.1197 -0.4139
 1897SOL    MW4 7643   3.619   4.258   3.142  0.4590 -0.0911 -0.2062
 1898SOL     OW 7644   3.842   4.365   3.026 -0.4061  0.4325 -0.0328
 1898SOL    HW2 7645   3.915   4.312   3.060 -0.1177  0.5740 -0.4363
 1898SOL    HW3 7646   3.847   4.354   2.931 -0.4147  1.0987 -0.1094
 1898SOL    MW4 7647   3.852   4.356   3.018 -0.3695  0.5393 -0.0958
 1899SOL     OW 7648   4.255   4.633   3.092  0.4001 -0.2058  0.3717
 1899SOL    HW2 7649   4.263   4.639   3.187 -1.2596  1.0977  0.4625
 1899SOL    HW3 7650   4.260   4.539   3.073  4.1564 -0.2744  1.3641
 1899SOL    MW4 7651   4.257   4.621   3.102  0.6766 -0.0424  0.5145
 1900SOL     OW 7652   4.037   0.103   3.012  0.1266  0.0404 -0.0715
 1900SOL    HW2 7653   4.121   0.061   3.032 -0.0019 -0.5299 -0.7235
 1900SOL    HW3 7654   3.972   0.039   3.040 -0.0797  0.1095 -0.3977
 1900SOL    MW4 7655   4.040   0.089   3.018  0.0820 -0.0257 -0.2003
 1901SOL     OW 7656   4.065   0.355   3.128  0.5134 -0.2273  0.3064
 1901SOL    HW2 7657   4.145   0.390   3.090  0.9223 -0.5540  0.8599
 1901SOL    HW3 7658   4.057   0.266   3.092  0.2989 -0.1256  0.1017
 1901SOL    MW4 7659   4.074   0.348   3.118  0.5393 -0.2570  0.3521
 1902SOL     OW 7660   4.264   0.497   3.006  0.3860  0.2553  0.3419
 1902SOL    HW2 7661   4.275   0.586   3.041 -1.0414  0.3390  0.6129
 1902SOL    HW3 7662   4.254   0.510   2.912  0.0500  0.3981  0.3961
 1902SOL    MW4 7663   4.264   0.511   2.998  0.1535  0.2852  0.3850
 1903SOL     OW 7664   4.294   0.751   3.138  0.2214 -0.3203 -0.4895
 1903SOL    HW2 7665   4.232   0.816   3.104  1.4685  1.8572  1.2694
 1903SOL    HW3 7666   4.377   0.773   3.097  0.9661  0.1320  1.2329
 1903SOL    MW4 7667   4.297   0.763   3.128  0.4845  0.0266 -0.0303
 1904SOL     OW 7668   4.076   0.888   3.036  0.0079  0.5368 -0.1377
 1904SOL    HW2 7669   4.085   0.982   3.056 -0.0877  0.7583 -1.1152
 1904SOL    HW3 7670   4.077   0.884   2.940  0.5631 -0.5235 -0.0868
 1904SOL    MW4 7671   4.077   0.900   3.026  0.0687  0.4262 -0.2599
 1905SOL     OW 7672   4.069   1.147   3.101 -0.3542 -0.1854  0.1753
 1905SOL    HW2 7673   4.052   1.134   3.194 -0.8065 -0.4968  0.0479
 1905SOL    HW3 7674   3.989   1.187   3.067  0.3346  1.2529  0.1946
 1905SOL    MW4 7675   4.056   1.150   3.109 -0.3233 -0.0366  0.1609
 1906SOL     OW 7676   4.298   1.266   3.039 -0.5473 -0.3200 -0.3505
 1906SOL    HW2 7677   4.214   1.233   3.071 -0.2671  0.3621  1.1568
 1906SOL    HW3 7678   4.291   1.262   2.944 -2.0777 -0.7937 -0.2324
 1906SOL    MW4 7679   4.286   1.261   3.031 -0.7129 -0.2924 -0.1359
 1907SOL     OW 7680   4.295   1.522   3.122  0.1363  0.0388  0.2712
 1907SOL    HW2 7681   4.226   1.566   3.072  1.2011  0.7474 -0.6197
 1907SOL    HW3 7682   4.293   1.431   3.090  1.7405  0.7949 -2.1895
 1907SOL    MW4 7683   4.286   1.516   3.111  0.4883  0.2321 -0.1712
 1908SOL     OW 7684   4.090   1.689   3.014  0.0860  0.1729 -0.0673
 1908SOL    HW2 7685   4.080   1.773   3.059 -0.5746 -1.2925  2.5887
 1908SOL    HW3 7686   4.024   1.632   3.054 -0.2480 -1.3047 -2.6304
 1908SOL    MW4 7687   4.080   1.693   3.025 -0.0453 -0.2155 -0.0548
 1909SOL     OW 7688   4.053   1.915   3.157 -0.5863  0.1164 -0.2234
 1909SOL    HW2 7689   4.128   1.967   3.128  0.2064 -1.4985 -1.1605
 1909SOL    HW3 7690   3.977   1.971   3.141  0.3868  1.7025  0.5701
 1909SOL    MW4 7691   4.053   1.930   3.151 -0.3529  0.1127 -0.2422
 1910SOL     OW 7692   4.285   2.040   3.052  0.3177  0.2624  0.1964
 1910SOL    HW2 7693   4.277   2.135   3.066 -0.5411  0.3979 -1.1248
 1910SOL    HW3 7694   4.308   2.031   2.960 -0.4701 -0.8459  0.0972
 1910SOL    MW4 7695   4.287   2.052   3.042  0.1001  0.1342  0.0091
 1911SOL     OW 7696   4.240   2.316   3.111  0.4955 -0.3263 -0.3757
 1911SOL    HW2 7697   4.165   2.361   3.071  0.9305 -2.0157 -3.2892
 1911SOL    HW3 7698   4.316   2.359   3.072  0.9991 -0.4182  0.5038
 1911SOL    MW4 7699   4.240   2.327   3.100  0.6189 -0.5612 -0.6440
 1912SOL     OW 7700   4.036   2.474   3.035  0.0880 -0.1701 -0.0602
 1912SOL    HW2 7701   4.030   2.568   3.055 -0.5356 -0.3602  0.6802
 1912SOL    HW3 7702   3.950   2.439   3.058  0.9999 -1.3163  1.8106
 1912SOL    MW4 7703   4.024   2.482   3.041  0.1259 -0.3462  0.2842
 1913SOL     OW 7704   4.063   2.721   3.131 -0.0008 -0.0620  0.4234
 1913SOL    HW2 7705   4.055   2.702   3.224 -0.3696  1.3774  0.7118
 1913SOL    HW3 7706   3.980   2.764   3.108  0.5211  0.6003 -0.2960
 1913SOL    MW4 7707   4.051   2.724   3.140  0.0191  0.2153  0.3667
 1914SOL     OW 7708   4.290   2.838   3.015 -0.3879  0.3381  0.0045
 1914SOL    HW2 7709   4.207   2.802   3.045 -0.8279  0.6406 -0.8504
 1914SOL    HW3 7710   4.356   2.780   3.052 -0.9463  0.3987  1.1280
 1914SOL    MW4 7711   4.288   2.826   3.024 -0.5202  0.3860  0.0401
 1915SOL     OW 7712   4.313   3.084   3.100  0.1614 -0.0068 -0.4998
 1915SOL    HW2 7713   4.233   3.126   3.070 -0.4300 -0.1006  0.9415
 1915SOL    HW3 7714   4.299   2.991   3.082 -0.2488 -0.0793  0.2061
 1915SOL    MW4 7715   4.301   3.077   3.094  0.0296 -0.0288 -0.2165
 1916SOL     OW 7716   4.073   3.207   3.013  0.1737  0.6531 -0.3157
 1916SOL    HW2 7717   4.059   3.293   3.053  0.3374  1.2222 -1.4788
 1916SOL    HW3 7718   4.063   3.222   2.919  0.4618 -0.5483 -0.5429
 1916SOL    MW4 7719   4.070   3.220   3.006  0.2332  0.5696 -0.4995
 1917SOL     OW 7720   4.041   3.461   3.121  0.2572  0.1796  0.1584
 1917SOL    HW2 7721   4.048   3.465   3.217  1.1406 -0.5293  0.1275
 1917SOL    HW3 7722   3.959   3.506   3.102  0.0389  0.2769  1.2561
 1917SOL    MW4 7723   4.031   3.468   3.131  0.3448  0.0992  0.2992
 1918SOL     OW 7724   4.277   3.557   3.010  0.4092  0.1205 -0.1353
 1918SOL    HW2 7725   4.272   3.646   3.043  0.3899 -0.1584  0.6261
 1918SOL    HW3 7726   4.195   3.516   3.039  0.7679 -0.3684  0.1987
 1918SOL    MW4 7727   4.265   3.563   3.018  0.4544  0.0193  0.0091
 1919SOL     OW 7728   4.270   3.811   3.088  0.7090 -0.2662  0.1055
 1919SOL    HW2 7729   4.190   3.856   3.061  0.4919  0.4496  1.8209
 1919SOL    HW3 7730   4.341   3.865   3.054  0.4833 -1.3623 -2.1505
 1919SOL    MW4 7731   4.269   3.824   3.080  0.6504 -0.3161  0.0343
 1920SOL     OW 7732   4.042   3.960   3.025 -0.1821  0.1364  0.3008
 1920SOL    HW2 7733   4.041   4.052   3.051  0.6787 -0.5728  3.0444
 1920SOL    HW3 7734   3.958   3.925   3.054 -0.7008  0.1330 -1.1480
 1920SOL    MW4 7735   4.031   3.968   3.032 -0.1373  0.0427  0.4718
 1921SOL     OW 7736   4.051   4.218   3.133 -0.3785  0.4116  0.6870
 1921SOL    HW2 7737   4.052   4.230   3.228  0.0829  0.0423  0.7262
 1921SOL    HW3 7738   4.120   4.277   3.101  2.5716 -2.7332  0.9511
 1921SOL    MW4 7739   4.060   4.228   3.141  0.0715 -0.0520  0.7272
 1922SOL     OW 7740   4.274   4.357   3.045  0.0500 -0.1291  0.2977
 1922SOL    HW2 7741   4.359   4.323   3.073  0.3212  0.6169  0.3739
 1922SOL    HW3 7742   4.280   4.361   2.949  0.8639  1.9413  0.4256
 1922SOL    MW4 7743   4.286   4.353   3.036  0.1936  0.2432  0.3245
 1923SOL     OW 7744   0.240   4.612   3.357  0.2678  0.1062 -0.1952
 1923SOL    HW2 7745   0.311   4.663   3.396 -0.1315  0.6058 -0.1370
 1923SOL    HW3 7746   0.236   4.532   3.410 -0.1632  0.7098  0.6790
 1923SOL    MW4 7747   0.249   4.608   3.369  0.1582  0.2522 -0.0722
 1924SOL     OW 7748   0.020   0.070   3.480  0.7209  0.2922  0.0192
 1924SOL    HW2 7749   0.009   0.160   3.449 -0.0064 -0.0266 -0.6803
 1924SOL    HW3 7750   0.095   0.036   3.430  0.6538  0.3458 -0.1204
 1924SOL    MW4 7751   0.028   0.077   3.469  0.6161  0.2572 -0.0913
 1925SOL     OW 7752   4.484   0.326   3.386 -1.2025 -0.1697 -0.2590
 1925SOL    HW2 7753   4.413   0.380   3.419 -0.4485  1.2687 -0.9274
 1925SOL    HW3 7754   4.563   0.364   3.423 -0.7316 -1.5632  0.2248
 1925SOL    MW4 7755   4.485   0.338   3.395 -1.0409 -0.1638 -0.2832
 1926SOL     OW 7756   0.200   0.470   3.496  0.0340 -0.0656  0.1002
 1926SOL    HW2 7757   0.283   0.428   3.473 -0.3581 -0.3161 -0.8873
 1926SOL    HW3 7758   0.207   0.558   3.460 -0.5700 -0.4493 -0.9884
 1926SOL    MW4 7759   0.212   0.476   3.488 -0.0974 -0.1493 -0.1736
 1927SOL     OW 7760   0.173   0.723   3.392  0.5281 -0.0390 -0.2279
 1927SOL    HW2 7761   0.252   0.776   3.397  0.4799  0.0592 -0.4976
 1927SOL    HW3 7762   0.109   0.769   3.447 -0.2565  1.4865 -2.3705
 1927SOL    MW4 7763   0.175   0.736   3.400  0.4182  0.1752 -0.5460
 1928SOL     OW 7764   4.454   0.867   3.519 -0.0198 -0.3606 -0.2762
 1928SOL    HW2 7765   4.471   0.884   3.612 -0.7995 -2.2358  0.2351
 1928SOL    HW3 7766   4.473   0.950   3.476  0.4830  0.5047  1.5419
 1928SOL    MW4 7767   4.459   0.880   3.526 -0.0567 -0.4938  0.0312
 1929SOL     OW 7768   0.016   1.117   3.397 -0.2334  0.2878 -0.1642
 1929SOL    HW2 7769   0.096   1.167   3.416  0.4361 -0.7380 -0.2195
 1929SOL    HW3 7770   0.014   1.109   3.302  0.7636 -1.5106 -0.0665
 1929SOL    MW4 7771   0.027   1.122   3.387 -0.0135 -0.0850 -0.1585
 1930SOL     OW 7772   0.234   1.254   3.500 -0.0628 -0.3472 -0.4122
 1930SOL    HW2 7773   0.312   1.210   3.466 -0.1150 -0.8542  0.1110
 1930SOL    HW3 7774   0.253   1.347   3.491  1.2609 -0.4340  1.1416
 1930SOL    MW4 7775   0.247   1.261   3.494  0.1050 -0.4255 -0.1380
 1931SOL     OW 7776   0.230   1.532   3.416 -0.3937  0.1629 -0.1375
 1931SOL    HW2 7777   0.311   1.578   3.437 -0.5553  0.7981 -0.8497
 1931SOL    HW3 7778   0.225   1.534   3.321  0.3048 -2.6303 -0.2580
 1931SOL    MW4 7779   0.240   1.539   3.407 -0.3229 -0.1218 -0.2475
 1932SOL     OW 7780   4.485   1.637   3.518  0.0537  0.5112 -0.2200
 1932SOL    HW2 7781   4.428   1.571   3.480  1.3639 -0.2489 -0.8774
 1932SOL    HW3 7782   4.574   1.610   3.494  0.7577  1.2450  1.4411
 1932SOL    MW4 7783   4.489   1.625   3.510  0.3195  0.5077 -0.0875
 1933SOL     OW 7784   0.034   1.894   3.418  0.2022  0.4912  0.2459
 1933SOL    HW2 7785  -0.002   1.815   3.457  0.8032  0.1097  0.0497
 1933SOL    HW3 7786   0.017   1.884   3.324  0.4365  0.5030  0.2004
 1933SOL    MW4 7787   0.027   1.882   3.411  0.3124  0.4424  0.2143
 1934SOL     OW 7788   0.258   2.036   3.507  0.1619 -0.0325 -0.1649
 1934SOL    HW2 7789   0.261   2.047   3.602 -0.1493 -0.2435 -0.1291
 1934SOL    HW3 7790   0.179   1.985   3.491  0.7153 -0.8149 -0.4531
 1934SOL    MW4 7791   0.248   2.030   3.517  0.1939 -0.1636 -0.1981
 1935SOL     OW 7792   0.224   2.304   3.370  0.0851  0.1557  0.0381
 1935SOL    HW2 7793   0.157   2.356   3.414  0.2834 -0.1177  0.6535
 1935SOL    HW3 7794   0.220   2.218   3.411 -0.3540 -0.3802 -1.0852
 1935SOL    MW4 7795   0.214   2.300   3.381  0.0534  0.0491 -0.0288
 1936SOL     OW 7796   0.007   2.431   3.475 -0.3464 -0.0688 -0.0379
 1936SOL    HW2 7797   0.013   2.444   3.570 -0.9760 -0.2418  0.0293
 1936SOL    HW3 7798  -0.079   2.391   3.462 -1.4303  2.4952 -0.9653
 1936SOL    MW4 7799  -0.004   2.427   3.486 -0.5725  0.2468 -0.1514
 1937SOL     OW 7800   4.490   2.700   3.419 -0.0161  0.1187 -0.0422
 1937SOL    HW2 7801   4.569   2.749   3.440  0.3071  0.1915 -1.4206
 1937SOL    HW3 7802   4.509   2.610   3.448  0.7052  0.0592 -0.6901
 1937SOL    MW4 7803   4.503   2.694   3.426  0.1217  0.1204 -0.3097
 1938SOL     OW 7804   0.221   2.809   3.525 -0.1965 -0.0256  0.0712
 1938SOL    HW2 7805   0.299   2.759   3.503 -0.2350  0.5343 -1.3485
 1938SOL    HW3 7806   0.242   2.900   3.502 -0.9802  0.2597  0.4179
 1938SOL    MW4 7807   0.234   2.815   3.519 -0.3050  0.0858 -0.0706
 1939SOL     OW 7808   0.268   3.083   3.414 -0.2050  0.1375 -0.0604
 1939SOL    HW2 7809   0.183   3.123   3.428 -0.1467  0.3940 -0.4446
 1939SOL    HW3 7810   0.282   3.087   3.319  0.7749  1.2058  0.1178
 1939SOL    MW4 7811   0.259   3.089   3.403 -0.0680  0.3121 -0.0873
 1940SOL     OW 7812   0.017   3.177   3.514 -0.3365 -0.2396  0.2057
 1940SOL    HW2 7813  -0.071   3.154   3.482 -0.7525  0.9079  0.5236
 1940SOL    HW3 7814   0.033   3.265   3.480 -0.5362  0.7790  2.6464
 1940SOL    MW4 7815   0.007   3.185   3.505 -0.4177  0.0463  0.5693
 1941SOL     OW 7816   0.037   3.440   3.409 -0.2289  0.0346 -0.3113
 1941SOL    HW2 7817  -0.035   3.485   3.454 -0.8268  0.2414 -1.4674
 1941SOL    HW3 7818   0.019   3.452   3.316  1.1967 -0.0895 -0.6125
 1941SOL    MW4 7819   0.025   3.447   3.403 -0.1197  0.0458 -0.5035
 1942SOL     OW 7820   0.231   3.607   3.520 -0.9094 -0.4693 -0.0143
 1942SOL    HW2 7821   0.218   3.605   3.615 -1.1410 -0.5115 -0.0459
 1942SOL    HW3 7822   0.166   3.546   3.486  0.4479 -1.9167 -0.0644
 1942SOL    MW4 7823   0.221   3.598   3.528 -0.7609 -0.6659 -0.0248
 1943SOL     OW 7824   0.226   3.848   3.389 -0.1030  0.0391 -0.0531
 1943SOL    HW2 7825   0.143   3.891   3.410  0.2379  0.3658  0.6337
 1943SOL    HW3 7826   0.214   3.757   3.416  0.5492  0.5836  2.2226
 1943SOL    MW4 7827   0.214   3.842   3.395  0.0280  0.1540  0.3376
 1944SOL     OW 7828   4.483   3.954   3.473 -0.2069 -0.3294  0.1346
 1944SOL    HW2 7829   4.476   3.942   3.568  1.1530 -1.3663  0.1333
 1944SOL    HW3 7830   4.484   4.049   3.460  0.4226 -0.1814  1.2270
 1944SOL    MW4 7831   4.482   3.965   3.484  0.0553 -0.4466  0.2785
 1945SOL     OW 7832   4.467   4.218   3.414  0.3549  0.3783 -0.3594
 1945SOL    HW2 7833   4.382   4.257   3.435  0.5162  0.5963 -0.1009
 1945SOL    HW3 7834   4.530   4.288   3.431  0.4845  0.6211 -1.7371
 1945SOL    MW4 7835   4.464   4.232   3.419  0.3934  0.4392 -0.5071
 1946SOL     OW 7836   0.206   4.370   3.480 -0.5374 -0.0446  0.1242
 1946SOL    HW2 7837   0.208   4.367   3.575 -0.6935 -0.2282  0.1225
 1946SOL    HW3 7838   0.275   4.309   3.453 -0.0855  0.4619  0.1228
 1946SOL    MW4 7839   0.216   4.361   3.489 -0.4983 -0.0014  0.1235
 1947SOL     OW 7840   0.672   4.658   3.378  0.1007  0.0536  0.2802
 1947SOL    HW2 7841   0.747   4.703   3.417 -1.2684  2.4397  0.2315
 1947SOL    HW3 7842   0.698   4.643   3.287  0.7417  0.3717  0.4067
 1947SOL    MW4 7843   0.685   4.662   3.371  0.0046  0.4101  0.2906
 1948SOL     OW 7844   0.438   0.081   3.480  0.2770  0.0216 -0.1583
 1948SOL    HW2 7845   0.450   0.108   3.571 -1.6185  0.3527  0.0166
 1948SOL    HW3 7846   0.524   0.048   3.454  1.0262  0.5318  1.5361
 1948SOL    MW4 7847   0.451   0.080   3.489  0.1258  0.1326  0.0885
 1949SOL     OW 7848   0.463   0.360   3.401  0.0589  0.5731 -0.3224
 1949SOL    HW2 7849   0.539   0.414   3.421 -0.3305  0.6596  1.0116
 1949SOL    HW3 7850   0.486   0.273   3.434 -1.5894  1.3017  2.9791
 1949SOL    MW4 7851   0.476   0.356   3.408 -0.2099  0.6806  0.2892
 1950SOL     OW 7852   0.686   0.504   3.468 -0.4869  0.3028  0.6342
 1950SOL    HW2 7853   0.694   0.480   3.560 -1.3997  1.0405  0.9204
 1950SOL    HW3 7854   0.759   0.460   3.425  0.0383  0.0726  1.7353
 1950SOL    MW4 7855   0.697   0.495   3.475 -0.5380  0.3698  0.8173
 1951SOL     OW 7856   0.662   0.771   3.393  0.3591  0.0605  0.0409
 1951SOL    HW2 7857   0.569   0.793   3.398  0.8441  1.7739  2.1536
 1951SOL    HW3 7858   0.667   0.680   3.423 -0.5400  0.2344  0.7205
 1951SOL    MW4 7859   0.651   0.762   3.398  0.3045  0.3096  0.4094
 1952SOL     OW 7860   0.404   0.862   3.412 -0.4542  0.0835 -0.0570
 1952SOL    HW2 7861   0.412   0.851   3.506 -0.4711  0.5063 -0.0029
 1952SOL    HW3 7862   0.425   0.955   3.397  0.8497 -0.3001 -0.6129
 1952SOL    MW4 7863   0.408   0.873   3.422 -0.2844  0.0887 -0.1230
 1953SOL     OW 7864   0.454   1.129   3.379  0.0283 -0.1818  0.3196
 1953SOL    HW2 7865   0.537   1.163   3.413 -0.4979  1.6290 -0.1428
 1953SOL    HW3 7866   0.459   1.141   3.284 -1.2566  1.1796  0.3900
 1953SOL    MW4 7867   0.466   1.135   3.371 -0.2107  0.2367  0.2680
 1954SOL     OW 7868   0.662   1.282   3.486 -0.6370  0.3235  0.1426
 1954SOL    HW2 7869   0.737   1.236   3.450  0.6143  1.2719  1.4911
 1954SOL    HW3 7870   0.673   1.372   3.456 -1.6774  0.2960 -0.3374
 1954SOL    MW4 7871   0.673   1.288   3.477 -0.6092  0.4450  0.2570
 1955SOL     OW 7872   0.698   1.528   3.368 -0.0200  0.0187 -0.6471
 1955SOL    HW2 7873   0.774   1.542   3.426  1.0297 -1.2775 -1.6938
 1955SOL    HW3 7874   0.627   1.576   3.411  1.7349  2.5138 -0.3924
 1955SOL    MW4 7875   0.699   1.536   3.382  0.3501  0.1770 -0.7515
 1956SOL     OW 7876   0.465   1.666   3.476  0.1435 -0.2029  0.2420
 1956SOL    HW2 7877   0.475   1.664   3.571  0.9700 -1.7984  0.1308
 1956SOL    HW3 7878   0.478   1.758   3.453  0.2503  0.1400  1.6335
 1956SOL    MW4 7879   0.468   1.678   3.486  0.2666 -0.3681  0.4110
 1957SOL     OW 7880   0.466   1.927   3.399  0.3178 -0.1111 -0.2451
 1957SOL    HW2 7881   0.388   1.970   3.433  1.0684  1.1759 -0.1278
 1957SOL    HW3 7882   0.451   1.920   3.305 -0.0767 -0.1409 -0.1784
 1957SOL    MW4 7883   0.454   1.932   3.391  0.3648  0.0548 -0.2208
 1958SOL     OW 7884   0.690   2.057   3.498 -0.0994  0.2148 -0.2259
 1958SOL    HW2 7885   0.680   2.051   3.593  0.1991  0.5313 -0.1703
 1958SOL    HW3 7886   0.607   2.026   3.462  0.4801 -1.7699  0.0902
 1958SOL    MW4 7887   0.678   2.052   3.506  0.0165 -0.0052 -0.1769
 1959SOL     OW 7888   0.650   2.291   3.386 -0.4127  0.2442  0.1871
 1959SOL    HW2 7889   0.720   2.350   3.414 -0.2288  0.4202 -0.6580
 1959SOL    HW3 7890   0.676   2.206   3.422  0.3804  0.2486 -0.3470
 1959SOL    MW4 7891   0.663   2.288   3.395 -0.2838  0.2682  0.0050
 1960SOL     OW 7892   0.441   2.410   3.510  0.2119  0.3718  0.5464
 1960SOL    HW2 7893   0.520   2.363   3.483  0.7181  1.4032  0.2145
 1960SOL    HW3 7894   0.370   2.364   3.465  0.5486 -0.9580  1.3543
 1960SOL    MW4 7895   0.442   2.398   3.500  0.3231  0.3324  0.6092
 1961SOL     OW 7896   0.452   2.671   3.456  0.2310 -0.3119 -0.0978
 1961SOL    HW2 7897   0.458   2.579   3.483 -2.1297 -0.6829 -0.7497
 1961SOL    HW3 7898   0.464   2.670   3.361 -0.0648  0.0003 -0.1425
 1961SOL    MW4 7899   0.454   2.659   3.447 -0.1195 -0.3197 -0.1895
 1962SOL     OW 7900   0.672   2.813   3.510  0.2688  0.2404 -0.1011
 1962SOL    HW2 7901   0.743   2.780   3.455 -0.2828  1.4694 -1.6118
 1962SOL    HW3 7902   0.596   2.759   3.486  0.0999  0.5770 -0.3278
 1962SOL    MW4 7903   0.671   2.802   3.500  0.1737  0.4468 -0.3304
 1963SOL     OW 7904   0.662   3.051   3.391 -0.6398 -0.2852 -0.1779
 1963SOL    HW2 7905   0.595   3.107   3.431 -0.8190  0.3167 -1.3158
 1963SOL    HW3 7906   0.658   2.970   3.442  1.0752  1.4603  2.8637
 1963SOL    MW4 7907   0.652   3.047   3.403 -0.4372  0.0243  0.0732
 1964SOL     OW 7908   0.473   3.233   3.501 -0.5741  0.4641  0.3991
 1964SOL    HW2 7909   0.479   3.228   3.597 -1.0214 -0.7887  0.3799
 1964SOL    HW3 7910   0.396   3.179   3.479 -0.1122  0.2392 -0.7050
 1964SOL    MW4 7911   0.463   3.225   3.511 -0.5722  0.2692  0.2511
 1965SOL     OW 7912   0.452   3.482   3.414  0.5429 -0.2129 -0.1180
 1965SOL    HW2 7913   0.450   3.393   3.449 -0.8787 -0.6466 -1.2512
 1965SOL    HW3 7914   0.387   3.530   3.466 -0.0271 -0.3220 -0.7145
 1965SOL    MW4 7915   0.443   3.476   3.425  0.2802 -0.2847 -0.3464
 1966SOL     OW 7916   0.681   3.586   3.527  0.0583 -0.4355  0.1650
 1966SOL    HW2 7917   0.758   3.556   3.479 -0.6879  1.7835 -2.5871
 1966SOL    HW3 7918   0.609   3.535   3.490 -0.1973 -0.4132  0.6346
 1966SOL    MW4 7919   0.682   3.575   3.515 -0.0739 -0.1400 -0.1361
 1967SOL     OW 7920   0.654   3.837   3.407  0.3013 -0.2865 -0.5274
 1967SOL    HW2 7921   0.580   3.887   3.440  0.2874  0.2770 -1.4038
 1967SOL    HW3 7922   0.646   3.751   3.449 -0.0746  0.2114  0.4342
 1967SOL    MW4 7923   0.644   3.832   3.417  0.2499 -0.1464 -0.5159
 1968SOL     OW 7924   0.451   3.978   3.501 -0.0470  0.1746 -0.8276
 1968SOL    HW2 7925   0.444   4.069   3.474  0.5312  0.0724 -1.3113
 1968SOL    HW3 7926   0.369   3.938   3.471 -0.6520  0.7043  0.0753
 1968SOL    MW4 7927   0.439   3.984   3.494 -0.0505  0.2308 -0.7722
 1969SOL     OW 7928   0.446   4.229   3.393 -0.5603  0.2467 -0.4101
 1969SOL    HW2 7929   0.523   4.280   3.418  0.0920 -0.9188  0.0075
 1969SOL    HW3 7930   0.452   4.220   3.298 -0.2301  0.2598 -0.3906
 1969SOL    MW4 7931   0.457   4.234   3.384 -0.4306  0.0949 -0.3524
 1970SOL     OW 7932   0.649   4.388   3.479 -0.5923 -0.1927 -0.5005
 1970SOL    HW2 7933   0.727   4.351   3.440 -1.2118 -2.9213  0.7463
 1970SOL    HW3 7934   0.650   4.480   3.452  2.3186 -0.4924 -1.5789
 1970SOL    MW4 7935   0.659   4.396   3.471 -0.2900 -0.5922 -0.4783
 1971SOL     OW 7936   1.092   4.666   3.415 -0.0804 -0.0555  0.1232
 1971SOL    HW2 7937   1.157   4.731   3.444  0.9301 -1.1249  0.2800
 1971SOL    HW3 7938   1.115   4.648   3.324  0.9012 -1.6857  0.6759
 1971SOL    MW4 7939   1.103   4.672   3.407  0.1824 -0.4115  0.2167
 1972SOL     OW 7940   0.873   0.142   3.511  0.0700 -0.7587  0.1315
 1972SOL    HW2 7941   0.878   0.149   3.606  0.1616  1.5388 -0.0223
 1972SOL    HW3 7942   0.954   0.097   3.486  0.4888 -0.5252  1.0627
 1972SOL    MW4 7943   0.885   0.137   3.520  0.1374 -0.4248  0.2339
 1973SOL     OW 7944   0.896   0.356   3.344  1.0924  0.0592  0.1988
 1973SOL    HW2 7945   0.970   0.402   3.383  0.9124 -0.3741  1.0752
 1973SOL    HW3 7946   0.889   0.275   3.395  0.5862 -0.3229 -0.4682
 1973SOL    MW4 7947   0.905   0.351   3.356  1.0018 -0.0483  0.2265
 1974SOL     OW 7948   1.107   0.479   3.474 -0.4822  0.1105  0.3170
 1974SOL    HW2 7949   1.108   0.494   3.568  1.9769 -0.0582  0.3714
 1974SOL    HW3 7950   1.104   0.566   3.436  2.3725  0.4033  0.6118
 1974SOL    MW4 7951   1.107   0.492   3.481  0.2189  0.1269  0.3629
 1975SOL     OW 7952   1.100   0.732   3.373  0.2802 -0.1160 -0.1383
 1975SOL    HW2 7953   1.175   0.780   3.409 -0.3196  0.0137  0.9744
 1975SOL    HW3 7954   1.024   0.774   3.413 -0.3207 -1.0877 -0.2531
 1975SOL    MW4 7955   1.100   0.744   3.383  0.1216 -0.2271 -0.0069
 1976SOL     OW 7956   0.888   0.886   3.527 -0.0183 -0.1260  0.1750
 1976SOL    HW2 7957   0.888   0.977   3.499  1.1226  0.1794  1.1547
 1976SOL    HW3 7958   0.814   0.847   3.480 -0.7076  1.3660 -0.0105
 1976SOL    MW4 7959   0.878   0.893   3.517  0.0413  0.1112  0.2797
 1977SOL     OW 7960   0.896   1.144   3.413  0.1753 -0.4049  0.1993
 1977SOL    HW2 7961   0.975   1.183   3.450 -0.6125  0.5501  0.9057
 1977SOL    HW3 7962   0.912   1.141   3.319  0.7623  0.4678  0.2655
 1977SOL    MW4 7963   0.908   1.149   3.406  0.1488 -0.1638  0.3014
 1978SOL     OW 7964   1.144   1.247   3.501 -0.2383  0.1449  0.5136
 1978SOL    HW2 7965   1.130   1.240   3.596 -2.6296  0.8316  0.2486
 1978SOL    HW3 7966   1.163   1.339   3.486 -1.5000  0.3613  0.1567
 1978SOL    MW4 7967   1.144   1.258   3.512 -0.7201  0.2642  0.4315
 1979SOL     OW 7968   1.177   1.516   3.431 -0.2921 -0.0988  0.2313
 1979SOL    HW2 7969   1.240   1.585   3.454 -1.1976  0.8230 -0.0476
 1979SOL    HW3 7970   1.149   1.538   3.343  0.4276 -1.5964 -0.4007
 1979SOL    MW4 7971   1.182   1.528   3.423 -0.3166 -0.1749  0.1111
 1980SOL     OW 7972   0.919   1.624   3.517  0.4660 -0.0761 -0.7721
 1980SOL    HW2 7973   0.922   1.710   3.475 -0.2033 -0.0996 -0.8715
 1980SOL    HW3 7974   1.010   1.596   3.521  0.6668  0.5582 -0.9067
 1980SOL    MW4 7975   0.931   1.632   3.512  0.4041  0.0044 -0.8030
 1981SOL     OW 7976   0.887   1.894   3.399 -0.0530  0.0456  0.4056
 1981SOL    HW2 7977   0.958   1.953   3.426  0.6013 -0.6834  0.2804
 1981SOL    HW3 7978   0.808   1.932   3.438  0.2815  1.3188 -0.1342
 1981SOL    MW4 7979   0.886   1.907   3.408  0.0774  0.1173  0.3181
 1982SOL     OW 7980   1.104   2.045   3.511  0.8522  0.1262 -0.2953
 1982SOL    HW2 7981   1.175   2.012   3.456 -0.4525  0.4272 -2.2169
 1982SOL    HW3 7982   1.088   2.133   3.479  0.3724  0.4754  0.8914
 1982SOL    MW4 7983   1.111   2.052   3.500  0.6167  0.2122 -0.3922
 1983SOL     OW 7984   1.083   2.302   3.412 -0.1259 -0.2197 -0.1351
 1983SOL    HW2 7985   1.166   2.343   3.432 -0.8197  1.6253 -0.9536
 1983SOL    HW3 7986   1.082   2.294   3.317 -1.1663  0.4054 -0.1869
 1983SOL    MW4 7987   1.094   2.306   3.402 -0.3548  0.1063 -0.2499
 1984SOL     OW 7988   0.861   2.439   3.498 -0.0398 -0.4582 -0.4185
 1984SOL    HW2 7989   0.884   2.457   3.589  0.4491 -0.5787 -0.5194
 1984SOL    HW3 7990   0.928   2.378   3.467 -0.1107 -0.2909 -0.9116
 1984SOL    MW4 7991   0.873   2.433   3.506  0.0154 -0.4518 -0.4966
 1985SOL     OW 7992   0.901   2.715   3.389  0.4835 -0.0792  0.1198
 1985SOL    HW2 7993   0.974   2.768   3.422  0.3957  0.3276 -0.3341
 1985SOL    HW3 7994   0.905   2.634   3.440  0.1712  0.6516  1.3474
 1985SOL    MW4 7995   0.911   2.711   3.400  0.4308  0.0708  0.2220
 1986SOL     OW 7996   1.111   2.838   3.506  0.3309 -0.5218  0.4226
 1986SOL    HW2 7997   1.106   2.838   3.602  0.6078  1.8318  0.4506
 1986SOL    HW3 7998   1.195   2.797   3.486  0.6982 -0.1604  1.2156
 1986SOL    MW4 7999   1.121   2.833   3.516  0.4160 -0.1638  0.5307
 1987SOL     OW 8000   1.120   3.097   3.426 -0.7379  0.3257  0.1089
 1987SOL    HW2 8001   1.114   3.011   3.467  0.2520  0.0655 -0.2880
 1987SOL    HW3 8002   1.126   3.079   3.332  1.2552  0.7309  0.1306
 1987SOL    MW4 8003   1.120   3.083   3.419 -0.3442  0.3448  0.0596
 1988SOL     OW 8004   0.878   3.202   3.503  0.8485  0.3407 -0.4286
 1988SOL    HW2 8005   0.960   3.164   3.472 -0.1914  0.3374 -3.4192
 1988SOL    HW3 8006   0.811   3.139   3.473 -0.2241  0.0133  2.4964
 1988SOL    MW4 8007   0.880   3.188   3.495  0.5698  0.2971 -0.4375
 1989SOL     OW 8008   0.890   3.470   3.399 -0.2460 -0.2014  0.1430
 1989SOL    HW2 8009   0.891   3.379   3.429 -0.9342  0.2801  1.7056
 1989SOL    HW3 8010   0.905   3.465   3.305  1.3318 -1.8345  0.4527
 1989SOL    MW4 8011   0.892   3.457   3.391 -0.1286 -0.3536  0.3901
 1990SOL     OW 8012   1.111   3.612   3.511 -0.0245 -0.2350  0.3573
 1990SOL    HW2 8013   1.092   3.614   3.605  1.3800  1.4647  0.6276
 1990SOL    HW3 8014   1.034   3.570   3.472 -0.9478 -0.3041  2.1943
 1990SOL    MW4 8015   1.098   3.607   3.518  0.0391 -0.0198  0.6354
 1991SOL     OW 8016   1.084   3.875   3.396  0.4897 -0.3439 -0.1228
 1991SOL    HW2 8017   1.158   3.924   3.434 -0.1645  0.2943  0.3329
 1991SOL    HW3 8018   1.097   3.786   3.427  2.3060 -0.7177 -1.8506
 1991SOL    MW4 8019   1.096   3.870   3.405  0.6431 -0.3090 -0.2906
 1992SOL     OW 8020   0.849   3.996   3.501  0.5769 -0.2343  0.0450
 1992SOL    HW2 8021   0.923   3.954   3.457  0.0140 -1.2082  0.0148
 1992SOL    HW3 8022   0.775   3.938   3.485 -0.4032  1.1881 -0.7007
 1992SOL    MW4 8023   0.849   3.983   3.493  0.3734 -0.1752 -0.0572
 1993SOL     OW 8024   0.874   4.259   3.379 -0.2886  0.3575  0.3159
 1993SOL    HW2 8025   0.863   4.171   3.414 -0.1583  0.1606 -0.1350
 1993SOL    HW3 8026   0.896   4.246   3.286 -0.6011  0.8706  0.1657
 1993SOL    MW4 8027   0.876   4.246   3.371 -0.3126  0.3991  0.2367
 1994SOL     OW 8028   1.096   4.380   3.502 -0.5332 -0.1104  0.3736
 1994SOL    HW2 8029   1.033   4.327   3.453  1.1326 -1.3626 -0.4626
 1994SOL    HW3 8030   1.075   4.470   3.477 -0.5041 -0.6424 -1.7329
 1994SOL    MW4 8031   1.085   4.385   3.492 -0.3095 -0.3462 -0.0148
 1995SOL     OW 8032   1.537   4.647   3.377 -0.2337  0.3318  0.1006
 1995SOL    HW2 8033   1.546   4.560   3.417 -0.0973  0.8454  1.2123
 1995SOL    HW3 8034   1.466   4.688   3.425 -1.1693  0.3790 -1.2874
 1995SOL    MW4 8035   1.529   4.641   3.389 -0.3393  0.4058  0.0641
 1996SOL     OW 8036   1.342   0.153   3.484  0.8435  0.5649  0.4735
 1996SOL    HW2 8037   1.347   0.162   3.580  0.0248 -0.2716  0.6064
 1996SOL    HW3 8038   1.356   0.241   3.451  3.2080  0.5196  1.2863
 1996SOL    MW4 8039   1.344   0.166   3.493  1.0475  0.4486  0.5982
 1997SOL     OW 8040   1.342   0.400   3.353  0.4014 -0.4897 -0.1199
 1997SOL    HW2 8041   1.416   0.442   3.396 -0.2305  1.3345 -0.7606
 1997SOL    HW3 8042   1.265   0.432   3.401 -0.3738  2.1277 -2.9764
 1997SOL    MW4 8043   1.341   0.410   3.365  0.2156  0.0963 -0.5815
 1998SOL     OW 8044   1.567   0.486   3.471  0.5551 -0.3257  0.6815
 1998SOL    HW2 8045   1.572   0.499   3.566  2.1308  0.4842  0.5238
 1998SOL    HW3 8046   1.647   0.437   3.450 -0.5636 -1.8561 -0.0313
 1998SOL    MW4 8047   1.578   0.481   3.481  0.6155 -0.4208  0.5662
 1999SOL     OW 8048   1.573   0.761   3.404 -0.3890 -0.3612  0.1960
 1999SOL    HW2 8049   1.483   0.783   3.428  0.1229  0.6156  1.2636
 1999SOL    HW3 8050   1.584   0.669   3.429 -0.9322 -0.3351  0.5094
 1999SOL    MW4 8051   1.563   0.752   3.410 -0.3932 -0.2290  0.3784
 2000SOL     OW 8052   1.321   0.866   3.487  0.8007  0.0326 -0.1023
 2000SOL    HW2 8053   1.331   0.868   3.582  0.1805  0.9442 -0.0558
 2000SOL    HW3 8054   1.334   0.957   3.459  1.3869 -0.2982 -0.9363
 2000SOL    MW4 8055   1.324   0.878   3.496  0.7962  0.1092 -0.2062
 2001SOL     OW 8056   1.354   1.130   3.379 -0.3786  0.4264  0.0856
 2001SOL    HW2 8057   1.423   1.193   3.401  0.4581 -1.0460  1.7553
 2001SOL    HW3 8058   1.277   1.162   3.425 -0.1895  0.7331  0.1901
 2001SOL    MW4 8059   1.353   1.143   3.388 -0.2433  0.2726  0.3195
 2002SOL     OW 8060   1.527   1.309   3.476 -0.3388  0.3177  0.2237
 2002SOL    HW2 8061   1.519   1.291   3.570 -0.1119  0.7119  0.3194
 2002SOL    HW3 8062   1.617   1.284   3.456 -1.6699 -3.9901 -0.8158
 2002SOL    MW4 8063   1.538   1.303   3.486 -0.4843 -0.1986  0.0989
 2003SOL     OW 8064   1.606   1.576   3.399  0.0874 -0.7126 -0.0497
 2003SOL    HW2 8065   1.573   1.493   3.434  0.5260 -1.1677 -0.7234
 2003SOL    HW3 8066   1.605   1.565   3.304  0.0268  0.1000 -0.1505
 2003SOL    MW4 8067   1.601   1.564   3.391  0.1373 -0.6654 -0.1519
 2004SOL     OW 8068   1.367   1.696   3.498  0.1234  0.1944 -0.1948
 2004SOL    HW2 8069   1.380   1.663   3.587 -0.4040 -0.0494 -0.2073
 2004SOL    HW3 8070   1.434   1.652   3.446  0.8701  0.8533  0.2067
 2004SOL    MW4 8071   1.378   1.685   3.503  0.1525  0.2493 -0.1435
 2005SOL     OW 8072   1.329   1.948   3.379 -0.1872 -0.1740 -0.1327
 2005SOL    HW2 8073   1.392   2.007   3.421 -0.8912 -0.5485  1.5025
 2005SOL    HW3 8074   1.328   1.870   3.435 -1.5718 -0.4557 -0.5277
 2005SOL    MW4 8075   1.337   1.946   3.392 -0.4627 -0.2606  0.0310
 2006SOL     OW 8076   1.534   2.088   3.487 -0.0237 -0.0108  0.1731
 2006SOL    HW2 8077   1.607   2.049   3.438  0.3848  0.3155  0.5200
 2006SOL    HW3 8078   1.540   2.181   3.469 -1.3413 -0.1528 -1.1083
 2006SOL    MW4 8079   1.545   2.095   3.478 -0.1436  0.0138  0.0498
 2007SOL     OW 8080   1.571   2.376   3.410  0.0643 -0.1312  0.2967
 2007SOL    HW2 8081   1.490   2.428   3.401 -0.7953 -1.3008  1.1631
 2007SOL    HW3 8082   1.596   2.357   3.320 -1.7046 -1.3667  0.0260
 2007SOL    MW4 8083   1.563   2.381   3.397 -0.2825 -0.4487  0.3753
 2008SOL     OW 8084   1.311   2.473   3.472 -0.3135  0.1418  0.0206
 2008SOL    HW2 8085   1.309   2.456   3.566  1.4177 -0.3124 -0.0032
 2008SOL    HW3 8086   1.322   2.567   3.465 -0.7045  0.2056  0.2789
 2008SOL    MW4 8087   1.312   2.483   3.483 -0.1367  0.0904  0.0515
 2009SOL     OW 8088   1.345   2.748   3.413  0.5273 -0.0872 -0.1684
 2009SOL    HW2 8089   1.409   2.813   3.441  0.9710 -0.6342  0.1093
 2009SOL    HW3 8090   1.356   2.742   3.318  0.0544  0.6890 -0.2756
 2009SOL    MW4 8091   1.355   2.756   3.404  0.5236 -0.0570 -0.1457
 2010SOL     OW 8092   1.568   2.874   3.520  0.1137  0.1611 -0.4814
 2010SOL    HW2 8093   1.632   2.810   3.490 -0.4619 -0.5977 -0.0877
 2010SOL    HW3 8094   1.593   2.955   3.475  2.2021  0.2346  0.7335
 2010SOL    MW4 8095   1.580   2.877   3.510  0.3132  0.0703 -0.2689
 2011SOL     OW 8096   1.574   3.099   3.373  0.1045  0.0326 -0.2094
 2011SOL    HW2 8097   1.635   3.161   3.411  0.8874 -0.4382 -0.6892
 2011SOL    HW3 8098   1.491   3.117   3.418  0.8923 -0.1953  1.3800
 2011SOL    MW4 8099   1.571   3.109   3.384  0.3116 -0.0596 -0.0629
 2012SOL     OW 8100   1.354   3.220   3.507 -0.3158 -0.0270 -0.1883
 2012SOL    HW2 8101   1.333   3.222   3.601 -0.5964 -0.8259 -0.2318
 2012SOL    HW3 8102   1.284   3.167   3.468  0.9069 -1.4036 -0.5530
 2012SOL    MW4 8103   1.342   3.213   3.515 -0.1916 -0.3140 -0.2422
 2013SOL     OW 8104   1.332   3.485   3.394 -0.2835  0.0181  0.2758
 2013SOL    HW2 8105   1.333   3.392   3.417 -0.9337  0.0215  0.3335
 2013SOL    HW3 8106   1.251   3.518   3.432 -0.7852  0.2816 -1.0058
 2013SOL    MW4 8107   1.322   3.477   3.402 -0.4356  0.0534  0.1144
 2014SOL     OW 8108   1.549   3.625   3.512 -0.2074  0.0218  0.3432
 2014SOL    HW2 8109   1.545   3.623   3.608  0.0272 -1.7359  0.3407
 2014SOL    HW3 8110   1.466   3.588   3.484 -0.8840  1.8738 -0.1725
 2014SOL    MW4 8111   1.538   3.620   3.521 -0.2657  0.0346  0.2747
 2015SOL     OW 8112   1.524   3.884   3.410 -0.3710  0.1401 -0.9586
 2015SOL    HW2 8113   1.524   3.798   3.451 -0.5873  0.4281 -0.3553
 2015SOL    HW3 8114   1.518   3.866   3.316 -1.2291 -0.4787 -0.7869
 2015SOL    MW4 8115   1.523   3.870   3.403 -0.5127  0.0961 -0.8564
 2016SOL     OW 8116   1.295   4.028   3.509  0.0023 -0.0917  0.0087
 2016SOL    HW2 8117   1.302   4.109   3.458 -0.2095  0.0822  0.2613
 2016SOL    HW3 8118   1.374   3.979   3.485  0.9080  0.8465  1.0152
 2016SOL    MW4 8119   1.306   4.032   3.499  0.0938  0.0553  0.1750
 2017SOL     OW 8120   1.325   4.267   3.385  0.1871  0.2930  0.1671
 2017SOL    HW2 8121   1.242   4.310   3.408  1.2495  2.0945  0.7463
 2017SOL    HW3 8122   1.328   4.272   3.289 -1.2728 -1.5445 -0.0035
 2017SOL    MW4 8123   1.314   4.274   3.375  0.1348  0.2885  0.2208
 2018SOL     OW 8124   1.554   4.400   3.508  0.4656  0.1307 -0.4017
 2018SOL    HW2 8125   1.632   4.366   3.463  0.1347 -0.8313 -0.2583
 2018SOL    HW3 8126   1.481   4.357   3.465  0.1756 -1.2498  1.4295
 2018SOL    MW4 8127   1.555   4.390   3.496  0.3836 -0.1788 -0.1414
 2019SOL     OW 8128   2.017   4.664   3.410 -0.0952  0.2929 -0.1424
 2019SOL    HW2 8129   2.091   4.718   3.436 -0.3356  1.1778 -1.2799
 2019SOL    HW3 8130   1.940   4.719   3.426 -0.3789  0.0671 -0.7161
 2019SOL    MW4 8131   2.017   4.678   3.416 -0.1645  0.3800 -0.3681
 2020SOL     OW 8132   1.758   0.102   3.497 -0.1036 -0.1799 -0.2092
 2020SOL    HW2 8133   1.763   0.102   3.592  0.9794 -1.4780 -0.2619
 2020SOL    HW3 8134   1.679   0.053   3.477  0.0915 -0.5794 -0.0004
 2020SOL    MW4 8135   1.748   0.096   3.507  0.0651 -0.4039 -0.1886
 2021SOL     OW 8136   1.799   0.356   3.420 -0.1569  0.3209 -0.0713
 2021SOL    HW2 8137   1.793   0.262   3.439 -3.1492  0.7272  1.3166
 2021SOL    HW3 8138   1.786   0.361   3.325 -1.1996 -0.6099  0.0072
 2021SOL    MW4 8139   1.796   0.344   3.410 -0.6894  0.2517  0.1221
 2022SOL     OW 8140   2.005   0.512   3.496 -0.1606  0.0863  0.3297
 2022SOL    HW2 8141   1.989   0.598   3.459 -0.9142  0.2052  0.9125
 2022SOL    HW3 8142   1.928   0.461   3.473  0.4489 -0.5437 -0.3315
 2022SOL    MW4 8143   1.993   0.516   3.488 -0.1798  0.0189  0.3195
 2023SOL     OW 8144   1.997   0.760   3.402  0.4431  0.2120  0.3580
 2023SOL    HW2 8145   2.075   0.798   3.443  0.4527 -0.4942  1.0121
 2023SOL    HW3 8146   2.018   0.758   3.308  1.5246 -0.6297  0.6004
 2023SOL    MW4 8147   2.010   0.765   3.395  0.5870  0.0077  0.4766
 2024SOL     OW 8148   1.793   0.942   3.469 -0.1571  0.0659  0.0222
 2024SOL    HW2 8149   1.875   0.902   3.442 -0.3979 -0.2437 -0.2504
 2024SOL    HW3 8150   1.725   0.879   3.443 -0.4321  0.0099  0.8498
 2024SOL    MW4 8151   1.795   0.929   3.462 -0.2252  0.0177  0.0951
 2025SOL     OW 8152   1.770   1.215   3.414 -0.1274 -0.1600  0.4483
 2025SOL    HW2 8153   1.860   1.237   3.436  0.4893 -0.9650 -1.1731
 2025SOL    HW3 8154   1.763   1.121   3.435  0.1230 -0.6556 -1.5652
 2025SOL    MW4 8155   1.781   1.205   3.420 -0.0130 -0.3315 -0.0312
 2026SOL     OW 8156   2.016   1.291   3.481 -0.2813  0.4946  0.2717
 2026SOL    HW2 8157   2.027   1.289   3.576 -0.1035 -0.1315  0.2370
 2026SOL    HW3 8158   2.022   1.384   3.458  0.3825  0.5824  0.7904
 2026SOL    MW4 8159   2.018   1.303   3.490 -0.1705  0.4234  0.3355
 2027SOL     OW 8160   2.017   1.553   3.426 -0.5051 -0.1736  0.1483
 2027SOL    HW2 8161   2.102   1.595   3.439  0.2181 -1.8314  0.9648
 2027SOL    HW3 8162   1.953   1.615   3.459  0.5048  0.4752  0.8851
 2027SOL    MW4 8163   2.020   1.566   3.432 -0.2766 -0.3067  0.3533
 2028SOL     OW 8164   1.796   1.724   3.502  0.2371  0.7362  0.5944
 2028SOL    HW2 8165   1.808   1.809   3.460 -0.1530  0.2871 -0.4350
 2028SOL    HW3 8166   1.726   1.682   3.453  0.5907 -0.2858  0.9404
 2028SOL    MW4 8167   1.788   1.729   3.490  0.2323  0.5420  0.5045
 2029SOL     OW 8168   1.766   1.965   3.378  0.0915 -0.1495 -0.4139
 2029SOL    HW2 8169   1.834   2.009   3.429  0.2016  0.4045 -1.0331
 2029SOL    HW3 8170   1.795   1.974   3.287 -0.1141 -1.1089 -0.5812
 2029SOL    MW4 8171   1.779   1.972   3.372  0.0788 -0.2030 -0.5174
 2030SOL     OW 8172   2.002   2.072   3.486  0.0744  0.0711  0.3595
 2030SOL    HW2 8173   2.087   2.032   3.465  0.0088  0.2738 -0.2874
 2030SOL    HW3 8174   2.006   2.159   3.447 -0.6045 -0.0783 -0.0354
 2030SOL    MW4 8175   2.014   2.078   3.478 -0.0238  0.0780  0.2217
 2031SOL     OW 8176   2.032   2.322   3.403 -0.4142  0.1271 -0.5748
 2031SOL    HW2 8177   2.117   2.360   3.427  0.4396 -1.2762 -1.3421
 2031SOL    HW3 8178   2.017   2.353   3.313 -1.0094  0.8775 -0.2184
 2031SOL    MW4 8179   2.041   2.331   3.394 -0.3800  0.0408 -0.6292
 2032SOL     OW 8180   1.828   2.446   3.529  0.3645 -0.2221 -0.8246
 2032SOL    HW2 8181   1.892   2.386   3.492 -1.2050 -1.7687 -1.1091
 2032SOL    HW3 8182   1.745   2.420   3.489 -0.4450  1.7301 -0.4571
 2032SOL    MW4 8183   1.825   2.435   3.519  0.0507 -0.1686 -0.8135
 2033SOL     OW 8184   1.776   2.692   3.447 -0.0537 -0.1320 -0.6515
 2033SOL    HW2 8185   1.860   2.735   3.463 -0.4502 -0.0832  1.3595
 2033SOL    HW3 8186   1.788   2.602   3.477 -0.7631 -0.0815 -0.1938
 2033SOL    MW4 8187   1.789   2.686   3.453 -0.1996 -0.1187 -0.3257
 2034SOL     OW 8188   2.007   2.868   3.466 -0.0641 -0.2561 -0.4785
 2034SOL    HW2 8189   2.008   2.885   3.560  0.0961 -0.0144 -0.5222
 2034SOL    HW3 8190   1.992   2.955   3.427  1.6894 -0.0564 -0.7515
 2034SOL    MW4 8191   2.005   2.882   3.473  0.1879 -0.1976 -0.5200
 2035SOL     OW 8192   1.987   3.142   3.396  0.1828  0.6437  0.1602
 2035SOL    HW2 8193   2.061   3.193   3.428 -1.0065  2.3707  0.2470
 2035SOL    HW3 8194   1.910   3.194   3.420 -1.0468 -0.9522 -0.2140
 2035SOL    MW4 8195   1.986   3.156   3.404 -0.1365  0.6607  0.1223
 2036SOL     OW 8196   1.760   3.265   3.477  0.0829  0.0071 -0.3535
 2036SOL    HW2 8197   1.749   3.259   3.572  0.9223 -0.4603 -0.2865
 2036SOL    HW3 8198   1.758   3.359   3.459 -2.2399  0.0353 -0.1447
 2036SOL    MW4 8199   1.758   3.277   3.487 -0.1128 -0.0503 -0.3171
 2037SOL     OW 8200   1.789   3.541   3.409  0.5405 -0.3788  0.1408
 2037SOL    HW2 8201   1.711   3.563   3.459  0.5506 -0.2123  0.0831
 2037SOL    HW3 8202   1.763   3.551   3.318  1.2948  1.9602  0.1546
 2037SOL    MW4 8203   1.775   3.545   3.404  0.6413 -0.0484  0.1352
 2038SOL     OW 8204   2.029   3.675   3.518 -0.2685 -0.3366  0.1301
 2038SOL    HW2 8205   2.103   3.631   3.475 -1.2864 -1.0984 -0.8709
 2038SOL    HW3 8206   1.953   3.623   3.493 -1.7079  2.8594 -2.2809
 2038SOL    MW4 8207   2.029   3.662   3.509 -0.5929 -0.0157 -0.3200
 2039SOL     OW 8208   2.015   3.910   3.360 -0.5110 -0.0386  0.3372
 2039SOL    HW2 8209   1.932   3.956   3.378 -0.3873 -0.5020  2.2183
 2039SOL    HW3 8210   2.006   3.827   3.407  0.8231 -0.3012  0.1303
 2039SOL    MW4 8211   2.003   3.906   3.369 -0.3188 -0.1345  0.5579
 2040SOL     OW 8212   1.780   4.030   3.460  0.6796  0.2831  0.0540
 2040SOL    HW2 8213   1.796   4.029   3.555  1.3210  0.1111 -0.0500
 2040SOL    HW3 8214   1.700   3.980   3.448  0.0789  1.0990  0.5966
 2040SOL    MW4 8215   1.772   4.023   3.471  0.6851  0.3676  0.1118
 2041SOL     OW 8216   1.787   4.288   3.387  0.5052 -0.3735  0.2328
 2041SOL    HW2 8217   1.787   4.193   3.401  0.0880 -0.2636  1.0020
 2041SOL    HW3 8218   1.805   4.298   3.294 -0.1186 -1.2311  0.0071
 2041SOL    MW4 8219   1.789   4.277   3.377  0.3679 -0.4725  0.3047
 2042SOL     OW 8220   1.996   4.387   3.506  0.1556 -0.5026  0.1432
 2042SOL    HW2 8221   1.921   4.332   3.482  0.6044 -0.4110 -1.5714
 2042SOL    HW3 8222   1.982   4.469   3.459  1.0143 -0.2612  0.3007
 2042SOL    MW4 8223   1.984   4.390   3.496  0.3281 -0.4592 -0.0622
 2043SOL     OW 8224   2.450   0.012   3.465  0.0334 -0.5034 -0.1155
 2043SOL    HW2 8225   2.473  -0.077   3.493 -0.1656 -0.3257  0.6381
 2043SOL    HW3 8226   2.446   0.007   3.370  0.1221 -1.2808 -0.0861
 2043SOL    MW4 8227   2.452  -0.000   3.456  0.0188 -0.5827 -0.0119
 2044SOL     OW 8228   2.228   0.159   3.497  0.5039  0.1070  0.4331
 2044SOL    HW2 8229   2.242   0.249   3.467  1.8154 -0.0701  0.5111
 2044SOL    HW3 8230   2.309   0.113   3.474 -0.6197 -1.3569 -0.7189
 2044SOL    MW4 8231   2.240   0.165   3.490  0.5286 -0.1095  0.2913
 2045SOL     OW 8232   2.236   0.409   3.379 -0.2940 -0.7144  0.2349
 2045SOL    HW2 8233   2.311   0.454   3.417 -0.6173 -0.8629  1.0672
 2045SOL    HW3 8234   2.160   0.461   3.407 -0.5385 -0.8447 -0.1790
 2045SOL    MW4 8235   2.236   0.422   3.387 -0.3688 -0.7512  0.2902
 2046SOL     OW 8236   2.455   0.513   3.501  0.4859  0.1187 -0.0841
 2046SOL    HW2 8237   2.536   0.469   3.475  1.4225  1.8180 -0.1127
 2046SOL    HW3 8238   2.465   0.602   3.468 -0.7620  0.7404  1.1825
 2046SOL    MW4 8239   2.467   0.519   3.493  0.4447  0.4249  0.0792
 2047SOL     OW 8240   2.482   0.763   3.394 -0.6177  0.0586  0.6101
 2047SOL    HW2 8241   2.568   0.794   3.424 -0.1953 -0.7184  0.2228
 2047SOL    HW3 8242   2.488   0.766   3.298 -1.3232  0.8081  0.5894
 2047SOL    MW4 8243   2.494   0.767   3.385 -0.6552  0.0550  0.5560
 2048SOL     OW 8244   2.250   0.888   3.500 -0.6864  0.1049  0.0229
 2048SOL    HW2 8245   2.258   0.981   3.479 -0.1311  0.4762  1.8565
 2048SOL    HW3 8246   2.318   0.846   3.446 -0.2307  0.8744 -0.0107
 2048SOL    MW4 8247   2.260   0.895   3.490 -0.5529  0.2554  0.2604
 2049SOL     OW 8248   2.261   1.168   3.421 -0.1401 -0.0155 -0.5933
 2049SOL    HW2 8249   2.327   1.225   3.462 -0.1591 -0.8767  0.6723
 2049SOL    HW3 8250   2.178   1.215   3.433 -0.2272 -0.5266  0.9096
 2049SOL    MW4 8251   2.259   1.182   3.428 -0.1540 -0.1965 -0.2277
 2050SOL     OW 8252   2.480   1.296   3.546  0.2453 -0.2409  0.4383
 2050SOL    HW2 8253   2.485   1.268   3.637  0.7571 -0.5696  0.3106
 2050SOL    HW3 8254   2.534   1.233   3.498 -1.1999 -0.9533 -0.3010
 2050SOL    MW4 8255   2.488   1.284   3.552  0.1223 -0.3783  0.3242
 2051SOL     OW 8256   2.470   1.544   3.401  0.8697 -0.2080  0.0442
 2051SOL    HW2 8257   2.481   1.462   3.448 -1.1640 -0.3183  0.4049
 2051SOL    HW3 8258   2.477   1.519   3.308  2.3122 -0.4253  0.2051
 2051SOL    MW4 8259   2.472   1.530   3.395  0.7920 -0.2512  0.1130
 2052SOL     OW 8260   2.247   1.690   3.499  0.0993 -0.2630 -0.3139
 2052SOL    HW2 8261   2.269   1.697   3.592  2.0578 -0.4881 -0.7346
 2052SOL    HW3 8262   2.322   1.646   3.460 -1.6430 -2.0692 -1.6765
 2052SOL    MW4 8263   2.260   1.685   3.506  0.1278 -0.5311 -0.5491
 2053SOL     OW 8264   2.233   1.958   3.386 -0.2728  0.0591  0.2037
 2053SOL    HW2 8265   2.225   1.869   3.421 -1.4694  0.0014 -0.1937
 2053SOL    HW3 8266   2.235   1.946   3.291 -0.4931  0.4525  0.1482
 2053SOL    MW4 8267   2.232   1.945   3.378 -0.4597  0.1032  0.1440
 2054SOL     OW 8268   2.484   2.066   3.501  0.7571  0.3873  0.3641
 2054SOL    HW2 8269   2.481   2.034   3.591  0.6437  0.1277  0.2707
 2054SOL    HW3 8270   2.405   2.029   3.460 -0.6284  2.7168  0.8751
 2054SOL    MW4 8271   2.473   2.057   3.507  0.5593  0.6602  0.4191
 2055SOL     OW 8272   2.471   2.323   3.383 -0.0814 -0.0938  0.1787
 2055SOL    HW2 8273   2.549   2.370   3.411  0.3825 -0.8237  0.1321
 2055SOL    HW3 8274   2.468   2.246   3.440 -0.1600 -0.6294 -0.5474
 2055SOL    MW4 8275   2.481   2.319   3.394 -0.0310 -0.2608  0.0765
 2056SOL     OW 8276   2.254   2.456   3.455 -0.0720 -0.4826 -0.2261
 2056SOL    HW2 8277   2.276   2.545   3.428  0.4973 -0.6013 -0.1586
 2056SOL    HW3 8278   2.335   2.407   3.444  0.1167 -0.5838  1.4616
 2056SOL    MW4 8279   2.268   2.461   3.450  0.0279 -0.5116  0.0055
 2057SOL     OW 8280   2.250   2.736   3.409  0.1992 -0.2300 -0.3883
 2057SOL    HW2 8281   2.171   2.782   3.437 -0.4210 -1.2461 -0.4317
 2057SOL    HW3 8282   2.248   2.740   3.314  0.9704  1.0073 -0.3606
 2057SOL    MW4 8283   2.239   2.743   3.400  0.2191 -0.2007 -0.3905
 2058SOL     OW 8284   2.474   2.875   3.485 -0.1033  0.1230  0.4359
 2058SOL    HW2 8285   2.447   2.962   3.456 -0.7358 -0.1005  0.3320
 2058SOL    HW3 8286   2.397   2.820   3.468  1.0539 -0.9065 -1.5326
 2058SOL    MW4 8287   2.460   2.879   3.479 -0.0339 -0.0424  0.1624
 2059SOL     OW 8288   2.466   3.127   3.370  0.0139  0.0236  0.2695
 2059SOL    HW2 8289   2.550   3.159   3.405  0.3131 -1.4927  1.0104
 2059SOL    HW3 8290   2.481   3.119   3.276  0.5156  0.3390  0.3187
 2059SOL    MW4 8291   2.479   3.130   3.362  0.1197 -0.1347  0.3734
 2060SOL     OW 8292   2.222   3.267   3.480 -0.2951  0.2518  0.2850
 2060SOL    HW2 8293   2.224   3.246   3.573 -0.3847  0.1217  0.2571
 2060SOL    HW3 8294   2.307   3.237   3.447 -0.8839 -1.1462  0.0089
 2060SOL    MW4 8295   2.234   3.260   3.488 -0.3846  0.0503  0.2449
 2061SOL     OW 8296   2.238   3.531   3.399 -0.2618  0.1109 -0.1236
 2061SOL    HW2 8297   2.221   3.442   3.431  2.8498 -0.5282 -0.0864
 2061SOL    HW3 8298   2.227   3.524   3.304  3.3309 -1.2362 -0.5252
 2061SOL    MW4 8299   2.234   3.518   3.391  0.6230 -0.1507 -0.1717
 2062SOL     OW 8300   2.479   3.628   3.521 -0.6963  0.1997 -0.2506
 2062SOL    HW2 8301   2.490   3.711   3.474 -1.0295  0.0835 -0.5332
 2062SOL    HW3 8302   2.402   3.588   3.482  0.7487 -1.2837 -1.6780
 2062SOL    MW4 8303   2.471   3.634   3.510 -0.5496 -0.0114 -0.4766
 2063SOL     OW 8304   2.472   3.874   3.367  0.2262  0.1174  0.0844
 2063SOL    HW2 8305   2.554   3.910   3.403  0.8691 -1.2528  0.0337
 2063SOL    HW3 8306   2.404   3.909   3.424  0.7934  1.6314 -0.1264
 2063SOL    MW4 8307   2.474   3.884   3.380  0.3860  0.1364  0.0498
 2064SOL     OW 8308   2.244   4.016   3.471 -0.1219  0.1623 -0.3961
 2064SOL    HW2 8309   2.236   4.108   3.444 -0.4069  0.2065 -0.1622
 2064SOL    HW3 8310   2.170   3.973   3.430 -0.1914  0.1058 -0.2097
 2064SOL    MW4 8311   2.234   4.023   3.462 -0.1688  0.1612 -0.3407
 2065SOL     OW 8312   2.245   4.305   3.434 -0.2294  0.2728 -0.2686
 2065SOL    HW2 8313   2.156   4.312   3.469 -0.1488  0.0197 -0.0153
 2065SOL    HW3 8314   2.234   4.313   3.340 -0.4343  1.1158 -0.1858
 2065SOL    MW4 8315   2.232   4.307   3.427 -0.2458  0.3510 -0.2246
 2066SOL     OW 8316   2.513   4.428   3.520  0.2379  0.0028 -0.2987
 2066SOL    HW2 8317   2.523   4.432   3.616  0.5705  2.5308 -0.3972
 2066SOL    HW3 8318   2.433   4.378   3.507 -0.8945  1.2766  1.4076
 2066SOL    MW4 8319   2.504   4.422   3.531  0.1326  0.5040 -0.0865
 2067SOL     OW 8320   2.924   4.645   3.410 -0.2874 -0.5137 -0.5378
 2067SOL    HW2 8321   2.853   4.698   3.446  0.9705  1.9825 -1.6463
 2067SOL    HW3 8322   2.921   4.661   3.316  1.0325 -1.2772 -0.7218
 2067SOL    MW4 8323   2.914   4.654   3.403  0.0529 -0.2851 -0.7086
 2068SOL     OW 8324   2.710   0.125   3.529  0.0883  0.5075  0.2989
 2068SOL    HW2 8325   2.723   0.211   3.489  1.5632  0.2482  0.1912
 2068SOL    HW3 8326   2.621   0.099   3.503  0.3184  1.1922 -1.1855
 2068SOL    MW4 8327   2.700   0.133   3.521  0.3130  0.5637  0.0889
 2069SOL     OW 8328   2.692   0.366   3.403  0.1563  0.3586 -0.1044
 2069SOL    HW2 8329   2.773   0.409   3.430 -0.1771  0.3902  0.8549
 2069SOL    HW3 8330   2.693   0.371   3.307  2.1538 -1.2137 -0.2082
 2069SOL    MW4 8331   2.702   0.372   3.394  0.3760  0.1553  0.0086
 2070SOL     OW 8332   2.915   0.489   3.498 -0.1524 -0.0921 -0.0945
 2070SOL    HW2 8333   2.913   0.508   3.592  1.5372  0.0483 -0.0679
 2070SOL    HW3 8334   2.916   0.575   3.456  0.0144 -0.1548 -0.2167
 2070SOL    MW4 8335   2.915   0.503   3.505  0.0927 -0.0819 -0.1073
 2071SOL     OW 8336   2.928   0.760   3.393  0.3590 -0.3316  0.4576
 2071SOL    HW2 8337   3.000   0.814   3.425  0.9437 -0.4783 -0.6029
 2071SOL    HW3 8338   2.849   0.802   3.429  0.9444  0.0186  1.3409
 2071SOL    MW4 8339   2.927   0.773   3.402  0.5133 -0.3048  0.4344
 2072SOL     OW 8340   2.713   0.884   3.499  0.4349  0.0303 -0.0239
 2072SOL    HW2 8341   2.719   0.913   3.590 -0.2946  0.9153 -0.2451
 2072SOL    HW3 8342   2.712   0.965   3.448  0.2333 -0.4445 -0.7848
 2072SOL    MW4 8343   2.714   0.898   3.504  0.3119  0.0845 -0.1535
 2073SOL     OW 8344   2.664   1.132   3.382  0.5086 -0.2141  0.4713
 2073SOL    HW2 8345   2.736   1.186   3.415  0.6508 -0.3046  0.3136
 2073SOL    HW3 8346   2.681   1.124   3.288  0.1169  0.0251  0.3826
 2073SOL    MW4 8347   2.676   1.138   3.374  0.4756 -0.1945  0.4387
 2074SOL     OW 8348   2.880   1.271   3.483  0.0616  0.1806  0.2803
 2074SOL    HW2 8349   2.885   1.264   3.578  1.4022  1.8714  0.3421
 2074SOL    HW3 8350   2.956   1.223   3.451 -0.1274  0.0165  0.0756
 2074SOL    MW4 8351   2.890   1.264   3.492  0.2131  0.3823  0.2615
 2075SOL     OW 8352   2.916   1.537   3.373  0.0165  0.4359  0.0957
 2075SOL    HW2 8353   2.847   1.589   3.414 -0.5007 -0.1168 -0.0570
 2075SOL    HW3 8354   2.904   1.449   3.410  0.3689  0.2379 -0.2591
 2075SOL    MW4 8355   2.906   1.532   3.383 -0.0052  0.3368  0.0286
 2076SOL     OW 8356   2.704   1.690   3.477 -0.6162  0.2062 -0.1052
 2076SOL    HW2 8357   2.699   1.784   3.461 -0.7802  0.2213  0.0430
 2076SOL    HW3 8358   2.616   1.658   3.460 -0.6684  0.1460  0.2825
 2076SOL    MW4 8359   2.692   1.698   3.473 -0.6447  0.2003 -0.0346
 2077SOL     OW 8360   2.690   1.944   3.392  0.2119  0.5576 -0.2923
 2077SOL    HW2 8361   2.610   1.990   3.420 -0.6064 -1.0718  0.0921
 2077SOL    HW3 8362   2.687   1.948   3.297 -0.0386  0.9658 -0.2723
 2077SOL    MW4 8363   2.679   1.951   3.383  0.0708  0.3965 -0.2389
 2078SOL     OW 8364   2.920   2.065   3.474 -0.0769 -0.2389  0.5725
 2078SOL    HW2 8365   2.916   2.051   3.569  0.0099  0.2705  0.6522
 2078SOL    HW3 8366   2.847   2.015   3.439 -0.5239  0.1354  0.9746
 2078SOL    MW4 8367   2.910   2.057   3.482 -0.1245 -0.1223  0.6363
 2079SOL     OW 8368   2.895   2.329   3.393 -0.3604  0.3441 -0.2815
 2079SOL    HW2 8369   2.906   2.239   3.423  0.5048  0.5581  0.0437
 2079SOL    HW3 8370   2.894   2.323   3.297 -0.0723  0.0183 -0.2618
 2079SOL    MW4 8371   2.896   2.316   3.384 -0.2084  0.3293 -0.2360
 2080SOL     OW 8372   2.681   2.455   3.505  0.4241  0.1998 -0.4352
 2080SOL    HW2 8373   2.667   2.428   3.596  0.4851 -2.4071 -1.1701
 2080SOL    HW3 8374   2.759   2.407   3.477  0.3512  0.9089 -1.9147
 2080SOL    MW4 8375   2.690   2.445   3.513  0.4222 -0.0508 -0.7274
 2081SOL     OW 8376   2.698   2.732   3.423 -0.0125 -0.0056  0.0193
 2081SOL    HW2 8377   2.682   2.647   3.465 -1.5873  0.1784 -0.1810
 2081SOL    HW3 8378   2.617   2.780   3.435  0.6002  1.1906 -0.5717
 2081SOL    MW4 8379   2.685   2.727   3.430 -0.1392  0.1760 -0.0851
 2082SOL     OW 8380   2.925   2.853   3.534 -0.4004 -0.2709 -0.1228
 2082SOL    HW2 8381   2.927   2.841   3.629 -1.4594 -0.5329 -0.1226
 2082SOL    HW3 8382   2.841   2.816   3.507 -0.2392  0.0719 -1.1277
 2082SOL    MW4 8383   2.914   2.847   3.543 -0.5188 -0.2601 -0.2553
 2083SOL     OW 8384   2.928   3.130   3.420  0.3255  0.6849 -0.1352
 2083SOL    HW2 8385   2.923   3.038   3.446 -0.7735  0.6908 -0.3009
 2083SOL    HW3 8386   2.931   3.128   3.324 -3.2583  0.9226 -0.3136
 2083SOL    MW4 8387   2.928   3.117   3.411 -0.2925  0.7169 -0.1807
 2084SOL     OW 8388   2.678   3.240   3.492  0.0009  0.2651  0.1835
 2084SOL    HW2 8389   2.655   3.223   3.584 -1.7979  0.7629 -0.1473
 2084SOL    HW3 8390   2.766   3.204   3.482  0.0783 -0.1045  2.0174
 2084SOL    MW4 8391   2.686   3.233   3.503 -0.2263  0.2820  0.3817
 2085SOL     OW 8392   2.679   3.510   3.367  0.6132  0.0673  0.4705
 2085SOL    HW2 8393   2.680   3.427   3.415  0.1791 -0.0312  0.3144
 2085SOL    HW3 8394   2.600   3.554   3.399  0.4503  0.1033  0.0164
 2085SOL    MW4 8395   2.669   3.505   3.378  0.5345  0.0589  0.3903
 2086SOL     OW 8396   2.897   3.596   3.509 -0.0017  0.1995  0.3876
 2086SOL    HW2 8397   2.914   3.683   3.471  0.3009 -1.0333 -2.4329
 2086SOL    HW3 8398   2.836   3.555   3.448  0.0542 -1.6761  1.5592
 2086SOL    MW4 8399   2.891   3.602   3.496  0.0455 -0.2108  0.1700
 2087SOL     OW 8400   2.960   3.833   3.406 -0.2945  0.4474  0.3989
 2087SOL    HW2 8401   3.038   3.872   3.445 -0.2226 -0.2585  0.9860
 2087SOL    HW3 8402   2.888   3.892   3.429  0.2204  1.6973 -1.0993
 2087SOL    MW4 8403   2.961   3.846   3.414 -0.2170  0.5193  0.2787
 2088SOL     OW 8404   2.729   3.976   3.452 -0.4061  0.0778 -0.4185
 2088SOL    HW2 8405   2.716   3.984   3.547 -0.1108 -0.0276 -0.3700
 2088SOL    HW3 8406   2.748   4.065   3.423  0.2899 -0.0214 -0.2632
 2088SOL    MW4 8407   2.729   3.989   3.461 -0.2756  0.0510 -0.3917
 2089SOL     OW 8408   2.725   4.257   3.393  0.2833  0.2576  0.0553
 2089SOL    HW2 8409   2.806   4.291   3.431 -0.7444  1.7012  0.9858
 2089SOL    HW3 8410   2.655   4.302   3.440 -1.1203 -2.3928  0.5974
 2089SOL    MW4 8411   2.727   4.268   3.404 -0.0372  0.0978  0.2496
 2090SOL     OW 8412   2.960   4.378   3.485  0.6734  0.3991 -0.0987
 2090SOL    HW2 8413   2.975   4.398   3.577  1.2132  1.7560 -0.4647
 2090SOL    HW3 8414   2.948   4.464   3.443 -1.1841 -0.2819 -1.0244
 2090SOL    MW4 8415   2.961   4.392   3.491  0.4995  0.4883 -0.2692
 2091SOL     OW 8416   3.404   4.593   3.360  0.8329  0.0200  0.1777
 2091SOL    HW2 8417   3.327   4.633   3.399 -1.1024 -2.7069 -0.6823
 2091SOL    HW3 8418   3.394   4.608   3.266  0.9584 -0.9973 -0.0020
 2091SOL    MW4 8419   3.392   4.600   3.353  0.5941 -0.4740  0.0405
 2092SOL     OW 8420   3.181   0.084   3.481  0.1253 -0.4096 -0.0893
 2092SOL    HW2 8421   3.164   0.175   3.456 -0.7881 -0.3589  0.6818
 2092SOL    HW3 8422   3.097   0.040   3.470  0.8025 -1.4007 -1.4253
 2092SOL    MW4 8423   3.168   0.091   3.477  0.0944 -0.5336 -0.1638
 2093SOL     OW 8424   3.142   0.353   3.405 -0.3253  0.7298 -0.1280
 2093SOL    HW2 8425   3.059   0.391   3.434 -0.4432 -0.2945  0.9208
 2093SOL    HW3 8426   3.140   0.361   3.309 -0.8354  2.3076  0.0112
 2093SOL    MW4 8427   3.131   0.359   3.396 -0.4079  0.8028  0.0286
 2094SOL     OW 8428   3.381   0.484   3.446 -0.0837 -0.1786 -0.1539
 2094SOL    HW2 8429   3.380   0.489   3.541 -0.0485  1.5074 -0.2159
 2094SOL    HW3 8430   3.295   0.449   3.422 -0.5708  0.5923  0.4487
 2094SOL    MW4 8431   3.370   0.480   3.455 -0.1431  0.1456 -0.0823
 2095SOL     OW 8432   3.364   0.759   3.431  0.0000 -0.0141 -0.2036
 2095SOL    HW2 8433   3.451   0.789   3.455  0.1196 -0.4099 -0.1344
 2095SOL    HW3 8434   3.365   0.665   3.449 -0.8062  0.1773  0.8792
 2095SOL    MW4 8435   3.376   0.751   3.437 -0.0906 -0.0411 -0.0515
 2096SOL     OW 8436   3.140   0.893   3.513 -0.8581 -0.4396  0.1154
 2096SOL    HW2 8437   3.152   0.986   3.492 -1.3122 -0.3353  0.3243
 2096SOL    HW3 8438   3.220   0.851   3.480 -1.5939 -0.2953 -1.9209
 2096SOL    MW4 8439   3.152   0.900   3.506 -1.0152 -0.4067 -0.1259
 2097SOL     OW 8440   3.131   1.162   3.397  0.2557 -0.1870 -0.1151
 2097SOL    HW2 8441   3.209   1.204   3.434 -0.4531  0.4080  0.7349
 2097SOL    HW3 8442   3.150   1.154   3.304  1.1958  0.2721  0.0267
 2097SOL    MW4 8443   3.143   1.167   3.390  0.2861 -0.0479  0.0157
 2098SOL     OW 8444   3.369   1.268   3.500 -0.1523  0.1301 -0.0998
 2098SOL    HW2 8445   3.446   1.229   3.459 -0.0192 -0.3450  0.5886
 2098SOL    HW3 8446   3.360   1.354   3.458  1.1164  0.4460  0.2599
 2098SOL    MW4 8447   3.378   1.274   3.489  0.0324  0.1092  0.0386
 2099SOL     OW 8448   3.339   1.525   3.343 -0.8496  0.0239 -0.0694
 2099SOL    HW2 8449   3.415   1.569   3.382 -0.8241 -0.9275  0.9869
 2099SOL    HW3 8450   3.264   1.567   3.384 -0.8408 -0.4826  0.4662
 2099SOL    MW4 8451   3.339   1.536   3.354 -0.8450 -0.1684  0.1407
 2100SOL     OW 8452   3.151   1.665   3.468 -0.4272  0.9221  0.3057
 2100SOL    HW2 8453   3.127   1.753   3.438 -0.5699  1.2213  1.2806
 2100SOL    HW3 8454   3.081   1.608   3.434 -1.1606  1.4142  0.9696
 2100SOL    MW4 8455   3.139   1.669   3.459 -0.5429  1.0265  0.5217
 2101SOL     OW 8456   3.146   1.930   3.390  0.0106  0.1509 -0.0521
 2101SOL    HW2 8457   3.089   2.002   3.416 -1.7983 -1.0570 -0.5878
 2101SOL    HW3 8458   3.149   1.935   3.294  2.7944  1.6674  0.0509
 2101SOL    MW4 8459   3.139   1.940   3.381  0.1392  0.1917 -0.1090
 2102SOL     OW 8460   3.379   2.061   3.485 -0.3576  0.0060 -0.1927
 2102SOL    HW2 8461   3.367   2.147   3.447  0.4504 -0.3299 -1.2289
 2102SOL    HW3 8462   3.301   2.011   3.457 -1.0479  0.5199  0.7852
 2102SOL    MW4 8463   3.367   2.066   3.476 -0.3419  0.0298 -0.2003
 2103SOL     OW 8464   3.348   2.320   3.395 -0.0615  0.0281  0.1256
 2103SOL    HW2 8465   3.428   2.366   3.417  0.5203  0.3238 -2.4268
 2103SOL    HW3 8466   3.278   2.380   3.422  0.5444 -0.1462  2.1701
 2103SOL    MW4 8467   3.349   2.334   3.401  0.0951  0.0443  0.0587
 2104SOL     OW 8468   3.119   2.467   3.510  0.2958 -0.2108 -0.2401
 2104SOL    HW2 8469   3.126   2.547   3.458  1.4014 -1.4243 -2.0006
 2104SOL    HW3 8470   3.037   2.426   3.480 -0.0570  0.0590  0.3588
 2104SOL    MW4 8471   3.109   2.472   3.499  0.3951 -0.3355 -0.3934
 2105SOL     OW 8472   3.122   2.721   3.377 -0.3051 -0.3565  0.5852
 2105SOL    HW2 8473   3.201   2.745   3.425 -0.0982 -2.4275  1.3129
 2105SOL    HW3 8474   3.050   2.752   3.432 -0.0336 -0.6715  1.1198
 2105SOL    MW4 8475   3.123   2.728   3.390 -0.2415 -0.6714  0.7517
 2106SOL     OW 8476   3.360   2.839   3.464  0.2629  0.1987  0.0373
 2106SOL    HW2 8477   3.439   2.801   3.425  1.4879  0.9161  1.7711
 2106SOL    HW3 8478   3.367   2.933   3.443 -0.5904  0.1234 -0.5842
 2106SOL    MW4 8479   3.372   2.847   3.456  0.3121  0.2835  0.1838
 2107SOL     OW 8480   3.348   3.113   3.412 -0.4872  0.1435  0.3710
 2107SOL    HW2 8481   3.426   3.138   3.462  0.8335  0.0186 -1.5925
 2107SOL    HW3 8482   3.275   3.149   3.463  0.9253  1.3945  1.5701
 2107SOL    MW4 8483   3.348   3.121   3.425 -0.1266  0.2918  0.2704
 2108SOL     OW 8484   3.149   3.254   3.550 -0.1937  0.0915 -0.2043
 2108SOL    HW2 8485   3.139   3.328   3.490 -3.2600 -0.4832 -0.4511
 2108SOL    HW3 8486   3.080   3.193   3.525  0.1487 -1.3474  2.2234
 2108SOL    MW4 8487   3.139   3.256   3.539 -0.5529 -0.1743  0.0834
 2109SOL     OW 8488   3.123   3.492   3.393 -0.1679 -0.0232 -0.3502
 2109SOL    HW2 8489   3.053   3.538   3.440 -0.4165 -0.2320 -0.5149
 2109SOL    HW3 8490   3.099   3.500   3.301  0.6746  0.9719 -0.4936
 2109SOL    MW4 8491   3.111   3.499   3.387 -0.0899  0.0803 -0.3908
 2110SOL     OW 8492   3.364   3.595   3.500 -0.2589 -0.0071 -0.3523
 2110SOL    HW2 8493   3.371   3.685   3.469  0.2313  0.0622 -0.0588
 2110SOL    HW3 8494   3.287   3.559   3.455  0.8149 -0.1222 -2.1823
 2110SOL    MW4 8495   3.355   3.602   3.490 -0.0527 -0.0131 -0.5546
 2111SOL     OW 8496   3.386   3.863   3.415  0.5671 -0.4189 -0.2437
 2111SOL    HW2 8497   3.459   3.912   3.453  0.1941 -0.1038  0.0596
 2111SOL    HW3 8498   3.309   3.893   3.462  0.1756 -0.4449 -0.8569
 2111SOL    MW4 8499   3.386   3.873   3.426  0.4663 -0.3808 -0.2847
 2112SOL     OW 8500   3.170   3.951   3.559  0.6520 -0.1186  0.4244
 2112SOL    HW2 8501   3.162   3.956   3.654 -2.2011  0.3643  0.1853
 2112SOL    HW3 8502   3.165   4.042   3.529  0.7523 -0.3327 -0.2499
 2112SOL    MW4 8503   3.169   3.963   3.568  0.2885 -0.0832  0.3035
 2113SOL     OW 8504   3.178   4.196   3.415 -0.2157 -0.2620 -0.1927
 2113SOL    HW2 8505   3.259   4.230   3.453  0.1699 -0.5108 -0.7872
 2113SOL    HW3 8506   3.116   4.269   3.420  0.0562 -0.0579  0.2202
 2113SOL    MW4 8507   3.180   4.210   3.421 -0.1290 -0.2685 -0.2167
 2114SOL     OW 8508   3.404   4.353   3.511 -0.3278 -0.2531 -0.6322
 2114SOL    HW2 8509   3.383   4.377   3.601  0.0057 -1.7544 -0.1482
 2114SOL    HW3 8510   3.409   4.437   3.465 -1.1893  0.4859  0.5820
 2114SOL    MW4 8511   3.402   4.367   3.517 -0.3977 -0.3543 -0.4079
 2115SOL     OW 8512   3.819   4.585   3.396  0.2457  0.3047 -0.1557
 2115SOL    HW2 8513   3.759   4.645   3.438 -1.3595 -0.8574 -0.7544
 2115SOL    HW3 8514   3.805   4.597   3.302  1.3729  0.4424 -0.3203
 2115SOL    MW4 8515   3.810   4.594   3.389  0.1824  0.1698 -0.2563
 2116SOL     OW 8516   3.599   0.076   3.470  0.1397 -0.1159  0.5607
 2116SOL    HW2 8517   3.587   0.166   3.439 -0.2698 -0.7264 -1.0891
 2116SOL    HW3 8518   3.524   0.028   3.434  1.4441 -1.5437 -0.3131
 2116SOL    MW4 8519   3.588   0.082   3.461  0.2577 -0.3848  0.2277
 2117SOL     OW 8520   3.600   0.345   3.402  0.3884 -0.2712 -0.2655
 2117SOL    HW2 8521   3.673   0.400   3.430  0.4829  0.0337 -1.1099
 2117SOL    HW3 8522   3.522   0.395   3.425  0.4778  0.3170 -1.2271
 2117SOL    MW4 8523   3.599   0.359   3.409  0.4127 -0.1534 -0.5038
 2118SOL     OW 8524   3.802   0.496   3.478 -0.0651  0.0914 -0.2157
 2118SOL    HW2 8525   3.812   0.482   3.572 -1.1753 -0.3340 -0.1515
 2118SOL    HW3 8526   3.878   0.453   3.439  0.5933  0.5910  0.5084
 2118SOL    MW4 8527   3.813   0.488   3.485 -0.1247  0.1012 -0.1118
 2119SOL     OW 8528   3.843   0.762   3.377 -0.0522  0.3211  0.1528
 2119SOL    HW2 8529   3.907   0.795   3.440 -1.5968  0.6972  1.5486
 2119SOL    HW3 8530   3.826   0.672   3.404  0.5621 -0.0900 -0.7835
 2119SOL    MW4 8531   3.849   0.755   3.389 -0.1750  0.3165  0.2134
 2120SOL     OW 8532   3.616   0.878   3.484  0.3593 -0.2540 -0.7718
 2120SOL    HW2 8533   3.635   0.890   3.577  0.4178  0.7493 -0.8994
 2120SOL    HW3 8534   3.700   0.853   3.446  0.9006  1.7533 -0.9405
 2120SOL    MW4 8535   3.630   0.876   3.491  0.4385  0.1432 -0.8106
 2121SOL     OW 8536   3.588   1.142   3.388  0.0653  0.3877  0.1251
 2121SOL    HW2 8537   3.587   1.049   3.410  0.5511  0.1175 -0.9718
 2121SOL    HW3 8538   3.585   1.144   3.292 -0.4781  1.5117  0.1549
 2121SOL    MW4 8539   3.587   1.130   3.378  0.0577  0.5003 -0.0155
 2122SOL     OW 8540   3.804   1.297   3.452 -0.6137  0.1980  0.1607
 2122SOL    HW2 8541   3.806   1.289   3.548 -1.5065  0.1107  0.1763
 2122SOL    HW3 8542   3.731   1.242   3.425  0.0771 -0.3383 -0.6386
 2122SOL    MW4 8543   3.795   1.288   3.461 -0.6406  0.1158  0.0577
 2123SOL     OW 8544   3.807   1.568   3.383 -0.0669 -0.2353 -0.0106
 2123SOL    HW2 8545   3.889   1.595   3.425 -0.5780 -0.3275  1.0604
 2123SOL    HW3 8546   3.802   1.474   3.397 -0.1282 -0.3067 -0.4949
 2123SOL    MW4 8547   3.818   1.559   3.390 -0.1423 -0.2568  0.0668
 2124SOL     OW 8548   3.560   1.634   3.474  0.1168 -0.4627  0.2090
 2124SOL    HW2 8549   3.555   1.723   3.437 -0.0465 -0.2734  0.6811
 2124SOL    HW3 8550   3.644   1.601   3.445  1.1087  0.6296  1.7496
 2124SOL    MW4 8551   3.570   1.642   3.465  0.2260 -0.2936  0.4745
 2125SOL     OW 8552   3.555   1.882   3.352  0.0716 -0.2331  0.2130
 2125SOL    HW2 8553   3.647   1.900   3.371  0.0197 -0.2460  0.4807
 2125SOL    HW3 8554   3.507   1.954   3.394 -0.0577 -0.3731  0.3092
 2125SOL    MW4 8555   3.561   1.894   3.360  0.0479 -0.2532  0.2608
 2126SOL     OW 8556   3.799   1.977   3.470  0.3147  0.1484 -0.0442
 2126SOL    HW2 8557   3.784   1.986   3.564 -1.1359 -2.2394  0.0018
 2126SOL    HW3 8558   3.891   1.949   3.463 -0.0392 -1.2882  0.7958
 2126SOL    MW4 8559   3.809   1.974   3.481  0.0768 -0.3562  0.0727
 2127SOL     OW 8560   3.767   2.245   3.371 -0.1141  0.2107  0.1395
 2127SOL    HW2 8561   3.839   2.303   3.395 -0.5767  0.5572  0.7128
 2127SOL    HW3 8562   3.788   2.162   3.415 -0.2861  0.4435  0.6611
 2127SOL    MW4 8563   3.779   2.242   3.380 -0.1979  0.2873  0.2837
 2128SOL     OW 8564   3.588   2.443   3.463 -0.0799  0.1871  0.3204
 2128SOL    HW2 8565   3.616   2.532   3.440  1.2409 -0.1601  0.5507
 2128SOL    HW3 8566   3.653   2.386   3.422 -1.1222 -0.6988 -0.1304
 2128SOL    MW4 8567   3.601   2.447   3.455 -0.0432  0.0246  0.2913
 2129SOL     OW 8568   3.628   2.709   3.375  0.0170  0.4513 -0.6037
 2129SOL    HW2 8569   3.707   2.754   3.406 -0.5957  0.6512  0.7053
 2129SOL    HW3 8570   3.638   2.707   3.280  1.9169 -0.1164 -0.4249
 2129SOL    MW4 8571   3.640   2.715   3.367  0.1869  0.4029 -0.4075
 2130SOL     OW 8572   3.861   2.818   3.463  0.0643  0.2083 -0.5261
 2130SOL    HW2 8573   3.848   2.814   3.558  2.3013  0.8400 -0.1705
 2130SOL    HW3 8574   3.850   2.910   3.441 -1.2445 -0.0573 -1.0105
 2130SOL    MW4 8575   3.858   2.830   3.472  0.1869  0.2565 -0.5431
 2131SOL     OW 8576   3.841   3.080   3.426  0.1570  0.1160  0.2516
 2131SOL    HW2 8577   3.921   3.121   3.460  0.5995  0.1257 -0.7554
 2131SOL    HW3 8578   3.857   3.073   3.332 -0.4363 -1.2183  0.2399
 2131SOL    MW4 8579   3.854   3.084   3.418  0.1371 -0.0584  0.1171
 2132SOL     OW 8580   3.602   3.207   3.508  0.2589  0.0085 -0.5704
 2132SOL    HW2 8581   3.594   3.297   3.475  0.4911  0.1127 -0.3465
 2132SOL    HW3 8582   3.689   3.179   3.479  1.0388  0.5899  1.1405
 2132SOL    MW4 8583   3.613   3.215   3.500  0.3924  0.0992 -0.3152
 2133SOL     OW 8584   3.610   3.448   3.408 -0.2481 -0.2506  0.1065
 2133SOL    HW2 8585   3.530   3.489   3.442 -0.3167  0.2191 -0.6064
 2133SOL    HW3 8586   3.609   3.468   3.315  1.5923  1.2278  0.3772
 2133SOL    MW4 8587   3.599   3.456   3.400 -0.0145  0.0064  0.0479
 2134SOL     OW 8588   3.842   3.582   3.506  0.3109 -0.6035 -0.3545
 2134SOL    HW2 8589   3.852   3.577   3.601  0.2016 -0.8396 -0.3556
 2134SOL    HW3 8590   3.765   3.528   3.486 -0.1637  0.1192 -0.4910
 2134SOL    MW4 8591   3.833   3.574   3.516  0.2341 -0.5391 -0.3724
 2135SOL     OW 8592   3.815   3.834   3.384 -0.4557 -0.2020 -0.1356
 2135SOL    HW2 8593   3.763   3.879   3.451 -1.6916  0.3260 -1.4284
 2135SOL    HW3 8594   3.820   3.743   3.415  0.2650  0.3454  1.4190
 2135SOL    MW4 8595   3.808   3.828   3.397 -0.5236 -0.0601 -0.1011
 2136SOL     OW 8596   3.625   3.969   3.540  0.3186 -0.1581 -0.1159
 2136SOL    HW2 8597   3.624   3.975   3.635 -0.0099  0.4932 -0.1584
 2136SOL    HW3 8598   3.621   4.060   3.510 -0.2323 -0.3880 -0.7561
 2136SOL    MW4 8599   3.625   3.982   3.548  0.2027 -0.1025 -0.2060
 2137SOL     OW 8600   3.623   4.218   3.437  0.4868  0.3458  0.6390
 2137SOL    HW2 8601   3.544   4.268   3.460 -0.3752 -0.7789  0.1930
 2137SOL    HW3 8602   3.632   4.231   3.343 -0.0850 -0.7911  0.4139
 2137SOL    MW4 8603   3.614   4.226   3.427  0.2975  0.0477  0.5505
 2138SOL     OW 8604   3.862   4.348   3.512  0.5572  0.0846  0.1073
 2138SOL    HW2 8605   3.782   4.297   3.499  1.1090 -0.4895 -1.0586
 2138SOL    HW3 8606   3.850   4.426   3.458  0.2317  0.6256  0.9488
 2138SOL    MW4 8607   3.850   4.352   3.503  0.5872  0.0806  0.0646
 2139SOL     OW 8608   4.290   4.619   3.368  0.0235  0.3433  0.2884
 2139SOL    HW2 8609   4.288   4.537   3.418 -1.2151  0.1226 -0.1145
 2139SOL    HW3 8610   4.361   4.669   3.408  0.0072 -0.4365  1.3211
 2139SOL    MW4 8611   4.299   4.614   3.380 -0.1426  0.2108  0.3715
 2140SOL     OW 8612   4.063   0.055   3.488  0.3135 -0.0438 -0.1177
 2140SOL    HW2 8613   4.139   0.008   3.453  0.8872  0.5894  0.2665
 2140SOL    HW3 8614   3.990  -0.006   3.477  0.7276 -0.3561 -1.2297
 2140SOL    MW4 8615   4.064   0.041   3.482  0.4439 -0.0015 -0.2134
 2141SOL     OW 8616   4.038   0.342   3.422 -0.0613 -0.3838  0.3106
 2141SOL    HW2 8617   4.034   0.248   3.440 -1.0930 -0.3792  0.1592
 2141SOL    HW3 8618   4.035   0.348   3.326  1.2771 -0.2415  0.2677
 2141SOL    MW4 8619   4.037   0.330   3.412 -0.0210 -0.3645  0.2851
 2142SOL     OW 8620   4.279   0.473   3.506 -0.9465 -0.0255 -0.3212
 2142SOL    HW2 8621   4.274   0.560   3.466 -2.2247  0.2952  0.5399
 2142SOL    HW3 8622   4.194   0.433   3.487 -1.2934 -0.1465  1.4377
 2142SOL    MW4 8623   4.267   0.479   3.498 -1.1611  0.0008  0.0246
 2143SOL     OW 8624   4.227   0.745   3.417 -0.1174  0.1116  0.3216
 2143SOL    HW2 8625   4.312   0.783   3.440  0.0942  0.6019 -1.2144
 2143SOL    HW3 8626   4.221   0.757   3.323 -1.2952 -1.1685  0.2282
 2143SOL    MW4 8627   4.238   0.751   3.408 -0.2451  0.0073  0.1068
 2144SOL     OW 8628   4.032   0.888   3.533 -0.3501  0.6110 -0.3951
 2144SOL    HW2 8629   4.032   0.964   3.476  1.2139  1.0651  0.1748
 2144SOL    HW3 8630   4.106   0.835   3.503  0.7347  1.0347  1.4051
 2144SOL    MW4 8631   4.042   0.891   3.522 -0.0010  0.7268 -0.0825
 2145SOL     OW 8632   4.021   1.116   3.366  0.1888  0.1827 -0.3630
 2145SOL    HW2 8633   4.105   1.146   3.399  0.5640 -0.7314 -0.4542
 2145SOL    HW3 8634   3.961   1.188   3.384  0.9489  0.7747 -0.1360
 2145SOL    MW4 8635   4.024   1.129   3.372  0.3386  0.1403 -0.3452
 2146SOL     OW 8636   4.267   1.214   3.481 -0.4280 -0.5628  0.0922
 2146SOL    HW2 8637   4.276   1.306   3.458 -0.7892  0.0143  2.1742
 2146SOL    HW3 8638   4.340   1.171   3.436  1.2234  1.1093  1.1316
 2146SOL    MW4 8639   4.278   1.220   3.472 -0.2575 -0.2661  0.5038
 2147SOL     OW 8640   4.280   1.488   3.392  0.3563 -0.0137  0.7013
 2147SOL    HW2 8641   4.197   1.511   3.433  0.1231  0.5384 -0.0593
 2147SOL    HW3 8642   4.264   1.500   3.298  1.4891  0.7014  0.6009
 2147SOL    MW4 8643   4.267   1.492   3.385  0.4749  0.1535  0.5879
 2148SOL     OW 8644   4.045   1.608   3.508 -0.2150 -0.3678  0.0831
 2148SOL    HW2 8645   4.041   1.610   3.604  0.6654 -1.1735  0.1483
 2148SOL    HW3 8646   4.065   1.698   3.483  0.2064 -0.2856  0.6969
 2148SOL    MW4 8647   4.047   1.620   3.517 -0.0439 -0.4634  0.1724
 2149SOL     OW 8648   4.046   1.866   3.425  0.0779  0.1705  0.6010
 2149SOL    HW2 8649   4.122   1.917   3.451 -1.2483  2.1269  0.7625
 2149SOL    HW3 8650   4.039   1.878   3.330 -0.5088  0.7068  0.7042
 2149SOL    MW4 8651   4.055   1.874   3.416 -0.1745  0.4995  0.6359
 2150SOL     OW 8652   4.264   2.040   3.468 -0.0400 -0.1426  0.9419
 2150SOL    HW2 8653   4.248   2.133   3.448 -0.3810 -0.4313 -0.1570
 2150SOL    HW3 8654   4.350   2.022   3.430  0.6579  0.0821  2.3918
 2150SOL    MW4 8655   4.273   2.050   3.460  0.0067 -0.1507  0.9880
 2151SOL     OW 8656   4.251   2.316   3.413  0.2193  0.3300  0.2517
 2151SOL    HW2 8657   4.167   2.348   3.445 -0.4417 -1.9056  0.8413
 2151SOL    HW3 8658   4.246   2.326   3.318 -1.6210 -1.8562  0.0848
 2151SOL    MW4 8659   4.239   2.322   3.405 -0.1111 -0.2532  0.3076
 2152SOL     OW 8660   3.990   2.391   3.489 -0.2908  0.5571  0.1385
 2152SOL    HW2 8661   3.998   2.399   3.584  2.4259  0.6669 -0.0695
 2152SOL    HW3 8662   4.016   2.476   3.455  1.0584 -0.2138 -0.8031
 2152SOL    MW4 8663   3.994   2.403   3.497  0.2460  0.4699 -0.0134
 2153SOL     OW 8664   4.074   2.642   3.383 -0.0955  0.0801 -0.2865
 2153SOL    HW2 8665   4.145   2.697   3.417  0.0038  0.7824 -1.6047
 2153SOL    HW3 8666   3.994   2.686   3.410 -0.1034 -1.3190  2.2199
 2153SOL    MW4 8667   4.073   2.655   3.391 -0.0830 -0.0122 -0.1297
 2154SOL     OW 8668   4.246   2.832   3.475  0.0330 -0.0985  0.3971
 2154SOL    HW2 8669   4.245   2.837   3.571 -0.4647 -1.8521  0.5083
 2154SOL    HW3 8670   4.322   2.778   3.455  0.2195  0.3818 -0.2118
 2154SOL    MW4 8671   4.256   2.825   3.485 -0.0076 -0.2663  0.3316
 2155SOL     OW 8672   4.251   3.093   3.377 -0.1912  0.1272 -0.4499
 2155SOL    HW2 8673   4.252   3.005   3.415  1.3732  0.8684  1.3118
 2155SOL    HW3 8674   4.288   3.083   3.290 -0.8652 -1.0869 -0.6047
 2155SOL    MW4 8675   4.256   3.080   3.371 -0.0744  0.0648 -0.2382
 2156SOL     OW 8676   4.066   3.238   3.514 -0.0571  0.1290 -0.1929
 2156SOL    HW2 8677   4.079   3.327   3.481 -0.0697  0.2950  0.2612
 2156SOL    HW3 8678   4.132   3.186   3.467 -1.1163  0.0893 -1.6579
 2156SOL    MW4 8679   4.077   3.243   3.503 -0.1984  0.1454 -0.3259
 2157SOL     OW 8680   4.087   3.507   3.404  0.0545  0.2935 -0.5391
 2157SOL    HW2 8681   4.164   3.543   3.448  0.2722  0.7278 -1.2721
 2157SOL    HW3 8682   4.014   3.558   3.438  0.3291  1.2359 -1.3655
 2157SOL    MW4 8683   4.088   3.518   3.414  0.1192  0.4749 -0.7451
 2158SOL     OW 8684   4.312   3.589   3.510 -0.3082 -0.4289 -0.1476
 2158SOL    HW2 8685   4.313   3.617   3.602  0.0547  0.7023 -0.4944
 2158SOL    HW3 8686   4.324   3.670   3.460 -0.9515 -0.9762 -1.2088
 2158SOL    MW4 8687   4.314   3.604   3.516 -0.3452 -0.3519 -0.3333
 2159SOL     OW 8688   4.271   3.841   3.374  0.2160 -0.0102  0.0268
 2159SOL    HW2 8689   4.344   3.901   3.391 -0.1978  0.8440 -1.1455
 2159SOL    HW3 8690   4.262   3.842   3.279 -0.9494 -0.5751  0.1290
 2159SOL    MW4 8691   4.280   3.849   3.364  0.0072  0.0279 -0.1144
 2160SOL     OW 8692   4.055   3.956   3.499  0.3193  0.0336 -0.4006
 2160SOL    HW2 8693   4.131   3.914   3.460  1.5045  1.7961 -0.0006
 2160SOL    HW3 8694   3.980   3.916   3.454  1.5086 -0.8402 -1.6319
 2160SOL    MW4 8695   4.055   3.945   3.488  0.6323  0.1507 -0.5100
 2161SOL     OW 8696   4.071   4.205   3.407  0.4817 -0.1685 -0.3396
 2161SOL    HW2 8697   4.062   4.121   3.452 -0.2266  0.3486  0.4987
 2161SOL    HW3 8698   3.996   4.257   3.437  2.0723  1.5262  0.8604
 2161SOL    MW4 8699   4.060   4.201   3.417  0.5980  0.1235 -0.0708
 2162SOL     OW 8700   4.256   4.382   3.493 -0.1450 -0.1990 -0.0493
 2162SOL    HW2 8701   4.254   4.394   3.588 -1.3891  0.7103 -0.1761
 2162SOL    HW3 8702   4.182   4.324   3.474 -0.8355  0.8168 -0.5916
 2162SOL    MW4 8703   4.246   4.376   3.503 -0.4001  0.0553 -0.1376
 2163SOL     OW 8704   0.283   4.637   3.853 -0.0908  0.2488  0.0605
 2163SOL    HW2 8705   0.263   4.625   3.946  2.1642  2.5191  0.9085
 2163SOL    HW3 8706   0.200   4.661   3.813 -0.7572  0.9306  1.8261
 2163SOL    MW4 8707   0.269   4.639   3.860  0.1188  0.6380  0.4053
 2164SOL     OW 8708   0.026   0.048   3.772 -0.3485 -0.2342  0.3271
 2164SOL    HW2 8709   0.011   0.138   3.801 -0.7343 -0.4188  0.6848
 2164SOL    HW3 8710   0.026   0.054   3.676 -0.6766  0.0966  0.3465
 2164SOL    MW4 8711   0.024   0.061   3.763 -0.4427 -0.2149  0.3769
 2165SOL     OW 8712   0.038   0.294   3.909 -0.0604 -0.1524 -0.5343
 2165SOL    HW2 8713  -0.039   0.332   3.867 -0.4425 -0.8672 -0.4961
 2165SOL    HW3 8714   0.112   0.339   3.869 -0.4881  0.3427 -0.7753
 2165SOL    MW4 8715   0.037   0.305   3.898 -0.1672 -0.1814 -0.5612
 2166SOL     OW 8716   0.231   0.444   3.765 -0.1311  0.0042  0.0380
 2166SOL    HW2 8717   0.220   0.537   3.785  2.3537  0.6690 -1.4771
 2166SOL    HW3 8718   0.224   0.439   3.670  0.2497 -1.2815  0.0643
 2166SOL    MW4 8719   0.229   0.456   3.755  0.2470 -0.0777 -0.1585
 2167SOL     OW 8720   0.255   0.712   3.825 -0.2995 -0.4248  0.0132
 2167SOL    HW2 8721   0.287   0.719   3.915 -0.1433 -0.0405 -0.0726
 2167SOL    HW3 8722   0.178   0.770   3.822  0.3983  0.4925 -0.4213
 2167SOL    MW4 8723   0.249   0.721   3.836 -0.1868 -0.2531 -0.0553
 2168SOL     OW 8724   0.036   0.869   3.783 -0.5642 -0.1552 -0.7608
 2168SOL    HW2 8725  -0.023   0.814   3.835 -0.6292 -1.3170 -2.0364
 2168SOL    HW3 8726   0.018   0.958   3.812 -1.7595 -0.6502  0.0418
 2168SOL    MW4 8727   0.026   0.873   3.794 -0.7305 -0.3738 -0.8233
 2169SOL     OW 8728   4.472   1.105   3.894  0.4354  0.2203 -0.3885
 2169SOL    HW2 8729   4.392   1.135   3.850 -0.4391 -0.7691  0.4864
 2169SOL    HW3 8730   4.540   1.166   3.865 -0.9097  1.9004 -0.0858
 2169SOL    MW4 8731   4.470   1.117   3.885  0.1426  0.3115 -0.2329
 2170SOL     OW 8732   0.176   1.252   3.759 -0.2627 -0.3281 -0.1749
 2170SOL    HW2 8733   0.181   1.347   3.769  1.0209 -0.4739  0.7278
 2170SOL    HW3 8734   0.188   1.238   3.665  2.1287  0.2855 -0.0084
 2170SOL    MW4 8735   0.178   1.263   3.748  0.2222 -0.2663 -0.0339
 2171SOL     OW 8736   0.200   1.521   3.842  0.0768 -0.8734  0.0012
 2171SOL    HW2 8737   0.211   1.535   3.936 -0.9157 -0.2647  0.0434
 2171SOL    HW3 8738   0.114   1.559   3.823  1.0483  0.6769 -1.4888
 2171SOL    MW4 8739   0.190   1.528   3.852  0.0741 -0.5885 -0.1900
 2172SOL     OW 8740   4.453   1.648   3.783  0.0597  0.2351  0.3236
 2172SOL    HW2 8741   4.462   1.740   3.806 -1.2548  0.4578 -0.0271
 2172SOL    HW3 8742   4.481   1.643   3.691  0.7179  0.1704  0.5235
 2172SOL    MW4 8743   4.458   1.659   3.774 -0.0267  0.2561  0.3037
 2173SOL     OW 8744   0.028   1.899   3.869 -0.6169 -0.3110 -0.0394
 2173SOL    HW2 8745   0.034   1.893   3.964 -0.2089  0.7679  0.0067
 2173SOL    HW3 8746  -0.048   1.956   3.853 -0.3516 -0.0451 -0.3516
 2173SOL    MW4 8747   0.018   1.906   3.879 -0.5280 -0.1336 -0.0744
 2174SOL     OW 8748   0.259   2.067   3.803  0.5197 -0.3100  0.1163
 2174SOL    HW2 8749   0.242   2.155   3.837 -0.6480 -0.1642 -0.7953
 2174SOL    HW3 8750   0.179   2.019   3.822  0.4786 -0.6789 -0.9525
 2174SOL    MW4 8751   0.246   2.073   3.810  0.3602 -0.3395 -0.1452
 2175SOL     OW 8752   0.216   2.314   3.885  0.4676  0.4102  0.1488
 2175SOL    HW2 8753   0.229   2.328   3.979 -0.3154  0.4759  0.2470
 2175SOL    HW3 8754   0.134   2.358   3.865 -0.0483 -0.7382 -0.3057
 2175SOL    MW4 8755   0.207   2.321   3.895  0.2962  0.2673  0.1018
 2176SOL     OW 8756   0.002   2.440   3.750 -0.3784  0.0150  0.4201
 2176SOL    HW2 8757  -0.084   2.399   3.761 -0.8010  0.6275 -0.6173
 2176SOL    HW3 8758  -0.010   2.529   3.784 -0.8797  0.9526 -2.1188
 2176SOL    MW4 8759  -0.011   2.446   3.756 -0.5004  0.2196 -0.0517
 2177SOL     OW 8760   4.454   2.687   3.872  0.0671  0.4730 -0.4934
 2177SOL    HW2 8761   4.529   2.742   3.850  0.1807  0.8706  0.8745
 2177SOL    HW3 8762   4.450   2.687   3.968 -0.7075 -0.8572 -0.5068
 2177SOL    MW4 8763   4.463   2.694   3.882 -0.0200  0.3498 -0.3150
 2178SOL     OW 8764   0.207   2.819   3.810 -0.6242  0.2944  0.0429
 2178SOL    HW2 8765   0.292   2.788   3.842 -0.8304 -0.4067 -0.0865
 2178SOL    HW3 8766   0.214   2.817   3.715 -1.1198 -0.7192  0.0176
 2178SOL    MW4 8767   0.219   2.815   3.802 -0.7167  0.0682  0.0224
 2179SOL     OW 8768   0.227   3.077   3.903 -0.1069  0.0810  0.0418
 2179SOL    HW2 8769   0.215   3.079   3.998 -0.2571 -0.1837  0.0303
 2179SOL    HW3 8770   0.221   2.984   3.881  0.0411  0.1323 -0.2120
 2179SOL    MW4 8771   0.224   3.065   3.913 -0.1072  0.0525  0.0067
 2180SOL     OW 8772   0.013   3.211   3.794  0.0615  0.5289 -0.1654
 2180SOL    HW2 8773   0.080   3.156   3.834 -2.1764 -2.7977 -0.7405
 2180SOL    HW3 8774   0.025   3.197   3.699 -0.9403  0.4934 -0.2901
 2180SOL    MW4 8775   0.024   3.202   3.786 -0.3659  0.0856 -0.2575
 2181SOL     OW 8776   4.488   3.446   3.933  0.1084  0.4640 -0.4499
 2181SOL    HW2 8777   4.561   3.506   3.924 -0.7599  1.5071 -0.6064
 2181SOL    HW3 8778   4.513   3.369   3.881  0.5987  1.2771 -1.4174
 2181SOL    MW4 8779   4.501   3.444   3.925  0.0585  0.7091 -0.5980
 2182SOL     OW 8780   0.210   3.571   3.804  0.0653  0.3203 -0.1762
 2182SOL    HW2 8781   0.291   3.531   3.834 -1.0386 -1.1206  0.9747
 2182SOL    HW3 8782   0.223   3.665   3.816  1.1139  0.0119  1.1194
 2182SOL    MW4 8783   0.222   3.578   3.809  0.0580  0.0892  0.1469
 2183SOL     OW 8784   0.204   3.855   3.853  0.3380 -0.1471  0.0594
 2183SOL    HW2 8785   0.217   3.878   3.945 -0.6724  0.9247 -0.0586
 2183SOL    HW3 8786   0.267   3.907   3.805 -0.5387  0.8510 -0.0255
 2183SOL    MW4 8787   0.214   3.865   3.859  0.0890  0.1259  0.0324
 2184SOL     OW 8788   4.467   3.958   3.753  0.5377 -0.0465 -0.9357
 2184SOL    HW2 8789   4.396   3.926   3.808 -0.6820  0.5682 -2.1119
 2184SOL    HW3 8790   4.545   3.914   3.787 -0.1433  0.4302  1.3631
 2184SOL    MW4 8791   4.468   3.948   3.765  0.2871  0.0975 -0.7875
 2185SOL     OW 8792   0.025   4.211   3.861 -0.0558  0.0155 -0.5257
 2185SOL    HW2 8793   0.100   4.251   3.817  1.0201  0.5044  1.7123
 2185SOL    HW3 8794   0.013   4.127   3.817  0.9698  0.5080 -1.7610
 2185SOL    MW4 8795   0.033   4.205   3.849  0.2215  0.1450 -0.3936
 2186SOL     OW 8796   0.219   4.382   3.765 -0.3153  0.1384  0.0743
 2186SOL    HW2 8797   0.298   4.335   3.790  0.3998 -0.0573 -2.4121
 2186SOL    HW3 8798   0.240   4.474   3.778 -0.2463  0.0082  0.9147
 2186SOL    MW4 8799   0.232   4.388   3.770 -0.2118  0.0958 -0.1428
 2187SOL     OW 8800   0.679   4.621   3.900 -0.2519  0.2506 -0.0476
 2187SOL    HW2 8801   0.682   4.542   3.847 -1.7729  0.0090  0.1926
 2187SOL    HW3 8802   0.623   4.681   3.851  1.1601  1.3208 -0.3942
 2187SOL    MW4 8803   0.672   4.619   3.887 -0.2663  0.3600 -0.0618
 2188SOL     OW 8804   0.491   0.122   3.772  0.2833  0.7000  0.1444
 2188SOL    HW2 8805   0.494   0.213   3.802  1.0284  1.3313 -1.7898
 2188SOL    HW3 8806   0.408   0.089   3.805  0.4953  1.7442  1.8017
 2188SOL    MW4 8807   0.480   0.130   3.781  0.4096  0.9211  0.1080
 2189SOL     OW 8808   0.479   0.374   3.897  0.1616 -0.1475  0.6348
 2189SOL    HW2 8809   0.558   0.409   3.858  0.5603 -0.5699  1.0589
 2189SOL    HW3 8810   0.408   0.407   3.841  0.6228  0.3087  0.3146
 2189SOL    MW4 8811   0.480   0.383   3.884  0.2751 -0.1430  0.6485
 2190SOL     OW 8812   0.694   0.466   3.754 -0.6142  0.2543 -0.6916
 2190SOL    HW2 8813   0.771   0.433   3.801  0.4408  1.6021 -1.4222
 2190SOL    HW3 8814   0.689   0.558   3.781 -2.3051  0.0432 -0.2353
 2190SOL    MW4 8815   0.704   0.474   3.764 -0.6981  0.4042 -0.7277
 2191SOL     OW 8816   0.632   0.718   3.847 -0.0960 -0.2454 -0.5147
 2191SOL    HW2 8817   0.709   0.767   3.819 -0.2879 -0.4582 -1.4116
 2191SOL    HW3 8818   0.562   0.749   3.791 -0.5191 -0.5608 -0.1650
 2191SOL    MW4 8819   0.633   0.729   3.836 -0.1771 -0.3151 -0.5867
 2192SOL     OW 8820   0.440   0.857   3.678 -0.5967 -0.1229  0.9386
 2192SOL    HW2 8821   0.437   0.944   3.718 -0.1690  0.3330 -0.0043
 2192SOL    HW3 8822   0.369   0.809   3.720  0.2239  0.1567  2.6720
 2192SOL    MW4 8823   0.430   0.863   3.688 -0.4320 -0.0259  1.0428
 2193SOL     OW 8824   0.390   1.097   3.815  0.2852  0.2688 -0.5325
 2193SOL    HW2 8825   0.452   1.163   3.783 -0.3635  0.6472 -1.0185
 2193SOL    HW3 8826   0.306   1.141   3.814 -0.2785 -0.8061 -1.5721
 2193SOL    MW4 8827   0.387   1.112   3.811  0.1252  0.1768 -0.7339
 2194SOL     OW 8828   0.626   1.254   3.750  0.3480 -0.3920 -0.4753
 2194SOL    HW2 8829   0.711   1.222   3.781  0.6492  1.5639  0.8304
 2194SOL    HW3 8830   0.636   1.261   3.655  0.5915 -3.1397 -0.6871
 2194SOL    MW4 8831   0.638   1.251   3.742  0.4199 -0.4965 -0.3309
 2195SOL     OW 8832   0.631   1.512   3.901  0.2462 -0.4022  0.4780
 2195SOL    HW2 8833   0.706   1.549   3.855 -0.3975  0.3241  0.0064
 2195SOL    HW3 8834   0.630   1.420   3.875  0.0782 -0.0730 -0.7030
 2195SOL    MW4 8835   0.641   1.504   3.892  0.1391 -0.2629  0.2599
 2196SOL     OW 8836   0.431   1.681   3.771 -0.5257  1.0772 -0.1497
 2196SOL    HW2 8837   0.501   1.650   3.829 -1.0799  0.3364  0.1288
 2196SOL    HW3 8838   0.359   1.620   3.786 -0.4278  0.4413 -2.1501
 2196SOL    MW4 8839   0.431   1.669   3.781 -0.5859  0.8956 -0.3767
 2197SOL     OW 8840   0.466   1.913   3.903  0.3397 -0.2721  0.0245
 2197SOL    HW2 8841   0.442   1.833   3.857  0.6875 -0.9447  1.0158
 2197SOL    HW3 8842   0.394   1.974   3.884  0.0486 -0.8326 -0.6728
 2197SOL    MW4 8843   0.453   1.911   3.894  0.3472 -0.4348  0.0634
 2198SOL     OW 8844   0.681   2.055   3.782 -0.1303  0.0305  0.1655
 2198SOL    HW2 8845   0.688   2.139   3.829 -0.5614  0.7697 -1.0670
 2198SOL    HW3 8846   0.607   2.011   3.824 -0.7749  0.8620 -0.0656
 2198SOL    MW4 8847   0.672   2.061   3.794 -0.2722  0.2375 -0.0274
 2199SOL     OW 8848   0.655   2.315   3.897  0.6544  0.0349  0.4603
 2199SOL    HW2 8849   0.731   2.374   3.897 -0.4881  1.5569  1.7010
 2199SOL    HW3 8850   0.585   2.368   3.859 -0.2185 -0.7630  0.9511
 2199SOL    MW4 8851   0.656   2.330   3.892  0.3885  0.1307  0.6886
 2200SOL     OW 8852   0.452   2.465   3.784  0.6178 -0.4282 -0.0387
 2200SOL    HW2 8853   0.380   2.424   3.831 -0.2017  1.9965  0.9341
 2200SOL    HW3 8854   0.437   2.442   3.692 -3.3154  2.6342 -0.2946
 2200SOL    MW4 8855   0.440   2.457   3.778 -0.0093  0.2956  0.0563
 2201SOL     OW 8856   0.462   2.732   3.904 -0.1614  0.8052 -0.2336
 2201SOL    HW2 8857   0.527   2.795   3.872  0.9135  0.0889  0.5023
 2201SOL    HW3 8858   0.483   2.650   3.858 -0.1983  0.4368  0.3980
 2201SOL    MW4 8859   0.474   2.729   3.894 -0.0245  0.6618 -0.0534
 2202SOL     OW 8860   0.669   2.857   3.784 -0.1016 -0.0050 -0.5126
 2202SOL    HW2 8861   0.750   2.813   3.809 -0.1375  0.8228  1.0801
 2202SOL    HW3 8862   0.666   2.848   3.688  1.3159 -0.9655 -0.4861
 2202SOL    MW4 8863   0.679   2.850   3.775  0.0807 -0.0226 -0.2990
 2203SOL     OW 8864   0.668   3.104   3.911 -0.5103  0.6509 -0.1518
 2203SOL    HW2 8865   0.658   3.102   4.006  0.4515  0.2362 -0.0522
 2203SOL    HW3 8866   0.673   3.012   3.885 -0.6544  0.7662 -0.5933
 2203SOL    MW4 8867   0.667   3.092   3.920 -0.4024  0.6118 -0.1969
 2204SOL     OW 8868   0.455   3.216   3.788  0.2953  0.1705  0.0309
 2204SOL    HW2 8869   0.533   3.192   3.837 -0.2921  2.1028  2.0427
 2204SOL    HW3 8870   0.383   3.171   3.834 -0.0182  0.2509 -0.3756
 2204SOL    MW4 8871   0.456   3.207   3.800  0.1765  0.4358  0.2425
 2205SOL     OW 8872   0.450   3.474   3.874 -0.4709 -0.8131  0.1785
 2205SOL    HW2 8873   0.532   3.519   3.853 -1.4224  0.2867 -1.3354
 2205SOL    HW3 8874   0.464   3.384   3.845  0.1558 -0.5901 -0.2311
 2205SOL    MW4 8875   0.463   3.468   3.867 -0.5137 -0.6387 -0.0753
 2206SOL     OW 8876   0.692   3.616   3.808  0.0093 -0.5820 -0.1323
 2206SOL    HW2 8877   0.670   3.709   3.810  1.7466 -0.1632 -0.1450
 2206SOL    HW3 8878   0.697   3.595   3.715  0.6963 -0.4139 -0.1390
 2206SOL    MW4 8879   0.690   3.625   3.796  0.3292 -0.5045 -0.1349
 2207SOL     OW 8880   0.645   3.892   3.859 -0.4501 -0.0662  0.1478
 2207SOL    HW2 8881   0.647   3.884   3.954 -0.6521  0.6202  0.2149
 2207SOL    HW3 8882   0.727   3.935   3.837 -0.6903  0.3698  0.0801
 2207SOL    MW4 8883   0.656   3.897   3.869 -0.5084  0.0818  0.1478
 2208SOL     OW 8884   0.426   4.010   3.761  0.1932  0.5673 -0.0599
 2208SOL    HW2 8885   0.504   3.962   3.790 -0.9663 -1.2533  0.1886
 2208SOL    HW3 8886   0.433   4.012   3.666  0.3700  0.0830 -0.0604
 2208SOL    MW4 8887   0.437   4.004   3.752  0.0636  0.2632 -0.0269
 2209SOL     OW 8888   0.432   4.263   3.912 -0.1480  0.2292 -0.2156
 2209SOL    HW2 8889   0.526   4.283   3.907 -0.4048  1.2387 -1.2624
 2209SOL    HW3 8890   0.425   4.171   3.887  0.7659 -0.4134  1.8224
 2209SOL    MW4 8891   0.444   4.253   3.908 -0.0613  0.2770 -0.0849
 2210SOL     OW 8892   0.664   4.367   3.766  0.1813 -0.0143 -0.5543
 2210SOL    HW2 8893   0.748   4.324   3.782 -0.8653 -1.7845  0.2572
 2210SOL    HW3 8894   0.656   4.370   3.671  0.5703 -0.9825 -0.6176
 2210SOL    MW4 8895   0.674   4.362   3.756  0.0945 -0.3753 -0.4554
 2211SOL     OW 8896   1.133   0.033   3.896 -0.1839  0.4868 -0.2099
 2211SOL    HW2 8897   1.206   0.065   3.843  0.7735 -1.1040  0.0990
 2211SOL    HW3 8898   1.124  -0.059   3.870 -0.0184 -0.1824  2.0171
 2211SOL    MW4 8899   1.141   0.025   3.885 -0.0356  0.1887  0.1249
 2212SOL     OW 8900   0.880   0.123   3.804 -0.0326  0.4571 -0.1269
 2212SOL    HW2 8901   0.968   0.095   3.830 -0.5098  1.0744  2.3278
 2212SOL    HW3 8902   0.821   0.057   3.842 -0.6585  0.2164 -1.4857
 2212SOL    MW4 8903   0.884   0.110   3.813 -0.1781  0.5068  0.0174
 2213SOL     OW 8904   0.930   0.371   3.904 -0.4373  0.5604  0.0219
 2213SOL    HW2 8905   0.919   0.361   3.999 -0.9415  0.3470 -0.0569
 2213SOL    HW3 8906   0.908   0.285   3.869  1.5869  0.1006 -0.1424
 2213SOL    MW4 8907   0.926   0.358   3.912 -0.2367  0.4716 -0.0103
 2214SOL     OW 8908   1.124   0.518   3.747  0.0560 -0.2342 -0.2526
 2214SOL    HW2 8909   1.204   0.470   3.767  0.4826 -0.4002 -2.2581
 2214SOL    HW3 8910   1.054   0.467   3.788  0.7554 -1.2270 -0.2824
 2214SOL    MW4 8911   1.126   0.505   3.755  0.2047 -0.3871 -0.5212
 2215SOL     OW 8912   1.149   0.760   3.859  0.0720  0.2064  0.2360
 2215SOL    HW2 8913   1.149   0.739   3.953 -0.7257 -1.1692 -0.0559
 2215SOL    HW3 8914   1.127   0.677   3.816 -1.6202  1.2842 -1.0530
 2215SOL    MW4 8915   1.146   0.746   3.866 -0.2565  0.1671  0.0272
 2216SOL     OW 8916   0.873   0.855   3.805 -0.2772 -0.1478 -0.0798
 2216SOL    HW2 8917   0.958   0.821   3.832 -0.2670  0.8605  1.1961
 2216SOL    HW3 8918   0.880   0.865   3.710  0.8250 -0.6122 -0.0556
 2216SOL    MW4 8919   0.885   0.852   3.796 -0.1304 -0.0761  0.0916
 2217SOL     OW 8920   0.846   1.141   3.883  0.1727 -0.2105  0.0128
 2217SOL    HW2 8921   0.833   1.165   3.975  1.4091  0.4637  0.0294
 2217SOL    HW3 8922   0.840   1.046   3.882  1.4091 -0.3089  1.0104
 2217SOL    MW4 8923   0.844   1.132   3.895  0.4990 -0.1345  0.1466
 2218SOL     OW 8924   1.084   1.252   3.769  0.5146 -0.2600 -0.2185
 2218SOL    HW2 8925   1.079   1.343   3.798  2.3710 -0.0219 -0.5470
 2218SOL    HW3 8926   1.014   1.207   3.816  1.0975  0.8748  1.7678
 2218SOL    MW4 8927   1.074   1.258   3.779  0.8365 -0.0789  0.0002
 2219SOL     OW 8928   1.103   1.525   3.850  0.4104 -0.9926 -0.2034
 2219SOL    HW2 8929   1.111   1.522   3.945 -1.1908  0.4040 -0.0016
 2219SOL    HW3 8930   1.185   1.564   3.820  0.3932 -0.2612  0.7002
 2219SOL    MW4 8931   1.115   1.530   3.859  0.1968 -0.7118 -0.0577
 2220SOL     OW 8932   0.853   1.629   3.791 -0.1711 -0.0646 -0.1184
 2220SOL    HW2 8933   0.938   1.609   3.830  1.5366  1.1726 -3.0010
 2220SOL    HW3 8934   0.871   1.638   3.698 -3.0903  2.2631 -0.5408
 2220SOL    MW4 8935   0.866   1.628   3.784 -0.3310  0.4057 -0.5546
 2221SOL     OW 8936   0.882   1.894   3.882 -0.0694 -0.0981 -0.0489
 2221SOL    HW2 8937   0.873   1.800   3.866  0.0992  0.0149 -0.8867
 2221SOL    HW3 8938   0.814   1.934   3.828  0.2940  0.2889 -0.2309
 2221SOL    MW4 8939   0.872   1.886   3.873  0.0008 -0.0322 -0.1833
 2222SOL     OW 8940   1.123   2.041   3.800  0.3263 -0.1574  0.4615
 2222SOL    HW2 8941   1.045   1.992   3.824 -0.0644  0.3364  0.2173
 2222SOL    HW3 8942   1.122   2.042   3.704  0.5945 -0.0955  0.4588
 2222SOL    MW4 8943   1.113   2.035   3.790  0.3102 -0.0844  0.4287
 2223SOL     OW 8944   1.100   2.310   3.878 -0.0680 -0.6172 -0.2421
 2223SOL    HW2 8945   1.097   2.321   3.973 -0.4394  0.0556 -0.3304
 2223SOL    HW3 8946   1.101   2.215   3.865  0.3625 -0.7086  0.4433
 2223SOL    MW4 8947   1.100   2.299   3.889 -0.0602 -0.5403 -0.1633
 2224SOL     OW 8948   0.882   2.473   3.804  0.2882 -0.6633 -0.1933
 2224SOL    HW2 8949   0.904   2.557   3.844 -1.3972 -0.5337  0.5057
 2224SOL    HW3 8950   0.956   2.416   3.827  1.8050  0.7906 -1.2940
 2224SOL    MW4 8951   0.895   2.477   3.812  0.2659 -0.4544 -0.2460
 2225SOL     OW 8952   0.887   2.735   3.907 -0.1550  0.4561 -0.0034
 2225SOL    HW2 8953   0.878   2.710   3.999  1.5718  1.0712  0.3618
 2225SOL    HW3 8954   0.970   2.782   3.904 -0.3733  0.7444 -1.8235
 2225SOL    MW4 8955   0.897   2.738   3.919  0.0440  0.5753 -0.1955
 2226SOL     OW 8956   1.121   2.887   3.793  0.1898  0.8543  0.0445
 2226SOL    HW2 8957   1.208   2.860   3.822 -0.2424  0.5891  1.1332
 2226SOL    HW3 8958   1.108   2.972   3.835  0.0451  1.0247 -0.3521
 2226SOL    MW4 8959   1.131   2.894   3.803  0.1137  0.8416  0.1359
 2227SOL     OW 8960   1.107   3.136   3.908  0.3041 -0.1782 -0.1164
 2227SOL    HW2 8961   1.188   3.171   3.870  0.5106 -0.6290 -0.0954
 2227SOL    HW3 8962   1.037   3.174   3.855  0.4124  1.7377  1.0431
 2227SOL    MW4 8963   1.108   3.146   3.896  0.3457  0.0150  0.0393
 2228SOL     OW 8964   0.887   3.224   3.773 -0.1237 -0.4790 -0.3047
 2228SOL    HW2 8965   0.816   3.172   3.811  0.2802 -0.5482  0.3484
 2228SOL    HW3 8966   0.873   3.216   3.678 -1.9568  0.8462 -0.1716
 2228SOL    MW4 8967   0.876   3.216   3.765 -0.3123 -0.3133 -0.2012
 2229SOL     OW 8968   0.885   3.458   3.922 -0.3132  0.2160  0.3427
 2229SOL    HW2 8969   0.891   3.377   3.871  0.2211 -0.6026  1.6849
 2229SOL    HW3 8970   0.819   3.511   3.876 -0.8312 -1.0687 -0.4047
 2229SOL    MW4 8971   0.877   3.455   3.909 -0.3110 -0.0615  0.4213
 2230SOL     OW 8972   1.083   3.601   3.785  0.0083 -0.4980 -0.5258
 2230SOL    HW2 8973   1.078   3.692   3.815  1.1248 -0.6464  0.1629
 2230SOL    HW3 8974   1.020   3.554   3.840 -1.6912  0.1155 -1.9310
 2230SOL    MW4 8975   1.074   3.607   3.796 -0.0688 -0.4365 -0.6204
 2231SOL     OW 8976   1.099   3.863   3.865 -0.3013  0.2264  0.1177
 2231SOL    HW2 8977   1.089   3.874   3.960 -0.7067  0.2368  0.0736
 2231SOL    HW3 8978   1.167   3.926   3.841 -0.9619  0.9943  0.2360
 2231SOL    MW4 8979   1.106   3.873   3.875 -0.4420  0.3290  0.1278
 2232SOL     OW 8980   0.886   4.002   3.779 -0.4730 -0.0889  0.1143
 2232SOL    HW2 8981   0.954   3.937   3.797 -1.1431 -1.1822 -1.1797
 2232SOL    HW3 8982   0.876   4.000   3.684 -1.4325  0.9679  0.1825
 2232SOL    MW4 8983   0.894   3.994   3.769 -0.6880 -0.0942 -0.0472
 2233SOL     OW 8984   0.912   4.260   3.860 -0.0513  0.6078 -0.2322
 2233SOL    HW2 8985   0.924   4.264   3.954 -1.3621  1.0868 -0.0676
 2233SOL    HW3 8986   0.900   4.167   3.841  1.2379  0.3994 -0.0803
 2233SOL    MW4 8987   0.912   4.248   3.870 -0.0541  0.6437 -0.1907
 2234SOL     OW 8988   1.089   4.445   3.771  0.1018 -0.2226 -0.1459
 2234SOL    HW2 8989   1.029   4.383   3.813 -0.1666 -0.1251 -0.3803
 2234SOL    HW3 8990   1.083   4.424   3.677 -1.3034  1.2821 -0.4222
 2234SOL    MW4 8991   1.080   4.434   3.764 -0.1190 -0.0110 -0.2131
 2235SOL     OW 8992   1.539   4.642   3.891 -0.4055 -0.3602  0.2235
 2235SOL    HW2 8993   1.563   4.634   3.984 -1.1155  1.1370  0.5540
 2235SOL    HW3 8994   1.549   4.553   3.856  0.6738 -0.7749  1.5334
 2235SOL    MW4 8995   1.544   4.629   3.899 -0.3567 -0.2174  0.4399
 2236SOL     OW 8996   1.341   0.154   3.760  0.0179 -0.1919  0.6124
 2236SOL    HW2 8997   1.345   0.244   3.791  0.5123 -0.0085  0.0213
 2236SOL    HW3 8998   1.419   0.112   3.795  1.9010  0.6767 -2.4140
 2236SOL    MW4 8999   1.352   0.160   3.769  0.3315 -0.0531  0.1349
 2237SOL     OW 9000   1.358   0.417   3.831 -0.3487 -0.4523  0.2910
 2237SOL    HW2 9001   1.365   0.401   3.925 -0.0848 -0.7719  0.2189
 2237SOL    HW3 9002   1.448   0.429   3.801 -0.4095 -0.6078  0.0371
 2237SOL    MW4 9003   1.371   0.416   3.839 -0.3220 -0.5150  0.2480
 2238SOL     OW 9004   1.612   0.495   3.735  0.1606  0.3074 -0.0778
 2238SOL    HW2 9005   1.696   0.463   3.766 -0.8958 -2.0794  0.4430
 2238SOL    HW3 9006   1.598   0.577   3.782  1.6568  0.1314  0.6884
 2238SOL    MW4 9007   1.621   0.501   3.745  0.2185 -0.0308  0.0920
 2239SOL     OW 9008   1.595   0.748   3.853 -0.5930 -0.0014 -0.0758
 2239SOL    HW2 9009   1.672   0.784   3.808 -0.5304 -0.7938 -0.6031
 2239SOL    HW3 9010   1.521   0.792   3.812 -0.4059  1.0847  0.7252
 2239SOL    MW4 9011   1.596   0.759   3.842 -0.5600  0.0373 -0.0398
 2240SOL     OW 9012   1.370   0.894   3.749  0.1499 -0.0594 -0.3859
 2240SOL    HW2 9013   1.342   0.981   3.777  0.2715  0.0929 -0.7336
 2240SOL    HW3 9014   1.310   0.834   3.794  0.7789  0.1421  0.7426
 2240SOL    MW4 9015   1.358   0.898   3.759  0.2489 -0.0127 -0.2830
 2241SOL     OW 9016   1.331   1.159   3.859 -0.1005  0.5769 -0.2177
 2241SOL    HW2 9017   1.409   1.202   3.824  0.0267  0.4180 -0.1285
 2241SOL    HW3 9018   1.258   1.199   3.812  0.0451  0.6316 -0.3958
 2241SOL    MW4 9019   1.331   1.170   3.848 -0.0646  0.5633 -0.2296
 2242SOL     OW 9020   1.567   1.264   3.749 -0.4381  0.0996 -0.0924
 2242SOL    HW2 9021   1.637   1.213   3.790 -0.4031  0.3760  0.1935
 2242SOL    HW3 9022   1.565   1.346   3.799 -1.2825 -0.0969  0.2106
 2242SOL    MW4 9023   1.576   1.268   3.761 -0.5448  0.1101 -0.0145
 2243SOL     OW 9024   1.575   1.525   3.870  0.0595 -0.2447 -0.5176
 2243SOL    HW2 9025   1.555   1.525   3.964  1.0642 -0.3035 -0.3058
 2243SOL    HW3 9026   1.655   1.576   3.862 -0.0145 -0.2511 -1.3506
 2243SOL    MW4 9027   1.583   1.532   3.882  0.1823 -0.2533 -0.5996
 2244SOL     OW 9028   1.356   1.617   3.751  0.0680  0.0822  0.4450
 2244SOL    HW2 9029   1.356   1.706   3.787  0.2136 -0.1012  0.8932
 2244SOL    HW3 9030   1.432   1.575   3.790  0.1360 -0.1675  0.0460
 2244SOL    MW4 9031   1.366   1.623   3.761  0.0962  0.0250  0.4513
 2245SOL     OW 9032   1.356   1.890   3.814 -0.5800  0.1049 -0.3326
 2245SOL    HW2 9033   1.367   1.881   3.908 -0.0875  0.2411 -0.3751
 2245SOL    HW3 9034   1.276   1.941   3.804  0.2689  1.5591  0.0610
 2245SOL    MW4 9035   1.347   1.896   3.825 -0.4032  0.3147 -0.2866
 2246SOL     OW 9036   1.543   2.083   3.775 -0.2950 -0.3116 -0.6369
 2246SOL    HW2 9037   1.472   2.021   3.792 -1.3622  0.9909 -0.2531
 2246SOL    HW3 9038   1.558   2.076   3.680 -0.0889 -1.4734 -0.5319
 2246SOL    MW4 9039   1.536   2.074   3.764 -0.4085 -0.2928 -0.5724
 2247SOL     OW 9040   1.543   2.346   3.868 -0.7609  0.0174 -0.4446
 2247SOL    HW2 9041   1.619   2.385   3.823  0.6524 -0.0712  1.7728
 2247SOL    HW3 9042   1.551   2.252   3.852 -0.5979  0.0453 -0.5314
 2247SOL    MW4 9043   1.554   2.339   3.860 -0.5529  0.0093 -0.1636
 2248SOL     OW 9044   1.314   2.447   3.746  0.3786 -0.1652  0.2074
 2248SOL    HW2 9045   1.393   2.420   3.793  0.2411  0.4539  0.8199
 2248SOL    HW3 9046   1.242   2.404   3.792  0.2099  0.7454  0.8227
 2248SOL    MW4 9047   1.315   2.438   3.758  0.3382  0.0365  0.3693
 2249SOL     OW 9048   1.348   2.723   3.875  0.1125 -0.0907  0.0605
 2249SOL    HW2 9049   1.350   2.701   3.968  0.3370  0.1930  0.1241
 2249SOL    HW3 9050   1.350   2.639   3.831 -0.5258 -0.2403  0.3201
 2249SOL    MW4 9051   1.349   2.709   3.882  0.0581 -0.0730  0.1032
 2250SOL     OW 9052   1.585   2.864   3.814  0.2914 -0.0419  0.1593
 2250SOL    HW2 9053   1.509   2.806   3.823  1.7174 -2.0221 -0.0238
 2250SOL    HW3 9054   1.592   2.879   3.720 -0.0486  0.4026  0.2024
 2250SOL    MW4 9055   1.576   2.858   3.803  0.4348 -0.2444  0.1409
 2251SOL     OW 9056   1.563   3.121   3.931 -0.3351 -0.1399 -0.0335
 2251SOL    HW2 9057   1.591   3.108   4.021  0.4324  0.1374 -0.2266
 2251SOL    HW3 9058   1.565   3.034   3.892  1.2557  0.0157 -0.3232
 2251SOL    MW4 9059   1.567   3.108   3.938 -0.0241 -0.0825 -0.0970
 2252SOL     OW 9060   1.343   3.223   3.790 -0.0091  0.4908 -0.1999
 2252SOL    HW2 9061   1.335   3.317   3.807 -1.4997  0.2087  0.7674
 2252SOL    HW3 9062   1.416   3.195   3.845  1.6980  1.4143 -1.9432
 2252SOL    MW4 9063   1.352   3.232   3.800  0.0194  0.5755 -0.3018
 2253SOL     OW 9064   1.338   3.505   3.857  0.1805 -0.3819 -0.4072
 2253SOL    HW2 9065   1.416   3.553   3.829  0.2173 -0.8906 -1.1827
 2253SOL    HW3 9066   1.264   3.555   3.824  0.1944 -0.3450 -0.3825
 2253SOL    MW4 9067   1.339   3.518   3.849  0.1872 -0.4444 -0.5064
 2254SOL     OW 9068   1.556   3.658   3.779 -0.1096 -0.1108 -0.9460
 2254SOL    HW2 9069   1.629   3.614   3.821 -1.1716 -0.6123  0.4286
 2254SOL    HW3 9070   1.570   3.751   3.797 -0.2011 -0.2697 -0.0331
 2254SOL    MW4 9071   1.567   3.664   3.787 -0.2618 -0.1979 -0.6444
 2255SOL     OW 9072   1.542   3.929   3.865 -0.1716  0.2663 -0.3249
 2255SOL    HW2 9073   1.544   3.937   3.961  1.6997  0.8216 -0.3922
 2255SOL    HW3 9074   1.460   3.969   3.839 -1.2391 -0.9065  1.1391
 2255SOL    MW4 9075   1.532   3.935   3.874 -0.0656  0.1848 -0.1407
 2256SOL     OW 9076   1.298   4.036   3.797 -0.0139 -0.4681 -0.1711
 2256SOL    HW2 9077   1.281   4.115   3.849  0.7805  0.1490 -0.8469
 2256SOL    HW3 9078   1.289   4.064   3.706  0.9828 -0.9966 -0.4360
 2256SOL    MW4 9079   1.294   4.050   3.792  0.2224 -0.4568 -0.2952
 2257SOL     OW 9080   1.307   4.327   3.884 -0.0782  0.0320  0.0667
 2257SOL    HW2 9081   1.390   4.362   3.852 -0.5048  0.1110 -0.9684
 2257SOL    HW3 9082   1.240   4.378   3.838 -0.6997 -1.0300 -0.2081
 2257SOL    MW4 9083   1.310   4.339   3.874 -0.2165 -0.0982 -0.1061
 2258SOL     OW 9084   1.552   4.393   3.781  0.4432  0.0165 -0.7682
 2258SOL    HW2 9085   1.630   4.348   3.815 -0.5485 -0.4831  0.9444
 2258SOL    HW3 9086   1.561   4.388   3.686  1.9955 -0.9171 -0.6036
 2258SOL    MW4 9087   1.564   4.386   3.773  0.5171 -0.1721 -0.5205
 2259SOL     OW 9088   2.019   0.000   3.891 -0.8098 -0.1285  0.3775
 2259SOL    HW2 9089   2.093   0.038   3.843 -0.5451 -2.1004 -0.8489
 2259SOL    HW3 9090   2.007  -0.086   3.851 -3.5869  0.0486  0.7537
 2259SOL    MW4 9091   2.027  -0.006   3.879 -1.1415 -0.3653  0.2654
 2260SOL     OW 9092   1.781   0.111   3.776 -0.2493  0.2497  0.2524
 2260SOL    HW2 9093   1.858   0.084   3.826 -0.4114  0.2349  0.4933
 2260SOL    HW3 9094   1.710   0.059   3.812  0.1452 -1.9542 -1.9445
 2260SOL    MW4 9095   1.782   0.100   3.787 -0.2187 -0.0430 -0.0057
 2261SOL     OW 9096   1.841   0.373   3.869  0.5086  0.1731  0.0336
 2261SOL    HW2 9097   1.820   0.379   3.962 -0.5414  0.6850 -0.2267
 2261SOL    HW3 9098   1.822   0.282   3.846 -0.2330  0.3022  0.0986
 2261SOL    MW4 9099   1.836   0.362   3.879  0.2723  0.2576  0.0079
 2262SOL     OW 9100   2.047   0.524   3.769  0.0906  0.5925  0.2004
 2262SOL    HW2 9101   1.981   0.474   3.818  0.4619 -0.5546 -0.4390
 2262SOL    HW3 9102   2.022   0.513   3.677  0.7098  0.8112  0.0033
 2262SOL    MW4 9103   2.035   0.516   3.763  0.2213  0.4700  0.0901
 2263SOL     OW 9104   2.046   0.809   3.849  0.1783 -0.2783  0.1080
 2263SOL    HW2 9105   2.052   0.791   3.943  2.1409 -0.9651 -0.1182
 2263SOL    HW3 9106   2.038   0.723   3.809 -0.7503  0.0212 -0.3668
 2263SOL    MW4 9107   2.046   0.796   3.856  0.3150 -0.3294  0.0155
 2264SOL     OW 9108   1.804   0.865   3.725  0.1895 -0.0937 -0.0386
 2264SOL    HW2 9109   1.896   0.883   3.743 -0.3600  1.9392  0.9393
 2264SOL    HW3 9110   1.790   0.899   3.637  0.3308 -0.1835 -0.0956
 2264SOL    MW4 9111   1.814   0.872   3.716  0.1357  0.1627  0.0830
 2265SOL     OW 9112   1.811   1.126   3.834 -0.1916 -0.2746 -0.2166
 2265SOL    HW2 9113   1.823   1.121   3.929 -1.1078 -2.0283 -0.1706
 2265SOL    HW3 9114   1.811   1.035   3.805  0.6364  0.2655 -1.9868
 2265SOL    MW4 9115   1.812   1.113   3.843 -0.2033 -0.4346 -0.4444
 2266SOL     OW 9116   2.044   1.276   3.769  0.0153  0.4661  0.2061
 2266SOL    HW2 9117   2.113   1.222   3.806  1.0710  1.8138  0.2523
 2266SOL    HW3 9118   1.963   1.229   3.788  0.9711 -1.5550 -0.5876
 2266SOL    MW4 9119   2.043   1.263   3.776  0.2806  0.3773  0.1075
 2267SOL     OW 9120   2.037   1.533   3.873 -0.0229 -0.1147 -0.2380
 2267SOL    HW2 9121   1.965   1.579   3.831 -0.3517  0.8077  1.2952
 2267SOL    HW3 9122   2.046   1.451   3.824 -1.4760  0.1936 -1.0261
 2267SOL    MW4 9123   2.029   1.528   3.861 -0.2582  0.0477 -0.1397
 2268SOL     OW 9124   1.831   1.680   3.776 -0.1514  0.0099 -0.5013
 2268SOL    HW2 9125   1.786   1.754   3.817  0.7538  0.4391 -0.2799
 2268SOL    HW3 9126   1.827   1.699   3.682  0.5893  0.6281 -0.4081
 2268SOL    MW4 9127   1.824   1.693   3.769  0.0658  0.1482 -0.4601
 2269SOL     OW 9128   1.748   1.925   3.880 -0.5735  0.2609 -0.2662
 2269SOL    HW2 9129   1.754   1.932   3.975  0.1084  0.4370 -0.3205
 2269SOL    HW3 9130   1.676   1.982   3.856 -1.4931 -0.6570  0.2547
 2269SOL    MW4 9131   1.740   1.933   3.890 -0.6047  0.1630 -0.2046
 2270SOL     OW 9132   1.990   2.054   3.795  0.1186  0.3527 -0.2346
 2270SOL    HW2 9133   1.912   2.022   3.841  0.1267  1.6333  0.7066
 2270SOL    HW3 9134   1.973   2.035   3.703 -1.6392  1.2405 -0.1247
 2270SOL    MW4 9135   1.978   2.047   3.789 -0.1123  0.6390 -0.0958
 2271SOL     OW 9136   2.041   2.322   3.901  0.1919 -0.2307  0.4171
 2271SOL    HW2 9137   2.028   2.235   3.863 -0.2942  1.0325 -2.4192
 2271SOL    HW3 9138   1.961   2.370   3.879  1.3767  1.6033 -0.0183
 2271SOL    MW4 9139   2.029   2.317   3.893  0.2840  0.1781 -0.0145
 2272SOL     OW 9140   1.820   2.440   3.808 -0.2866  0.1031 -0.2433
 2272SOL    HW2 9141   1.792   2.531   3.814  0.5898  0.3333  0.5787
 2272SOL    HW3 9142   1.834   2.425   3.715 -0.5210  0.7842 -0.3933
 2272SOL    MW4 9143   1.819   2.450   3.797 -0.2018  0.2232 -0.1545
 2273SOL     OW 9144   1.822   2.707   3.853 -0.1872  0.4120  0.5895
 2273SOL    HW2 9145   1.828   2.707   3.949 -2.9844 -0.6440  0.8197
 2273SOL    HW3 9146   1.739   2.752   3.835 -0.7934 -1.3783 -1.2344
 2273SOL    MW4 9147   1.812   2.713   3.863 -0.6362  0.0362  0.3788
 2274SOL     OW 9148   2.030   2.876   3.754 -0.0097  0.1620 -0.1986
 2274SOL    HW2 9149   2.112   2.828   3.766 -0.3351 -0.0337  1.4189
 2274SOL    HW3 9150   1.962   2.814   3.784 -0.7338  0.3648 -1.4038
 2274SOL    MW4 9151   2.032   2.861   3.760 -0.1481  0.1631 -0.1442
 2275SOL     OW 9152   2.013   3.128   3.905  0.1836  0.4403 -0.2995
 2275SOL    HW2 9153   2.081   3.187   3.873 -1.0255  1.6042 -0.7781
 2275SOL    HW3 9154   2.032   3.044   3.862  1.3838  0.7143 -0.3195
 2275SOL    MW4 9155   2.024   3.125   3.895  0.1826  0.6301 -0.3655
 2276SOL     OW 9156   1.755   3.253   3.766 -0.1054 -0.2001  0.1489
 2276SOL    HW2 9157   1.844   3.221   3.781  0.5801  1.4483 -0.2871
 2276SOL    HW3 9158   1.703   3.210   3.834  0.7995 -2.0561 -0.2957
 2276SOL    MW4 9159   1.760   3.243   3.777  0.1044 -0.2275  0.0327
 2277SOL     OW 9160   1.765   3.526   3.885  0.1647  0.1508 -0.0319
 2277SOL    HW2 9161   1.850   3.567   3.868  1.3277 -1.7853  0.9386
 2277SOL    HW3 9162   1.766   3.446   3.833 -1.4065  0.4986 -0.6143
 2277SOL    MW4 9163   1.776   3.521   3.876  0.1107 -0.0584  0.0193
 2278SOL     OW 9164   2.006   3.659   3.794 -0.1598  0.0751  0.4061
 2278SOL    HW2 9165   2.087   3.617   3.823  0.0937 -0.2729 -0.7838
 2278SOL    HW3 9166   2.011   3.657   3.698 -1.0440  1.0801  0.3347
 2278SOL    MW4 9167   2.018   3.653   3.785 -0.2432  0.1619  0.2396
 2279SOL     OW 9168   2.022   3.932   3.857 -0.5434 -0.4097  0.6024
 2279SOL    HW2 9169   2.091   3.983   3.815 -1.2100  0.6449  0.7550
 2279SOL    HW3 9170   2.039   3.842   3.831  0.8803 -0.1635  0.6317
 2279SOL    MW4 9171   2.033   3.927   3.848 -0.4435 -0.2382  0.6263
 2280SOL     OW 9172   1.783   4.027   3.746  0.2433 -0.0122 -0.3627
 2280SOL    HW2 9173   1.856   3.985   3.792 -0.8391 -1.0610  0.4411
 2280SOL    HW3 9174   1.705   3.985   3.782 -0.8194  1.9032 -0.3859
 2280SOL    MW4 9175   1.783   4.016   3.757 -0.0396  0.1020 -0.2596
 2281SOL     OW 9176   1.797   4.263   3.918 -0.3921  0.2903 -0.1734
 2281SOL    HW2 9177   1.881   4.298   3.888  1.2555 -1.0625  2.7167
 2281SOL    HW3 9178   1.785   4.183   3.865  1.4863 -0.9679  1.2381
 2281SOL    MW4 9179   1.807   4.257   3.907  0.0732 -0.0544  0.3943
 2282SOL     OW 9180   2.007   4.401   3.779 -0.6719 -0.1688 -0.2222
 2282SOL    HW2 9181   2.097   4.369   3.787 -0.2364  0.8761 -0.7792
 2282SOL    HW3 9182   1.994   4.409   3.684 -0.2330  2.7124 -0.0942
 2282SOL    MW4 9183   2.017   4.398   3.767 -0.5565  0.3495 -0.2787
 2283SOL     OW 9184   2.484   4.645   3.892 -0.1492  0.3348 -0.4465
 2283SOL    HW2 9185   2.487   4.653   3.987  1.1453 -0.1951 -0.4321
 2283SOL    HW3 9186   2.567   4.684   3.862 -0.3087  0.0200 -1.3146
 2283SOL    MW4 9187   2.496   4.651   3.901  0.0010  0.2233 -0.5591
 2284SOL     OW 9188   2.243   0.127   3.780  0.3074  0.4103  0.2389
 2284SOL    HW2 9189   2.319   0.072   3.796  0.9132  1.4360  1.0009
 2284SOL    HW3 9190   2.249   0.152   3.688 -0.0935 -0.9558 -0.1699
 2284SOL    MW4 9191   2.253   0.123   3.770  0.3343  0.3654  0.2856
 2285SOL     OW 9192   2.277   0.390   3.884  0.0862  0.1395  0.0894
 2285SOL    HW2 9193   2.282   0.306   3.838 -1.3784  0.4361 -0.6350
 2285SOL    HW3 9194   2.200   0.433   3.847  0.2886  1.4137  1.1180
 2285SOL    MW4 9195   2.268   0.384   3.873 -0.0806  0.3467  0.1297
 2286SOL     OW 9196   2.507   0.523   3.790  0.0024  0.3327 -0.1674
 2286SOL    HW2 9197   2.440   0.475   3.838  1.1810 -0.5172  0.6591
 2286SOL    HW3 9198   2.486   0.509   3.698 -0.1947 -1.0114  0.0770
 2286SOL    MW4 9199   2.496   0.515   3.785  0.1318  0.0432 -0.0260
 2287SOL     OW 9200   2.526   0.796   3.894 -0.5065  0.0902  0.2847
 2287SOL    HW2 9201   2.447   0.836   3.859  0.2056  0.4498 -0.9325
 2287SOL    HW3 9202   2.526   0.707   3.859 -0.9013 -0.2444  1.1244
 2287SOL    MW4 9203   2.516   0.790   3.885 -0.4647  0.0935  0.2351
 2288SOL     OW 9204   2.315   0.893   3.773  0.3153  0.2583 -0.3546
 2288SOL    HW2 9205   2.227   0.864   3.797  0.9467 -0.8393  0.6476
 2288SOL    HW3 9206   2.316   0.886   3.677 -0.3261 -0.7945 -0.2983
 2288SOL    MW4 9207   2.303   0.888   3.763  0.3140 -0.0253 -0.2148
 2289SOL     OW 9208   2.248   1.139   3.886 -0.6406  0.3370 -0.2717
 2289SOL    HW2 9209   2.257   1.137   3.981  0.1938  1.4296 -0.3142
 2289SOL    HW3 9210   2.254   1.048   3.859  0.6383  0.1457  0.6043
 2289SOL    MW4 9211   2.250   1.127   3.895 -0.3622  0.4560 -0.1616
 2290SOL     OW 9212   2.483   1.256   3.817 -0.4224 -0.5423 -0.0614
 2290SOL    HW2 9213   2.480   1.347   3.848  1.4745 -0.7180  0.6793
 2290SOL    HW3 9214   2.398   1.220   3.841 -0.3811  0.4203  1.5877
 2290SOL    MW4 9215   2.471   1.263   3.824 -0.1669 -0.4383  0.2539
 2291SOL     OW 9216   2.484   1.529   3.864  0.3638  0.4465 -0.0201
 2291SOL    HW2 9217   2.554   1.586   3.832  0.2090  0.1452 -0.9012
 2291SOL    HW3 9218   2.403   1.566   3.827  0.2577 -0.3149 -0.5676
 2291SOL    MW4 9219   2.482   1.542   3.855  0.3295  0.3064 -0.2086
 2292SOL     OW 9220   2.266   1.669   3.776 -0.2735  0.0213 -0.0188
 2292SOL    HW2 9221   2.268   1.756   3.816  0.6654 -0.4927  1.0611
 2292SOL    HW3 9222   2.181   1.633   3.801  0.0670 -0.0643  1.0203
 2292SOL    MW4 9223   2.255   1.676   3.785 -0.1047 -0.0579  0.2608
 2293SOL     OW 9224   2.241   1.940   3.872 -0.3894 -0.3480 -0.2809
 2293SOL    HW2 9225   2.261   1.931   3.965 -1.1318 -2.5767 -0.3037
 2293SOL    HW3 9226   2.151   1.971   3.869  0.2051  1.4278 -0.2595
 2293SOL    MW4 9227   2.232   1.943   3.883 -0.4089 -0.4078 -0.2809
 2294SOL     OW 9228   2.473   2.015   3.760 -0.0230 -0.2936 -0.2781
 2294SOL    HW2 9229   2.462   2.110   3.765  0.8689 -0.2235  0.4917
 2294SOL    HW3 9230   2.392   1.980   3.796 -0.7427  0.1601 -1.4121
 2294SOL    MW4 9231   2.461   2.023   3.765  0.0000 -0.2248 -0.3262
 2295SOL     OW 9232   2.448   2.285   3.819  0.6392  0.3532  0.3217
 2295SOL    HW2 9233   2.537   2.319   3.806  0.1185  1.2671 -0.8502
 2295SOL    HW3 9234   2.391   2.352   3.783 -0.5932  0.2945  2.1165
 2295SOL    MW4 9235   2.452   2.298   3.813  0.4079  0.4661  0.4039
 2296SOL     OW 9236   2.228   2.442   3.730  0.2223  0.5959  0.1136
 2296SOL    HW2 9237   2.161   2.382   3.762  1.2878  0.3263  1.9548
 2296SOL    HW3 9238   2.226   2.434   3.635 -0.8353 -1.0533  0.2670
 2296SOL    MW4 9239   2.219   2.433   3.722  0.2232  0.3424  0.3767
 2297SOL     OW 9240   2.257   2.700   3.831 -0.0144 -0.0663 -0.3635
 2297SOL    HW2 9241   2.262   2.695   3.926  1.7945  1.2245 -0.3579
 2297SOL    HW3 9242   2.242   2.609   3.803  2.0884 -0.8785  1.0219
 2297SOL    MW4 9243   2.256   2.687   3.840  0.5019 -0.0031 -0.1800
 2298SOL     OW 9244   2.491   2.806   3.759  0.0286  0.2185 -0.2806
 2298SOL    HW2 9245   2.409   2.764   3.786 -0.0477  0.7710  0.3856
 2298SOL    HW3 9246   2.469   2.852   3.678  0.1485 -1.1229 -1.0804
 2298SOL    MW4 9247   2.477   2.807   3.752  0.0346  0.1144 -0.2983
 2299SOL     OW 9248   2.450   3.079   3.845  0.1150 -0.5229  0.2374
 2299SOL    HW2 9249   2.460   3.095   3.938 -1.2551  1.0022  0.1426
 2299SOL    HW3 9250   2.463   2.984   3.835  0.4388 -0.6649  1.9353
 2299SOL    MW4 9251   2.453   3.068   3.856 -0.0231 -0.3402  0.4489
 2300SOL     OW 9252   2.232   3.252   3.792  0.1518  0.2867  0.6466
 2300SOL    HW2 9253   2.227   3.336   3.838  1.1033  0.9399 -0.4065
 2300SOL    HW3 9254   2.308   3.208   3.830  1.5780  1.2724 -0.9706
 2300SOL    MW4 9255   2.242   3.257   3.803  0.4656  0.5031  0.2942
 2301SOL     OW 9256   2.228   3.516   3.914 -0.4158  0.2301  0.3916
 2301SOL    HW2 9257   2.255   3.489   4.002  2.6528 -1.3578 -0.9564
 2301SOL    HW3 9258   2.303   3.566   3.880 -1.2642  0.2068 -1.5852
 2301SOL    MW4 9259   2.242   3.519   3.921 -0.1230  0.0179 -0.0470
 2302SOL     OW 9260   2.468   3.619   3.808 -0.4778  0.4193 -0.6084
 2302SOL    HW2 9261   2.532   3.553   3.837 -1.5488 -0.7717 -0.8830
 2302SOL    HW3 9262   2.467   3.610   3.713 -1.5637 -0.0591 -0.5533
 2302SOL    MW4 9263   2.477   3.609   3.799 -0.7622  0.1988 -0.6371
 2303SOL     OW 9264   2.452   3.892   3.846  0.0201 -0.2079 -0.1694
 2303SOL    HW2 9265   2.533   3.927   3.809  0.5771 -0.4507  0.8049
 2303SOL    HW3 9266   2.466   3.797   3.847 -1.5613 -0.5239 -3.0098
 2303SOL    MW4 9267   2.465   3.884   3.841 -0.1152 -0.2816 -0.4158
 2304SOL     OW 9268   2.247   4.068   3.744 -0.2549  0.1922 -0.2729
 2304SOL    HW2 9269   2.310   4.008   3.786 -1.7762 -1.0330  0.3070
 2304SOL    HW3 9270   2.252   4.046   3.651 -0.1216 -0.1948 -0.1763
 2304SOL    MW4 9271   2.256   4.057   3.737 -0.4380 -0.0210 -0.1833
 2305SOL     OW 9272   2.252   4.310   3.855 -0.4788  0.1565 -0.3990
 2305SOL    HW2 9273   2.251   4.289   3.949  0.9874 -0.0504 -0.4170
 2305SOL    HW3 9274   2.261   4.225   3.812  1.6479  0.4580 -0.6078
 2305SOL    MW4 9275   2.253   4.296   3.862 -0.0048  0.1683 -0.4292
 2306SOL     OW 9276   2.517   4.391   3.814 -0.1283 -0.5494  0.6131
 2306SOL    HW2 9277   2.427   4.361   3.798 -0.3590 -0.3814  1.5567
 2306SOL    HW3 9278   2.506   4.480   3.850  0.3855 -0.7580  1.2988
 2306SOL    MW4 9279   2.503   4.399   3.817 -0.0911 -0.5550  0.8280
 2307SOL     OW 9280   2.964   0.019   3.877 -0.3242  0.5601 -0.0731
 2307SOL    HW2 9281   2.994   0.013   3.967 -1.2044  0.0995  0.1911
 2307SOL    HW3 9282   3.041   0.048   3.828 -0.4419  2.9731  1.1360
 2307SOL    MW4 9283   2.978   0.022   3.882 -0.4559  0.8178  0.1214
 2308SOL     OW 9284   2.704   0.112   3.819 -0.0692 -0.2604 -0.2598
 2308SOL    HW2 9285   2.790   0.075   3.840 -0.3762 -0.7253  0.2038
 2308SOL    HW3 9286   2.704   0.123   3.724  0.7067  0.2472 -0.1991
 2308SOL    MW4 9287   2.715   0.109   3.809 -0.0074 -0.2547 -0.1905
 2309SOL     OW 9288   2.743   0.379   3.877  0.1053  0.0033 -0.0299
 2309SOL    HW2 9289   2.714   0.292   3.852  0.7781 -0.2734  0.1664
 2309SOL    HW3 9290   2.665   0.434   3.864 -0.2896 -0.5996 -0.2451
 2309SOL    MW4 9291   2.729   0.375   3.872  0.1423 -0.1127 -0.0324
 2310SOL     OW 9292   2.949   0.513   3.772  0.5895  0.3242  0.0458
 2310SOL    HW2 9293   3.035   0.476   3.794  0.8480  0.0099 -1.4214
 2310SOL    HW3 9294   2.887   0.461   3.823  1.2003 -0.1386  0.3197
 2310SOL    MW4 9295   2.952   0.501   3.781  0.7041  0.2217 -0.1116
 2311SOL     OW 9296   2.940   0.750   3.904  0.0360  0.2735 -0.3362
 2311SOL    HW2 9297   3.020   0.780   3.861 -0.0810 -0.1080 -0.8304
 2311SOL    HW3 9298   2.928   0.661   3.871 -0.4360  0.2276 -0.0403
 2311SOL    MW4 9299   2.949   0.742   3.894 -0.0415  0.2171 -0.3622
 2312SOL     OW 9300   2.755   0.924   3.767  0.5356  0.1208 -0.2337
 2312SOL    HW2 9301   2.821   0.867   3.807  1.1433  0.1460 -1.1838
 2312SOL    HW3 9302   2.671   0.890   3.798  1.0093  0.4472  1.4566
 2312SOL    MW4 9303   2.753   0.912   3.776  0.6781  0.1672 -0.1361
 2313SOL     OW 9304   2.720   1.136   3.930  0.0678 -0.1266 -0.0725
 2313SOL    HW2 9305   2.733   1.053   3.884 -1.6955 -0.4668  0.0207
 2313SOL    HW3 9306   2.646   1.177   3.886 -0.0831  0.6617  0.8885
 2313SOL    MW4 9307   2.712   1.131   3.918 -0.1850 -0.0675  0.0668
 2314SOL     OW 9308   2.946   1.236   3.770 -0.2492 -0.3596 -0.2839
 2314SOL    HW2 9309   2.956   1.330   3.784  0.3769 -0.3506 -0.7974
 2314SOL    HW3 9310   2.878   1.210   3.832 -0.9454  0.5646 -0.6419
 2314SOL    MW4 9311   2.938   1.245   3.780 -0.2584 -0.2365 -0.3986
 2315SOL     OW 9312   2.956   1.504   3.822  0.0030 -0.1799  0.3549
 2315SOL    HW2 9313   2.954   1.525   3.916 -1.0733  1.6183 -0.0347
 2315SOL    HW3 9314   3.027   1.557   3.787  0.7879 -1.3005  0.2458
 2315SOL    MW4 9315   2.965   1.514   3.830 -0.0353 -0.0905  0.2890
 2316SOL     OW 9316   2.705   1.667   3.752 -0.0264  0.1665  0.1122
 2316SOL    HW2 9317   2.789   1.631   3.779  0.6543  1.9691  0.4363
 2316SOL    HW3 9318   2.708   1.669   3.656 -0.1782 -0.8544  0.0784
 2316SOL    MW4 9319   2.716   1.663   3.743  0.0434  0.2697  0.1504
 2317SOL     OW 9320   2.708   1.913   3.866 -0.1900  0.0051 -0.3432
 2317SOL    HW2 9321   2.695   1.827   3.828 -0.9859  0.0471 -0.1872
 2317SOL    HW3 9322   2.623   1.957   3.856  0.1815  0.7378 -0.3500
 2317SOL    MW4 9323   2.695   1.908   3.860 -0.2458  0.1072 -0.3235
 2318SOL     OW 9324   2.933   2.022   3.752 -0.8158 -0.6380  0.0752
 2318SOL    HW2 9325   2.940   2.111   3.787  0.4902 -1.1901  1.2925
 2318SOL    HW3 9326   2.849   1.990   3.784 -0.8587 -0.1719  0.4283
 2318SOL    MW4 9327   2.923   2.029   3.761 -0.6492 -0.6495  0.2828
 2319SOL     OW 9328   2.938   2.288   3.856  0.2865  0.2151  0.2251
 2319SOL    HW2 9329   2.948   2.293   3.952  0.7623 -2.2698  0.3349
 2319SOL    HW3 9330   3.006   2.346   3.822  0.8014  0.3161  1.3973
 2319SOL    MW4 9331   2.948   2.296   3.865  0.4170 -0.0994  0.3941
 2320SOL     OW 9332   2.692   2.386   3.785 -0.3070 -0.1239  0.5247
 2320SOL    HW2 9333   2.704   2.479   3.803 -0.7176  0.1330 -0.5053
 2320SOL    HW3 9334   2.776   2.346   3.808 -0.1606  0.4814  1.0513
 2320SOL    MW4 9335   2.705   2.393   3.790 -0.3419 -0.0103  0.4582
 2321SOL     OW 9336   2.711   2.662   3.856 -0.7010 -0.1853  0.5183
 2321SOL    HW2 9337   2.688   2.662   3.949 -0.1426 -0.5413  0.6560
 2321SOL    HW3 9338   2.649   2.723   3.816  1.1405  2.5410  1.6498
 2321SOL    MW4 9339   2.700   2.670   3.863 -0.3843  0.1276  0.6859
 2322SOL     OW 9340   2.925   2.817   3.791 -0.3242 -0.4376 -0.0626
 2322SOL    HW2 9341   2.911   2.906   3.824  0.9091 -0.3532  0.2679
 2322SOL    HW3 9342   2.855   2.765   3.831 -0.4891  0.2024  0.4864
 2322SOL    MW4 9343   2.914   2.822   3.801 -0.1833 -0.3421  0.0532
 2323SOL     OW 9344   2.891   3.066   3.905 -0.6171  0.1495 -0.5351
 2323SOL    HW2 9345   2.977   3.108   3.907 -0.2507 -0.5801 -0.8275
 2323SOL    HW3 9346   2.841   3.115   3.840 -0.0439 -0.1478 -1.1984
 2323SOL    MW4 9347   2.896   3.078   3.897 -0.4935  0.0138 -0.6614
 2324SOL     OW 9348   2.690   3.173   3.765  0.4282  0.0612  0.0918
 2324SOL    HW2 9349   2.682   3.261   3.804 -2.1488 -0.0219 -0.1688
 2324SOL    HW3 9350   2.614   3.126   3.798  0.6662 -1.4285 -1.4744
 2324SOL    MW4 9351   2.679   3.179   3.775  0.1197 -0.1464 -0.1493
 2325SOL     OW 9352   2.663   3.442   3.906  0.4144 -0.6652 -0.7392
 2325SOL    HW2 9353   2.668   3.440   4.001  0.3904 -0.9437 -0.7447
 2325SOL    HW3 9354   2.741   3.490   3.879  0.5286 -0.7682 -0.5903
 2325SOL    MW4 9355   2.674   3.448   3.915  0.4263 -0.7157 -0.7203
 2326SOL     OW 9356   2.879   3.587   3.787 -0.9039  0.2097  0.0425
 2326SOL    HW2 9357   2.962   3.549   3.815 -0.2554  2.3332  1.1278
 2326SOL    HW3 9358   2.886   3.592   3.691  0.8615  1.7619  0.2238
 2326SOL    MW4 9359   2.891   3.583   3.778 -0.5853  0.6950  0.2096
 2327SOL     OW 9360   2.917   3.848   3.876 -0.2358 -0.2607  0.1599
 2327SOL    HW2 9361   2.939   3.836   3.968  2.0273  0.8664 -0.2135
 2327SOL    HW3 9362   2.897   3.759   3.845  1.3463 -0.9825  1.1418
 2327SOL    MW4 9363   2.917   3.835   3.884  0.2720 -0.2074  0.2401
 2328SOL     OW 9364   2.701   4.004   3.744  0.0481  0.3173 -0.3595
 2328SOL    HW2 9365   2.722   4.095   3.767 -0.9232 -0.0747  2.2120
 2328SOL    HW3 9366   2.763   3.951   3.794 -0.4447 -0.4818 -0.5824
 2328SOL    MW4 9367   2.712   4.009   3.754 -0.1450  0.1607 -0.0496
 2329SOL     OW 9368   2.764   4.258   3.824  0.3788 -0.6539 -0.2654
 2329SOL    HW2 9369   2.833   4.321   3.804  0.2931  0.2589  2.0880
 2329SOL    HW3 9370   2.687   4.312   3.841 -0.1665 -1.5023 -0.0274
 2329SOL    MW4 9371   2.763   4.273   3.824  0.2956 -0.6456  0.0765
 2330SOL     OW 9372   2.966   4.430   3.763 -0.0036  0.0648 -0.2178
 2330SOL    HW2 9373   3.033   4.382   3.811  0.9503  2.4922  0.9462
 2330SOL    HW3 9374   2.961   4.515   3.806 -2.2465  0.7394 -1.6972
 2330SOL    MW4 9375   2.974   4.435   3.775 -0.1736  0.4740 -0.2596
 2331SOL     OW 9376   3.386   4.638   3.882 -0.1882 -0.0473  0.2046
 2331SOL    HW2 9377   3.401   4.653   3.975  1.4155  0.7779 -0.1798
 2331SOL    HW3 9378   3.459   4.681   3.838 -0.5602 -1.0141 -1.4064
 2331SOL    MW4 9379   3.398   4.646   3.888 -0.0255 -0.0663 -0.0584
 2332SOL     OW 9380   3.186   0.128   3.771  0.1129 -0.4345  0.1910
 2332SOL    HW2 9381   3.262   0.077   3.797 -0.4422 -1.5718 -0.3489
 2332SOL    HW3 9382   3.191   0.131   3.675  0.3409  0.8564  0.2322
 2332SOL    MW4 9383   3.197   0.122   3.762  0.0696 -0.4143  0.1249
 2333SOL     OW 9384   3.165   0.386   3.890  0.3619  0.0002 -0.4199
 2333SOL    HW2 9385   3.167   0.360   3.982 -0.8111  0.1088 -0.3539
 2333SOL    HW3 9386   3.170   0.304   3.841  1.0618 -0.0514 -0.2591
 2333SOL    MW4 9387   3.166   0.372   3.896  0.2995  0.0077 -0.3901
 2334SOL     OW 9388   3.374   0.482   3.730  0.0834 -0.1687 -0.1434
 2334SOL    HW2 9389   3.449   0.435   3.764  0.6721  0.0426 -1.1308
 2334SOL    HW3 9390   3.302   0.460   3.789  0.9231 -0.3494  0.8141
 2334SOL    MW4 9391   3.374   0.473   3.742  0.2718 -0.1647 -0.1476
 2335SOL     OW 9392   3.447   0.740   3.839  0.6858 -0.0209 -0.0328
 2335SOL    HW2 9393   3.443   0.731   3.935 -0.7584 -0.1013 -0.0920
 2335SOL    HW3 9394   3.440   0.650   3.807 -0.4608  0.1391 -0.2514
 2335SOL    MW4 9395   3.445   0.727   3.848  0.3440 -0.0104 -0.0694
 2336SOL     OW 9396   3.175   0.826   3.768  0.5221  0.3591  0.2368
 2336SOL    HW2 9397   3.261   0.787   3.779  0.2737 -0.5451 -0.9895
 2336SOL    HW3 9398   3.168   0.845   3.674 -0.5328  0.6117  0.3540
 2336SOL    MW4 9399   3.185   0.823   3.757  0.3502  0.2730  0.0906
 2337SOL     OW 9400   3.179   1.111   3.858 -0.0873 -0.0589 -0.0332
 2337SOL    HW2 9401   3.169   1.016   3.844  1.0257 -0.2013  0.1323
 2337SOL    HW3 9402   3.098   1.148   3.824  0.2489 -0.9119 -1.8269
 2337SOL    MW4 9403   3.167   1.103   3.852  0.1040 -0.1904 -0.2480
 2338SOL     OW 9404   3.377   1.272   3.769  0.3748  0.2357 -0.0948
 2338SOL    HW2 9405   3.311   1.209   3.799  0.5170  0.9140  1.7026
 2338SOL    HW3 9406   3.369   1.271   3.674 -0.9931 -1.0249  0.0064
 2338SOL    MW4 9407   3.367   1.263   3.761  0.2131  0.1588  0.1557
 2339SOL     OW 9408   3.361   1.533   3.852  0.4338 -0.2945 -0.4884
 2339SOL    HW2 9409   3.289   1.579   3.809 -0.3845 -0.2870  0.8755
 2339SOL    HW3 9410   3.359   1.445   3.814 -0.6949 -0.4872  0.0126
 2339SOL    MW4 9411   3.352   1.527   3.841  0.1769 -0.3189 -0.2425
 2340SOL     OW 9412   3.156   1.655   3.735 -0.2093  0.2715  0.7791
 2340SOL    HW2 9413   3.156   1.746   3.761 -2.0086  0.2487  0.8915
 2340SOL    HW3 9414   3.158   1.657   3.639  2.5921  0.3817  0.8051
 2340SOL    MW4 9415   3.156   1.667   3.725 -0.0772  0.2831  0.7970
 2341SOL     OW 9416   3.159   1.903   3.867 -0.7823 -0.0112  0.3779
 2341SOL    HW2 9417   3.162   1.907   3.962  1.3832  2.1773  0.2503
 2341SOL    HW3 9418   3.073   1.938   3.844 -0.9654  0.2651  1.4717
 2341SOL    MW4 9419   3.148   1.908   3.876 -0.5207  0.3139  0.5057
 2342SOL     OW 9420   3.370   2.073   3.793  0.0638  0.4636 -0.3317
 2342SOL    HW2 9421   3.304   2.006   3.811 -0.7726  1.3514 -0.0571
 2342SOL    HW3 9422   3.383   2.069   3.699  0.6270 -0.6450 -0.2166
 2342SOL    MW4 9423   3.363   2.064   3.783  0.0277  0.4346 -0.2801
 2343SOL     OW 9424   3.376   2.348   3.900  0.3628  0.0842  0.0943
 2343SOL    HW2 9425   3.301   2.386   3.854  1.1411 -0.2463 -1.4690
 2343SOL    HW3 9426   3.368   2.254   3.886 -0.2035 -0.1596  1.9014
 2343SOL    MW4 9427   3.365   2.341   3.892  0.3910  0.0083  0.1266
 2344SOL     OW 9428   3.153   2.436   3.787 -0.0401 -0.4070 -0.0067
 2344SOL    HW2 9429   3.147   2.526   3.820 -0.5969 -0.5286  0.2234
 2344SOL    HW3 9430   3.163   2.445   3.692  2.2039 -0.0268  0.2319
 2344SOL    MW4 9431   3.154   2.449   3.779  0.1826 -0.3729  0.0556
 2345SOL     OW 9432   3.150   2.689   3.869 -0.3818 -0.5241 -0.0244
 2345SOL    HW2 9433   3.153   2.710   3.962 -0.1592 -1.0722  0.0964
 2345SOL    HW3 9434   3.066   2.722   3.839 -0.6887 -0.8329  0.4953
 2345SOL    MW4 9435   3.140   2.696   3.877 -0.3929 -0.6371  0.0601
 2346SOL     OW 9436   3.364   2.841   3.768 -0.1371 -0.3268 -0.0767
 2346SOL    HW2 9437   3.279   2.811   3.802  0.1959 -2.2929 -0.9126
 2346SOL    HW3 9438   3.347   2.860   3.676  0.4748 -1.4328 -0.4311
 2346SOL    MW4 9439   3.350   2.840   3.761 -0.0124 -0.7322 -0.2337
 2347SOL     OW 9440   3.388   3.118   3.892  0.2558 -0.1057  0.1545
 2347SOL    HW2 9441   3.464   3.168   3.861 -0.2685  0.8938  0.4603
 2347SOL    HW3 9442   3.400   3.031   3.854  1.4268  0.1120 -0.0072
 2347SOL    MW4 9443   3.399   3.113   3.883  0.3412  0.0548  0.1736
 2348SOL     OW 9444   3.123   3.196   3.827  0.2924 -0.2569 -0.3887
 2348SOL    HW2 9445   3.215   3.175   3.840  0.0692 -1.2454 -0.3427
 2348SOL    HW3 9446   3.115   3.209   3.732  0.5119 -0.0077 -0.3728
 2348SOL    MW4 9447   3.134   3.195   3.816  0.2916 -0.3545 -0.3808
 2349SOL     OW 9448   3.111   3.472   3.881 -0.6750  0.1830 -0.2098
 2349SOL    HW2 9449   3.197   3.511   3.863 -0.2725 -1.1105 -1.2260
 2349SOL    HW3 9450   3.125   3.378   3.867 -1.7229 -0.2808  1.7702
 2349SOL    MW4 9451   3.124   3.465   3.877 -0.7598 -0.0489 -0.0825
 2350SOL     OW 9452   3.348   3.590   3.801 -0.4717 -0.2315 -0.5385
 2350SOL    HW2 9453   3.357   3.677   3.839 -0.8237 -0.3191 -0.2545
 2350SOL    HW3 9454   3.364   3.603   3.707  1.5421 -0.1970 -0.2123
 2350SOL    MW4 9455   3.352   3.603   3.793 -0.2525 -0.2384 -0.4582
 2351SOL     OW 9456   3.355   3.862   3.885  0.1340 -0.3766 -0.0571
 2351SOL    HW2 9457   3.432   3.900   3.843 -0.0149 -0.5871 -0.5287
 2351SOL    HW3 9458   3.282   3.916   3.855  0.2210  0.5440  1.3060
 2351SOL    MW4 9459   3.356   3.874   3.876  0.1259 -0.2828  0.0603
 2352SOL     OW 9460   3.129   3.997   3.822 -0.1695 -0.0975  0.5407
 2352SOL    HW2 9461   3.113   4.083   3.862 -0.0297 -0.4737  1.4188
 2352SOL    HW3 9462   3.056   3.943   3.853 -1.1568  0.1184 -1.3108
 2352SOL    MW4 9463   3.117   4.001   3.831 -0.2813 -0.1187  0.4125
 2353SOL     OW 9464   3.130   4.259   3.909  0.2653 -0.1079  0.3548
 2353SOL    HW2 9465   3.162   4.258   3.999  0.4579 -0.8530  0.2826
 2353SOL    HW3 9466   3.207   4.281   3.857 -0.3411  2.5937  0.5517
 2353SOL    MW4 9467   3.145   4.262   3.914  0.2108  0.1502  0.3712
 2354SOL     OW 9468   3.360   4.371   3.799  0.1905 -0.0850 -0.1103
 2354SOL    HW2 9469   3.429   4.316   3.836 -1.5836 -1.0900  1.7986
 2354SOL    HW3 9470   3.379   4.459   3.833  1.0408 -0.1730 -0.3411
 2354SOL    MW4 9471   3.372   4.375   3.809  0.0689 -0.2289  0.1113
 2355SOL     OW 9472   3.795   4.623   3.880  0.1405 -0.0517  0.1369
 2355SOL    HW2 9473   3.862   4.681   3.844  1.2783 -0.6190  1.3286
 2355SOL    HW3 9474   3.815   4.537   3.845 -0.2416 -0.1421  0.1325
 2355SOL    MW4 9475   3.806   4.619   3.871  0.2401 -0.1383  0.2937
 2356SOL     OW 9476   3.596   0.093   3.746 -0.1461 -0.3982 -0.1700
 2356SOL    HW2 9477   3.662   0.045   3.796 -1.5419 -0.9635  1.2140
 2356SOL    HW3 9478   3.611   0.068   3.655  2.4468  0.6404 -0.0604
 2356SOL    MW4 9479   3.606   0.083   3.741  0.0119 -0.3358  0.0269
 2357SOL     OW 9480   3.594   0.352   3.839  0.0862 -0.1244  0.8613
 2357SOL    HW2 9481   3.663   0.411   3.811 -0.3975  0.5729  1.1260
 2357SOL    HW3 9482   3.607   0.273   3.786 -0.4307  0.9279 -0.8773
 2357SOL    MW4 9483   3.605   0.349   3.828 -0.0458  0.1064  0.6669
 2358SOL     OW 9484   3.833   0.487   3.753  0.3207 -0.5197 -0.1647
 2358SOL    HW2 9485   3.899   0.436   3.801  0.6643  1.0291  1.0482
 2358SOL    HW3 9486   3.844   0.576   3.786 -0.7523  0.2028 -1.7420
 2358SOL    MW4 9487   3.843   0.492   3.764  0.2244 -0.2200 -0.2127
 2359SOL     OW 9488   3.879   0.729   3.871 -0.0170 -0.3697  0.5896
 2359SOL    HW2 9489   3.962   0.777   3.870  0.9045 -1.9671 -0.4015
 2359SOL    HW3 9490   3.815   0.791   3.836  0.9390  0.5286  0.4106
 2359SOL    MW4 9491   3.882   0.744   3.867  0.2308 -0.4619  0.4351
 2360SOL     OW 9492   3.672   0.877   3.776  0.3526  0.4513  0.3967
 2360SOL    HW2 9493   3.646   0.963   3.809  1.6038  0.4014  1.5454
 2360SOL    HW3 9494   3.595   0.821   3.791 -1.0650  1.7172 -1.8684
 2360SOL    MW4 9495   3.658   0.881   3.782  0.3304  0.6117  0.2491
 2361SOL     OW 9496   3.614   1.155   3.860 -0.0295 -0.6408  0.1118
 2361SOL    HW2 9497   3.682   1.193   3.804  0.0464 -0.6612  0.1919
 2361SOL    HW3 9498   3.533   1.198   3.831  0.0415 -0.4959  0.1307
 2361SOL    MW4 9499   3.612   1.166   3.848 -0.0100 -0.6244  0.1245
 2362SOL     OW 9500   3.810   1.299   3.735  0.2366 -0.0802  0.5760
 2362SOL    HW2 9501   3.879   1.253   3.783 -0.8015  0.3176  2.4902
 2362SOL    HW3 9502   3.785   1.371   3.792 -0.8152  0.5972 -0.7135
 2362SOL    MW4 9503   3.816   1.302   3.749 -0.0391  0.0615  0.6588
 2363SOL     OW 9504   3.790   1.532   3.860 -0.4862 -0.2141 -0.1172
 2363SOL    HW2 9505   3.778   1.538   3.955 -1.4904 -0.3159 -0.2285
 2363SOL    HW3 9506   3.720   1.585   3.824  0.4547  0.5661 -0.7955
 2363SOL    MW4 9507   3.779   1.540   3.868 -0.4945 -0.1245 -0.2217
 2364SOL     OW 9508   3.573   1.682   3.757  0.2131 -0.2901 -0.0438
 2364SOL    HW2 9509   3.505   1.622   3.786  1.0667 -1.4620 -0.4392
 2364SOL    HW3 9510   3.567   1.681   3.661 -0.2028  0.7760 -0.0440
 2364SOL    MW4 9511   3.563   1.674   3.748  0.2708 -0.3041 -0.0958
 2365SOL     OW 9512   3.593   1.930   3.884 -0.2475 -0.4571  0.3350
 2365SOL    HW2 9513   3.578   1.843   3.847 -0.1127  0.3425 -1.6273
 2365SOL    HW3 9514   3.520   1.983   3.852  1.0061  0.7753 -0.5626
 2365SOL    MW4 9515   3.581   1.925   3.875 -0.0644 -0.1891 -0.0422
 2366SOL     OW 9516   3.808   2.048   3.755  0.1413 -0.0340 -0.1009
 2366SOL    HW2 9517   3.896   2.013   3.766  0.5488  1.0516  0.1461
 2366SOL    HW3 9518   3.755   2.000   3.819  0.3929 -1.2348 -0.7872
 2366SOL    MW4 9519   3.812   2.037   3.765  0.2284 -0.0494 -0.1588
 2367SOL     OW 9520   3.819   2.324   3.887  0.4584 -0.1964  0.2078
 2367SOL    HW2 9521   3.746   2.381   3.863  0.8650  0.0055 -0.5497
 2367SOL    HW3 9522   3.801   2.241   3.843  0.5820 -0.2066  0.1746
 2367SOL    MW4 9523   3.807   2.321   3.878  0.5286 -0.1712  0.1035
 2368SOL     OW 9524   3.606   2.457   3.773 -0.1790 -0.2772 -0.3958
 2368SOL    HW2 9525   3.526   2.410   3.797 -0.5178 -0.3663 -1.6553
 2368SOL    HW3 9526   3.607   2.454   3.677  0.5543  1.0384 -0.4349
 2368SOL    MW4 9527   3.595   2.450   3.763 -0.1268 -0.1154 -0.5670
 2369SOL     OW 9528   3.589   2.724   3.872 -0.0492  0.0301 -0.2326
 2369SOL    HW2 9529   3.591   2.629   3.865 -0.1222  0.0077  0.0509
 2369SOL    HW3 9530   3.503   2.748   3.840 -0.4373 -0.0842  0.7079
 2369SOL    MW4 9531   3.578   2.715   3.867 -0.1101  0.0119 -0.0710
 2370SOL     OW 9532   3.824   2.820   3.734  0.0038 -0.0251 -0.4648
 2370SOL    HW2 9533   3.891   2.782   3.790  0.6655  0.4549 -0.9263
 2370SOL    HW3 9534   3.742   2.781   3.765  0.2637  0.8120  1.3244
 2370SOL    MW4 9535   3.822   2.810   3.745  0.1256  0.1490 -0.2897
 2371SOL     OW 9536   3.859   3.070   3.840 -0.5267 -0.0513  0.2070
 2371SOL    HW2 9537   3.782   3.123   3.822 -1.4730 -1.1293  0.9930
 2371SOL    HW3 9538   3.832   2.980   3.821  0.3324 -0.5092  1.0867
 2371SOL    MW4 9539   3.846   3.065   3.835 -0.5383 -0.2539  0.4263
 2372SOL     OW 9540   3.627   3.210   3.800 -0.2835 -0.4075  0.2160
 2372SOL    HW2 9541   3.625   3.303   3.823 -0.5117 -0.4710  0.4507
 2372SOL    HW3 9542   3.611   3.208   3.705  0.6202 -0.1484  0.0586
 2372SOL    MW4 9543   3.625   3.222   3.790 -0.1945 -0.3819  0.2260
 2373SOL     OW 9544   3.588   3.458   3.896 -0.0806  0.1680 -0.1881
 2373SOL    HW2 9545   3.599   3.476   3.989  1.6305  0.8963 -0.5239
 2373SOL    HW3 9546   3.498   3.485   3.878 -0.3863  0.1552  1.2172
 2373SOL    MW4 9547   3.577   3.464   3.906  0.1047  0.2623 -0.0472
 2374SOL     OW 9548   3.826   3.601   3.779  0.2672  0.6842 -0.3950
 2374SOL    HW2 9549   3.817   3.689   3.817 -1.5020  1.3842 -2.2938
 2374SOL    HW3 9550   3.749   3.554   3.810  0.4499  0.2881 -0.5469
 2374SOL    MW4 9551   3.815   3.607   3.788  0.0582  0.7243 -0.6657
 2375SOL     OW 9552   3.813   3.850   3.890 -0.3413  0.1735  0.3874
 2375SOL    HW2 9553   3.818   3.864   3.985  0.5260 -0.7697  0.5017
 2375SOL    HW3 9554   3.896   3.884   3.857 -0.4693  0.1274  0.0194
 2375SOL    MW4 9555   3.825   3.856   3.898 -0.2437  0.0429  0.3541
 2376SOL     OW 9556   3.591   3.998   3.814 -0.5152 -0.3445 -0.2823
 2376SOL    HW2 9557   3.605   4.089   3.838 -1.1823  0.1662 -1.7854
 2376SOL    HW3 9558   3.672   3.954   3.840 -0.0554  0.7212  0.1361
 2376SOL    MW4 9559   3.603   4.004   3.821 -0.5426 -0.1364 -0.4253
 2377SOL     OW 9560   3.602   4.255   3.889 -0.3484  0.6212 -0.2384
 2377SOL    HW2 9561   3.616   4.269   3.983 -0.1991 -3.3308  0.4142
 2377SOL    HW3 9562   3.673   4.304   3.847 -0.2915  2.2750  1.6989
 2377SOL    MW4 9563   3.613   4.263   3.896 -0.3209  0.3185  0.1032
 2378SOL     OW 9564   3.837   4.375   3.785  0.4249  0.4601  0.1660
 2378SOL    HW2 9565   3.896   4.305   3.812 -2.0749 -1.5834  0.5556
 2378SOL    HW3 9566   3.844   4.376   3.689  1.1323  0.2622  0.2155
 2378SOL    MW4 9567   3.846   4.366   3.776  0.1886  0.1645  0.2239
 2379SOL     OW 9568   4.273   4.618   3.860 -0.1427  0.1767 -0.1193
 2379SOL    HW2 9569   4.272   4.607   3.955  0.1825  0.1635 -0.1161
 2379SOL    HW3 9570   4.362   4.649   3.840  0.0844 -0.7105 -0.5167
 2379SOL    MW4 9571   4.285   4.621   3.870 -0.0701  0.0572 -0.1717
 2380SOL     OW 9572   4.032   0.074   3.761  0.0099  0.2030 -0.0959
 2380SOL    HW2 9573   4.102   0.020   3.797 -0.6377 -0.3199  0.4042
 2380SOL    HW3 9574   4.039   0.064   3.666  0.6992  0.2687 -0.0507
 2380SOL    MW4 9575   4.042   0.065   3.753  0.0153  0.1427 -0.0238
 2381SOL     OW 9576   4.029   0.350   3.859 -0.1451  0.0130 -0.0897
 2381SOL    HW2 9577   4.039   0.351   3.954  0.0218  0.8335 -0.1121
 2381SOL    HW3 9578   4.042   0.258   3.835 -1.3098 -0.3918  0.7891
 2381SOL    MW4 9579   4.032   0.338   3.868 -0.2770  0.0679  0.0234
 2382SOL     OW 9580   4.323   0.446   3.784  0.2035  0.0230  0.1592
 2382SOL    HW2 9581   4.241   0.398   3.798  0.4134 -0.4805 -0.3312
 2382SOL    HW3 9582   4.321   0.470   3.691  1.9074 -2.4454 -0.5839
 2382SOL    MW4 9583   4.312   0.443   3.774  0.4554 -0.3691 -0.0038
 2383SOL     OW 9584   4.311   0.714   3.903  0.1619  0.3296  0.4481
 2383SOL    HW2 9585   4.246   0.769   3.859  1.7927  2.0606  0.0984
 2383SOL    HW3 9586   4.316   0.635   3.850 -0.9102  0.6329 -0.1143
 2383SOL    MW4 9587   4.303   0.711   3.890  0.2360  0.5980  0.3276
 2384SOL     OW 9588   4.119   0.893   3.796  0.5025 -0.1032 -0.4321
 2384SOL    HW2 9589   4.074   0.967   3.838  2.5671  0.2510  1.2476
 2384SOL    HW3 9590   4.082   0.890   3.708 -3.2051 -0.1807  0.9957
 2384SOL    MW4 9591   4.108   0.902   3.790  0.2856 -0.0668 -0.0219
 2385SOL     OW 9592   4.004   1.154   3.865 -0.5029 -0.0312  0.0013
 2385SOL    HW2 9593   3.998   1.157   3.960 -2.4330  1.5968 -0.1529
 2385SOL    HW3 9594   4.090   1.190   3.845 -0.4343  0.4296  1.0915
 2385SOL    MW4 9595   4.014   1.159   3.875 -0.7486  0.2445  0.1247
 2386SOL     OW 9596   4.258   1.193   3.756 -0.0198 -0.1279 -0.5635
 2386SOL    HW2 9597   4.274   1.282   3.787 -0.1334 -0.4421  0.4278
 2386SOL    HW3 9598   4.257   1.200   3.661  0.0724  0.9112 -0.4918
 2386SOL    MW4 9599   4.260   1.205   3.748 -0.0229 -0.0323 -0.4234
 2387SOL     OW 9600   4.269   1.452   3.846 -0.2789 -0.1156 -0.3770
 2387SOL    HW2 9601   4.187   1.491   3.817 -0.1894  0.3719  0.0285
 2387SOL    HW3 9602   4.337   1.515   3.821 -0.1080 -0.1345  0.0210
 2387SOL    MW4 9603   4.267   1.465   3.839 -0.2451 -0.0539 -0.2711
 2388SOL     OW 9604   4.049   1.629   3.782 -0.4620 -0.4251  0.1272
 2388SOL    HW2 9605   4.032   1.721   3.802 -0.8353 -0.4632 -0.0193
 2388SOL    HW3 9606   3.970   1.583   3.810 -0.0666 -0.7702  0.6827
 2388SOL    MW4 9607   4.036   1.635   3.788 -0.4587 -0.4756  0.1810
 2389SOL     OW 9608   4.035   1.911   3.816  0.3590 -0.3615 -0.0564
 2389SOL    HW2 9609   4.052   1.899   3.910  0.7269 -1.8550 -0.2872
 2389SOL    HW3 9610   4.119   1.940   3.781  0.3998 -0.4458 -0.0276
 2389SOL    MW4 9611   4.049   1.913   3.824  0.4125 -0.5697 -0.0832
 2390SOL     OW 9612   4.287   2.011   3.748 -0.1090 -0.1006  0.2188
 2390SOL    HW2 9613   4.283   2.104   3.769 -0.4871  0.0597 -0.5557
 2390SOL    HW3 9614   4.295   2.008   3.653 -0.2698 -0.8647  0.2251
 2390SOL    MW4 9615   4.288   2.023   3.739 -0.1802 -0.1802  0.1175
 2391SOL     OW 9616   4.290   2.274   3.819 -0.7830  0.1471  0.0945
 2391SOL    HW2 9617   4.287   2.270   3.915 -1.1611  0.7396  0.1073
 2391SOL    HW3 9618   4.206   2.312   3.794 -0.4388  0.5577 -0.4424
 2391SOL    MW4 9619   4.279   2.278   3.829 -0.7873  0.2797  0.0253
 2392SOL     OW 9620   4.030   2.437   3.780 -0.3515  0.3578  0.3545
 2392SOL    HW2 9621   4.029   2.526   3.813 -1.0286  0.4398  0.1193
 2392SOL    HW3 9622   3.959   2.392   3.826 -0.3030  0.0614  0.1469
 2392SOL    MW4 9623   4.021   2.442   3.790 -0.4344  0.3295  0.2961
 2393SOL     OW 9624   4.015   2.693   3.873  0.4102  0.3391  0.0247
 2393SOL    HW2 9625   4.037   2.698   3.966 -0.0135  1.5055  0.0685
 2393SOL    HW3 9626   4.086   2.740   3.829 -0.7334  2.0669 -0.0210
 2393SOL    MW4 9627   4.027   2.700   3.880  0.2036  0.7210  0.0243
 2394SOL     OW 9628   4.241   2.828   3.746  0.0284  0.2578  0.0145
 2394SOL    HW2 9629   4.236   2.910   3.795  1.3187 -0.0158  0.6091
 2394SOL    HW3 9630   4.304   2.775   3.794  0.7102 -0.3237 -1.4947
 2394SOL    MW4 9631   4.248   2.832   3.759  0.2885  0.1450 -0.1061
 2395SOL     OW 9632   4.286   3.068   3.877  0.6185 -0.0514  0.2561
 2395SOL    HW2 9633   4.216   3.125   3.846 -0.4290 -0.6906  1.3898
 2395SOL    HW3 9634   4.366   3.115   3.857 -0.2344  1.9739  1.4724
 2395SOL    MW4 9635   4.287   3.082   3.870  0.3676  0.1316  0.5662
 2396SOL     OW 9636   4.073   3.225   3.797  0.4364  0.1423 -0.0473
 2396SOL    HW2 9637   4.001   3.164   3.813  1.0645 -0.6748 -0.2810
 2396SOL    HW3 9638   4.072   3.239   3.702  2.6690 -2.5320 -0.5277
 2396SOL    MW4 9639   4.063   3.219   3.787  0.8140 -0.3181 -0.1414
 2397SOL     OW 9640   4.065   3.501   3.899 -0.4118  0.4921 -0.0976
 2397SOL    HW2 9641   4.082   3.415   3.861  0.0266 -0.7576  2.8011
 2397SOL    HW3 9642   3.984   3.531   3.857 -0.7457 -1.4843 -0.8925
 2397SOL    MW4 9643   4.057   3.494   3.888 -0.3977  0.0665  0.1798
 2398SOL     OW 9644   4.305   3.600   3.784 -0.1651 -0.1373 -0.2750
 2398SOL    HW2 9645   4.220   3.561   3.806 -0.8193  0.9558 -0.8438
 2398SOL    HW3 9646   4.369   3.544   3.828 -1.2489 -0.1883  1.2672
 2398SOL    MW4 9647   4.302   3.587   3.793 -0.3943  0.0002 -0.1469
 2399SOL     OW 9648   4.268   3.840   3.899 -0.2044  0.0356 -0.0187
 2399SOL    HW2 9649   4.184   3.873   3.867 -0.2334  0.3334  0.3685
 2399SOL    HW3 9650   4.268   3.748   3.873 -0.0702  0.3622 -1.1989
 2399SOL    MW4 9651   4.257   3.832   3.891 -0.1903  0.1175 -0.1230
 2400SOL     OW 9652   4.045   3.972   3.778  0.2013 -0.5891  0.0440
 2400SOL    HW2 9653   4.055   4.064   3.803  1.0408 -0.5209 -0.5343
 2400SOL    HW3 9654   4.047   3.973   3.682  0.3005 -1.2231  0.0368
 2400SOL    MW4 9655   4.046   3.984   3.768  0.3257 -0.6638 -0.0334
 2401SOL     OW 9656   4.064   4.225   3.893 -0.3544  0.0609 -0.2184
 2401SOL    HW2 9657   4.062   4.228   3.989 -1.5048  0.5181 -0.2480
 2401SOL    HW3 9658   4.135   4.285   3.869 -1.4523  1.6146  0.2929
 2401SOL    MW4 9659   4.073   4.233   3.903 -0.6509  0.3266 -0.1547
 2402SOL     OW 9660   4.272   4.364   3.791 -0.0825 -0.2292 -0.3705
 2402SOL    HW2 9661   4.289   4.451   3.826 -0.1980 -0.7530  1.0360
 2402SOL    HW3 9662   4.352   4.315   3.810 -0.3655 -0.6819 -0.3327
 2402SOL    MW4 9663   4.285   4.369   3.798 -0.1349 -0.3586 -0.1798
 2403SOL     OW 9664   0.221   4.642   4.193  0.0381 -0.2469  0.0010
 2403SOL    HW2 9665   0.246   4.550   4.184  1.3009 -0.0920  1.6025
 2403SOL    HW3 9666   0.298   4.684   4.230 -0.4040  1.5423 -1.0448
 2403SOL    MW4 9667   0.234   4.635   4.197  0.1464  0.0095  0.0739
 2404SOL     OW 9668   0.027   0.145   4.155 -0.1561  0.0632  0.3950
 2404SOL    HW2 9669   0.100   0.084   4.147  1.0695  1.3858  1.1294
 2404SOL    HW3 9670   0.023   0.189   4.070 -0.4718 -0.4139  0.1620
 2404SOL    MW4 9671   0.036   0.143   4.143 -0.0360  0.1748  0.4621
 2405SOL     OW 9672   0.019   0.355   4.345 -0.1807  0.3938 -0.3430
 2405SOL    HW2 9673   0.026   0.283   4.282  1.0862  0.8243 -0.7196
 2405SOL    HW3 9674   0.001   0.313   4.428 -0.5483 -0.2838 -0.7657
 2405SOL    MW4 9675   0.018   0.340   4.347 -0.0620  0.3611 -0.4482
 2406SOL     OW 9676   0.450   0.320   4.171  0.0488  0.1113 -0.2158
 2406SOL    HW2 9677   0.471   0.348   4.082  1.9516  0.6997  0.3800
 2406SOL    HW3 9678   0.373   0.372   4.195  0.5673  1.2310 -0.9136
 2406SOL    MW4 9679   0.442   0.331   4.163  0.3682  0.3367 -0.2294
 2407SOL     OW 9680   0.291   0.701   4.090 -0.3959  0.3015  0.0984
 2407SOL    HW2 9681   0.290   0.624   4.146 -1.1860  0.5762  0.4667
 2407SOL    HW3 9682   0.374   0.745   4.111 -1.1323  0.9247  1.7792
 2407SOL    MW4 9683   0.302   0.697   4.100 -0.5973  0.4200  0.3691
 2408SOL     OW 9684   0.261   0.486   4.288  0.0256 -0.0640  0.0706
 2408SOL    HW2 9685   0.294   0.534   4.364 -1.1701  1.6546 -0.4863
 2408SOL    HW3 9686   0.180   0.445   4.319 -0.7028  1.0157 -0.4158
 2408SOL    MW4 9687   0.255   0.487   4.302 -0.2283  0.3051 -0.0668
 2409SOL     OW 9688   0.005   1.138   4.173  0.0777 -0.1118 -0.3561
 2409SOL    HW2 9689  -0.016   1.127   4.081 -1.5449 -0.9828  0.0970
 2409SOL    HW3 9690   0.036   1.052   4.202 -2.1924 -0.6370  0.5880
 2409SOL    MW4 9691   0.006   1.126   4.165 -0.4359 -0.2960 -0.1721
 2410SOL     OW 9692   0.675   0.713   4.336  0.3755  0.0150 -0.1619
 2410SOL    HW2 9693   0.623   0.774   4.388 -0.3763 -0.1006 -0.7591
 2410SOL    HW3 9694   0.644   0.727   4.246 -0.6766 -2.0974 -0.1511
 2410SOL    MW4 9695   0.664   0.723   4.331  0.1374 -0.2789 -0.2394
 2411SOL     OW 9696   2.907   3.584   4.573 -0.1859 -0.1493  0.5251
 2411SOL    HW2 9697   2.984   3.628   4.609 -0.6745  0.7958  0.4330
 2411SOL    HW3 9698   2.928   3.491   4.579  1.2574  0.1160 -0.1530
 2411SOL    MW4 9699   2.920   3.577   4.578 -0.0598  0.0103  0.4234
 2412SOL     OW 9700   4.441   1.678   4.213 -0.6244 -0.5016 -0.0289
 2412SOL    HW2 9701   4.411   1.672   4.304 -0.8585 -0.6958 -0.1197
 2412SOL    HW3 9702   4.471   1.769   4.204 -1.6066 -0.1754 -0.0727
 2412SOL    MW4 9703   4.441   1.689   4.224 -0.7849 -0.4842 -0.0463
 2413SOL     OW 9704   2.512   2.891   4.416  0.1205 -0.3604  0.2809
 2413SOL    HW2 9705   2.580   2.823   4.413 -0.0507 -0.6217  1.8653
 2413SOL    HW3 9706   2.439   2.850   4.461 -0.3470  0.5736  0.3855
 2413SOL    MW4 9707   2.512   2.876   4.421  0.0365 -0.2716  0.5040
 2414SOL     OW 9708   4.339   1.725   4.490  0.7471 -0.0337  0.1828
 2414SOL    HW2 9709   4.327   1.817   4.467  0.0800  0.0222  0.7541
 2414SOL    HW3 9710   4.251   1.694   4.512  0.9200 -0.8869 -0.3046
 2414SOL    MW4 9711   4.326   1.733   4.490  0.6824 -0.1389  0.1941
 2415SOL     OW 9712   0.284   2.318   4.160 -0.1882 -0.1722  0.7647
 2415SOL    HW2 9713   0.359   2.365   4.197 -0.0121 -0.1674  0.4047
 2415SOL    HW3 9714   0.208   2.365   4.193 -0.0462 -0.5045  1.5741
 2415SOL    MW4 9715   0.284   2.330   4.169 -0.1463 -0.2153  0.8235
 2416SOL     OW 9716   0.528   3.136   4.497  0.3278  0.5578 -0.0156
 2416SOL    HW2 9717   0.474   3.201   4.543  0.8165  0.3103  0.9092
 2416SOL    HW3 9718   0.617   3.171   4.503  0.3748  0.5895 -0.8873
 2416SOL    MW4 9719   0.533   3.150   4.504  0.3985  0.5295 -0.0086
 2417SOL     OW 9720   0.030   2.424   4.240 -0.0572  0.0587  0.1320
 2417SOL    HW2 9721   0.022   2.516   4.213 -0.8583 -0.1210 -0.2577
 2417SOL    HW3 9722   0.014   2.425   4.334  0.5710  0.4057  0.2354
 2417SOL    MW4 9723   0.027   2.437   4.249 -0.0800  0.0808  0.0944
 2418SOL     OW 9724   1.847   1.937   4.601 -0.1934  0.1894  0.0133
 2418SOL    HW2 9725   1.874   1.902   4.686  2.8504  1.3015 -0.4111
 2418SOL    HW3 9726   1.857   2.032   4.610 -2.9410  0.5734 -0.5959
 2418SOL    MW4 9727   1.852   1.945   4.613 -0.1544  0.3868 -0.1225
 2419SOL     OW 9728   0.201   3.079   4.195  0.5050 -0.2631  0.2273
 2419SOL    HW2 9729   0.281   3.131   4.207 -0.0191  0.6434 -0.1334
 2419SOL    HW3 9730   0.133   3.130   4.240  0.2423 -1.3497  1.0947
 2419SOL    MW4 9731   0.203   3.093   4.203  0.4012 -0.2871  0.2937
 2420SOL     OW 9732   0.005   3.212   4.329 -0.4469 -0.0270 -0.1463
 2420SOL    HW2 9733  -0.000   3.301   4.293 -0.5946 -0.1478 -0.4288
 2420SOL    HW3 9734  -0.063   3.164   4.283  0.6331 -0.6660 -1.1133
 2420SOL    MW4 9735  -0.004   3.218   4.318 -0.3238 -0.1273 -0.3114
 2421SOL     OW 9736   4.478   3.458   4.202 -0.2724 -0.1242 -0.1466
 2421SOL    HW2 9737   4.413   3.524   4.225 -0.3765 -0.4925  0.6362
 2421SOL    HW3 9738   4.472   3.450   4.107  0.1108  1.3697 -0.3131
 2421SOL    MW4 9739   4.469   3.466   4.192 -0.2356  0.0248 -0.0648
 2422SOL     OW 9740   0.198   3.636   4.227 -0.0227 -0.0099  0.3897
 2422SOL    HW2 9741   0.281   3.588   4.227  0.3412  0.5899 -1.5500
 2422SOL    HW3 9742   0.132   3.569   4.209  0.1235 -0.3439  1.0772
 2422SOL    MW4 9743   0.201   3.621   4.225  0.0446  0.0253  0.2251
 2423SOL     OW 9744   0.199   3.901   4.124 -0.1546  0.5994 -0.2070
 2423SOL    HW2 9745   0.204   3.814   4.164  2.1103  1.0894  0.6472
 2423SOL    HW3 9746   0.141   3.951   4.182  1.5909  0.7412  1.4605
 2423SOL    MW4 9747   0.192   3.896   4.137  0.3746  0.6826  0.1249
 2424SOL     OW 9748   0.242   0.045   4.889  0.4837  0.1418 -0.0617
 2424SOL    HW2 9749   0.269  -0.002   4.810 -0.0356 -2.4758  1.2634
 2424SOL    HW3 9750   0.307   0.020   4.955 -1.5963 -1.3018  1.4967
 2424SOL    MW4 9751   0.254   0.036   4.887  0.1408 -0.3940  0.3185
 2425SOL     OW 9752   0.068   4.251   4.121  0.5448  0.7725 -0.5626
 2425SOL    HW2 9753  -0.017   4.286   4.151 -0.1265 -0.4674 -0.9884
 2425SOL    HW3 9754   0.054   4.232   4.028  1.1852  0.2420 -0.5482
 2425SOL    MW4 9755   0.055   4.254   4.113  0.5407  0.5388 -0.6166
 2426SOL     OW 9756   0.412   4.243   4.299  0.1457 -0.6361  0.4528
 2426SOL    HW2 9757   0.414   4.298   4.377  0.2936 -1.6969  1.2112
 2426SOL    HW3 9758   0.376   4.299   4.231  0.9117  0.6061  1.0468
 2426SOL    MW4 9759   0.408   4.258   4.301  0.2663 -0.6127  0.6313
 2427SOL     OW 9760   4.403   4.376   4.503  0.1840 -0.4180 -0.2459
 2427SOL    HW2 9761   4.453   4.457   4.490 -0.6406  0.1029 -0.2222
 2427SOL    HW3 9762   4.469   4.309   4.516  0.8632  0.5337  1.3494
 2427SOL    MW4 9763   4.418   4.378   4.503  0.1645 -0.2241 -0.0329
 2428SOL     OW 9764   0.657   4.577   4.186 -0.0433 -0.0916  0.0319
 2428SOL    HW2 9765   0.583   4.623   4.226  1.2930  1.4534  0.8437
 2428SOL    HW3 9766   0.650   4.596   4.093 -0.2085  0.7471  0.2086
 2428SOL    MW4 9767   0.647   4.586   4.179  0.1112  0.2222  0.1616
 2429SOL     OW 9768   0.682   0.434   4.306 -0.1867  0.0397  0.8019
 2429SOL    HW2 9769   0.678   0.528   4.324  0.7721  0.4053 -0.8126
 2429SOL    HW3 9770   0.594   0.412   4.275 -0.4540  0.3616  1.3126
 2429SOL    MW4 9771   0.670   0.443   4.304 -0.0954  0.1304  0.6561
 2430SOL     OW 9772   1.427   2.372   4.522 -0.0940 -0.1119 -0.6958
 2430SOL    HW2 9773   1.412   2.411   4.436  1.1320  1.2508 -0.3018
 2430SOL    HW3 9774   1.520   2.382   4.538 -0.0835 -1.5385  0.2416
 2430SOL    MW4 9775   1.437   2.379   4.513  0.0693 -0.1202 -0.5198
 2431SOL     OW 9776   0.558   0.799   4.098 -0.3594 -0.4671 -0.1665
 2431SOL    HW2 9777   0.583   0.771   4.011 -1.1032  0.3431 -0.6569
 2431SOL    HW3 9778   0.557   0.895   4.093  0.3927 -0.3947  0.9557
 2431SOL    MW4 9779   0.561   0.808   4.086 -0.3583 -0.3507 -0.0834
 2432SOL     OW 9780   1.648   1.214   4.513  0.4722  0.3561  0.2127
 2432SOL    HW2 9781   1.711   1.141   4.518  0.8524  0.5851 -1.0634
 2432SOL    HW3 9782   1.675   1.273   4.584  1.5333  0.3208 -0.1496
 2432SOL    MW4 9783   1.660   1.212   4.523  0.6624  0.3817 -0.0033
 2433SOL     OW 9784   0.107   0.782   4.510  0.3275 -0.1295  0.5286
 2433SOL    HW2 9785   0.028   0.786   4.564  0.9191  1.4652  1.3056
 2433SOL    HW3 9786   0.082   0.822   4.428 -0.0676 -0.9407  0.2447
 2433SOL    MW4 9787   0.093   0.788   4.507  0.3534 -0.0262  0.5941
 2434SOL     OW 9788   0.519   1.084   4.098  0.2427 -0.7144 -0.3845
 2434SOL    HW2 9789   0.607   1.119   4.116 -0.3889  0.4547  0.4693
 2434SOL    HW3 9790   0.502   1.111   4.008  0.0211  0.6638  0.0569
 2434SOL    MW4 9791   0.529   1.092   4.088  0.1302 -0.3783 -0.2136
 2435SOL     OW 9792   0.660   1.464   4.175 -0.4600 -0.3489  0.0755
 2435SOL    HW2 9793   0.720   1.530   4.210 -0.1250 -1.0429  0.8345
 2435SOL    HW3 9794   0.652   1.486   4.082 -0.7733  1.0691  0.4199
 2435SOL    MW4 9795   0.667   1.476   4.167 -0.4570 -0.2533  0.2213
 2436SOL     OW 9796   0.189   1.555   4.128  0.8425  0.4440  0.2806
 2436SOL    HW2 9797   0.181   1.485   4.193 -1.1131  0.2606 -0.1200
 2436SOL    HW3 9798   0.107   1.605   4.136  1.1989  1.2799 -1.0425
 2436SOL    MW4 9799   0.177   1.553   4.138  0.6315  0.5301  0.0529
 2437SOL     OW 9800   0.461   1.916   4.187  0.3766 -0.4041  0.0676
 2437SOL    HW2 9801   0.434   1.826   4.207  0.6152 -0.5108 -0.0861
 2437SOL    HW3 9802   0.470   1.917   4.091  0.5913 -0.2774  0.0895
 2437SOL    MW4 9803   0.459   1.904   4.177  0.4364 -0.4015  0.0501
 2438SOL     OW 9804   0.676   2.075   4.281 -0.2905 -0.0032  0.2230
 2438SOL    HW2 9805   0.678   2.098   4.374  0.3195  1.3377 -0.1031
 2438SOL    HW3 9806   0.605   2.012   4.274  0.4794 -1.1013  1.8134
 2438SOL    MW4 9807   0.667   2.070   4.293 -0.1084  0.0288  0.3901
 2439SOL     OW 9808   0.658   2.323   4.171  0.2026  0.1384  0.4096
 2439SOL    HW2 9809   0.657   2.232   4.201 -0.8041  0.0646  0.1714
 2439SOL    HW3 9810   0.639   2.317   4.078 -4.1009  0.8567  1.1633
 2439SOL    MW4 9811   0.656   2.310   4.163 -0.4981  0.2234  0.4778
 2440SOL     OW 9812   0.468   2.470   4.291 -0.2567  0.0378  0.0946
 2440SOL    HW2 9813   0.469   2.546   4.233  0.7883  0.4177  0.6097
 2440SOL    HW3 9814   0.550   2.424   4.272 -1.4651 -1.6913 -1.1617
 2440SOL    MW4 9815   0.479   2.474   4.281 -0.2783 -0.1400 -0.0033
 2441SOL     OW 9816   0.466   2.724   4.180  0.2152  0.0649  0.0248
 2441SOL    HW2 9817   0.558   2.726   4.205  0.2750 -0.7923 -0.1165
 2441SOL    HW3 9818   0.467   2.728   4.084  0.1119 -0.0453  0.0182
 2441SOL    MW4 9819   0.478   2.725   4.171  0.2095 -0.0627  0.0057
 2442SOL     OW 9820   0.708   2.829   4.293 -0.0088  0.2547 -0.1533
 2442SOL    HW2 9821   0.790   2.792   4.261  0.0902  0.4912 -0.1734
 2442SOL    HW3 9822   0.717   2.826   4.388  0.0296  0.2989 -0.1555
 2442SOL    MW4 9823   0.720   2.824   4.301  0.0093  0.2918 -0.1564
 2443SOL     OW 9824   0.670   3.077   4.180 -0.1956  0.2322 -0.3389
 2443SOL    HW2 9825   0.669   2.992   4.223  1.3409 -0.0479 -0.8422
 2443SOL    HW3 9826   0.587   3.117   4.206  0.3114 -0.2552  2.2421
 2443SOL    MW4 9827   0.659   3.071   4.189  0.0740  0.1309 -0.0644
 2444SOL     OW 9828   1.012   2.691   4.668 -0.6644 -0.0065  0.0661
 2444SOL    HW2 9829   1.051   2.670   4.753  1.9343  0.9958 -0.8431
 2444SOL    HW3 9830   0.992   2.606   4.629  0.9096 -0.5568  0.4355
 2444SOL    MW4 9831   1.015   2.677   4.674 -0.1138  0.0532 -0.0048
 2445SOL     OW 9832   0.456   3.505   4.174 -0.6299 -0.0820 -0.5193
 2445SOL    HW2 9833   0.546   3.526   4.199 -0.3528 -1.8042  0.0323
 2445SOL    HW3 9834   0.458   3.498   4.078 -0.1379 -0.3017 -0.4922
 2445SOL    MW4 9835   0.468   3.507   4.165 -0.5284 -0.3381 -0.4425
 2446SOL     OW 9836   0.674   3.868   4.145  0.1658  0.1962  0.2324
 2446SOL    HW2 9837   0.585   3.896   4.168 -0.6140 -1.2043 -0.9848
 2446SOL    HW3 9838   0.679   3.778   4.177  1.0433  0.1714  0.0153
 2446SOL    MW4 9839   0.663   3.860   4.152  0.1788  0.0081  0.0434
 2447SOL     OW 9840   0.711   3.596   4.252  0.2099  0.4457  0.0339
 2447SOL    HW2 9841   0.709   3.596   4.347  1.0922  0.0709  0.0630
 2447SOL    HW3 9842   0.771   3.525   4.229 -1.2990 -0.5716 -0.8508
 2447SOL    MW4 9843   0.719   3.587   4.261  0.1272  0.2620 -0.0792
 2448SOL     OW 9844   4.458   2.643   4.619 -0.0929 -0.2966  0.1576
 2448SOL    HW2 9845   4.449   2.657   4.714 -0.7906  0.4360 -0.0059
 2448SOL    HW3 9846   4.529   2.702   4.594  0.9338 -1.4218  0.4305
 2448SOL    MW4 9847   4.466   2.653   4.628 -0.0491 -0.3483  0.1721
 2449SOL     OW 9848   0.291   4.402   4.100  0.1059  0.2483  0.1045
 2449SOL    HW2 9849   0.211   4.351   4.094 -0.1389  0.6358  0.0603
 2449SOL    HW3 9850   0.347   4.368   4.030 -0.2588  0.3947 -0.2643
 2449SOL    MW4 9851   0.288   4.391   4.090  0.0255  0.3190  0.0505
 2450SOL     OW 9852   0.687   4.331   4.290 -0.0212 -0.0391  0.3185
 2450SOL    HW2 9853   0.603   4.287   4.301  0.1599  0.1331  2.7398
 2450SOL    HW3 9854   0.666   4.415   4.251 -0.8910 -0.3299  0.1592
 2450SOL    MW4 9855   0.673   4.336   4.286 -0.1120 -0.0548  0.6170
 2451SOL     OW 9856   1.167   0.005   4.194  0.5692  0.2143  0.2826
 2451SOL    HW2 9857   1.146   0.028   4.104 -0.0953  1.1132  0.6620
 2451SOL    HW3 9858   1.254   0.043   4.209  0.3134  0.7928  0.2886
 2451SOL    MW4 9859   1.176   0.013   4.184  0.4478  0.4096  0.3338
 2452SOL     OW 9860   0.905   0.058   4.292  0.1399  0.3788 -0.1630
 2452SOL    HW2 9861   0.979  -0.001   4.279 -0.6019 -0.3090 -1.3346
 2452SOL    HW3 9862   0.828   0.005   4.272 -0.6669  1.1318  0.8811
 2452SOL    MW4 9863   0.904   0.044   4.288 -0.0644  0.3874 -0.1798
 2453SOL     OW 9864   0.909   0.314   4.176  0.6423 -0.0971  0.1375
 2453SOL    HW2 9865   0.919   0.229   4.219  0.1627 -0.7464 -1.0273
 2453SOL    HW3 9866   0.839   0.358   4.224  0.9060 -0.3486  0.7507
 2453SOL    MW4 9867   0.901   0.309   4.188  0.6139 -0.2159  0.0644
 2454SOL     OW 9868   1.150   0.447   4.232 -0.0038  0.6525  0.0077
 2454SOL    HW2 9869   1.169   0.436   4.325 -1.4461  2.0672  0.4857
 2454SOL    HW3 9870   1.070   0.397   4.218  0.1283  0.5683 -0.4463
 2454SOL    MW4 9871   1.142   0.439   4.243 -0.1767  0.8280  0.0110
 2455SOL     OW 9872   1.103   0.690   4.131 -0.4536  0.3472 -0.1800
 2455SOL    HW2 9873   1.175   0.746   4.159  0.2476 -0.1278 -1.0150
 2455SOL    HW3 9874   1.115   0.608   4.178  0.1812 -0.1162 -1.1407
 2455SOL    MW4 9875   1.114   0.687   4.141 -0.2774  0.2234 -0.4168
 2456SOL     OW 9876   0.935   0.828   4.359  0.0450 -0.2019  0.0563
 2456SOL    HW2 9877   0.973   0.809   4.273 -0.1176  0.2846 -0.1285
 2456SOL    HW3 9878   0.853   0.778   4.360  0.1020 -0.2987 -0.0247
 2456SOL    MW4 9879   0.929   0.819   4.348  0.0311 -0.1506  0.0215
 2457SOL     OW 9880   0.772   1.198   4.135  0.0932  0.0000  0.2540
 2457SOL    HW2 9881   0.828   1.167   4.206 -0.2319 -0.3909  0.3419
 2457SOL    HW3 9882   0.748   1.288   4.160  0.8749  0.2547  0.0966
 2457SOL    MW4 9883   0.776   1.206   4.148  0.1534 -0.0179  0.2451
 2458SOL     OW 9884   1.179   1.299   4.249 -0.2350  0.0326  0.1011
 2458SOL    HW2 9885   1.194   1.341   4.334  0.5736  0.7601 -0.3872
 2458SOL    HW3 9886   1.107   1.238   4.265  0.2323 -0.2008  1.4305
 2458SOL    MW4 9887   1.171   1.297   4.263 -0.0666  0.0978  0.2127
 2459SOL     OW 9888   1.094   1.528   4.125 -0.4744 -0.3510 -0.0237
 2459SOL    HW2 9889   1.147   1.599   4.162 -1.4000  0.8260 -0.8909
 2459SOL    HW3 9890   1.124   1.449   4.169  0.7387  0.5606  0.7994
 2459SOL    MW4 9891   1.105   1.527   4.136 -0.4364 -0.0755 -0.0291
 2460SOL     OW 9892   0.868   1.657   4.226  0.1514  0.7590  0.2253
 2460SOL    HW2 9893   0.945   1.610   4.194 -0.7635 -0.6838  0.1102
 2460SOL    HW3 9894   0.885   1.749   4.203  1.1284  0.2455 -1.1733
 2460SOL    MW4 9895   0.881   1.663   4.219  0.1597  0.5009  0.0253
 2461SOL     OW 9896   0.881   1.940   4.158 -0.7119 -0.1641  0.1484
 2461SOL    HW2 9897   0.801   1.964   4.205 -0.8065  1.0145 -0.6058
 2461SOL    HW3 9898   0.857   1.943   4.066 -0.2442 -1.4664 -0.0173
 2461SOL    MW4 9899   0.868   1.944   4.152 -0.6627 -0.1802  0.0272
 2462SOL     OW 9900   1.380   1.793   4.465 -0.0470  0.3027 -0.3628
 2462SOL    HW2 9901   1.459   1.848   4.468 -0.4260  0.8574 -0.5501
 2462SOL    HW3 9902   1.380   1.746   4.548  0.2128  0.6777 -0.1500
 2462SOL    MW4 9903   1.391   1.794   4.476 -0.0626  0.4255 -0.3591
 2463SOL     OW 9904   1.109   2.295   4.146 -0.1847  0.2453  0.2778
 2463SOL    HW2 9905   1.188   2.328   4.189 -0.3226  0.6143  0.2470
 2463SOL    HW3 9906   1.118   2.199   4.150  0.0898  0.2839  0.5935
 2463SOL    MW4 9907   1.121   2.286   4.152 -0.1667  0.2990  0.3157
 2464SOL     OW 9908   1.463   2.840   4.625  0.0803 -0.2252  0.2499
 2464SOL    HW2 9909   1.497   2.929   4.633  0.0203 -0.1817  0.0308
 2464SOL    HW3 9910   1.375   2.851   4.588 -0.7535 -0.2439  2.1814
 2464SOL    MW4 9911   1.456   2.853   4.621 -0.0377 -0.2217  0.4759
 2465SOL     OW 9912   0.909   2.672   4.169  0.3079 -0.0288 -0.6738
 2465SOL    HW2 9913   0.907   2.581   4.201 -1.1266  0.2442  0.0699
 2465SOL    HW3 9914   0.986   2.710   4.210 -0.3389 -0.2911  0.8262
 2465SOL    MW4 9915   0.919   2.665   4.179  0.0333 -0.0274 -0.3772
 2466SOL     OW 9916   1.129   2.845   4.283 -0.3190 -0.1714  0.2238
 2466SOL    HW2 9917   1.154   2.931   4.250  1.2573 -0.0197  1.7528
 2466SOL    HW3 9918   1.138   2.851   4.378 -1.4363 -1.6340  0.4462
 2466SOL    MW4 9919   1.134   2.857   4.291 -0.2583 -0.3445  0.4544
 2467SOL     OW 9920   1.154   3.111   4.181 -0.5528  0.0037 -0.4660
 2467SOL    HW2 9921   1.229   3.156   4.221  1.7754 -3.3582 -0.8781
 2467SOL    HW3 9922   1.147   3.150   4.094  0.3705  0.7379 -0.2220
 2467SOL    MW4 9923   1.163   3.122   4.175 -0.1237 -0.3426 -0.4883
 2468SOL     OW 9924   0.925   3.157   4.308  0.2252 -0.1065 -0.5136
 2468SOL    HW2 9925   0.858   3.108   4.259  0.7672 -0.1961 -1.1733
 2468SOL    HW3 9926   1.008   3.132   4.267  0.6800 -0.0865  0.3842
 2468SOL    MW4 9927   0.927   3.147   4.296  0.3567 -0.1159 -0.4830
 2469SOL     OW 9928   0.899   3.405   4.190 -0.1973  0.0957 -0.4238
 2469SOL    HW2 9929   0.898   3.313   4.216 -1.0954  0.0716 -0.5260
 2469SOL    HW3 9930   0.898   3.402   4.094  1.1938  0.2036 -0.4505
 2469SOL    MW4 9931   0.898   3.392   4.180 -0.1323  0.1063 -0.4401
 2470SOL     OW 9932   1.118   3.580   4.213 -0.1251 -0.1181  0.2619
 2470SOL    HW2 9933   1.040   3.525   4.214 -1.4104  1.6345  0.3959
 2470SOL    HW3 9934   1.086   3.665   4.180  1.8866  0.3782 -0.4788
 2470SOL    MW4 9935   1.103   3.584   4.208 -0.0291  0.1783  0.1822
 2471SOL     OW 9936   1.085   3.849   4.144 -0.5790 -0.1706 -0.2236
 2471SOL    HW2 9937   1.167   3.888   4.173  0.2135 -1.1813 -1.0807
 2471SOL    HW3 9938   1.017   3.903   4.184  0.5039  1.1060 -0.0954
 2471SOL    MW4 9939   1.087   3.861   4.153 -0.3315 -0.1354 -0.3195
 2472SOL     OW 9940   0.886   3.994   4.257  0.1315 -0.2162  0.0198
 2472SOL    HW2 9941   0.892   4.070   4.198  1.2757 -1.4938 -1.5733
 2472SOL    HW3 9942   0.813   3.943   4.223 -0.3541 -0.0571  0.8221
 2472SOL    MW4 9943   0.877   3.997   4.245  0.2183 -0.3638 -0.0839
 2473SOL     OW 9944   0.903   4.250   4.140 -0.4031  0.1637 -0.2471
 2473SOL    HW2 9945   0.971   4.311   4.169 -0.4897  1.3902 -2.4882
 2473SOL    HW3 9946   0.828   4.268   4.197  0.6678 -0.1718  1.2793
 2473SOL    MW4 9947   0.902   4.260   4.152 -0.2733  0.2818 -0.3414
 2474SOL     OW 9948   1.144   4.126   4.625  0.4211 -0.0273 -0.0915
 2474SOL    HW2 9949   1.069   4.077   4.593  0.3240  0.7504 -1.0736
 2474SOL    HW3 9950   1.112   4.172   4.703 -0.2089  0.5515 -0.6909
 2474SOL    MW4 9951   1.130   4.126   4.631  0.3253  0.1521 -0.2999
 2475SOL     OW 9952   3.098   4.522   4.467  0.0611  0.1211  0.2640
 2475SOL    HW2 9953   3.125   4.614   4.464 -1.7083  0.6136 -0.9536
 2475SOL    HW3 9954   3.006   4.525   4.492  0.4564 -1.4247  1.9942
 2475SOL    MW4 9955   3.089   4.534   4.470 -0.1202 -0.0186  0.3314
 2476SOL     OW 9956   1.127   4.404   4.238 -0.3243  0.0250 -0.3523
 2476SOL    HW2 9957   1.203   4.351   4.216  0.4320  0.2995  1.5619
 2476SOL    HW3 9958   1.158   4.494   4.237 -0.5075  0.1118  0.8549
 2476SOL    MW4 9959   1.141   4.408   4.235 -0.2488  0.0725  0.0591
 2477SOL     OW 9960   2.598   4.191   4.642  0.4944  0.2151 -0.2278
 2477SOL    HW2 9961   2.644   4.127   4.587 -0.4498 -0.6321 -0.0538
 2477SOL    HW3 9962   2.509   4.156   4.650  0.5006  0.5312  1.4997
 2477SOL    MW4 9963   2.593   4.178   4.636  0.3703  0.1450  0.0229
 2478SOL     OW 9964   3.702   0.134   4.468 -0.0145  0.3481 -0.1357
 2478SOL    HW2 9965   3.789   0.101   4.492  0.0391 -0.6787 -1.6999
 2478SOL    HW3 9966   3.707   0.228   4.486  0.7298 -0.0226  1.7478
 2478SOL    MW4 9967   3.714   0.142   4.474  0.0904  0.1637 -0.0935
 2479SOL     OW 9968   1.590   0.770   4.143  0.3429  0.2241 -0.7135
 2479SOL    HW2 9969   1.674   0.804   4.174  0.4979 -0.4263 -0.4118
 2479SOL    HW3 9970   1.599   0.765   4.048  0.6291  0.1897 -0.6848
 2479SOL    MW4 9971   1.602   0.774   4.135  0.4011  0.1338 -0.6700
 2480SOL     OW 9972   1.324   0.858   4.181  0.2878 -0.1896 -0.0158
 2480SOL    HW2 9973   1.407   0.812   4.174  0.1925 -0.4207  0.3469
 2480SOL    HW3 9974   1.343   0.948   4.155  0.9211  0.0612  1.3066
 2480SOL    MW4 9975   1.337   0.864   4.176  0.3587 -0.1870  0.2060
 2481SOL     OW 9976   1.385   1.125   4.127  0.1863  0.2935  0.0327
 2481SOL    HW2 9977   1.314   1.160   4.181  2.1680  3.2240  0.8039
 2481SOL    HW3 9978   1.352   1.131   4.037 -1.2326 -0.1255  0.5063
 2481SOL    MW4 9979   1.371   1.130   4.122  0.2606  0.6249  0.1969
 2482SOL     OW 9980   1.595   1.277   4.236  0.3283 -0.6437  0.4489
 2482SOL    HW2 9981   1.611   1.259   4.328 -1.5882  2.1238  1.3922
 2482SOL    HW3 9982   1.519   1.223   4.213  1.2583 -1.8814  0.2911
 2482SOL    MW4 9983   1.587   1.268   4.245  0.1980 -0.4419  0.5531
 2483SOL     OW 9984   2.772   1.399   4.605 -0.4407  0.3672 -0.3561
 2483SOL    HW2 9985   2.854   1.355   4.584 -0.2733  0.3075  0.3995
 2483SOL    HW3 9986   2.782   1.425   4.697 -1.2192  0.4654 -0.2973
 2483SOL    MW4 9987   2.785   1.397   4.614 -0.5212  0.3724 -0.2484
 2484SOL     OW 9988   1.562   1.547   4.161 -0.2162  0.2442 -0.1740
 2484SOL    HW2 9989   1.571   1.454   4.184  0.7493  0.5192  0.6033
 2484SOL    HW3 9990   1.479   1.573   4.202 -0.4524 -0.2522 -0.3309
 2484SOL    MW4 9991   1.552   1.538   4.170 -0.1200  0.2151 -0.0925
 2485SOL     OW 9992   1.393   1.894   4.100  0.1281 -0.3426 -0.2519
 2485SOL    HW2 9993   1.468   1.926   4.151  0.2936 -0.6325 -0.3077
 2485SOL    HW3 9994   1.318   1.941   4.135  0.2544 -0.4876  0.2117
 2485SOL    MW4 9995   1.393   1.904   4.111  0.1665 -0.4001 -0.1979
 2486SOL     OW 9996   0.898   1.938   4.517  0.1238  0.0725  0.3471
 2486SOL    HW2 9997   0.886   1.844   4.524 -1.2404  0.2833  1.0693
 2486SOL    HW3 9998   0.992   1.950   4.504  0.0529 -1.4873 -1.7978
 2486SOL    MW4 9999   0.909   1.927   4.516 -0.0656 -0.1055  0.1597
 2487SOL     OW10000   1.588   2.254   4.147 -0.5044  0.1001 -0.0063
 2487SOL    HW210001   1.652   2.305   4.196  0.2779 -0.6132 -0.2945
 2487SOL    HW310002   1.587   2.294   4.060  1.0326 -1.1570 -0.6190
 2487SOL    MW410003   1.596   2.266   4.142 -0.1984 -0.1600 -0.1249
 2488SOL     OW10004   1.337   2.408   4.224  0.0626  0.1261  0.0566
 2488SOL    HW210005   1.413   2.369   4.180 -1.3021  0.9236 -3.1231
 2488SOL    HW310006   1.338   2.500   4.196 -1.2270  0.5046  1.2122
 2488SOL    MW410007   1.347   2.415   4.214 -0.2877  0.2816 -0.2103
 2489SOL     OW10008   1.321   2.694   4.172 -0.5859 -0.5384  0.2508
 2489SOL    HW210009   1.402   2.734   4.203 -0.0855 -1.2214 -0.1554
 2489SOL    HW310010   1.252   2.745   4.213  0.0423  0.4762  0.0618
 2489SOL    MW410011   1.323   2.706   4.182 -0.4370 -0.4947  0.1726
 2490SOL     OW10012   1.802   2.671   4.118  0.7051 -0.5831  0.0490
 2490SOL    HW210013   1.861   2.730   4.164  0.2153 -0.8629  1.0495
 2490SOL    HW310014   1.796   2.594   4.174 -0.8520 -0.4359  0.1037
 2490SOL    MW410015   1.809   2.669   4.131  0.4351 -0.6006  0.1879
 2491SOL     OW10016   1.598   3.077   4.249  0.0359  0.0078 -0.0999
 2491SOL    HW210017   1.666   3.129   4.291 -0.7378 -0.0349  1.2285
 2491SOL    HW310018   1.519   3.130   4.254 -0.7595 -1.2701  1.2722
 2491SOL    MW410019   1.596   3.091   4.255 -0.1709 -0.1662  0.2561
 2492SOL     OW10020   1.383   3.240   4.277 -0.4800 -0.1985 -0.1977
 2492SOL    HW210021   1.392   3.259   4.371  0.5002 -1.0218 -0.1078
 2492SOL    HW310022   1.381   3.326   4.235  1.0491  0.1514  0.4210
 2492SOL    MW410023   1.384   3.254   4.284 -0.1490 -0.2611 -0.1044
 2493SOL     OW10024   1.357   3.461   4.139 -0.3255 -0.2700 -0.3837
 2493SOL    HW210025   1.281   3.506   4.175 -0.3342 -1.0966  0.6689
 2493SOL    HW310026   1.339   3.454   4.046 -1.6641 -0.7028 -0.1040
 2493SOL    MW410027   1.345   3.466   4.132 -0.5033 -0.4358 -0.2079
 2494SOL     OW10028   1.010   4.294   4.804  0.3575  0.4659 -0.0955
 2494SOL    HW210029   1.006   4.381   4.845  0.5962  0.7048 -0.5759
 2494SOL    HW310030   0.919   4.273   4.783  0.2045  0.2508  0.7421
 2494SOL    MW410031   0.998   4.303   4.807  0.3689  0.4687 -0.0486
 2495SOL     OW10032   1.562   3.938   4.136  0.0281 -0.0847  0.7469
 2495SOL    HW210033   1.476   3.972   4.163  0.4152  0.5331  1.2305
 2495SOL    HW310034   1.563   3.847   4.166 -0.4925 -0.1208  0.6608
 2495SOL    MW410035   1.550   3.931   4.144  0.0106 -0.0081  0.7997
 2496SOL     OW10036   1.294   3.999   4.235  0.0895  0.4333 -0.4926
 2496SOL    HW210037   1.311   4.014   4.328 -1.8608  1.0885 -0.2225
 2496SOL    HW310038   1.304   4.085   4.194  0.3663  0.2601 -0.7848
 2496SOL    MW410039   1.297   4.012   4.242 -0.1311  0.4969 -0.4950
 2497SOL     OW10040   1.357   4.268   4.167 -0.0765 -0.3530 -0.0859
 2497SOL    HW210041   1.345   4.288   4.074 -0.4788 -1.4919 -0.2886
 2497SOL    HW310042   1.421   4.333   4.198  0.4853 -0.3290 -1.2821
 2497SOL    MW410043   1.364   4.280   4.159 -0.0553 -0.4997 -0.2704
 2498SOL     OW10044   1.618   4.649   4.162  0.6827  0.0153 -0.1459
 2498SOL    HW210045   1.692   4.690   4.206  0.8536 -0.0208 -0.3942
 2498SOL    HW310046   1.606   4.565   4.207 -0.4385  0.8420  1.1560
 2498SOL    MW410047   1.626   4.643   4.174  0.5573  0.1192 -0.0072
 2499SOL     OW10048   2.047   4.630   4.187  0.1192  0.1722 -0.2377
 2499SOL    HW210049   2.037   4.636   4.092  2.7742  1.7668 -0.4698
 2499SOL    HW310050   1.983   4.693   4.221  0.1972  0.7136 -1.0580
 2499SOL    MW410051   2.037   4.639   4.179  0.4797  0.4539 -0.3767
 2500SOL     OW10052   2.487   0.544   4.506 -0.4513 -0.3458  0.5511
 2500SOL    HW210053   2.518   0.460   4.541  2.0361  0.5589  0.5420
 2500SOL    HW310054   2.462   0.524   4.416  0.2099 -1.0486  0.5183
 2500SOL    MW410055   2.488   0.530   4.499 -0.0360 -0.3192  0.5455
 2501SOL     OW10056   1.383   0.357   4.098  0.6664  0.5566  0.2782
 2501SOL    HW210057   1.303   0.394   4.136  0.1408  0.4238 -0.6843
 2501SOL    HW310058   1.453   0.412   4.131  0.1496  0.8601  0.8887
 2501SOL    MW410059   1.381   0.369   4.108  0.5289  0.5791  0.2317
 2502SOL     OW10060   1.806   0.363   4.143  0.0146 -0.0264  0.2582
 2502SOL    HW210061   1.876   0.427   4.156  0.2482 -0.2107 -0.0821
 2502SOL    HW310062   1.728   0.406   4.177  0.3837 -0.0131  1.1053
 2502SOL    MW410063   1.805   0.377   4.149  0.0939 -0.0490  0.3247
 2503SOL     OW10064   2.040   0.769   4.126 -0.6274  0.5371 -0.2309
 2503SOL    HW210065   2.115   0.814   4.162 -0.7166 -0.0395  0.6803
 2503SOL    HW310066   2.041   0.682   4.167 -1.5625  0.3916 -0.4946
 2503SOL    MW410067   2.050   0.763   4.136 -0.7625  0.4418 -0.1459
 2504SOL     OW10068   1.829   0.905   4.252 -0.0980 -0.0621  0.1249
 2504SOL    HW210069   1.826   0.987   4.202 -2.0567 -0.7897 -0.9948
 2504SOL    HW310070   1.906   0.859   4.218  0.1494  0.6541 -0.2915
 2504SOL    MW410071   1.839   0.910   4.241 -0.3238 -0.0635 -0.0782
 2505SOL     OW10072   1.829   1.159   4.119 -0.2357 -0.4564  0.4781
 2505SOL    HW210073   1.746   1.187   4.160  0.0299  0.8154  0.1814
 2505SOL    HW310074   1.896   1.207   4.168 -0.0286  2.6208 -2.6430
 2505SOL    MW410075   1.827   1.169   4.131 -0.1733  0.1175  0.0272
 2506SOL     OW10076   1.929   2.095   4.922 -0.2673  0.2271 -0.1295
 2506SOL    HW210077   1.837   2.121   4.934 -0.0471  0.6051  0.7508
 2506SOL    HW310078   1.976   2.177   4.912 -0.2149 -0.0158 -2.0118
 2506SOL    MW410079   1.923   2.109   4.922 -0.2313  0.2449 -0.2623
 2507SOL     OW10080   2.042   1.510   4.149  0.3654 -0.1221 -0.3071
 2507SOL    HW210081   1.963   1.559   4.171 -1.4539 -3.0856  0.0373
 2507SOL    HW310082   2.046   1.514   4.053  0.0344  0.3685 -0.3029
 2507SOL    MW410083   2.032   1.517   4.139  0.0818 -0.4485 -0.2604
 2508SOL     OW10084   4.008   2.893   4.496 -0.2289  0.2497  0.2267
 2508SOL    HW210085   4.080   2.837   4.524 -1.1532 -1.2361 -0.3169
 2508SOL    HW310086   4.032   2.981   4.528  1.1539 -0.4692  1.2219
 2508SOL    MW410087   4.021   2.897   4.504 -0.1683 -0.0412  0.2861
 2509SOL     OW10088   1.785   1.920   4.157  0.3592 -0.5502 -0.0116
 2509SOL    HW210089   1.787   1.826   4.174 -0.3206 -0.3282  1.3702
 2509SOL    HW310090   1.867   1.954   4.194  0.4937 -0.5697 -0.2935
 2509SOL    MW410091   1.796   1.912   4.164  0.2873 -0.5234  0.1340
 2510SOL     OW10092   3.627   2.309   4.739  0.0748 -0.0204  0.1323
 2510SOL    HW210093   3.648   2.369   4.811  1.2924  1.1299 -1.1471
 2510SOL    HW310094   3.574   2.362   4.679 -0.6319 -0.8616  0.0070
 2510SOL    MW410095   3.623   2.324   4.740  0.1421  0.0205 -0.0525
 2511SOL     OW10096   2.176   1.932   4.505 -0.1008  0.0581  0.0927
 2511SOL    HW210097   2.257   1.962   4.465 -0.3764  0.5691 -0.0798
 2511SOL    HW310098   2.176   1.972   4.592 -0.7803  1.0928 -0.3754
 2511SOL    MW410099   2.186   1.941   4.511 -0.2270  0.2620  0.0081
 2512SOL     OW10100   1.985   2.270   4.279 -0.5823  0.1717 -0.0379
 2512SOL    HW210101   1.992   2.175   4.278  0.6150  0.1632  3.0773
 2512SOL    HW310102   2.066   2.300   4.238 -0.5616 -0.1383 -0.2284
 2512SOL    MW410103   1.997   2.262   4.274 -0.4216  0.1295  0.3476
 2513SOL     OW10104   1.565   2.817   4.205 -0.1563  0.1986 -0.2083
 2513SOL    HW210105   1.574   2.912   4.205  1.2105  0.0854  0.7167
 2513SOL    HW310106   1.642   2.785   4.157 -0.2922 -0.4562  0.0032
 2513SOL    MW410107   1.577   2.826   4.199  0.0061  0.0970 -0.0587
 2514SOL     OW10108   2.182   2.393   4.128 -0.0076  0.5065  0.4394
 2514SOL    HW210109   2.130   2.356   4.057 -1.1404  0.3652  1.3273
 2514SOL    HW310110   2.186   2.487   4.109  0.7783  0.2924 -0.4905
 2514SOL    MW410111   2.176   2.400   4.116 -0.0534  0.4594  0.4334
 2515SOL     OW10112   1.976   3.093   4.171  0.1274 -0.3115 -0.7301
 2515SOL    HW210113   2.056   3.115   4.220 -1.0653  1.8778  0.2783
 2515SOL    HW310114   1.996   3.120   4.081  0.6721 -0.1618 -0.5702
 2515SOL    MW410115   1.989   3.099   4.165  0.0420 -0.0029 -0.5760
 2516SOL     OW10116   1.795   3.263   4.314  0.1254  0.2070  0.5392
 2516SOL    HW210117   1.786   3.341   4.260  0.0734  0.3872  0.8065
 2516SOL    HW310118   1.862   3.210   4.270 -0.2004  0.1689  0.0853
 2516SOL    MW410119   1.803   3.266   4.301  0.0755  0.2258  0.5145
 2517SOL     OW10120   1.776   3.502   4.172  0.2621 -0.1084 -0.0017
 2517SOL    HW210121   1.858   3.545   4.194 -0.1520  0.6583  0.0830
 2517SOL    HW310122   1.775   3.501   4.076  0.1489  0.3169 -0.0053
 2517SOL    MW410123   1.787   3.508   4.162  0.1926  0.0491  0.0091
 2518SOL     OW10124   0.872   3.752   4.639 -0.3573  0.8659  0.0458
 2518SOL    HW210125   0.954   3.703   4.629 -0.4465  0.2095  2.2394
 2518SOL    HW310126   0.804   3.693   4.607 -0.1622  0.6759 -0.0180
 2518SOL    MW410127   0.874   3.738   4.634 -0.3432  0.7541  0.3262
 2519SOL     OW10128   2.013   3.619   4.218 -0.1395  0.0921  0.2418
 2519SOL    HW210129   2.040   3.709   4.198  1.4250 -0.6358 -0.9815
 2519SOL    HW310130   2.012   3.615   4.314  1.4371  0.9414  0.3081
 2519SOL    MW410131   2.016   3.630   4.228  0.2751  0.1080  0.0892
 2520SOL     OW10132   1.795   4.024   4.298 -0.0852 -0.1369  0.3433
 2520SOL    HW210133   1.804   4.113   4.263  0.7839 -0.5060 -0.3886
 2520SOL    HW310134   1.717   3.989   4.256  0.5299 -0.3123 -0.6588
 2520SOL    MW410135   1.786   4.031   4.288  0.1106 -0.2084  0.1140
 2521SOL     OW10136   1.820   4.281   4.194  0.1885  0.1192 -0.3658
 2521SOL    HW210137   1.909   4.311   4.215 -0.3203  1.1475  0.2998
 2521SOL    HW310138   1.815   4.290   4.098 -0.0837  2.4977 -0.1376
 2521SOL    MW410139   1.831   4.286   4.184  0.0855  0.5689 -0.2480
 2522SOL     OW10140   2.053   4.374   4.270 -0.3893 -0.7200  0.0899
 2522SOL    HW210141   2.134   4.336   4.237 -0.9355  0.4578 -2.8074
 2522SOL    HW310142   2.054   4.464   4.237 -1.8430 -0.0238  1.8764
 2522SOL    MW410143   2.064   4.381   4.261 -0.6535 -0.4725 -0.0563
 2523SOL     OW10144   0.966   1.132   4.323 -0.2203 -0.4091 -0.5139
 2523SOL    HW210145   0.925   1.172   4.400 -2.6212 -2.2728 -0.7541
 2523SOL    HW310146   0.969   1.038   4.344  2.5493 -0.5125 -1.1921
 2523SOL    MW410147   0.961   1.125   4.336 -0.1717 -0.6685 -0.6351
 2524SOL     OW10148   0.557   4.082   4.837 -0.3490  0.0655 -0.2363
 2524SOL    HW210149   0.547   4.142   4.911  0.8524  0.5065 -0.4132
 2524SOL    HW310150   0.474   4.087   4.789 -0.9958  0.0581  0.8696
 2524SOL    MW410151   0.545   4.090   4.840 -0.2758  0.1225 -0.1140
 2525SOL     OW10152   2.235   0.354   4.142  0.0158 -0.1839 -0.6307
 2525SOL    HW210153   2.239   0.263   4.171 -1.1238 -0.2928 -0.7802
 2525SOL    HW310154   2.261   0.352   4.050 -0.6836 -0.4694 -0.8312
 2525SOL    MW410155   2.239   0.342   4.134 -0.2267 -0.2359 -0.6762
 2526SOL     OW10156   2.264   0.898   4.246 -0.2827  0.0495  0.1284
 2526SOL    HW210157   2.274   0.899   4.341  1.2181  0.5640 -0.0176
 2526SOL    HW310158   2.277   0.989   4.219  2.4661 -0.5840 -0.8441
 2526SOL    MW410159   2.267   0.910   4.255  0.2780  0.0338 -0.0191
 2527SOL     OW10160   2.492   0.749   4.173 -0.2022  0.3594  0.0774
 2527SOL    HW210161   2.509   0.760   4.079  0.5172  1.0770  0.2898
 2527SOL    HW310162   2.418   0.807   4.191 -0.2790  0.2933 -0.0228
 2527SOL    MW410163   2.484   0.758   4.163 -0.1173  0.4454  0.0920
 2528SOL     OW10164   3.424   0.822   4.556  0.1723  0.2859  0.1657
 2528SOL    HW210165   3.408   0.899   4.610 -0.5096  1.0277 -1.0668
 2528SOL    HW310166   3.512   0.835   4.521 -0.9899  1.9483 -2.3057
 2528SOL    MW410167   3.434   0.834   4.558 -0.0708  0.6031 -0.3228
 2529SOL     OW10168   1.685   2.253   4.890 -0.1069  0.1317  0.6151
 2529SOL    HW210169   1.660   2.344   4.874  1.5762  0.5215  0.1240
 2529SOL    HW310170   1.607   2.203   4.868 -0.8379  1.4015  0.2463
 2529SOL    MW410171   1.672   2.259   4.885  0.0187  0.3507  0.5016
 2530SOL     OW10172   2.246   1.172   4.173  0.2311  0.0872  0.2516
 2530SOL    HW210173   2.180   1.215   4.227  0.1420 -0.0117  0.2206
 2530SOL    HW310174   2.329   1.195   4.215  0.1716  0.1301  0.3466
 2530SOL    MW410175   2.248   1.181   4.185  0.2115  0.0798  0.2608
 2531SOL     OW10176   2.286   1.662   4.212 -0.1040 -0.7993  0.3802
 2531SOL    HW210177   2.366   1.610   4.203  0.1866 -0.1456 -1.0800
 2531SOL    HW310178   2.216   1.602   4.185  0.3913 -0.0174 -2.8526
 2531SOL    MW410179   2.287   1.647   4.207 -0.0005 -0.6099 -0.2389
 2532SOL     OW10180   2.522   1.533   4.134 -0.0675 -0.1287  0.4175
 2532SOL    HW210181   2.506   1.520   4.040 -1.8369 -2.1506  0.9976
 2532SOL    HW310182   2.594   1.597   4.136  0.9808 -1.1220 -2.3297
 2532SOL    MW410183   2.530   1.540   4.122 -0.1626 -0.5267  0.1321
 2533SOL     OW10184   2.294   1.940   4.143 -0.0709 -0.3036 -0.0987
 2533SOL    HW210185   2.372   1.995   4.149  0.4739 -1.0947  0.1594
 2533SOL    HW310186   2.325   1.852   4.165 -1.2226 -0.4550  0.9660
 2533SOL    MW410187   2.308   1.936   4.147 -0.1512 -0.4280  0.0758
 2534SOL     OW10188   2.395   2.173   4.822 -0.3533  0.0609  0.4598
 2534SOL    HW210189   2.382   2.261   4.857 -2.2308  0.5527 -1.3666
 2534SOL    HW310190   2.490   2.157   4.830  0.0459  2.3606  0.5391
 2534SOL    MW410191   2.406   2.182   4.828 -0.5484  0.4294  0.2289
 2535SOL     OW10192   2.455   2.361   4.090  0.0887 -0.3540  0.2868
 2535SOL    HW210193   2.362   2.371   4.108  0.2844  0.7334  0.7347
 2535SOL    HW310194   2.459   2.333   3.999 -0.5905  1.8497 -0.4528
 2535SOL    MW410195   2.443   2.358   4.081  0.0248  0.0801  0.2480
 2536SOL     OW10196   1.848   2.209   4.629 -0.8158 -0.0067  0.2802
 2536SOL    HW210197   1.909   2.280   4.607 -0.5990 -0.7021 -1.4087
 2536SOL    HW310198   1.814   2.233   4.715 -0.1063  1.7202  0.0991
 2536SOL    MW410199   1.851   2.222   4.638 -0.6934  0.1292  0.0329
 2537SOL     OW10200   2.039   2.004   4.270 -0.1227  0.1370 -0.3916
 2537SOL    HW210201   2.069   1.971   4.355 -0.6083 -0.7064 -0.5370
 2537SOL    HW310202   2.114   1.991   4.211  0.1962  0.6738 -0.1002
 2537SOL    MW410203   2.053   1.998   4.273 -0.1445  0.0966 -0.3724
 2538SOL     OW10204   3.050   0.995   4.642 -0.0827  0.0458  0.1188
 2538SOL    HW210205   3.096   0.937   4.581 -0.3703  0.6215 -0.6483
 2538SOL    HW310206   2.958   0.968   4.636 -0.2808  0.8564 -0.5519
 2538SOL    MW410207   3.044   0.984   4.633 -0.1469  0.2287 -0.0720
 2539SOL     OW10208   2.081   3.622   4.507  0.0471 -0.6812  0.5557
 2539SOL    HW210209   2.035   3.706   4.507 -1.3987 -1.4552  0.7817
 2539SOL    HW310210   2.172   3.645   4.528 -0.0967  0.9372 -0.5053
 2539SOL    MW410211   2.087   3.636   4.510 -0.1626 -0.5696  0.4463
 2540SOL     OW10212   2.226   3.201   4.277 -0.7907 -0.0278  0.4137
 2540SOL    HW210213   2.229   3.293   4.250 -1.6468 -0.2964 -0.6321
 2540SOL    HW310214   2.243   3.202   4.371 -0.7143  1.1910  0.3861
 2540SOL    MW410215   2.229   3.213   4.286 -0.8936  0.0975  0.2718
 2541SOL     OW10216   2.239   3.475   4.192 -0.4433  0.1816 -0.0525
 2541SOL    HW210217   2.314   3.519   4.233 -1.5021  1.1639  0.8737
 2541SOL    HW310218   2.163   3.527   4.220 -1.5615 -1.3414 -0.2115
 2541SOL    MW410219   2.239   3.488   4.201 -0.7305  0.1104  0.0486
 2542SOL     OW10220   1.930   3.481   4.690  0.0436  0.0802 -0.4237
 2542SOL    HW210221   1.845   3.523   4.695 -0.4451 -0.9829  0.2244
 2542SOL    HW310222   1.978   3.531   4.623 -0.8932  0.9995 -0.4078
 2542SOL    MW410223   1.925   3.493   4.682 -0.1445  0.0613 -0.3362
 2543SOL     OW10224   2.485   3.875   4.124  0.5509  0.5800 -0.2235
 2543SOL    HW210225   2.418   3.930   4.164 -2.3038 -1.4244 -2.0466
 2543SOL    HW310226   2.480   3.894   4.030  2.5996  0.4339 -0.4057
 2543SOL    MW410227   2.476   3.884   4.117  0.4447  0.2961 -0.4878
 2544SOL     OW10228   1.100   3.637   4.526 -0.0197 -0.5658  0.0489
 2544SOL    HW210229   1.171   3.698   4.545  0.9762 -2.0519  1.2678
 2544SOL    HW310230   1.102   3.626   4.431 -0.1548  1.2175 -0.1618
 2544SOL    MW410231   1.110   3.643   4.516  0.0938 -0.5269  0.1817
 2545SOL     OW10232   2.282   4.018   4.240  0.4856 -0.7065 -0.1660
 2545SOL    HW210233   2.197   3.991   4.202  0.4177 -0.0007 -0.5124
 2545SOL    HW310234   2.263   4.031   4.333  0.2085 -0.5108 -0.2498
 2545SOL    MW410235   2.268   4.016   4.247  0.4399 -0.5875 -0.2227
 2546SOL     OW10236   2.269   4.273   4.129  0.1854 -0.4816  0.0427
 2546SOL    HW210237   2.291   4.182   4.152  0.9078 -0.1257  0.7570
 2546SOL    HW310238   2.349   4.322   4.148 -0.0011  0.2067 -0.9453
 2546SOL    MW410239   2.282   4.267   4.135  0.2558 -0.3443  0.0062
 2547SOL     OW10240   0.846   1.653   4.534  0.0710  0.1968 -0.5121
 2547SOL    HW210241   0.752   1.635   4.539  0.1949 -0.7834 -1.4464
 2547SOL    HW310242   0.868   1.639   4.442  1.0792  0.6969 -0.3512
 2547SOL    MW410243   0.837   1.649   4.523  0.2204  0.1334 -0.6142
 2548SOL     OW10244   2.752   0.115   4.264 -0.4553  0.0701  0.2039
 2548SOL    HW210245   2.831   0.079   4.223  0.2691  1.7981  0.0187
 2548SOL    HW310246   2.741   0.200   4.223 -1.9373  0.1997  0.8548
 2548SOL    MW410247   2.761   0.121   4.253 -0.5553  0.3152  0.2651
 2549SOL     OW10248   2.474   0.473   4.201 -0.7286 -0.6567 -0.3076
 2549SOL    HW210249   2.391   0.428   4.186 -1.8263  1.5570 -1.1734
 2549SOL    HW310250   2.457   0.564   4.176  1.1431  0.4497  2.1542
 2549SOL    MW410251   2.461   0.479   4.196 -0.6268 -0.2186 -0.0978
 2550SOL     OW10252   1.406   0.213   4.538 -0.5011 -0.0355 -0.1993
 2550SOL    HW210253   1.334   0.274   4.553  0.8982  2.1461 -1.8497
 2550SOL    HW310254   1.400   0.192   4.445  0.8865  0.0498 -0.3151
 2550SOL    MW410255   1.396   0.218   4.528 -0.1335  0.2636 -0.4330
 2551SOL     OW10256   2.917   0.749   4.176  0.7202 -0.3030 -0.4864
 2551SOL    HW210257   2.928   0.747   4.081 -1.9843 -0.9981 -0.8452
 2551SOL    HW310258   2.911   0.656   4.201 -1.7464 -0.0963 -0.1249
 2551SOL    MW410259   2.918   0.736   4.166  0.0379 -0.3675 -0.4859
 2552SOL     OW10260   2.702   0.864   4.297  0.3994 -0.4442 -0.2310
 2552SOL    HW210261   2.782   0.825   4.263  0.9889 -0.4164  1.0892
 2552SOL    HW310262   2.631   0.815   4.255  1.0923 -0.0769 -1.8506
 2552SOL    MW410263   2.703   0.852   4.287  0.5691 -0.3921 -0.2699
 2553SOL     OW10264   2.735   1.123   4.201  0.1844 -0.1329  0.4575
 2553SOL    HW210265   2.725   1.122   4.106  3.0201 -1.5337  0.1231
 2553SOL    HW310266   2.698   1.040   4.230 -1.3497  0.6207  0.6543
 2553SOL    MW410267   2.729   1.112   4.192  0.3564 -0.2184  0.4392
 2554SOL     OW10268   4.480   0.161   4.558  0.5181  0.1150  0.2139
 2554SOL    HW210269   4.509   0.182   4.647  0.9834 -2.6079  0.7364
 2554SOL    HW310270   4.384   0.159   4.564  0.5952 -2.1920  1.2020
 2554SOL    MW410271   4.471   0.164   4.571  0.5898 -0.5486  0.4134
 2555SOL     OW10272   2.914   1.526   4.101  0.0155  0.0831  0.0224
 2555SOL    HW210273   2.850   1.594   4.120 -0.1305 -0.1357  0.3265
 2555SOL    HW310274   2.886   1.451   4.155  0.0369 -0.2909 -0.4840
 2555SOL    MW410275   2.902   1.525   4.111 -0.0010  0.0048 -0.0043
 2556SOL     OW10276   2.504   2.093   4.184 -0.2381 -0.3028  0.0226
 2556SOL    HW210277   2.485   2.071   4.275  0.2284 -0.1929  0.1495
 2556SOL    HW310278   2.487   2.187   4.178 -1.4610 -0.5407 -0.3173
 2556SOL    MW410279   2.499   2.103   4.196 -0.3376 -0.3195 -0.0052
 2557SOL     OW10280   3.199   1.949   4.144 -0.0837  0.0188 -0.1510
 2557SOL    HW210281   3.187   1.859   4.173 -0.1169 -0.2032 -0.8609
 2557SOL    HW310282   3.265   1.984   4.203 -1.5348  0.1558  1.4402
 2557SOL    MW410283   3.206   1.942   4.156 -0.2794  0.0075 -0.0348
 2558SOL     OW10284   2.039   1.047   4.638  0.0995  0.4689 -0.7257
 2558SOL    HW210285   2.023   1.029   4.730  0.2089  0.0748 -0.7801
 2558SOL    HW310286   2.016   1.139   4.626 -1.7464  0.0157 -0.7282
 2558SOL    MW410287   2.034   1.057   4.648 -0.1297  0.3572 -0.7334
 2559SOL     OW10288   1.318   3.780   4.598 -0.3863 -0.3172  0.4411
 2559SOL    HW210289   1.333   3.872   4.576 -0.0005 -0.3350  0.6230
 2559SOL    HW310290   1.332   3.775   4.692 -0.2378 -0.5960  0.4036
 2559SOL    MW410291   1.322   3.792   4.607 -0.3158 -0.3564  0.4597
 2560SOL     OW10292   3.396   2.062   4.304  0.5302  0.3797  0.5436
 2560SOL    HW210293   3.451   2.009   4.247 -0.8633  0.3498 -0.7962
 2560SOL    HW310294   3.417   2.153   4.281  1.0180  0.3916  1.0148
 2560SOL    MW410295   3.406   2.067   4.294  0.4108  0.3772  0.4287
 2561SOL     OW10296   2.590   2.608   4.092 -0.0293 -0.0156 -0.1800
 2561SOL    HW210297   2.541   2.525   4.093 -0.9942  0.5545  0.6973
 2561SOL    HW310298   2.666   2.591   4.148 -1.5130  0.4353  2.0449
 2561SOL    MW410299   2.594   2.595   4.100 -0.3524  0.1187  0.2289
 2562SOL     OW10300   2.446   3.092   4.129  0.0095  0.0123  0.0758
 2562SOL    HW210301   2.455   2.997   4.133 -2.0956 -0.1844  1.1245
 2562SOL    HW310302   2.378   3.112   4.193  0.2729  2.2063 -0.2928
 2562SOL    MW410303   2.438   3.082   4.138 -0.2334  0.2756  0.1655
 2563SOL     OW10304   2.437   2.823   4.165 -0.2675  0.2664  0.0519
 2563SOL    HW210305   2.487   2.742   4.151 -1.4439 -0.2710 -1.1430
 2563SOL    HW310306   2.446   2.840   4.259 -0.4390 -1.5519  0.4222
 2563SOL    MW410307   2.445   2.814   4.176 -0.4451 -0.0443 -0.0572
 2564SOL     OW10308   2.846   3.042   4.175 -0.0225 -0.2175 -0.0667
 2564SOL    HW210309   2.800   3.124   4.194 -0.2961 -0.0983 -1.2253
 2564SOL    HW310310   2.846   3.035   4.080  1.7749 -0.5575 -0.0703
 2564SOL    MW410311   2.840   3.052   4.165  0.1786 -0.2465 -0.2198
 2565SOL     OW10312   2.652   3.213   4.289  0.2664  0.3950  0.1272
 2565SOL    HW210313   2.583   3.171   4.238  2.6533 -1.1478 -1.9239
 2565SOL    HW310314   2.641   3.306   4.272 -1.1344  0.1490 -0.3864
 2565SOL    MW410315   2.641   3.220   4.280  0.3967  0.1590 -0.2112
 2566SOL     OW10316   2.577   3.136   4.532 -0.2954 -0.1963 -0.2524
 2566SOL    HW210317   2.600   3.177   4.449 -2.5183 -0.3181 -0.9652
 2566SOL    HW310318   2.560   3.045   4.510 -0.3733 -0.3465  0.4192
 2566SOL    MW410319   2.578   3.130   4.518 -0.5989 -0.2322 -0.2575
 2567SOL     OW10320   2.937   3.841   4.181 -0.0629 -0.2070  0.4948
 2567SOL    HW210321   2.857   3.894   4.189 -0.2459 -0.5483  0.9113
 2567SOL    HW310322   2.909   3.752   4.203  0.4305 -0.3270  0.6275
 2567SOL    MW410323   2.922   3.837   4.185 -0.0219 -0.2677  0.5679
 2568SOL     OW10324   3.123   3.745   4.644 -0.2350 -0.1986  0.0397
 2568SOL    HW210325   3.184   3.698   4.587  0.2215 -1.0056  1.1572
 2568SOL    HW310326   3.178   3.804   4.695 -0.4500 -0.5226  0.6543
 2568SOL    MW410327   3.139   3.746   4.643 -0.2031 -0.3479  0.2680
 2569SOL     OW10328   2.510   4.379   4.233 -0.3553  0.1361 -0.0206
 2569SOL    HW210329   2.588   4.334   4.200  0.7026  1.9690 -0.0999
 2569SOL    HW310330   2.533   4.408   4.321 -0.3807  1.9616 -0.5767
 2569SOL    MW410331   2.523   4.377   4.240 -0.2191  0.6189 -0.1035
 2570SOL     OW10332   4.188   0.186   4.571  0.0395 -0.5139  0.3317
 2570SOL    HW210333   4.108   0.133   4.566  0.3622 -0.9403 -0.2547
 2570SOL    HW310334   4.157   0.276   4.574 -0.4466 -0.6651 -0.2806
 2570SOL    MW410335   4.173   0.191   4.571  0.0186 -0.5901  0.1740
 2571SOL     OW10336   2.489   1.345   4.544  0.4543  0.0176 -0.6799
 2571SOL    HW210337   2.494   1.327   4.450 -1.8827  0.6116 -0.9317
 2571SOL    HW310338   2.581   1.356   4.571  1.1973 -1.0109 -2.7024
 2571SOL    MW410339   2.502   1.344   4.535  0.2439 -0.0397 -0.9799
 2572SOL     OW10340   1.468   3.581   4.473 -0.0375  0.2123 -0.3381
 2572SOL    HW210341   1.497   3.620   4.390 -0.9195  2.2605  0.2934
 2572SOL    HW310342   1.420   3.651   4.517 -0.5614 -1.2155  1.4082
 2572SOL    MW410343   1.466   3.596   4.468 -0.2229  0.2940 -0.0243
 2573SOL     OW10344   1.366   4.034   4.503 -0.2277  0.0625  0.2395
 2573SOL    HW210345   1.440   4.091   4.523 -0.3599 -0.3328  1.9317
 2573SOL    HW310346   1.292   4.072   4.552 -1.0731  0.2888 -1.1970
 2573SOL    MW410347   1.366   4.047   4.512 -0.3567  0.0401  0.2728
 2574SOL     OW10348   3.799   3.641   4.246  0.1308 -0.0378 -0.2486
 2574SOL    HW210349   3.877   3.602   4.206  0.1063  0.0058 -0.3399
 2574SOL    HW310350   3.807   3.734   4.226 -0.2937 -0.1256 -0.8582
 2574SOL    MW410351   3.810   3.648   4.238  0.0715 -0.0436 -0.3414
 2575SOL     OW10352   2.124   0.296   4.664 -0.0794  0.1703 -0.4900
 2575SOL    HW210353   2.083   0.365   4.611 -0.5041  0.1283 -0.2136
 2575SOL    HW310354   2.195   0.341   4.710  0.0326  0.2932 -0.7790
 2575SOL    MW410355   2.128   0.311   4.663 -0.1206  0.1809 -0.4916
 2576SOL     OW10356   3.068   4.161   4.749  0.0479  0.0996 -0.0295
 2576SOL    HW210357   2.993   4.216   4.773  0.8187  1.0458  0.2813
 2576SOL    HW310358   3.033   4.099   4.686 -0.5351  1.9561 -1.6022
 2576SOL    MW410359   3.053   4.160   4.744  0.0725  0.4702 -0.1960
 2577SOL     OW10360   3.157   1.151   4.131  0.0370 -0.4235  0.2213
 2577SOL    HW210361   3.237   1.182   4.175 -0.2000  0.9235 -0.2911
 2577SOL    HW310362   3.181   1.146   4.039 -1.1403  2.2838 -0.2848
 2577SOL    MW410363   3.171   1.154   4.125 -0.1497  0.1113  0.0873
 2578SOL     OW10364   3.357   1.288   4.239 -0.0309 -0.2194 -0.4316
 2578SOL    HW210365   3.341   1.318   4.328 -0.5968 -0.1742 -0.5449
 2578SOL    HW310366   3.368   1.368   4.188  0.8332 -0.2581 -0.3032
 2578SOL    MW410367   3.356   1.303   4.244  0.0086 -0.2185 -0.4296
 2579SOL     OW10368   3.356   1.563   4.125 -0.2999  0.3371  0.3792
 2579SOL    HW210369   3.276   1.612   4.144 -0.3129  0.6451 -0.4365
 2579SOL    HW310370   3.355   1.551   4.030  1.1174  1.2133  0.2333
 2579SOL    MW410371   3.346   1.568   4.115 -0.1147  0.4934  0.2522
 2580SOL     OW10372   1.637   2.527   4.832 -0.2167  0.0959  0.2541
 2580SOL    HW210373   1.548   2.560   4.838  0.8392  3.0429  0.7694
 2580SOL    HW310374   1.653   2.517   4.738 -0.6521  0.8626  0.0945
 2580SOL    MW410375   1.628   2.530   4.820 -0.1348  0.5858  0.3009
 2581SOL     OW10376   3.402   3.129   4.715  0.5745  0.2080  0.4165
 2581SOL    HW210377   3.408   3.056   4.777 -0.2626 -0.4310 -0.2493
 2581SOL    HW310378   3.492   3.140   4.683  0.6858 -0.5761  0.4587
 2581SOL    MW410379   3.415   3.121   4.719  0.4783  0.0203  0.3343
 2582SOL     OW10380   3.877   2.016   4.214  0.0644  0.0409  0.0252
 2582SOL    HW210381   3.788   1.986   4.197 -0.4266  1.3674  0.1908
 2582SOL    HW310382   3.884   2.018   4.309 -0.0350  0.7636  0.0265
 2582SOL    MW410383   3.866   2.013   4.224 -0.0136  0.3111  0.0472
 2583SOL     OW10384   2.993   2.349   4.136  0.3113 -0.0818 -0.5278
 2583SOL    HW210385   2.998   2.283   4.204  0.2969 -2.5673 -2.8373
 2583SOL    HW310386   3.081   2.387   4.133  0.1208  0.5441  1.2991
 2583SOL    MW410387   3.005   2.346   4.144  0.2842 -0.3273 -0.5913
 2584SOL     OW10388   2.837   2.589   4.209 -0.2249  0.3656 -0.0161
 2584SOL    HW210389   2.899   2.661   4.222  0.0840  0.0759  0.1151
 2584SOL    HW310390   2.893   2.513   4.195 -0.5616 -0.1596  1.5132
 2584SOL    MW410391   2.853   2.589   4.209 -0.2286  0.2580  0.2027
 2585SOL     OW10392   2.990   2.813   4.266 -0.0432  0.2485 -0.1395
 2585SOL    HW210393   2.943   2.892   4.239 -0.4606 -0.5275 -1.7141
 2585SOL    HW310394   2.977   2.809   4.361  0.2581  2.2395  0.0059
 2585SOL    MW410395   2.982   2.823   4.275 -0.0589  0.4089 -0.3281
 2586SOL     OW10396   2.385   1.804   4.798 -0.6973  0.5153  0.0207
 2586SOL    HW210397   2.324   1.877   4.810 -2.0189 -0.7269  1.0717
 2586SOL    HW310398   2.406   1.776   4.888 -0.3194 -0.4735 -0.3709
 2586SOL    MW410399   2.379   1.810   4.812 -0.8221  0.2209  0.1082
 2587SOL     OW10400   3.463   3.097   4.149 -0.3571 -0.0893 -0.1454
 2587SOL    HW210401   3.442   3.114   4.057 -0.3252 -1.0875 -0.3373
 2587SOL    HW310402   3.459   3.002   4.158 -2.4414  0.1133  1.4080
 2587SOL    MW410403   3.460   3.087   4.138 -0.6282 -0.1943  0.0343
 2588SOL     OW10404   3.067   3.216   4.278  0.1620 -0.1228  0.2557
 2588SOL    HW210405   3.131   3.156   4.317 -0.6542 -0.9180  0.3883
 2588SOL    HW310406   3.000   3.158   4.240 -0.5091  0.6978  0.1791
 2588SOL    MW410407   3.067   3.200   4.278 -0.0346 -0.1194  0.2627
 2589SOL     OW10408   3.113   3.465   4.152 -0.4021  0.3629  0.0748
 2589SOL    HW210409   3.096   3.376   4.182 -1.3127  0.2284 -0.8425
 2589SOL    HW310410   3.102   3.462   4.057  2.7503  0.7273 -0.3626
 2589SOL    MW410411   3.109   3.453   4.143 -0.1063  0.3934 -0.1040
 2590SOL     OW10412   2.892   3.576   4.289  0.5461 -0.0272  0.1097
 2590SOL    HW210413   2.976   3.549   4.251  0.5863  0.0339  0.1568
 2590SOL    HW310414   2.903   3.562   4.383  0.3827 -0.3555  0.0830
 2590SOL    MW410415   2.905   3.570   4.296  0.5295 -0.0622  0.1125
 2591SOL     OW10416   3.365   3.871   4.170  0.7070  0.0059 -0.1007
 2591SOL    HW210417   3.349   3.859   4.076  0.0242  1.5721 -0.1889
 2591SOL    HW310418   3.347   3.785   4.208 -0.4329 -0.2704 -1.2211
 2591SOL    MW410419   3.361   3.858   4.162  0.4663  0.1757 -0.2604
 2592SOL     OW10420   4.340   4.364   4.232 -0.2946 -0.2703 -0.0194
 2592SOL    HW210421   4.320   4.448   4.191 -0.3770 -0.8926 -1.2754
 2592SOL    HW310422   4.350   4.385   4.325 -1.6401  0.8996 -0.1167
 2592SOL    MW410423   4.339   4.378   4.239 -0.4830 -0.1979 -0.1979
 2593SOL     OW10424   2.462   1.066   4.622 -0.0530 -0.0766 -0.1966
 2593SOL    HW210425   2.537   1.018   4.659 -0.3950 -1.4323 -1.2278
 2593SOL    HW310426   2.494   1.155   4.612  0.0365  0.3694  3.4350
 2593SOL    MW410427   2.476   1.071   4.626 -0.0863 -0.1966  0.1464
 2594SOL     OW10428   3.137   4.000   4.292  0.1175 -0.1637 -0.4509
 2594SOL    HW210429   3.218   3.966   4.253  1.3100  1.8472  0.1680
 2594SOL    HW310430   3.068   3.948   4.252  1.6559 -1.4315 -1.5693
 2594SOL    MW410431   3.139   3.989   4.282  0.4778 -0.0660 -0.5159
 2595SOL     OW10432   3.814   4.600   4.151 -0.0393  0.0850  0.3911
 2595SOL    HW210433   3.738   4.656   4.170 -0.8114 -0.4421 -1.0396
 2595SOL    HW310434   3.810   4.587   4.056  1.9012  0.1148  0.2987
 2595SOL    MW410435   3.803   4.606   4.141  0.1147  0.0191  0.1907
 2596SOL     OW10436   3.372   4.619   4.179 -0.4574 -0.0917 -0.1151
 2596SOL    HW210437   3.449   4.670   4.203 -0.3449  0.4368 -1.5842
 2596SOL    HW310438   3.383   4.536   4.225  1.0093 -0.0347 -0.3589
 2596SOL    MW410439   3.383   4.615   4.188 -0.2491 -0.0148 -0.3405
 2597SOL     OW10440   3.599   0.358   4.132 -0.0208  0.0346 -0.4472
 2597SOL    HW210441   3.687   0.381   4.160 -0.5394 -0.3213  1.5326
 2597SOL    HW310442   3.605   0.351   4.036  2.2916 -0.8426 -0.2624
 2597SOL    MW410443   3.611   0.360   4.123  0.2158 -0.1281 -0.1612
 2598SOL     OW10444   3.970   0.871   4.533  0.3860 -0.1784  0.0145
 2598SOL    HW210445   4.013   0.871   4.448 -0.7502  0.8352 -0.5802
 2598SOL    HW310446   4.005   0.948   4.578 -1.3530  1.0946 -0.7726
 2598SOL    MW410447   3.980   0.881   4.528  0.0067  0.1234 -0.1678
 2599SOL     OW10448   3.610   0.884   4.210  0.4733  0.0777 -0.1952
 2599SOL    HW210449   3.530   0.843   4.176  0.4515 -1.1821  1.2841
 2599SOL    HW310450   3.609   0.973   4.175 -1.1876 -0.1650 -0.8069
 2599SOL    MW410451   3.599   0.890   4.201  0.2513 -0.1206 -0.0811
 2600SOL     OW10452   3.150   0.882   4.221  0.1714 -0.6984  0.6347
 2600SOL    HW210453   3.155   0.970   4.184 -0.4467 -0.3639  1.3377
 2600SOL    HW310454   3.061   0.852   4.201  0.3834 -1.1764  0.3805
 2600SOL    MW410455   3.139   0.889   4.214  0.1180 -0.7173  0.6933
 2601SOL     OW10456   3.569   1.141   4.132  0.1698 -0.3122 -0.0370
 2601SOL    HW210457   3.490   1.185   4.162  1.2854  1.5147  0.2725
 2601SOL    HW310458   3.566   1.149   4.036 -0.3799 -0.8977 -0.0725
 2601SOL    MW410459   3.558   1.148   4.123  0.2444 -0.1483 -0.0010
 2602SOL     OW10460   3.792   1.298   4.250 -0.7881 -0.0971  0.0242
 2602SOL    HW210461   3.722   1.238   4.224 -0.6815 -0.3382  0.2884
 2602SOL    HW310462   3.777   1.377   4.198 -1.1897 -0.1915 -0.0022
 2602SOL    MW410463   3.781   1.301   4.240 -0.8273 -0.1413  0.0563
 2603SOL     OW10464   3.371   2.129   4.594 -0.1701  1.0886  0.3755
 2603SOL    HW210465   3.463   2.157   4.596  0.7114 -1.6889  0.5768
 2603SOL    HW310466   3.355   2.104   4.503  0.3368 -1.7026  1.0160
 2603SOL    MW410467   3.381   2.129   4.583  0.0129  0.3538  0.4869
 2604SOL     OW10468   1.159   0.369   4.550  0.0662  0.4726  0.8341
 2604SOL    HW210469   1.128   0.459   4.540 -1.9636 -0.4773 -2.1777
 2604SOL    HW310470   1.079   0.318   4.569  0.7713 -1.0776 -0.2282
 2604SOL    MW410471   1.144   0.374   4.551 -0.1086  0.1427  0.2961
 2605SOL     OW10472   3.605   1.958   4.162  0.0873  0.0634  0.0276
 2605SOL    HW210473   3.603   1.864   4.179 -0.9297  0.2882  1.1737
 2605SOL    HW310474   3.594   1.965   4.067  0.8281 -0.9943 -0.1409
 2605SOL    MW410475   3.603   1.946   4.151  0.0510 -0.0464  0.1569
 2606SOL     OW10476   3.728   2.445   4.348 -0.1317  0.0622  0.3817
 2606SOL    HW210477   3.697   2.535   4.338  1.5889  0.8587  1.9238
 2606SOL    HW310478   3.768   2.423   4.264  1.5371  1.5817  0.7626
 2606SOL    MW410479   3.729   2.454   4.336  0.3152  0.3674  0.6356
 2607SOL     OW10480   3.851   2.302   4.149  0.0570 -0.2681 -0.5654
 2607SOL    HW210481   3.854   2.209   4.171 -0.8972 -0.2016 -0.1198
 2607SOL    HW310482   3.836   2.304   4.054 -2.1337 -0.5814 -0.2403
 2607SOL    MW410483   3.850   2.290   4.139 -0.3579 -0.3006 -0.4635
 2608SOL     OW10484   4.249   3.636   4.543  0.3262 -0.2146  0.2340
 2608SOL    HW210485   4.267   3.542   4.548  1.0968 -0.0709  0.2323
 2608SOL    HW310486   4.163   3.646   4.584 -0.3624 -1.0846 -0.9724
 2608SOL    MW410487   4.240   3.625   4.549  0.3376 -0.3104  0.0749
 2609SOL     OW10488   3.509   2.809   4.143  0.0814  0.0224 -0.0920
 2609SOL    HW210489   3.416   2.790   4.131 -0.1007  0.4288  0.5989
 2609SOL    HW310490   3.552   2.769   4.068 -0.5490 -1.0087  0.0759
 2609SOL    MW410491   3.502   2.801   4.132 -0.0257 -0.0601  0.0210
 2610SOL     OW10492   3.897   2.871   4.242  0.2282  0.2971  0.2047
 2610SOL    HW210493   3.937   2.898   4.325 -1.9066  1.1271  0.9955
 2610SOL    HW310494   3.816   2.826   4.267 -1.0193  1.5412 -1.4413
 2610SOL    MW410495   3.891   2.869   4.256 -0.2186  0.5705  0.0916
 2611SOL     OW10496   3.851   3.102   4.124  0.5642 -0.2289 -0.6166
 2611SOL    HW210497   3.856   3.014   4.161 -2.8221 -0.6684 -0.9875
 2611SOL    HW310498   3.853   3.089   4.030 -1.3589 -0.0843 -0.7018
 2611SOL    MW410499   3.852   3.089   4.117 -0.1361 -0.2677 -0.6771
 2612SOL     OW10500   3.650   3.216   4.300  0.2035  0.1865  0.2858
 2612SOL    HW210501   3.576   3.170   4.260  0.3382 -1.0766  1.4427
 2612SOL    HW310502   3.724   3.199   4.241 -0.0707  0.1289 -0.0438
 2612SOL    MW410503   3.650   3.207   4.287  0.1853  0.0122  0.3948
 2613SOL     OW10504   0.186   3.505   4.732 -0.3051 -0.8304  0.0202
 2613SOL    HW210505   0.275   3.540   4.733 -0.4111 -0.5861  1.0628
 2613SOL    HW310506   0.136   3.568   4.680  0.3964 -1.6471 -1.6964
 2613SOL    MW410507   0.191   3.518   4.725 -0.2265 -0.9060 -0.0687
 2614SOL     OW10508   3.586   3.477   4.192 -0.3894  0.1749  0.5487
 2614SOL    HW210509   3.659   3.530   4.224 -1.2987  1.2826  0.8349
 2614SOL    HW310510   3.602   3.390   4.228  1.0279  0.2890  0.2293
 2614SOL    MW410511   3.597   3.473   4.201 -0.3223  0.3359  0.5445
 2615SOL     OW10512   3.846   3.913   4.152  0.1030  0.0245  0.5271
 2615SOL    HW210513   3.764   3.958   4.174  0.4006  0.2729  1.1397
 2615SOL    HW310514   3.911   3.952   4.211  0.4015 -1.0805  0.9449
 2615SOL    MW410515   3.844   3.924   4.163  0.1814 -0.0887  0.6623
 2616SOL     OW10516   0.450   0.072   4.285 -0.3579  0.0567 -0.2257
 2616SOL    HW210517   0.457   0.152   4.233 -1.5954 -0.2424 -0.9012
 2616SOL    HW310518   0.462   0.100   4.375 -1.1103  1.0652 -0.4263
 2616SOL    MW410519   0.452   0.086   4.290 -0.6205  0.1503 -0.3414
 2617SOL     OW10520   3.414   4.382   4.308  0.6856 -0.0209 -0.1135
 2617SOL    HW210521   3.498   4.351   4.276  0.1639 -1.0249 -0.5101
 2617SOL    HW310522   3.429   4.400   4.401  0.8277 -2.0967  0.2941
 2617SOL    MW410523   3.427   4.380   4.316  0.6354 -0.4268 -0.1121
 2618SOL     OW10524   3.865   4.373   4.308 -0.0489 -0.0400 -0.2280
 2618SOL    HW210525   3.940   4.335   4.262  0.0231  0.1797 -0.2950
 2618SOL    HW310526   3.848   4.455   4.262 -0.0972  0.0894  0.0204
 2618SOL    MW410527   3.872   4.379   4.296 -0.0458  0.0067 -0.2046
 2619SOL     OW10528   4.192   4.317   4.676  0.2981 -0.3162 -0.1462
 2619SOL    HW210529   4.225   4.321   4.766 -0.8179  1.1448  0.2242
 2619SOL    HW310530   4.262   4.352   4.622  0.4966 -0.0437  0.2913
 2619SOL    MW410531   4.205   4.322   4.681  0.1774 -0.0877 -0.0401
 2620SOL     OW10532   4.077   0.320   4.135  0.0357  0.3712 -0.2028
 2620SOL    HW210533   4.140   0.377   4.179  0.6048 -0.7812  0.5052
 2620SOL    HW310534   3.992   0.344   4.172  0.1243  1.5934 -0.8008
 2620SOL    MW410535   4.074   0.330   4.145  0.1221  0.3804 -0.1884
 2621SOL     OW10536   4.258   0.493   4.289  0.5859 -0.4406 -0.0190
 2621SOL    HW210537   4.342   0.445   4.295  1.2997  0.8231  0.1977
 2621SOL    HW310538   4.279   0.573   4.241 -0.4714 -0.0415  0.1700
 2621SOL    MW410539   4.272   0.497   4.283  0.5407 -0.2212  0.0343
 2622SOL     OW10540   0.355   4.120   4.651 -0.4090  0.1349 -0.2208
 2622SOL    HW210541   0.384   4.201   4.608  0.5579 -1.8015 -3.3920
 2622SOL    HW310542   0.269   4.101   4.612 -1.2554  0.2951  1.4932
 2622SOL    MW410543   0.347   4.128   4.640 -0.3931 -0.0992 -0.4134
 2623SOL     OW10544   4.298   0.754   4.185  0.7056  0.1224 -0.3354
 2623SOL    HW210545   4.212   0.782   4.216  1.1321  1.2616 -0.1637
 2623SOL    HW310546   4.282   0.721   4.096 -0.6536 -3.8598  1.2627
 2623SOL    MW410547   4.285   0.753   4.177  0.5822 -0.2527 -0.1020
 2624SOL     OW10548   4.063   0.871   4.278  0.0320  0.0004 -0.2281
 2624SOL    HW210549   4.071   0.951   4.226 -0.8267 -0.4859 -1.1144
 2624SOL    HW310550   3.995   0.820   4.234 -0.3594 -0.6347  1.0899
 2624SOL    MW410551   4.056   0.875   4.266 -0.1330 -0.1476 -0.1712
 2625SOL     OW10552   4.015   1.127   4.135  0.0914 -0.0396  0.0867
 2625SOL    HW210553   4.090   1.175   4.169 -0.8153  0.9543  0.7231
 2625SOL    HW310554   3.939   1.177   4.164 -0.7860 -0.3287 -1.6254
 2625SOL    MW410555   4.015   1.140   4.143 -0.1440  0.0533 -0.0548
 2626SOL     OW10556   4.251   1.253   4.267 -0.2021  0.0752  0.3397
 2626SOL    HW210557   4.321   1.193   4.242 -0.1692 -0.5358  1.8215
 2626SOL    HW310558   4.268   1.333   4.218  0.8033 -0.5106 -0.2668
 2626SOL    MW410559   4.262   1.256   4.257 -0.0648 -0.0827  0.4554
 2627SOL     OW10560   4.285   1.467   4.114  0.5946 -0.0447  0.2192
 2627SOL    HW210561   4.344   1.536   4.144 -1.1874  1.4364  0.4514
 2627SOL    HW310562   4.288   1.474   4.018  0.7861  0.0410  0.2306
 2627SOL    MW410563   4.293   1.477   4.105  0.3843  0.1620  0.2513
 2628SOL     OW10564   3.507   2.722   4.663 -0.5109 -0.1725  0.0496
 2628SOL    HW210565   3.439   2.782   4.631  0.7562  0.5577 -1.3005
 2628SOL    HW310566   3.589   2.766   4.643  0.3825 -1.3653  1.0682
 2628SOL    MW410567   3.509   2.736   4.656 -0.2258 -0.2337  0.0057
 2629SOL     OW10568   4.301   2.046   4.222 -0.3422  0.5246  0.2373
 2629SOL    HW210569   4.239   2.000   4.166 -0.2090 -0.7649  1.1251
 2629SOL    HW310570   4.286   2.139   4.203  0.0847  0.0980 -2.2924
 2629SOL    MW410571   4.291   2.052   4.212 -0.2680  0.2983  0.0205
 2630SOL     OW10572   0.058   1.931   4.132  0.5314  0.2405  0.2921
 2630SOL    HW210573  -0.016   1.980   4.169 -0.5643 -1.7740  0.8913
 2630SOL    HW310574   0.134   1.964   4.179 -0.1399  1.5585  0.4802
 2630SOL    MW410575   0.058   1.942   4.143  0.2982  0.1485  0.3958
 2631SOL     OW10576   4.302   2.309   4.102  0.2930  0.0203 -0.0858
 2631SOL    HW210577   4.383   2.329   4.149 -0.5155 -2.1257  2.3404
 2631SOL    HW310578   4.240   2.376   4.129  1.0052  1.1793 -1.2986
 2631SOL    MW410579   4.305   2.320   4.111  0.2804 -0.1099  0.0744
 2632SOL     OW10580   0.364   1.141   4.324  0.1674 -0.0228 -0.1247
 2632SOL    HW210581   0.295   1.205   4.309 -0.0672 -0.1958  0.2050
 2632SOL    HW310582   0.403   1.126   4.237 -0.4951 -0.2515 -0.3818
 2632SOL    MW410583   0.360   1.148   4.310  0.0490 -0.0757 -0.1154
 2633SOL     OW10584   4.073   2.698   4.133  0.0253 -0.2683 -0.5182
 2633SOL    HW210585   4.078   2.610   4.170 -0.4934 -0.2167 -0.3283
 2633SOL    HW310586   4.000   2.740   4.179 -0.3741 -0.0778 -1.3223
 2633SOL    MW410587   4.064   2.692   4.144 -0.0954 -0.2360 -0.5994
 2634SOL     OW10588   2.728   4.003   4.460 -0.6137 -0.6861 -0.5647
 2634SOL    HW210589   2.732   4.006   4.364 -1.1976 -1.6030 -0.6221
 2634SOL    HW310590   2.819   3.992   4.486 -0.0066  2.9629 -0.8485
 2634SOL    MW410591   2.741   4.002   4.451 -0.6106 -0.3257 -0.6104
 2635SOL     OW10592   4.273   2.831   4.263  0.0619  0.4392 -0.1392
 2635SOL    HW210593   4.254   2.781   4.343 -0.2374 -0.4215 -0.7408
 2635SOL    HW310594   4.205   2.804   4.201  1.3901 -0.3301 -1.3021
 2635SOL    MW410595   4.261   2.821   4.265  0.1974  0.2241 -0.3724
 2636SOL     OW10596   4.311   3.090   4.153 -0.2940  0.5514  0.0702
 2636SOL    HW210597   4.295   3.000   4.181 -0.3158  0.4336 -0.3246
 2636SOL    HW310598   4.290   3.090   4.060 -0.0245  0.8990  0.0095
 2636SOL    MW410599   4.306   3.078   4.144 -0.2608  0.5817  0.0095
 2637SOL     OW10600   4.064   3.483   4.181 -1.0174 -0.0637  0.0359
 2637SOL    HW210601   4.062   3.392   4.212  0.9334  0.0300  0.4984
 2637SOL    HW310602   4.062   3.476   4.086 -0.4691 -0.6018  0.0621
 2637SOL    MW410603   4.063   3.470   4.172 -0.6876 -0.1225  0.1001
 2638SOL     OW10604   4.286   3.654   4.266 -0.7545 -0.3951  0.2645
 2638SOL    HW210605   4.275   3.649   4.361 -0.7946  0.4630  0.3087
 2638SOL    HW310606   4.207   3.613   4.230 -0.6958 -0.7997  0.6022
 2638SOL    MW410607   4.274   3.648   4.274 -0.7524 -0.3352  0.3147
 2639SOL     OW10608   3.839   0.441   4.258  0.3586 -0.3347  0.1854
 2639SOL    HW210609   3.841   0.534   4.237 -2.8738 -0.7417 -2.3959
 2639SOL    HW310610   3.794   0.436   4.342  1.4352  0.4766  0.8204
 2639SOL    MW410611   3.833   0.453   4.266  0.0741 -0.2814 -0.0715
 2640SOL     OW10612   0.078   4.139   4.584 -0.2695 -0.0251 -0.2372
 2640SOL    HW210613   0.044   4.073   4.644 -2.2401  0.7980 -0.4297
 2640SOL    HW310614   0.067   4.101   4.497  1.0362 -0.5227 -0.1908
 2640SOL    MW410615   0.072   4.126   4.581 -0.3573  0.0181 -0.2561
 2641SOL     OW10616   3.715   0.407   4.516 -0.3925  0.0724  0.0995
 2641SOL    HW210617   3.630   0.451   4.521 -0.6990 -0.5148  0.0561
 2641SOL    HW310618   3.776   0.470   4.554 -0.5821  1.1912 -1.4127
 2641SOL    MW410619   3.711   0.421   4.522 -0.4580  0.1425 -0.1059
 2642SOL     OW10620   0.680   0.346   4.562  0.5672  0.2901  0.4305
 2642SOL    HW210621   0.766   0.305   4.573  0.4888 -0.2868 -1.0091
 2642SOL    HW310622   0.686   0.391   4.478  0.0679  1.8103  1.1819
 2642SOL    MW410623   0.692   0.347   4.552  0.4909  0.4145  0.3395
 2643SOL     OW10624   2.730   4.290   4.113  0.1818  0.1619 -0.3039
 2643SOL    HW210625   2.756   4.276   4.022  1.8324  1.7841 -0.0912
 2643SOL    HW310626   2.806   4.331   4.155 -0.8336  0.1588  1.6289
 2643SOL    MW410627   2.743   4.293   4.107  0.2656  0.3753 -0.0205
 2644SOL     OW10628   4.282   3.908   4.173 -0.4580 -0.3771  0.3590
 2644SOL    HW210629   4.285   3.820   4.212  0.6433 -0.8862 -0.8010
 2644SOL    HW310630   4.286   3.892   4.078 -0.2284  0.9231  0.1350
 2644SOL    MW410631   4.283   3.894   4.165 -0.2823 -0.2728  0.1764
 2645SOL     OW10632   4.084   1.616   4.458  0.3382  0.5287 -0.0525
 2645SOL    HW210633   4.011   1.660   4.500  1.6439  1.1336  1.6640
 2645SOL    HW310634   4.073   1.524   4.480 -0.2783  0.5313 -0.3608
 2645SOL    MW410635   4.073   1.610   4.467  0.4292  0.6087  0.1335
 2646SOL     OW10636   1.789   0.962   4.527  0.0387  0.2286  0.1266
 2646SOL    HW210637   1.873   0.957   4.573  0.6711 -0.0290 -1.0505
 2646SOL    HW310638   1.809   0.935   4.438 -1.4203 -0.4073 -0.0079
 2646SOL    MW410639   1.803   0.958   4.521 -0.0703  0.1107 -0.0467
 2647SOL     OW10640   2.547   0.284   4.617  0.1830  0.3048 -0.3730
 2647SOL    HW210641   2.475   0.223   4.601  0.1810 -0.3843  2.0193
 2647SOL    HW310642   2.626   0.231   4.609  0.2141  0.1200  0.9411
 2647SOL    MW410643   2.548   0.269   4.614  0.1869  0.1895  0.1159
 2648SOL     OW10644   1.167   1.982   4.486 -0.2054  0.1567 -0.5384
 2648SOL    HW210645   1.200   2.053   4.542 -2.1631  1.0705 -0.5101
 2648SOL    HW310646   1.238   1.918   4.484  0.7144  1.0877  1.2823
 2648SOL    MW410647   1.181   1.983   4.493 -0.3425  0.3999 -0.2947
 2649SOL     OW10648   3.490   4.472   4.583 -0.5187 -0.2652  0.2906
 2649SOL    HW210649   3.484   4.567   4.596  0.4555  0.0694 -1.5080
 2649SOL    HW310650   3.408   4.438   4.619 -1.3647  1.3641 -0.0346
 2649SOL    MW410651   3.479   4.480   4.590 -0.5016 -0.0062  0.0110
 2650SOL     OW10652   3.536   3.680   4.618 -0.1383  0.1537  0.6111
 2650SOL    HW210653   3.457   3.640   4.582 -0.4055  0.2341  1.1009
 2650SOL    HW310654   3.507   3.718   4.701  0.6893 -0.9340  1.4131
 2650SOL    MW410655   3.522   3.680   4.624 -0.0641  0.0210  0.7811
 2651SOL     OW10656   1.565   2.024   4.268  0.4002  0.0771 -0.0943
 2651SOL    HW210657   1.649   1.986   4.245  0.6072  0.6294 -0.2546
 2651SOL    HW310658   1.568   2.113   4.234 -0.4029 -0.0219 -0.4602
 2651SOL    MW410659   1.576   2.030   4.261  0.3217  0.1371 -0.1640
 2652SOL     OW10660   0.548   2.578   4.530 -0.3562  0.3405 -0.3996
 2652SOL    HW210661   0.513   2.667   4.523  1.2608  0.8218 -2.8553
 2652SOL    HW310662   0.525   2.536   4.447 -2.0219 -1.9476  1.1223
 2652SOL    MW410663   0.540   2.584   4.518 -0.3626  0.1020 -0.5236
 2653SOL     OW10664   0.759   4.209   4.714 -0.0465 -0.0496  0.0920
 2653SOL    HW210665   0.791   4.138   4.658 -0.8764 -0.8876  0.6718
 2653SOL    HW310666   0.690   4.169   4.767 -0.5226  1.1917  0.4264
 2653SOL    MW410667   0.754   4.194   4.713 -0.2188  0.0038  0.2122
 2654SOL     OW10668   0.429   1.651   4.245  0.1373 -0.1287  0.1543
 2654SOL    HW210669   0.347   1.618   4.209 -0.3050 -2.6157  3.2286
 2654SOL    HW310670   0.497   1.592   4.211  0.2092 -0.0997  0.2443
 2654SOL    MW410671   0.428   1.639   4.236  0.0884 -0.4530  0.5717
 2655SOL     OW10672   0.378   0.407   4.629  0.2992 -0.0667  0.0236
 2655SOL    HW210673   0.473   0.400   4.640  0.5260  0.2020 -1.6349
 2655SOL    HW310674   0.366   0.492   4.587 -0.6965 -0.0747  0.2862
 2655SOL    MW410675   0.389   0.418   4.625  0.1978 -0.0323 -0.1612
 2656SOL     OW10676   0.823   1.229   4.544  0.5695  0.0734  0.2266
 2656SOL    HW210677   0.753   1.283   4.507  1.7190  0.2897 -1.6835
 2656SOL    HW310678   0.889   1.292   4.572  0.7419 -0.2223  0.4877
 2656SOL    MW410679   0.822   1.244   4.543  0.7439  0.0628  0.0095
 2657SOL     OW10680   1.709   3.623   4.627 -0.3773 -0.0491  0.2761
 2657SOL    HW210681   1.689   3.715   4.644  0.0286  0.1106 -0.1194
 2657SOL    HW310682   1.625   3.585   4.600 -0.6867  0.0515  1.0871
 2657SOL    MW410683   1.695   3.630   4.626 -0.3644 -0.0148  0.3309
 2658SOL     OW10684   0.140   1.328   4.299 -0.5704 -0.1120  0.3951
 2658SOL    HW210685   0.082   1.366   4.365 -0.0929 -0.1140  0.8212
 2658SOL    HW310686   0.083   1.274   4.245 -0.9588 -0.1336  0.8236
 2658SOL    MW410687   0.125   1.326   4.301 -0.5586 -0.1150  0.5078
 2659SOL     OW10688   3.794   1.563   4.132  0.0635 -0.1725  0.2036
 2659SOL    HW210689   3.874   1.615   4.136  0.3951 -0.6902  0.4941
 2659SOL    HW310690   3.728   1.617   4.174  0.9051 -0.8545  2.5071
 2659SOL    MW410691   3.796   1.577   4.138  0.2184 -0.3308  0.5460
 2660SOL     OW10692   4.470   2.682   4.152 -0.0230  0.2579  0.0815
 2660SOL    HW210693   4.400   2.729   4.197 -0.9136 -0.0175 -0.9647
 2660SOL    HW310694   4.550   2.727   4.177 -0.6076  0.7621  1.0783
 2660SOL    MW410695   4.471   2.694   4.161 -0.2176  0.2880  0.0753
 2661SOL     OW10696   1.708   0.527   4.498  0.0144  0.3692  0.5583
 2661SOL    HW210697   1.661   0.610   4.508 -0.8310 -0.1887  1.3770
 2661SOL    HW310698   1.673   0.471   4.568  0.1658 -0.8651 -0.3325
 2661SOL    MW410699   1.697   0.530   4.509 -0.0772  0.1327  0.5488
 2662SOL     OW10700   2.787   0.130   4.542 -0.6523 -0.3443 -0.2977
 2662SOL    HW210701   2.862   0.185   4.561 -0.7603 -0.3960  0.2815
 2662SOL    HW310702   2.775   0.138   4.447 -0.3792  0.2503 -0.2852
 2662SOL    MW410703   2.795   0.138   4.532 -0.6306 -0.2727 -0.2198
 2663SOL     OW10704   2.717   1.631   4.455 -0.1736 -0.0414  0.5202
 2663SOL    HW210705   2.626   1.650   4.479 -0.4524 -0.1917 -0.4242
 2663SOL    HW310706   2.741   1.556   4.510 -1.0314 -0.8072 -0.1311
 2663SOL    MW410707   2.708   1.623   4.466 -0.3238 -0.1625  0.3090
 2664SOL     OW10708   3.454   0.528   4.488  0.0546  0.1420  0.4983
 2664SOL    HW210709   3.423   0.616   4.509  1.1100  0.6485 -0.0301
 2664SOL    HW310710   3.423   0.511   4.400 -0.5479 -0.2057  0.7741
 2664SOL    MW410711   3.446   0.537   4.479  0.1144  0.1629  0.4654
 2665SOL     OW10712   1.908   1.820   4.841 -0.2790  0.0977 -0.4011
 2665SOL    HW210713   1.989   1.769   4.839 -0.3782 -0.1508  1.2776
 2665SOL    HW310714   1.935   1.904   4.878 -0.7158  0.1632 -0.2393
 2665SOL    MW410715   1.923   1.824   4.845 -0.3499  0.0736 -0.1583
 2666SOL     OW10716   2.006   1.317   4.574  0.0365  0.0847  0.4695
 2666SOL    HW210717   1.947   1.368   4.629  0.3791  1.7444 -0.6594
 2666SOL    HW310718   2.092   1.358   4.585  0.6511 -1.2177  0.7297
 2666SOL    MW410719   2.010   1.329   4.582  0.1626  0.1318  0.3548
 2667SOL     OW10720   3.864   1.735   4.574  1.0994 -0.3296  0.2309
 2667SOL    HW210721   3.860   1.831   4.576  0.1965 -0.3471 -0.4617
 2667SOL    HW310722   3.772   1.707   4.572  1.3627 -1.2001 -0.0478
 2667SOL    MW410723   3.851   1.744   4.574  1.0149 -0.4467  0.1030
 2668SOL     OW10724   3.611   4.028   4.238  0.2240  0.2883 -0.0810
 2668SOL    HW210725   3.615   4.001   4.330  1.1244  0.5781 -0.0370
 2668SOL    HW310726   3.527   3.994   4.207  0.5138 -0.9679  0.4838
 2668SOL    MW410727   3.600   4.020   4.246  0.3812  0.1612 -0.0014
 2669SOL     OW10728   2.490   4.660   4.167  0.4119  0.2620  0.6337
 2669SOL    HW210729   2.480   4.572   4.203 -0.7669  1.0753  2.3727
 2669SOL    HW310730   2.568   4.695   4.210  0.0055  0.6103  1.0908
 2669SOL    MW410731   2.499   4.653   4.178  0.2029  0.4153  0.9241
 2670SOL     OW10732   3.833   1.369   4.520 -0.0667  0.0608 -0.0667
 2670SOL    HW210733   3.780   1.295   4.550  1.9978 -1.3613  0.1402
 2670SOL    HW310734   3.823   1.369   4.425 -1.1036  0.3250  0.0352
 2670SOL    MW410735   3.824   1.359   4.512  0.0689 -0.0920 -0.0262
 2671SOL     OW10736   1.933   3.900   4.502 -0.3215  0.3647  0.2269
 2671SOL    HW210737   1.889   3.929   4.422  0.2698 -0.4338 -0.3998
 2671SOL    HW310738   1.863   3.891   4.566 -1.0796 -0.8906 -0.7503
 2671SOL    MW410739   1.918   3.902   4.500 -0.3434  0.0937  0.0153
 2672SOL     OW10740   0.011   3.285   4.796  0.5633  0.0007 -0.2873
 2672SOL    HW210741   0.079   3.348   4.772 -0.6250  1.6134  0.4297
 2672SOL    HW310742  -0.017   3.312   4.883 -0.7939 -0.8080 -0.4562
 2672SOL    MW410743   0.016   3.297   4.804  0.2279  0.1066 -0.2146
 2673SOL     OW10744   1.378   4.563   4.526  0.4915  0.1515  0.2321
 2673SOL    HW210745   1.293   4.519   4.533  1.3518 -1.3256  1.9238
 2673SOL    HW310746   1.360   4.654   4.549 -0.4837 -0.3585  1.5353
 2673SOL    MW410747   1.364   4.569   4.530  0.4764 -0.1111  0.6275
 2674SOL     OW10748   3.696   0.901   4.478 -0.3275  0.0055 -0.1845
 2674SOL    HW210749   3.685   0.879   4.386 -0.3566  0.7504 -0.3657
 2674SOL    HW310750   3.790   0.894   4.493 -0.4427 -1.1356 -0.0045
 2674SOL    MW410751   3.707   0.897   4.468 -0.3464 -0.0468 -0.1850
 2675SOL     OW10752   2.833   1.474   4.865  0.6714  0.0688  0.2449
 2675SOL    HW210753   2.862   1.565   4.873  1.0789 -0.2064  2.0928
 2675SOL    HW310754   2.915   1.424   4.862  0.4445 -0.2582 -0.6417
 2675SOL    MW410755   2.848   1.479   4.865  0.6955 -0.0107  0.3715
 2676SOL     OW10756   1.616   1.797   4.811 -0.4879 -0.1735  0.0040
 2676SOL    HW210757   1.700   1.792   4.857 -0.6553 -0.3329  0.3017
 2676SOL    HW310758   1.604   1.890   4.791 -0.2640 -0.1447  0.0113
 2676SOL    MW410759   1.625   1.809   4.815 -0.4804 -0.1907  0.0443
 2677SOL     OW10760   1.882   1.666   4.486  0.0104 -0.1906  0.1915
 2677SOL    HW210761   1.857   1.746   4.532  0.8336  0.1084  0.1288
 2677SOL    HW310762   1.978   1.668   4.485  0.0433 -1.2587  0.3354
 2677SOL    MW410763   1.892   1.677   4.492  0.1235 -0.2921  0.2022
 2678SOL     OW10764   2.314   4.522   4.564 -0.1200  0.6203 -0.6611
 2678SOL    HW210765   2.408   4.506   4.556 -0.0723  1.2162 -1.3753
 2678SOL    HW310766   2.307   4.618   4.568 -0.6024  0.5460  0.7005
 2678SOL    MW410767   2.326   4.533   4.564 -0.1771  0.6890 -0.5755
 2679SOL     OW10768   2.637   3.712   4.500 -0.0260  0.3418 -0.4866
 2679SOL    HW210769   2.716   3.670   4.535 -0.2593 -0.4244 -0.8708
 2679SOL    HW310770   2.666   3.799   4.473  0.4644  0.4299  0.3172
 2679SOL    MW410771   2.651   3.718   4.501  0.0079  0.2525 -0.4320
 2680SOL     OW10772   2.966   2.928   4.972  0.2525 -0.4318  0.1097
 2680SOL    HW210773   3.019   2.852   4.949 -1.1241 -0.4572 -3.2042
 2680SOL    HW310774   3.030   2.996   4.994  1.5046 -2.3108  2.5723
 2680SOL    MW410775   2.982   2.927   4.972  0.2363 -0.6831 -0.0024
 2681SOL     OW10776   2.997   3.986   4.545  0.1541  0.3079  0.1817
 2681SOL    HW210777   3.058   4.004   4.473 -1.3954  0.1971 -1.2051
 2681SOL    HW310778   3.036   3.914   4.592  0.6423 -0.4068 -1.2799
 2681SOL    MW410779   3.010   3.979   4.541  0.0138  0.1993 -0.1941
 2682SOL     OW10780   0.438   3.968   4.263  0.1176 -0.5883  0.1536
 2682SOL    HW210781   0.360   3.948   4.212  0.4935  0.1287 -0.7016
 2682SOL    HW310782   0.428   4.060   4.288  0.0432 -0.8636  1.1966
 2682SOL    MW410783   0.427   3.977   4.260  0.1574 -0.5298  0.1783
 2683SOL     OW10784   0.011   4.056   4.312 -0.7545  0.0382 -0.5026
 2683SOL    HW210785  -0.073   4.033   4.272  0.2956  0.0856 -2.8101
 2683SOL    HW310786   0.046   4.125   4.256  0.9319 -0.1305  0.3064
 2683SOL    MW410787   0.005   4.062   4.299 -0.3935  0.0224 -0.7000
 2684SOL     OW10788   1.767   2.444   4.258  0.2830  0.1277  0.0682
 2684SOL    HW210789   1.742   2.444   4.350 -0.3561  0.3087 -0.1015
 2684SOL    HW310790   1.850   2.395   4.255  0.2492  0.0313  0.7174
 2684SOL    MW410791   1.775   2.437   4.270  0.1943  0.1392  0.1316
 2685SOL     OW10792   3.913   2.027   4.486 -0.0734  0.3945  0.4433
 2685SOL    HW210793   3.904   2.119   4.512 -0.9803 -0.3594  3.0517
 2685SOL    HW310794   4.005   2.006   4.502  0.2539  0.9569 -0.6336
 2685SOL    MW410795   3.924   2.037   4.492 -0.1497  0.3693  0.6447
 2686SOL     OW10796   0.957   4.572   4.650 -0.3857  0.3650 -0.3898
 2686SOL    HW210797   1.027   4.522   4.608  0.4023  1.3916 -0.3095
 2686SOL    HW310798   0.878   4.546   4.603  0.2032  0.0397 -1.2160
 2686SOL    MW410799   0.956   4.562   4.639 -0.2041  0.4573 -0.4883
 2687SOL     OW10800   2.377   4.021   4.671 -0.4402  0.1616 -0.3890
 2687SOL    HW210801   2.304   4.040   4.612 -0.9382 -0.3346  0.0556
 2687SOL    HW310802   2.376   3.926   4.679 -1.5321  0.3436  1.8658
 2687SOL    MW410803   2.367   4.011   4.664 -0.6499  0.1206 -0.0329
 2688SOL     OW10804   3.953   0.026   4.508 -0.1265 -0.0699 -0.1528
 2688SOL    HW210805   3.988   0.018   4.419  0.8167 -0.2358  0.2183
 2688SOL    HW310806   3.942  -0.064   4.538 -0.5929 -0.0148 -0.1619
 2688SOL    MW410807   3.956   0.013   4.501 -0.0637 -0.0846 -0.1054
 2689SOL     OW10808   3.442   4.131   4.626 -0.3686 -0.5568 -0.5618
 2689SOL    HW210809   3.522   4.175   4.655  0.6841 -1.5044 -1.9479
 2689SOL    HW310810   3.378   4.202   4.615  0.0365  0.1248  1.2736
 2689SOL    MW410811   3.444   4.146   4.628 -0.1762 -0.5918 -0.5026
 2690SOL     OW10812   0.769   3.289   4.561 -0.0236 -0.0034 -0.0461
 2690SOL    HW210813   0.806   3.223   4.619  0.6248  0.0165 -0.4344
 2690SOL    HW310814   0.831   3.296   4.489 -0.5858  0.3156 -0.5089
 2690SOL    MW410815   0.782   3.281   4.559 -0.0122  0.0415 -0.1583
 2691SOL     OW10816   0.316   3.306   4.590  0.5047 -0.0686 -0.2925
 2691SOL    HW210817   0.275   3.373   4.644  1.2969 -0.9812  1.4805
 2691SOL    HW310818   0.267   3.226   4.609  1.6519 -0.6845  0.1163
 2691SOL    MW410819   0.304   3.304   4.599  0.7606 -0.2701 -0.0043
 2692SOL     OW10820   1.387   3.314   4.558 -0.1654  0.4406 -0.2893
 2692SOL    HW210821   1.426   3.401   4.546 -1.0385  0.7871 -0.6721
 2692SOL    HW310822   1.299   3.331   4.590 -0.3901 -0.3054 -0.4927
 2692SOL    MW410823   1.381   3.328   4.560 -0.3103  0.3877 -0.3662
 2693SOL     OW10824   3.000   0.286   4.571 -0.2736  0.1882  0.4229
 2693SOL    HW210825   2.983   0.380   4.564  0.4884  0.1756 -2.2196
 2693SOL    HW310826   3.096   0.280   4.577 -0.3346 -0.4260  0.7691
 2693SOL    MW410827   3.011   0.298   4.571 -0.1812  0.1055  0.1197
 2694SOL     OW10828   2.963   1.730   4.857  0.1834  0.3684  0.6336
 2694SOL    HW210829   2.913   1.812   4.858  0.1971  0.4033 -0.9571
 2694SOL    HW310830   3.054   1.757   4.854  0.2749  0.2935  2.2740
 2694SOL    MW410831   2.968   1.744   4.857  0.1969  0.3631  0.6404
 2695SOL     OW10832   1.600   4.409   4.296 -0.2267 -0.3933  0.2216
 2695SOL    HW210833   1.678   4.357   4.277 -0.0546 -0.4405  1.0491
 2695SOL    HW310834   1.610   4.435   4.388 -1.3082 -0.6136  0.4053
 2695SOL    MW410835   1.612   4.406   4.306 -0.3465 -0.4287  0.3557
 2696SOL     OW10836   2.857   1.995   4.816  0.4494  0.2370  0.0745
 2696SOL    HW210837   2.854   1.979   4.722  1.6411  0.2542  0.0379
 2696SOL    HW310838   2.928   2.057   4.829  0.2478  0.2967  0.9807
 2696SOL    MW410839   2.866   2.001   4.805  0.5801  0.2472  0.1888
 2697SOL     OW10840   0.349   0.656   4.511 -0.4435  0.1851 -0.0447
 2697SOL    HW210841   0.268   0.707   4.515 -0.3133  0.3749  0.1928
 2697SOL    HW310842   0.418   0.721   4.507 -0.3660  0.0174 -1.6780
 2697SOL    MW410843   0.347   0.671   4.511 -0.4161  0.1880 -0.2289
 2698SOL     OW10844   2.972   0.564   4.524 -0.1567  0.2853  0.1846
 2698SOL    HW210845   2.889   0.610   4.541 -0.8153 -0.9734  0.4939
 2698SOL    HW310846   3.038   0.633   4.522 -1.2474  1.3340 -0.2903
 2698SOL    MW410847   2.969   0.579   4.526 -0.3874  0.2576  0.1631
 2699SOL     OW10848   1.141   2.025   4.212  0.0333  0.1831  0.0270
 2699SOL    HW210849   1.052   1.996   4.192  0.1616  0.1075 -0.4455
 2699SOL    HW310850   1.146   2.023   4.308 -0.0626 -1.0604  0.0134
 2699SOL    MW410851   1.130   2.021   4.222  0.0377  0.0091 -0.0372
 2700SOL     OW10852   3.150   0.803   4.503  0.1633  0.0632 -0.4195
 2700SOL    HW210853   3.137   0.828   4.411  1.5038  3.1664  0.1965
 2700SOL    HW310854   3.244   0.813   4.517 -0.3641  2.0649  1.9641
 2700SOL    MW410855   3.160   0.807   4.492  0.2706  0.7367 -0.0243
 2701SOL     OW10856   3.069   2.305   4.892 -0.2586  0.4885 -0.2246
 2701SOL    HW210857   2.984   2.347   4.886 -0.7242 -0.5465 -1.2004
 2701SOL    HW310858   3.129   2.374   4.921 -1.4400  1.1946  0.5631
 2701SOL    MW410859   3.066   2.319   4.895 -0.4761  0.4451 -0.2494
 2702SOL     OW10860   3.280   1.349   4.504  0.4814  0.4657  0.1984
 2702SOL    HW210861   3.281   1.437   4.540 -1.7015 -0.1885  1.9976
 2702SOL    HW310862   3.188   1.323   4.507  0.9240 -1.4218 -1.4430
 2702SOL    MW410863   3.268   1.357   4.509  0.2515  0.1303  0.2193
 2703SOL     OW10864   3.191   0.091   4.343  0.4181  0.3087 -0.4321
 2703SOL    HW210865   3.260   0.036   4.306 -0.4853 -1.1039 -0.0058
 2703SOL    HW310866   3.238   0.152   4.400  1.8093  2.2973 -3.5384
 2703SOL    MW410867   3.206   0.092   4.345  0.4826  0.3847 -0.7858
 2704SOL     OW10868   1.176   2.890   4.545  0.0689 -0.3836 -0.2985
 2704SOL    HW210869   1.124   2.820   4.584  0.4340 -0.4786  0.0192
 2704SOL    HW310870   1.116   2.964   4.538 -0.2173 -0.6164 -0.2992
 2704SOL    MW410871   1.161   2.890   4.549  0.0793 -0.4270 -0.2570
 2705SOL     OW10872   4.110   2.376   4.486  0.5617  0.2279  0.5279
 2705SOL    HW210873   4.027   2.350   4.525  1.2978 -0.9114  1.3396
 2705SOL    HW310874   4.176   2.325   4.532  1.4979 -0.8294 -1.9152
 2705SOL    MW410875   4.108   2.366   4.497  0.7825 -0.0622  0.3123
 2706SOL     OW10876   1.947   1.442   4.858  0.0982  0.2744 -0.0114
 2706SOL    HW210877   1.935   1.440   4.953  0.7275 -0.2024  0.0620
 2706SOL    HW310878   2.021   1.502   4.845  0.2390  0.0683 -0.1725
 2706SOL    MW410879   1.955   1.450   4.869  0.1999  0.1842 -0.0234
 2707SOL     OW10880   1.815   3.234   4.598 -0.2028 -0.1130 -0.0472
 2707SOL    HW210881   1.802   3.264   4.508  0.8989  0.1898 -0.1048
 2707SOL    HW310882   1.861   3.306   4.641 -2.7982  0.7324  1.4086
 2707SOL    MW410883   1.819   3.247   4.592 -0.3997  0.0384  0.1373
 2708SOL     OW10884   2.232   1.462   4.606 -0.1964  0.5641  0.1268
 2708SOL    HW210885   2.312   1.416   4.581  0.8724  2.0184  0.8351
 2708SOL    HW310886   2.229   1.538   4.548  0.1687  1.7716  1.6515
 2708SOL    MW410887   2.242   1.466   4.595 -0.0072  0.9155  0.4215
 2709SOL     OW10888   0.930   0.170   4.552  0.0660 -0.1421  0.1802
 2709SOL    HW210889   0.953   0.097   4.609  0.6450 -0.6375 -0.6736
 2709SOL    HW310890   0.906   0.130   4.469 -1.2598  0.5479  0.2179
 2709SOL    MW410891   0.930   0.155   4.549 -0.0325 -0.1164  0.0730
 2710SOL     OW10892   1.539   3.095   4.639  0.2089 -0.0321 -0.1969
 2710SOL    HW210893   1.628   3.130   4.631  0.1553  0.1476 -0.0048
 2710SOL    HW310894   1.482   3.171   4.626  0.0620 -0.3197 -1.2853
 2710SOL    MW410895   1.543   3.110   4.636  0.1824 -0.0463 -0.3152
 2711SOL     OW10896   1.365   1.150   4.488  0.0802  0.1619  0.3279
 2711SOL    HW210897   1.324   1.235   4.504  0.8460  0.7595 -0.8140
 2711SOL    HW310898   1.459   1.168   4.492  0.2412 -0.7890  0.8759
 2711SOL    MW410899   1.372   1.163   4.491  0.2025  0.1153  0.2499
 2712SOL     OW10900   0.866   4.011   4.545  0.6056  0.1007  0.7925
 2712SOL    HW210901   0.857   4.000   4.451 -0.1954  1.2751  0.7254
 2712SOL    HW310902   0.864   3.922   4.580 -1.9824 -0.2191 -0.0529
 2712SOL    MW410903   0.864   3.998   4.537  0.1584  0.2134  0.6723
 2713SOL     OW10904   0.139   3.707   4.517 -0.2778 -0.0462  0.3960
 2713SOL    HW210905   0.122   3.667   4.432 -1.8146  1.3349  0.0197
 2713SOL    HW310906   0.220   3.757   4.504 -1.3818  1.4793 -0.7422
 2713SOL    MW410907   0.148   3.708   4.504 -0.6262  0.3374  0.1960
 2714SOL     OW10908   2.095   3.378   4.868  0.4823  0.4781  0.5306
 2714SOL    HW210909   2.041   3.415   4.798 -0.1995  0.4844  1.0504
 2714SOL    HW310910   2.068   3.426   4.946  0.4206 -0.3257  1.0006
 2714SOL    MW410911   2.084   3.389   4.869  0.3843  0.3729  0.6614
 2715SOL     OW10912   1.844   0.122   4.264  0.2295  0.1183 -0.2089
 2715SOL    HW210913   1.820   0.211   4.235 -2.9083 -0.6298 -0.0857
 2715SOL    HW310914   1.836   0.125   4.359  0.2968 -0.2355 -0.1922
 2715SOL    MW410915   1.840   0.134   4.272 -0.1756 -0.0271 -0.1903
 2716SOL     OW10916   4.161   4.026   4.565 -0.1921  0.3142  0.3519
 2716SOL    HW210917   4.183   4.112   4.600  1.0016 -0.0160  0.4635
 2716SOL    HW310918   4.245   3.980   4.561 -0.8879 -1.0308  0.8043
 2716SOL    MW410919   4.175   4.031   4.569 -0.1264  0.0935  0.4258
 2717SOL     OW10920   0.421   2.211   4.474  0.4015 -0.0241  0.4352
 2717SOL    HW210921   0.493   2.149   4.486  0.8954  0.4257 -0.2103
 2717SOL    HW310922   0.355   2.161   4.425  0.2671 -0.4437  1.0479
 2717SOL    MW410923   0.422   2.196   4.469  0.4489 -0.0200  0.4306
 2718SOL     OW10924   2.328   3.237   4.584  0.2704 -0.0905  0.0057
 2718SOL    HW210925   2.282   3.181   4.648  0.0038  0.0990 -0.0174
 2718SOL    HW310926   2.410   3.191   4.566  0.7086  0.2509  1.0891
 2718SOL    MW410927   2.332   3.223   4.590  0.2928 -0.0203  0.1450
 2719SOL     OW10928   1.602   0.508   4.242  0.5787 -0.0446 -0.6636
 2719SOL    HW210929   1.594   0.600   4.219 -1.8236  0.3749  1.6206
 2719SOL    HW310930   1.626   0.507   4.335  0.8797 -1.7195 -0.7284
 2719SOL    MW410931   1.604   0.520   4.251  0.3015 -0.2102 -0.3705
 2720SOL     OW10932   2.667   2.188   4.838  0.2006 -0.3068 -0.1778
 2720SOL    HW210933   2.723   2.111   4.848  1.2935  0.5460  0.4275
 2720SOL    HW310934   2.727   2.263   4.850 -0.9419  0.6246 -0.1855
 2720SOL    MW410935   2.682   2.188   4.841  0.1941 -0.0710 -0.0987
 2721SOL     OW10936   3.682   1.156   4.597  0.1105 -0.3035 -0.3363
 2721SOL    HW210937   3.659   1.131   4.686  0.3262  0.8003  0.0357
 2721SOL    HW310938   3.674   1.075   4.547 -0.3095 -0.8673  0.6223
 2721SOL    MW410939   3.678   1.142   4.602  0.0837 -0.2323 -0.1612
 2722SOL     OW10940   3.848   2.284   4.538 -0.0943  0.1465 -0.0349
 2722SOL    HW210941   3.807   2.340   4.472 -0.4902  0.2530  0.3016
 2722SOL    HW310942   3.786   2.282   4.610 -0.0641 -0.7019 -0.0271
 2722SOL    MW410943   3.835   2.291   4.538 -0.1426  0.0482  0.0105
 2723SOL     OW10944   2.519   1.292   4.270 -0.2295 -0.3318  0.3099
 2723SOL    HW210945   2.598   1.242   4.248  0.4822  0.7968  0.2676
 2723SOL    HW310946   2.527   1.373   4.220 -1.8415 -0.5688 -0.3634
 2723SOL    MW410947   2.531   1.296   4.260 -0.3483 -0.2141  0.2151
 2724SOL     OW10948   3.394   2.897   4.874 -0.3219 -0.1638 -0.0270
 2724SOL    HW210949   3.310   2.854   4.889 -0.5832  0.3962  0.1241
 2724SOL    HW310950   3.440   2.838   4.815 -0.9855 -0.2798 -0.4422
 2724SOL    MW410951   3.389   2.884   4.868 -0.4437 -0.1054 -0.0620
 2725SOL     OW10952   0.971   3.072   4.548 -0.2448 -0.3014 -0.1506
 2725SOL    HW210953   0.913   2.996   4.559  1.7196 -2.0316 -1.3646
 2725SOL    HW310954   0.963   3.094   4.455  1.2002 -0.6942 -0.3699
 2725SOL    MW410955   0.962   3.065   4.537  0.2050 -0.5815 -0.3395
 2726SOL     OW10956   1.992   0.468   4.492  0.1935  0.0598 -0.1128
 2726SOL    HW210957   1.898   0.484   4.497  0.4820  1.8365  0.0749
 2726SOL    HW310958   2.032   0.544   4.534  1.6782 -1.9013  2.1748
 2726SOL    MW410959   1.985   0.480   4.498  0.4274  0.0355  0.2141
 2727SOL     OW10960   1.825   0.095   4.545 -0.2429 -0.4111 -0.2139
 2727SOL    HW210961   1.786   0.177   4.576  0.1364 -0.2106 -0.2623
 2727SOL    HW310962   1.906   0.087   4.595 -0.4441 -0.9290  0.0350
 2727SOL    MW410963   1.830   0.105   4.556 -0.2195 -0.4530 -0.1874
 2728SOL     OW10964   0.895   2.418   4.273  0.0671 -0.1051 -0.4764
 2728SOL    HW210965   0.967   2.378   4.223 -0.5291 -1.8056 -0.0005
 2728SOL    HW310966   0.816   2.374   4.242 -0.5037  0.0323  0.7303
 2728SOL    MW410967   0.894   2.406   4.262 -0.0868 -0.3114 -0.2542
 2729SOL     OW10968   0.782   2.858   4.571  0.0306  0.1220  0.0501
 2729SOL    HW210969   0.836   2.795   4.618  1.5513  0.9550 -0.5616
 2729SOL    HW310970   0.692   2.829   4.587  0.6945 -2.0565 -0.0553
 2729SOL    MW410971   0.777   2.846   4.579  0.3188 -0.0553 -0.0448
 2730SOL     OW10972   1.695   3.898   4.663 -0.1791  0.2088 -0.2486
 2730SOL    HW210973   1.657   3.966   4.607  2.0072  1.8506  0.1972
 2730SOL    HW310974   1.739   3.946   4.733  0.1647 -1.7318  0.9079
 2730SOL    MW410975   1.696   3.913   4.665  0.1547  0.1690 -0.0367
 2731SOL     OW10976   2.822   4.331   4.740  0.0661  0.4523 -0.6602
 2731SOL    HW210977   2.749   4.282   4.702  0.6989  0.3262 -1.7457
 2731SOL    HW310978   2.785   4.376   4.816 -0.5406 -1.6378  0.3006
 2731SOL    MW410979   2.808   4.331   4.745  0.0694  0.1597 -0.6766
 2732SOL     OW10980   2.454   1.732   4.541  0.1600  0.0302 -0.0584
 2732SOL    HW210981   2.365   1.701   4.525 -0.3600  1.3041  0.2962
 2732SOL    HW310982   2.452   1.767   4.630  1.1424 -0.3855  0.1252
 2732SOL    MW410983   2.442   1.733   4.550  0.2213  0.1434  0.0124
 2733SOL     OW10984   2.100   4.335   4.551  0.5982 -0.1424  0.6741
 2733SOL    HW210985   2.168   4.398   4.575  0.6251 -0.1996  0.7459
 2733SOL    HW310986   2.081   4.355   4.459  0.3891  0.1744  0.7857
 2733SOL    MW410987   2.106   4.346   4.542  0.5741 -0.1078  0.6981
 2734SOL     OW10988   4.413   3.863   4.582  0.5173 -0.0739 -0.3939
 2734SOL    HW210989   4.499   3.826   4.563 -0.2839 -0.4387 -3.5439
 2734SOL    HW310990   4.353   3.788   4.579 -0.0740  0.3543  0.6238
 2734SOL    MW410991   4.417   3.848   4.579  0.3333 -0.0656 -0.6752
 2735SOL     OW10992   2.300   3.483   4.724 -0.0426 -0.3825  0.4144
 2735SOL    HW210993   2.317   3.404   4.672 -1.5901 -0.5527  0.1366
 2735SOL    HW310994   2.236   3.455   4.790 -0.7757  0.6758  0.1734
 2735SOL    MW410995   2.294   3.469   4.726 -0.3436 -0.2654  0.3457
 2736SOL     OW10996   3.264   2.463   4.139  0.2987 -0.4411 -0.2292
 2736SOL    HW210997   3.302   2.423   4.061  0.3483 -0.5804 -0.1337
 2736SOL    HW310998   3.326   2.443   4.209  0.8348  0.6688 -0.3792
 2736SOL    MW410999   3.277   2.455   4.138  0.3760 -0.3130 -0.2365
 2737SOL     OW11000   3.629   1.575   4.521  0.5485 -0.0819  0.3209
 2737SOL    HW211001   3.686   1.500   4.537  0.3226 -0.5504 -1.0140
 2737SOL    HW311002   3.542   1.546   4.550  0.4306 -0.3975 -0.3406
 2737SOL    MW411003   3.625   1.561   4.527  0.5031 -0.1853  0.0572
 2738SOL     OW11004   0.171   2.833   4.535  0.1503  0.2631  0.3755
 2738SOL    HW211005   0.183   2.827   4.440 -0.7302 -0.2683  0.2957
 2738SOL    HW311006   0.152   2.926   4.550 -1.1075  0.0950 -0.1349
 2738SOL    MW411007   0.170   2.845   4.524 -0.1318  0.1709  0.2971
 2739SOL     OW11008   0.694   2.370   4.629  0.5895 -0.5225 -0.3219
 2739SOL    HW211009   0.652   2.360   4.714  0.3921  0.8193 -0.2435
 2739SOL    HW311010   0.648   2.444   4.588  2.7895  0.9265 -0.2856
 2739SOL    MW411011   0.682   2.379   4.635  0.8537 -0.1540 -0.3071
 2740SOL     OW11012   1.198   2.458   4.671 -0.3363  0.1522 -0.4867
 2740SOL    HW211013   1.248   2.437   4.592 -0.7025 -1.1643 -0.3767
 2740SOL    HW311014   1.106   2.450   4.644 -0.4560 -0.5276  0.1397
 2740SOL    MW411015   1.193   2.454   4.657 -0.4003 -0.1113 -0.3896
 2741SOL     OW11016   2.039   3.882   4.135  0.3385 -0.1028  0.5295
 2741SOL    HW211017   1.970   3.934   4.177 -0.2627 -1.6737  1.5485
 2741SOL    HW311018   2.023   3.892   4.041 -1.7336 -1.0011  0.7513
 2741SOL    MW411019   2.028   3.890   4.128 -0.0143 -0.4284  0.6933
 2742SOL     OW11020   0.482   0.889   4.446  0.2757 -0.2445  0.0593
 2742SOL    HW211021   0.530   0.943   4.509 -0.1906 -0.4819  0.6186
 2742SOL    HW311022   0.430   0.952   4.395  1.4187  0.0464 -0.7647
 2742SOL    MW411023   0.481   0.905   4.447  0.3650 -0.2375  0.0243
 2743SOL     OW11024   2.025   0.513   4.214 -0.3930  0.4416  0.3466
 2743SOL    HW211025   2.096   0.466   4.170  0.3687  1.6628  0.2329
 2743SOL    HW311026   2.026   0.480   4.304 -1.6413 -1.7157 -0.3974
 2743SOL    MW411027   2.035   0.503   4.220 -0.4570  0.3181  0.2332
 2744SOL     OW11028   2.259   0.115   4.267  0.1969  0.0589  0.1368
 2744SOL    HW211029   2.337   0.076   4.229  0.7303  0.4211  0.8386
 2744SOL    HW311030   2.188   0.054   4.248  0.5484  0.0135 -1.0079
 2744SOL    MW411031   2.260   0.102   4.260  0.3138  0.1007  0.0782
 2745SOL     OW11032   1.577   0.764   4.532  0.3580  0.1743 -0.0573
 2745SOL    HW211033   1.634   0.841   4.527  0.3256  0.1122 -1.6889
 2745SOL    HW311034   1.491   0.797   4.505 -0.4425  0.2994  2.5156
 2745SOL    MW411035   1.573   0.779   4.527  0.2482  0.1826  0.0668
 2746SOL     OW11036   1.520   2.064   4.756  0.1644  0.7916 -0.1556
 2746SOL    HW211037   1.427   2.088   4.751  0.3807  1.5324 -0.7187
 2746SOL    HW311038   1.540   2.028   4.670  0.1651 -0.2734  0.2789
 2746SOL    MW411039   1.510   2.063   4.744  0.1929  0.7486 -0.1726
 2747SOL     OW11040   4.089   3.433   4.799 -0.0007  0.4639 -0.2934
 2747SOL    HW211041   4.170   3.432   4.748  0.9641  0.4236  1.1853
 2747SOL    HW311042   4.056   3.522   4.790  1.4351  1.1580  0.9028
 2747SOL    MW411043   4.095   3.445   4.791  0.3157  0.5500  0.0596
 2748SOL     OW11044   0.454   0.159   4.542  0.1726 -0.3965  0.1220
 2748SOL    HW211045   0.541   0.192   4.565  0.0015 -0.2584  0.5857
 2748SOL    HW311046   0.397   0.236   4.550  0.1353 -0.3164 -0.9255
 2748SOL    MW411047   0.458   0.174   4.546  0.1451 -0.3677  0.0448
 2749SOL     OW11048   2.945   1.300   4.273  0.4621 -0.2365  0.3131
 2749SOL    HW211049   3.020   1.273   4.221 -0.1012  0.9399 -1.1651
 2749SOL    HW311050   2.874   1.241   4.247 -0.0208  0.8332 -0.8363
 2749SOL    MW411051   2.945   1.289   4.263  0.3238  0.0600 -0.0339
 2750SOL     OW11052   1.371   2.636   4.807 -0.0453 -0.8653  0.2913
 2750SOL    HW211053   1.387   2.703   4.741  0.2900 -1.9694 -0.7702
 2750SOL    HW311054   1.315   2.572   4.762  1.3357 -2.3246  0.6137
 2750SOL    MW411055   1.366   2.636   4.792  0.1812 -1.2035  0.1931
 2751SOL     OW11056   0.101   4.602   4.442 -0.3142 -0.1886 -0.3661
 2751SOL    HW211057   0.134   4.624   4.355 -0.7452 -0.1797 -0.5266
 2751SOL    HW311058   0.043   4.675   4.465 -0.1878 -0.1816 -0.0624
 2751SOL    MW411059   0.098   4.615   4.433 -0.3544 -0.1864 -0.3471
 2752SOL     OW11060   1.993   2.832   4.219 -0.5886  0.0338  0.5118
 2752SOL    HW211061   1.999   2.835   4.314 -0.6395  0.6152  0.4965
 2752SOL    HW311062   1.980   2.923   4.192 -0.0431 -0.0579 -0.0840
 2752SOL    MW411063   1.992   2.844   4.228 -0.5232  0.0982  0.4315
 2753SOL     OW11064   2.961   2.003   4.524  0.0173  0.0906 -0.2943
 2753SOL    HW211065   2.989   2.040   4.440 -0.1608 -0.5638 -0.6446
 2753SOL    HW311066   3.027   2.032   4.587  0.7145 -0.2859 -0.8528
 2753SOL    MW411067   2.973   2.012   4.521  0.0856 -0.0458 -0.4139
 2754SOL     OW11068   1.277   1.412   4.529 -0.1049  0.4196  0.3145
 2754SOL    HW211069   1.199   1.411   4.584  0.0448 -0.3372  0.5302
 2754SOL    HW311070   1.326   1.489   4.557  0.4865 -0.5356  2.0052
 2754SOL    MW411071   1.273   1.422   4.540 -0.0072  0.1938  0.5660
 2755SOL     OW11072   1.632   4.149   4.516  0.1346  0.3453  0.3080
 2755SOL    HW211073   1.669   4.113   4.435  0.7758  1.0441  0.2794
 2755SOL    HW311074   1.707   4.190   4.560 -0.3356  0.5276  0.9441
 2755SOL    MW411075   1.647   4.150   4.511  0.1572  0.4616  0.3881
 2756SOL     OW11076   4.209   1.993   4.496 -0.1043  0.1205  0.0434
 2756SOL    HW211077   4.216   2.021   4.405  0.9868 -1.5627 -0.4087
 2756SOL    HW311078   4.247   2.064   4.547  1.6986 -0.0884 -1.0037
 2756SOL    MW411079   4.215   2.006   4.491  0.2775 -0.1292 -0.1545
 2757SOL     OW11080   4.056   0.039   4.225  0.2793 -0.5353  0.1331
 2757SOL    HW211081   4.068   0.132   4.202  1.8334 -0.3515  1.6416
 2757SOL    HW311082   3.973   0.015   4.182 -0.8094  1.8891  0.7583
 2757SOL    MW411083   4.046   0.048   4.216  0.3409 -0.1912  0.4144
 2758SOL     OW11084   3.299   3.585   4.521  0.6265  0.5088 -0.4258
 2758SOL    HW211085   3.317   3.586   4.427  0.5321 -1.1651 -0.4794
 2758SOL    HW311086   3.287   3.492   4.542  0.4085  0.8896  1.1942
 2758SOL    MW411087   3.300   3.573   4.511  0.5856  0.3383 -0.2193
 2759SOL     OW11088   4.179   0.490   4.587  0.0873 -0.4229  0.2187
 2759SOL    HW211089   4.183   0.521   4.497 -0.2068  0.6470  0.5679
 2759SOL    HW311090   4.267   0.457   4.605  0.2870 -0.1696 -0.2845
 2759SOL    MW411091   4.191   0.490   4.578  0.0749 -0.2483  0.1988
 2760SOL     OW11092   0.609   1.046   4.646 -0.3609  0.7760  0.6180
 2760SOL    HW211093   0.679   1.099   4.608 -0.8533  0.5365 -0.6753
 2760SOL    HW311094   0.590   1.087   4.730 -0.7305  2.6718 -0.3520
 2760SOL    MW411095   0.616   1.058   4.652 -0.4747  0.9946  0.3200
 2761SOL     OW11096   2.261   0.912   4.522  0.5158  0.0398  0.4102
 2761SOL    HW211097   2.330   0.970   4.554 -0.1467  0.0667  1.8338
 2761SOL    HW311098   2.180   0.952   4.553 -0.0632 -0.6638 -0.1811
 2761SOL    MW411099   2.260   0.925   4.530  0.3521 -0.0495  0.5202
 2762SOL     OW11100   2.774   0.945   4.617 -0.2876  0.3478  0.0589
 2762SOL    HW211101   2.757   0.853   4.596 -0.9947  0.6066 -0.5434
 2762SOL    HW311102   2.765   0.991   4.534  0.0739  0.9620  0.3541
 2762SOL    MW411103   2.770   0.939   4.604 -0.3331  0.4629  0.0176
 2763SOL     OW11104   4.075   4.242   4.161  0.3519 -0.2017 -0.1468
 2763SOL    HW211105   4.163   4.263   4.193  1.6279 -1.1883 -2.8039
 2763SOL    HW311106   4.051   4.163   4.209  1.1255 -0.1912  0.2744
 2763SOL    MW411107   4.084   4.234   4.172  0.6223 -0.3304 -0.4416
 2764SOL     OW11108   3.185   2.451   4.633  0.2248 -0.2516 -0.4624
 2764SOL    HW211109   3.187   2.397   4.712  2.0686 -1.6034 -1.3780
 2764SOL    HW311110   3.118   2.517   4.650  0.4137 -0.6849  2.1007
 2764SOL    MW411111   3.176   2.452   4.646  0.4930 -0.4873 -0.2451
 2765SOL     OW11112   1.692   2.483   4.540 -0.2133  0.1457 -0.3126
 2765SOL    HW211113   1.693   2.574   4.508  0.2202  0.4892  0.6464
 2765SOL    HW311114   1.784   2.461   4.552 -0.4129  0.6095  2.2845
 2765SOL    MW411115   1.704   2.492   4.538 -0.1825  0.2522  0.1564
 2766SOL     OW11116   0.480   2.844   4.570  0.4686 -0.3047  0.3721
 2766SOL    HW211117   0.387   2.844   4.591  0.3338 -1.0204 -0.2239
 2766SOL    HW311118   0.502   2.936   4.557  0.0328 -0.0594  1.3382
 2766SOL    MW411119   0.471   2.856   4.571  0.3933 -0.3669  0.4206
 2767SOL     OW11120   1.806   1.651   4.218 -0.4514  0.3197 -0.0485
 2767SOL    HW211121   1.720   1.618   4.194 -0.2075 -0.7445  0.5447
 2767SOL    HW311122   1.808   1.648   4.314  0.4143 -0.0944 -0.0718
 2767SOL    MW411123   1.795   1.647   4.228 -0.3051  0.1246  0.0267
 2768SOL     OW11124   3.230   1.619   4.597 -0.5241 -0.2033 -0.3337
 2768SOL    HW211125   3.236   1.691   4.660 -1.3540 -1.2684  0.9991
 2768SOL    HW311126   3.154   1.641   4.542 -1.4908 -0.6194  0.8157
 2768SOL    MW411127   3.221   1.632   4.598 -0.7610 -0.3986 -0.0057
 2769SOL     OW11128   2.765   1.977   4.130 -0.2110 -0.3372  0.4994
 2769SOL    HW211129   2.753   1.943   4.041 -1.2469  2.5539 -0.5140
 2769SOL    HW311130   2.678   2.005   4.157  0.1330 -1.0160  2.3812
 2769SOL    MW411131   2.752   1.976   4.122 -0.3026 -0.0453  0.6142
 2770SOL     OW11132   0.730   4.429   4.535  0.4613  0.4199 -0.0213
 2770SOL    HW211133   0.721   4.397   4.446 -0.7954  0.2818  0.1397
 2770SOL    HW311134   0.751   4.351   4.587  0.4966  0.3835 -0.0918
 2770SOL    MW411135   0.732   4.414   4.530  0.3001  0.3967 -0.0091
 2771SOL     OW11136   1.137   3.382   4.629 -0.1144  0.1240 -0.0168
 2771SOL    HW211137   1.069   3.321   4.599 -0.9283  0.9766  0.0652
 2771SOL    HW311138   1.116   3.464   4.585 -0.7478  1.1233  2.1161
 2771SOL    MW411139   1.125   3.385   4.619 -0.3054  0.3681  0.2756
 2772SOL     OW11140   0.439   4.356   4.556 -0.7169 -0.1417 -0.0209
 2772SOL    HW211141   0.528   4.386   4.573 -0.3381 -1.2598 -0.0108
 2772SOL    HW311142   0.384   4.432   4.577  0.1687  0.3224  0.6532
 2772SOL    MW411143   0.444   4.370   4.561 -0.5501 -0.2284  0.0696
 2773SOL     OW11144   3.350   1.076   4.687 -0.4427 -0.1738  0.0069
 2773SOL    HW211145   3.356   1.161   4.643 -0.5716 -0.1831 -0.0292
 2773SOL    HW311146   3.257   1.066   4.706 -0.3618 -0.0719  0.4761
 2773SOL    MW411147   3.339   1.086   4.684 -0.4489 -0.1616  0.0639
 2774SOL     OW11148   0.570   1.571   4.511  0.0946 -0.1677  0.6013
 2774SOL    HW211149   0.496   1.614   4.468  0.1582 -1.2069 -0.5792
 2774SOL    HW311150   0.555   1.478   4.497  2.5740 -0.3289 -1.2674
 2774SOL    MW411151   0.558   1.565   4.504  0.4301 -0.3260  0.1988
 2775SOL     OW11152   1.540   3.662   4.205 -0.0886  0.1732  0.2217
 2775SOL    HW211153   1.619   3.621   4.168 -1.3953 -0.2950 -2.1738
 2775SOL    HW311154   1.472   3.594   4.196 -1.2051  1.2482  0.4423
 2775SOL    MW411155   1.541   3.648   4.199 -0.4082  0.2532 -0.0658
 2776SOL     OW11156   3.008   1.721   4.446  0.1537 -0.2963  0.2095
 2776SOL    HW211157   2.919   1.687   4.452  0.2814 -0.3328  2.1547
 2776SOL    HW311158   3.004   1.809   4.484  1.0247 -0.4635  0.7099
 2776SOL    MW411159   2.996   1.728   4.452  0.2856 -0.3232  0.5326
 2777SOL     OW11160   0.436   3.215   4.252  0.2613 -0.1886  0.1917
 2777SOL    HW211161   0.444   3.310   4.246  0.2065 -0.1310  0.9959
 2777SOL    HW311162   0.457   3.195   4.343 -1.0521 -0.8192  0.3639
 2777SOL    MW411163   0.440   3.225   4.264  0.0808 -0.2642  0.3204
 2778SOL     OW11164   3.144   2.738   4.891  0.3094 -0.1336  0.0269
 2778SOL    HW211165   3.166   2.662   4.946 -0.7172 -0.0284  0.5896
 2778SOL    HW311166   3.080   2.704   4.828  0.6974  0.0018 -0.4467
 2778SOL    MW411167   3.139   2.723   4.890  0.2251 -0.1018  0.0386
 2779SOL     OW11168   3.246   4.319   4.598  0.7396 -0.6943 -0.7613
 2779SOL    HW211169   3.200   4.389   4.552  0.4549 -0.1158  0.3934
 2779SOL    HW311170   3.179   4.278   4.653  1.1898 -1.0326 -0.4640
 2779SOL    MW411171   3.231   4.323   4.599  0.7615 -0.6628 -0.5693
 2780SOL     OW11172   2.185   4.070   4.495 -0.8221  0.0268  0.4110
 2780SOL    HW211173   2.112   4.012   4.516 -1.1622  0.6477  0.9665
 2780SOL    HW311174   2.160   4.155   4.531  0.4078  0.1170  1.1034
 2780SOL    MW411175   2.172   4.074   4.503 -0.7050  0.1206  0.5751
 2781SOL     OW11176   2.717   4.016   4.176  0.4221  0.5332 -0.2407
 2781SOL    HW211177   2.701   4.107   4.151 -0.7192  1.0143  2.1177
 2781SOL    HW311178   2.634   3.972   4.156  0.3940  0.3731  0.2321
 2781SOL    MW411179   2.704   4.022   4.170  0.2680  0.5751  0.1330
 2782SOL     OW11180   3.296   0.268   4.528 -0.2241  0.0485  0.0603
 2782SOL    HW211181   3.350   0.212   4.584 -0.3565  1.1249  1.2919
 2782SOL    HW311182   3.351   0.345   4.512 -1.0240  0.7161  0.5154
 2782SOL    MW411183   3.310   0.271   4.534 -0.3471  0.2786  0.2828
 2783SOL     OW11184   2.164   1.672   4.452 -0.1065 -0.1143  0.3820
 2783SOL    HW211185   2.209   1.677   4.367  0.7903 -0.9311  0.8013
 2783SOL    HW311186   2.163   1.762   4.483 -1.7278  0.4281 -1.1475
 2783SOL    MW411187   2.170   1.685   4.445 -0.2022 -0.1504  0.2351
 2784SOL     OW11188   1.936   2.782   4.489 -0.8651 -0.1061  0.0560
 2784SOL    HW211189   1.842   2.772   4.497 -0.6949 -2.3818 -0.5312
 2784SOL    HW311190   1.961   2.836   4.564 -2.7717  1.6132 -0.5132
 2784SOL    MW411191   1.927   2.788   4.500 -1.0945 -0.1795 -0.0958
 2785SOL     OW11192   1.006   1.427   4.639 -0.0489 -0.4075  0.5572
 2785SOL    HW211193   0.991   1.434   4.733 -0.0383  0.8877  0.4661
 2785SOL    HW311194   0.968   1.506   4.602  0.4977 -0.6077 -0.4649
 2785SOL    MW411195   0.999   1.438   4.647  0.0246 -0.2631  0.4106
 2786SOL     OW11196   4.017   3.688   4.677  0.5458 -0.2007  0.1640
 2786SOL    HW211197   3.936   3.654   4.637  0.5957 -0.1118 -0.0111
 2786SOL    HW311198   4.006   3.783   4.675  0.4903 -0.2001  0.4794
 2786SOL    MW411199   4.005   3.696   4.671  0.5450 -0.1888  0.1826
 2787SOL     OW11200   3.661   3.157   4.572  0.0071  0.2501 -0.4524
 2787SOL    HW211201   3.635   3.186   4.485  1.5565 -0.1581 -1.0678
 2787SOL    HW311202   3.740   3.208   4.592 -0.4487  0.4821  0.7983
 2787SOL    MW411203   3.668   3.167   4.563  0.1514  0.2270 -0.3681
 2788SOL     OW11204   1.660   4.507   4.575 -0.0680  0.4235 -0.3276
 2788SOL    HW211205   1.567   4.528   4.572 -0.2109 -0.3523 -1.7002
 2788SOL    HW311206   1.704   4.590   4.560 -0.5496  0.6816 -0.3091
 2788SOL    MW411207   1.654   4.521   4.573 -0.1504  0.3552 -0.5054
 2789SOL     OW11208   2.992   2.106   4.262  0.0350  0.3731 -0.3673
 2789SOL    HW211209   3.071   2.067   4.225 -0.3927  0.0838 -0.9895
 2789SOL    HW311210   2.921   2.069   4.210 -0.6218 -0.3874  1.0280
 2789SOL    MW411211   2.993   2.096   4.250 -0.1080  0.2346 -0.2656
 2790SOL     OW11212   4.109   1.900   4.093 -0.1932  0.2714  0.1505
 2790SOL    HW211213   4.023   1.937   4.115  0.1641  0.6178  0.9690
 2790SOL    HW311214   4.105   1.810   4.123  1.2600  1.4740  4.2737
 2790SOL    MW411215   4.097   1.893   4.100  0.0458  0.4758  0.8025
 2791SOL     OW11216   3.940   4.405   4.582  0.2858 -0.1566  0.1011
 2791SOL    HW211217   3.936   4.365   4.495  1.4478 -0.9772  0.4188
 2791SOL    HW311218   4.026   4.381   4.616 -0.4188 -0.3967  1.7643
 2791SOL    MW411219   3.951   4.397   4.575  0.3464 -0.2966  0.3619
 2792SOL     OW11220   3.383   0.762   4.110  0.1943  0.0336  0.2821
 2792SOL    HW211221   3.298   0.797   4.135 -0.8354 -1.1049 -1.4883
 2792SOL    HW311222   3.387   0.675   4.152  0.3080 -0.0792  0.0403
 2792SOL    MW411223   3.373   0.755   4.119  0.0734 -0.1315  0.0167
 2793SOL     OW11224   3.599   0.114   4.220  0.3284  0.3300 -0.6222
 2793SOL    HW211225   3.634   0.110   4.309  0.5504 -0.5664 -0.7419
 2793SOL    HW311226   3.610   0.205   4.193  1.0176  0.4186 -0.0370
 2793SOL    MW411227   3.605   0.125   4.228  0.4485  0.2234 -0.5612
 2794SOL     OW11228   1.330   0.879   4.455  0.0913 -0.1534  0.4581
 2794SOL    HW211229   1.336   0.971   4.483  0.5154 -0.0195 -0.0571
 2794SOL    HW311230   1.345   0.882   4.361 -0.8253 -0.6559  0.2965
 2794SOL    MW411231   1.333   0.892   4.446  0.0265 -0.2020  0.3686
 2795SOL     OW11232   3.676   2.733   4.332 -0.2045  0.3948  0.3047
 2795SOL    HW211233   3.670   2.785   4.413  0.8005  0.0912  0.5765
 2795SOL    HW311234   3.604   2.766   4.278 -0.6390  0.8869  1.1566
 2795SOL    MW411235   3.666   2.744   4.336 -0.1292  0.4194  0.4530
 2796SOL     OW11236   1.130   4.398   4.510 -0.2954  0.3818 -0.1612
 2796SOL    HW211237   1.131   4.311   4.549  0.8365  0.3477 -0.2578
 2796SOL    HW311238   1.117   4.383   4.416 -1.9205  0.4108  0.0506
 2796SOL    MW411239   1.129   4.385   4.503 -0.3605  0.3810 -0.1459
 2797SOL     OW11240   3.439   2.363   4.326  0.2974  0.4834 -0.1834
 2797SOL    HW211241   3.435   2.369   4.422 -1.4093  0.3538 -0.2348
 2797SOL    HW311242   3.527   2.394   4.304  1.2027 -0.7689  1.5211
 2797SOL    MW411243   3.451   2.368   4.336  0.1917  0.3011  0.0348
 2798SOL     OW11244   0.967   2.443   4.544  0.9258  0.1472  0.0506
 2798SOL    HW211245   0.961   2.425   4.450  2.5050 -0.2688  0.0155
 2798SOL    HW311246   0.887   2.405   4.581  1.0913 -1.1610 -0.8976
 2798SOL    MW411247   0.955   2.436   4.536  1.1560 -0.0801 -0.0792
 2799SOL     OW11248   3.577   1.680   4.249  0.0982  0.4586 -0.1530
 2799SOL    HW211249   3.594   1.644   4.336  1.8124 -0.0596 -0.6785
 2799SOL    HW311250   3.496   1.637   4.221 -0.6431  0.8726  1.3104
 2799SOL    MW411251   3.568   1.669   4.257  0.2265  0.4449 -0.0291
 2800SOL     OW11252   3.738   2.869   4.565  0.0013  0.2094  0.3022
 2800SOL    HW211253   3.833   2.875   4.566  0.1313 -1.6396  0.5344
 2800SOL    HW311254   3.708   2.960   4.562  1.7613  0.8076  0.4742
 2800SOL    MW411255   3.746   2.882   4.565  0.2508  0.0443  0.3552
 2801SOL     OW11256   2.982   3.328   4.533 -0.4917  0.3513  0.6347
 2801SOL    HW211257   3.069   3.316   4.572 -0.7451  1.3085  1.5185
 2801SOL    HW311258   2.992   3.297   4.443  1.3462  2.3882  0.0715
 2801SOL    MW411259   2.995   3.323   4.526 -0.2825  0.7465  0.6771
 2802SOL     OW11260   0.688   3.552   4.550  0.2456 -0.2594  0.2211
 2802SOL    HW211261   0.719   3.463   4.559  0.1429 -0.2470  0.7060
 2802SOL    HW311262   0.608   3.556   4.603  0.8350  0.4060  1.0913
 2802SOL    MW411263   0.681   3.541   4.558  0.3097 -0.1700  0.3996
 2803SOL     OW11264   0.305   4.585   4.629  0.0956  0.4932 -0.1105
 2803SOL    HW211265   0.237   4.578   4.562 -0.1679 -1.5408  0.3471
 2803SOL    HW311266   0.361   4.656   4.599 -0.5028  0.1559 -2.0580
 2803SOL    MW411267   0.304   4.593   4.616 -0.0181  0.1802 -0.3071
 2804SOL     OW11268   1.467   1.613   4.671 -0.1654 -0.1169 -0.3283
 2804SOL    HW211269   1.538   1.549   4.661 -0.5681 -0.5275 -0.5480
 2804SOL    HW311270   1.506   1.682   4.725  1.1679  0.8153 -2.4000
 2804SOL    MW411271   1.482   1.614   4.677 -0.0427 -0.0482 -0.6309
 2805SOL     OW11272   0.576   1.300   4.406  0.1077  0.1042  0.1233
 2805SOL    HW211273   0.505   1.236   4.406 -0.2583  0.4876  1.5629
 2805SOL    HW311274   0.572   1.340   4.319  0.2816 -1.7395 -0.7529
 2805SOL    MW411275   0.566   1.297   4.395  0.0823 -0.0883  0.1974
 2806SOL     OW11276   1.414   0.143   4.265  0.2472  0.5463  0.2541
 2806SOL    HW211277   1.490   0.096   4.232  0.0568 -0.4473  1.1914
 2806SOL    HW311278   1.404   0.218   4.207  1.0970 -0.0956 -0.7225
 2806SOL    MW411279   1.423   0.147   4.253  0.3343  0.3305  0.2489
 2807SOL     OW11280   1.951   2.991   4.668 -0.6182 -0.1596  0.7822
 2807SOL    HW211281   2.028   3.026   4.713  0.1146  0.0572 -0.6122
 2807SOL    HW311282   1.891   3.065   4.662 -0.7619 -0.2142  1.4779
 2807SOL    MW411283   1.954   3.005   4.674 -0.5404 -0.1383  0.6895
 2808SOL     OW11284   2.212   2.673   4.114 -0.1916  0.1360  0.3983
 2808SOL    HW211285   2.142   2.735   4.137 -0.1760  0.8157 -1.3065
 2808SOL    HW311286   2.293   2.722   4.131 -0.1708  0.3260 -0.2386
 2808SOL    MW411287   2.213   2.688   4.120 -0.1867  0.2506  0.0896
 2809SOL     OW11288   0.108   0.267   4.787 -0.1865  0.1626  0.4522
 2809SOL    HW211289   0.150   0.198   4.838  0.5120 -0.6677 -1.1783
 2809SOL    HW311290   0.177   0.333   4.775 -0.3757  0.3985  0.6799
 2809SOL    MW411291   0.123   0.267   4.792 -0.1194  0.0842  0.2675
 2810SOL     OW11292   3.171   0.319   4.155  0.5615 -0.2668  0.1691
 2810SOL    HW211293   3.090   0.360   4.186  0.6959  1.2088 -1.3207
 2810SOL    HW311294   3.181   0.241   4.210 -1.8436 -0.4744  0.3883
 2810SOL    MW411295   3.162   0.314   4.166  0.2618 -0.0995  0.0014
 2811SOL     OW11296   3.011   1.269   4.538  0.3687  0.3348  0.2854
 2811SOL    HW211297   2.995   1.288   4.445  2.1932  1.2824  0.1535
 2811SOL    HW311298   3.022   1.174   4.541  1.1616  0.3946 -0.5973
 2811SOL    MW411299   3.010   1.259   4.526  0.7141  0.4678  0.1512
 2812SOL     OW11300   1.808   4.289   4.674 -0.1848 -0.0118 -0.1548
 2812SOL    HW211301   1.895   4.310   4.639 -0.3061  0.5440 -0.1201
 2812SOL    HW311302   1.763   4.373   4.679 -0.8545 -0.3465 -0.5109
 2812SOL    MW411303   1.814   4.303   4.670 -0.2892  0.0172 -0.1969
 2813SOL     OW11304   3.222   1.815   4.817 -0.3842  0.6362  0.2310
 2813SOL    HW211305   3.204   1.909   4.823  0.3205  0.7402  0.7254
 2813SOL    HW311306   3.294   1.800   4.877  1.1633  0.2152 -1.6749
 2813SOL    MW411307   3.229   1.826   4.825 -0.0873  0.5944  0.0448
 2814SOL     OW11308   2.575   4.435   4.488  0.0450  0.1679 -0.1924
 2814SOL    HW211309   2.582   4.347   4.524  0.2367  0.0492 -0.5112
 2814SOL    HW311310   2.663   4.471   4.495  0.3693 -0.2974 -1.6359
 2814SOL    MW411311   2.587   4.429   4.493  0.1130  0.0906 -0.4253
 2815SOL     OW11312   4.376   1.444   4.491  0.2855  0.5106 -0.8007
 2815SOL    HW211313   4.286   1.416   4.507  0.7217 -0.1119  0.6052
 2815SOL    HW311314   4.375   1.539   4.502 -0.2400  0.5300 -1.0170
 2815SOL    MW411315   4.364   1.452   4.494  0.2742  0.4311 -0.6437
 2816SOL     OW11316   0.460   3.610   4.677  0.2064 -0.0212  0.0973
 2816SOL    HW211317   0.513   3.673   4.726 -0.2446  0.1739  0.3393
 2816SOL    HW311318   0.424   3.660   4.604  1.2824 -0.4312 -0.7354
 2816SOL    MW411319   0.462   3.625   4.674  0.2889 -0.0494  0.0196
 2817SOL     OW11320   4.310   2.202   4.640 -0.0358 -0.1034 -0.3333
 2817SOL    HW211321   4.353   2.166   4.718 -1.1900  0.4100  0.5674
 2817SOL    HW311322   4.370   2.269   4.608 -0.2647  0.7840  1.0528
 2817SOL    MW411323   4.324   2.206   4.646 -0.2184  0.0815 -0.0315
 2818SOL     OW11324   1.637   0.269   4.677 -0.0834 -0.3037 -0.3457
 2818SOL    HW211325   1.619   0.264   4.771  1.0673  0.2825 -0.0883
 2818SOL    HW311326   1.553   0.248   4.636 -0.4546 -1.1366  0.8040
 2818SOL    MW411327   1.623   0.266   4.684  0.0194 -0.3363 -0.1602
 2819SOL     OW11328   2.743   1.712   4.194 -0.0255  0.4075  0.4214
 2819SOL    HW211329   2.747   1.699   4.289 -0.6508  0.5417  0.4683
 2819SOL    HW311330   2.733   1.806   4.183  1.0476  0.5003  0.1887
 2819SOL    MW411331   2.743   1.722   4.205  0.0336  0.4375  0.3972
 2820SOL     OW11332   4.480   2.391   4.515  0.4873 -0.0979 -0.0656
 2820SOL    HW211333   4.457   2.482   4.536  0.4901  0.0662 -0.7641
 2820SOL    HW311334   4.575   2.388   4.524  0.4234 -0.2069  0.6196
 2820SOL    MW411335   4.489   2.403   4.519  0.4787 -0.0906 -0.0677
 2821SOL     OW11336   2.233   0.623   4.593 -0.3131  0.2025  0.0874
 2821SOL    HW211337   2.324   0.608   4.570 -0.3934  0.2539 -0.2645
 2821SOL    HW311338   2.221   0.718   4.585 -0.1419  0.3102  1.0710
 2821SOL    MW411339   2.243   0.634   4.589 -0.3009  0.2235  0.1707
 2822SOL     OW11340   2.023   1.269   4.296  0.6398 -0.5076  0.3066
 2822SOL    HW211341   2.016   1.276   4.391  0.3193 -0.3997  0.2756
 2822SOL    HW311342   2.026   1.359   4.265  1.3272 -0.5464  0.2564
 2822SOL    MW411343   2.022   1.281   4.304  0.6878 -0.4983  0.2956
 2823SOL     OW11344   3.025   2.828   4.544  0.1379 -0.1118 -0.1605
 2823SOL    HW211345   3.006   2.750   4.596 -0.0341 -0.9402 -1.4553
 2823SOL    HW311346   2.956   2.890   4.567 -1.2661 -1.3054 -1.1099
 2823SOL    MW411347   3.014   2.826   4.554 -0.0701 -0.3786 -0.4568
 2824SOL     OW11348   3.276   3.312   4.541  0.3988 -0.2758  0.1272
 2824SOL    HW211349   3.261   3.265   4.459 -1.9015 -0.2842  0.5306
 2824SOL    HW311350   3.319   3.247   4.598  1.1078 -0.5642 -0.7200
 2824SOL    MW411351   3.280   3.297   4.538  0.1888 -0.3152  0.0677
 2825SOL     OW11352   2.849   3.069   4.564  0.3107  0.1739 -0.5295
 2825SOL    HW211353   2.756   3.090   4.570  0.4092  0.2459  0.9811
 2825SOL    HW311354   2.893   3.154   4.563  0.5137  0.1509  2.0492
 2825SOL    MW411355   2.843   3.083   4.565  0.3502  0.1802  0.0100
 2826SOL     OW11356   3.300   2.889   4.577  0.0383 -0.3626 -0.2869
 2826SOL    HW211357   3.207   2.872   4.586  0.3309 -1.5839  0.6246
 2826SOL    HW311358   3.316   2.965   4.633 -0.3166 -0.4859 -0.0149
 2826SOL    MW411359   3.290   2.897   4.586  0.0300 -0.5400 -0.1307
 2827SOL     OW11360   3.367   0.505   4.216  0.7162 -0.1357 -0.1693
 2827SOL    HW211361   3.283   0.461   4.202  1.6947 -2.1706  0.1136
 2827SOL    HW311362   3.429   0.457   4.161  1.6053  1.6564 -0.7581
 2827SOL    MW411363   3.364   0.493   4.207  0.9625 -0.1678 -0.2093
 2828SOL     OW11364   4.213   2.664   4.482  0.4486  0.0545 -0.1283
 2828SOL    HW211365   4.176   2.576   4.492  0.7600 -0.0766 -0.1140
 2828SOL    HW311366   4.293   2.661   4.535  0.8944  0.0896 -0.7975
 2828SOL    MW411367   4.219   2.652   4.491  0.5484  0.0417 -0.2151
 2829SOL     OW11368   0.367   3.867   4.499  0.0363 -0.3652  0.0127
 2829SOL    HW211369   0.380   3.943   4.555  0.4950  0.0703 -0.6768
 2829SOL    HW311370   0.398   3.894   4.413 -1.5107 -0.7054 -0.6849
 2829SOL    MW411371   0.373   3.880   4.495 -0.1073 -0.3526 -0.1702
 2830SOL     OW11372   2.381   3.731   4.635 -0.2141 -0.6075 -0.3400
 2830SOL    HW211373   2.362   3.642   4.666  0.6841 -1.2673 -1.6584
 2830SOL    HW311374   2.471   3.726   4.604 -0.7699  0.2973 -2.1392
 2830SOL    MW411375   2.390   3.718   4.635 -0.1690 -0.5751 -0.7515
 2831SOL     OW11376   2.302   0.133   4.544 -0.3228 -0.3556  0.0373
 2831SOL    HW211377   2.283   0.121   4.451  1.0537  0.7883 -0.3965
 2831SOL    HW311378   2.237   0.198   4.573  0.2800  0.4948 -0.4982
 2831SOL    MW411379   2.291   0.140   4.535 -0.0620 -0.0925 -0.0906
 2832SOL     OW11380   4.066   4.010   4.301  0.2079  0.4895  0.8177
 2832SOL    HW211381   4.089   4.005   4.394  0.8157 -1.1595  0.5977
 2832SOL    HW311382   4.139   3.968   4.256 -1.6189 -1.8208 -0.1408
 2832SOL    MW411383   4.079   4.003   4.308  0.0472 -0.0329  0.6623
 2833SOL     OW11384   1.583   1.968   4.528 -0.3201 -0.2351  0.0952
 2833SOL    HW211385   1.675   1.950   4.547  0.1169  1.0356 -0.7402
 2833SOL    HW311386   1.583   2.001   4.438 -1.3576  1.4916  0.7076
 2833SOL    MW411387   1.595   1.970   4.519 -0.3994  0.1603  0.0653
 2834SOL     OW11388   2.989   0.010   4.157 -0.2116 -0.3440  0.0080
 2834SOL    HW211389   2.977  -0.085   4.162 -1.1498 -0.1730  1.1732
 2834SOL    HW311390   3.064   0.027   4.215 -1.3003 -0.1542  1.3813
 2834SOL    MW411391   2.997  -0.000   4.166 -0.4790 -0.2961  0.3428
 2835SOL     OW11392   2.180   3.118   4.791 -0.3398 -0.0760 -0.2880
 2835SOL    HW211393   2.146   3.200   4.829  1.6190  1.4668 -1.7594
 2835SOL    HW311394   2.260   3.101   4.840 -1.5397 -2.0278  1.0756
 2835SOL    MW411395   2.186   3.127   4.803 -0.2396 -0.1297 -0.3023
 2836SOL     OW11396   2.737   0.368   4.154 -0.8029 -0.7348  0.5217
 2836SOL    HW211397   2.729   0.355   4.059  0.1567 -0.9187  0.4622
 2836SOL    HW311398   2.654   0.410   4.179  0.0993  1.9954 -0.8737
 2836SOL    MW411399   2.725   0.372   4.145 -0.5574 -0.3989  0.3295
 2837SOL     OW11400   4.111   1.332   4.521  0.2288 -0.0831  0.0787
 2837SOL    HW211401   4.015   1.325   4.519  0.3088 -1.3591  0.1827
 2837SOL    HW311402   4.140   1.290   4.440  0.7950 -1.6874  1.0845
 2837SOL    MW411403   4.102   1.326   4.510  0.3138 -0.4631  0.2251
 2838SOL     OW11404   3.289   2.483   4.924 -0.1940  0.1609 -0.4009
 2838SOL    HW211405   3.313   2.525   4.842  0.7646 -0.1701 -0.2910
 2838SOL    HW311406   3.368   2.436   4.952 -0.0048  1.5879  1.5381
 2838SOL    MW411407   3.302   2.482   4.917 -0.0427  0.3057 -0.1307
 2839SOL     OW11408   4.299   3.364   4.608  0.4315  0.3025  0.1268
 2839SOL    HW211409   4.374   3.324   4.651  0.7035  1.5074  0.7977
 2839SOL    HW311410   4.239   3.292   4.592  0.0779 -0.0896  3.0495
 2839SOL    MW411411   4.301   3.349   4.612  0.4206  0.4098  0.6013
 2840SOL     OW11412   3.234   2.740   4.125  0.4450 -0.0203 -0.0516
 2840SOL    HW211413   3.162   2.782   4.171  0.0657 -1.2915  0.5419
 2840SOL    HW311414   3.234   2.650   4.157  1.5437 -0.3530 -0.9367
 2840SOL    MW411415   3.225   2.734   4.136  0.5400 -0.2317 -0.0906
 2841SOL     OW11416   0.627   3.797   4.807  0.1781  0.6574  0.2718
 2841SOL    HW211417   0.599   3.886   4.827  1.5299  1.2811 -0.5586
 2841SOL    HW311418   0.720   3.805   4.784 -0.3469 -0.5528 -2.4938
 2841SOL    MW411419   0.636   3.810   4.806  0.2872  0.5801 -0.2027
 2842SOL     OW11420   3.631   3.918   4.484  0.4350 -0.4482 -0.3073
 2842SOL    HW211421   3.583   3.981   4.537 -0.0192 -0.4508 -0.7073
 2842SOL    HW311422   3.601   3.832   4.515  1.5555 -0.4844  0.6988
 2842SOL    MW411423   3.621   3.915   4.495  0.5229 -0.4532 -0.2275
 2843SOL     OW11424   3.793   3.611   4.554  0.1486  0.1649 -0.3891
 2843SOL    HW211425   3.703   3.614   4.588 -0.9101 -1.9183 -2.8689
 2843SOL    HW311426   3.783   3.615   4.459  2.7567  0.9555 -0.6574
 2843SOL    MW411427   3.780   3.612   4.546  0.3529 -0.0055 -0.7515
 2844SOL     OW11428   2.641   3.467   4.203 -0.5647 -0.1153 -0.4342
 2844SOL    HW211429   2.578   3.536   4.219 -0.4000 -0.1347  0.3089
 2844SOL    HW311430   2.723   3.501   4.238 -0.7854 -1.2492  1.2345
 2844SOL    MW411431   2.644   3.480   4.209 -0.5720 -0.2675 -0.1163
 2845SOL     OW11432   0.201   2.812   4.251 -0.7980  0.0053  0.0032
 2845SOL    HW211433   0.286   2.780   4.218 -1.0441 -0.7761  0.1166
 2845SOL    HW311434   0.202   2.905   4.232 -0.1741 -0.1153 -0.5808
 2845SOL    MW411435   0.213   2.820   4.244 -0.7481 -0.1137 -0.0587
 2846SOL     OW11436   1.306   1.682   4.212  0.6383 -0.0774 -0.4143
 2846SOL    HW211437   1.337   1.757   4.161 -0.4067  1.1137  0.6654
 2846SOL    HW311438   1.325   1.705   4.303  1.8373 -1.8747 -0.1812
 2846SOL    MW411439   1.313   1.695   4.217  0.6588 -0.1574 -0.2408
 2847SOL     OW11440   2.143   1.650   4.808 -0.1190  0.5142 -0.6742
 2847SOL    HW211441   2.164   1.608   4.725  0.1603  1.4682 -1.0974
 2847SOL    HW311442   2.212   1.717   4.819 -1.1620  1.5817 -0.5474
 2847SOL    MW411443   2.155   1.654   4.798 -0.2198  0.7811 -0.7133
 2848SOL     OW11444   3.840   0.725   4.161 -0.3030  0.5473 -0.0869
 2848SOL    HW211445   3.765   0.785   4.171 -1.1263 -0.5709  0.5104
 2848SOL    HW311446   3.851   0.717   4.066 -2.1803 -0.7769 -0.2262
 2848SOL    MW411447   3.832   0.732   4.150 -0.6595  0.2251 -0.0262
 2849SOL     OW11448   0.078   0.851   4.239  0.2025  0.6698  0.0659
 2849SOL    HW211449   0.136   0.787   4.199  0.2679  0.4393  0.5236
 2849SOL    HW311450  -0.011   0.821   4.217  0.1506 -1.0105  2.4099
 2849SOL    MW411451   0.074   0.839   4.231  0.2043  0.4177  0.4354
 2850SOL     OW11452   2.449   1.997   4.443  0.1243 -0.4892 -0.4609
 2850SOL    HW211453   2.504   2.055   4.495 -0.3388 -0.5493  0.1025
 2850SOL    HW311454   2.468   1.909   4.477 -1.3994 -0.3722  0.7431
 2850SOL    MW411455   2.459   1.993   4.454 -0.1378 -0.4816 -0.2275
 2851SOL     OW11456   3.454   2.457   4.583 -0.3920  0.3500  0.1126
 2851SOL    HW211457   3.360   2.441   4.596 -0.4048 -0.1893 -0.6017
 2851SOL    HW311458   3.464   2.551   4.595 -1.3973  0.7539 -1.9250
 2851SOL    MW411459   3.443   2.467   4.586 -0.5262  0.3319 -0.2499
 2852SOL     OW11460   2.187   1.999   4.781 -0.1022 -0.1032  0.0710
 2852SOL    HW211461   2.112   2.039   4.825 -0.4720 -0.5623 -0.1355
 2852SOL    HW311462   2.258   2.061   4.793 -0.3293 -0.0005  0.8918
 2852SOL    MW411463   2.186   2.012   4.788 -0.1810 -0.1500  0.1521
 2853SOL     OW11464   3.878   3.351   4.633  0.3281 -0.2419  0.3519
 2853SOL    HW211465   3.863   3.442   4.609  0.9511 -0.3655 -0.4998
 2853SOL    HW311466   3.947   3.354   4.699  0.1384 -0.0780  0.5432
 2853SOL    MW411467   3.885   3.363   4.639  0.3853 -0.2365  0.2646
 2854SOL     OW11468   3.132   2.077   4.732 -0.0916  0.2994 -0.3772
 2854SOL    HW211469   3.117   2.157   4.782 -0.4867  0.8206 -1.3217
 2854SOL    HW311470   3.219   2.089   4.694  0.0622  0.0565 -0.1034
 2854SOL    MW411471   3.142   2.089   4.734 -0.1237  0.3357 -0.4654
 2855SOL     OW11472   3.343   3.599   4.248  0.1593 -0.0405 -0.0425
 2855SOL    HW211473   3.280   3.553   4.194 -0.7870  1.0182  0.1440
 2855SOL    HW311474   3.428   3.562   4.223 -0.4714 -1.0412 -0.7220
 2855SOL    MW411475   3.346   3.588   4.238 -0.0489 -0.0327 -0.1078
 2856SOL     OW11476   1.662   2.753   4.464  0.4304 -0.0727  0.1093
 2856SOL    HW211477   1.588   2.787   4.515  0.6545 -2.9635  2.5348
 2856SOL    HW311478   1.640   2.773   4.373 -2.6537  0.4225  0.8999
 2856SOL    MW411479   1.649   2.760   4.459  0.0532 -0.3889  0.5336
 2857SOL     OW11480   1.275   2.180   4.659  0.2789  0.1175 -0.3625
 2857SOL    HW211481   1.229   2.260   4.684 -0.3593 -0.1407 -0.7038
 2857SOL    HW311482   1.353   2.210   4.612 -0.2760  0.5213 -1.0199
 2857SOL    MW411483   1.279   2.194   4.656  0.1215  0.1369 -0.4945
 2858SOL     OW11484   2.457   3.649   4.298 -0.6329 -0.1241  0.4436
 2858SOL    HW211485   2.516   3.668   4.370 -0.9820 -1.4539  1.0949
 2858SOL    HW311486   2.460   3.728   4.243  0.4125  0.4903  1.3623
 2858SOL    MW411487   2.465   3.662   4.300 -0.5412 -0.2184  0.6509
 2859SOL     OW11488   1.744   1.451   4.645  0.1069 -0.6704 -0.1696
 2859SOL    HW211489   1.781   1.477   4.730 -0.3610 -1.2176  0.2051
 2859SOL    HW311490   1.781   1.513   4.583  2.4734 -1.8015  0.0328
 2859SOL    MW411491   1.754   1.462   4.648  0.3574 -0.8918 -0.0935
 2860SOL     OW11492   1.859   4.047   4.819 -0.2639  0.0437 -0.2199
 2860SOL    HW211493   1.851   4.136   4.785 -0.9736  0.0229 -0.1182
 2860SOL    HW311494   1.934   4.050   4.878 -0.5070  0.6558  0.0547
 2860SOL    MW411495   1.868   4.059   4.822 -0.3895  0.1211 -0.1702
 2861SOL     OW11496   2.975   0.488   4.258  0.0857 -0.1063  0.3711
 2861SOL    HW211497   2.981   0.498   4.353  1.8874 -0.8061  0.3653
 2861SOL    HW311498   2.893   0.441   4.243  0.0214 -0.3916  1.6140
 2861SOL    MW411499   2.965   0.483   4.268  0.3147 -0.2362  0.5341
 2862SOL     OW11500   4.079   3.183   4.538 -0.6864  0.9194  0.0498
 2862SOL    HW211501   4.094   3.188   4.444 -1.3608  0.0988 -0.1145
 2862SOL    HW311502   4.009   3.246   4.555 -1.1371  0.4742 -0.1375
 2862SOL    MW411503   4.072   3.192   4.528 -0.8349  0.7524  0.0029
 2863SOL     OW11504   2.710   0.701   4.508 -0.1977  0.0575 -0.0505
 2863SOL    HW211505   2.703   0.766   4.438  0.9743  0.4644  0.1984
 2863SOL    HW311506   2.635   0.643   4.495 -0.3287  0.4945 -1.2781
 2863SOL    MW411507   2.700   0.702   4.497 -0.0603  0.1689 -0.1798
 2864SOL     OW11508   2.828   4.514   4.530 -0.4499 -0.2249 -0.2995
 2864SOL    HW211509   2.808   4.470   4.612 -0.3011 -1.5150 -0.9416
 2864SOL    HW311510   2.802   4.605   4.544  0.1036 -0.3149  1.3581
 2864SOL    MW411511   2.822   4.521   4.542 -0.3572 -0.4067 -0.1655
 2865SOL     OW11512   3.701   4.264   4.644 -0.1362 -0.0585 -0.2348
 2865SOL    HW211513   3.636   4.328   4.616 -0.8012 -0.3497  0.6443
 2865SOL    HW311514   3.783   4.313   4.647 -0.7437  0.9070  1.0390
 2865SOL    MW411515   3.703   4.279   4.640 -0.3042  0.0305  0.0496
 2866SOL     OW11516   0.284   2.432   4.552 -0.0550 -0.3114  0.4659
 2866SOL    HW211517   0.356   2.495   4.554 -1.0122  0.8847 -1.8207
 2866SOL    HW311518   0.327   2.348   4.533  0.9620  0.0156  1.2728
 2866SOL    MW411519   0.299   2.429   4.550 -0.0471 -0.1104  0.2704
 2867SOL     OW11520   0.247   2.072   4.293  0.2666 -0.5343  0.3959
 2867SOL    HW211521   0.239   2.153   4.243 -1.5189 -0.7412  0.2951
 2867SOL    HW311522   0.318   2.024   4.251 -0.4338 -0.1889 -1.2046
 2867SOL    MW411523   0.255   2.076   4.281 -0.0614 -0.5162  0.1712
 2868SOL     OW11524   3.294   3.092   4.367  0.3759 -0.3728  0.0476
 2868SOL    HW211525   3.354   3.082   4.294  0.9625 -0.7687  0.5770
 2868SOL    HW311526   3.291   3.005   4.407 -0.1140 -0.2160  0.3547
 2868SOL    MW411527   3.301   3.079   4.363  0.3886 -0.4044  0.1578
 2869SOL     OW11528   3.878   0.601   4.612  0.1827  0.4654  0.0136
 2869SOL    HW211529   3.900   0.694   4.612 -0.7401  0.6970  0.8779
 2869SOL    HW311530   3.960   0.556   4.593  0.7993  1.4185  0.4081
 2869SOL    MW411531   3.891   0.607   4.609  0.1423  0.6217  0.1798
 2870SOL     OW11532   4.081   1.651   4.183 -0.4140  0.1102 -0.0406
 2870SOL    HW211533   4.135   1.580   4.147  2.1055  1.6659  0.5514
 2870SOL    HW311534   4.093   1.644   4.278  0.4833  1.8088 -0.0167
 2870SOL    MW411535   4.090   1.640   4.191  0.0372  0.5395  0.0405
 2871SOL     OW11536   0.096   3.097   4.582 -0.3371 -0.0466 -0.2470
 2871SOL    HW211537   0.054   3.150   4.514  0.5922 -0.5666 -1.2322
 2871SOL    HW311538   0.052   3.124   4.663 -2.0168 -0.0089 -1.1440
 2871SOL    MW411539   0.084   3.108   4.584 -0.4361 -0.1104 -0.4950
 2872SOL     OW11540   4.090   2.438   4.217 -0.1257 -0.5503 -0.6013
 2872SOL    HW211541   4.094   2.419   4.311  0.6285  0.1661 -0.4904
 2872SOL    HW311542   4.021   2.380   4.184 -1.5424  0.3535  0.6798
 2872SOL    MW411543   4.081   2.428   4.225 -0.2131 -0.3364 -0.4177
 2873SOL     OW11544   1.122   0.663   4.478 -0.6861 -0.6712 -0.1222
 2873SOL    HW211545   1.052   0.727   4.466 -0.1757  0.3776  2.1761
 2873SOL    HW311546   1.203   0.714   4.466 -0.2965 -1.3454 -0.3897
 2873SOL    MW411547   1.124   0.678   4.475 -0.5673 -0.6217  0.1459
 2874SOL     OW11548   4.077   3.209   4.257 -0.0124 -0.8675 -0.1486
 2874SOL    HW211549   4.157   3.185   4.209  0.4966 -0.3689  0.4437
 2874SOL    HW311550   4.007   3.165   4.209  0.4299 -0.0270 -1.6052
 2874SOL    MW411551   4.078   3.200   4.244  0.1135 -0.6907 -0.2627
 2875SOL     OW11552   3.273   3.947   4.765 -0.6443 -0.4221  0.4529
 2875SOL    HW211553   3.205   4.003   4.802  0.6813  0.9910  0.8180
 2875SOL    HW311554   3.328   4.006   4.714 -0.3248 -1.7387 -0.7649
 2875SOL    MW411555   3.272   3.962   4.763 -0.4272 -0.4091  0.3405
 2876SOL     OW11556   0.671   2.108   4.544  0.1715  0.0808  0.0362
 2876SOL    HW211557   0.702   2.197   4.564  0.2312  0.0122  0.2475
 2876SOL    HW311558   0.750   2.054   4.547 -0.0111 -0.1458  0.8692
 2876SOL    MW411559   0.686   2.113   4.547  0.1553  0.0417  0.1740
 2877SOL     OW11560   3.485   0.078   4.639 -0.5495  0.1785  0.5553
 2877SOL    HW211561   3.517   0.073   4.730  0.1219 -1.0348  0.2694
 2877SOL    HW311562   3.561   0.106   4.588 -0.6497 -0.1347  0.2304
 2877SOL    MW411563   3.500   0.081   4.645 -0.4740 -0.0229  0.4749
 2878SOL     OW11564   3.644   4.288   4.163 -0.0337  0.4524  0.2956
 2878SOL    HW211565   3.630   4.198   4.194  1.4041  0.0131 -0.2580
 2878SOL    HW311566   3.711   4.323   4.222  0.6730  0.5609 -0.5573
 2878SOL    MW411567   3.651   4.281   4.175  0.2494  0.4091  0.1101
 2879SOL     OW11568   2.959   4.419   4.220 -0.4517  0.2974  0.5692
 2879SOL    HW211569   2.960   4.432   4.315  0.9376  0.2399  0.5696
 2879SOL    HW311570   3.040   4.371   4.202 -1.8118 -1.7124 -0.3544
 2879SOL    MW411571   2.970   4.414   4.231 -0.4478  0.0248  0.4478
 2880SOL     OW11572   3.130   1.697   4.199  0.2492 -0.3386  0.6135
 2880SOL    HW211573   3.096   1.677   4.286  0.1847 -0.2389  0.6120
 2880SOL    HW311574   3.070   1.653   4.139  0.1937 -0.2667  0.6151
 2880SOL    MW411575   3.117   1.689   4.203  0.2332 -0.3160  0.6132
 2881SOL     OW11576   3.191   4.254   4.183 -0.2630 -0.1361  0.4294
 2881SOL    HW211577   3.162   4.179   4.234 -0.7210 -0.5686 -0.4595
 2881SOL    HW311578   3.275   4.279   4.223 -0.3356 -0.8262  1.0176
 2881SOL    MW411579   3.198   4.247   4.195 -0.3331 -0.2847  0.3901
 2882SOL     OW11580   4.299   4.615   4.140 -0.4381 -0.3919 -0.1064
 2882SOL    HW211581   4.219   4.652   4.176  0.0746 -0.3685  1.0543
 2882SOL    HW311582   4.366   4.680   4.160  0.3688 -1.6634  1.4317
 2882SOL    MW411583   4.298   4.629   4.148 -0.2642 -0.5565  0.2489
 2883NA      NA11584   2.772   3.266   0.537 -0.0202  0.4782  0.3868
   4.49070   4.66690  10.00000
