Gromacs Runs On Most of All Computer Systems in water t= 60000.00000 step= 60000000
11584
    1RU5    O5'    1   2.632   2.091   4.595  0.8333  0.5533 -0.4501
    1RU5    H5T    2   2.540   2.073   4.573  0.3574  0.1706  1.7988
    1RU5    C5'    3   2.692   2.156   4.484 -0.5861 -0.5846  0.1972
    1RU5   H5'1    4   2.662   2.097   4.397  3.3801 -1.5415 -0.6214
    1RU5   H5'2    5   2.801   2.157   4.490 -0.6307  0.3514  0.8529
    1RU5    C4'    6   2.640   2.303   4.474  0.0990 -0.3944 -0.0709
    1RU5    H4'    7   2.690   2.345   4.386 -0.6940 -0.5099 -0.5851
    1RU5    O4'    8   2.497   2.316   4.455  0.8231 -0.7663 -0.0125
    1RU5    C1'    9   2.465   2.448   4.479  0.0884  0.9836 -0.2961
    1RU5    H1'   10   2.487   2.513   4.393  0.7111  2.6980  1.1265
    1RU5     N1   11   2.322   2.457   4.509 -0.4415  0.0271  0.2524
    1RU5     C6   12   2.254   2.344   4.550  0.0881 -0.5175  0.1285
    1RU5     H6   13   2.294   2.245   4.558 -1.4095 -1.2913 -1.6627
    1RU5     C5   14   2.119   2.351   4.567 -0.3088  0.9350 -0.1055
    1RU5     H5   15   2.062   2.265   4.597  2.2503 -0.0834  2.0801
    1RU5     C4   16   2.047   2.472   4.543 -0.1034  0.2353 -0.7598
    1RU5     O4   17   1.922   2.485   4.550  0.6417  0.5854  0.1578
    1RU5     N3   18   2.125   2.581   4.507  0.8338 -0.5776 -0.2113
    1RU5     H3   19   2.083   2.672   4.508 -0.0653 -0.9912  0.0611
    1RU5     C2   20   2.259   2.578   4.491 -0.2193 -0.4183 -0.3429
    1RU5     O2   21   2.322   2.679   4.460  0.1849 -0.2147  0.8944
    1RU5    C3'   22   2.675   2.389   4.593 -0.6532  0.3937 -0.0572
    1RU5    H3'   23   2.666   2.342   4.691  0.9677  0.1348 -0.0290
    1RU5    C2'   24   2.569   2.495   4.584  0.2524 -0.5769 -0.4892
    1RU5   H2'1   25   2.515   2.518   4.676  1.7520  0.0093  0.2609
    1RU5    O2'   26   2.623   2.616   4.543 -0.3289 -0.1936 -0.0782
    1RU5   HO'2   27   2.717   2.602   4.553 -0.3687 -0.9896 -0.6915
    1RU5    O3'   28   2.807   2.448   4.583  0.0534  0.1137 -0.1740
    2RG3      P   29   2.897   2.468   4.707  0.1267  0.5314  0.0783
    2RG3    O1P   30   3.016   2.546   4.663 -0.2289  0.3351  0.3611
    2RG3    O2P   31   2.919   2.336   4.772  0.2941 -0.2121  0.3092
    2RG3    O5'   32   2.810   2.570   4.802 -0.1747  0.8359 -0.0674
    2RG3    C5'   33   2.822   2.711   4.781 -0.0204  0.7095 -0.3850
    2RG3   H5'1   34   2.787   2.739   4.681 -1.8097 -1.1549 -0.3142
    2RG3   H5'2   35   2.928   2.737   4.786 -0.2195  1.4246  0.2766
    2RG3    C4'   36   2.749   2.795   4.885 -0.3410  0.1267  0.4334
    2RG3    H4'   37   2.785   2.898   4.876  2.8679 -0.7486  2.4177
    2RG3    O4'   38   2.605   2.802   4.858  0.3169 -0.0403 -0.0189
    2RG3    C1'   39   2.528   2.770   4.971 -0.2218  0.2870 -0.4119
    2RG3    H1'   40   2.451   2.846   4.987  0.8268  1.1213  0.7938
    2RG3     N9   41   2.459   2.637   4.949 -0.0947 -0.1802 -0.0272
    2RG3     C8   42   2.509   2.508   4.957  0.1940  0.2533 -0.3000
    2RG3     H8   43   2.614   2.493   4.978  0.3537  2.3441  0.5457
    2RG3     N7   44   2.426   2.410   4.929  0.3781  0.4148 -0.5882
    2RG3     C5   45   2.306   2.482   4.919  0.4467  0.0589 -0.5520
    2RG3     C6   46   2.175   2.426   4.899 -1.0589  0.1573 -0.8728
    2RG3     O6   47   2.137   2.310   4.894  0.3123 -0.1912  0.1099
    2RG3     N1   48   2.083   2.526   4.896  0.1246 -0.1066  0.3754
    2RG3     H1   49   1.987   2.495   4.891 -1.5716  4.3599  2.5618
    2RG3     C2   50   2.106   2.658   4.899 -0.1047  0.2389 -0.5094
    2RG3     N2   51   2.003   2.734   4.880  0.0287 -0.0910  0.2560
    2RG3    H21   52   1.913   2.694   4.857 -0.1321  0.2719  0.2440
    2RG3    H22   53   2.021   2.833   4.871  0.5577 -0.2523 -0.4713
    2RG3     N3   54   2.227   2.712   4.918 -0.4020  0.2683 -0.1518
    2RG3     C4   55   2.322   2.618   4.935  0.3292  0.3409  0.3939
    2RG3    C3'   56   2.766   2.759   5.032 -0.3457  0.4332  0.0609
    2RG3    H3'   57   2.806   2.659   5.046 -0.4444  0.5953  1.5844
    2RG3    C2'   58   2.621   2.763   5.089 -0.5408 -0.4584  0.0130
    2RG3   H2'1   59   2.601   2.677   5.153  0.3623 -0.3991  0.3864
    2RG3    O2'   60   2.606   2.882   5.157 -0.8870 -0.2812  0.6106
    2RG3   HO'2   61   2.698   2.910   5.166 -0.9539 -0.2041  1.0969
    2RG3    O3'   62   2.848   2.857   5.100 -0.2863  0.1868 -0.4075
    2RG3    H3T   63   2.939   2.844   5.072 -0.4455  0.7505 -1.2184
    3SOL     OW   64   2.634   2.972   0.427 -0.1976 -0.0411 -0.1059
    3SOL    HW2   65   2.639   2.876   0.426 -1.0474 -0.0883 -0.9763
    3SOL    HW3   66   2.581   2.994   0.350  0.7611  1.1815 -0.4280
    3SOL    MW4   67   2.627   2.962   0.417 -0.1831  0.1140 -0.2632
    4SOL     OW   68   3.383   4.447   0.440  0.1405 -0.5640 -0.3329
    4SOL    HW2   69   3.363   4.359   0.408 -0.1852 -0.6055 -0.0218
    4SOL    HW3   70   3.304   4.498   0.421  0.0599 -0.5143  0.1194
    4SOL    MW4   71   3.370   4.442   0.433  0.0870 -0.5627 -0.2322
    5SOL     OW   72   1.577   2.337   0.881 -0.1378 -0.3068  0.0534
    5SOL    HW2   73   1.598   2.246   0.858 -0.2405 -0.3155 -0.0090
    5SOL    HW3   74   1.518   2.366   0.811 -1.0436 -0.5746  0.6981
    5SOL    MW4   75   1.572   2.329   0.868 -0.2710 -0.3431  0.1303
    6SOL     OW   76   1.314   3.631   0.503  0.1384 -0.1355  0.4079
    6SOL    HW2   77   1.362   3.646   0.584 -0.8351 -0.8074  1.1266
    6SOL    HW3   78   1.223   3.623   0.530 -0.2734  0.2130 -0.8225
    6SOL    MW4   79   1.308   3.632   0.517 -0.0442 -0.1781  0.3405
    7SOL     OW   80   0.430   2.987   0.365  0.2867 -0.0866  0.0678
    7SOL    HW2   81   0.347   2.949   0.393  0.6485 -0.4411  0.6774
    7SOL    HW3   82   0.439   2.961   0.273  0.2702 -1.0258  0.3272
    7SOL    MW4   83   0.421   2.979   0.356  0.3323 -0.2570  0.1825
    8SOL     OW   84   1.525   4.653   0.843 -0.5103  0.3873  0.0485
    8SOL    HW2   85   1.520   4.689   0.931 -1.4796 -0.1879  0.2328
    8SOL    HW3   86   1.462   4.704   0.792  0.2798  0.9363 -0.3999
    8SOL    MW4   87   1.516   4.664   0.848 -0.5339  0.3839  0.0136
    9SOL     OW   88   3.314   0.807   0.367 -0.4630  0.2752 -0.2657
    9SOL    HW2   89   3.238   0.839   0.416 -1.2468  0.7422 -1.7610
    9SOL    HW3   90   3.303   0.712   0.365 -1.7274  0.4343 -1.6161
    9SOL    MW4   91   3.302   0.799   0.373 -0.7331  0.3579 -0.6412
   10SOL     OW   92   4.218   0.823   0.227 -0.2143  0.3753  0.3598
   10SOL    HW2   93   4.262   0.900   0.189  0.9414 -0.7299 -0.5710
   10SOL    HW3   94   4.194   0.851   0.316  1.1496  1.4583  0.4041
   10SOL    MW4   95   4.221   0.837   0.234  0.1187  0.3724  0.2428
   11SOL     OW   96   3.366   3.104   0.871 -0.2694 -0.1334 -0.2333
   11SOL    HW2   97   3.373   3.012   0.846  0.4236  0.0535 -0.7404
   11SOL    HW3   98   3.390   3.106   0.964 -1.6168 -0.6512  0.1397
   11SOL    MW4   99   3.370   3.092   0.880 -0.3555 -0.1771 -0.2509
   12SOL     OW  100   0.229   2.005   0.770 -0.2920 -0.4868 -0.2287
   12SOL    HW2  101   0.146   1.993   0.816  0.5794 -2.1791  0.9581
   12SOL    HW3  102   0.241   2.100   0.766 -2.2904 -0.2365 -0.4522
   12SOL    MW4  103   0.220   2.016   0.776 -0.4407 -0.6771 -0.1016
   13SOL     OW  104   0.209   2.788   0.458  0.1766 -0.5619  0.2062
   13SOL    HW2  105   0.242   2.794   0.547  1.4998 -0.9285 -0.2471
   13SOL    HW3  106   0.115   2.806   0.465  0.6669  1.6756  1.3667
   13SOL    MW4  107   0.201   2.791   0.470  0.4159 -0.3152  0.2995
   14SOL     OW  108   1.640   1.310   0.428  0.0952  0.1474 -0.5056
   14SOL    HW2  109   1.560   1.261   0.413  1.8443 -2.4139 -1.7783
   14SOL    HW3  110   1.710   1.245   0.425  2.2234  2.2391  1.0110
   14SOL    MW4  111   1.639   1.295   0.426  0.6068  0.0854 -0.4734
   15SOL     OW  112   3.342   2.352   0.865 -0.4873 -0.1305 -0.2184
   15SOL    HW2  113   3.334   2.337   0.959 -1.5678 -1.0754 -0.4538
   15SOL    HW3  114   3.334   2.266   0.825 -0.1320  0.2729 -1.1917
   15SOL    MW4  115   3.340   2.339   0.872 -0.5829 -0.2019 -0.3779
   16SOL     OW  116   4.473   1.946   0.868  0.2179  0.3498  0.1306
   16SOL    HW2  117   4.389   1.984   0.845 -0.5983 -0.3816  1.8477
   16SOL    HW3  118   4.467   1.855   0.838  0.4923  0.3648  0.0277
   16SOL    MW4  119   4.461   1.939   0.861  0.1459  0.2552  0.3436
   17SOL     OW  120   3.933   2.842   0.456 -0.0672 -0.5748 -0.2602
   17SOL    HW2  121   3.993   2.769   0.442  0.1777 -0.3022 -0.6551
   17SOL    HW3  122   3.903   2.833   0.546  0.5061 -0.7586 -0.0905
   17SOL    MW4  123   3.937   2.831   0.466  0.0408 -0.5631 -0.2899
   18SOL     OW  124   2.062   2.804   0.689  0.0023  0.6470 -0.4623
   18SOL    HW2  125   2.132   2.765   0.742  0.6400  1.2386 -0.8607
   18SOL    HW3  126   2.047   2.741   0.618 -0.0557  0.3927 -0.2235
   18SOL    MW4  127   2.069   2.791   0.687  0.0789  0.6914 -0.4833
   19SOL     OW  128   3.423   3.680   0.438  0.1363 -0.1033 -0.2957
   19SOL    HW2  129   3.391   3.613   0.378  0.0141  0.0119 -0.3583
   19SOL    HW3  130   3.408   3.642   0.525  0.9615 -0.5713 -0.3418
   19SOL    MW4  131   3.417   3.666   0.442  0.2291 -0.1497 -0.3101
   20SOL     OW  132   1.723   3.306   0.693  0.1007 -0.1133  0.0806
   20SOL    HW2  133   1.782   3.244   0.649 -1.0662 -0.5470 -0.8922
   20SOL    HW3  134   1.662   3.251   0.741 -0.8803  0.2803 -0.7029
   20SOL    MW4  135   1.723   3.291   0.694 -0.1827 -0.1185 -0.1512
   21SOL     OW  136   3.588   3.209   0.731 -0.2013  0.0393 -0.2026
   21SOL    HW2  137   3.523   3.174   0.792  0.8329  0.0733  0.9406
   21SOL    HW3  138   3.568   3.167   0.648 -0.6135 -1.2731  0.5392
   21SOL    MW4  139   3.577   3.199   0.728 -0.1192 -0.1292  0.0462
   22SOL     OW  140   2.264   0.251   0.342  0.1225 -0.1262 -0.1664
   22SOL    HW2  141   2.254   0.156   0.355 -1.0438 -0.2435 -1.6706
   22SOL    HW3  142   2.253   0.263   0.247 -1.4650  1.6958  0.2140
   22SOL    MW4  143   2.261   0.240   0.331 -0.2410  0.0987 -0.3147
   23SOL     OW  144   3.845   2.068   0.441  0.1644  0.3139  0.5682
   23SOL    HW2  145   3.763   2.020   0.435  0.0351  0.7963 -2.0568
   23SOL    HW3  146   3.913   2.001   0.436 -0.0487  0.1608 -0.3195
   23SOL    MW4  147   3.843   2.053   0.439  0.1194  0.3574  0.1047
   24SOL     OW  148   4.091   4.512   0.341 -0.6202 -0.4073  0.2406
   24SOL    HW2  149   4.121   4.424   0.319 -0.5042 -0.1161 -0.7754
   24SOL    HW3  150   4.171   4.557   0.370 -0.2856 -0.0306 -1.2043
   24SOL    MW4  151   4.106   4.506   0.342 -0.5608 -0.3190 -0.0841
   25SOL     OW  152   2.619   4.317   0.346  0.4906  0.0674  0.3147
   25SOL    HW2  153   2.703   4.346   0.380  1.0775 -1.4397  0.2175
   25SOL    HW3  154   2.627   4.323   0.251  0.3142  0.3965  0.3212
   25SOL    MW4  155   2.631   4.321   0.338  0.5445 -0.0882  0.3027
   26SOL     OW  156   1.249   4.209   0.462  0.1685  0.1602  0.1805
   26SOL    HW2  157   1.166   4.255   0.468  1.1601  2.2055 -1.3773
   26SOL    HW3  158   1.245   4.162   0.379  0.3237 -0.2107  0.3843
   26SOL    MW4  159   1.238   4.209   0.452  0.3198  0.3815  0.0018
   27SOL     OW  160   0.777   4.522   0.419 -0.0054  0.1284 -0.1788
   27SOL    HW2  161   0.728   4.448   0.454 -0.2155  0.3018 -0.1093
   27SOL    HW3  162   0.728   4.548   0.341  0.6794 -0.5190 -0.8421
   27SOL    MW4  163   0.764   4.515   0.413  0.0572  0.0653 -0.2572
   28SOL     OW  164   0.741   3.899   0.898  0.0905 -0.0672  0.5359
   28SOL    HW2  165   0.680   3.951   0.846 -0.2082 -1.4074 -0.4875
   28SOL    HW3  166   0.827   3.921   0.863 -0.1729 -1.7104 -1.2802
   28SOL    MW4  167   0.744   3.908   0.886  0.0165 -0.4606  0.1613
   29SOL     OW  168   4.320   0.580   0.313  0.0674 -0.2573 -0.9307
   29SOL    HW2  169   4.252   0.535   0.362  1.4292 -0.6697  0.6336
   29SOL    HW3  170   4.273   0.646   0.261 -1.6365 -1.4467 -0.9410
   29SOL    MW4  171   4.305   0.583   0.313  0.0224 -0.4686 -0.7256
   30SOL     OW  172   2.305   1.657   0.554  0.3220  0.2906  0.5329
   30SOL    HW2  173   2.278   1.565   0.549  1.4450  0.0107 -0.8943
   30SOL    HW3  174   2.235   1.705   0.508 -0.5436  0.2182  1.7689
   30SOL    MW4  175   2.292   1.651   0.547  0.3557  0.2440  0.5077
   31SOL     OW  176   0.206   0.321   0.501  0.2419  0.4172  0.6443
   31SOL    HW2  177   0.171   0.232   0.499  2.4133 -0.4400  0.3410
   31SOL    HW3  178   0.166   0.364   0.425  0.4965 -0.8105 -0.2019
   31SOL    MW4  179   0.196   0.315   0.491  0.5620  0.1421  0.4927
   32SOL     OW  180   0.224   0.764   0.793 -0.0932 -0.0570 -0.7075
   32SOL    HW2  181   0.228   0.670   0.775  1.9197 -0.0703 -0.3681
   32SOL    HW3  182   0.225   0.770   0.888  0.6084  0.3124 -0.7330
   32SOL    MW4  183   0.225   0.752   0.803  0.2649 -0.0100 -0.6662
   33SOL     OW  184   3.578   2.431   0.482  0.4101 -0.4293  0.1150
   33SOL    HW2  185   3.598   2.439   0.576  1.2113 -0.3470 -0.0615
   33SOL    HW3  186   3.518   2.356   0.477  0.0736 -0.2037  0.7366
   33SOL    MW4  187   3.572   2.422   0.494  0.4716 -0.3884  0.1737
   34SOL     OW  188   3.599   0.941   0.428 -0.4515 -0.0601  0.3890
   34SOL    HW2  189   3.683   0.902   0.402 -0.4366  0.4112 -0.2950
   34SOL    HW3  190   3.533   0.881   0.393 -0.4112  0.0078  0.1936
   34SOL    MW4  191   3.602   0.928   0.420 -0.4442  0.0111  0.2730
   35SOL     OW  192   2.138   0.874   0.474  0.0104  0.4569  0.1515
   35SOL    HW2  193   2.143   0.969   0.463  1.1202  0.5391  1.2728
   35SOL    HW3  194   2.046   0.857   0.493 -0.4125  1.1780 -1.1857
   35SOL    MW4  195   2.127   0.885   0.475  0.1009  0.5628  0.1231
   36SOL     OW  196   2.508   0.564   0.309  0.0170  0.0962  0.2702
   36SOL    HW2  197   2.418   0.568   0.340 -0.2222 -0.4922 -0.3412
   36SOL    HW3  198   2.530   0.471   0.310  1.2310  0.3635  2.1543
   36SOL    MW4  199   2.499   0.552   0.313  0.1457  0.0538  0.4381
   37SOL     OW  200   0.439   1.521   0.513 -0.2830  0.1129 -0.4766
   37SOL    HW2  201   0.445   1.543   0.606 -1.8686  1.7842 -0.7384
   37SOL    HW3  202   0.351   1.485   0.502 -1.0008  2.1605 -1.7448
   37SOL    MW4  203   0.428   1.519   0.524 -0.5869  0.6036 -0.6785
   38SOL     OW  204   3.156   2.543   0.488  0.5123 -0.2042  0.0460
   38SOL    HW2  205   3.220   2.613   0.502 -0.7498  0.7459  1.1580
   38SOL    HW3  206   3.137   2.510   0.575 -1.1300  0.0806 -0.1898
   38SOL    MW4  207   3.162   2.548   0.501  0.1292 -0.0410  0.1616
   39SOL     OW  208   3.885   3.934   0.243  0.0562 -0.2052  0.4151
   39SOL    HW2  209   3.800   3.892   0.246 -0.6000  1.1417  1.5157
   39SOL    HW3  210   3.910   3.933   0.151 -1.2928 -0.3472  0.0480
   39SOL    MW4  211   3.877   3.928   0.232 -0.2081 -0.0460  0.5119
   40SOL     OW  212   1.831   2.441   0.541  0.0552  0.6036 -0.0518
   40SOL    HW2  213   1.756   2.479   0.494  0.4028  1.5980  0.1910
   40SOL    HW3  214   1.851   2.361   0.492  0.3165  1.5540 -1.5400
   40SOL    MW4  215   1.824   2.436   0.528  0.1353  0.8602 -0.2161
   41SOL     OW  216   4.293   3.084   0.868 -0.4049  0.3202 -0.5880
   41SOL    HW2  217   4.375   3.115   0.831 -0.5097 -0.2669 -1.3287
   41SOL    HW3  218   4.281   2.996   0.831 -0.4844 -0.3031  0.8923
   41SOL    MW4  219   4.302   3.076   0.858 -0.4292  0.1607 -0.4904
   42SOL     OW  220   0.264   2.842   0.725 -0.3725 -0.0468 -0.5369
   42SOL    HW2  221   0.185   2.792   0.748  0.5709 -1.2259  0.1514
   42SOL    HW3  222   0.257   2.923   0.777 -0.8133 -0.4276 -0.0004
   42SOL    MW4  223   0.252   2.846   0.735 -0.3062 -0.2525 -0.3754
   43SOL     OW  224   2.549   0.296   0.407  0.2589  0.2060 -0.1692
   43SOL    HW2  225   2.539   0.303   0.502 -0.5974  0.5512 -0.2860
   43SOL    HW3  226   2.461   0.280   0.374  0.7007 -0.9442 -0.8241
   43SOL    MW4  227   2.536   0.295   0.415  0.2041  0.0998 -0.2710
   44SOL     OW  228   1.611   4.026   0.574 -0.3188  0.3244  0.1059
   44SOL    HW2  229   1.589   3.967   0.502 -0.0948 -0.0728  0.3608
   44SOL    HW3  230   1.631   4.110   0.531 -2.1003  0.6441 -0.1485
   44SOL    MW4  231   1.611   4.030   0.559 -0.5243  0.3142  0.1060
   45SOL     OW  232   2.445   0.827   0.823  0.0569  0.2565 -0.4204
   45SOL    HW2  233   2.453   0.757   0.759 -0.2806  1.0101 -1.3038
   45SOL    HW3  234   2.525   0.879   0.813 -0.0517  0.4447 -0.3255
   45SOL    MW4  235   2.456   0.825   0.813 -0.0021  0.3808 -0.5243
   46SOL     OW  236   1.511   4.385   0.730  0.4699  0.0596  0.2465
   46SOL    HW2  237   1.509   4.475   0.762  1.2862  0.2162 -0.1189
   46SOL    HW3  238   1.496   4.393   0.636  1.1456 -0.1295  0.1176
   46SOL    MW4  239   1.509   4.398   0.722  0.6669  0.0553  0.1813
   47SOL     OW  240   1.167   0.830   0.859 -0.1709 -0.3157 -0.0644
   47SOL    HW2  241   1.145   0.737   0.857  0.4910 -0.4657 -0.1769
   47SOL    HW3  242   1.163   0.854   0.952 -0.8386 -0.3353 -0.0850
   47SOL    MW4  243   1.163   0.821   0.871 -0.1718 -0.3381 -0.0820
   48SOL     OW  244   0.880   1.199   0.440 -0.0106  0.0848 -0.1771
   48SOL    HW2  245   0.788   1.218   0.423  0.3736  1.3952 -0.8709
   48SOL    HW3  246   0.882   1.106   0.463 -1.6678  0.3630  1.1416
   48SOL    MW4  247   0.868   1.189   0.440 -0.1786  0.2944 -0.0947
   49SOL     OW  248   0.651   4.458   0.817  0.5314  0.6318  0.2731
   49SOL    HW2  249   0.657   4.541   0.865 -1.3645  0.6590  0.5050
   49SOL    HW3  250   0.615   4.482   0.731 -1.0095 -0.0496  0.7003
   49SOL    MW4  251   0.647   4.472   0.812  0.0779  0.5450  0.3600
   50SOL     OW  252   0.451   0.353   0.371  0.2098 -0.0966 -0.1527
   50SOL    HW2  253   0.422   0.405   0.296  1.2376  0.2011 -0.3539
   50SOL    HW3  254   0.370   0.325   0.414 -0.3909 -0.3353 -1.4146
   50SOL    MW4  255   0.437   0.356   0.367  0.2661 -0.0888 -0.3458
   51SOL     OW  256   3.797   3.075   0.850 -0.5190  0.1288 -0.0716
   51SOL    HW2  257   3.730   3.133   0.812 -0.5037 -1.5233 -2.7226
   51SOL    HW3  258   3.880   3.110   0.819 -0.2237  0.9506  1.5441
   51SOL    MW4  259   3.799   3.087   0.841 -0.4780  0.0193 -0.2082
   52SOL     OW  260   1.372   2.444   0.409  0.4546 -0.1253  0.0896
   52SOL    HW2  261   1.284   2.449   0.372  0.6350 -0.7833 -0.4254
   52SOL    HW3  262   1.360   2.467   0.502 -0.0982  0.8305 -0.2049
   52SOL    MW4  263   1.359   2.448   0.416  0.4054 -0.0861 -0.0172
   53SOL     OW  264   1.355   2.459   0.717  0.0297  0.2838  0.3801
   53SOL    HW2  265   1.367   2.547   0.754 -0.7599  0.4391  0.3001
   53SOL    HW3  266   1.287   2.420   0.771  1.2738 -0.7586  1.1954
   53SOL    MW4  267   1.347   2.466   0.729  0.0896  0.1669  0.4771
   54SOL     OW  268   1.135   1.561   0.287 -0.3430  0.5644 -0.0572
   54SOL    HW2  269   1.167   1.558   0.197 -0.1858 -0.4069  0.0237
   54SOL    HW3  270   1.086   1.643   0.292 -1.2926  0.1004 -1.3479
   54SOL    MW4  271   1.133   1.571   0.276 -0.4475  0.3749 -0.2168
   55SOL     OW  272   3.589   2.440   0.750 -0.6392 -0.3449  0.0135
   55SOL    HW2  273   3.511   2.407   0.796 -0.6145 -0.3462  0.0541
   55SOL    HW3  274   3.590   2.533   0.770  0.5883 -0.7099  1.8176
   55SOL    MW4  275   3.579   2.448   0.759 -0.4737 -0.3932  0.2569
   56SOL     OW  276   2.227   0.006   0.497  0.6849  0.0266  0.3653
   56SOL    HW2  277   2.136  -0.022   0.489  0.2802  0.4323  2.9430
   56SOL    HW3  278   2.278  -0.075   0.491  0.0391 -0.3872  0.4308
   56SOL    MW4  279   2.222  -0.008   0.495  0.5462  0.0253  0.7140
   57SOL     OW  280   4.043   1.660   0.773  0.5126 -0.2829  0.1804
   57SOL    HW2  281   4.030   1.647   0.679 -0.0464 -0.2063  0.2476
   57SOL    HW3  282   4.122   1.609   0.793  1.6298  1.0863 -0.6507
   57SOL    MW4  283   4.052   1.652   0.763  0.5865 -0.0920  0.0796
   58SOL     OW  284   0.253   0.948   0.317  0.2763  0.0863  0.1819
   58SOL    HW2  285   0.189   0.878   0.322  0.3294  0.0595  0.4839
   58SOL    HW3  286   0.328   0.909   0.273  1.0672 -0.6237  2.0867
   58SOL    MW4  287   0.255   0.934   0.312  0.3876 -0.0110  0.4731
   59SOL     OW  288   1.486   0.297   0.314 -0.5865 -0.3767 -0.0992
   59SOL    HW2  289   1.462   0.205   0.329 -1.2657 -0.7108 -2.8783
   59SOL    HW3  290   1.578   0.302   0.341 -0.5907 -1.8431  0.2442
   59SOL    MW4  291   1.495   0.285   0.319 -0.6766 -0.6143 -0.4205
   60SOL     OW  292   0.891   1.886   0.482 -0.4922  0.1133 -0.5303
   60SOL    HW2  293   0.817   1.947   0.489 -1.0660 -0.6315  0.1273
   60SOL    HW3  294   0.877   1.824   0.554 -0.1961 -1.0826 -1.4871
   60SOL    MW4  295   0.879   1.886   0.493 -0.5289 -0.1428 -0.5698
   61SOL     OW  296   4.327   2.829   0.728  0.3764  0.2280 -0.1404
   61SOL    HW2  297   4.349   2.843   0.636 -1.2616 -2.3384 -0.9862
   61SOL    HW3  298   4.404   2.785   0.764  1.0842  1.3770 -0.2106
   61SOL    MW4  299   4.340   2.825   0.721  0.2542  0.0410 -0.2612
   62SOL     OW  300   3.315   2.774   0.537 -0.4405  0.0780  0.3261
   62SOL    HW2  301   3.382   2.754   0.472 -0.1064 -0.6306  0.8780
   62SOL    HW3  302   3.259   2.839   0.495  0.6730  0.7837 -0.0874
   62SOL    MW4  303   3.316   2.780   0.523 -0.2496  0.0777  0.3444
   63SOL     OW  304   0.471   4.058   0.486 -0.2314  0.0976  0.4734
   63SOL    HW2  305   0.402   4.103   0.436 -1.1155 -1.0840  0.6306
   63SOL    HW3  306   0.458   3.965   0.467  1.1428 -0.1513  0.7329
   63SOL    MW4  307   0.460   4.052   0.477 -0.1668 -0.0916  0.5284
   64SOL     OW  308   2.503   3.616   0.772 -0.2814  0.1516 -0.3109
   64SOL    HW2  309   2.575   3.556   0.790 -0.3139  0.0232 -0.6084
   64SOL    HW3  310   2.424   3.562   0.777 -0.4153  0.4350  0.7172
   64SOL    MW4  311   2.502   3.601   0.775 -0.3033  0.1721 -0.2145
   65SOL     OW  312   3.395   2.202   0.484  0.4543  0.1929  0.3469
   65SOL    HW2  313   3.449   2.137   0.439 -0.5891 -0.1484 -0.4220
   65SOL    HW3  314   3.369   2.160   0.566 -0.1468 -0.3384 -0.1089
   65SOL    MW4  315   3.399   2.188   0.489  0.2372  0.0775  0.1853
   66SOL     OW  316   2.085   1.183   0.481 -0.0005 -0.7790 -0.0141
   66SOL    HW2  317   2.089   1.210   0.573 -1.4740  1.3638 -0.5417
   66SOL    HW3  318   1.997   1.149   0.469  0.4356 -1.7778 -0.4648
   66SOL    MW4  319   2.074   1.182   0.491 -0.1373 -0.6280 -0.1432
   67SOL     OW  320   0.010   2.053   0.350  0.3941  0.3936  0.0456
   67SOL    HW2  321  -0.001   2.148   0.354 -1.0877  0.2718 -0.6068
   67SOL    HW3  322  -0.029   2.028   0.266  0.9451 -0.7640  0.1254
   67SOL    MW4  323   0.003   2.063   0.340  0.2713  0.2251 -0.0299
   68SOL     OW  324   3.603   0.412   0.388 -0.0483  0.1467 -0.4869
   68SOL    HW2  325   3.518   0.454   0.374  0.3149  1.0877  0.1185
   68SOL    HW3  326   3.582   0.319   0.397 -1.1032  0.4656  0.4087
   68SOL    MW4  327   3.589   0.405   0.387 -0.1397  0.3129 -0.2889
   69SOL     OW  328   2.938   0.785   0.866  0.1257  0.0651 -0.2526
   69SOL    HW2  329   2.868   0.843   0.837  0.6922  1.2238  0.6556
   69SOL    HW3  330   2.934   0.788   0.961  1.3692  0.0953 -0.1913
   69SOL    MW4  331   2.928   0.793   0.874  0.3645  0.2220 -0.1246
   70SOL     OW  332   0.586   1.250   0.448 -0.3729 -0.8364  0.5383
   70SOL    HW2  333   0.557   1.341   0.452  0.8624 -0.2874 -1.9779
   70SOL    HW3  334   0.506   1.199   0.457 -1.5110  0.5793 -1.0965
   70SOL    MW4  335   0.572   1.256   0.449 -0.3601 -0.5773 -0.0094
   71SOL     OW  336   2.935   1.534   0.857  0.4675 -0.0777  0.0657
   71SOL    HW2  337   2.948   1.455   0.804 -0.2339 -0.8117  0.9597
   71SOL    HW3  338   3.011   1.588   0.839  0.5413 -0.5812 -1.2227
   71SOL    MW4  339   2.947   1.530   0.847  0.3846 -0.2409  0.0137
   72SOL     OW  340   4.015   1.599   0.484 -0.1532  0.2567 -0.5600
   72SOL    HW2  341   3.933   1.550   0.488 -0.9473  1.5510 -0.6046
   72SOL    HW3  342   4.083   1.534   0.498 -1.1265 -1.0398 -1.6987
   72SOL    MW4  343   4.013   1.584   0.486 -0.3867  0.2565 -0.7161
   73SOL     OW  344   1.164   3.048   0.879 -0.1617  0.5499  0.2738
   73SOL    HW2  345   1.246   3.071   0.835  0.2595  0.8680  1.1957
   73SOL    HW3  346   1.150   2.956   0.857 -0.3607  0.9063 -1.1291
   73SOL    MW4  347   1.173   3.039   0.871 -0.1323  0.6390  0.2103
   74SOL     OW  348   1.852   0.805   0.492 -0.1435  0.2043 -0.2110
   74SOL    HW2  349   1.835   0.846   0.577  0.7548  1.3543 -0.5748
   74SOL    HW3  350   1.803   0.723   0.495 -1.8596  1.2263  0.5898
   74SOL    MW4  351   1.844   0.800   0.503 -0.2514  0.4908 -0.1533
   75SOL     OW  352   1.682   2.981   0.373  0.5594  0.1524 -0.4769
   75SOL    HW2  353   1.742   3.004   0.445 -1.3123  1.3296  0.7571
   75SOL    HW3  354   1.622   2.918   0.412  0.0332  0.1661 -1.2653
   75SOL    MW4  355   1.682   2.976   0.388  0.2429  0.3092 -0.4181
   76SOL     OW  356   2.329   3.751   0.435  0.3204 -0.1431  0.5856
   76SOL    HW2  357   2.384   3.673   0.444  0.8027  0.0807 -0.3812
   76SOL    HW3  358   2.242   3.716   0.413  0.3949 -0.4319  0.7424
   76SOL    MW4  359   2.324   3.736   0.434  0.3939 -0.1516  0.4787
   77SOL     OW  360   3.800   2.049   0.712  0.1093 -0.6084 -0.0805
   77SOL    HW2  361   3.821   2.063   0.620 -3.0396 -0.8322 -0.9127
   77SOL    HW3  362   3.806   2.136   0.751 -0.2755 -0.1981 -0.9088
   77SOL    MW4  363   3.803   2.062   0.705 -0.3569 -0.5836 -0.2995
   78SOL     OW  364   1.979   4.550   0.463 -0.2712 -0.5564  0.3298
   78SOL    HW2  365   1.976   4.515   0.552  0.3609 -0.5646  0.3513
   78SOL    HW3  366   1.989   4.473   0.407 -0.0369 -0.5023  0.2968
   78SOL    MW4  367   1.980   4.535   0.467 -0.1569 -0.5503  0.3283
   79SOL     OW  368   1.834   0.914   0.757  0.3175  0.1331  0.0067
   79SOL    HW2  369   1.809   0.998   0.795  1.4678  0.1686  0.7080
   79SOL    HW3  370   1.905   0.882   0.813  1.4056 -0.2549 -1.5726
   79SOL    MW4  371   1.840   0.921   0.769  0.6127  0.0866 -0.1091
   80SOL     OW  372   1.930   4.234   0.293 -0.1353 -0.1023 -0.5628
   80SOL    HW2  373   2.006   4.243   0.351  0.6282  1.4199 -1.7491
   80SOL    HW3  374   1.929   4.141   0.269  1.7126 -0.0404 -0.9710
   80SOL    MW4  375   1.940   4.223   0.298  0.2092  0.1068 -0.7732
   81SOL     OW  376   1.828   1.177   0.853 -0.7232  0.0920  0.0701
   81SOL    HW2  377   1.909   1.209   0.813 -0.3391 -1.4895 -0.4673
   81SOL    HW3  378   1.758   1.211   0.797 -0.4660  1.8260  0.7880
   81SOL    MW4  379   1.829   1.186   0.840 -0.6385  0.1123  0.0939
   82SOL     OW  380   2.694   2.680   0.436  0.0792 -0.2744  0.0640
   82SOL    HW2  381   2.786   2.705   0.445  0.5362 -1.8673 -0.0062
   82SOL    HW3  382   2.691   2.589   0.465 -1.1778 -0.7454 -1.4518
   82SOL    MW4  383   2.706   2.671   0.441 -0.0262 -0.5467 -0.1452
   83SOL     OW  384   3.832   0.555   0.422 -0.2035 -0.1793 -0.6059
   83SOL    HW2  385   3.912   0.504   0.409 -0.2499 -0.2887 -0.4619
   83SOL    HW3  386   3.762   0.496   0.394 -0.1714  0.2320 -1.5824
   83SOL    MW4  387   3.834   0.540   0.416 -0.2055 -0.1394 -0.7158
   84SOL     OW  388   3.126   1.661   0.488 -0.0285  0.3044  0.1280
   84SOL    HW2  389   3.096   1.576   0.455 -0.1744 -0.0168  1.0878
   84SOL    HW3  390   3.052   1.720   0.475  0.0070  0.2435 -0.3625
   84SOL    MW4  391   3.112   1.657   0.482 -0.0429  0.2540  0.1899
   85SOL     OW  392   3.768   4.162   0.361 -0.1994 -0.4752 -0.4520
   85SOL    HW2  393   3.795   4.248   0.329 -0.7475 -0.5334 -1.1053
   85SOL    HW3  394   3.821   4.100   0.311  1.1240 -0.4803  0.9563
   85SOL    MW4  395   3.778   4.165   0.350 -0.0970 -0.4830 -0.3524
   86SOL     OW  396   2.038   2.080   0.750  0.2381  0.5646  0.3382
   86SOL    HW2  397   2.068   2.083   0.659  2.2326  0.0311  0.9729
   86SOL    HW3  398   2.048   2.170   0.782  0.7139  0.4866  0.4076
   86SOL    MW4  399   2.043   2.092   0.742  0.5641  0.4840  0.4312
   87SOL     OW  400   3.138   3.375   0.505  0.0169  0.2183  0.5836
   87SOL    HW2  401   3.163   3.336   0.589  0.9667  0.3296  0.3583
   87SOL    HW3  402   3.219   3.376   0.454 -0.2587  1.4298  0.1635
   87SOL    MW4  403   3.152   3.370   0.509  0.1059  0.3929  0.4985
   88SOL     OW  404   1.149   3.047   0.514  0.3972 -0.0531  0.2419
   88SOL    HW2  405   1.208   3.066   0.441  0.9323  1.4116  1.0436
   88SOL    HW3  406   1.178   3.104   0.585  0.2115 -1.8240  1.7971
   88SOL    MW4  407   1.161   3.057   0.514  0.4433 -0.0935  0.5529
   89SOL     OW  408   1.537   0.532   0.693 -0.4721 -0.1481 -0.3193
   89SOL    HW2  409   1.465   0.486   0.737 -0.8418  1.1166  0.4165
   89SOL    HW3  410   1.543   0.616   0.738  1.1444 -0.0425 -0.7114
   89SOL    MW4  411   1.528   0.537   0.704 -0.3076  0.0327 -0.2740
   90SOL     OW  412   1.827   2.751   0.864  0.0366  0.1388  0.4335
   90SOL    HW2  413   1.817   2.656   0.863  0.4059  0.1033  0.1279
   90SOL    HW3  414   1.912   2.767   0.824 -0.0785  0.6048  0.3703
   90SOL    MW4  415   1.837   2.741   0.858  0.0700  0.1955  0.3849
   91SOL     OW  416   3.639   4.482   0.487 -0.1986 -0.0090 -0.3030
   91SOL    HW2  417   3.544   4.480   0.483 -0.2580  0.1822  0.8641
   91SOL    HW3  418   3.661   4.447   0.573  0.8267 -0.9118 -0.9172
   91SOL    MW4  419   3.630   4.477   0.498 -0.0713 -0.1030 -0.2301
   92SOL     OW  420   0.723   3.039   0.803 -0.2754 -0.2234  0.1454
   92SOL    HW2  421   0.653   3.097   0.774  0.0827 -0.2013 -0.6906
   92SOL    HW3  422   0.701   2.954   0.766  0.5110 -0.0559 -0.7126
   92SOL    MW4  423   0.711   3.035   0.794 -0.1244 -0.1984 -0.0781
   93SOL     OW  424   1.153   2.343   0.874 -0.3634  0.4981 -0.3647
   93SOL    HW2  425   1.144   2.249   0.863  1.2231  0.0146  2.0951
   93SOL    HW3  426   1.165   2.356   0.968 -0.2909  3.1248 -0.6797
   93SOL    MW4  427   1.154   2.332   0.885 -0.1445  0.7808 -0.0818
   94SOL     OW  428   0.485   3.234   0.486 -0.4272 -0.4830 -0.0330
   94SOL    HW2  429   0.402   3.280   0.493  0.0092  0.2092  0.6621
   94SOL    HW3  430   0.463   3.150   0.445 -1.4224 -0.2091 -0.0666
   94SOL    MW4  431   0.471   3.229   0.481 -0.5009 -0.3555  0.0543
   95SOL     OW  432   2.276   1.667   0.828  0.3687 -0.0523 -0.3353
   95SOL    HW2  433   2.351   1.619   0.862  0.3167 -0.2701 -0.5287
   95SOL    HW3  434   2.294   1.677   0.735  1.3434  2.0576  0.0553
   95SOL    MW4  435   2.288   1.662   0.821  0.4907  0.1974 -0.3093
   96SOL     OW  436   3.064   1.090   0.385  0.0218  0.0339  1.0255
   96SOL    HW2  437   3.123   1.084   0.310  0.0467  0.2926  1.0264
   96SOL    HW3  438   3.063   1.001   0.421  0.9914  0.1846  1.4649
   96SOL    MW4  439   3.072   1.077   0.380  0.1531  0.0880  1.0836
   97SOL     OW  440   1.331   3.208   0.720 -0.1224  0.0198  0.1943
   97SOL    HW2  441   1.365   3.258   0.646  0.4982  1.1663  1.2254
   97SOL    HW3  442   1.410   3.175   0.765 -0.3945  1.1995  1.5829
   97SOL    MW4  443   1.346   3.210   0.716 -0.0764  0.3264  0.5134
   98SOL     OW  444   0.667   2.785   0.727  0.3071  0.1943  1.0902
   98SOL    HW2  445   0.745   2.745   0.764 -0.3861 -0.1180  2.2529
   98SOL    HW3  446   0.596   2.760   0.787 -0.7120  0.3325 -0.0213
   98SOL    MW4  447   0.668   2.776   0.740  0.0812  0.1714  1.0970
   99SOL     OW  448   0.282   4.227   0.397 -0.2926 -0.0440 -0.1363
   99SOL    HW2  449   0.262   4.314   0.431 -0.8345  0.8008 -2.5415
   99SOL    HW3  450   0.197   4.182   0.394 -0.2004 -0.2220 -0.1263
   99SOL    MW4  451   0.268   4.232   0.401 -0.3519  0.0439 -0.4523
  100SOL     OW  452   4.094   0.958   0.481 -0.1583 -0.2547  0.0911
  100SOL    HW2  453   4.062   1.048   0.478 -0.4948 -0.3567  0.6175
  100SOL    HW3  454   4.078   0.929   0.571  2.1172 -0.0540  0.6116
  100SOL    MW4  455   4.088   0.966   0.492  0.0973 -0.2417  0.2292
  101SOL     OW  456   1.349   3.131   0.319 -0.3689  0.2560  0.2416
  101SOL    HW2  457   1.422   3.101   0.265 -0.4880  0.8763 -0.2655
  101SOL    HW3  458   1.385   3.205   0.368 -0.5006  0.2087  0.4117
  101SOL    MW4  459   1.364   3.137   0.318 -0.4020  0.3316  0.1971
  102SOL     OW  460   3.584   3.995   0.768 -0.1352  0.4660 -0.1275
  102SOL    HW2  461   3.580   4.077   0.816 -0.2259  0.1560  0.3952
  102SOL    HW3  462   3.556   4.018   0.679 -0.2989  0.9686  0.0537
  102SOL    MW4  463   3.580   4.009   0.762 -0.1688  0.4916 -0.0346
  103SOL     OW  464   3.852   4.408   0.280 -0.2429  0.2844  0.5902
  103SOL    HW2  465   3.928   4.458   0.307  0.1959 -0.2720  0.3985
  103SOL    HW3  466   3.784   4.431   0.343  0.7634 -1.0073  2.1694
  103SOL    MW4  467   3.853   4.418   0.292 -0.0522  0.0405  0.7733
  104SOL     OW  468   2.463   2.079   0.773  0.5960  0.2752  0.2017
  104SOL    HW2  469   2.386   2.029   0.801  0.1128  0.7331 -0.2875
  104SOL    HW3  470   2.537   2.020   0.788  0.3369  0.4577  2.3029
  104SOL    MW4  471   2.463   2.065   0.778  0.4981  0.3595  0.4144
  105SOL     OW  472   3.939   0.109   0.336 -0.1184  0.0685  0.3105
  105SOL    HW2  473   3.975   0.021   0.327 -0.3071 -0.0626  0.8150
  105SOL    HW3  474   3.942   0.146   0.248  1.1761  0.0306  0.3364
  105SOL    MW4  475   3.944   0.102   0.323  0.0274  0.0463  0.3805
  106SOL     OW  476   4.061   3.103   0.361 -0.9166 -0.0791 -0.3094
  106SOL    HW2  477   4.029   3.017   0.389  0.0793 -0.0468  0.9969
  106SOL    HW3  478   4.155   3.089   0.346 -0.7897  0.7355 -0.2742
  106SOL    MW4  479   4.069   3.090   0.363 -0.7682  0.0327 -0.1324
  107SOL     OW  480   2.037   0.756   0.838 -0.0287 -0.1367 -0.4582
  107SOL    HW2  481   2.029   0.683   0.777  1.4034  0.1597 -1.0327
  107SOL    HW3  482   2.113   0.805   0.806  0.2260  0.4853  1.0765
  107SOL    MW4  483   2.046   0.753   0.826  0.1938 -0.0156 -0.3315
  108SOL     OW  484   0.025   1.144   0.333  0.3258 -0.1614 -0.3647
  108SOL    HW2  485  -0.017   1.081   0.391  0.1792  0.0517 -0.2395
  108SOL    HW3  486   0.106   1.100   0.304 -0.3242 -0.8487 -1.1583
  108SOL    MW4  487   0.030   1.130   0.337  0.2206 -0.2240 -0.4529
  109SOL     OW  488   2.270   2.506   0.515  0.0599 -0.2274  0.4581
  109SOL    HW2  489   2.271   2.490   0.610 -0.0889  0.5721  0.6057
  109SOL    HW3  490   2.182   2.541   0.498 -0.0434 -0.7172 -0.0415
  109SOL    MW4  491   2.258   2.509   0.526  0.0267 -0.1864  0.4117
  110SOL     OW  492   0.181   3.669   0.495  0.0018  0.3189 -0.1072
  110SOL    HW2  493   0.199   3.647   0.586  0.9256  0.1104 -0.3400
  110SOL    HW3  494   0.266   3.692   0.458 -0.4090  0.6816 -0.8454
  110SOL    MW4  495   0.194   3.669   0.502  0.0695  0.3393 -0.2354
  111SOL     OW  496   1.257   1.970   0.330  0.0491  0.1066  0.4117
  111SOL    HW2  497   1.198   1.927   0.269  1.1060  0.5107 -0.9154
  111SOL    HW3  498   1.202   1.991   0.406 -1.5538  0.6986 -0.8917
  111SOL    MW4  499   1.242   1.967   0.332 -0.0230  0.2381  0.0646
  112SOL     OW  500   1.345   4.053   0.673 -0.5359 -0.0968  0.7312
  112SOL    HW2  501   1.440   4.061   0.664 -0.6232  1.4164  0.8957
  112SOL    HW3  502   1.310   4.104   0.600 -1.2052  2.7157  2.9103
  112SOL    MW4  503   1.353   4.061   0.662 -0.6359  0.4740  1.0405
  113SOL     OW  504   0.709   2.025   0.805  0.1280  0.0571  0.0826
  113SOL    HW2  505   0.632   1.973   0.829 -0.6835 -0.1161 -2.7390
  113SOL    HW3  506   0.783   1.971   0.834 -0.7550 -1.0314  0.3780
  113SOL    MW4  507   0.709   2.011   0.812 -0.0956 -0.1092 -0.2507
  114SOL     OW  508   4.202   4.264   0.345  0.1084  0.0478 -0.2552
  114SOL    HW2  509   4.131   4.227   0.398  1.1253 -0.5341  0.7202
  114SOL    HW3  510   4.256   4.311   0.409  0.4238  0.7582 -1.0468
  114SOL    MW4  511   4.199   4.266   0.361  0.2842  0.0644 -0.2310
  115SOL     OW  512   0.994   2.326   0.507  0.3662 -0.1497  0.1900
  115SOL    HW2  513   1.031   2.399   0.458 -0.8163 -0.1632 -0.7548
  115SOL    HW3  514   0.974   2.363   0.593  0.2306  0.5103 -0.1199
  115SOL    MW4  515   0.996   2.341   0.512  0.1923 -0.0644  0.0244
  116SOL     OW  516   0.472   3.783   0.413 -0.3265 -0.2406 -0.3285
  116SOL    HW2  517   0.541   3.754   0.473 -0.5753 -0.1630 -0.0077
  116SOL    HW3  518   0.497   3.744   0.329 -0.8322 -1.6572  0.1645
  116SOL    MW4  519   0.485   3.774   0.410 -0.4261 -0.4175 -0.2212
  117SOL     OW  520   4.384   0.973   0.483  0.0040 -0.6247  0.0872
  117SOL    HW2  521   4.413   0.957   0.573  0.0890  0.6430  0.2937
  117SOL    HW3  522   4.289   0.986   0.491  0.1286  0.2697  0.0998
  117SOL    MW4  523   4.375   0.972   0.496  0.0315 -0.3394  0.1161
  118SOL     OW  524   0.663   2.027   0.512  0.0493 -0.4840 -0.0270
  118SOL    HW2  525   0.676   2.041   0.606 -0.8782 -0.3645  0.0891
  118SOL    HW3  526   0.597   1.958   0.507  0.6171 -0.9979 -0.5988
  118SOL    MW4  527   0.656   2.020   0.524  0.0018 -0.5364 -0.0871
  119SOL     OW  528   2.436   4.391   0.760 -0.4198  0.7826  0.1004
  119SOL    HW2  529   2.524   4.364   0.786  0.2877  2.6217 -0.2760
  119SOL    HW3  530   2.429   4.482   0.791 -1.9316  0.8715 -0.4647
  119SOL    MW4  531   2.447   4.400   0.767 -0.5260  1.0371 -0.0238
  120SOL     OW  532   2.464   0.371   0.676 -0.2138  0.4677 -0.2532
  120SOL    HW2  533   2.393   0.379   0.739  0.2761 -1.5341  0.5870
  120SOL    HW3  534   2.544   0.371   0.729  0.2699  0.0973 -0.9693
  120SOL    MW4  535   2.466   0.372   0.691 -0.0854  0.1547 -0.2368
  121SOL     OW  536   1.984   3.211   0.126 -0.2863 -0.1228 -0.4621
  121SOL    HW2  537   2.024   3.229   0.042  3.0969 -0.4571  1.0067
  121SOL    HW3  538   2.009   3.120   0.146 -0.9899 -0.0312  0.9350
  121SOL    MW4  539   1.992   3.201   0.118  0.0672 -0.1547 -0.0840
  122SOL     OW  540   1.134   0.010   0.816 -0.2331 -0.0535  0.5282
  122SOL    HW2  541   1.103  -0.074   0.781 -2.1708  0.9273 -0.2244
  122SOL    HW3  542   1.062   0.071   0.799  0.8801  1.6287  1.6372
  122SOL    MW4  543   1.120   0.007   0.809 -0.3418  0.2975  0.5753
  123SOL     OW  544   1.173   3.848   0.353  0.2983  0.4190  0.1840
  123SOL    HW2  545   1.244   3.794   0.388 -1.0070 -0.5992  1.2841
  123SOL    HW3  546   1.094   3.817   0.397 -0.8597  1.4919 -1.0717
  123SOL    MW4  547   1.172   3.837   0.363 -0.0266  0.4261  0.1635
  124SOL     OW  548   2.486   1.506   0.895 -0.1285  0.3695  0.2199
  124SOL    HW2  549   2.473   1.440   0.827 -0.2739  0.3265  0.2891
  124SOL    HW3  550   2.565   1.553   0.868  0.2469 -0.1370  0.4106
  124SOL    MW4  551   2.495   1.503   0.883 -0.0980  0.2972  0.2542
  125SOL     OW  552   2.950   3.025   0.444 -0.0973 -0.2975 -0.0750
  125SOL    HW2  553   3.041   3.055   0.443 -0.1660  0.1632  3.3292
  125SOL    HW3  554   2.955   2.932   0.463 -0.3528 -0.1569  0.6935
  125SOL    MW4  555   2.962   3.017   0.446 -0.1402 -0.2184  0.4755
  126SOL     OW  556   3.054   0.837   0.468  0.0788  0.4867 -0.4579
  126SOL    HW2  557   3.084   0.835   0.559  0.8486  0.0744 -0.7127
  126SOL    HW3  558   3.023   0.748   0.451  0.0051  0.5436 -0.6227
  126SOL    MW4  559   3.054   0.825   0.478  0.1705  0.4398 -0.5132
  127SOL     OW  560   0.922   1.701   0.704 -0.3646  0.1482 -0.3627
  127SOL    HW2  561   0.859   1.643   0.748  0.2047 -0.9602 -0.9851
  127SOL    HW3  562   0.934   1.774   0.765 -0.8873 -0.5221  0.5576
  127SOL    MW4  563   0.915   1.703   0.718 -0.3585 -0.0865 -0.3235
  128SOL     OW  564   0.519   4.031   0.771 -0.1392  0.3476 -0.0940
  128SOL    HW2  565   0.502   4.055   0.679 -0.0802 -0.3904 -0.2959
  128SOL    HW3  566   0.498   4.111   0.820  0.4233  0.9515 -0.8079
  128SOL    MW4  567   0.514   4.045   0.765 -0.0572  0.3295 -0.2148
  129SOL     OW  568   3.043   1.376   0.430  0.0173  0.2157  0.0996
  129SOL    HW2  569   3.040   1.280   0.424  0.9750  0.3036 -2.9603
  129SOL    HW3  570   2.952   1.403   0.417  0.0469 -0.2425 -1.2158
  129SOL    MW4  571   3.031   1.367   0.427  0.1478  0.1669 -0.4777
  130SOL     OW  572   2.155   4.248   0.468 -0.0240  0.3604  0.4542
  130SOL    HW2  573   2.203   4.165   0.472 -0.4326  0.0839 -0.3665
  130SOL    HW3  574   2.224   4.314   0.456  0.2422  0.0602  0.2931
  130SOL    MW4  575   2.171   4.245   0.467 -0.0429  0.2847  0.3247
  131SOL     OW  576   1.546   3.837   0.363 -0.1688  0.2128 -0.1208
  131SOL    HW2  577   1.483   3.764   0.358  0.8181 -0.6129 -0.6012
  131SOL    HW3  578   1.628   3.796   0.391  0.4513  1.1018 -0.6193
  131SOL    MW4  579   1.548   3.822   0.366  0.0432  0.2210 -0.2500
  132SOL     OW  580   2.283   2.470   0.786 -0.2636 -0.1499  0.8893
  132SOL    HW2  581   2.346   2.410   0.826  1.2922  0.4233 -0.6178
  132SOL    HW3  582   2.199   2.446   0.824  0.7378 -1.5175  2.2930
  132SOL    MW4  583   2.281   2.459   0.797  0.0737 -0.2546  0.8757
  133SOL     OW  584   1.062   3.527   0.609 -0.0717 -0.1896 -0.5518
  133SOL    HW2  585   1.041   3.514   0.701 -0.2735 -1.0532 -0.7152
  133SOL    HW3  586   1.044   3.442   0.568 -0.9887  0.4921 -1.5797
  133SOL    MW4  587   1.057   3.514   0.616 -0.2193 -0.2136 -0.7090
  134SOL     OW  588   1.843   1.101   0.409 -0.3093 -0.0517 -0.0838
  134SOL    HW2  589   1.836   1.097   0.314  1.7628  1.6512 -0.3446
  134SOL    HW3  590   1.820   1.012   0.438  2.7881 -1.7416 -2.4576
  134SOL    MW4  591   1.839   1.088   0.400  0.3729 -0.0499 -0.4313
  135SOL     OW  592   2.426   2.315   0.401 -0.1142 -0.1776 -0.0591
  135SOL    HW2  593   2.382   2.379   0.457  1.6579  1.1247 -0.1064
  135SOL    HW3  594   2.413   2.348   0.312  0.8124  0.1329 -0.0829
  135SOL    MW4  595   2.418   2.328   0.397  0.2422  0.0353 -0.0685
  136SOL     OW  596   3.310   4.171   0.426 -0.4896 -0.3443  0.1055
  136SOL    HW2  597   3.385   4.121   0.458 -0.0014 -0.4346 -1.1689
  136SOL    HW3  598   3.272   4.116   0.358 -1.0794  0.1805  0.0099
  136SOL    MW4  599   3.315   4.157   0.421 -0.5031 -0.2866 -0.0753
  137SOL     OW  600   2.058   1.278   0.738  0.1020  0.4713 -0.5187
  137SOL    HW2  601   2.054   1.370   0.766 -1.3014  0.6231 -1.1766
  137SOL    HW3  602   2.128   1.240   0.791  0.3806  1.8120  0.0929
  137SOL    MW4  603   2.067   1.285   0.749 -0.0463  0.6682 -0.5248
  138SOL     OW  604   0.234   3.599   0.784  0.5528 -0.2464  0.3732
  138SOL    HW2  605   0.306   3.539   0.803 -0.4372 -1.3723  0.6351
  138SOL    HW3  606   0.245   3.670   0.847  2.2334  0.3059 -0.5005
  138SOL    MW4  607   0.245   3.600   0.795  0.6439 -0.3223  0.2925
  139SOL     OW  608   2.342   4.020   0.524  0.1860  0.7198 -0.0211
  139SOL    HW2  609   2.430   4.041   0.494  1.5413 -1.0276  2.5251
  139SOL    HW3  610   2.334   3.925   0.512 -1.6527  0.9595 -0.9407
  139SOL    MW4  611   2.352   4.010   0.519  0.1223  0.5207  0.1935
  140SOL     OW  612   0.462   1.823   0.484 -0.2935 -0.3027 -0.0692
  140SOL    HW2  613   0.473   1.729   0.490  1.7538 -0.1470 -1.0075
  140SOL    HW3  614   0.374   1.839   0.518 -1.2833 -2.7031 -1.3775
  140SOL    MW4  615   0.452   1.813   0.490 -0.1539 -0.5988 -0.3656
  141SOL     OW  616   1.738   3.260   0.237  0.3974 -0.0314  0.2934
  141SOL    HW2  617   1.811   3.242   0.178  1.8055  0.1625  1.9431
  141SOL    HW3  618   1.716   3.175   0.275  0.1330  0.0112  0.2397
  141SOL    MW4  619   1.745   3.246   0.234  0.5484  0.0000  0.5040
  142SOL     OW  620   2.046   1.750   0.423 -0.0255 -0.2122 -0.1903
  142SOL    HW2  621   2.054   1.683   0.356 -1.1997  0.7319 -1.2857
  142SOL    HW3  622   1.952   1.762   0.435  0.1712  0.0199  1.2206
  142SOL    MW4  623   2.035   1.743   0.416 -0.1545 -0.0570 -0.1487
  143SOL     OW  624   3.340   1.391   0.454 -0.4411  0.1064  0.3210
  143SOL    HW2  625   3.381   1.310   0.425  0.4306 -0.0604  1.9611
  143SOL    HW3  626   3.246   1.377   0.440 -0.2986 -1.1915  0.6235
  143SOL    MW4  627   3.333   1.379   0.448 -0.3071 -0.0870  0.5773
  144SOL     OW  628   1.876   3.113   0.545 -0.2928 -0.0194 -0.2974
  144SOL    HW2  629   1.939   3.159   0.490 -0.0018 -1.3787 -1.1434
  144SOL    HW3  630   1.926   3.087   0.623  0.0594 -0.5992 -0.7106
  144SOL    MW4  631   1.891   3.116   0.548 -0.2080 -0.2751 -0.4635
  145SOL     OW  632   4.262   4.364   0.796  0.2809  0.1895  0.6471
  145SOL    HW2  633   4.345   4.321   0.818  0.4234  0.3038  0.3376
  145SOL    HW3  634   4.280   4.457   0.807  0.2032  0.2150  0.5533
  145SOL    MW4  635   4.276   4.371   0.800  0.2899  0.2079  0.5940
  146SOL     OW  636   3.797   1.438   0.493  0.3053 -0.0403  0.4848
  146SOL    HW2  637   3.811   1.381   0.568 -1.9052 -1.7484 -0.3254
  146SOL    HW3  638   3.812   1.382   0.417  0.0928  0.9827 -0.3197
  146SOL    MW4  639   3.801   1.423   0.493 -0.0143 -0.1307  0.2718
  147SOL     OW  640   3.027   3.627   0.499 -0.4092 -0.0141  0.1182
  147SOL    HW2  641   3.095   3.694   0.510 -0.2571  0.0644 -1.1420
  147SOL    HW3  642   3.075   3.545   0.487 -0.5769 -0.2281  0.9176
  147SOL    MW4  643   3.042   3.625   0.499 -0.4113 -0.0319  0.0574
  148SOL     OW  644   4.329   4.638   0.442  0.0109 -0.1472 -0.2854
  148SOL    HW2  645   4.412   4.685   0.433 -0.5887  0.8932 -0.4238
  148SOL    HW3  646   4.353   4.558   0.489  0.9893  0.4556  0.2786
  148SOL    MW4  647   4.343   4.634   0.447  0.0615  0.0691 -0.2293
  149SOL     OW  648   1.663   4.247   0.396 -0.0034 -0.1439 -0.0621
  149SOL    HW2  649   1.759   4.254   0.391  0.0436 -1.1767 -0.6995
  149SOL    HW3  650   1.639   4.198   0.318 -0.8399 -1.9616  1.3004
  149SOL    MW4  651   1.673   4.241   0.385 -0.1076 -0.5198  0.0336
  150SOL     OW  652   2.846   3.362   0.431 -0.4814  0.1871  0.6465
  150SOL    HW2  653   2.808   3.441   0.393  0.0946 -0.1124 -0.5761
  150SOL    HW3  654   2.938   3.365   0.406 -0.5017 -0.9723  0.4012
  150SOL    MW4  655   2.853   3.373   0.423 -0.4079 -0.0055  0.4528
  151SOL     OW  656   4.308   1.917   0.501 -0.0682  0.4519  0.0934
  151SOL    HW2  657   4.348   1.831   0.511  0.0070  0.6480  1.6356
  151SOL    HW3  658   4.379   1.973   0.470  0.2348  0.2529  0.4221
  151SOL    MW4  659   4.322   1.913   0.498 -0.0186  0.4516  0.3402
  152SOL     OW  660   3.163   3.936   0.753  0.0232  0.4324 -0.3942
  152SOL    HW2  661   3.076   3.906   0.780 -0.0990  0.7884 -0.3942
  152SOL    HW3  662   3.223   3.886   0.808 -0.1142 -0.9850 -1.5047
  152SOL    MW4  663   3.159   3.926   0.764 -0.0110  0.2921 -0.5409
  153SOL     OW  664   2.927   0.588   0.485 -0.0000 -0.2561 -0.5884
  153SOL    HW2  665   2.927   0.557   0.576 -0.2387  1.3618 -0.0260
  153SOL    HW3  666   2.983   0.525   0.439 -0.1551 -1.2937  0.6000
  153SOL    MW4  667   2.934   0.575   0.491 -0.0520 -0.1795 -0.3574
  154SOL     OW  668   2.570   3.534   0.503  0.4817 -0.1468 -0.8647
  154SOL    HW2  669   2.569   3.569   0.592 -0.4875 -2.0507 -0.1122
  154SOL    HW3  670   2.632   3.590   0.457 -1.4160  2.8936  0.1507
  154SOL    MW4  671   2.578   3.546   0.509  0.1037  0.0033 -0.6314
  155SOL     OW  672   0.339   1.119   0.526 -0.2985 -0.3183 -0.1033
  155SOL    HW2  673   0.374   1.057   0.589 -0.7405  0.1684  0.6252
  155SOL    HW3  674   0.312   1.065   0.452 -1.0640 -1.0438  0.6928
  155SOL    MW4  675   0.340   1.104   0.524 -0.4578 -0.3498  0.0978
  156SOL     OW  676   1.393   1.182   0.425  0.3394  0.3489 -0.5867
  156SOL    HW2  677   1.348   1.098   0.437  2.0226 -0.1230  3.2174
  156SOL    HW3  678   1.322   1.247   0.423 -0.7533 -0.7075  1.7325
  156SOL    MW4  679   1.377   1.180   0.426  0.4174  0.1472  0.2212
  157SOL     OW  680   2.895   2.331   0.863  0.1669 -0.1558  0.3254
  157SOL    HW2  681   2.806   2.360   0.844 -0.6342 -1.8481  1.3773
  157SOL    HW3  682   2.899   2.326   0.959  1.0748 -1.0741  0.2535
  157SOL    MW4  683   2.884   2.334   0.873  0.1814 -0.5002  0.4548
  158SOL     OW  684   1.488   2.151   0.341 -0.0642  0.2201 -0.3653
  158SOL    HW2  685   1.441   2.234   0.352 -0.7481  0.2579 -3.2067
  158SOL    HW3  686   1.420   2.087   0.321  0.8326 -0.2369 -2.0168
  158SOL    MW4  687   1.473   2.153   0.340 -0.0361  0.1647 -0.9581
  159SOL     OW  688   3.186   3.840   0.479  0.1058  0.0431 -0.8867
  159SOL    HW2  689   3.270   3.796   0.467 -0.2624 -0.8276 -0.3012
  159SOL    HW3  690   3.179   3.854   0.574 -0.3457  0.2454 -0.9474
  159SOL    MW4  691   3.196   3.836   0.490 -0.0026 -0.0453 -0.8174
  160SOL     OW  692   0.033   0.128   0.778 -0.3532 -0.2619  0.2020
  160SOL    HW2  693  -0.039   0.084   0.824 -0.1481 -0.4734  0.3174
  160SOL    HW3  694   0.006   0.220   0.775 -1.8231 -0.7193 -1.9751
  160SOL    MW4  695   0.020   0.134   0.784 -0.5199 -0.3501 -0.0700
  161SOL     OW  696   1.108   1.312   0.705 -0.0289  0.0172  0.1815
  161SOL    HW2  697   1.195   1.279   0.725  0.1633  0.4462  0.0576
  161SOL    HW3  698   1.106   1.321   0.610 -0.2377 -0.0714  0.1764
  161SOL    MW4  699   1.119   1.309   0.695 -0.0311  0.0620  0.1646
  162SOL     OW  700   3.627   3.317   0.399  0.1880 -0.0384  0.0986
  162SOL    HW2  701   3.685   3.389   0.423  1.7126 -1.3602  0.4367
  162SOL    HW3  702   3.672   3.273   0.327 -1.3932  0.1513 -1.0418
  162SOL    MW4  703   3.640   3.321   0.392  0.1805 -0.1876 -0.0072
  163SOL     OW  704   3.789   1.223   0.301  0.2845  0.0585  0.1181
  163SOL    HW2  705   3.823   1.165   0.233  1.7255  2.0385 -0.9003
  163SOL    HW3  706   3.695   1.226   0.286  0.3602 -0.9813 -0.6126
  163SOL    MW4  707   3.781   1.215   0.290  0.4847  0.1826 -0.1127
  164SOL     OW  708   0.372   0.558   0.164 -0.6262 -0.3881 -0.5363
  164SOL    HW2  709   0.405   0.646   0.150  0.7060 -1.1008 -2.1013
  164SOL    HW3  710   0.280   0.569   0.186 -0.5419  1.3698 -1.0459
  164SOL    MW4  711   0.364   0.571   0.165 -0.4393 -0.2502 -0.8100
  165SOL     OW  712   2.689   0.063   0.735 -0.7941  0.2867  0.0634
  165SOL    HW2  713   2.692   0.156   0.759  0.7631  0.3410 -0.2739
  165SOL    HW3  714   2.760   0.023   0.786 -0.8782 -0.5466 -0.4742
  165SOL    MW4  715   2.699   0.070   0.745 -0.5996  0.1839 -0.0520
  166SOL     OW  716   0.905   1.197   0.846 -0.1734  0.3322  0.4862
  166SOL    HW2  717   0.825   1.224   0.802  0.1599 -0.5872 -0.7043
  166SOL    HW3  718   0.975   1.247   0.804  0.1312 -0.4532  0.0492
  166SOL    MW4  719   0.904   1.207   0.835 -0.0892  0.1072  0.2715
  167SOL     OW  720   0.031   3.210   0.768 -0.2320 -0.0553 -0.1955
  167SOL    HW2  721   0.108   3.159   0.795 -1.4002 -0.9605  1.5661
  167SOL    HW3  722   0.034   3.288   0.824 -0.4336  0.0359 -0.3158
  167SOL    MW4  723   0.042   3.213   0.779 -0.4127 -0.1626  0.0210
  168SOL     OW  724   1.967   4.430   0.711  0.2917  0.2624 -0.5635
  168SOL    HW2  725   2.041   4.386   0.752  0.8794 -0.4470 -2.3451
  168SOL    HW3  726   1.891   4.379   0.739  0.9643 -1.9532 -2.5915
  168SOL    MW4  727   1.967   4.418   0.720  0.4579 -0.1235 -1.0661
  169SOL     OW  728   2.680   2.408   0.526  0.0952  0.2576  0.3376
  169SOL    HW2  729   2.601   2.364   0.492  0.1711  0.7131 -0.4455
  169SOL    HW3  730   2.747   2.340   0.525  0.4300  0.5919 -1.6843
  169SOL    MW4  731   2.678   2.393   0.521  0.1493  0.3619 -0.0325
  170SOL     OW  732   4.037   2.547   0.472  0.0473  0.1002  0.2005
  170SOL    HW2  733   4.036   2.523   0.565  0.2600  0.8829  0.4114
  170SOL    HW3  734   3.975   2.487   0.431 -0.3567  0.0197  0.9208
  170SOL    MW4  735   4.028   2.536   0.479  0.0215  0.1929  0.3233
  171SOL     OW  736   2.634   1.884   0.410 -0.0491 -0.4452  0.0177
  171SOL    HW2  737   2.616   1.790   0.401 -2.0326 -0.1609  0.8542
  171SOL    HW3  738   2.551   1.922   0.439  0.7437  1.5771 -0.2939
  171SOL    MW4  739   2.621   1.876   0.413 -0.2065 -0.1408  0.0869
  172SOL     OW  740   1.355   1.695   0.745 -0.4355  0.4240  0.4624
  172SOL    HW2  741   1.351   1.699   0.649  0.6029 -1.1625  0.3343
  172SOL    HW3  742   1.277   1.646   0.770  0.6927 -1.5703  0.2133
  172SOL    MW4  743   1.344   1.689   0.735 -0.1498 -0.0485  0.4126
  173SOL     OW  744   1.216   2.778   0.533  0.1635  0.1892 -0.0777
  173SOL    HW2  745   1.311   2.781   0.520  0.0162 -2.6959 -2.4478
  173SOL    HW3  746   1.185   2.864   0.507  2.0479  0.9451  0.0784
  173SOL    MW4  747   1.224   2.790   0.528  0.3927 -0.0918 -0.3698
  174SOL     OW  748   2.780   0.078   0.467  0.3876  0.5987 -0.3008
  174SOL    HW2  749   2.742   0.080   0.555 -0.3800  2.2909 -0.6345
  174SOL    HW3  750   2.709   0.107   0.410  0.7088 -1.0402 -1.5577
  174SOL    MW4  751   2.765   0.082   0.471  0.3290  0.6058 -0.5107
  175SOL     OW  752   0.215   3.369   0.476 -0.1371 -0.0581 -0.4495
  175SOL    HW2  753   0.125   3.341   0.493 -0.2799 -0.3420 -1.6906
  175SOL    HW3  754   0.210   3.464   0.468 -0.1098  0.0637  0.7845
  175SOL    MW4  755   0.203   3.378   0.477 -0.1524 -0.0792 -0.4504
  176SOL     OW  756   3.059   0.153   0.479 -0.1011  0.0239 -0.1037
  176SOL    HW2  757   3.093   0.146   0.568  1.8852 -0.8222 -0.8999
  176SOL    HW3  758   2.965   0.135   0.487  0.1594 -0.6004  1.7212
  176SOL    MW4  759   3.051   0.150   0.492  0.1953 -0.1701  0.0320
  177SOL     OW  760   2.044   2.367   0.873  0.1907  0.5261  0.1918
  177SOL    HW2  761   1.956   2.396   0.850  0.2206 -0.0523 -0.6906
  177SOL    HW3  762   2.040   2.350   0.967 -0.7549  0.1103  0.0867
  177SOL    MW4  763   2.032   2.368   0.882  0.0696  0.3951  0.0615
  178SOL     OW  764   2.402   4.430   0.476  0.0783 -0.4523  0.2740
  178SOL    HW2  765   2.433   4.408   0.564 -0.4775  1.7559  1.0427
  178SOL    HW3  766   2.478   4.417   0.420  0.4884 -1.6938  1.1037
  178SOL    MW4  767   2.416   4.425   0.480  0.0589 -0.3252  0.4849
  179SOL     OW  768   1.215   3.878   0.829  0.2923 -0.5086  0.1453
  179SOL    HW2  769   1.223   3.916   0.916 -1.1402  0.4776 -0.1227
  179SOL    HW3  770   1.259   3.941   0.772 -0.0875 -0.3887 -0.0188
  179SOL    MW4  771   1.222   3.892   0.833  0.0532 -0.3626  0.0884
  180SOL     OW  772   3.384   1.823   0.476 -0.3951 -0.2764 -0.0575
  180SOL    HW2  773   3.448   1.752   0.481 -0.0832 -0.0532 -0.8135
  180SOL    HW3  774   3.300   1.782   0.499 -0.2764 -0.9725 -0.8457
  180SOL    MW4  775   3.381   1.808   0.479 -0.3383 -0.3388 -0.2613
  181SOL     OW  776   1.157   2.070   0.804  0.3300 -0.2145  0.3273
  181SOL    HW2  777   1.136   2.055   0.712 -0.6231  0.3277  0.4504
  181SOL    HW3  778   1.240   2.025   0.817  0.2343 -0.6979 -0.6786
  181SOL    MW4  779   1.165   2.062   0.794  0.1915 -0.2067  0.2108
  182SOL     OW  780   4.281   2.326   0.815  0.1167 -0.2301  0.0822
  182SOL    HW2  781   4.352   2.355   0.758 -0.3002  0.1527 -0.2426
  182SOL    HW3  782   4.255   2.241   0.779 -0.1264 -0.0034 -0.2889
  182SOL    MW4  783   4.287   2.319   0.803  0.0296 -0.1495 -0.0097
  183SOL     OW  784   2.306   1.373   0.485  0.2241 -0.3391  0.1677
  183SOL    HW2  785   2.378   1.328   0.442  0.4364 -0.2592  0.4303
  183SOL    HW3  786   2.229   1.319   0.467  0.1720  0.0975 -0.9435
  183SOL    MW4  787   2.306   1.360   0.477  0.2453 -0.2712  0.0557
  184SOL     OW  788   1.580   1.537   0.826  0.5617  0.4820  0.3065
  184SOL    HW2  789   1.565   1.534   0.921 -1.3098 -1.5754 -0.0258
  184SOL    HW3  790   1.506   1.587   0.791  1.3207  1.3569 -0.0705
  184SOL    MW4  791   1.568   1.543   0.834  0.4148  0.3259  0.2129
  185SOL     OW  792   2.236   2.927   0.487 -0.7689  0.1902 -0.6180
  185SOL    HW2  793   2.302   2.862   0.464 -0.3482  0.0067  1.0504
  185SOL    HW3  794   2.188   2.888   0.561 -2.5616  0.4444 -1.6205
  185SOL    MW4  795   2.238   2.913   0.494 -0.9499  0.1993 -0.5301
  186SOL     OW  796   4.134   0.448   0.488  0.0616  0.1442 -0.4768
  186SOL    HW2  797   4.139   0.355   0.510  0.4386  0.2290 -0.1879
  186SOL    HW3  798   4.170   0.493   0.565 -1.3270  0.5953 -0.0836
  186SOL    MW4  799   4.139   0.442   0.501 -0.0720  0.2149 -0.3868
  187SOL     OW  800   3.139   2.281   0.410  0.6287 -0.2390  0.1203
  187SOL    HW2  801   3.144   2.376   0.402  1.6540 -0.2765  0.2774
  187SOL    HW3  802   3.229   2.253   0.427  0.3763 -1.2580 -0.1617
  187SOL    MW4  803   3.152   2.290   0.411  0.7310 -0.3784  0.1038
  188SOL     OW  804   3.692   2.876   0.323  0.4229  0.6002  0.3251
  188SOL    HW2  805   3.775   2.839   0.355  1.2359  0.5002 -1.8422
  188SOL    HW3  806   3.634   2.800   0.313  0.7208  0.4207 -0.0536
  188SOL    MW4  807   3.695   2.861   0.326  0.5698  0.5634 -0.0108
  189SOL     OW  808   1.047   4.429   0.749  0.0721  0.0163 -0.1405
  189SOL    HW2  809   1.023   4.402   0.660 -1.2551 -0.3039  0.3036
  189SOL    HW3  810   1.122   4.374   0.771  0.7914  0.5205 -1.2821
  189SOL    MW4  811   1.053   4.418   0.740 -0.0080  0.0405 -0.2326
  190SOL     OW  812   2.703   0.935   0.790 -0.4862 -0.0402  0.1145
  190SOL    HW2  813   2.729   1.026   0.806 -0.8255  0.1515 -0.4081
  190SOL    HW3  814   2.713   0.924   0.696 -0.7047 -0.4680  0.1421
  190SOL    MW4  815   2.708   0.946   0.780 -0.5596 -0.0713  0.0492
  191SOL     OW  816   1.101   2.062   0.552  0.2752 -0.4537  0.1332
  191SOL    HW2  817   1.030   2.000   0.535  1.4697 -1.9937  0.6306
  191SOL    HW3  818   1.062   2.148   0.534 -1.3632 -1.3386 -0.7197
  191SOL    MW4  819   1.086   2.065   0.547  0.2166 -0.7737  0.0863
  192SOL     OW  820   0.033   2.424   0.681  0.4737 -0.2344 -0.1993
  192SOL    HW2  821   0.104   2.385   0.732  0.7063  1.8683  1.1423
  192SOL    HW3  822   0.078   2.478   0.616  0.1211 -1.0586 -1.1500
  192SOL    MW4  823   0.049   2.426   0.679  0.4579 -0.0656 -0.1477
  193SOL     OW  824   0.493   2.485   0.499  0.0995 -0.5725  0.5590
  193SOL    HW2  825   0.565   2.435   0.461  0.0858  0.3360 -0.6963
  193SOL    HW3  826   0.521   2.576   0.490 -1.7848 -0.1248 -1.1908
  193SOL    MW4  827   0.506   2.490   0.493 -0.1509 -0.3936  0.1625
  194SOL     OW  828   0.492   4.547   0.596  0.2985  0.2370 -0.1571
  194SOL    HW2  829   0.549   4.481   0.557 -0.6109  0.0493 -1.2091
  194SOL    HW3  830   0.512   4.628   0.550  0.5440  0.4265  0.2809
  194SOL    MW4  831   0.502   4.549   0.585  0.2109  0.2370 -0.2382
  195SOL     OW  832   2.279   2.740   0.845  0.1478  0.1101 -0.3148
  195SOL    HW2  833   2.278   2.748   0.940 -0.5179  1.1117 -0.3984
  195SOL    HW3  834   2.299   2.647   0.829 -1.0500 -0.3585  0.8094
  195SOL    MW4  835   2.282   2.728   0.855 -0.0982  0.1805 -0.1774
  196SOL     OW  836   1.065   0.791   0.358  0.1239 -0.3693  0.1856
  196SOL    HW2  837   1.076   0.712   0.411 -0.6704 -0.4455  0.2392
  196SOL    HW3  838   1.040   0.759   0.271  0.2772 -0.1996  0.0795
  196SOL    MW4  839   1.063   0.776   0.354  0.0395 -0.3570  0.1787
  197SOL     OW  840   2.696   0.348   0.817  0.1094  0.1370 -0.1067
  197SOL    HW2  841   2.757   0.408   0.773 -0.0990  0.0212 -0.5596
  197SOL    HW3  842   2.705   0.368   0.910  0.2215  0.6996 -0.2363
  197SOL    MW4  843   2.706   0.359   0.823  0.0966  0.1959 -0.1835
  198SOL     OW  844   2.275   4.018   0.787  0.4787 -0.3225  0.0888
  198SOL    HW2  845   2.196   3.965   0.793  0.6776 -0.5657  0.5880
  198SOL    HW3  846   2.293   4.024   0.693 -0.1242 -0.2744 -0.0237
  198SOL    MW4  847   2.267   4.012   0.775  0.4256 -0.3481  0.1398
  199SOL     OW  848   0.900   0.154   0.736 -0.3176  0.0467 -0.3059
  199SOL    HW2  849   0.838   0.109   0.793  1.1399 -1.4685  0.1171
  199SOL    HW3  850   0.899   0.244   0.766 -1.0538 -0.3178  0.8105
  199SOL    MW4  851   0.892   0.160   0.747 -0.2224 -0.2013 -0.1028
  200SOL     OW  852   3.044   2.052   0.254  0.2323 -0.5229  0.3384
  200SOL    HW2  853   3.127   2.007   0.236  0.0951 -0.9048  0.6413
  200SOL    HW3  854   3.070   2.134   0.296  0.4996 -0.1619 -0.5187
  200SOL    MW4  855   3.059   2.057   0.257  0.2494 -0.5260  0.2653
  201SOL     OW  856   0.195   1.353   0.834  0.3295  0.0469  0.5886
  201SOL    HW2  857   0.190   1.374   0.741  0.7825 -0.6903  0.3946
  201SOL    HW3  858   0.272   1.297   0.842  0.1223 -0.1348  1.3596
  201SOL    MW4  859   0.204   1.348   0.823  0.3620 -0.0744  0.6648
  202SOL     OW  860   3.676   0.090   0.474  0.1870  0.2718 -0.3715
  202SOL    HW2  861   3.760   0.107   0.432  0.9256 -0.2794  0.8496
  202SOL    HW3  862   3.666  -0.005   0.469  0.2369  0.2089  0.5932
  202SOL    MW4  863   3.685   0.080   0.468  0.2906  0.1908 -0.0831
  203SOL     OW  864   4.024   0.897   0.740 -0.0347 -0.1192  0.4599
  203SOL    HW2  865   3.939   0.867   0.771  1.0564 -1.0369  2.7274
  203SOL    HW3  866   4.034   0.985   0.776 -0.6384  0.5869 -1.0607
  203SOL    MW4  867   4.014   0.905   0.749  0.0291 -0.1471  0.5585
  204SOL     OW  868   4.461   3.244   0.497  0.3495  0.0063  0.0675
  204SOL    HW2  869   4.463   3.220   0.589  0.2701  0.5718  0.2191
  204SOL    HW3  870   4.394   3.312   0.491  0.6462  0.2715 -0.3282
  204SOL    MW4  871   4.453   3.250   0.508  0.3781  0.1159  0.0352
  205SOL     OW  872   4.460   1.684   0.511  0.0427 -0.1217  0.4767
  205SOL    HW2  873   4.551   1.713   0.506  0.0290 -0.3781 -1.9020
  205SOL    HW3  874   4.458   1.603   0.461 -1.6258  0.2355 -0.0736
  205SOL    MW4  875   4.471   1.677   0.503 -0.1793 -0.1082  0.0903
  206SOL     OW  876   2.752   2.097   0.257 -0.2887  0.1654  0.1586
  206SOL    HW2  877   2.829   2.068   0.208  0.5053  0.2072  1.3520
  206SOL    HW3  878   2.709   2.016   0.284 -1.5226  0.1440 -1.8064
  206SOL    MW4  879   2.756   2.082   0.254 -0.3469  0.1681  0.0568
  207SOL     OW  880   4.367   4.368   0.530 -0.2341  0.1441  0.1638
  207SOL    HW2  881   4.418   4.291   0.510  0.2156  0.3987  0.3338
  207SOL    HW3  882   4.341   4.357   0.621 -1.2618 -0.4278 -0.1852
  207SOL    MW4  883   4.370   4.357   0.539 -0.3104  0.1020  0.1401
  208SOL     OW  884   3.986   3.845   0.502 -0.0295  0.2086  0.0676
  208SOL    HW2  885   3.902   3.842   0.547 -0.5128  2.4516 -0.5871
  208SOL    HW3  886   3.963   3.856   0.410  0.9639  1.4446 -0.0520
  208SOL    MW4  887   3.972   3.846   0.496  0.0379  0.6676 -0.0346
  209SOL     OW  888   3.385   1.282   0.732  0.0548  0.5956  0.0063
  209SOL    HW2  889   3.373   1.314   0.643  0.4078  0.4758 -0.0877
  209SOL    HW3  890   3.383   1.361   0.786 -0.7738  0.6053 -0.0413
  209SOL    MW4  891   3.383   1.297   0.728 -0.0079  0.5809 -0.0125
  210SOL     OW  892   2.755   0.995   0.518 -0.0368  0.2501 -0.4411
  210SOL    HW2  893   2.716   0.925   0.466  0.3852  1.2928 -2.2264
  210SOL    HW3  894   2.842   1.007   0.480  0.5105  0.6246  0.9127
  210SOL    MW4  895   2.761   0.988   0.506  0.0911  0.4371 -0.4981
  211SOL     OW  896   4.273   1.115   0.185  0.0527 -0.1189 -0.4829
  211SOL    HW2  897   4.363   1.121   0.217  0.2237 -1.9651 -0.5584
  211SOL    HW3  898   4.278   1.138   0.093  0.4103  0.0274 -0.4256
  211SOL    MW4  899   4.285   1.118   0.177  0.1225 -0.3431 -0.4853
  212SOL     OW  900   2.931   0.521   0.742 -0.6927  0.2582  0.1996
  212SOL    HW2  901   2.936   0.607   0.783  2.1642  0.8559 -1.2345
  212SOL    HW3  902   3.019   0.485   0.753 -0.9854 -1.1688 -1.9505
  212SOL    MW4  903   2.943   0.528   0.749 -0.3545  0.1488 -0.2732
  213SOL     OW  904   0.940   3.767   0.513  0.1384 -0.1805 -0.1292
  213SOL    HW2  905   0.983   3.694   0.556 -0.2870 -0.7551 -0.6791
  213SOL    HW3  906   0.849   3.739   0.503 -0.1148  0.5733  0.0002
  213SOL    MW4  907   0.933   3.754   0.518  0.0488 -0.1566 -0.1847
  214SOL     OW  908   3.093   0.407   0.362  0.1867 -0.3903  0.1426
  214SOL    HW2  909   3.081   0.384   0.270  0.8806  0.0702 -0.0697
  214SOL    HW3  910   3.072   0.327   0.410 -0.2206 -0.6183 -0.4139
  214SOL    MW4  911   3.089   0.393   0.356  0.2246 -0.3597  0.0412
  215SOL     OW  912   0.200   2.518   0.442  0.3552 -0.4438 -0.1258
  215SOL    HW2  913   0.292   2.493   0.451  0.3810  0.2980  2.1692
  215SOL    HW3  914   0.201   2.614   0.449 -0.5504 -0.4107 -0.4287
  215SOL    MW4  915   0.212   2.527   0.444  0.2391 -0.3414  0.1371
  216SOL     OW  916   4.024   1.922   0.845 -0.1342  0.5125 -0.1352
  216SOL    HW2  917   4.030   1.829   0.824  0.5075  0.2974  0.9650
  216SOL    HW3  918   3.951   1.953   0.792 -0.4566 -0.6516 -0.4030
  216SOL    MW4  919   4.015   1.914   0.836 -0.0925  0.3304 -0.0254
  217SOL     OW  920   2.193   4.295   0.820 -0.2175  0.1946  0.2789
  217SOL    HW2  921   2.218   4.205   0.800 -0.3943  0.1649  0.1941
  217SOL    HW3  922   2.270   4.347   0.796 -0.0962  0.0608  0.3772
  217SOL    MW4  923   2.207   4.290   0.814 -0.2248  0.1726  0.2806
  218SOL     OW  924   1.682   2.051   0.523  0.2695  0.3303  0.1597
  218SOL    HW2  925   1.609   2.090   0.474  0.9823  2.2805  0.5989
  218SOL    HW3  926   1.655   2.057   0.614 -1.0063 -3.1976  0.0887
  218SOL    MW4  927   1.669   2.057   0.528  0.1951  0.1223  0.2083
  219SOL     OW  928   3.542   4.259   0.899  0.2013  0.0907 -0.3270
  219SOL    HW2  929   3.463   4.279   0.850 -0.5117  0.4532  0.9319
  219SOL    HW3  930   3.609   4.315   0.861 -0.4061  0.5696 -0.7011
  219SOL    MW4  931   3.540   4.269   0.888  0.0272  0.2017 -0.2103
  220SOL     OW  932   1.439   4.417   0.456  0.1264  0.0609  0.0542
  220SOL    HW2  933   1.525   4.391   0.425 -0.0498 -0.4517 -0.0087
  220SOL    HW3  934   1.383   4.341   0.438 -0.4629  0.6100 -0.4486
  220SOL    MW4  935   1.443   4.403   0.450  0.0254  0.0658 -0.0204
  221SOL     OW  936   3.951   1.013   0.182  0.2439 -0.0493  0.3619
  221SOL    HW2  937   3.944   0.943   0.247  1.2024  0.7884  1.3885
  221SOL    HW3  938   4.024   0.987   0.126  1.2743  0.6299  1.3788
  221SOL    MW4  939   3.960   1.000   0.183  0.5062  0.1508  0.6315
  222SOL     OW  940   2.464   0.635   0.635  0.1603  0.1146  0.0615
  222SOL    HW2  941   2.464   0.540   0.647  1.0665 -0.0936 -1.4115
  222SOL    HW3  942   2.537   0.652   0.576 -0.2698  1.6905 -0.0548
  222SOL    MW4  943   2.474   0.625   0.629  0.2232  0.2949 -0.1482
  223SOL     OW  944   3.150   1.161   0.798  0.0203 -0.0414  0.2236
  223SOL    HW2  945   3.140   1.176   0.892 -1.5387  0.6613 -0.0336
  223SOL    HW3  946   3.241   1.185   0.780  0.3967 -0.3693  1.5749
  223SOL    MW4  947   3.161   1.166   0.808 -0.1357  0.0080  0.3680
  224SOL     OW  948   3.335   0.535   0.410 -0.3287 -0.6149 -0.1396
  224SOL    HW2  949   3.348   0.538   0.504 -0.5991 -2.4855 -0.0254
  224SOL    HW3  950   3.241   0.518   0.399 -0.1389 -1.3140 -0.7246
  224SOL    MW4  951   3.324   0.533   0.421 -0.3390 -0.9539 -0.2017
  225SOL     OW  952   1.400   0.929   0.711  0.3601 -0.0723 -0.6071
  225SOL    HW2  953   1.323   0.886   0.748  0.8862  0.1469  0.7621
  225SOL    HW3  954   1.375   0.949   0.621 -0.8784 -0.7647 -0.4272
  225SOL    MW4  955   1.386   0.926   0.704  0.2661 -0.1347 -0.4027
  226SOL     OW  956   0.453   2.733   0.885 -0.4503  0.4423 -0.3310
  226SOL    HW2  957   0.450   2.638   0.890 -0.4591  0.4104 -0.9177
  226SOL    HW3  958   0.385   2.756   0.821  0.0208  0.8038 -0.7014
  226SOL    MW4  959   0.443   2.724   0.877 -0.3893  0.4859 -0.4572
  227SOL     OW  960   1.770   0.108   0.739 -0.0866 -0.6739  0.0841
  227SOL    HW2  961   1.851   0.071   0.773  0.1266 -0.6769 -0.4324
  227SOL    HW3  962   1.701   0.059   0.785  0.2010  0.1817  1.4435
  227SOL    MW4  963   1.772   0.096   0.750 -0.0206 -0.5614  0.1953
  228SOL     OW  964   0.568   2.731   0.467 -0.6674 -0.4199  0.0489
  228SOL    HW2  965   0.616   2.753   0.547  0.9672 -0.3278 -0.9334
  228SOL    HW3  966   0.533   2.815   0.437 -0.1253 -0.2389 -0.0765
  228SOL    MW4  967   0.569   2.745   0.474 -0.3801 -0.3839 -0.0972
  229SOL     OW  968   0.925   2.438   0.748  0.2488 -0.1092 -0.3659
  229SOL    HW2  969   0.851   2.394   0.789  0.3591  0.6792  0.6866
  229SOL    HW3  970   1.002   2.401   0.790  0.3208  1.5420  1.0005
  229SOL    MW4  971   0.925   2.427   0.759  0.2729  0.2127 -0.0468
  230SOL     OW  972   0.727   3.388   0.502 -0.5990  0.1092 -0.0498
  230SOL    HW2  973   0.810   3.340   0.499 -0.3486  0.3501  2.3238
  230SOL    HW3  974   0.660   3.320   0.499 -0.3263 -0.1386 -0.8946
  230SOL    MW4  975   0.729   3.373   0.501 -0.5300  0.1082  0.1519
  231SOL     OW  976   3.364   3.405   0.341  0.0908 -0.0941 -0.4203
  231SOL    HW2  977   3.457   3.384   0.347  0.1019 -0.1786 -0.8225
  231SOL    HW3  978   3.342   3.389   0.249 -0.1158  0.7609 -0.5284
  231SOL    MW4  979   3.374   3.400   0.329  0.0651  0.0079 -0.4876
  232SOL     OW  980   2.059   0.414   0.450 -0.0269  0.1122  0.0477
  232SOL    HW2  981   2.098   0.492   0.409 -1.4418  1.4352  1.1357
  232SOL    HW3  982   2.124   0.346   0.438  0.7227  1.1332 -2.0569
  232SOL    MW4  983   2.072   0.416   0.443 -0.1147  0.4214 -0.0864
  233SOL     OW  984   3.830   2.392   0.377 -0.1422  0.3908  0.5505
  233SOL    HW2  985   3.745   2.400   0.419 -0.8154  0.3579 -0.8103
  233SOL    HW3  986   3.845   2.298   0.371 -0.8157  0.3678 -0.8318
  233SOL    MW4  987   3.821   2.381   0.382 -0.3200  0.3836  0.1886
  234SOL     OW  988   1.341   1.206   0.775  0.2453 -0.7083  0.0366
  234SOL    HW2  989   1.352   1.119   0.738  0.1294 -1.0071  0.7126
  234SOL    HW3  990   1.425   1.250   0.759  0.2494 -0.8885 -0.4425
  234SOL    MW4  991   1.353   1.200   0.768  0.2306 -0.7716  0.0626
  235SOL     OW  992   0.172   1.881   0.530  0.1759  0.2447 -0.1584
  235SOL    HW2  993   0.202   1.936   0.601 -1.0743  0.4271  0.2435
  235SOL    HW3  994   0.156   1.942   0.457 -0.0589  0.2604 -0.0938
  235SOL    MW4  995   0.174   1.896   0.529 -0.0201  0.2708 -0.0968
  236SOL     OW  996   3.512   2.650   0.340 -0.0422  0.6328 -0.3710
  236SOL    HW2  997   3.537   2.577   0.397 -2.0241 -0.3142 -0.6572
  236SOL    HW3  998   3.534   2.620   0.252  0.1023  0.7949 -0.3891
  236SOL    MW4  999   3.518   2.636   0.336 -0.2847  0.5293 -0.4111
  237SOL     OW 1000   1.704   2.560   0.123  0.2516  0.3921  0.3224
  237SOL    HW2 1001   1.664   2.548   0.037  0.0190  0.8946  0.3633
  237SOL    HW3 1002   1.718   2.470   0.155  1.2070  0.1850 -0.6338
  237SOL    MW4 1003   1.700   2.546   0.116  0.3471  0.4311  0.2016
  238SOL     OW 1004   4.477   3.891   0.511 -0.4607  0.0224  0.0741
  238SOL    HW2 1005   4.538   3.820   0.492 -1.1936 -0.8681  0.9838
  238SOL    HW3 1006   4.505   3.924   0.597 -1.9344 -1.1448  1.0248
  238SOL    MW4 1007   4.489   3.886   0.520 -0.7518 -0.2489  0.3195
  239SOL     OW 1008   0.104   0.075   0.514  0.1716 -0.0589  0.5927
  239SOL    HW2 1009   0.146  -0.009   0.535 -1.2221 -1.0104 -0.2591
  239SOL    HW3 1010   0.054   0.098   0.592  0.1642 -0.2918  0.6564
  239SOL    MW4 1011   0.103   0.067   0.527 -0.0133 -0.2153  0.4887
  240SOL     OW 1012   4.031   1.883   0.417  0.6740 -0.1713 -0.5953
  240SOL    HW2 1013   4.013   1.794   0.448  0.5663  0.1443  0.2599
  240SOL    HW3 1014   4.122   1.898   0.442  0.2468  0.5032  0.6045
  240SOL    MW4 1015   4.041   1.873   0.424  0.6037 -0.0407 -0.3242
  241SOL     OW 1016   2.020   2.621   0.479 -0.3674 -0.1299  0.2925
  241SOL    HW2 1017   1.978   2.659   0.402 -0.8574  0.1515  0.6939
  241SOL    HW3 1018   1.960   2.554   0.509  0.3569 -1.0305 -0.2301
  241SOL    MW4 1019   2.007   2.617   0.473 -0.3366 -0.2117  0.2765
  242SOL     OW 1020   0.001   2.320   0.427  0.2941 -0.4159 -0.0842
  242SOL    HW2 1021   0.066   2.382   0.392 -0.3628 -0.0064 -0.5805
  242SOL    HW3 1022   0.003   2.334   0.522  0.2045  0.2989 -0.1901
  242SOL    MW4 1023   0.010   2.330   0.435  0.1955 -0.2677 -0.1636
  243SOL     OW 1024   0.503   0.156   0.805  0.3419 -0.3263 -0.0159
  243SOL    HW2 1025   0.499   0.155   0.709 -1.1714  0.8308  0.0215
  243SOL    HW3 1026   0.428   0.104   0.832 -0.1733  0.7210  0.5582
  243SOL    MW4 1027   0.493   0.149   0.796  0.0743 -0.0354  0.0646
  244SOL     OW 1028   0.274   4.652   0.879  0.5020 -0.1899  0.0160
  244SOL    HW2 1029   0.199   4.703   0.848  0.2484 -0.7654 -0.3100
  244SOL    HW3 1030   0.256   4.563   0.851  0.8802 -0.4882  0.7189
  244SOL    MW4 1031   0.262   4.647   0.871  0.5184 -0.3052  0.0656
  245SOL     OW 1032   4.463   0.392   0.829  0.6108  0.1227  0.3591
  245SOL    HW2 1033   4.537   0.439   0.791  1.0598 -0.4152  0.5822
  245SOL    HW3 1034   4.480   0.393   0.923  1.1479 -1.4077  0.2819
  245SOL    MW4 1035   4.475   0.399   0.837  0.7405 -0.1502  0.3783
  246SOL     OW 1036   4.452   0.906   0.751 -0.3217  0.2241  0.2229
  246SOL    HW2 1037   4.497   0.984   0.782  0.8532 -0.2110 -0.3494
  246SOL    HW3 1038   4.517   0.836   0.759 -0.7451 -0.3337 -1.0052
  246SOL    MW4 1039   4.467   0.907   0.756 -0.2222  0.0931 -0.0146
  247SOL     OW 1040   0.217   0.487   0.726  0.0545 -0.0260  0.3870
  247SOL    HW2 1041   0.288   0.450   0.777 -2.0264 -2.1877  1.8301
  247SOL    HW3 1042   0.208   0.429   0.651  0.3498  0.7322 -0.2440
  247SOL    MW4 1043   0.225   0.475   0.723 -0.1811 -0.2112  0.4942
  248SOL     OW 1044   4.054   1.155   0.833  0.6283  0.0007 -0.0308
  248SOL    HW2 1045   3.980   1.204   0.798 -0.9389 -1.3073  1.3363
  248SOL    HW3 1046   4.045   1.162   0.928  2.3001 -0.1184  0.1504
  248SOL    MW4 1047   4.043   1.162   0.841  0.6423 -0.1875  0.1735
  249SOL     OW 1048   1.506   2.779   0.508  0.3703 -0.0679 -0.1279
  249SOL    HW2 1049   1.535   2.691   0.484  1.1352  0.2106 -0.2335
  249SOL    HW3 1050   1.565   2.806   0.578 -1.1448 -0.4324  1.3175
  249SOL    MW4 1051   1.518   2.771   0.514  0.2713 -0.0792  0.0489
  250SOL     OW 1052   4.288   1.255   0.755 -0.4062  0.1143 -0.2805
  250SOL    HW2 1053   4.206   1.219   0.788  0.1296 -1.6487 -0.8518
  250SOL    HW3 1054   4.356   1.199   0.793  0.4541  0.7252 -0.9005
  250SOL    MW4 1055   4.286   1.243   0.765 -0.2217 -0.0378 -0.4378
  251SOL     OW 1056   4.207   1.415   0.544 -0.0914 -0.2122 -0.0519
  251SOL    HW2 1057   4.154   1.366   0.481  0.3723  0.3080 -0.8552
  251SOL    HW3 1058   4.227   1.352   0.613 -1.4136 -0.5275  0.0538
  251SOL    MW4 1059   4.203   1.400   0.545 -0.2050 -0.1853 -0.1439
  252SOL     OW 1060   0.462   1.890   0.868 -0.4451  0.0923  0.1324
  252SOL    HW2 1061   0.448   1.879   0.962 -0.9946  3.0145  0.4570
  252SOL    HW3 1062   0.382   1.933   0.837  0.5905  1.0636 -1.2729
  252SOL    MW4 1063   0.450   1.894   0.876 -0.3810  0.6059 -0.0101
  253SOL     OW 1064   0.025   0.784   0.341 -0.4137 -0.0215 -0.2989
  253SOL    HW2 1065  -0.042   0.715   0.344 -0.7103  0.3216  1.3198
  253SOL    HW3 1066  -0.007   0.852   0.399  0.2600  1.1636 -1.2870
  253SOL    MW4 1067   0.012   0.784   0.349 -0.3640  0.1802 -0.2157
  254SOL     OW 1068   1.690   0.584   0.463 -0.2790  0.1641 -0.4255
  254SOL    HW2 1069   1.629   0.566   0.534  0.4197 -0.0561  0.1287
  254SOL    HW3 1070   1.728   0.499   0.441  0.2677  0.3852 -0.3529
  254SOL    MW4 1071   1.687   0.571   0.469 -0.1147  0.1642 -0.3428
  255SOL     OW 1072   0.233   2.277   0.796  0.0285  0.1597 -0.0188
  255SOL    HW2 1073   0.236   2.252   0.889 -0.8097 -1.9900 -0.5365
  255SOL    HW3 1074   0.312   2.330   0.783  0.0284  0.6874  1.9798
  255SOL    MW4 1075   0.244   2.281   0.807 -0.0821 -0.0546  0.1766
  256SOL     OW 1076   4.241   2.058   0.728 -0.1967 -0.1043  0.0997
  256SOL    HW2 1077   4.274   2.018   0.648  0.8122 -0.8164  0.8591
  256SOL    HW3 1078   4.166   2.003   0.753 -1.7541  1.2792 -1.4084
  256SOL    MW4 1079   4.235   2.045   0.721 -0.2685 -0.0160  0.0010
  257SOL     OW 1080   0.048   2.694   0.813  0.2398  0.3933 -0.1268
  257SOL    HW2 1081   0.044   2.680   0.907 -1.0000  0.6088 -0.1445
  257SOL    HW3 1082   0.037   2.607   0.775  0.3362  0.3642 -0.0894
  257SOL    MW4 1083   0.046   2.681   0.820  0.0889  0.4179 -0.1242
  258SOL     OW 1084   4.324   2.554   0.457 -0.1827 -0.0828 -0.1073
  258SOL    HW2 1085   4.367   2.476   0.423  0.1385 -0.3796  0.9624
  258SOL    HW3 1086   4.231   2.530   0.459 -0.0440 -0.5720  0.5738
  258SOL    MW4 1087   4.317   2.541   0.453 -0.1221 -0.1867  0.1237
  259SOL     OW 1088   0.250   3.073   0.877 -0.0247  0.1879  0.2748
  259SOL    HW2 1089   0.247   3.087   0.971  1.6222 -0.8974  0.5066
  259SOL    HW3 1090   0.333   3.111   0.849 -1.1393  1.7859 -0.9859
  259SOL    MW4 1091   0.260   3.080   0.886  0.0455  0.2556  0.1390
  260SOL     OW 1092   3.585   1.978   0.862 -0.0734 -0.2141 -0.2673
  260SOL    HW2 1093   3.560   1.890   0.835 -1.1865  0.0224 -0.0223
  260SOL    HW3 1094   3.649   2.006   0.796 -0.6263 -0.7414 -1.0364
  260SOL    MW4 1095   3.590   1.970   0.849 -0.2933 -0.2524 -0.3364
  261SOL     OW 1096   0.000   3.452   0.892  0.4318  0.4064 -0.0965
  261SOL    HW2 1097  -0.079   3.500   0.869  0.1082 -0.2114 -0.3059
  261SOL    HW3 1098   0.071   3.500   0.848  0.0486  0.3708 -0.7723
  261SOL    MW4 1099  -0.001   3.464   0.883  0.3385  0.3207 -0.2134
  262SOL     OW 1100   3.615   1.154   0.823  0.1510 -0.4336  0.2622
  262SOL    HW2 1101   3.536   1.197   0.788  0.3388 -2.4459 -2.8509
  262SOL    HW3 1102   3.601   1.151   0.917 -2.9844  0.2963 -0.1168
  262SOL    MW4 1103   3.602   1.160   0.831 -0.2379 -0.6027 -0.1985
  263SOL     OW 1104   3.563   3.439   0.871 -0.1388  0.0926 -0.1206
  263SOL    HW2 1105   3.503   3.496   0.823  0.7602  0.6221 -0.6454
  263SOL    HW3 1106   3.576   3.363   0.814  0.6996  0.5854 -0.6029
  263SOL    MW4 1107   3.557   3.437   0.857  0.0904  0.2275 -0.2534
  264SOL     OW 1108   0.258   3.857   0.920  0.2446 -0.4125  0.5126
  264SOL    HW2 1109   0.271   3.851   1.015 -0.1644 -0.8437  0.5421
  264SOL    HW3 1110   0.342   3.889   0.887  0.3614 -0.1812  1.0283
  264SOL    MW4 1111   0.271   3.860   0.928  0.2060 -0.4387  0.5845
  265SOL     OW 1112   4.488   4.230   0.878  0.3004  0.2188 -0.5621
  265SOL    HW2 1113   4.509   4.141   0.851 -2.6629  0.0583 -2.5165
  265SOL    HW3 1114   4.474   4.225   0.972  1.1325 -1.1704 -0.5090
  265SOL    MW4 1115   4.489   4.218   0.887  0.0191  0.0143 -0.8129
  266SOL     OW 1116   1.709   2.292   0.212 -0.4696  0.0594 -0.0644
  266SOL    HW2 1117   1.780   2.256   0.264 -0.3981  2.3104  1.4873
  266SOL    HW3 1118   1.641   2.226   0.215 -0.1735 -0.1916  2.2848
  266SOL    MW4 1119   1.710   2.279   0.219 -0.4209  0.3233  0.4503
  267SOL     OW 1120   0.725   0.057   0.908 -0.1562 -0.1856 -0.1643
  267SOL    HW2 1121   0.727   0.054   1.004  0.1979 -1.1651 -0.2019
  267SOL    HW3 1122   0.637   0.089   0.888 -0.1473  0.2736  0.4868
  267SOL    MW4 1123   0.713   0.061   0.918 -0.1083 -0.2542 -0.0834
  268SOL     OW 1124   2.059   3.601   0.459  0.1293  0.2953  0.1088
  268SOL    HW2 1125   1.979   3.651   0.443  0.5511  1.0526  0.3527
  268SOL    HW3 1126   2.074   3.609   0.553 -0.1900 -0.8892  0.2639
  268SOL    MW4 1127   2.051   3.609   0.469  0.1428  0.2387  0.1614
  269SOL     OW 1128   0.454   0.416   0.877 -0.1298 -0.3834 -0.3254
  269SOL    HW2 1129   0.469   0.327   0.846 -1.0259 -0.5679 -0.2655
  269SOL    HW3 1130   0.515   0.470   0.828  0.7137 -1.0893 -0.0558
  269SOL    MW4 1131   0.464   0.411   0.867 -0.1368 -0.5008 -0.2819
  270SOL     OW 1132   2.119   2.021   0.483 -0.0173  0.5334  0.0919
  270SOL    HW2 1133   2.098   1.938   0.440  1.9469  0.1936 -0.2399
  270SOL    HW3 1134   2.211   2.013   0.508  0.3744  2.8661 -0.4953
  270SOL    MW4 1135   2.128   2.009   0.481  0.2935  0.7963 -0.0294
  271SOL     OW 1136   0.681   0.813   0.820  0.0021  0.0926  0.1760
  271SOL    HW2 1137   0.702   0.722   0.797  1.8785  0.2625  1.1171
  271SOL    HW3 1138   0.763   0.860   0.806 -0.2561  1.1583  2.1826
  271SOL    MW4 1139   0.694   0.807   0.815  0.2156  0.2556  0.5649
  272SOL     OW 1140   0.024   1.146   0.866 -0.2570  0.2789 -0.0307
  272SOL    HW2 1141   0.093   1.209   0.845 -0.6825  0.6118 -0.4363
  272SOL    HW3 1142   0.022   1.143   0.962  0.0132  0.6030 -0.0158
  272SOL    MW4 1143   0.033   1.154   0.876 -0.2775  0.3656 -0.0823
  273SOL     OW 1144   0.439   0.936   0.717  0.1237  0.0693 -0.2976
  273SOL    HW2 1145   0.517   0.894   0.753 -1.3935 -1.2096  1.5864
  273SOL    HW3 1146   0.368   0.874   0.735 -1.1334  0.6255 -3.1397
  273SOL    MW4 1147   0.440   0.922   0.724 -0.2424 -0.0260 -0.4240
  274SOL     OW 1148   2.046   1.517   0.855 -0.0176 -0.6910  0.2682
  274SOL    HW2 1149   1.981   1.553   0.795 -0.9062 -2.4338  0.1525
  274SOL    HW3 1150   2.123   1.572   0.841 -1.2915  1.1017  0.0616
  274SOL    MW4 1151   2.048   1.529   0.845 -0.3030 -0.6845  0.2257
  275SOL     OW 1152   0.423   1.655   0.742  0.2206  0.4708  0.1890
  275SOL    HW2 1153   0.345   1.653   0.799 -0.2946  0.9612 -0.4891
  275SOL    HW3 1154   0.458   1.743   0.754  0.5599  0.3170  0.3354
  275SOL    MW4 1155   0.417   1.667   0.751  0.1974  0.5152  0.1188
  276SOL     OW 1156   0.202   1.614   0.911 -0.0087 -0.4394  0.4014
  276SOL    HW2 1157   0.129   1.644   0.857 -0.0768 -0.5022  0.4594
  276SOL    HW3 1158   0.215   1.523   0.885  0.4899 -0.2330 -0.1017
  276SOL    MW4 1159   0.194   1.606   0.900  0.0481 -0.4205  0.3427
  277SOL     OW 1160   0.472   0.811   0.208  0.5207 -0.0777  0.1819
  277SOL    HW2 1161   0.529   0.863   0.151  0.2209 -1.1298 -1.0816
  277SOL    HW3 1162   0.512   0.820   0.295  1.0885  1.3660 -0.2095
  277SOL    MW4 1163   0.485   0.819   0.212  0.5561 -0.0260 -0.0364
  278SOL     OW 1164   0.966   3.929   0.746  0.0775  0.0289  0.1623
  278SOL    HW2 1165   1.051   3.914   0.789  0.9034 -0.0618 -1.4769
  278SOL    HW3 1166   0.974   3.885   0.661 -1.9753 -0.8430  0.3857
  278SOL    MW4 1167   0.978   3.921   0.741 -0.0844 -0.0982 -0.0246
  279SOL     OW 1168   0.710   2.315   0.853 -0.1840 -0.0097  0.5899
  279SOL    HW2 1169   0.715   2.329   0.948  0.0959 -1.1048  0.7477
  279SOL    HW3 1170   0.708   2.220   0.844 -0.9771  0.1090 -0.4731
  279SOL    MW4 1171   0.711   2.304   0.865 -0.2518 -0.1385  0.4705
  280SOL     OW 1172   0.897   2.694   0.852  0.2534  0.3446 -0.7297
  280SOL    HW2 1173   0.901   2.693   0.947 -0.0701  0.5494 -0.7116
  280SOL    HW3 1174   0.904   2.602   0.827 -0.6062  0.1951 -0.4597
  280SOL    MW4 1175   0.898   2.682   0.861  0.0973  0.3517 -0.6917
  281SOL     OW 1176   0.457   2.445   0.764  0.1682 -0.2289 -0.3356
  281SOL    HW2 1177   0.525   2.401   0.814  0.4307 -1.2345 -1.5344
  281SOL    HW3 1178   0.493   2.451   0.675 -0.3967  1.2478 -0.4794
  281SOL    MW4 1179   0.471   2.440   0.759  0.1283 -0.1669 -0.5127
  282SOL     OW 1180   2.912   4.643   0.861 -0.2307 -0.4334 -0.3414
  282SOL    HW2 1181   2.973   4.711   0.832 -0.3555 -0.7442 -1.3413
  282SOL    HW3 1182   2.934   4.567   0.808 -0.1690 -1.1549  0.6868
  282SOL    MW4 1183   2.923   4.642   0.850 -0.2391 -0.5698 -0.3377
  283SOL     OW 1184   1.257   4.278   0.806 -0.1500 -0.2249 -0.5579
  283SOL    HW2 1185   1.339   4.315   0.773 -0.4659  0.2317 -0.8464
  283SOL    HW3 1186   1.251   4.193   0.763  0.6424 -0.6713  0.2038
  283SOL    MW4 1187   1.267   4.272   0.796 -0.0870 -0.2241 -0.4954
  284SOL     OW 1188   0.479   3.462   0.888  0.1206 -0.0048 -0.3651
  284SOL    HW2 1189   0.479   3.450   0.983 -0.7660 -1.4627 -0.5350
  284SOL    HW3 1190   0.555   3.519   0.871  0.2072  0.3807  1.2134
  284SOL    MW4 1191   0.489   3.468   0.899  0.0150 -0.1466 -0.1792
  285SOL     OW 1192   0.210   1.374   0.541 -0.0771 -0.2805 -0.0688
  285SOL    HW2 1193   0.236   1.282   0.539  0.9851  0.0342 -0.6824
  285SOL    HW3 1194   0.135   1.380   0.481  0.6493 -0.5001 -1.0009
  285SOL    MW4 1195   0.204   1.363   0.533  0.1589 -0.2680 -0.2728
  286SOL     OW 1196   3.845   0.847   0.361  0.2119  0.1749 -0.3013
  286SOL    HW2 1197   3.838   0.752   0.365  1.9274 -0.0129 -0.9608
  286SOL    HW3 1198   3.913   0.870   0.425 -1.3056  1.1314  1.0092
  286SOL    MW4 1199   3.853   0.838   0.370  0.2379  0.2763 -0.2154
  287SOL     OW 1200   0.037   3.970   0.793  0.1023  0.0634 -0.2355
  287SOL    HW2 1201  -0.032   3.926   0.844 -0.6056  0.7167 -0.6160
  287SOL    HW3 1202   0.119   3.943   0.835 -0.3830 -0.7612  0.1935
  287SOL    MW4 1203   0.039   3.960   0.805 -0.0548  0.0408 -0.2291
  288SOL     OW 1204   0.693   0.543   0.740 -0.9406 -0.3553 -0.0135
  288SOL    HW2 1205   0.698   0.532   0.645  0.4965 -0.3463  0.0502
  288SOL    HW3 1206   0.774   0.506   0.773 -0.5987  1.2886  1.0520
  288SOL    MW4 1207   0.704   0.537   0.732 -0.7059 -0.1372  0.1355
  289SOL     OW 1208   0.448   4.281   0.888  0.1238  0.2087 -0.0997
  289SOL    HW2 1209   0.463   4.298   0.981 -0.7448 -1.7783  0.4369
  289SOL    HW3 1210   0.506   4.342   0.843  0.2316  1.5084  1.7387
  289SOL    MW4 1211   0.458   4.291   0.894  0.0235  0.1187  0.2136
  290SOL     OW 1212   3.810   0.519   0.733  0.1229  0.1565  0.0595
  290SOL    HW2 1213   3.792   0.531   0.640 -0.7001  0.6827  0.2805
  290SOL    HW3 1214   3.822   0.608   0.766  0.5113 -0.0351  0.4351
  290SOL    MW4 1215   3.809   0.532   0.725  0.0653  0.2006  0.1382
  291SOL     OW 1216   3.789   3.127   0.235  0.3021  0.2325  0.0717
  291SOL    HW2 1217   3.879   3.109   0.263  0.7923 -0.1745 -1.6747
  291SOL    HW3 1218   3.741   3.047   0.254  0.3768  0.3301  0.6906
  291SOL    MW4 1219   3.795   3.114   0.241  0.3765  0.1919 -0.0771
  292SOL     OW 1220   4.230   0.766   0.864 -0.1019  0.4980 -0.2141
  292SOL    HW2 1221   4.158   0.811   0.820 -0.5338  2.6315  2.4764
  292SOL    HW3 1222   4.309   0.809   0.831 -0.0271 -1.5186 -2.8064
  292SOL    MW4 1223   4.231   0.778   0.854 -0.1493  0.5134 -0.2011
  293SOL     OW 1224   0.908   0.414   0.862 -0.1642 -0.3184  0.3153
  293SOL    HW2 1225   0.910   0.435   0.955  2.5386 -2.3517  0.7598
  293SOL    HW3 1226   0.983   0.459   0.825 -0.0938 -1.1159 -0.5245
  293SOL    MW4 1227   0.918   0.422   0.869  0.2016 -0.6919  0.2632
  294SOL     OW 1228   0.712   1.542   0.801 -0.5439 -0.2750 -0.1329
  294SOL    HW2 1229   0.631   1.592   0.788 -1.5364 -1.8162  0.0536
  294SOL    HW3 1230   0.723   1.540   0.896  0.8816  1.7293 -0.2134
  294SOL    MW4 1231   0.703   1.549   0.812 -0.4868 -0.2139 -0.1189
  295SOL     OW 1232   1.120   0.570   0.780  0.4795 -0.0339  0.6373
  295SOL    HW2 1233   1.102   0.571   0.686  0.1828  0.2435  0.6978
  295SOL    HW3 1234   1.198   0.514   0.788  1.3839  1.1143  0.0653
  295SOL    MW4 1235   1.128   0.562   0.769  0.5596  0.1542  0.5699
  296SOL     OW 1236   0.674   3.652   0.568 -0.4113 -0.4453  0.4449
  296SOL    HW2 1237   0.693   3.560   0.551 -0.9303 -0.7289  1.3793
  296SOL    HW3 1238   0.687   3.663   0.662  0.3246  0.5995  0.2297
  296SOL    MW4 1239   0.678   3.641   0.578 -0.3827 -0.3450  0.5398
  297SOL     OW 1240   0.922   0.920   0.759 -0.2158 -0.1775 -0.0163
  297SOL    HW2 1241   0.908   1.008   0.794  0.9228  0.4052 -0.9918
  297SOL    HW3 1242   1.006   0.892   0.794  0.4749  0.0231 -1.4523
  297SOL    MW4 1243   0.931   0.928   0.768  0.0256 -0.0741 -0.3344
  298SOL     OW 1244   1.828   1.663   0.738  0.0132 -0.1328 -0.3599
  298SOL    HW2 1245   1.749   1.621   0.772 -0.9787  1.9374 -0.0525
  298SOL    HW3 1246   1.803   1.694   0.651  0.7658 -0.2262 -0.6133
  298SOL    MW4 1247   1.814   1.661   0.731 -0.0184  0.1279 -0.3528
  299SOL     OW 1248   1.137   1.561   0.824 -0.3225 -0.1147 -0.3536
  299SOL    HW2 1249   1.062   1.606   0.785 -0.5026 -0.2226 -0.1358
  299SOL    HW3 1250   1.127   1.470   0.797 -0.8478 -0.3330  0.5322
  299SOL    MW4 1251   1.125   1.555   0.816 -0.4158 -0.1577 -0.2080
  300SOL     OW 1252   0.423   1.181   0.855  0.2175  0.1153  0.2607
  300SOL    HW2 1253   0.416   1.096   0.811 -0.4977  0.4785 -0.3389
  300SOL    HW3 1254   0.500   1.222   0.816 -0.2963  0.3524 -0.5151
  300SOL    MW4 1255   0.432   1.175   0.844  0.0554  0.1944  0.0792
  301SOL     OW 1256   1.106   2.561   0.370  0.5777 -0.4501  0.5422
  301SOL    HW2 1257   1.012   2.578   0.370  0.4739 -1.0051  0.8143
  301SOL    HW3 1258   1.143   2.627   0.429  0.4146  0.0274  0.1196
  301SOL    MW4 1259   1.099   2.572   0.377  0.5425 -0.4604  0.5224
  302SOL     OW 1260   0.101   0.445   0.262  0.4074  0.0187  0.1276
  302SOL    HW2 1261   0.021   0.496   0.278  0.4029 -0.3377  1.3396
  302SOL    HW3 1262   0.082   0.394   0.184 -0.1681  0.7186 -0.1946
  302SOL    MW4 1263   0.088   0.445   0.254  0.3309  0.0640  0.2451
  303SOL     OW 1264   4.340   3.051   0.339  0.0420  0.3198 -0.5455
  303SOL    HW2 1265   4.327   3.103   0.260  0.5770  0.3710 -0.5975
  303SOL    HW3 1266   4.387   3.109   0.399 -1.1066  0.5778  0.1277
  303SOL    MW4 1267   4.344   3.065   0.337 -0.0391  0.3605 -0.4636
  304SOL     OW 1268   0.860   4.172   0.648 -0.1653 -0.0055  0.4848
  304SOL    HW2 1269   0.911   4.093   0.660  1.0138  0.7643  0.6503
  304SOL    HW3 1270   0.838   4.201   0.736 -0.1496  0.1402  0.4418
  304SOL    MW4 1271   0.864   4.166   0.661 -0.0077  0.1159  0.5010
  305SOL     OW 1272   1.415   2.703   0.824  0.0142 -0.3217 -0.2547
  305SOL    HW2 1273   1.436   2.704   0.917  0.2632 -0.1103 -0.3154
  305SOL    HW3 1274   1.329   2.744   0.819 -0.2255 -0.7875 -0.0617
  305SOL    MW4 1275   1.406   2.708   0.836  0.0154 -0.3552 -0.2372
  306SOL     OW 1276   3.095   2.459   0.758  0.0029 -0.3117  0.0113
  306SOL    HW2 1277   3.174   2.414   0.790 -0.1556 -1.0826 -0.6569
  306SOL    HW3 1278   3.023   2.405   0.789 -0.2475  0.1255  0.1959
  306SOL    MW4 1279   3.096   2.446   0.767 -0.0513 -0.3557 -0.0525
  307SOL     OW 1280   1.140   2.792   0.795  0.4333  0.4213 -0.4516
  307SOL    HW2 1281   1.167   2.773   0.705  0.0289 -0.6485 -0.3586
  307SOL    HW3 1282   1.050   2.761   0.800  0.8717 -0.7191  0.6726
  307SOL    MW4 1283   1.132   2.785   0.784  0.4376  0.1297 -0.2910
  308SOL     OW 1284   0.707   3.635   0.836  0.1568  0.1004  0.0067
  308SOL    HW2 1285   0.800   3.616   0.824 -0.1836 -0.3791 -2.1026
  308SOL    HW3 1286   0.705   3.726   0.867  1.3215  0.0629  0.2119
  308SOL    MW4 1287   0.719   3.645   0.839  0.2656  0.0322 -0.2446
  309SOL     OW 1288   0.638   4.299   0.534  0.1213 -0.6099  0.3777
  309SOL    HW2 1289   0.711   4.251   0.571  1.2158 -0.1486 -1.1246
  309SOL    HW3 1290   0.578   4.231   0.503  0.2841 -0.9928  0.9132
  309SOL    MW4 1291   0.639   4.284   0.535  0.2872 -0.5994  0.2502
  310SOL     OW 1292   1.614   2.887   0.736 -0.5642  0.5659 -0.6046
  310SOL    HW2 1293   1.682   2.843   0.787 -0.5634  0.3207 -0.8141
  310SOL    HW3 1294   1.538   2.830   0.742 -0.6899  0.7384 -0.5401
  310SOL    MW4 1295   1.613   2.874   0.743 -0.5807  0.5560 -0.6237
  311SOL     OW 1296   1.356   0.129   0.685 -0.2162  0.0757 -0.4747
  311SOL    HW2 1297   1.280   0.080   0.716 -0.5587  0.4737 -0.6807
  311SOL    HW3 1298   1.365   0.104   0.593 -1.4824  1.7660 -1.0702
  311SOL    MW4 1299   1.347   0.119   0.677 -0.4284  0.3512 -0.5804
  312SOL     OW 1300   0.995   3.472   0.863 -0.2144  0.6098  0.4131
  312SOL    HW2 1301   0.954   3.392   0.830  0.2068  1.0819 -1.2848
  312SOL    HW3 1302   1.084   3.445   0.887 -0.5847  0.2222  1.3568
  312SOL    MW4 1303   1.001   3.458   0.862 -0.2077  0.6208  0.3136
  313SOL     OW 1304   0.852   4.291   0.913  0.1344  0.4457  0.3761
  313SOL    HW2 1305   0.922   4.340   0.870  0.8962  0.6050  1.7820
  313SOL    HW3 1306   0.774   4.345   0.899  0.4302  0.6685 -0.4910
  313SOL    MW4 1307   0.851   4.304   0.905  0.2739  0.4964  0.4472
  314SOL     OW 1308   1.792   1.779   0.493 -0.1139 -0.2669 -0.3833
  314SOL    HW2 1309   1.748   1.864   0.499  1.5350  0.6483 -1.0157
  314SOL    HW3 1310   1.722   1.718   0.468 -1.5614  0.6672  1.2350
  314SOL    MW4 1311   1.777   1.782   0.491 -0.0873 -0.0230 -0.2532
  315SOL     OW 1312   1.779   0.385   0.781 -0.1532 -0.3730  0.1031
  315SOL    HW2 1313   1.766   0.296   0.749 -0.2459 -0.3333  0.0301
  315SOL    HW3 1314   1.699   0.432   0.755  0.1596 -0.1175 -0.3888
  315SOL    MW4 1315   1.766   0.380   0.774 -0.1240 -0.3340  0.0284
  316SOL     OW 1316   2.256   0.626   0.432  0.3190  0.0761 -0.1483
  316SOL    HW2 1317   2.321   0.632   0.502  0.4479  1.7845 -0.3821
  316SOL    HW3 1318   2.215   0.713   0.430 -2.1588 -1.0489  0.1485
  316SOL    MW4 1319   2.259   0.638   0.441  0.0093  0.1531 -0.1400
  317SOL     OW 1320   4.018   3.347   0.510 -0.9328 -0.2060 -0.5834
  317SOL    HW2 1321   4.025   3.296   0.591  0.8542  1.9737  0.7085
  317SOL    HW3 1322   4.024   3.282   0.440  0.5440 -1.8697  1.0225
  317SOL    MW4 1323   4.020   3.332   0.512 -0.5016 -0.1378 -0.2010
  318SOL     OW 1324   0.966   3.196   0.783 -0.3387 -0.3887  0.6164
  318SOL    HW2 1325   0.887   3.150   0.813 -0.2487 -0.7522  0.3031
  318SOL    HW3 1326   1.038   3.145   0.819 -0.2413 -0.2228  0.6569
  318SOL    MW4 1327   0.965   3.183   0.792 -0.3139 -0.4148  0.5804
  319SOL     OW 1328   3.394   0.538   0.683 -0.0267 -0.4308 -0.0669
  319SOL    HW2 1329   3.451   0.482   0.736 -0.2267  0.1149  0.7310
  319SOL    HW3 1330   3.400   0.624   0.724 -0.0982  0.0305 -0.9999
  319SOL    MW4 1331   3.402   0.542   0.695 -0.0627 -0.2979 -0.0847
  320SOL     OW 1332   1.596   1.593   0.437 -0.0690  0.2315 -0.1516
  320SOL    HW2 1333   1.503   1.608   0.453 -0.0282 -0.2573  0.5685
  320SOL    HW3 1334   1.604   1.498   0.426  0.2350  0.3464 -0.9651
  320SOL    MW4 1335   1.585   1.583   0.438 -0.0236  0.1822 -0.1639
  321SOL     OW 1336   2.424   1.291   0.723 -0.6933  0.9917  0.1243
  321SOL    HW2 1337   2.364   1.315   0.653 -0.4445  0.0585 -0.4174
  321SOL    HW3 1338   2.369   1.247   0.788 -0.5266 -0.3271 -0.6081
  321SOL    MW4 1339   2.409   1.288   0.722 -0.6385  0.6945 -0.0439
  322SOL     OW 1340   1.752   0.038   0.472  0.1636  0.0383 -0.1000
  322SOL    HW2 1341   1.757   0.062   0.565 -0.3777  0.4620 -0.1811
  322SOL    HW3 1342   1.823  -0.025   0.461 -0.3518 -0.7256  0.8223
  322SOL    MW4 1343   1.762   0.033   0.483  0.0242 -0.0066  0.0110
  323SOL     OW 1344   0.569   0.139   0.521 -0.6629  0.0441  0.2751
  323SOL    HW2 1345   0.662   0.157   0.523 -0.4797 -0.7436 -0.5517
  323SOL    HW3 1346   0.531   0.212   0.472 -0.2083 -0.6480 -1.1497
  323SOL    MW4 1347   0.576   0.151   0.514 -0.5788 -0.1512 -0.0219
  324SOL     OW 1348   1.081   0.553   0.513  0.3654  0.3460  0.0947
  324SOL    HW2 1349   1.015   0.492   0.481 -0.6413  1.3252  0.2618
  324SOL    HW3 1350   1.165   0.516   0.485 -0.3049 -0.4765 -0.8342
  324SOL    MW4 1351   1.083   0.540   0.505  0.1442  0.3666 -0.0058
  325SOL     OW 1352   0.942   1.910   0.902  0.2002  0.0139  0.4788
  325SOL    HW2 1353   0.927   1.930   0.995  1.7940 -0.8462  0.9351
  325SOL    HW3 1354   1.021   1.959   0.879 -0.3742  0.4867 -0.5258
  325SOL    MW4 1355   0.950   1.920   0.911  0.3348 -0.0372  0.4066
  326SOL     OW 1356   0.973   3.265   0.527 -0.1587  0.1110  0.0810
  326SOL    HW2 1357   1.008   3.192   0.476 -2.3205 -0.9678  0.0863
  326SOL    HW3 1358   0.963   3.229   0.616 -0.9454  0.5044  0.1520
  326SOL    MW4 1359   0.976   3.250   0.532 -0.5478  0.0207  0.0911
  327SOL     OW 1360   3.561   4.023   0.488 -0.1659  0.3125 -0.3022
  327SOL    HW2 1361   3.635   4.064   0.442  0.8700 -0.6178  0.5098
  327SOL    HW3 1362   3.572   3.930   0.471 -1.0509  0.1525 -0.0008
  327SOL    MW4 1363   3.572   4.016   0.479 -0.1459  0.1683 -0.1554
  328SOL     OW 1364   1.758   3.707   0.474  0.6628 -0.1877  0.1007
  328SOL    HW2 1365   1.774   3.709   0.569 -0.1947 -0.4738  0.2544
  328SOL    HW3 1366   1.759   3.615   0.451  1.3274 -0.0955 -0.2567
  328SOL    MW4 1367   1.760   3.695   0.484  0.6374 -0.2131  0.0738
  329SOL     OW 1368   1.873   2.754   0.277  0.4177 -0.2474  0.2514
  329SOL    HW2 1369   1.854   2.685   0.213  0.0691 -1.9940  2.1782
  329SOL    HW3 1370   1.787   2.789   0.299  0.5745  0.6476 -0.5311
  329SOL    MW4 1371   1.859   2.749   0.271  0.3922 -0.3595  0.4023
  330SOL     OW 1372   1.804   2.481   0.812  0.0358 -0.3597  0.2616
  330SOL    HW2 1373   1.789   2.479   0.717  1.2754  0.1115  0.0543
  330SOL    HW3 1374   1.736   2.423   0.847  0.4983 -1.7348 -1.0393
  330SOL    MW4 1375   1.793   2.473   0.804  0.2602 -0.4790  0.0627
  331SOL     OW 1376   1.563   3.123   0.854 -0.4786  0.2930 -0.0420
  331SOL    HW2 1377   1.583   3.122   0.948 -2.2196 -1.0167  0.3457
  331SOL    HW3 1378   1.577   3.032   0.826 -1.6733  0.2823 -0.6470
  331SOL    MW4 1379   1.567   3.111   0.863 -0.8658  0.1187 -0.0706
  332SOL     OW 1380   2.877   2.213   0.500 -0.0918  0.1416 -0.3892
  332SOL    HW2 1381   2.963   2.240   0.468  0.6042 -1.6066 -0.0675
  332SOL    HW3 1382   2.841   2.159   0.429 -0.0624 -0.7736  0.2791
  332SOL    MW4 1383   2.884   2.209   0.486  0.0038 -0.2098 -0.2585
  333SOL     OW 1384   1.263   3.421   0.881 -0.6717 -0.0750  0.2088
  333SOL    HW2 1385   1.304   3.496   0.836  1.0899 -0.9365  0.3365
  333SOL    HW3 1386   1.289   3.346   0.829 -0.2823 -0.8814  1.5585
  333SOL    MW4 1387   1.272   3.421   0.868 -0.3879 -0.2952  0.4037
  334SOL     OW 1388   3.297   1.021   0.194 -0.1509 -0.1330 -0.6454
  334SOL    HW2 1389   3.268   0.990   0.108  0.1805 -1.5354 -0.2751
  334SOL    HW3 1390   3.299   0.942   0.248 -0.1947  0.7122  0.6065
  334SOL    MW4 1391   3.294   1.006   0.189 -0.1132 -0.2065 -0.4314
  335SOL     OW 1392   1.392   3.653   0.782  0.2455  0.0455 -0.0853
  335SOL    HW2 1393   1.479   3.685   0.806  0.5086 -1.0671  0.4917
  335SOL    HW3 1394   1.332   3.711   0.829  0.7489 -1.4898  2.5967
  335SOL    MW4 1395   1.396   3.665   0.792  0.3468 -0.3040  0.3446
  336SOL     OW 1396   2.536   3.280   0.423 -0.0270 -0.0947 -0.0915
  336SOL    HW2 1397   2.537   3.373   0.442  0.7953 -0.2420  0.6104
  336SOL    HW3 1398   2.446   3.252   0.443 -0.2153  0.4966 -0.0994
  336SOL    MW4 1399   2.524   3.288   0.428  0.0565 -0.0360  0.0000
  337SOL     OW 1400   1.411   3.360   0.484 -0.1295 -0.1686 -0.3274
  337SOL    HW2 1401   1.499   3.388   0.461 -0.0767 -1.2602 -1.4816
  337SOL    HW3 1402   1.359   3.440   0.481  0.7900  0.4522  0.2139
  337SOL    MW4 1403   1.416   3.374   0.481 -0.0012 -0.2306 -0.4083
  338SOL     OW 1404   0.990   1.794   0.233  0.4851  0.2595 -0.7479
  338SOL    HW2 1405   0.944   1.815   0.315  2.0994 -0.4022  0.3669
  338SOL    HW3 1406   0.922   1.795   0.166 -1.1154 -0.4461  0.8102
  338SOL    MW4 1407   0.975   1.797   0.235  0.4869  0.0789 -0.3952
  339SOL     OW 1408   1.994   4.665   0.852 -0.1436 -0.3974 -0.1002
  339SOL    HW2 1409   2.075   4.706   0.820 -0.8352  1.3947  0.3436
  339SOL    HW3 1410   1.991   4.580   0.809  2.1596 -0.6356  0.1498
  339SOL    MW4 1411   2.004   4.659   0.842  0.0691 -0.1924 -0.0086
  340SOL     OW 1412   2.777   3.677   0.365 -0.1997 -0.1651 -0.1930
  340SOL    HW2 1413   2.869   3.669   0.392 -0.1390 -2.6972 -1.0761
  340SOL    HW3 1414   2.770   3.766   0.330  2.5463 -0.7453 -2.4064
  340SOL    MW4 1415   2.788   3.688   0.364  0.1707 -0.5755 -0.6016
  341SOL     OW 1416   0.662   1.274   0.727 -0.3947 -0.6348 -0.1476
  341SOL    HW2 1417   0.688   1.364   0.748  2.1715 -1.4121  0.1413
  341SOL    HW3 1418   0.654   1.273   0.632 -1.4197  0.1440 -0.0753
  341SOL    MW4 1419   0.664   1.286   0.717 -0.1914 -0.6347 -0.0998
  342SOL     OW 1420   1.328   0.392   0.780  0.2316 -0.3325  0.1771
  342SOL    HW2 1421   1.308   0.302   0.755 -0.9898 -0.4009  1.3454
  342SOL    HW3 1422   1.344   0.387   0.874  2.8322  0.2336 -0.2153
  342SOL    MW4 1423   1.327   0.379   0.789  0.4135 -0.2668  0.2795
  343SOL     OW 1424   3.222   3.048   0.494  0.0133  0.3032 -0.0887
  343SOL    HW2 1425   3.316   3.065   0.487  0.3024  0.2376  2.8564
  343SOL    HW3 1426   3.195   3.093   0.574 -2.3383 -0.2277 -0.5302
  343SOL    MW4 1427   3.231   3.056   0.504 -0.2587  0.2246  0.2416
  344SOL     OW 1428   2.681   0.729   0.463  0.5964  0.0704  0.3667
  344SOL    HW2 1429   2.637   0.690   0.387  1.5379 -0.1935 -0.0571
  344SOL    HW3 1430   2.769   0.691   0.462  0.5554 -0.0911  1.7177
  344SOL    MW4 1431   2.687   0.719   0.453  0.7155  0.0143  0.4891
  345SOL     OW 1432   2.281   3.192   0.478 -0.2511  0.3034 -0.1405
  345SOL    HW2 1433   2.200   3.228   0.440  0.4997  0.9197 -1.1876
  345SOL    HW3 1434   2.274   3.098   0.465 -0.1840  0.4739 -1.4876
  345SOL    MW4 1435   2.269   3.185   0.471 -0.1433  0.4070 -0.4564
  346SOL     OW 1436   1.453   0.714   0.411 -0.3779  0.2993  0.4214
  346SOL    HW2 1437   1.407   0.631   0.427 -0.8311  0.7666  1.6336
  346SOL    HW3 1438   1.545   0.689   0.405 -0.4890 -0.2699  1.0052
  346SOL    MW4 1439   1.459   0.700   0.413 -0.4523  0.2858  0.6583
  347SOL     OW 1440   0.505   3.202   0.753  0.3016 -0.1170 -0.0363
  347SOL    HW2 1441   0.490   3.285   0.798  1.5148 -0.8375  1.7518
  347SOL    HW3 1442   0.496   3.223   0.660  0.2060  1.9304  0.4199
  347SOL    MW4 1443   0.502   3.215   0.747  0.4490  0.0584  0.2598
  348SOL     OW 1444   1.399   1.944   0.884  0.1110 -0.5659  0.0222
  348SOL    HW2 1445   1.385   1.862   0.837 -1.4209 -0.4843  0.3314
  348SOL    HW3 1446   1.390   1.920   0.977 -0.0274 -0.0997  0.1276
  348SOL    MW4 1447   1.396   1.930   0.890 -0.1094 -0.4936  0.0769
  349SOL     OW 1448   1.841   1.910   0.863 -0.2383  0.0747 -0.1152
  349SOL    HW2 1449   1.832   1.822   0.827  0.0136 -0.0745  0.1880
  349SOL    HW3 1450   1.895   1.957   0.800  1.7969 -0.7212  0.9864
  349SOL    MW4 1451   1.847   1.905   0.850  0.0634 -0.0501  0.0702
  350SOL     OW 1452   1.002   4.352   0.484 -0.3271 -0.0223 -0.1745
  350SOL    HW2 1453   0.941   4.288   0.520 -1.1675  1.0301  0.2854
  350SOL    HW3 1454   0.947   4.416   0.440  0.5249  0.2626 -0.8412
  350SOL    MW4 1455   0.987   4.352   0.483 -0.3256  0.1545 -0.2018
  351SOL     OW 1456   1.630   2.079   0.778  0.4171  0.0104 -0.4760
  351SOL    HW2 1457   1.706   2.027   0.802  0.6778  1.7093  2.6165
  351SOL    HW3 1458   1.554   2.026   0.805  0.6080  0.0011  0.0420
  351SOL    MW4 1459   1.630   2.065   0.785  0.4766  0.2334  0.0004
  352SOL     OW 1460   1.574   4.071   0.210 -0.0248  0.2582  0.4016
  352SOL    HW2 1461   1.557   3.988   0.254 -1.6120  0.2761 -0.1579
  352SOL    HW3 1462   1.488   4.099   0.178  0.5168  2.0501  0.4873
  352SOL    MW4 1463   1.560   4.064   0.212 -0.1627  0.4973  0.3391
  353SOL     OW 1464   1.678   3.422   0.443 -0.4957  0.4546  0.0788
  353SOL    HW2 1465   1.707   3.377   0.523 -0.2905  0.1998 -0.1386
  353SOL    HW3 1466   1.699   3.361   0.373  1.9238  1.8235 -0.4568
  353SOL    MW4 1467   1.685   3.408   0.445 -0.1495  0.6018 -0.0206
  354SOL     OW 1468   1.325   1.708   0.457 -0.6811  0.4193 -0.2352
  354SOL    HW2 1469   1.328   1.794   0.414  1.0637 -0.0828 -1.1785
  354SOL    HW3 1470   1.266   1.656   0.402 -0.3163  0.4789 -0.6813
  354SOL    MW4 1471   1.317   1.712   0.444 -0.4029  0.3610 -0.4185
  355SOL     OW 1472   2.011   3.050   0.779  0.1698 -0.0474  0.0044
  355SOL    HW2 1473   2.043   2.966   0.747 -0.2558 -0.6406  1.1311
  355SOL    HW3 1474   2.089   3.106   0.782  0.6989 -0.8217  0.6059
  355SOL    MW4 1475   2.025   3.047   0.775  0.1833 -0.2277  0.2324
  356SOL     OW 1476   2.053   2.958   0.259  0.1419 -0.1162  0.0459
  356SOL    HW2 1477   1.989   2.887   0.260 -0.1504  0.1586  1.0542
  356SOL    HW3 1478   2.096   2.952   0.344 -0.3052  1.3015  0.3721
  356SOL    MW4 1479   2.050   2.948   0.270  0.0443  0.1073  0.2220
  357SOL     OW 1480   1.806   3.538   0.821  0.1282  0.1435 -0.2068
  357SOL    HW2 1481   1.809   3.527   0.916 -2.4446  2.4584  0.2324
  357SOL    HW3 1482   1.791   3.450   0.787  1.9194 -0.8381  1.4584
  357SOL    MW4 1483   1.804   3.525   0.829  0.0253  0.3192  0.0709
  358SOL     OW 1484   2.081   3.594   0.754  0.2877  0.4739 -0.1457
  358SOL    HW2 1485   2.081   3.687   0.775  0.1844  0.2807  0.6926
  358SOL    HW3 1486   1.997   3.562   0.785  0.6334 -0.0572  0.2593
  358SOL    MW4 1487   2.070   3.602   0.761  0.3197  0.3784  0.0183
  359SOL     OW 1488   2.033   3.853   0.819  0.8236  0.1001  0.0874
  359SOL    HW2 1489   2.043   3.873   0.912  1.2569 -1.6580  0.4447
  359SOL    HW3 1490   1.951   3.894   0.794  0.3188 -0.0590  1.4478
  359SOL    MW4 1491   2.024   3.861   0.828  0.8142 -0.1528  0.3139
  360SOL     OW 1492   1.632   3.757   0.856 -0.0410  0.3524  0.1233
  360SOL    HW2 1493   1.699   3.690   0.863  0.1714  0.4368 -1.0033
  360SOL    HW3 1494   1.677   3.834   0.821 -0.1641  1.2728  1.8957
  360SOL    MW4 1495   1.647   3.759   0.852 -0.0291  0.4849  0.2085
  361SOL     OW 1496   1.767   4.266   0.834  0.0835 -0.1331 -0.1891
  361SOL    HW2 1497   1.774   4.279   0.929 -1.2225 -1.2764  0.0748
  361SOL    HW3 1498   1.682   4.304   0.811  1.1078  1.6447 -1.1970
  361SOL    MW4 1499   1.757   4.273   0.844  0.0464 -0.0496 -0.2873
  362SOL     OW 1500   1.471   0.036   0.427 -0.2035  0.1094 -0.4585
  362SOL    HW2 1501   1.430  -0.050   0.420 -0.5907  0.1103  1.5130
  362SOL    HW3 1502   1.562   0.018   0.451  0.4021  0.1866 -2.5906
  362SOL    MW4 1503   1.478   0.022   0.429 -0.1746  0.1197 -0.4797
  363SOL     OW 1504   2.438   4.662   0.843 -0.2744  0.8316 -0.2315
  363SOL    HW2 1505   2.449   4.650   0.938 -0.8583 -0.2652 -0.2976
  363SOL    HW3 1506   2.526   4.687   0.812 -0.6051  3.6820  0.9389
  363SOL    MW4 1507   2.451   4.664   0.852 -0.3951  1.0629 -0.0858
  364SOL     OW 1508   2.217   0.916   0.728  0.2337 -0.0833  0.3350
  364SOL    HW2 1509   2.204   0.877   0.642 -1.4745  1.1201  0.0269
  364SOL    HW3 1510   2.300   0.878   0.759  0.9327 -0.4436 -1.8679
  364SOL    MW4 1511   2.226   0.906   0.721  0.1004  0.0280  0.0037
  365SOL     OW 1512   2.006   0.530   0.679  0.1080 -0.0734 -0.2675
  365SOL    HW2 1513   2.032   0.484   0.599 -0.0111  1.1746 -1.0437
  365SOL    HW3 1514   1.925   0.486   0.707  0.0237 -0.3706 -0.9678
  365SOL    MW4 1515   1.999   0.518   0.672  0.0812  0.0520 -0.4622
  366SOL     OW 1516   3.512   3.084   0.503 -0.1893  0.2685 -0.6017
  366SOL    HW2 1517   3.553   3.160   0.461  0.9819  0.2721  0.5336
  366SOL    HW3 1518   3.555   3.008   0.462  0.7180  0.2671  0.3440
  366SOL    MW4 1519   3.524   3.084   0.492  0.0849  0.2687 -0.3271
  367SOL     OW 1520   3.506   1.197   0.295 -0.6518  0.0053 -0.4389
  367SOL    HW2 1521   3.441   1.159   0.236  0.1861 -0.2748 -1.1876
  367SOL    HW3 1522   3.533   1.125   0.351 -2.3612  0.5578  1.1335
  367SOL    MW4 1523   3.501   1.183   0.294 -0.7668  0.0411 -0.3302
  368SOL     OW 1524   0.802   2.576   0.356  0.3193 -0.1233 -0.3664
  368SOL    HW2 1525   0.718   2.621   0.367 -0.0529 -1.0942  0.9124
  368SOL    HW3 1526   0.780   2.483   0.358  1.5902 -0.4215  1.6186
  368SOL    MW4 1527   0.788   2.569   0.358  0.4379 -0.2909  0.0642
  369SOL     OW 1528   2.254   1.162   0.910 -0.2722  0.0563  0.2382
  369SOL    HW2 1529   2.259   1.167   1.005  1.2575  1.3012  0.1217
  369SOL    HW3 1530   2.269   1.070   0.889  1.0196  0.0565  1.1265
  369SOL    MW4 1531   2.257   1.151   0.920  0.1004  0.2207  0.3400
  370SOL     OW 1532   1.797   0.325   0.441  0.2494  0.3515  0.1808
  370SOL    HW2 1533   1.782   0.231   0.452 -0.2103  0.4091  0.0461
  370SOL    HW3 1534   1.893   0.333   0.437  0.3200 -0.0154  1.0283
  370SOL    MW4 1535   1.808   0.313   0.442  0.1981  0.3107  0.2749
  371SOL     OW 1536   2.692   1.653   0.751  0.0517  0.2181 -0.2108
  371SOL    HW2 1537   2.773   1.606   0.772 -2.1324 -2.3643  3.0653
  371SOL    HW3 1538   2.708   1.742   0.781  1.9249 -0.0959 -0.2001
  371SOL    MW4 1539   2.705   1.658   0.758  0.0107 -0.1642  0.2229
  372SOL     OW 1540   2.252   1.943   0.846 -0.2468 -0.0300  0.2645
  372SOL    HW2 1541   2.173   1.974   0.803 -0.6549 -1.6410 -0.1813
  372SOL    HW3 1542   2.240   1.848   0.853  2.0098 -0.4204 -0.5955
  372SOL    MW4 1543   2.240   1.934   0.841 -0.0033 -0.2940  0.0923
  373SOL     OW 1544   2.440   2.730   0.500 -0.3350 -0.1027  0.4518
  373SOL    HW2 1545   2.526   2.702   0.467 -0.0768  0.5217  0.5967
  373SOL    HW3 1546   2.386   2.650   0.496 -0.0501 -0.2540 -0.6263
  373SOL    MW4 1547   2.444   2.715   0.495 -0.2637 -0.0403  0.3287
  374SOL     OW 1548   2.405   2.027   0.501  0.2073  0.0710 -0.4552
  374SOL    HW2 1549   2.436   2.041   0.591 -1.1995 -0.2351  0.0773
  374SOL    HW3 1550   2.427   2.108   0.456 -0.2506  0.7353  0.4993
  374SOL    MW4 1551   2.412   2.040   0.507 -0.0386  0.1180 -0.2590
  375SOL     OW 1552   2.460   2.312   0.915  0.0627 -0.2759 -0.1627
  375SOL    HW2 1553   2.463   2.226   0.875 -0.4348  0.0103 -0.8219
  375SOL    HW3 1554   2.534   2.360   0.877  0.4589 -0.4695  0.3514
  375SOL    MW4 1555   2.470   2.307   0.905  0.0494 -0.2637 -0.1819
  376SOL     OW 1556   2.562   1.199   0.500  0.0523  0.8340 -0.2072
  376SOL    HW2 1557   2.514   1.188   0.582 -0.4722  0.3819 -0.5697
  376SOL    HW3 1558   2.637   1.140   0.509 -0.3324  0.3260 -0.3009
  376SOL    MW4 1559   2.565   1.190   0.512 -0.0679  0.7073 -0.2674
  377SOL     OW 1560   2.500   2.891   0.758 -0.4394  0.2871  0.0485
  377SOL    HW2 1561   2.429   2.834   0.786  0.3052 -0.4728  0.4097
  377SOL    HW3 1562   2.509   2.875   0.664 -0.5351  0.1542  0.0632
  377SOL    MW4 1563   2.492   2.882   0.749 -0.3538  0.1690  0.0981
  378SOL     OW 1564   2.692   2.716   0.838 -0.0336 -0.1467 -0.5297
  378SOL    HW2 1565   2.690   2.722   0.933  2.5425 -2.1757 -0.3000
  378SOL    HW3 1566   2.633   2.786   0.808 -2.2622 -0.6198  2.5548
  378SOL    MW4 1567   2.684   2.726   0.847  0.0122 -0.4768 -0.0924
  379SOL     OW 1568   2.475   3.150   0.885  0.2003  0.0733  0.4777
  379SOL    HW2 1569   2.505   3.140   0.976 -1.3191 -0.1498  0.9826
  379SOL    HW3 1570   2.479   3.062   0.849  0.6648  0.1360  0.3779
  379SOL    MW4 1571   2.480   3.137   0.893  0.0610  0.0525  0.5311
  380SOL     OW 1572   2.243   3.203   0.748  0.0530  0.5024 -0.0624
  380SOL    HW2 1573   2.330   3.176   0.777  0.6488  1.2530 -1.0975
  380SOL    HW3 1574   2.247   3.197   0.652 -1.2994 -0.2490 -0.0738
  380SOL    MW4 1575   2.255   3.199   0.739 -0.0470  0.5023 -0.2005
  381SOL     OW 1576   2.293   3.466   0.852 -0.1157 -0.0620 -0.2398
  381SOL    HW2 1577   2.276   3.377   0.822  1.1474 -0.7739  1.1067
  381SOL    HW3 1578   2.216   3.516   0.823 -0.7870 -1.5517 -1.0956
  381SOL    MW4 1579   2.281   3.461   0.844 -0.0377 -0.3526 -0.1751
  382SOL     OW 1580   2.790   3.948   0.277  0.3845  0.2672 -0.3241
  382SOL    HW2 1581   2.872   3.981   0.313  0.0329  0.1530  0.5911
  382SOL    HW3 1582   2.794   3.970   0.184  1.3536  0.4584 -0.2427
  382SOL    MW4 1583   2.801   3.955   0.269  0.4661  0.2775 -0.1926
  383SOL     OW 1584   0.879   0.415   0.398 -0.3426  0.3225 -0.0893
  383SOL    HW2 1585   0.790   0.449   0.403 -0.4473 -0.0839  0.7338
  383SOL    HW3 1586   0.870   0.321   0.408  0.1444  0.2373 -0.4178
  383SOL    MW4 1587   0.866   0.407   0.400 -0.2922  0.2576 -0.0240
  384SOL     OW 1588   1.624   2.558   0.392  0.0555 -0.4732  0.6336
  384SOL    HW2 1589   1.637   2.570   0.298  1.1027  0.3508  0.8866
  384SOL    HW3 1590   1.544   2.504   0.398  0.0671 -0.6550 -0.7204
  384SOL    MW4 1591   1.615   2.552   0.381  0.1953 -0.3884  0.4884
  385SOL     OW 1592   2.496   3.878   0.876 -0.1864 -0.5850  0.0890
  385SOL    HW2 1593   2.498   3.788   0.844 -1.5904 -0.8342  0.6561
  385SOL    HW3 1594   2.414   3.914   0.841 -0.9032 -0.3488  1.9530
  385SOL    MW4 1595   2.485   3.871   0.867 -0.4661 -0.5867  0.4098
  386SOL     OW 1596   4.034   2.456   0.749  0.3598  0.0910 -0.0701
  386SOL    HW2 1597   4.114   2.405   0.767  0.1533 -1.3068 -2.9539
  386SOL    HW3 1598   3.963   2.397   0.771  0.1191 -0.4082 -2.1615
  386SOL    MW4 1599   4.035   2.442   0.755  0.3009 -0.1593 -0.7266
  387SOL     OW 1600   1.125   1.326   0.439  0.1301 -0.2148 -0.5783
  387SOL    HW2 1601   1.040   1.283   0.438 -0.1054  0.2263  0.3415
  387SOL    HW3 1602   1.109   1.414   0.407  0.3614 -0.3379 -1.0451
  387SOL    MW4 1603   1.112   1.332   0.435  0.1295 -0.1726 -0.5186
  388SOL     OW 1604   1.280   4.086   0.214 -0.2326  0.2901  0.7082
  388SOL    HW2 1605   1.245   3.998   0.231  0.6677 -0.1082  0.5448
  388SOL    HW3 1606   1.243   4.110   0.129  0.1050 -0.2445  0.4029
  388SOL    MW4 1607   1.271   4.077   0.205 -0.0691  0.1669  0.6463
  389SOL     OW 1608   2.236   0.383   0.831  0.0541  0.0263 -0.5990
  389SOL    HW2 1609   2.169   0.442   0.795  1.1105  0.6435 -1.6022
  389SOL    HW3 1610   2.217   0.298   0.793 -0.8909 -0.0804  0.0875
  389SOL    MW4 1611   2.225   0.380   0.821  0.0687  0.0936 -0.6408
  390SOL     OW 1612   0.220   4.494   0.537  0.1573  0.5719  0.0743
  390SOL    HW2 1613   0.312   4.514   0.551 -0.3221  3.8692 -1.1357
  390SOL    HW3 1614   0.197   4.435   0.609  2.9244  0.5106  0.9654
  390SOL    MW4 1615   0.229   4.489   0.548  0.4592  0.9995  0.0322
  391SOL     OW 1616   3.156   0.885   0.714  0.2581 -0.2361 -0.5910
  391SOL    HW2 1617   3.097   0.843   0.776 -1.3747  0.4962 -1.6103
  391SOL    HW3 1618   3.157   0.977   0.740 -2.0773  0.5020 -2.8076
  391SOL    MW4 1619   3.148   0.892   0.726 -0.2658 -0.0421 -1.0180
  392SOL     OW 1620   3.377   1.519   0.892  0.0115  0.4740  0.1082
  392SOL    HW2 1621   3.367   1.530   0.986  0.7671  1.6470  0.0598
  392SOL    HW3 1622   3.296   1.555   0.855  0.3982  1.4741  0.2270
  392SOL    MW4 1623   3.365   1.525   0.899  0.1621  0.7606  0.1175
  393SOL     OW 1624   3.999   4.129   0.512  0.1781  0.1756 -0.2194
  393SOL    HW2 1625   3.909   4.133   0.479 -0.0742  1.1257  0.5859
  393SOL    HW3 1626   4.012   4.036   0.533 -0.5473 -0.0005 -0.5295
  393SOL    MW4 1627   3.989   4.117   0.510  0.0491  0.2775 -0.1541
  394SOL     OW 1628   1.288   0.929   0.462 -0.0735 -0.8994 -0.5181
  394SOL    HW2 1629   1.342   0.852   0.442 -0.5761 -0.9593 -1.6712
  394SOL    HW3 1630   1.204   0.911   0.420 -0.4578 -0.0718 -0.1135
  394SOL    MW4 1631   1.284   0.916   0.454 -0.1906 -0.7981 -0.6169
  395SOL     OW 1632   4.059   1.227   0.371 -0.1233  0.4848 -0.4101
  395SOL    HW2 1633   3.970   1.222   0.338  0.1673 -1.4318 -0.9253
  395SOL    HW3 1634   4.113   1.186   0.304  0.9368 -0.0113  0.7075
  395SOL    MW4 1635   4.055   1.221   0.358  0.0558  0.1665 -0.3306
  396SOL     OW 1636   4.461   1.432   0.418 -0.0649  0.3139  0.0070
  396SOL    HW2 1637   4.481   1.349   0.375  1.7438 -0.6313  2.6065
  396SOL    HW3 1638   4.369   1.423   0.445 -0.2786 -0.2780 -0.8860
  396SOL    MW4 1639   4.451   1.420   0.416  0.1459  0.1110  0.2322
  397SOL     OW 1640   2.681   1.920   0.849  0.4432  0.4029  0.4959
  397SOL    HW2 1641   2.749   1.976   0.812  0.6969  0.2660  0.7449
  397SOL    HW3 1642   2.704   1.913   0.942  0.6870 -0.4911  0.3736
  397SOL    MW4 1643   2.693   1.926   0.856  0.5085  0.2669  0.5126
  398SOL     OW 1644   0.850   0.929   0.497  0.1289  0.8287 -0.3182
  398SOL    HW2 1645   0.920   0.892   0.443  0.1022  0.3614 -0.0334
  398SOL    HW3 1646   0.887   0.931   0.585 -0.2866  0.3926 -0.1310
  398SOL    MW4 1647   0.864   0.924   0.501  0.0705  0.7095 -0.2560
  399SOL     OW 1648   2.216   0.125   0.752 -0.0484 -0.5597  0.1451
  399SOL    HW2 1649   2.226   0.105   0.659  0.4288 -0.1034  0.0993
  399SOL    HW3 1650   2.290   0.082   0.794  0.0895 -0.2235  0.2414
  399SOL    MW4 1651   2.227   0.117   0.745  0.0329 -0.4551  0.1518
  400SOL     OW 1652   2.655   2.438   0.788 -0.2410  0.0887 -0.5186
  400SOL    HW2 1653   2.667   2.530   0.813  2.1088 -0.5522  0.8471
  400SOL    HW3 1654   2.676   2.435   0.695  1.2353  0.6572 -0.2120
  400SOL    MW4 1655   2.659   2.450   0.779  0.2639  0.0787 -0.2980
  401SOL     OW 1656   2.955   2.828   0.771  0.1954 -0.1533  0.3250
  401SOL    HW2 1657   2.877   2.776   0.791  1.2879 -1.9720 -0.0020
  401SOL    HW3 1658   3.025   2.788   0.822  1.0688  1.0246  0.0867
  401SOL    MW4 1659   2.954   2.816   0.780  0.4549 -0.2379  0.2504
  402SOL     OW 1660   1.602   0.779   0.822 -0.3349  0.1650 -0.1918
  402SOL    HW2 1661   1.690   0.809   0.801 -0.7288  0.5595 -1.2904
  402SOL    HW3 1662   1.545   0.849   0.791 -1.0979 -0.5463 -0.3817
  402SOL    MW4 1663   1.606   0.792   0.815 -0.4874  0.1231 -0.3618
  403SOL     OW 1664   2.952   3.107   0.851 -0.1454  0.4388  0.2976
  403SOL    HW2 1665   2.867   3.139   0.823 -0.0859  0.3641  0.0300
  403SOL    HW3 1666   2.953   3.015   0.824 -0.4454  0.1238  1.3514
  403SOL    MW4 1667   2.941   3.099   0.844 -0.1771  0.3874  0.4013
  404SOL     OW 1668   2.703   3.174   0.730 -0.1057 -0.1914 -0.3813
  404SOL    HW2 1669   2.702   3.265   0.759 -0.0219  0.0284 -1.0447
  404SOL    HW3 1670   2.627   3.134   0.773  0.1271  0.0698  0.2790
  404SOL    MW4 1671   2.693   3.181   0.739 -0.0639 -0.1283 -0.3817
  405SOL     OW 1672   2.697   3.434   0.828  0.1795 -0.0749  0.5199
  405SOL    HW2 1673   2.690   3.456   0.921 -0.0686  0.7033  0.3202
  405SOL    HW3 1674   2.777   3.478   0.799 -0.5234  0.8901  0.0272
  405SOL    MW4 1675   2.707   3.442   0.837  0.0541  0.1552  0.4286
  406SOL     OW 1676   2.929   3.591   0.761 -0.1104  0.3633  0.0229
  406SOL    HW2 1677   2.928   3.683   0.790  3.1150 -0.1380  2.0187
  406SOL    HW3 1678   2.956   3.595   0.670  0.0350  1.4054  0.0993
  406SOL    MW4 1679   2.932   3.604   0.753  0.3345  0.4349  0.2962
  407SOL     OW 1680   2.912   3.870   0.848 -0.0147 -0.1238  0.3348
  407SOL    HW2 1681   2.847   3.923   0.802  1.0583  1.3074  0.4401
  407SOL    HW3 1682   2.890   3.880   0.941 -0.3707 -0.5950  0.2989
  407SOL    MW4 1683   2.901   3.878   0.854  0.0799  0.0026  0.3440
  408SOL     OW 1684   2.704   4.037   0.730  0.3021 -0.0509 -0.6913
  408SOL    HW2 1685   2.690   4.045   0.636 -0.7554 -0.6095 -0.5822
  408SOL    HW3 1686   2.638   3.974   0.759 -0.0295  0.8618  0.5722
  408SOL    MW4 1687   2.693   4.030   0.721  0.1187 -0.0043 -0.5102
  409SOL     OW 1688   2.688   4.293   0.838 -0.4456  0.5800  0.5597
  409SOL    HW2 1689   2.686   4.296   0.933  0.4380 -2.0156  0.7108
  409SOL    HW3 1690   2.690   4.199   0.817  1.3645  1.1180 -1.9520
  409SOL    MW4 1691   2.688   4.281   0.848 -0.0904  0.3085  0.2483
  410SOL     OW 1692   3.693   3.749   0.383 -0.4225 -0.2489  0.1180
  410SOL    HW2 1693   3.607   3.716   0.410 -1.0974  0.3766 -1.2856
  410SOL    HW3 1694   3.748   3.670   0.380 -1.5409 -1.0029 -1.2849
  410SOL    MW4 1695   3.689   3.734   0.386 -0.6592 -0.2658 -0.2524
  411SOL     OW 1696   3.378   0.023   0.805  0.4058  0.4946 -0.5715
  411SOL    HW2 1697   3.386   0.000   0.897  0.7586  2.0344 -0.2127
  411SOL    HW3 1698   3.455   0.077   0.787 -1.6734  3.4628 -0.7655
  411SOL    MW4 1699   3.389   0.027   0.814  0.1783  1.0896 -0.5497
  412SOL     OW 1700   2.723   1.201   0.781  0.1404 -0.2300 -0.2813
  412SOL    HW2 1701   2.802   1.249   0.755  0.7426  0.5754  2.8774
  412SOL    HW3 1702   2.651   1.250   0.740  1.1506 -0.0509 -1.8854
  412SOL    MW4 1703   2.724   1.214   0.772  0.3531 -0.1001 -0.0762
  413SOL     OW 1704   2.049   3.293   0.385  0.0546  0.1746 -0.2467
  413SOL    HW2 1705   2.018   3.277   0.295 -0.4054 -1.6588  0.2229
  413SOL    HW3 1706   2.043   3.388   0.395 -1.9855  0.2073 -1.4189
  413SOL    MW4 1707   2.044   3.303   0.374 -0.2756 -0.0629 -0.3394
  414SOL     OW 1708   3.123   0.130   0.754  0.1653 -0.4716 -0.0637
  414SOL    HW2 1709   3.137   0.221   0.779  0.0320 -0.9316  1.7594
  414SOL    HW3 1710   3.208   0.088   0.768 -0.5624 -1.2835  2.1207
  414SOL    MW4 1711   3.136   0.136   0.759  0.0520 -0.6394  0.4650
  415SOL     OW 1712   3.378   0.785   0.841 -0.0656  0.4028 -0.0755
  415SOL    HW2 1713   3.449   0.825   0.791 -0.9894  1.2984 -0.6649
  415SOL    HW3 1714   3.298   0.814   0.798 -0.7937 -0.9510  0.3267
  415SOL    MW4 1715   3.377   0.794   0.829 -0.2835  0.3424 -0.1001
  416SOL     OW 1716   3.531   1.567   0.504  0.0145 -0.1844 -0.3407
  416SOL    HW2 1717   3.606   1.518   0.472  1.0931  0.6030  0.9518
  416SOL    HW3 1718   3.457   1.508   0.492  0.7518 -0.7771 -2.0728
  416SOL    MW4 1719   3.531   1.553   0.498  0.2539 -0.1588 -0.3987
  417SOL     OW 1720   1.898   2.192   0.405 -0.2928  0.0265 -0.1314
  417SOL    HW2 1721   1.980   2.144   0.418 -1.3748 -1.7421  0.2046
  417SOL    HW3 1722   1.835   2.149   0.462 -1.8853  0.3597 -1.5876
  417SOL    MW4 1723   1.901   2.180   0.414 -0.6456 -0.1628 -0.2792
  418SOL     OW 1724   3.157   1.670   0.771  0.0432  0.0716  0.2578
  418SOL    HW2 1725   3.144   1.662   0.677 -1.5233 -0.5980  0.5192
  418SOL    HW3 1726   3.146   1.764   0.789 -1.2985 -0.0311  0.0032
  418SOL    MW4 1727   3.154   1.681   0.761 -0.3405 -0.0303  0.2587
  419SOL     OW 1728   2.964   1.331   0.693  0.1138 -0.4723  0.3276
  419SOL    HW2 1729   3.034   1.273   0.720 -0.3272 -1.0285  0.2804
  419SOL    HW3 1730   2.988   1.361   0.605  1.6040  1.4140  1.3381
  419SOL    MW4 1731   2.976   1.327   0.685  0.2525 -0.2968  0.4547
  420SOL     OW 1732   1.322   0.452   0.480 -0.5887  0.7065  0.5655
  420SOL    HW2 1733   1.360   0.386   0.422  0.6144  0.2814  1.8111
  420SOL    HW3 1734   1.354   0.428   0.568 -2.5422  1.2130  1.4344
  420SOL    MW4 1735   1.331   0.440   0.484 -0.6877  0.7173  0.8444
  421SOL     OW 1736   3.145   1.946   0.818 -0.1600  0.1607  0.4221
  421SOL    HW2 1737   3.059   1.981   0.795 -0.4851 -1.0203 -0.2350
  421SOL    HW3 1738   3.150   1.954   0.913 -1.3104 -0.4348  0.5398
  421SOL    MW4 1739   3.134   1.951   0.828 -0.3548 -0.0737  0.3510
  422SOL     OW 1740   3.127   4.561   0.423  1.1161  0.2780  0.0954
  422SOL    HW2 1741   3.090   4.648   0.432  0.9314  0.2003  0.0941
  422SOL    HW3 1742   3.051   4.503   0.419  1.2464 -0.0308  1.6192
  422SOL    MW4 1743   3.112   4.565   0.424  1.1091  0.2270  0.2963
  423SOL     OW 1744   2.893   2.088   0.754  0.1323 -0.0068 -0.2849
  423SOL    HW2 1745   2.914   2.112   0.664 -2.2636  1.3965 -0.5007
  423SOL    HW3 1746   2.901   2.170   0.803 -0.5990 -0.3301  0.3862
  423SOL    MW4 1747   2.897   2.102   0.749 -0.2806  0.1357 -0.2248
  424SOL     OW 1748   2.925   1.861   0.449 -0.1770 -0.0983 -0.6967
  424SOL    HW2 1749   2.964   1.943   0.417  0.3771 -0.4948 -1.0456
  424SOL    HW3 1750   2.832   1.881   0.458 -0.1160  0.4437 -1.2036
  424SOL    MW4 1751   2.918   1.874   0.446 -0.0956 -0.0792 -0.8096
  425SOL     OW 1752   3.351   2.846   0.797  0.1628  0.0099 -0.1163
  425SOL    HW2 1753   3.339   2.828   0.704 -0.4286 -0.4406  0.0461
  425SOL    HW3 1754   3.433   2.801   0.820 -0.5248 -1.2432 -0.0559
  425SOL    MW4 1755   3.360   2.837   0.788 -0.0062 -0.2148 -0.0870
  426SOL     OW 1756   2.856   4.433   0.457 -0.6044  0.0565  0.3864
  426SOL    HW2 1757   2.842   4.527   0.470 -0.1555  0.0185  1.1976
  426SOL    HW3 1758   2.885   4.401   0.543 -2.2899 -1.1160  0.5478
  426SOL    MW4 1759   2.858   4.441   0.470 -0.7672 -0.1035  0.5147
  427SOL     OW 1760   3.157   2.697   0.888 -0.0466  0.5091  0.2529
  427SOL    HW2 1761   3.237   2.735   0.852  0.3116 -0.3793  0.1064
  427SOL    HW3 1762   3.152   2.610   0.848 -0.2626 -0.0378  1.4676
  427SOL    MW4 1763   3.167   2.691   0.878 -0.0279  0.3197  0.3938
  428SOL     OW 1764   3.165   3.222   0.749 -0.1992  0.0119 -0.1273
  428SOL    HW2 1765   3.235   3.186   0.803 -1.4654 -0.9589  0.9014
  428SOL    HW3 1766   3.085   3.183   0.784 -1.3840  2.0388 -0.5033
  428SOL    MW4 1767   3.164   3.212   0.761 -0.5226  0.1512 -0.0412
  429SOL     OW 1768   3.161   3.470   0.867 -0.6222 -0.2668  0.3057
  429SOL    HW2 1769   3.157   3.380   0.836 -0.3126 -0.0002 -0.5082
  429SOL    HW3 1770   3.086   3.513   0.826  0.0863  0.2151 -0.5033
  429SOL    MW4 1771   3.151   3.464   0.858 -0.4880 -0.1678  0.0916
  430SOL     OW 1772   3.373   3.579   0.723  0.1425 -0.0918 -0.2136
  430SOL    HW2 1773   3.381   3.661   0.771 -0.4870 -0.3751  0.3869
  430SOL    HW3 1774   3.295   3.537   0.760 -0.2101 -0.4240 -1.3118
  430SOL    MW4 1775   3.364   3.584   0.734  0.0129 -0.1729 -0.2792
  431SOL     OW 1776   3.394   3.819   0.853  0.1128  0.8224  0.3416
  431SOL    HW2 1777   3.396   3.839   0.947  0.8727  1.6121  0.1607
  431SOL    HW3 1778   3.448   3.887   0.813 -0.3760  0.6041 -0.6943
  431SOL    MW4 1779   3.401   3.830   0.860  0.1488  0.8976  0.1811
  432SOL     OW 1780   3.164   4.250   0.814  0.1277  0.8869  0.1283
  432SOL    HW2 1781   3.169   4.163   0.775 -1.0869  0.8843 -0.0180
  432SOL    HW3 1782   3.232   4.301   0.769  1.1471 -0.0999  0.5339
  432SOL    MW4 1783   3.174   4.246   0.803  0.1020  0.7558  0.1625
  433SOL     OW 1784   2.954   4.394   0.720  0.2607  0.2681  0.4148
  433SOL    HW2 1785   2.878   4.352   0.761 -0.3534  0.6733 -0.3099
  433SOL    HW3 1786   3.028   4.339   0.746 -0.4296 -0.8026  0.1475
  433SOL    MW4 1787   2.954   4.381   0.729  0.0885  0.1798  0.2838
  434SOL     OW 1788   3.357   4.406   0.712  0.3698  0.1683 -0.1788
  434SOL    HW2 1789   3.370   4.427   0.620  0.9533  1.2702  0.1418
  434SOL    HW3 1790   3.361   4.491   0.757 -1.6133 -0.1637  0.6681
  434SOL    MW4 1791   3.359   4.420   0.706  0.1853  0.2699 -0.0247
  435SOL     OW 1792   3.817   4.641   0.865  0.0117 -0.6158  0.2330
  435SOL    HW2 1793   3.893   4.677   0.818 -0.2256 -1.1359 -0.5493
  435SOL    HW3 1794   3.743   4.693   0.835  0.0493 -0.1176  0.9884
  435SOL    MW4 1795   3.817   4.653   0.855 -0.0145 -0.6185  0.2295
  436SOL     OW 1796   3.615   0.135   0.741 -0.6130 -0.1692  0.0709
  436SOL    HW2 1797   3.616   0.228   0.763  1.3698  0.0174 -0.6225
  436SOL    HW3 1798   3.635   0.133   0.647  0.8022 -1.3257  0.3698
  436SOL    MW4 1799   3.618   0.147   0.732 -0.1647 -0.2971  0.0188
  437SOL     OW 1800   3.181   0.408   0.812 -0.0195 -0.0655 -0.1075
  437SOL    HW2 1801   3.258   0.442   0.767 -0.0767  0.4941  0.2181
  437SOL    HW3 1802   3.197   0.427   0.904 -1.0789  1.1042 -0.1519
  437SOL    MW4 1803   3.193   0.415   0.818 -0.1669  0.1627 -0.0705
  438SOL     OW 1804   4.241   3.703   0.542 -0.4200  0.7696  0.1476
  438SOL    HW2 1805   4.299   3.777   0.529 -0.3548  0.7751  0.4717
  438SOL    HW3 1806   4.153   3.741   0.545 -0.3084  0.9415  1.2880
  438SOL    MW4 1807   4.237   3.718   0.541 -0.3963  0.7930  0.3409
  439SOL     OW 1808   4.258   0.549   0.704 -0.1201 -0.4350  0.0434
  439SOL    HW2 1809   4.241   0.619   0.766 -0.8754 -0.8608  0.3207
  439SOL    HW3 1810   4.338   0.507   0.737 -0.8177 -1.0034  1.0357
  439SOL    MW4 1811   4.266   0.553   0.716 -0.3123 -0.5662  0.2109
  440SOL     OW 1812   3.794   0.773   0.825  0.2019 -0.2775 -0.3096
  440SOL    HW2 1813   3.792   0.777   0.921  0.3874 -1.0147 -0.2739
  440SOL    HW3 1814   3.716   0.821   0.797 -0.4947 -1.0905  0.2413
  440SOL    MW4 1815   3.783   0.780   0.834  0.1345 -0.4820 -0.2322
  441SOL     OW 1816   3.591   0.911   0.702  0.1984 -0.2015 -0.6353
  441SOL    HW2 1817   3.587   1.000   0.737  1.9349 -0.1746 -0.4816
  441SOL    HW3 1818   3.586   0.923   0.607 -1.2572 -0.0628 -0.5514
  441SOL    MW4 1819   3.590   0.924   0.694  0.2353 -0.1796 -0.6040
  442SOL     OW 1820   3.022   4.045   0.374 -0.1996  0.0664 -0.0417
  442SOL    HW2 1821   3.081   3.975   0.402 -0.7312 -0.5688 -0.4947
  442SOL    HW3 1822   3.063   4.126   0.406  1.3383 -0.2866 -1.0868
  442SOL    MW4 1823   3.035   4.047   0.382 -0.0670 -0.0644 -0.2394
  443SOL     OW 1824   3.789   1.551   0.863  0.0672  0.2023 -0.4520
  443SOL    HW2 1825   3.861   1.604   0.831 -0.2981  0.2785 -1.1605
  443SOL    HW3 1826   3.710   1.599   0.838 -0.2392  0.0186  0.1353
  443SOL    MW4 1827   3.788   1.564   0.856 -0.0210  0.1881 -0.4680
  444SOL     OW 1828   3.560   1.689   0.769  0.0534 -0.5592 -0.0792
  444SOL    HW2 1829   3.548   1.644   0.686 -2.3177 -0.1709  0.0136
  444SOL    HW3 1830   3.506   1.640   0.832  1.8212 -0.8639  1.2436
  444SOL    MW4 1831   3.551   1.677   0.767 -0.0260 -0.5481  0.1076
  445SOL     OW 1832   0.612   0.807   0.451 -0.1055  0.1404  0.1242
  445SOL    HW2 1833   0.584   0.813   0.542  0.3833 -0.5543  0.3252
  445SOL    HW3 1834   0.701   0.842   0.451 -0.7080  1.6763 -0.3836
  445SOL    MW4 1835   0.620   0.812   0.463 -0.1205  0.2514  0.0837
  446SOL     OW 1836   3.808   2.295   0.836  0.1369  0.2463  0.4371
  446SOL    HW2 1837   3.803   2.300   0.931 -0.8646  2.1624  0.3141
  446SOL    HW3 1838   3.726   2.334   0.805  0.4278 -0.3827 -1.2069
  446SOL    MW4 1839   3.796   2.301   0.844  0.0432  0.4158  0.2040
  447SOL     OW 1840   3.359   2.106   0.759  0.5852 -0.0107  0.2721
  447SOL    HW2 1841   3.423   2.043   0.792 -0.1264  0.3737  2.4916
  447SOL    HW3 1842   3.274   2.063   0.770  0.1879  0.8549  0.7223
  447SOL    MW4 1843   3.356   2.092   0.765  0.4387  0.1540  0.6243
  448SOL     OW 1844   2.957   2.753   0.512  0.0405 -0.1310 -0.7454
  448SOL    HW2 1845   2.961   2.770   0.606  0.6088 -0.2434 -0.7496
  448SOL    HW3 1846   3.019   2.682   0.497  1.2890  1.0974 -1.4719
  448SOL    MW4 1847   2.965   2.746   0.522  0.2804  0.0160 -0.8417
  449SOL     OW 1848   3.600   2.709   0.823  0.0173  0.2874  0.1607
  449SOL    HW2 1849   3.630   2.715   0.913  0.9059 -0.4849 -0.0794
  449SOL    HW3 1850   3.676   2.731   0.770 -0.0138 -0.9859 -0.4388
  449SOL    MW4 1851   3.614   2.712   0.828  0.1307  0.0179  0.0499
  450SOL     OW 1852   2.583   1.619   0.486  0.0615  0.4707  0.2213
  450SOL    HW2 1853   2.617   1.647   0.572  0.6969  2.7394 -0.7346
  450SOL    HW3 1854   2.488   1.631   0.494 -0.0252 -0.6152  1.0371
  450SOL    MW4 1855   2.575   1.624   0.499  0.1340  0.6267  0.2028
  451SOL     OW 1856   4.072   2.728   0.843 -0.2541  0.7201 -0.3644
  451SOL    HW2 1857   4.157   2.750   0.804 -0.4924 -0.2151 -1.4435
  451SOL    HW3 1858   4.062   2.634   0.827 -0.8566  0.5424  1.0112
  451SOL    MW4 1859   4.082   2.718   0.836 -0.3648  0.5732 -0.3253
  452SOL     OW 1860   0.839   0.145   0.475  0.1332  0.3859 -0.1424
  452SOL    HW2 1861   0.874   0.156   0.564  2.5232  2.4846 -1.2719
  452SOL    HW3 1862   0.844   0.051   0.459  0.1267  0.0355  1.7576
  452SOL    MW4 1863   0.844   0.134   0.485  0.4477  0.6166 -0.0407
  453SOL     OW 1864   3.799   3.567   0.769  0.1266  0.1317  0.2083
  453SOL    HW2 1865   3.874   3.518   0.803 -0.0362 -0.3426 -0.1176
  453SOL    HW3 1866   3.723   3.524   0.808 -0.1996 -1.8124 -2.4583
  453SOL    MW4 1867   3.799   3.555   0.779  0.0620 -0.1874 -0.1866
  454SOL     OW 1868   1.617   1.273   0.720  0.2280  0.3796  0.2039
  454SOL    HW2 1869   1.606   1.360   0.760 -1.6508 -0.1472  0.9131
  454SOL    HW3 1870   1.597   1.286   0.628 -2.8796  0.2035  0.7979
  454SOL    MW4 1871   1.613   1.287   0.713 -0.4299  0.2869  0.3759
  455SOL     OW 1872   3.783   3.826   0.681  0.7031  0.6144 -0.3820
  455SOL    HW2 1873   3.769   3.748   0.733  0.2758  1.8803  1.4315
  455SOL    HW3 1874   3.710   3.884   0.703 -0.6374  0.4172 -3.8895
  455SOL    MW4 1875   3.772   3.824   0.691  0.4699  0.7555 -0.6055
  456SOL     OW 1876   4.139   0.146   0.537 -0.1544  0.0832 -0.0464
  456SOL    HW2 1877   4.204   0.090   0.495  0.3433 -0.1512  1.0156
  456SOL    HW3 1878   4.062   0.141   0.480  1.2404  1.5114 -2.0803
  456SOL    MW4 1879   4.137   0.138   0.524  0.0954  0.2407 -0.1747
  457SOL     OW 1880   3.743   4.405   0.722 -0.1583  0.1305  0.2841
  457SOL    HW2 1881   3.825   4.356   0.735 -0.7813 -0.8525  0.5958
  457SOL    HW3 1882   3.761   4.491   0.758  1.2795  0.4644 -1.1375
  457SOL    MW4 1883   3.756   4.410   0.728 -0.0508  0.0453  0.1376
  458SOL     OW 1884   4.042   0.110   0.784 -0.0796 -0.1709  0.0469
  458SOL    HW2 1885   4.031   0.199   0.819 -1.1334 -0.9137  1.6142
  458SOL    HW3 1886   4.085   0.124   0.699  0.1051  1.8150  0.4318
  458SOL    MW4 1887   4.047   0.124   0.777 -0.1941 -0.0069  0.3045
  459SOL     OW 1888   4.308   4.646   0.835 -0.0844  0.0876 -0.2905
  459SOL    HW2 1889   4.299   4.644   0.930  0.5104  0.5571 -0.2263
  459SOL    HW3 1890   4.221   4.670   0.803 -0.9776 -2.5446  0.0129
  459SOL    MW4 1891   4.295   4.649   0.843 -0.1240 -0.1974 -0.2420
  460SOL     OW 1892   4.061   0.400   0.843 -0.1619 -0.1368 -0.1681
  460SOL    HW2 1893   4.144   0.439   0.816  0.2941 -0.8747  0.1591
  460SOL    HW3 1894   3.995   0.444   0.789  0.6336 -0.9495 -1.8377
  460SOL    MW4 1895   4.063   0.411   0.833  0.0029 -0.3414 -0.3451
  461SOL     OW 1896   2.628   4.068   0.470  0.2317 -0.2109  0.1796
  461SOL    HW2 1897   2.616   4.155   0.433  0.4056  0.1606  0.9797
  461SOL    HW3 1898   2.674   4.019   0.402  0.0463  0.2966 -0.3108
  461SOL    MW4 1899   2.633   4.073   0.456  0.2301 -0.0954  0.2205
  462SOL     OW 1900   3.583   0.389   0.824 -0.4490 -0.0170 -0.2047
  462SOL    HW2 1901   3.659   0.428   0.781 -1.1149  0.7015 -0.7381
  462SOL    HW3 1902   3.607   0.385   0.917  0.4939 -0.4061 -0.4557
  462SOL    MW4 1903   3.596   0.394   0.831 -0.4122  0.0264 -0.3081
  463SOL     OW 1904   4.409   2.825   0.467 -0.1938 -0.5293  0.1569
  463SOL    HW2 1905   4.379   2.892   0.406 -0.3768  0.6833  1.5305
  463SOL    HW3 1906   4.361   2.746   0.443 -0.4100 -0.0172 -1.1170
  463SOL    MW4 1907   4.399   2.824   0.456 -0.2465 -0.3018  0.1700
  464SOL     OW 1908   0.725   2.301   0.432  0.1398 -0.5780  0.2697
  464SOL    HW2 1909   0.818   2.308   0.455 -0.3234 -0.1295  2.0171
  464SOL    HW3 1910   0.706   2.207   0.440  0.1024 -0.4877  1.2152
  464SOL    MW4 1911   0.735   2.289   0.436  0.0737 -0.5069  0.6250
  465SOL     OW 1912   3.800   3.511   0.484  0.2866 -0.2878 -0.2277
  465SOL    HW2 1913   3.797   3.539   0.576 -0.6927 -0.8580 -0.0783
  465SOL    HW3 1914   3.877   3.454   0.478  0.1323 -0.5532  0.3253
  465SOL    MW4 1915   3.810   3.507   0.495  0.1369 -0.3979 -0.1350
  466SOL     OW 1916   3.831   1.300   0.745 -0.2626 -0.4416  0.4469
  466SOL    HW2 1917   3.824   1.381   0.796 -0.6370 -0.5456  0.5630
  466SOL    HW3 1918   3.753   1.250   0.769  0.4524 -1.2588  1.0995
  466SOL    MW4 1919   3.820   1.304   0.755 -0.2172 -0.5631  0.5483
  467SOL     OW 1920   4.261   1.510   0.850 -0.1432  0.2478  0.1610
  467SOL    HW2 1921   4.259   1.503   0.946  0.0855 -0.0710  0.1453
  467SOL    HW3 1922   4.278   1.420   0.821 -1.1492  0.1782 -0.2075
  467SOL    MW4 1923   4.263   1.497   0.859 -0.2460  0.1966  0.1103
  468SOL     OW 1924   2.768   1.420   0.430  0.3969 -0.1482  0.3077
  468SOL    HW2 1925   2.717   1.343   0.455  1.9993 -0.7108  1.9586
  468SOL    HW3 1926   2.710   1.494   0.449 -0.8390 -0.8777 -0.5141
  468SOL    MW4 1927   2.754   1.420   0.436  0.4454 -0.3188  0.4171
  469SOL     OW 1928   3.523   2.016   0.329  0.1122 -0.5855  0.7493
  469SOL    HW2 1929   3.484   1.945   0.381  1.5001 -0.7299  1.5996
  469SOL    HW3 1930   3.554   1.973   0.249 -3.4325 -0.1126 -0.9817
  469SOL    MW4 1931   3.522   2.001   0.325 -0.1724 -0.5424  0.6331
  470SOL     OW 1932   4.483   4.146   0.375  0.4034  0.1000 -0.2065
  470SOL    HW2 1933   4.393   4.166   0.346  0.8926  0.1583 -1.7449
  470SOL    HW3 1934   4.474   4.062   0.420 -0.7488  1.0765  1.4419
  470SOL    MW4 1935   4.470   4.137   0.377  0.3157  0.2360 -0.1920
  471SOL     OW 1936   4.470   1.688   0.779 -0.3229  0.0068  0.2651
  471SOL    HW2 1937   4.461   1.686   0.684 -1.0900  0.4692  0.3199
  471SOL    HW3 1938   4.414   1.617   0.810  1.1513 -1.1604  0.2969
  471SOL    MW4 1939   4.461   1.679   0.771 -0.2294 -0.0862  0.2765
  472SOL     OW 1940   1.798   3.985   0.773  0.2488  0.6073 -0.5540
  472SOL    HW2 1941   1.807   4.069   0.818 -2.9145  0.6450  0.1378
  472SOL    HW3 1942   1.745   4.004   0.695 -0.7129 -0.7639 -0.2644
  472SOL    MW4 1943   1.792   3.998   0.768 -0.2954  0.4311 -0.4244
  473SOL     OW 1944   3.827   2.821   0.725 -0.0713  0.0074 -0.4562
  473SOL    HW2 1945   3.898   2.788   0.780 -0.4193 -1.0336 -0.6220
  473SOL    HW3 1946   3.804   2.906   0.763  2.2216  1.0181 -1.2616
  473SOL    MW4 1947   3.833   2.828   0.737  0.1853  0.0038 -0.5844
  474SOL     OW 1948   0.636   0.532   0.466 -0.1015 -0.3499 -0.4475
  474SOL    HW2 1949   0.558   0.495   0.423 -0.3453  0.9783 -1.1563
  474SOL    HW3 1950   0.633   0.625   0.446  0.8550 -0.0313  0.8104
  474SOL    MW4 1951   0.625   0.539   0.458 -0.0075 -0.1326 -0.3751
  475SOL     OW 1952   4.039   3.206   0.783 -0.0449  0.2745 -0.1773
  475SOL    HW2 1953   4.036   3.293   0.822 -0.5393  0.0279  0.3395
  475SOL    HW3 1954   4.125   3.171   0.807  0.1252  0.5886 -0.3245
  475SOL    MW4 1955   4.050   3.213   0.791 -0.0877  0.2835 -0.1285
  476SOL     OW 1956   4.032   3.466   0.877 -0.3519  0.5282 -0.4948
  476SOL    HW2 1957   4.048   3.476   0.971  0.2688 -1.2295 -0.3841
  476SOL    HW3 1958   4.114   3.492   0.835 -0.2876  0.3534 -0.4799
  476SOL    MW4 1959   4.045   3.470   0.884 -0.2618  0.2732 -0.4782
  477SOL     OW 1960   4.277   3.417   0.434 -0.2998 -0.1277  0.2444
  477SOL    HW2 1961   4.198   3.396   0.483 -0.5206  1.5672  0.6484
  477SOL    HW3 1962   4.271   3.511   0.417  1.5553  0.0067  0.1566
  477SOL    MW4 1963   4.266   3.427   0.438 -0.0844  0.1137  0.2861
  478SOL     OW 1964   4.268   3.581   0.791 -0.2605 -0.0552  0.1170
  478SOL    HW2 1965   4.279   3.585   0.696 -0.7031  0.1181  0.0716
  478SOL    HW3 1966   4.261   3.673   0.818 -0.5863 -0.1222  0.2621
  478SOL    MW4 1967   4.268   3.594   0.782 -0.3619 -0.0412  0.1302
  479SOL     OW 1968   4.265   3.847   0.884  0.2397  0.1336 -0.4277
  479SOL    HW2 1969   4.280   3.851   0.979  0.2281 -0.2272 -0.4098
  479SOL    HW3 1970   4.171   3.865   0.875  0.5211  1.6544 -0.4868
  479SOL    MW4 1971   4.254   3.850   0.896  0.2747  0.2868 -0.4331
  480SOL     OW 1972   3.962   3.951   0.880 -0.1756  0.1396  0.1599
  480SOL    HW2 1973   3.909   3.917   0.807 -0.6473  0.7078  0.2346
  480SOL    HW3 1974   3.984   4.040   0.853  0.7228 -0.0881  0.1441
  480SOL    MW4 1975   3.958   3.958   0.867 -0.1192  0.1848  0.1676
  481SOL     OW 1976   3.993   4.260   0.790 -0.0777  0.6368 -0.2140
  481SOL    HW2 1977   4.077   4.304   0.799  0.5078 -0.5103 -0.0405
  481SOL    HW3 1978   3.990   4.230   0.699 -0.7173  1.5043 -0.4887
  481SOL    MW4 1979   4.004   4.262   0.779 -0.0849  0.5999 -0.2273
  482SOL     OW 1980   0.198   4.385   0.809  0.1945 -0.2649  0.6004
  482SOL    HW2 1981   0.273   4.335   0.841 -0.0615 -0.4213  0.9539
  482SOL    HW3 1982   0.122   4.342   0.847 -0.2564 -1.7050 -1.8072
  482SOL    MW4 1983   0.198   4.373   0.818  0.1012 -0.4754  0.3294
  483SOL     OW 1984   0.253   0.023   1.174  0.5409  0.2604  0.1602
  483SOL    HW2 1985   0.309   0.094   1.204 -0.4595  0.5992  1.2461
  483SOL    HW3 1986   0.255   0.030   1.078  0.8283  1.4438  0.2518
  483SOL    MW4 1987   0.260   0.033   1.165  0.4468  0.4611  0.3154
  484SOL     OW 1988   0.011   0.132   1.216 -1.0084  0.0452  0.0386
  484SOL    HW2 1989  -0.058   0.086   1.169 -0.1887 -1.2103  0.0441
  484SOL    HW3 1990   0.092   0.087   1.191 -0.3274  0.7240  0.9625
  484SOL    MW4 1991   0.013   0.120   1.207 -0.8104 -0.0309  0.1612
  485SOL     OW 1992   4.479   0.398   1.121 -0.6605  0.7533 -0.6914
  485SOL    HW2 1993   4.414   0.431   1.184 -2.9990 -1.2489 -1.9320
  485SOL    HW3 1994   4.480   0.303   1.136  1.0818  0.6222 -1.5490
  485SOL    MW4 1995   4.470   0.390   1.131 -0.7392  0.4719 -0.9683
  486SOL     OW 1996   0.225   0.494   1.232 -0.2420 -0.1320 -0.1151
  486SOL    HW2 1997   0.258   0.565   1.177  0.4811  0.0461  0.5345
  486SOL    HW3 1998   0.146   0.464   1.188 -1.9236  2.7050  0.8849
  486SOL    MW4 1999   0.219   0.499   1.219 -0.3685  0.2658  0.1025
  487SOL     OW 2000   0.240   0.742   1.079 -0.2102 -0.0053 -0.7992
  487SOL    HW2 2001   0.314   0.791   1.114  0.9473 -1.9371 -0.5218
  487SOL    HW3 2002   0.166   0.768   1.135  0.7091  0.2329  0.3166
  487SOL    MW4 2003   0.240   0.752   1.091  0.0638 -0.2288 -0.6152
  488SOL     OW 2004   0.034   0.846   1.241 -0.1375  0.2479  0.1862
  488SOL    HW2 2005   0.030   0.842   1.336  0.7019 -0.5727  0.1976
  488SOL    HW3 2006  -0.053   0.820   1.212  0.0554 -1.0444  0.7128
  488SOL    MW4 2007   0.022   0.842   1.250 -0.0013 -0.0309  0.2571
  489SOL     OW 2008   0.023   1.127   1.147  0.1153 -0.0292 -0.1459
  489SOL    HW2 2009  -0.062   1.159   1.176 -0.1734 -1.4687  0.6259
  489SOL    HW3 2010   0.027   1.036   1.177  1.6978 -0.1525 -0.6451
  489SOL    MW4 2011   0.013   1.119   1.155  0.2859 -0.2353 -0.1099
  490SOL     OW 2012   0.215   1.310   1.238 -0.6185  0.3230  0.3071
  490SOL    HW2 2013   0.289   1.272   1.190 -0.5261  1.7399 -0.6820
  490SOL    HW3 2014   0.139   1.261   1.207 -0.1082 -1.1802  1.3723
  490SOL    MW4 2015   0.215   1.298   1.228 -0.5389  0.3116  0.3171
  491SOL     OW 2016   0.258   1.594   1.182 -0.2594 -0.0952  0.0104
  491SOL    HW2 2017   0.265   1.499   1.192 -2.1299 -0.0822  1.7597
  491SOL    HW3 2018   0.243   1.608   1.089  0.2032 -1.4935 -0.2836
  491SOL    MW4 2019   0.257   1.583   1.171 -0.4451 -0.2780  0.2024
  492SOL     OW 2020   4.489   1.656   1.269 -0.2500  0.0654  0.2867
  492SOL    HW2 2021   4.489   1.748   1.244 -1.4409  0.0490  0.1979
  492SOL    HW3 2022   4.577   1.625   1.248 -0.1653  0.9251 -0.6456
  492SOL    MW4 2023   4.501   1.664   1.263 -0.3953  0.1768  0.1520
  493SOL     OW 2024   4.472   1.944   1.139 -0.1215 -0.5244 -0.1502
  493SOL    HW2 2025   4.392   1.983   1.173  1.1579  1.2410  0.9156
  493SOL    HW3 2026   4.457   1.934   1.045 -1.5084 -0.0539  0.0237
  493SOL    MW4 2027   4.460   1.948   1.131 -0.1359 -0.2295  0.0134
  494SOL     OW 2028   0.214   2.047   1.249 -0.0466  0.7539  0.5409
  494SOL    HW2 2029   0.238   2.122   1.195 -3.3461  1.5077 -0.0339
  494SOL    HW3 2030   0.126   2.023   1.218 -0.3504 -1.3452  2.8641
  494SOL    MW4 2031   0.205   2.054   1.238 -0.5220  0.5763  0.7715
  495SOL     OW 2032   0.256   2.277   1.079 -0.5050  0.0805 -0.3000
  495SOL    HW2 2033   0.319   2.338   1.118 -1.5306  0.8406  0.1769
  495SOL    HW3 2034   0.171   2.313   1.102 -1.1167 -0.6952 -1.3502
  495SOL    MW4 2035   0.253   2.290   1.088 -0.7210  0.0782 -0.3756
  496SOL     OW 2036   0.038   2.387   1.198  0.1878 -0.4210 -0.2618
  496SOL    HW2 2037   0.039   2.382   1.294  0.4932 -0.3350 -0.2598
  496SOL    HW3 2038  -0.055   2.381   1.175 -0.0876  1.8001  0.1699
  496SOL    MW4 2039   0.026   2.386   1.208  0.1917 -0.1166 -0.2046
  497SOL     OW 2040   0.014   2.651   1.089  0.1095  0.6308  0.3644
  497SOL    HW2 2041  -0.066   2.692   1.120  0.2845  0.9733  0.3618
  497SOL    HW3 2042   0.026   2.575   1.147  0.0758  0.8896  0.7117
  497SOL    MW4 2043   0.005   2.646   1.101  0.1282  0.7102  0.4098
  498SOL     OW 2044   0.206   2.825   1.194  0.0424 -0.6608  0.1098
  498SOL    HW2 2045   0.200   2.815   1.289  0.4164  0.3713  0.2573
  498SOL    HW3 2046   0.138   2.768   1.159 -1.1084  0.0938  1.0720
  498SOL    MW4 2047   0.196   2.816   1.202 -0.0601 -0.4251  0.2563
  499SOL     OW 2048   0.219   3.106   1.138 -0.1311 -0.6374 -0.1474
  499SOL    HW2 2049   0.301   3.138   1.174  0.2713 -1.4472 -0.3303
  499SOL    HW3 2050   0.217   3.013   1.163 -1.4998 -0.3739  0.7964
  499SOL    MW4 2051   0.230   3.098   1.146 -0.2586 -0.7095 -0.0471
  500SOL     OW 2052   0.002   3.233   1.260  0.0090 -0.0055 -0.7079
  500SOL    HW2 2053  -0.070   3.184   1.221 -0.2235  0.4939 -0.9074
  500SOL    HW3 2054   0.081   3.192   1.224 -0.1665 -0.7064 -0.3032
  500SOL    MW4 2055   0.003   3.221   1.250 -0.0443 -0.0317 -0.6808
  501SOL     OW 2056   0.035   3.495   1.173 -0.2496  0.1633  0.3438
  501SOL    HW2 2057   0.011   3.413   1.215  0.4106  0.0516  0.5065
  501SOL    HW3 2058   0.029   3.477   1.079 -0.4604  0.0404  0.3801
  501SOL    MW4 2059   0.031   3.482   1.166 -0.1903  0.1323  0.3700
  502SOL     OW 2060   0.266   3.584   1.299  0.6289 -0.6155 -0.1486
  502SOL    HW2 2061   0.242   3.573   1.391 -1.3976  1.7442 -0.3311
  502SOL    HW3 2062   0.191   3.550   1.250  0.6598  0.3245 -0.8665
  502SOL    MW4 2063   0.253   3.578   1.304  0.3656 -0.1802 -0.2673
  503SOL     OW 2064   0.296   3.849   1.214  0.1752  0.1498 -0.4074
  503SOL    HW2 2065   0.212   3.883   1.247 -0.1092  0.5831 -1.5434
  503SOL    HW3 2066   0.301   3.760   1.248  0.0622  0.7039  1.0940
  503SOL    MW4 2067   0.285   3.842   1.223  0.1228  0.2804 -0.3592
  504SOL     OW 2068   0.052   3.990   1.281  0.1414 -0.6272 -0.0114
  504SOL    HW2 2069   0.044   4.006   1.375 -1.1498  0.4369 -0.2873
  504SOL    HW3 2070  -0.033   3.955   1.254  0.7118 -1.5392 -0.6755
  504SOL    MW4 2071   0.040   3.988   1.290  0.0464 -0.6070 -0.1354
  505SOL     OW 2072   4.490   4.214   1.147  0.1586 -0.0463 -0.1762
  505SOL    HW2 2073   4.553   4.280   1.177 -0.3075  0.4212 -0.2316
  505SOL    HW3 2074   4.510   4.136   1.200  1.7437 -0.3559 -1.1939
  505SOL    MW4 2075   4.501   4.212   1.158  0.3061 -0.0257 -0.3178
  506SOL     OW 2076   0.216   4.376   1.217  0.2276  0.0821  0.5700
  506SOL    HW2 2077   0.229   4.364   1.311 -1.5803  2.0476  1.1195
  506SOL    HW3 2078   0.237   4.468   1.201 -1.6393  0.3497 -0.5273
  506SOL    MW4 2079   0.220   4.387   1.227 -0.2572  0.3767  0.4977
  507SOL     OW 2080   0.713   0.052   1.174 -0.1437  0.3898  0.0899
  507SOL    HW2 2081   0.791   0.100   1.200  0.0436  0.7954 -1.1851
  507SOL    HW3 2082   0.733  -0.040   1.193  0.5921  0.5100 -0.1140
  507SOL    MW4 2083   0.726   0.046   1.180 -0.0219  0.4592 -0.1053
  508SOL     OW 2084   0.473   0.167   1.267 -0.0803 -0.7032 -0.8374
  508SOL    HW2 2085   0.485   0.254   1.229 -0.1178 -0.7221 -0.8931
  508SOL    HW3 2086   0.551   0.118   1.240 -1.3641 -1.5295 -3.1726
  508SOL    MW4 2087   0.485   0.172   1.258 -0.2547 -0.8147 -1.1529
  509SOL     OW 2088   0.472   0.401   1.144 -0.1343 -0.1118  0.1220
  509SOL    HW2 2089   0.383   0.419   1.173 -0.5473 -1.5900 -0.2182
  509SOL    HW3 2090   0.468   0.403   1.049 -0.1457 -1.6983  0.0734
  509SOL    MW4 2091   0.460   0.404   1.136 -0.1903 -0.5161  0.0708
  510SOL     OW 2092   0.689   0.544   1.238  0.4510 -0.1733 -0.1793
  510SOL    HW2 2093   0.665   0.626   1.195 -0.8976 -0.4734 -0.0367
  510SOL    HW3 2094   0.615   0.486   1.220  0.8031 -0.9430  0.8432
  510SOL    MW4 2095   0.676   0.547   1.230  0.3196 -0.3145 -0.0255
  511SOL     OW 2096   0.668   0.789   1.105 -0.3034  0.3810 -0.0448
  511SOL    HW2 2097   0.586   0.837   1.117 -1.0177 -1.1833  1.3759
  511SOL    HW3 2098   0.672   0.773   1.010 -1.6254  0.4796 -0.1253
  511SOL    MW4 2099   0.658   0.793   1.094 -0.5720  0.1876  0.1320
  512SOL     OW 2100   0.426   0.902   1.185 -0.2872  0.2450 -0.1657
  512SOL    HW2 2101   0.444   0.901   1.279 -1.5253  1.5250  0.0929
  512SOL    HW3 2102   0.424   0.995   1.162 -0.1211 -0.0640 -1.4328
  512SOL    MW4 2103   0.428   0.914   1.194 -0.4287  0.3731 -0.2987
  513SOL     OW 2104   0.437   1.170   1.132 -0.3994  0.1723  0.1191
  513SOL    HW2 2105   0.517   1.211   1.164 -0.6141 -0.2264  1.1915
  513SOL    HW3 2106   0.451   1.159   1.038  0.7607  0.1917  0.2877
  513SOL    MW4 2107   0.449   1.174   1.124 -0.2747  0.1223  0.2829
  514SOL     OW 2108   0.688   1.297   1.189  0.3440 -0.0917  0.4694
  514SOL    HW2 2109   0.770   1.261   1.156 -0.1551 -0.2658 -0.6034
  514SOL    HW3 2110   0.685   1.386   1.153  0.2955  0.0911  0.9175
  514SOL    MW4 2111   0.699   1.304   1.180  0.2719 -0.0906  0.3868
  515SOL     OW 2112   0.696   1.553   1.084  0.4695 -0.0154 -0.2044
  515SOL    HW2 2113   0.775   1.577   1.133  0.6785 -1.4219  0.1812
  515SOL    HW3 2114   0.624   1.582   1.140  0.7155  0.5921 -0.2016
  515SOL    MW4 2115   0.697   1.560   1.098  0.5296 -0.1208 -0.1532
  516SOL     OW 2116   0.521   1.668   1.266  0.2180 -0.0984 -0.1562
  516SOL    HW2 2117   0.516   1.665   1.362  0.2749  0.6645 -0.1289
  516SOL    HW3 2118   0.436   1.636   1.237  0.1728 -0.2598  0.1507
  516SOL    MW4 2119   0.509   1.663   1.275  0.2196 -0.0191 -0.1122
  517SOL     OW 2120   0.431   1.914   1.146 -0.3762 -0.7290  0.2559
  517SOL    HW2 2121   0.444   1.843   1.209 -1.1265 -0.5739  0.5881
  517SOL    HW3 2122   0.352   1.958   1.175 -1.0835 -1.0240 -1.1534
  517SOL    MW4 2123   0.422   1.911   1.158 -0.5685 -0.7474  0.1138
  518SOL     OW 2124   0.646   2.059   1.213 -0.5890 -0.2590 -0.2778
  518SOL    HW2 2125   0.654   2.061   1.308 -0.8588 -0.0696 -0.2575
  518SOL    HW3 2126   0.575   1.997   1.196 -0.8642  0.0665 -0.3324
  518SOL    MW4 2127   0.637   2.051   1.223 -0.6610 -0.1910 -0.2823
  519SOL     OW 2128   0.689   2.309   1.133  0.3350  0.3930  0.0168
  519SOL    HW2 2129   0.606   2.349   1.157  0.6926  0.2203  1.6109
  519SOL    HW3 2130   0.676   2.215   1.147  0.1680  0.1476 -1.6827
  519SOL    MW4 2131   0.676   2.302   1.138  0.3601  0.3378  0.0029
  520SOL     OW 2132   0.438   2.446   1.200 -0.0916  0.1626 -0.1209
  520SOL    HW2 2133   0.430   2.450   1.295  1.4212  0.4631  0.0153
  520SOL    HW3 2134   0.427   2.537   1.172  2.3318  0.5448  0.0506
  520SOL    MW4 2135   0.436   2.459   1.209  0.4278  0.2527 -0.0802
  521SOL     OW 2136   0.444   2.721   1.151  0.1675  0.1139  0.0733
  521SOL    HW2 2137   0.361   2.762   1.175 -0.8326 -1.4101 -0.6976
  521SOL    HW3 2138   0.459   2.749   1.060 -0.1357 -0.6222 -0.2032
  521SOL    MW4 2139   0.435   2.730   1.142 -0.0045 -0.1843 -0.0651
  522SOL     OW 2140   0.699   2.833   1.246 -0.4938  0.3129  0.5166
  522SOL    HW2 2141   0.716   2.912   1.193 -0.1441 -0.4393 -0.5041
  522SOL    HW3 2142   0.612   2.805   1.220  0.3927 -1.1001 -1.0211
  522SOL    MW4 2143   0.690   2.840   1.236 -0.3308  0.0269  0.1792
  523SOL     OW 2144   0.674   3.081   1.079  0.1096  0.1505  0.0980
  523SOL    HW2 2145   0.746   3.129   1.121  0.3841  0.3931 -0.6242
  523SOL    HW3 2146   0.705   3.068   0.989 -1.4544  1.7874 -0.7152
  523SOL    MW4 2147   0.688   3.086   1.073 -0.0605  0.3986 -0.1047
  524SOL     OW 2148   0.474   3.188   1.235  0.5145 -0.4151  0.3982
  524SOL    HW2 2149   0.470   3.279   1.206 -0.8346 -0.8055 -0.6762
  524SOL    HW3 2150   0.547   3.150   1.185  0.4469 -0.1738  0.1155
  524SOL    MW4 2151   0.483   3.195   1.225  0.3276 -0.4346  0.2191
  525SOL     OW 2152   0.462   3.451   1.174  0.0373  0.0747  0.1237
  525SOL    HW2 2153   0.538   3.492   1.214  0.4227  0.3835 -0.8902
  525SOL    HW3 2154   0.387   3.484   1.223  0.6070 -0.7919  1.5883
  525SOL    MW4 2155   0.462   3.460   1.185  0.1633  0.0014  0.1832
  526SOL     OW 2156   0.708   3.586   1.267  0.0252 -0.2611 -0.0394
  526SOL    HW2 2157   0.695   3.590   1.361  2.4153  0.7838  0.2904
  526SOL    HW3 2158   0.694   3.676   1.237  1.8801 -0.0407 -0.2843
  526SOL    MW4 2159   0.704   3.598   1.275  0.5853 -0.0942 -0.0281
  527SOL     OW 2160   0.695   3.864   1.156 -0.2443 -0.5786 -0.0995
  527SOL    HW2 2161   0.620   3.918   1.179  0.8730  1.1084 -0.3791
  527SOL    HW3 2162   0.715   3.888   1.066  1.6204  0.1694  0.4947
  527SOL    MW4 2163   0.688   3.874   1.147  0.1491 -0.2573 -0.0579
  528SOL     OW 2164   0.487   4.037   1.276  0.2025 -0.1399  0.2624
  528SOL    HW2 2165   0.477   4.125   1.238  1.1072  0.2420  0.9006
  528SOL    HW3 2166   0.411   3.988   1.243  0.3645  0.5137 -1.1012
  528SOL    MW4 2167   0.475   4.042   1.267  0.3432 -0.0033  0.1667
  529SOL     OW 2168   0.472   4.303   1.151 -0.3458  0.1949 -0.1132
  529SOL    HW2 2169   0.525   4.378   1.177  0.5466 -0.2902 -0.5102
  529SOL    HW3 2170   0.384   4.324   1.182  0.1438  0.8562  0.8641
  529SOL    MW4 2171   0.467   4.316   1.159 -0.1635  0.2179 -0.0366
  530SOL     OW 2172   0.717   4.452   1.226 -0.2472 -0.0307 -0.1564
  530SOL    HW2 2173   0.722   4.440   1.321 -1.6283 -0.9466 -0.1781
  530SOL    HW3 2174   0.773   4.383   1.191 -0.8692 -0.6034 -0.0360
  530SOL    MW4 2175   0.725   4.441   1.234 -0.5115 -0.2270 -0.1435
  531SOL     OW 2176   1.101   0.027   1.088  0.4479 -0.1672  0.0343
  531SOL    HW2 2177   1.118  -0.064   1.116  0.6000  0.2750  1.4522
  531SOL    HW3 2178   1.126   0.029   0.996  1.0930 -1.4031  0.1681
  531SOL    MW4 2179   1.107   0.015   1.080  0.5531 -0.2718  0.2390
  532SOL     OW 2180   0.940   0.196   1.225 -0.0063 -0.0175 -0.1542
  532SOL    HW2 2181   0.943   0.164   1.316  0.2121 -0.3794 -0.2893
  532SOL    HW3 2182   0.994   0.134   1.176  0.3861  0.5377 -0.4246
  532SOL    MW4 2183   0.948   0.183   1.231  0.0743  0.0080 -0.2078
  533SOL     OW 2184   0.920   0.464   1.125 -0.2055 -0.2966 -0.2111
  533SOL    HW2 2185   0.938   0.373   1.149  3.2255  0.6929  1.2392
  533SOL    HW3 2186   0.835   0.483   1.165 -0.5222 -2.5836  0.2502
  533SOL    MW4 2187   0.911   0.455   1.134  0.2055 -0.4677  0.0410
  534SOL     OW 2188   1.160   0.574   1.177  0.1934  0.0078  0.2599
  534SOL    HW2 2189   1.158   0.559   1.272  0.2670  0.3801  0.3211
  534SOL    HW3 2190   1.076   0.540   1.146  0.5167 -0.8736  0.3443
  534SOL    MW4 2191   1.148   0.567   1.185  0.2457 -0.0593  0.2791
  535SOL     OW 2192   1.144   0.841   1.133 -0.3215 -0.1371 -0.2058
  535SOL    HW2 2193   1.057   0.867   1.161 -0.8080 -0.0458 -1.7923
  535SOL    HW3 2194   1.145   0.746   1.143 -0.8440 -0.2108 -0.8555
  535SOL    MW4 2195   1.133   0.832   1.138 -0.4544 -0.1348 -0.5008
  536SOL     OW 2196   0.903   0.917   1.225  0.5204 -0.4231  0.1645
  536SOL    HW2 2197   0.902   1.007   1.191  0.9848 -0.6813 -0.5427
  536SOL    HW3 2198   0.832   0.873   1.178  0.5989 -0.5460  0.1601
  536SOL    MW4 2199   0.894   0.923   1.214  0.5921 -0.4733  0.0706
  537SOL     OW 2200   0.904   1.164   1.110  0.2981 -0.3096 -0.2803
  537SOL    HW2 2201   0.987   1.209   1.126 -0.4084  1.8699 -2.4127
  537SOL    HW3 2202   0.889   1.174   1.016 -2.5658 -0.3563  0.1381
  537SOL    MW4 2203   0.913   1.171   1.100 -0.1730 -0.0281 -0.5065
  538SOL     OW 2204   1.123   1.301   1.205  0.0120 -0.2009  0.1023
  538SOL    HW2 2205   1.135   1.296   1.300 -0.8443  0.2001  0.2289
  538SOL    HW3 2206   1.204   1.263   1.170  0.1205 -0.8214  0.9871
  538SOL    MW4 2207   1.136   1.295   1.213 -0.0867 -0.2300  0.2359
  539SOL     OW 2208   1.131   1.548   1.086 -0.1400  0.0638 -0.6276
  539SOL    HW2 2209   1.125   1.456   1.113 -0.9388  0.2080 -0.3088
  539SOL    HW3 2210   1.143   1.544   0.991 -2.2997 -0.3278 -0.9057
  539SOL    MW4 2211   1.132   1.535   1.077 -0.5304  0.0312 -0.6222
  540SOL     OW 2212   0.911   1.659   1.229 -0.0204  0.2804 -0.5287
  540SOL    HW2 2213   0.891   1.751   1.211 -0.3612  0.3309  0.0888
  540SOL    HW3 2214   0.984   1.639   1.170  2.4368  1.9520  1.8195
  540SOL    MW4 2215   0.918   1.669   1.219  0.2589  0.5077 -0.1374
  541SOL     OW 2216   0.887   1.928   1.170 -0.0344  0.1521 -0.0927
  541SOL    HW2 2217   0.969   1.974   1.188 -0.2550  0.0563  1.2436
  541SOL    HW3 2218   0.819   1.991   1.193 -0.3295 -0.2219  0.0756
  541SOL    MW4 2219   0.889   1.942   1.176 -0.1025  0.0901  0.1057
  542SOL     OW 2220   1.128   2.058   1.231 -0.3193  0.0274 -0.1888
  542SOL    HW2 2221   1.127   2.058   1.326 -0.7240 -0.3482 -0.1931
  542SOL    HW3 2222   1.144   2.150   1.208 -0.5428  0.1764  0.2385
  542SOL    MW4 2223   1.130   2.070   1.240 -0.4023 -0.0024 -0.1330
  543SOL     OW 2224   1.164   2.350   1.156 -0.1518  0.3638  0.2077
  543SOL    HW2 2225   1.224   2.395   1.216 -0.1551  0.4613  0.1371
  543SOL    HW3 2226   1.078   2.359   1.196 -0.3718  1.7128 -0.5689
  543SOL    MW4 2227   1.161   2.357   1.169 -0.1812  0.5548  0.0960
  544SOL     OW 2228   0.916   2.455   1.267  0.9999 -0.3616  0.0298
  544SOL    HW2 2229   0.902   2.447   1.362  0.7407  0.9897  0.1200
  544SOL    HW3 2230   0.838   2.416   1.228  0.7724 -0.2677  0.3839
  544SOL    MW4 2231   0.904   2.449   1.275  0.9356 -0.1707  0.0883
  545SOL     OW 2232   0.925   2.728   1.153 -0.4445 -0.0463 -0.1480
  545SOL    HW2 2233   0.927   2.642   1.196 -0.4294  0.3562  0.6639
  545SOL    HW3 2234   0.845   2.769   1.185  0.3542  0.8752  0.7333
  545SOL    MW4 2235   0.915   2.722   1.163 -0.3371  0.1280  0.0755
  546SOL     OW 2236   1.188   2.816   1.248 -0.2592 -0.4273  0.5586
  546SOL    HW2 2237   1.181   2.818   1.344  0.1966  1.2508  0.5724
  546SOL    HW3 2238   1.105   2.778   1.219 -1.5866  1.6790  1.5211
  546SOL    MW4 2239   1.176   2.811   1.257 -0.3743  0.0720  0.6874
  547SOL     OW 2240   1.114   3.075   1.146  0.1301 -0.1652 -0.1247
  547SOL    HW2 2241   1.147   2.994   1.185  1.0311  0.1176 -0.3020
  547SOL    HW3 2242   1.127   3.064   1.052 -2.5645 -1.0833 -0.4316
  547SOL    MW4 2243   1.120   3.063   1.139 -0.1065 -0.2489 -0.1886
  548SOL     OW 2244   0.880   3.209   1.215  0.3215  0.1227 -0.0376
  548SOL    HW2 2245   0.913   3.296   1.190  1.5654  0.0813  1.3910
  548SOL    HW3 2246   0.949   3.149   1.187  1.5680  0.0392  3.0321
  548SOL    MW4 2247   0.893   3.213   1.208  0.6500  0.1063  0.5559
  549SOL     OW 2248   0.934   3.489   1.143  0.1626 -0.2110 -0.2774
  549SOL    HW2 2249   0.860   3.542   1.172 -0.2083 -1.0223  0.2748
  549SOL    HW3 2250   0.931   3.492   1.047 -0.4867 -0.1103 -0.2519
  549SOL    MW4 2251   0.924   3.496   1.134  0.0280 -0.3047 -0.2012
  550SOL     OW 2252   1.180   3.600   1.250 -0.1944 -0.2998  0.5364
  550SOL    HW2 2253   1.254   3.549   1.216  1.3623  0.6598  2.3946
  550SOL    HW3 2254   1.103   3.554   1.218  1.1943 -1.7717 -0.7984
  550SOL    MW4 2255   1.180   3.587   1.241  0.1942 -0.3674  0.6053
  551SOL     OW 2256   1.181   3.881   1.289  0.2275 -0.0045 -0.3348
  551SOL    HW2 2257   1.091   3.913   1.286 -0.0020 -0.6151  0.0247
  551SOL    HW3 2258   1.173   3.786   1.281  0.9598  0.0877 -2.3394
  551SOL    MW4 2259   1.168   3.873   1.287  0.2939 -0.0727 -0.5517
  552SOL     OW 2260   0.915   3.975   1.306 -0.4070 -0.2477  0.4723
  552SOL    HW2 2261   0.887   3.987   1.397  0.4849  1.6527  0.5250
  552SOL    HW3 2262   0.842   3.929   1.264 -1.4822  0.2469  1.7697
  552SOL    MW4 2263   0.902   3.970   1.313 -0.4312  0.0682  0.6503
  553SOL     OW 2264   0.929   4.248   1.174  0.1915 -0.1328  0.0367
  553SOL    HW2 2265   0.909   4.164   1.215  0.5829  0.2052  0.9402
  553SOL    HW3 2266   0.913   4.234   1.081 -0.8197 -0.8864  0.3111
  553SOL    MW4 2267   0.924   4.235   1.167  0.1097 -0.1879  0.1920
  554SOL     OW 2268   1.129   4.449   1.226 -0.4546  0.0677  0.1452
  554SOL    HW2 2269   1.134   4.445   1.321 -1.3977  0.4636  0.2127
  554SOL    HW3 2270   1.054   4.396   1.203 -1.3021  1.4124 -0.2470
  554SOL    MW4 2271   1.120   4.442   1.235 -0.6909  0.2975  0.1024
  555SOL     OW 2272   1.532   0.055   1.112  0.0664 -0.4484 -0.3777
  555SOL    HW2 2273   1.620   0.088   1.127  0.2527 -1.4108  0.7816
  555SOL    HW3 2274   1.534  -0.035   1.145 -1.3356 -0.4828 -0.3261
  555SOL    MW4 2275   1.544   0.048   1.119 -0.0939 -0.5799 -0.2179
  556SOL     OW 2276   1.287   0.142   1.224 -0.1275  0.1596 -0.0880
  556SOL    HW2 2277   1.366   0.111   1.180  0.2010 -3.5992  2.9722
  556SOL    HW3 2278   1.215   0.102   1.175  0.1014 -1.2350  0.7103
  556SOL    MW4 2279   1.288   0.133   1.212 -0.0539 -0.5203  0.4209
  557SOL     OW 2280   1.333   0.395   1.067 -0.2144 -0.4652  0.0491
  557SOL    HW2 2281   1.324   0.320   1.127 -0.3648  0.2708  0.9591
  557SOL    HW3 2282   1.286   0.466   1.110  1.7130  0.7523  0.2243
  557SOL    MW4 2283   1.326   0.394   1.081  0.0200 -0.2075  0.1923
  558SOL     OW 2284   1.562   0.522   1.158 -0.0440 -0.1635 -0.1219
  558SOL    HW2 2285   1.546   0.607   1.119  0.3353 -0.2446 -0.4576
  558SOL    HW3 2286   1.486   0.469   1.134 -0.1297 -0.0135 -0.1763
  558SOL    MW4 2287   1.550   0.526   1.150 -0.0052 -0.1544 -0.1732
  559SOL     OW 2288   1.561   0.787   1.100 -0.0080  0.0868  0.0619
  559SOL    HW2 2289   1.645   0.810   1.139  0.6253 -0.2145 -1.1097
  559SOL    HW3 2290   1.580   0.775   1.007 -1.1932 -0.7551 -0.0846
  559SOL    MW4 2291   1.575   0.788   1.092 -0.0807 -0.0640 -0.1121
  560SOL     OW 2292   1.388   0.984   1.200  0.6642 -0.6445  0.0583
  560SOL    HW2 2293   1.442   0.917   1.158 -0.3983 -0.5175 -1.5487
  560SOL    HW3 2294   1.301   0.945   1.205  0.4128 -0.0222  0.6427
  560SOL    MW4 2295   1.383   0.970   1.195  0.4910 -0.5456 -0.0767
  561SOL     OW 2296   1.363   1.227   1.069  0.0208  0.1057  0.0391
  561SOL    HW2 2297   1.377   1.140   1.107  0.5543 -0.0590 -0.5272
  561SOL    HW3 2298   1.374   1.215   0.975  0.3164  0.8277 -0.0234
  561SOL    MW4 2299   1.366   1.214   1.062  0.1302  0.1792 -0.0439
  562SOL     OW 2300   1.564   1.327   1.238 -0.0978 -0.1098 -0.0717
  562SOL    HW2 2301   1.640   1.286   1.196  0.3739  0.4712  0.2126
  562SOL    HW3 2302   1.489   1.286   1.195  0.3705 -0.8381 -0.2105
  562SOL    MW4 2303   1.564   1.316   1.227  0.0263 -0.1292 -0.0525
  563SOL     OW 2304   1.556   1.577   1.124  0.1519 -0.3198 -0.2428
  563SOL    HW2 2305   1.635   1.613   1.165 -0.7408  1.4792 -0.0058
  563SOL    HW3 2306   1.548   1.489   1.161  1.2246  0.0286  0.8805
  563SOL    MW4 2307   1.565   1.570   1.135  0.1757 -0.0366 -0.0632
  564SOL     OW 2308   1.324   1.677   1.242  0.6012 -0.2256 -0.7475
  564SOL    HW2 2309   1.401   1.642   1.198  0.8354 -0.4695 -0.1511
  564SOL    HW3 2310   1.250   1.638   1.195  0.8586 -1.8053  0.1002
  564SOL    MW4 2311   1.324   1.667   1.230  0.6660 -0.4663 -0.5569
  565SOL     OW 2312   1.359   1.929   1.161  0.0838 -0.1719 -0.3424
  565SOL    HW2 2313   1.280   1.977   1.184  0.6309  0.5445  0.0559
  565SOL    HW3 2314   1.343   1.840   1.193 -0.5582 -0.0303 -0.2612
  565SOL    MW4 2315   1.347   1.924   1.168  0.0714 -0.0587 -0.2792
  566SOL     OW 2316   1.597   2.065   1.190  0.2635  0.3174 -0.4847
  566SOL    HW2 2317   1.572   2.156   1.173  0.1544  0.3060 -0.3895
  566SOL    HW3 2318   1.517   2.015   1.175  0.0400  0.3646  0.5040
  566SOL    MW4 2319   1.583   2.071   1.186  0.2195  0.3221 -0.3417
  567SOL     OW 2320   1.567   2.349   1.165  0.0965  0.3761  0.0454
  567SOL    HW2 2321   1.500   2.397   1.215 -0.3448 -0.6852  0.4992
  567SOL    HW3 2322   1.540   2.359   1.074 -1.2207 -0.7967  0.2760
  567SOL    MW4 2323   1.554   2.357   1.160 -0.1354  0.0811  0.1358
  568SOL     OW 2324   1.367   2.497   1.281 -0.1964 -0.0932 -0.0605
  568SOL    HW2 2325   1.362   2.525   1.372 -1.1962  0.7975 -0.3851
  568SOL    HW3 2326   1.382   2.578   1.232 -1.6251 -0.3212 -0.8685
  568SOL    MW4 2327   1.369   2.511   1.287 -0.5169 -0.0057 -0.2099
  569SOL     OW 2328   1.403   2.708   1.111  0.1526  0.7187 -0.3732
  569SOL    HW2 2329   1.462   2.763   1.162  0.5028  0.3739 -0.4043
  569SOL    HW3 2330   1.316   2.735   1.137  0.3327  0.2334  0.7395
  569SOL    MW4 2331   1.399   2.718   1.121  0.2226  0.6092 -0.2304
  570SOL     OW 2332   1.570   2.863   1.261  0.4258 -0.0778 -0.1623
  570SOL    HW2 2333   1.657   2.828   1.240  0.0026 -0.5198 -1.1965
  570SOL    HW3 2334   1.574   2.955   1.234 -0.2521 -0.7417 -2.6503
  570SOL    MW4 2335   1.582   2.870   1.255  0.2805 -0.2236 -0.6272
  571SOL     OW 2336   1.588   3.111   1.130 -0.0544  0.2221 -0.3635
  571SOL    HW2 2337   1.654   3.164   1.175  0.1996  0.3368 -0.8710
  571SOL    HW3 2338   1.505   3.154   1.151  0.1441  0.7856 -0.7242
  571SOL    MW4 2339   1.586   3.124   1.139  0.0052  0.3116 -0.4781
  572SOL     OW 2340   1.346   3.217   1.214 -0.1726  0.1612 -0.0068
  572SOL    HW2 2341   1.342   3.233   1.309  0.2349 -0.3083  0.0929
  572SOL    HW3 2342   1.267   3.166   1.196  0.6437 -1.2826  0.3968
  572SOL    MW4 2343   1.335   3.212   1.225 -0.0111 -0.0913  0.0596
  573SOL     OW 2344   1.403   3.484   1.121  0.0997 -0.2063  0.6169
  573SOL    HW2 2345   1.405   3.396   1.158  0.6145 -1.2724 -1.8636
  573SOL    HW3 2346   1.367   3.472   1.033 -0.0127  2.0952  0.3255
  573SOL    MW4 2347   1.398   3.471   1.114  0.1528 -0.0432  0.2511
  574SOL     OW 2348   1.589   3.656   1.238 -0.4868  0.2083 -0.1361
  574SOL    HW2 2349   1.580   3.742   1.198 -1.4490 -0.3389 -1.1363
  574SOL    HW3 2350   1.522   3.602   1.195  3.5801 -2.4829 -3.6183
  574SOL    MW4 2351   1.579   3.660   1.227 -0.0772 -0.2186 -0.7275
  575SOL     OW 2352   1.567   3.907   1.076 -0.0750 -0.0422 -0.2954
  575SOL    HW2 2353   1.483   3.951   1.066  0.8317  1.5754 -1.0050
  575SOL    HW3 2354   1.581   3.862   0.993 -0.9637 -1.6068  0.3995
  575SOL    MW4 2355   1.558   3.907   1.064 -0.0727 -0.0353 -0.2973
  576SOL     OW 2356   1.288   3.991   1.065 -0.8250 -0.6942 -0.3692
  576SOL    HW2 2357   1.298   4.084   1.087 -1.8355 -0.3670 -1.2845
  576SOL    HW3 2358   1.253   3.952   1.145 -2.0773  0.0350 -0.5520
  576SOL    MW4 2359   1.285   3.998   1.078 -1.1234 -0.5546 -0.5140
  577SOL     OW 2360   1.315   4.276   1.099  0.3850  0.2731  0.4182
  577SOL    HW2 2361   1.262   4.341   1.146 -0.9465 -1.5327  1.4436
  577SOL    HW3 2362   1.275   4.271   1.012 -0.2606 -0.0384  0.7277
  577SOL    MW4 2363   1.303   4.284   1.094  0.1243 -0.0062  0.5943
  578SOL     OW 2364   1.541   4.425   1.195 -0.2803 -0.4964 -0.4926
  578SOL    HW2 2365   1.548   4.392   1.284  2.3826 -2.7599 -1.4675
  578SOL    HW3 2366   1.464   4.382   1.159 -0.0141 -1.3985 -0.0045
  578SOL    MW4 2367   1.532   4.415   1.202  0.1062 -0.9141 -0.5568
  579SOL     OW 2368   2.004   0.007   1.134 -0.1432  0.3073  0.3805
  579SOL    HW2 2369   1.995  -0.082   1.168  1.1560 -0.0716 -0.2179
  579SOL    HW3 2370   1.996  -0.004   1.039 -0.8783  0.9531  0.3707
  579SOL    MW4 2371   2.002  -0.006   1.126 -0.0684  0.3424  0.3003
  580SOL     OW 2372   1.774   0.150   1.190  0.1338  0.0772  0.2067
  580SOL    HW2 2373   1.792   0.232   1.144  0.0396 -1.2330 -2.2314
  580SOL    HW3 2374   1.842   0.090   1.161 -1.1823 -1.4143  0.1061
  580SOL    MW4 2375   1.785   0.153   1.180 -0.0523 -0.2925 -0.1284
  581SOL     OW 2376   1.810   0.424   1.067 -0.0258 -0.3461  0.1054
  581SOL    HW2 2377   1.730   0.475   1.082 -0.4293 -0.8410 -0.3820
  581SOL    HW3 2378   1.810   0.406   0.974  1.2295  0.5944 -0.0923
  581SOL    MW4 2379   1.800   0.429   1.057  0.0865 -0.2873  0.0149
  582SOL     OW 2380   2.028   0.486   1.227  0.6976 -0.5690 -0.1037
  582SOL    HW2 2381   2.005   0.483   1.320  0.5710  0.6145 -0.0975
  582SOL    HW3 2382   1.946   0.462   1.182  0.6096 -0.5898  0.0657
  582SOL    MW4 2383   2.014   0.482   1.233  0.6690 -0.4156 -0.0806
  583SOL     OW 2384   2.036   0.756   1.123  0.0999  0.3225 -0.2189
  583SOL    HW2 2385   2.036   0.663   1.146  0.0585  0.9359  2.4308
  583SOL    HW3 2386   2.041   0.757   1.028 -0.2019 -2.3978 -0.3084
  583SOL    MW4 2387   2.036   0.744   1.114  0.0548  0.0446  0.1189
  584SOL     OW 2388   1.796   0.863   1.257  0.2590  0.0259  0.1370
  584SOL    HW2 2389   1.789   0.843   1.350 -0.0824 -0.3528  0.0318
  584SOL    HW3 2390   1.871   0.812   1.227  0.6426  0.4909  0.2941
  584SOL    MW4 2391   1.805   0.854   1.265  0.2648  0.0373  0.1438
  585SOL     OW 2392   1.774   1.136   1.149  0.1300 -0.0164 -0.0333
  585SOL    HW2 2393   1.789   1.142   1.054 -0.3411 -0.2115 -0.1212
  585SOL    HW3 2394   1.790   1.044   1.169  0.0564 -0.0116  0.0458
  585SOL    MW4 2395   1.778   1.124   1.139  0.0581 -0.0416 -0.0345
  586SOL     OW 2396   2.002   1.284   1.268  0.1340  0.2871  0.1973
  586SOL    HW2 2397   2.093   1.253   1.262  0.3324  1.0181 -0.7989
  586SOL    HW3 2398   1.951   1.217   1.222  0.2127  0.0350  0.4792
  586SOL    MW4 2399   2.008   1.271   1.261  0.1705  0.3504  0.1031
  587SOL     OW 2400   1.997   1.525   1.130 -0.0337 -0.0949 -0.4140
  587SOL    HW2 2401   2.009   1.439   1.171  2.1498 -0.2232 -1.2427
  587SOL    HW3 2402   2.016   1.510   1.038  1.0800  1.4067 -0.4511
  587SOL    MW4 2403   2.001   1.512   1.124  0.4013  0.0863 -0.5282
  588SOL     OW 2404   1.784   1.685   1.222  0.0628 -0.3035  0.1478
  588SOL    HW2 2405   1.817   1.770   1.191 -0.6299  0.6608  1.9581
  588SOL    HW3 2406   1.848   1.621   1.190  0.7026  0.9189 -1.0673
  588SOL    MW4 2407   1.797   1.688   1.213  0.0559 -0.0150  0.2265
  589SOL     OW 2408   1.832   1.941   1.136 -0.6730 -0.0314  0.3698
  589SOL    HW2 2409   1.755   1.995   1.153 -0.5594  0.9527 -2.0941
  589SOL    HW3 2410   1.837   1.936   1.041  2.4241  0.0562  0.4940
  589SOL    MW4 2411   1.822   1.947   1.126 -0.2494  0.1100  0.0610
  590SOL     OW 2412   2.045   2.069   1.230  0.5313  0.1626  0.5051
  590SOL    HW2 2413   2.032   2.078   1.325 -0.0070  0.9463  0.3627
  590SOL    HW3 2414   1.962   2.033   1.198  0.6389  0.0919  0.3046
  590SOL    MW4 2415   2.032   2.065   1.238  0.4747  0.2565  0.4600
  591SOL     OW 2416   2.023   2.341   1.154 -0.2381  0.2754 -0.1768
  591SOL    HW2 2417   2.094   2.391   1.195 -1.2401  1.5505  0.0110
  591SOL    HW3 2418   2.040   2.250   1.181  1.4868  0.5083 -0.3798
  591SOL    MW4 2419   2.035   2.335   1.163 -0.1423  0.4742 -0.1788
  592SOL     OW 2420   1.812   2.502   1.224 -0.0660 -0.0793  0.0780
  592SOL    HW2 2421   1.884   2.445   1.197 -0.0160  0.2941 -0.5777
  592SOL    HW3 2422   1.733   2.455   1.197 -0.0276  0.1193 -0.3785
  592SOL    MW4 2423   1.811   2.488   1.217 -0.0544 -0.0038 -0.0687
  593SOL     OW 2424   1.826   2.781   1.154 -0.5268  0.2834 -0.1506
  593SOL    HW2 2425   1.824   2.686   1.166 -0.0774  0.1873 -0.7808
  593SOL    HW3 2426   1.825   2.793   1.059  1.9298  0.8316 -0.1430
  593SOL    MW4 2427   1.826   2.770   1.143 -0.1434  0.3433 -0.2327
  594SOL     OW 2428   2.057   2.900   1.238 -0.6441 -0.1749  0.2862
  594SOL    HW2 2429   2.052   2.988   1.202 -1.3290  0.0085  0.8089
  594SOL    HW3 2430   1.980   2.855   1.202 -0.1723 -0.6287 -0.1608
  594SOL    MW4 2431   2.046   2.905   1.229 -0.6723 -0.2103  0.2961
  595SOL     OW 2432   1.987   3.128   1.096 -0.0742  0.0346 -0.0303
  595SOL    HW2 2433   1.910   3.177   1.126 -0.5370 -0.4961 -0.3386
  595SOL    HW3 2434   1.975   3.121   1.001 -0.3561 -1.2530  0.0915
  595SOL    MW4 2435   1.975   3.134   1.088 -0.1724 -0.2053 -0.0548
  596SOL     OW 2436   1.769   3.286   1.231  0.1445 -0.2699 -0.1227
  596SOL    HW2 2437   1.780   3.279   1.326  0.6405  0.8328 -0.0931
  596SOL    HW3 2438   1.758   3.379   1.215 -3.2635 -0.7070 -0.8027
  596SOL    MW4 2439   1.769   3.297   1.241 -0.2398 -0.1819 -0.2084
  597SOL     OW 2440   1.794   3.569   1.090  0.2907 -0.0063  0.1274
  597SOL    HW2 2441   1.865   3.623   1.125 -1.2387  2.5375 -0.5913
  597SOL    HW3 2442   1.716   3.597   1.137 -0.8945 -0.1089 -1.7047
  597SOL    MW4 2443   1.793   3.580   1.101 -0.0675  0.3157 -0.2091
  598SOL     OW 2444   2.040   3.671   1.209 -0.4899  0.1351  0.2061
  598SOL    HW2 2445   2.040   3.655   1.304  0.8592 -1.1750 -0.0008
  598SOL    HW3 2446   2.086   3.596   1.172  0.0625  1.2371 -1.3955
  598SOL    MW4 2447   2.046   3.659   1.217 -0.2389  0.1078 -0.0325
  599SOL     OW 2448   2.033   3.922   1.083  0.2741 -0.4685 -0.2690
  599SOL    HW2 2449   1.951   3.952   1.123  0.2378  0.9196 -1.3676
  599SOL    HW3 2450   2.051   3.839   1.127 -0.7402  0.1142  1.3080
  599SOL    MW4 2451   2.025   3.915   1.094  0.1354 -0.2084 -0.2056
  600SOL     OW 2452   1.804   4.033   1.193  0.0482  0.4899  0.1572
  600SOL    HW2 2453   1.805   3.997   1.282  0.5996 -0.3031 -0.1642
  600SOL    HW3 2454   1.725   3.996   1.154  0.0675  0.4444  0.1611
  600SOL    MW4 2455   1.794   4.023   1.199  0.1236  0.3791  0.1154
  601SOL     OW 2456   1.762   4.286   1.108  0.1106 -0.0542 -0.4084
  601SOL    HW2 2457   1.746   4.198   1.141 -0.7158  0.4929  0.6889
  601SOL    HW3 2458   1.686   4.337   1.137  0.0433  0.7785 -1.9501
  601SOL    MW4 2459   1.749   4.281   1.116 -0.0074  0.1273 -0.4671
  602SOL     OW 2460   1.999   4.407   1.229  0.1723  0.1344 -0.2160
  602SOL    HW2 2461   2.011   4.379   1.320  0.8966  0.4497 -0.2112
  602SOL    HW3 2462   1.918   4.364   1.201  0.3078 -0.5051  0.3622
  602SOL    MW4 2463   1.990   4.398   1.238  0.2856  0.0911 -0.1391
  603SOL     OW 2464   2.452   4.661   1.122  0.2572  0.4399 -0.2486
  603SOL    HW2 2465   2.529   4.702   1.162  0.7205 -0.4237 -0.2238
  603SOL    HW3 2466   2.378   4.706   1.162  0.6975 -0.5225  1.7673
  603SOL    MW4 2467   2.453   4.672   1.133  0.3765  0.1988  0.0206
  604SOL     OW 2468   2.242   0.119   1.249 -0.1508 -0.0796  0.0834
  604SOL    HW2 2469   2.266   0.202   1.207 -0.6447  0.8558  1.6327
  604SOL    HW3 2470   2.164   0.090   1.201 -0.5656  0.8617  0.1757
  604SOL    MW4 2471   2.235   0.126   1.237 -0.2706  0.1680  0.2999
  605SOL     OW 2472   2.270   0.372   1.130  0.3605 -0.0310 -0.2092
  605SOL    HW2 2473   2.193   0.410   1.172  0.8257  0.9320 -0.2117
  605SOL    HW3 2474   2.254   0.386   1.036 -0.4488 -1.7428 -0.3619
  605SOL    MW4 2475   2.257   0.379   1.123  0.3154 -0.1298 -0.2297
  606SOL     OW 2476   2.518   0.495   1.168 -0.4720 -0.2385  0.6745
  606SOL    HW2 2477   2.509   0.512   1.261 -0.7001 -1.7798  0.9540
  606SOL    HW3 2478   2.436   0.453   1.143 -0.1114 -0.5227 -0.0515
  606SOL    MW4 2479   2.506   0.492   1.177 -0.4542 -0.4793  0.6156
  607SOL     OW 2480   2.488   0.775   1.106 -0.3064  0.3785 -0.2173
  607SOL    HW2 2481   2.492   0.680   1.119 -1.3662  0.2581 -0.7145
  607SOL    HW3 2482   2.482   0.787   1.012  0.2345  0.9651 -0.1824
  607SOL    MW4 2483   2.487   0.764   1.096 -0.3746  0.4400 -0.2784
  608SOL     OW 2484   2.264   0.878   1.225  0.0816  0.3922  0.5235
  608SOL    HW2 2485   2.344   0.838   1.191  0.7339  1.3409  0.8838
  608SOL    HW3 2486   2.193   0.829   1.185  0.8519 -0.9307  0.7490
  608SOL    MW4 2487   2.266   0.866   1.215  0.2694  0.3428  0.6008
  609SOL     OW 2488   2.248   1.176   1.200  0.0044  0.4228 -0.3230
  609SOL    HW2 2489   2.337   1.207   1.216  0.2731 -1.2606  1.7247
  609SOL    HW3 2490   2.249   1.085   1.229 -2.6396  0.6602  0.6702
  609SOL    MW4 2491   2.260   1.168   1.206 -0.3088  0.2320  0.0783
  610SOL     OW 2492   2.486   1.264   1.270 -0.0260  0.5629  0.5921
  610SOL    HW2 2493   2.544   1.217   1.210  0.3356  0.5832  0.9254
  610SOL    HW3 2494   2.504   1.356   1.252  0.6222  0.5646  1.2574
  610SOL    MW4 2495   2.496   1.270   1.259  0.1073  0.5659  0.7238
  611SOL     OW 2496   2.493   1.528   1.192 -0.0857 -0.0310 -0.3879
  611SOL    HW2 2497   2.405   1.563   1.202 -0.5416 -0.9000 -1.2209
  611SOL    HW3 2498   2.505   1.521   1.097  0.2491 -1.4416 -0.2554
  611SOL    MW4 2499   2.483   1.532   1.180 -0.1016 -0.3319 -0.4803
  612SOL     OW 2500   2.223   1.663   1.237 -0.4384  0.0432 -0.1216
  612SOL    HW2 2501   2.243   1.750   1.203 -0.0940  0.7847  1.9072
  612SOL    HW3 2502   2.143   1.637   1.191 -0.3949  1.3083 -0.9388
  612SOL    MW4 2503   2.215   1.671   1.227 -0.3872  0.3079  0.0383
  613SOL     OW 2504   2.252   1.919   1.131  0.1374  0.1005  0.2270
  613SOL    HW2 2505   2.183   1.975   1.167 -1.3219 -0.8721 -1.0011
  613SOL    HW3 2506   2.267   1.954   1.043 -0.5137 -1.1988 -0.4056
  613SOL    MW4 2507   2.245   1.931   1.124 -0.1414 -0.1993 -0.0184
  614SOL     OW 2508   2.489   2.062   1.262 -0.2669 -0.2501  0.1301
  614SOL    HW2 2509   2.563   2.022   1.215 -0.2397 -1.1984  0.9477
  614SOL    HW3 2510   2.412   2.032   1.215 -0.1473  0.5235 -0.5663
  614SOL    MW4 2511   2.489   2.052   1.250 -0.2475 -0.2732  0.1460
  615SOL     OW 2512   2.482   2.322   1.183  0.1850  0.6511 -0.5263
  615SOL    HW2 2513   2.471   2.229   1.203 -0.8577  1.0293  0.7625
  615SOL    HW3 2514   2.477   2.327   1.087 -0.3174 -0.5589 -0.5697
  615SOL    MW4 2515   2.480   2.311   1.173 -0.0188  0.5412 -0.3620
  616SOL     OW 2516   2.251   2.466   1.262  0.0133 -0.3021 -0.4592
  616SOL    HW2 2517   2.245   2.465   1.358  1.0758  1.1292 -0.3757
  616SOL    HW3 2518   2.331   2.417   1.243 -0.3074 -0.7631 -0.6364
  616SOL    MW4 2519   2.261   2.459   1.272  0.1111 -0.1740 -0.4716
  617SOL     OW 2520   2.270   2.713   1.122 -0.2329  0.2019  0.6065
  617SOL    HW2 2521   2.273   2.634   1.176  0.3779  0.0291  0.3201
  617SOL    HW3 2522   2.192   2.759   1.152 -0.6394 -0.5500  0.7176
  617SOL    MW4 2523   2.260   2.709   1.133 -0.2060  0.0801  0.5834
  618SOL     OW 2524   2.458   2.885   1.218 -0.0544 -0.0045 -0.1351
  618SOL    HW2 2525   2.443   2.863   1.310  1.9884  0.3739  0.3006
  618SOL    HW3 2526   2.387   2.840   1.171 -2.2411  1.3163  1.7726
  618SOL    MW4 2527   2.447   2.876   1.224 -0.0734  0.2198  0.1740
  619SOL     OW 2528   2.506   3.141   1.146 -0.0514  0.8164  0.0656
  619SOL    HW2 2529   2.419   3.179   1.159  0.2147  1.5867 -0.3765
  619SOL    HW3 2530   2.495   3.049   1.170 -1.1322  0.7724 -0.5118
  619SOL    MW4 2531   2.493   3.134   1.151 -0.1590  0.9120 -0.0689
  620SOL     OW 2532   2.217   3.214   1.219  0.0622  0.2080  0.5564
  620SOL    HW2 2533   2.216   3.302   1.181  0.6765 -0.8830 -2.0974
  620SOL    HW3 2534   2.140   3.171   1.181  1.2911 -1.2475 -0.3447
  620SOL    MW4 2535   2.207   3.220   1.209  0.3054 -0.1280  0.0874
  621SOL     OW 2536   2.217   3.483   1.138  0.0950 -0.2310 -0.0562
  621SOL    HW2 2537   2.291   3.535   1.167  0.3476 -0.1252 -0.8623
  621SOL    HW3 2538   2.228   3.476   1.043 -1.5089  0.7041 -0.3332
  621SOL    MW4 2539   2.228   3.489   1.129 -0.0832 -0.0937 -0.1992
  622SOL     OW 2540   2.426   3.646   1.192  0.0715 -0.1883 -0.5090
  622SOL    HW2 2541   2.453   3.646   1.284 -1.3571 -1.0924 -0.0750
  622SOL    HW3 2542   2.429   3.738   1.166  0.5274  0.0654  0.4250
  622SOL    MW4 2543   2.430   3.658   1.201 -0.0567 -0.2739 -0.3284
  623SOL     OW 2544   2.444   3.922   1.139  0.2240  0.2294 -0.0029
  623SOL    HW2 2545   2.368   3.980   1.145  0.4807  0.7146 -1.3136
  623SOL    HW3 2546   2.463   3.916   1.046  2.3435  0.8322  0.3620
  623SOL    MW4 2547   2.437   3.929   1.128  0.5374  0.3729 -0.1278
  624SOL     OW 2548   2.215   4.077   1.210  0.8096 -0.5238 -0.1057
  624SOL    HW2 2549   2.211   4.160   1.163  0.5782  0.2839  1.3354
  624SOL    HW3 2550   2.147   4.024   1.169 -1.2190  1.1017  1.0308
  624SOL    MW4 2551   2.206   4.081   1.198  0.5114 -0.2031  0.2344
  625SOL     OW 2552   2.232   4.320   1.104 -0.3632 -0.0697  0.6500
  625SOL    HW2 2553   2.148   4.359   1.127  0.5787  1.1501  2.0853
  625SOL    HW3 2554   2.227   4.306   1.009 -1.5946  1.3970  0.4821
  625SOL    MW4 2555   2.220   4.323   1.094 -0.4013  0.2847  0.8172
  626SOL     OW 2556   2.474   4.408   1.209 -0.2376 -0.0618 -0.4993
  626SOL    HW2 2557   2.386   4.376   1.190 -0.9226  0.6024  1.4101
  626SOL    HW3 2558   2.473   4.499   1.179  0.7582 -0.9136 -3.1925
  626SOL    MW4 2559   2.463   4.416   1.203 -0.1967 -0.0868 -0.6028
  627SOL     OW 2560   2.944   0.013   1.131  0.4082  0.1840  0.0752
  627SOL    HW2 2561   2.926  -0.075   1.164  0.2247  0.6811  1.3067
  627SOL    HW3 2562   2.929   0.006   1.037  1.0827 -1.2792  0.0634
  627SOL    MW4 2563   2.940   0.001   1.123  0.4730  0.0563  0.2363
  628SOL     OW 2564   2.700   0.107   1.198 -0.0602  0.4638  0.0527
  628SOL    HW2 2565   2.726   0.121   1.290  1.5108  2.8731 -0.6872
  628SOL    HW3 2566   2.779   0.073   1.156 -0.4084  0.5220 -0.6530
  628SOL    MW4 2567   2.714   0.105   1.205  0.1009  0.7894 -0.1382
  629SOL     OW 2568   2.768   0.375   1.089  0.4943 -0.2730  0.6960
  629SOL    HW2 2569   2.757   0.288   1.128 -0.3635 -0.6763 -0.4400
  629SOL    HW3 2570   2.692   0.425   1.120  1.5250  0.4156  2.2085
  629SOL    MW4 2571   2.757   0.370   1.098  0.5169 -0.2354  0.7458
  630SOL     OW 2572   2.962   0.526   1.214  0.2455  0.3365  0.3486
  630SOL    HW2 2573   2.939   0.614   1.184 -0.1712 -0.2191 -1.0021
  630SOL    HW3 2574   2.895   0.469   1.175  0.6853 -0.6225  0.9645
  630SOL    MW4 2575   2.950   0.530   1.205  0.2484  0.1367  0.2517
  631SOL     OW 2576   2.944   0.782   1.147  0.4107  0.0048  0.0309
  631SOL    HW2 2577   3.024   0.813   1.190 -0.6556  1.8655  0.7251
  631SOL    HW3 2578   2.874   0.836   1.184 -1.2934 -2.0919 -0.0306
  631SOL    MW4 2579   2.945   0.793   1.157  0.0453 -0.0263  0.1143
  632SOL     OW 2580   2.691   0.927   1.224 -0.1510  0.3522 -0.2198
  632SOL    HW2 2581   2.685   1.011   1.178 -0.4462  0.9479  0.8817
  632SOL    HW3 2582   2.620   0.874   1.188 -1.9275  1.6662  1.2724
  632SOL    MW4 2583   2.681   0.931   1.213 -0.4241  0.6042  0.1224
  633SOL     OW 2584   2.684   1.170   1.093 -0.1572  0.0039  0.2765
  633SOL    HW2 2585   2.691   1.204   1.003 -1.6300  1.8122  0.8056
  633SOL    HW3 2586   2.755   1.213   1.140  0.0287 -0.2194  0.2039
  633SOL    MW4 2587   2.694   1.180   1.087 -0.3269  0.2130  0.3368
  634SOL     OW 2588   2.866   1.306   1.252  0.2893 -0.1433  0.2815
  634SOL    HW2 2589   2.883   1.310   1.346  0.5724  0.9887  0.1955
  634SOL    HW3 2590   2.878   1.396   1.222 -1.8071 -0.1088 -0.5073
  634SOL    MW4 2591   2.870   1.319   1.260  0.0501  0.0106  0.1661
  635SOL     OW 2592   2.929   1.554   1.139 -0.3379  0.5078 -0.0727
  635SOL    HW2 2593   3.008   1.600   1.167 -0.0588  0.3223 -0.5446
  635SOL    HW3 2594   2.935   1.552   1.043 -1.5778  1.6712 -0.1883
  635SOL    MW4 2595   2.940   1.560   1.130 -0.4644  0.6368 -0.1502
  636SOL     OW 2596   2.710   1.699   1.262 -0.3475  0.6239  0.1290
  636SOL    HW2 2597   2.774   1.655   1.206 -0.7230  1.9202 -1.3528
  636SOL    HW3 2598   2.629   1.649   1.250 -0.3874  0.8063 -0.3766
  636SOL    MW4 2599   2.708   1.687   1.253 -0.4022  0.8190 -0.1333
  637SOL     OW 2600   2.713   1.936   1.123  0.0436 -0.4362 -0.2852
  637SOL    HW2 2601   2.788   1.990   1.150 -0.4707  0.3077 -0.3216
  637SOL    HW3 2602   2.725   1.854   1.171  0.8018 -0.2672 -0.1712
  637SOL    MW4 2603   2.725   1.932   1.133  0.0756 -0.3157 -0.2749
  638SOL     OW 2604   2.952   2.065   1.194  0.0765 -0.1677  0.0603
  638SOL    HW2 2605   2.963   2.065   1.289 -1.3842  1.2607  0.2542
  638SOL    HW3 2606   2.947   2.157   1.170  0.5277 -0.5091 -1.4333
  638SOL    MW4 2607   2.953   2.077   1.203 -0.0570 -0.0243 -0.1111
  639SOL     OW 2608   2.920   2.328   1.146 -0.3298 -0.1227 -0.7404
  639SOL    HW2 2609   2.996   2.382   1.166  0.6159 -1.4773 -0.6042
  639SOL    HW3 2610   2.848   2.367   1.197  0.3393  0.9778 -0.6352
  639SOL    MW4 2611   2.920   2.340   1.156 -0.1166 -0.1559 -0.7086
  640SOL     OW 2612   2.708   2.465   1.244 -0.0952 -0.5013  0.1639
  640SOL    HW2 2613   2.719   2.479   1.338 -0.3509  0.9742 -0.0190
  640SOL    HW3 2614   2.640   2.398   1.238 -0.3246 -0.3553  1.0237
  640SOL    MW4 2615   2.700   2.458   1.256 -0.1593 -0.2875  0.2533
  641SOL     OW 2616   2.669   2.728   1.127 -0.2388 -0.2175  0.1915
  641SOL    HW2 2617   2.679   2.640   1.163 -1.0911 -0.2546  0.3655
  641SOL    HW3 2618   2.594   2.764   1.175 -0.3816  0.3124 -0.4251
  641SOL    MW4 2619   2.660   2.721   1.138 -0.3700 -0.1523  0.1330
  642SOL     OW 2620   2.910   2.862   1.204  0.7742 -0.1069  0.2973
  642SOL    HW2 2621   2.909   2.857   1.300 -0.2022 -2.1557  0.2004
  642SOL    HW3 2622   2.826   2.827   1.177  1.4928 -0.6054 -1.3629
  642SOL    MW4 2623   2.899   2.857   1.213  0.7403 -0.4432  0.0656
  643SOL     OW 2624   2.946   3.128   1.135  0.0647 -0.5935 -0.3562
  643SOL    HW2 2625   2.914   3.043   1.166 -0.6758 -0.2874 -0.2725
  643SOL    HW3 2626   2.947   3.120   1.039  0.6787 -0.9398 -0.3214
  643SOL    MW4 2627   2.942   3.116   1.126  0.0479 -0.5984 -0.3405
  644SOL     OW 2628   2.730   3.269   1.242  0.0854 -0.0566  0.4201
  644SOL    HW2 2629   2.809   3.230   1.204  0.5297  1.7873 -0.6191
  644SOL    HW3 2630   2.659   3.210   1.216  0.7225 -0.1508 -1.1770
  644SOL    MW4 2631   2.731   3.256   1.234  0.2282  0.1740  0.0721
  645SOL     OW 2632   2.677   3.513   1.115 -0.3732  0.3993 -0.5483
  645SOL    HW2 2633   2.671   3.428   1.158  1.2248  0.7624  0.4648
  645SOL    HW3 2634   2.591   3.553   1.126 -1.2526 -1.2450 -1.3851
  645SOL    MW4 2635   2.665   3.507   1.122 -0.2782  0.2303 -0.5250
  646SOL     OW 2636   2.887   3.635   1.259 -0.2257 -0.0347  0.2547
  646SOL    HW2 2637   2.954   3.585   1.212  0.0143  0.0458  0.5080
  646SOL    HW3 2638   2.804   3.598   1.229 -0.0912  0.4635 -0.7336
  646SOL    MW4 2639   2.885   3.623   1.249 -0.1762  0.0417  0.1577
  647SOL     OW 2640   2.897   3.898   1.125  0.3671 -0.0010  0.0286
  647SOL    HW2 2641   2.983   3.923   1.157  1.2674 -0.6718 -1.7628
  647SOL    HW3 2642   2.884   3.808   1.157  0.7019 -0.1967 -0.3760
  647SOL    MW4 2643   2.906   3.889   1.134  0.5302 -0.1154 -0.2611
  648SOL     OW 2644   2.682   4.021   1.240  0.6709  0.2106  0.2314
  648SOL    HW2 2645   2.756   3.977   1.199 -0.2267 -0.2543 -0.9169
  648SOL    HW3 2646   2.605   3.980   1.201 -0.2086 -0.1131  2.2503
  648SOL    MW4 2647   2.682   4.010   1.230  0.4365  0.1073  0.3462
  649SOL     OW 2648   2.695   4.279   1.117 -0.0392 -0.1008 -0.0759
  649SOL    HW2 2649   2.691   4.188   1.147 -1.1313 -0.0483 -0.0681
  649SOL    HW3 2650   2.614   4.319   1.149 -0.4596  0.3759 -1.7072
  649SOL    MW4 2651   2.684   4.272   1.125 -0.2387 -0.0310 -0.2899
  650SOL     OW 2652   2.919   4.412   1.232  0.2432  0.1185  0.1163
  650SOL    HW2 2653   2.990   4.368   1.186 -0.1688  0.2547 -0.6775
  650SOL    HW3 2654   2.840   4.369   1.200 -0.0992  0.7597  0.0963
  650SOL    MW4 2655   2.918   4.401   1.222  0.1438  0.2208  0.0088
  651SOL     OW 2656   3.378   0.002   1.084  0.2023 -0.1900  0.1762
  651SOL    HW2 2657   3.447   0.043   1.136  0.0838 -0.9925  0.9670
  651SOL    HW3 2658   3.300   0.054   1.103  0.4536  0.3583 -0.2668
  651SOL    MW4 2659   3.377   0.014   1.093  0.2198 -0.2232  0.2221
  652SOL     OW 2660   3.180   0.189   1.171  0.7187 -0.2441  0.4598
  652SOL    HW2 2661   3.201   0.183   1.265  0.4200 -0.3786  0.5176
  652SOL    HW3 2662   3.101   0.136   1.161  0.9426 -0.4998  0.0714
  652SOL    MW4 2663   3.173   0.181   1.182  0.7091 -0.2956  0.4163
  653SOL     OW 2664   3.200   0.439   1.082  0.1296  0.2412 -0.0253
  653SOL    HW2 2665   3.203   0.349   1.115 -0.4396  0.2189 -0.0189
  653SOL    HW3 2666   3.122   0.476   1.123  0.6655  0.9103  0.3990
  653SOL    MW4 2667   3.190   0.432   1.092  0.1256  0.3265  0.0315
  654SOL     OW 2668   3.398   0.531   1.236  0.2442 -0.1506 -0.2919
  654SOL    HW2 2669   3.405   0.622   1.206  1.3140 -0.4306 -0.9019
  654SOL    HW3 2670   3.326   0.494   1.185  0.7543 -0.0566 -1.0904
  654SOL    MW4 2671   3.389   0.538   1.226  0.4528 -0.1751 -0.4777
  655SOL     OW 2672   3.392   0.790   1.130  0.0217 -0.3280 -0.2665
  655SOL    HW2 2673   3.306   0.831   1.146 -0.1087 -1.1069  1.1188
  655SOL    HW3 2674   3.394   0.776   1.035  0.0669  2.8679 -0.8058
  655SOL    MW4 2675   3.381   0.794   1.120  0.0105 -0.0091 -0.1549
  656SOL     OW 2676   3.172   0.932   1.221  0.0059 -0.4384  0.1207
  656SOL    HW2 2677   3.169   0.929   1.316  2.9128 -2.2065  0.2291
  656SOL    HW3 2678   3.138   1.018   1.198 -1.4467 -0.2763  2.6890
  656SOL    MW4 2679   3.167   0.943   1.230  0.1976 -0.6503  0.4739
  657SOL     OW 2680   3.098   1.194   1.086 -0.2091 -0.4182 -0.0962
  657SOL    HW2 2681   3.168   1.233   1.139  0.2446  0.5212 -1.3463
  657SOL    HW3 2682   3.017   1.223   1.129  0.1576 -0.6870  0.7881
  657SOL    MW4 2683   3.096   1.203   1.099 -0.1009 -0.3297 -0.1444
  658SOL     OW 2684   3.333   1.280   1.226  0.2899  0.5372 -0.5238
  658SOL    HW2 2685   3.338   1.283   1.321 -1.4554  2.5454 -0.4556
  658SOL    HW3 2686   3.349   1.371   1.198  1.7904 -0.2207 -2.2006
  658SOL    MW4 2687   3.336   1.293   1.235  0.2575  0.7021 -0.7360
  659SOL     OW 2688   3.379   1.576   1.168 -0.0068  0.2417 -0.2782
  659SOL    HW2 2689   3.442   1.638   1.204 -0.3851  0.3226  0.2531
  659SOL    HW3 2690   3.293   1.615   1.186 -0.1824  1.0845 -2.7500
  659SOL    MW4 2691   3.376   1.589   1.175 -0.0801  0.3636 -0.5343
  660SOL     OW 2692   3.141   1.695   1.248  0.4240 -0.3015 -0.0588
  660SOL    HW2 2693   3.153   1.682   1.342 -2.8116  0.0586  0.4919
  660SOL    HW3 2694   3.167   1.786   1.233  0.5810 -0.2404  0.5646
  660SOL    MW4 2695   3.146   1.705   1.259  0.0179 -0.2458  0.0961
  661SOL     OW 2696   3.168   1.922   1.091  0.3496 -0.0615  0.1252
  661SOL    HW2 2697   3.238   1.960   1.143  0.2397 -0.5489  0.6389
  661SOL    HW3 2698   3.087   1.957   1.130  0.2838 -0.0905  0.0147
  661SOL    MW4 2699   3.166   1.931   1.103  0.3266 -0.1297  0.1785
  662SOL     OW 2700   3.330   2.048   1.258 -0.7639 -0.1851  0.1035
  662SOL    HW2 2701   3.419   2.022   1.234 -1.1400 -0.3073 -1.2167
  662SOL    HW3 2702   3.328   2.143   1.246 -1.1310 -0.3199 -1.0210
  662SOL    MW4 2703   3.341   2.057   1.253 -0.8621 -0.2191 -0.2190
  663SOL     OW 2704   3.336   2.314   1.140  0.1657  0.2116 -0.2781
  663SOL    HW2 2705   3.428   2.332   1.161 -0.0799  0.4156  0.6652
  663SOL    HW3 2706   3.288   2.385   1.182 -0.5053 -0.4974  0.1601
  663SOL    MW4 2707   3.342   2.326   1.148  0.0446  0.1447 -0.0957
  664SOL     OW 2708   3.147   2.483   1.251  0.2331 -0.3174  0.0615
  664SOL    HW2 2709   3.160   2.477   1.346  0.6419 -1.0812 -0.0416
  664SOL    HW3 2710   3.169   2.574   1.231  0.3385 -0.2020  0.6696
  664SOL    MW4 2711   3.152   2.494   1.261  0.3009 -0.4029  0.1281
  665SOL     OW 2712   3.149   2.747   1.156  0.1354  0.1236 -0.4702
  665SOL    HW2 2713   3.065   2.791   1.173 -1.0076 -2.3833  0.5557
  665SOL    HW3 2714   3.159   2.751   1.061 -0.3503  1.8091 -0.4819
  665SOL    MW4 2715   3.139   2.754   1.146 -0.0799  0.0155 -0.3363
  666SOL     OW 2716   3.400   2.850   1.232 -0.4048  0.3817  0.1716
  666SOL    HW2 2717   3.413   2.940   1.202 -1.3414  0.0368 -1.3113
  666SOL    HW3 2718   3.309   2.831   1.213 -0.3638 -0.6955  1.0103
  666SOL    MW4 2719   3.390   2.859   1.225 -0.5233  0.1941  0.0865
  667SOL     OW 2720   3.421   3.125   1.139 -0.0784  0.0911 -0.8961
  667SOL    HW2 2721   3.496   3.175   1.172  0.0389 -0.3469 -0.4958
  667SOL    HW3 2722   3.345   3.173   1.170  0.0330  0.1563 -0.7243
  667SOL    MW4 2723   3.421   3.138   1.147 -0.0482  0.0420 -0.8206
  668SOL     OW 2724   3.184   3.263   1.237 -0.5065  0.6417  0.4231
  668SOL    HW2 2725   3.165   3.354   1.216 -0.8138  0.3048 -0.8181
  668SOL    HW3 2726   3.103   3.216   1.218  0.1064 -0.1023 -0.4433
  668SOL    MW4 2727   3.171   3.268   1.232 -0.4661  0.4992  0.1451
  669SOL     OW 2728   3.106   3.512   1.145  0.0449 -0.2966 -0.1449
  669SOL    HW2 2729   3.174   3.566   1.185 -0.2693 -0.8292  1.1065
  669SOL    HW3 2730   3.130   3.510   1.052  1.5636 -0.2237  0.2268
  669SOL    MW4 2731   3.118   3.519   1.138  0.2038 -0.3572  0.0693
  670SOL     OW 2732   3.331   3.634   1.239  0.4980  0.3034 -0.0758
  670SOL    HW2 2733   3.346   3.635   1.333  0.2390  0.0252 -0.0286
  670SOL    HW3 2734   3.406   3.587   1.203 -0.1152 -0.8440  0.1315
  670SOL    MW4 2735   3.342   3.628   1.247  0.3831  0.1154 -0.0423
  671SOL     OW 2736   3.398   3.884   1.129  0.3780  0.1540 -0.3584
  671SOL    HW2 2737   3.311   3.925   1.133  0.1090 -0.4706  0.1405
  671SOL    HW3 2738   3.390   3.805   1.181  1.4116  0.3809  0.1560
  671SOL    MW4 2739   3.385   3.879   1.136  0.4792  0.1011 -0.2247
  672SOL     OW 2740   3.151   4.008   1.206  0.1965 -0.2219  0.2694
  672SOL    HW2 2741   3.134   4.020   1.299  0.3185 -0.5476  0.3337
  672SOL    HW3 2742   3.124   4.091   1.166  0.6686  0.1216  0.6626
  672SOL    MW4 2743   3.145   4.021   1.213  0.2747 -0.2198  0.3297
  673SOL     OW 2744   3.101   4.253   1.096  0.6517  0.3367  0.3355
  673SOL    HW2 2745   3.174   4.308   1.124  0.7818 -0.1227  0.9105
  673SOL    HW3 2746   3.113   4.244   1.002  0.8880  0.9172  0.3082
  673SOL    MW4 2747   3.112   4.259   1.087  0.7000  0.3529  0.4077
  674SOL     OW 2748   3.323   4.395   1.186  0.5605 -0.0695  0.1990
  674SOL    HW2 2749   3.404   4.344   1.180  1.1254  0.8280  0.2110
  674SOL    HW3 2750   3.349   4.485   1.167 -0.3320  0.3192  0.7678
  674SOL    MW4 2751   3.337   4.400   1.183  0.5171  0.1001  0.2756
  675SOL     OW 2752   3.820   0.000   1.134 -0.2065  0.2374  0.0036
  675SOL    HW2 2753   3.807  -0.091   1.162 -1.2172  0.6257  0.8396
  675SOL    HW3 2754   3.821  -0.004   1.039 -0.5068 -0.6275  0.0345
  675SOL    MW4 2755   3.818  -0.012   1.125 -0.3793  0.1745  0.1179
  676SOL     OW 2756   3.601   0.136   1.191  0.0272  0.5918  0.3507
  676SOL    HW2 2757   3.599   0.220   1.144  0.7393  1.3360  1.6205
  676SOL    HW3 2758   3.676   0.090   1.154  1.4423  1.7505  1.6652
  676SOL    MW4 2759   3.611   0.141   1.180  0.3078  0.8429  0.6915
  677SOL     OW 2760   3.617   0.398   1.100  0.3014  0.0470 -0.1901
  677SOL    HW2 2761   3.695   0.451   1.117 -0.2282  1.2794 -1.4744
  677SOL    HW3 2762   3.548   0.438   1.153  0.2504 -0.2537 -0.0312
  677SOL    MW4 2763   3.618   0.410   1.109  0.2246  0.1699 -0.3386
  678SOL     OW 2764   3.809   0.545   1.240 -0.0365  0.2379 -0.0087
  678SOL    HW2 2765   3.884   0.490   1.215  0.0647 -0.0707  0.9377
  678SOL    HW3 2766   3.819   0.624   1.187 -0.4249 -0.8294 -1.7041
  678SOL    MW4 2767   3.820   0.548   1.230 -0.0746  0.0564 -0.1074
  679SOL     OW 2768   3.829   0.796   1.116  0.1615 -0.2157 -0.1732
  679SOL    HW2 2769   3.912   0.835   1.142 -0.2368  2.1019 -2.1878
  679SOL    HW3 2770   3.762   0.844   1.164 -0.1664 -0.3485 -0.4847
  679SOL    MW4 2771   3.831   0.807   1.126  0.0658  0.0726 -0.4803
  680SOL     OW 2772   3.618   0.942   1.210  0.0425 -0.1660 -0.4385
  680SOL    HW2 2773   3.618   1.028   1.166 -2.2076  0.6327  1.0319
  680SOL    HW3 2774   3.538   0.900   1.179  0.5980 -1.3121 -0.3172
  680SOL    MW4 2775   3.607   0.948   1.200 -0.1812 -0.2118 -0.2285
  681SOL     OW 2776   3.599   1.182   1.106  0.5856 -0.1783 -0.3266
  681SOL    HW2 2777   3.662   1.211   1.172 -0.7692  0.4825  0.6964
  681SOL    HW3 2778   3.514   1.209   1.141 -0.0391  1.4549 -3.0029
  681SOL    MW4 2779   3.596   1.189   1.119  0.3242  0.1246 -0.5448
  682SOL     OW 2780   3.819   1.307   1.244 -0.0597 -0.2629 -0.4314
  682SOL    HW2 2781   3.815   1.320   1.339 -0.5210 -0.7670 -0.3783
  682SOL    HW3 2782   3.817   1.395   1.207 -1.7820 -0.1267 -0.0421
  682SOL    MW4 2783   3.818   1.320   1.252 -0.3479 -0.3115 -0.3730
  683SOL     OW 2784   3.796   1.594   1.135 -0.4059 -0.2354 -0.0926
  683SOL    HW2 2785   3.882   1.631   1.156 -0.4425 -0.4001  0.3418
  683SOL    HW3 2786   3.803   1.570   1.042 -0.2256  0.4232 -0.2521
  683SOL    MW4 2787   3.809   1.596   1.125 -0.3872 -0.1704 -0.0564
  684SOL     OW 2788   3.592   1.701   1.292  0.2812 -0.3106 -0.5216
  684SOL    HW2 2789   3.576   1.782   1.243  1.7501  0.4340  0.2043
  684SOL    HW3 2790   3.670   1.663   1.252 -0.6133 -1.5720 -1.0970
  684SOL    MW4 2791   3.600   1.706   1.281  0.3572 -0.3788 -0.5016
  685SOL     OW 2792   3.565   1.945   1.144 -0.2031 -0.0532  0.0464
  685SOL    HW2 2793   3.650   1.963   1.183  0.2079 -1.6169 -0.0614
  685SOL    HW3 2794   3.576   1.967   1.051 -0.9770  3.0227  0.6455
  685SOL    MW4 2795   3.578   1.950   1.137 -0.2508  0.1464  0.1112
  686SOL     OW 2796   3.788   2.054   1.281 -0.7369 -0.0246 -0.1553
  686SOL    HW2 2797   3.803   2.043   1.375 -0.7277  3.3979  0.3054
  686SOL    HW3 2798   3.856   2.001   1.239 -1.5102 -2.6048  1.7068
  686SOL    MW4 2799   3.799   2.045   1.288 -0.8376  0.0863  0.1513
  687SOL     OW 2800   3.813   2.279   1.125  0.3213  0.5090 -0.5040
  687SOL    HW2 2801   3.884   2.320   1.175 -0.0533  0.0226  0.4354
  687SOL    HW3 2802   3.791   2.201   1.175 -0.4062  0.2904 -1.1671
  687SOL    MW4 2803   3.819   2.274   1.138  0.1757  0.4158 -0.4677
  688SOL     OW 2804   3.611   2.440   1.217 -0.3130 -0.1407 -1.0286
  688SOL    HW2 2805   3.597   2.440   1.312 -2.4621 -0.6211 -1.3313
  688SOL    HW3 2806   3.688   2.385   1.204  1.8767  2.3591  0.6764
  688SOL    MW4 2807   3.619   2.433   1.228 -0.3078  0.1256 -0.8435
  689SOL     OW 2808   3.592   2.700   1.096  0.3795  0.0531  0.1871
  689SOL    HW2 2809   3.588   2.610   1.130 -0.7816 -0.6362 -1.6782
  689SOL    HW3 2810   3.515   2.743   1.133  0.9549  0.2919  1.1094
  689SOL    MW4 2811   3.582   2.694   1.105  0.3026 -0.0064  0.0626
  690SOL     OW 2812   3.788   2.841   1.243  0.3799 -0.2206 -0.1494
  690SOL    HW2 2813   3.772   2.840   1.338  0.0006 -0.2174 -0.2104
  690SOL    HW3 2814   3.713   2.793   1.206  0.5350 -0.2340 -0.4457
  690SOL    MW4 2815   3.776   2.834   1.251  0.3505 -0.2217 -0.1966
  691SOL     OW 2816   3.814   3.098   1.123 -0.1609  0.5216  0.0079
  691SOL    HW2 2817   3.817   3.009   1.159  2.7901  0.3324 -0.5993
  691SOL    HW3 2818   3.800   3.085   1.029 -0.6863  0.7332  0.0581
  691SOL    MW4 2819   3.813   3.084   1.115  0.1590  0.5245 -0.0656
  692SOL     OW 2820   3.624   3.276   1.261 -0.5542 -0.5142 -0.3146
  692SOL    HW2 2821   3.612   3.360   1.217  0.4044 -0.1341  0.1314
  692SOL    HW3 2822   3.690   3.231   1.208 -0.6077 -0.7332 -0.1957
  692SOL    MW4 2823   3.631   3.281   1.248 -0.4349 -0.4930 -0.2400
  693SOL     OW 2824   3.574   3.505   1.144 -0.5591  0.3256  0.3241
  693SOL    HW2 2825   3.654   3.557   1.148 -0.2974 -0.0652  0.1261
  693SOL    HW3 2826   3.561   3.487   1.051 -1.8375  1.8787  0.1792
  693SOL    MW4 2827   3.583   3.510   1.132 -0.6931  0.4790  0.2788
  694SOL     OW 2828   3.818   3.582   1.194  0.3853 -0.9143 -0.2498
  694SOL    HW2 2829   3.826   3.594   1.289  0.5399  0.7739 -0.4585
  694SOL    HW3 2830   3.844   3.667   1.157 -1.6235 -0.9231 -1.7307
  694SOL    MW4 2831   3.823   3.595   1.202  0.1407 -0.6928 -0.4728
  695SOL     OW 2832   3.848   3.840   1.102 -0.1026 -0.0928  0.1680
  695SOL    HW2 2833   3.781   3.900   1.137 -0.2680  0.5413 -1.2083
  695SOL    HW3 2834   3.883   3.885   1.025  2.2468 -0.2042  1.1246
  695SOL    MW4 2835   3.844   3.854   1.097  0.1855 -0.0238  0.1127
  696SOL     OW 2836   3.651   4.004   1.201  0.0940 -0.0870  0.1669
  696SOL    HW2 2837   3.620   3.997   1.291 -0.8586 -0.4635 -0.1756
  696SOL    HW3 2838   3.571   3.999   1.148  0.4496  2.0344 -0.6225
  696SOL    MW4 2839   3.636   4.003   1.206  0.0153  0.1435  0.0176
  697SOL     OW 2840   3.571   4.274   1.170 -0.3589 -0.2539  0.3376
  697SOL    HW2 2841   3.589   4.182   1.191  0.6595  0.2738  1.8491
  697SOL    HW3 2842   3.546   4.273   1.077  1.3950 -1.8332 -0.1493
  697SOL    MW4 2843   3.570   4.262   1.160  0.0072 -0.3924  0.4728
  698SOL     OW 2844   3.820   4.402   1.233 -0.1303  0.1938  0.0036
  698SOL    HW2 2845   3.826   4.391   1.328  1.0152 -1.3953 -0.2432
  698SOL    HW3 2846   3.742   4.351   1.208 -1.2633  1.7576  0.2399
  698SOL    MW4 2847   3.810   4.394   1.242 -0.1287  0.1907  0.0023
  699SOL     OW 2848   4.300   4.643   1.109  0.4553 -0.1197 -0.2084
  699SOL    HW2 2849   4.288   4.550   1.131  0.9618  0.1299  1.1851
  699SOL    HW3 2850   4.217   4.684   1.132 -0.3507 -0.4754 -2.3503
  699SOL    MW4 2851   4.287   4.636   1.115  0.4153 -0.1330 -0.3073
  700SOL     OW 2852   4.067   0.133   1.222  0.1884  0.4636 -0.0292
  700SOL    HW2 2853   4.071   0.124   1.317  0.7488 -0.2663 -0.1186
  700SOL    HW3 2854   3.987   0.088   1.196  0.7274 -0.5005 -0.0329
  700SOL    MW4 2855   4.057   0.126   1.231  0.3333  0.2401 -0.0415
  701SOL     OW 2856   4.022   0.391   1.152  0.5866  0.2088 -0.2874
  701SOL    HW2 2857   4.019   0.300   1.182 -0.7638  0.4385  0.3110
  701SOL    HW3 2858   4.039   0.384   1.058 -1.1369 -0.7500 -0.5634
  701SOL    MW4 2859   4.024   0.378   1.143  0.1812  0.1126 -0.2447
  702SOL     OW 2860   4.271   0.514   1.253 -0.1260  0.1047  0.1095
  702SOL    HW2 2861   4.271   0.500   1.347  0.9090 -0.3255  0.0493
  702SOL    HW3 2862   4.199   0.459   1.221 -1.2229  1.1348  0.7597
  702SOL    MW4 2863   4.262   0.505   1.261 -0.1340  0.1839  0.1873
  703SOL     OW 2864   4.264   0.781   1.132  0.5316 -0.2994  0.7029
  703SOL    HW2 2865   4.245   0.698   1.177 -0.3441 -0.8265 -0.5926
  703SOL    HW3 2866   4.248   0.762   1.039 -0.2989  1.4877  0.4496
  703SOL    MW4 2867   4.259   0.767   1.126  0.3066 -0.1333  0.4984
  704SOL     OW 2868   4.053   0.918   1.229 -0.1553  0.3887  0.0932
  704SOL    HW2 2869   4.066   0.932   1.323  0.8367 -1.1222  0.1969
  704SOL    HW3 2870   4.137   0.887   1.197 -0.1489  2.0055 -1.5431
  704SOL    MW4 2871   4.066   0.915   1.237 -0.0238  0.4027 -0.1088
  705SOL     OW 2872   4.029   1.178   1.111 -0.1809 -0.2256  0.3884
  705SOL    HW2 2873   4.009   1.088   1.138 -1.1033 -0.1977 -0.1720
  705SOL    HW3 2874   3.962   1.232   1.154 -0.0568  0.1103  0.1656
  705SOL    MW4 2875   4.017   1.173   1.120 -0.2866 -0.1776  0.2851
  706SOL     OW 2876   4.279   1.244   1.235 -0.1293 -0.4768  0.1017
  706SOL    HW2 2877   4.256   1.272   1.324 -0.6957  1.1809 -0.5560
  706SOL    HW3 2878   4.200   1.202   1.202 -0.3952  0.2047 -0.1362
  706SOL    MW4 2879   4.266   1.242   1.243 -0.2394 -0.1682 -0.0166
  707SOL     OW 2880   4.265   1.527   1.138  0.2440  0.4299 -0.1925
  707SOL    HW2 2881   4.279   1.437   1.165 -1.5828 -0.0111 -0.6574
  707SOL    HW3 2882   4.342   1.574   1.171  1.7401 -1.4564 -0.8527
  707SOL    MW4 2883   4.277   1.522   1.146  0.1998  0.1228 -0.3409
  708SOL     OW 2884   4.048   1.671   1.216  0.6093 -0.1061 -0.0191
  708SOL    HW2 2885   4.044   1.660   1.311  2.8379  1.6640  0.3205
  708SOL    HW3 2886   4.122   1.617   1.189  1.2450  0.9667 -0.4619
  708SOL    MW4 2887   4.057   1.662   1.225  0.9875  0.2691 -0.0328
  709SOL     OW 2888   3.990   1.942   1.122  0.0164 -0.0236 -0.0712
  709SOL    HW2 2889   4.018   1.851   1.134 -0.4435 -0.2300 -0.5076
  709SOL    HW3 2890   3.983   1.952   1.027  1.4280  0.8974 -0.0920
  709SOL    MW4 2891   3.993   1.931   1.111  0.1421  0.0708 -0.1316
  710SOL     OW 2892   4.235   2.053   1.227  0.1067  0.0113 -0.2001
  710SOL    HW2 2893   4.255   2.137   1.185 -0.8791 -0.0830 -0.8685
  710SOL    HW3 2894   4.147   2.031   1.196 -0.3627 -0.4057  1.3606
  710SOL    MW4 2895   4.226   2.061   1.217 -0.0849 -0.0560 -0.0824
  711SOL     OW 2896   4.250   2.304   1.108  0.5162 -0.0540  0.2585
  711SOL    HW2 2897   4.162   2.333   1.131 -0.1220 -2.4994  1.0657
  711SOL    HW3 2898   4.256   2.319   1.014 -2.0400 -2.8491 -0.4575
  711SOL    MW4 2899   4.239   2.310   1.099  0.0949 -0.7455  0.2706
  712SOL     OW 2900   4.030   2.450   1.234  0.3980 -0.3948 -0.1772
  712SOL    HW2 2901   4.032   2.468   1.328 -1.8749  1.3299 -0.4225
  712SOL    HW3 2902   4.033   2.536   1.193  1.4262 -1.1335 -1.7120
  712SOL    MW4 2903   4.031   2.464   1.241  0.2341 -0.2646 -0.4122
  713SOL     OW 2904   4.032   2.703   1.118  0.3548  0.1894  0.0899
  713SOL    HW2 2905   3.980   2.772   1.158  0.3494 -0.1302  0.6397
  713SOL    HW3 2906   4.041   2.729   1.026 -1.7464 -0.3556 -0.2809
  713SOL    MW4 2907   4.027   2.715   1.111  0.0768  0.0756  0.1134
  714SOL     OW 2908   4.286   2.793   1.192 -0.0819  0.1153 -0.2998
  714SOL    HW2 2909   4.282   2.884   1.161 -0.1131  0.0057 -0.6250
  714SOL    HW3 2910   4.202   2.755   1.165  0.0186 -0.0694 -0.3527
  714SOL    MW4 2911   4.274   2.800   1.184 -0.0725  0.0761 -0.3498
  715SOL     OW 2912   4.278   3.059   1.157 -0.4798 -0.2887  0.2038
  715SOL    HW2 2913   4.202   3.114   1.176  0.3957  0.8412  0.5220
  715SOL    HW3 2914   4.301   3.081   1.066  0.1053  0.1834  0.4574
  715SOL    MW4 2915   4.271   3.069   1.147 -0.2866 -0.0770  0.2793
  716SOL     OW 2916   4.070   3.224   1.207 -0.1456  0.4175  0.4681
  716SOL    HW2 2917   4.066   3.209   1.302 -0.2836  0.5183  0.4784
  716SOL    HW3 2918   3.988   3.187   1.174  0.2126 -0.2413  0.2996
  716SOL    MW4 2919   4.058   3.217   1.215 -0.1168  0.3438  0.4470
  717SOL     OW 2920   4.088   3.496   1.135 -0.0177 -0.0124 -0.2533
  717SOL    HW2 2921   4.093   3.401   1.144 -0.6212 -0.0962 -0.7634
  717SOL    HW3 2922   3.999   3.518   1.163  0.3328  0.4795  0.4890
  717SOL    MW4 2923   4.077   3.487   1.140 -0.0505  0.0415 -0.2226
  718SOL     OW 2924   4.307   3.649   1.267  0.1811 -0.1646  0.0514
  718SOL    HW2 2925   4.242   3.586   1.236  0.3796 -0.2068 -0.2777
  718SOL    HW3 2926   4.390   3.617   1.232  0.6106 -1.0004  1.7693
  718SOL    MW4 2927   4.310   3.636   1.259  0.2642 -0.2804  0.2348
  719SOL     OW 2928   4.308   3.897   1.148  0.2477 -0.1881  0.2487
  719SOL    HW2 2929   4.228   3.940   1.179 -0.0752 -0.7966  0.2506
  719SOL    HW3 2930   4.309   3.812   1.192  0.2161 -0.7193 -0.7704
  719SOL    MW4 2931   4.298   3.892   1.158  0.2007 -0.3386  0.1144
  720SOL     OW 2932   4.052   4.019   1.232  0.1464  0.0282 -0.6198
  720SOL    HW2 2933   4.035   4.107   1.198  1.7008  0.0484 -1.3751
  720SOL    HW3 2934   3.993   3.962   1.181  0.2976  0.4295 -1.2498
  720SOL    MW4 2935   4.042   4.023   1.221  0.3715  0.0834 -0.8026
  721SOL     OW 2936   3.991   4.252   1.088 -0.3303  0.0228  0.0583
  721SOL    HW2 2937   3.927   4.309   1.131  2.1260  1.6169  1.7154
  721SOL    HW3 2938   3.990   4.281   0.996  0.3608  2.3267  0.7302
  721SOL    MW4 2939   3.982   4.263   1.081  0.0851  0.5374  0.3655
  722SOL     OW 2940   4.239   4.381   1.215 -0.0851 -0.0714  0.2647
  722SOL    HW2 2941   4.160   4.332   1.190 -0.6014  1.0216 -0.2771
  722SOL    HW3 2942   4.310   4.317   1.206 -0.7761 -0.7835 -0.2423
  722SOL    MW4 2943   4.238   4.366   1.210 -0.2441 -0.0210  0.1262
  723SOL     OW 2944   0.247   4.662   1.617 -0.5127 -0.0574 -0.0362
  723SOL    HW2 2945   0.329   4.693   1.579 -0.2155 -0.1682  0.5020
  723SOL    HW3 2946   0.179   4.706   1.567 -0.0995  1.4024  0.6592
  723SOL    MW4 2947   0.249   4.672   1.605 -0.4190  0.1206  0.1267
  724SOL     OW 2948   0.031   0.112   1.496 -0.5626  0.3817  0.3577
  724SOL    HW2 2949  -0.040   0.050   1.512  0.4576 -0.9507 -0.1857
  724SOL    HW3 2950   0.024   0.133   1.403 -0.5832  0.6733  0.4249
  724SOL    MW4 2951   0.021   0.107   1.486 -0.4307  0.2443  0.2949
  725SOL     OW 2952   0.006   0.367   1.592  0.2770  0.0376 -0.1897
  725SOL    HW2 2953  -0.015   0.350   1.684  2.4654  0.6512  0.4435
  725SOL    HW3 2954   0.018   0.280   1.555  0.3590 -0.1895  0.3545
  725SOL    MW4 2955   0.005   0.353   1.600  0.5760  0.0886 -0.0343
  726SOL     OW 2956   0.254   0.493   1.511  0.5293  0.5507 -0.3002
  726SOL    HW2 2957   0.172   0.461   1.548  0.7826  0.9346  0.6079
  726SOL    HW3 2958   0.238   0.498   1.417  0.2773 -1.6607 -0.4157
  726SOL    MW4 2959   0.241   0.489   1.503  0.5294  0.3096 -0.1956
  727SOL     OW 2960   0.247   0.754   1.584  0.1822 -0.3607 -0.4525
  727SOL    HW2 2961   0.313   0.811   1.545 -0.2182  1.3235  1.2871
  727SOL    HW3 2962   0.260   0.669   1.541  0.1556  1.2411 -3.7620
  727SOL    MW4 2963   0.257   0.750   1.573  0.1259  0.0729 -0.6597
  728SOL     OW 2964   0.011   0.872   1.503 -0.0134  0.0965  0.2639
  728SOL    HW2 2965  -0.004   0.955   1.549 -0.5762  0.6251 -0.8380
  728SOL    HW3 2966   0.090   0.836   1.542  0.0014  0.9564  1.0386
  728SOL    MW4 2967   0.019   0.878   1.514 -0.0858  0.2797  0.2209
  729SOL     OW 2968   4.477   1.133   1.609 -0.3615 -0.2684 -0.1506
  729SOL    HW2 2969   4.497   1.147   1.702 -0.2958 -0.0071 -0.2063
  729SOL    HW3 2970   4.545   1.180   1.562 -0.0484 -0.8928 -0.3307
  729SOL    MW4 2971   4.488   1.141   1.615 -0.3115 -0.3163 -0.1817
  730SOL     OW 2972   0.189   1.281   1.516 -0.5461 -0.4677 -0.3236
  730SOL    HW2 2973   0.204   1.373   1.538  0.5920 -0.6182 -0.4649
  730SOL    HW3 2974   0.201   1.277   1.422  0.7410 -1.0139 -0.1420
  730SOL    MW4 2975   0.193   1.293   1.507 -0.2261 -0.5598 -0.3183
  731SOL     OW 2976   0.210   1.551   1.623  0.0116  0.4771 -0.1465
  731SOL    HW2 2977   0.216   1.549   1.719  1.0771 -1.7623 -0.2356
  731SOL    HW3 2978   0.122   1.586   1.605 -0.8971 -0.7898  1.6658
  731SOL    MW4 2979   0.199   1.556   1.634  0.0323  0.0145  0.0811
  732SOL     OW 2980   4.461   1.702   1.543  0.3675 -0.2535 -0.1297
  732SOL    HW2 2981   4.463   1.794   1.571 -1.0895  0.0140 -0.8440
  732SOL    HW3 2982   4.473   1.707   1.448  2.0357 -0.9308  0.0352
  732SOL    MW4 2983   4.463   1.715   1.534  0.3953 -0.3074 -0.2022
  733SOL     OW 2984   0.001   1.968   1.632  0.2830 -0.1031  0.1025
  733SOL    HW2 2985  -0.019   1.948   1.724 -0.2396  0.3742  0.0991
  733SOL    HW3 2986  -0.082   1.999   1.596  0.0189 -2.0712 -1.0374
  733SOL    MW4 2987  -0.012   1.970   1.639  0.1791 -0.2997 -0.0484
  734SOL     OW 2988   0.231   2.073   1.534 -0.6152  0.3603 -0.3576
  734SOL    HW2 2989   0.148   2.035   1.563 -0.2368  0.2659  0.5930
  734SOL    HW3 2990   0.225   2.073   1.438 -0.7278 -1.8539 -0.3627
  734SOL    MW4 2991   0.219   2.068   1.525 -0.5801  0.0556 -0.2328
  735SOL     OW 2992   0.221   2.326   1.633 -0.2484 -0.0004  0.1314
  735SOL    HW2 2993   0.207   2.320   1.727  0.0496 -0.4109  0.1519
  735SOL    HW3 2994   0.224   2.235   1.604 -0.3474  0.1245 -0.2772
  735SOL    MW4 2995   0.219   2.313   1.641 -0.2221 -0.0384  0.0800
  736SOL     OW 2996   0.015   2.431   1.479 -0.2561 -0.0672  0.2498
  736SOL    HW2 2997  -0.072   2.409   1.514  0.1712  0.0151  1.3731
  736SOL    HW3 2998   0.077   2.391   1.540  0.5071 -0.2455 -0.6255
  736SOL    MW4 2999   0.011   2.423   1.491 -0.0990 -0.0799  0.2825
  737SOL     OW 3000   4.483   2.698   1.593 -0.2611  0.2951 -0.2608
  737SOL    HW2 3001   4.402   2.717   1.546 -1.2798 -0.3760  1.1624
  737SOL    HW3 3002   4.511   2.613   1.560 -0.7931 -0.0204  0.0882
  737SOL    MW4 3003   4.476   2.689   1.583 -0.4659  0.1647 -0.0269
  738SOL     OW 3004   0.213   2.830   1.467  0.3387 -0.3185 -0.1544
  738SOL    HW2 3005   0.284   2.777   1.502  0.0948  0.0663  0.9237
  738SOL    HW3 3006   0.134   2.791   1.503  0.1964  1.1739  1.1587
  738SOL    MW4 3007   0.212   2.818   1.476  0.2878 -0.0708  0.1611
  739SOL     OW 3008   0.248   3.078   1.623  0.0791  0.1605 -0.2707
  739SOL    HW2 3009   0.174   3.122   1.581  0.5253  0.3024 -0.9311
  739SOL    HW3 3010   0.264   3.001   1.568  1.5523  1.0933 -1.1949
  739SOL    MW4 3011   0.240   3.074   1.610  0.3324  0.3021 -0.4799
  740SOL     OW 3012   0.010   3.217   1.540  0.1246 -0.3180 -0.1659
  740SOL    HW2 3013  -0.012   3.302   1.577  2.3694  0.0323  0.3967
  740SOL    HW3 3014   0.008   3.231   1.445  0.4431  0.3542 -0.0784
  740SOL    MW4 3015   0.007   3.230   1.533  0.4628 -0.1831 -0.0801
  741SOL     OW 3016   4.436   3.447   1.657  0.3104 -0.0913  0.7002
  741SOL    HW2 3017   4.427   3.466   1.750 -1.7741  0.0155  0.4930
  741SOL    HW3 3018   4.376   3.507   1.614 -0.1932 -1.4856 -0.5700
  741SOL    MW4 3019   4.427   3.457   1.664 -0.0310 -0.2613  0.5052
  742SOL     OW 3020   0.178   3.564   1.551 -0.1828 -0.2118  0.3918
  742SOL    HW2 3021   0.169   3.655   1.581  0.7769  0.4240 -1.2053
  742SOL    HW3 3022   0.101   3.519   1.588 -1.6515  1.6500 -0.3205
  742SOL    MW4 3023   0.167   3.570   1.560 -0.2500  0.1180  0.0873
  743SOL     OW 3024   0.438   4.022   1.553 -0.1317  0.3721  0.0964
  743SOL    HW2 3025   0.514   3.979   1.592 -0.1306  0.5546  0.2954
  743SOL    HW3 3026   0.455   4.019   1.459 -1.8647 -3.3710 -0.1626
  743SOL    MW4 3027   0.450   4.016   1.546 -0.3603 -0.0978  0.0885
  744SOL     OW 3028   0.014   4.010   1.568 -0.1655 -0.7051 -0.5283
  744SOL    HW2 3029   0.016   4.093   1.614 -0.3473 -0.6052 -0.7009
  744SOL    HW3 3030   0.086   3.959   1.606 -0.4504 -0.7040  0.0176
  744SOL    MW4 3031   0.024   4.014   1.579 -0.2271 -0.6914 -0.4791
  745SOL     OW 3032   0.028   4.268   1.634  0.1770  0.0193  0.3312
  745SOL    HW2 3033   0.006   4.263   1.727  0.2171  1.1201  0.4066
  745SOL    HW3 3034  -0.051   4.304   1.593  0.1883 -0.3823 -0.0493
  745SOL    MW4 3035   0.014   4.272   1.641  0.1838  0.1121  0.2908
  746SOL     OW 3036   0.249   4.405   1.511 -0.2065  0.0154  0.2395
  746SOL    HW2 3037   0.177   4.365   1.558  0.2239  0.3942  1.2336
  746SOL    HW3 3038   0.248   4.497   1.539  0.5262  0.0703  0.1107
  746SOL    MW4 3039   0.240   4.412   1.521 -0.0531  0.0730  0.3537
  747SOL     OW 3040   0.707   4.649   1.632  0.2249  0.2463 -0.5292
  747SOL    HW2 3041   0.788   4.684   1.593  0.7507 -1.1489 -0.7056
  747SOL    HW3 3042   0.638   4.706   1.599  1.2550  2.1296  0.4752
  747SOL    MW4 3043   0.709   4.661   1.622  0.4302  0.3109 -0.4200
  748SOL     OW 3044   0.492   0.109   1.528 -0.0045 -0.5482 -0.0497
  748SOL    HW2 3045   0.490   0.202   1.554 -0.5485 -0.5308 -0.1392
  748SOL    HW3 3046   0.500   0.111   1.432  1.2786 -0.6060  0.0540
  748SOL    MW4 3047   0.493   0.122   1.519  0.0930 -0.5535 -0.0478
  749SOL     OW 3048   0.489   0.378   1.578  0.0687 -0.0799 -0.1455
  749SOL    HW2 3049   0.553   0.443   1.548  0.4916 -0.8886 -1.0484
  749SOL    HW3 3050   0.405   0.411   1.547  0.3334 -0.1727 -0.9838
  749SOL    MW4 3051   0.486   0.391   1.570  0.1594 -0.1988 -0.3753
  750SOL     OW 3052   0.719   0.535   1.510 -0.0487 -0.2041  0.1516
  750SOL    HW2 3053   0.703   0.619   1.553  0.3172 -0.0375 -0.0411
  750SOL    HW3 3054   0.717   0.555   1.417 -0.3437 -0.4791  0.0984
  750SOL    MW4 3055   0.717   0.549   1.503 -0.0394 -0.2184  0.1192
  751SOL     OW 3056   0.673   0.797   1.582  0.2051  0.0889  0.4409
  751SOL    HW2 3057   0.673   0.800   1.678 -0.4925 -1.1163  0.4866
  751SOL    HW3 3058   0.764   0.815   1.558  0.7638 -1.3730  1.3961
  751SOL    MW4 3059   0.685   0.800   1.592  0.1868 -0.2630  0.5729
  752SOL     OW 3060   0.450   0.916   1.476 -0.1413  0.1705  0.2484
  752SOL    HW2 3061   0.436   0.995   1.529 -1.6387 -0.9167  1.5186
  752SOL    HW3 3062   0.528   0.875   1.514  0.0617  0.5321  0.2222
  752SOL    MW4 3063   0.459   0.921   1.488 -0.3121  0.0748  0.4126
  753SOL     OW 3064   0.409   1.151   1.603 -0.5493  0.0357  0.1320
  753SOL    HW2 3065   0.471   1.183   1.538 -0.2016 -0.3232  0.2840
  753SOL    HW3 3066   0.323   1.181   1.572 -0.3569  0.0816 -0.3520
  753SOL    MW4 3067   0.406   1.159   1.591 -0.4780 -0.0056  0.0883
  754SOL     OW 3068   0.658   1.243   1.476 -0.1285 -0.1162 -0.0209
  754SOL    HW2 3069   0.676   1.335   1.495 -1.0083  0.1374 -0.3891
  754SOL    HW3 3070   0.665   1.236   1.381 -3.7115  0.4119 -0.4091
  754SOL    MW4 3071   0.661   1.254   1.466 -0.7173 -0.0130 -0.1208
  755SOL     OW 3072   0.684   1.505   1.591 -0.0973 -0.2283 -0.0586
  755SOL    HW2 3073   0.760   1.554   1.560  0.2489 -0.1646  0.8532
  755SOL    HW3 3074   0.609   1.560   1.568  0.2054  0.1521 -0.1476
  755SOL    MW4 3075   0.685   1.519   1.584 -0.0117 -0.1696  0.0501
  756SOL     OW 3076   0.445   1.654   1.542  0.1118  0.1537  0.2796
  756SOL    HW2 3077   0.437   1.746   1.569 -0.9351  0.1682 -0.0392
  756SOL    HW3 3078   0.368   1.612   1.578 -0.5003 -0.1497 -1.3235
  756SOL    MW4 3079   0.434   1.661   1.550 -0.1071  0.1156  0.0261
  757SOL     OW 3080   0.438   1.911   1.637 -0.6157  0.6986 -0.2391
  757SOL    HW2 3081   0.425   1.926   1.731 -1.7878 -1.5923 -0.0064
  757SOL    HW3 3082   0.365   1.957   1.595 -1.8464 -0.8247  0.1909
  757SOL    MW4 3083   0.427   1.919   1.644 -0.9327  0.1953 -0.1518
  758SOL     OW 3084   0.673   2.065   1.493 -0.0333 -0.3679  0.1979
  758SOL    HW2 3085   0.749   2.029   1.539  0.3912 -0.1660 -0.3310
  758SOL    HW3 3086   0.597   2.027   1.537  0.3196  0.9010  1.9912
  758SOL    MW4 3087   0.673   2.055   1.505  0.0693 -0.1738  0.3649
  759SOL     OW 3088   0.657   2.323   1.578  0.3179 -0.1645  0.4637
  759SOL    HW2 3089   0.570   2.355   1.555 -0.3145 -0.6111  2.1672
  759SOL    HW3 3090   0.662   2.236   1.537 -0.5814 -0.7146  1.4694
  759SOL    MW4 3091   0.646   2.315   1.570  0.1158 -0.2961  0.8211
  760SOL     OW 3092   0.421   2.446   1.491  0.2165 -0.0635  0.3706
  760SOL    HW2 3093   0.416   2.537   1.520 -1.3301  0.3852 -1.2318
  760SOL    HW3 3094   0.351   2.402   1.539 -0.5429  0.0892 -0.5954
  760SOL    MW4 3095   0.411   2.452   1.501 -0.0878  0.0157  0.0317
  761SOL     OW 3096   0.413   2.706   1.605  0.3854 -0.1171  0.1828
  761SOL    HW2 3097   0.415   2.716   1.700  1.0174 -1.3063  0.3145
  761SOL    HW3 3098   0.491   2.753   1.575  0.3131  0.0614  0.2724
  761SOL    MW4 3099   0.424   2.713   1.614  0.4592 -0.2503  0.2120
  762SOL     OW 3100   0.646   2.842   1.524  0.2563  0.2793 -0.4081
  762SOL    HW2 3101   0.650   2.933   1.555  1.1920 -0.3737  1.4489
  762SOL    HW3 3102   0.661   2.848   1.430  2.2601  1.8965 -0.0247
  762SOL    MW4 3103   0.648   2.855   1.516  0.6441  0.4065 -0.1127
  763SOL     OW 3104   0.653   3.104   1.610  0.2747 -0.0082 -0.1553
  763SOL    HW2 3105   0.733   3.151   1.590  0.5014 -1.2028 -2.2936
  763SOL    HW3 3106   0.583   3.162   1.581  0.4300  0.5113  0.5311
  763SOL    MW4 3107   0.654   3.118   1.603  0.3251 -0.0970 -0.3470
  764SOL     OW 3108   0.438   3.239   1.511  0.4620 -0.3742  0.4650
  764SOL    HW2 3109   0.368   3.180   1.541 -0.4344  0.5422  0.1775
  764SOL    HW3 3110   0.444   3.224   1.417  0.8969 -0.7100  0.5451
  764SOL    MW4 3111   0.430   3.229   1.503  0.4011 -0.2978  0.4376
  765SOL     OW 3112   0.442   3.506   1.620 -0.7684 -0.4348 -0.7785
  765SOL    HW2 3113   0.434   3.416   1.588 -0.0656 -1.1213  0.9296
  765SOL    HW3 3114   0.353   3.540   1.616 -1.1839 -1.4888 -0.6063
  765SOL    MW4 3115   0.429   3.498   1.615 -0.7305 -0.6645 -0.5304
  766SOL     OW 3116   0.677   3.643   1.553  0.5200 -0.0812  0.3359
  766SOL    HW2 3117   0.757   3.593   1.570  0.1191 -0.7454  0.2885
  766SOL    HW3 3118   0.607   3.590   1.591 -0.0434 -0.1538 -0.7897
  766SOL    MW4 3119   0.679   3.629   1.560  0.3928 -0.1786  0.1812
  767SOL     OW 3120   0.639   3.891   1.685  0.1051  0.3197 -0.3274
  767SOL    HW2 3121   0.722   3.935   1.665 -0.8872  1.2908 -2.4725
  767SOL    HW3 3122   0.649   3.804   1.647 -0.1154  0.6774 -1.2179
  767SOL    MW4 3123   0.652   3.885   1.677 -0.0550  0.4950 -0.7280
  768SOL     OW 3124   0.225   3.861   1.659 -0.6817 -0.5018 -0.3297
  768SOL    HW2 3125   0.216   3.885   1.751 -0.4182 -0.9881 -0.1724
  768SOL    HW3 3126   0.296   3.916   1.626 -1.0060 -0.0825 -0.3339
  768SOL    MW4 3127   0.233   3.871   1.667 -0.6898 -0.5105 -0.3096
  769SOL     OW 3128   0.476   4.275   1.653 -0.2356  0.1745 -0.7367
  769SOL    HW2 3129   0.476   4.188   1.614 -0.5721  0.1421 -0.6650
  769SOL    HW3 3130   0.401   4.319   1.613 -1.0364 -0.1098  0.4208
  769SOL    MW4 3131   0.466   4.269   1.642 -0.3856  0.1330 -0.5746
  770SOL     OW 3132   0.658   4.414   1.501 -0.0653  0.3784  0.3809
  770SOL    HW2 3133   0.596   4.363   1.553  0.9848 -0.4875  0.8105
  770SOL    HW3 3134   0.677   4.491   1.554 -0.2967  0.3275  0.5360
  770SOL    MW4 3135   0.653   4.417   1.515  0.0427  0.2575  0.4581
  771SOL     OW 3136   1.128   4.645   1.637 -0.1640 -0.1798  0.3169
  771SOL    HW2 3137   1.126   4.659   1.732  1.1146 -0.3148  0.3779
  771SOL    HW3 3138   1.197   4.704   1.606 -0.2049 -0.5359 -0.4547
  771SOL    MW4 3139   1.137   4.655   1.646 -0.0007 -0.2441  0.2232
  772SOL     OW 3140   0.925   0.106   1.507 -0.2905 -0.1282 -0.0281
  772SOL    HW2 3141   0.939   0.198   1.529  2.2693  0.0337 -2.0790
  772SOL    HW3 3142   0.997   0.060   1.549 -1.1596 -1.1008  0.3943
  772SOL    MW4 3143   0.936   0.112   1.515 -0.0675 -0.2352 -0.2429
  773SOL     OW 3144   0.941   0.379   1.571  0.1491 -0.1176 -0.1953
  773SOL    HW2 3145   0.935   0.367   1.666  0.3365  0.3914 -0.1168
  773SOL    HW3 3146   0.869   0.439   1.550  0.8990  0.7866 -0.1909
  773SOL    MW4 3147   0.930   0.385   1.581  0.2728  0.0689 -0.1843
  774SOL     OW 3148   1.139   0.533   1.455  0.1815 -0.3901  0.1807
  774SOL    HW2 3149   1.159   0.607   1.514 -0.5877  0.9663 -1.2151
  774SOL    HW3 3150   1.063   0.490   1.495  0.6140 -0.4105  0.9910
  774SOL    MW4 3151   1.132   0.537   1.468  0.1371 -0.2139  0.1034
  775SOL     OW 3152   1.172   0.776   1.593  0.0038  0.3040  0.4306
  775SOL    HW2 3153   1.177   0.768   1.688 -0.1085  1.6922  0.5509
  775SOL    HW3 3154   1.246   0.832   1.569 -1.0575  1.4851 -0.1112
  775SOL    MW4 3155   1.183   0.782   1.602 -0.1510  0.6430  0.3749
  776SOL     OW 3156   0.914   0.877   1.497 -0.4231  0.1371 -0.1583
  776SOL    HW2 3157   1.001   0.843   1.517 -0.0831  0.4748 -1.0537
  776SOL    HW3 3158   0.910   0.878   1.402 -1.6118 -0.3841 -0.1262
  776SOL    MW4 3159   0.925   0.872   1.487 -0.5350  0.1128 -0.2723
  777SOL     OW 3160   0.892   1.138   1.593  0.1510 -0.1103 -0.4115
  777SOL    HW2 3161   0.897   1.048   1.561 -0.0307 -0.6867  1.1843
  777SOL    HW3 3162   0.806   1.169   1.563  0.4703 -0.2376 -1.4974
  777SOL    MW4 3163   0.881   1.130   1.585  0.1692 -0.2031 -0.3443
  778SOL     OW 3164   1.110   1.266   1.479  0.3840 -0.1574 -0.2347
  778SOL    HW2 3165   1.186   1.250   1.534 -0.0276 -0.8180  0.1591
  778SOL    HW3 3166   1.041   1.210   1.516 -0.5813  1.1585  0.0179
  778SOL    MW4 3167   1.111   1.256   1.491  0.2023 -0.0709 -0.1495
  779SOL     OW 3168   1.117   1.500   1.608  0.0647 -0.3151 -0.2921
  779SOL    HW2 3169   1.199   1.541   1.581  0.1647  0.1203  0.6371
  779SOL    HW3 3170   1.113   1.418   1.558  0.4546  0.2513 -1.2681
  779SOL    MW4 3171   1.127   1.495   1.598  0.1295 -0.1829 -0.2983
  780SOL     OW 3172   0.896   1.643   1.507  0.1558  0.3314 -0.0467
  780SOL    HW2 3173   0.969   1.595   1.544  0.7569  1.0569 -0.2709
  780SOL    HW3 3174   0.908   1.636   1.412 -0.8139 -0.6751 -0.0974
  780SOL    MW4 3175   0.907   1.636   1.500  0.1072  0.2943 -0.0830
  781SOL     OW 3176   0.875   1.912   1.590  0.1525 -0.3329  0.5034
  781SOL    HW2 3177   0.953   1.952   1.553 -0.2197  0.3089  0.3983
  781SOL    HW3 3178   0.869   1.826   1.548  0.7606 -0.3591  0.4651
  781SOL    MW4 3179   0.884   1.906   1.580  0.1836 -0.2517  0.4846
  782SOL     OW 3180   1.120   2.051   1.502 -0.0934  0.7975  0.1808
  782SOL    HW2 3181   1.196   1.998   1.528  0.1130  1.5947  1.2501
  782SOL    HW3 3182   1.140   2.139   1.535 -1.6674  0.9264  0.8409
  782SOL    MW4 3183   1.133   2.056   1.510 -0.2738  0.9198  0.4092
  783SOL     OW 3184   1.144   2.296   1.626  0.3796  0.0411  0.6774
  783SOL    HW2 3185   1.218   2.357   1.614  0.4524 -0.2199 -0.2624
  783SOL    HW3 3186   1.068   2.345   1.594  0.5303 -0.5660 -0.6445
  783SOL    MW4 3187   1.144   2.311   1.620  0.4090 -0.0734  0.3791
  784SOL     OW 3188   0.919   2.432   1.538  0.1691  0.0244  0.2844
  784SOL    HW2 3189   0.909   2.522   1.571 -1.7809  0.1264 -0.4778
  784SOL    HW3 3190   0.840   2.388   1.568  0.4200 -1.0387 -0.6081
  784SOL    MW4 3191   0.907   2.438   1.547 -0.0550 -0.1025  0.0662
  785SOL     OW 3192   0.918   2.700   1.625  0.2187 -0.1176  0.8446
  785SOL    HW2 3193   0.908   2.711   1.719 -2.1133  0.5959  0.5517
  785SOL    HW3 3194   0.841   2.744   1.587  1.5192  0.2875 -1.4223
  785SOL    MW4 3195   0.906   2.707   1.632  0.0826  0.0298  0.5070
  786SOL     OW 3196   1.141   2.835   1.511  0.0735 -0.3885  0.1993
  786SOL    HW2 3197   1.118   2.927   1.519 -0.2393 -0.5075  0.6870
  786SOL    HW3 3198   1.073   2.789   1.560 -0.0592 -0.9131 -0.4666
  786SOL    MW4 3199   1.129   2.841   1.518  0.0148 -0.4733  0.1758
  787SOL     OW 3200   1.119   3.112   1.560 -0.2929  0.1852  0.0563
  787SOL    HW2 3201   1.130   3.128   1.653  0.1350  0.2498 -0.0057
  787SOL    HW3 3202   1.192   3.159   1.518 -0.6119  0.3466 -0.3247
  787SOL    MW4 3203   1.130   3.120   1.566 -0.2786  0.2151 -0.0023
  788SOL     OW 3204   0.876   3.224   1.509  0.2524 -0.4058 -0.0101
  788SOL    HW2 3205   0.962   3.186   1.528 -0.0245 -1.3373 -0.6009
  788SOL    HW3 3206   0.862   3.208   1.416 -0.7283 -0.6118  0.1660
  788SOL    MW4 3207   0.885   3.216   1.499  0.0864 -0.5558 -0.0648
  789SOL     OW 3208   0.876   3.471   1.634  0.0136 -0.3788  0.2035
  789SOL    HW2 3209   0.962   3.510   1.617 -0.1387 -0.4113 -0.6379
  789SOL    HW3 3210   0.883   3.381   1.600 -0.2520 -0.4819  0.4184
  789SOL    MW4 3211   0.889   3.464   1.627 -0.0415 -0.3967  0.1208
  790SOL     OW 3212   1.096   3.629   1.526 -0.7210 -0.1965 -0.0976
  790SOL    HW2 3213   1.181   3.602   1.561 -1.3213 -1.5240  0.3657
  790SOL    HW3 3214   1.105   3.619   1.431  0.1395  1.1431 -0.1653
  790SOL    MW4 3215   1.109   3.624   1.518 -0.6868 -0.1950 -0.0454
  791SOL     OW 3216   1.118   3.872   1.656 -0.7456 -0.4088  0.2699
  791SOL    HW2 3217   1.201   3.915   1.636  0.0818 -1.1541  1.9759
  791SOL    HW3 3218   1.104   3.810   1.584 -0.1072  0.1046 -0.3017
  791SOL    MW4 3219   1.127   3.870   1.644 -0.5522 -0.4396  0.4196
  792SOL     OW 3220   0.873   4.005   1.595  0.3033  0.4052  0.0920
  792SOL    HW2 3221   0.882   4.100   1.607 -0.3151  0.1876  2.3283
  792SOL    HW3 3222   0.956   3.969   1.626 -0.3292  0.0325  1.3412
  792SOL    MW4 3223   0.885   4.013   1.601  0.1382  0.3271  0.5518
  793SOL     OW 3224   0.886   4.298   1.605  0.3287 -0.6143 -0.7394
  793SOL    HW2 3225   0.884   4.293   1.700  0.3880 -0.5070 -0.7327
  793SOL    HW3 3226   0.801   4.333   1.580 -0.3959 -2.3480 -0.8264
  793SOL    MW4 3227   0.875   4.302   1.614  0.2410 -0.8283 -0.7501
  794SOL     OW 3228   1.117   4.406   1.519 -0.4229 -0.0020  0.1697
  794SOL    HW2 3229   1.035   4.362   1.543 -0.4805 -0.5138 -0.9289
  794SOL    HW3 3230   1.120   4.484   1.574 -3.1548  1.6448 -1.8949
  794SOL    MW4 3231   1.107   4.411   1.529 -0.7910  0.1469 -0.2477
  795SOL     OW 3232   1.530   4.615   1.553 -0.3288 -0.2326 -0.2054
  795SOL    HW2 3233   1.530   4.614   1.649  0.1717  1.4720 -0.1576
  795SOL    HW3 3234   1.468   4.684   1.530 -0.6319 -0.8036 -1.1207
  795SOL    MW4 3235   1.522   4.624   1.563 -0.3028 -0.0834 -0.3200
  796SOL     OW 3236   1.318   0.121   1.508 -0.1754 -0.1798  0.5994
  796SOL    HW2 3237   1.334   0.212   1.534  2.5170 -0.5209  0.2158
  796SOL    HW3 3238   1.297   0.126   1.415  2.5829 -0.1657 -0.0612
  796SOL    MW4 3239   1.317   0.134   1.500  0.5438 -0.2229  0.4615
  797SOL     OW 3240   1.338   0.385   1.605  0.0693 -0.1946 -0.5031
  797SOL    HW2 3241   1.415   0.417   1.559 -0.9278  1.2021 -1.2578
  797SOL    HW3 3242   1.268   0.446   1.580 -0.7452 -0.0586  2.0045
  797SOL    MW4 3243   1.339   0.397   1.596 -0.1698  0.0076 -0.2717
  798SOL     OW 3244   1.555   0.519   1.457 -0.3206  0.3990  0.0234
  798SOL    HW2 3245   1.621   0.451   1.467  1.7777  2.4017  0.1495
  798SOL    HW3 3246   1.558   0.541   1.364 -0.0541  1.2032  0.2149
  798SOL    MW4 3247   1.564   0.513   1.446 -0.0086  0.7694  0.0653
  799SOL     OW 3248   1.589   0.762   1.579 -0.1867 -0.0554 -0.1397
  799SOL    HW2 3249   1.574   0.754   1.673  0.0307 -0.9288 -0.1714
  799SOL    HW3 3250   1.563   0.677   1.544  1.5687 -0.4102 -0.6282
  799SOL    MW4 3251   1.583   0.750   1.587  0.0736 -0.2174 -0.2083
  800SOL     OW 3252   1.387   0.922   1.493  0.0693  0.1154 -0.4661
  800SOL    HW2 3253   1.457   0.860   1.514 -0.9422 -1.0149 -0.3238
  800SOL    HW3 3254   1.398   0.941   1.400 -1.4534 -2.7198 -1.2802
  800SOL    MW4 3255   1.398   0.916   1.484 -0.2650 -0.4078 -0.5547
  801SOL     OW 3256   1.335   1.186   1.629 -0.2229 -0.2734  0.0312
  801SOL    HW2 3257   1.365   1.173   1.719 -0.1235  0.1218  0.0582
  801SOL    HW3 3258   1.332   1.098   1.591 -0.1884 -0.4329  0.3956
  801SOL    MW4 3259   1.338   1.173   1.636 -0.2053 -0.2424  0.0829
  802SOL     OW 3260   1.582   1.282   1.511  0.3118 -0.1792 -0.1586
  802SOL    HW2 3261   1.501   1.239   1.538  1.0028 -1.4755 -0.0951
  802SOL    HW3 3262   1.570   1.300   1.418  0.3319 -1.2896 -0.3888
  802SOL    MW4 3263   1.570   1.279   1.502  0.4054 -0.4966 -0.1806
  803SOL     OW 3264   1.602   1.543   1.608  0.2835 -0.0617 -0.0977
  803SOL    HW2 3265   1.630   1.541   1.700  0.7050  1.2880 -0.1804
  803SOL    HW3 3266   1.588   1.452   1.585  0.4956 -0.4387  1.2179
  803SOL    MW4 3267   1.604   1.531   1.617  0.3670  0.0666  0.0650
  804SOL     OW 3268   1.341   1.626   1.532 -0.3859 -0.0898 -0.2329
  804SOL    HW2 3269   1.428   1.607   1.569 -0.0882  1.1424 -0.2676
  804SOL    HW3 3270   1.358   1.651   1.442 -0.8025 -0.0819 -0.3094
  804SOL    MW4 3271   1.355   1.627   1.525 -0.4016  0.0739 -0.2476
  805SOL     OW 3272   1.359   1.915   1.562  0.2912 -0.3138  0.1032
  805SOL    HW2 3273   1.368   1.931   1.656 -1.5637  0.1073  0.2202
  805SOL    HW3 3274   1.338   1.821   1.555 -0.8938 -0.0547  0.1935
  805SOL    MW4 3275   1.358   1.904   1.573 -0.1099 -0.2240  0.1305
  806SOL     OW 3276   1.578   2.065   1.475 -0.3060 -0.0168 -0.2221
  806SOL    HW2 3277   1.499   2.013   1.487 -0.1024 -0.1047  0.7209
  806SOL    HW3 3278   1.592   2.066   1.380 -1.2305 -0.3018 -0.3618
  806SOL    MW4 3279   1.569   2.059   1.464 -0.4011 -0.0658 -0.1160
  807SOL     OW 3280   1.580   2.323   1.635  0.2194  0.1803  0.0437
  807SOL    HW2 3281   1.658   2.362   1.596 -0.8453  2.5179  0.1792
  807SOL    HW3 3282   1.570   2.239   1.590  0.9086  1.3506 -2.3628
  807SOL    MW4 3283   1.589   2.317   1.624  0.1699  0.6430 -0.2561
  808SOL     OW 3284   1.360   2.486   1.556 -0.1691  0.3430 -0.0794
  808SOL    HW2 3285   1.368   2.569   1.604  1.8259  0.4988 -0.6548
  808SOL    HW3 3286   1.423   2.428   1.597 -0.1184 -0.2577 -0.9946
  808SOL    MW4 3287   1.369   2.489   1.568  0.1009  0.2842 -0.2761
  809SOL     OW 3288   1.377   2.749   1.666  0.4500 -0.8118 -0.4532
  809SOL    HW2 3289   1.452   2.782   1.618  0.2504  0.2252 -0.0776
  809SOL    HW3 3290   1.303   2.800   1.634 -0.1239 -1.9157 -0.9213
  809SOL    MW4 3291   1.377   2.760   1.656  0.3481 -0.8206 -0.4655
  810SOL     OW 3292   1.608   2.848   1.537 -0.0185 -0.2302 -0.5315
  810SOL    HW2 3293   1.675   2.784   1.564  0.5779  0.6603  0.1391
  810SOL    HW3 3294   1.610   2.846   1.441  1.3239  0.1469 -0.5182
  810SOL    MW4 3295   1.617   2.839   1.528  0.2373 -0.0629 -0.4412
  811SOL     OW 3296   1.576   3.107   1.633 -0.3255  0.1157 -0.1357
  811SOL    HW2 3297   1.646   3.161   1.596  1.9407 -0.7228  2.7830
  811SOL    HW3 3298   1.591   3.020   1.596 -0.8280  0.2859 -0.7569
  811SOL    MW4 3299   1.587   3.103   1.623 -0.0927  0.0274  0.1675
  812SOL     OW 3300   1.352   3.223   1.484 -0.2100  0.3542  0.0683
  812SOL    HW2 3301   1.332   3.300   1.537 -0.9205 -0.1838  0.5699
  812SOL    HW3 3302   1.418   3.176   1.534 -0.4538  0.1481  0.1918
  812SOL    MW4 3303   1.358   3.227   1.497 -0.3359  0.2561  0.1507
  813SOL     OW 3304   1.340   3.496   1.610  0.0441  0.1487  0.1372
  813SOL    HW2 3305   1.354   3.501   1.705 -0.6207  2.4711  0.1358
  813SOL    HW3 3306   1.426   3.517   1.572 -0.0941  0.8496  0.2127
  813SOL    MW4 3307   1.354   3.499   1.618 -0.0619  0.5474  0.1470
  814SOL     OW 3308   1.592   3.607   1.505 -0.2259 -0.2279  0.4501
  814SOL    HW2 3309   1.590   3.691   1.550  1.4414  0.0409  0.0359
  814SOL    HW3 3310   1.573   3.628   1.414  0.3877 -0.2838  0.3115
  814SOL    MW4 3311   1.589   3.621   1.499  0.0751 -0.1998  0.3772
  815SOL     OW 3312   1.581   3.874   1.611  0.3076  0.1523 -0.0827
  815SOL    HW2 3313   1.573   3.884   1.706  2.1709 -0.8217  0.1881
  815SOL    HW3 3314   1.494   3.899   1.577 -0.2784  0.7986  1.8302
  815SOL    MW4 3315   1.568   3.879   1.619  0.4764  0.1092  0.2054
  816SOL     OW 3316   1.339   3.971   1.517  0.2903 -0.7600 -0.3292
  816SOL    HW2 3317   1.340   4.066   1.520  0.6089 -0.7288 -1.2338
  816SOL    HW3 3318   1.273   3.950   1.451 -0.0108 -1.1732  0.1023
  816SOL    MW4 3319   1.330   3.981   1.509  0.2928 -0.8104 -0.3916
  817SOL     OW 3320   1.338   4.234   1.588  0.4562 -0.0088  0.3287
  817SOL    HW2 3321   1.405   4.284   1.543 -0.7781  0.3556 -1.1401
  817SOL    HW3 3322   1.255   4.275   1.562 -0.4687 -1.7430  0.4537
  817SOL    MW4 3323   1.336   4.246   1.579  0.1713 -0.1893  0.1514
  818SOL     OW 3324   1.549   4.357   1.457 -0.4197 -0.0342  0.2644
  818SOL    HW2 3325   1.633   4.340   1.500  2.1511  2.8874 -3.2304
  818SOL    HW3 3326   1.530   4.449   1.478 -2.3495 -0.4391  0.3730
  818SOL    MW4 3327   1.557   4.367   1.465 -0.3352  0.2975 -0.1823
  819SOL     OW 3328   2.017   4.641   1.586 -0.1478  0.4760 -0.4782
  819SOL    HW2 3329   2.018   4.645   1.682  0.4148 -4.1294 -0.1613
  819SOL    HW3 3330   1.936   4.685   1.561 -1.7587 -0.7244  2.3442
  819SOL    MW4 3331   2.007   4.647   1.595 -0.2863 -0.2894 -0.0640
  820SOL     OW 3332   1.779   0.101   1.475  0.1229 -0.0678 -0.0661
  820SOL    HW2 3333   1.697   0.055   1.494  0.1704  0.1546  0.7126
  820SOL    HW3 3334   1.776   0.118   1.381 -1.5112  1.4005  0.2103
  820SOL    MW4 3335   1.768   0.097   1.465 -0.0864  0.1553  0.0732
  821SOL     OW 3336   1.784   0.371   1.572  0.0652  0.2722 -0.0861
  821SOL    HW2 3337   1.860   0.425   1.551  0.2370 -0.3506 -1.0918
  821SOL    HW3 3338   1.811   0.282   1.551 -0.5473 -0.1016  0.6631
  821SOL    MW4 3339   1.798   0.367   1.567  0.0070  0.1407 -0.1198
  822SOL     OW 3340   2.030   0.514   1.502  0.2660 -0.1005  0.6460
  822SOL    HW2 3341   2.115   0.480   1.530  1.3995  2.8135  0.9214
  822SOL    HW3 3342   2.028   0.604   1.533 -2.2378  0.4147 -0.8119
  822SOL    MW4 3343   2.041   0.522   1.510  0.0854  0.3520  0.4900
  823SOL     OW 3344   2.052   0.780   1.580 -0.1380 -0.0340  0.5100
  823SOL    HW2 3345   2.127   0.827   1.543  0.2595 -1.0340  0.0013
  823SOL    HW3 3346   1.977   0.835   1.561  0.2380  0.0886 -0.6556
  823SOL    MW4 3347   2.052   0.793   1.572 -0.0360 -0.1497  0.2892
  824SOL     OW 3348   1.817   0.894   1.525 -0.2123  0.3715 -0.0115
  824SOL    HW2 3349   1.810   0.984   1.556  1.6711  1.0541 -1.4536
  824SOL    HW3 3350   1.731   0.856   1.542 -0.3389  1.7683  2.6334
  824SOL    MW4 3351   1.804   0.901   1.531  0.0194  0.6458  0.1471
  825SOL     OW 3352   1.792   1.139   1.622  0.3806  0.4144  0.1020
  825SOL    HW2 3353   1.869   1.189   1.594  0.0658  0.8913  0.0879
  825SOL    HW3 3354   1.718   1.186   1.584 -0.0281  0.8853  1.4703
  825SOL    MW4 3355   1.793   1.152   1.613  0.2851  0.5395  0.2805
  826SOL     OW 3356   1.999   1.290   1.544 -0.4610  0.1020 -0.4784
  826SOL    HW2 3357   1.985   1.381   1.569  1.0039  0.4202 -0.7558
  826SOL    HW3 3358   2.003   1.292   1.448  0.3813 -0.1324 -0.4494
  826SOL    MW4 3359   1.998   1.302   1.535 -0.1566  0.1130 -0.5112
  827SOL     OW 3360   2.002   1.553   1.619 -0.3663  0.0027  0.0965
  827SOL    HW2 3361   2.081   1.600   1.590 -0.3208 -1.1066 -1.6311
  827SOL    HW3 3362   1.930   1.603   1.580 -0.4027 -0.2918 -0.2155
  827SOL    MW4 3363   2.003   1.566   1.610 -0.3650 -0.1825 -0.1726
  828SOL     OW 3364   1.805   1.687   1.484  0.2851 -0.2529  0.0934
  828SOL    HW2 3365   1.726   1.641   1.513 -1.4038  1.8485 -1.0140
  828SOL    HW3 3366   1.802   1.681   1.389  1.0843  0.4179  0.0234
  828SOL    MW4 3367   1.794   1.680   1.476  0.1676  0.1128 -0.0620
  829SOL     OW 3368   1.781   1.931   1.625 -0.3337 -0.0416  0.2020
  829SOL    HW2 3369   1.789   1.848   1.579  0.3948  0.8385 -1.2980
  829SOL    HW3 3370   1.699   1.968   1.595  0.0449  0.4430 -0.2383
  829SOL    MW4 3371   1.772   1.925   1.615 -0.1876  0.1384 -0.0539
  830SOL     OW 3372   2.011   2.066   1.505 -0.2386  0.3813  0.2077
  830SOL    HW2 3373   2.084   2.014   1.539  0.5138  0.7352 -0.8214
  830SOL    HW3 3374   1.933   2.024   1.541  0.4747  0.1397  1.5281
  830SOL    MW4 3375   2.011   2.053   1.514 -0.0451  0.3963  0.2460
  831SOL     OW 3376   2.002   2.330   1.629 -0.2530 -0.1516 -0.4503
  831SOL    HW2 3377   1.996   2.326   1.724  1.6184 -0.4896 -0.3191
  831SOL    HW3 3378   2.006   2.238   1.602 -0.5955 -0.0532 -0.8395
  831SOL    MW4 3379   2.002   2.317   1.638 -0.0515 -0.1833 -0.4843
  832SOL     OW 3380   1.783   2.469   1.522 -0.0667 -0.0314 -0.2835
  832SOL    HW2 3381   1.858   2.419   1.555 -0.7099  0.1188  1.4488
  832SOL    HW3 3382   1.790   2.462   1.427 -0.0080 -3.2121 -0.0993
  832SOL    MW4 3383   1.794   2.461   1.514 -0.1439 -0.4311 -0.0308
  833SOL     OW 3384   1.825   2.706   1.643  0.3014 -0.7032  0.2313
  833SOL    HW2 3385   1.894   2.746   1.590  0.4654 -0.7768  0.3887
  833SOL    HW3 3386   1.814   2.618   1.606 -0.4099 -0.3361 -0.4351
  833SOL    MW4 3387   1.833   2.699   1.631  0.2290 -0.6647  0.1640
  834SOL     OW 3388   2.026   2.849   1.500  0.2742  0.2174  0.0841
  834SOL    HW2 3389   2.002   2.931   1.543 -1.8211 -0.4149  0.1771
  834SOL    HW3 3390   2.033   2.871   1.407 -1.0551  0.3781  0.0039
  834SOL    MW4 3391   2.024   2.862   1.494 -0.1776  0.1552  0.0858
  835SOL     OW 3392   1.986   3.099   1.601  0.4466  0.2750  0.1049
  835SOL    HW2 3393   1.992   3.112   1.696 -0.7505  0.0812  0.2199
  835SOL    HW3 3394   2.070   3.128   1.567  0.6911  0.8373  1.1792
  835SOL    MW4 3395   1.998   3.104   1.609  0.3210  0.3235  0.2618
  836SOL     OW 3396   1.768   3.238   1.517  0.4189 -0.1712 -0.5391
  836SOL    HW2 3397   1.787   3.324   1.556  0.1699  0.7596 -2.4081
  836SOL    HW3 3398   1.842   3.184   1.543  0.7427  0.6966  0.4037
  836SOL    MW4 3399   1.781   3.243   1.525  0.4288  0.0663 -0.6613
  837SOL     OW 3400   1.832   3.497   1.594 -0.0449 -0.2878  0.5845
  837SOL    HW2 3401   1.822   3.518   1.687 -1.6527  0.0785  0.3291
  837SOL    HW3 3402   1.757   3.538   1.551  0.4472 -0.8262 -0.8284
  837SOL    MW4 3403   1.821   3.505   1.601 -0.1923 -0.3107  0.3642
  838SOL     OW 3404   2.038   3.620   1.475 -0.2920 -0.3729  0.1515
  838SOL    HW2 3405   2.120   3.577   1.502  1.3105  2.6051  0.2117
  838SOL    HW3 3406   1.972   3.584   1.534  1.3921 -1.1603  1.6208
  838SOL    MW4 3407   2.040   3.609   1.487  0.1414 -0.0839  0.3533
  839SOL     OW 3408   2.020   3.879   1.587 -0.1758  0.2120  0.2462
  839SOL    HW2 3409   2.091   3.940   1.569  0.8533 -0.8270  0.6949
  839SOL    HW3 3410   2.049   3.797   1.548 -1.0562 -0.2575  0.5728
  839SOL    MW4 3411   2.033   3.876   1.580 -0.1564  0.0131  0.3486
  840SOL     OW 3412   1.786   3.994   1.482 -0.2025  0.1529 -0.2757
  840SOL    HW2 3413   1.867   3.967   1.524 -0.5124  2.3320  1.8080
  840SOL    HW3 3414   1.718   3.939   1.522  0.0240 -0.7393 -1.0710
  840SOL    MW4 3415   1.787   3.983   1.493 -0.2134  0.3226 -0.1059
  841SOL     OW 3416   1.774   4.251   1.591 -0.1038  0.4313  0.4136
  841SOL    HW2 3417   1.860   4.286   1.567  0.1068 -0.4701 -0.1612
  841SOL    HW3 3418   1.774   4.161   1.557 -0.9008  0.1011  1.2606
  841SOL    MW4 3419   1.786   4.243   1.583 -0.1811  0.2689  0.4494
  842SOL     OW 3420   2.017   4.361   1.485  0.0842 -0.1937  0.2146
  842SOL    HW2 3421   2.093   4.328   1.532 -0.2501 -0.7040  0.3948
  842SOL    HW3 3422   2.003   4.449   1.520  0.8093  0.0435 -0.0747
  842SOL    MW4 3423   2.025   4.369   1.496  0.1359 -0.2308  0.2002
  843SOL     OW 3424   2.520   0.007   1.581  0.0888 -0.1470 -0.5619
  843SOL    HW2 3425   2.525  -0.009   1.675 -0.8352  1.2362 -0.2735
  843SOL    HW3 3426   2.431   0.037   1.566  1.0210  2.2591 -1.4675
  843SOL    MW4 3427   2.509   0.009   1.591  0.0899  0.3529 -0.6433
  844SOL     OW 3428   2.244   0.096   1.522 -0.4603 -0.4189  0.4235
  844SOL    HW2 3429   2.160   0.055   1.539 -0.4734 -1.1366 -1.3055
  844SOL    HW3 3430   2.244   0.115   1.429  0.9270  0.4226  0.5658
  844SOL    MW4 3431   2.233   0.093   1.512 -0.2792 -0.4026  0.2142
  845SOL     OW 3432   2.267   0.369   1.576 -0.6085  0.8375  0.1363
  845SOL    HW2 3433   2.255   0.375   1.671 -0.6027  1.1852  0.1167
  845SOL    HW3 3434   2.250   0.277   1.555  1.7421  0.2428  0.7921
  845SOL    MW4 3435   2.263   0.358   1.586 -0.2975  0.8049  0.2203
  846SOL     OW 3436   2.483   0.532   1.445 -0.5836  0.0507 -0.1577
  846SOL    HW2 3437   2.550   0.476   1.484 -0.2880  0.6023  0.1309
  846SOL    HW3 3438   2.400   0.492   1.471 -0.4141  1.0201  1.9667
  846SOL    MW4 3439   2.481   0.519   1.454 -0.5226  0.2514  0.1608
  847SOL     OW 3440   2.517   0.759   1.642 -0.0148  0.0047  0.2631
  847SOL    HW2 3441   2.436   0.804   1.616  0.5163  0.7106 -0.2062
  847SOL    HW3 3442   2.521   0.683   1.584 -0.1142  0.2122 -0.0204
  847SOL    MW4 3443   2.507   0.755   1.631  0.0422  0.1252  0.1639
  848SOL     OW 3444   2.294   0.903   1.515 -0.0762 -0.2043  0.0192
  848SOL    HW2 3445   2.275   0.993   1.541  1.9272  0.0864  0.5661
  848SOL    HW3 3446   2.281   0.902   1.420 -1.5830  0.2662  0.2176
  848SOL    MW4 3447   2.290   0.915   1.506 -0.0107 -0.1040  0.1175
  849SOL     OW 3448   2.251   1.166   1.624 -0.0335 -0.1214 -0.0165
  849SOL    HW2 3449   2.257   1.152   1.719  1.2407 -1.3649 -0.2621
  849SOL    HW3 3450   2.162   1.198   1.610 -0.4585 -0.5896  1.5345
  849SOL    MW4 3451   2.240   1.168   1.635  0.0787 -0.3471  0.1558
  850SOL     OW 3452   2.517   1.261   1.550  0.0837 -0.1496 -0.0322
  850SOL    HW2 3453   2.431   1.229   1.579 -0.8588  1.5112 -0.9079
  850SOL    HW3 3454   2.513   1.255   1.455  1.2745 -0.8548 -0.0450
  850SOL    MW4 3455   2.505   1.256   1.541  0.1168 -0.0236 -0.1495
  851SOL     OW 3456   2.485   1.544   1.595 -0.2529 -0.0359  0.0034
  851SOL    HW2 3457   2.567   1.582   1.565  0.0186 -1.0369 -0.5383
  851SOL    HW3 3458   2.499   1.449   1.590 -0.3621 -0.2490  2.8214
  851SOL    MW4 3459   2.498   1.536   1.591 -0.2313 -0.1961  0.3037
  852SOL     OW 3460   2.228   1.678   1.517 -0.0353 -0.1036  0.3620
  852SOL    HW2 3461   2.313   1.636   1.530  0.9431  1.3368 -1.2606
  852SOL    HW3 3462   2.210   1.668   1.424 -2.0453 -1.0863  0.8125
  852SOL    MW4 3463   2.236   1.671   1.507 -0.1712 -0.0432  0.2073
  853SOL     OW 3464   2.238   1.932   1.609  0.0478 -0.1852  0.4717
  853SOL    HW2 3465   2.236   1.925   1.704 -1.0901  0.3473  0.4827
  853SOL    HW3 3466   2.232   1.841   1.579 -0.9169 -0.2562  0.8790
  853SOL    MW4 3467   2.237   1.919   1.618 -0.2298 -0.1243  0.5270
  854SOL     OW 3468   2.458   2.081   1.526  0.2260 -0.2602  0.8001
  854SOL    HW2 3469   2.384   2.026   1.550  0.5955 -0.9797  0.3171
  854SOL    HW3 3470   2.463   2.075   1.430  0.6641  0.0975  0.7975
  854SOL    MW4 3471   2.449   2.073   1.516  0.3324 -0.3080  0.7360
  855SOL     OW 3472   2.476   2.328   1.648 -0.4753 -0.3255 -0.0451
  855SOL    HW2 3473   2.497   2.323   1.741  0.2500 -2.3258 -0.2817
  855SOL    HW3 3474   2.485   2.237   1.617  0.4934  0.5151 -2.3162
  855SOL    MW4 3475   2.480   2.315   1.656 -0.2520 -0.4785 -0.3759
  856SOL     OW 3476   2.230   2.452   1.558 -0.1865  0.2356  0.8780
  856SOL    HW2 3477   2.304   2.404   1.595  0.3031  0.9932  0.8770
  856SOL    HW3 3478   2.153   2.410   1.597  0.2099 -0.9643  0.3885
  856SOL    MW4 3479   2.229   2.440   1.568 -0.0696  0.1771  0.8131
  857SOL     OW 3480   2.257   2.736   1.638  0.1311  0.3373  0.0262
  857SOL    HW2 3481   2.233   2.647   1.610  1.7725 -0.0938 -0.0516
  857SOL    HW3 3482   2.193   2.793   1.594  0.0301 -0.6759 -1.1803
  857SOL    MW4 3483   2.245   2.732   1.628  0.3345  0.1466 -0.1434
  858SOL     OW 3484   2.463   2.824   1.476 -0.3794  0.4683  0.0858
  858SOL    HW2 3485   2.459   2.915   1.507 -0.5605  0.1410  1.0714
  858SOL    HW3 3486   2.398   2.779   1.530 -0.2236 -0.2636 -0.3392
  858SOL    MW4 3487   2.454   2.830   1.488 -0.3827  0.3285  0.1597
  859SOL     OW 3488   2.488   3.072   1.576  0.0443 -0.4445  0.1969
  859SOL    HW2 3489   2.554   3.139   1.557 -0.7382 -0.2863 -2.0917
  859SOL    HW3 3490   2.405   3.113   1.551 -0.5797 -1.7840  0.0492
  859SOL    MW4 3491   2.485   3.087   1.570 -0.1411 -0.6006 -0.1245
  860SOL     OW 3492   2.243   3.211   1.512  0.4281 -0.1489 -0.0772
  860SOL    HW2 3493   2.237   3.304   1.531 -0.2362 -0.1058 -0.4629
  860SOL    HW3 3494   2.250   3.206   1.417 -0.2459 -0.5116 -0.1145
  860SOL    MW4 3495   2.243   3.222   1.502  0.2515 -0.1910 -0.1330
  861SOL     OW 3496   2.258   3.492   1.584 -0.1107 -0.3193  0.0618
  861SOL    HW2 3497   2.266   3.468   1.676 -0.0703 -1.4692 -0.2374
  861SOL    HW3 3498   2.309   3.573   1.576 -1.7301  0.8734  1.4590
  861SOL    MW4 3499   2.266   3.499   1.595 -0.3190 -0.3138  0.2068
  862SOL     OW 3500   2.451   3.656   1.474  0.1511 -0.1544  0.3063
  862SOL    HW2 3501   2.518   3.602   1.517 -0.6664 -0.3154  1.4020
  862SOL    HW3 3502   2.450   3.737   1.525 -0.8561 -0.3660  0.6268
  862SOL    MW4 3503   2.460   3.660   1.487 -0.0896 -0.2036  0.4932
  863SOL     OW 3504   2.466   3.901   1.589  0.0035 -0.1093  0.2343
  863SOL    HW2 3505   2.452   3.908   1.683  1.8153  0.8440  0.4743
  863SOL    HW3 3506   2.557   3.928   1.577  0.4673 -2.3029 -1.5560
  863SOL    MW4 3507   2.476   3.906   1.600  0.3035 -0.2730  0.0297
  864SOL     OW 3508   2.226   4.050   1.496  0.2035  0.1524  0.0864
  864SOL    HW2 3509   2.297   3.989   1.517  0.7171  0.7976  0.2344
  864SOL    HW3 3510   2.227   4.054   1.400  1.1809  1.1035  0.1236
  864SOL    MW4 3511   2.236   4.042   1.486  0.4001  0.3629  0.1109
  865SOL     OW 3512   2.286   4.308   1.574  0.0348 -0.2887 -0.3335
  865SOL    HW2 3513   2.369   4.342   1.542 -0.2248  0.1636 -0.5300
  865SOL    HW3 3514   2.275   4.224   1.530 -0.5927  0.5785 -1.8905
  865SOL    MW4 3515   2.295   4.301   1.564 -0.0823 -0.1144 -0.5649
  866SOL     OW 3516   2.530   4.410   1.483 -0.3005 -0.1973 -0.1775
  866SOL    HW2 3517   2.513   4.501   1.506  0.0352 -0.0334 -0.5829
  866SOL    HW3 3518   2.506   4.404   1.390 -1.6086 -0.8465  0.1878
  866SOL    MW4 3519   2.525   4.421   1.474 -0.4287 -0.2608 -0.1829
  867SOL     OW 3520   2.968   0.031   1.560  0.2941  0.6919 -0.2920
  867SOL    HW2 3521   2.958   0.021   1.655  0.7432  0.1783 -0.2942
  867SOL    HW3 3522   2.883   0.062   1.530 -0.6271 -1.4305 -0.0202
  867SOL    MW4 3523   2.955   0.033   1.569  0.2320  0.3441 -0.2564
  868SOL     OW 3524   2.731   0.143   1.481  0.6279 -0.2602  0.0634
  868SOL    HW2 3525   2.715   0.231   1.516  0.6792 -0.4087  0.4640
  868SOL    HW3 3526   2.656   0.092   1.511  0.6014 -0.3555 -0.1644
  868SOL    MW4 3527   2.719   0.148   1.490  0.6311 -0.2924  0.0862
  869SOL     OW 3528   2.700   0.417   1.581 -0.3138 -0.3042  0.3019
  869SOL    HW2 3529   2.698   0.418   1.677  0.9953 -0.6773  0.3455
  869SOL    HW3 3530   2.788   0.447   1.559 -0.3294 -1.0336 -0.7678
  869SOL    MW4 3531   2.711   0.421   1.591 -0.1431 -0.4496  0.1665
  870SOL     OW 3532   2.927   0.507   1.481  0.1484  0.2307 -0.4321
  870SOL    HW2 3533   2.936   0.599   1.507 -0.0679  0.0043  0.4623
  870SOL    HW3 3534   2.939   0.508   1.386  1.9627  0.9306 -0.2033
  870SOL    MW4 3535   2.930   0.519   1.472  0.3595  0.2932 -0.2838
  871SOL     OW 3536   2.936   0.760   1.587 -0.1988 -0.6788 -0.4634
  871SOL    HW2 3537   2.919   0.755   1.681 -0.9783  0.0593 -0.5550
  871SOL    HW3 3538   2.870   0.821   1.554  0.7049 -0.1675 -1.3390
  871SOL    MW4 3539   2.925   0.767   1.595 -0.1826 -0.5139 -0.5909
  872SOL     OW 3540   2.736   0.910   1.502  0.0973  0.1010  0.2238
  872SOL    HW2 3541   2.666   0.859   1.543  1.1562 -1.7884 -0.2186
  872SOL    HW3 3542   2.717   0.907   1.409  0.9499 -0.7280  0.0711
  872SOL    MW4 3543   2.725   0.903   1.495  0.3495 -0.2577  0.1453
  873SOL     OW 3544   2.745   1.157   1.652  0.0640  0.0444  0.0462
  873SOL    HW2 3545   2.743   1.083   1.591 -0.0743 -1.1332  1.4328
  873SOL    HW3 3546   2.664   1.205   1.634 -1.0634 -1.5416  0.7701
  873SOL    MW4 3547   2.734   1.153   1.642 -0.1030 -0.3202  0.3245
  874SOL     OW 3548   2.937   1.319   1.522  0.3499  0.1598  0.4884
  874SOL    HW2 3549   3.016   1.272   1.549  1.1282  1.8757  1.2277
  874SOL    HW3 3550   2.866   1.271   1.564  1.0240 -1.0561  0.2880
  874SOL    MW4 3551   2.938   1.306   1.531  0.5412  0.2258  0.5596
  875SOL     OW 3552   2.955   1.560   1.658 -0.2016  0.3241  0.2394
  875SOL    HW2 3553   2.872   1.596   1.626  0.6880  2.2138 -0.0027
  875SOL    HW3 3554   2.970   1.482   1.605 -0.4289  1.5464 -1.6419
  875SOL    MW4 3555   2.946   1.554   1.647 -0.1142  0.7346 -0.0407
  876SOL     OW 3556   2.727   1.666   1.543 -0.1660  0.2633  0.3631
  876SOL    HW2 3557   2.709   1.755   1.573 -0.5372 -0.2217  1.5923
  876SOL    HW3 3558   2.737   1.675   1.448 -1.0257  1.4907  0.3717
  876SOL    MW4 3559   2.726   1.679   1.534 -0.3283  0.3613  0.5264
  877SOL     OW 3560   2.688   1.935   1.611  0.3751 -0.3813  0.0321
  877SOL    HW2 3561   2.695   1.947   1.705 -0.0253 -0.0854  0.0240
  877SOL    HW3 3562   2.604   1.974   1.587  0.6430 -0.1140 -0.4979
  877SOL    MW4 3563   2.678   1.942   1.620  0.3579 -0.3070 -0.0389
  878SOL     OW 3564   2.915   2.064   1.477 -0.1536  0.4082  0.2531
  878SOL    HW2 3565   2.940   2.146   1.519 -0.7853  1.3900 -1.2253
  878SOL    HW3 3566   2.828   2.045   1.512  0.1250  0.1983  0.8359
  878SOL    MW4 3567   2.907   2.073   1.487 -0.2003  0.5097  0.1348
  879SOL     OW 3568   2.928   2.324   1.572  0.0395  0.3608 -0.3541
  879SOL    HW2 3569   2.942   2.328   1.667  0.3965  2.4173 -0.4742
  879SOL    HW3 3570   2.851   2.379   1.557  0.6055  0.8691 -1.3873
  879SOL    MW4 3571   2.919   2.332   1.582  0.1612  0.6993 -0.5063
  880SOL     OW 3572   2.688   2.457   1.521 -0.6182  0.3370  0.2825
  880SOL    HW2 3573   2.688   2.548   1.550 -1.7267  0.8118 -1.1394
  880SOL    HW3 3574   2.616   2.416   1.569  0.9801 -0.2591  2.2446
  880SOL    MW4 3575   2.678   2.463   1.531 -0.5536  0.3211  0.3537
  881SOL     OW 3576   2.663   2.717   1.604  0.1556  0.1741  0.2086
  881SOL    HW2 3577   2.737   2.777   1.591 -0.2775  0.2249 -2.3633
  881SOL    HW3 3578   2.593   2.754   1.550 -0.2178 -2.4728 -1.1859
  881SOL    MW4 3579   2.663   2.730   1.595  0.0489 -0.1686 -0.3147
  882SOL     OW 3580   2.898   2.840   1.508 -0.1308  0.1534 -0.1872
  882SOL    HW2 3581   2.972   2.791   1.543 -0.1717 -0.0865 -0.4413
  882SOL    HW3 3582   2.921   2.932   1.524  0.4187  0.1027 -0.6526
  882SOL    MW4 3583   2.911   2.846   1.515 -0.0639  0.1152 -0.2822
  883SOL     OW 3584   2.941   3.104   1.571  0.9422  0.2505  0.4971
  883SOL    HW2 3585   2.947   3.098   1.667  0.8409  0.2456  0.5023
  883SOL    HW3 3586   3.019   3.155   1.546  0.7227  0.6458  0.6175
  883SOL    MW4 3587   2.952   3.110   1.581  0.8998  0.3021  0.5137
  884SOL     OW 3588   2.704   3.226   1.516  0.0436 -0.4879 -0.1342
  884SOL    HW2 3589   2.790   3.187   1.532  0.1142 -0.2582  0.0388
  884SOL    HW3 3590   2.708   3.259   1.426 -0.1246 -1.1673 -0.3945
  884SOL    MW4 3591   2.716   3.225   1.506  0.0308 -0.5472 -0.1457
  885SOL     OW 3592   2.655   3.492   1.589  0.3515 -0.1701  0.0593
  885SOL    HW2 3593   2.653   3.495   1.684 -0.8929 -0.7775  0.0683
  885SOL    HW3 3594   2.668   3.399   1.568 -1.3324 -0.3309 -0.3589
  885SOL    MW4 3595   2.657   3.480   1.599 -0.0348 -0.2716  0.0055
  886SOL     OW 3596   2.894   3.597   1.540 -0.0489  0.3622 -0.0155
  886SOL    HW2 3597   2.811   3.550   1.549  0.2855 -0.1714  0.3103
  886SOL    HW3 3598   2.897   3.623   1.448 -0.5434  0.3296 -0.0438
  886SOL    MW4 3599   2.883   3.594   1.529 -0.0703  0.2878  0.0238
  887SOL     OW 3600   2.921   3.863   1.627 -0.2674 -0.0355 -0.1845
  887SOL    HW2 3601   2.846   3.901   1.582 -1.3758 -0.4770  1.2478
  887SOL    HW3 3602   2.933   3.778   1.586  0.7434  0.8639 -1.7998
  887SOL    MW4 3603   2.913   3.857   1.616 -0.2799  0.0246 -0.2086
  888SOL     OW 3604   2.711   4.007   1.504 -0.1501  0.1695 -0.1446
  888SOL    HW2 3605   2.738   4.092   1.539 -1.9220  0.3456  0.8454
  888SOL    HW3 3606   2.704   4.022   1.410  1.0840  0.7004 -0.1562
  888SOL    MW4 3607   2.713   4.021   1.496 -0.2210  0.2627 -0.0154
  889SOL     OW 3608   2.746   4.255   1.624  0.0823 -0.1481 -0.4682
  889SOL    HW2 3609   2.820   4.306   1.590 -0.5634  2.1814  1.4443
  889SOL    HW3 3610   2.669   4.300   1.591 -0.4971 -0.3053  0.6633
  889SOL    MW4 3611   2.746   4.268   1.615 -0.0792  0.1388 -0.0666
  890SOL     OW 3612   2.918   4.427   1.515 -0.4500 -0.1335 -0.0758
  890SOL    HW2 3613   2.920   4.522   1.525 -0.4123  0.0767 -1.9343
  890SOL    HW3 3614   2.912   4.413   1.420 -0.3011 -1.9823  0.1738
  890SOL    MW4 3615   2.918   4.438   1.504 -0.4256 -0.3500 -0.2881
  891SOL     OW 3616   3.393   4.656   1.547  0.3056 -0.6218 -0.1852
  891SOL    HW2 3617   3.474   4.696   1.515 -0.1848  1.0767  0.6350
  891SOL    HW3 3618   3.390   4.571   1.504  2.1087 -0.3691 -0.8670
  891SOL    MW4 3619   3.404   4.650   1.537  0.4785 -0.3644 -0.1669
  892SOL     OW 3620   3.184   0.149   1.453  0.1146  0.2278 -0.0819
  892SOL    HW2 3621   3.256   0.089   1.476  0.3884  1.0089  1.1676
  892SOL    HW3 3622   3.105   0.103   1.481  0.2501  0.0082 -0.0579
  892SOL    MW4 3623   3.183   0.135   1.460  0.1686  0.3019  0.0862
  893SOL     OW 3624   3.125   0.380   1.616  0.1364  0.1388  0.0165
  893SOL    HW2 3625   3.155   0.299   1.574  0.9689  1.5768 -2.2637
  893SOL    HW3 3626   3.065   0.419   1.552  0.5702  1.8503  0.6415
  893SOL    MW4 3627   3.121   0.374   1.602  0.3037  0.5544 -0.2019
  894SOL     OW 3628   3.361   0.493   1.522 -0.0164 -0.2958 -0.5790
  894SOL    HW2 3629   3.270   0.468   1.537  0.1002 -0.0594  0.5648
  894SOL    HW3 3630   3.369   0.498   1.427 -0.7116 -2.0889 -0.7474
  894SOL    MW4 3631   3.350   0.491   1.512 -0.0925 -0.5012 -0.4504
  895SOL     OW 3632   3.379   0.776   1.604 -0.0175 -0.1579 -0.4298
  895SOL    HW2 3633   3.387   0.794   1.698  1.0450  1.3586 -0.8148
  895SOL    HW3 3634   3.384   0.680   1.598 -1.1710 -0.3393  1.1584
  895SOL    MW4 3635   3.380   0.765   1.616 -0.0298  0.0182 -0.2710
  896SOL     OW 3636   3.171   0.910   1.498  0.0877 -0.1631  0.1604
  896SOL    HW2 3637   3.247   0.856   1.520 -0.2753 -0.2352  1.2394
  896SOL    HW3 3638   3.098   0.866   1.540 -0.3954  0.5097  0.0232
  896SOL    MW4 3639   3.172   0.897   1.506 -0.0236 -0.0839  0.2848
  897SOL     OW 3640   3.160   1.168   1.610  0.0177  0.2321 -0.1503
  897SOL    HW2 3641   3.139   1.154   1.702 -0.1189  1.4525  0.0136
  897SOL    HW3 3642   3.170   1.080   1.574  0.2480 -0.2467  1.0646
  897SOL    MW4 3643   3.158   1.155   1.617  0.0298  0.3301  0.0316
  898SOL     OW 3644   3.358   1.309   1.500 -0.0830  0.0509  0.1115
  898SOL    HW2 3645   3.290   1.256   1.541  0.9538 -1.1409  0.3378
  898SOL    HW3 3646   3.440   1.263   1.521  0.7313  1.1075 -0.6866
  898SOL    MW4 3647   3.360   1.296   1.508  0.1614  0.0331  0.0361
  899SOL     OW 3648   3.410   1.567   1.608 -0.0271  0.3431  0.1647
  899SOL    HW2 3649   3.408   1.558   1.703 -1.8695  0.0900  0.1151
  899SOL    HW3 3650   3.411   1.478   1.575 -0.6510  0.4149 -0.0608
  899SOL    MW4 3651   3.410   1.554   1.616 -0.3521  0.3191  0.1283
  900SOL     OW 3652   3.176   1.676   1.523  0.2523 -0.4351  0.0987
  900SOL    HW2 3653   3.257   1.632   1.550  0.6568  0.6199  0.6261
  900SOL    HW3 3654   3.107   1.626   1.565  0.6703 -0.9128  0.2320
  900SOL    MW4 3655   3.178   1.664   1.532  0.3607 -0.3591  0.1860
  901SOL     OW 3656   3.114   1.928   1.644  0.0753  0.0483  0.2492
  901SOL    HW2 3657   3.120   1.845   1.597  0.5170 -1.1899  2.4382
  901SOL    HW3 3658   3.047   1.977   1.597 -0.1404 -1.5094 -1.1249
  901SOL    MW4 3659   3.106   1.924   1.631  0.1049 -0.3206  0.3567
  902SOL     OW 3660   3.345   2.035   1.524 -0.4164  0.5609  0.4036
  902SOL    HW2 3661   3.260   2.010   1.561 -0.0165 -0.4122  0.7097
  902SOL    HW3 3662   3.335   2.020   1.430 -0.8990  1.4086  0.3166
  902SOL    MW4 3663   3.332   2.029   1.517 -0.4272  0.5443  0.4325
  903SOL     OW 3664   3.377   2.307   1.609 -0.3240  0.2304 -0.2483
  903SOL    HW2 3665   3.457   2.348   1.575  0.1054 -0.7172 -0.3970
  903SOL    HW3 3666   3.371   2.223   1.563 -1.8291  0.6226 -0.7957
  903SOL    MW4 3667   3.387   2.301   1.599 -0.4659  0.1574 -0.3402
  904SOL     OW 3668   3.154   2.467   1.519 -0.1726  0.4951 -0.0368
  904SOL    HW2 3669   3.228   2.423   1.561 -0.2392  0.7474  0.3508
  904SOL    HW3 3670   3.079   2.410   1.539 -0.2646  0.7953  0.4952
  904SOL    MW4 3671   3.154   2.454   1.527 -0.1934  0.5682  0.0844
  905SOL     OW 3672   3.133   2.728   1.601 -0.2397 -0.2837 -0.1231
  905SOL    HW2 3673   3.220   2.759   1.576  0.2533 -0.9130  0.7976
  905SOL    HW3 3674   3.129   2.638   1.569  0.0788 -0.8098  1.2760
  905SOL    MW4 3675   3.144   2.721   1.593 -0.1330 -0.4361  0.1830
  906SOL     OW 3676   3.391   2.821   1.512  0.7199 -0.3513 -0.6140
  906SOL    HW2 3677   3.385   2.906   1.554 -0.0739 -1.0365  0.6894
  906SOL    HW3 3678   3.388   2.840   1.418 -0.3616  0.9740 -0.3158
  906SOL    MW4 3679   3.390   2.835   1.505  0.4723 -0.2668 -0.4027
  907SOL     OW 3680   3.359   3.086   1.605 -0.1888 -0.2328  0.0736
  907SOL    HW2 3681   3.367   3.068   1.699 -0.2851 -1.8971 -0.2217
  907SOL    HW3 3682   3.439   3.132   1.583 -0.4742  0.7832  1.1093
  907SOL    MW4 3683   3.371   3.089   1.615 -0.2391 -0.3185  0.1713
  908SOL     OW 3684   3.177   3.278   1.522 -0.4756 -0.3478 -0.1391
  908SOL    HW2 3685   3.235   3.208   1.550 -1.5401 -0.8313  0.8700
  908SOL    HW3 3686   3.193   3.285   1.427  1.1913 -0.4770  0.1078
  908SOL    MW4 3687   3.187   3.270   1.513 -0.3963 -0.4287  0.0267
  909SOL     OW 3688   3.151   3.529   1.647 -0.0595  0.5437  0.0396
  909SOL    HW2 3689   3.150   3.436   1.626  0.4922  0.4277  0.5044
  909SOL    HW3 3690   3.067   3.562   1.616  0.3948  0.2165 -1.5868
  909SOL    MW4 3691   3.140   3.521   1.640  0.0734  0.4852 -0.1137
  910SOL     OW 3692   3.361   3.620   1.517 -0.0055  0.4928  0.1130
  910SOL    HW2 3693   3.448   3.592   1.546  0.5023  2.5272  0.6644
  910SOL    HW3 3694   3.300   3.572   1.573  0.7022 -1.6951 -0.9422
  910SOL    MW4 3695   3.364   3.610   1.528  0.1550  0.4728  0.0465
  911SOL     OW 3696   3.349   3.880   1.560 -0.0503 -0.3610  0.1850
  911SOL    HW2 3697   3.272   3.916   1.514 -0.8631  1.1666  2.6204
  911SOL    HW3 3698   3.339   3.785   1.552  0.2335 -0.1757 -3.3558
  911SOL    MW4 3699   3.337   3.872   1.553 -0.1199 -0.1349  0.0391
  912SOL     OW 3700   3.111   4.043   1.486 -0.0140  0.2657 -0.2026
  912SOL    HW2 3701   3.128   4.129   1.523  1.5813 -0.5123  0.9643
  912SOL    HW3 3702   3.052   4.001   1.549 -1.0345  0.5940 -0.9226
  912SOL    MW4 3703   3.105   4.049   1.499  0.0620  0.2060 -0.1436
  913SOL     OW 3704   3.160   4.290   1.597 -0.6618  0.1160 -0.1575
  913SOL    HW2 3705   3.156   4.285   1.692  0.7923  0.5788 -0.0485
  913SOL    HW3 3706   3.083   4.340   1.571 -1.7656 -1.1128  0.6632
  913SOL    MW4 3707   3.150   4.296   1.606 -0.6154  0.0148 -0.0348
  914SOL     OW 3708   3.370   4.397   1.472 -0.1935 -0.0477 -0.2236
  914SOL    HW2 3709   3.300   4.360   1.526 -0.9160 -0.7323 -1.6008
  914SOL    HW3 3710   3.332   4.405   1.385  0.4795  2.4952 -0.3147
  914SOL    MW4 3711   3.356   4.393   1.468 -0.2000  0.1969 -0.4174
  915SOL     OW 3712   3.842   0.001   1.579 -0.1246  0.4341  0.0969
  915SOL    HW2 3713   3.830   0.002   1.674  0.1415 -0.1660  0.1326
  915SOL    HW3 3714   3.932   0.031   1.565 -0.2930  0.9085  0.0134
  915SOL    MW4 3715   3.852   0.005   1.590 -0.1118  0.4175  0.0904
  916SOL     OW 3716   3.624   0.110   1.460 -0.3822 -0.1346 -0.0856
  916SOL    HW2 3717   3.705   0.070   1.493 -0.9161 -0.7877  0.4459
  916SOL    HW3 3718   3.637   0.114   1.365 -0.1469 -1.2163 -0.1158
  916SOL    MW4 3719   3.637   0.105   1.452 -0.4218 -0.3635 -0.0194
  917SOL     OW 3720   3.616   0.357   1.571  0.1070 -0.2960 -0.1922
  917SOL    HW2 3721   3.620   0.271   1.531  1.5553  0.8530 -2.6121
  917SOL    HW3 3722   3.529   0.390   1.550  0.0838 -0.5785 -0.5309
  917SOL    MW4 3723   3.605   0.350   1.563  0.2949 -0.1816 -0.5562
  918SOL     OW 3724   3.805   0.553   1.541  0.2374  0.1150 -0.4320
  918SOL    HW2 3725   3.737   0.487   1.557  2.4612 -2.1268  0.0911
  918SOL    HW3 3726   3.823   0.546   1.447 -0.4811  0.9860 -0.6479
  918SOL    MW4 3727   3.798   0.544   1.531  0.4363 -0.0659 -0.3915
  919SOL     OW 3728   3.801   0.825   1.586  0.0656 -0.3382  0.1011
  919SOL    HW2 3729   3.718   0.861   1.554  0.5954 -0.1377 -1.0631
  919SOL    HW3 3730   3.802   0.735   1.554  0.2890 -0.3512  0.1431
  919SOL    MW4 3731   3.790   0.818   1.578  0.1647 -0.3134 -0.0470
  920SOL     OW 3732   3.550   0.970   1.494  0.3911  0.3254  0.0308
  920SOL    HW2 3733   3.490   0.903   1.527  0.7197  0.5758  1.1833
  920SOL    HW3 3734   3.560   0.950   1.401  1.1770 -1.7633  0.5194
  920SOL    MW4 3735   3.544   0.958   1.486  0.5381  0.0828  0.2474
  921SOL     OW 3736   3.588   1.193   1.641 -0.1640  0.0048 -0.7583
  921SOL    HW2 3737   3.659   1.242   1.600 -0.5109 -1.0705 -2.6980
  921SOL    HW3 3738   3.581   1.113   1.589 -1.4907 -0.7981  0.6223
  921SOL    MW4 3739   3.596   1.189   1.629 -0.3846 -0.2431 -0.8321
  922SOL     OW 3740   3.813   1.328   1.527 -0.5464  0.6320  0.0978
  922SOL    HW2 3741   3.895   1.298   1.565  0.0156  0.5310 -1.1722
  922SOL    HW3 3742   3.794   1.410   1.571  0.8131  1.2126 -0.3827
  922SOL    MW4 3743   3.821   1.335   1.538 -0.2930  0.6953 -0.1332
  923SOL     OW 3744   3.826   1.556   1.671  0.0922  0.0413  0.4741
  923SOL    HW2 3745   3.823   1.566   1.766  0.8517  0.5023  0.4555
  923SOL    HW3 3746   3.758   1.616   1.639  0.0319  0.1052  0.7131
  923SOL    MW4 3747   3.816   1.566   1.680  0.1845  0.1106  0.5032
  924SOL     OW 3748   3.621   1.725   1.569  0.0679  0.2372 -0.1041
  924SOL    HW2 3749   3.539   1.679   1.589  0.2032 -0.8925 -1.9516
  924SOL    HW3 3750   3.618   1.738   1.474  1.6160  1.0123 -0.0632
  924SOL    MW4 3751   3.610   1.720   1.559  0.2902  0.1905 -0.3424
  925SOL     OW 3752   3.580   1.977   1.654  0.3852 -0.0584  0.2212
  925SOL    HW2 3753   3.594   1.884   1.638  1.0386  0.0811 -0.0341
  925SOL    HW3 3754   3.500   1.998   1.606  0.1248 -0.5340  0.4492
  925SOL    MW4 3755   3.571   1.967   1.645  0.4370 -0.1029  0.2177
  926SOL     OW 3756   3.825   2.057   1.562  0.4299  0.0534  0.2849
  926SOL    HW2 3757   3.834   2.152   1.571  1.1991 -0.0353  0.5185
  926SOL    HW3 3758   3.737   2.038   1.593  0.3498  0.6623  0.4427
  926SOL    MW4 3759   3.815   2.067   1.567  0.5209  0.1221  0.3364
  927SOL     OW 3760   3.815   2.340   1.598 -0.0770 -0.4270 -0.2162
  927SOL    HW2 3761   3.817   2.336   1.694 -1.9515 -3.0765 -0.2157
  927SOL    HW3 3762   3.901   2.375   1.574  0.7039 -0.3886  2.4202
  927SOL    MW4 3763   3.827   2.344   1.608 -0.2215 -0.7715  0.1317
  928SOL     OW 3764   3.579   2.453   1.495  0.1775  0.3700 -0.5533
  928SOL    HW2 3765   3.582   2.543   1.526  2.2624  0.0629  0.2641
  928SOL    HW3 3766   3.664   2.416   1.521 -1.4699 -2.4600  1.0575
  928SOL    MW4 3767   3.591   2.460   1.503  0.2351 -0.0441 -0.2331
  929SOL     OW 3768   3.600   2.695   1.620  0.5049  0.1365  0.3494
  929SOL    HW2 3769   3.573   2.680   1.711 -1.3754 -2.3155 -0.5561
  929SOL    HW3 3770   3.531   2.749   1.583 -0.2564 -1.3080 -0.3883
  929SOL    MW4 3771   3.587   2.700   1.627  0.1564 -0.3774  0.1324
  930SOL     OW 3772   3.803   2.851   1.517 -0.4368 -0.1677 -0.0334
  930SOL    HW2 3773   3.890   2.821   1.546 -0.5688  0.3068  0.8576
  930SOL    HW3 3774   3.742   2.802   1.572 -0.7347 -0.3690 -0.5440
  930SOL    MW4 3775   3.807   2.840   1.528 -0.4935 -0.1314  0.0169
  931SOL     OW 3776   3.825   3.115   1.589  0.1539 -0.3848  0.3726
  931SOL    HW2 3777   3.914   3.127   1.557 -0.4511 -0.5986 -1.4802
  931SOL    HW3 3778   3.802   3.026   1.563 -0.5009 -0.4430  1.1208
  931SOL    MW4 3779   3.833   3.105   1.581 -0.0124 -0.4206  0.2270
  932SOL     OW 3780   3.585   3.225   1.526  0.0397  0.0751  0.2791
  932SOL    HW2 3781   3.669   3.186   1.549 -1.1145 -2.5922  0.2445
  932SOL    HW3 3782   3.591   3.243   1.433  0.3951 -0.6897  0.1461
  932SOL    MW4 3783   3.597   3.222   1.517 -0.0658 -0.3777  0.2570
  933SOL     OW 3784   3.604   3.509   1.585  0.4399 -0.1915 -0.2918
  933SOL    HW2 3785   3.679   3.537   1.533 -0.6585  1.7855 -0.8712
  933SOL    HW3 3786   3.600   3.414   1.572  3.4102 -0.4895  0.5652
  933SOL    MW4 3787   3.614   3.500   1.577  0.6869  0.0300 -0.2552
  934SOL     OW 3788   3.851   3.614   1.460 -0.4902 -0.6726  0.3926
  934SOL    HW2 3789   3.920   3.571   1.511  0.3643 -0.3768 -0.4893
  934SOL    HW3 3790   3.842   3.700   1.501  0.6934 -0.1696 -0.3644
  934SOL    MW4 3791   3.859   3.620   1.472 -0.2213 -0.5670  0.1764
  935SOL     OW 3792   3.809   3.870   1.595 -0.3348  0.4704  0.6280
  935SOL    HW2 3793   3.890   3.917   1.576  0.1057 -0.8118 -0.7367
  935SOL    HW3 3794   3.742   3.917   1.545 -0.0682  0.2865  0.0913
  935SOL    MW4 3795   3.811   3.882   1.586 -0.2415  0.2768  0.3771
  936SOL     OW 3796   3.583   4.030   1.469  0.4318 -0.2636 -0.5084
  936SOL    HW2 3797   3.587   4.116   1.511  0.3323 -0.1289 -0.7771
  936SOL    HW3 3798   3.510   3.985   1.514 -0.9267  0.5735 -1.8353
  936SOL    MW4 3799   3.574   4.035   1.481  0.2394 -0.1345 -0.7188
  937SOL     OW 3800   3.608   4.281   1.588 -0.0371  0.1221 -0.8126
  937SOL    HW2 3801   3.604   4.298   1.682 -0.8770 -2.5436 -0.3384
  937SOL    HW3 3802   3.527   4.317   1.553  0.2407  1.0426 -0.5297
  937SOL    MW4 3803   3.597   4.288   1.595 -0.1113 -0.1087 -0.7128
  938SOL     OW 3804   3.841   4.400   1.498  0.0319 -0.6649  0.0937
  938SOL    HW2 3805   3.762   4.353   1.528 -0.6015 -0.9212 -1.9104
  938SOL    HW3 3806   3.827   4.490   1.527 -1.6059 -0.4401 -1.3301
  938SOL    MW4 3807   3.828   4.405   1.506 -0.2677 -0.6695 -0.3586
  939SOL     OW 3808   4.306   4.633   1.604 -0.0429 -0.0396  0.4134
  939SOL    HW2 3809   4.311   4.608   1.696  1.0862 -1.8334 -0.1058
  939SOL    HW3 3810   4.295   4.550   1.558  0.9384  0.6984 -1.1767
  939SOL    MW4 3811   4.305   4.618   1.610  0.2351 -0.1788  0.1352
  940SOL     OW 3812   4.090   0.104   1.499 -0.1603 -0.1627 -0.0848
  940SOL    HW2 3813   4.083   0.192   1.536 -0.5243  0.1924 -0.9767
  940SOL    HW3 3814   4.169   0.067   1.539  0.9658  1.1940 -0.9602
  940SOL    MW4 3815   4.100   0.111   1.509 -0.0601  0.0631 -0.3181
  941SOL     OW 3816   4.044   0.361   1.613 -0.0366  0.1620  0.5031
  941SOL    HW2 3817   4.033   0.356   1.708  1.2814  2.6624  0.8377
  941SOL    HW3 3818   3.963   0.401   1.581 -0.0586  0.2835  0.7070
  941SOL    MW4 3819   4.032   0.366   1.622  0.1345  0.5080  0.5742
  942SOL     OW 3820   4.251   0.518   1.515  0.2042 -0.3100  0.1630
  942SOL    HW2 3821   4.186   0.450   1.535 -1.0661  1.1720  1.2593
  942SOL    HW3 3822   4.331   0.488   1.556 -0.0079 -1.7335 -0.4218
  942SOL    MW4 3823   4.253   0.505   1.523  0.0091 -0.3023  0.2303
  943SOL     OW 3824   4.263   0.767   1.638 -0.1381 -0.4070 -0.1844
  943SOL    HW2 3825   4.251   0.678   1.606  0.6952 -0.1470 -1.2763
  943SOL    HW3 3826   4.338   0.800   1.588 -0.5082  0.9335  0.1247
  943SOL    MW4 3827   4.271   0.760   1.627 -0.0772 -0.1959 -0.2878
  944SOL     OW 3828   4.037   0.931   1.505 -0.2944  0.0913  0.0845
  944SOL    HW2 3829   4.101   0.879   1.553  0.2908  1.3262  0.6719
  944SOL    HW3 3830   3.953   0.889   1.524  0.0153  0.1016  1.5917
  944SOL    MW4 3831   4.034   0.919   1.514 -0.1764  0.2556  0.3608
  945SOL     OW 3832   4.025   1.198   1.631  0.5129 -0.3384  0.0964
  945SOL    HW2 3833   4.021   1.206   1.726  1.0424 -1.3439  0.2052
  945SOL    HW3 3834   4.018   1.104   1.614 -0.2087 -0.1238 -0.8929
  945SOL    MW4 3835   4.023   1.187   1.641  0.4878 -0.4427 -0.0197
  946SOL     OW 3836   4.253   1.286   1.509 -0.0128 -0.3814  0.1039
  946SOL    HW2 3837   4.175   1.246   1.548 -0.4057  0.5258  0.2441
  946SOL    HW3 3838   4.326   1.239   1.549 -0.4879 -1.4203 -0.2264
  946SOL    MW4 3839   4.252   1.274   1.520 -0.1273 -0.3988  0.0788
  947SOL     OW 3840   4.248   1.541   1.615 -0.4032 -0.0375  0.2028
  947SOL    HW2 3841   4.250   1.455   1.573  0.2746 -0.8960  1.9073
  947SOL    HW3 3842   4.321   1.589   1.577 -0.2762 -0.5217 -0.1652
  947SOL    MW4 3843   4.258   1.536   1.605 -0.2971 -0.2147  0.3792
  948SOL     OW 3844   4.030   1.649   1.487  0.5524 -0.3610  0.3365
  948SOL    HW2 3845   4.110   1.629   1.535  0.4265 -2.3861 -0.2378
  948SOL    HW3 3846   3.959   1.622   1.546  0.2930  1.0311  0.6735
  948SOL    MW4 3847   4.031   1.643   1.501  0.5012 -0.4444  0.3053
  949SOL     OW 3848   4.046   1.906   1.620 -0.2210  0.0598 -0.1197
  949SOL    HW2 3849   4.036   1.821   1.577  0.1362  0.5010 -1.0906
  949SOL    HW3 3850   3.970   1.956   1.593  1.1835  1.1400 -2.1492
  949SOL    MW4 3851   4.035   1.901   1.611  0.0114  0.2605 -0.5157
  950SOL     OW 3852   4.254   2.065   1.547 -0.4886 -0.3799  0.3553
  950SOL    HW2 3853   4.187   2.007   1.584  0.7670 -2.9649 -1.2961
  950SOL    HW3 3854   4.229   2.074   1.455  0.3640  0.2670  0.1832
  950SOL    MW4 3855   4.242   2.059   1.540 -0.2108 -0.6354  0.1148
  951SOL     OW 3856   4.277   2.335   1.628  0.4241  0.1118  0.3277
  951SOL    HW2 3857   4.282   2.316   1.722 -0.2013  0.8987  0.5275
  951SOL    HW3 3858   4.262   2.250   1.587  1.5537 -0.3590  0.8608
  951SOL    MW4 3859   4.276   2.321   1.635  0.4902  0.1533  0.4245
  952SOL     OW 3860   4.057   2.473   1.512  0.0283  0.7013 -0.6918
  952SOL    HW2 3861   4.040   2.561   1.545 -2.0297  0.1691 -0.2994
  952SOL    HW3 3862   4.127   2.439   1.568  0.7289  2.0054 -0.7556
  952SOL    MW4 3863   4.064   2.480   1.523 -0.1502  0.8032 -0.6485
  953SOL     OW 3864   4.022   2.721   1.606  0.1567 -0.0617  0.2202
  953SOL    HW2 3865   4.027   2.727   1.702 -2.7318 -0.5863  0.4675
  953SOL    HW3 3866   4.104   2.758   1.575  1.1093  0.1963  2.9097
  953SOL    MW4 3867   4.033   2.726   1.615 -0.0982 -0.0970  0.6076
  954SOL     OW 3868   4.252   2.808   1.475  0.0894 -0.0308  0.1745
  954SOL    HW2 3869   4.266   2.896   1.511  2.3300 -0.7646  1.1797
  954SOL    HW3 3870   4.270   2.816   1.382  0.1233  0.6160  0.2374
  954SOL    MW4 3871   4.256   2.821   1.468  0.3896 -0.0422  0.3154
  955SOL     OW 3872   4.304   3.034   1.612 -0.1831  0.2299 -0.2367
  955SOL    HW2 3873   4.292   3.051   1.705 -0.9525  0.3005 -0.3439
  955SOL    HW3 3874   4.385   3.079   1.589  1.4756 -2.0320  0.9801
  955SOL    MW4 3875   4.313   3.042   1.621 -0.0653 -0.0591 -0.0904
  956SOL     OW 3876   4.099   3.178   1.484 -0.0780  0.6120 -0.0482
  956SOL    HW2 3877   4.091   3.263   1.526 -1.9556  0.3891  0.0795
  956SOL    HW3 3878   4.177   3.139   1.523 -0.6899  1.1998  1.7967
  956SOL    MW4 3879   4.108   3.184   1.495 -0.4067  0.6599  0.2120
  957SOL     OW 3880   4.072   3.443   1.601 -0.1954 -0.4732 -0.3491
  957SOL    HW2 3881   4.061   3.452   1.695  0.6475 -1.3386 -0.1599
  957SOL    HW3 3882   4.148   3.497   1.580 -0.8350  0.3076 -0.6430
  957SOL    MW4 3883   4.081   3.451   1.610 -0.1688 -0.4845 -0.3628
  958SOL     OW 3884   4.261   3.624   1.529  0.3042  0.1557  0.4777
  958SOL    HW2 3885   4.255   3.714   1.563  0.3798  0.5095 -0.4336
  958SOL    HW3 3886   4.267   3.635   1.434 -0.1727 -0.8347  0.3303
  958SOL    MW4 3887   4.261   3.637   1.521  0.2508  0.0715  0.3380
  959SOL     OW 3888   4.266   3.881   1.629 -0.4336 -0.2855 -0.3667
  959SOL    HW2 3889   4.191   3.933   1.599  0.6008  1.2328 -0.3632
  959SOL    HW3 3890   4.343   3.930   1.599  0.5821 -0.6401  1.5918
  959SOL    MW4 3891   4.266   3.894   1.621 -0.1626 -0.1321 -0.1079
  960SOL     OW 3892   4.035   4.009   1.529  0.0207 -0.2593  0.3028
  960SOL    HW2 3893   4.036   4.100   1.559 -0.2372 -0.0112 -0.4474
  960SOL    HW3 3894   4.052   4.014   1.435  1.1883 -1.0721  0.4544
  960SOL    MW4 3895   4.038   4.022   1.521  0.1407 -0.3338  0.2240
  961SOL     OW 3896   4.055   4.271   1.602 -0.1388  0.0225  0.0703
  961SOL    HW2 3897   4.047   4.281   1.697  0.4587  1.2777 -0.0021
  961SOL    HW3 3898   3.990   4.330   1.566  0.8481  0.8931 -0.3180
  961SOL    MW4 3899   4.046   4.280   1.610  0.0701  0.3033  0.0095
  962SOL     OW 3900   4.282   4.380   1.492  0.0030 -0.5967  0.1017
  962SOL    HW2 3901   4.206   4.336   1.530 -0.3936 -0.2415 -0.2703
  962SOL    HW3 3902   4.266   4.377   1.398  0.1262  0.0718  0.0580
  962SOL    MW4 3903   4.270   4.373   1.484 -0.0329 -0.4616  0.0468
  963SOL     OW 3904   0.263   4.662   1.881 -0.3940 -0.3558  0.3515
  963SOL    HW2 3905   0.327   4.728   1.906 -0.8456 -0.0676  0.7521
  963SOL    HW3 3906   0.266   4.660   1.785 -0.6714  0.5283  0.3246
  963SOL    MW4 3907   0.272   4.670   1.871 -0.4902 -0.2017  0.4008
  964SOL     OW 3908   0.008   0.104   1.936 -0.0202  0.4738  0.5571
  964SOL    HW2 3909   0.011   0.189   1.892  1.0365 -0.5383 -1.4248
  964SOL    HW3 3910   0.096   0.069   1.926 -0.4643 -0.8939  1.2764
  964SOL    MW4 3911   0.020   0.110   1.929  0.0606  0.1598  0.3905
  965SOL     OW 3912   0.005   0.367   1.873  0.5700 -0.0684  0.1912
  965SOL    HW2 3913  -0.069   0.402   1.922 -0.6335 -0.7434 -1.1286
  965SOL    HW3 3914   0.081   0.415   1.908 -0.6319  1.5359  0.6848
  965SOL    MW4 3915   0.005   0.378   1.884  0.2526  0.0542  0.0821
  966SOL     OW 3916   0.243   0.491   1.960  0.0628 -0.2449 -0.4329
  966SOL    HW2 3917   0.333   0.465   1.937  0.5980 -0.0096  1.3452
  966SOL    HW3 3918   0.234   0.578   1.923  0.8822  0.0863  0.1245
  966SOL    MW4 3919   0.254   0.499   1.952  0.2415 -0.1702 -0.1248
  967SOL     OW 3920   0.232   0.747   1.863 -0.2356 -0.3229 -0.0981
  967SOL    HW2 3921   0.309   0.792   1.895  0.7537 -2.1775  0.1965
  967SOL    HW3 3922   0.243   0.744   1.768 -0.5554  0.4788 -0.1658
  967SOL    MW4 3923   0.243   0.752   1.855 -0.1473 -0.4619 -0.0682
  968SOL     OW 3924   0.007   0.874   2.002  0.0564 -0.3250  0.6212
  968SOL    HW2 3925  -0.078   0.839   1.974  0.1561  1.5078 -2.1974
  968SOL    HW3 3926   0.069   0.841   1.938  1.2212 -0.4081  1.7918
  968SOL    MW4 3927   0.004   0.865   1.990  0.2227 -0.0941  0.4040
  969SOL     OW 3928   4.486   1.132   1.894 -0.2671 -0.9296 -0.1032
  969SOL    HW2 3929   4.402   1.159   1.931  0.6100  0.2444  1.0904
  969SOL    HW3 3930   4.497   1.042   1.924 -1.3815 -1.3066 -0.7909
  969SOL    MW4 3931   4.476   1.124   1.903 -0.2985 -0.8246 -0.0364
  970SOL     OW 3932   0.227   1.263   1.977 -0.0185 -0.3006 -0.1190
  970SOL    HW2 3933   0.223   1.354   1.948 -0.3829  0.1566  1.3406
  970SOL    HW3 3934   0.143   1.226   1.950 -0.1058 -0.0486 -0.1980
  970SOL    MW4 3935   0.216   1.270   1.969 -0.0781 -0.2072  0.0631
  971SOL     OW 3936   0.214   1.533   1.892 -0.0317 -0.1201  0.5448
  971SOL    HW2 3937   0.283   1.592   1.919 -1.2559  1.6508 -0.1182
  971SOL    HW3 3938   0.134   1.568   1.932 -1.2626  0.4662 -2.2639
  971SOL    MW4 3939   0.212   1.545   1.901 -0.3556  0.1909  0.0868
  972SOL     OW 3940   4.478   1.645   1.989 -0.3387 -0.4060 -0.0097
  972SOL    HW2 3941   4.491   1.631   2.082 -0.2315 -0.2903 -0.0067
  972SOL    HW3 3942   4.400   1.594   1.967  0.0193 -0.9687  0.0079
  972SOL    MW4 3943   4.470   1.637   1.998 -0.2772 -0.4650 -0.0070
  973SOL     OW 3944   4.467   1.914   1.904 -0.1487  0.3734 -0.1829
  973SOL    HW2 3945   4.388   1.942   1.950 -0.7069 -0.5632 -0.5358
  973SOL    HW3 3946   4.481   1.824   1.933 -0.6615 -0.3216 -2.0029
  973SOL    MW4 3947   4.458   1.906   1.914 -0.2899  0.1581 -0.4694
  974SOL     OW 3948   0.194   2.056   2.035  0.2267 -0.3123  0.2139
  974SOL    HW2 3949   0.191   2.147   2.007  1.2609 -0.5050 -0.5440
  974SOL    HW3 3950   0.120   2.015   1.991  0.3799 -0.0686 -0.2689
  974SOL    MW4 3951   0.184   2.062   2.026  0.3833 -0.3059  0.0503
  975SOL     OW 3952   0.201   2.311   1.917 -0.4566  0.0826 -0.4065
  975SOL    HW2 3953   0.276   2.362   1.948 -0.5739 -1.3307  2.3295
  975SOL    HW3 3954   0.125   2.358   1.949 -0.7087  0.6988 -1.8935
  975SOL    MW4 3955   0.201   2.324   1.925 -0.5053 -0.0226 -0.2418
  976SOL     OW 3956   4.456   2.455   2.014 -0.3439 -0.4887 -0.4283
  976SOL    HW2 3957   4.464   2.477   2.107  1.1368 -1.2459 -0.3640
  976SOL    HW3 3958   4.462   2.539   1.969 -0.6010 -0.1700  0.1270
  976SOL    MW4 3959   4.458   2.469   2.021 -0.1826 -0.5465 -0.3467
  977SOL     OW 3960   4.484   2.698   1.889 -0.2814  0.1395 -0.0778
  977SOL    HW2 3961   4.406   2.744   1.921 -0.3033 -0.4413  0.7292
  977SOL    HW3 3962   4.475   2.698   1.794 -0.9209  0.6887 -0.0169
  977SOL    MW4 3963   4.472   2.704   1.880 -0.3691  0.1354  0.0368
  978SOL     OW 3964   0.216   2.826   1.999 -0.4357  0.0248  0.2636
  978SOL    HW2 3965   0.214   2.912   1.959  1.2656 -0.5504 -1.1074
  978SOL    HW3 3966   0.139   2.781   1.963 -0.3222  0.3612 -0.3994
  978SOL    MW4 3967   0.205   2.831   1.989 -0.1963 -0.0067 -0.0048
  979SOL     OW 3968   0.230   3.072   1.886 -0.0314  0.1533  0.2528
  979SOL    HW2 3969   0.294   3.138   1.913 -0.6667  0.8073  0.2013
  979SOL    HW3 3970   0.232   3.074   1.790 -1.1240  1.1980  0.2263
  979SOL    MW4 3971   0.239   3.081   1.876 -0.2594  0.3774  0.2425
  980SOL     OW 3972   0.020   3.203   1.992 -0.1790 -0.6115  0.3106
  980SOL    HW2 3973  -0.058   3.162   1.955 -0.7634  1.7481 -1.2208
  980SOL    HW3 3974   0.093   3.151   1.959 -0.9189 -0.6519 -1.3126
  980SOL    MW4 3975   0.020   3.191   1.983 -0.3536 -0.3054 -0.1055
  981SOL     OW 3976   4.457   3.477   1.928 -0.0753  0.2934 -0.1450
  981SOL    HW2 3977   4.535   3.532   1.924 -0.2291  0.5427  0.2685
  981SOL    HW3 3978   4.491   3.388   1.940  0.1746  0.2835 -0.9021
  981SOL    MW4 3979   4.471   3.473   1.929 -0.0629  0.3247 -0.1904
  982SOL     OW 3980   0.221   3.616   1.966  0.2007 -0.2178 -0.8814
  982SOL    HW2 3981   0.201   3.614   2.060  0.9394  0.3023 -0.7120
  982SOL    HW3 3982   0.303   3.567   1.958  0.2662 -0.0500 -1.2293
  982SOL    MW4 3983   0.229   3.609   1.978  0.3068 -0.1271 -0.9049
  983SOL     OW 3984   0.195   3.892   1.929 -0.1062  0.6175 -0.0879
  983SOL    HW2 3985   0.271   3.937   1.965 -0.5877  0.9052  0.5629
  983SOL    HW3 3986   0.217   3.799   1.934  1.0397  0.7683 -1.7688
  983SOL    MW4 3987   0.208   3.886   1.934 -0.0185  0.6750 -0.2236
  984SOL     OW 3988   4.456   4.010   2.036 -0.0525  0.4262  0.3027
  984SOL    HW2 3989   4.451   4.095   1.992  1.3149  1.5197  2.1842
  984SOL    HW3 3990   4.540   3.974   2.011 -0.2950 -0.0175  0.1264
  984SOL    MW4 3991   4.466   4.016   2.027  0.0958  0.5121  0.5276
  985SOL     OW 3992   4.485   4.257   1.916  0.0082 -0.3662  0.1590
  985SOL    HW2 3993   4.409   4.308   1.944  0.7675  0.6528  0.4102
  985SOL    HW3 3994   4.560   4.303   1.955  0.7123 -1.6762  0.3949
  985SOL    MW4 3995   4.485   4.270   1.925  0.2012 -0.4044  0.2232
  986SOL     OW 3996   0.229   4.402   1.991 -0.6312  0.2125  0.0164
  986SOL    HW2 3997   0.232   4.418   2.086 -0.8105 -0.1055  0.0776
  986SOL    HW3 3998   0.228   4.490   1.952  1.7974  0.3716  0.2245
  986SOL    MW4 3999   0.230   4.416   1.999 -0.3344  0.1912  0.0520
  987SOL     OW 4000   0.697   0.031   1.922  0.4232 -0.6807 -0.1681
  987SOL    HW2 4001   0.706  -0.058   1.955 -1.2524 -1.2738 -1.2902
  987SOL    HW3 4002   0.734   0.028   1.834 -1.1632 -0.6844 -0.8492
  987SOL    MW4 4003   0.703   0.019   1.915 -0.0072 -0.7596 -0.4059
  988SOL     OW 4004   0.471   0.155   2.007 -0.5137  0.3035  0.0342
  988SOL    HW2 4005   0.472   0.240   1.962 -0.9707  0.4659  0.3233
  988SOL    HW3 4006   0.545   0.108   1.971 -0.8313  0.4582 -0.8374
  988SOL    MW4 4007   0.481   0.160   1.997 -0.6159  0.3453 -0.0427
  989SOL     OW 4008   0.492   0.405   1.859 -0.5036 -0.2957  0.4301
  989SOL    HW2 4009   0.566   0.458   1.889 -0.5703 -1.3121  2.5044
  989SOL    HW3 4010   0.502   0.401   1.764  0.4064  2.0758  0.3989
  989SOL    MW4 4011   0.503   0.411   1.850 -0.3924 -0.1169  0.6996
  990SOL     OW 4012   0.719   0.522   1.948  0.0528  0.3478 -0.1903
  990SOL    HW2 4013   0.729   0.540   2.041 -2.4734 -0.6523  0.3101
  990SOL    HW3 4014   0.800   0.476   1.924  0.5031  0.1460  1.6226
  990SOL    MW4 4015   0.731   0.518   1.957 -0.2211  0.1892  0.1149
  991SOL     OW 4016   0.705   0.786   1.843 -0.3568 -0.3550 -0.1226
  991SOL    HW2 4017   0.779   0.824   1.891  0.0773  0.0805 -1.1228
  991SOL    HW3 4018   0.709   0.692   1.863 -0.8779 -0.0346  1.6192
  991SOL    MW4 4019   0.716   0.779   1.852 -0.3682 -0.2552 -0.0247
  992SOL     OW 4020   0.454   0.877   1.971 -0.1499  0.4129 -0.2014
  992SOL    HW2 4021   0.438   0.963   1.931  1.6113  0.8296 -0.0538
  992SOL    HW3 4022   0.524   0.839   1.918 -0.0871 -0.4304  0.4845
  992SOL    MW4 4023   0.461   0.883   1.959  0.0907  0.3566 -0.0914
  993SOL     OW 4024   0.448   1.129   1.876  0.0809  0.0717 -0.1752
  993SOL    HW2 4025   0.372   1.166   1.920 -0.7109 -0.8896 -0.7286
  993SOL    HW3 4026   0.435   1.148   1.784  0.8589  0.5107 -0.2010
  993SOL    MW4 4027   0.436   1.136   1.870  0.0791  0.0027 -0.2515
  994SOL     OW 4028   0.670   1.252   1.973  0.2487 -0.0121  0.0073
  994SOL    HW2 4029   0.663   1.252   2.069 -0.0767 -1.0611 -0.0122
  994SOL    HW3 4030   0.589   1.210   1.943  0.1307  0.7437 -0.7505
  994SOL    MW4 4031   0.658   1.246   1.982  0.1903 -0.0508 -0.0952
  995SOL     OW 4032   0.672   1.518   1.884 -0.2645  0.0026  0.3215
  995SOL    HW2 4033   0.673   1.428   1.918 -0.1585 -0.0560  0.1693
  995SOL    HW3 4034   0.685   1.507   1.789 -0.1757  0.1831  0.3127
  995SOL    MW4 4035   0.674   1.504   1.876 -0.2387  0.0187  0.3003
  996SOL     OW 4036   0.437   1.668   1.987  0.0997 -0.5086  0.4800
  996SOL    HW2 4037   0.427   1.652   2.081  0.1417 -2.6150  0.1389
  996SOL    HW3 4038   0.513   1.615   1.962 -0.6028 -0.8461 -0.9695
  996SOL    MW4 4039   0.446   1.659   1.996  0.0126 -0.8312  0.2438
  997SOL     OW 4040   0.421   1.942   1.917  0.0685 -0.0007 -0.0437
  997SOL    HW2 4041   0.433   1.848   1.929 -1.2619 -0.0212  1.2878
  997SOL    HW3 4042   0.345   1.964   1.971  0.4818  1.8789 -0.1792
  997SOL    MW4 4043   0.413   1.932   1.926 -0.0525  0.2446  0.1142
  998SOL     OW 4044   0.670   2.058   1.968  0.1207 -0.1614 -0.0695
  998SOL    HW2 4045   0.680   2.062   2.063  1.1571  1.5718 -0.2296
  998SOL    HW3 4046   0.585   2.018   1.955  0.7424 -2.1191  1.5725
  998SOL    MW4 4047   0.660   2.053   1.979  0.3395 -0.1910  0.1261
  999SOL     OW 4048   0.669   2.331   1.856 -0.3098  0.8238  0.0022
  999SOL    HW2 4049   0.659   2.242   1.890  3.5524  0.8239  1.3633
  999SOL    HW3 4050   0.657   2.322   1.762  1.4579 -1.4076 -0.0422
  999SOL    MW4 4051   0.666   2.318   1.848  0.4330  0.5293  0.1760
 1000SOL     OW 4052   0.424   2.454   1.997  0.0683 -0.6908  0.0054
 1000SOL    HW2 4053   0.430   2.427   2.089  0.9610 -1.2336 -0.2039
 1000SOL    HW3 4054   0.504   2.420   1.957  0.9229  1.7166 -0.4134
 1000SOL    MW4 4055   0.435   2.446   2.004  0.2989 -0.4447 -0.0777
 1001SOL     OW 4056   0.428   2.715   1.885  0.1958  0.2488  0.4166
 1001SOL    HW2 4057   0.411   2.625   1.911 -0.1121 -0.1004 -0.9406
 1001SOL    HW3 4058   0.357   2.766   1.924 -1.0618 -0.4673 -0.8725
 1001SOL    MW4 4059   0.417   2.710   1.893 -0.0108  0.1085  0.0675
 1002SOL     OW 4060   0.670   2.839   1.978 -0.1737  0.0185  0.0717
 1002SOL    HW2 4061   0.668   2.830   2.073  1.9341  0.1149  0.1416
 1002SOL    HW3 4062   0.589   2.798   1.949 -0.9113  0.1162  1.9137
 1002SOL    MW4 4063   0.659   2.832   1.987  0.0071  0.0441  0.3238
 1003SOL     OW 4064   0.649   3.106   1.896  0.5960 -0.7676  0.1163
 1003SOL    HW2 4065   0.647   3.012   1.916 -2.1367 -0.5010  1.3146
 1003SOL    HW3 4066   0.650   3.109   1.800  2.2688 -1.9918  0.0601
 1003SOL    MW4 4067   0.649   3.094   1.886  0.4562 -0.8941  0.2669
 1004SOL     OW 4068   0.433   3.236   2.012 -0.2043  0.2822 -0.0213
 1004SOL    HW2 4069   0.440   3.320   1.969  0.4019  0.6338  0.7444
 1004SOL    HW3 4070   0.498   3.181   1.969 -0.9444  0.0435 -0.8606
 1004SOL    MW4 4071   0.442   3.240   2.001 -0.2220  0.2973 -0.0312
 1005SOL     OW 4072   0.435   3.474   1.882  0.0105  0.1191 -0.0513
 1005SOL    HW2 4073   0.518   3.505   1.918 -0.4887  0.8570  0.4995
 1005SOL    HW3 4074   0.442   3.490   1.788  0.2937  0.6791  0.0606
 1005SOL    MW4 4075   0.447   3.480   1.874 -0.0180  0.2906  0.0361
 1006SOL     OW 4076   0.651   3.597   2.005  0.4143  0.2495  0.7040
 1006SOL    HW2 4077   0.730   3.564   1.962  0.9700  2.3678  0.0203
 1006SOL    HW3 4078   0.655   3.692   1.993 -2.6270  0.3383  0.0296
 1006SOL    MW4 4079   0.662   3.605   1.998  0.0864  0.5410  0.5249
 1007SOL     OW 4080   0.659   3.872   1.953  0.0227  0.0740  0.3468
 1007SOL    HW2 4081   0.734   3.929   1.967 -0.1317 -0.0401  1.6649
 1007SOL    HW3 4082   0.645   3.874   1.858  0.3849  1.7556  0.3149
 1007SOL    MW4 4083   0.667   3.880   1.942  0.0501  0.2806  0.5164
 1008SOL     OW 4084   0.409   4.031   1.992  0.7622 -0.4608 -0.2263
 1008SOL    HW2 4085   0.428   4.122   1.969  1.5851 -0.2518  1.2539
 1008SOL    HW3 4086   0.490   3.984   1.974  0.2521 -0.9652 -1.2597
 1008SOL    MW4 4087   0.422   4.037   1.986  0.8035 -0.4997 -0.1671
 1009SOL     OW 4088   0.480   4.311   1.935  0.1162 -0.8636  0.2166
 1009SOL    HW2 4089   0.396   4.352   1.951  0.1870 -0.9181  0.7236
 1009SOL    HW3 4090   0.489   4.311   1.840  1.2663  2.5939  0.2573
 1009SOL    MW4 4091   0.470   4.316   1.924  0.2773 -0.4144  0.2888
 1010SOL     OW 4092   0.715   4.450   2.032 -0.0652  0.5140 -0.0618
 1010SOL    HW2 4093   0.777   4.401   1.979 -0.0606 -0.5355  0.8952
 1010SOL    HW3 4094   0.629   4.414   2.009 -0.0512 -0.0309  0.7265
 1010SOL    MW4 4095   0.712   4.439   2.022 -0.0628  0.3033  0.1686
 1011SOL     OW 4096   1.118   4.663   1.914 -0.3063 -0.2046 -0.1203
 1011SOL    HW2 4097   1.209   4.693   1.911 -0.4185  0.2115  0.3991
 1011SOL    HW3 4098   1.124   4.568   1.922  0.1050 -0.0965  0.9501
 1011SOL    MW4 4099   1.131   4.654   1.915 -0.2668 -0.1354  0.0895
 1012SOL     OW 4100   0.923   0.156   2.022 -0.1147  0.9126 -0.2419
 1012SOL    HW2 4101   1.005   0.111   2.000  0.3421  1.5024  0.2296
 1012SOL    HW3 4102   0.855   0.101   1.984  0.3996 -0.4351  0.7431
 1012SOL    MW4 4103   0.925   0.143   2.014  0.0135  0.8126 -0.0498
 1013SOL     OW 4104   0.948   0.369   1.842  0.1490 -0.2032 -0.0582
 1013SOL    HW2 4105   0.999   0.427   1.899 -0.7098  0.9231 -0.4390
 1013SOL    HW3 4106   0.922   0.297   1.900 -2.2746  1.8258  1.4957
 1013SOL    MW4 4107   0.952   0.367   1.857 -0.2841  0.2131  0.0967
 1014SOL     OW 4108   1.117   0.528   1.985 -0.0682 -0.8954  0.5583
 1014SOL    HW2 4109   1.179   0.470   1.942  0.8723  1.0127 -0.7495
 1014SOL    HW3 4110   1.140   0.616   1.953 -2.0083  0.0986  1.7770
 1014SOL    MW4 4111   1.128   0.532   1.975 -0.2002 -0.5125  0.5466
 1015SOL     OW 4112   1.167   0.775   1.865 -0.0820 -0.3352 -0.1101
 1015SOL    HW2 4113   1.241   0.826   1.899  0.2709 -0.4201 -0.7415
 1015SOL    HW3 4114   1.089   0.819   1.900  0.1718  1.2749 -1.4983
 1015SOL    MW4 4115   1.167   0.787   1.874 -0.0020 -0.1340 -0.3765
 1016SOL     OW 4116   0.936   0.907   1.949 -0.5286 -0.3619  0.6285
 1016SOL    HW2 4117   0.934   0.891   2.043 -1.0908  0.6276  0.7942
 1016SOL    HW3 4118   0.927   1.002   1.941 -1.4883 -0.5409 -0.4635
 1016SOL    MW4 4119   0.935   0.917   1.960 -0.7293 -0.2550  0.5064
 1017SOL     OW 4120   0.916   1.190   1.877  0.2080  0.1572  0.1539
 1017SOL    HW2 4121   0.825   1.201   1.903  0.2979  0.7763  0.2119
 1017SOL    HW3 4122   0.912   1.164   1.785  0.0002  0.9186 -0.0535
 1017SOL    MW4 4123   0.903   1.188   1.868  0.1925  0.3394  0.1342
 1018SOL     OW 4124   1.163   1.301   1.986  0.2690 -0.3986  0.3179
 1018SOL    HW2 4125   1.162   1.395   1.972  0.9888 -0.6588 -1.6992
 1018SOL    HW3 4126   1.081   1.270   1.947  0.2334 -0.6685  0.5980
 1018SOL    MW4 4127   1.152   1.309   1.979  0.3593 -0.4685  0.0887
 1019SOL     OW 4128   1.142   1.556   1.881 -0.3350  0.2164 -0.1924
 1019SOL    HW2 4129   1.053   1.575   1.911 -0.6181  0.2577 -1.0359
 1019SOL    HW3 4130   1.130   1.524   1.792  0.3996 -0.9658  0.1364
 1019SOL    MW4 4131   1.128   1.555   1.873 -0.2754  0.0657 -0.2602
 1020SOL     OW 4132   0.895   1.641   1.972 -0.2646  0.7956 -0.1059
 1020SOL    HW2 4133   0.877   1.724   1.929 -1.7207 -0.5315 -2.1535
 1020SOL    HW3 4134   0.824   1.583   1.945  1.1021 -1.3425  0.6801
 1020SOL    MW4 4135   0.883   1.644   1.963 -0.2764  0.3383 -0.2724
 1021SOL     OW 4136   0.907   1.920   1.874 -0.3905  0.6982  0.3793
 1021SOL    HW2 4137   0.828   1.965   1.904 -0.8282  0.0641  0.1799
 1021SOL    HW3 4138   0.898   1.917   1.779  0.0288  0.9000  0.3290
 1021SOL    MW4 4139   0.896   1.926   1.865 -0.3929  0.6412  0.3464
 1022SOL     OW 4140   1.150   2.027   1.970 -0.2879 -0.1475  0.2316
 1022SOL    HW2 4141   1.134   2.118   1.947 -1.2983 -0.1598  0.8647
 1022SOL    HW3 4142   1.076   1.979   1.935  0.4738 -0.8004 -0.5084
 1022SOL    MW4 4143   1.138   2.033   1.962 -0.3207 -0.2353  0.2174
 1023SOL     OW 4144   1.124   2.292   1.909 -0.1185 -0.0889  0.3951
 1023SOL    HW2 4145   1.196   2.332   1.957 -0.0202 -0.2071  0.3473
 1023SOL    HW3 4146   1.155   2.287   1.819 -0.6097  0.8699  0.1623
 1023SOL    MW4 4147   1.137   2.296   1.903 -0.1702  0.0224  0.3582
 1024SOL     OW 4148   0.880   2.444   1.985  0.0566  0.0515 -0.6350
 1024SOL    HW2 4149   0.948   2.404   1.931 -0.1015 -1.1863  0.0814
 1024SOL    HW3 4150   0.799   2.427   1.936 -0.0132 -0.5095 -0.3188
 1024SOL    MW4 4151   0.878   2.437   1.971  0.0266 -0.1860 -0.4988
 1025SOL     OW 4152   0.916   2.713   1.901 -0.3680  0.4242  0.0385
 1025SOL    HW2 4153   0.900   2.629   1.943 -0.1652  1.2495  1.7778
 1025SOL    HW3 4154   0.847   2.770   1.935  0.2168  1.2881 -0.2188
 1025SOL    MW4 4155   0.904   2.709   1.911 -0.2641  0.6468  0.2339
 1026SOL     OW 4156   1.134   2.858   1.997  0.4925  0.1105 -0.5219
 1026SOL    HW2 4157   1.125   2.854   2.093 -0.1604 -0.6839 -0.6052
 1026SOL    HW3 4158   1.058   2.809   1.965  0.5756  0.5975 -1.4536
 1026SOL    MW4 4159   1.123   2.851   2.006  0.4174  0.0699 -0.6557
 1027SOL     OW 4160   1.117   3.094   1.843 -0.4350 -0.5953  0.2343
 1027SOL    HW2 4161   1.037   3.139   1.870 -0.7927 -1.0298 -0.0860
 1027SOL    HW3 4162   1.117   3.012   1.894  0.0060 -0.4168  0.5220
 1027SOL    MW4 4163   1.107   3.089   1.853 -0.4239 -0.6292  0.2301
 1028SOL     OW 4164   0.885   3.210   1.978 -0.8714  0.1671  0.2724
 1028SOL    HW2 4165   0.901   3.207   2.072 -0.8962 -0.0397  0.2693
 1028SOL    HW3 4166   0.796   3.175   1.968 -0.5184 -0.6818  0.0787
 1028SOL    MW4 4167   0.875   3.205   1.989 -0.8281  0.0281  0.2464
 1029SOL     OW 4168   0.895   3.465   1.904 -0.3434  0.2428 -0.0890
 1029SOL    HW2 4169   0.896   3.372   1.929 -1.2989  0.5396  1.0745
 1029SOL    HW3 4170   0.892   3.463   1.808  0.1807 -0.9183 -0.1004
 1029SOL    MW4 4171   0.895   3.452   1.895 -0.4003  0.1290  0.0629
 1030SOL     OW 4172   1.113   3.605   2.009 -0.1597  1.0246  0.3641
 1030SOL    HW2 4173   1.120   3.599   2.105 -0.1897  0.1097  0.3162
 1030SOL    HW3 4174   1.025   3.573   1.989 -0.4545  1.9989  0.0905
 1030SOL    MW4 4175   1.103   3.600   2.019 -0.2025  1.0324  0.3214
 1031SOL     OW 4176   1.110   3.872   1.927 -0.0465  0.2174  0.3172
 1031SOL    HW2 4177   1.112   3.785   1.967  2.5189 -0.3523 -0.9183
 1031SOL    HW3 4178   1.100   3.856   1.833 -1.4837  1.3483  0.2601
 1031SOL    MW4 4179   1.109   3.859   1.920  0.1023  0.2913  0.1466
 1032SOL     OW 4180   0.890   4.031   2.013  0.2505 -0.2106  0.1811
 1032SOL    HW2 4181   0.900   4.042   2.107  1.4959 -0.4015  0.0867
 1032SOL    HW3 4182   0.972   3.989   1.985 -0.3541 -0.7094 -0.8903
 1032SOL    MW4 4183   0.902   4.027   2.022  0.3350 -0.3018  0.0274
 1033SOL     OW 4184   0.880   4.280   1.872 -0.0381 -0.3923 -0.0440
 1033SOL    HW2 4185   0.967   4.306   1.901 -0.9557  1.6190  0.9578
 1033SOL    HW3 4186   0.872   4.189   1.902  1.4195 -0.3631  0.5074
 1033SOL    MW4 4187   0.891   4.271   1.880  0.0331 -0.1235  0.1609
 1034SOL     OW 4188   1.125   4.374   1.969  0.4866  0.2303  0.2791
 1034SOL    HW2 4189   1.131   4.381   2.064  0.8618  0.5528  0.2351
 1034SOL    HW3 4190   1.215   4.354   1.940  0.2273 -0.6462  0.0539
 1034SOL    MW4 4191   1.138   4.372   1.978  0.5019  0.1578  0.2435
 1035SOL     OW 4192   1.572   4.638   1.820 -0.0421  0.0059  0.3379
 1035SOL    HW2 4193   1.625   4.714   1.843  1.1996 -0.7467  0.0159
 1035SOL    HW3 4194   1.602   4.569   1.879 -0.1983 -0.6097 -0.2949
 1035SOL    MW4 4195   1.583   4.639   1.831  0.1012 -0.1750  0.2118
 1036SOL     OW 4196   1.378   0.105   1.936  0.0602 -0.2165  0.0040
 1036SOL    HW2 4197   1.382   0.083   2.029 -0.7144  0.1391  0.1237
 1036SOL    HW3 4198   1.446   0.051   1.896  0.7754  0.0350  0.8512
 1036SOL    MW4 4199   1.388   0.095   1.943  0.0523 -0.1364  0.1316
 1037SOL     OW 4200   1.328   0.370   1.883  0.1418  0.0423  0.2592
 1037SOL    HW2 4201   1.344   0.276   1.890 -1.8540 -0.3711 -0.5435
 1037SOL    HW3 4202   1.330   0.388   1.788 -1.6495  0.3990  0.2732
 1037SOL    MW4 4203   1.330   0.360   1.871 -0.3579  0.0348  0.1552
 1038SOL     OW 4204   1.555   0.502   1.995  0.8303 -0.5048 -0.0369
 1038SOL    HW2 4205   1.635   0.471   1.954  0.5631 -1.1969 -0.0312
 1038SOL    HW3 4206   1.485   0.454   1.950  0.4530 -0.2764  0.3087
 1038SOL    MW4 4207   1.556   0.492   1.983  0.7452 -0.5660  0.0095
 1039SOL     OW 4208   1.554   0.760   1.887  0.1938  0.0711  0.0902
 1039SOL    HW2 4209   1.634   0.793   1.926  0.7421 -0.5945 -0.4707
 1039SOL    HW3 4210   1.546   0.670   1.919  0.1670 -0.1766 -0.5888
 1039SOL    MW4 4211   1.563   0.752   1.896  0.2627 -0.0494 -0.0734
 1040SOL     OW 4212   1.363   0.920   1.984 -0.5852  0.4176 -0.0527
 1040SOL    HW2 4213   1.355   0.889   2.075 -0.2847 -0.4491 -0.3142
 1040SOL    HW3 4214   1.445   0.881   1.953 -0.6176  0.8316 -0.6508
 1040SOL    MW4 4215   1.373   0.911   1.992 -0.5498  0.3578 -0.1662
 1041SOL     OW 4216   1.387   1.175   1.904 -0.0144 -0.0129 -0.4322
 1041SOL    HW2 4217   1.371   1.092   1.949 -1.4235  0.5432  0.1190
 1041SOL    HW3 4218   1.313   1.231   1.929  2.1282  2.2328  1.1648
 1041SOL    MW4 4219   1.375   1.172   1.913  0.0824  0.3569 -0.1488
 1042SOL     OW 4220   1.617   1.304   2.032  0.1595 -0.0578  0.2061
 1042SOL    HW2 4221   1.622   1.390   1.990  0.1047 -1.0497 -1.8950
 1042SOL    HW3 4222   1.535   1.267   1.998  0.0106 -0.7973  1.3738
 1042SOL    MW4 4223   1.607   1.310   2.022  0.1327 -0.2862  0.0827
 1043SOL     OW 4224   1.645   1.559   1.893 -0.0452  0.6032  0.0737
 1043SOL    HW2 4225   1.708   1.602   1.951  0.3050  1.6625 -1.0571
 1043SOL    HW3 4226   1.560   1.596   1.918 -0.0488  0.1715  0.7045
 1043SOL    MW4 4227   1.642   1.570   1.904  0.0005  0.6859  0.0079
 1044SOL     OW 4228   1.385   1.659   1.971  0.0817 -0.0442  0.0784
 1044SOL    HW2 4229   1.370   1.645   2.064 -0.0794 -1.4033 -0.1334
 1044SOL    HW3 4230   1.307   1.623   1.929  0.4349 -0.0053 -0.6134
 1044SOL    MW4 4231   1.373   1.652   1.978  0.1072 -0.2185 -0.0409
 1045SOL     OW 4232   1.376   1.929   1.843 -0.4500  0.0968 -0.2023
 1045SOL    HW2 4233   1.390   1.843   1.882 -0.2128  0.6243  0.8866
 1045SOL    HW3 4234   1.292   1.957   1.877  0.0456  0.8284  0.4331
 1045SOL    MW4 4235   1.367   1.921   1.852 -0.3532  0.2630  0.0253
 1046SOL     OW 4236   1.560   2.061   2.010 -0.4684 -0.0216  0.5849
 1046SOL    HW2 4237   1.584   2.145   1.972 -0.9003 -0.4913 -0.7632
 1046SOL    HW3 4238   1.495   2.025   1.949  0.0954 -1.5560  0.8597
 1046SOL    MW4 4239   1.555   2.067   1.997 -0.4510 -0.2861  0.4432
 1047SOL     OW 4240   1.563   2.320   1.904  0.0960  0.5454 -0.1560
 1047SOL    HW2 4241   1.646   2.359   1.932 -0.1439  1.0658 -0.1565
 1047SOL    HW3 4242   1.565   2.327   1.808 -0.1850  1.0495 -0.1255
 1047SOL    MW4 4243   1.574   2.326   1.895  0.0272  0.6804 -0.1520
 1048SOL     OW 4244   1.338   2.418   2.042  0.2358  0.1920 -0.2255
 1048SOL    HW2 4245   1.323   2.506   2.006 -1.3429  0.3428  0.7578
 1048SOL    HW3 4246   1.422   2.391   2.005 -0.2879  1.2320 -2.2709
 1048SOL    MW4 4247   1.347   2.426   2.032 -0.0416  0.3488 -0.3655
 1049SOL     OW 4248   1.342   2.682   1.940  0.1451  0.0944 -0.2148
 1049SOL    HW2 4249   1.272   2.739   1.970  0.7598  0.6079  0.2529
 1049SOL    HW3 4250   1.346   2.697   1.846 -0.4912 -0.0705 -0.2705
 1049SOL    MW4 4251   1.334   2.692   1.932  0.1422  0.1402 -0.1603
 1050SOL     OW 4252   1.559   2.854   1.996 -0.3059 -0.2409  0.3506
 1050SOL    HW2 4253   1.639   2.806   1.976 -0.0989 -0.1069  0.8476
 1050SOL    HW3 4254   1.489   2.792   1.978 -0.1272 -0.1732 -0.6457
 1050SOL    MW4 4255   1.560   2.840   1.991 -0.2550 -0.2146  0.2847
 1051SOL     OW 4256   1.550   3.112   1.905  0.4967  0.0031 -0.2700
 1051SOL    HW2 4257   1.560   3.020   1.930  0.0264 -0.3968 -1.5229
 1051SOL    HW3 4258   1.553   3.112   1.810  1.1230  1.3743 -0.2737
 1051SOL    MW4 4259   1.552   3.100   1.896  0.5174  0.1311 -0.4357
 1052SOL     OW 4260   1.304   3.239   1.977 -0.1076  0.1390  0.1413
 1052SOL    HW2 4261   1.377   3.184   1.948  0.7970  2.1354 -1.4821
 1052SOL    HW3 4262   1.226   3.196   1.942  0.5307 -0.4108 -0.6127
 1052SOL    MW4 4263   1.303   3.226   1.969  0.0958  0.3300 -0.1724
 1053SOL     OW 4264   1.376   3.507   1.884 -0.0969 -0.3330 -0.2984
 1053SOL    HW2 4265   1.359   3.414   1.897 -0.0627 -0.7208 -2.6514
 1053SOL    HW3 4266   1.302   3.551   1.924 -0.4678 -1.4053  0.2182
 1053SOL    MW4 4267   1.364   3.500   1.891 -0.1414 -0.5257 -0.5406
 1054SOL     OW 4268   1.590   3.638   1.997  0.0147 -0.5801 -0.6310
 1054SOL    HW2 4269   1.571   3.615   2.088  0.0956 -2.2618 -1.0269
 1054SOL    HW3 4270   1.520   3.598   1.946  1.0285 -1.3160 -1.4852
 1054SOL    MW4 4271   1.579   3.630   2.002  0.1591 -0.8988 -0.7961
 1055SOL     OW 4272   1.582   3.894   1.880 -0.1533  0.1392 -0.1089
 1055SOL    HW2 4273   1.660   3.938   1.914  0.9876 -0.1515 -2.2582
 1055SOL    HW3 4274   1.586   3.807   1.918  0.9727 -0.1088 -0.7730
 1055SOL    MW4 4275   1.593   3.889   1.890  0.1457  0.0682 -0.4801
 1056SOL     OW 4276   1.361   4.006   1.976  0.1291  0.5950  0.1451
 1056SOL    HW2 4277   1.432   3.951   1.942  0.0200  0.0988  0.7036
 1056SOL    HW3 4278   1.281   3.959   1.953  0.0961 -0.6918  2.6178
 1056SOL    MW4 4279   1.360   3.992   1.969  0.1104  0.3598  0.5450
 1057SOL     OW 4280   1.347   4.261   1.864  0.3170  0.3776 -0.3401
 1057SOL    HW2 4281   1.346   4.173   1.902  0.8467  0.2212 -0.6805
 1057SOL    HW3 4282   1.354   4.246   1.770 -1.2844  0.7580 -0.5269
 1057SOL    MW4 4283   1.348   4.248   1.857  0.1756  0.4067 -0.4097
 1058SOL     OW 4284   1.599   4.383   1.947  0.0560  0.1125  0.3054
 1058SOL    HW2 4285   1.580   4.407   2.037 -0.4759 -0.6501  0.4013
 1058SOL    HW3 4286   1.520   4.339   1.917  0.1378  0.5781 -0.6102
 1058SOL    MW4 4287   1.586   4.380   1.955 -0.0033  0.0730  0.1972
 1059SOL     OW 4288   1.983   0.001   1.862 -0.1460  0.0201  0.1142
 1059SOL    HW2 4289   2.068   0.035   1.890  0.2637 -0.9989  0.1273
 1059SOL    HW3 4290   1.983  -0.091   1.889 -0.8890 -0.2316 -0.6918
 1059SOL    MW4 4291   1.994  -0.007   1.869 -0.1900 -0.1473  0.0095
 1060SOL     OW 4292   1.773   0.130   1.974  0.2932  0.0454  0.1484
 1060SOL    HW2 4293   1.780   0.143   2.069 -0.5268  3.2819 -0.1973
 1060SOL    HW3 4294   1.850   0.077   1.952  1.8278  1.2869  2.2833
 1060SOL    MW4 4295   1.784   0.124   1.984  0.3875  0.6362  0.3846
 1061SOL     OW 4296   1.772   0.386   1.860 -0.0950 -0.0554 -0.3878
 1061SOL    HW2 4297   1.772   0.298   1.897 -0.8928  0.1151  0.0242
 1061SOL    HW3 4298   1.781   0.373   1.766 -1.4231 -0.6219 -0.4443
 1061SOL    MW4 4299   1.773   0.373   1.853 -0.3754 -0.1076 -0.3409
 1062SOL     OW 4300   2.014   0.457   1.968 -0.4034 -0.0368  0.1654
 1062SOL    HW2 4301   2.026   0.546   1.933 -0.1572 -0.1973 -0.1556
 1062SOL    HW3 4302   1.932   0.427   1.930 -0.8142  0.2896  0.7711
 1062SOL    MW4 4303   2.005   0.465   1.959 -0.4251 -0.0149  0.2030
 1063SOL     OW 4304   2.027   0.701   1.842 -0.0521 -0.0157 -0.0172
 1063SOL    HW2 4305   2.090   0.758   1.887 -1.4165  0.8856  0.7886
 1063SOL    HW3 4306   2.026   0.734   1.752 -1.9335  2.2490  0.7766
 1063SOL    MW4 4307   2.035   0.713   1.836 -0.4802  0.4021  0.1938
 1064SOL     OW 4308   1.787   0.859   1.988  0.2490  0.6969 -0.4723
 1064SOL    HW2 4309   1.812   0.938   1.941  1.2428 -0.6266 -2.2351
 1064SOL    HW3 4310   1.864   0.802   1.982 -0.6307 -0.6073  0.2939
 1064SOL    MW4 4311   1.800   0.862   1.981  0.2640  0.3502 -0.6038
 1065SOL     OW 4312   1.803   1.138   1.908 -0.0095  0.1576 -0.0490
 1065SOL    HW2 4313   1.736   1.187   1.955 -0.0442 -0.0891  0.1634
 1065SOL    HW3 4314   1.791   1.162   1.816  0.2613  0.8743  0.1062
 1065SOL    MW4 4315   1.792   1.147   1.902  0.0217  0.2196 -0.0005
 1066SOL     OW 4316   2.032   1.307   1.982 -0.0858  0.1604 -0.5344
 1066SOL    HW2 4317   2.110   1.259   1.954  0.0459 -0.8184  1.4916
 1066SOL    HW3 4318   1.958   1.253   1.954  0.0248 -0.3982  0.2656
 1066SOL    MW4 4319   2.032   1.294   1.974 -0.0539 -0.0424 -0.1615
 1067SOL     OW 4320   2.028   1.565   1.879 -0.3806 -0.5861 -0.1598
 1067SOL    HW2 4321   2.031   1.471   1.897  1.4418 -0.5044  0.0837
 1067SOL    HW3 4322   2.010   1.570   1.785  0.9197 -1.2148 -0.4562
 1067SOL    MW4 4323   2.026   1.553   1.869  0.0312 -0.6584 -0.1667
 1068SOL     OW 4324   1.848   1.700   2.032 -0.0786 -0.7001  0.1285
 1068SOL    HW2 4325   1.839   1.780   1.981 -1.0879 -0.3871  0.7550
 1068SOL    HW3 4326   1.924   1.655   1.996  0.5189  0.5686 -0.1985
 1068SOL    MW4 4327   1.857   1.704   2.021 -0.1329 -0.4914  0.1681
 1069SOL     OW 4328   1.800   1.930   1.913  0.0871  0.5124  0.2695
 1069SOL    HW2 4329   1.730   1.967   1.967 -0.3296  0.0315  0.0615
 1069SOL    HW3 4330   1.762   1.922   1.826 -0.8588 -3.1765  0.9080
 1069SOL    MW4 4331   1.786   1.934   1.909 -0.0927 -0.0378  0.3263
 1070SOL     OW 4332   2.036   2.052   1.968 -0.6128  0.0394 -0.0568
 1070SOL    HW2 4333   2.109   1.998   1.939 -1.0702  0.4236 -1.9627
 1070SOL    HW3 4334   1.959   2.011   1.929 -1.2991  0.3608  0.9229
 1070SOL    MW4 4335   2.035   2.040   1.959 -0.7637  0.1326 -0.1791
 1071SOL     OW 4336   2.006   2.319   1.904  0.1532 -0.2537 -0.3730
 1071SOL    HW2 4337   2.074   2.380   1.928 -0.5981  0.5248 -0.2032
 1071SOL    HW3 4338   2.038   2.234   1.934 -0.3077  0.5364  2.4881
 1071SOL    MW4 4339   2.019   2.315   1.911 -0.0067 -0.0467  0.0267
 1072SOL     OW 4340   1.780   2.452   1.993  0.2378  0.0672  0.2606
 1072SOL    HW2 4341   1.796   2.460   2.087 -1.2788  1.5361  0.4174
 1072SOL    HW3 4342   1.855   2.403   1.960  0.1989 -1.5030  2.4081
 1072SOL    MW4 4343   1.792   2.446   2.001  0.0325  0.0539  0.5646
 1073SOL     OW 4344   1.788   2.707   1.911  0.0902  0.2419 -0.1051
 1073SOL    HW2 4345   1.788   2.614   1.933  0.9258  0.3421  0.3727
 1073SOL    HW3 4346   1.794   2.710   1.815 -1.9113 -0.1974 -0.2483
 1073SOL    MW4 4347   1.789   2.695   1.901 -0.0635  0.1972 -0.0609
 1074SOL     OW 4348   2.010   2.855   1.996 -0.4702 -0.0598 -0.0000
 1074SOL    HW2 4349   2.008   2.848   2.091 -1.3471 -3.3971 -0.1939
 1074SOL    HW3 4350   1.929   2.812   1.967 -0.1215  0.7130 -2.2641
 1074SOL    MW4 4351   1.999   2.848   2.005 -0.5398 -0.3982 -0.3242
 1075SOL     OW 4352   2.017   3.103   1.877 -0.6950 -0.1223 -0.2993
 1075SOL    HW2 4353   1.957   3.149   1.934 -0.2523 -0.3185  0.3299
 1075SOL    HW3 4354   2.015   3.012   1.907 -0.3941 -0.2090 -0.5325
 1075SOL    MW4 4355   2.009   3.097   1.888 -0.5968 -0.1597 -0.2471
 1076SOL     OW 4356   1.785   3.235   2.002 -0.3051 -0.0284 -0.1169
 1076SOL    HW2 4357   1.782   3.237   2.097  1.1649 -0.4743 -0.0441
 1076SOL    HW3 4358   1.699   3.200   1.976 -0.4014 -0.7098  1.0733
 1076SOL    MW4 4359   1.773   3.231   2.011 -0.1239 -0.1771  0.0501
 1077SOL     OW 4360   1.787   3.492   1.875 -0.0258 -0.0415 -0.0549
 1077SOL    HW2 4361   1.790   3.406   1.915 -1.4497 -0.6265 -1.1626
 1077SOL    HW3 4362   1.728   3.543   1.930 -0.4173 -0.2501 -0.2799
 1077SOL    MW4 4363   1.780   3.488   1.887 -0.2652 -0.1464 -0.2307
 1078SOL     OW 4364   2.024   3.590   1.966  1.0771  0.3057  0.3345
 1078SOL    HW2 4365   2.024   3.682   1.938  2.6267 -0.2044 -1.4134
 1078SOL    HW3 4366   1.946   3.552   1.926  1.9527  0.1893 -1.2994
 1078SOL    MW4 4367   2.014   3.597   1.957  1.3971  0.2229 -0.1117
 1079SOL     OW 4368   2.038   3.834   1.859 -0.6165 -0.1434 -0.0114
 1079SOL    HW2 4369   2.097   3.902   1.891 -2.2597  0.6808  1.3680
 1079SOL    HW3 4370   2.030   3.852   1.765  0.8988  0.0392 -0.1182
 1079SOL    MW4 4371   2.045   3.846   1.851 -0.6332 -0.0105  0.1565
 1080SOL     OW 4372   1.822   3.957   1.992 -0.0962  0.7770  0.2253
 1080SOL    HW2 4373   1.839   4.044   1.955  0.4235  0.6234  0.0975
 1080SOL    HW3 4374   1.885   3.900   1.949 -0.4287  0.3347  0.3209
 1080SOL    MW4 4375   1.833   3.961   1.982 -0.0714  0.6986  0.2211
 1081SOL     OW 4376   1.812   4.204   1.866 -0.1927  0.3720  0.7916
 1081SOL    HW2 4377   1.734   4.254   1.889 -1.0704 -0.9966  0.8026
 1081SOL    HW3 4378   1.807   4.193   1.771  1.2026  2.2770  0.4620
 1081SOL    MW4 4379   1.801   4.209   1.857 -0.1245  0.4425  0.7496
 1082SOL     OW 4380   1.995   4.404   1.941 -0.1014  0.8435  0.2656
 1082SOL    HW2 4381   2.076   4.367   1.906  0.3521  2.8515 -0.8661
 1082SOL    HW3 4382   1.928   4.339   1.917  0.8297  0.2393 -0.7636
 1082SOL    MW4 4383   1.997   4.390   1.933  0.0813  1.0290 -0.0194
 1083SOL     OW 4384   2.502   4.661   1.860  0.3030 -0.5851 -0.4321
 1083SOL    HW2 4385   2.574   4.711   1.899 -0.4847  0.4225 -0.2446
 1083SOL    HW3 4386   2.502   4.578   1.907 -1.5181  1.1052  2.7623
 1083SOL    MW4 4387   2.511   4.657   1.871 -0.0412 -0.2292  0.0142
 1084SOL     OW 4388   2.249   0.083   1.941  0.3802 -0.0478 -0.2474
 1084SOL    HW2 4389   2.252   0.065   2.035 -0.7695 -0.4041 -0.2663
 1084SOL    HW3 4390   2.337   0.065   1.910  0.9290  0.6644  0.8742
 1084SOL    MW4 4391   2.261   0.078   1.949  0.3006 -0.0008 -0.1019
 1085SOL     OW 4392   2.249   0.346   1.858  0.0573 -0.0182  0.4500
 1085SOL    HW2 4393   2.262   0.254   1.883 -0.6180  0.1352  1.3720
 1085SOL    HW3 4394   2.172   0.374   1.907 -1.3867  0.2620 -1.9242
 1085SOL    MW4 4395   2.241   0.338   1.868 -0.2222  0.0390  0.2583
 1086SOL     OW 4396   2.459   0.501   1.969  0.1364 -0.2720  0.2863
 1086SOL    HW2 4397   2.539   0.467   1.928  0.6420 -0.6504  1.5886
 1086SOL    HW3 4398   2.391   0.441   1.940  0.1192  0.6627 -1.6982
 1086SOL    MW4 4399   2.461   0.489   1.959  0.2007 -0.1985  0.1963
 1087SOL     OW 4400   2.453   0.780   1.915  0.2093 -0.2655  0.1746
 1087SOL    HW2 4401   2.445   0.689   1.946  1.3024 -0.7326 -0.8726
 1087SOL    HW3 4402   2.473   0.772   1.822 -2.1396  1.1090 -0.5019
 1087SOL    MW4 4403   2.454   0.767   1.907  0.0436 -0.1458 -0.0528
 1088SOL     OW 4404   2.194   0.857   1.989  0.2266  0.0505 -0.2510
 1088SOL    HW2 4405   2.196   0.861   2.085  0.6013 -1.6121 -0.1733
 1088SOL    HW3 4406   2.286   0.862   1.963  0.0680  1.5907 -0.6030
 1088SOL    MW4 4407   2.207   0.858   1.998  0.2549  0.0343 -0.2871
 1089SOL     OW 4408   2.219   1.135   1.894  0.0342 -0.5848  0.1907
 1089SOL    HW2 4409   2.297   1.152   1.947  0.2286 -1.0103  0.0447
 1089SOL    HW3 4410   2.185   1.052   1.927  0.4553 -1.1160 -0.6906
 1089SOL    MW4 4411   2.225   1.127   1.905  0.1154 -0.7111  0.0551
 1090SOL     OW 4412   2.490   1.251   1.983  0.6007 -0.3628 -0.0882
 1090SOL    HW2 4413   2.489   1.260   2.079 -0.3684 -0.1466 -0.1204
 1090SOL    HW3 4414   2.504   1.340   1.951  2.3728 -0.6245 -0.1276
 1090SOL    MW4 4415   2.492   1.264   1.992  0.7067 -0.3687 -0.0978
 1091SOL     OW 4416   2.486   1.522   1.875 -0.0619  0.5123 -0.0902
 1091SOL    HW2 4417   2.418   1.575   1.916  1.2412  1.6548  0.6400
 1091SOL    HW3 4418   2.473   1.534   1.781 -0.9875  0.5567  0.0387
 1091SOL    MW4 4419   2.476   1.530   1.868 -0.0122  0.6689  0.0230
 1092SOL     OW 4420   2.270   1.672   1.995  0.2605  0.1620 -0.2337
 1092SOL    HW2 4421   2.265   1.661   2.090 -0.5708  1.0991 -0.1587
 1092SOL    HW3 4422   2.194   1.624   1.962 -0.1043  0.7905 -0.3274
 1092SOL    MW4 4423   2.259   1.664   2.003  0.1025  0.3686 -0.2360
 1093SOL     OW 4424   2.256   1.931   1.884 -0.1276 -0.0363  0.2333
 1093SOL    HW2 4425   2.335   1.970   1.922 -0.2210  0.3246  0.0576
 1093SOL    HW3 4426   2.260   1.839   1.910 -0.1514  0.1858  1.0565
 1093SOL    MW4 4427   2.267   1.924   1.893 -0.1428  0.0405  0.3186
 1094SOL     OW 4428   2.465   2.061   2.003  0.4452  0.0698  0.1930
 1094SOL    HW2 4429   2.544   2.016   1.971  0.1599  0.0096 -0.4451
 1094SOL    HW3 4430   2.482   2.153   1.986  1.2023  0.2526  1.8798
 1094SOL    MW4 4431   2.478   2.067   1.996  0.5074  0.0858  0.3314
 1095SOL     OW 4432   2.501   2.336   1.922  0.0648 -0.3505  0.0691
 1095SOL    HW2 4433   2.567   2.394   1.962 -0.1417  1.1940 -1.7657
 1095SOL    HW3 4434   2.418   2.365   1.959  0.0436  0.0264 -0.2716
 1095SOL    MW4 4435   2.499   2.348   1.932  0.0348 -0.0970 -0.2179
 1096SOL     OW 4436   2.243   2.465   1.954 -0.0466  0.2415  0.4477
 1096SOL    HW2 4437   2.233   2.464   2.049  1.1753 -0.2024  0.5719
 1096SOL    HW3 4438   2.259   2.557   1.933  2.0528  0.0007  0.9252
 1096SOL    MW4 4439   2.244   2.477   1.964  0.3920  0.1512  0.5273
 1097SOL     OW 4440   2.245   2.740   1.908  0.0471 -0.2339 -0.2426
 1097SOL    HW2 4441   2.156   2.767   1.928 -0.0921 -0.2699 -0.8173
 1097SOL    HW3 4442   2.252   2.747   1.813  0.4297 -0.9221 -0.2695
 1097SOL    MW4 4443   2.235   2.744   1.898  0.0789 -0.3295 -0.3220
 1098SOL     OW 4444   2.472   2.854   2.003  0.2177  0.3604 -0.4584
 1098SOL    HW2 4445   2.489   2.928   1.944  0.1064  0.4590 -0.3675
 1098SOL    HW3 4446   2.389   2.818   1.971  0.3227  0.2118 -0.5661
 1098SOL    MW4 4447   2.463   2.859   1.991  0.2172  0.3536 -0.4605
 1099SOL     OW 4448   2.497   3.106   1.853 -0.3180 -0.3881 -0.5350
 1099SOL    HW2 4449   2.420   3.153   1.887  0.4311  0.6544 -0.2489
 1099SOL    HW3 4450   2.477   3.090   1.761 -0.1635  1.4534 -0.9231
 1099SOL    MW4 4451   2.484   3.110   1.845 -0.1988 -0.0074 -0.5485
 1100SOL     OW 4452   2.265   3.215   1.960 -0.0844  0.2053  0.7891
 1100SOL    HW2 4453   2.267   3.201   2.054  0.1121 -0.4858  0.6847
 1100SOL    HW3 4454   2.191   3.163   1.929  0.1101  0.0963  0.5090
 1100SOL    MW4 4455   2.256   3.207   1.968 -0.0329  0.0999  0.7381
 1101SOL     OW 4456   2.254   3.475   1.863  0.0359 -0.0393 -0.4395
 1101SOL    HW2 4457   2.260   3.393   1.911  0.0413 -0.3366 -0.9448
 1101SOL    HW3 4458   2.175   3.517   1.896 -1.0027 -1.1201 -1.5453
 1101SOL    MW4 4459   2.244   3.470   1.874 -0.1004 -0.2213 -0.6520
 1102SOL     OW 4460   2.469   3.623   1.970  0.6199 -0.0219  1.0570
 1102SOL    HW2 4461   2.477   3.603   2.063  0.4843 -2.0138  0.6696
 1102SOL    HW3 4462   2.391   3.575   1.942  0.9540  0.1479 -0.1913
 1102SOL    MW4 4463   2.460   3.614   1.978  0.6459 -0.2623  0.8411
 1103SOL     OW 4464   2.455   3.889   1.853 -0.0700  0.0969 -0.9897
 1103SOL    HW2 4465   2.376   3.931   1.888  0.1578 -0.0799 -0.2552
 1103SOL    HW3 4466   2.458   3.804   1.896  0.5166  0.0943 -1.0261
 1103SOL    MW4 4467   2.445   3.883   1.863  0.0372  0.0732 -0.8976
 1104SOL     OW 4468   2.215   4.019   1.931 -0.3853  0.3812 -0.0992
 1104SOL    HW2 4469   2.207   4.043   2.023  0.5074 -0.1434  0.1259
 1104SOL    HW3 4470   2.229   4.102   1.885 -0.4331  0.6041  0.2888
 1104SOL    MW4 4471   2.216   4.033   1.937 -0.2742  0.3419 -0.0182
 1105SOL     OW 4472   2.246   4.292   1.850  0.1305  0.3769  0.2527
 1105SOL    HW2 4473   2.325   4.322   1.894  0.8030  0.9202 -1.3073
 1105SOL    HW3 4474   2.266   4.299   1.757 -1.2347 -0.8539 -0.1547
 1105SOL    MW4 4475   2.259   4.297   1.843  0.0393  0.2861 -0.0069
 1106SOL     OW 4476   2.472   4.393   1.951  0.2957  0.1567 -0.0703
 1106SOL    HW2 4477   2.477   4.405   2.046 -0.5884  0.3668 -0.0427
 1106SOL    HW3 4478   2.557   4.358   1.926  0.1305 -1.0004  0.9676
 1106SOL    MW4 4479   2.484   4.390   1.960  0.1574  0.0319  0.0702
 1107SOL     OW 4480   2.947   0.025   1.841  0.2472  0.1227 -0.5255
 1107SOL    HW2 4481   3.010   0.063   1.902 -0.0106 -0.2403 -0.0298
 1107SOL    HW3 4482   2.932  -0.064   1.875 -1.0628  0.4471 -0.2420
 1107SOL    MW4 4483   2.953   0.018   1.854  0.0405  0.1175 -0.4228
 1108SOL     OW 4484   2.733   0.144   1.965 -0.0954  0.1985  0.1045
 1108SOL    HW2 4485   2.751   0.138   2.059 -1.5331 -1.2240  0.3217
 1108SOL    HW3 4486   2.811   0.109   1.923 -0.9981 -2.9442  0.9127
 1108SOL    MW4 4487   2.745   0.139   1.972 -0.4041 -0.4038  0.2397
 1109SOL     OW 4488   2.699   0.412   1.865  0.0966 -0.1327 -1.1373
 1109SOL    HW2 4489   2.764   0.466   1.911 -0.1686  0.5432 -1.5572
 1109SOL    HW3 4490   2.712   0.324   1.901  2.3168 -0.3285 -2.3551
 1109SOL    MW4 4491   2.709   0.408   1.876  0.3545 -0.0693 -1.3534
 1110SOL     OW 4492   2.952   0.531   1.993 -0.3648 -0.4753  0.2680
 1110SOL    HW2 4493   3.015   0.473   1.950  1.7778  1.1102  1.1899
 1110SOL    HW3 4494   2.953   0.610   1.940 -0.0647  0.2974  1.4237
 1110SOL    MW4 4495   2.961   0.533   1.980 -0.0427 -0.1642  0.5423
 1111SOL     OW 4496   2.878   0.777   1.865 -0.3732  0.3063 -0.3057
 1111SOL    HW2 4497   2.963   0.806   1.898 -0.7484  1.2076 -0.1082
 1111SOL    HW3 4498   2.814   0.813   1.927 -0.9161 -0.1957 -0.5583
 1111SOL    MW4 4499   2.880   0.785   1.877 -0.4945  0.3590 -0.3128
 1112SOL     OW 4500   2.685   0.871   2.063  0.2929 -0.6358 -0.1666
 1112SOL    HW2 4501   2.693   0.953   2.013 -0.0267 -0.0885  0.6685
 1112SOL    HW3 4502   2.614   0.824   2.020 -0.2117 -0.0123 -0.0317
 1112SOL    MW4 4503   2.676   0.876   2.051  0.1841 -0.4814 -0.0384
 1113SOL     OW 4504   2.720   1.110   1.922 -0.0056 -0.1501  0.2517
 1113SOL    HW2 4505   2.633   1.150   1.932 -1.1488 -2.1262 -1.4814
 1113SOL    HW3 4506   2.744   1.126   1.831  1.4521  0.3501  0.7128
 1113SOL    MW4 4507   2.711   1.117   1.912  0.0358 -0.3449  0.0839
 1114SOL     OW 4508   2.915   1.249   2.051  0.3919  0.2435 -0.2115
 1114SOL    HW2 4509   2.907   1.337   2.016  0.0628  0.4080  0.2728
 1114SOL    HW3 4510   2.833   1.206   2.026  0.1127  0.3937  0.4466
 1114SOL    MW4 4511   2.903   1.255   2.043  0.3116  0.2849 -0.0608
 1115SOL     OW 4512   2.922   1.488   1.923 -0.3402 -0.3655  0.0128
 1115SOL    HW2 4513   2.988   1.550   1.955 -0.2847 -0.8998  0.9660
 1115SOL    HW3 4514   2.924   1.497   1.828  1.3565 -0.6432  0.0204
 1115SOL    MW4 4515   2.931   1.498   1.915 -0.1092 -0.4727  0.1396
 1116SOL     OW 4516   2.710   1.677   1.952 -0.3487 -0.1604 -0.0825
 1116SOL    HW2 4517   2.785   1.618   1.957 -0.2483 -0.0254  0.0512
 1116SOL    HW3 4518   2.637   1.622   1.924 -0.4278 -0.5058  0.7694
 1116SOL    MW4 4519   2.710   1.662   1.949 -0.3459 -0.1882  0.0474
 1117SOL     OW 4520   2.687   1.946   1.890  0.0800  0.3504  0.2497
 1117SOL    HW2 4521   2.769   1.979   1.928  0.5418 -0.1449 -0.3078
 1117SOL    HW3 4522   2.689   1.852   1.906 -0.0637  0.2394 -0.3463
 1117SOL    MW4 4523   2.698   1.938   1.897  0.1223  0.2704  0.0975
 1118SOL     OW 4524   2.936   2.058   2.001 -0.7400  0.0891 -0.7070
 1118SOL    HW2 4525   2.946   2.074   2.095 -1.9353  0.5253 -0.6490
 1118SOL    HW3 4526   3.008   1.998   1.980 -0.9550 -0.6765  0.6476
 1118SOL    MW4 4527   2.947   2.052   2.011 -0.9263  0.0455 -0.5205
 1119SOL     OW 4528   2.952   2.305   1.874 -0.0337  0.4409  0.0570
 1119SOL    HW2 4529   3.020   2.359   1.916  0.3633 -0.3081  0.3879
 1119SOL    HW3 4530   2.957   2.221   1.919 -0.4051  0.0058 -0.7054
 1119SOL    MW4 4531   2.962   2.301   1.885 -0.0300  0.2849  0.0000
 1120SOL     OW 4532   2.744   2.445   2.004  0.6379  0.1213  0.3535
 1120SOL    HW2 4533   2.750   2.529   1.957  0.0264  0.3491  0.6737
 1120SOL    HW3 4534   2.785   2.382   1.946 -0.8853  0.2428 -0.8803
 1120SOL    MW4 4535   2.750   2.448   1.991  0.3562  0.1676  0.2331
 1121SOL     OW 4536   2.694   2.700   1.889 -0.4412 -0.4005  0.6907
 1121SOL    HW2 4537   2.611   2.730   1.925 -1.0690 -1.5336  0.2300
 1121SOL    HW3 4538   2.678   2.693   1.795  0.4801  0.3154  0.4701
 1121SOL    MW4 4539   2.681   2.703   1.881 -0.4022 -0.4554  0.6007
 1122SOL     OW 4540   2.918   2.855   1.987 -0.0813 -0.3849  0.1520
 1122SOL    HW2 4541   2.921   2.939   1.941  0.3436  0.4466  1.6637
 1122SOL    HW3 4542   2.834   2.817   1.962 -0.2641  0.4722 -0.5607
 1122SOL    MW4 4543   2.907   2.861   1.978 -0.0494 -0.1621  0.2575
 1123SOL     OW 4544   2.940   3.095   1.850 -0.2904 -0.0733  0.2442
 1123SOL    HW2 4545   3.020   3.129   1.889  0.8173 -0.4566 -1.6686
 1123SOL    HW3 4546   2.871   3.151   1.885  0.8570  0.6015  1.4756
 1123SOL    MW4 4547   2.941   3.107   1.860  0.0072 -0.0350  0.1543
 1124SOL     OW 4548   2.729   3.244   1.949  0.2926  0.5041  0.3897
 1124SOL    HW2 4549   2.709   3.333   1.920 -0.8231  0.0008 -0.4016
 1124SOL    HW3 4550   2.665   3.189   1.905  1.2016 -0.7461  0.5911
 1124SOL    MW4 4551   2.718   3.249   1.939  0.2651  0.2728  0.3119
 1125SOL     OW 4552   2.684   3.497   1.857  0.4672 -0.0162  0.1773
 1125SOL    HW2 4553   2.763   3.545   1.883  1.3228 -0.7881 -0.9174
 1125SOL    HW3 4554   2.614   3.534   1.910  1.7709 -0.1171  2.0091
 1125SOL    MW4 4555   2.685   3.508   1.867  0.7522 -0.1311  0.2744
 1126SOL     OW 4556   2.897   3.611   2.004  0.2095 -0.0425 -0.1726
 1126SOL    HW2 4557   2.885   3.614   2.099  0.5238  0.4726 -0.1481
 1126SOL    HW3 4558   2.984   3.572   1.992 -0.3518 -1.2944 -0.2866
 1126SOL    MW4 4559   2.907   3.606   2.015  0.1769 -0.1397 -0.1845
 1127SOL     OW 4560   2.868   3.862   1.897 -0.0091  0.5221  0.0619
 1127SOL    HW2 4561   2.882   3.778   1.941 -0.3507  0.4175 -0.0238
 1127SOL    HW3 4562   2.879   3.843   1.804  0.5046  0.6991  0.0865
 1127SOL    MW4 4563   2.871   3.848   1.891  0.0136  0.5317  0.0538
 1128SOL     OW 4564   2.647   4.031   1.989 -0.0705  0.3242  0.1625
 1128SOL    HW2 4565   2.726   3.992   1.952 -0.4588  0.1755 -0.4996
 1128SOL    HW3 4566   2.574   3.990   1.942 -0.5368  0.6875  0.5553
 1128SOL    MW4 4567   2.648   4.020   1.978 -0.1833  0.3524  0.1270
 1129SOL     OW 4568   2.703   4.277   1.898  0.4169 -0.1607  0.3740
 1129SOL    HW2 4569   2.681   4.189   1.928  1.0921 -1.1881 -1.9778
 1129SOL    HW3 4570   2.715   4.268   1.804  0.8799  2.3909  0.1373
 1129SOL    MW4 4571   2.702   4.264   1.890  0.5670  0.0405  0.0324
 1130SOL     OW 4572   2.944   4.408   1.941 -0.1323 -0.3352  0.0753
 1130SOL    HW2 4573   2.950   4.416   2.036 -1.9317  0.2384  0.1636
 1130SOL    HW3 4574   2.873   4.346   1.927 -0.3355  0.1230 -0.9118
 1130SOL    MW4 4575   2.936   4.401   1.952 -0.3965 -0.1988 -0.0433
 1131SOL     OW 4576   3.334   4.639   1.862 -0.2782  0.1373  0.0637
 1131SOL    HW2 4577   3.347   4.548   1.887  1.7526  0.4171  0.1533
 1131SOL    HW3 4578   3.336   4.638   1.766  1.2997  0.2508  0.0704
 1131SOL    MW4 4579   3.336   4.627   1.852  0.1979  0.1898  0.0763
 1132SOL     OW 4580   3.133   0.142   2.009 -0.2145  0.1541 -0.0534
 1132SOL    HW2 4581   3.133   0.149   2.104 -0.7480  1.5316 -0.1499
 1132SOL    HW3 4582   3.205   0.081   1.989 -1.6705 -2.0582  1.3486
 1132SOL    MW4 4583   3.143   0.135   2.019 -0.4771  0.0440  0.1192
 1133SOL     OW 4584   3.159   0.401   1.892  0.1594 -0.3343 -0.5464
 1133SOL    HW2 4585   3.168   0.313   1.929  1.1670  0.3539  0.8885
 1133SOL    HW3 4586   3.150   0.386   1.797  0.8863 -1.9528 -0.3784
 1133SOL    MW4 4587   3.159   0.387   1.884  0.3886 -0.4570 -0.3347
 1134SOL     OW 4588   3.391   0.551   1.960 -0.2879 -0.3018  0.7166
 1134SOL    HW2 4589   3.469   0.503   1.931  0.4323  0.8775  0.6505
 1134SOL    HW3 4590   3.317   0.500   1.927  0.4844 -0.4450 -0.8419
 1134SOL    MW4 4591   3.392   0.538   1.952 -0.0906 -0.1651  0.5021
 1135SOL     OW 4592   3.371   0.803   1.880 -0.3152  0.6334  0.2638
 1135SOL    HW2 4593   3.295   0.843   1.922 -1.0470 -0.1506 -0.3162
 1135SOL    HW3 4594   3.370   0.712   1.910 -0.1179  0.3889 -0.4631
 1135SOL    MW4 4595   3.361   0.796   1.890 -0.3858  0.4977  0.0912
 1136SOL     OW 4596   3.117   0.901   1.981  0.0624 -0.1168 -0.8767
 1136SOL    HW2 4597   3.132   0.903   2.076  0.9204 -0.4605 -0.9990
 1136SOL    HW3 4598   3.103   0.992   1.957  0.7467  0.0752 -0.5585
 1136SOL    MW4 4599   3.117   0.913   1.990  0.2661 -0.1369 -0.8508
 1137SOL     OW 4600   3.122   1.161   1.893  0.2994 -0.1657  0.2412
 1137SOL    HW2 4601   3.200   1.206   1.926  0.1364 -0.1446  0.6064
 1137SOL    HW3 4602   3.051   1.194   1.948  0.2047 -1.0176  0.6375
 1137SOL    MW4 4603   3.123   1.172   1.905  0.2651 -0.2753  0.3418
 1138SOL     OW 4604   3.318   1.295   2.005  0.3661  0.3152  0.0506
 1138SOL    HW2 4605   3.328   1.304   2.100 -1.9115  0.4092  0.3287
 1138SOL    HW3 4606   3.307   1.385   1.974 -2.4924  0.0943  0.2205
 1138SOL    MW4 4607   3.318   1.308   2.013 -0.3114  0.2985  0.1099
 1139SOL     OW 4608   3.360   1.549   1.900  0.0197  0.0301 -0.4394
 1139SOL    HW2 4609   3.440   1.587   1.936 -0.0917 -2.3957  2.5916
 1139SOL    HW3 4610   3.289   1.601   1.937  0.0592  0.1582 -0.5421
 1139SOL    MW4 4611   3.362   1.561   1.909  0.0103 -0.2730 -0.0532
 1140SOL     OW 4612   3.131   1.645   2.032  0.1988  0.2834 -0.1322
 1140SOL    HW2 4613   3.131   1.662   2.126 -0.0721  1.5811 -0.3482
 1140SOL    HW3 4614   3.138   1.732   1.992  2.6198 -0.4084 -1.3031
 1140SOL    MW4 4615   3.132   1.659   2.039  0.4826  0.3633 -0.3150
 1141SOL     OW 4616   3.155   1.885   1.914 -0.0873 -0.0088 -0.0572
 1141SOL    HW2 4617   3.229   1.942   1.936 -0.9050  0.9156  0.3387
 1141SOL    HW3 4618   3.141   1.901   1.820  1.0781 -1.2140 -0.4461
 1141SOL    MW4 4619   3.163   1.895   1.904 -0.0412 -0.0459 -0.0565
 1142SOL     OW 4620   3.350   2.045   2.051  0.1470  0.3269  0.7257
 1142SOL    HW2 4621   3.428   2.001   2.017 -1.0407 -0.5776 -0.8634
 1142SOL    HW3 4622   3.349   2.130   2.009 -0.3682 -0.1257 -0.1950
 1142SOL    MW4 4623   3.360   2.050   2.041 -0.0777  0.1481  0.3943
 1143SOL     OW 4624   3.368   2.280   1.884 -0.1812 -0.2114  0.2560
 1143SOL    HW2 4625   3.312   2.353   1.911 -1.9111 -2.0154  1.6949
 1143SOL    HW3 4626   3.365   2.282   1.788 -0.5466  1.3375  0.2831
 1143SOL    MW4 4627   3.360   2.290   1.875 -0.4578 -0.2451  0.4494
 1144SOL     OW 4628   3.157   2.454   1.973  0.1307 -0.5841 -0.5495
 1144SOL    HW2 4629   3.144   2.457   2.067 -2.1187 -5.2021 -0.5766
 1144SOL    HW3 4630   3.161   2.545   1.946 -0.4878  0.8380  3.8144
 1144SOL    MW4 4631   3.156   2.466   1.982 -0.2475 -1.0059  0.0226
 1145SOL     OW 4632   3.153   2.707   1.877 -0.4524  0.3206 -0.3016
 1145SOL    HW2 4633   3.069   2.744   1.905 -0.1905  0.6875 -0.0060
 1145SOL    HW3 4634   3.147   2.705   1.781 -1.4090 -1.0821 -0.2294
 1145SOL    MW4 4635   3.141   2.711   1.868 -0.5441  0.1841 -0.2531
 1146SOL     OW 4636   3.373   2.841   1.963 -0.8930 -0.2236 -0.4816
 1146SOL    HW2 4637   3.375   2.826   2.058  0.2229 -2.9307 -0.8759
 1146SOL    HW3 4638   3.291   2.798   1.935 -0.8488 -0.0780 -0.8299
 1146SOL    MW4 4639   3.362   2.833   1.972 -0.7401 -0.5617 -0.5794
 1147SOL     OW 4640   3.385   3.118   1.882 -0.4900  0.0637  0.0693
 1147SOL    HW2 4641   3.466   3.164   1.902 -0.4597  0.3807 -0.7505
 1147SOL    HW3 4642   3.398   3.030   1.919 -0.5650  0.7040  1.6561
 1147SOL    MW4 4643   3.398   3.112   1.889 -0.4961  0.1900  0.1706
 1148SOL     OW 4644   3.162   3.242   1.975  0.1883 -0.1104  0.0606
 1148SOL    HW2 4645   3.165   3.335   1.950  0.9495 -0.1850 -0.1443
 1148SOL    HW3 4646   3.244   3.206   1.942  0.4205 -0.6003  1.1715
 1148SOL    MW4 4647   3.173   3.250   1.967  0.3195 -0.1848  0.1802
 1149SOL     OW 4648   3.154   3.514   1.925 -0.6619 -0.3845  0.2118
 1149SOL    HW2 4649   3.230   3.561   1.959 -0.0283 -2.0338  1.1079
 1149SOL    HW3 4650   3.154   3.534   1.831  0.2435  0.4787  0.3835
 1149SOL    MW4 4651   3.164   3.523   1.917 -0.4587 -0.4880  0.3526
 1150SOL     OW 4652   3.382   3.649   2.022 -0.2361 -0.4745 -0.0999
 1150SOL    HW2 4653   3.440   3.580   1.989  1.9267  1.2970 -0.0817
 1150SOL    HW3 4654   3.395   3.722   1.962 -2.3867  0.0010 -0.0185
 1150SOL    MW4 4655   3.391   3.649   2.009 -0.2348 -0.1779 -0.0865
 1151SOL     OW 4656   3.352   3.865   1.833 -0.2470  0.4348  0.3242
 1151SOL    HW2 4657   3.286   3.921   1.874 -2.2791 -1.7316  0.1144
 1151SOL    HW3 4658   3.338   3.877   1.739  0.1134  0.4887  0.2772
 1151SOL    MW4 4659   3.341   3.874   1.826 -0.4675  0.1562  0.2904
 1152SOL     OW 4660   3.115   3.980   1.958 -0.3257 -0.3633  0.0981
 1152SOL    HW2 4661   3.117   3.996   2.052  0.9368  0.4082 -0.0451
 1152SOL    HW3 4662   3.026   3.950   1.941 -0.1872 -1.7914  1.7320
 1152SOL    MW4 4663   3.104   3.978   1.968 -0.1411 -0.4499  0.2948
 1153SOL     OW 4664   3.167   4.242   1.867  0.2632 -0.1047  0.3047
 1153SOL    HW2 4665   3.142   4.154   1.892  0.1796  0.6013  2.8738
 1153SOL    HW3 4666   3.095   4.297   1.897  0.5285  0.8895 -0.8397
 1153SOL    MW4 4667   3.155   4.238   1.874  0.2868  0.1197  0.4926
 1154SOL     OW 4668   3.361   4.395   1.959 -0.1553  0.1490  0.3009
 1154SOL    HW2 4669   3.439   4.348   1.928 -0.7549  0.1613 -1.2937
 1154SOL    HW3 4670   3.288   4.345   1.923 -0.8579  0.8190  0.7996
 1154SOL    MW4 4671   3.362   4.382   1.950 -0.3271  0.2384  0.1563
 1155SOL     OW 4672   3.803   0.009   1.853  0.3430  0.4278 -0.1679
 1155SOL    HW2 4673   3.819  -0.082   1.878  0.6327  0.4259 -0.3585
 1155SOL    HW3 4674   3.719   0.030   1.893  1.2296  0.7150  1.6021
 1155SOL    MW4 4675   3.794  -0.001   1.862  0.4983  0.4654  0.0405
 1156SOL     OW 4676   3.556   0.100   1.935 -0.3562  0.0606  0.2381
 1156SOL    HW2 4677   3.553   0.092   2.030 -1.1270 -1.2894  0.1128
 1156SOL    HW3 4678   3.481   0.049   1.905  0.1932  0.0464 -1.1214
 1156SOL    MW4 4679   3.546   0.092   1.944 -0.3855 -0.1194  0.0423
 1157SOL     OW 4680   3.618   0.370   1.849  0.3382  0.1908  0.2690
 1157SOL    HW2 4681   3.591   0.283   1.876  0.6169 -0.3696 -1.2553
 1157SOL    HW3 4682   3.626   0.365   1.754 -1.3476  2.3411 -0.0301
 1157SOL    MW4 4683   3.615   0.358   1.840  0.1523  0.4006  0.0283
 1158SOL     OW 4684   3.827   0.492   1.993  0.1375 -0.0636 -0.1539
 1158SOL    HW2 4685   3.826   0.580   1.955 -0.3265  0.7558  1.6954
 1158SOL    HW3 4686   3.749   0.450   1.958  0.8690 -0.1027 -1.8143
 1158SOL    MW4 4687   3.817   0.498   1.983  0.1726  0.0393 -0.1291
 1159SOL     OW 4688   3.819   0.761   1.862  0.2756 -0.3826 -0.5086
 1159SOL    HW2 4689   3.741   0.807   1.894  1.7356  0.4307  2.0015
 1159SOL    HW3 4690   3.816   0.772   1.767 -1.8992  0.8579 -0.3251
 1159SOL    MW4 4691   3.808   0.768   1.854  0.1812 -0.1116 -0.1533
 1160SOL     OW 4692   3.601   0.926   1.974  0.0417 -0.2326 -0.1678
 1160SOL    HW2 4693   3.587   1.019   1.956 -0.4818 -0.4599 -0.9591
 1160SOL    HW3 4694   3.521   0.883   1.946  0.4225 -0.9733 -0.1568
 1160SOL    MW4 4695   3.589   0.932   1.968  0.0226 -0.3603 -0.2708
 1161SOL     OW 4696   3.578   1.194   1.928  0.1434  0.1719  0.0646
 1161SOL    HW2 4697   3.496   1.231   1.961 -0.3060  0.2077 -1.0797
 1161SOL    HW3 4698   3.572   1.203   1.833  0.6706 -1.4963 -0.1500
 1161SOL    MW4 4699   3.566   1.200   1.920  0.1535 -0.0434 -0.1147
 1162SOL     OW 4700   3.816   1.275   2.059 -0.4935 -0.4787  0.6310
 1162SOL    HW2 4701   3.815   1.262   2.154  0.2590 -0.8041  0.6008
 1162SOL    HW3 4702   3.742   1.224   2.027 -0.6218 -0.5422  1.0263
 1162SOL    MW4 4703   3.806   1.266   2.067 -0.4110 -0.5301  0.6793
 1163SOL     OW 4704   3.794   1.537   1.959 -0.1671 -0.1191 -0.2858
 1163SOL    HW2 4705   3.879   1.569   1.989  1.0539 -1.0945 -2.5582
 1163SOL    HW3 4706   3.793   1.445   1.985 -0.5946 -0.0586 -0.0929
 1163SOL    MW4 4707   3.805   1.529   1.966 -0.0622 -0.2398 -0.5603
 1164SOL     OW 4708   3.587   1.696   2.054  0.0589 -0.3844 -0.1453
 1164SOL    HW2 4709   3.599   1.783   2.016 -0.5366 -0.2944 -0.1433
 1164SOL    HW3 4710   3.662   1.646   2.024  0.4611  0.1607 -0.0651
 1164SOL    MW4 4711   3.598   1.701   2.045  0.0334 -0.3008 -0.1345
 1165SOL     OW 4712   3.587   1.937   1.936  0.2200 -0.0382 -0.3424
 1165SOL    HW2 4713   3.656   1.989   1.976 -1.5322  1.4224  0.8668
 1165SOL    HW3 4714   3.579   1.971   1.847  1.2417 -0.4064 -0.5762
 1165SOL    MW4 4715   3.595   1.948   1.930  0.1240  0.1060 -0.2137
 1166SOL     OW 4716   3.827   2.069   2.018  0.6826 -0.0898  0.5277
 1166SOL    HW2 4717   3.897   2.029   1.966  0.2276 -1.0306  0.6306
 1166SOL    HW3 4718   3.821   2.158   1.985  0.5821 -0.5962 -0.8407
 1166SOL    MW4 4719   3.836   2.075   2.007  0.6094 -0.2809  0.3607
 1167SOL     OW 4720   3.803   2.309   1.878 -0.4345  0.3555 -0.1967
 1167SOL    HW2 4721   3.879   2.358   1.909 -0.5169 -0.1423  0.7819
 1167SOL    HW3 4722   3.730   2.340   1.931 -0.9889  1.0285 -1.3127
 1167SOL    MW4 4723   3.803   2.320   1.889 -0.5186  0.3784 -0.2148
 1168SOL     OW 4724   3.586   2.414   2.045 -0.1349  0.0189 -0.5636
 1168SOL    HW2 4725   3.581   2.500   2.005 -0.5707 -0.3861 -1.4034
 1168SOL    HW3 4726   3.526   2.360   1.993 -0.3773 -0.6281  0.3606
 1168SOL    MW4 4727   3.577   2.418   2.033 -0.2246 -0.1197 -0.5522
 1169SOL     OW 4728   3.564   2.660   1.907  0.0406  0.1313  0.0155
 1169SOL    HW2 4729   3.651   2.700   1.903  0.0659  0.1919  0.9774
 1169SOL    HW3 4730   3.505   2.733   1.929  0.0043 -0.2330  1.1773
 1169SOL    MW4 4731   3.567   2.675   1.909  0.0393  0.0916  0.2956
 1170SOL     OW 4732   3.820   2.820   1.961 -0.1459 -0.0079 -0.3505
 1170SOL    HW2 4733   3.807   2.844   2.052 -2.2395  0.0487 -0.6294
 1170SOL    HW3 4734   3.835   2.903   1.916  2.2118 -0.1571  0.1265
 1170SOL    MW4 4735   3.820   2.834   1.967 -0.1111 -0.0203 -0.3245
 1171SOL     OW 4736   3.826   3.086   1.855 -0.1718 -0.2224 -0.3476
 1171SOL    HW2 4737   3.759   3.142   1.893 -0.8146  0.0366 -1.8453
 1171SOL    HW3 4738   3.812   3.091   1.761  0.0391 -2.5422 -0.5421
 1171SOL    MW4 4739   3.816   3.094   1.848 -0.2289 -0.4940 -0.5709
 1172SOL     OW 4740   3.605   3.235   1.973 -0.7571 -0.1773  0.0654
 1172SOL    HW2 4741   3.590   3.227   2.067 -1.2043  0.9572  0.0958
 1172SOL    HW3 4742   3.605   3.330   1.957  0.6487 -0.3252 -0.8539
 1172SOL    MW4 4743   3.603   3.247   1.984 -0.6306 -0.0470 -0.0519
 1173SOL     OW 4744   3.569   3.498   1.862  0.0294  0.1089 -0.0633
 1173SOL    HW2 4745   3.655   3.531   1.888  0.8328 -1.0722 -1.1804
 1173SOL    HW3 4746   3.568   3.506   1.766 -0.9922 -0.1690 -0.0889
 1173SOL    MW4 4747   3.580   3.504   1.853  0.0002 -0.0837 -0.2141
 1174SOL     OW 4748   3.799   3.596   1.984 -0.4441  0.0748 -0.1589
 1174SOL    HW2 4749   3.880   3.551   1.958 -1.2712 -0.7697 -1.3570
 1174SOL    HW3 4750   3.809   3.685   1.951  1.7992  1.2542  3.4089
 1174SOL    MW4 4751   3.811   3.602   1.976 -0.2573  0.1192  0.1537
 1175SOL     OW 4752   3.802   3.872   1.867 -0.1978  0.0531 -0.2614
 1175SOL    HW2 4753   3.716   3.908   1.887  0.4837  1.3652  0.3882
 1175SOL    HW3 4754   3.804   3.867   1.771 -1.5357 -1.3951 -0.2328
 1175SOL    MW4 4755   3.791   3.876   1.857 -0.2844  0.0353 -0.1719
 1176SOL     OW 4756   3.568   4.018   1.948  0.1774  0.6287  0.7814
 1176SOL    HW2 4757   3.566   4.008   2.043  0.7292 -1.5336  0.5818
 1176SOL    HW3 4758   3.484   3.981   1.919  0.9518 -0.7812  0.2726
 1176SOL    MW4 4759   3.556   4.012   1.957  0.3524  0.1569  0.6880
 1177SOL     OW 4760   3.594   4.285   1.873  0.0727 -0.0537  0.0670
 1177SOL    HW2 4761   3.673   4.326   1.907  0.9569 -2.1830  0.6975
 1177SOL    HW3 4762   3.597   4.195   1.907 -1.7936 -0.6431 -1.2112
 1177SOL    MW4 4763   3.604   4.278   1.882 -0.0570 -0.4125 -0.0184
 1178SOL     OW 4764   3.831   4.418   1.956  0.1768 -0.7133  0.7255
 1178SOL    HW2 4765   3.846   4.411   2.050  0.2626 -2.3854  0.6028
 1178SOL    HW3 4766   3.896   4.361   1.917 -0.2607 -0.5107 -0.3251
 1178SOL    MW4 4767   3.841   4.410   1.963  0.1304 -0.9069  0.5707
 1179SOL     OW 4768   4.262   4.630   1.883  0.0680 -0.4514  0.6555
 1179SOL    HW2 4769   4.194   4.679   1.929  1.2156  0.9489  0.8913
 1179SOL    HW3 4770   4.343   4.679   1.900  1.3220 -2.6710  1.2639
 1179SOL    MW4 4771   4.264   4.643   1.891  0.3853 -0.5593  0.7670
 1180SOL     OW 4772   4.029   0.104   1.989 -0.4897 -0.3599  0.1638
 1180SOL    HW2 4773   4.003   0.129   2.078 -0.8402  0.4697 -0.1669
 1180SOL    HW3 4774   3.947   0.076   1.948 -0.4001 -0.3302 -0.0321
 1180SOL    MW4 4775   4.014   0.104   1.995 -0.5236 -0.2465  0.0942
 1181SOL     OW 4776   4.030   0.352   1.888 -0.4527  0.1111  0.3307
 1181SOL    HW2 4777   4.042   0.267   1.930 -1.2769 -1.3689 -2.3053
 1181SOL    HW3 4778   3.957   0.392   1.935  0.5068 -0.2437  2.1522
 1181SOL    MW4 4779   4.022   0.346   1.899 -0.4349 -0.1310  0.2232
 1182SOL     OW 4780   4.267   0.465   1.987 -0.2442 -0.2874  0.0810
 1182SOL    HW2 4781   4.256   0.472   2.082 -0.5345  0.6332 -0.0223
 1182SOL    HW3 4782   4.179   0.443   1.955 -0.1637 -0.5139  0.0132
 1182SOL    MW4 4783   4.254   0.463   1.996 -0.2713 -0.1958  0.0583
 1183SOL     OW 4784   4.280   0.745   1.911 -0.2191  0.3102 -0.2655
 1183SOL    HW2 4785   4.272   0.652   1.931  2.0768  0.0934 -0.2188
 1183SOL    HW3 4786   4.262   0.751   1.817  0.6378 -0.3367 -0.4800
 1183SOL    MW4 4787   4.277   0.733   1.901  0.1965  0.1963 -0.2878
 1184SOL     OW 4788   4.043   0.905   1.954  0.6642  0.2583  0.1438
 1184SOL    HW2 4789   4.114   0.841   1.964 -0.4057 -0.8974  0.3449
 1184SOL    HW3 4790   3.971   0.855   1.916  0.2321  1.6217 -0.8457
 1184SOL    MW4 4791   4.043   0.890   1.950  0.4663  0.2857  0.0397
 1185SOL     OW 4792   4.042   1.189   1.895  0.3366 -0.2593  0.5568
 1185SOL    HW2 4793   4.027   1.095   1.906 -0.0001 -0.1301  1.2125
 1185SOL    HW3 4794   3.970   1.230   1.943  0.3823  0.3306  0.1161
 1185SOL    MW4 4795   4.030   1.182   1.903  0.2985 -0.1644  0.5852
 1186SOL     OW 4796   4.291   1.270   2.025  0.3833 -0.5700 -0.2678
 1186SOL    HW2 4797   4.273   1.276   2.119  0.9246 -0.8456 -0.1445
 1186SOL    HW3 4798   4.217   1.221   1.989  0.5139 -1.0523  0.1146
 1186SOL    MW4 4799   4.279   1.265   2.033  0.4716 -0.6701 -0.2012
 1187SOL     OW 4800   4.252   1.527   1.899  0.1819 -0.3814  0.1509
 1187SOL    HW2 4801   4.258   1.435   1.927 -0.6651 -0.8449 -1.1103
 1187SOL    HW3 4802   4.276   1.525   1.807  1.3564  0.8666  0.4244
 1187SOL    MW4 4803   4.256   1.514   1.891  0.2251 -0.2778  0.0207
 1188SOL     OW 4804   4.037   1.663   2.021 -0.2932  0.4545 -0.7038
 1188SOL    HW2 4805   4.051   1.651   2.115 -1.5757  1.0491 -0.4234
 1188SOL    HW3 4806   4.112   1.621   1.980 -0.7860 -1.7044  0.5124
 1188SOL    MW4 4807   4.049   1.656   2.028 -0.5274  0.2480 -0.5062
 1189SOL     OW 4808   4.032   1.932   1.911 -0.1679  0.3413  0.0811
 1189SOL    HW2 4809   4.019   1.839   1.929 -1.7700  0.6897  0.8284
 1189SOL    HW3 4810   4.048   1.936   1.817 -2.1163 -0.5142 -0.3147
 1189SOL    MW4 4811   4.033   1.920   1.901 -0.6361  0.2744  0.1274
 1190SOL     OW 4812   4.259   2.037   2.037  0.2761  0.0089 -0.1212
 1190SOL    HW2 4813   4.273   2.021   2.130 -0.6461 -1.3278 -0.1941
 1190SOL    HW3 4814   4.173   1.999   2.019 -0.8603  2.8491 -0.8898
 1190SOL    MW4 4815   4.249   2.030   2.047  0.0048  0.2074 -0.2322
 1191SOL     OW 4816   4.276   2.287   1.906  0.3525  0.4000 -0.3440
 1191SOL    HW2 4817   4.264   2.206   1.955  0.3339 -0.4036 -1.6666
 1191SOL    HW3 4818   4.340   2.337   1.958  0.3269 -0.4236  0.4999
 1191SOL    MW4 4819   4.283   2.283   1.920  0.3471  0.1853 -0.4072
 1192SOL     OW 4820   4.045   2.428   1.982 -0.3978 -0.2362 -0.4132
 1192SOL    HW2 4821   4.054   2.425   2.078 -0.6593  0.3302 -0.3708
 1192SOL    HW3 4822   4.129   2.395   1.950 -0.6483 -1.3011  0.0154
 1192SOL    MW4 4823   4.058   2.423   1.991 -0.4654 -0.3023 -0.3511
 1193SOL     OW 4824   4.042   2.687   1.870 -0.2438  0.2163  0.0812
 1193SOL    HW2 4825   4.054   2.596   1.895 -0.4455  0.0219 -0.5172
 1193SOL    HW3 4826   3.970   2.719   1.924 -1.1074 -0.3823 -0.7041
 1193SOL    MW4 4827   4.034   2.679   1.880 -0.3843  0.1116 -0.1014
 1194SOL     OW 4828   4.264   2.816   2.013 -0.2179 -0.5622 -0.2838
 1194SOL    HW2 4829   4.245   2.812   2.107  1.5436 -0.2655  0.0984
 1194SOL    HW3 4830   4.192   2.767   1.973 -0.8079 -1.0007  1.2438
 1194SOL    MW4 4831   4.252   2.809   2.021 -0.0634 -0.5810 -0.0319
 1195SOL     OW 4832   4.284   3.072   1.886 -0.1485 -0.3167 -0.2376
 1195SOL    HW2 4833   4.202   3.120   1.903  0.7110  0.5276  1.7360
 1195SOL    HW3 4834   4.271   2.988   1.929 -0.1496 -0.3558 -0.3148
 1195SOL    MW4 4835   4.271   3.067   1.894 -0.0353 -0.2105  0.0128
 1196SOL     OW 4836   4.035   3.243   1.959  0.3729 -0.1345  0.4806
 1196SOL    HW2 4837   4.008   3.254   2.050  0.9373 -0.5558  0.7084
 1196SOL    HW3 4838   3.962   3.199   1.917 -0.4699  1.3256  0.3856
 1196SOL    MW4 4839   4.022   3.239   1.965  0.3357  0.0026  0.4981
 1197SOL     OW 4840   4.036   3.500   1.877 -0.2075 -0.7417  0.0439
 1197SOL    HW2 4841   4.098   3.552   1.927 -0.2357 -0.8667  0.2083
 1197SOL    HW3 4842   4.044   3.412   1.913  0.3907 -1.0146 -0.7398
 1197SOL    MW4 4843   4.045   3.495   1.888 -0.1326 -0.7942 -0.0378
 1198SOL     OW 4844   4.235   3.623   2.020 -0.6222  0.1314  0.0057
 1198SOL    HW2 4845   4.240   3.712   1.983 -1.1545  0.5485  0.9314
 1198SOL    HW3 4846   4.321   3.585   2.000  0.2200  1.4369  1.0717
 1198SOL    MW4 4847   4.247   3.630   2.012 -0.5813  0.3581  0.2685
 1199SOL     OW 4848   4.246   3.882   1.913 -0.0800  0.1369  0.3396
 1199SOL    HW2 4849   4.309   3.938   1.958 -0.3139  0.8297 -0.1984
 1199SOL    HW3 4850   4.270   3.888   1.820 -0.1885 -0.5451  0.2645
 1199SOL    MW4 4851   4.258   3.890   1.907 -0.1249  0.1383  0.2587
 1200SOL     OW 4852   4.021   3.993   1.989  0.0260  0.1429  0.2485
 1200SOL    HW2 4853   4.100   3.950   1.957 -1.3369 -0.3532 -2.5629
 1200SOL    HW3 4854   3.949   3.941   1.954 -1.5756  0.8086  2.4519
 1200SOL    MW4 4855   4.022   3.981   1.980 -0.3653  0.1655  0.1682
 1201SOL     OW 4856   4.033   4.251   1.873  0.1920 -0.3749  0.3066
 1201SOL    HW2 4857   4.102   4.299   1.919  0.1063 -2.0448  2.2376
 1201SOL    HW3 4858   4.032   4.165   1.914 -2.3968 -0.6959 -0.3322
 1201SOL    MW4 4859   4.042   4.246   1.885 -0.1607 -0.6371  0.4771
 1202SOL     OW 4860   4.248   4.378   2.005 -0.8703 -0.6116  0.2713
 1202SOL    HW2 4861   4.241   4.381   2.101  1.7065  0.1200  0.4714
 1202SOL    HW3 4862   4.242   4.469   1.977  0.7644 -0.6097 -0.0718
 1202SOL    MW4 4863   4.246   4.391   2.014 -0.3138 -0.5150  0.2525
 1203SOL     OW 4864   0.199   0.034   2.366 -0.2666 -0.2422  0.3735
 1203SOL    HW2 4865   0.201   0.029   2.462 -0.2296 -0.8438  0.3482
 1203SOL    HW3 4866   0.270   0.094   2.343 -0.3552 -0.0046  0.7338
 1203SOL    MW4 4867   0.209   0.041   2.376 -0.2734 -0.2902  0.4177
 1204SOL     OW 4868   4.466   0.143   2.230  0.2850 -0.5794 -0.1214
 1204SOL    HW2 4869   4.542   0.090   2.252  0.3671 -0.8999 -1.1358
 1204SOL    HW3 4870   4.470   0.152   2.134  0.4298  1.4609  0.0392
 1204SOL    MW4 4871   4.476   0.137   2.220  0.3147 -0.3525 -0.2339
 1205SOL     OW 4872   4.463   0.401   2.355 -0.1951 -0.2074 -0.2453
 1205SOL    HW2 4873   4.533   0.452   2.313  1.0804 -1.7679 -0.0452
 1205SOL    HW3 4874   4.471   0.313   2.317 -0.7248 -0.9441  1.3319
 1205SOL    MW4 4875   4.473   0.396   2.344 -0.0967 -0.5105 -0.0105
 1206SOL     OW 4876   0.200   0.540   2.239  0.1204 -0.0398 -0.1863
 1206SOL    HW2 4877   0.280   0.500   2.273  0.9159  0.7794 -1.0470
 1206SOL    HW3 4878   0.198   0.514   2.147 -0.0967  0.7261 -0.4001
 1206SOL    MW4 4879   0.211   0.532   2.231  0.1968  0.1693 -0.3283
 1207SOL     OW 4880   0.235   0.798   2.330 -0.4271  0.0898 -0.0199
 1207SOL    HW2 4881   0.235   0.787   2.425 -1.4863  1.8121  0.1908
 1207SOL    HW3 4882   0.225   0.709   2.296  1.1462 -0.6761  1.4426
 1207SOL    MW4 4883   0.234   0.785   2.338 -0.3593  0.2160  0.2010
 1208SOL     OW 4884   4.478   0.878   2.273 -0.0028 -0.3375 -0.7925
 1208SOL    HW2 4885   4.566   0.850   2.296  0.5049  0.1708 -2.0871
 1208SOL    HW3 4886   4.474   0.871   2.178 -0.8512  1.0858 -0.8831
 1208SOL    MW4 4887   4.489   0.874   2.263 -0.0477 -0.0827 -0.9754
 1209SOL     OW 4888   0.002   1.150   2.367  0.0865 -0.2067 -0.0261
 1209SOL    HW2 4889  -0.010   1.152   2.462 -1.2739  0.6226 -0.2002
 1209SOL    HW3 4890  -0.006   1.057   2.344  1.0940 -0.5004  0.7334
 1209SOL    MW4 4891  -0.000   1.138   2.377  0.0400 -0.1361  0.0513
 1210SOL     OW 4892   0.268   1.230   2.245 -0.3428  0.0189  0.2488
 1210SOL    HW2 4893   0.190   1.187   2.279 -0.6416  0.0215 -0.4272
 1210SOL    HW3 4894   0.255   1.231   2.150  0.8707 -0.7377  0.0715
 1210SOL    MW4 4895   0.256   1.224   2.237 -0.2221 -0.0806  0.1361
 1211SOL     OW 4896   0.269   1.499   2.374 -0.1217  0.4335  0.2793
 1211SOL    HW2 4897   0.231   1.495   2.462  1.1105 -0.0632  0.7908
 1211SOL    HW3 4898   0.262   1.409   2.341  0.2934  0.4207  0.2308
 1211SOL    MW4 4899   0.263   1.487   2.381  0.0957  0.3663  0.3407
 1212SOL     OW 4900   0.046   1.612   2.262  0.1129  0.1269  0.3057
 1212SOL    HW2 4901   0.043   1.699   2.302 -0.7058  0.2237  0.0504
 1212SOL    HW3 4902   0.126   1.573   2.295 -0.9592 -0.1144  2.7426
 1212SOL    MW4 4903   0.056   1.619   2.271 -0.1366  0.1079  0.5937
 1213SOL     OW 4904   0.044   1.878   2.405  0.2087 -0.1954  0.3400
 1213SOL    HW2 4905  -0.031   1.938   2.394 -0.9932 -2.1007 -2.6371
 1213SOL    HW3 4906   0.119   1.929   2.375 -0.7394 -0.0076 -1.8313
 1213SOL    MW4 4907   0.044   1.893   2.399 -0.0750 -0.4219 -0.3390
 1214SOL     OW 4908   0.225   2.058   2.317 -0.0464  0.2307 -0.1991
 1214SOL    HW2 4909   0.308   2.010   2.328  0.7959  2.0397  1.4580
 1214SOL    HW3 4910   0.208   2.054   2.223  0.7846 -2.0229 -0.2865
 1214SOL    MW4 4911   0.234   2.051   2.306  0.1744  0.1721  0.0083
 1215SOL     OW 4912   0.185   2.311   2.402 -0.0568 -0.2942  0.0588
 1215SOL    HW2 4913   0.185   2.306   2.497 -1.8717 -0.3736  0.0736
 1215SOL    HW3 4914   0.198   2.221   2.373 -0.0288 -0.3503  0.2446
 1215SOL    MW4 4915   0.187   2.298   2.411 -0.2926 -0.3121  0.0854
 1216SOL     OW 4916   4.468   2.472   2.282 -0.2138 -0.2531  0.1165
 1216SOL    HW2 4917   4.475   2.544   2.345 -0.0893 -1.8477  1.9768
 1216SOL    HW3 4918   4.546   2.419   2.299 -0.7873 -1.3284 -0.5830
 1216SOL    MW4 4919   4.480   2.475   2.293 -0.2731 -0.6053  0.2697
 1217SOL     OW 4920   4.467   2.717   2.405 -0.1658 -0.0422  0.2280
 1217SOL    HW2 4921   4.490   2.681   2.491 -0.5010 -0.5911  0.0907
 1217SOL    HW3 4922   4.551   2.745   2.368  0.1069 -0.7541  0.3031
 1217SOL    MW4 4923   4.481   2.716   2.412 -0.1740 -0.2086  0.2198
 1218SOL     OW 4924   0.218   2.814   2.283  0.1012  0.6930  0.2416
 1218SOL    HW2 4925   0.300   2.767   2.298 -0.1976  0.2292  0.4401
 1218SOL    HW3 4926   0.210   2.818   2.188 -0.1190 -0.0992  0.2234
 1218SOL    MW4 4927   0.228   2.808   2.273  0.0327  0.5271  0.2654
 1219SOL     OW 4928   0.211   3.079   2.367  0.1792 -0.1029  0.6177
 1219SOL    HW2 4929   0.132   3.116   2.327  1.2025  1.5677  0.0956
 1219SOL    HW3 4930   0.214   2.989   2.335 -1.2944 -0.0715  0.3324
 1219SOL    MW4 4931   0.201   3.072   2.357  0.1198  0.1218  0.5114
 1220SOL     OW 4932   4.464   3.196   2.259 -0.2777 -0.3001 -0.4828
 1220SOL    HW2 4933   4.479   3.283   2.297 -0.5314 -0.2026 -0.6088
 1220SOL    HW3 4934   4.482   3.207   2.166  0.7116 -0.6268 -0.3368
 1220SOL    MW4 4935   4.469   3.209   2.252 -0.1812 -0.3304 -0.4802
 1221SOL     OW 4936   4.473   3.447   2.359  0.0930  0.1773 -0.4214
 1221SOL    HW2 4937   4.474   3.434   2.454 -0.8693  0.4571 -0.3722
 1221SOL    HW3 4938   4.398   3.504   2.343 -0.4628 -0.8324 -1.4767
 1221SOL    MW4 4939   4.463   3.453   2.369 -0.1073  0.0813 -0.5543
 1222SOL     OW 4940   0.164   3.608   2.257  0.1855  0.0248 -0.0327
 1222SOL    HW2 4941   0.251   3.576   2.282 -0.3381 -0.2565  1.4426
 1222SOL    HW3 4942   0.104   3.542   2.291 -0.6702  0.6963 -0.2419
 1222SOL    MW4 4943   0.168   3.595   2.265  0.0035  0.0763  0.1347
 1223SOL     OW 4944   0.207   3.878   2.383  0.2879  0.1869 -0.1690
 1223SOL    HW2 4945   0.124   3.919   2.360  0.1035  0.0005  0.1515
 1223SOL    HW3 4946   0.193   3.784   2.369  0.3441  0.1244  0.1666
 1223SOL    MW4 4947   0.194   3.871   2.378  0.2710  0.1538 -0.0825
 1224SOL     OW 4948   4.476   4.016   2.330  0.2814  0.0615  0.0194
 1224SOL    HW2 4949   4.461   4.108   2.350  0.6166  0.0687  0.2473
 1224SOL    HW3 4950   4.446   4.005   2.240  0.4929  0.4546 -0.0972
 1224SOL    MW4 4951   4.470   4.027   2.321  0.3529  0.1144  0.0343
 1225SOL     OW 4952   0.010   4.298   2.371 -0.3113 -0.0033 -0.1146
 1225SOL    HW2 4953   0.001   4.302   2.466 -1.8595 -0.6015 -0.2253
 1225SOL    HW3 4954   0.095   4.337   2.353 -0.1633  0.4211  1.4909
 1225SOL    MW4 4955   0.020   4.303   2.381 -0.4961 -0.0267  0.0825
 1226SOL     OW 4956   0.241   4.443   2.271 -0.0817  0.3905 -0.7670
 1226SOL    HW2 4957   0.328   4.412   2.295  0.0232  0.0310 -1.5918
 1226SOL    HW3 4958   0.236   4.531   2.307 -0.1293 -0.3221  1.0042
 1226SOL    MW4 4959   0.252   4.450   2.279 -0.0741  0.2484 -0.6423
 1227SOL     OW 4960   0.623   0.006   2.399  0.5361  0.1126  0.2986
 1227SOL    HW2 4961   0.649   0.007   2.491  1.8317 -0.8504 -0.0465
 1227SOL    HW3 4962   0.698   0.045   2.353  0.2396 -0.1768 -0.4355
 1227SOL    MW4 4963   0.636   0.012   2.405  0.6680 -0.0527  0.1562
 1228SOL     OW 4964   0.431   0.178   2.283  0.3748  0.4831  0.5602
 1228SOL    HW2 4965   0.489   0.109   2.315  1.1031  1.0983  0.6049
 1228SOL    HW3 4966   0.440   0.175   2.188 -0.1421  0.0478  0.5277
 1228SOL    MW4 4967   0.440   0.169   2.275  0.4027  0.5069  0.5617
 1229SOL     OW 4968   0.489   0.446   2.342 -0.0147  0.2606 -0.0754
 1229SOL    HW2 4969   0.456   0.438   2.432 -0.5125 -0.3699 -0.3118
 1229SOL    HW3 4970   0.497   0.355   2.312  0.4402  0.4631 -0.5678
 1229SOL    MW4 4971   0.486   0.433   2.350 -0.0204  0.2041 -0.1719
 1230SOL     OW 4972   0.707   0.564   2.224  0.1703  0.2990 -0.1410
 1230SOL    HW2 4973   0.737   0.638   2.277  0.1854 -0.4556  0.9327
 1230SOL    HW3 4974   0.618   0.547   2.254  0.3184 -0.3857 -0.0661
 1230SOL    MW4 4975   0.699   0.571   2.235  0.1919  0.1091  0.0103
 1231SOL     OW 4976   0.719   0.825   2.336 -0.2079  0.3259 -0.2930
 1231SOL    HW2 4977   0.705   0.825   2.431 -1.4784  2.9267 -0.4414
 1231SOL    HW3 4978   0.636   0.856   2.300  0.6964  0.5860 -2.1876
 1231SOL    MW4 4979   0.706   0.829   2.344 -0.2562  0.7033 -0.5627
 1232SOL     OW 4980   0.477   0.904   2.242 -0.3540 -0.2415 -0.3465
 1232SOL    HW2 4981   0.397   0.868   2.282 -0.4034  0.3995  0.1324
 1232SOL    HW3 4982   0.458   0.905   2.148 -1.2090  0.6343 -0.1740
 1232SOL    MW4 4983   0.464   0.899   2.235 -0.4734 -0.0414 -0.2606
 1233SOL     OW 4984   0.479   1.127   2.417  0.2716 -0.0934 -0.0414
 1233SOL    HW2 4985   0.482   1.043   2.371 -2.1510 -0.4054  0.3302
 1233SOL    HW3 4986   0.413   1.178   2.371 -0.5375  0.4389  1.6553
 1233SOL    MW4 4987   0.471   1.123   2.405 -0.1548 -0.0644  0.2315
 1234SOL     OW 4988   0.700   1.241   2.262  0.1955  0.1970  0.2266
 1234SOL    HW2 4989   0.703   1.329   2.300 -0.9458  0.6976 -0.8052
 1234SOL    HW3 4990   0.623   1.200   2.302 -0.0243  0.1294 -0.2598
 1234SOL    MW4 4991   0.690   1.247   2.272  0.0159  0.2540  0.0260
 1235SOL     OW 4992   0.704   1.514   2.390 -0.2001  0.1315 -0.1388
 1235SOL    HW2 4993   0.698   1.528   2.485  0.6225  0.1263 -0.0783
 1235SOL    HW3 4994   0.770   1.577   2.361 -0.9586  0.6164 -0.8242
 1235SOL    MW4 4995   0.712   1.524   2.399 -0.1917  0.1950 -0.2217
 1236SOL     OW 4996   0.491   1.638   2.272  0.8381  0.0020 -0.6255
 1236SOL    HW2 4997   0.564   1.597   2.318 -0.1610 -0.5736  0.4554
 1236SOL    HW3 4998   0.413   1.604   2.315 -0.0768  0.5334 -1.8454
 1236SOL    MW4 4999   0.490   1.628   2.284  0.5856 -0.0038 -0.6437
 1237SOL     OW 5000   0.438   1.918   2.382  0.2367  0.1722 -0.5780
 1237SOL    HW2 5001   0.510   1.972   2.350  0.7230  0.2317  0.5565
 1237SOL    HW3 5002   0.445   1.837   2.332 -0.0153  0.8690 -1.7396
 1237SOL    MW4 5003   0.449   1.915   2.371  0.2677  0.2719 -0.5817
 1238SOL     OW 5004   0.644   2.055   2.254  0.3258 -0.1218  0.0860
 1238SOL    HW2 5005   0.706   1.998   2.300 -0.6520 -0.4404  1.0163
 1238SOL    HW3 5006   0.655   2.140   2.296  0.8712  0.0720 -0.4460
 1238SOL    MW4 5007   0.654   2.058   2.266  0.2688 -0.1383  0.1385
 1239SOL     OW 5008   0.645   2.307   2.374  0.3728  0.4788 -0.2373
 1239SOL    HW2 5009   0.654   2.312   2.469 -0.5832  1.5875 -0.1929
 1239SOL    HW3 5010   0.721   2.354   2.340  0.7033  0.1009 -0.0321
 1239SOL    MW4 5011   0.656   2.314   2.382  0.2902  0.5753 -0.2046
 1240SOL     OW 5012   0.421   2.415   2.267 -0.3451  0.1879 -0.0573
 1240SOL    HW2 5013   0.500   2.368   2.293  0.1599  0.9270 -0.2449
 1240SOL    HW3 5014   0.353   2.383   2.327  0.0354 -0.6306 -0.0592
 1240SOL    MW4 5015   0.422   2.404   2.279 -0.2283  0.1774 -0.0820
 1241SOL     OW 5016   0.455   2.692   2.342 -0.2288 -0.0933  0.5427
 1241SOL    HW2 5017   0.462   2.676   2.436  0.5633 -3.1478  0.0422
 1241SOL    HW3 5018   0.437   2.606   2.304 -2.7695  1.4409 -1.9306
 1241SOL    MW4 5019   0.454   2.678   2.349 -0.4595 -0.2940  0.1502
 1242SOL     OW 5020   0.678   2.846   2.254 -0.2947 -0.4843 -0.3529
 1242SOL    HW2 5021   0.747   2.793   2.293 -1.5827 -1.8706  0.1026
 1242SOL    HW3 5022   0.597   2.816   2.296 -1.0655  1.8808 -0.0478
 1242SOL    MW4 5023   0.676   2.835   2.264 -0.5663 -0.3552 -0.2525
 1243SOL     OW 5024   0.686   3.113   2.352  0.0295 -0.0069  0.6291
 1243SOL    HW2 5025   0.603   3.156   2.331  0.4173  0.0976 -0.7114
 1243SOL    HW3 5026   0.671   3.020   2.333  0.4201  0.1055 -0.2446
 1243SOL    MW4 5027   0.673   3.106   2.347  0.1321  0.0219  0.3369
 1244SOL     OW 5028   0.436   3.219   2.296  0.2552 -0.2602 -0.0183
 1244SOL    HW2 5029   0.351   3.186   2.325 -0.4886  1.2075 -0.4970
 1244SOL    HW3 5030   0.435   3.208   2.201  1.5046 -2.2895  0.1703
 1244SOL    MW4 5031   0.425   3.213   2.288  0.3219 -0.3343 -0.0567
 1245SOL     OW 5032   0.415   3.508   2.368  0.3381  0.2025 -0.2147
 1245SOL    HW2 5033   0.503   3.546   2.360 -0.0920  1.2630  0.0018
 1245SOL    HW3 5034   0.425   3.418   2.336  1.2670  0.6346 -1.1665
 1245SOL    MW4 5035   0.428   3.501   2.363  0.4039  0.3994 -0.3119
 1246SOL     OW 5036   0.652   3.610   2.297  0.4581 -0.2008  0.1886
 1246SOL    HW2 5037   0.662   3.703   2.316 -0.4784  0.0008 -0.2675
 1246SOL    HW3 5038   0.654   3.604   2.201 -1.6215 -0.3778  0.1360
 1246SOL    MW4 5039   0.654   3.621   2.287  0.0602 -0.1974  0.1216
 1247SOL     OW 5040   0.649   3.890   2.345  0.1776 -0.2493 -0.3458
 1247SOL    HW2 5041   0.640   3.876   2.439  1.2552 -0.2506 -0.2376
 1247SOL    HW3 5042   0.572   3.942   2.321  0.4977  0.7429  0.7445
 1247SOL    MW4 5043   0.637   3.895   2.354  0.3620 -0.1185 -0.1876
 1248SOL     OW 5044   0.407   4.041   2.278 -0.1450 -0.0145 -0.0987
 1248SOL    HW2 5045   0.342   3.980   2.313 -1.0952  1.1771  0.2468
 1248SOL    HW3 5046   0.405   4.028   2.184  0.0743 -0.9223  0.0194
 1248SOL    MW4 5047   0.399   4.032   2.271 -0.2414  0.0229 -0.0372
 1249SOL     OW 5048   0.441   4.290   2.409 -0.0808 -0.1707 -0.0427
 1249SOL    HW2 5049   0.519   4.338   2.381  0.4740 -1.2712 -0.4173
 1249SOL    HW3 5050   0.441   4.210   2.355 -1.4655 -0.1855 -0.0506
 1249SOL    MW4 5051   0.451   4.286   2.398 -0.1903 -0.3181 -0.0932
 1250SOL     OW 5052   0.681   4.420   2.333  0.2565 -0.1259  0.0319
 1250SOL    HW2 5053   0.655   4.505   2.368 -1.4460 -1.0290  1.0036
 1250SOL    HW3 5054   0.697   4.437   2.240  1.6138  1.6034  0.5657
 1250SOL    MW4 5055   0.679   4.434   2.325  0.2109 -0.0172  0.2306
 1251SOL     OW 5056   1.093   0.018   2.315  0.1392  0.1088  0.3076
 1251SOL    HW2 5057   1.104   0.011   2.410 -0.3415 -1.7079  0.2509
 1251SOL    HW3 5058   1.007   0.057   2.303 -0.2044 -0.5346  0.6314
 1251SOL    MW4 5059   1.083   0.022   2.326  0.0304 -0.2160  0.3426
 1252SOL     OW 5060   0.841   0.133   2.278 -0.0371 -0.0852  0.2139
 1252SOL    HW2 5061   0.836   0.225   2.303 -2.2374 -0.1664  0.1782
 1252SOL    HW3 5062   0.854   0.134   2.183  1.5357  0.1820  0.4209
 1252SOL    MW4 5063   0.842   0.145   2.269 -0.1199 -0.0606  0.2363
 1253SOL     OW 5064   0.877   0.395   2.370 -0.1865 -0.1344  0.1504
 1253SOL    HW2 5065   0.959   0.437   2.345 -0.8144  1.0047 -0.0158
 1253SOL    HW3 5066   0.809   0.450   2.331 -1.0212 -1.1371  0.1960
 1253SOL    MW4 5067   0.879   0.408   2.362 -0.3794 -0.1164  0.1345
 1254SOL     OW 5068   1.105   0.503   2.266  0.1700  0.0063 -0.4772
 1254SOL    HW2 5069   1.187   0.461   2.291 -0.4249 -1.3056 -0.6388
 1254SOL    HW3 5070   1.109   0.509   2.170  0.8030  1.4967 -0.3572
 1254SOL    MW4 5071   1.116   0.498   2.256  0.1752  0.0299 -0.4826
 1255SOL     OW 5072   1.123   0.742   2.382 -0.3773 -0.1805  0.3086
 1255SOL    HW2 5073   1.054   0.796   2.344  0.6859  0.0211 -1.3637
 1255SOL    HW3 5074   1.110   0.655   2.345  0.5967 -0.0109 -0.4627
 1255SOL    MW4 5075   1.112   0.738   2.372 -0.1086 -0.1315 -0.0134
 1256SOL     OW 5076   0.957   0.923   2.235 -0.5174  0.0467  0.1302
 1256SOL    HW2 5077   0.984   0.999   2.286  1.0149 -0.9639  0.8400
 1256SOL    HW3 5078   0.872   0.899   2.272 -0.3904  0.5876  0.7968
 1256SOL    MW4 5079   0.949   0.930   2.247 -0.2986 -0.0153  0.3119
 1257SOL     OW 5080   0.932   1.150   2.404 -0.0243 -0.4750 -0.4084
 1257SOL    HW2 5081   0.992   1.204   2.353  1.3937 -1.4403  0.2170
 1257SOL    HW3 5082   0.846   1.171   2.369  0.8205 -0.3237 -2.4951
 1257SOL    MW4 5083   0.929   1.160   2.392  0.2742 -0.5823 -0.6013
 1258SOL     OW 5084   1.133   1.262   2.253 -0.1538  0.0749  0.4376
 1258SOL    HW2 5085   1.209   1.207   2.274 -0.5613 -0.5235  0.3342
 1258SOL    HW3 5086   1.133   1.269   2.158 -0.5927 -0.4495  0.3946
 1258SOL    MW4 5087   1.143   1.256   2.244 -0.2655 -0.0733  0.4184
 1259SOL     OW 5088   1.127   1.518   2.341 -0.1408 -0.3936  0.1420
 1259SOL    HW2 5089   1.053   1.571   2.310  0.1509 -0.3056 -0.4012
 1259SOL    HW3 5090   1.105   1.428   2.314 -0.8780 -0.6463  1.5029
 1259SOL    MW4 5091   1.114   1.513   2.333 -0.1996 -0.4154  0.2499
 1260SOL     OW 5092   0.896   1.656   2.246  0.2334 -0.1130  0.2322
 1260SOL    HW2 5093   0.900   1.752   2.250  0.3461 -0.0781 -0.5668
 1260SOL    HW3 5094   0.904   1.636   2.153 -0.1392 -0.8897  0.3645
 1260SOL    MW4 5095   0.898   1.666   2.234  0.1991 -0.2108  0.1442
 1261SOL     OW 5096   0.879   1.924   2.331 -0.1364 -0.0770  1.0331
 1261SOL    HW2 5097   0.893   1.909   2.425  0.4658 -2.9050  0.5219
 1261SOL    HW3 5098   0.957   1.973   2.303 -0.7490  1.5724  2.1829
 1261SOL    MW4 5099   0.891   1.929   2.340 -0.1377 -0.2326  1.1175
 1262SOL     OW 5100   1.113   2.039   2.268  0.0768 -0.4663 -0.3544
 1262SOL    HW2 5101   1.187   1.987   2.300  0.6225  0.1160 -0.6642
 1262SOL    HW3 5102   1.119   2.032   2.172  1.6253  2.1797 -0.4874
 1262SOL    MW4 5103   1.124   2.031   2.259  0.3530 -0.0403 -0.4132
 1263SOL     OW 5104   1.124   2.288   2.392  0.1023 -0.0125  1.0320
 1263SOL    HW2 5105   1.194   2.341   2.353  1.0523 -1.0970  1.2482
 1263SOL    HW3 5106   1.127   2.205   2.345 -2.1238  0.4860 -0.0794
 1263SOL    MW4 5107   1.133   2.284   2.381 -0.0660 -0.0899  0.9139
 1264SOL     OW 5108   0.878   2.403   2.266  0.5247  0.4873 -0.0355
 1264SOL    HW2 5109   0.956   2.354   2.292  0.5424  0.3851 -0.2805
 1264SOL    HW3 5110   0.888   2.415   2.171  1.3473  2.4194  0.2665
 1264SOL    MW4 5111   0.890   2.398   2.257  0.6355  0.7288 -0.0279
 1265SOL     OW 5112   0.911   2.684   2.344 -0.0419  0.0187  0.0214
 1265SOL    HW2 5113   0.924   2.677   2.439 -0.6055  0.9393  0.1744
 1265SOL    HW3 5114   0.907   2.593   2.314 -0.7028 -0.2921  1.0000
 1265SOL    MW4 5115   0.912   2.671   2.353 -0.2035  0.0989  0.1709
 1266SOL     OW 5116   1.118   2.834   2.270 -0.0050 -0.3049 -0.2315
 1266SOL    HW2 5117   1.193   2.794   2.315 -0.5513 -0.3303  0.6784
 1266SOL    HW3 5118   1.044   2.778   2.293 -1.1135  2.1807  2.5106
 1266SOL    MW4 5119   1.118   2.821   2.279 -0.2234  0.0196  0.2503
 1267SOL     OW 5120   1.116   3.091   2.405 -0.2049 -0.1761 -0.2349
 1267SOL    HW2 5121   1.048   3.143   2.362  0.1894 -0.2733 -0.9771
 1267SOL    HW3 5122   1.111   3.005   2.364 -0.7829 -0.7060  0.9189
 1267SOL    MW4 5123   1.106   3.086   2.394 -0.2291 -0.2587 -0.1810
 1268SOL     OW 5124   0.916   3.222   2.260 -0.1661 -0.3705 -0.1936
 1268SOL    HW2 5125   0.906   3.314   2.287 -0.9352 -0.6901  0.6268
 1268SOL    HW3 5126   0.835   3.180   2.290 -0.2647 -1.1003 -1.4668
 1268SOL    MW4 5127   0.904   3.229   2.267 -0.2806 -0.5090 -0.2534
 1269SOL     OW 5128   0.900   3.478   2.381 -0.0342 -0.2258  0.5452
 1269SOL    HW2 5129   0.880   3.463   2.473  0.1667 -0.6751  0.5139
 1269SOL    HW3 5130   0.816   3.505   2.342 -0.1576 -0.2220  0.8168
 1269SOL    MW4 5131   0.886   3.480   2.388 -0.0240 -0.2847  0.5770
 1270SOL     OW 5132   1.119   3.611   2.274 -0.2088  0.8472 -0.1599
 1270SOL    HW2 5133   1.190   3.561   2.315 -0.5312  1.3219  0.9845
 1270SOL    HW3 5134   1.039   3.578   2.315 -0.4855  1.7415  0.0376
 1270SOL    MW4 5135   1.118   3.600   2.285 -0.2880  1.0278  0.0169
 1271SOL     OW 5136   1.130   3.869   2.344 -0.1025  0.0973  0.5208
 1271SOL    HW2 5137   1.211   3.913   2.317  0.1972  0.0283  1.2756
 1271SOL    HW3 5138   1.136   3.782   2.305 -0.1407  0.3316 -0.0050
 1271SOL    MW4 5139   1.141   3.863   2.335 -0.0681  0.1192  0.5512
 1272SOL     OW 5140   0.896   4.010   2.297 -0.1963 -0.1928  0.1809
 1272SOL    HW2 5141   0.964   3.961   2.344 -0.6636  0.1973  1.2834
 1272SOL    HW3 5142   0.817   3.957   2.306 -0.6022  0.5402  1.0091
 1272SOL    MW4 5143   0.895   3.997   2.304 -0.3115 -0.0443  0.4356
 1273SOL     OW 5144   0.918   4.272   2.374 -0.0289 -0.1307  0.0195
 1273SOL    HW2 5145   0.903   4.184   2.341 -0.5728  0.0448 -0.1877
 1273SOL    HW3 5146   0.835   4.317   2.364  0.4222  0.6106 -0.4816
 1273SOL    MW4 5147   0.905   4.267   2.369 -0.0411 -0.0100 -0.0741
 1274SOL     OW 5148   1.130   4.413   2.235 -0.0322  0.4479  0.0797
 1274SOL    HW2 5149   1.058   4.362   2.272  0.2363  0.9672  1.3566
 1274SOL    HW3 5150   1.113   4.503   2.262  0.9089  0.6287  0.1141
 1274SOL    MW4 5151   1.118   4.418   2.244  0.1274  0.5403  0.2527
 1275SOL     OW 5152   1.547   0.024   2.328 -0.1456  0.0372  0.3425
 1275SOL    HW2 5153   1.624   0.074   2.301 -0.3025 -0.7639 -1.6312
 1275SOL    HW3 5154   1.473   0.073   2.294 -0.4104 -0.3364  0.3754
 1275SOL    MW4 5155   1.547   0.037   2.320 -0.2011 -0.1178  0.0863
 1276SOL     OW 5156   1.342   0.136   2.204 -0.3128 -0.4663 -0.3868
 1276SOL    HW2 5157   1.338   0.225   2.239  0.4867 -1.0653  1.2799
 1276SOL    HW3 5158   1.256   0.099   2.223 -0.4468 -0.2354 -0.5451
 1276SOL    MW4 5159   1.330   0.143   2.211 -0.2249 -0.5149 -0.1879
 1277SOL     OW 5160   1.337   0.386   2.346 -0.0189 -0.0577 -0.4785
 1277SOL    HW2 5161   1.354   0.359   2.436 -0.2456 -1.7812 -0.9374
 1277SOL    HW3 5162   1.411   0.443   2.324  1.0659 -1.1952  0.1518
 1277SOL    MW4 5163   1.349   0.390   2.355  0.0944 -0.4352 -0.4561
 1278SOL     OW 5164   1.576   0.523   2.287  0.6227  0.3317  0.2209
 1278SOL    HW2 5165   1.651   0.466   2.303 -0.2187 -0.6938  0.4992
 1278SOL    HW3 5166   1.575   0.535   2.192 -0.6611 -2.1325 -0.1062
 1278SOL    MW4 5167   1.586   0.517   2.277  0.3424 -0.1287  0.2146
 1279SOL     OW 5168   1.568   0.784   2.390  0.2714 -0.0409 -0.8691
 1279SOL    HW2 5169   1.650   0.820   2.358  0.1826 -0.6419 -1.7856
 1279SOL    HW3 5170   1.570   0.692   2.363  0.1032 -0.5076  0.6826
 1279SOL    MW4 5171   1.579   0.777   2.382  0.2375 -0.1817 -0.7851
 1280SOL     OW 5172   1.347   0.861   2.246 -0.1846  0.1510  0.1169
 1280SOL    HW2 5173   1.424   0.840   2.298  0.0897 -1.0401 -0.7499
 1280SOL    HW3 5174   1.273   0.823   2.294  0.0428 -0.7442 -0.2249
 1280SOL    MW4 5175   1.347   0.853   2.259 -0.1185 -0.1243 -0.0424
 1281SOL     OW 5176   1.357   1.135   2.351 -0.1088  0.1029  0.0691
 1281SOL    HW2 5177   1.351   1.144   2.447 -0.6171  0.2902  0.0213
 1281SOL    HW3 5178   1.358   1.041   2.336  0.0671  0.0721  0.2635
 1281SOL    MW4 5179   1.356   1.124   2.362 -0.1526  0.1236  0.0885
 1282SOL     OW 5180   1.601   1.251   2.298 -0.0244 -0.1079 -0.1472
 1282SOL    HW2 5181   1.521   1.200   2.305 -1.4104  1.7328 -1.9599
 1282SOL    HW3 5182   1.612   1.266   2.204  1.1531  1.6563  0.2414
 1282SOL    MW4 5183   1.592   1.247   2.287 -0.0520  0.3675 -0.3352
 1283SOL     OW 5184   1.547   1.511   2.402 -0.0281  0.2843  0.3879
 1283SOL    HW2 5185   1.623   1.560   2.371  1.0966 -0.2241  2.2959
 1283SOL    HW3 5186   1.557   1.423   2.363 -0.3091  0.5715 -0.3512
 1283SOL    MW4 5187   1.558   1.506   2.392  0.0833  0.2551  0.5419
 1284SOL     OW 5188   1.345   1.635   2.241  0.2143 -0.4606 -0.1862
 1284SOL    HW2 5189   1.418   1.600   2.293  0.5139  0.4076 -0.0198
 1284SOL    HW3 5190   1.270   1.583   2.269  0.3097  0.1837  1.3634
 1284SOL    MW4 5191   1.345   1.623   2.252  0.2666 -0.2609  0.0403
 1285SOL     OW 5192   1.309   1.892   2.395 -0.3392 -0.5043 -0.1419
 1285SOL    HW2 5193   1.380   1.938   2.349 -0.8020  0.0398 -0.3189
 1285SOL    HW3 5194   1.308   1.805   2.357 -0.4337 -0.1937 -0.8608
 1285SOL    MW4 5195   1.318   1.887   2.384 -0.4128 -0.3916 -0.2601
 1286SOL     OW 5196   1.515   2.062   2.299  0.6639 -0.3216 -0.4932
 1286SOL    HW2 5197   1.596   2.021   2.330 -0.1774 -1.4382  0.2971
 1286SOL    HW3 5198   1.524   2.065   2.204  1.0494 -1.7320 -0.5217
 1286SOL    MW4 5199   1.527   2.057   2.291  0.6038 -0.6549 -0.3927
 1287SOL     OW 5200   1.593   2.323   2.372 -0.2261 -0.3441 -0.2291
 1287SOL    HW2 5201   1.586   2.305   2.465  0.1082 -0.7403 -0.2792
 1287SOL    HW3 5202   1.554   2.247   2.329 -1.3827  0.3366 -0.3949
 1287SOL    MW4 5203   1.587   2.310   2.379 -0.3346 -0.3066 -0.2575
 1288SOL     OW 5204   1.349   2.452   2.304  0.2982 -0.0366 -0.0079
 1288SOL    HW2 5205   1.426   2.401   2.327 -1.0102 -1.6980  0.7544
 1288SOL    HW3 5206   1.349   2.455   2.209  2.6214  2.0718 -0.0091
 1288SOL    MW4 5207   1.359   2.446   2.295  0.4321  0.0224  0.0923
 1289SOL     OW 5208   1.357   2.728   2.390 -0.1388  0.3106 -0.4012
 1289SOL    HW2 5209   1.426   2.771   2.338 -0.6521  0.4822 -0.9475
 1289SOL    HW3 5210   1.362   2.636   2.364  0.9207  0.0496  0.7235
 1289SOL    MW4 5211   1.367   2.722   2.379 -0.0668  0.2990 -0.3250
 1290SOL     OW 5212   1.574   2.834   2.276 -0.1013 -0.4958 -0.0676
 1290SOL    HW2 5213   1.577   2.922   2.314  0.7984 -0.2900 -0.6049
 1290SOL    HW3 5214   1.556   2.848   2.183  0.1831 -0.8713 -0.1806
 1290SOL    MW4 5215   1.572   2.847   2.269  0.0547 -0.5181 -0.1535
 1291SOL     OW 5216   1.576   3.087   2.394 -0.1256  0.1405 -0.1413
 1291SOL    HW2 5217   1.578   3.086   2.490  2.6801  1.2444 -0.1246
 1291SOL    HW3 5218   1.497   3.137   2.372 -0.7737 -0.0711  1.5916
 1291SOL    MW4 5219   1.566   3.094   2.404  0.1590  0.2582  0.0894
 1292SOL     OW 5220   1.351   3.221   2.261 -0.0600 -0.1146  0.5086
 1292SOL    HW2 5221   1.265   3.205   2.301  0.9410 -3.1685  1.5950
 1292SOL    HW3 5222   1.336   3.206   2.167 -0.7766 -0.3300  0.6490
 1292SOL    MW4 5223   1.338   3.217   2.254 -0.0225 -0.5460  0.6704
 1293SOL     OW 5224   1.334   3.489   2.393  0.0968  0.4219 -0.4582
 1293SOL    HW2 5225   1.350   3.493   2.487 -0.0804  1.1451 -0.4569
 1293SOL    HW3 5226   1.342   3.396   2.371 -0.4778  0.1728  0.3787
 1293SOL    MW4 5227   1.337   3.477   2.402 -0.0024  0.4845 -0.3474
 1294SOL     OW 5228   1.548   3.623   2.259  0.1202 -0.2665  0.7130
 1294SOL    HW2 5229   1.546   3.708   2.303 -0.5710  1.7861 -3.1637
 1294SOL    HW3 5230   1.471   3.577   2.292 -0.6929  1.4221  1.2015
 1294SOL    MW4 5231   1.538   3.628   2.269 -0.0782  0.2270  0.2658
 1295SOL     OW 5232   1.545   3.892   2.360  0.4383  0.3474  0.3896
 1295SOL    HW2 5233   1.550   3.868   2.452  2.0847  0.2080  0.2783
 1295SOL    HW3 5234   1.633   3.922   2.338  0.0203  0.5364 -1.0928
 1295SOL    MW4 5235   1.557   3.893   2.369  0.6005  0.3538  0.1798
 1296SOL     OW 5236   1.332   4.032   2.266 -0.3699  0.0283 -0.1039
 1296SOL    HW2 5237   1.407   3.980   2.296  1.0259  0.9170 -1.9281
 1296SOL    HW3 5238   1.342   4.036   2.171 -2.2505  0.9364 -0.2957
 1296SOL    MW4 5239   1.343   4.026   2.258 -0.4339  0.2656 -0.3700
 1297SOL     OW 5240   1.373   4.284   2.346  0.1486 -0.5495  0.4548
 1297SOL    HW2 5241   1.367   4.191   2.324  0.1289  0.1029 -2.5466
 1297SOL    HW3 5242   1.286   4.319   2.324  0.4042  0.3359  0.8271
 1297SOL    MW4 5243   1.361   4.276   2.340  0.1796 -0.3467  0.1078
 1298SOL     OW 5244   1.584   4.422   2.225 -0.3564  0.4866  0.1874
 1298SOL    HW2 5245   1.509   4.371   2.257 -0.7539  0.8650 -0.1566
 1298SOL    HW3 5246   1.571   4.509   2.261 -1.0653  1.0520 -1.4239
 1298SOL    MW4 5247   1.572   4.427   2.234 -0.5025  0.6108 -0.0708
 1299SOL     OW 5248   2.023   4.662   2.336  0.1043 -0.2031  0.4711
 1299SOL    HW2 5249   2.105   4.706   2.313  0.9313 -1.3038  1.2926
 1299SOL    HW3 5250   2.035   4.572   2.308 -0.3789 -0.6427  1.6504
 1299SOL    MW4 5251   2.035   4.656   2.329  0.1500 -0.4064  0.7350
 1300SOL     OW 5252   1.796   0.127   2.252 -0.1391  0.0082  0.0722
 1300SOL    HW2 5253   1.794   0.209   2.302 -0.6922 -0.0934  0.2263
 1300SOL    HW3 5254   1.871   0.079   2.288 -0.4213  0.0159  0.6865
 1300SOL    MW4 5255   1.806   0.131   2.263 -0.2493 -0.0042  0.1736
 1301SOL     OW 5256   1.798   0.369   2.359  0.1945  0.0532 -0.0262
 1301SOL    HW2 5257   1.797   0.407   2.447  0.6513  1.3902 -0.5828
 1301SOL    HW3 5258   1.882   0.397   2.322 -0.1521 -0.1940 -1.0225
 1301SOL    MW4 5259   1.809   0.378   2.366  0.2092  0.1970 -0.2310
 1302SOL     OW 5260   2.031   0.496   2.255  0.2885  0.0709  0.0017
 1302SOL    HW2 5261   2.014   0.584   2.287  0.7825 -0.1721  0.9427
 1302SOL    HW3 5262   2.019   0.502   2.160  0.2686  1.1318  0.0699
 1302SOL    MW4 5263   2.027   0.508   2.246  0.3510  0.1789  0.1347
 1303SOL     OW 5264   2.013   0.730   2.411  0.6866 -0.2691  0.3777
 1303SOL    HW2 5265   2.093   0.779   2.395  0.8965 -0.9151 -0.6029
 1303SOL    HW3 5266   1.944   0.782   2.370  0.9077 -0.7728 -0.6534
 1303SOL    MW4 5267   2.015   0.743   2.404  0.7434 -0.4208  0.1123
 1304SOL     OW 5268   1.819   0.864   2.269  0.3957  0.0221  0.1560
 1304SOL    HW2 5269   1.807   0.951   2.305 -0.7733 -0.7100  1.5951
 1304SOL    HW3 5270   1.792   0.871   2.177  0.5535  1.2181  0.2034
 1304SOL    MW4 5271   1.814   0.876   2.261  0.2623  0.0833  0.3521
 1305SOL     OW 5272   1.828   1.138   2.398 -0.5450  0.0245 -0.4352
 1305SOL    HW2 5273   1.895   1.176   2.341 -0.9722  0.5058 -0.6193
 1305SOL    HW3 5274   1.748   1.185   2.376 -0.9069 -0.4176 -0.0802
 1305SOL    MW4 5275   1.826   1.149   2.388 -0.6490  0.0297 -0.4127
 1306SOL     OW 5276   2.020   1.284   2.255 -0.1908  0.4301 -0.4241
 1306SOL    HW2 5277   2.017   1.372   2.292  2.7489  1.1347 -1.6963
 1306SOL    HW3 5278   2.015   1.297   2.161  0.4530 -0.7718 -0.6387
 1306SOL    MW4 5279   2.019   1.297   2.248  0.2818  0.3644 -0.6201
 1307SOL     OW 5280   2.000   1.535   2.369 -0.0669  0.2259  0.0533
 1307SOL    HW2 5281   2.015   1.550   2.462  0.6832  0.3582 -0.0832
 1307SOL    HW3 5282   1.913   1.569   2.352 -0.3045 -0.0306  0.7640
 1307SOL    MW4 5283   1.991   1.541   2.379  0.0008  0.2097  0.1290
 1308SOL     OW 5284   1.772   1.682   2.315 -0.0326 -0.0737  0.6939
 1308SOL    HW2 5285   1.762   1.769   2.353 -1.0989  0.0740  0.0898
 1308SOL    HW3 5286   1.781   1.697   2.221 -1.8121 -0.7023  0.4042
 1308SOL    MW4 5287   1.772   1.695   2.308 -0.4079 -0.1371  0.5763
 1309SOL     OW 5288   1.773   1.953   2.379 -0.1960 -0.4652 -0.2982
 1309SOL    HW2 5289   1.810   1.952   2.467  1.4717  2.4312 -0.8770
 1309SOL    HW3 5290   1.845   1.982   2.323 -1.6971 -0.5893 -2.3544
 1309SOL    MW4 5291   1.787   1.957   2.383 -0.1742 -0.0995 -0.6456
 1310SOL     OW 5292   1.989   2.055   2.252  0.2367  0.2776  0.0929
 1310SOL    HW2 5293   2.056   1.992   2.278 -1.3956 -1.2248  0.7419
 1310SOL    HW3 5294   1.999   2.064   2.158  0.6967 -0.6973  0.0444
 1310SOL    MW4 5295   1.999   2.048   2.243  0.0820 -0.0489  0.1719
 1311SOL     OW 5296   2.031   2.300   2.365  0.1037  0.1055  0.0215
 1311SOL    HW2 5297   2.091   2.346   2.307  0.5368 -0.4545  0.0312
 1311SOL    HW3 5298   2.022   2.213   2.326 -0.6910  0.1836  0.0237
 1311SOL    MW4 5299   2.037   2.295   2.352  0.0560  0.0417  0.0231
 1312SOL     OW 5300   1.811   2.474   2.267 -0.0185  0.0834 -0.0326
 1312SOL    HW2 5301   1.879   2.411   2.292 -0.5213 -0.2134  0.6159
 1312SOL    HW3 5302   1.730   2.435   2.299 -0.4846  0.4730 -0.7359
 1312SOL    MW4 5303   1.809   2.461   2.275 -0.1463  0.0954 -0.0401
 1313SOL     OW 5304   1.793   2.734   2.379 -0.1151 -0.5480 -0.2819
 1313SOL    HW2 5305   1.805   2.647   2.342  1.2101  0.8665 -3.4015
 1313SOL    HW3 5306   1.713   2.767   2.339 -0.6341 -0.3402  0.9118
 1313SOL    MW4 5307   1.784   2.727   2.368 -0.0087 -0.3340 -0.5360
 1314SOL     OW 5308   2.009   2.873   2.287 -0.0909 -0.1109 -0.7379
 1314SOL    HW2 5309   2.089   2.828   2.313 -0.6529 -0.4283  0.4625
 1314SOL    HW3 5310   1.938   2.820   2.324 -0.8335  0.5872 -1.1430
 1314SOL    MW4 5311   2.010   2.860   2.295 -0.2630 -0.0608 -0.6330
 1315SOL     OW 5312   2.030   3.139   2.381 -0.1668  0.3212  0.1266
 1315SOL    HW2 5313   2.118   3.151   2.346  0.2200 -0.3339  0.8574
 1315SOL    HW3 5314   2.008   3.048   2.363 -1.0266  0.6969 -0.7775
 1315SOL    MW4 5315   2.038   3.129   2.374 -0.2294  0.2844  0.1037
 1316SOL     OW 5316   1.787   3.232   2.270 -0.0206  0.3011 -0.0078
 1316SOL    HW2 5317   1.867   3.198   2.312 -0.3889 -0.1804  0.3156
 1316SOL    HW3 5318   1.718   3.173   2.301 -0.2974 -0.0719 -1.3197
 1316SOL    MW4 5319   1.789   3.220   2.280 -0.1057  0.1886 -0.1383
 1317SOL     OW 5320   1.798   3.512   2.329 -0.0177 -0.3791 -0.3110
 1317SOL    HW2 5321   1.772   3.425   2.299  0.4294 -0.1864 -1.2858
 1317SOL    HW3 5322   1.722   3.568   2.309  0.1714 -0.3073 -0.8623
 1317SOL    MW4 5323   1.784   3.508   2.322  0.0662 -0.3440 -0.5124
 1318SOL     OW 5324   2.013   3.645   2.240 -0.5871  0.5200  0.2221
 1318SOL    HW2 5325   1.935   3.598   2.271  0.8020 -0.9221  1.6444
 1318SOL    HW3 5326   2.023   3.617   2.149 -0.6291 -0.8515  0.6143
 1318SOL    MW4 5327   2.004   3.635   2.232 -0.4094  0.1488  0.4613
 1319SOL     OW 5328   2.076   3.888   2.367  0.4839  0.3419  0.0197
 1319SOL    HW2 5329   2.065   3.879   2.462  2.5324 -1.3000  0.1254
 1319SOL    HW3 5330   2.061   3.800   2.333 -0.5990  1.0018 -1.2394
 1319SOL    MW4 5331   2.072   3.875   2.375  0.6115  0.2122 -0.1326
 1320SOL     OW 5332   1.812   3.955   2.278 -0.1894 -0.1009 -0.0264
 1320SOL    HW2 5333   1.896   3.938   2.322 -0.7272 -1.6943  0.4170
 1320SOL    HW3 5334   1.835   3.961   2.185  0.7937  2.1379  0.3410
 1320SOL    MW4 5335   1.826   3.953   2.272 -0.1307 -0.0157  0.0803
 1321SOL     OW 5336   1.805   4.296   2.338  0.0023 -0.3955  0.0707
 1321SOL    HW2 5337   1.808   4.203   2.314  0.4759 -0.1199 -0.9738
 1321SOL    HW3 5338   1.728   4.330   2.291  0.3897 -0.0545 -0.3179
 1321SOL    MW4 5339   1.795   4.288   2.329  0.1158 -0.3142 -0.1183
 1322SOL     OW 5340   2.034   4.395   2.211  0.4416 -0.1524  0.0911
 1322SOL    HW2 5341   1.951   4.359   2.243  0.3941 -0.1574 -0.0378
 1322SOL    HW3 5342   2.022   4.403   2.117  0.7604 -0.6136  0.0099
 1322SOL    MW4 5343   2.021   4.391   2.203  0.4776 -0.2131  0.0632
 1323SOL     OW 5344   2.487   4.660   2.382  0.1317 -0.5873 -0.2521
 1323SOL    HW2 5345   2.562   4.699   2.338  1.1815 -0.6473  1.4318
 1323SOL    HW3 5346   2.477   4.574   2.341 -0.0962  0.1108 -1.6639
 1323SOL    MW4 5347   2.495   4.654   2.371  0.2401 -0.5031 -0.2160
 1324SOL     OW 5348   2.260   0.108   2.241 -0.7421 -0.3587 -0.3765
 1324SOL    HW2 5349   2.253   0.191   2.287  0.2342  0.4681 -1.6861
 1324SOL    HW3 5350   2.341   0.069   2.275 -1.4253 -0.9952  0.5571
 1324SOL    MW4 5351   2.270   0.114   2.252 -0.7036 -0.3336 -0.4263
 1325SOL     OW 5352   2.243   0.366   2.363  0.1614 -0.0888 -0.7042
 1325SOL    HW2 5353   2.310   0.423   2.325  1.1715  0.1047  1.3264
 1325SOL    HW3 5354   2.161   0.398   2.325  0.6263  3.1789  0.8602
 1325SOL    MW4 5355   2.241   0.378   2.353  0.3560  0.3679 -0.2301
 1326SOL     OW 5356   2.438   0.502   2.239 -0.1441 -0.0155  0.0004
 1326SOL    HW2 5357   2.511   0.446   2.266  0.2595  0.4213 -0.1769
 1326SOL    HW3 5358   2.442   0.502   2.144 -0.6668 -0.3694 -0.0220
 1326SOL    MW4 5359   2.448   0.495   2.230 -0.1600 -0.0046 -0.0257
 1327SOL     OW 5360   2.415   0.755   2.397  0.2112  0.5192 -0.4441
 1327SOL    HW2 5361   2.489   0.810   2.374  0.9900 -1.1490 -2.0910
 1327SOL    HW3 5362   2.429   0.674   2.348 -1.6806 -0.5684  0.7408
 1327SOL    MW4 5363   2.426   0.752   2.387  0.0644  0.1556 -0.5047
 1328SOL     OW 5364   2.195   0.879   2.264  0.0438  0.1118  0.1188
 1328SOL    HW2 5365   2.205   0.970   2.294  0.0694 -0.1632  0.9473
 1328SOL    HW3 5366   2.275   0.835   2.291 -0.6644 -0.5521  1.1791
 1328SOL    MW4 5367   2.207   0.885   2.272 -0.0460 -0.0122  0.3679
 1329SOL     OW 5368   2.238   1.139   2.354 -0.1724 -0.2499  0.2695
 1329SOL    HW2 5369   2.326   1.162   2.325  0.3167  0.8625  2.5355
 1329SOL    HW3 5370   2.182   1.208   2.318  0.1443  0.0665  0.3894
 1329SOL    MW4 5371   2.242   1.151   2.345 -0.0660 -0.0614  0.5844
 1330SOL     OW 5372   2.468   1.238   2.255  0.4261  0.4776 -0.3586
 1330SOL    HW2 5373   2.538   1.202   2.309 -0.2599  0.8075  0.7558
 1330SOL    HW3 5374   2.461   1.330   2.282 -1.3488  0.1076  0.5273
 1330SOL    MW4 5375   2.476   1.245   2.265  0.1016  0.4723 -0.0944
 1331SOL     OW 5376   2.456   1.507   2.333 -0.2349  0.2859  0.6588
 1331SOL    HW2 5377   2.484   1.498   2.424 -0.0806 -0.7368  0.5191
 1331SOL    HW3 5378   2.531   1.544   2.288  0.0943 -0.3063  0.7223
 1331SOL    MW4 5379   2.469   1.510   2.339 -0.1712  0.0728  0.6485
 1332SOL     OW 5380   2.229   1.642   2.259  0.0137 -0.4727  0.1058
 1332SOL    HW2 5381   2.306   1.589   2.281 -0.1170 -0.0483  1.6010
 1332SOL    HW3 5382   2.155   1.595   2.298 -0.3661 -0.3032 -0.3948
 1332SOL    MW4 5383   2.229   1.629   2.267 -0.0536 -0.3942  0.2372
 1333SOL     OW 5384   2.207   1.890   2.371 -0.2527  0.0809  0.1395
 1333SOL    HW2 5385   2.278   1.945   2.338  0.9201 -0.9885  0.8136
 1333SOL    HW3 5386   2.214   1.809   2.319  0.3532 -0.8305  1.6166
 1333SOL    MW4 5387   2.217   1.886   2.360 -0.0181 -0.1806  0.4234
 1334SOL     OW 5388   2.418   2.031   2.273 -0.3847  0.3577 -0.4764
 1334SOL    HW2 5389   2.505   2.007   2.307 -0.3238  1.3171  0.0610
 1334SOL    HW3 5390   2.432   2.043   2.179  0.2389  1.2390 -0.2826
 1334SOL    MW4 5391   2.431   2.029   2.265 -0.2942  0.6008 -0.3800
 1335SOL     OW 5392   2.440   2.306   2.370 -0.2247 -0.0855  0.0243
 1335SOL    HW2 5393   2.522   2.342   2.336 -0.2821  0.0894  0.0685
 1335SOL    HW3 5394   2.430   2.222   2.325 -0.4553  0.2806 -0.6281
 1335SOL    MW4 5395   2.450   2.300   2.359 -0.2627 -0.0138 -0.0558
 1336SOL     OW 5396   2.245   2.458   2.246 -0.1195 -0.2294 -0.2288
 1336SOL    HW2 5397   2.257   2.549   2.271  0.2590 -0.4566  0.4255
 1336SOL    HW3 5398   2.318   2.411   2.287  0.0225 -0.7399 -1.0388
 1336SOL    MW4 5399   2.256   2.464   2.254 -0.0510 -0.3264 -0.2496
 1337SOL     OW 5400   2.228   2.725   2.375 -0.0033  0.1215  0.4868
 1337SOL    HW2 5401   2.221   2.722   2.470  0.3399  1.5835  0.5727
 1337SOL    HW3 5402   2.309   2.773   2.358  0.8880 -1.7049 -0.5505
 1337SOL    MW4 5403   2.238   2.731   2.385  0.1595  0.0734  0.3612
 1338SOL     OW 5404   2.469   2.814   2.282  0.1515 -0.5896 -0.2597
 1338SOL    HW2 5405   2.540   2.766   2.323 -0.0971 -1.0758 -0.3971
 1338SOL    HW3 5406   2.495   2.823   2.190  0.7114  0.5038  0.0000
 1338SOL    MW4 5407   2.482   2.809   2.275  0.1926 -0.5095 -0.2434
 1339SOL     OW 5408   2.488   3.091   2.377 -0.0395  0.0963  0.1488
 1339SOL    HW2 5409   2.562   3.113   2.321 -1.0875  1.0863 -0.8623
 1339SOL    HW3 5410   2.472   2.998   2.360 -2.2321  1.0254 -3.5258
 1339SOL    MW4 5411   2.496   3.081   2.367 -0.4671  0.3493 -0.4692
 1340SOL     OW 5412   2.280   3.205   2.239  0.1389  0.0496  0.5266
 1340SOL    HW2 5413   2.258   3.292   2.272  1.9555  0.8467 -0.3198
 1340SOL    HW3 5414   2.353   3.176   2.294  0.6103 -0.2563 -0.2651
 1340SOL    MW4 5415   2.287   3.213   2.251  0.4408  0.1142  0.3104
 1341SOL     OW 5416   2.210   3.475   2.338  0.3217 -0.1648 -0.0937
 1341SOL    HW2 5417   2.207   3.475   2.434  0.3135 -0.4295 -0.0945
 1341SOL    HW3 5418   2.123   3.504   2.311  1.1346  2.5084  0.0040
 1341SOL    MW4 5419   2.198   3.479   2.347  0.4275  0.1528 -0.0811
 1342SOL     OW 5420   2.457   3.594   2.263 -0.0749 -0.2327 -0.2346
 1342SOL    HW2 5421   2.462   3.688   2.282  0.2992 -0.5392  1.2325
 1342SOL    HW3 5422   2.367   3.569   2.285  0.3111 -0.5538  1.0101
 1342SOL    MW4 5423   2.446   3.603   2.269  0.0253 -0.3154  0.1230
 1343SOL     OW 5424   2.455   3.872   2.332  0.1354  0.1692 -0.2894
 1343SOL    HW2 5425   2.434   3.881   2.424  0.9821  1.5663 -0.2212
 1343SOL    HW3 5426   2.382   3.912   2.286 -0.1222 -0.2219 -0.2272
 1343SOL    MW4 5427   2.443   3.878   2.338  0.2134  0.3018 -0.2720
 1344SOL     OW 5428   2.244   4.022   2.203 -0.4188 -0.0914  0.3518
 1344SOL    HW2 5429   2.259   4.093   2.266  3.4711 -1.1550  0.7351
 1344SOL    HW3 5430   2.185   3.962   2.248  1.8815 -0.5770  2.8223
 1344SOL    MW4 5431   2.238   4.024   2.217  0.3977 -0.2961  0.7286
 1345SOL     OW 5432   2.261   4.270   2.350 -0.1950 -0.2586 -0.1774
 1345SOL    HW2 5433   2.240   4.260   2.443 -0.2965 -0.4668 -0.2224
 1345SOL    HW3 5434   2.181   4.307   2.312 -0.5849 -1.2976 -0.3974
 1345SOL    MW4 5435   2.247   4.274   2.357 -0.2596 -0.4234 -0.2124
 1346SOL     OW 5436   2.478   4.425   2.240  0.0909 -0.1166 -0.1848
 1346SOL    HW2 5437   2.558   4.382   2.268 -0.0820 -0.0303  0.4503
 1346SOL    HW3 5438   2.407   4.372   2.277 -0.1458 -0.3306 -0.9470
 1346SOL    MW4 5439   2.479   4.413   2.249  0.0367 -0.1330 -0.2017
 1347SOL     OW 5440   2.902   0.010   2.375  0.6614 -0.3173  0.0801
 1347SOL    HW2 5441   2.964   0.076   2.346  0.1646  0.0652 -0.1265
 1347SOL    HW3 5442   2.931  -0.071   2.332  1.3771 -0.2738  0.4789
 1347SOL    MW4 5443   2.914   0.008   2.365  0.6902 -0.2608  0.1056
 1348SOL     OW 5444   2.701   0.121   2.249 -0.2452 -0.1638 -0.0230
 1348SOL    HW2 5445   2.698   0.212   2.279  0.9159  0.1732 -0.9139
 1348SOL    HW3 5446   2.773   0.082   2.298 -0.3460 -0.4389 -0.0954
 1348SOL    MW4 5447   2.710   0.128   2.260 -0.1054 -0.1557 -0.1500
 1349SOL     OW 5448   2.662   0.370   2.334  0.8307 -0.0589  0.3308
 1349SOL    HW2 5449   2.667   0.362   2.430 -1.1097  1.7298  0.6037
 1349SOL    HW3 5450   2.734   0.428   2.311 -1.1607  2.8575  1.1924
 1349SOL    MW4 5451   2.672   0.377   2.344  0.3123  0.5619  0.4804
 1350SOL     OW 5452   2.880   0.509   2.260 -0.4773 -0.1354  0.1814
 1350SOL    HW2 5453   2.882   0.596   2.301 -0.6902  0.7818 -1.7173
 1350SOL    HW3 5454   2.890   0.526   2.167  3.0139 -2.3981  0.0353
 1350SOL    MW4 5455   2.882   0.523   2.253 -0.0446 -0.3130 -0.0882
 1351SOL     OW 5456   2.893   0.764   2.371  0.1932 -0.2323  0.3220
 1351SOL    HW2 5457   2.911   0.763   2.465  0.3008 -0.6686  0.2982
 1351SOL    HW3 5458   2.801   0.791   2.365  0.7954  1.8562  0.4425
 1351SOL    MW4 5459   2.883   0.767   2.382  0.2871 -0.0144  0.3350
 1352SOL     OW 5460   2.654   0.867   2.337 -0.3001  0.3124 -0.0842
 1352SOL    HW2 5461   2.665   0.958   2.363  1.8988  0.0825 -0.0905
 1352SOL    HW3 5462   2.658   0.868   2.241 -0.4527  0.2216 -0.0926
 1352SOL    MW4 5463   2.656   0.879   2.328 -0.0300  0.2701 -0.0858
 1353SOL     OW 5464   2.664   1.145   2.406 -0.8877 -0.1617  0.0630
 1353SOL    HW2 5465   2.669   1.130   2.500  0.4669 -2.7143 -0.3670
 1353SOL    HW3 5466   2.747   1.187   2.384 -0.6177 -0.8155 -0.1834
 1353SOL    MW4 5467   2.675   1.149   2.415 -0.6735 -0.5846 -0.0262
 1354SOL     OW 5468   2.917   1.254   2.312 -0.5238 -0.5585  0.0229
 1354SOL    HW2 5469   2.991   1.206   2.348 -1.1892 -0.7658  1.1297
 1354SOL    HW3 5470   2.926   1.244   2.217  0.6772 -0.8495  0.1579
 1354SOL    MW4 5471   2.928   1.247   2.304 -0.4532 -0.6242  0.1869
 1355SOL     OW 5472   2.873   1.517   2.383 -0.0559 -0.0375  0.2729
 1355SOL    HW2 5473   2.887   1.527   2.477 -1.8988 -0.5500  0.6385
 1355SOL    HW3 5474   2.888   1.424   2.367 -1.6082 -0.3490  0.4538
 1355SOL    MW4 5475   2.877   1.506   2.394 -0.5040 -0.1463  0.3452
 1356SOL     OW 5476   2.667   1.651   2.229  0.2536  0.1628 -0.3361
 1356SOL    HW2 5477   2.744   1.611   2.268  0.4893  0.2018 -0.7620
 1356SOL    HW3 5478   2.685   1.651   2.135 -0.9902 -1.3975 -0.5966
 1356SOL    MW4 5479   2.679   1.646   2.222  0.1206 -0.0380 -0.4268
 1357SOL     OW 5480   2.718   1.939   2.317 -0.3368 -0.0702 -0.0306
 1357SOL    HW2 5481   2.703   1.931   2.411  0.3246 -0.1275  0.0701
 1357SOL    HW3 5482   2.697   1.852   2.283  1.0684 -0.5401  0.2879
 1357SOL    MW4 5483   2.713   1.926   2.325 -0.0641 -0.1398  0.0246
 1358SOL     OW 5484   2.951   2.064   2.294  0.1198 -0.4175 -0.2201
 1358SOL    HW2 5485   3.016   2.009   2.338  0.9976  0.4640 -0.3913
 1358SOL    HW3 5486   2.871   2.012   2.293  0.9520 -1.6950 -0.4088
 1358SOL    MW4 5487   2.949   2.050   2.300  0.3452 -0.4699 -0.2675
 1359SOL     OW 5488   2.935   2.323   2.370 -0.0483  0.1417  0.0304
 1359SOL    HW2 5489   2.938   2.317   2.466 -0.6600 -0.1709  0.0371
 1359SOL    HW3 5490   2.947   2.233   2.340 -2.6693 -0.2161 -0.0862
 1359SOL    MW4 5491   2.937   2.310   2.379 -0.4749  0.0532  0.0155
 1360SOL     OW 5492   2.694   2.433   2.270  0.2418  0.0933 -0.4560
 1360SOL    HW2 5493   2.773   2.389   2.304 -0.0215 -0.5698 -0.6865
 1360SOL    HW3 5494   2.712   2.446   2.177  0.1602  0.1178 -0.4680
 1360SOL    MW4 5495   2.707   2.429   2.262  0.1962  0.0093 -0.4880
 1361SOL     OW 5496   2.699   2.690   2.362  0.1078 -0.0005 -0.0100
 1361SOL    HW2 5497   2.764   2.737   2.310  0.0075  0.2067  0.0512
 1361SOL    HW3 5498   2.717   2.597   2.345 -0.7941  0.0744 -1.5054
 1361SOL    MW4 5499   2.710   2.684   2.353 -0.0248  0.0370 -0.1993
 1362SOL     OW 5500   2.920   2.826   2.263 -0.0639 -0.0190  0.3152
 1362SOL    HW2 5501   2.931   2.909   2.309 -0.4399  0.1753  0.0633
 1362SOL    HW3 5502   2.943   2.846   2.172  2.2562 -0.7848  0.7036
 1362SOL    MW4 5503   2.925   2.839   2.257  0.1926 -0.0942  0.3331
 1363SOL     OW 5504   2.919   3.103   2.346 -0.3182 -0.0318  0.4903
 1363SOL    HW2 5505   2.993   3.152   2.310  0.2832 -2.6013 -1.8982
 1363SOL    HW3 5506   2.843   3.139   2.301 -0.0240 -0.4779 -0.3539
 1363SOL    MW4 5507   2.919   3.114   2.336 -0.2000 -0.4296  0.0639
 1364SOL     OW 5508   2.700   3.183   2.218  0.1892  0.1907 -0.1963
 1364SOL    HW2 5509   2.715   3.272   2.249  2.6578 -0.1018 -0.4145
 1364SOL    HW3 5510   2.715   3.188   2.123 -1.4462 -0.1011 -0.4747
 1364SOL    MW4 5511   2.704   3.195   2.209  0.2990  0.1137 -0.2618
 1365SOL     OW 5512   2.688   3.439   2.368  0.1347  0.0497  0.1730
 1365SOL    HW2 5513   2.765   3.490   2.345 -0.8483  0.5078 -2.2377
 1365SOL    HW3 5514   2.614   3.490   2.336 -1.1367 -0.8197  1.6297
 1365SOL    MW4 5515   2.688   3.452   2.361 -0.1628 -0.0043  0.0472
 1366SOL     OW 5516   2.897   3.604   2.276  0.2901  0.8316  0.0993
 1366SOL    HW2 5517   2.976   3.559   2.305  0.2866  1.4016  1.0030
 1366SOL    HW3 5518   2.905   3.692   2.312 -0.4174  1.1105 -0.4092
 1366SOL    MW4 5519   2.908   3.610   2.284  0.1962  0.9437  0.1514
 1367SOL     OW 5520   2.896   3.903   2.381 -0.2044  0.2245  0.0989
 1367SOL    HW2 5521   2.906   3.911   2.476  0.8998  4.7493 -0.2743
 1367SOL    HW3 5522   2.813   3.946   2.362 -0.2320 -0.3161 -1.0425
 1367SOL    MW4 5523   2.887   3.910   2.391 -0.0622  0.7501 -0.1009
 1368SOL     OW 5524   2.669   4.019   2.269  0.5769 -0.6725 -0.5306
 1368SOL    HW2 5525   2.589   3.976   2.299  1.4442 -1.7780  0.2698
 1368SOL    HW3 5526   2.663   4.018   2.173 -0.1217 -1.2317 -0.4833
 1368SOL    MW4 5527   2.658   4.013   2.260  0.5989 -0.8926 -0.4187
 1369SOL     OW 5528   2.720   4.295   2.325 -0.2913 -0.0319  0.3110
 1369SOL    HW2 5529   2.713   4.289   2.420  0.7622  0.0197  0.4044
 1369SOL    HW3 5530   2.706   4.205   2.294  0.1156 -0.1887  0.5744
 1369SOL    MW4 5531   2.717   4.282   2.333 -0.0987 -0.0458  0.3583
 1370SOL     OW 5532   2.940   4.418   2.229  0.0408 -0.0408  0.3257
 1370SOL    HW2 5533   3.012   4.370   2.270 -0.2164  0.5516  1.4679
 1370SOL    HW3 5534   2.861   4.378   2.264 -0.1907 -0.0764 -0.2289
 1370SOL    MW4 5535   2.939   4.406   2.239 -0.0236  0.0329  0.4032
 1371SOL     OW 5536   3.311   4.633   2.341  0.0249 -0.3461  0.3476
 1371SOL    HW2 5537   3.318   4.646   2.436  0.8571  0.3456  0.2047
 1371SOL    HW3 5538   3.395   4.664   2.307 -1.2806  1.9635 -0.8910
 1371SOL    MW4 5539   3.323   4.639   2.349 -0.0374  0.0505  0.1652
 1372SOL     OW 5540   3.116   0.157   2.282  0.5793 -0.2453 -0.0661
 1372SOL    HW2 5541   3.129   0.248   2.308 -0.0643 -0.0259 -0.5010
 1372SOL    HW3 5542   3.190   0.110   2.321  1.4992  0.6313 -0.7309
 1372SOL    MW4 5543   3.127   0.163   2.291  0.6156 -0.1007 -0.2110
 1373SOL     OW 5544   3.116   0.423   2.346 -0.3471  0.2536 -0.7707
 1373SOL    HW2 5545   3.185   0.469   2.299  0.1903  1.0485  0.7851
 1373SOL    HW3 5546   3.034   0.456   2.308  0.0812  0.9319 -1.1007
 1373SOL    MW4 5547   3.114   0.433   2.335 -0.2198  0.4479 -0.6092
 1374SOL     OW 5548   3.352   0.554   2.237  0.5816 -0.3186 -0.0030
 1374SOL    HW2 5549   3.421   0.489   2.250 -0.4297 -1.4081 -0.0086
 1374SOL    HW3 5550   3.353   0.569   2.142  0.2895 -0.9275 -0.1084
 1374SOL    MW4 5551   3.361   0.547   2.226  0.4096 -0.5426 -0.0176
 1375SOL     OW 5552   3.373   0.788   2.365  0.0002 -0.0551 -0.6538
 1375SOL    HW2 5553   3.446   0.833   2.323  0.2482 -0.0549 -0.2236
 1375SOL    HW3 5554   3.376   0.699   2.330  0.1771 -0.0408 -0.6749
 1375SOL    MW4 5555   3.383   0.782   2.355  0.0565 -0.0533 -0.5999
 1376SOL     OW 5556   3.131   0.899   2.265 -0.2642  0.1026  0.2408
 1376SOL    HW2 5557   3.208   0.869   2.315 -0.5011 -0.5877  0.1945
 1376SOL    HW3 5558   3.058   0.850   2.303 -0.6394  0.5676  0.1078
 1376SOL    MW4 5559   3.132   0.888   2.277 -0.3450  0.0728  0.2174
 1377SOL     OW 5560   3.156   1.144   2.403 -0.1259  0.1734  0.5660
 1377SOL    HW2 5561   3.225   1.190   2.355 -0.3711  0.6880  0.6956
 1377SOL    HW3 5562   3.139   1.066   2.352  1.0889 -0.3455  0.9315
 1377SOL    MW4 5563   3.163   1.140   2.390  0.0019  0.1729  0.6311
 1378SOL     OW 5564   3.382   1.279   2.285  0.0903  0.2136 -0.3072
 1378SOL    HW2 5565   3.461   1.237   2.319  0.3164  1.6700  1.0207
 1378SOL    HW3 5566   3.380   1.364   2.328 -1.6031  0.6391 -1.1998
 1378SOL    MW4 5567   3.392   1.285   2.295 -0.1035  0.4619 -0.2499
 1379SOL     OW 5568   3.376   1.545   2.398  0.2963  0.7168 -0.4664
 1379SOL    HW2 5569   3.378   1.560   2.493 -0.2851  0.7857 -0.4615
 1379SOL    HW3 5570   3.291   1.579   2.371 -0.1369 -0.5937 -0.7969
 1379SOL    MW4 5571   3.365   1.551   2.407  0.1621  0.5529 -0.5093
 1380SOL     OW 5572   3.120   1.623   2.323  0.1480 -0.0547  0.1788
 1380SOL    HW2 5573   3.116   1.715   2.348  1.0493 -0.0486  0.3000
 1380SOL    HW3 5574   3.034   1.588   2.346 -0.1891  0.7491  0.1491
 1380SOL    MW4 5575   3.108   1.631   2.329  0.2222  0.0522  0.1910
 1381SOL     OW 5576   3.122   1.889   2.416  0.4270 -0.1759  0.3931
 1381SOL    HW2 5577   3.124   1.894   2.511  1.4328  0.1032  0.3595
 1381SOL    HW3 5578   3.205   1.928   2.388 -0.6332  1.3307 -0.6633
 1381SOL    MW4 5579   3.133   1.895   2.425  0.4196  0.0597  0.2494
 1382SOL     OW 5580   3.350   2.052   2.322  0.0473  0.2419 -0.2661
 1382SOL    HW2 5581   3.433   2.009   2.343 -1.0176 -2.0448 -0.5405
 1382SOL    HW3 5582   3.342   2.045   2.227 -1.1284 -0.8865 -0.1004
 1382SOL    MW4 5583   3.360   2.045   2.313 -0.2484 -0.2086 -0.2806
 1383SOL     OW 5584   3.374   2.311   2.405  0.2477  0.0243  0.4281
 1383SOL    HW2 5585   3.294   2.335   2.359  0.5658 -0.4335 -0.3806
 1383SOL    HW3 5586   3.386   2.218   2.387  1.3639  0.2520 -0.1113
 1383SOL    MW4 5587   3.365   2.302   2.396  0.4368 -0.0060  0.2506
 1384SOL     OW 5588   3.170   2.422   2.258 -0.5403  0.5140 -0.0262
 1384SOL    HW2 5589   3.183   2.504   2.306 -1.1259  0.8728 -0.4733
 1384SOL    HW3 5590   3.088   2.386   2.293 -0.8590  0.6720 -0.5990
 1384SOL    MW4 5591   3.161   2.428   2.269 -0.6595  0.5822 -0.1609
 1385SOL     OW 5592   3.148   2.685   2.370  0.7280  0.2524 -0.1229
 1385SOL    HW2 5593   3.140   2.668   2.463  0.4947 -2.8246 -0.6554
 1385SOL    HW3 5594   3.065   2.724   2.345 -0.4129 -1.7736  0.4074
 1385SOL    MW4 5595   3.136   2.688   2.379  0.5467 -0.4208 -0.1230
 1386SOL     OW 5596   3.372   2.818   2.237  0.0982  0.2784 -0.0743
 1386SOL    HW2 5597   3.354   2.900   2.283 -1.1854  0.6525 -1.2233
 1386SOL    HW3 5598   3.302   2.759   2.263  0.4835 -0.1550 -0.0040
 1386SOL    MW4 5599   3.361   2.821   2.247 -0.0205  0.2706 -0.2167
 1387SOL     OW 5600   3.324   3.079   2.370  0.1408  0.0902  0.1258
 1387SOL    HW2 5601   3.399   3.130   2.340  0.5828 -0.5207  0.1948
 1387SOL    HW3 5602   3.249   3.137   2.357  0.4294  0.1467 -1.3868
 1387SOL    MW4 5603   3.324   3.093   2.364  0.2375  0.0169 -0.0646
 1388SOL     OW 5604   3.135   3.257   2.244  0.6900 -0.1774 -0.0492
 1388SOL    HW2 5605   3.144   3.351   2.257  1.3861 -0.2632  0.0785
 1388SOL    HW3 5606   3.144   3.245   2.149 -1.5184  0.1164 -0.3288
 1388SOL    MW4 5607   3.137   3.268   2.233  0.4907 -0.1500 -0.0696
 1389SOL     OW 5608   3.144   3.509   2.358 -0.2813 -0.0186 -0.2835
 1389SOL    HW2 5609   3.149   3.490   2.452 -2.6972  0.8359  0.0612
 1389SOL    HW3 5610   3.210   3.576   2.344 -1.5716  1.6454  1.3273
 1389SOL    MW4 5611   3.153   3.515   2.369 -0.7703  0.3135 -0.0253
 1390SOL     OW 5612   3.386   3.666   2.301  0.4176  0.3822 -0.0951
 1390SOL    HW2 5613   3.442   3.592   2.326 -2.0809 -1.5184  0.0964
 1390SOL    HW3 5614   3.388   3.667   2.206 -0.9113 -1.0824 -0.1625
 1390SOL    MW4 5615   3.393   3.656   2.292 -0.0873 -0.0618 -0.0787
 1391SOL     OW 5616   3.343   3.923   2.367  0.0490 -0.4210 -0.2080
 1391SOL    HW2 5617   3.418   3.965   2.324  0.9216 -2.4039 -0.6968
 1391SOL    HW3 5618   3.355   3.829   2.349 -1.3290 -0.9748  1.6370
 1391SOL    MW4 5619   3.355   3.916   2.359 -0.0179 -0.7555 -0.0291
 1392SOL     OW 5620   3.106   4.014   2.228 -0.2317  0.1121 -0.5383
 1392SOL    HW2 5621   3.181   3.988   2.282  0.0470  1.5134 -0.2204
 1392SOL    HW3 5622   3.030   3.974   2.271  0.1779 -0.1864 -0.0858
 1392SOL    MW4 5623   3.106   4.005   2.241 -0.1409  0.2580 -0.4365
 1393SOL     OW 5624   3.148   4.250   2.359  0.1093 -0.2147  0.2753
 1393SOL    HW2 5625   3.231   4.275   2.320 -0.4594  0.6306 -0.4184
 1393SOL    HW3 5626   3.123   4.170   2.313  0.0048  0.1379 -0.2773
 1393SOL    MW4 5627   3.155   4.243   2.348  0.0207 -0.0567  0.1109
 1394SOL     OW 5628   3.373   4.360   2.248 -0.3375  0.0056 -0.0327
 1394SOL    HW2 5629   3.351   4.452   2.262 -2.1588 -0.2750 -0.8356
 1394SOL    HW3 5630   3.379   4.351   2.153 -1.1867 -0.9127 -0.0147
 1394SOL    MW4 5631   3.371   4.371   2.237 -0.6897 -0.1531 -0.1361
 1395SOL     OW 5632   3.791   4.658   2.349 -0.3528  0.4875  0.1116
 1395SOL    HW2 5633   3.786   4.663   2.445 -1.0073  2.3399  0.0005
 1395SOL    HW3 5634   3.873   4.702   2.327  0.8224 -1.7693 -0.0595
 1395SOL    MW4 5635   3.801   4.665   2.359 -0.2837  0.4344  0.0744
 1396SOL     OW 5636   3.548   0.089   2.220  0.4696  0.1100  0.2585
 1396SOL    HW2 5637   3.539   0.170   2.270  1.3081 -0.8014  1.8989
 1396SOL    HW3 5638   3.634   0.055   2.244  0.4014 -0.9252 -0.9413
 1396SOL    MW4 5639   3.558   0.096   2.230  0.5713 -0.1468  0.3169
 1397SOL     OW 5640   3.556   0.370   2.299 -0.4034  0.0794  0.3842
 1397SOL    HW2 5641   3.550   0.347   2.392  0.8237  1.0559  0.7207
 1397SOL    HW3 5642   3.649   0.387   2.285 -0.9626  2.7819 -0.3201
 1397SOL    MW4 5643   3.567   0.369   2.310 -0.3152  0.5648  0.3357
 1398SOL     OW 5644   3.805   0.469   2.257  0.2940  0.2664 -0.1009
 1398SOL    HW2 5645   3.807   0.552   2.303 -0.9208  0.2193  0.0412
 1398SOL    HW3 5646   3.809   0.493   2.164 -2.9652  0.6371 -0.1766
 1398SOL    MW4 5647   3.806   0.483   2.250 -0.2964  0.3091 -0.0920
 1399SOL     OW 5648   3.819   0.722   2.362  0.3212 -0.2208  0.0828
 1399SOL    HW2 5649   3.833   0.726   2.457  0.2991 -0.5786  0.1009
 1399SOL    HW3 5650   3.906   0.733   2.324  0.0812  2.0178  0.0902
 1399SOL    MW4 5651   3.832   0.724   2.369  0.2866  0.0273  0.0861
 1400SOL     OW 5652   3.623   0.903   2.254 -0.2153  0.0838  0.1439
 1400SOL    HW2 5653   3.691   0.842   2.284 -0.6678 -0.4549  0.0969
 1400SOL    HW3 5654   3.637   0.909   2.160  0.2810  0.6228  0.2459
 1400SOL    MW4 5655   3.634   0.895   2.246 -0.2093  0.0839  0.1512
 1401SOL     OW 5656   3.589   1.133   2.385  0.8791 -0.0654 -0.1020
 1401SOL    HW2 5657   3.591   1.111   2.479 -2.3578 -1.1728 -0.2013
 1401SOL    HW3 5658   3.601   1.049   2.341 -0.2876  0.0389 -0.6344
 1401SOL    MW4 5659   3.591   1.119   2.392  0.2980 -0.1978 -0.1853
 1402SOL     OW 5660   3.824   1.248   2.339  0.0755  0.1179  0.0530
 1402SOL    HW2 5661   3.814   1.342   2.352  1.9176  0.3625 -0.1753
 1402SOL    HW3 5662   3.735   1.213   2.345 -0.5898  1.8366  0.3828
 1402SOL    MW4 5663   3.811   1.256   2.341  0.2308  0.3768  0.0665
 1403SOL     OW 5664   3.813   1.513   2.383 -0.1959  0.2396  0.3115
 1403SOL    HW2 5665   3.818   1.509   2.478 -2.6235 -1.7189  0.3871
 1403SOL    HW3 5666   3.730   1.557   2.365  0.6133  1.3187 -0.9333
 1403SOL    MW4 5667   3.803   1.519   2.393 -0.4094  0.1236  0.1571
 1404SOL     OW 5668   3.601   1.671   2.332  0.4431  0.0811 -0.5299
 1404SOL    HW2 5669   3.523   1.626   2.364  1.1189 -1.1595 -0.5903
 1404SOL    HW3 5670   3.587   1.679   2.237 -1.0973  2.8435 -0.0965
 1404SOL    MW4 5671   3.589   1.666   2.324  0.3293  0.2818 -0.4809
 1405SOL     OW 5672   3.586   1.934   2.409  0.1721  0.3835 -0.1338
 1405SOL    HW2 5673   3.663   1.973   2.367  0.6826  0.0400  0.4842
 1405SOL    HW3 5674   3.593   1.840   2.389  0.7866  0.1180  1.2991
 1405SOL    MW4 5675   3.597   1.927   2.401  0.3207  0.3030  0.1369
 1406SOL     OW 5676   3.829   2.044   2.294 -0.2668 -0.2697  0.2593
 1406SOL    HW2 5677   3.916   2.011   2.315  0.7908  3.2337  1.8709
 1406SOL    HW3 5678   3.823   2.038   2.199  2.0684  0.1264  0.0644
 1406SOL    MW4 5679   3.840   2.039   2.284  0.1810  0.2449  0.4461
 1407SOL     OW 5680   3.839   2.297   2.398  0.3985 -0.1557 -0.2956
 1407SOL    HW2 5681   3.762   2.347   2.370  0.7805  0.8227  0.3801
 1407SOL    HW3 5682   3.825   2.209   2.362 -1.1204 -0.0410 -0.0024
 1407SOL    MW4 5683   3.827   2.292   2.389  0.2484 -0.0114 -0.1678
 1408SOL     OW 5684   3.616   2.425   2.320 -0.1091  0.1785  0.6356
 1408SOL    HW2 5685   3.532   2.400   2.359 -0.8262  1.5824  0.0054
 1408SOL    HW3 5686   3.601   2.418   2.226  0.4883  0.4448  0.5234
 1408SOL    MW4 5687   3.603   2.421   2.313 -0.1249  0.3989  0.5376
 1409SOL     OW 5688   3.601   2.706   2.363  0.2640 -0.0629  0.4622
 1409SOL    HW2 5689   3.610   2.615   2.337 -1.0956 -0.0997  0.0752
 1409SOL    HW3 5690   3.524   2.738   2.316  0.0426  0.9576  1.4678
 1409SOL    MW4 5691   3.592   2.698   2.354  0.0551  0.0668  0.5441
 1410SOL     OW 5692   3.831   2.858   2.247  0.2435 -0.2237 -0.1305
 1410SOL    HW2 5693   3.815   2.943   2.288  1.3095 -0.0576 -0.0399
 1410SOL    HW3 5694   3.757   2.803   2.275 -0.9450  0.9309 -0.9398
 1410SOL    MW4 5695   3.819   2.862   2.256  0.2272 -0.0496 -0.2251
 1411SOL     OW 5696   3.788   3.098   2.364 -0.2232  0.1459 -0.1308
 1411SOL    HW2 5697   3.805   3.110   2.457 -0.7499  1.6679 -0.2040
 1411SOL    HW3 5698   3.855   3.151   2.320 -1.3399  1.2592 -0.5404
 1411SOL    MW4 5699   3.799   3.107   2.370 -0.4401  0.4938 -0.1945
 1412SOL     OW 5700   3.548   3.210   2.266 -0.1385  0.3903 -0.1096
 1412SOL    HW2 5701   3.558   3.296   2.307 -0.0928 -0.6466  2.0955
 1412SOL    HW3 5702   3.625   3.161   2.294  0.0793 -0.2517 -1.7517
 1412SOL    MW4 5703   3.559   3.215   2.275 -0.1037  0.1688 -0.0355
 1413SOL     OW 5704   3.579   3.457   2.370  0.1736  0.2005 -0.3432
 1413SOL    HW2 5705   3.574   3.455   2.466  1.2769 -0.8216 -0.2976
 1413SOL    HW3 5706   3.657   3.509   2.351 -0.3174  0.8110 -0.7027
 1413SOL    MW4 5707   3.589   3.463   2.380  0.2546  0.1462 -0.3848
 1414SOL     OW 5708   3.808   3.598   2.282  0.3416  0.3649  0.1566
 1414SOL    HW2 5709   3.796   3.687   2.313 -0.8644  0.0423  0.6312
 1414SOL    HW3 5710   3.776   3.600   2.191  3.7302  1.2720 -1.0920
 1414SOL    MW4 5711   3.802   3.610   2.274  0.6297  0.4423  0.0546
 1415SOL     OW 5712   3.776   3.857   2.356 -0.0317  0.1854  0.2792
 1415SOL    HW2 5713   3.792   3.858   2.450  1.6740 -0.0983  0.0112
 1415SOL    HW3 5714   3.853   3.897   2.318  0.5270 -2.1230 -1.1510
 1415SOL    MW4 5715   3.788   3.862   2.363  0.2668 -0.1564  0.0551
 1416SOL     OW 5716   3.585   4.025   2.239 -0.0513 -0.1235 -0.3249
 1416SOL    HW2 5717   3.594   4.100   2.298 -0.2801  0.3083 -0.8343
 1416SOL    HW3 5718   3.638   3.957   2.279 -1.9484 -0.5421  1.5528
 1416SOL    MW4 5719   3.593   4.026   2.252 -0.3319 -0.1216 -0.1442
 1417SOL     OW 5720   3.591   4.263   2.396 -0.1475 -0.3382  0.3144
 1417SOL    HW2 5721   3.659   4.303   2.342  0.2438  1.7691  2.3194
 1417SOL    HW3 5722   3.509   4.292   2.356  0.0643 -1.8895 -1.3679
 1417SOL    MW4 5723   3.589   4.272   2.383 -0.0677 -0.2646  0.3572
 1418SOL     OW 5724   3.815   4.387   2.237 -0.3354  0.1308 -0.3936
 1418SOL    HW2 5725   3.881   4.330   2.276 -1.9822 -0.6104  1.3717
 1418SOL    HW3 5726   3.821   4.469   2.287  0.3479  0.6539 -1.3127
 1418SOL    MW4 5727   3.825   4.390   2.248 -0.4623  0.1020 -0.2818
 1419SOL     OW 5728   4.262   4.640   2.336 -0.1534 -0.0976  0.2360
 1419SOL    HW2 5729   4.272   4.666   2.428  0.9113 -1.4744  0.5177
 1419SOL    HW3 5730   4.326   4.694   2.290  0.0887 -0.2064  0.4435
 1419SOL    MW4 5731   4.272   4.651   2.342  0.0191 -0.2937  0.3006
 1420SOL     OW 5732   4.024   0.118   2.283 -0.3487 -0.0115 -0.0978
 1420SOL    HW2 5733   4.036   0.193   2.340  0.0542  0.6262 -0.9977
 1420SOL    HW3 5734   4.099   0.061   2.302 -0.3061  0.1213  0.1268
 1420SOL    MW4 5735   4.036   0.121   2.293 -0.2904  0.0902 -0.1867
 1421SOL     OW 5736   4.002   0.352   2.412  0.4187  0.0650 -0.0662
 1421SOL    HW2 5737   4.077   0.376   2.358 -0.5441 -0.2363 -1.5533
 1421SOL    HW3 5738   3.926   0.373   2.359 -0.5412 -0.6919  0.9763
 1421SOL    MW4 5739   4.002   0.358   2.398  0.1655 -0.0746 -0.1247
 1422SOL     OW 5740   4.222   0.479   2.264 -0.3202  0.0616 -0.2343
 1422SOL    HW2 5741   4.232   0.572   2.285 -2.2507  0.1312  0.4687
 1422SOL    HW3 5742   4.304   0.439   2.292  0.5683  1.5702 -0.6457
 1422SOL    MW4 5743   4.234   0.486   2.271 -0.4578  0.2698 -0.1957
 1423SOL     OW 5744   4.280   0.739   2.379 -0.2060 -0.3640 -0.2094
 1423SOL    HW2 5745   4.206   0.791   2.348 -0.0428  0.4179  0.6833
 1423SOL    HW3 5746   4.357   0.786   2.349 -0.0623 -0.4675 -0.0030
 1423SOL    MW4 5747   4.280   0.752   2.371 -0.1659 -0.2745 -0.0644
 1424SOL     OW 5748   4.039   0.843   2.239 -0.3737 -0.3546  0.1697
 1424SOL    HW2 5749   4.023   0.918   2.298 -0.7577 -1.0168  0.9192
 1424SOL    HW3 5750   4.032   0.880   2.151 -1.6262  0.2821  0.5279
 1424SOL    MW4 5751   4.036   0.858   2.235 -0.5894 -0.3580  0.3157
 1425SOL     OW 5752   4.035   1.080   2.396 -0.0588 -0.1311 -0.0868
 1425SOL    HW2 5753   4.035   1.088   2.491  0.3507  0.3082 -0.1182
 1425SOL    HW3 5754   3.958   1.129   2.368 -1.2168 -1.7966  0.1229
 1425SOL    MW4 5755   4.025   1.088   2.405 -0.1574 -0.2929 -0.0634
 1426SOL     OW 5756   4.241   1.251   2.288  0.0608  0.2669  0.2046
 1426SOL    HW2 5757   4.176   1.192   2.325  0.4100  0.1648  0.6622
 1426SOL    HW3 5758   4.325   1.214   2.316  0.3342  0.0178 -0.9510
 1426SOL    MW4 5759   4.244   1.238   2.297  0.1431  0.2207  0.1125
 1427SOL     OW 5760   4.285   1.518   2.404  0.3818  0.0922  0.0475
 1427SOL    HW2 5761   4.264   1.437   2.358 -0.2660  1.1576 -1.5594
 1427SOL    HW3 5762   4.372   1.541   2.372  0.2212  0.4725 -0.1117
 1427SOL    MW4 5763   4.294   1.510   2.394  0.2751  0.2828 -0.1855
 1428SOL     OW 5764   4.061   1.638   2.293 -0.0963 -0.1514 -0.0424
 1428SOL    HW2 5765   4.129   1.593   2.344  0.7234 -0.4519 -1.3739
 1428SOL    HW3 5766   3.980   1.592   2.314  0.2424 -0.3283  0.9077
 1428SOL    MW4 5767   4.060   1.626   2.302  0.0563 -0.2145 -0.0927
 1429SOL     OW 5768   4.063   1.902   2.387 -0.4059  0.2591 -0.0542
 1429SOL    HW2 5769   4.047   1.909   2.481  0.9901 -1.1691  0.3081
 1429SOL    HW3 5770   4.034   1.814   2.363  0.2449  0.2244 -0.7542
 1429SOL    MW4 5771   4.057   1.892   2.396 -0.1359  0.0663 -0.0987
 1430SOL     OW 5772   4.318   2.039   2.308  0.1662  0.4613  0.5742
 1430SOL    HW2 5773   4.290   2.131   2.315 -0.5771  0.1440  1.9925
 1430SOL    HW3 5774   4.243   1.989   2.338  0.5041 -0.6297 -0.3918
 1430SOL    MW4 5775   4.305   2.045   2.313  0.1130  0.2754  0.6337
 1431SOL     OW 5776   4.255   2.314   2.356 -0.5629 -0.1317  0.0325
 1431SOL    HW2 5777   4.176   2.362   2.332 -0.4851 -0.0918 -0.1455
 1431SOL    HW3 5778   4.326   2.362   2.315 -0.5452 -0.7715 -0.6984
 1431SOL    MW4 5779   4.254   2.327   2.348 -0.5503 -0.2108 -0.0875
 1432SOL     OW 5780   4.031   2.449   2.254 -0.1472 -0.3496  0.3103
 1432SOL    HW2 5781   4.023   2.539   2.286  0.3910  0.1023 -0.7858
 1432SOL    HW3 5782   3.964   2.400   2.302  0.2879  0.3994  1.7284
 1432SOL    MW4 5783   4.021   2.455   2.265 -0.0186 -0.1915  0.3526
 1433SOL     OW 5784   4.013   2.700   2.386  0.7131 -0.0163  0.1091
 1433SOL    HW2 5785   4.012   2.720   2.480  0.4739  0.0658  0.0895
 1433SOL    HW3 5786   3.962   2.770   2.346  0.6493 -0.1602 -0.0618
 1433SOL    MW4 5787   4.006   2.712   2.394  0.6733 -0.0241  0.0839
 1434SOL     OW 5788   4.239   2.840   2.303  0.4166  0.0211  0.5838
 1434SOL    HW2 5789   4.172   2.788   2.349  0.1656 -0.2327 -0.0678
 1434SOL    HW3 5790   4.320   2.791   2.315  0.0537 -0.8746 -0.6135
 1434SOL    MW4 5791   4.241   2.827   2.311  0.3352 -0.1307  0.3400
 1435SOL     OW 5792   4.229   3.116   2.368  0.5997  0.7374 -0.6632
 1435SOL    HW2 5793   4.232   3.023   2.347 -1.4157  0.5749 -0.2947
 1435SOL    HW3 5794   4.311   3.151   2.334  0.9450 -0.9962 -1.6406
 1435SOL    MW4 5795   4.240   3.108   2.361  0.3791  0.4873 -0.7434
 1436SOL     OW 5796   3.976   3.243   2.243  0.7233  0.0591  0.3681
 1436SOL    HW2 5797   3.965   3.332   2.277  0.5956 -0.1744  0.9428
 1436SOL    HW3 5798   4.061   3.214   2.275  1.0931  0.2443 -0.4378
 1436SOL    MW4 5799   3.986   3.251   2.252  0.7553  0.0527  0.3374
 1437SOL     OW 5800   4.024   3.482   2.391  0.3134 -0.2639 -0.0631
 1437SOL    HW2 5801   4.102   3.521   2.351  0.6115 -0.7887 -0.0038
 1437SOL    HW3 5802   3.951   3.535   2.359  0.5874 -0.4653 -1.0167
 1437SOL    MW4 5803   4.025   3.494   2.382  0.3891 -0.3598 -0.1812
 1438SOL     OW 5804   4.258   3.600   2.315 -0.5251  0.1805  0.3452
 1438SOL    HW2 5805   4.269   3.688   2.350 -0.6884  0.3005  0.0920
 1438SOL    HW3 5806   4.254   3.611   2.221  0.7355 -0.2324  0.2320
 1438SOL    MW4 5807   4.259   3.613   2.308 -0.3805  0.1419  0.2968
 1439SOL     OW 5808   4.253   3.850   2.409 -0.2359  0.2299 -0.2798
 1439SOL    HW2 5809   4.230   3.845   2.502  0.3081 -0.3939 -0.1731
 1439SOL    HW3 5810   4.327   3.910   2.405  1.5063 -1.8108  0.0523
 1439SOL    MW4 5811   4.260   3.857   2.421  0.0653 -0.1216 -0.2220
 1440SOL     OW 5812   4.035   3.972   2.266  0.0037 -0.2079 -0.1972
 1440SOL    HW2 5813   4.116   3.939   2.305 -0.3442 -0.6227  0.1703
 1440SOL    HW3 5814   4.050   3.966   2.171  0.6324  0.2798 -0.1341
 1440SOL    MW4 5815   4.047   3.967   2.258  0.0405 -0.1981 -0.1404
 1441SOL     OW 5816   4.021   4.226   2.350  0.1360  0.0828 -0.0543
 1441SOL    HW2 5817   4.106   4.261   2.321 -0.0507  0.6323  0.0492
 1441SOL    HW3 5818   4.018   4.137   2.315  0.2474  0.4678 -1.0586
 1441SOL    MW4 5819   4.032   4.219   2.341  0.1259  0.2060 -0.1729
 1442SOL     OW 5820   4.249   4.363   2.275 -0.3015  0.2223 -0.1145
 1442SOL    HW2 5821   4.260   4.453   2.306  1.1083  0.0018  0.0673
 1442SOL    HW3 5822   4.334   4.322   2.291 -0.0661 -0.3921 -2.6823
 1442SOL    MW4 5823   4.261   4.370   2.281 -0.0844  0.1121 -0.4294
 1443SOL     OW 5824   0.213   0.029   2.644 -0.0098  0.0855 -0.4341
 1443SOL    HW2 5825   0.220  -0.062   2.672 -0.0995  0.4925  0.9404
 1443SOL    HW3 5826   0.149   0.068   2.704 -1.0626  0.7022 -1.9177
 1443SOL    MW4 5827   0.205   0.022   2.656 -0.1605  0.2206 -0.4482
 1444SOL     OW 5828   4.483   0.142   2.753  0.0311  0.2054 -0.1671
 1444SOL    HW2 5829   4.498   0.156   2.847  0.8355 -1.4740 -0.0334
 1444SOL    HW3 5830   4.479   0.230   2.717  0.0211  0.8763  1.4014
 1444SOL    MW4 5831   4.484   0.156   2.761  0.1354  0.0723  0.0575
 1445SOL     OW 5832   4.487   0.384   2.629 -0.1924 -0.0022  0.0139
 1445SOL    HW2 5833   4.573   0.418   2.654  0.9304 -1.9091 -1.1584
 1445SOL    HW3 5834   4.484   0.397   2.534 -0.1433 -2.2093 -0.3133
 1445SOL    MW4 5835   4.498   0.390   2.620 -0.0378 -0.5450 -0.1841
 1446SOL     OW 5836   0.231   0.517   2.707  0.4373 -0.4606 -0.3792
 1446SOL    HW2 5837   0.233   0.502   2.801 -0.3770 -0.3116 -0.3336
 1446SOL    HW3 5838   0.316   0.485   2.676  0.7944 -0.3073  0.4295
 1446SOL    MW4 5839   0.242   0.511   2.715  0.3770 -0.4207 -0.2663
 1447SOL     OW 5840   0.243   0.775   2.594  0.2075  0.0345 -0.4091
 1447SOL    HW2 5841   0.321   0.811   2.636 -0.4952  0.5012  0.5325
 1447SOL    HW3 5842   0.236   0.686   2.629 -0.7061  0.6168  0.9802
 1447SOL    MW4 5843   0.252   0.768   2.604 -0.0058  0.1729 -0.1016
 1448SOL     OW 5844   0.044   0.902   2.759  0.1530 -0.0894 -0.2703
 1448SOL    HW2 5845  -0.037   0.858   2.732 -0.6309  1.2564 -0.1585
 1448SOL    HW3 5846   0.113   0.859   2.708 -0.5733 -1.5538 -0.0288
 1448SOL    MW4 5847   0.043   0.891   2.748 -0.0463 -0.1050 -0.2239
 1449SOL     OW 5848   4.460   1.131   2.655 -0.2346 -0.2430 -0.1113
 1449SOL    HW2 5849   4.524   1.195   2.687 -0.0605  0.3315 -1.5486
 1449SOL    HW3 5850   4.495   1.047   2.682  1.0287  0.0885 -0.6752
 1449SOL    MW4 5851   4.473   1.128   2.663 -0.0453 -0.1235 -0.3753
 1450SOL     OW 5852   0.177   1.277   2.758  0.3838  0.3595  0.1526
 1450SOL    HW2 5853   0.244   1.220   2.721 -0.3658 -1.5576  1.6398
 1450SOL    HW3 5854   0.177   1.354   2.702  1.1110 -1.3071 -2.2115
 1450SOL    MW4 5855   0.185   1.280   2.746  0.3808 -0.1134  0.0367
 1451SOL     OW 5856   0.218   1.517   2.648  0.1563 -0.2873 -0.4894
 1451SOL    HW2 5857   0.302   1.527   2.692 -0.5957 -0.6665  1.0713
 1451SOL    HW3 5858   0.158   1.573   2.697 -0.6982 -0.7020 -1.0468
 1451SOL    MW4 5859   0.221   1.526   2.660 -0.0557 -0.3922 -0.3569
 1452SOL     OW 5860   0.023   1.644   2.783 -0.5637  0.1613 -0.1118
 1452SOL    HW2 5861   0.026   1.646   2.878 -0.2488  0.6026 -0.1309
 1452SOL    HW3 5862   0.020   1.736   2.757  1.2824  0.1105 -0.5872
 1452SOL    MW4 5863   0.023   1.657   2.792 -0.2780  0.2129 -0.1767
 1453SOL     OW 5864   0.007   1.908   2.687  0.0839 -0.3267  0.2515
 1453SOL    HW2 5865   0.092   1.932   2.725 -0.0119  1.3883 -0.5482
 1453SOL    HW3 5866   0.023   1.908   2.592 -0.9949  0.8290  0.0550
 1453SOL    MW4 5867   0.021   1.912   2.679 -0.0706  0.0522  0.1204
 1454SOL     OW 5868   0.247   1.985   2.804 -0.1122  0.2994 -0.3910
 1454SOL    HW2 5869   0.324   1.943   2.766  1.0306  1.4803  0.5302
 1454SOL    HW3 5870   0.239   2.068   2.756 -0.4277  0.4552 -0.0683
 1454SOL    MW4 5871   0.256   1.990   2.793 -0.0030  0.4759 -0.2270
 1455SOL     OW 5872   0.200   2.238   2.684 -0.1856  0.2493 -0.3201
 1455SOL    HW2 5873   0.276   2.292   2.706 -1.2017  1.5240  0.1264
 1455SOL    HW3 5874   0.125   2.288   2.715 -1.3139 -0.2989 -2.1070
 1455SOL    MW4 5875   0.200   2.252   2.691 -0.4685  0.3455 -0.4971
 1456SOL     OW 5876   0.004   2.389   2.780  0.1561 -0.3312 -0.0615
 1456SOL    HW2 5877   0.000   2.394   2.876 -0.0029  0.4773 -0.1108
 1456SOL    HW3 5878  -0.079   2.349   2.755  0.6032 -1.4441  0.1979
 1456SOL    MW4 5879  -0.007   2.384   2.789  0.1942 -0.3715 -0.0336
 1457SOL     OW 5880   0.032   2.638   2.666  0.1679 -0.1624 -0.7339
 1457SOL    HW2 5881  -0.043   2.680   2.706  0.8428  0.3906 -0.0356
 1457SOL    HW3 5882   0.026   2.546   2.694 -0.2422 -0.1190 -0.6804
 1457SOL    MW4 5883   0.022   2.631   2.675  0.2029 -0.0834 -0.6344
 1458SOL     OW 5884   0.248   2.800   2.719 -0.0898 -0.4464  0.1147
 1458SOL    HW2 5885   0.211   2.879   2.678  0.1501 -1.3652 -1.9154
 1458SOL    HW3 5886   0.178   2.735   2.713  0.0909 -0.7126  0.8354
 1458SOL    MW4 5887   0.234   2.802   2.713 -0.0343 -0.6030 -0.0582
 1459SOL     OW 5888   0.193   3.061   2.631 -0.0635  0.1105  0.6986
 1459SOL    HW2 5889   0.277   3.092   2.665 -0.1762  0.0093  1.0723
 1459SOL    HW3 5890   0.201   3.069   2.536  0.0800  0.8464  0.7705
 1459SOL    MW4 5891   0.205   3.066   2.623 -0.0595  0.1941  0.7575
 1460SOL     OW 5892   4.471   3.171   2.767  0.0544 -0.1286  0.1759
 1460SOL    HW2 5893   4.389   3.137   2.732  0.3835  0.1502 -0.9190
 1460SOL    HW3 5894   4.539   3.126   2.715  0.5987 -0.5709  1.2611
 1460SOL    MW4 5895   4.469   3.161   2.755  0.1693 -0.1502  0.1748
 1461SOL     OW 5896   4.489   3.419   2.619 -0.3847  0.0089 -0.0798
 1461SOL    HW2 5897   4.568   3.463   2.649 -1.3956  1.5710  0.3773
 1461SOL    HW3 5898   4.488   3.336   2.665  0.2474  0.5941  0.9941
 1461SOL    MW4 5899   4.499   3.414   2.629 -0.4347  0.2918  0.1223
 1462SOL     OW 5900   0.203   3.593   2.724 -0.0898  0.4244 -0.3913
 1462SOL    HW2 5901   0.193   3.608   2.818 -0.3691 -0.5160 -0.2666
 1462SOL    HW3 5902   0.287   3.549   2.716 -1.5152 -2.4177 -0.2428
 1462SOL    MW4 5903   0.213   3.589   2.735 -0.3147 -0.0744 -0.3552
 1463SOL     OW 5904   0.214   3.867   2.658 -0.1406 -0.5585 -0.0375
 1463SOL    HW2 5905   0.211   3.775   2.685  1.8138 -0.7444 -0.3557
 1463SOL    HW3 5906   0.207   3.865   2.563  0.1119 -0.4091 -0.0614
 1463SOL    MW4 5907   0.213   3.854   2.649  0.1506 -0.5631 -0.0825
 1464SOL     OW 5908   0.004   4.040   2.738 -0.3679 -0.0806 -0.5310
 1464SOL    HW2 5909   0.019   4.132   2.714  1.7665 -0.9067 -2.6874
 1464SOL    HW3 5910   0.081   3.994   2.704 -1.0165 -2.5695  1.2128
 1464SOL    MW4 5911   0.016   4.046   2.730 -0.1719 -0.5178 -0.5856
 1465SOL     OW 5912   0.019   4.292   2.640  0.0738 -0.4384 -0.2785
 1465SOL    HW2 5913  -0.057   4.350   2.650 -0.6886 -1.2621 -1.1581
 1465SOL    HW3 5914   0.093   4.344   2.669 -0.7043  0.7166 -0.3287
 1465SOL    MW4 5915   0.018   4.306   2.645 -0.1295 -0.3948 -0.4010
 1466SOL     OW 5916   0.230   4.435   2.736  0.3883 -0.5845  0.4472
 1466SOL    HW2 5917   0.221   4.417   2.830  0.6809 -1.6117  0.2923
 1466SOL    HW3 5918   0.290   4.367   2.705 -1.3381 -1.5462 -0.8815
 1466SOL    MW4 5919   0.237   4.423   2.744  0.1991 -0.8469  0.2518
 1467SOL     OW 5920   0.655   4.666   2.667 -0.4833  0.1746  0.1861
 1467SOL    HW2 5921   0.738   4.709   2.686  0.2345 -0.6122 -1.0712
 1467SOL    HW3 5922   0.588   4.725   2.703  0.6127  0.7679  1.2839
 1467SOL    MW4 5923   0.657   4.680   2.674 -0.2440  0.1488  0.1652
 1468SOL     OW 5924   0.435   0.162   2.755  0.4172  0.0751  0.3286
 1468SOL    HW2 5925   0.420   0.138   2.847  0.5504  0.2667  0.3992
 1468SOL    HW3 5926   0.369   0.112   2.707  1.0471 -0.8751  0.4235
 1468SOL    MW4 5927   0.424   0.152   2.761  0.5179 -0.0250  0.3505
 1469SOL     OW 5928   0.466   0.400   2.622 -0.0047 -0.6788 -0.2403
 1469SOL    HW2 5929   0.534   0.442   2.676  0.2692 -1.2609 -0.1355
 1469SOL    HW3 5930   0.449   0.316   2.665 -0.7938 -0.5373 -0.2718
 1469SOL    MW4 5931   0.473   0.395   2.635 -0.0727 -0.7369 -0.2308
 1470SOL     OW 5932   0.661   0.537   2.772 -0.2924 -0.4106 -0.4783
 1470SOL    HW2 5933   0.655   0.528   2.867 -0.6005 -2.9328 -0.7146
 1470SOL    HW3 5934   0.746   0.500   2.749 -0.0104  0.6321 -1.1504
 1470SOL    MW4 5935   0.671   0.531   2.782 -0.2959 -0.6058 -0.5980
 1471SOL     OW 5936   0.685   0.772   2.623  0.0917 -0.5379 -0.1178
 1471SOL    HW2 5937   0.751   0.818   2.675 -1.2070  1.1358  0.0746
 1471SOL    HW3 5938   0.674   0.688   2.668  0.0024  0.3247  1.5181
 1471SOL    MW4 5939   0.692   0.767   2.636 -0.0914 -0.2033  0.1235
 1472SOL     OW 5940   0.456   0.900   2.733  0.2036  0.3307  0.1861
 1472SOL    HW2 5941   0.445   0.994   2.718  1.3429  0.3537 -0.5162
 1472SOL    HW3 5942   0.539   0.878   2.691 -0.4351 -1.1437 -0.3453
 1472SOL    MW4 5943   0.465   0.910   2.725  0.2697  0.1392  0.0236
 1473SOL     OW 5944   0.432   1.183   2.664  0.0554  0.0884  0.3297
 1473SOL    HW2 5945   0.515   1.211   2.704  0.0975 -0.6172  0.7602
 1473SOL    HW3 5946   0.456   1.159   2.575  0.1672  0.6400  0.2084
 1473SOL    MW4 5947   0.446   1.183   2.658  0.0757  0.0681  0.3705
 1474SOL     OW 5948   0.691   1.245   2.753  0.4232  0.4670 -0.4066
 1474SOL    HW2 5949   0.693   1.250   2.849  0.6098  0.0110 -0.3870
 1474SOL    HW3 5950   0.762   1.186   2.730 -1.7202 -2.1241 -0.6273
 1474SOL    MW4 5951   0.700   1.238   2.763  0.1650  0.0651 -0.4330
 1475SOL     OW 5952   0.672   1.500   2.670  0.0159  0.1679 -0.7414
 1475SOL    HW2 5953   0.594   1.530   2.718  1.7151  1.2340  1.4306
 1475SOL    HW3 5954   0.682   1.408   2.696 -0.0253  0.2768 -0.3327
 1475SOL    MW4 5955   0.663   1.492   2.680  0.2347  0.3231 -0.4008
 1476SOL     OW 5956   0.448   1.618   2.776  0.6042 -0.2094 -0.2255
 1476SOL    HW2 5957   0.451   1.617   2.871  1.4535  0.7521 -0.2362
 1476SOL    HW3 5958   0.427   1.708   2.753 -0.3193 -0.5933 -0.9446
 1476SOL    MW4 5959   0.446   1.630   2.785  0.5944 -0.1333 -0.3216
 1477SOL     OW 5960   0.457   1.883   2.660 -0.2099 -0.4989  0.3501
 1477SOL    HW2 5961   0.541   1.927   2.677 -0.0315 -0.9559  0.6596
 1477SOL    HW3 5962   0.452   1.880   2.564  0.5823 -1.3120  0.3221
 1477SOL    MW4 5963   0.468   1.888   2.649 -0.0818 -0.6664  0.3872
 1478SOL     OW 5964   0.686   2.032   2.699 -0.1395 -0.4819 -0.1287
 1478SOL    HW2 5965   0.687   2.031   2.795 -0.3053 -0.1885 -0.1246
 1478SOL    HW3 5966   0.768   1.990   2.674 -0.5697 -1.4783  0.1351
 1478SOL    MW4 5967   0.697   2.026   2.708 -0.2182 -0.5746 -0.0935
 1479SOL     OW 5968   0.677   2.300   2.640 -0.2702 -0.0459 -0.3982
 1479SOL    HW2 5969   0.747   2.347   2.684 -0.5607  0.6964 -0.7197
 1479SOL    HW3 5970   0.695   2.208   2.657  0.4612  0.1706 -0.0026
 1479SOL    MW4 5971   0.689   2.294   2.648 -0.2120  0.0806 -0.3886
 1480SOL     OW 5972   0.424   2.393   2.754  0.5892 -0.0645 -0.6012
 1480SOL    HW2 5973   0.443   2.475   2.708 -0.0846  0.0967 -0.6060
 1480SOL    HW3 5974   0.490   2.331   2.722  1.1964  0.5181 -0.4814
 1480SOL    MW4 5975   0.435   2.396   2.744  0.5804  0.0339 -0.5863
 1481SOL     OW 5976   0.464   2.668   2.608  0.4582 -0.2282 -0.2099
 1481SOL    HW2 5977   0.547   2.704   2.639 -0.0061  0.8468 -0.1882
 1481SOL    HW3 5978   0.397   2.717   2.657 -0.2274  0.0488 -1.3992
 1481SOL    MW4 5979   0.466   2.679   2.619  0.3065 -0.0498 -0.3641
 1482SOL     OW 5980   0.674   2.780   2.721 -0.5318 -0.1095  1.0579
 1482SOL    HW2 5981   0.673   2.766   2.816 -1.4071 -0.6478  0.9649
 1482SOL    HW3 5982   0.697   2.873   2.712 -1.1732  0.1307  1.8140
 1482SOL    MW4 5983   0.677   2.791   2.732 -0.7319 -0.1488  1.1454
 1483SOL     OW 5984   0.717   3.063   2.654  0.3384  0.5069 -0.1686
 1483SOL    HW2 5985   0.787   3.103   2.705  1.2607 -0.5124 -0.6192
 1483SOL    HW3 5986   0.739   3.083   2.563 -0.7253  1.3956 -0.2412
 1483SOL    MW4 5987   0.729   3.071   2.648  0.3197  0.4897 -0.2377
 1484SOL     OW 5988   0.448   3.184   2.707  0.4079  0.0359 -0.2448
 1484SOL    HW2 5989   0.443   3.178   2.803 -0.1232 -2.5913 -0.3834
 1484SOL    HW3 5990   0.527   3.134   2.685  0.8278  1.0942 -1.1561
 1484SOL    MW4 5991   0.458   3.176   2.717  0.3932 -0.1712 -0.3834
 1485SOL     OW 5992   0.425   3.472   2.628 -1.0672  0.3042  0.0001
 1485SOL    HW2 5993   0.437   3.377   2.631 -0.9874  0.3068 -0.1847
 1485SOL    HW3 5994   0.418   3.491   2.534  0.0683  0.6125 -0.0275
 1485SOL    MW4 5995   0.426   3.462   2.616 -0.9069  0.3452 -0.0279
 1486SOL     OW 5996   0.652   3.611   2.741  0.0284 -0.6512 -0.3753
 1486SOL    HW2 5997   0.634   3.606   2.835  0.8112 -0.0826 -0.1926
 1486SOL    HW3 5998   0.591   3.548   2.702 -2.3314  1.2215  0.2065
 1486SOL    MW4 5999   0.642   3.602   2.748 -0.1796 -0.3293 -0.2742
 1487SOL     OW 6000   0.653   3.901   2.634  0.1366 -0.2004 -0.3266
 1487SOL    HW2 6001   0.589   3.958   2.677  2.5240  1.2795  1.3810
 1487SOL    HW3 6002   0.639   3.815   2.675 -0.4412  0.2364  0.4086
 1487SOL    MW4 6003   0.643   3.897   2.645  0.3754  0.0525 -0.0043
 1488SOL     OW 6004   0.444   3.998   2.779  0.0784 -0.1981 -0.4069
 1488SOL    HW2 6005   0.424   4.086   2.747 -1.5034 -0.8402 -1.2697
 1488SOL    HW3 6006   0.383   3.941   2.732 -1.3523 -1.3526  2.6976
 1488SOL    MW4 6007   0.433   4.002   2.769 -0.3191 -0.4349 -0.1113
 1489SOL     OW 6008   0.440   4.252   2.689  0.5599 -0.3866  0.0700
 1489SOL    HW2 6009   0.500   4.313   2.732  1.0013 -0.8820  0.1512
 1489SOL    HW3 6010   0.452   4.270   2.595 -0.7808  1.0563  0.1366
 1489SOL    MW4 6011   0.450   4.263   2.682  0.4413 -0.2618  0.0894
 1490SOL     OW 6012   0.662   4.408   2.778 -0.2872  0.0946  0.1026
 1490SOL    HW2 6013   0.743   4.365   2.750  0.3198 -0.6570  2.8894
 1490SOL    HW3 6014   0.665   4.494   2.735  2.5093  0.4848  0.9524
 1490SOL    MW4 6015   0.673   4.414   2.769  0.1619  0.0467  0.5825
 1491SOL     OW 6016   1.149   4.619   2.627  0.6505 -0.1448  0.7170
 1491SOL    HW2 6017   1.228   4.646   2.674 -1.5112  1.9740  3.3767
 1491SOL    HW3 6018   1.124   4.536   2.667  1.7283 -0.9844 -0.3646
 1491SOL    MW4 6019   1.156   4.612   2.638  0.5076  0.0243  0.9251
 1492SOL     OW 6020   0.911   0.097   2.711  0.2383  0.1124  0.7195
 1492SOL    HW2 6021   0.903   0.089   2.806  0.8444 -1.2718  0.6691
 1492SOL    HW3 6022   0.988   0.044   2.690  0.8649  1.4615 -0.3958
 1492SOL    MW4 6023   0.920   0.089   2.721  0.4009  0.1078  0.5658
 1493SOL     OW 6024   0.870   0.382   2.656 -0.0044  0.7255 -0.4600
 1493SOL    HW2 6025   0.894   0.293   2.682 -1.4416  0.8659  1.4254
 1493SOL    HW3 6026   0.843   0.373   2.565 -1.5550 -1.0597  0.1347
 1493SOL    MW4 6027   0.870   0.369   2.647 -0.3985  0.5085 -0.1328
 1494SOL     OW 6028   1.128   0.487   2.724 -0.5358  0.3565  0.3688
 1494SOL    HW2 6029   1.119   0.578   2.697 -0.6702  0.2198 -0.0477
 1494SOL    HW3 6030   1.044   0.447   2.701 -0.1545 -0.0822 -0.2642
 1494SOL    MW4 6031   1.116   0.494   2.717 -0.5033  0.2806  0.2306
 1495SOL     OW 6032   1.116   0.773   2.673  0.2638 -0.2186 -0.1720
 1495SOL    HW2 6033   1.199   0.794   2.716 -0.4689  1.2458  0.5428
 1495SOL    HW3 6034   1.139   0.763   2.580  0.9152  2.1337 -0.2908
 1495SOL    MW4 6035   1.130   0.774   2.666  0.2531  0.2850 -0.0935
 1496SOL     OW 6036   0.887   0.878   2.771 -0.0034  0.0335 -0.2514
 1496SOL    HW2 6037   0.900   0.886   2.865  1.4546  0.2101 -0.4457
 1496SOL    HW3 6038   0.966   0.834   2.739  0.9419  2.7030 -1.7652
 1496SOL    MW4 6039   0.899   0.874   2.779  0.3136  0.4090 -0.4766
 1497SOL     OW 6040   0.964   1.140   2.682  0.0540  0.0133  0.3481
 1497SOL    HW2 6041   0.961   1.046   2.701 -0.3315  0.2918  1.7977
 1497SOL    HW3 6042   0.953   1.146   2.588  1.4208 -1.4608  0.0828
 1497SOL    MW4 6043   0.962   1.128   2.672  0.1835 -0.1444  0.5045
 1498SOL     OW 6044   1.182   1.304   2.737  0.0807 -0.3061  0.0949
 1498SOL    HW2 6045   1.170   1.387   2.690  0.0305  0.2754  1.1118
 1498SOL    HW3 6046   1.102   1.255   2.720  1.0008 -1.0710 -2.2990
 1498SOL    MW4 6047   1.170   1.308   2.729  0.1954 -0.3302 -0.0870
 1499SOL     OW 6048   1.147   1.569   2.622  0.6006 -0.4142  0.2338
 1499SOL    HW2 6049   1.063   1.607   2.644  0.3934 -0.0475 -1.1096
 1499SOL    HW3 6050   1.145   1.561   2.526  1.3669 -2.0782  0.3313
 1499SOL    MW4 6051   1.136   1.573   2.612  0.6744 -0.5854  0.0696
 1500SOL     OW 6052   0.890   1.647   2.733  0.0441  0.7461 -0.0567
 1500SOL    HW2 6053   0.893   1.664   2.828 -0.6060  0.5827 -0.0052
 1500SOL    HW3 6054   0.810   1.597   2.721  1.0217 -0.7339 -0.4561
 1500SOL    MW4 6055   0.880   1.643   2.744  0.0873  0.5292 -0.1028
 1501SOL     OW 6056   0.904   1.889   2.605 -0.3998 -0.1342  0.0312
 1501SOL    HW2 6057   0.980   1.928   2.647 -0.7904 -0.1589  0.7557
 1501SOL    HW3 6058   0.905   1.797   2.634 -0.7418 -0.1196  0.0909
 1501SOL    MW4 6059   0.914   1.882   2.614 -0.4964 -0.1354  0.1347
 1502SOL     OW 6060   1.108   1.999   2.725 -0.4337 -0.3978 -0.1138
 1502SOL    HW2 6061   1.195   1.969   2.698 -0.8657 -1.1338 -0.7173
 1502SOL    HW3 6062   1.110   2.094   2.713  0.2489 -0.4248 -0.2242
 1502SOL    MW4 6063   1.119   2.007   2.720 -0.4007 -0.4985 -0.2079
 1503SOL     OW 6064   1.118   2.277   2.673 -0.1993  0.4088  0.0221
 1503SOL    HW2 6065   1.200   2.322   2.697 -0.2907  0.0766  0.9857
 1503SOL    HW3 6066   1.117   2.278   2.578  0.1729  1.7893  0.0234
 1503SOL    MW4 6067   1.129   2.283   2.664 -0.1625  0.5472  0.1495
 1504SOL     OW 6068   0.899   2.413   2.768 -0.3617  0.2067 -0.0788
 1504SOL    HW2 6069   0.892   2.502   2.732  0.2516  0.0638 -0.5364
 1504SOL    HW3 6070   0.973   2.374   2.724  0.1052 -0.1373  0.9858
 1504SOL    MW4 6071   0.908   2.420   2.758 -0.2192  0.1423  0.0012
 1505SOL     OW 6072   0.896   2.649   2.640 -0.6879 -0.0573 -0.0241
 1505SOL    HW2 6073   0.964   2.703   2.680  0.2443  0.6159 -2.4163
 1505SOL    HW3 6074   0.815   2.697   2.655  0.0357  1.6448 -1.4428
 1505SOL    MW4 6075   0.894   2.662   2.647 -0.4694  0.2558 -0.5269
 1506SOL     OW 6076   1.087   2.815   2.738  0.0802  0.4112  0.3500
 1506SOL    HW2 6077   1.090   2.822   2.833  0.8069 -0.2469  0.3875
 1506SOL    HW3 6078   1.169   2.769   2.715 -0.8645 -0.9230 -0.4471
 1506SOL    MW4 6079   1.098   2.810   2.748  0.0515  0.1485  0.2499
 1507SOL     OW 6080   1.148   3.096   2.680  0.0000  0.0000  0.3228
 1507SOL    HW2 6081   1.122   3.007   2.702  0.0000  0.0000  0.3371
 1507SOL    HW3 6082   1.136   3.101   2.585  0.0000  0.0000  0.3226
 1507SOL    MW4 6083   1.143   3.085   2.670  0.0000  0.0000  0.3245
 1508SOL     OW 6084   0.919   3.208   2.794  0.0000  0.0000  0.0755
 1508SOL    HW2 6085   0.903   3.287   2.742  0.0000  0.0000  0.0633
 1508SOL    HW3 6086   1.006   3.179   2.767  0.0000  0.0000  0.0915
 1508SOL    MW4 6087   0.928   3.215   2.784  0.0000  0.0000  0.0761
 1509SOL     OW 6088   0.887   3.462   2.672  0.0000  0.0000 -0.4806
 1509SOL    HW2 6089   0.961   3.509   2.712  0.0000  0.0000 -0.4613
 1509SOL    HW3 6090   0.810   3.512   2.700  0.0000  0.0000 -0.5180
 1509SOL    MW4 6091   0.887   3.475   2.681  0.0000  0.0000 -0.4828
 1510SOL     OW 6092   1.102   3.599   2.761  0.0000  0.0000  0.2140
 1510SOL    HW2 6093   1.101   3.626   2.853  0.0000  0.0000  0.2143
 1510SOL    HW3 6094   1.100   3.681   2.712  0.0000  0.0000  0.2144
 1510SOL    MW4 6095   1.102   3.613   2.766  0.0000  0.0000  0.2141
 1511SOL     OW 6096   1.098   3.851   2.610  0.0000  0.0000 -0.5854
 1511SOL    HW2 6097   1.178   3.889   2.648  0.0000  0.0000 -0.5947
 1511SOL    HW3 6098   1.110   3.859   2.515  0.0000  0.0000 -0.5869
 1511SOL    MW4 6099   1.110   3.857   2.603  0.0000  0.0000 -0.5865
 1512SOL     OW 6100   0.893   4.008   2.762  0.0000  0.0000 -0.2370
 1512SOL    HW2 6101   0.957   3.963   2.707  0.0000  0.0000 -0.2312
 1512SOL    HW3 6102   0.809   3.969   2.736  0.0000  0.0000 -0.2531
 1512SOL    MW4 6103   0.890   3.997   2.752  0.0000  0.0000 -0.2382
 1513SOL     OW 6104   0.888   4.266   2.670  0.0000  0.0000 -0.0665
 1513SOL    HW2 6105   0.892   4.173   2.695  0.0000  0.0000 -0.0761
 1513SOL    HW3 6106   0.884   4.265   2.575  0.0000  0.0000 -0.0668
 1513SOL    MW4 6107   0.888   4.254   2.661  0.0000  0.0000 -0.0679
 1514SOL     OW 6108   1.144   4.351   2.737  0.0000  0.0000  0.3188
 1514SOL    HW2 6109   1.137   4.378   2.829  0.0000  0.0000  0.3189
 1514SOL    HW3 6110   1.055   4.327   2.712  0.0000  0.0000  0.3158
 1514SOL    MW4 6111   1.131   4.351   2.746  0.0000  0.0000  0.3185
 1515SOL     OW 6112   1.593   4.643   2.626  0.0000  0.0000  0.2364
 1515SOL    HW2 6113   1.588   4.549   2.642  0.0000  0.0000  0.2401
 1515SOL    HW3 6114   1.581   4.652   2.531  0.0000  0.0000  0.2360
 1515SOL    MW4 6115   1.591   4.632   2.616  0.0000  0.0000  0.2370
 1516SOL     OW 6116   1.347   0.090   2.749  0.1875 -0.2532  0.5340
 1516SOL    HW2 6117   1.331   0.179   2.715 -2.6957 -0.7881  0.3172
 1516SOL    HW3 6118   1.432   0.066   2.713  0.5368  2.0264 -0.2934
 1516SOL    MW4 6119   1.356   0.099   2.740 -0.1469 -0.0230  0.3963
 1517SOL     OW 6120   1.348   0.351   2.638 -0.1441  0.3337 -0.0801
 1517SOL    HW2 6121   1.413   0.414   2.670  0.2412 -0.1313  0.0405
 1517SOL    HW3 6122   1.264   0.396   2.650  0.0668  0.5169  0.7341
 1517SOL    MW4 6123   1.345   0.366   2.644 -0.0656  0.2966  0.0434
 1518SOL     OW 6124   1.556   0.508   2.724 -0.1337 -0.3354 -0.0480
 1518SOL    HW2 6125   1.637   0.464   2.696  0.8691  0.6390  1.2213
 1518SOL    HW3 6126   1.563   0.596   2.687 -0.9803 -0.4861 -0.5700
 1518SOL    MW4 6127   1.568   0.514   2.716 -0.1131 -0.2267  0.0508
 1519SOL     OW 6128   1.569   0.765   2.647 -0.3956 -0.4783  0.1435
 1519SOL    HW2 6129   1.488   0.798   2.687 -0.2439 -0.3624  0.3541
 1519SOL    HW3 6130   1.569   0.802   2.559  0.0856  0.6001  0.5881
 1519SOL    MW4 6131   1.558   0.774   2.641 -0.3122 -0.3207  0.2301
 1520SOL     OW 6132   1.352   0.883   2.786  0.2695 -0.4736 -0.1296
 1520SOL    HW2 6133   1.350   0.879   2.882 -0.0445  0.0617 -0.1135
 1520SOL    HW3 6134   1.365   0.976   2.766 -0.9984 -0.4019 -0.6227
 1520SOL    MW4 6135   1.354   0.895   2.796  0.0607 -0.3935 -0.1926
 1521SOL     OW 6136   1.377   1.129   2.666  0.2386  0.1447  0.2441
 1521SOL    HW2 6137   1.463   1.161   2.693  0.6730 -1.6193  0.9745
 1521SOL    HW3 6138   1.318   1.201   2.687  1.3875  0.9973  0.6299
 1521SOL    MW4 6139   1.381   1.143   2.672  0.4476  0.0244  0.3915
 1522SOL     OW 6140   1.626   1.232   2.738 -0.0969  0.4800 -0.0936
 1522SOL    HW2 6141   1.628   1.223   2.833 -0.9627  0.6066 -0.0553
 1522SOL    HW3 6142   1.701   1.182   2.706 -1.1916 -1.5770  0.4996
 1522SOL    MW4 6143   1.636   1.224   2.746 -0.3555  0.2253 -0.0105
 1523SOL     OW 6144   1.590   1.504   2.671  0.6201 -0.0874  0.2016
 1523SOL    HW2 6145   1.606   1.412   2.690  0.3392 -0.3243 -0.6902
 1523SOL    HW3 6146   1.581   1.508   2.576  0.0615  0.7734  0.2850
 1523SOL    MW4 6147   1.591   1.492   2.661  0.5093 -0.0050  0.0949
 1524SOL     OW 6148   1.383   1.640   2.773  0.0193  0.4940 -0.5937
 1524SOL    HW2 6149   1.459   1.588   2.746  0.4078  0.9599 -0.4295
 1524SOL    HW3 6150   1.310   1.605   2.723  0.4259  0.3028 -1.0614
 1524SOL    MW4 6151   1.384   1.629   2.763  0.1242  0.5301 -0.6337
 1525SOL     OW 6152   1.347   1.897   2.668 -0.0978  0.0060  0.2806
 1525SOL    HW2 6153   1.364   1.806   2.693 -2.9407 -0.1199  2.0118
 1525SOL    HW3 6154   1.326   1.893   2.575  2.5425 -0.6965 -0.3090
 1525SOL    MW4 6155   1.346   1.884   2.659 -0.1245 -0.1032  0.4311
 1526SOL     OW 6156   1.567   2.049   2.747 -0.2110 -0.4130  0.4622
 1526SOL    HW2 6157   1.645   1.995   2.735  0.2886  0.5259 -0.5461
 1526SOL    HW3 6158   1.496   1.997   2.709  0.3813 -0.0661 -1.1680
 1526SOL    MW4 6159   1.568   2.035   2.741 -0.0669 -0.2432  0.1142
 1527SOL     OW 6160   1.575   2.326   2.649 -0.2990 -0.6360 -0.1250
 1527SOL    HW2 6161   1.662   2.353   2.680 -1.1779  0.6441  1.2958
 1527SOL    HW3 6162   1.562   2.240   2.688 -0.1921 -0.2751  0.7234
 1527SOL    MW4 6163   1.585   2.318   2.659 -0.4009 -0.4196  0.1745
 1528SOL     OW 6164   1.335   2.424   2.747  0.3405  0.2828 -0.5953
 1528SOL    HW2 6165   1.321   2.517   2.727  1.0041  0.6814  0.7746
 1528SOL    HW3 6166   1.427   2.408   2.724 -0.0064 -0.2532 -1.6344
 1528SOL    MW4 6167   1.345   2.434   2.741  0.3824  0.2646 -0.5519
 1529SOL     OW 6168   1.331   2.691   2.654  0.3288  0.1992 -0.1351
 1529SOL    HW2 6169   1.403   2.745   2.685  0.1300  0.9560 -0.9899
 1529SOL    HW3 6170   1.335   2.697   2.559 -1.6279  1.2414 -0.1647
 1529SOL    MW4 6171   1.341   2.699   2.646  0.0443  0.4365 -0.2518
 1530SOL     OW 6172   1.552   2.838   2.751  0.4593  0.0633  0.1429
 1530SOL    HW2 6173   1.560   2.839   2.846  0.8052  2.0650  0.1269
 1530SOL    HW3 6174   1.629   2.790   2.721  0.4263 -0.4510  0.8719
 1530SOL    MW4 6175   1.564   2.832   2.760  0.5006  0.2596  0.2370
 1531SOL     OW 6176   1.558   3.088   2.679 -0.3697  0.0948  0.1795
 1531SOL    HW2 6177   1.638   3.124   2.717 -0.7366  0.4952  0.5864
 1531SOL    HW3 6178   1.559   2.996   2.705 -0.0824  0.1186  0.2565
 1531SOL    MW4 6179   1.569   3.081   2.688 -0.3803  0.1507  0.2432
 1532SOL     OW 6180   1.347   3.238   2.785 -0.2307  0.2391 -0.4803
 1532SOL    HW2 6181   1.424   3.192   2.750  0.0112 -0.8893  1.4453
 1532SOL    HW3 6182   1.272   3.188   2.754 -0.2177  1.3070 -2.3157
 1532SOL    MW4 6183   1.348   3.225   2.776 -0.1972  0.2310 -0.4685
 1533SOL     OW 6184   1.337   3.503   2.671 -0.0190  0.3661  0.2633
 1533SOL    HW2 6185   1.335   3.410   2.694 -0.5743  0.1484 -0.6173
 1533SOL    HW3 6186   1.250   3.536   2.693  0.0572  0.5896  0.2345
 1533SOL    MW4 6187   1.326   3.495   2.677 -0.0823  0.3667  0.1435
 1534SOL     OW 6188   1.545   3.632   2.782  0.1654 -0.3143 -0.0294
 1534SOL    HW2 6189   1.609   3.588   2.726 -0.4652 -2.1834  0.6780
 1534SOL    HW3 6190   1.460   3.600   2.750 -0.2218 -0.9520  1.5999
 1534SOL    MW4 6191   1.542   3.622   2.770  0.0312 -0.6449  0.2792
 1535SOL     OW 6192   1.519   3.843   2.621 -0.0131  0.1612 -0.1702
 1535SOL    HW2 6193   1.458   3.900   2.668  0.6998  0.2937  0.6008
 1535SOL    HW3 6194   1.530   3.767   2.678  0.0009 -0.1861 -0.6283
 1535SOL    MW4 6195   1.512   3.840   2.634  0.0827  0.1328 -0.1285
 1536SOL     OW 6196   1.322   3.969   2.749  0.1060 -0.0532 -0.3577
 1536SOL    HW2 6197   1.342   3.976   2.843 -0.2817 -0.8129 -0.2122
 1536SOL    HW3 6198   1.319   4.060   2.719  1.8513  0.1494  0.0099
 1536SOL    MW4 6199   1.324   3.982   2.758  0.2851 -0.1266 -0.2897
 1537SOL     OW 6200   1.345   4.225   2.626  0.5414 -0.2733 -0.0738
 1537SOL    HW2 6201   1.274   4.285   2.648  0.7289 -0.3451  0.7416
 1537SOL    HW3 6202   1.375   4.254   2.540 -0.7318 -0.4905 -0.5991
 1537SOL    MW4 6203   1.340   4.237   2.618  0.3982 -0.3114 -0.0355
 1538SOL     OW 6204   1.553   4.389   2.712  0.0855  0.4396 -0.0836
 1538SOL    HW2 6205   1.559   4.385   2.807  0.6675 -0.3826 -0.1480
 1538SOL    HW3 6206   1.481   4.329   2.690  0.1364  0.4097 -0.1724
 1538SOL    MW4 6207   1.544   4.380   2.722  0.1690  0.3276 -0.1042
 1539SOL     OW 6208   2.009   4.627   2.610  0.2414 -0.6869 -0.3633
 1539SOL    HW2 6209   2.093   4.658   2.645 -0.0053  1.2245 -1.4086
 1539SOL    HW3 6210   2.025   4.615   2.516 -0.9350  0.7417 -0.7635
 1539SOL    MW4 6211   2.022   4.629   2.602  0.0536 -0.2462 -0.5538
 1540SOL     OW 6212   1.811   0.126   2.726  0.1127 -0.2398  0.0962
 1540SOL    HW2 6213   1.884   0.085   2.679 -0.1731 -0.6395 -0.0040
 1540SOL    HW3 6214   1.735   0.074   2.701 -0.0040 -0.5998  1.1829
 1540SOL    MW4 6215   1.811   0.113   2.716  0.0596 -0.3401  0.2263
 1541SOL     OW 6216   1.786   0.398   2.649 -0.0573  0.4791  0.0858
 1541SOL    HW2 6217   1.870   0.429   2.682  0.9341 -0.6454 -1.3220
 1541SOL    HW3 6218   1.781   0.307   2.679 -1.3463  0.9012  1.2029
 1541SOL    MW4 6219   1.796   0.390   2.658 -0.0967  0.3865  0.0474
 1542SOL     OW 6220   2.047   0.449   2.768  0.0952  0.4857 -0.0214
 1542SOL    HW2 6221   2.128   0.419   2.727  0.4573  0.9781  0.3349
 1542SOL    HW3 6222   2.045   0.543   2.752 -0.4799  0.4555 -0.1562
 1542SOL    MW4 6223   2.057   0.457   2.760  0.0672  0.5467  0.0079
 1543SOL     OW 6224   2.013   0.702   2.675  0.0404  0.2230  0.0029
 1543SOL    HW2 6225   1.936   0.752   2.701  0.7077  1.5963 -0.5898
 1543SOL    HW3 6226   2.013   0.706   2.580  0.4891 -0.3037 -0.0202
 1543SOL    MW4 6227   2.003   0.709   2.666  0.1876  0.3346 -0.0784
 1544SOL     OW 6228   1.798   0.833   2.772  0.2320 -0.4063 -0.0973
 1544SOL    HW2 6229   1.819   0.919   2.737 -0.8498 -0.2874 -0.4632
 1544SOL    HW3 6230   1.711   0.813   2.737 -0.0479 -1.1110  0.9663
 1544SOL    MW4 6231   1.789   0.841   2.763  0.0522 -0.4836 -0.0055
 1545SOL     OW 6232   1.852   1.096   2.666  0.0674  0.2253  0.0189
 1545SOL    HW2 6233   1.919   1.154   2.700  0.5726 -1.0457  1.2538
 1545SOL    HW3 6234   1.841   1.122   2.575  0.0695  2.4273  0.6253
 1545SOL    MW4 6235   1.859   1.107   2.659  0.1343  0.3482  0.2618
 1546SOL     OW 6236   2.052   1.285   2.776 -0.0903  0.0896 -0.2449
 1546SOL    HW2 6237   2.071   1.286   2.870  1.2183  1.6786 -0.4789
 1546SOL    HW3 6238   2.123   1.233   2.738 -0.4965 -0.3720 -0.3612
 1546SOL    MW4 6239   2.064   1.278   2.784  0.0288  0.2384 -0.2911
 1547SOL     OW 6240   2.005   1.525   2.639 -0.0749 -0.2815  0.3370
 1547SOL    HW2 6241   1.946   1.566   2.701  2.1725  1.3022  1.5106
 1547SOL    HW3 6242   2.027   1.441   2.679  1.6502  0.8818  1.9477
 1547SOL    MW4 6243   2.000   1.519   2.653  0.4492  0.0808  0.7045
 1548SOL     OW 6244   1.810   1.673   2.764  0.0501 -0.5704  0.0405
 1548SOL    HW2 6245   1.800   1.671   2.859 -1.7049 -0.5682 -0.1329
 1548SOL    HW3 6246   1.738   1.619   2.731 -0.4192  0.8727 -1.3662
 1548SOL    MW4 6247   1.799   1.666   2.772 -0.2432 -0.3797 -0.1681
 1549SOL     OW 6248   1.822   1.939   2.660  0.6746  0.2892 -0.0345
 1549SOL    HW2 6249   1.890   1.984   2.709  0.9485 -0.5118  0.3244
 1549SOL    HW3 6250   1.820   1.850   2.697 -0.2312  0.1684 -0.3597
 1549SOL    MW4 6251   1.830   1.933   2.671  0.5910  0.1675 -0.0303
 1550SOL     OW 6252   2.051   2.050   2.761 -0.1233  0.2142 -0.0431
 1550SOL    HW2 6253   2.036   2.045   2.856  0.5827  1.2450  0.1362
 1550SOL    HW3 6254   2.051   2.144   2.742  3.6505  0.2410 -0.3849
 1550SOL    MW4 6255   2.049   2.062   2.771  0.4675  0.3538 -0.0644
 1551SOL     OW 6256   2.044   2.312   2.667  0.1876  0.4908  0.2683
 1551SOL    HW2 6257   2.125   2.353   2.697  1.1323 -0.0064 -1.5432
 1551SOL    HW3 6258   2.054   2.305   2.572 -0.7399 -2.2487  0.3230
 1551SOL    MW4 6259   2.056   2.317   2.659  0.1900  0.0637  0.0370
 1552SOL     OW 6260   1.812   2.428   2.755  0.1621  0.2433  0.7585
 1552SOL    HW2 6261   1.820   2.428   2.851  2.0767  1.3256  0.6462
 1552SOL    HW3 6262   1.896   2.393   2.725 -0.3066  0.2153 -0.5251
 1552SOL    MW4 6263   1.824   2.423   2.764  0.3529  0.3824  0.5746
 1553SOL     OW 6264   1.772   2.700   2.659  0.3048  0.1838 -0.3966
 1553SOL    HW2 6265   1.767   2.606   2.676 -0.5848  0.1775 -0.6766
 1553SOL    HW3 6266   1.784   2.707   2.564 -1.1332  0.3861 -0.5752
 1553SOL    MW4 6267   1.773   2.689   2.648 -0.0024  0.2096 -0.4573
 1554SOL     OW 6268   2.009   2.822   2.742 -0.0270 -0.5227  0.1277
 1554SOL    HW2 6269   2.091   2.781   2.715  0.5342  0.4788  0.3030
 1554SOL    HW3 6270   1.941   2.770   2.699  0.6965 -1.2878 -0.1075
 1554SOL    MW4 6271   2.011   2.810   2.733  0.1426 -0.4916  0.1199
 1555SOL     OW 6272   2.020   3.088   2.650 -0.0323 -0.0022 -0.1610
 1555SOL    HW2 6273   2.008   2.997   2.678 -0.2339 -0.1931 -0.8600
 1555SOL    HW3 6274   2.026   3.083   2.555 -0.8560  0.7962 -0.2636
 1555SOL    MW4 6275   2.019   3.075   2.641 -0.1674  0.0782 -0.2668
 1556SOL     OW 6276   1.801   3.245   2.738 -0.1142 -0.2338 -0.0552
 1556SOL    HW2 6277   1.794   3.332   2.698  0.0147 -0.2764 -0.1677
 1556SOL    HW3 6278   1.874   3.203   2.693 -0.4791 -0.5792 -0.3343
 1556SOL    MW4 6279   1.810   3.251   2.727 -0.1452 -0.2849 -0.1068
 1557SOL     OW 6280   1.769   3.512   2.616 -0.1929  0.0268  0.0673
 1557SOL    HW2 6281   1.850   3.544   2.656  0.1973 -0.1634 -0.5537
 1557SOL    HW3 6282   1.784   3.523   2.522 -1.3603  1.1347 -0.0142
 1557SOL    MW4 6283   1.782   3.518   2.609 -0.2954  0.1481 -0.0253
 1558SOL     OW 6284   1.997   3.639   2.730 -0.0164 -0.0048 -0.3130
 1558SOL    HW2 6285   2.009   3.628   2.825 -0.7236  0.2008 -0.1997
 1558SOL    HW3 6286   2.073   3.596   2.691  0.6023  0.4521  0.3726
 1558SOL    MW4 6287   2.009   3.632   2.738 -0.0281  0.0825 -0.2077
 1559SOL     OW 6288   1.977   3.891   2.628 -0.0460 -0.2047  0.2908
 1559SOL    HW2 6289   1.899   3.939   2.655  0.1839  1.0247 -1.1785
 1559SOL    HW3 6290   1.968   3.806   2.671 -2.3780 -0.2191 -0.1116
 1559SOL    MW4 6291   1.965   3.886   2.637 -0.3233 -0.0443  0.0436
 1560SOL     OW 6292   1.739   3.982   2.722 -0.4456  0.4014  0.3858
 1560SOL    HW2 6293   1.742   4.071   2.685  1.3754  0.4472  0.5860
 1560SOL    HW3 6294   1.655   3.947   2.692  0.1398  1.1094 -2.2646
 1560SOL    MW4 6295   1.728   3.989   2.713 -0.1280  0.5009  0.0625
 1561SOL     OW 6296   1.803   4.287   2.604  0.2976 -0.0773  0.3621
 1561SOL    HW2 6297   1.726   4.332   2.638  0.3535  0.7518 -0.6074
 1561SOL    HW3 6298   1.813   4.319   2.515  0.9024 -1.2881 -0.0210
 1561SOL    MW4 6299   1.794   4.297   2.597  0.3848 -0.1278  0.1838
 1562SOL     OW 6300   2.004   4.398   2.749  0.2101  0.1845  0.3847
 1562SOL    HW2 6301   1.935   4.353   2.701  1.0503  0.4667 -1.1331
 1562SOL    HW3 6302   2.000   4.488   2.717 -0.7737  0.9587  2.6210
 1562SOL    MW4 6303   1.994   4.404   2.738  0.1911  0.3238  0.4795
 1563SOL     OW 6304   2.492   4.642   2.667 -0.3435 -0.1197  0.0281
 1563SOL    HW2 6305   2.578   4.670   2.700 -0.7021  0.6988  0.2632
 1563SOL    HW3 6306   2.499   4.653   2.572 -0.4674  0.7080  0.1173
 1563SOL    MW4 6307   2.504   4.647   2.658 -0.4072  0.0973  0.0708
 1564SOL     OW 6308   2.249   0.080   2.710  0.2141 -0.3072 -0.0022
 1564SOL    HW2 6309   2.243   0.077   2.805 -0.3919 -0.2109 -0.0341
 1564SOL    HW3 6310   2.338   0.049   2.690  0.4200 -0.1016  0.6011
 1564SOL    MW4 6311   2.260   0.075   2.720  0.1612 -0.2673  0.0732
 1565SOL     OW 6312   2.274   0.369   2.635  0.0540  0.0101 -0.1139
 1565SOL    HW2 6313   2.280   0.276   2.658 -0.1181  0.3924  1.4941
 1565SOL    HW3 6314   2.257   0.369   2.540  0.8283 -1.5753 -0.2652
 1565SOL    MW4 6315   2.273   0.357   2.625  0.1335 -0.1486  0.0784
 1566SOL     OW 6316   2.487   0.469   2.756  0.1998 -0.1095  0.2616
 1566SOL    HW2 6317   2.478   0.557   2.720 -0.2715 -0.2583  0.0190
 1566SOL    HW3 6318   2.408   0.424   2.729  1.2332 -1.1503 -1.0917
 1566SOL    MW4 6319   2.476   0.475   2.748  0.2737 -0.2665  0.0510
 1567SOL     OW 6320   2.476   0.740   2.672  0.0172  0.1215 -0.2240
 1567SOL    HW2 6321   2.397   0.777   2.712 -0.4695  0.1016 -1.1628
 1567SOL    HW3 6322   2.463   0.751   2.578  2.4244  2.7319 -0.3120
 1567SOL    MW4 6323   2.464   0.746   2.665  0.2708  0.4632 -0.3595
 1568SOL     OW 6324   2.237   0.860   2.764  0.3300  0.1423 -0.1009
 1568SOL    HW2 6325   2.235   0.873   2.859 -0.3324 -0.8861  0.0239
 1568SOL    HW3 6326   2.152   0.822   2.743  0.2016  1.0167 -1.2047
 1568SOL    MW4 6327   2.226   0.857   2.774  0.2258  0.1220 -0.2301
 1569SOL     OW 6328   2.232   1.108   2.635  0.5109 -0.0814  0.4373
 1569SOL    HW2 6329   2.228   1.015   2.659  1.3433 -0.0711  0.6346
 1569SOL    HW3 6330   2.232   1.107   2.539  3.2906 -0.4444  0.4049
 1569SOL    MW4 6331   2.232   1.095   2.625  0.9878 -0.1279  0.4590
 1570SOL     OW 6332   2.450   1.275   2.718  0.4847  0.1135 -0.0489
 1570SOL    HW2 6333   2.532   1.225   2.715  0.6015  0.3604 -1.7782
 1570SOL    HW3 6334   2.381   1.208   2.707  0.5247  0.0717 -0.0475
 1570SOL    MW4 6335   2.451   1.259   2.716  0.5052  0.1407 -0.2768
 1571SOL     OW 6336   2.491   1.535   2.618  0.1455  0.0300 -0.1247
 1571SOL    HW2 6337   2.409   1.575   2.647 -0.1702 -0.4466 -0.3486
 1571SOL    HW3 6338   2.486   1.444   2.648  0.3663 -0.1363 -0.5875
 1571SOL    MW4 6339   2.480   1.528   2.626  0.1326 -0.0547 -0.2153
 1572SOL     OW 6340   2.243   1.624   2.695 -0.6250  0.1389  0.0798
 1572SOL    HW2 6341   2.242   1.717   2.669 -1.5713  0.3783  0.9661
 1572SOL    HW3 6342   2.159   1.590   2.665 -0.0063 -0.6078 -0.8314
 1572SOL    MW4 6343   2.232   1.632   2.687 -0.6683  0.0721  0.0763
 1573SOL     OW 6344   2.279   1.891   2.639 -0.0348 -0.6066  0.6013
 1573SOL    HW2 6345   2.206   1.942   2.675  1.5161  2.1593 -0.0001
 1573SOL    HW3 6346   2.260   1.883   2.546  1.1874  1.5711  0.1278
 1573SOL    MW4 6347   2.267   1.897   2.632  0.3312  0.0455  0.4594
 1574SOL     OW 6348   2.481   2.042   2.755 -0.3020 -0.2660 -0.2690
 1574SOL    HW2 6349   2.461   2.131   2.725 -1.2004 -0.0869  0.8226
 1574SOL    HW3 6350   2.414   1.987   2.714 -0.9169 -0.1604  0.5698
 1574SOL    MW4 6351   2.469   2.046   2.746 -0.5019 -0.2286 -0.0143
 1575SOL     OW 6352   2.479   2.296   2.659 -0.0153  0.0784  0.0222
 1575SOL    HW2 6353   2.559   2.348   2.668 -1.3404  2.2452 -0.1498
 1575SOL    HW3 6354   2.458   2.302   2.566  0.1269 -1.2602 -0.0940
 1575SOL    MW4 6355   2.487   2.304   2.648 -0.1714  0.1876 -0.0160
 1576SOL     OW 6356   2.270   2.440   2.748  0.0283  0.0015 -0.7329
 1576SOL    HW2 6357   2.289   2.461   2.839  0.1858  0.5900 -0.8957
 1576SOL    HW3 6358   2.344   2.386   2.720 -0.4219 -0.8574 -0.2821
 1576SOL    MW4 6359   2.282   2.436   2.756 -0.0103 -0.0343 -0.6950
 1577SOL     OW 6360   2.248   2.700   2.668 -0.3481 -0.2158 -0.0610
 1577SOL    HW2 6361   2.323   2.747   2.707 -0.5267  1.1205 -1.2972
 1577SOL    HW3 6362   2.259   2.609   2.697  1.4613  0.0737  0.2250
 1577SOL    MW4 6363   2.260   2.694   2.677 -0.1328 -0.0012 -0.1864
 1578SOL     OW 6364   2.481   2.864   2.750 -0.6129  0.2825  0.1854
 1578SOL    HW2 6365   2.557   2.824   2.707 -1.0447  0.0070 -0.3277
 1578SOL    HW3 6366   2.469   2.948   2.705  0.6705  1.2958  1.6716
 1578SOL    MW4 6367   2.490   2.870   2.738 -0.5007  0.3796  0.3138
 1579SOL     OW 6368   2.488   3.130   2.676  0.3324 -0.1546  0.2531
 1579SOL    HW2 6369   2.408   3.174   2.704  0.7244  0.6432  0.1394
 1579SOL    HW3 6370   2.482   3.129   2.580  0.3095 -0.3728  0.2574
 1579SOL    MW4 6371   2.476   3.136   2.667  0.3815 -0.0777  0.2387
 1580SOL     OW 6372   2.230   3.255   2.730  0.0497  0.4312  0.4884
 1580SOL    HW2 6373   2.231   3.261   2.825  0.2068  0.5061  0.4831
 1580SOL    HW3 6374   2.165   3.187   2.710  1.2790 -0.8461  0.7291
 1580SOL    MW4 6375   2.222   3.247   2.740  0.2327  0.2728  0.5193
 1581SOL     OW 6376   2.186   3.490   2.614 -0.0370 -0.1668 -0.5727
 1581SOL    HW2 6377   2.256   3.543   2.653 -0.0787 -0.2661 -0.3620
 1581SOL    HW3 6378   2.191   3.406   2.660  0.4984 -0.5959 -1.4180
 1581SOL    MW4 6379   2.196   3.486   2.625  0.0281 -0.2367 -0.6564
 1582SOL     OW 6380   2.438   3.655   2.691  0.1215  0.1131  0.1126
 1582SOL    HW2 6381   2.422   3.645   2.785  1.2845  0.0753  0.3201
 1582SOL    HW3 6382   2.415   3.746   2.673 -0.2653  0.0761  0.3976
 1582SOL    MW4 6383   2.433   3.665   2.701  0.2241  0.1035  0.1776
 1583SOL     OW 6384   2.405   3.917   2.610  0.0734 -0.1342 -0.0663
 1583SOL    HW2 6385   2.492   3.939   2.642 -0.1031  0.2672  0.1410
 1583SOL    HW3 6386   2.346   3.951   2.678 -0.3176  0.9692 -0.9513
 1583SOL    MW4 6387   2.409   3.924   2.623 -0.0017  0.0644 -0.1557
 1584SOL     OW 6388   2.187   4.041   2.751  0.3849 -0.3904 -0.0427
 1584SOL    HW2 6389   2.188   4.033   2.846  0.3180 -1.4929 -0.1255
 1584SOL    HW3 6390   2.109   3.993   2.723 -1.2617  2.4763 -0.4560
 1584SOL    MW4 6391   2.177   4.033   2.760  0.1590 -0.1578 -0.1080
 1585SOL     OW 6392   2.233   4.283   2.629 -0.1161  0.1395  0.2537
 1585SOL    HW2 6393   2.241   4.195   2.666 -0.9559 -0.9071 -1.9229
 1585SOL    HW3 6394   2.152   4.318   2.667  0.3560  0.0670  1.3239
 1585SOL    MW4 6395   2.223   4.276   2.639 -0.1643 -0.0086  0.1080
 1586SOL     OW 6396   2.477   4.367   2.725 -0.5373  0.3989 -0.5278
 1586SOL    HW2 6397   2.401   4.338   2.674 -0.4873 -0.2934 -0.2073
 1586SOL    HW3 6398   2.481   4.461   2.710 -1.8590  0.5474 -0.0069
 1586SOL    MW4 6399   2.467   4.375   2.716 -0.7052  0.3271 -0.4168
 1587SOL     OW 6400   2.938   4.634   2.643  0.5332  0.3114  0.0610
 1587SOL    HW2 6401   3.018   4.674   2.675  0.7967 -0.4608  0.3764
 1587SOL    HW3 6402   2.942   4.645   2.548  0.5222  1.1667  0.1539
 1587SOL    MW4 6403   2.949   4.641   2.634  0.5662  0.3223  0.1147
 1588SOL     OW 6404   2.705   0.105   2.767  0.0297  0.0526  0.6422
 1588SOL    HW2 6405   2.704   0.089   2.861 -0.2105  0.0602  0.6406
 1588SOL    HW3 6406   2.782   0.056   2.736  0.0785  0.0060  0.8331
 1588SOL    MW4 6407   2.715   0.096   2.775  0.0045  0.0475  0.6671
 1589SOL     OW 6408   2.693   0.338   2.608 -0.2429 -0.2881  0.1357
 1589SOL    HW2 6409   2.708   0.256   2.654 -1.2055 -0.1005  0.8126
 1589SOL    HW3 6410   2.627   0.383   2.661  0.7130  1.1879  0.1187
 1589SOL    MW4 6411   2.686   0.333   2.621 -0.2439 -0.0686  0.2227
 1590SOL     OW 6412   2.890   0.447   2.745  0.2866  0.3870  0.3137
 1590SOL    HW2 6413   2.890   0.541   2.727  0.0067  0.2181 -0.6030
 1590SOL    HW3 6414   2.817   0.413   2.693  1.2081 -0.5275 -0.3974
 1590SOL    MW4 6415   2.881   0.455   2.736  0.3712  0.2441  0.0989
 1591SOL     OW 6416   2.908   0.701   2.676 -0.0613  0.1250  0.2602
 1591SOL    HW2 6417   2.987   0.752   2.697 -0.2406  1.1610 -1.4489
 1591SOL    HW3 6418   2.836   0.751   2.716 -0.0174  0.0698  0.4077
 1591SOL    MW4 6419   2.909   0.715   2.684 -0.0792  0.2544  0.0541
 1592SOL     OW 6420   2.707   0.871   2.757  0.4765 -0.3730  0.0422
 1592SOL    HW2 6421   2.692   0.878   2.851 -0.1620 -0.3233 -0.0590
 1592SOL    HW3 6422   2.635   0.816   2.725 -0.2201  0.8981 -0.6379
 1592SOL    MW4 6423   2.695   0.865   2.765  0.3004 -0.1987 -0.0608
 1593SOL     OW 6424   2.679   1.151   2.677  0.1957  0.2082 -0.0282
 1593SOL    HW2 6425   2.763   1.198   2.680  0.7214 -0.7697  0.4427
 1593SOL    HW3 6426   2.698   1.065   2.712 -1.3262  0.4394  1.4027
 1593SOL    MW4 6427   2.692   1.146   2.682  0.0644  0.1097  0.2229
 1594SOL     OW 6428   2.922   1.261   2.710 -0.1251  0.6757  0.3147
 1594SOL    HW2 6429   2.922   1.273   2.805 -1.1313 -1.2472  0.5917
 1594SOL    HW3 6430   2.998   1.206   2.692 -0.0363  0.8890  0.0256
 1594SOL    MW4 6431   2.932   1.255   2.720 -0.2463  0.4501  0.3130
 1595SOL     OW 6432   2.945   1.532   2.643  0.0242 -0.4893  0.4447
 1595SOL    HW2 6433   2.870   1.574   2.684 -1.2163 -1.9074 -0.3415
 1595SOL    HW3 6434   2.942   1.442   2.675  0.2432 -1.0664 -1.1314
 1595SOL    MW4 6435   2.935   1.526   2.653 -0.1106 -0.7526  0.1328
 1596SOL     OW 6436   2.713   1.678   2.712 -0.0554 -0.3354 -0.3781
 1596SOL    HW2 6437   2.705   1.690   2.806 -0.8632 -1.2110 -0.3266
 1596SOL    HW3 6438   2.642   1.618   2.689  1.0656 -1.3600 -1.2959
 1596SOL    MW4 6439   2.703   1.671   2.721 -0.0141 -0.5862 -0.4926
 1597SOL     OW 6440   2.693   1.942   2.596  0.1180 -0.0199  0.0916
 1597SOL    HW2 6441   2.703   1.850   2.621  0.0505 -0.1872 -0.5053
 1597SOL    HW3 6442   2.631   1.977   2.660  0.2539 -0.3547  0.4076
 1597SOL    MW4 6443   2.686   1.934   2.608  0.1273 -0.0862  0.0546
 1598SOL     OW 6444   2.880   2.076   2.765 -0.2697  0.3177  0.7028
 1598SOL    HW2 6445   2.910   2.159   2.727  0.1751 -0.3296 -0.3838
 1598SOL    HW3 6446   2.819   2.041   2.701 -0.9348  0.0932  1.4526
 1598SOL    MW4 6447   2.876   2.083   2.751 -0.2990  0.2027  0.6585
 1599SOL     OW 6448   2.935   2.327   2.679 -0.1412  0.5595 -0.1172
 1599SOL    HW2 6449   2.999   2.376   2.730 -0.6174  1.6076 -0.4938
 1599SOL    HW3 6450   2.850   2.362   2.708 -0.5066 -0.2506 -0.1877
 1599SOL    MW4 6451   2.932   2.338   2.690 -0.2522  0.5908 -0.1762
 1600SOL     OW 6452   2.690   2.459   2.729 -0.2705  0.0678  0.1179
 1600SOL    HW2 6453   2.696   2.467   2.825  0.9416  0.2016  0.0403
 1600SOL    HW3 6454   2.694   2.550   2.698  3.9409 -0.1339 -0.2726
 1600SOL    MW4 6455   2.691   2.472   2.738  0.4449  0.0587  0.0563
 1601SOL     OW 6456   2.702   2.721   2.652  0.1528 -0.0576 -0.1352
 1601SOL    HW2 6457   2.787   2.760   2.671 -0.0428 -0.2240  1.1311
 1601SOL    HW3 6458   2.701   2.709   2.557  1.1101  0.9295 -0.2717
 1601SOL    MW4 6459   2.713   2.725   2.642  0.2532  0.0505  0.0141
 1602SOL     OW 6460   2.942   2.843   2.709  0.8545 -0.1744  0.0958
 1602SOL    HW2 6461   2.940   2.837   2.805  0.5794 -0.3530  0.0772
 1602SOL    HW3 6462   2.941   2.937   2.691  0.5276 -0.1497  0.2556
 1602SOL    MW4 6463   2.942   2.855   2.719  0.7751 -0.1948  0.1142
 1603SOL     OW 6464   2.936   3.108   2.637 -0.0306  0.5330  0.2276
 1603SOL    HW2 6465   2.862   3.157   2.673  0.3075  1.7661 -0.6974
 1603SOL    HW3 6466   2.918   3.105   2.543 -0.2632 -1.5261  0.3239
 1603SOL    MW4 6467   2.924   3.114   2.629 -0.0165  0.4241  0.1180
 1604SOL     OW 6468   2.714   3.269   2.746  0.0319  0.3056  0.1195
 1604SOL    HW2 6469   2.694   3.358   2.717 -0.6787 -0.1167 -0.7120
 1604SOL    HW3 6470   2.638   3.217   2.719 -0.1096 -0.3375  1.6740
 1604SOL    MW4 6471   2.701   3.274   2.739 -0.0806  0.1650  0.2148
 1605SOL     OW 6472   2.669   3.535   2.620  0.0874 -0.1480 -0.2254
 1605SOL    HW2 6473   2.588   3.583   2.634 -0.0892 -0.6380  0.4307
 1605SOL    HW3 6474   2.657   3.491   2.536 -0.9805 -1.5786  0.6784
 1605SOL    MW4 6475   2.657   3.536   2.610 -0.0768 -0.4015 -0.0196
 1606SOL     OW 6476   2.904   3.614   2.725  0.0528 -0.1729 -0.0039
 1606SOL    HW2 6477   2.891   3.595   2.817 -1.8539  0.6201 -0.0923
 1606SOL    HW3 6478   2.824   3.585   2.682  0.0122  1.4299 -1.0986
 1606SOL    MW4 6479   2.892   3.608   2.731 -0.2041  0.1433 -0.1600
 1607SOL     OW 6480   2.925   3.880   2.656 -0.0313  0.2130 -0.3005
 1607SOL    HW2 6481   3.009   3.901   2.697  0.8812  0.4904 -2.2158
 1607SOL    HW3 6482   2.909   3.789   2.679  1.0037  0.0351 -0.2494
 1607SOL    MW4 6483   2.934   3.871   2.664  0.2258  0.2260 -0.5465
 1608SOL     OW 6484   2.664   3.995   2.693 -0.5514 -0.3011  0.1475
 1608SOL    HW2 6485   2.680   4.086   2.670 -0.7807 -0.3173 -0.0721
 1608SOL    HW3 6486   2.747   3.951   2.675 -0.4129 -0.1198  0.3362
 1608SOL    MW4 6487   2.677   4.001   2.688 -0.5634 -0.2794  0.1435
 1609SOL     OW 6488   2.694   4.250   2.594 -0.0794 -0.3051  0.2243
 1609SOL    HW2 6489   2.767   4.290   2.642 -0.3581  0.5491 -0.0658
 1609SOL    HW3 6490   2.616   4.292   2.629 -0.5516 -2.1182  1.4418
 1609SOL    MW4 6491   2.694   4.261   2.605 -0.1786 -0.4311  0.3467
 1610SOL     OW 6492   2.885   4.372   2.744  0.2536 -0.1640  0.4797
 1610SOL    HW2 6493   2.915   4.363   2.834  1.5172 -0.0436  0.0953
 1610SOL    HW3 6494   2.904   4.464   2.722 -0.8359  0.0350  0.3703
 1610SOL    MW4 6495   2.892   4.383   2.753  0.2766 -0.1221  0.4148
 1611SOL     OW 6496   3.334   4.639   2.613  0.1355  0.7042  0.1101
 1611SOL    HW2 6497   3.330   4.548   2.641  0.1213  0.7576  0.2791
 1611SOL    HW3 6498   3.268   4.684   2.666 -0.5087  0.6406 -0.6304
 1611SOL    MW4 6499   3.325   4.633   2.624  0.0486  0.7029  0.0346
 1612SOL     OW 6500   3.155   0.119   2.768 -0.2836 -0.2721  0.1878
 1612SOL    HW2 6501   3.151   0.130   2.863 -0.9308  0.4680  0.0706
 1612SOL    HW3 6502   3.148   0.207   2.733 -0.8767 -0.6208 -0.5802
 1612SOL    MW4 6503   3.154   0.132   2.776 -0.4473 -0.2204  0.0710
 1613SOL     OW 6504   3.145   0.366   2.620  0.1267  0.1008 -0.1893
 1613SOL    HW2 6505   3.075   0.396   2.677 -0.5373 -1.1562 -0.3224
 1613SOL    HW3 6506   3.114   0.385   2.532  1.3635  2.4900 -0.1481
 1613SOL    MW4 6507   3.132   0.372   2.616  0.2024  0.2502 -0.2015
 1614SOL     OW 6508   3.376   0.450   2.735  0.2310 -0.1875  0.1239
 1614SOL    HW2 6509   3.389   0.540   2.706  1.3745 -0.2650  0.3623
 1614SOL    HW3 6510   3.293   0.424   2.696 -0.1201  0.9796  0.0736
 1614SOL    MW4 6511   3.367   0.459   2.726  0.3355 -0.0437  0.1490
 1615SOL     OW 6512   3.369   0.721   2.632 -0.0929  0.6751 -0.3232
 1615SOL    HW2 6513   3.448   0.753   2.676  1.5170 -1.7966 -1.3316
 1615SOL    HW3 6514   3.379   0.747   2.541 -1.0088  1.3463 -0.2437
 1615SOL    MW4 6515   3.380   0.728   2.626 -0.0012  0.4376 -0.4456
 1616SOL     OW 6516   3.131   0.850   2.736  0.3787  0.3093 -0.6550
 1616SOL    HW2 6517   3.136   0.855   2.831 -0.0584 -0.0793 -0.6074
 1616SOL    HW3 6518   3.210   0.803   2.710  0.7022  0.7788 -0.5152
 1616SOL    MW4 6519   3.142   0.844   2.745  0.3636  0.3200 -0.6301
 1617SOL     OW 6520   3.156   1.123   2.675  0.2532 -0.2398  0.2996
 1617SOL    HW2 6521   3.135   1.034   2.702 -2.6855  0.2034 -0.3327
 1617SOL    HW3 6522   3.164   1.118   2.580 -0.2198  0.2198  0.2318
 1617SOL    MW4 6523   3.155   1.111   2.666 -0.1969 -0.1206  0.2072
 1618SOL     OW 6524   3.384   1.286   2.730  0.1926  0.5211  0.2219
 1618SOL    HW2 6525   3.388   1.296   2.825 -0.1868 -1.3141  0.4546
 1618SOL    HW3 6526   3.305   1.232   2.715  0.1268  0.9701 -1.1410
 1618SOL    MW4 6527   3.374   1.280   2.741  0.1342  0.3383  0.0730
 1619SOL     OW 6528   3.383   1.569   2.672 -0.1767  0.5510 -0.1782
 1619SOL    HW2 6529   3.296   1.590   2.707 -0.3320  0.2601 -0.3865
 1619SOL    HW3 6530   3.390   1.474   2.682  0.1170  0.5745 -0.1655
 1619SOL    MW4 6531   3.373   1.559   2.678 -0.1583  0.5157 -0.2038
 1620SOL     OW 6532   3.144   1.656   2.800  0.2013  0.0824 -0.1227
 1620SOL    HW2 6533   3.147   1.748   2.771  1.9064 -0.0559 -0.4248
 1620SOL    HW3 6534   3.072   1.618   2.750 -0.9975  1.4169  0.5222
 1620SOL    MW4 6535   3.135   1.663   2.790  0.2677  0.2403 -0.0777
 1621SOL     OW 6536   3.135   1.903   2.689  0.1725  0.0336  0.5898
 1621SOL    HW2 6537   3.220   1.947   2.699  0.8576 -1.0654 -0.2094
 1621SOL    HW3 6538   3.072   1.964   2.727  1.3557  0.7325  1.4905
 1621SOL    MW4 6539   3.138   1.917   2.695  0.4191 -0.0191  0.6032
 1622SOL     OW 6540   3.346   2.055   2.739  0.3265 -0.6485  0.2223
 1622SOL    HW2 6541   3.356   2.043   2.834  1.6236  0.0618  0.1777
 1622SOL    HW3 6542   3.346   2.149   2.726 -1.2184 -0.7075 -0.3658
 1622SOL    MW4 6543   3.347   2.066   2.750  0.2935 -0.5624  0.1392
 1623SOL     OW 6544   3.376   2.321   2.672 -0.1165  0.1024 -0.0782
 1623SOL    HW2 6545   3.461   2.357   2.695  0.3016 -0.2576 -1.0226
 1623SOL    HW3 6546   3.377   2.317   2.576 -1.1026 -0.1128 -0.0831
 1623SOL    MW4 6547   3.387   2.325   2.662 -0.1917  0.0267 -0.2036
 1624SOL     OW 6548   3.163   2.438   2.805  0.0814 -0.1088 -0.4719
 1624SOL    HW2 6549   3.152   2.524   2.764  1.2779  0.4429  0.3301
 1624SOL    HW3 6550   3.247   2.407   2.772  0.6819 -0.0049  0.9269
 1624SOL    MW4 6551   3.172   2.446   2.795  0.3185 -0.0219 -0.1814
 1625SOL     OW 6552   3.140   2.662   2.661 -0.4819  0.3533  0.5200
 1625SOL    HW2 6553   3.214   2.717   2.687 -0.4615  1.1263 -1.0547
 1625SOL    HW3 6554   3.063   2.715   2.682 -0.4519  1.2195 -1.3816
 1625SOL    MW4 6555   3.140   2.676   2.667 -0.4749  0.5693  0.0610
 1626SOL     OW 6556   3.339   2.830   2.742  0.3593 -0.4513  0.0373
 1626SOL    HW2 6557   3.351   2.822   2.837 -0.0318 -2.0068 -0.0261
 1626SOL    HW3 6558   3.423   2.803   2.705  0.3710 -0.2739 -0.0630
 1626SOL    MW4 6559   3.351   2.825   2.749  0.3095 -0.6332  0.0157
 1627SOL     OW 6560   3.359   3.076   2.648  0.0205 -0.3187 -0.0164
 1627SOL    HW2 6561   3.362   2.991   2.692 -0.4940 -0.7181 -0.7551
 1627SOL    HW3 6562   3.351   3.055   2.555  0.6281  0.5340 -0.2682
 1627SOL    MW4 6563   3.358   3.062   2.642  0.0329 -0.2589 -0.1471
 1628SOL     OW 6564   3.153   3.237   2.765  0.3144  0.1368 -0.4733
 1628SOL    HW2 6565   3.226   3.193   2.722 -0.6465 -2.8649  0.8327
 1628SOL    HW3 6566   3.075   3.203   2.721 -0.4121  1.5158 -0.2841
 1628SOL    MW4 6567   3.152   3.227   2.753  0.0918 -0.0775 -0.2759
 1629SOL     OW 6568   3.118   3.483   2.636  0.1574 -0.2102 -0.0956
 1629SOL    HW2 6569   3.125   3.398   2.681  0.0605 -0.3763 -0.3912
 1629SOL    HW3 6570   3.042   3.525   2.677 -0.1665 -0.5245 -0.3738
 1629SOL    MW4 6571   3.109   3.477   2.648  0.1016 -0.2737 -0.1712
 1630SOL     OW 6572   3.346   3.612   2.746  0.3541  0.1675  0.0606
 1630SOL    HW2 6573   3.343   3.613   2.842  0.7817  0.7288  0.0682
 1630SOL    HW3 6574   3.261   3.576   2.720  0.5599 -0.7755  0.6677
 1630SOL    MW4 6575   3.334   3.607   2.755  0.4377  0.1171  0.1416
 1631SOL     OW 6576   3.398   3.874   2.644 -0.1125 -0.0808 -0.3901
 1631SOL    HW2 6577   3.374   3.783   2.665 -2.0265  0.4073 -0.3276
 1631SOL    HW3 6578   3.391   3.879   2.549  0.4004 -0.0953 -0.4307
 1631SOL    MW4 6579   3.394   3.862   2.634 -0.2973 -0.0184 -0.3874
 1632SOL     OW 6580   3.174   3.996   2.769 -0.5187  0.2275  0.2976
 1632SOL    HW2 6581   3.162   4.073   2.714  0.4970  2.2492  2.8134
 1632SOL    HW3 6582   3.259   3.961   2.744 -0.0837  1.1095  0.5251
 1632SOL    MW4 6583   3.183   4.001   2.758 -0.3271  0.6108  0.6597
 1633SOL     OW 6584   3.100   4.206   2.622  0.6111 -0.2039  0.2365
 1633SOL    HW2 6585   3.025   4.258   2.651 -0.8557 -2.5791  0.8440
 1633SOL    HW3 6586   3.102   4.218   2.527 -0.0966  0.4518  0.3035
 1633SOL    MW4 6587   3.091   4.214   2.613  0.3240 -0.4306  0.3257
 1634SOL     OW 6588   3.302   4.364   2.705  0.1054  0.3756 -0.6137
 1634SOL    HW2 6589   3.303   4.368   2.801 -0.5572  0.9317 -0.6289
 1634SOL    HW3 6590   3.225   4.311   2.684  0.0141  0.6037 -0.8497
 1634SOL    MW4 6591   3.292   4.358   2.715  0.0062  0.4792 -0.6468
 1635SOL     OW 6592   3.794   0.003   2.622 -0.1423  0.2301 -0.5336
 1635SOL    HW2 6593   3.818  -0.084   2.654  1.1054  0.4896 -0.7478
 1635SOL    HW3 6594   3.710   0.022   2.665 -1.3649 -1.8385 -1.8887
 1635SOL    MW4 6595   3.786  -0.006   2.632 -0.1390 -0.0086 -0.7405
 1636SOL     OW 6596   3.555   0.092   2.733  0.1488  0.5938  0.2716
 1636SOL    HW2 6597   3.560   0.178   2.691 -2.3550  1.0576  0.8107
 1636SOL    HW3 6598   3.480   0.050   2.692 -0.7349  0.0302  2.3809
 1636SOL    MW4 6599   3.545   0.098   2.722 -0.2980  0.5806  0.6213
 1637SOL     OW 6600   3.580   0.332   2.588 -0.1766 -0.6532  0.1742
 1637SOL    HW2 6601   3.653   0.360   2.642  0.2667  0.3258 -0.9247
 1637SOL    HW3 6602   3.504   0.376   2.627  0.5017  2.1418 -1.5096
 1637SOL    MW4 6603   3.579   0.341   2.600 -0.0288 -0.1553 -0.1929
 1638SOL     OW 6604   3.784   0.430   2.744  0.2292 -0.0996  0.0270
 1638SOL    HW2 6605   3.802   0.460   2.833  1.5615 -1.4520  0.2274
 1638SOL    HW3 6606   3.869   0.402   2.710  0.0509  1.9515 -2.2956
 1638SOL    MW4 6607   3.798   0.430   2.752  0.3815 -0.0074 -0.2530
 1639SOL     OW 6608   3.838   0.694   2.656 -0.2203  0.3290 -0.4845
 1639SOL    HW2 6609   3.765   0.748   2.687  0.3106  0.8572 -0.1411
 1639SOL    HW3 6610   3.819   0.607   2.691 -0.9767  0.3318 -0.8721
 1639SOL    MW4 6611   3.826   0.690   2.665 -0.2499  0.3991 -0.4902
 1640SOL     OW 6612   3.599   0.823   2.750  0.0470  0.6191 -0.0440
 1640SOL    HW2 6613   3.614   0.824   2.845 -1.3973  0.6320  0.1992
 1640SOL    HW3 6614   3.595   0.915   2.726  0.1264  0.6175 -0.0621
 1640SOL    MW4 6615   3.600   0.835   2.760 -0.1333  0.6206 -0.0143
 1641SOL     OW 6616   3.577   1.099   2.650  0.1432  0.3372  0.1736
 1641SOL    HW2 6617   3.644   1.158   2.683 -0.0718  1.1884 -0.8905
 1641SOL    HW3 6618   3.495   1.146   2.664 -0.0332  0.2740 -0.6344
 1641SOL    MW4 6619   3.575   1.113   2.656  0.0916  0.4412 -0.0737
 1642SOL     OW 6620   3.781   1.248   2.755 -0.3696  0.4799  0.1173
 1642SOL    HW2 6621   3.848   1.190   2.719  0.2828  1.3521 -0.0923
 1642SOL    HW3 6622   3.796   1.332   2.713 -1.2495  0.8348  0.4857
 1642SOL    MW4 6623   3.792   1.252   2.745 -0.3998  0.6419  0.1383
 1643SOL     OW 6624   3.832   1.516   2.662 -0.0095 -0.0646  0.4703
 1643SOL    HW2 6625   3.918   1.532   2.700 -0.3397 -1.2718  1.7444
 1643SOL    HW3 6626   3.776   1.583   2.701  0.3491  0.7320 -0.3718
 1643SOL    MW4 6627   3.836   1.527   2.672 -0.0057 -0.1187  0.5274
 1644SOL     OW 6628   3.618   1.682   2.755  0.0504 -0.3554  0.3271
 1644SOL    HW2 6629   3.614   1.777   2.741 -1.0702 -0.2344  1.3629
 1644SOL    HW3 6630   3.533   1.651   2.723  1.0658 -1.2423 -1.5924
 1644SOL    MW4 6631   3.606   1.691   2.749  0.0365 -0.4563  0.2103
 1645SOL     OW 6632   3.591   1.943   2.683  0.0855 -0.5676 -0.5340
 1645SOL    HW2 6633   3.512   1.995   2.697 -0.1508 -0.9079 -0.6278
 1645SOL    HW3 6634   3.592   1.926   2.589  0.1827 -0.7087 -0.5065
 1645SOL    MW4 6635   3.581   1.948   2.672  0.0672 -0.6312 -0.5429
 1646SOL     OW 6636   3.834   2.068   2.766 -0.0914  0.2378 -0.2751
 1646SOL    HW2 6637   3.898   2.012   2.723  1.0605 -0.0409  1.7452
 1646SOL    HW3 6638   3.750   2.037   2.734  0.5946 -1.7447 -0.2145
 1646SOL    MW4 6639   3.832   2.057   2.756  0.1509 -0.0608 -0.0002
 1647SOL     OW 6640   3.836   2.328   2.664 -0.0356 -0.3061  0.5592
 1647SOL    HW2 6641   3.842   2.243   2.708  1.0738  0.6734  2.3787
 1647SOL    HW3 6642   3.846   2.308   2.571  0.5368 -2.1346  0.9952
 1647SOL    MW4 6643   3.838   2.314   2.658  0.1862 -0.4179  0.8569
 1648SOL     OW 6644   3.603   2.451   2.743  0.2579  0.2804  0.1513
 1648SOL    HW2 6645   3.600   2.428   2.836  0.8706  1.7057  0.5357
 1648SOL    HW3 6646   3.679   2.403   2.710 -1.2405 -1.9408 -0.1026
 1648SOL    MW4 6647   3.613   2.442   2.751  0.1411  0.1755  0.1683
 1649SOL     OW 6648   3.586   2.721   2.656 -0.6968 -0.5431  0.3848
 1649SOL    HW2 6649   3.570   2.634   2.693 -2.1366 -0.7815 -0.7600
 1649SOL    HW3 6650   3.606   2.704   2.564 -0.5963  0.3226  0.2481
 1649SOL    MW4 6651   3.587   2.707   2.649 -0.8736 -0.4604  0.2158
 1650SOL     OW 6652   3.794   2.869   2.785  0.0767  0.2289 -0.0316
 1650SOL    HW2 6653   3.875   2.824   2.759  0.3927 -0.1322  1.5084
 1650SOL    HW3 6654   3.724   2.816   2.746  0.5058 -0.7333  0.4904
 1650SOL    MW4 6655   3.795   2.856   2.776  0.1750  0.0544  0.2403
 1651SOL     OW 6656   3.818   3.118   2.659  0.0087 -0.1301  0.4368
 1651SOL    HW2 6657   3.732   3.146   2.689  0.0348 -0.2745  0.6443
 1651SOL    HW3 6658   3.828   3.029   2.693 -0.8909 -1.1455 -1.8361
 1651SOL    MW4 6659   3.808   3.110   2.667 -0.1066 -0.2830  0.1643
 1652SOL     OW 6660   3.557   3.230   2.801 -0.1717  0.0089  0.5966
 1652SOL    HW2 6661   3.553   3.314   2.754 -2.7393  0.5917  1.7723
 1652SOL    HW3 6662   3.495   3.174   2.755  1.0592 -1.0513  0.2167
 1652SOL    MW4 6663   3.549   3.234   2.789 -0.3483 -0.0541  0.7017
 1653SOL     OW 6664   3.590   3.485   2.670  0.0079  0.5353 -0.2615
 1653SOL    HW2 6665   3.657   3.549   2.694  0.8930  0.0392 -1.3635
 1653SOL    HW3 6666   3.507   3.529   2.687  0.6133  1.3622  0.5854
 1653SOL    MW4 6667   3.588   3.499   2.676  0.2043  0.5789 -0.2952
 1654SOL     OW 6668   3.789   3.675   2.742  0.1991  0.4054  0.2916
 1654SOL    HW2 6669   3.866   3.634   2.704  0.2767 -0.4996  1.3871
 1654SOL    HW3 6670   3.797   3.768   2.720  0.6691  0.0404 -1.1221
 1654SOL    MW4 6671   3.800   3.682   2.734  0.2713  0.2377  0.2496
 1655SOL     OW 6672   3.832   3.919   2.626  0.0071 -0.1455  0.2587
 1655SOL    HW2 6673   3.905   3.957   2.673 -0.2786  0.9102 -0.1363
 1655SOL    HW3 6674   3.754   3.957   2.667 -0.2375  1.1278 -1.3013
 1655SOL    MW4 6675   3.831   3.929   2.637 -0.0627  0.1616  0.0010
 1656SOL     OW 6676   3.618   4.035   2.744 -0.2130  0.1998 -0.0971
 1656SOL    HW2 6677   3.616   4.126   2.715 -1.4963  0.3924  0.5622
 1656SOL    HW3 6678   3.543   3.995   2.701 -0.3640 -0.2460  0.5853
 1656SOL    MW4 6679   3.608   4.042   2.734 -0.4022  0.1669  0.0799
 1657SOL     OW 6680   3.586   4.299   2.666 -0.0770 -0.0029 -0.0121
 1657SOL    HW2 6681   3.495   4.317   2.690  0.2404  2.5362 -0.5622
 1657SOL    HW3 6682   3.587   4.306   2.571  0.8425  0.7577  0.0516
 1657SOL    MW4 6683   3.574   4.302   2.657  0.0863  0.4330 -0.0763
 1658SOL     OW 6684   3.834   4.411   2.742 -0.5810 -0.3046 -0.2306
 1658SOL    HW2 6685   3.907   4.359   2.708  0.3039 -0.1358  1.3317
 1658SOL    HW3 6686   3.755   4.366   2.711  0.1872 -1.5129 -0.4629
 1658SOL    MW4 6687   3.833   4.398   2.734 -0.3629 -0.4416 -0.0551
 1659SOL     OW 6688   4.293   0.018   2.600 -0.3623 -0.2125  0.4074
 1659SOL    HW2 6689   4.210   0.049   2.634  0.0067  0.0857  1.0447
 1659SOL    HW3 6690   4.359   0.061   2.654  0.2394  0.3482 -0.7449
 1659SOL    MW4 6691   4.291   0.028   2.611 -0.2337 -0.0991  0.3395
 1660SOL     OW 6692   4.026   0.112   2.733  0.0587 -0.4595  0.1458
 1660SOL    HW2 6693   4.037   0.095   2.827 -0.8812  0.2410  0.3934
 1660SOL    HW3 6694   3.936   0.086   2.715  0.2172 -0.5154 -0.5447
 1660SOL    MW4 6695   4.016   0.107   2.743 -0.0443 -0.3744  0.0873
 1661SOL     OW 6696   4.047   0.390   2.688  0.6423 -0.4731 -0.5543
 1661SOL    HW2 6697   4.044   0.301   2.722  2.4456 -0.4019 -0.1547
 1661SOL    HW3 6698   4.035   0.380   2.593  0.8463 -1.1418 -0.5121
 1661SOL    MW4 6699   4.045   0.377   2.680  0.9074 -0.5519 -0.4959
 1662SOL     OW 6700   4.283   0.524   2.765 -0.3899  0.2146 -0.2527
 1662SOL    HW2 6701   4.198   0.490   2.735 -1.0116  1.5412 -0.0330
 1662SOL    HW3 6702   4.347   0.478   2.711 -1.3438  0.5336 -1.7000
 1662SOL    MW4 6703   4.280   0.513   2.754 -0.5980  0.4318 -0.4146
 1663SOL     OW 6704   4.325   0.772   2.653  0.0228  0.2483 -0.0186
 1663SOL    HW2 6705   4.317   0.681   2.680  1.5648  0.7523  2.2831
 1663SOL    HW3 6706   4.322   0.769   2.557 -1.0145 -2.0857  0.0479
 1663SOL    MW4 6707   4.323   0.760   2.644  0.0892  0.0069  0.2940
 1664SOL     OW 6708   4.068   0.819   2.756 -0.0495 -0.4613 -0.1561
 1664SOL    HW2 6709   4.143   0.794   2.702 -0.5801  0.5242 -1.3682
 1664SOL    HW3 6710   3.998   0.760   2.727  0.1619 -1.2031  0.7920
 1664SOL    MW4 6711   4.068   0.808   2.745 -0.0920 -0.4292 -0.1912
 1665SOL     OW 6712   3.996   1.085   2.679  0.2030 -0.4937  0.2409
 1665SOL    HW2 6713   4.071   1.130   2.717  0.6661 -1.6450  0.7051
 1665SOL    HW3 6714   4.016   0.992   2.690 -0.7267 -0.8166 -0.7299
 1665SOL    MW4 6715   4.009   1.079   2.685  0.1416 -0.6882  0.1743
 1666SOL     OW 6716   4.218   1.243   2.744  0.4026 -0.1428  0.0134
 1666SOL    HW2 6717   4.244   1.335   2.734  0.9243 -0.3425 -0.5270
 1666SOL    HW3 6718   4.290   1.194   2.703 -0.7072 -0.7162 -1.2799
 1666SOL    MW4 6719   4.231   1.249   2.737  0.3257 -0.2447 -0.2286
 1667SOL     OW 6720   4.297   1.509   2.672  0.3310 -0.0608  0.1121
 1667SOL    HW2 6721   4.368   1.559   2.712 -1.2178  0.9725  1.6530
 1667SOL    HW3 6722   4.309   1.520   2.578  1.9297  0.4872  0.3819
 1667SOL    MW4 6723   4.308   1.517   2.665  0.3376  0.1478  0.3510
 1668SOL     OW 6724   4.064   1.644   2.746 -0.6585 -0.6011 -0.4100
 1668SOL    HW2 6725   4.055   1.649   2.841 -0.7896 -1.5852 -0.3672
 1668SOL    HW3 6726   4.146   1.595   2.733 -0.3838 -0.0360 -0.7989
 1668SOL    MW4 6727   4.074   1.638   2.757 -0.6394 -0.6564 -0.4556
 1669SOL     OW 6728   4.039   1.914   2.661  0.0199 -0.0134 -0.2938
 1669SOL    HW2 6729   4.100   1.960   2.719  0.6255 -0.7909 -0.3044
 1669SOL    HW3 6730   4.054   1.821   2.680 -1.0307 -0.2219 -0.4308
 1669SOL    MW4 6731   4.049   1.908   2.671 -0.0386 -0.1436 -0.3133
 1670SOL     OW 6732   4.273   2.063   2.771 -0.0017 -0.7043  0.0061
 1670SOL    HW2 6733   4.279   2.151   2.734  1.2255  0.0443  1.9481
 1670SOL    HW3 6734   4.354   2.020   2.746  0.9603 -0.1039  2.0036
 1670SOL    MW4 6735   4.284   2.069   2.763  0.2866 -0.5262  0.5260
 1671SOL     OW 6736   4.266   2.304   2.632  0.3797 -0.3668  0.0391
 1671SOL    HW2 6737   4.189   2.354   2.658  1.2986  0.4092  1.2946
 1671SOL    HW3 6738   4.263   2.304   2.536 -0.8399  0.1966  0.0758
 1671SOL    MW4 6739   4.256   2.310   2.622  0.3395 -0.1903  0.2098
 1672SOL     OW 6740   4.072   2.451   2.747 -0.3917  0.0455  0.8882
 1672SOL    HW2 6741   4.056   2.437   2.840 -1.7550 -1.6678  0.4355
 1672SOL    HW3 6742   3.991   2.422   2.704  0.8008 -0.7260 -0.9247
 1672SOL    MW4 6743   4.059   2.445   2.753 -0.4144 -0.2823  0.5896
 1673SOL     OW 6744   4.034   2.719   2.680  0.3536  0.0677 -0.3785
 1673SOL    HW2 6745   4.118   2.753   2.711  0.9510  0.3788 -2.2448
 1673SOL    HW3 6746   4.044   2.624   2.681  0.8181  0.1094 -0.8078
 1673SOL    MW4 6747   4.046   2.711   2.684  0.4930  0.1142 -0.6814
 1674SOL     OW 6748   4.308   2.796   2.744 -0.1807  0.0249  0.1363
 1674SOL    HW2 6749   4.292   2.814   2.837  0.8395  0.2495  0.2746
 1674SOL    HW3 6750   4.305   2.881   2.702  1.9214  0.2451  0.3715
 1674SOL    MW4 6751   4.305   2.810   2.751  0.2313  0.0834  0.1855
 1675SOL     OW 6752   4.239   3.055   2.640 -0.0397  0.5490 -0.3446
 1675SOL    HW2 6753   4.166   3.097   2.684  0.2917  1.0031 -0.2219
 1675SOL    HW3 6754   4.224   3.073   2.547 -0.8932 -0.6567 -0.4489
 1675SOL    MW4 6755   4.228   3.063   2.633 -0.1087  0.4499 -0.3424
 1676SOL     OW 6756   4.054   3.236   2.734  0.5176  0.2764  0.2974
 1676SOL    HW2 6757   4.054   3.328   2.711 -0.3741  0.1671 -0.1818
 1676SOL    HW3 6758   3.965   3.206   2.714  0.8230 -0.7072  0.3461
 1676SOL    MW4 6759   4.042   3.244   2.728  0.4406  0.1323  0.2408
 1677SOL     OW 6760   4.042   3.519   2.670  0.6941  0.1667  0.0844
 1677SOL    HW2 6761   4.130   3.530   2.706  1.3669 -1.2107 -1.0974
 1677SOL    HW3 6762   4.056   3.510   2.576 -0.8464  1.4009 -0.2877
 1677SOL    MW4 6763   4.056   3.520   2.662  0.5794  0.1476 -0.1206
 1678SOL     OW 6764   4.291   3.591   2.731  0.1902  0.2823 -0.1281
 1678SOL    HW2 6765   4.301   3.582   2.826  0.2521  1.4146 -0.0143
 1678SOL    HW3 6766   4.361   3.537   2.695  0.1442 -0.1893  0.4680
 1678SOL    MW4 6767   4.302   3.583   2.739  0.1922  0.3695 -0.0343
 1679SOL     OW 6768   4.269   3.860   2.680 -0.0917 -0.3205 -0.0015
 1679SOL    HW2 6769   4.294   3.770   2.699 -0.4566 -0.5504 -0.6081
 1679SOL    HW3 6770   4.352   3.907   2.676  0.1396 -0.7528 -0.3220
 1679SOL    MW4 6771   4.283   3.854   2.682 -0.1092 -0.4077 -0.1235
 1680SOL     OW 6772   4.045   4.014   2.797 -0.4093  0.4216  0.0640
 1680SOL    HW2 6773   4.033   4.011   2.892  1.9775 -1.0663  0.3727
 1680SOL    HW3 6774   4.136   3.987   2.784 -0.6547  0.7674 -2.6527
 1680SOL    MW4 6775   4.055   4.010   2.808 -0.1268  0.2708 -0.2539
 1681SOL     OW 6776   4.048   4.280   2.626  0.5376  0.3575 -0.4516
 1681SOL    HW2 6777   4.066   4.208   2.687 -0.6877  1.5135  1.3530
 1681SOL    HW3 6778   4.046   4.239   2.540 -1.0538 -1.9752  0.6254
 1681SOL    MW4 6779   4.050   4.265   2.623  0.1664  0.2017 -0.0715
 1682SOL     OW 6780   4.279   4.427   2.691 -0.0115 -0.6346  0.3130
 1682SOL    HW2 6781   4.197   4.400   2.651 -1.6323  0.8714  2.5167
 1682SOL    HW3 6782   4.298   4.512   2.652 -0.6073 -0.0301  1.3242
 1682SOL    MW4 6783   4.271   4.434   2.681 -0.3037 -0.3562  0.7372
 1683SOL     OW 6784   0.218   4.667   3.114 -0.3458 -0.2706  0.2016
 1683SOL    HW2 6785   0.213   4.656   3.209 -1.6546  0.4693  0.2249
 1683SOL    HW3 6786   0.133   4.702   3.089  0.5838  1.1676 -1.0352
 1683SOL    MW4 6787   0.206   4.670   3.123 -0.3958  0.0167  0.0417
 1684SOL     OW 6788   4.475   0.130   3.047 -0.3332  0.5309 -0.6908
 1684SOL    HW2 6789   4.402   0.079   3.082  0.9173  0.0981  1.3761
 1684SOL    HW3 6790   4.478   0.208   3.104  1.2513  0.1892 -0.2831
 1684SOL    MW4 6791   4.465   0.134   3.059  0.0415  0.4287 -0.3643
 1685SOL     OW 6792   4.481   0.389   3.169  0.0528  0.1167 -0.0304
 1685SOL    HW2 6793   4.494   0.397   3.263 -0.1971  0.4898 -0.0292
 1685SOL    HW3 6794   4.403   0.441   3.150  0.1485  0.1117 -0.4566
 1685SOL    MW4 6795   4.472   0.397   3.179  0.0324  0.1653 -0.0865
 1686SOL     OW 6796   0.201   0.463   2.984 -0.3382  0.5150 -0.0151
 1686SOL    HW2 6797   0.279   0.424   3.024  0.6006  1.3231 -1.0329
 1686SOL    HW3 6798   0.129   0.431   3.037  0.5372 -1.5431 -0.0076
 1686SOL    MW4 6799   0.202   0.453   2.996 -0.0989  0.3500 -0.1483
 1687SOL     OW 6800   0.233   0.722   3.113  0.0144 -0.0114  0.2873
 1687SOL    HW2 6801   0.229   0.701   3.206  2.7315 -0.9825  0.2250
 1687SOL    HW3 6802   0.216   0.639   3.069 -0.9243  0.3768 -0.0991
 1687SOL    MW4 6803   0.230   0.709   3.119  0.2491 -0.0883  0.2279
 1688SOL     OW 6804   0.028   0.879   3.035 -0.1950 -0.0223 -0.0924
 1688SOL    HW2 6805   0.104   0.824   3.056  0.1418  0.4718 -0.0176
 1688SOL    HW3 6806   0.025   0.881   2.939 -0.6355 -0.7603 -0.0982
 1688SOL    MW4 6807   0.037   0.872   3.025 -0.2087 -0.0545 -0.0832
 1689SOL     OW 6808   4.491   1.132   3.139  0.1605  0.1082  0.3466
 1689SOL    HW2 6809   4.431   1.181   3.083  0.3037  0.3372  0.3922
 1689SOL    HW3 6810   4.485   1.042   3.107 -0.2282  0.1230  0.3692
 1689SOL    MW4 6811   4.482   1.126   3.128  0.1283  0.1403  0.3557
 1690SOL     OW 6812   0.231   1.251   3.034  0.0644 -0.1531  0.4790
 1690SOL    HW2 6813   0.156   1.205   3.073 -0.4107  0.9282  0.8703
 1690SOL    HW3 6814   0.206   1.264   2.942 -0.8730  1.5013  0.9532
 1690SOL    MW4 6815   0.217   1.247   3.027 -0.1220  0.2078  0.5932
 1691SOL     OW 6816   0.214   1.508   3.174 -0.3701 -0.0090 -0.3404
 1691SOL    HW2 6817   0.138   1.553   3.137 -1.1330 -0.6982  0.3531
 1691SOL    HW3 6818   0.209   1.420   3.137 -0.1971 -0.2032  0.1017
 1691SOL    MW4 6819   0.203   1.502   3.164 -0.4479 -0.1255 -0.1903
 1692SOL     OW 6820   4.489   1.673   3.068 -0.1179  0.0482 -0.1087
 1692SOL    HW2 6821   4.400   1.638   3.076 -0.2194  0.3377  0.0681
 1692SOL    HW3 6822   4.483   1.761   3.106  0.7049 -0.6792  1.7548
 1692SOL    MW4 6823   4.477   1.680   3.074 -0.0228 -0.0095  0.1605
 1693SOL     OW 6824   4.479   1.924   3.196 -0.4525  0.0234  0.1568
 1693SOL    HW2 6825   4.406   1.970   3.155 -0.3151  1.1048  1.1026
 1693SOL    HW3 6826   4.556   1.951   3.145 -0.5984 -0.5747 -0.4014
 1693SOL    MW4 6827   4.480   1.934   3.184 -0.4530  0.0871  0.2081
 1694SOL     OW 6828   0.222   2.016   3.085  0.1276  0.3040 -0.0093
 1694SOL    HW2 6829   0.212   2.111   3.096  0.9371  0.2727  1.0551
 1694SOL    HW3 6830   0.236   2.004   2.991  1.3747  1.3699  0.0318
 1694SOL    MW4 6831   0.222   2.027   3.074  0.3989  0.4406  0.1366
 1695SOL     OW 6832   0.209   2.283   3.129 -0.2618  0.0016 -0.1835
 1695SOL    HW2 6833   0.219   2.274   3.223  0.3949 -2.0161 -0.4332
 1695SOL    HW3 6834   0.294   2.315   3.099 -0.3209  0.1948 -0.1437
 1695SOL    MW4 6835   0.222   2.286   3.137 -0.1829 -0.2391 -0.2110
 1696SOL     OW 6836   4.486   2.429   3.049 -0.1796 -0.6934  0.3580
 1696SOL    HW2 6837   4.506   2.522   3.065 -1.1038 -0.6889  1.4901
 1696SOL    HW3 6838   4.563   2.382   3.082  0.8136 -0.2796 -1.2828
 1696SOL    MW4 6839   4.499   2.435   3.055 -0.1705 -0.6382  0.2909
 1697SOL     OW 6840   0.033   2.691   3.116  0.6649  0.0936 -0.6914
 1697SOL    HW2 6841   0.020   2.699   3.210 -0.0069 -1.6668 -0.6035
 1697SOL    HW3 6842   0.111   2.742   3.098  1.1956 -0.1059  0.9450
 1697SOL    MW4 6843   0.042   2.699   3.126  0.6463 -0.1647 -0.4640
 1698SOL     OW 6844   0.249   2.844   3.001  0.0885  0.1248 -0.0197
 1698SOL    HW2 6845   0.327   2.795   3.028 -0.4603 -0.8175 -0.0994
 1698SOL    HW3 6846   0.245   2.832   2.907  0.6602  1.4043 -0.2179
 1698SOL    MW4 6847   0.258   2.836   2.992  0.0915  0.1693 -0.0565
 1699SOL     OW 6848   0.233   3.084   3.128 -0.1311 -0.2926 -0.4879
 1699SOL    HW2 6849   0.153   3.129   3.100 -0.1562 -0.2327 -0.3172
 1699SOL    HW3 6850   0.226   2.997   3.089  0.1666  0.0229 -1.2595
 1699SOL    MW4 6851   0.221   3.078   3.119 -0.0952 -0.2429 -0.5672
 1700SOL     OW 6852   4.473   3.227   3.048  0.0140  0.6614  0.2079
 1700SOL    HW2 6853   4.401   3.166   3.063  0.5063  0.2392  0.8840
 1700SOL    HW3 6854   4.493   3.219   2.955 -0.6888  0.6460  0.0569
 1700SOL    MW4 6855   4.466   3.218   3.038 -0.0138  0.6034  0.2773
 1701SOL     OW 6856   0.014   3.499   3.134 -0.0914  0.0403  0.0835
 1701SOL    HW2 6857  -0.065   3.542   3.103 -0.0266  0.6228  0.7053
 1701SOL    HW3 6858  -0.005   3.406   3.127 -0.8994  0.1754  0.3849
 1701SOL    MW4 6859   0.001   3.492   3.129 -0.1893  0.1347  0.2053
 1702SOL     OW 6860   0.240   3.594   3.010 -0.1114 -0.1966 -0.6656
 1702SOL    HW2 6861   0.246   3.686   3.035 -0.4386 -0.1783 -0.6568
 1702SOL    HW3 6862   0.161   3.561   3.054 -0.4739 -0.2623 -1.3495
 1702SOL    MW4 6863   0.230   3.602   3.019 -0.2024 -0.2027 -0.7548
 1703SOL     OW 6864   0.225   3.854   3.101  0.1053 -0.6325  0.0495
 1703SOL    HW2 6865   0.201   3.843   3.193  0.0016 -1.0669 -0.0250
 1703SOL    HW3 6866   0.307   3.904   3.103 -1.6449  2.3417  0.2587
 1703SOL    MW4 6867   0.233   3.859   3.113 -0.1394 -0.2971  0.0675
 1704SOL     OW 6868   4.489   4.002   3.006  0.1984 -0.4523 -0.1623
 1704SOL    HW2 6869   4.561   3.947   3.035  1.1974 -0.1217 -1.9520
 1704SOL    HW3 6870   4.499   4.007   2.911 -1.3149  0.8150 -0.2815
 1704SOL    MW4 6871   4.500   3.995   2.997  0.1307 -0.2413 -0.4141
 1705SOL     OW 6872   0.008   4.264   3.082 -0.4492  0.3944  0.2097
 1705SOL    HW2 6873  -0.011   4.258   3.176 -0.1299  1.5716  0.3494
 1705SOL    HW3 6874  -0.009   4.175   3.049 -0.9074  0.0622  1.3094
 1705SOL    MW4 6875   0.003   4.251   3.090 -0.4673  0.5064  0.3731
 1706SOL     OW 6876   0.218   4.409   3.005  0.4770  0.7116  0.5773
 1706SOL    HW2 6877   0.138   4.360   3.024  0.8453  0.2373  0.9441
 1706SOL    HW3 6878   0.208   4.491   3.052  0.1152  0.7359  0.4567
 1706SOL    MW4 6879   0.206   4.413   3.014  0.4779  0.6528  0.6099
 1707SOL     OW 6880   0.680   0.007   3.114  0.4621 -0.1115  0.0001
 1707SOL    HW2 6881   0.675  -0.083   3.083 -0.5304  0.4403 -1.4694
 1707SOL    HW3 6882   0.593   0.043   3.099  0.5378  0.7903  1.5509
 1707SOL    MW4 6883   0.668  -0.000   3.108  0.3410  0.0804  0.0107
 1708SOL     OW 6884   0.449   0.120   3.021 -0.1513 -0.6387 -0.2252
 1708SOL    HW2 6885   0.449   0.203   3.070  0.2502  0.1942 -1.6016
 1708SOL    HW3 6886   0.369   0.076   3.049 -1.8823  1.5297 -1.6308
 1708SOL    MW4 6887   0.438   0.125   3.031 -0.3268 -0.2427 -0.5922
 1709SOL     OW 6888   0.429   0.389   3.138  0.4724  0.0154  0.0255
 1709SOL    HW2 6889   0.441   0.387   3.233  0.6588  0.9278  0.0208
 1709SOL    HW3 6890   0.512   0.423   3.104  0.7701 -1.2467 -0.5346
 1709SOL    MW4 6891   0.441   0.393   3.146  0.5362 -0.0308 -0.0491
 1710SOL     OW 6892   0.662   0.487   3.055 -0.1622  0.4340 -0.1288
 1710SOL    HW2 6893   0.742   0.451   3.092  0.1265  0.8729 -0.3286
 1710SOL    HW3 6894   0.665   0.580   3.076  0.3455  0.8143 -1.8697
 1710SOL    MW4 6895   0.673   0.495   3.063 -0.0571  0.5421 -0.3848
 1711SOL     OW 6896   0.681   0.739   3.142  0.0749  0.6664 -0.4474
 1711SOL    HW2 6897   0.660   0.734   3.235 -1.3427 -1.0796 -0.8318
 1711SOL    HW3 6898   0.603   0.776   3.101 -0.0614 -0.3671 -1.1573
 1711SOL    MW4 6899   0.668   0.743   3.149 -0.1301  0.2997 -0.5920
 1712SOL     OW 6900   0.459   0.863   3.019  0.0380 -0.1388 -0.2370
 1712SOL    HW2 6901   0.378   0.820   3.044  0.6964 -0.9858  0.4786
 1712SOL    HW3 6902   0.448   0.882   2.926 -0.7651 -0.7353 -0.2689
 1712SOL    MW4 6903   0.447   0.860   3.010  0.0189 -0.3293 -0.1469
 1713SOL     OW 6904   0.487   1.121   3.113  0.1867  0.4705  0.0744
 1713SOL    HW2 6905   0.477   1.031   3.082  0.4757  0.7274 -0.7883
 1713SOL    HW3 6906   0.408   1.166   3.083  0.8202  0.9050 -0.9726
 1713SOL    MW4 6907   0.475   1.115   3.105  0.3084  0.5617 -0.1774
 1714SOL     OW 6908   0.712   1.268   3.021  0.0532 -0.2295  0.1974
 1714SOL    HW2 6909   0.781   1.226   3.072  0.1984 -0.1058  0.1029
 1714SOL    HW3 6910   0.630   1.233   3.057  0.0839  1.2079  1.7247
 1714SOL    MW4 6911   0.710   1.258   3.032  0.0764 -0.0235  0.3865
 1715SOL     OW 6912   0.670   1.530   3.145  0.1998  0.2473  0.4663
 1715SOL    HW2 6913   0.703   1.508   3.232  0.8725  0.6792  0.3279
 1715SOL    HW3 6914   0.693   1.455   3.091  0.8927  0.5018  0.3935
 1715SOL    MW4 6915   0.677   1.518   3.149  0.3800  0.3378  0.4385
 1716SOL     OW 6916   0.431   1.635   3.060 -0.0881  0.1380 -0.2080
 1716SOL    HW2 6917   0.512   1.610   3.104  0.0692  2.4927  0.9549
 1716SOL    HW3 6918   0.362   1.588   3.108  0.5416 -1.5849 -0.9696
 1716SOL    MW4 6919   0.433   1.626   3.072  0.0158  0.2213 -0.1552
 1717SOL     OW 6920   0.456   1.913   3.148  0.0320  0.0343 -0.1169
 1717SOL    HW2 6921   0.438   1.823   3.120 -0.3215 -0.0249  0.2925
 1717SOL    HW3 6922   0.373   1.959   3.138  0.5149  0.6236 -1.4666
 1717SOL    MW4 6923   0.443   1.907   3.143  0.0491  0.1042 -0.2408
 1718SOL     OW 6924   0.668   2.013   2.991  0.0956 -0.4392  0.8551
 1718SOL    HW2 6925   0.745   1.975   3.035 -0.0577  1.1920  2.6084
 1718SOL    HW3 6926   0.593   1.972   3.035 -0.0499 -0.2021  0.8305
 1718SOL    MW4 6927   0.668   2.002   3.003  0.0563 -0.1926  1.0836
 1719SOL     OW 6928   0.657   2.279   3.099  0.8092  0.2904 -0.0324
 1719SOL    HW2 6929   0.663   2.274   3.195  4.0877 -0.7355 -0.2326
 1719SOL    HW3 6930   0.657   2.188   3.071  1.2013  0.6159 -1.0775
 1719SOL    MW4 6931   0.658   2.266   3.108  1.2935  0.1979 -0.1967
 1720SOL     OW 6932   0.423   2.422   3.022 -0.4475 -0.4033 -0.3204
 1720SOL    HW2 6933   0.492   2.362   3.050 -0.6676 -0.1351  0.8548
 1720SOL    HW3 6934   0.420   2.414   2.927  0.1320 -1.5790 -0.2420
 1720SOL    MW4 6935   0.432   2.413   3.013 -0.4001 -0.5229 -0.1550
 1721SOL     OW 6936   0.469   2.697   3.087 -0.0291 -0.1779 -0.0053
 1721SOL    HW2 6937   0.558   2.724   3.065 -1.0644  1.9966 -1.6248
 1721SOL    HW3 6938   0.463   2.607   3.055  1.2277  0.0426 -0.8952
 1721SOL    MW4 6939   0.480   2.689   3.080  0.0001  0.1380 -0.3366
 1722SOL     OW 6940   0.715   2.763   2.999 -0.0606  0.0505  0.1990
 1722SOL    HW2 6941   0.788   2.722   3.044  0.4453  2.3483  1.5665
 1722SOL    HW3 6942   0.704   2.848   3.043 -1.4209  1.1290 -2.1070
 1722SOL    MW4 6943   0.723   2.769   3.010 -0.1733  0.4961  0.0751
 1723SOL     OW 6944   0.672   3.036   3.142 -0.1376  0.4553 -0.1044
 1723SOL    HW2 6945   0.659   3.063   3.234  0.0342  0.8062 -0.1828
 1723SOL    HW3 6946   0.603   3.082   3.094  0.2997  0.9269 -0.2723
 1723SOL    MW4 6947   0.661   3.045   3.148 -0.0572  0.5639 -0.1366
 1724SOL     OW 6948   0.469   3.167   2.997  0.2873 -0.7604 -0.5217
 1724SOL    HW2 6949   0.457   3.258   3.025  2.0875 -0.4246 -0.7819
 1724SOL    HW3 6950   0.394   3.121   3.033  0.2236  0.5140  1.0585
 1724SOL    MW4 6951   0.458   3.173   3.005  0.5164 -0.5481 -0.3476
 1725SOL     OW 6952   0.444   3.418   3.098 -0.1688 -0.5757  0.4204
 1725SOL    HW2 6953   0.466   3.418   3.192 -0.5025 -1.9645  0.5110
 1725SOL    HW3 6954   0.371   3.479   3.091 -0.2674 -0.6074  1.0898
 1725SOL    MW4 6955   0.437   3.426   3.110 -0.2258 -0.7629  0.5207
 1726SOL     OW 6956   0.639   3.601   3.026  0.0759  0.7821 -0.6681
 1726SOL    HW2 6957   0.714   3.565   3.073  0.4160  1.9510 -0.3113
 1726SOL    HW3 6958   0.568   3.539   3.044  0.5794  0.4443  0.1716
 1726SOL    MW4 6959   0.640   3.588   3.034  0.1872  0.8917 -0.5102
 1727SOL     OW 6960   0.672   3.857   3.143  0.5373 -0.2534  0.4406
 1727SOL    HW2 6961   0.683   3.855   3.238 -1.2782  0.3918  0.6792
 1727SOL    HW3 6962   0.664   3.765   3.118  3.6236 -0.6278  0.5407
 1727SOL    MW4 6963   0.673   3.845   3.152  0.7050 -0.2174  0.4854
 1728SOL     OW 6964   0.453   4.023   3.057  0.1113  0.2640  0.5113
 1728SOL    HW2 6965   0.538   3.988   3.081  0.7796  0.9171 -0.8529
 1728SOL    HW3 6966   0.445   4.006   2.963 -0.9064  0.9277  0.4636
 1728SOL    MW4 6967   0.463   4.016   3.048  0.0652  0.4382  0.3250
 1729SOL     OW 6968   0.443   4.286   3.152 -0.2102  0.1002  0.1627
 1729SOL    HW2 6969   0.443   4.195   3.123 -0.6475 -0.5671  2.1816
 1729SOL    HW3 6970   0.358   4.320   3.124 -0.3875 -0.3621  0.1366
 1729SOL    MW4 6971   0.432   4.279   3.144 -0.2913 -0.0491  0.4253
 1730SOL     OW 6972   0.678   4.406   3.049 -0.6509  0.0068 -0.1175
 1730SOL    HW2 6973   0.597   4.374   3.088  0.4631 -4.0729 -0.8991
 1730SOL    HW3 6974   0.659   4.412   2.955 -0.4101  0.2123 -0.1550
 1730SOL    MW4 6975   0.665   4.402   3.041 -0.4722 -0.5045 -0.2258
 1731SOL     OW 6976   1.130   4.655   3.123 -0.0394  0.0976  0.0676
 1731SOL    HW2 6977   1.199   4.705   3.079  0.4871 -1.3911 -0.8700
 1731SOL    HW3 6978   1.048   4.691   3.090  0.3280  0.6855 -0.2029
 1731SOL    MW4 6979   1.129   4.666   3.113  0.0787 -0.0215 -0.0918
 1732SOL     OW 6980   0.908   0.106   2.985  0.0077 -0.0130  0.5613
 1732SOL    HW2 6981   0.910   0.195   3.020  0.5118 -0.5976  2.0907
 1732SOL    HW3 6982   0.828   0.068   3.021  0.6333 -0.6846  1.2676
 1732SOL    MW4 6983   0.898   0.113   2.994  0.1568 -0.1787  0.8564
 1733SOL     OW 6984   0.913   0.363   3.106  0.2245 -0.1260  0.2263
 1733SOL    HW2 6985   0.924   0.345   3.199  1.3125 -0.1608  0.0963
 1733SOL    HW3 6986   0.991   0.413   3.082 -0.7106  1.0930 -0.3638
 1733SOL    MW4 6987   0.925   0.367   3.115  0.2447  0.0302  0.1314
 1734SOL     OW 6988   1.122   0.513   3.009 -1.2305 -0.1874  0.3662
 1734SOL    HW2 6989   1.205   0.470   3.032 -0.2877  1.5433  0.2810
 1734SOL    HW3 6990   1.118   0.508   2.914 -0.0559  1.7484  0.1745
 1734SOL    MW4 6991   1.132   0.507   3.000 -0.9512  0.2963  0.3297
 1735SOL     OW 6992   1.104   0.773   3.140 -0.4190  0.1399  0.0024
 1735SOL    HW2 6993   1.120   0.755   3.233  0.9714  0.8777 -0.0771
 1735SOL    HW3 6994   1.119   0.690   3.097  0.1146  0.0686  0.3131
 1735SOL    MW4 6995   1.108   0.760   3.147 -0.1651  0.2278  0.0327
 1736SOL     OW 6996   0.881   0.898   3.033  0.0800  0.2841  0.1994
 1736SOL    HW2 6997   0.962   0.867   3.072  0.2037 -0.3694 -0.5716
 1736SOL    HW3 6998   0.814   0.837   3.064  0.4003 -1.0716 -1.6980
 1736SOL    MW4 6999   0.883   0.886   3.042  0.1385  0.0191 -0.1523
 1737SOL     OW 7000   0.922   1.143   3.165  0.1105 -0.1731 -0.1916
 1737SOL    HW2 7001   1.002   1.162   3.117  1.1451 -0.9833  1.1796
 1737SOL    HW3 7002   0.892   1.059   3.129 -0.6830  0.6056 -1.3943
 1737SOL    MW4 7003   0.928   1.134   3.154  0.1423 -0.1773 -0.1693
 1738SOL     OW 7004   1.166   1.237   3.055 -0.3812 -0.7805 -0.0787
 1738SOL    HW2 7005   1.248   1.197   3.083  0.2472  1.1181  0.8923
 1738SOL    HW3 7006   1.174   1.244   2.959 -0.7473 -3.4261 -0.3264
 1738SOL    MW4 7007   1.178   1.233   3.046 -0.3465 -0.8789  0.0167
 1739SOL     OW 7008   1.121   1.511   3.150  0.5961 -0.1297  0.0351
 1739SOL    HW2 7009   1.204   1.550   3.123  0.9816 -0.9944 -0.0321
 1739SOL    HW3 7010   1.129   1.419   3.127 -0.5832 -0.1184 -0.4201
 1739SOL    MW4 7011   1.133   1.504   3.144  0.4914 -0.2422 -0.0341
 1740SOL     OW 7012   0.905   1.640   3.017 -0.0800 -0.4935  0.5422
 1740SOL    HW2 7013   0.976   1.600   3.067 -0.6071 -0.3395  1.4203
 1740SOL    HW3 7014   0.826   1.622   3.068 -0.9445 -2.3210 -1.3779
 1740SOL    MW4 7015   0.904   1.632   3.030 -0.2636 -0.7144  0.4048
 1741SOL     OW 7016   0.882   1.899   3.122 -0.2018 -0.0260  0.2685
 1741SOL    HW2 7017   0.878   1.883   3.216 -0.5209  0.3906  0.3296
 1741SOL    HW3 7018   0.907   1.815   3.084 -1.0256 -0.4513  0.6399
 1741SOL    MW4 7019   0.885   1.886   3.129 -0.3526 -0.0269  0.3254
 1742SOL     OW 7020   1.115   2.018   3.024  0.4606  0.2190  0.2200
 1742SOL    HW2 7021   1.045   1.972   3.071  0.2899  1.3107  1.0546
 1742SOL    HW3 7022   1.101   1.995   2.932 -0.6642 -0.0213  0.4409
 1742SOL    MW4 7023   1.104   2.009   3.018  0.2896  0.3314  0.3591
 1743SOL     OW 7024   1.111   2.270   3.149  0.5660  0.6765 -0.8503
 1743SOL    HW2 7025   1.038   2.315   3.108 -0.1767  0.4807  0.2170
 1743SOL    HW3 7026   1.114   2.184   3.107  0.6530  0.9582 -1.4148
 1743SOL    MW4 7027   1.102   2.265   3.138  0.4795  0.6881 -0.7842
 1744SOL     OW 7028   0.882   2.406   3.066 -0.1303  0.1439 -0.3702
 1744SOL    HW2 7029   0.800   2.359   3.079 -1.0191  1.7184 -0.1080
 1744SOL    HW3 7030   0.894   2.407   2.971 -0.4660  0.0043 -0.4150
 1744SOL    MW4 7031   0.873   2.400   3.055 -0.2918  0.3331 -0.3417
 1745SOL     OW 7032   0.937   2.667   3.151  0.3979  0.2211  0.2568
 1745SOL    HW2 7033   0.918   2.667   3.245  2.0709 -0.1299  0.6269
 1745SOL    HW3 7034   0.924   2.576   3.125  0.0931  0.2861  0.1784
 1745SOL    MW4 7035   0.933   2.655   3.160  0.5784  0.1836  0.2954
 1746SOL     OW 7036   1.105   2.845   3.009  0.1769  0.2575 -0.3002
 1746SOL    HW2 7037   1.110   2.934   3.045  0.3333  0.3702 -0.5947
 1746SOL    HW3 7038   1.054   2.796   3.073  1.3415  0.1942  0.5964
 1746SOL    MW4 7039   1.099   2.851   3.022  0.3512  0.2639 -0.2208
 1747SOL     OW 7040   1.125   3.089   3.144 -0.0945  0.6372  0.0554
 1747SOL    HW2 7041   1.197   3.152   3.141 -0.0907  0.6017 -0.5952
 1747SOL    HW3 7042   1.048   3.140   3.119 -0.0513  0.3261 -0.7149
 1747SOL    MW4 7043   1.124   3.104   3.140 -0.0882  0.5918 -0.1321
 1748SOL     OW 7044   0.886   3.214   3.080 -0.2980 -0.0933  0.1045
 1748SOL    HW2 7045   0.811   3.155   3.095 -0.5319  0.0225 -0.5942
 1748SOL    HW3 7046   0.896   3.216   2.985  0.3053  0.2586  0.1756
 1748SOL    MW4 7047   0.877   3.206   3.069 -0.2493 -0.0317  0.0215
 1749SOL     OW 7048   0.863   3.496   3.152 -0.2214  0.5336  0.2770
 1749SOL    HW2 7049   0.943   3.522   3.105  0.1670  1.0785  1.2356
 1749SOL    HW3 7050   0.855   3.402   3.135 -0.5319  0.8573 -1.5474
 1749SOL    MW4 7051   0.872   3.487   3.144 -0.2111  0.6483  0.1631
 1750SOL     OW 7052   1.097   3.657   3.056  0.5413 -0.1732 -0.3935
 1750SOL    HW2 7053   1.178   3.611   3.078 -0.0118 -1.1098 -0.3067
 1750SOL    HW3 7054   1.101   3.738   3.108  1.1058 -0.5279  0.1256
 1750SOL    MW4 7055   1.108   3.662   3.066  0.5429 -0.3436 -0.3133
 1751SOL     OW 7056   1.117   3.930   3.157  0.2272  0.4737  0.8127
 1751SOL    HW2 7057   1.115   3.935   3.253  0.2761  0.4578  0.8143
 1751SOL    HW3 7058   1.033   3.966   3.130  0.5618  1.2715  0.8284
 1751SOL    MW4 7059   1.106   3.935   3.166  0.2776  0.5767  0.8149
 1752SOL     OW 7060   0.886   4.006   3.052  0.2909  0.0070 -0.3058
 1752SOL    HW2 7061   0.818   3.947   3.084 -1.9850  2.3705 -0.5956
 1752SOL    HW3 7062   0.879   4.002   2.956  0.4558  0.3500 -0.3350
 1752SOL    MW4 7063   0.876   3.998   3.043  0.0124  0.3638 -0.3476
 1753SOL     OW 7064   0.897   4.273   3.154  0.0559  0.5407  0.0842
 1753SOL    HW2 7065   0.904   4.184   3.118  0.3446  1.2400 -1.6280
 1753SOL    HW3 7066   0.812   4.304   3.124  0.6189  1.4061 -0.6324
 1753SOL    MW4 7067   0.887   4.265   3.145  0.1683  0.7472 -0.2360
 1754SOL     OW 7068   1.090   4.408   3.014 -0.4856  0.4133 -0.1063
 1754SOL    HW2 7069   1.013   4.369   3.057 -1.2851  1.2412 -0.7730
 1754SOL    HW3 7070   1.108   4.486   3.066  0.9957 -0.7047  1.1082
 1754SOL    MW4 7071   1.082   4.413   3.027 -0.3958  0.3753 -0.0341
 1755SOL     OW 7072   1.610   4.644   3.111 -0.1404 -0.1812 -0.4388
 1755SOL    HW2 7073   1.598   4.629   3.205 -0.5308  1.1143 -0.2729
 1755SOL    HW3 7074   1.526   4.680   3.082  0.7068  1.4836 -0.8492
 1755SOL    MW4 7075   1.597   4.647   3.120 -0.0802  0.2098 -0.4709
 1756SOL     OW 7076   1.370   0.088   3.027  0.8790  0.2655  0.6249
 1756SOL    HW2 7077   1.371   0.179   3.057  0.7273  0.4692  0.0225
 1756SOL    HW3 7078   1.368   0.094   2.931 -1.0979 -0.3429  0.6110
 1756SOL    MW4 7079   1.370   0.101   3.018  0.5981  0.2121  0.5436
 1757SOL     OW 7080   1.338   0.348   3.085  0.0993 -0.0900  0.0898
 1757SOL    HW2 7081   1.353   0.345   3.180 -0.1270 -1.0178  0.0987
 1757SOL    HW3 7082   1.422   0.376   3.049  0.7775 -1.6286  0.4266
 1757SOL    MW4 7083   1.351   0.351   3.093  0.1589 -0.4154  0.1354
 1758SOL     OW 7084   1.578   0.472   2.999 -0.3869  0.0144  0.6486
 1758SOL    HW2 7085   1.582   0.560   3.038 -0.2699  0.3229 -0.0583
 1758SOL    HW3 7086   1.573   0.488   2.905  1.6219 -0.7862  0.3873
 1758SOL    MW4 7087   1.578   0.486   2.992 -0.1066 -0.0505  0.5209
 1759SOL     OW 7088   1.592   0.708   3.137  0.0715 -0.2165 -0.2290
 1759SOL    HW2 7089   1.604   0.719   3.231  0.7786  1.2482 -0.4860
 1759SOL    HW3 7090   1.508   0.751   3.118  0.4262  0.3946 -0.4273
 1759SOL    MW4 7091   1.582   0.715   3.147  0.2117  0.0574 -0.2892
 1760SOL     OW 7092   1.359   0.833   3.059  0.2759  0.4094 -0.4070
 1760SOL    HW2 7093   1.368   0.927   3.078 -2.5048  0.8238 -0.9926
 1760SOL    HW3 7094   1.283   0.806   3.109  0.6203 -1.3930 -0.8472
 1760SOL    MW4 7095   1.350   0.842   3.068 -0.0455  0.2263 -0.5424
 1761SOL     OW 7096   1.394   1.094   3.133 -0.6480 -0.0838 -0.2162
 1761SOL    HW2 7097   1.397   1.091   3.229 -0.9742  0.7749 -0.1692
 1761SOL    HW3 7098   1.452   1.166   3.109  1.6573 -2.1085 -0.8332
 1761SOL    MW4 7099   1.402   1.103   3.142 -0.3868 -0.2376 -0.2916
 1762SOL     OW 7100   1.638   1.247   3.012  0.1544  0.4415 -0.4570
 1762SOL    HW2 7101   1.704   1.204   3.066 -1.1056  0.5492  1.2123
 1762SOL    HW3 7102   1.624   1.331   3.055 -1.0241  0.4340 -0.8245
 1762SOL    MW4 7103   1.645   1.252   3.025 -0.1673  0.4547 -0.2851
 1763SOL     OW 7104   1.580   1.496   3.162  0.2510 -0.2886  0.2464
 1763SOL    HW2 7105   1.636   1.563   3.122  0.1572 -0.5862 -0.3863
 1763SOL    HW3 7106   1.491   1.525   3.144  0.1619  0.9110  2.4452
 1763SOL    MW4 7107   1.576   1.509   3.154  0.2269 -0.1696  0.4532
 1764SOL     OW 7108   1.358   1.602   3.045 -0.0292 -0.2795 -0.2546
 1764SOL    HW2 7109   1.367   1.695   3.066  2.2735 -0.1781 -1.6295
 1764SOL    HW3 7110   1.357   1.598   2.950  2.6461 -1.9031 -0.2542
 1764SOL    MW4 7111   1.359   1.613   3.035  0.6276 -0.4803 -0.4356
 1765SOL     OW 7112   1.351   1.885   3.116 -0.6046  0.1748 -0.0907
 1765SOL    HW2 7113   1.329   1.879   3.209 -0.7103 -0.8519 -0.1769
 1765SOL    HW3 7114   1.276   1.930   3.076 -1.2617 -0.7394  0.0840
 1765SOL    MW4 7115   1.338   1.890   3.123 -0.7052 -0.0814 -0.0792
 1766SOL     OW 7116   1.559   2.045   3.029 -0.2565 -0.2312 -0.3059
 1766SOL    HW2 7117   1.484   1.991   3.054 -0.8591 -0.0820 -1.6901
 1766SOL    HW3 7118   1.547   2.058   2.935  1.9859 -0.9416 -0.7207
 1766SOL    MW4 7119   1.548   2.039   3.020 -0.0402 -0.3054 -0.5434
 1767SOL     OW 7120   1.556   2.312   3.134  0.0631  0.1165 -0.0843
 1767SOL    HW2 7121   1.474   2.346   3.098  0.8294  0.3363 -1.6551
 1767SOL    HW3 7122   1.556   2.220   3.108  0.6258  0.2795 -0.6624
 1767SOL    MW4 7123   1.545   2.304   3.126  0.2385  0.1667 -0.3676
 1768SOL     OW 7124   1.316   2.430   3.034 -0.2011  0.3003 -0.3751
 1768SOL    HW2 7125   1.245   2.369   3.053  0.4007 -0.1476  0.4656
 1768SOL    HW3 7126   1.331   2.421   2.940 -1.0319  0.1697 -0.5037
 1768SOL    MW4 7127   1.309   2.421   3.024 -0.2313  0.2241 -0.2813
 1769SOL     OW 7128   1.345   2.708   3.115 -0.3354 -0.7201 -0.0282
 1769SOL    HW2 7129   1.327   2.618   3.085  0.7792 -0.7334 -0.7009
 1769SOL    HW3 7130   1.269   2.758   3.085  0.0429 -1.0360 -1.5889
 1769SOL    MW4 7131   1.332   2.703   3.107 -0.1385 -0.7634 -0.3223
 1770SOL     OW 7132   1.604   2.818   3.020 -0.1590 -0.0185  0.3206
 1770SOL    HW2 7133   1.674   2.761   3.052  0.2825  0.3392 -0.0060
 1770SOL    HW3 7134   1.524   2.774   3.048  0.1367 -1.4342 -0.9913
 1770SOL    MW4 7135   1.603   2.805   3.028 -0.0616 -0.1583  0.1047
 1771SOL     OW 7136   1.572   3.084   3.154  0.1012 -0.3676 -0.0514
 1771SOL    HW2 7137   1.560   3.074   3.248  0.9291 -1.9590 -0.1013
 1771SOL    HW3 7138   1.591   2.996   3.122 -0.5572  0.0895 -1.7703
 1771SOL    MW4 7139   1.573   3.071   3.162  0.1235 -0.5171 -0.2847
 1772SOL     OW 7140   1.347   3.233   3.071 -0.1321  0.0034  0.6028
 1772SOL    HW2 7141   1.422   3.184   3.105 -0.3814 -1.7010 -1.2328
 1772SOL    HW3 7142   1.350   3.218   2.976 -1.3989  1.9084  0.2320
 1772SOL    MW4 7143   1.357   3.225   3.063 -0.3321  0.0298  0.3116
 1773SOL     OW 7144   1.325   3.505   3.125 -0.0314 -0.1218  0.2149
 1773SOL    HW2 7145   1.346   3.501   3.218 -0.8658 -0.7707  0.3718
 1773SOL    HW3 7146   1.331   3.415   3.094 -0.0370  0.0486 -0.3037
 1773SOL    MW4 7147   1.329   3.493   3.133 -0.1423 -0.1848  0.1671
 1774SOL     OW 7148   1.578   3.586   3.051 -0.7506 -0.2486  0.2570
 1774SOL    HW2 7149   1.487   3.557   3.064 -1.5106  2.1660  0.6310
 1774SOL    HW3 7150   1.581   3.612   2.959 -0.2202 -1.0283  0.0522
 1774SOL    MW4 7151   1.566   3.586   3.041 -0.7809 -0.0331  0.2794
 1775SOL     OW 7152   1.547   3.841   3.119 -0.6502  0.6459 -0.1114
 1775SOL    HW2 7153   1.632   3.872   3.089 -0.6623  1.1580  0.3730
 1775SOL    HW3 7154   1.552   3.746   3.110 -0.5736  0.7770 -1.4942
 1775SOL    MW4 7155   1.559   3.832   3.114 -0.6417  0.7305 -0.2301
 1776SOL     OW 7156   1.335   4.016   3.018 -0.0048  0.1258  0.1006
 1776SOL    HW2 7157   1.407   3.960   3.046  1.0012  0.7056 -1.2635
 1776SOL    HW3 7158   1.258   3.980   3.062  0.9189 -1.2320  0.6350
 1776SOL    MW4 7159   1.334   4.004   3.027  0.2497  0.0229 -0.0091
 1777SOL     OW 7160   1.327   4.267   3.117  0.3245  0.2179 -0.3176
 1777SOL    HW2 7161   1.341   4.178   3.086 -0.1887 -0.0343  0.1686
 1777SOL    HW3 7162   1.242   4.292   3.080 -0.1304  0.0405  0.5950
 1777SOL    MW4 7163   1.317   4.259   3.108  0.1966  0.1612 -0.1328
 1778SOL     OW 7164   1.557   4.383   3.005 -0.7441 -0.0523  0.2513
 1778SOL    HW2 7165   1.482   4.341   3.047 -0.6931 -0.7468 -0.3455
 1778SOL    HW3 7166   1.565   4.467   3.049 -0.2279 -1.0699  2.2033
 1778SOL    MW4 7167   1.548   4.388   3.016 -0.6694 -0.2785  0.4303
 1779SOL     OW 7168   2.050   4.648   3.130 -0.1951  0.6115  0.2036
 1779SOL    HW2 7169   2.039   4.647   3.225 -0.3135  0.6513  0.1911
 1779SOL    HW3 7170   1.986   4.712   3.100 -1.6337 -0.9015 -0.0777
 1779SOL    MW4 7171   2.040   4.656   3.139 -0.4005  0.4177  0.1650
 1780SOL     OW 7172   1.834   0.112   3.028  0.1632  0.1519 -0.3670
 1780SOL    HW2 7173   1.762   0.062   3.067 -0.7186  1.4945 -0.2487
 1780SOL    HW3 7174   1.825   0.097   2.933  1.2138 -1.6419 -0.2072
 1780SOL    MW4 7175   1.823   0.104   3.020  0.1855  0.0924 -0.3302
 1781SOL     OW 7176   1.803   0.362   3.121  0.0489  0.8930 -0.1466
 1781SOL    HW2 7177   1.815   0.272   3.090  0.0112  0.6886  0.4428
 1781SOL    HW3 7178   1.723   0.392   3.076  0.1961  0.7193 -0.5274
 1781SOL    MW4 7179   1.794   0.354   3.111  0.0633  0.8431 -0.1190
 1782SOL     OW 7180   2.044   0.469   3.050  0.2159 -0.1521 -0.8062
 1782SOL    HW2 7181   1.960   0.445   3.089  0.5814  0.8072  0.6388
 1782SOL    HW3 7182   2.033   0.454   2.957 -1.0274 -1.5687 -0.4478
 1782SOL    MW4 7183   2.032   0.464   3.043  0.1001 -0.2124 -0.5684
 1783SOL     OW 7184   2.061   0.731   3.148 -0.0955  0.1307  0.0162
 1783SOL    HW2 7185   1.986   0.779   3.113  1.0044  1.2649 -0.8158
 1783SOL    HW3 7186   2.055   0.645   3.106 -1.2525 -0.0089  0.4178
 1783SOL    MW4 7187   2.050   0.726   3.138 -0.1028  0.2620 -0.0405
 1784SOL     OW 7188   1.818   0.849   3.049  0.0798 -0.5268  0.1756
 1784SOL    HW2 7189   1.743   0.801   3.084  0.9257 -2.6981 -0.8611
 1784SOL    HW3 7190   1.799   0.857   2.955  0.5165  0.1204  0.1405
 1784SOL    MW4 7191   1.806   0.844   3.041  0.2490 -0.7280  0.0343
 1785SOL     OW 7192   1.858   1.130   3.139 -0.1948  0.1372  0.5385
 1785SOL    HW2 7193   1.859   1.127   3.235 -1.2557 -1.5850  0.5206
 1785SOL    HW3 7194   1.864   1.038   3.113 -1.7303  0.4721 -1.0333
 1785SOL    MW4 7195   1.859   1.117   3.148 -0.5375 -0.0458  0.3288
 1786SOL     OW 7196   2.068   1.283   3.068 -0.0706 -0.0211  0.2464
 1786SOL    HW2 7197   2.145   1.265   3.122 -0.7196  3.4440  2.4887
 1786SOL    HW3 7198   1.999   1.228   3.105  0.0377  0.7509  1.6543
 1786SOL    MW4 7199   2.069   1.273   3.080 -0.1419  0.5380  0.7281
 1787SOL     OW 7200   2.015   1.533   3.131  0.1008  0.1896  0.1177
 1787SOL    HW2 7201   2.031   1.531   3.225  0.5180  0.1100  0.0443
 1787SOL    HW3 7202   2.024   1.442   3.103  0.8066  0.3342 -0.1351
 1787SOL    MW4 7203   2.018   1.521   3.140  0.2491  0.1981  0.0746
 1788SOL     OW 7204   1.780   1.669   3.046  0.1599  0.0211  0.5082
 1788SOL    HW2 7205   1.767   1.748   3.099 -0.2401  0.0250  0.4054
 1788SOL    HW3 7206   1.866   1.636   3.073  0.6420  0.8800  0.0435
 1788SOL    MW4 7207   1.789   1.675   3.057  0.1708  0.1348  0.4332
 1789SOL     OW 7208   1.782   1.924   3.153  0.5519 -0.1996 -0.1248
 1789SOL    HW2 7209   1.856   1.980   3.131 -0.0873  0.9070  0.4810
 1789SOL    HW3 7210   1.708   1.963   3.105  0.1646 -0.7190  0.0431
 1789SOL    MW4 7211   1.782   1.936   3.144  0.4165 -0.1222 -0.0226
 1790SOL     OW 7212   1.998   2.066   3.076 -0.1091 -0.0626 -0.1542
 1790SOL    HW2 7213   2.075   2.008   3.081  0.8361  1.2760  1.4965
 1790SOL    HW3 7214   2.035   2.154   3.079 -1.7256  0.5928  0.8560
 1790SOL    MW4 7215   2.013   2.070   3.077 -0.1974  0.2007  0.1969
 1791SOL     OW 7216   2.074   2.326   3.093 -0.0675 -0.5456 -0.0036
 1791SOL    HW2 7217   2.136   2.393   3.065 -0.0849  0.4015  2.1686
 1791SOL    HW3 7218   1.992   2.350   3.049  0.1613  0.3226  0.0436
 1791SOL    MW4 7219   2.071   2.338   3.084 -0.0396 -0.3059  0.2890
 1792SOL     OW 7220   1.797   2.415   3.039  0.7623  0.2626 -0.0908
 1792SOL    HW2 7221   1.789   2.497   3.087  1.3567  0.5012 -0.3954
 1792SOL    HW3 7222   1.720   2.365   3.064 -0.0394  1.2506 -0.5608
 1792SOL    MW4 7223   1.786   2.419   3.048  0.7349  0.4244 -0.1931
 1793SOL     OW 7224   1.814   2.687   3.138  0.1648  0.4089 -0.1933
 1793SOL    HW2 7225   1.807   2.706   3.232  0.1863 -1.4964  0.2200
 1793SOL    HW3 7226   1.904   2.712   3.115  0.2647  0.5830  0.3723
 1793SOL    MW4 7227   1.825   2.692   3.147  0.1807  0.1805 -0.0644
 1794SOL     OW 7228   2.058   2.832   3.028  0.1171  0.0439  0.2199
 1794SOL    HW2 7229   2.057   2.928   3.036  3.2177  0.2605 -1.2590
 1794SOL    HW3 7230   2.029   2.816   2.939  0.0846 -0.3766  0.3083
 1794SOL    MW4 7231   2.054   2.843   3.018  0.5217  0.0169  0.0362
 1795SOL     OW 7232   2.045   3.120   3.103  0.3932 -0.1830  0.5363
 1795SOL    HW2 7233   2.031   3.105   3.196 -0.9814 -2.8905 -0.0554
 1795SOL    HW3 7234   1.965   3.164   3.073  0.4336 -0.1546  0.4700
 1795SOL    MW4 7235   2.032   3.123   3.111  0.2174 -0.5364  0.4497
 1796SOL     OW 7236   1.779   3.214   3.016 -0.5369  0.4289  0.1310
 1796SOL    HW2 7237   1.695   3.179   3.046 -0.7132  0.4377 -0.3513
 1796SOL    HW3 7238   1.771   3.218   2.921  1.1509 -2.5982 -0.2349
 1796SOL    MW4 7239   1.767   3.210   3.007 -0.3375  0.0305  0.0191
 1797SOL     OW 7240   1.834   3.468   3.125 -0.0413  0.2789  0.0215
 1797SOL    HW2 7241   1.817   3.379   3.094 -1.4226  0.7090 -0.4949
 1797SOL    HW3 7242   1.760   3.519   3.092  0.4587  1.5085  0.7869
 1797SOL    MW4 7243   1.822   3.463   3.116 -0.1577  0.4978  0.0544
 1798SOL     OW 7244   2.027   3.619   3.010 -0.1705 -0.0651  0.1662
 1798SOL    HW2 7245   2.015   3.704   3.051 -0.1360 -0.2871  0.6352
 1798SOL    HW3 7246   1.965   3.561   3.054  0.9715 -0.6774  1.0052
 1798SOL    MW4 7247   2.017   3.622   3.021 -0.0155 -0.1752  0.3390
 1799SOL     OW 7248   1.984   3.875   3.110  0.1216  0.2760 -0.4827
 1799SOL    HW2 7249   1.989   3.867   3.205 -0.4668 -0.6711 -0.5301
 1799SOL    HW3 7250   1.897   3.912   3.094  0.2508  0.5084 -0.6502
 1799SOL    MW4 7251   1.973   3.879   3.120  0.0609  0.1819 -0.5112
 1800SOL     OW 7252   1.758   3.987   3.004  0.3634 -0.2448  0.3362
 1800SOL    HW2 7253   1.744   4.080   3.023  1.5182 -0.1166  0.6289
 1800SOL    HW3 7254   1.747   3.980   2.909 -0.9780 -0.0500  0.4710
 1800SOL    MW4 7255   1.755   3.999   2.994  0.3388 -0.2024  0.3927
 1801SOL     OW 7256   1.749   4.234   3.119  0.0925  0.1906 -0.1729
 1801SOL    HW2 7257   1.823   4.284   3.084  0.4798 -1.3102 -1.5883
 1801SOL    HW3 7258   1.672   4.282   3.091  0.5025  1.0565  0.1736
 1801SOL    MW4 7259   1.749   4.247   3.111  0.1978  0.1073 -0.3142
 1802SOL     OW 7260   1.963   4.406   3.022 -0.1051  0.0479 -0.1874
 1802SOL    HW2 7261   1.989   4.493   3.052 -0.1922  0.0091  0.0061
 1802SOL    HW3 7262   1.953   4.415   2.927  0.7313  0.0291 -0.2829
 1802SOL    MW4 7263   1.965   4.419   3.013 -0.0062  0.0401 -0.1748
 1803SOL     OW 7264   2.499   4.607   3.139 -0.2225  0.1136 -0.0385
 1803SOL    HW2 7265   2.483   4.517   3.111 -0.7489  0.6442 -1.5072
 1803SOL    HW3 7266   2.428   4.658   3.098  0.1531  1.2146  0.6495
 1803SOL    MW4 7267   2.487   4.602   3.129 -0.2422  0.3285 -0.1414
 1804SOL     OW 7268   2.286   0.074   2.994 -0.3385 -0.3602  0.0061
 1804SOL    HW2 7269   2.276   0.154   3.046 -1.7511  0.0305 -0.8215
 1804SOL    HW3 7270   2.207   0.024   3.011 -0.2465 -0.7949 -0.8049
 1804SOL    MW4 7271   2.274   0.078   3.003 -0.5126 -0.3660 -0.2100
 1805SOL     OW 7272   2.253   0.319   3.119 -0.3910  0.3314 -0.1407
 1805SOL    HW2 7273   2.240   0.321   3.214 -2.0746  0.0854 -0.3506
 1805SOL    HW3 7274   2.187   0.380   3.085 -1.3779 -1.3311 -1.2964
 1805SOL    MW4 7275   2.242   0.327   3.127 -0.7434  0.0796 -0.3209
 1806SOL     OW 7276   2.472   0.493   3.030 -0.0856 -0.1903  0.3891
 1806SOL    HW2 7277   2.390   0.448   3.048  0.1098 -1.0014 -0.7000
 1806SOL    HW3 7278   2.476   0.499   2.935 -0.4834  2.8579  0.5301
 1806SOL    MW4 7279   2.462   0.488   3.020 -0.1125  0.1049  0.2642
 1807SOL     OW 7280   2.488   0.763   3.144  0.3151 -0.1410  0.4851
 1807SOL    HW2 7281   2.565   0.816   3.121 -0.3052  0.1256 -1.0082
 1807SOL    HW3 7282   2.511   0.674   3.118  0.1039 -0.0494 -0.0283
 1807SOL    MW4 7283   2.501   0.759   3.138  0.2055 -0.0936  0.2205
 1808SOL     OW 7284   2.254   0.890   3.036 -0.6031 -0.2304 -0.0387
 1808SOL    HW2 7285   2.341   0.861   3.065 -0.6408  0.5056  0.8033
 1808SOL    HW3 7286   2.193   0.829   3.078 -0.6874  1.0810  1.8006
 1808SOL    MW4 7287   2.257   0.878   3.045 -0.6192  0.0397  0.3152
 1809SOL     OW 7288   2.277   1.141   3.171 -0.2052 -0.0189  0.4596
 1809SOL    HW2 7289   2.295   1.113   3.261  2.4776 -2.0561 -0.6354
 1809SOL    HW3 7290   2.250   1.061   3.126 -0.9257  0.8702 -0.7117
 1809SOL    MW4 7291   2.276   1.127   3.177  0.0539 -0.1704  0.1607
 1810SOL     OW 7292   2.462   1.292   3.020 -0.5883 -0.1770 -0.1133
 1810SOL    HW2 7293   2.389   1.243   3.058 -0.3022 -0.3849  0.1778
 1810SOL    HW3 7294   2.440   1.301   2.928  0.1983 -2.4128 -0.5529
 1810SOL    MW4 7295   2.450   1.287   3.013 -0.4468 -0.4995 -0.1328
 1811SOL     OW 7296   2.487   1.569   3.103  0.1648  0.0972 -0.8420
 1811SOL    HW2 7297   2.397   1.592   3.079 -0.3061 -0.2910  0.4730
 1811SOL    HW3 7298   2.498   1.479   3.074  0.0689  0.0877 -0.8486
 1811SOL    MW4 7299   2.477   1.561   3.096  0.0899  0.0448 -0.6695
 1812SOL     OW 7300   2.238   1.638   3.007 -0.0997 -0.2928  0.0209
 1812SOL    HW2 7301   2.160   1.602   3.049 -0.4802  1.3683  0.7490
 1812SOL    HW3 7302   2.224   1.623   2.913 -0.6054 -1.3068  0.2480
 1812SOL    MW4 7303   2.226   1.631   3.000 -0.2165 -0.2075  0.1469
 1813SOL     OW 7304   2.259   1.889   3.104 -0.2580 -0.3125  0.1783
 1813SOL    HW2 7305   2.346   1.928   3.096  0.8898 -2.6912  0.6826
 1813SOL    HW3 7306   2.264   1.808   3.052 -2.1652 -0.4827  0.2285
 1813SOL    MW4 7307   2.271   1.883   3.096 -0.3583 -0.6487  0.2513
 1814SOL     OW 7308   2.484   2.021   3.044  0.3942 -0.3232  0.0045
 1814SOL    HW2 7309   2.571   1.991   3.072  0.1299 -1.5676 -0.4780
 1814SOL    HW3 7310   2.491   2.028   2.949  0.4603  1.2176  0.1073
 1814SOL    MW4 7311   2.497   2.018   3.036  0.3681 -0.2840 -0.0458
 1815SOL     OW 7312   2.482   2.299   3.113  0.1748 -0.1627 -0.0881
 1815SOL    HW2 7313   2.480   2.305   3.209  0.6010 -2.0589  0.0491
 1815SOL    HW3 7314   2.464   2.207   3.094  2.3344 -0.2938 -1.7336
 1815SOL    MW4 7315   2.480   2.288   3.124  0.5159 -0.4303 -0.2871
 1816SOL     OW 7316   2.280   2.504   3.010 -0.1597  0.1535 -0.0039
 1816SOL    HW2 7317   2.264   2.584   3.060  0.1931 -0.3762  0.9776
 1816SOL    HW3 7318   2.346   2.457   3.061 -0.1284 -0.6122 -0.7415
 1816SOL    MW4 7319   2.286   2.509   3.024 -0.1092 -0.0176  0.0284
 1817SOL     OW 7320   2.288   2.745   3.155  0.2907 -0.1406  0.4891
 1817SOL    HW2 7321   2.362   2.792   3.116 -0.7392  0.6096 -0.6315
 1817SOL    HW3 7322   2.211   2.785   3.114 -0.7984  0.0002  2.6225
 1817SOL    MW4 7323   2.288   2.757   3.144  0.0110 -0.0231  0.6225
 1818SOL     OW 7324   2.523   2.858   3.041 -0.1262  0.6127  0.0130
 1818SOL    HW2 7325   2.543   2.948   3.067 -1.6686  1.3943 -1.4406
 1818SOL    HW3 7326   2.502   2.864   2.948 -0.1661 -1.2742 -0.1131
 1818SOL    MW4 7327   2.523   2.871   3.032 -0.3355  0.4668 -0.1953
 1819SOL     OW 7328   2.510   3.118   3.129  0.0064  0.1897  0.0289
 1819SOL    HW2 7329   2.591   3.157   3.096  0.6540 -1.0926  0.0813
 1819SOL    HW3 7330   2.440   3.169   3.087  0.8322  1.4300  0.1414
 1819SOL    MW4 7331   2.511   3.130   3.119  0.2007  0.1841  0.0505
 1820SOL     OW 7332   2.288   3.237   2.997 -0.2289  0.2702 -0.1968
 1820SOL    HW2 7333   2.275   3.321   3.042 -2.0105 -0.5984  0.9296
 1820SOL    HW3 7334   2.222   3.179   3.034  0.4472 -1.4140 -1.5737
 1820SOL    MW4 7335   2.278   3.241   3.008 -0.3748 -0.0668 -0.2298
 1821SOL     OW 7336   2.246   3.490   3.126 -0.4129 -0.0309 -0.3866
 1821SOL    HW2 7337   2.319   3.531   3.080 -1.1430  0.2444 -1.3134
 1821SOL    HW3 7338   2.168   3.529   3.087 -1.0946 -1.4670 -0.4867
 1821SOL    MW4 7339   2.245   3.500   3.115 -0.5991 -0.1843 -0.5221
 1822SOL     OW 7340   2.434   3.620   2.978 -0.1426  0.0028 -0.5423
 1822SOL    HW2 7341   2.515   3.580   3.012  0.1697  0.9317 -0.1797
 1822SOL    HW3 7342   2.435   3.709   3.012 -1.7009 -0.2007  0.0603
 1822SOL    MW4 7343   2.445   3.626   2.987 -0.3068  0.0985 -0.4151
 1823SOL     OW 7344   2.441   3.889   3.091  0.0556 -0.0787 -0.1968
 1823SOL    HW2 7345   2.442   3.905   3.185  0.4223  0.7221 -0.3380
 1823SOL    HW3 7346   2.525   3.921   3.060 -0.2383  0.0562 -0.8663
 1823SOL    MW4 7347   2.452   3.895   3.099  0.0651  0.0448 -0.3040
 1824SOL     OW 7348   2.206   4.023   3.022 -0.6354  0.4843 -0.1561
 1824SOL    HW2 7349   2.287   3.972   3.027 -0.0631  1.3613 -0.4165
 1824SOL    HW3 7350   2.140   3.967   3.063  0.5746  0.7021  2.2057
 1824SOL    MW4 7351   2.208   4.009   3.028 -0.4003  0.6285  0.1211
 1825SOL     OW 7352   2.205   4.285   3.122 -0.0265 -0.2094 -0.1566
 1825SOL    HW2 7353   2.221   4.203   3.076  0.1407  0.5333 -1.4503
 1825SOL    HW3 7354   2.124   4.319   3.084 -0.0676  0.2526  0.3318
 1825SOL    MW4 7355   2.196   4.279   3.111 -0.0103 -0.0510 -0.2630
 1826SOL     OW 7356   2.443   4.365   3.022 -0.2616  0.1610  0.1251
 1826SOL    HW2 7357   2.353   4.349   3.053 -0.1309  0.0578  0.4501
 1826SOL    HW3 7358   2.436   4.364   2.927 -0.3540 -1.2252  0.1465
 1826SOL    MW4 7359   2.430   4.363   3.014 -0.2565 -0.0358  0.1707
 1827SOL     OW 7360   2.940   4.626   3.147 -0.1304 -0.2064  0.2548
 1827SOL    HW2 7361   3.009   4.670   3.097 -1.0273  1.3046  0.3352
 1827SOL    HW3 7362   2.925   4.544   3.099  0.5649  0.2119 -0.6989
 1827SOL    MW4 7363   2.947   4.621   3.134 -0.1574  0.0482  0.1395
 1828SOL     OW 7364   2.710   0.097   3.068 -0.5290  0.0695  0.0959
 1828SOL    HW2 7365   2.797   0.060   3.080 -0.4819  0.4773  1.1238
 1828SOL    HW3 7366   2.650   0.032   3.106 -0.5604  0.3997  0.6160
 1828SOL    MW4 7367   2.713   0.084   3.075 -0.5271  0.1668  0.3002
 1829SOL     OW 7368   2.701   0.362   3.134 -0.4581 -0.1310  0.1234
 1829SOL    HW2 7369   2.703   0.269   3.114 -1.0950  0.1142 -1.1225
 1829SOL    HW3 7370   2.616   0.392   3.101  0.1868  1.0989 -0.4539
 1829SOL    MW4 7371   2.690   0.354   3.127 -0.4570  0.0637 -0.1171
 1830SOL     OW 7372   2.914   0.505   3.011  0.0992 -0.1770 -0.0721
 1830SOL    HW2 7373   2.836   0.463   3.048  0.5359 -1.2368 -0.3357
 1830SOL    HW3 7374   2.908   0.487   2.917  0.6215 -0.1769 -0.1039
 1830SOL    MW4 7375   2.903   0.497   3.004  0.2255 -0.3168 -0.1111
 1831SOL     OW 7376   2.899   0.755   3.124 -0.3525  0.4472 -0.0994
 1831SOL    HW2 7377   2.895   0.739   3.218  0.7978  0.2637 -0.0865
 1831SOL    HW3 7378   2.912   0.669   3.085 -0.1734  0.6096 -0.3956
 1831SOL    MW4 7379   2.900   0.742   3.131 -0.1771  0.4444 -0.1369
 1832SOL     OW 7380   2.683   0.917   3.028 -0.3924  0.1779  0.0923
 1832SOL    HW2 7381   2.684   1.006   3.064  0.2608  1.0191 -1.9547
 1832SOL    HW3 7382   2.765   0.878   3.058  0.4065  1.0573 -0.9024
 1832SOL    MW4 7383   2.694   0.924   3.037 -0.2007  0.4050 -0.3090
 1833SOL     OW 7384   2.703   1.173   3.123  0.1590 -0.0122 -0.3237
 1833SOL    HW2 7385   2.777   1.211   3.075  0.4472 -1.4058 -1.0283
 1833SOL    HW3 7386   2.627   1.221   3.091  0.7219  1.2224  0.1767
 1833SOL    MW4 7387   2.703   1.184   3.112  0.2711 -0.0333 -0.3505
 1834SOL     OW 7388   2.930   1.287   2.986 -0.3838  0.1702  0.3032
 1834SOL    HW2 7389   2.996   1.226   3.020 -0.1883  0.2281  0.0319
 1834SOL    HW3 7390   2.945   1.367   3.036 -1.7253 -0.4986  1.8345
 1834SOL    MW4 7391   2.941   1.289   2.997 -0.5350  0.0896  0.4694
 1835SOL     OW 7392   2.923   1.526   3.137 -0.2556 -0.2614 -0.4571
 1835SOL    HW2 7393   2.925   1.537   3.232 -1.8001  2.2464 -0.6737
 1835SOL    HW3 7394   3.007   1.561   3.106 -1.3966  2.6737 -0.3300
 1835SOL    MW4 7395   2.935   1.532   3.145 -0.6099  0.4566 -0.4690
 1836SOL     OW 7396   2.719   1.666   2.990 -0.0940  0.0385  0.6090
 1836SOL    HW2 7397   2.787   1.615   3.034  0.3381  1.6052  1.8088
 1836SOL    HW3 7398   2.637   1.638   3.031  0.0039 -0.5723  0.3949
 1836SOL    MW4 7399   2.717   1.656   3.001 -0.0238  0.1646  0.7389
 1837SOL     OW 7400   2.709   1.899   3.135  0.2745 -0.0430 -0.4567
 1837SOL    HW2 7401   2.786   1.936   3.091  0.7508 -0.1985  0.2296
 1837SOL    HW3 7402   2.706   1.808   3.105  0.3369 -0.0295 -0.5043
 1837SOL    MW4 7403   2.719   1.892   3.125  0.3455 -0.0616 -0.3724
 1838SOL     OW 7404   2.922   2.035   3.038  0.0102 -0.4017 -0.0792
 1838SOL    HW2 7405   2.939   2.115   3.088  0.6491 -1.3524  1.2433
 1838SOL    HW3 7406   2.915   2.065   2.947  0.6759  1.0952  0.3438
 1838SOL    MW4 7407   2.923   2.049   3.032  0.1824 -0.3295  0.1512
 1839SOL     OW 7408   2.930   2.290   3.174  0.0253 -0.4024  0.3046
 1839SOL    HW2 7409   3.006   2.347   3.164  0.0026 -0.3491  0.4298
 1839SOL    HW3 7410   2.864   2.328   3.116 -0.7963  1.1198  2.1707
 1839SOL    MW4 7411   2.931   2.303   3.165 -0.0861 -0.1943  0.5674
 1840SOL     OW 7412   2.738   2.419   3.010  0.2002 -0.4547  0.4256
 1840SOL    HW2 7413   2.743   2.502   3.059  0.7010  0.3256 -0.9185
 1840SOL    HW3 7414   2.667   2.370   3.052  1.6029 -0.4484  2.9145
 1840SOL    MW4 7415   2.730   2.424   3.022  0.4511 -0.3505  0.5767
 1841SOL     OW 7416   2.736   2.669   3.123  0.7149  0.1235 -0.1170
 1841SOL    HW2 7417   2.725   2.671   3.218  0.7980 -1.5588 -0.0507
 1841SOL    HW3 7418   2.660   2.715   3.088  0.8367  1.0025  0.7710
 1841SOL    MW4 7419   2.724   2.675   3.131  0.7422  0.0174  0.0091
 1842SOL     OW 7420   2.941   2.825   2.993 -0.2769  0.3469 -0.2091
 1842SOL    HW2 7421   3.023   2.790   3.027  0.2487  0.9203 -0.8759
 1842SOL    HW3 7422   2.873   2.771   3.033  0.4917 -1.0314 -0.7458
 1842SOL    MW4 7423   2.943   2.813   3.003 -0.1061  0.2406 -0.3679
 1843SOL     OW 7424   2.947   3.080   3.102 -0.1133 -0.3277 -0.1187
 1843SOL    HW2 7425   2.882   3.136   3.059  1.2871  0.8443 -0.7481
 1843SOL    HW3 7426   2.941   2.996   3.055 -1.2246 -0.2628 -0.1086
 1843SOL    MW4 7427   2.937   3.076   3.090 -0.0749 -0.1647 -0.2007
 1844SOL     OW 7428   2.747   3.230   3.028 -0.7832 -0.0385 -0.2359
 1844SOL    HW2 7429   2.742   3.318   3.066  2.5262  0.0093  0.2801
 1844SOL    HW3 7430   2.731   3.244   2.935  0.4022  1.2450 -0.2657
 1844SOL    MW4 7431   2.745   3.244   3.021 -0.1900  0.1371 -0.1719
 1845SOL     OW 7432   2.671   3.503   3.110  0.3123  0.7737 -0.1726
 1845SOL    HW2 7433   2.684   3.503   3.204 -0.0609 -1.4432 -0.0957
 1845SOL    HW3 7434   2.757   3.524   3.073  0.9446 -0.3985  0.6185
 1845SOL    MW4 7435   2.684   3.506   3.117  0.3467  0.3264 -0.0577
 1846SOL     OW 7436   2.900   3.578   2.990  0.0405  0.0651 -0.1257
 1846SOL    HW2 7437   2.976   3.530   3.023  1.0478  1.3687 -0.5157
 1846SOL    HW3 7438   2.908   3.666   3.028 -0.8261  0.4640 -0.8338
 1846SOL    MW4 7439   2.911   3.583   3.000  0.0591  0.2897 -0.2708
 1847SOL     OW 7440   2.892   3.842   3.110  0.2603 -0.1684 -0.4266
 1847SOL    HW2 7441   2.901   3.849   3.205  0.5421  0.4834 -0.4982
 1847SOL    HW3 7442   2.803   3.874   3.092  0.6159  0.8019 -0.4923
 1847SOL    MW4 7443   2.881   3.847   3.120  0.3443  0.0458 -0.4451
 1848SOL     OW 7444   2.672   3.979   2.972 -0.0643  0.3002  0.0689
 1848SOL    HW2 7445   2.655   4.069   2.998  1.6298  0.8622 -0.6900
 1848SOL    HW3 7446   2.668   3.980   2.876  1.0728 -0.1770  0.0033
 1848SOL    MW4 7447   2.669   3.991   2.963  0.3092  0.3114 -0.0398
 1849SOL     OW 7448   2.684   4.234   3.088  0.0525 -0.1519  0.3132
 1849SOL    HW2 7449   2.687   4.236   3.184 -0.8185 -0.0249  0.3458
 1849SOL    HW3 7450   2.610   4.292   3.066 -0.5110 -1.1280 -0.3888
 1849SOL    MW4 7451   2.675   4.242   3.098 -0.1369 -0.2642  0.2248
 1850SOL     OW 7452   2.907   4.361   3.006 -0.0860  0.0427 -0.1667
 1850SOL    HW2 7453   2.976   4.319   3.057  0.8922  1.6999 -0.0828
 1850SOL    HW3 7454   2.831   4.303   3.016  0.6731 -0.7014  1.4962
 1850SOL    MW4 7455   2.906   4.348   3.014  0.1433  0.1631  0.0637
 1851SOL     OW 7456   3.306   4.615   3.142 -0.0500  0.4265 -0.0977
 1851SOL    HW2 7457   3.384   4.659   3.110 -0.4733  0.8324 -0.5817
 1851SOL    HW3 7458   3.304   4.531   3.097 -0.0828  0.5663 -0.3591
 1851SOL    MW4 7459   3.316   4.610   3.132 -0.1099  0.4983 -0.1960
 1852SOL     OW 7460   3.127   0.122   3.039 -0.1099 -0.1878  0.5697
 1852SOL    HW2 7461   3.118   0.209   3.079 -0.5691  0.2118 -0.3870
 1852SOL    HW3 7462   3.190   0.077   3.094  1.8453  1.5118 -0.1968
 1852SOL    MW4 7463   3.134   0.128   3.051  0.0875  0.0892  0.3426
 1853SOL     OW 7464   3.116   0.376   3.151 -0.3379  0.0950 -0.2158
 1853SOL    HW2 7465   3.203   0.399   3.117 -0.2334 -0.2262 -0.1674
 1853SOL    HW3 7466   3.055   0.419   3.091 -0.1623 -0.7273 -1.0076
 1853SOL    MW4 7467   3.120   0.385   3.139 -0.3009 -0.0558 -0.3138
 1854SOL     OW 7468   3.377   0.446   3.023  0.2116  0.3052 -0.1432
 1854SOL    HW2 7469   3.461   0.409   3.049 -0.5037 -1.4181 -0.2238
 1854SOL    HW3 7470   3.380   0.445   2.927 -0.6598 -1.6235 -0.1820
 1854SOL    MW4 7471   3.388   0.441   3.014  0.0026 -0.1766 -0.1593
 1855SOL     OW 7472   3.389   0.718   3.112  0.1550 -0.8735  0.3203
 1855SOL    HW2 7473   3.410   0.725   3.205 -1.6197 -0.7850  0.7202
 1855SOL    HW3 7474   3.392   0.624   3.094  0.1062 -0.9188  0.5499
 1855SOL    MW4 7475   3.392   0.707   3.122 -0.0858 -0.8677  0.4036
 1856SOL     OW 7476   3.135   0.839   3.020 -0.3518 -0.2230  0.0870
 1856SOL    HW2 7477   3.206   0.787   3.058 -0.8737 -0.3129  0.9464
 1856SOL    HW3 7478   3.055   0.797   3.051 -0.7873  2.1687  2.3319
 1856SOL    MW4 7479   3.134   0.827   3.029 -0.4780  0.0807  0.4969
 1857SOL     OW 7480   3.135   1.135   3.058 -0.6734 -0.2351  0.6849
 1857SOL    HW2 7481   3.224   1.156   3.029 -0.5225 -0.0441  1.2754
 1857SOL    HW3 7482   3.120   1.045   3.027  0.0378 -0.5733  1.3001
 1857SOL    MW4 7483   3.145   1.126   3.050 -0.5598 -0.2545  0.8440
 1858SOL     OW 7484   3.404   1.242   3.012 -0.3318 -0.2024  0.3206
 1858SOL    HW2 7485   3.470   1.191   3.059 -1.7220  0.0777  2.6581
 1858SOL    HW3 7486   3.409   1.329   3.051 -0.0608  0.6485 -1.5531
 1858SOL    MW4 7487   3.413   1.246   3.024 -0.4795 -0.0532  0.3819
 1859SOL     OW 7488   3.383   1.503   3.132  0.1669  0.1913  0.0835
 1859SOL    HW2 7489   3.388   1.517   3.226  1.3837  1.0197 -0.1011
 1859SOL    HW3 7490   3.457   1.552   3.096  1.6306 -2.7404 -1.0329
 1859SOL    MW4 7491   3.393   1.512   3.139  0.5207 -0.0862 -0.0882
 1860SOL     OW 7492   3.159   1.640   3.073 -0.4504  0.2307 -0.2147
 1860SOL    HW2 7493   3.235   1.589   3.102  1.3380  2.8441 -0.1711
 1860SOL    HW3 7494   3.158   1.629   2.978 -1.7556 -2.1228  0.0423
 1860SOL    MW4 7495   3.169   1.632   3.064 -0.3867  0.2649 -0.1750
 1861SOL     OW 7496   3.146   1.934   3.135  0.5848 -0.6380  0.2213
 1861SOL    HW2 7497   3.154   1.842   3.114 -0.2249 -0.5730 -0.3882
 1861SOL    HW3 7498   3.065   1.962   3.092  0.6578  0.2769  0.6589
 1861SOL    MW4 7499   3.136   1.926   3.127  0.4878 -0.5087  0.1988
 1862SOL     OW 7500   3.357   2.054   3.017 -0.1296 -0.0584  0.2427
 1862SOL    HW2 7501   3.433   2.004   3.046  0.4461  0.1133 -0.9387
 1862SOL    HW3 7502   3.282   2.007   3.054  0.5340 -0.2375  1.4052
 1862SOL    MW4 7503   3.357   2.042   3.026  0.0339 -0.0596  0.2403
 1863SOL     OW 7504   3.368   2.319   3.146 -0.4128 -0.1838  0.3435
 1863SOL    HW2 7505   3.389   2.312   3.239 -2.6581  0.4586  0.9324
 1863SOL    HW3 7506   3.362   2.228   3.116 -3.4891 -0.5511  1.7886
 1863SOL    MW4 7507   3.370   2.306   3.154 -1.1146 -0.1473  0.6118
 1864SOL     OW 7508   3.133   2.457   3.073 -0.1642 -0.2240  0.2878
 1864SOL    HW2 7509   3.209   2.411   3.107  0.4273  0.4750 -0.0852
 1864SOL    HW3 7510   3.136   2.441   2.979 -1.2318 -1.3079  0.4195
 1864SOL    MW4 7511   3.143   2.449   3.065 -0.2267 -0.2747  0.2563
 1865SOL     OW 7512   3.143   2.724   3.156 -0.0815 -0.0242  0.3612
 1865SOL    HW2 7513   3.127   2.715   3.250  0.4607 -0.5816  0.3974
 1865SOL    HW3 7514   3.148   2.634   3.123  1.9441  0.1422  0.1719
 1865SOL    MW4 7515   3.141   2.711   3.164  0.2573 -0.0758  0.3409
 1866SOL     OW 7516   3.373   2.785   3.024 -0.2161 -0.0087  0.2365
 1866SOL    HW2 7517   3.402   2.874   3.042 -0.4726  0.2682 -0.6928
 1866SOL    HW3 7518   3.297   2.772   3.080  0.1460  0.1613  0.7724
 1866SOL    MW4 7519   3.367   2.795   3.034 -0.2022  0.0503  0.1848
 1867SOL     OW 7520   3.408   3.045   3.165 -0.1382 -0.2482  0.0959
 1867SOL    HW2 7521   3.395   3.046   3.260 -0.8292  0.2817 -0.0004
 1867SOL    HW3 7522   3.329   3.085   3.130  0.1434 -0.3894 -0.7039
 1867SOL    MW4 7523   3.396   3.050   3.173 -0.1922 -0.1969 -0.0222
 1868SOL     OW 7524   3.205   3.177   3.022  0.6830 -0.3399  0.0426
 1868SOL    HW2 7525   3.120   3.143   3.050  1.1076 -1.0700  0.4791
 1868SOL    HW3 7526   3.194   3.197   2.929 -0.1237  0.0836  0.2313
 1868SOL    MW4 7527   3.192   3.175   3.013  0.6325 -0.3803  0.1252
 1869SOL     OW 7528   3.133   3.444   3.084  0.3140 -0.3619 -0.1721
 1869SOL    HW2 7529   3.210   3.485   3.044 -0.6592  0.4926 -1.1960
 1869SOL    HW3 7530   3.144   3.350   3.069  1.0922 -0.2324 -0.4159
 1869SOL    MW4 7531   3.145   3.437   3.077  0.2882 -0.2320 -0.3395
 1870SOL     OW 7532   3.341   3.631   3.025 -0.5262 -0.3674 -0.1834
 1870SOL    HW2 7533   3.406   3.588   3.080 -0.9442 -0.8600 -0.0648
 1870SOL    HW3 7534   3.345   3.723   3.050 -1.4156 -0.7370  1.3966
 1870SOL    MW4 7535   3.350   3.637   3.036 -0.6988 -0.4811  0.0410
 1871SOL     OW 7536   3.382   3.886   3.128 -0.1456  0.2896 -0.0633
 1871SOL    HW2 7537   3.393   3.860   3.220 -0.0617  2.7749  0.6554
 1871SOL    HW3 7538   3.290   3.912   3.122 -0.9578 -2.6361 -1.4564
 1871SOL    MW4 7539   3.371   3.886   3.139 -0.2418  0.2315 -0.1523
 1872SOL     OW 7540   3.130   3.985   3.055  0.3696  0.5114  0.1519
 1872SOL    HW2 7541   3.059   3.921   3.054  0.2248  0.6652  0.4171
 1872SOL    HW3 7542   3.137   4.016   2.965  0.4209  0.1437  0.0284
 1872SOL    MW4 7543   3.122   3.981   3.043  0.3572  0.4830  0.1705
 1873SOL     OW 7544   3.110   4.261   3.165  0.6027 -0.1595 -0.2175
 1873SOL    HW2 7545   3.110   4.267   3.260 -0.1976 -0.5919 -0.1872
 1873SOL    HW3 7546   3.096   4.168   3.146 -0.7495  0.1382 -0.7594
 1873SOL    MW4 7547   3.108   4.250   3.175  0.3190 -0.1774 -0.2847
 1874SOL     OW 7548   3.323   4.363   2.998 -0.3734 -0.1183  0.1094
 1874SOL    HW2 7549   3.405   4.335   3.040 -0.1059 -1.1309 -1.0657
 1874SOL    HW3 7550   3.254   4.329   3.055 -0.0313 -2.1230 -0.6437
 1874SOL    MW4 7551   3.325   4.355   3.011 -0.2928 -0.5169 -0.1450
 1875SOL     OW 7552   3.804   4.653   3.091  0.0840  0.2437 -0.3120
 1875SOL    HW2 7553   3.811   4.563   3.060  0.0267 -0.0650  0.5656
 1875SOL    HW3 7554   3.711   4.675   3.079  0.0556  0.1150 -0.3310
 1875SOL    MW4 7555   3.792   4.644   3.085  0.0727  0.1860 -0.1984
 1876SOL     OW 7556   3.533   0.065   3.027  0.0954  0.3476  0.0407
 1876SOL    HW2 7557   3.559   0.156   3.040  1.7966  0.0168 -0.8302
 1876SOL    HW3 7558   3.529   0.055   2.931 -0.4197 -0.4045  0.1336
 1876SOL    MW4 7559   3.536   0.075   3.016  0.2520  0.2047 -0.0618
 1877SOL     OW 7560   3.613   0.319   3.119  0.8048  0.4083 -0.6890
 1877SOL    HW2 7561   3.603   0.324   3.214  0.3094  0.7303 -0.7560
 1877SOL    HW3 7562   3.695   0.365   3.100  0.9732  0.2222 -0.4050
 1877SOL    MW4 7563   3.622   0.326   3.129  0.7620  0.4262 -0.6602
 1878SOL     OW 7564   3.826   0.471   3.033  0.2714 -0.0412 -0.1753
 1878SOL    HW2 7565   3.911   0.453   3.074 -0.7725 -0.1313  1.9596
 1878SOL    HW3 7566   3.803   0.558   3.063 -0.3741  0.0102 -0.8177
 1878SOL    MW4 7567   3.834   0.480   3.042  0.0486 -0.0463  0.0215
 1879SOL     OW 7568   3.814   0.727   3.148  0.4407 -0.2282  0.1885
 1879SOL    HW2 7569   3.828   0.719   3.242  0.7649  0.8727  0.2395
 1879SOL    HW3 7570   3.896   0.764   3.114  0.2423 -0.3990 -0.4931
 1879SOL    MW4 7571   3.827   0.731   3.156  0.4573 -0.1055  0.1054
 1880SOL     OW 7572   3.607   0.859   3.025 -0.1477 -0.4130  0.0894
 1880SOL    HW2 7573   3.670   0.816   3.082 -1.4273 -0.4632  1.5026
 1880SOL    HW3 7574   3.526   0.810   3.037 -0.9822  0.8744 -0.1517
 1880SOL    MW4 7575   3.604   0.847   3.034 -0.4265 -0.2498  0.2439
 1881SOL     OW 7576   3.602   1.110   3.150  0.4635 -0.1228 -0.2409
 1881SOL    HW2 7577   3.671   1.161   3.108 -0.8328  0.6993 -1.4157
 1881SOL    HW3 7578   3.607   1.024   3.108  0.5126  0.0651 -0.6280
 1881SOL    MW4 7579   3.612   1.105   3.139  0.2990  0.0104 -0.4470
 1882SOL     OW 7580   3.818   1.264   3.036  0.6710 -0.2440  0.6211
 1882SOL    HW2 7581   3.820   1.358   3.054 -0.5673  0.1325 -1.0709
 1882SOL    HW3 7582   3.806   1.258   2.941  0.8646 -2.1121  0.6996
 1882SOL    MW4 7583   3.816   1.275   3.026  0.5331 -0.4408  0.4082
 1883SOL     OW 7584   3.813   1.538   3.094  0.1549  0.4044 -0.1517
 1883SOL    HW2 7585   3.833   1.540   3.188 -0.6488 -0.3231  0.0317
 1883SOL    HW3 7586   3.725   1.576   3.088 -0.0175 -0.0591 -0.5505
 1883SOL    MW4 7587   3.804   1.544   3.106  0.0260  0.2472 -0.1800
 1884SOL     OW 7588   3.574   1.667   3.031  0.6405 -0.1389  0.1005
 1884SOL    HW2 7589   3.577   1.754   3.070  0.5455 -0.4819  0.8864
 1884SOL    HW3 7590   3.583   1.682   2.937 -2.4083  0.9493 -0.0669
 1884SOL    MW4 7591   3.576   1.681   3.023  0.2258 -0.0407  0.1822
 1885SOL     OW 7592   3.580   1.926   3.117 -0.7975 -0.1148 -0.4012
 1885SOL    HW2 7593   3.586   1.916   3.212  0.2001 -4.0167 -0.7878
 1885SOL    HW3 7594   3.665   1.961   3.091 -0.8377  0.3344  0.0664
 1885SOL    MW4 7595   3.592   1.929   3.126 -0.6711 -0.5702 -0.3905
 1886SOL     OW 7596   3.840   2.025   3.056  0.0784 -0.4237 -0.0315
 1886SOL    HW2 7597   3.842   2.117   3.082 -0.3790 -0.4922  0.2367
 1886SOL    HW3 7598   3.841   2.028   2.960 -2.4765 -0.0734 -0.0842
 1886SOL    MW4 7599   3.841   2.038   3.046 -0.3192 -0.3865 -0.0031
 1887SOL     OW 7600   3.843   2.277   3.127  0.3301  0.0434 -0.0720
 1887SOL    HW2 7601   3.836   2.266   3.222  0.0472  0.0476 -0.0909
 1887SOL    HW3 7602   3.755   2.305   3.100 -0.0175 -1.4458 -0.5285
 1887SOL    MW4 7603   3.830   2.279   3.136  0.2470 -0.1528 -0.1347
 1888SOL     OW 7604   3.621   2.391   3.019  0.4491  0.2309 -0.1639
 1888SOL    HW2 7605   3.622   2.486   3.035 -0.7535  0.1064  0.7259
 1888SOL    HW3 7606   3.534   2.364   3.046  0.6858 -1.0960 -0.7104
 1888SOL    MW4 7607   3.610   2.400   3.024  0.3216  0.0393 -0.1187
 1889SOL     OW 7608   3.640   2.668   3.096  0.0020 -0.3236  0.3548
 1889SOL    HW2 7609   3.703   2.737   3.076  0.9934 -1.3041  0.0386
 1889SOL    HW3 7610   3.555   2.706   3.077  0.5841  0.6179 -0.3716
 1889SOL    MW4 7611   3.637   2.682   3.091  0.2096 -0.3285  0.2172
 1890SOL     OW 7612   3.860   2.871   3.062 -0.3071  0.3076 -0.3313
 1890SOL    HW2 7613   3.873   2.960   3.092  3.7568 -0.1516 -0.4514
 1890SOL    HW3 7614   3.844   2.879   2.968  1.2166  0.8674 -0.5553
 1890SOL    MW4 7615   3.860   2.883   3.053  0.4303  0.3209 -0.3767
 1891SOL     OW 7616   3.847   3.154   3.175  0.5011 -0.1655 -0.2307
 1891SOL    HW2 7617   3.899   3.183   3.099  0.4349  1.3395  0.2740
 1891SOL    HW3 7618   3.756   3.162   3.145  0.4936 -0.1535 -0.2050
 1891SOL    MW4 7619   3.842   3.159   3.161  0.4914  0.0346 -0.1607
 1892SOL     OW 7620   3.609   3.199   3.064 -0.3316 -0.2839  0.3180
 1892SOL    HW2 7621   3.538   3.148   3.105 -0.5682 -0.6290 -0.5160
 1892SOL    HW3 7622   3.581   3.211   2.974  0.7006 -0.4652 -0.0342
 1892SOL    MW4 7623   3.596   3.194   3.058 -0.2267 -0.3536  0.1614
 1893SOL     OW 7624   3.570   3.479   3.134 -0.3162 -0.0404  0.3260
 1893SOL    HW2 7625   3.646   3.530   3.105  0.3505 -1.3663 -0.3283
 1893SOL    HW3 7626   3.591   3.389   3.108  0.2823 -1.3219  4.8898
 1893SOL    MW4 7627   3.583   3.474   3.127 -0.1490 -0.3843  0.8419
 1894SOL     OW 7628   3.812   3.601   3.027  0.0034  0.0421 -0.2292
 1894SOL    HW2 7629   3.827   3.685   3.072 -0.2477  0.2600 -0.5483
 1894SOL    HW3 7630   3.808   3.624   2.934 -0.7817 -0.2161 -0.2629
 1894SOL    MW4 7631   3.813   3.615   3.021 -0.1333  0.0370 -0.2761
 1895SOL     OW 7632   3.804   3.842   3.191 -0.4504  0.3870  0.5134
 1895SOL    HW2 7633   3.816   3.872   3.281 -0.2963  0.8429  0.3407
 1895SOL    HW3 7634   3.741   3.903   3.153 -2.1220 -1.0457  0.9255
 1895SOL    MW4 7635   3.798   3.854   3.198 -0.6509  0.2582  0.5450
 1896SOL     OW 7636   3.600   4.018   3.046 -0.2857 -0.1617  0.3795
 1896SOL    HW2 7637   3.512   3.981   3.047  0.2765 -1.5542 -0.1638
 1896SOL    HW3 7638   3.626   4.018   2.954  0.2381  0.3610  0.5210
 1896SOL    MW4 7639   3.592   4.013   3.034 -0.1426 -0.2766  0.3264
 1897SOL     OW 7640   3.563   4.294   3.125  0.3831 -0.1087 -0.0666
 1897SOL    HW2 7641   3.636   4.343   3.088 -0.2229  0.3496 -0.6952
 1897SOL    HW3 7642   3.578   4.203   3.099  0.4721  0.0634 -0.6199
 1897SOL    MW4 7643   3.574   4.289   3.116  0.3152 -0.0253 -0.2224
 1898SOL     OW 7644   3.806   4.387   3.017  0.1978 -0.0991 -0.4131
 1898SOL    HW2 7645   3.882   4.336   3.043 -1.1355 -2.2708 -0.5983
 1898SOL    HW3 7646   3.812   4.393   2.922  0.1524 -0.3036 -0.4311
 1898SOL    MW4 7647   3.817   4.381   3.008  0.0157 -0.4129 -0.4401
 1899SOL     OW 7648   4.252   4.637   3.123  0.1592 -0.0262 -0.3211
 1899SOL    HW2 7649   4.244   4.628   3.218  1.4748  0.5991 -0.1486
 1899SOL    HW3 7650   4.258   4.547   3.090  1.9570 -0.1877  0.3985
 1899SOL    MW4 7651   4.251   4.624   3.131  0.5698  0.0353 -0.2031
 1900SOL     OW 7652   4.033   0.094   3.008 -0.1210  0.6538  0.2397
 1900SOL    HW2 7653   4.102   0.033   3.036  0.3339  1.0269 -0.0587
 1900SOL    HW3 7654   3.951   0.049   3.030  0.1806 -0.9181 -1.7630
 1900SOL    MW4 7655   4.032   0.080   3.015 -0.0210  0.4957 -0.0639
 1901SOL     OW 7656   4.068   0.356   3.153  0.0208 -0.1415  0.4032
 1901SOL    HW2 7657   4.138   0.396   3.102 -0.3012 -0.4943 -0.3390
 1901SOL    HW3 7658   4.055   0.270   3.112 -1.3562  0.2239  0.0260
 1901SOL    MW4 7659   4.075   0.350   3.141 -0.2031 -0.1398  0.2553
 1902SOL     OW 7660   4.257   0.514   3.038 -0.0130 -0.5309  0.3795
 1902SOL    HW2 7661   4.261   0.605   3.069 -0.2381 -0.2762 -0.3446
 1902SOL    HW3 7662   4.272   0.519   2.944 -1.0805 -1.1391  0.1689
 1902SOL    MW4 7663   4.259   0.527   3.030 -0.1841 -0.5774  0.2558
 1903SOL     OW 7664   4.293   0.779   3.155  0.1247  0.1837  0.3891
 1903SOL    HW2 7665   4.217   0.802   3.102 -0.3139  1.7647  1.6715
 1903SOL    HW3 7666   4.368   0.816   3.108 -0.1051  0.2884  0.1120
 1903SOL    MW4 7667   4.293   0.787   3.142  0.0358  0.4061  0.5217
 1904SOL     OW 7668   4.064   0.842   3.033 -0.0654  0.1923 -0.3034
 1904SOL    HW2 7669   4.054   0.935   3.051 -1.2105 -0.1914  1.1860
 1904SOL    HW3 7670   4.058   0.835   2.938 -1.0449  1.5246 -0.3498
 1904SOL    MW4 7671   4.062   0.853   3.023 -0.3452  0.3174 -0.1130
 1905SOL     OW 7672   4.036   1.110   3.100  0.2335 -0.1858  0.2218
 1905SOL    HW2 7673   4.035   1.121   3.195  1.2476  0.4254  0.1664
 1905SOL    HW3 7674   3.962   1.163   3.070  1.3258  1.5532  0.4929
 1905SOL    MW4 7675   4.026   1.118   3.109  0.5121  0.1242  0.2501
 1906SOL     OW 7676   4.254   1.258   3.014 -0.0307 -0.2036  0.1379
 1906SOL    HW2 7677   4.183   1.205   3.050 -0.6753  0.2026 -0.5022
 1906SOL    HW3 7678   4.244   1.249   2.919 -0.3436  1.2915  0.0062
 1906SOL    MW4 7679   4.243   1.250   3.006 -0.1569  0.0472  0.0358
 1907SOL     OW 7680   4.282   1.516   3.123  0.6117  0.0092 -0.3846
 1907SOL    HW2 7681   4.201   1.555   3.088 -0.0304 -0.8916  0.0711
 1907SOL    HW3 7682   4.284   1.428   3.087  0.5658 -0.5171  0.8547
 1907SOL    MW4 7683   4.271   1.510   3.114  0.5207 -0.1792 -0.1612
 1908SOL     OW 7684   4.056   1.659   3.027 -0.1864 -0.3881 -0.0669
 1908SOL    HW2 7685   4.050   1.744   3.071  0.3859 -0.2351 -0.2874
 1908SOL    HW3 7686   3.973   1.616   3.049 -0.1790 -0.0622  0.6326
 1908SOL    MW4 7687   4.044   1.665   3.036 -0.1092 -0.3250 -0.0036
 1909SOL     OW 7688   4.061   1.908   3.168 -0.5176 -0.3047 -0.6606
 1909SOL    HW2 7689   4.134   1.950   3.121 -1.0681 -1.4494 -2.6095
 1909SOL    HW3 7690   3.984   1.955   3.137 -0.6405  0.9504  1.4525
 1909SOL    MW4 7691   4.061   1.920   3.157 -0.6070 -0.2902 -0.6390
 1910SOL     OW 7692   4.269   2.029   3.041 -0.3186  0.1070 -0.0648
 1910SOL    HW2 7693   4.247   2.118   3.070 -0.8319  0.1067 -0.4303
 1910SOL    HW3 7694   4.268   2.035   2.945 -1.5406 -0.5692 -0.1019
 1910SOL    MW4 7695   4.266   2.042   3.032 -0.5474  0.0179 -0.1178
 1911SOL     OW 7696   4.250   2.288   3.138 -0.2208 -0.3024  0.1444
 1911SOL    HW2 7697   4.189   2.354   3.104 -0.5206 -1.1233 -0.9512
 1911SOL    HW3 7698   4.337   2.326   3.123 -0.3459 -0.6243 -1.5638
 1911SOL    MW4 7699   4.253   2.302   3.132 -0.2766 -0.4532 -0.2258
 1912SOL     OW 7700   4.043   2.432   3.025 -0.1960  0.3175  0.0520
 1912SOL    HW2 7701   4.043   2.521   3.062  0.4243  0.4034 -0.1425
 1912SOL    HW3 7702   3.969   2.389   3.067 -2.9026  2.1033 -2.7376
 1912SOL    MW4 7703   4.033   2.438   3.035 -0.4711  0.5643 -0.3417
 1913SOL     OW 7704   4.036   2.682   3.141 -0.2299  0.1297 -0.4989
 1913SOL    HW2 7705   4.042   2.677   3.236  1.4841 -1.5308 -0.6618
 1913SOL    HW3 7706   3.974   2.753   3.124 -1.3470 -0.2380  1.8621
 1913SOL    MW4 7707   4.029   2.690   3.151 -0.1512 -0.1378 -0.2089
 1914SOL     OW 7708   4.266   2.785   3.011 -0.0450  0.0317  0.1189
 1914SOL    HW2 7709   4.206   2.724   3.054 -0.0087 -0.5255 -0.6159
 1914SOL    HW3 7710   4.353   2.756   3.038 -0.0599  0.2546  0.4144
 1914SOL    MW4 7711   4.270   2.773   3.020 -0.0424 -0.0129  0.0610
 1915SOL     OW 7712   4.258   3.058   3.112 -0.2445 -0.0443  0.1341
 1915SOL    HW2 7713   4.174   3.088   3.076 -0.3686  0.1928  0.6149
 1915SOL    HW3 7714   4.261   2.964   3.092  0.7303  0.4897 -2.5577
 1915SOL    MW4 7715   4.248   3.050   3.104 -0.1326  0.0575 -0.1576
 1916SOL     OW 7716   4.054   3.208   3.000 -0.2844  0.4641  0.2700
 1916SOL    HW2 7717   4.057   3.296   3.037  1.7527  0.4820  0.0870
 1916SOL    HW3 7718   4.057   3.222   2.905 -2.1048  0.2673  0.1593
 1916SOL    MW4 7719   4.055   3.221   2.992 -0.2561  0.4404  0.2310
 1917SOL     OW 7720   4.043   3.483   3.117 -0.1472  0.0843 -0.2657
 1917SOL    HW2 7721   4.036   3.487   3.212  1.4293 -0.4629 -0.1210
 1917SOL    HW3 7722   3.962   3.524   3.085 -0.6660  0.2911  1.2979
 1917SOL    MW4 7723   4.031   3.489   3.125 -0.0076  0.0393 -0.0403
 1918SOL     OW 7724   4.279   3.582   3.002  0.1064 -0.1069 -0.0786
 1918SOL    HW2 7725   4.277   3.676   3.022  0.3349 -0.2614  0.6764
 1918SOL    HW3 7726   4.203   3.546   3.047 -0.7101 -0.0919 -1.4105
 1918SOL    MW4 7727   4.269   3.590   3.010  0.0291 -0.1252 -0.1547
 1919SOL     OW 7728   4.276   3.848   3.090  0.0619 -0.1030 -0.4562
 1919SOL    HW2 7729   4.204   3.910   3.098 -0.7704 -1.0735 -0.3160
 1919SOL    HW3 7730   4.352   3.902   3.068 -0.7063  0.9245 -0.6206
 1919SOL    MW4 7731   4.277   3.863   3.088 -0.1497 -0.0954 -0.4592
 1920SOL     OW 7732   4.045   3.995   3.085  0.5411  0.0214  0.2231
 1920SOL    HW2 7733   4.043   4.090   3.100  1.9031 -0.2421  2.3116
 1920SOL    HW3 7734   3.972   3.961   3.136  0.7680 -0.1522  0.4373
 1920SOL    MW4 7735   4.035   4.003   3.094  0.7505 -0.0362  0.5267
 1921SOL     OW 7736   4.038   4.262   3.110 -0.0292 -0.0989  0.1277
 1921SOL    HW2 7737   4.038   4.266   3.205 -0.3613 -1.1214  0.1788
 1921SOL    HW3 7738   4.124   4.295   3.084  0.1400 -0.0203  0.7964
 1921SOL    MW4 7739   4.049   4.267   3.119 -0.0510 -0.2236  0.2229
 1922SOL     OW 7740   4.266   4.381   2.983 -0.3241 -0.4941 -0.2890
 1922SOL    HW2 7741   4.351   4.344   3.007  0.0427  0.9815  0.7969
 1922SOL    HW3 7742   4.271   4.396   2.889  0.5173 -0.6762 -0.2719
 1922SOL    MW4 7743   4.278   4.378   2.974 -0.1645 -0.3238 -0.1435
 1923SOL     OW 7744   0.183   4.619   3.372 -0.0283  0.6311 -0.2907
 1923SOL    HW2 7745   0.247   4.659   3.432  0.1688  1.0465 -0.7728
 1923SOL    HW3 7746   0.177   4.528   3.401  1.4492  0.3599 -0.7925
 1923SOL    MW4 7747   0.191   4.613   3.384  0.1926  0.6499 -0.4208
 1924SOL     OW 7748   4.480   0.084   3.498  0.0801  0.7253  0.6566
 1924SOL    HW2 7749   4.486   0.172   3.459  0.4217  0.1737 -0.5637
 1924SOL    HW3 7750   4.545   0.033   3.450 -0.7610 -0.4230  0.7376
 1924SOL    MW4 7751   4.490   0.089   3.487  0.0134  0.5010  0.5064
 1925SOL     OW 7752   0.022   0.356   3.437 -0.0434 -0.3580 -0.0552
 1925SOL    HW2 7753  -0.053   0.409   3.463 -0.1383 -0.8780  0.7227
 1925SOL    HW3 7754   0.094   0.388   3.491  0.1024 -0.4553 -0.1895
 1925SOL    MW4 7755   0.022   0.367   3.447 -0.0367 -0.4394  0.0296
 1926SOL     OW 7756   0.233   0.493   3.573 -0.0299 -0.0954 -0.2277
 1926SOL    HW2 7757   0.309   0.445   3.539 -0.4772  0.0907 -1.4964
 1926SOL    HW3 7758   0.226   0.570   3.516 -1.2254 -0.1597 -0.1673
 1926SOL    MW4 7759   0.242   0.497   3.561 -0.2466 -0.0793 -0.3870
 1927SOL     OW 7760   0.206   0.719   3.415  0.5000  0.1408  0.0167
 1927SOL    HW2 7761   0.287   0.757   3.450  0.8229 -0.7319  0.2226
 1927SOL    HW3 7762   0.136   0.764   3.461  0.8743  0.6865  0.0559
 1927SOL    MW4 7763   0.208   0.730   3.425  0.5920  0.0977  0.0486
 1928SOL     OW 7764   0.005   0.856   3.535  0.2303 -0.0180 -0.2877
 1928SOL    HW2 7765   0.002   0.878   3.628  0.4729 -0.1975 -0.2368
 1928SOL    HW3 7766   0.014   0.940   3.491 -0.3371  0.1051 -0.1736
 1928SOL    MW4 7767   0.006   0.870   3.542  0.1874 -0.0255 -0.2661
 1929SOL     OW 7768   4.484   1.100   3.431  0.1997  0.2796  0.1912
 1929SOL    HW2 7769   4.566   1.145   3.451  1.0385 -1.3023  0.3409
 1929SOL    HW3 7770   4.471   1.117   3.337 -0.6244  2.6379  0.7097
 1929SOL    MW4 7771   4.493   1.108   3.421  0.2012  0.3821  0.2794
 1930SOL     OW 7772   0.234   1.225   3.487 -0.2673  0.5718 -0.0085
 1930SOL    HW2 7773   0.316   1.181   3.467 -0.9112 -0.6926  0.0508
 1930SOL    HW3 7774   0.252   1.318   3.474  1.0047  0.2569 -0.5388
 1930SOL    MW4 7775   0.247   1.231   3.483 -0.1844  0.3633 -0.0708
 1931SOL     OW 7776   0.240   1.492   3.444  0.6739  0.2030 -0.5812
 1931SOL    HW2 7777   0.327   1.527   3.464  1.1245 -0.9056 -0.5741
 1931SOL    HW3 7778   0.236   1.492   3.349  1.0428 -0.5812 -0.6062
 1931SOL    MW4 7779   0.251   1.496   3.434  0.7820 -0.0468 -0.5834
 1932SOL     OW 7780   0.030   1.653   3.522 -0.2744  0.1398 -0.2975
 1932SOL    HW2 7781  -0.044   1.616   3.473  0.0787 -0.2306 -0.5542
 1932SOL    HW3 7782   0.103   1.594   3.503 -0.0419  0.2012  0.3856
 1932SOL    MW4 7783   0.029   1.640   3.513 -0.1971  0.0991 -0.2413
 1933SOL     OW 7784   0.000   1.926   3.460  0.0349 -0.0005  0.1879
 1933SOL    HW2 7785   0.005   1.833   3.481 -1.4744  0.4269  2.6181
 1933SOL    HW3 7786  -0.007   1.928   3.365 -2.5041 -2.4915  0.2635
 1933SOL    MW4 7787   0.000   1.914   3.451 -0.4992 -0.2729  0.5183
 1934SOL     OW 7788   0.247   2.012   3.536  0.0292 -0.4667  0.0548
 1934SOL    HW2 7789   0.254   2.032   3.629 -1.0458  0.8043 -0.1301
 1934SOL    HW3 7790   0.160   1.974   3.526 -0.0083 -0.2472 -0.4931
 1934SOL    MW4 7791   0.236   2.009   3.547 -0.1175 -0.2701 -0.0420
 1935SOL     OW 7792   0.239   2.268   3.400 -0.3834 -0.2308 -0.0766
 1935SOL    HW2 7793   0.174   2.329   3.434  1.0504  1.5716 -0.4832
 1935SOL    HW3 7794   0.237   2.194   3.460 -1.1136  0.8703  1.2772
 1935SOL    MW4 7795   0.230   2.267   3.412 -0.2906  0.1521  0.0484
 1936SOL     OW 7796   0.039   2.442   3.474  0.2497 -0.4337 -0.1904
 1936SOL    HW2 7797   0.037   2.454   3.569 -0.3123 -1.4494 -0.0588
 1936SOL    HW3 7798  -0.035   2.383   3.456  1.0252 -1.1424 -1.1126
 1936SOL    MW4 7799   0.029   2.436   3.484  0.2778 -0.6614 -0.2944
 1937SOL     OW 7800   4.480   2.725   3.390 -0.7214  0.2983  0.4106
 1937SOL    HW2 7801   4.558   2.771   3.422 -0.4311 -0.0380  0.1942
 1937SOL    HW3 7802   4.494   2.634   3.416 -0.8705  0.1719  0.0525
 1937SOL    MW4 7803   4.492   2.719   3.398 -0.7028  0.2372  0.3350
 1938SOL     OW 7804   0.229   2.805   3.490 -0.0354 -0.1196  0.0239
 1938SOL    HW2 7805   0.307   2.763   3.453  0.7112  0.1861  1.2034
 1938SOL    HW3 7806   0.233   2.895   3.458  0.4612  0.0690  0.5865
 1938SOL    MW4 7807   0.240   2.811   3.481  0.1286 -0.0544  0.2534
 1939SOL     OW 7808   0.216   3.070   3.414  0.5343  0.0120  0.1420
 1939SOL    HW2 7809   0.149   3.137   3.431  0.9113  0.2378  0.7647
 1939SOL    HW3 7810   0.230   3.074   3.320 -0.8310 -0.5128 -0.0996
 1939SOL    MW4 7811   0.209   3.079   3.404  0.4039 -0.0272  0.1922
 1940SOL     OW 7812   0.000   3.230   3.491 -0.2392  0.2339 -0.1161
 1940SOL    HW2 7813  -0.081   3.184   3.469 -0.5322  0.6889  0.0203
 1940SOL    HW3 7814  -0.017   3.322   3.470  0.4601  0.2392 -0.7046
 1940SOL    MW4 7815  -0.013   3.236   3.485 -0.1855  0.2944 -0.1755
 1941SOL     OW 7816   0.005   3.483   3.398 -0.4449 -0.3502  0.0089
 1941SOL    HW2 7817  -0.067   3.537   3.432 -0.2931 -0.3639  0.3578
 1941SOL    HW3 7818  -0.010   3.480   3.304  1.9135  3.8740 -0.6547
 1941SOL    MW4 7819  -0.007   3.490   3.390 -0.1137  0.2053 -0.0327
 1942SOL     OW 7820   0.255   3.601   3.475  0.0094 -0.2196 -0.8810
 1942SOL    HW2 7821   0.248   3.593   3.571 -0.6003  2.0896 -0.7149
 1942SOL    HW3 7822   0.170   3.569   3.443 -0.1816 -0.0090 -0.5909
 1942SOL    MW4 7823   0.243   3.596   3.484 -0.0962  0.1130 -0.8209
 1943SOL     OW 7824   0.221   3.856   3.368  0.0962  0.1150  0.1773
 1943SOL    HW2 7825   0.135   3.879   3.404  0.2133 -0.3656  0.7698
 1943SOL    HW3 7826   0.245   3.776   3.414  0.1206 -0.6767 -1.1939
 1943SOL    MW4 7827   0.213   3.848   3.379  0.1149 -0.0527  0.0746
 1944SOL     OW 7828   4.481   3.976   3.451 -0.7156 -0.3493 -0.2769
 1944SOL    HW2 7829   4.508   3.994   3.541  0.5188 -1.1151 -0.4806
 1944SOL    HW3 7830   4.465   4.062   3.412  0.8920  0.0943  0.0283
 1944SOL    MW4 7831   4.482   3.990   3.457 -0.3405 -0.3920 -0.2635
 1945SOL     OW 7832   4.427   4.225   3.356 -0.0278 -0.5738 -0.1467
 1945SOL    HW2 7833   4.363   4.272   3.409  0.3560  0.7708 -0.8783
 1945SOL    HW3 7834   4.511   4.264   3.379  0.2183 -0.4561 -1.2433
 1945SOL    MW4 7835   4.429   4.236   3.366  0.0553 -0.3805 -0.3881
 1946SOL     OW 7836   0.165   4.348   3.446  0.2683 -0.0468  0.2965
 1946SOL    HW2 7837   0.153   4.372   3.538  0.0234  1.5609 -0.1465
 1946SOL    HW3 7838   0.260   4.338   3.436  0.3670  0.6956  0.4968
 1946SOL    MW4 7839   0.176   4.349   3.457  0.2490  0.2632  0.2646
 1947SOL     OW 7840   0.631   0.003   3.392  0.4391  0.1364 -0.1443
 1947SOL    HW2 7841   0.717   0.029   3.426 -0.1282  0.3647  1.1375
 1947SOL    HW3 7842   0.642   0.005   3.297  2.2367 -1.1254  0.0071
 1947SOL    MW4 7843   0.644   0.007   3.384  0.6015  0.0000  0.0443
 1948SOL     OW 7844   0.382   0.093   3.519 -0.1180  0.0253 -0.2467
 1948SOL    HW2 7845   0.420   0.102   3.607  2.4762  0.0971 -1.3489
 1948SOL    HW3 7846   0.454   0.063   3.464 -1.6460  0.2320 -2.4308
 1948SOL    MW4 7847   0.396   0.090   3.524  0.0227  0.0621 -0.6802
 1949SOL     OW 7848   0.420   0.367   3.416 -0.2580  0.0426  0.0375
 1949SOL    HW2 7849   0.510   0.388   3.439 -0.3992  0.7318 -0.0310
 1949SOL    HW3 7850   0.407   0.278   3.449  0.5440 -0.1782 -0.2331
 1949SOL    MW4 7851   0.430   0.358   3.423 -0.1708  0.1044 -0.0072
 1950SOL     OW 7852   0.678   0.455   3.475  0.0177  0.1036  0.1806
 1950SOL    HW2 7853   0.702   0.465   3.567  0.0978  0.9609  0.0724
 1950SOL    HW3 7854   0.758   0.424   3.433  0.0955  0.0951  0.3353
 1950SOL    MW4 7855   0.692   0.453   3.481  0.0386  0.2156  0.1864
 1951SOL     OW 7856   0.685   0.743   3.426  0.4171  0.0469  0.4931
 1951SOL    HW2 7857   0.601   0.779   3.456  1.3400  0.3919  2.7208
 1951SOL    HW3 7858   0.681   0.650   3.449  0.7085  0.0989  0.7554
 1951SOL    MW4 7859   0.673   0.736   3.433  0.5773  0.0993  0.8214
 1952SOL     OW 7860   0.450   0.836   3.498  0.1686 -0.1776 -0.4519
 1952SOL    HW2 7861   0.443   0.848   3.593 -0.4608 -0.4665 -0.4582
 1952SOL    HW3 7862   0.469   0.924   3.465 -0.9070  0.1740 -0.1711
 1952SOL    MW4 7863   0.452   0.850   3.506 -0.0564 -0.1693 -0.4158
 1953SOL     OW 7864   0.487   1.085   3.391  0.3555 -0.7970  0.3524
 1953SOL    HW2 7865   0.558   1.139   3.425 -0.3167 -0.7527  1.7353
 1953SOL    HW3 7866   0.487   1.101   3.297  1.0330  0.5730  0.5701
 1953SOL    MW4 7867   0.496   1.094   3.383  0.3562 -0.6104  0.5636
 1954SOL     OW 7868   0.693   1.235   3.526 -0.2910  0.5500 -0.3065
 1954SOL    HW2 7869   0.783   1.207   3.515 -0.2635  0.7873 -0.7112
 1954SOL    HW3 7870   0.687   1.317   3.477 -0.9809  0.0222 -1.1298
 1954SOL    MW4 7871   0.704   1.242   3.518 -0.3784  0.5118 -0.4687
 1955SOL     OW 7872   0.725   1.476   3.409  0.4631 -0.0000  0.3141
 1955SOL    HW2 7873   0.801   1.518   3.449 -0.2333  0.5693  1.0364
 1955SOL    HW3 7874   0.649   1.522   3.446 -0.2344 -0.5466 -0.4198
 1955SOL    MW4 7875   0.725   1.488   3.419  0.2791  0.0029  0.3123
 1956SOL     OW 7876   0.490   1.584   3.514  0.2505 -0.2108 -0.1249
 1956SOL    HW2 7877   0.473   1.591   3.608  1.0434  0.3920 -0.0273
 1956SOL    HW3 7878   0.482   1.673   3.481 -0.6256 -0.5086 -0.7391
 1956SOL    MW4 7879   0.487   1.597   3.522  0.2396 -0.1706 -0.1929
 1957SOL     OW 7880   0.443   1.837   3.419 -0.0751  0.0720 -0.0207
 1957SOL    HW2 7881   0.364   1.885   3.446 -0.4953 -0.6269 -0.0030
 1957SOL    HW3 7882   0.450   1.855   3.325  0.3389  0.9853  0.1774
 1957SOL    MW4 7883   0.433   1.846   3.410 -0.0759  0.1001  0.0079
 1958SOL     OW 7884   0.644   2.021   3.490  0.4670 -0.3170 -0.1613
 1958SOL    HW2 7885   0.654   2.023   3.586 -0.2724 -2.7083 -0.0188
 1958SOL    HW3 7886   0.574   1.957   3.475  0.7412 -0.1142 -2.3323
 1958SOL    MW4 7887   0.636   2.013   3.501  0.4057 -0.6061 -0.4289
 1959SOL     OW 7888   0.648   2.283   3.380 -0.3123 -0.2167 -0.1101
 1959SOL    HW2 7889   0.722   2.320   3.428 -0.8645  0.3995  0.2778
 1959SOL    HW3 7890   0.648   2.190   3.404 -0.3510  0.0107  0.7772
 1959SOL    MW4 7891   0.658   2.275   3.389 -0.3902 -0.1054  0.0582
 1960SOL     OW 7892   0.440   2.427   3.476  0.2420 -0.1929 -0.2724
 1960SOL    HW2 7893   0.509   2.373   3.438  0.5985 -1.2021  1.7107
 1960SOL    HW3 7894   0.359   2.382   3.453  0.5205 -1.4488  1.1231
 1960SOL    MW4 7895   0.439   2.414   3.468  0.3258 -0.4914  0.1733
 1961SOL     OW 7896   0.470   2.697   3.399  0.4222  0.1009  0.1209
 1961SOL    HW2 7897   0.463   2.612   3.442 -2.6832  0.2175 -0.0831
 1961SOL    HW3 7898   0.464   2.678   3.305 -1.6341  0.6352  0.1231
 1961SOL    MW4 7899   0.469   2.684   3.392 -0.2588  0.1867  0.0942
 1962SOL     OW 7900   0.681   2.853   3.498 -0.4212 -0.3913 -0.5147
 1962SOL    HW2 7901   0.757   2.800   3.474  0.1844 -0.0683  0.6695
 1962SOL    HW3 7902   0.606   2.799   3.472  0.2027 -1.0090 -1.0579
 1962SOL    MW4 7903   0.681   2.839   3.492 -0.2590 -0.4303 -0.4301
 1963SOL     OW 7904   0.654   3.114   3.402  0.3937  0.0240  0.2906
 1963SOL    HW2 7905   0.573   3.148   3.439 -0.4203 -0.5109 -0.9632
 1963SOL    HW3 7906   0.659   3.024   3.435  0.9095  0.3149  1.0275
 1963SOL    MW4 7907   0.644   3.106   3.412  0.3543 -0.0083  0.2222
 1964SOL     OW 7908   0.426   3.202   3.527  0.5029  0.1378  0.3095
 1964SOL    HW2 7909   0.421   3.209   3.622  0.1266 -1.3211  0.4209
 1964SOL    HW3 7910   0.356   3.140   3.504  1.0823 -0.1207 -0.8310
 1964SOL    MW4 7911   0.416   3.195   3.537  0.5297 -0.0892  0.1736
 1965SOL     OW 7912   0.478   3.443   3.379 -0.2138  0.2451  0.7750
 1965SOL    HW2 7913   0.454   3.370   3.437  0.2477 -0.0761  0.5719
 1965SOL    HW3 7914   0.415   3.512   3.400 -1.9940 -0.9434 -0.4967
 1965SOL    MW4 7915   0.466   3.442   3.390 -0.3878  0.0458  0.5803
 1966SOL     OW 7916   0.673   3.575   3.501  0.1462 -0.6301  0.1107
 1966SOL    HW2 7917   0.761   3.552   3.470 -0.1713 -1.1881 -0.3856
 1966SOL    HW3 7918   0.614   3.519   3.450 -0.4183 -1.1943  1.3582
 1966SOL    MW4 7919   0.677   3.565   3.491  0.0299 -0.7780  0.2098
 1967SOL     OW 7920   0.663   3.850   3.430  0.1557  0.9085  0.2823
 1967SOL    HW2 7921   0.582   3.894   3.456 -0.5277  0.0457 -0.3386
 1967SOL    HW3 7922   0.649   3.758   3.455  0.6749  0.6336 -0.4270
 1967SOL    MW4 7923   0.651   3.843   3.436  0.1341  0.7586  0.1070
 1968SOL     OW 7924   0.431   4.001   3.493  0.0056  0.1072 -0.2317
 1968SOL    HW2 7925   0.442   4.094   3.471 -1.4265  0.5714  0.9230
 1968SOL    HW3 7926   0.361   3.971   3.435 -1.0436  0.3263  0.8984
 1968SOL    MW4 7927   0.423   4.009   3.482 -0.3218  0.1974  0.0699
 1969SOL     OW 7928   0.437   4.293   3.437 -0.8925  0.2032  0.2714
 1969SOL    HW2 7929   0.511   4.340   3.475 -0.7312  0.5298 -0.4533
 1969SOL    HW3 7930   0.456   4.289   3.344 -2.0152  0.6918  0.0117
 1969SOL    MW4 7931   0.449   4.298   3.430 -1.0193  0.3109  0.1416
 1970SOL     OW 7932   0.664   4.444   3.538  0.2277 -0.1201  0.2648
 1970SOL    HW2 7933   0.733   4.401   3.488 -1.1313 -0.9881 -0.9045
 1970SOL    HW3 7934   0.650   4.527   3.493  0.0568 -0.2361  0.1021
 1970SOL    MW4 7935   0.671   4.449   3.526  0.0258 -0.2499  0.0889
 1971SOL     OW 7936   1.151   4.633   3.393 -0.5195  0.1109 -0.3689
 1971SOL    HW2 7937   1.222   4.685   3.432 -0.1589 -1.3657  0.9988
 1971SOL    HW3 7938   1.165   4.639   3.299  0.3639  1.2959 -0.1719
 1971SOL    MW4 7939   1.162   4.641   3.386 -0.3554  0.0725 -0.1624
 1972SOL     OW 7940   0.898   0.077   3.469 -0.0854  0.4181  0.0462
 1972SOL    HW2 7941   0.934   0.060   3.556  0.2999  0.2552 -0.1446
 1972SOL    HW3 7942   0.958   0.033   3.409 -0.6543  0.0555 -0.2675
 1972SOL    MW4 7943   0.911   0.069   3.472 -0.1097  0.3488 -0.0205
 1973SOL     OW 7944   0.926   0.357   3.381  0.5774 -0.3302 -0.1683
 1973SOL    HW2 7945   1.003   0.404   3.414 -0.2414  0.5983  0.4531
 1973SOL    HW3 7946   0.928   0.274   3.428 -1.4367  1.5799  3.5154
 1973SOL    MW4 7947   0.937   0.353   3.392  0.2036  0.0443  0.3996
 1974SOL     OW 7948   1.160   0.488   3.480 -0.2689  0.2092  0.3547
 1974SOL    HW2 7949   1.152   0.473   3.574 -2.2445 -0.4709  0.0879
 1974SOL    HW3 7950   1.157   0.583   3.471  1.0158  0.3392  1.0436
 1974SOL    MW4 7951   1.159   0.499   3.491 -0.3601  0.1366  0.4103
 1975SOL     OW 7952   1.158   0.747   3.413  0.2955 -0.2183 -0.0904
 1975SOL    HW2 7953   1.232   0.801   3.443  1.0982  0.1572 -2.6651
 1975SOL    HW3 7954   1.082   0.786   3.457  1.3774  0.5546  1.1463
 1975SOL    MW4 7955   1.157   0.760   3.423  0.5440 -0.0668 -0.2670
 1976SOL     OW 7956   0.922   0.855   3.479 -0.0511 -0.1263  0.2478
 1976SOL    HW2 7957   0.922   0.946   3.449 -1.4400  0.1890  1.1512
 1976SOL    HW3 7958   0.832   0.824   3.464  0.6066 -1.6009 -0.7855
 1976SOL    MW4 7959   0.910   0.863   3.473 -0.1476 -0.2792  0.2306
 1977SOL     OW 7960   0.945   1.120   3.438  0.1269 -0.3318  0.3515
 1977SOL    HW2 7961   1.029   1.145   3.476  0.7395 -1.5866 -0.1331
 1977SOL    HW3 7962   0.948   1.152   3.348  0.3044 -0.8192  0.1799
 1977SOL    MW4 7963   0.956   1.127   3.431  0.2311 -0.5617  0.2649
 1978SOL     OW 7964   1.182   1.219   3.548 -0.0316  0.0110  0.1521
 1978SOL    HW2 7965   1.177   1.233   3.642  0.1959 -0.0411  0.1708
 1978SOL    HW3 7966   1.178   1.307   3.510 -0.0742  0.0345  0.2123
 1978SOL    MW4 7967   1.180   1.232   3.555 -0.0073  0.0073  0.1626
 1979SOL     OW 7968   1.153   1.479   3.445  0.0932  0.3799 -0.0775
 1979SOL    HW2 7969   1.232   1.529   3.465  1.1028 -1.0735 -0.2982
 1979SOL    HW3 7970   1.130   1.504   3.356 -0.2951  1.5838  0.3625
 1979SOL    MW4 7971   1.160   1.489   3.436  0.1751  0.3468 -0.0484
 1980SOL     OW 7972   0.916   1.626   3.561 -0.7652 -0.1371 -0.2916
 1980SOL    HW2 7973   0.911   1.715   3.526  0.2588  0.8173  1.8964
 1980SOL    HW3 7974   1.003   1.596   3.538 -0.7848 -0.2388 -0.2348
 1980SOL    MW4 7975   0.927   1.634   3.553 -0.6326 -0.0247  0.0048
 1981SOL     OW 7976   0.871   1.864   3.393 -0.1193  0.0038  0.1518
 1981SOL    HW2 7977   0.949   1.904   3.431  0.2038 -0.9147  0.4614
 1981SOL    HW3 7978   0.799   1.920   3.421  0.5504  1.5642 -1.1402
 1981SOL    MW4 7979   0.872   1.876   3.402  0.0116  0.0885  0.0219
 1982SOL     OW 7980   1.076   1.988   3.507  0.2651  0.4355  0.6945
 1982SOL    HW2 7981   1.166   1.968   3.482  0.2280 -0.1113  0.9910
 1982SOL    HW3 7982   1.068   2.083   3.494 -0.5585 -0.1250 -3.9480
 1982SOL    MW4 7983   1.086   1.998   3.502  0.1515  0.2896  0.1211
 1983SOL     OW 7984   1.113   2.267   3.431 -0.3151 -0.0720  0.0313
 1983SOL    HW2 7985   1.192   2.319   3.444  0.1044 -0.2398 -1.7443
 1983SOL    HW3 7986   1.098   2.270   3.337 -0.6882 -2.5898 -0.0137
 1983SOL    MW4 7987   1.121   2.274   3.420 -0.3090 -0.4263 -0.2091
 1984SOL     OW 7988   0.891   2.416   3.502  0.2583  0.2656  0.0865
 1984SOL    HW2 7989   0.908   2.429   3.596 -0.1858 -2.4555  0.5946
 1984SOL    HW3 7990   0.966   2.365   3.471 -0.3643 -0.1888 -0.6814
 1984SOL    MW4 7991   0.903   2.411   3.511  0.1176 -0.1533  0.0522
 1985SOL     OW 7992   0.891   2.675   3.427 -0.0287  0.6854  0.2836
 1985SOL    HW2 7993   0.970   2.715   3.463 -0.1999  1.1949  0.0965
 1985SOL    HW3 7994   0.882   2.593   3.475  1.4270 -0.0722 -0.7004
 1985SOL    MW4 7995   0.900   2.669   3.438  0.1407  0.6523  0.1292
 1986SOL     OW 7996   1.116   2.813   3.510  0.1688  0.6034 -0.0081
 1986SOL    HW2 7997   1.122   2.829   3.604 -0.8984 -1.7640  0.4942
 1986SOL    HW3 7998   1.198   2.768   3.487 -0.0557  0.1807  0.0113
 1986SOL    MW4 7999   1.128   2.809   3.519 -0.0015  0.2356  0.0608
 1987SOL     OW 8000   1.114   3.077   3.416 -0.4654 -0.2809  0.4892
 1987SOL    HW2 8001   1.117   2.985   3.443 -1.1470 -0.0208  1.4699
 1987SOL    HW3 8002   1.106   3.074   3.321 -0.3230 -1.2370  0.5053
 1987SOL    MW4 8003   1.114   3.065   3.407 -0.5366 -0.3729  0.6208
 1988SOL     OW 8004   0.899   3.229   3.446 -0.1317  0.1866  0.8606
 1988SOL    HW2 8005   0.966   3.163   3.428  0.3869  1.3303 -1.6701
 1988SOL    HW3 8006   0.817   3.188   3.418  0.2281  0.6742 -0.9901
 1988SOL    MW4 8007   0.897   3.215   3.440 -0.0158  0.4020  0.2828
 1989SOL     OW 8008   0.938   3.492   3.422 -0.1077  0.5364  0.2587
 1989SOL    HW2 8009   0.922   3.398   3.434 -0.5962  0.6908  0.8378
 1989SOL    HW3 8010   0.926   3.506   3.328  0.2938 -0.0422  0.1156
 1989SOL    MW4 8011   0.934   3.481   3.411 -0.1191  0.4804  0.3161
 1990SOL     OW 8012   1.158   3.640   3.498 -0.2159  0.4750 -0.1863
 1990SOL    HW2 8013   1.149   3.637   3.593  0.0611  0.4857 -0.1594
 1990SOL    HW3 8014   1.080   3.595   3.465  0.4747 -0.9411  0.0738
 1990SOL    MW4 8015   1.147   3.633   3.506 -0.0880  0.2897 -0.1483
 1991SOL     OW 8016   1.106   3.888   3.425  0.5243 -0.1996 -0.1035
 1991SOL    HW2 8017   1.184   3.923   3.468  1.7149 -1.5500 -1.1156
 1991SOL    HW3 8018   1.109   3.794   3.442 -0.9300 -0.2535 -0.0849
 1991SOL    MW4 8019   1.116   3.880   3.433  0.4897 -0.3850 -0.2346
 1992SOL     OW 8020   0.884   4.022   3.515  0.3174 -0.5487 -0.5462
 1992SOL    HW2 8021   0.947   3.959   3.479  0.9285 -0.7140  0.7786
 1992SOL    HW3 8022   0.799   3.991   3.483  0.7321 -1.3616 -0.8815
 1992SOL    MW4 8023   0.881   4.009   3.506  0.4528 -0.6781 -0.4160
 1993SOL     OW 8024   0.865   4.291   3.431  0.2423  0.3739 -0.4106
 1993SOL    HW2 8025   0.880   4.201   3.460  0.5008  0.4106 -0.4274
 1993SOL    HW3 8026   0.895   4.292   3.340 -1.6895 -0.0439 -1.0768
 1993SOL    MW4 8027   0.871   4.280   3.423  0.0215  0.3238 -0.5007
 1994SOL     OW 8028   1.116   4.383   3.510 -0.1242 -0.3490  0.2775
 1994SOL    HW2 8029   1.029   4.354   3.482  1.0788 -1.3607 -2.5675
 1994SOL    HW3 8030   1.114   4.478   3.497 -0.4810 -0.4885 -0.7810
 1994SOL    MW4 8031   1.104   4.392   3.505 -0.0126 -0.5012 -0.2377
 1995SOL     OW 8032   1.565   4.589   3.402  0.0962 -0.2744  0.0639
 1995SOL    HW2 8033   1.564   4.497   3.429  0.6801  0.0334  1.1446
 1995SOL    HW3 8034   1.491   4.629   3.448  1.2350  0.3020  1.4546
 1995SOL    MW4 8035   1.555   4.582   3.412  0.3235 -0.1583  0.3901
 1996SOL     OW 8036   1.375   0.098   3.511  0.1940  0.5115  0.3161
 1996SOL    HW2 8037   1.375   0.113   3.605  1.2510 -0.8168  0.5529
 1996SOL    HW3 8038   1.368   0.185   3.472  0.4123  1.1244  1.6201
 1996SOL    MW4 8039   1.374   0.111   3.518  0.3623  0.4171  0.5195
 1997SOL     OW 8040   1.369   0.358   3.365  0.2694  0.2567  0.2505
 1997SOL    HW2 8041   1.443   0.380   3.421  0.0872 -0.0866  0.6310
 1997SOL    HW3 8042   1.295   0.404   3.404  0.4531  1.3591 -0.6690
 1997SOL    MW4 8043   1.369   0.367   3.377  0.2697  0.3568  0.1793
 1998SOL     OW 8044   1.568   0.461   3.519  0.0997  0.0620 -0.2146
 1998SOL    HW2 8045   1.571   0.450   3.614 -0.0360  1.5500 -0.0126
 1998SOL    HW3 8046   1.646   0.417   3.486  0.1545 -0.4459  0.5877
 1998SOL    MW4 8047   1.579   0.454   3.527  0.0889  0.1914 -0.0823
 1999SOL     OW 8048   1.614   0.731   3.399  0.2322  0.5761 -0.2961
 1999SOL    HW2 8049   1.543   0.771   3.449 -1.6958  0.9536 -3.2066
 1999SOL    HW3 8050   1.615   0.639   3.427  0.2789  1.1485  1.5900
 1999SOL    MW4 8051   1.605   0.724   3.409 -0.0160  0.7014 -0.4315
 2000SOL     OW 8052   1.397   0.844   3.517  0.1754 -0.4504  0.2036
 2000SOL    HW2 8053   1.369   0.844   3.609 -0.1481 -1.0287  0.1083
 2000SOL    HW3 8054   1.403   0.937   3.494 -0.2856 -0.3064  0.6483
 2000SOL    MW4 8055   1.394   0.856   3.526  0.0720 -0.5078  0.2496
 2001SOL     OW 8056   1.393   1.091   3.401  0.1066 -0.0868 -0.0854
 2001SOL    HW2 8057   1.461   1.150   3.434 -0.5606  1.2892 -1.0702
 2001SOL    HW3 8058   1.311   1.129   3.433 -0.1988 -2.0281  1.5372
 2001SOL    MW4 8059   1.391   1.104   3.409 -0.0217 -0.1614 -0.0014
 2002SOL     OW 8060   1.587   1.246   3.503  0.1136 -0.3111 -0.1440
 2002SOL    HW2 8061   1.572   1.246   3.598 -0.0874  3.1488 -0.0966
 2002SOL    HW3 8062   1.676   1.212   3.494 -0.2642 -1.7286  1.1742
 2002SOL    MW4 8063   1.597   1.242   3.514  0.0372 -0.0417  0.0362
 2003SOL     OW 8064   1.587   1.520   3.436  0.4854 -0.0475 -0.2717
 2003SOL    HW2 8065   1.570   1.429   3.458 -1.2674 -0.3967 -2.8814
 2003SOL    HW3 8066   1.586   1.523   3.340  0.4307  2.7149 -0.2317
 2003SOL    MW4 8067   1.584   1.509   3.426  0.2470  0.2708 -0.6106
 2004SOL     OW 8068   1.346   1.644   3.522 -0.2348  0.1317  0.5325
 2004SOL    HW2 8069   1.353   1.651   3.617 -1.0496 -1.8101  0.7550
 2004SOL    HW3 8070   1.433   1.616   3.493 -0.2107 -0.0761  0.8025
 2004SOL    MW4 8071   1.358   1.641   3.531 -0.3390 -0.1520  0.5975
 2005SOL     OW 8072   1.334   1.898   3.415  0.4139 -0.2344 -0.7294
 2005SOL    HW2 8073   1.407   1.946   3.455 -0.0423 -1.1675  1.2915
 2005SOL    HW3 8074   1.340   1.810   3.453 -1.3656 -0.5060 -1.0522
 2005SOL    MW4 8075   1.344   1.893   3.426  0.1190 -0.3935 -0.5052
 2006SOL     OW 8076   1.535   2.067   3.529  0.8447  0.3495 -0.0954
 2006SOL    HW2 8077   1.622   2.032   3.513  0.3661 -0.6975 -0.4714
 2006SOL    HW3 8078   1.541   2.159   3.505  0.9503 -0.4765 -3.5054
 2006SOL    MW4 8079   1.547   2.074   3.524  0.7955  0.1023 -0.5949
 2007SOL     OW 8080   1.596   2.312   3.424  0.1021 -0.2282  0.1588
 2007SOL    HW2 8081   1.511   2.346   3.451  0.2644 -0.9642  1.6638
 2007SOL    HW3 8082   1.596   2.320   3.329 -1.6864 -0.3236  0.1361
 2007SOL    MW4 8083   1.585   2.318   3.415 -0.1124 -0.3378  0.3541
 2008SOL     OW 8084   1.354   2.415   3.495 -0.2626 -0.4709  0.1340
 2008SOL    HW2 8085   1.351   2.431   3.589 -0.1261  0.4492 -0.0037
 2008SOL    HW3 8086   1.337   2.501   3.456 -1.1429 -1.0087 -0.6832
 2008SOL    MW4 8087   1.352   2.429   3.502 -0.3606 -0.4206  0.0076
 2009SOL     OW 8088   1.330   2.676   3.404 -0.6247  0.0021  0.0348
 2009SOL    HW2 8089   1.409   2.720   3.434 -0.4540 -0.6651  0.5792
 2009SOL    HW3 8090   1.336   2.677   3.309  1.0203 -1.7782  0.0870
 2009SOL    MW4 8091   1.341   2.682   3.395 -0.3852 -0.3207  0.1135
 2010SOL     OW 8092   1.543   2.802   3.517 -0.2703  0.1359 -0.3171
 2010SOL    HW2 8093   1.623   2.762   3.484 -0.9233 -0.0661 -1.7226
 2010SOL    HW3 8094   1.559   2.896   3.513 -0.4879  0.1378 -1.6984
 2010SOL    MW4 8095   1.555   2.809   3.512 -0.3852  0.1097 -0.6847
 2011SOL     OW 8096   1.554   3.068   3.423 -0.7231  0.2687 -0.3130
 2011SOL    HW2 8097   1.632   3.112   3.457 -1.3338  0.9825  0.1769
 2011SOL    HW3 8098   1.481   3.123   3.452 -1.3928 -0.2697 -0.9652
 2011SOL    MW4 8099   1.555   3.081   3.431 -0.8920  0.2918 -0.3345
 2012SOL     OW 8100   1.334   3.219   3.504  0.1709 -0.1276 -0.1016
 2012SOL    HW2 8101   1.324   3.208   3.598 -0.6920 -0.3535 -0.2158
 2012SOL    HW3 8102   1.259   3.174   3.466 -0.0238  0.8122 -0.8531
 2012SOL    MW4 8103   1.323   3.212   3.511  0.0314 -0.0331 -0.2160
 2013SOL     OW 8104   1.370   3.482   3.396 -0.6482 -0.0518 -0.3869
 2013SOL    HW2 8105   1.363   3.394   3.430  0.0206  0.7206  1.8064
 2013SOL    HW3 8106   1.307   3.533   3.446  0.7925  1.2254  0.1697
 2013SOL    MW4 8107   1.361   3.478   3.407 -0.3699  0.2184 -0.0241
 2014SOL     OW 8108   1.599   3.592   3.494  0.2538 -0.5797 -0.0677
 2014SOL    HW2 8109   1.586   3.596   3.588  0.7064  1.4574 -0.0626
 2014SOL    HW3 8110   1.521   3.548   3.461  0.7845 -2.6705  1.3664
 2014SOL    MW4 8111   1.587   3.587   3.502  0.3835 -0.5870  0.1221
 2015SOL     OW 8112   1.558   3.856   3.408 -0.2020  0.0844 -0.4215
 2015SOL    HW2 8113   1.573   3.763   3.425  1.1971  0.2477 -0.7566
 2015SOL    HW3 8114   1.547   3.863   3.313  1.8776  0.5545 -0.6439
 2015SOL    MW4 8115   1.558   3.845   3.398  0.2570  0.1678 -0.4950
 2016SOL     OW 8116   1.347   3.998   3.523 -0.1817  0.0227  0.1131
 2016SOL    HW2 8117   1.359   4.077   3.469  0.8542  0.7745  1.4190
 2016SOL    HW3 8118   1.415   3.938   3.492  0.0428  0.2359  0.1889
 2016SOL    MW4 8119   1.358   4.001   3.512 -0.0154  0.1497  0.2952
 2017SOL     OW 8120   1.338   4.246   3.386 -0.0723 -0.0405  0.1973
 2017SOL    HW2 8121   1.259   4.290   3.416  0.3820  0.0534  1.2443
 2017SOL    HW3 8122   1.338   4.260   3.291 -0.9611  0.5210  0.2748
 2017SOL    MW4 8123   1.327   4.253   3.377 -0.1297  0.0458  0.3459
 2018SOL     OW 8124   1.530   4.350   3.553  0.2497  0.5640  0.1095
 2018SOL    HW2 8125   1.612   4.327   3.508  0.4228 -0.8554  1.1168
 2018SOL    HW3 8126   1.462   4.309   3.500  0.4993 -1.6427  1.4455
 2018SOL    MW4 8127   1.532   4.342   3.540  0.3055  0.0858  0.4187
 2019SOL     OW 8128   2.015   4.603   3.414 -0.2169  0.0814 -0.4785
 2019SOL    HW2 8129   2.087   4.656   3.449  0.2093 -0.5292 -0.4152
 2019SOL    HW3 8130   1.936   4.646   3.446  0.1459  0.1851  0.2988
 2019SOL    MW4 8131   2.014   4.615   3.423 -0.1128  0.0143 -0.3676
 2020SOL     OW 8132   1.788   0.080   3.462 -0.0636 -0.5822  0.3194
 2020SOL    HW2 8133   1.768   0.117   3.548 -0.3512 -0.2571  0.1145
 2020SOL    HW3 8134   1.708   0.035   3.436 -0.5512  0.7367 -0.5100
 2020SOL    MW4 8135   1.775   0.079   3.470 -0.1659 -0.3653  0.1831
 2021SOL     OW 8136   1.787   0.342   3.403  0.0284 -0.0144 -0.1832
 2021SOL    HW2 8137   1.796   0.249   3.425 -1.8943 -0.4545 -1.1816
 2021SOL    HW3 8138   1.788   0.345   3.307 -2.2286  0.7148 -0.2230
 2021SOL    MW4 8139   1.789   0.330   3.393 -0.5231  0.0238 -0.3202
 2022SOL     OW 8140   2.009   0.456   3.522 -0.5046  0.0028  0.2099
 2022SOL    HW2 8141   2.010   0.549   3.501 -0.5826 -0.0965 -0.2281
 2022SOL    HW3 8142   1.927   0.424   3.485 -1.3837  0.1400  1.9929
 2022SOL    MW4 8143   1.998   0.464   3.515 -0.6307  0.0078  0.3874
 2023SOL     OW 8144   2.051   0.700   3.417  0.1090  0.2106 -0.4972
 2023SOL    HW2 8145   2.132   0.743   3.447  2.5009 -2.9669 -2.0251
 2023SOL    HW3 8146   2.061   0.697   3.322 -0.6561 -2.3785 -0.5235
 2023SOL    MW4 8147   2.063   0.705   3.408  0.3235 -0.5502 -0.7021
 2024SOL     OW 8148   1.835   0.847   3.547  0.2542  0.0747 -0.0409
 2024SOL    HW2 8149   1.902   0.799   3.498  0.0549  0.3031 -0.5383
 2024SOL    HW3 8150   1.753   0.823   3.504  0.2156  1.3474 -0.6794
 2024SOL    MW4 8151   1.833   0.837   3.535  0.2227  0.2728 -0.1907
 2025SOL     OW 8152   1.819   1.107   3.434  0.6408 -0.0644 -0.0882
 2025SOL    HW2 8153   1.893   1.154   3.472  1.5959 -1.2016 -0.5157
 2025SOL    HW3 8154   1.821   1.020   3.476  1.4747 -1.1935 -2.3948
 2025SOL    MW4 8155   1.829   1.102   3.445  0.8769 -0.3633 -0.4489
 2026SOL     OW 8156   2.021   1.277   3.531  0.3073 -0.2780  0.3059
 2026SOL    HW2 8157   2.029   1.298   3.624  0.6004  0.5534  0.1039
 2026SOL    HW3 8158   2.026   1.363   3.487  0.8913 -0.7268 -0.5158
 2026SOL    MW4 8159   2.022   1.291   3.537  0.4230 -0.2275  0.1709
 2027SOL     OW 8160   2.033   1.532   3.422 -0.1533  0.0455 -0.0147
 2027SOL    HW2 8161   2.114   1.574   3.451 -0.3951  1.0948 -0.8368
 2027SOL    HW3 8162   1.963   1.588   3.457 -0.5325 -0.8200  0.6336
 2027SOL    MW4 8163   2.034   1.545   3.431 -0.2353  0.0697 -0.0377
 2028SOL     OW 8164   1.816   1.683   3.526 -0.1743  0.1605 -0.9608
 2028SOL    HW2 8165   1.796   1.773   3.501 -0.2711  0.1358 -0.9732
 2028SOL    HW3 8166   1.742   1.632   3.492 -0.8674  0.2774  0.3584
 2028SOL    MW4 8167   1.804   1.688   3.518 -0.2786  0.1727 -0.7882
 2029SOL     OW 8168   1.761   1.930   3.437 -0.6623  0.5620 -0.0853
 2029SOL    HW2 8169   1.841   1.976   3.465 -1.3278  1.4093  0.4583
 2029SOL    HW3 8170   1.771   1.920   3.343 -0.1373  1.1147 -0.0934
 2029SOL    MW4 8171   1.773   1.935   3.428 -0.6808  0.7468 -0.0148
 2030SOL     OW 8172   1.990   2.060   3.517 -0.1720  0.1078 -0.3238
 2030SOL    HW2 8173   2.044   2.009   3.457 -0.2300 -0.9771  0.5273
 2030SOL    HW3 8174   1.978   2.144   3.474  1.1178 -0.1051 -1.1033
 2030SOL    MW4 8175   1.996   2.064   3.504 -0.0094 -0.0634 -0.3145
 2031SOL     OW 8176   2.032   2.298   3.367 -0.5307 -0.0860  0.2206
 2031SOL    HW2 8177   2.112   2.332   3.405 -0.9894  1.2808 -0.0274
 2031SOL    HW3 8178   2.043   2.309   3.273 -1.3569  0.8947  0.2330
 2031SOL    MW4 8179   2.044   2.304   3.360 -0.7002  0.2234  0.1895
 2032SOL     OW 8180   1.834   2.425   3.505 -0.0610 -0.1058  0.6756
 2032SOL    HW2 8181   1.906   2.378   3.464  0.1153  2.0855 -1.6483
 2032SOL    HW3 8182   1.755   2.380   3.475  0.1770  0.0810 -0.2504
 2032SOL    MW4 8183   1.833   2.413   3.496 -0.0063  0.2079  0.2468
 2033SOL     OW 8184   1.771   2.692   3.425 -0.0292 -0.6211  0.1418
 2033SOL    HW2 8185   1.850   2.738   3.452 -0.0272 -0.0051 -0.8962
 2033SOL    HW3 8186   1.789   2.600   3.443  1.0650 -0.5197 -0.4267
 2033SOL    MW4 8187   1.784   2.686   3.431  0.1155 -0.5264 -0.0703
 2034SOL     OW 8188   2.010   2.824   3.487 -0.0717  0.0199  0.1637
 2034SOL    HW2 8189   2.015   2.838   3.581  0.4725 -0.0236  0.1398
 2034SOL    HW3 8190   2.001   2.912   3.450 -0.1130  0.0483  0.2398
 2034SOL    MW4 8191   2.009   2.837   3.494 -0.0052  0.0179  0.1707
 2035SOL     OW 8192   2.040   3.092   3.391 -0.0303 -0.2698  0.1227
 2035SOL    HW2 8193   2.105   3.138   3.444 -1.3201  0.8868  0.7337
 2035SOL    HW3 8194   1.955   3.121   3.426 -0.8846 -1.9218 -0.5024
 2035SOL    MW4 8195   2.037   3.102   3.403 -0.3130 -0.3352  0.1209
 2036SOL     OW 8196   1.794   3.201   3.510 -0.6278 -0.3131  0.2325
 2036SOL    HW2 8197   1.792   3.200   3.606  0.8061 -1.7318  0.2605
 2036SOL    HW3 8198   1.814   3.292   3.488 -0.0786 -0.1626  1.2971
 2036SOL    MW4 8199   1.796   3.213   3.520 -0.3661 -0.4804  0.3767
 2037SOL     OW 8200   1.810   3.447   3.395 -0.5152 -0.0698 -0.5415
 2037SOL    HW2 8201   1.732   3.496   3.417  1.0423  2.1897  0.1164
 2037SOL    HW3 8202   1.805   3.434   3.300 -1.5290  0.2974 -0.5350
 2037SOL    MW4 8203   1.799   3.451   3.385 -0.4435  0.2768 -0.4535
 2038SOL     OW 8204   2.021   3.609   3.491 -0.1581 -0.3454 -0.4294
 2038SOL    HW2 8205   2.113   3.587   3.476 -0.0070  1.5414 -2.5062
 2038SOL    HW3 8206   1.972   3.536   3.454  0.4544  0.0894 -2.1387
 2038SOL    MW4 8207   2.027   3.597   3.484 -0.0575 -0.0391 -0.9286
 2039SOL     OW 8208   1.980   3.864   3.370  0.4124  0.7019 -0.1250
 2039SOL    HW2 8209   1.913   3.911   3.421  0.1350  1.4191 -1.1342
 2039SOL    HW3 8210   1.997   3.785   3.421 -0.5775  0.9307  0.5852
 2039SOL    MW4 8211   1.973   3.860   3.384  0.2453  0.8266 -0.1643
 2040SOL     OW 8212   1.764   4.006   3.488  0.5509  0.2308 -0.8029
 2040SOL    HW2 8213   1.778   3.996   3.582  0.6305  0.0605 -0.8326
 2040SOL    HW3 8214   1.698   3.940   3.467  0.8188  0.0009 -0.9354
 2040SOL    MW4 8215   1.757   3.996   3.498  0.5966  0.1781 -0.8242
 2041SOL     OW 8216   1.772   4.262   3.411 -0.8142  0.1757  0.4617
 2041SOL    HW2 8217   1.765   4.169   3.434 -0.2740  0.0790  0.2272
 2041SOL    HW3 8218   1.787   4.262   3.317 -0.0611  0.4766  0.5834
 2041SOL    MW4 8219   1.773   4.249   3.402 -0.6437  0.2022  0.4470
 2042SOL     OW 8220   2.009   4.366   3.522 -0.1466 -0.4408 -0.1380
 2042SOL    HW2 8221   1.932   4.321   3.489 -0.1579 -1.2402  0.9728
 2042SOL    HW3 8222   2.002   4.455   3.486 -1.3248 -0.6460 -0.4359
 2042SOL    MW4 8223   1.998   4.372   3.513 -0.3036 -0.5736 -0.0308
 2043SOL     OW 8224   2.464   4.644   3.403  0.3288 -0.1365  0.2373
 2043SOL    HW2 8225   2.474   4.550   3.423 -1.8743 -0.2980  0.7026
 2043SOL    HW3 8226   2.475   4.649   3.308 -1.2783 -1.1522 -0.0287
 2043SOL    MW4 8227   2.467   4.632   3.393 -0.1738 -0.2918  0.2637
 2044SOL     OW 8228   2.236   0.059   3.525 -0.0509 -0.2368 -0.4731
 2044SOL    HW2 8229   2.247   0.149   3.496 -1.1701  0.1837  0.3517
 2044SOL    HW3 8230   2.314   0.013   3.493  0.2950  0.9128 -1.2988
 2044SOL    MW4 8231   2.248   0.065   3.517 -0.1528 -0.0297 -0.4730
 2045SOL     OW 8232   2.229   0.323   3.414 -0.0047  0.5352  0.1210
 2045SOL    HW2 8233   2.301   0.369   3.457  0.3359 -1.8036  2.1670
 2045SOL    HW3 8234   2.151   0.354   3.460  0.1149  0.0095  0.6951
 2045SOL    MW4 8235   2.228   0.334   3.426  0.0560  0.1573  0.4666
 2046SOL     OW 8236   2.461   0.445   3.506  0.1194 -0.0215  0.0100
 2046SOL    HW2 8237   2.539   0.406   3.466  1.4739  0.7091  1.8485
 2046SOL    HW3 8238   2.472   0.539   3.493  0.8441  0.2596  2.5213
 2046SOL    MW4 8239   2.473   0.452   3.499  0.3936  0.1120  0.5839
 2047SOL     OW 8240   2.487   0.731   3.433 -0.4767  0.3743 -0.1293
 2047SOL    HW2 8241   2.559   0.789   3.456 -1.0675  1.1579 -0.2534
 2047SOL    HW3 8242   2.467   0.751   3.342 -2.0750  1.4954  0.4337
 2047SOL    MW4 8243   2.494   0.741   3.424 -0.7653  0.6255 -0.0710
 2048SOL     OW 8244   2.247   0.831   3.541 -0.1408 -0.5029 -0.0991
 2048SOL    HW2 8245   2.245   0.924   3.519 -1.4672 -0.9647 -2.1271
 2048SOL    HW3 8246   2.328   0.799   3.501  0.6489 -0.0982  1.1680
 2048SOL    MW4 8247   2.257   0.839   3.533 -0.2115 -0.5104 -0.1993
 2049SOL     OW 8248   2.256   1.105   3.462 -0.0711  0.1631  0.3421
 2049SOL    HW2 8249   2.321   1.176   3.459 -0.1482  0.4818  3.8859
 2049SOL    HW3 8250   2.177   1.146   3.498 -0.9659 -1.1118 -0.1490
 2049SOL    MW4 8251   2.254   1.120   3.467 -0.1996  0.0368  0.7448
 2050SOL     OW 8252   2.448   1.325   3.504  0.6253 -0.3941  0.3587
 2050SOL    HW2 8253   2.451   1.309   3.598  0.9359 -1.3681  0.1893
 2050SOL    HW3 8254   2.521   1.274   3.468  1.5217  1.2660 -0.2412
 2050SOL    MW4 8255   2.458   1.316   3.511  0.7844 -0.3037  0.2573
 2051SOL     OW 8256   2.481   1.578   3.399 -0.0176  0.0615 -0.1795
 2051SOL    HW2 8257   2.462   1.489   3.429 -2.9863  0.2155 -1.3500
 2051SOL    HW3 8258   2.484   1.571   3.304  1.3714  0.9274 -0.2079
 2051SOL    MW4 8259   2.479   1.566   3.390 -0.2260  0.1961 -0.3378
 2052SOL     OW 8260   2.234   1.692   3.506 -0.2151 -0.2336 -0.4558
 2052SOL    HW2 8261   2.244   1.681   3.601 -0.0683  1.3941 -0.2737
 2052SOL    HW3 8262   2.316   1.660   3.469  0.5319  0.9977  0.1120
 2052SOL    MW4 8263   2.246   1.687   3.514 -0.0973  0.1436 -0.3567
 2053SOL     OW 8264   2.196   1.941   3.376  0.5314 -0.1784  0.2079
 2053SOL    HW2 8265   2.208   1.857   3.420 -0.1636  0.3590  1.4567
 2053SOL    HW3 8266   2.201   1.921   3.283  1.8745 -1.3594  0.5291
 2053SOL    MW4 8267   2.198   1.928   3.369  0.6170 -0.2633  0.4151
 2054SOL     OW 8268   2.433   2.031   3.502 -0.2714  0.2744  0.9686
 2054SOL    HW2 8269   2.425   2.043   3.596  0.0823 -0.8273  1.1471
 2054SOL    HW3 8270   2.343   2.011   3.473 -0.2080 -0.3769  1.2201
 2054SOL    MW4 8271   2.420   2.030   3.510 -0.2165  0.0432  1.0252
 2055SOL     OW 8272   2.492   2.290   3.385  0.4275 -0.2264 -0.0194
 2055SOL    HW2 8273   2.566   2.318   3.439 -0.3250  0.0303  0.8994
 2055SOL    HW3 8274   2.474   2.201   3.413 -0.7776  0.3486  1.0751
 2055SOL    MW4 8275   2.499   2.282   3.396  0.1690 -0.1166  0.2463
 2056SOL     OW 8276   2.263   2.415   3.481 -0.5350  0.3023  0.7372
 2056SOL    HW2 8277   2.265   2.509   3.463 -1.1657  0.0681 -0.6006
 2056SOL    HW3 8278   2.348   2.383   3.453 -1.4242 -0.0227 -1.7320
 2056SOL    MW4 8279   2.274   2.424   3.475 -0.7355  0.2284  0.2353
 2057SOL     OW 8280   2.245   2.696   3.421 -1.0118 -0.3933  0.6477
 2057SOL    HW2 8281   2.161   2.738   3.439 -0.6865  0.8174 -0.5396
 2057SOL    HW3 8282   2.261   2.713   3.328 -0.2138 -1.9966  0.4786
 2057SOL    MW4 8283   2.236   2.704   3.411 -0.8638 -0.4449  0.4687
 2058SOL     OW 8284   2.495   2.846   3.461  0.4835 -0.2202 -0.2718
 2058SOL    HW2 8285   2.492   2.940   3.442 -0.5265 -0.4772 -1.4146
 2058SOL    HW3 8286   2.406   2.816   3.446  0.6378 -1.2334  0.8055
 2058SOL    MW4 8287   2.483   2.855   3.457  0.3703 -0.3877 -0.2804
 2059SOL     OW 8288   2.459   3.115   3.419 -0.4524  0.2413  0.0569
 2059SOL    HW2 8289   2.532   3.161   3.460  1.6950 -2.1488 -0.9711
 2059SOL    HW3 8290   2.473   3.126   3.325 -1.8784  0.4149 -0.1476
 2059SOL    MW4 8291   2.470   3.122   3.412 -0.3574 -0.0510 -0.1059
 2060SOL     OW 8292   2.231   3.251   3.497  0.1929 -0.0599 -0.1192
 2060SOL    HW2 8293   2.227   3.246   3.592  0.7039 -0.4737 -0.1178
 2060SOL    HW3 8294   2.315   3.212   3.474 -0.2799 -0.7096 -0.7884
 2060SOL    MW4 8295   2.241   3.245   3.507  0.1979 -0.2000 -0.2072
 2061SOL     OW 8296   2.264   3.511   3.423 -0.2097  0.0765 -0.2657
 2061SOL    HW2 8297   2.261   3.418   3.446 -0.3980 -0.1008 -0.9980
 2061SOL    HW3 8298   2.258   3.512   3.327 -1.7435  0.9193 -0.1726
 2061SOL    MW4 8299   2.263   3.499   3.413 -0.4368  0.1643 -0.3500
 2062SOL     OW 8300   2.500   3.668   3.503  1.0200  0.5384 -0.1744
 2062SOL    HW2 8301   2.495   3.755   3.463 -0.9424  1.1280  1.2959
 2062SOL    HW3 8302   2.423   3.623   3.471  1.2051 -0.1310  0.3204
 2062SOL    MW4 8303   2.489   3.674   3.493  0.7856  0.5283  0.0851
 2063SOL     OW 8304   2.463   3.908   3.366  0.3033  0.2207  0.0433
 2063SOL    HW2 8305   2.535   3.951   3.411  0.4713  1.7404 -1.6225
 2063SOL    HW3 8306   2.385   3.932   3.416  0.8899 -1.2839  1.7401
 2063SOL    MW4 8307   2.462   3.917   3.379  0.4027  0.2227  0.0474
 2064SOL     OW 8308   2.228   3.977   3.492  0.3397  0.1705 -0.2702
 2064SOL    HW2 8309   2.224   4.061   3.446  0.7837  1.8204  2.6254
 2064SOL    HW3 8310   2.153   3.928   3.459 -0.1394  1.8306 -1.7338
 2064SOL    MW4 8311   2.218   3.982   3.481  0.3352  0.6073 -0.0813
 2065SOL     OW 8312   2.245   4.234   3.405 -0.1849 -0.2439 -0.8113
 2065SOL    HW2 8313   2.171   4.282   3.444 -0.1113 -0.9472  0.2181
 2065SOL    HW3 8314   2.239   4.254   3.312  0.0170  1.9971 -0.3846
 2065SOL    MW4 8315   2.234   4.243   3.398 -0.1488 -0.0405 -0.6192
 2066SOL     OW 8316   2.478   4.374   3.494  0.1088  0.1223 -0.3430
 2066SOL    HW2 8317   2.460   4.381   3.588 -0.3432 -0.2578 -0.3989
 2066SOL    HW3 8318   2.410   4.315   3.461  0.2964  0.2159 -0.9007
 2066SOL    MW4 8319   2.466   4.367   3.502  0.0739  0.0849 -0.4241
 2067SOL     OW 8320   2.922   0.028   3.419 -0.0909 -1.0206 -0.0441
 2067SOL    HW2 8321   2.831   0.049   3.438  0.2921 -0.1260  0.8628
 2067SOL    HW3 8322   2.923   0.007   3.326 -1.5464 -2.8528  0.3223
 2067SOL    MW4 8323   2.910   0.028   3.409 -0.2325 -1.1443  0.1240
 2068SOL     OW 8324   2.670   0.085   3.550  0.0201 -0.0875 -0.4680
 2068SOL    HW2 8325   2.674   0.173   3.513 -0.9691  0.4871  0.7492
 2068SOL    HW3 8326   2.597   0.043   3.504 -0.9207  0.4794  0.4567
 2068SOL    MW4 8327   2.661   0.091   3.539 -0.2346  0.0631 -0.1857
 2069SOL     OW 8328   2.691   0.334   3.413  0.0543 -0.3794 -0.1345
 2069SOL    HW2 8329   2.772   0.376   3.442 -0.3298  0.8707 -0.8594
 2069SOL    HW3 8330   2.696   0.333   3.318 -0.3520 -1.1589 -0.1548
 2069SOL    MW4 8331   2.702   0.339   3.404 -0.0501 -0.3173 -0.2329
 2070SOL     OW 8332   2.910   0.475   3.534  0.4066 -0.2455  0.2760
 2070SOL    HW2 8333   2.920   0.502   3.625 -0.2780 -1.2469  0.6581
 2070SOL    HW3 8334   2.908   0.557   3.484 -1.4369  0.4080  1.3846
 2070SOL    MW4 8335   2.911   0.490   3.539  0.0727 -0.2914  0.4728
 2071SOL     OW 8336   2.927   0.715   3.393  0.3232 -0.3259 -0.3334
 2071SOL    HW2 8337   3.010   0.748   3.429  0.6129 -0.7272 -0.6262
 2071SOL    HW3 8338   2.860   0.772   3.431  0.6049 -0.8672  1.0078
 2071SOL    MW4 8339   2.929   0.727   3.403  0.3984 -0.4503 -0.1950
 2072SOL     OW 8340   2.724   0.896   3.475  0.4554  0.0778 -0.0672
 2072SOL    HW2 8341   2.720   0.888   3.570  0.2113  0.5809 -0.0302
 2072SOL    HW3 8342   2.734   0.990   3.460 -0.2257  0.0767 -0.5594
 2072SOL    MW4 8343   2.724   0.908   3.486  0.3333  0.1441 -0.1271
 2073SOL     OW 8344   2.676   1.182   3.406  0.2453  0.0729  0.3720
 2073SOL    HW2 8345   2.755   1.235   3.419  0.7937 -0.6824  0.1498
 2073SOL    HW3 8346   2.672   1.168   3.312 -0.4213  0.4988  0.3324
 2073SOL    MW4 8347   2.686   1.187   3.395  0.2298  0.0293  0.3374
 2074SOL     OW 8348   2.936   1.292   3.463 -0.7093  0.2541 -0.5983
 2074SOL    HW2 8349   2.930   1.268   3.555  0.4857  0.4241 -0.4700
 2074SOL    HW3 8350   3.003   1.235   3.427 -1.9593 -0.5935 -1.6345
 2074SOL    MW4 8351   2.944   1.282   3.470 -0.7167  0.1647 -0.7181
 2075SOL     OW 8352   2.934   1.560   3.405  0.2822 -0.2572 -0.1330
 2075SOL    HW2 8353   2.858   1.594   3.451  0.2061  0.5076 -0.8323
 2075SOL    HW3 8354   2.938   1.468   3.431 -0.4739 -0.1290  0.4463
 2075SOL    MW4 8355   2.925   1.552   3.414  0.1726 -0.1395 -0.1488
 2076SOL     OW 8356   2.718   1.673   3.501  0.3215 -0.2867  0.5498
 2076SOL    HW2 8357   2.717   1.767   3.486 -0.9926 -0.1747  1.2391
 2076SOL    HW3 8358   2.636   1.642   3.465  0.8968 -1.2340  0.0266
 2076SOL    MW4 8359   2.707   1.681   3.494  0.2236 -0.3971  0.5720
 2077SOL     OW 8360   2.682   1.933   3.416  0.1401  0.0143 -0.2672
 2077SOL    HW2 8361   2.590   1.949   3.436  0.2400  0.1476  0.0901
 2077SOL    HW3 8362   2.685   1.928   3.321 -0.3629 -0.8148 -0.2447
 2077SOL    MW4 8363   2.670   1.935   3.406  0.0868 -0.0776 -0.2174
 2078SOL     OW 8364   2.923   2.063   3.538 -0.3621 -0.4698  0.6134
 2078SOL    HW2 8365   2.904   2.060   3.631 -0.3627 -0.9095  0.5987
 2078SOL    HW3 8366   2.841   2.038   3.495 -0.3504 -0.3114  0.4939
 2078SOL    MW4 8367   2.910   2.059   3.544 -0.3605 -0.5069  0.5956
 2079SOL     OW 8368   2.943   2.318   3.448  0.0843  0.5202  0.3041
 2079SOL    HW2 8369   2.928   2.233   3.491  1.5822 -0.5303 -1.1499
 2079SOL    HW3 8370   2.956   2.296   3.356  0.9645  2.2834 -0.0158
 2079SOL    MW4 8371   2.943   2.304   3.442  0.3982  0.6137  0.0701
 2080SOL     OW 8372   2.696   2.433   3.506  0.0231  0.1944  0.0178
 2080SOL    HW2 8373   2.677   2.430   3.599 -0.2889  0.0048 -0.0513
 2080SOL    HW3 8374   2.785   2.400   3.498  0.2694  0.7880  0.3107
 2080SOL    MW4 8375   2.705   2.429   3.517  0.0145  0.2477  0.0472
 2081SOL     OW 8376   2.712   2.682   3.395 -0.2856 -0.1891  0.1851
 2081SOL    HW2 8377   2.699   2.593   3.426 -0.1453 -0.0216  0.7278
 2081SOL    HW3 8378   2.630   2.727   3.417  0.1661  0.1678  1.1463
 2081SOL    MW4 8379   2.699   2.676   3.402 -0.2074 -0.1197  0.3834
 2082SOL     OW 8380   2.915   2.815   3.522  0.1945 -0.8392 -0.2430
 2082SOL    HW2 8381   2.904   2.828   3.616 -1.2761 -0.2390 -0.4871
 2082SOL    HW3 8382   2.842   2.758   3.498 -0.1033 -0.0555 -1.2184
 2082SOL    MW4 8383   2.904   2.809   3.531 -0.0389 -0.6571 -0.4041
 2083SOL     OW 8384   2.905   3.096   3.405  0.5032 -0.5537  0.2068
 2083SOL    HW2 8385   2.910   3.008   3.442  0.1690 -1.7262 -2.3923
 2083SOL    HW3 8386   2.918   3.083   3.311 -0.4969  2.0838 -0.3395
 2083SOL    MW4 8387   2.908   3.083   3.397  0.3273 -0.3605 -0.2084
 2084SOL     OW 8388   2.684   3.239   3.510  0.4203 -0.4370 -0.5507
 2084SOL    HW2 8389   2.709   3.242   3.602  0.5015  1.7720 -0.6022
 2084SOL    HW3 8390   2.757   3.197   3.466  1.9420  1.5720 -0.0411
 2084SOL    MW4 8391   2.697   3.234   3.516  0.6316  0.1194 -0.4902
 2085SOL     OW 8392   2.707   3.500   3.393 -0.2265  0.0542 -0.0780
 2085SOL    HW2 8393   2.685   3.412   3.425  0.4029  0.4497  1.4874
 2085SOL    HW3 8394   2.637   3.556   3.426 -0.1342  0.2899 -0.2832
 2085SOL    MW4 8395   2.695   3.496   3.402 -0.1311  0.1376  0.1016
 2086SOL     OW 8396   2.960   3.611   3.495 -0.2004 -0.0975  0.3912
 2086SOL    HW2 8397   2.952   3.698   3.455 -1.4622  0.3874  1.6531
 2086SOL    HW3 8398   2.884   3.562   3.463  1.1680 -1.1372 -1.2803
 2086SOL    MW4 8399   2.949   3.616   3.486 -0.1862 -0.1705  0.3374
 2087SOL     OW 8400   2.935   3.856   3.385 -0.0121 -0.2136  0.3810
 2087SOL    HW2 8401   3.008   3.897   3.431 -0.6604 -0.6106  1.7944
 2087SOL    HW3 8402   2.857   3.897   3.422 -0.5297  0.0480 -0.9544
 2087SOL    MW4 8403   2.934   3.867   3.396 -0.1657 -0.2315  0.3912
 2088SOL     OW 8404   2.715   3.990   3.479 -0.2301 -0.1728  0.1831
 2088SOL    HW2 8405   2.723   4.007   3.572 -0.7775 -0.5882  0.3090
 2088SOL    HW3 8406   2.729   4.076   3.438  1.6412 -0.2967  0.5336
 2088SOL    MW4 8407   2.718   4.004   3.486 -0.0553 -0.2441  0.2458
 2089SOL     OW 8408   2.726   4.255   3.375 -0.2170 -0.1271 -0.1923
 2089SOL    HW2 8409   2.806   4.295   3.410 -1.0545  0.7243  0.7622
 2089SOL    HW3 8410   2.656   4.316   3.398 -1.4198 -1.7893  0.6690
 2089SOL    MW4 8411   2.727   4.268   3.382 -0.4861 -0.2341  0.0472
 2090SOL     OW 8412   2.916   4.431   3.483  1.1167  0.0835  0.0522
 2090SOL    HW2 8413   2.902   4.427   3.577 -1.8177  0.6825 -0.3145
 2090SOL    HW3 8414   2.930   4.523   3.464 -1.0905  0.3612 -0.4078
 2090SOL    MW4 8415   2.916   4.442   3.493  0.4380  0.1988 -0.0567
 2091SOL     OW 8416   3.354   4.616   3.431 -0.1712  0.3722  0.1592
 2091SOL    HW2 8417   3.279   4.665   3.463 -0.1030  0.5602  0.0318
 2091SOL    HW3 8418   3.345   4.615   3.336  0.7223  1.5858  0.0538
 2091SOL    MW4 8419   3.343   4.622   3.423 -0.0443  0.5574  0.1285
 2092SOL     OW 8420   3.159   0.127   3.529 -0.2133 -0.0854 -0.0213
 2092SOL    HW2 8421   3.165   0.220   3.507  1.2631  0.0055  0.7023
 2092SOL    HW3 8422   3.076   0.099   3.492  0.2054  1.0887 -1.9116
 2092SOL    MW4 8423   3.149   0.136   3.521  0.0367  0.0815 -0.1752
 2093SOL     OW 8424   3.165   0.392   3.434 -0.0742  0.2417  0.1295
 2093SOL    HW2 8425   3.084   0.429   3.471  0.2483  1.2608 -0.1479
 2093SOL    HW3 8426   3.146   0.384   3.340  0.1513  0.5209  0.0579
 2093SOL    MW4 8427   3.152   0.396   3.426 -0.0019  0.4130  0.0834
 2094SOL     OW 8428   3.426   0.495   3.513  0.1042 -0.0548  0.0587
 2094SOL    HW2 8429   3.437   0.514   3.606  2.2875 -2.4674  0.3263
 2094SOL    HW3 8430   3.339   0.454   3.507  0.2750 -0.5898  1.1485
 2094SOL    MW4 8431   3.416   0.492   3.524  0.4146 -0.4437  0.2377
 2095SOL     OW 8432   3.429   0.747   3.393 -0.2691 -0.0229 -0.1275
 2095SOL    HW2 8433   3.497   0.804   3.429  0.9341 -1.2517 -0.4190
 2095SOL    HW3 8434   3.444   0.662   3.434  0.3667 -1.1323 -2.5287
 2095SOL    MW4 8435   3.440   0.743   3.403 -0.0265 -0.3314 -0.4828
 2096SOL     OW 8436   3.181   0.858   3.450  0.2094  0.5165 -0.1687
 2096SOL    HW2 8437   3.172   0.939   3.400 -0.7440  0.1005 -0.6711
 2096SOL    HW3 8438   3.266   0.823   3.423  0.9325  1.6908  0.5623
 2096SOL    MW4 8439   3.191   0.864   3.440  0.1788  0.6166 -0.1385
 2097SOL     OW 8440   3.162   1.119   3.358 -0.1054  0.6807  0.2685
 2097SOL    HW2 8441   3.242   1.163   3.386  0.4722  0.3538 -0.8458
 2097SOL    HW3 8442   3.164   1.124   3.262 -0.5845 -0.7901  0.1723
 2097SOL    MW4 8443   3.173   1.125   3.349 -0.0923  0.4435  0.1087
 2098SOL     OW 8444   3.362   1.263   3.496 -0.6030  0.0545  0.0173
 2098SOL    HW2 8445   3.448   1.234   3.465 -1.2631  0.8640 -2.8007
 2098SOL    HW3 8446   3.350   1.348   3.453 -2.4864  0.2834  0.9702
 2098SOL    MW4 8447   3.372   1.271   3.486 -0.9387  0.1916 -0.2286
 2099SOL     OW 8448   3.381   1.525   3.398 -0.1796  0.0337 -0.1206
 2099SOL    HW2 8449   3.461   1.560   3.436  0.8306 -0.4771 -1.7230
 2099SOL    HW3 8450   3.310   1.573   3.441  1.0350  1.3286  0.4438
 2099SOL    MW4 8451   3.382   1.536   3.408  0.1140  0.1370 -0.2575
 2100SOL     OW 8452   3.177   1.669   3.508  0.1298  0.6255  0.4551
 2100SOL    HW2 8453   3.166   1.760   3.481  0.1684  0.5729  0.2595
 2100SOL    HW3 8454   3.097   1.625   3.478 -0.1882  0.7313  1.1376
 2100SOL    MW4 8455   3.165   1.675   3.500  0.0930  0.6325  0.5193
 2101SOL     OW 8456   3.152   1.932   3.418  0.0183 -0.1105  0.2338
 2101SOL    HW2 8457   3.072   1.973   3.450 -0.3229 -1.1549  0.7291
 2101SOL    HW3 8458   3.144   1.934   3.322 -0.2498  0.4558  0.2684
 2101SOL    MW4 8459   3.141   1.938   3.409 -0.0622 -0.1734  0.3037
 2102SOL     OW 8460   3.410   2.035   3.534 -0.2021 -0.0839  0.3496
 2102SOL    HW2 8461   3.423   2.124   3.501  0.5831 -0.1145  0.5710
 2102SOL    HW3 8462   3.321   2.012   3.506  0.5819 -0.2740 -2.1639
 2102SOL    MW4 8463   3.400   2.043   3.526  0.0048 -0.1128  0.0472
 2103SOL     OW 8464   3.416   2.286   3.426  0.0689 -0.4993 -0.1763
 2103SOL    HW2 8465   3.480   2.338   3.475 -0.4182 -0.8067  0.7925
 2103SOL    HW3 8466   3.331   2.325   3.449 -0.2315 -1.2093 -0.0718
 2103SOL    MW4 8467   3.413   2.298   3.435 -0.0348 -0.6332 -0.0346
 2104SOL     OW 8468   3.186   2.415   3.522 -0.3335  0.3387  0.5119
 2104SOL    HW2 8469   3.172   2.505   3.493 -0.6801 -0.5997 -2.3186
 2104SOL    HW3 8470   3.103   2.371   3.505  0.9224 -1.3543 -1.4472
 2104SOL    MW4 8471   3.173   2.421   3.516 -0.2139 -0.0086 -0.1202
 2105SOL     OW 8472   3.145   2.683   3.417 -0.6565  0.1571 -0.0795
 2105SOL    HW2 8473   3.222   2.722   3.457 -0.1032 -3.0393  2.0808
 2105SOL    HW3 8474   3.071   2.728   3.459 -0.0333 -0.6026  1.8350
 2105SOL    MW4 8475   3.145   2.694   3.428 -0.5014 -0.3648  0.4582
 2106SOL     OW 8476   3.386   2.789   3.503 -0.3007 -0.1226 -0.5406
 2106SOL    HW2 8477   3.469   2.754   3.473  1.1946  1.7420  1.2660
 2106SOL    HW3 8478   3.393   2.884   3.489 -1.1501  0.3246  1.7427
 2106SOL    MW4 8479   3.398   2.797   3.497 -0.2153  0.1822 -0.0010
 2107SOL     OW 8480   3.379   3.077   3.458  0.0517  0.0865 -0.5936
 2107SOL    HW2 8481   3.447   3.144   3.464  1.0772 -1.0776  1.4420
 2107SOL    HW3 8482   3.297   3.126   3.454  0.8977  1.4830 -1.4965
 2107SOL    MW4 8483   3.377   3.092   3.458  0.2985  0.1168 -0.4439
 2108SOL     OW 8484   3.139   3.227   3.472 -0.1362 -0.1247  0.3834
 2108SOL    HW2 8485   3.137   3.313   3.428  0.5186 -1.1962 -1.8003
 2108SOL    HW3 8486   3.056   3.186   3.450  0.3843 -0.8564 -0.2204
 2108SOL    MW4 8487   3.128   3.233   3.464  0.0188 -0.3626  0.0157
 2109SOL     OW 8488   3.168   3.497   3.374 -0.4998  0.2254 -0.4069
 2109SOL    HW2 8489   3.084   3.524   3.411 -0.4329  0.5398 -0.4875
 2109SOL    HW3 8490   3.161   3.514   3.281 -1.2501 -2.0542 -0.7926
 2109SOL    MW4 8491   3.156   3.502   3.367 -0.5898 -0.0341 -0.4685
 2110SOL     OW 8492   3.394   3.618   3.505  0.1675  0.0040 -0.9575
 2110SOL    HW2 8493   3.384   3.706   3.468 -1.6704  0.6008  0.8591
 2110SOL    HW3 8494   3.313   3.573   3.480  0.5615 -0.7739 -0.8378
 2110SOL    MW4 8495   3.382   3.624   3.497 -0.0231 -0.0198 -0.7021
 2111SOL     OW 8496   3.370   3.874   3.414  0.1428  0.1416 -0.2430
 2111SOL    HW2 8497   3.438   3.923   3.459 -0.3671  0.0781  0.6059
 2111SOL    HW3 8498   3.288   3.903   3.455 -0.2095 -0.9764 -0.1508
 2111SOL    MW4 8499   3.368   3.884   3.425  0.0291 -0.0145 -0.1192
 2112SOL     OW 8500   3.143   3.979   3.509  0.0446  0.4891 -0.3521
 2112SOL    HW2 8501   3.137   3.980   3.605  0.8127  0.1045 -0.2992
 2112SOL    HW3 8502   3.151   4.071   3.485  2.2063  0.4388  0.1155
 2112SOL    MW4 8503   3.143   3.991   3.518  0.4313  0.4315 -0.2835
 2113SOL     OW 8504   3.131   4.243   3.441 -0.0046 -0.0437  0.0616
 2113SOL    HW2 8505   3.212   4.290   3.461  0.5326 -0.5809 -0.7856
 2113SOL    HW3 8506   3.061   4.299   3.474  0.7330  0.1970  1.2478
 2113SOL    MW4 8507   3.133   4.257   3.448  0.1636 -0.0830  0.1061
 2114SOL     OW 8508   3.360   4.354   3.526  0.0150 -0.2021  0.4273
 2114SOL    HW2 8509   3.372   4.377   3.618 -1.0158 -0.5965  0.6676
 2114SOL    HW3 8510   3.359   4.438   3.480  1.6947 -0.0668  0.6285
 2114SOL    MW4 8511   3.361   4.368   3.532  0.1004 -0.2365  0.4859
 2115SOL     OW 8512   3.808   0.015   3.384 -0.2351  0.5435 -0.3752
 2115SOL    HW2 8513   3.722   0.020   3.425 -0.5661  0.8643 -1.0987
 2115SOL    HW3 8514   3.791   0.024   3.290  0.4413 -0.8559 -0.6568
 2115SOL    MW4 8515   3.795   0.017   3.377 -0.1898  0.4015 -0.5081
 2116SOL     OW 8516   3.582   0.039   3.546  0.4029 -0.2020  0.0639
 2116SOL    HW2 8517   3.596   0.127   3.512 -0.4992  0.1864  0.6760
 2116SOL    HW3 8518   3.501   0.009   3.504  1.9489 -1.6666 -1.9544
 2116SOL    MW4 8519   3.573   0.046   3.536  0.4878 -0.3440 -0.1218
 2117SOL     OW 8520   3.632   0.296   3.430  0.4309 -0.4863 -0.6228
 2117SOL    HW2 8521   3.715   0.339   3.451 -0.1385  0.4150 -0.1686
 2117SOL    HW3 8522   3.565   0.360   3.455 -0.4471 -1.7309  0.2417
 2117SOL    MW4 8523   3.634   0.310   3.436  0.2401 -0.5316 -0.4487
 2118SOL     OW 8524   3.842   0.458   3.490 -0.1919 -0.6767  0.1370
 2118SOL    HW2 8525   3.828   0.453   3.585 -1.0955 -0.9037 -0.0052
 2118SOL    HW3 8526   3.934   0.433   3.479 -0.3624 -1.6829  0.8660
 2118SOL    MW4 8527   3.853   0.454   3.501 -0.3335 -0.8395  0.2146
 2119SOL     OW 8528   3.831   0.733   3.441  0.0890 -0.3284 -0.1983
 2119SOL    HW2 8529   3.914   0.778   3.458 -0.3789  0.5100 -0.1258
 2119SOL    HW3 8530   3.850   0.641   3.458  1.3006 -0.2883 -1.2365
 2119SOL    MW4 8531   3.845   0.727   3.445  0.1872 -0.2124 -0.3259
 2120SOL     OW 8532   3.620   0.909   3.491 -0.0693  0.3208 -0.0822
 2120SOL    HW2 8533   3.629   0.916   3.586 -0.4187 -3.2423  0.2880
 2120SOL    HW3 8534   3.697   0.859   3.463 -2.5940 -3.3207 -0.8922
 2120SOL    MW4 8535   3.631   0.903   3.500 -0.4482 -0.6298 -0.1402
 2121SOL     OW 8536   3.595   1.169   3.411 -0.0899 -0.1917  0.0899
 2121SOL    HW2 8537   3.614   1.081   3.443 -1.1587 -0.2622  0.5517
 2121SOL    HW3 8538   3.590   1.160   3.316 -0.7145 -0.7355  0.1697
 2121SOL    MW4 8539   3.597   1.156   3.403 -0.3130 -0.2726  0.1616
 2122SOL     OW 8540   3.845   1.297   3.453 -0.3255  0.6553  0.3257
 2122SOL    HW2 8541   3.850   1.297   3.549  1.0978 -1.9941  0.3135
 2122SOL    HW3 8542   3.765   1.249   3.433  0.1312 -0.0843  0.2178
 2122SOL    MW4 8543   3.835   1.291   3.463 -0.0772  0.2081  0.3099
 2123SOL     OW 8544   3.880   1.551   3.368  0.5839  0.2174  0.4007
 2123SOL    HW2 8545   3.968   1.573   3.397  0.9420  0.0395 -0.5368
 2123SOL    HW3 8546   3.861   1.467   3.411  1.5573 -0.6119 -0.7491
 2123SOL    MW4 8547   3.889   1.543   3.378  0.7591  0.0845  0.1252
 2124SOL     OW 8548   3.629   1.645   3.490  0.0544 -0.0368  0.0984
 2124SOL    HW2 8549   3.615   1.728   3.445  1.2294  0.6762  0.9984
 2124SOL    HW3 8550   3.700   1.604   3.441  0.3942  0.1158  0.4556
 2124SOL    MW4 8551   3.637   1.651   3.478  0.2542  0.0774  0.2644
 2125SOL     OW 8552   3.603   1.899   3.405  0.3803  0.3329  0.1572
 2125SOL    HW2 8553   3.682   1.927   3.451 -0.1941  0.4876  1.0628
 2125SOL    HW3 8554   3.531   1.939   3.454 -0.3511 -1.2383  0.3833
 2125SOL    MW4 8555   3.604   1.908   3.417  0.2081  0.1462  0.3066
 2126SOL     OW 8556   3.817   2.030   3.531 -0.1508 -0.2661 -0.2551
 2126SOL    HW2 8557   3.813   2.025   3.627  0.0213  1.8958 -0.1138
 2126SOL    HW3 8558   3.899   1.988   3.508 -0.2267 -0.8606  0.5338
 2126SOL    MW4 8559   3.827   2.023   3.541 -0.1383 -0.0596 -0.1321
 2127SOL     OW 8560   3.860   2.312   3.420  0.4354  0.0695  0.1460
 2127SOL    HW2 8561   3.936   2.357   3.457  1.4035 -1.2355 -0.2473
 2127SOL    HW3 8562   3.855   2.230   3.469 -1.1241  0.4262  0.6191
 2127SOL    MW4 8563   3.869   2.307   3.432  0.3572 -0.0558  0.1566
 2128SOL     OW 8564   3.642   2.444   3.523  0.3818 -0.3542  0.3818
 2128SOL    HW2 8565   3.640   2.531   3.485  0.0931 -0.6030 -0.1764
 2128SOL    HW3 8566   3.721   2.404   3.487  0.8166 -0.1283  1.0769
 2128SOL    MW4 8567   3.653   2.450   3.513  0.4013 -0.3574  0.4001
 2129SOL     OW 8568   3.636   2.690   3.401  0.1679  0.0698  0.3030
 2129SOL    HW2 8569   3.722   2.728   3.421  0.6134 -0.7452 -0.0439
 2129SOL    HW3 8570   3.630   2.692   3.306 -0.4766  0.7175  0.3552
 2129SOL    MW4 8571   3.646   2.695   3.391  0.1416  0.0479  0.2642
 2130SOL     OW 8572   3.850   2.847   3.518  0.0351 -0.2075  0.1333
 2130SOL    HW2 8573   3.832   2.854   3.612  0.3660  0.1456  0.1715
 2130SOL    HW3 8574   3.857   2.938   3.488 -1.5697 -0.2824 -0.5215
 2130SOL    MW4 8575   3.848   2.860   3.526 -0.1330 -0.1707  0.0520
 2131SOL     OW 8576   3.872   3.113   3.436 -0.4821  0.3594 -0.0441
 2131SOL    HW2 8577   3.937   3.169   3.478 -0.3610 -0.2571  0.6040
 2131SOL    HW3 8578   3.883   3.130   3.343  0.9773 -0.1093  0.0203
 2131SOL    MW4 8579   3.882   3.123   3.429 -0.2737  0.2162  0.0496
 2132SOL     OW 8580   3.622   3.242   3.505  0.0064 -0.0491 -0.3720
 2132SOL    HW2 8581   3.604   3.330   3.472  0.6543 -0.3191 -1.4692
 2132SOL    HW3 8582   3.696   3.211   3.453 -0.2071 -1.2422  0.0144
 2132SOL    MW4 8583   3.629   3.250   3.494  0.0634 -0.2420 -0.4656
 2133SOL     OW 8584   3.623   3.505   3.400 -0.2862  0.2309 -0.1688
 2133SOL    HW2 8585   3.545   3.550   3.431 -1.7820 -1.3615 -1.5568
 2133SOL    HW3 8586   3.611   3.497   3.305  0.8878 -1.2565 -0.2197
 2133SOL    MW4 8587   3.611   3.510   3.391 -0.3288 -0.1757 -0.3588
 2134SOL     OW 8588   3.854   3.636   3.515 -0.0038  0.1912  0.0014
 2134SOL    HW2 8589   3.860   3.648   3.610 -1.0173 -0.6106  0.1817
 2134SOL    HW3 8590   3.774   3.585   3.503 -0.1916  0.7858 -1.3337
 2134SOL    MW4 8591   3.844   3.631   3.526 -0.1624  0.1640 -0.1509
 2135SOL     OW 8592   3.820   3.903   3.462  0.3362  0.1282  0.1347
 2135SOL    HW2 8593   3.749   3.944   3.511  1.8393  0.1164  2.3605
 2135SOL    HW3 8594   3.808   3.809   3.475  1.3718  0.1635  1.4150
 2135SOL    MW4 8595   3.809   3.896   3.470  0.6711  0.1311  0.5975
 2136SOL     OW 8596   3.583   4.000   3.571 -0.5362 -0.1189  0.0349
 2136SOL    HW2 8597   3.574   4.020   3.665  2.1002 -0.3783  0.3721
 2136SOL    HW3 8598   3.561   4.082   3.527 -2.2650 -0.1271  0.8379
 2136SOL    MW4 8599   3.579   4.013   3.578 -0.4165 -0.1535  0.1853
 2137SOL     OW 8600   3.582   4.241   3.414 -0.0671 -0.0981 -0.1957
 2137SOL    HW2 8601   3.510   4.289   3.456  0.9862  0.2330  1.2756
 2137SOL    HW3 8602   3.579   4.269   3.323 -0.5750  1.4516  0.2784
 2137SOL    MW4 8603   3.572   4.251   3.408  0.0048  0.1502  0.0606
 2138SOL     OW 8604   3.819   4.391   3.476 -0.1757 -0.3990 -0.8166
 2138SOL    HW2 8605   3.734   4.352   3.461 -0.4904 -0.9717  2.0919
 2138SOL    HW3 8606   3.813   4.480   3.439 -1.7716 -0.6753 -1.2201
 2138SOL    MW4 8607   3.807   4.398   3.469 -0.4275 -0.5107 -0.4859
 2139SOL     OW 8608   4.235   4.635   3.406 -0.2428 -0.1001  0.2016
 2139SOL    HW2 8609   4.241   4.542   3.432  1.5939 -0.1320 -0.2855
 2139SOL    HW3 8610   4.314   4.675   3.443  0.9958  0.4449 -2.9145
 2139SOL    MW4 8611   4.246   4.628   3.414  0.1631 -0.0324 -0.2739
 2140SOL     OW 8612   4.030   0.110   3.532 -0.1546  0.2133 -0.4073
 2140SOL    HW2 8613   4.105   0.058   3.502  0.8733  1.6677 -0.4392
 2140SOL    HW3 8614   3.955   0.072   3.487  0.9399  0.3933 -2.4679
 2140SOL    MW4 8615   4.030   0.098   3.522  0.1249  0.4289 -0.6833
 2141SOL     OW 8616   4.092   0.356   3.430 -0.0393  0.7825 -0.0788
 2141SOL    HW2 8617   4.059   0.272   3.460 -0.5091  1.3751  1.0701
 2141SOL    HW3 8618   4.101   0.345   3.335 -1.9062  0.0599 -0.1923
 2141SOL    MW4 8619   4.089   0.343   3.421 -0.3476  0.7653  0.0579
 2142SOL     OW 8620   4.292   0.497   3.551  0.6550 -0.0415 -0.0082
 2142SOL    HW2 8621   4.275   0.587   3.523  0.0016  0.6288  2.4722
 2142SOL    HW3 8622   4.215   0.448   3.521  2.1365 -0.3508 -3.6039
 2142SOL    MW4 8623   4.279   0.502   3.543  0.7644  0.0061 -0.1554
 2143SOL     OW 8624   4.257   0.743   3.417  0.0073  0.2992 -0.3365
 2143SOL    HW2 8625   4.341   0.772   3.450  0.0460  0.4310 -0.5448
 2143SOL    HW3 8626   4.264   0.755   3.322  0.0579 -0.4813 -0.4302
 2143SOL    MW4 8627   4.269   0.749   3.408  0.0196  0.2136 -0.3765
 2144SOL     OW 8628   4.040   0.899   3.521  0.0764  0.0649 -0.2839
 2144SOL    HW2 8629   4.030   0.978   3.467 -1.5711 -0.7491 -1.2187
 2144SOL    HW3 8630   4.121   0.858   3.489 -0.3359  0.1367 -1.4541
 2144SOL    MW4 8631   4.050   0.904   3.510 -0.1955 -0.0330 -0.5612
 2145SOL     OW 8632   4.055   1.132   3.377 -0.2256  0.0853  0.1210
 2145SOL    HW2 8633   4.135   1.175   3.407 -0.6064  0.7601  0.1719
 2145SOL    HW3 8634   3.984   1.181   3.418 -0.6587 -0.7671  0.3989
 2145SOL    MW4 8635   4.056   1.144   3.386 -0.3324  0.0618  0.1643
 2146SOL     OW 8636   4.272   1.279   3.510  0.6493  0.0957  0.2556
 2146SOL    HW2 8637   4.286   1.364   3.468 -0.8195  0.0583 -0.3456
 2146SOL    HW3 8638   4.354   1.231   3.495  0.8312  0.7686 -0.9535
 2146SOL    MW4 8639   4.285   1.284   3.502  0.4797  0.1795  0.0167
 2147SOL     OW 8640   4.308   1.534   3.396 -0.6005  0.3948  0.4228
 2147SOL    HW2 8641   4.237   1.581   3.439  0.1272  0.9671  1.0093
 2147SOL    HW3 8642   4.284   1.535   3.303 -2.2488 -0.9646  0.8060
 2147SOL    MW4 8643   4.295   1.540   3.389 -0.7219  0.2910  0.5507
 2148SOL     OW 8644   4.107   1.653   3.537  0.0776 -0.3013 -0.6374
 2148SOL    HW2 8645   4.084   1.650   3.630  0.2821 -1.4493 -0.6216
 2148SOL    HW3 8646   4.075   1.739   3.508 -1.0608 -0.4206  0.2127
 2148SOL    MW4 8647   4.099   1.664   3.545 -0.0453 -0.4685 -0.5231
 2149SOL     OW 8648   4.053   1.915   3.441  0.2151 -0.2455  0.1014
 2149SOL    HW2 8649   4.125   1.964   3.479  0.1276 -1.0008  1.2601
 2149SOL    HW3 8650   4.055   1.937   3.348  0.6110  1.3962  0.4827
 2149SOL    MW4 8651   4.062   1.925   3.433  0.2556 -0.1285  0.3047
 2150SOL     OW 8652   4.263   2.061   3.548  0.0577 -0.6212 -0.7541
 2150SOL    HW2 8653   4.267   2.149   3.508  0.2816  0.1294  0.8764
 2150SOL    HW3 8654   4.349   2.023   3.529 -0.2692 -0.7666 -2.0334
 2150SOL    MW4 8655   4.275   2.068   3.540  0.0439 -0.5412 -0.7079
 2151SOL     OW 8656   4.281   2.302   3.422 -0.4673  0.0016  0.1432
 2151SOL    HW2 8657   4.211   2.346   3.470  0.2299  1.3044 -0.0189
 2151SOL    HW3 8658   4.252   2.303   3.331 -0.7377 -0.4377  0.2234
 2151SOL    MW4 8659   4.268   2.308   3.416 -0.4106  0.1154  0.1323
 2152SOL     OW 8660   4.073   2.437   3.563 -0.1999  0.0073 -0.2929
 2152SOL    HW2 8661   4.081   2.433   3.658  1.0763 -1.1492 -0.4236
 2152SOL    HW3 8662   4.063   2.530   3.543  0.6462  0.3628  0.9014
 2152SOL    MW4 8663   4.073   2.449   3.573  0.0801 -0.0985 -0.1526
 2153SOL     OW 8664   4.055   2.684   3.428 -0.3464  0.2502 -0.0921
 2153SOL    HW2 8665   4.128   2.738   3.460 -0.0853 -0.1259 -0.0451
 2153SOL    HW3 8666   3.977   2.735   3.448 -0.0872  0.7329 -0.2872
 2153SOL    MW4 8667   4.055   2.698   3.434 -0.2775  0.2644 -0.1118
 2154SOL     OW 8668   4.268   2.836   3.517  0.1957  0.0126 -0.1815
 2154SOL    HW2 8669   4.268   2.826   3.612 -1.7143 -0.1948 -0.1829
 2154SOL    HW3 8670   4.344   2.787   3.487  1.1882  0.6210  1.2854
 2154SOL    MW4 8671   4.278   2.828   3.525  0.0749  0.0653  0.0117
 2155SOL     OW 8672   4.282   3.076   3.394 -0.8541  0.1835  0.8735
 2155SOL    HW2 8673   4.274   2.990   3.436 -2.2021 -0.1209  0.0281
 2155SOL    HW3 8674   4.271   3.058   3.300  0.0003  1.1261  0.5909
 2155SOL    MW4 8675   4.279   3.062   3.387 -0.9193  0.2680  0.7248
 2156SOL     OW 8676   4.105   3.232   3.570  0.3977  0.4677 -0.0958
 2156SOL    HW2 8677   4.107   3.316   3.525  1.7327  0.8570  0.6594
 2156SOL    HW3 8678   4.164   3.176   3.519 -1.0415 -0.2422 -1.0123
 2156SOL    MW4 8679   4.113   3.236   3.557  0.3839  0.4253 -0.1171
 2157SOL     OW 8680   4.073   3.483   3.408  0.1341 -0.1897  0.2998
 2157SOL    HW2 8681   4.144   3.530   3.451  0.0719  1.4701 -1.3248
 2157SOL    HW3 8682   3.993   3.523   3.442  0.0914  1.4891 -1.6767
 2157SOL    MW4 8683   4.072   3.494   3.418  0.1202  0.2506 -0.1755
 2158SOL     OW 8684   4.276   3.615   3.530 -0.0048 -0.4720 -0.0325
 2158SOL    HW2 8685   4.310   3.642   3.615 -1.9271 -0.6155  0.8042
 2158SOL    HW3 8686   4.266   3.697   3.481 -1.7590 -0.0560  0.9740
 2158SOL    MW4 8687   4.279   3.629   3.535 -0.4897 -0.4358  0.2105
 2159SOL     OW 8688   4.260   3.848   3.375  0.7955  0.2984  0.3087
 2159SOL    HW2 8689   4.339   3.897   3.396  0.3457  0.7629  0.9624
 2159SOL    HW3 8690   4.266   3.830   3.282  0.0396  3.3090 -0.3632
 2159SOL    MW4 8691   4.271   3.852   3.366  0.6361  0.7570  0.3064
 2160SOL     OW 8692   4.064   4.015   3.498 -0.2345  0.0558 -0.2274
 2160SOL    HW2 8693   4.140   3.962   3.473  0.6766  0.5946  1.3155
 2160SOL    HW3 8694   3.990   3.955   3.494  0.5883 -1.0162  0.2552
 2160SOL    MW4 8695   4.065   4.000   3.494 -0.0057 -0.0143  0.0398
 2161SOL     OW 8696   4.045   4.259   3.380  0.4456 -0.2105  0.2726
 2161SOL    HW2 8697   4.059   4.171   3.413 -0.1677 -0.4136 -0.0011
 2161SOL    HW3 8698   3.960   4.285   3.414  0.0120 -0.2516 -0.7723
 2161SOL    MW4 8699   4.036   4.251   3.388  0.3071 -0.2427  0.0987
 2162SOL     OW 8700   4.264   4.384   3.531 -0.2762 -0.0665 -0.4113
 2162SOL    HW2 8701   4.246   4.396   3.625  0.4782 -1.0803 -0.1330
 2162SOL    HW3 8702   4.192   4.329   3.500  1.8101 -3.3816  0.5152
 2162SOL    MW4 8703   4.252   4.379   3.539  0.0982 -0.6375 -0.2525
 2163SOL     OW 8704   0.234   4.640   3.890  0.2144  0.5127 -0.1470
 2163SOL    HW2 8705   0.215   4.625   3.983  0.5110 -0.7987 -0.2973
 2163SOL    HW3 8706   0.150   4.667   3.853 -0.3527 -0.8302  0.1229
 2163SOL    MW4 8707   0.220   4.642   3.897  0.1787  0.1626 -0.1314
 2164SOL     OW 8708   4.483   0.063   3.776  0.1114 -0.0207  0.7782
 2164SOL    HW2 8709   4.474   0.154   3.806  0.8275  0.0645  0.7347
 2164SOL    HW3 8710   4.485   0.070   3.681 -1.1111 -0.2016  0.7211
 2164SOL    MW4 8711   4.482   0.076   3.767  0.0443 -0.0333  0.7653
 2165SOL     OW 8712   0.009   0.324   3.888 -0.1388  0.4409 -0.3443
 2165SOL    HW2 8713  -0.071   0.370   3.863 -1.0288 -0.1738  1.3269
 2165SOL    HW3 8714   0.079   0.385   3.864 -1.2380  2.1637  0.6520
 2165SOL    MW4 8715   0.008   0.338   3.882 -0.4015  0.5871  0.0079
 2166SOL     OW 8716   0.238   0.490   3.838  0.7886  0.0025 -0.2530
 2166SOL    HW2 8717   0.249   0.579   3.871 -0.4406  0.5138 -1.1790
 2166SOL    HW3 8718   0.236   0.500   3.743  0.0860 -0.9464 -0.3446
 2166SOL    MW4 8719   0.240   0.503   3.830  0.5337 -0.0552 -0.3874
 2167SOL     OW 8720   0.245   0.744   3.922  0.6824  0.7933  0.1469
 2167SOL    HW2 8721   0.244   0.748   4.018  1.0951 -1.0471  0.2537
 2167SOL    HW3 8722   0.171   0.798   3.895 -0.6449 -0.2524  1.5815
 2167SOL    MW4 8723   0.235   0.751   3.931  0.5617  0.4125  0.3502
 2168SOL     OW 8724   0.009   0.885   3.819  0.1173 -0.2730  0.0390
 2168SOL    HW2 8725  -0.066   0.844   3.863 -0.9142  0.7893 -0.7248
 2168SOL    HW3 8726   0.008   0.976   3.849  1.0233 -0.2125 -0.0907
 2168SOL    MW4 8727  -0.001   0.891   3.829  0.1006 -0.1249 -0.0789
 2169SOL     OW 8728   0.005   1.145   3.902  0.0697 -0.5006  0.1917
 2169SOL    HW2 8729  -0.065   1.198   3.864 -0.3141 -1.7917 -0.9325
 2169SOL    HW3 8730   0.085   1.181   3.864 -0.2185 -0.9425 -0.8664
 2169SOL    MW4 8731   0.006   1.156   3.892 -0.0196 -0.7292 -0.0963
 2170SOL     OW 8732   0.226   1.252   3.767  0.1536 -0.5263 -0.0446
 2170SOL    HW2 8733   0.231   1.345   3.789  2.2981 -1.1048  2.1115
 2170SOL    HW3 8734   0.228   1.250   3.672  0.7845  1.5942 -0.1133
 2170SOL    MW4 8735   0.227   1.264   3.758  0.5198 -0.3228  0.2308
 2171SOL     OW 8736   0.240   1.509   3.850 -0.0096  0.7907  0.1903
 2171SOL    HW2 8737   0.247   1.517   3.945  1.4048  0.9409  0.0857
 2171SOL    HW3 8738   0.158   1.555   3.828 -0.5606  0.3839  1.3694
 2171SOL    MW4 8739   0.230   1.516   3.860  0.1043  0.7569  0.3324
 2172SOL     OW 8740   0.028   1.698   3.801 -0.4351  0.3469 -0.2285
 2172SOL    HW2 8741   0.030   1.792   3.822 -0.9268  0.7178 -1.7592
 2172SOL    HW3 8742  -0.001   1.695   3.710  0.8048 -1.2409 -0.5903
 2172SOL    MW4 8743   0.025   1.710   3.791 -0.3364  0.1863 -0.4783
 2173SOL     OW 8744   0.018   1.962   3.898 -0.0275  0.1749  0.4592
 2173SOL    HW2 8745   0.021   1.946   3.993  0.5042  2.5820  0.8705
 2173SOL    HW3 8746  -0.070   1.997   3.883  0.4364  1.3097  0.3313
 2173SOL    MW4 8747   0.006   1.964   3.909  0.1039  0.6422  0.4969
 2174SOL     OW 8748   0.258   2.065   3.798 -0.0079 -0.1706 -0.5272
 2174SOL    HW2 8749   0.253   2.158   3.821 -2.2754  0.3797 -2.9704
 2174SOL    HW3 8750   0.180   2.026   3.839 -0.0030 -0.6647 -0.9800
 2174SOL    MW4 8751   0.247   2.072   3.806 -0.3064 -0.1633 -0.9091
 2175SOL     OW 8752   0.229   2.336   3.856  0.2385  0.3822 -0.5351
 2175SOL    HW2 8753   0.228   2.335   3.951 -0.7459  0.1976 -0.5477
 2175SOL    HW3 8754   0.152   2.388   3.832 -0.4119 -0.9165 -1.2604
 2175SOL    MW4 8755   0.219   2.343   3.865  0.0228  0.1864 -0.6323
 2176SOL     OW 8756   0.011   2.463   3.759 -0.0206  0.1482 -0.0175
 2176SOL    HW2 8757  -0.044   2.407   3.813 -1.1006  1.1727 -0.0441
 2176SOL    HW3 8758  -0.000   2.551   3.795  0.2663  0.6414 -1.0840
 2176SOL    MW4 8759   0.002   2.468   3.771 -0.1252  0.3483 -0.1619
 2177SOL     OW 8760   4.477   2.696   3.885  0.3050  0.0307 -0.1299
 2177SOL    HW2 8761   4.554   2.742   3.851  0.1968  0.0265 -0.3851
 2177SOL    HW3 8762   4.491   2.692   3.980 -1.0222  3.2059  0.3015
 2177SOL    MW4 8763   4.489   2.702   3.893  0.1159  0.4489 -0.1066
 2178SOL     OW 8764   0.208   2.813   3.763 -0.1161 -0.2632  0.0186
 2178SOL    HW2 8765   0.293   2.780   3.791 -0.5315  0.3431  2.1382
 2178SOL    HW3 8766   0.214   2.818   3.668  2.3572  0.1425  0.1600
 2178SOL    MW4 8767   0.220   2.810   3.754  0.1554 -0.1295  0.3166
 2179SOL     OW 8768   0.219   3.090   3.865  0.8603 -0.1766 -1.0259
 2179SOL    HW2 8769   0.200   3.090   3.959 -1.3599 -0.1891 -1.4453
 2179SOL    HW3 8770   0.219   2.998   3.841  0.1330 -0.1195 -1.2664
 2179SOL    MW4 8771   0.217   3.078   3.874  0.4715 -0.1709 -1.1132
 2180SOL     OW 8772   4.480   3.226   3.770  0.4165 -0.0157 -0.0872
 2180SOL    HW2 8773   4.555   3.172   3.795  1.6297  1.6361 -0.0820
 2180SOL    HW3 8774   4.480   3.224   3.674  0.0942 -0.4779 -0.0840
 2180SOL    MW4 8775   4.490   3.218   3.760  0.5341  0.1414 -0.0861
 2181SOL     OW 8776   0.057   3.468   3.916  0.1968  0.5682 -0.3475
 2181SOL    HW2 8777   0.125   3.509   3.863  2.1130 -0.7090  1.0854
 2181SOL    HW3 8778   0.040   3.385   3.873  2.4640 -0.9196  1.5103
 2181SOL    MW4 8779   0.063   3.463   3.903  0.7487  0.2034  0.0868
 2182SOL     OW 8780   0.247   3.583   3.750 -0.4642 -0.0726 -0.2585
 2182SOL    HW2 8781   0.325   3.558   3.800 -0.4655 -1.3105 -0.8404
 2182SOL    HW3 8782   0.231   3.675   3.773  0.3646 -0.2134  0.8994
 2182SOL    MW4 8783   0.255   3.592   3.759 -0.3550 -0.2544 -0.1826
 2183SOL     OW 8784   0.231   3.839   3.843 -0.1835  0.2458 -0.2527
 2183SOL    HW2 8785   0.231   3.823   3.937  0.2386  0.0048 -0.2942
 2183SOL    HW3 8786   0.312   3.887   3.827 -0.7178  1.1111 -0.3515
 2183SOL    MW4 8787   0.242   3.843   3.853 -0.1983  0.3283 -0.2713
 2184SOL     OW 8788   0.010   4.009   3.772 -0.7122  0.0284  0.2756
 2184SOL    HW2 8789  -0.060   3.961   3.818  0.6213 -0.8911  1.4027
 2184SOL    HW3 8790   0.089   3.960   3.793  0.6496  2.5502  1.1424
 2184SOL    MW4 8791   0.011   3.996   3.781 -0.3565  0.2401  0.5388
 2185SOL     OW 8792   4.490   4.285   3.864 -0.2928  0.2195  0.1943
 2185SOL    HW2 8793   4.559   4.331   3.817 -1.2793 -0.8407 -2.3282
 2185SOL    HW3 8794   4.490   4.196   3.828 -2.6511  0.0640  0.4712
 2185SOL    MW4 8795   4.499   4.279   3.853 -0.7341  0.0591 -0.1020
 2186SOL     OW 8796   0.206   4.404   3.737 -0.5699  0.4397  0.1843
 2186SOL    HW2 8797   0.273   4.344   3.767 -0.2745  0.3195 -0.6907
 2186SOL    HW3 8798   0.214   4.480   3.794 -0.0161  0.2187  0.3974
 2186SOL    MW4 8799   0.216   4.406   3.748 -0.4579  0.3943  0.0970
 2187SOL     OW 8800   0.704   0.002   3.911 -0.3267 -0.0332  0.3991
 2187SOL    HW2 8801   0.674  -0.084   3.880  0.2813  0.8677 -2.8260
 2187SOL    HW3 8802   0.636   0.063   3.884  0.5549  0.8966  0.2571
 2187SOL    MW4 8803   0.691  -0.001   3.904 -0.1301  0.2084 -0.0451
 2188SOL     OW 8804   0.472   0.093   3.784 -0.4569  0.5801 -0.2417
 2188SOL    HW2 8805   0.458   0.180   3.820 -2.1317 -0.1025  0.8563
 2188SOL    HW3 8806   0.399   0.041   3.818  1.2462 -1.5902  0.2781
 2188SOL    MW4 8807   0.461   0.097   3.793 -0.4532  0.2037 -0.0281
 2189SOL     OW 8808   0.455   0.342   3.914  0.2880  0.1744  0.1799
 2189SOL    HW2 8809   0.537   0.377   3.877  0.2938 -0.1953 -0.1673
 2189SOL    HW3 8810   0.390   0.410   3.896  0.8196  1.1630  1.8224
 2189SOL    MW4 8811   0.458   0.356   3.907  0.3589  0.2561  0.3510
 2190SOL     OW 8812   0.676   0.459   3.761 -0.2564 -0.1207  0.3434
 2190SOL    HW2 8813   0.750   0.420   3.808 -0.9991 -0.2870  1.3944
 2190SOL    HW3 8814   0.672   0.549   3.792 -1.9379 -0.7565  2.1103
 2190SOL    MW4 8815   0.685   0.465   3.771 -0.5763 -0.2265  0.7150
 2191SOL     OW 8816   0.695   0.726   3.844  0.0955  0.0620 -0.0427
 2191SOL    HW2 8817   0.760   0.794   3.828 -1.2512  1.3461 -0.1466
 2191SOL    HW3 8818   0.613   0.762   3.809 -0.5293 -1.8329 -0.6135
 2191SOL    MW4 8819   0.693   0.740   3.837 -0.1646 -0.0185 -0.1314
 2192SOL     OW 8820   0.451   0.865   3.762  0.0945  0.3301 -0.1828
 2192SOL    HW2 8821   0.475   0.952   3.795  0.4401  0.0264  0.3593
 2192SOL    HW3 8822   0.382   0.835   3.822 -0.6812  0.6132 -0.9114
 2192SOL    MW4 8823   0.445   0.873   3.774  0.0378  0.3274 -0.2074
 2193SOL     OW 8824   0.456   1.138   3.865 -0.2544 -0.2376 -0.4784
 2193SOL    HW2 8825   0.528   1.180   3.817  0.5709  0.4280  1.2988
 2193SOL    HW3 8826   0.377   1.174   3.825  0.3847 -0.4520 -2.0054
 2193SOL    MW4 8827   0.455   1.148   3.853 -0.0612 -0.1779 -0.4454
 2194SOL     OW 8828   0.685   1.292   3.796  0.2724 -0.3447  0.1793
 2194SOL    HW2 8829   0.749   1.240   3.844  0.2785  0.1217  0.6765
 2194SOL    HW3 8830   0.701   1.270   3.704  0.7056 -0.7294  0.3453
 2194SOL    MW4 8831   0.696   1.282   3.790  0.3303 -0.3338  0.2668
 2195SOL     OW 8832   0.702   1.498   3.961  0.1427  0.1697 -0.0335
 2195SOL    HW2 8833   0.760   1.562   3.919  0.0130  0.2165 -0.1431
 2195SOL    HW3 8834   0.700   1.424   3.901 -2.4187  1.4211 -1.6355
 2195SOL    MW4 8835   0.709   1.497   3.948 -0.2124  0.3409 -0.2596
 2196SOL     OW 8836   0.484   1.615   3.802 -0.1361  0.2796  0.1965
 2196SOL    HW2 8837   0.545   1.582   3.868 -0.5123 -1.7254 -0.4241
 2196SOL    HW3 8838   0.399   1.581   3.830 -0.5309  0.7359 -0.4639
 2196SOL    MW4 8839   0.481   1.606   3.815 -0.2378  0.0753  0.0277
 2197SOL     OW 8840   0.478   1.900   3.882 -0.0423  0.0404  0.2774
 2197SOL    HW2 8841   0.471   1.816   3.837 -0.0834  1.8416 -3.2629
 2197SOL    HW3 8842   0.409   1.954   3.843 -0.2010  1.6376  2.6924
 2197SOL    MW4 8843   0.468   1.896   3.871 -0.0686  0.4888  0.1290
 2198SOL     OW 8844   0.701   2.040   3.771 -0.4249  0.1274  0.2186
 2198SOL    HW2 8845   0.698   2.130   3.804 -0.2082 -0.3127  1.4517
 2198SOL    HW3 8846   0.625   1.997   3.810 -0.9825 -0.0225 -1.0033
 2198SOL    MW4 8847   0.691   2.046   3.781 -0.4698  0.0496  0.2198
 2199SOL     OW 8848   0.690   2.300   3.870 -0.6172  0.0002  0.3211
 2199SOL    HW2 8849   0.764   2.348   3.833 -0.5372 -0.5077 -0.2030
 2199SOL    HW3 8850   0.612   2.341   3.832 -0.6525  1.1077  1.5641
 2199SOL    MW4 8851   0.689   2.312   3.860 -0.6114  0.0794  0.4160
 2200SOL     OW 8852   0.474   2.428   3.772 -0.0030  0.1795 -0.2587
 2200SOL    HW2 8853   0.392   2.401   3.814 -0.4615  2.1049  0.1314
 2200SOL    HW3 8854   0.455   2.421   3.678 -0.3992  0.0195 -0.1712
 2200SOL    MW4 8855   0.461   2.423   3.765 -0.1158  0.4122 -0.1957
 2201SOL     OW 8856   0.435   2.708   3.859 -0.3401 -0.0547 -0.1549
 2201SOL    HW2 8857   0.513   2.758   3.834  0.2389 -0.3286  1.0177
 2201SOL    HW3 8858   0.460   2.616   3.845  0.0485 -0.2249  1.4473
 2201SOL    MW4 8859   0.449   2.702   3.854 -0.2124 -0.1135  0.2110
 2202SOL     OW 8860   0.666   2.864   3.791 -0.3188 -0.3298  0.1866
 2202SOL    HW2 8861   0.730   2.795   3.810 -0.6352 -0.4806  0.7164
 2202SOL    HW3 8862   0.673   2.878   3.697 -1.0845 -1.8997 -0.1160
 2202SOL    MW4 8863   0.675   2.857   3.781 -0.4616 -0.5569  0.2167
 2203SOL     OW 8864   0.682   3.114   3.886 -0.2747  0.0872 -0.5563
 2203SOL    HW2 8865   0.698   3.118   3.981  1.5615  1.2276 -0.8933
 2203SOL    HW3 8866   0.670   3.020   3.869  2.0899 -0.4530  0.4205
 2203SOL    MW4 8867   0.683   3.102   3.896  0.2796  0.1664 -0.4721
 2204SOL     OW 8868   0.445   3.257   3.814  0.1257  0.6128  0.8790
 2204SOL    HW2 8869   0.520   3.205   3.844 -0.1396 -0.3809 -0.1085
 2204SOL    HW3 8870   0.369   3.210   3.845 -0.1385 -0.1453 -0.8416
 2204SOL    MW4 8871   0.445   3.244   3.822  0.0558  0.3817  0.5219
 2205SOL     OW 8872   0.443   3.513   3.898  0.0054 -0.2110  0.0392
 2205SOL    HW2 8873   0.520   3.562   3.871 -0.1096 -0.3966 -0.6462
 2205SOL    HW3 8874   0.464   3.422   3.878 -0.3713 -0.2665 -0.1060
 2205SOL    MW4 8875   0.456   3.508   3.892 -0.0595 -0.2429 -0.0706
 2206SOL     OW 8876   0.658   3.617   3.782  0.4866  0.0068  0.4815
 2206SOL    HW2 8877   0.651   3.709   3.806 -2.2165  0.2867 -1.1509
 2206SOL    HW3 8878   0.658   3.617   3.686  1.0131 -1.6667  0.4511
 2206SOL    MW4 8879   0.657   3.629   3.772  0.1994 -0.1769  0.2620
 2207SOL     OW 8880   0.649   3.877   3.890 -0.4349 -0.1985  0.3522
 2207SOL    HW2 8881   0.650   3.866   3.985  0.0191 -0.5559  0.3084
 2207SOL    HW3 8882   0.733   3.916   3.869 -0.2834 -0.6906  0.0339
 2207SOL    MW4 8883   0.660   3.881   3.900 -0.3551 -0.3107  0.3045
 2208SOL     OW 8884   0.443   4.018   3.781  0.2064 -0.1163 -0.5592
 2208SOL    HW2 8885   0.519   3.973   3.818  0.0323  0.2349  0.2292
 2208SOL    HW3 8886   0.447   3.997   3.688  0.0651 -1.8543 -0.2006
 2208SOL    MW4 8887   0.453   4.009   3.774  0.1648 -0.2990 -0.4079
 2209SOL     OW 8888   0.404   4.275   3.876 -0.1217 -0.2750 -0.1941
 2209SOL    HW2 8889   0.489   4.319   3.864 -0.1224 -0.0517  0.5412
 2209SOL    HW3 8890   0.419   4.185   3.849  0.7666 -0.6048  1.3332
 2209SOL    MW4 8891   0.417   4.269   3.871 -0.0046 -0.2894  0.1044
 2210SOL     OW 8892   0.635   4.404   3.825 -0.5604 -0.2326 -0.2920
 2210SOL    HW2 8893   0.712   4.352   3.848  0.5350  1.6125  0.3059
 2210SOL    HW3 8894   0.650   4.428   3.733 -1.5117 -1.6985 -0.8511
 2210SOL    MW4 8895   0.647   4.400   3.816 -0.5413 -0.1826 -0.2871
 2211SOL     OW 8896   1.151   4.647   3.883 -0.1435  0.1482 -0.1273
 2211SOL    HW2 8897   1.227   4.690   3.843  0.6411 -0.8498  0.2812
 2211SOL    HW3 8898   1.166   4.553   3.869  0.2219 -0.2473  2.6142
 2211SOL    MW4 8899   1.163   4.640   3.876  0.0082 -0.0353  0.2882
 2212SOL     OW 8900   0.931   0.083   3.730 -0.0788 -0.2171  0.0869
 2212SOL    HW2 8901   0.997   0.036   3.781  0.0587 -0.2885 -0.1565
 2212SOL    HW3 8902   0.847   0.048   3.761 -0.1003  1.2634  1.8004
 2212SOL    MW4 8903   0.928   0.072   3.741 -0.0635 -0.0312  0.2811
 2213SOL     OW 8904   0.916   0.345   3.877  0.1068  0.2888  0.1191
 2213SOL    HW2 8905   0.915   0.340   3.973  1.8107 -1.4076  0.0830
 2213SOL    HW3 8906   0.921   0.254   3.848  0.5637  0.8203 -1.5506
 2213SOL    MW4 8907   0.917   0.332   3.886  0.3918  0.1351 -0.1061
 2214SOL     OW 8908   1.159   0.451   3.769 -0.1356  0.5377  0.6318
 2214SOL    HW2 8909   1.235   0.421   3.818 -1.1585 -0.3390  1.6748
 2214SOL    HW3 8910   1.084   0.406   3.807 -1.1309  0.9186 -0.7880
 2214SOL    MW4 8911   1.159   0.441   3.780 -0.4020  0.4722  0.5820
 2215SOL     OW 8912   1.083   0.766   4.109  0.1026 -0.1955  0.2447
 2215SOL    HW2 8913   1.150   0.819   4.153 -0.6644  0.5238  0.5709
 2215SOL    HW3 8914   1.095   0.678   4.145 -0.3082  0.3160  1.6871
 2215SOL    MW4 8915   1.094   0.762   4.120 -0.0528 -0.0331  0.4778
 2216SOL     OW 8916   0.899   0.892   3.766  0.5012  0.0698 -0.6022
 2216SOL    HW2 8917   0.969   0.831   3.791  0.6699  0.3124 -0.4778
 2216SOL    HW3 8918   0.899   0.890   3.670  1.1733  0.6228 -0.6210
 2216SOL    MW4 8919   0.908   0.884   3.757  0.6122  0.1748 -0.5884
 2217SOL     OW 8920   0.879   1.133   3.910 -0.5509  0.2590 -0.3292
 2217SOL    HW2 8921   0.869   1.132   4.006 -0.5608  1.0001 -0.3227
 2217SOL    HW3 8922   0.882   1.040   3.886  0.1550  0.0667  0.4663
 2217SOL    MW4 8923   0.878   1.121   3.920 -0.4591  0.3314 -0.2234
 2218SOL     OW 8924   1.142   1.257   3.822  0.0146  0.2037  0.0130
 2218SOL    HW2 8925   1.131   1.347   3.852  0.3736  0.2753 -0.0725
 2218SOL    HW3 8926   1.062   1.212   3.850 -1.1409  1.0529 -1.7957
 2218SOL    MW4 8927   1.130   1.263   3.830 -0.0906  0.3252 -0.2367
 2219SOL     OW 8928   1.109   1.516   3.895  0.3953 -0.1146  0.0677
 2219SOL    HW2 8929   1.120   1.500   3.989 -0.6042  2.0966  0.5898
 2219SOL    HW3 8930   1.193   1.554   3.868  0.1477  0.6875  0.4052
 2219SOL    MW4 8931   1.121   1.519   3.904  0.2307  0.2828  0.1812
 2220SOL     OW 8932   0.882   1.668   3.856 -0.5327 -0.1307 -0.3434
 2220SOL    HW2 8933   0.961   1.620   3.879 -0.1894  0.3503 -0.5081
 2220SOL    HW3 8934   0.867   1.648   3.763 -0.1351  0.4311 -0.5327
 2220SOL    MW4 8935   0.890   1.659   3.847 -0.4349  0.0068 -0.3898
 2221SOL     OW 8936   0.874   1.918   3.942 -0.2476 -0.4311  0.4125
 2221SOL    HW2 8937   0.863   1.826   3.916 -0.7717  0.1532 -1.5757
 2221SOL    HW3 8938   0.822   1.966   3.878  0.8722  1.3281  0.8068
 2221SOL    MW4 8939   0.866   1.912   3.930 -0.1690 -0.1218  0.2024
 2222SOL     OW 8940   1.086   2.052   3.793  0.5075  0.0304  0.1351
 2222SOL    HW2 8941   1.035   1.996   3.852  0.7834 -1.2049 -0.7743
 2222SOL    HW3 8942   1.062   2.022   3.705 -0.6540  2.5121 -0.4296
 2222SOL    MW4 8943   1.076   2.041   3.789  0.3906  0.1945 -0.0594
 2223SOL     OW 8944   1.120   2.313   3.883  0.8178 -0.0312 -0.0235
 2223SOL    HW2 8945   1.140   2.292   3.975  0.6666 -0.0041  0.0152
 2223SOL    HW3 8946   1.105   2.228   3.842  0.4776 -0.0150  0.0699
 2223SOL    MW4 8947   1.121   2.299   3.890  0.7529 -0.0255 -0.0062
 2224SOL     OW 8948   0.891   2.449   3.768  0.4445  0.0197  0.7876
 2224SOL    HW2 8949   0.907   2.539   3.796  1.6961  0.6651 -1.8309
 2224SOL    HW3 8950   0.964   2.398   3.804  0.8183  0.4239  0.6027
 2224SOL    MW4 8951   0.903   2.454   3.776  0.6589  0.1583  0.4179
 2225SOL     OW 8952   0.896   2.707   3.867  0.5075  0.3475 -0.1442
 2225SOL    HW2 8953   0.898   2.708   3.962  1.6155 -0.1536 -0.1525
 2225SOL    HW3 8954   0.974   2.757   3.841  0.3967  0.1953 -0.7833
 2225SOL    MW4 8955   0.907   2.714   3.876  0.6391  0.2615 -0.2296
 2226SOL     OW 8956   1.122   2.868   3.775 -0.4287 -0.0790 -0.0522
 2226SOL    HW2 8957   1.187   2.819   3.825  0.6637 -1.0642 -2.3491
 2226SOL    HW3 8958   1.111   2.950   3.823  2.3841  0.0323  0.4693
 2226SOL    MW4 8959   1.129   2.872   3.788  0.0864 -0.1945 -0.2868
 2227SOL     OW 8960   1.107   3.109   3.907  0.0256  0.2377  0.0600
 2227SOL    HW2 8961   1.188   3.154   3.883 -0.1457  0.5251  0.0117
 2227SOL    HW3 8962   1.043   3.140   3.842 -0.1693  0.1676  0.2184
 2227SOL    MW4 8963   1.109   3.119   3.895 -0.0226  0.2663  0.0746
 2228SOL     OW 8964   0.896   3.224   3.739 -0.1653  0.3335 -0.1624
 2228SOL    HW2 8965   0.812   3.184   3.760 -0.6029  0.9902 -0.6515
 2228SOL    HW3 8966   0.893   3.241   3.645 -0.2454  2.0670  0.1310
 2228SOL    MW4 8967   0.885   3.221   3.730 -0.2337  0.6487 -0.1886
 2229SOL     OW 8968   0.907   3.498   3.878  0.0162  0.0722 -0.4248
 2229SOL    HW2 8969   0.909   3.416   3.828  0.5737  0.2523 -0.6947
 2229SOL    HW3 8970   0.830   3.544   3.845  0.0019 -0.1098 -0.6433
 2229SOL    MW4 8971   0.897   3.493   3.867  0.0879  0.0718 -0.4892
 2230SOL     OW 8972   1.131   3.644   3.767  0.1263  0.0536  0.7489
 2230SOL    HW2 8973   1.129   3.729   3.811  0.1130  0.3080  0.2556
 2230SOL    HW3 8974   1.051   3.600   3.796 -1.2165  1.2262 -1.0106
 2230SOL    MW4 8975   1.120   3.650   3.776 -0.0525  0.2418  0.4516
 2231SOL     OW 8976   1.137   3.864   3.938  0.3495 -0.5958  0.1032
 2231SOL    HW2 8977   1.145   3.851   4.033  0.7938 -0.0419  0.1454
 2231SOL    HW3 8978   1.212   3.919   3.915  0.4539 -1.0379 -0.6365
 2231SOL    MW4 8979   1.148   3.870   3.948  0.4218 -0.5813  0.0110
 2232SOL     OW 8980   0.876   3.989   3.817  0.2986  0.0561  0.1767
 2232SOL    HW2 8981   0.965   3.959   3.838 -0.0498 -1.1926 -0.0803
 2232SOL    HW3 8982   0.879   4.007   3.723  0.4914  0.7864  0.3201
 2232SOL    MW4 8983   0.888   3.987   3.807  0.2780 -0.0122  0.1619
 2233SOL     OW 8984   0.867   4.255   3.891 -0.1026  0.3519 -0.3179
 2233SOL    HW2 8985   0.882   4.269   3.984 -2.2019  2.0604 -0.2138
 2233SOL    HW3 8986   0.864   4.159   3.882  0.5270  0.1630  1.2932
 2233SOL    MW4 8987   0.868   4.244   3.902 -0.2965  0.5517 -0.0913
 2234SOL     OW 8988   1.111   4.382   3.801  0.2288  0.4978 -0.0319
 2234SOL    HW2 8989   1.021   4.350   3.810  0.3307  0.1946 -0.0646
 2234SOL    HW3 8990   1.128   4.382   3.707 -0.1956  1.8541 -0.1089
 2234SOL    MW4 8991   1.101   4.377   3.790  0.1863  0.6361 -0.0465
 2235SOL     OW 8992   1.565   4.655   3.910 -0.1992 -0.0736 -0.5124
 2235SOL    HW2 8993   1.566   4.655   4.006 -2.1186 -0.3582 -0.4642
 2235SOL    HW3 8994   1.539   4.566   3.887 -0.9699  0.3385 -1.2594
 2235SOL    MW4 8995   1.562   4.643   3.920 -0.5541 -0.0563 -0.6049
 2236SOL     OW 8996   1.367   0.123   3.793  0.0244  0.0672 -0.3856
 2236SOL    HW2 8997   1.350   0.200   3.847 -0.3431 -0.1487 -0.1915
 2236SOL    HW3 8998   1.435   0.075   3.840 -0.6270 -0.3587  0.1207
 2236SOL    MW4 8999   1.374   0.127   3.806 -0.1100 -0.0175 -0.2930
 2237SOL     OW 9000   1.342   0.367   3.931  0.3232 -0.1391  0.3990
 2237SOL    HW2 9001   1.365   0.349   4.022 -0.2542  0.2309  0.6256
 2237SOL    HW3 9002   1.411   0.425   3.899  1.9922 -2.4087 -0.2239
 2237SOL    MW4 9003   1.354   0.372   3.939  0.4673 -0.3897  0.3469
 2238SOL     OW 9004   1.574   0.481   3.814  0.0912  0.0669  0.3411
 2238SOL    HW2 9005   1.662   0.453   3.842  0.2348  0.2212  0.0466
 2238SOL    HW3 9006   1.567   0.571   3.846  0.4800  0.4445 -0.6125
 2238SOL    MW4 9007   1.585   0.489   3.822  0.1614  0.1371  0.1762
 2239SOL     OW 9008   1.334   0.878   3.776  0.0869 -0.1627  0.3049
 2239SOL    HW2 9009   1.331   0.952   3.837 -1.6590 -0.8600  1.1036
 2239SOL    HW3 9010   1.253   0.830   3.793  0.8933 -1.9008 -0.6626
 2239SOL    MW4 9011   1.323   0.882   3.786 -0.0370 -0.4840  0.2828
 2240SOL     OW 9012   1.115   0.719   3.830  0.1240 -0.3605  0.1060
 2240SOL    HW2 9013   1.122   0.728   3.925 -1.6034 -0.7484  0.2973
 2240SOL    HW3 9014   1.124   0.625   3.813  1.2576 -0.2009 -0.2010
 2240SOL    MW4 9015   1.117   0.708   3.840  0.0455 -0.3906  0.0906
 2241SOL     OW 9016   1.340   1.103   3.934  0.1345 -0.1617  0.0217
 2241SOL    HW2 9017   1.419   1.140   3.896  0.4604 -1.2952 -0.4187
 2241SOL    HW3 9018   1.268   1.151   3.893  0.5654  0.2167 -0.2849
 2241SOL    MW4 9019   1.341   1.114   3.924  0.2344 -0.2614 -0.0768
 2242SOL     OW 9020   1.550   1.229   3.788  0.2549 -0.6310 -0.3037
 2242SOL    HW2 9021   1.638   1.198   3.810  0.3956 -0.0401 -0.0062
 2242SOL    HW3 9022   1.548   1.319   3.821 -1.1395 -1.2861  1.4511
 2242SOL    MW4 9023   1.561   1.237   3.795  0.0896 -0.6396 -0.0329
 2243SOL     OW 9024   1.541   1.486   3.870 -0.6243 -0.3630 -0.3511
 2243SOL    HW2 9025   1.549   1.498   3.964 -1.2282  0.3975 -0.3990
 2243SOL    HW3 9026   1.623   1.522   3.835 -1.4265  1.5704 -0.3054
 2243SOL    MW4 9027   1.553   1.493   3.878 -0.8098 -0.0076 -0.3517
 2244SOL     OW 9028   1.334   1.658   3.803  0.1320 -0.4655  0.3786
 2244SOL    HW2 9029   1.340   1.736   3.858  0.0429  0.5020 -0.9509
 2244SOL    HW3 9030   1.407   1.603   3.830  1.2928  0.9173  0.0764
 2244SOL    MW4 9031   1.344   1.661   3.813  0.2733 -0.1553  0.1633
 2245SOL     OW 9032   1.312   1.922   3.906  0.0432 -0.3117  0.1609
 2245SOL    HW2 9033   1.303   1.920   4.001 -0.2067 -0.1015  0.1440
 2245SOL    HW3 9034   1.241   1.980   3.877 -0.5133 -1.1752 -0.2297
 2245SOL    MW4 9035   1.301   1.929   3.915 -0.0632 -0.3979  0.1073
 2246SOL     OW 9036   1.526   2.058   3.802 -0.3552 -0.3956 -0.2307
 2246SOL    HW2 9037   1.453   2.000   3.823 -0.2272 -0.6327 -0.4274
 2246SOL    HW3 9038   1.522   2.068   3.707  1.2325 -2.2687 -0.5430
 2246SOL    MW4 9039   1.516   2.051   3.792 -0.1289 -0.6738 -0.2978
 2247SOL     OW 9040   1.552   2.283   3.924  0.3420  0.4359 -0.0950
 2247SOL    HW2 9041   1.623   2.333   3.884  0.1945  0.5400 -0.2251
 2247SOL    HW3 9042   1.547   2.203   3.873  0.2117  0.5306 -0.2296
 2247SOL    MW4 9043   1.561   2.279   3.912  0.3054  0.4621 -0.1299
 2248SOL     OW 9044   1.352   2.427   3.768 -0.6690  0.0974 -0.2399
 2248SOL    HW2 9045   1.420   2.390   3.823 -0.2137  0.3641 -0.6227
 2248SOL    HW3 9046   1.273   2.379   3.792 -0.0492 -1.2634 -0.8555
 2248SOL    MW4 9047   1.350   2.416   3.778 -0.5273 -0.0470 -0.3712
 2249SOL     OW 9048   1.286   2.678   3.888 -0.3569  0.4809  0.5589
 2249SOL    HW2 9049   1.304   2.688   3.981 -0.2179  0.9808  0.4839
 2249SOL    HW3 9050   1.314   2.589   3.867 -0.6731  0.2608  1.0581
 2249SOL    MW4 9051   1.292   2.668   3.897 -0.3803  0.5178  0.6151
 2250SOL     OW 9052   1.514   2.836   3.792  0.0062  0.3410 -0.4177
 2250SOL    HW2 9053   1.439   2.786   3.825 -0.6448  1.0256 -0.8336
 2250SOL    HW3 9054   1.517   2.816   3.698 -0.0500  0.8204 -0.5210
 2250SOL    MW4 9055   1.504   2.827   3.784 -0.0871  0.4945 -0.4861
 2251SOL     OW 9056   1.562   3.097   3.901 -0.9091 -0.1058  0.2073
 2251SOL    HW2 9057   1.569   3.101   3.996  0.5461  0.9259  0.0827
 2251SOL    HW3 9058   1.568   3.004   3.880  1.5543 -0.1461  0.9589
 2251SOL    MW4 9059   1.564   3.085   3.911 -0.3920  0.0250  0.2902
 2252SOL     OW 9060   1.342   3.217   3.781 -0.1322 -0.1732  0.2900
 2252SOL    HW2 9061   1.344   3.306   3.815 -0.7072 -0.5851  1.4002
 2252SOL    HW3 9062   1.418   3.174   3.821 -0.4739 -0.4918  0.5990
 2252SOL    MW4 9063   1.353   3.223   3.790 -0.2532 -0.2697  0.4771
 2253SOL     OW 9064   1.339   3.503   3.869  0.6820 -0.5436 -0.0473
 2253SOL    HW2 9065   1.414   3.554   3.839  1.9470 -1.7612  0.9469
 2253SOL    HW3 9066   1.262   3.553   3.842  1.8440  0.3126 -1.8038
 2253SOL    MW4 9067   1.338   3.516   3.862  1.0023 -0.5913 -0.1478
 2254SOL     OW 9068   1.563   3.624   3.762 -0.2229 -0.3692  0.1581
 2254SOL    HW2 9069   1.620   3.594   3.832 -1.5378 -0.7867  1.0698
 2254SOL    HW3 9070   1.551   3.718   3.779  0.5946 -0.1697 -0.3356
 2254SOL    MW4 9071   1.569   3.633   3.774 -0.2884 -0.3979  0.2131
 2255SOL     OW 9072   1.573   3.870   3.856 -0.1698  0.6019 -0.1450
 2255SOL    HW2 9073   1.586   3.860   3.950  0.3494  1.0166 -0.1717
 2255SOL    HW3 9074   1.496   3.926   3.848  1.5588  3.0792  0.0680
 2255SOL    MW4 9075   1.565   3.876   3.867  0.1268  0.9835 -0.1204
 2256SOL     OW 9076   1.334   4.019   3.826 -0.1959 -0.0507  0.3266
 2256SOL    HW2 9077   1.326   4.106   3.866 -0.1112 -0.3085  0.9193
 2256SOL    HW3 9078   1.335   4.035   3.732 -1.3356  0.4982  0.4051
 2256SOL    MW4 9079   1.333   4.032   3.819 -0.3351 -0.0124  0.4151
 2257SOL     OW 9080   1.329   4.250   3.956  0.8070 -0.5370 -0.2636
 2257SOL    HW2 9081   1.402   4.295   3.913  0.0657 -0.9727 -2.0548
 2257SOL    HW3 9082   1.251   4.285   3.914  0.2186 -3.5019 -1.8115
 2257SOL    MW4 9083   1.328   4.260   3.945  0.6315 -0.9856 -0.7041
 2258SOL     OW 9084   1.518   4.386   3.825 -0.1513  0.2782  0.9404
 2258SOL    HW2 9085   1.594   4.337   3.856 -0.2280 -1.1698 -1.0313
 2258SOL    HW3 9086   1.519   4.374   3.730 -2.7357  0.4148  0.8642
 2258SOL    MW4 9087   1.528   4.378   3.816 -0.5023  0.1054  0.6702
 2259SOL     OW 9088   1.974   4.642   3.898  0.1311 -0.1517  0.1720
 2259SOL    HW2 9089   2.065   4.663   3.877  0.0372 -0.3022 -0.3905
 2259SOL    HW3 9090   1.966   4.549   3.880 -0.2739 -0.0317 -0.2737
 2259SOL    MW4 9091   1.985   4.633   3.893  0.0653 -0.1559  0.0391
 2260SOL     OW 9092   1.786   0.122   3.763  0.2075 -0.7999  0.5699
 2260SOL    HW2 9093   1.864   0.083   3.803 -0.6417 -1.6553  1.4138
 2260SOL    HW3 9094   1.713   0.075   3.802 -0.7307 -0.1915 -0.4243
 2260SOL    MW4 9095   1.787   0.111   3.773 -0.0283 -0.8325  0.5500
 2261SOL     OW 9096   1.798   0.355   3.912  0.2248  0.2162 -0.0381
 2261SOL    HW2 9097   1.786   0.328   4.003  1.8456  0.7308  0.3352
 2261SOL    HW3 9098   1.789   0.273   3.862  0.9593 -0.3406  0.7216
 2261SOL    MW4 9099   1.795   0.340   3.917  0.5356  0.2106  0.1116
 2262SOL     OW 9100   2.022   0.464   3.812  0.4355  0.1901  0.2139
 2262SOL    HW2 9101   1.955   0.408   3.850  1.7503 -1.3400  0.3234
 2262SOL    HW3 9102   2.004   0.461   3.718 -0.8683  1.4245  0.3994
 2262SOL    MW4 9103   2.011   0.456   3.804  0.4370  0.1511  0.2530
 2263SOL     OW 9104   2.019   0.710   3.933  0.4419 -0.6211 -0.3341
 2263SOL    HW2 9105   2.007   0.708   4.028  0.3194  0.1860 -0.3279
 2263SOL    HW3 9106   2.011   0.619   3.906 -1.3661 -0.6519  0.2094
 2263SOL    MW4 9107   2.016   0.698   3.942  0.1872 -0.5187 -0.2613
 2264SOL     OW 9108   1.811   0.847   3.815 -0.4304 -0.0366  0.2255
 2264SOL    HW2 9109   1.883   0.803   3.860  1.2205  0.8907 -1.4389
 2264SOL    HW3 9110   1.833   0.841   3.722 -1.3826  2.1597 -0.1822
 2264SOL    MW4 9111   1.824   0.841   3.809 -0.3383  0.3756 -0.0477
 2265SOL     OW 9112   1.810   1.121   3.855  0.2572  0.0056 -0.4795
 2265SOL    HW2 9113   1.788   1.129   3.948  0.3708 -1.0125 -0.3580
 2265SOL    HW3 9114   1.811   1.026   3.839 -0.8135  0.2108 -1.7740
 2265SOL    MW4 9115   1.807   1.109   3.865  0.1309 -0.1016 -0.6342
 2266SOL     OW 9116   2.022   1.276   3.810  0.0045  0.0070  0.1585
 2266SOL    HW2 9117   2.103   1.237   3.844  0.3014  0.7699  0.3435
 2266SOL    HW3 9118   1.954   1.215   3.836  0.4397 -0.2936  0.6105
 2266SOL    MW4 9119   2.024   1.263   3.818  0.1011  0.0681  0.2425
 2267SOL     OW 9120   1.984   1.540   3.944  0.4970 -0.2394 -0.4755
 2267SOL    HW2 9121   1.910   1.580   3.898  0.8501 -0.1418 -0.9736
 2267SOL    HW3 9122   2.005   1.462   3.892  1.4438  0.3335 -0.9770
 2267SOL    MW4 9123   1.977   1.535   3.931  0.6685 -0.1509 -0.6070
 2268SOL     OW 9124   1.780   1.628   3.796 -0.1420 -0.0906 -0.0731
 2268SOL    HW2 9125   1.791   1.715   3.835 -0.5864  0.1098 -0.3972
 2268SOL    HW3 9126   1.779   1.644   3.702  0.5235 -0.5333 -0.1555
 2268SOL    MW4 9127   1.781   1.642   3.789 -0.1128 -0.1227 -0.1268
 2269SOL     OW 9128   1.785   1.898   3.885  0.4653 -0.2086 -0.3533
 2269SOL    HW2 9129   1.790   1.902   3.980  1.8952 -0.7206 -0.3955
 2269SOL    HW3 9130   1.699   1.936   3.864  0.1795 -0.0018  1.1186
 2269SOL    MW4 9131   1.774   1.903   3.895  0.6164 -0.2489 -0.1647
 2270SOL     OW 9132   2.008   2.030   3.794  0.1794  0.3154  0.3082
 2270SOL    HW2 9133   1.929   1.981   3.818 -0.1611  0.4490 -0.5247
 2270SOL    HW3 9134   2.010   2.027   3.698  0.6811  1.1012  0.2896
 2270SOL    MW4 9135   1.998   2.023   3.784  0.2006  0.4368  0.1960
 2271SOL     OW 9136   2.003   2.301   3.849  0.1997 -0.1967  0.1680
 2271SOL    HW2 9137   2.001   2.206   3.837  0.9716 -0.2888  0.7156
 2271SOL    HW3 9138   1.915   2.330   3.826  0.3068 -0.8978 -1.1725
 2271SOL    MW4 9139   1.991   2.292   3.844  0.3158 -0.3014  0.0634
 2272SOL     OW 9140   1.752   2.422   3.773 -0.0098  0.5523 -0.4763
 2272SOL    HW2 9141   1.768   2.513   3.796  0.6919  0.7459 -1.6830
 2272SOL    HW3 9142   1.780   2.415   3.682 -0.2610 -0.8161 -0.4598
 2272SOL    MW4 9143   1.758   2.433   3.764  0.0496  0.3974 -0.6330
 2273SOL     OW 9144   1.761   2.701   3.852 -0.1473 -0.4346  0.2007
 2273SOL    HW2 9145   1.752   2.696   3.947 -0.8974 -0.6921  0.1221
 2273SOL    HW3 9146   1.674   2.727   3.821 -0.0536 -0.8853 -0.4533
 2273SOL    MW4 9147   1.748   2.704   3.861 -0.2340 -0.5279  0.1040
 2274SOL     OW 9148   2.001   2.823   3.771 -0.1956 -0.2293 -0.0868
 2274SOL    HW2 9149   2.071   2.760   3.788  0.1927 -0.3481 -1.9294
 2274SOL    HW3 9150   1.921   2.775   3.794  0.2084 -0.7716  0.2120
 2274SOL    MW4 9151   2.000   2.808   3.776 -0.0910 -0.3166 -0.2906
 2275SOL     OW 9152   2.014   3.094   3.864 -0.0476  0.1880  0.2296
 2275SOL    HW2 9153   2.104   3.125   3.854  0.2670 -0.7197  0.2633
 2275SOL    HW3 9154   2.015   3.005   3.831 -0.4276 -0.5908  2.2210
 2275SOL    MW4 9155   2.026   3.086   3.859 -0.0560 -0.0346  0.4969
 2276SOL     OW 9156   1.779   3.227   3.770  0.3315  0.0873  0.0840
 2276SOL    HW2 9157   1.852   3.174   3.801  0.5117  0.2453 -0.0682
 2276SOL    HW3 9158   1.701   3.184   3.805  0.5786  0.6887  1.3753
 2276SOL    MW4 9159   1.778   3.215   3.778  0.3880  0.1876  0.2344
 2277SOL     OW 9160   1.788   3.474   3.902 -0.0840  0.1555 -0.5226
 2277SOL    HW2 9161   1.857   3.527   3.862  1.7303 -1.0669  0.9341
 2277SOL    HW3 9162   1.791   3.391   3.854 -1.4262  0.5586 -1.3189
 2277SOL    MW4 9163   1.797   3.470   3.890 -0.0217  0.0470 -0.4354
 2278SOL     OW 9164   1.999   3.595   3.765 -0.7955 -0.3359  0.5388
 2278SOL    HW2 9165   2.077   3.546   3.793 -1.3005 -1.6803 -0.3536
 2278SOL    HW3 9166   2.003   3.594   3.670 -0.4777  1.9620  0.5069
 2278SOL    MW4 9167   2.010   3.588   3.756 -0.8202 -0.2100  0.4170
 2279SOL     OW 9168   2.002   3.840   3.885 -0.0710  0.4807 -0.0377
 2279SOL    HW2 9169   2.075   3.894   3.855  0.2421 -0.6208 -1.3033
 2279SOL    HW3 9170   2.013   3.757   3.840 -0.8628 -0.4693  1.4578
 2279SOL    MW4 9171   2.013   3.836   3.875 -0.1342  0.2100 -0.0072
 2280SOL     OW 9172   1.790   3.992   3.777 -0.0286  0.0798  0.0800
 2280SOL    HW2 9173   1.855   3.929   3.807 -0.2660 -0.1808  0.0478
 2280SOL    HW3 9174   1.707   3.957   3.808 -0.4347 -0.9143 -2.0444
 2280SOL    MW4 9175   1.788   3.979   3.785 -0.1136 -0.0856 -0.2048
 2281SOL     OW 9176   1.759   4.241   3.886 -0.4325 -0.0418 -0.1537
 2281SOL    HW2 9177   1.840   4.286   3.863 -0.8250  1.0091  0.4502
 2281SOL    HW3 9178   1.768   4.153   3.850  0.9869  0.0595 -0.0496
 2281SOL    MW4 9179   1.771   4.236   3.878 -0.2970  0.1097 -0.0606
 2282SOL     OW 9180   2.001   4.370   3.803 -0.6506  0.2637  0.5339
 2282SOL    HW2 9181   2.078   4.325   3.837  1.3782  3.1523  0.0244
 2282SOL    HW3 9182   2.007   4.357   3.708 -1.4723 -0.5381  0.5943
 2282SOL    MW4 9183   2.012   4.363   3.795 -0.4911  0.5388  0.4745
 2283SOL     OW 9184   2.465   4.652   3.884  0.1976  0.0113  0.1010
 2283SOL    HW2 9185   2.468   4.617   3.973  2.7275  0.2196  0.1578
 2283SOL    HW3 9186   2.548   4.699   3.874  0.4727 -0.9548 -2.7178
 2283SOL    MW4 9187   2.477   4.653   3.894  0.5674 -0.0882 -0.2635
 2284SOL     OW 9188   2.220   0.092   3.797  0.5799 -0.6065  0.1864
 2284SOL    HW2 9189   2.307   0.060   3.820  0.2352 -1.8712 -0.2576
 2284SOL    HW3 9190   2.214   0.081   3.702 -0.4217 -1.4183  0.3383
 2284SOL    MW4 9191   2.231   0.087   3.787  0.4027 -0.8804  0.1478
 2285SOL     OW 9192   2.274   0.360   3.872  0.0983 -0.3867 -0.1777
 2285SOL    HW2 9193   2.260   0.267   3.854 -1.5679 -0.0941 -0.4979
 2285SOL    HW3 9194   2.195   0.403   3.839  0.3402  1.0134  1.0149
 2285SOL    MW4 9195   2.262   0.353   3.865 -0.0894 -0.1633 -0.0627
 2286SOL     OW 9196   2.498   0.492   3.794  0.1050  0.3413  0.0320
 2286SOL    HW2 9197   2.416   0.449   3.822  0.1861 -0.1906 -0.5204
 2286SOL    HW3 9198   2.497   0.484   3.699  0.4482  0.9988 -0.0280
 2286SOL    MW4 9199   2.487   0.485   3.785  0.1612  0.3579 -0.0486
 2287SOL     OW 9200   2.483   0.748   3.903 -0.3617 -0.0106  0.2318
 2287SOL    HW2 9201   2.414   0.790   3.851 -0.0991  1.4726  1.0472
 2287SOL    HW3 9202   2.492   0.661   3.865 -0.3405  0.9555 -2.0500
 2287SOL    MW4 9203   2.475   0.742   3.892 -0.3240  0.3126  0.0381
 2288SOL     OW 9204   2.224   0.882   3.819  0.0771 -0.4227 -0.0518
 2288SOL    HW2 9205   2.161   0.820   3.855  1.9842 -2.0158  0.6261
 2288SOL    HW3 9206   2.230   0.859   3.726 -0.7277  0.0777 -0.2287
 2288SOL    MW4 9207   2.217   0.871   3.811  0.2224 -0.5668  0.0143
 2289SOL     OW 9208   2.255   1.151   3.909 -0.1623 -0.6900 -0.2865
 2289SOL    HW2 9209   2.251   1.125   4.001 -1.2693  0.1465 -0.0892
 2289SOL    HW3 9210   2.251   1.069   3.860  1.3919 -1.2109  0.4152
 2289SOL    MW4 9211   2.254   1.137   3.915 -0.1030 -0.6483 -0.1678
 2290SOL     OW 9212   2.485   1.280   3.785  0.2698  0.2222 -0.2038
 2290SOL    HW2 9213   2.486   1.367   3.824  0.2465  0.5667 -0.9659
 2290SOL    HW3 9214   2.414   1.234   3.830  1.6489 -0.1012  1.6983
 2290SOL    MW4 9215   2.476   1.285   3.796  0.4489  0.2248 -0.0534
 2291SOL     OW 9216   2.441   1.513   3.903 -0.2996  0.0307  0.0154
 2291SOL    HW2 9217   2.522   1.552   3.869 -0.4444  1.4183  1.1977
 2291SOL    HW3 9218   2.371   1.562   3.862 -0.5623 -1.3050 -1.1573
 2291SOL    MW4 9219   2.443   1.525   3.893 -0.3533  0.0376  0.0169
 2292SOL     OW 9220   2.213   1.653   3.790  0.4146  0.4451 -0.2753
 2292SOL    HW2 9221   2.223   1.740   3.829  0.6306  0.2814  0.0406
 2292SOL    HW3 9222   2.141   1.614   3.838 -0.5065  0.9165 -1.2688
 2292SOL    MW4 9223   2.205   1.659   3.801  0.3216  0.4857 -0.3645
 2293SOL     OW 9224   2.212   1.894   3.920  0.4579 -0.1333 -0.1417
 2293SOL    HW2 9225   2.197   1.912   4.013 -0.2824 -0.0418 -0.2723
 2293SOL    HW3 9226   2.138   1.937   3.876  0.9668  0.0774 -0.7936
 2293SOL    MW4 9227   2.200   1.902   3.927  0.4275 -0.0935 -0.2446
 2294SOL     OW 9228   2.445   2.010   3.800  0.0589 -0.1849  0.6114
 2294SOL    HW2 9229   2.446   2.102   3.828  1.3047 -0.7358  2.4607
 2294SOL    HW3 9230   2.372   1.971   3.848 -1.0074  0.0252 -0.8272
 2294SOL    MW4 9231   2.435   2.017   3.810  0.0825 -0.2298  0.6657
 2295SOL     OW 9232   2.455   2.267   3.850  0.0392  0.0275  0.2481
 2295SOL    HW2 9233   2.530   2.326   3.838 -0.7890  1.0156 -0.2150
 2295SOL    HW3 9234   2.380   2.319   3.822 -0.7719 -1.0967  0.3115
 2295SOL    MW4 9235   2.455   2.282   3.845 -0.1771  0.0098  0.1953
 2296SOL     OW 9236   2.227   2.436   3.771  0.2567  0.5340 -0.0427
 2296SOL    HW2 9237   2.146   2.391   3.795 -0.2471  0.9998 -0.8516
 2296SOL    HW3 9238   2.246   2.407   3.682  2.3087 -1.4555  0.9737
 2296SOL    MW4 9239   2.219   2.427   3.762  0.4613  0.3331 -0.0153
 2297SOL     OW 9240   2.232   2.709   3.817 -0.1723  0.1306  0.0226
 2297SOL    HW2 9241   2.237   2.716   3.913 -0.4561  1.1056 -0.0332
 2297SOL    HW3 9242   2.240   2.615   3.800  0.7709  0.0331  0.9488
 2297SOL    MW4 9243   2.234   2.698   3.828 -0.0854  0.2465  0.1376
 2298SOL     OW 9244   2.476   2.824   3.747  0.0814  0.2389 -0.0764
 2298SOL    HW2 9245   2.389   2.786   3.757  0.6265 -0.9633  0.2363
 2298SOL    HW3 9246   2.487   2.835   3.653 -0.0225 -0.5564 -0.1852
 2298SOL    MW4 9247   2.466   2.821   3.736  0.1397 -0.0243 -0.0498
 2299SOL     OW 9248   2.483   3.115   3.842 -0.1327 -0.3746  0.0088
 2299SOL    HW2 9249   2.480   3.084   3.933  0.9813  1.5311  0.7249
 2299SOL    HW3 9250   2.478   3.036   3.789  0.8061 -1.6305  1.7593
 2299SOL    MW4 9251   2.482   3.101   3.847  0.1380 -0.2890  0.3345
 2300SOL     OW 9252   2.243   3.208   3.757  0.7042 -0.5373 -0.2102
 2300SOL    HW2 9253   2.234   3.298   3.787 -0.2502 -0.5818 -0.3496
 2300SOL    HW3 9254   2.334   3.185   3.776  0.2942 -0.3605  2.0506
 2300SOL    MW4 9255   2.254   3.217   3.764  0.5240 -0.5198  0.0694
 2301SOL     OW 9256   2.244   3.465   3.826 -0.0534 -0.1991  0.3004
 2301SOL    HW2 9257   2.247   3.479   3.921  0.3389  0.4391  0.1999
 2301SOL    HW3 9258   2.304   3.531   3.790  1.7564 -2.0961 -0.2289
 2301SOL    MW4 9259   2.252   3.476   3.834  0.2370 -0.3653  0.2172
 2302SOL     OW 9260   2.481   3.607   3.766 -0.1677  0.1738 -0.6210
 2302SOL    HW2 9261   2.566   3.576   3.798 -0.1562  0.3224 -0.5090
 2302SOL    HW3 9262   2.496   3.627   3.674  0.3359  1.8114 -0.1862
 2302SOL    MW4 9263   2.494   3.605   3.758 -0.0997  0.4096 -0.5486
 2303SOL     OW 9264   2.465   3.869   3.853  0.5271  0.4767  0.1851
 2303SOL    HW2 9265   2.541   3.922   3.831  0.7929  0.5360  1.2481
 2303SOL    HW3 9266   2.493   3.778   3.837  0.9435  0.4718  0.9060
 2303SOL    MW4 9267   2.479   3.864   3.848  0.6173  0.4838  0.4208
 2304SOL     OW 9268   2.218   3.988   3.788  0.4946 -0.3956 -0.2014
 2304SOL    HW2 9269   2.301   3.943   3.806  1.5779  1.3153 -0.8581
 2304SOL    HW3 9270   2.210   3.988   3.693  0.8128  1.3609 -0.2328
 2304SOL    MW4 9271   2.228   3.982   3.778  0.6795  0.0620 -0.2925
 2305SOL     OW 9272   2.237   4.263   3.897 -0.3016 -0.1956 -0.0192
 2305SOL    HW2 9273   2.260   4.257   3.989 -0.7927 -1.0615  0.0623
 2305SOL    HW3 9274   2.237   4.172   3.866 -2.9719 -0.2014 -0.1394
 2305SOL    MW4 9275   2.240   4.250   3.905 -0.7184 -0.3109 -0.0241
 2306SOL     OW 9276   2.440   4.407   3.761 -0.2707  0.3601  0.2384
 2306SOL    HW2 9277   2.369   4.359   3.803 -0.3332  0.1933 -0.0582
 2306SOL    HW3 9278   2.440   4.492   3.805 -0.3729  0.2088  0.5354
 2306SOL    MW4 9279   2.431   4.412   3.772 -0.2925  0.3181  0.2384
 2307SOL     OW 9280   2.912   4.621   3.901  0.4596 -0.4027  0.4547
 2307SOL    HW2 9281   2.910   4.619   3.997 -1.7270  0.9231  0.4630
 2307SOL    HW3 9282   2.977   4.688   3.880 -0.9240  1.1610  1.0591
 2307SOL    MW4 9283   2.920   4.630   3.911 -0.0117 -0.0215  0.5352
 2308SOL     OW 9284   2.693   0.124   3.827  0.0321 -0.1266 -0.1276
 2308SOL    HW2 9285   2.762   0.065   3.858 -0.8772 -0.9450  0.3634
 2308SOL    HW3 9286   2.685   0.105   3.734  1.3179  0.8384 -0.4337
 2308SOL    MW4 9287   2.701   0.114   3.819  0.0815 -0.1073 -0.1035
 2309SOL     OW 9288   2.738   0.392   3.894  0.4379  0.0511 -0.1330
 2309SOL    HW2 9289   2.728   0.298   3.880 -0.8156  0.2651 -0.8191
 2309SOL    HW3 9290   2.654   0.429   3.866  0.8485  1.3541  0.3108
 2309SOL    MW4 9291   2.725   0.384   3.889  0.3266  0.2513 -0.1650
 2310SOL     OW 9292   2.968   0.533   3.801  0.2509 -0.3172  0.0479
 2310SOL    HW2 9293   3.044   0.477   3.821 -0.4718 -1.4041 -0.2089
 2310SOL    HW3 9294   2.893   0.486   3.838 -0.2360  1.0415  0.8303
 2310SOL    MW4 9295   2.968   0.519   3.809  0.0913 -0.2812  0.1173
 2311SOL     OW 9296   2.963   0.793   3.847  0.3583  0.6361 -0.0337
 2311SOL    HW2 9297   3.023   0.850   3.799  1.6045  0.3359  1.1222
 2311SOL    HW3 9298   2.992   0.704   3.827  0.3847  0.4911  0.6323
 2311SOL    MW4 9299   2.975   0.789   3.838  0.5262  0.5773  0.2069
 2312SOL     OW 9300   2.693   0.865   3.762 -0.2958  0.3790  0.3343
 2312SOL    HW2 9301   2.771   0.818   3.792  0.0828  1.0394  0.3740
 2312SOL    HW3 9302   2.620   0.813   3.797  0.1167 -0.3977  0.0503
 2312SOL    MW4 9303   2.694   0.852   3.771 -0.1915  0.3637  0.3021
 2313SOL     OW 9304   2.697   1.138   3.871 -0.0842  0.3694 -0.6265
 2313SOL    HW2 9305   2.687   1.047   3.844 -2.0466 -0.4936  2.7186
 2313SOL    HW3 9306   2.617   1.182   3.842  0.4231  0.8230 -1.3673
 2313SOL    MW4 9307   2.685   1.132   3.863 -0.2761  0.3154 -0.2828
 2314SOL     OW 9308   2.915   1.260   3.752 -0.0364  0.5036 -0.2405
 2314SOL    HW2 9309   2.925   1.340   3.802  1.6623  0.6588 -0.8208
 2314SOL    HW3 9310   2.837   1.217   3.790  0.5604  1.1549  1.7490
 2314SOL    MW4 9311   2.906   1.265   3.763  0.2666  0.6100 -0.0546
 2315SOL     OW 9312   2.916   1.519   3.863  0.6698 -0.5962  0.0412
 2315SOL    HW2 9313   2.927   1.523   3.958 -2.0811  2.7694  0.3032
 2315SOL    HW3 9314   2.982   1.579   3.829  0.2431 -0.1474 -0.0063
 2315SOL    MW4 9315   2.926   1.527   3.871  0.2503 -0.0929  0.0696
 2316SOL     OW 9316   2.685   1.652   3.802  0.0638 -0.1402  0.6133
 2316SOL    HW2 9317   2.762   1.599   3.823 -0.1912 -0.4594  0.7586
 2316SOL    HW3 9318   2.696   1.677   3.711 -0.4777 -1.5880  0.1386
 2316SOL    MW4 9319   2.696   1.648   3.793 -0.0412 -0.3732  0.5698
 2317SOL     OW 9320   2.669   1.917   3.937 -0.0762  0.3012 -0.0563
 2317SOL    HW2 9321   2.687   1.829   3.905 -1.1383 -0.8216  2.3410
 2317SOL    HW3 9322   2.588   1.943   3.892 -0.3015 -0.3455 -0.0255
 2317SOL    MW4 9323   2.660   1.909   3.927 -0.2458  0.0678  0.2642
 2318SOL     OW 9324   2.891   2.049   3.823 -0.0724 -1.1332  0.2017
 2318SOL    HW2 9325   2.890   2.136   3.863  0.3313 -0.5308 -1.0633
 2318SOL    HW3 9326   2.817   2.003   3.863 -0.5358 -0.0736  0.5840
 2318SOL    MW4 9327   2.881   2.054   3.833 -0.0803 -0.9143  0.0849
 2319SOL     OW 9328   2.896   2.327   3.875  0.5362 -0.2441 -0.0531
 2319SOL    HW2 9329   2.900   2.342   3.969  0.8548 -0.7504  0.0176
 2319SOL    HW3 9330   2.974   2.370   3.840  1.4332 -1.6536  0.1462
 2319SOL    MW4 9331   2.907   2.334   3.883  0.6964 -0.4969 -0.0174
 2320SOL     OW 9332   2.659   2.446   3.784  0.2106  0.1638 -0.0514
 2320SOL    HW2 9333   2.662   2.528   3.833  0.7481  0.4374 -0.5296
 2320SOL    HW3 9334   2.741   2.402   3.806  0.7627  0.5915 -1.2084
 2320SOL    MW4 9335   2.670   2.451   3.793  0.3543  0.2563 -0.2670
 2321SOL     OW 9336   2.656   2.689   3.932 -0.2167 -0.0670  0.2917
 2321SOL    HW2 9337   2.662   2.728   4.019  2.3542  0.9811 -0.3365
 2321SOL    HW3 9338   2.593   2.744   3.886 -0.2498  0.4247  0.9207
 2321SOL    MW4 9339   2.648   2.701   3.937  0.1185  0.1359  0.2918
 2322SOL     OW 9340   2.903   2.801   3.812 -0.2031 -0.1424  0.2917
 2322SOL    HW2 9341   2.929   2.890   3.837 -0.7325 -0.1575  0.8925
 2322SOL    HW3 9342   2.820   2.786   3.858  1.1493 -1.8884  2.2801
 2322SOL    MW4 9343   2.896   2.811   3.822 -0.0947 -0.3750  0.6332
 2323SOL     OW 9344   2.939   3.068   3.863  0.0893 -0.1705  0.0523
 2323SOL    HW2 9345   3.020   3.115   3.843  0.6542 -0.5570  1.3999
 2323SOL    HW3 9346   2.869   3.126   3.834  0.8304  0.3194 -0.7923
 2323SOL    MW4 9347   2.941   3.082   3.856  0.2618 -0.1569  0.1187
 2324SOL     OW 9348   2.744   3.250   3.778  0.4755  0.1691 -0.0662
 2324SOL    HW2 9349   2.740   3.345   3.791 -1.6410  0.1435 -0.3869
 2324SOL    HW3 9350   2.659   3.218   3.808 -0.0781 -1.2283 -2.9497
 2324SOL    MW4 9351   2.733   3.259   3.784  0.1230 -0.0188 -0.4890
 2325SOL     OW 9352   2.741   3.517   3.849  0.0878 -0.4778  0.2307
 2325SOL    HW2 9353   2.758   3.503   3.942 -0.3676 -0.8560  0.2536
 2325SOL    HW3 9354   2.818   3.566   3.819  0.0357  0.0245  0.8949
 2325SOL    MW4 9355   2.754   3.522   3.858  0.0205 -0.4613  0.3216
 2326SOL     OW 9356   2.975   3.631   3.771  0.2115 -0.1695  0.0451
 2326SOL    HW2 9357   3.032   3.561   3.803  0.6862 -0.3316 -1.1190
 2326SOL    HW3 9358   2.977   3.622   3.676 -1.2166  0.2666 -0.0433
 2326SOL    MW4 9359   2.983   3.620   3.763  0.0856 -0.1330 -0.1202
 2327SOL     OW 9360   2.927   3.892   3.902 -0.0574 -0.0410  0.4983
 2327SOL    HW2 9361   2.934   3.886   3.997  1.3142 -1.0254  0.3345
 2327SOL    HW3 9362   2.937   3.803   3.871  1.9148  0.5881 -0.7240
 2327SOL    MW4 9363   2.929   3.880   3.910  0.3839 -0.0880  0.3152
 2328SOL     OW 9364   2.702   3.993   3.773  0.2554 -0.3114 -0.2596
 2328SOL    HW2 9365   2.699   4.076   3.820  0.2436  0.0030 -0.8182
 2328SOL    HW3 9366   2.771   3.943   3.818  0.9612  0.3841 -0.5512
 2328SOL    MW4 9367   2.711   3.997   3.785  0.3467 -0.1781 -0.3719
 2329SOL     OW 9368   2.702   4.235   3.898  0.2624 -0.0392 -0.0127
 2329SOL    HW2 9369   2.782   4.275   3.865  0.2518 -1.2718 -1.5982
 2329SOL    HW3 9370   2.631   4.287   3.860  0.2825  0.2523  0.3432
 2329SOL    MW4 9371   2.703   4.247   3.889  0.2635 -0.1640 -0.1750
 2330SOL     OW 9372   2.929   4.386   3.763  0.0183  0.0282  0.0798
 2330SOL    HW2 9373   3.015   4.349   3.784  0.6021  1.2331 -0.1527
 2330SOL    HW3 9374   2.926   4.468   3.811 -1.1648 -0.1856  0.3814
 2330SOL    MW4 9375   2.940   4.392   3.772 -0.0608  0.1588  0.0889
 2331SOL     OW 9376   3.344   0.028   3.926 -0.0593  0.0931  0.0607
 2331SOL    HW2 9377   3.361   0.016   4.019  0.8478 -1.6779 -0.3157
 2331SOL    HW3 9378   3.415   0.085   3.895 -0.2678  0.5441  0.4074
 2331SOL    MW4 9379   3.356   0.034   3.934  0.0329 -0.0806  0.0567
 2332SOL     OW 9380   3.105   0.121   3.813  0.2651  0.6276  0.6911
 2332SOL    HW2 9381   3.189   0.079   3.831  1.1018  1.8663 -0.2563
 2332SOL    HW3 9382   3.102   0.128   3.718 -2.0082 -1.6001  0.5451
 2332SOL    MW4 9383   3.116   0.116   3.803  0.0756  0.4971  0.5467
 2333SOL     OW 9384   3.203   0.387   3.876 -0.6462  0.2104 -0.4284
 2333SOL    HW2 9385   3.175   0.416   3.963 -0.3601 -0.3807 -0.1353
 2333SOL    HW3 9386   3.167   0.298   3.867  0.6162 -0.3346 -0.2793
 2333SOL    MW4 9387   3.195   0.379   3.886 -0.4418  0.0605 -0.3703
 2334SOL     OW 9388   3.433   0.522   3.784 -0.0409 -0.1402  0.0451
 2334SOL    HW2 9389   3.495   0.474   3.839 -0.8918 -0.4755  0.7019
 2334SOL    HW3 9390   3.347   0.489   3.809 -0.5012  0.4009 -0.8018
 2334SOL    MW4 9391   3.430   0.512   3.794 -0.2136 -0.1130  0.0203
 2335SOL     OW 9392   3.414   0.796   3.827 -0.8794 -0.4709  0.4924
 2335SOL    HW2 9393   3.403   0.800   3.922  1.1324 -0.9290  0.7574
 2335SOL    HW3 9394   3.428   0.704   3.808  0.6372 -0.1388 -0.0233
 2335SOL    MW4 9395   3.414   0.785   3.837 -0.4139 -0.4875  0.4594
 2336SOL     OW 9396   3.196   0.932   3.719 -0.1275 -0.2912  0.2691
 2336SOL    HW2 9397   3.274   0.881   3.743 -0.1516 -0.0961  0.7730
 2336SOL    HW3 9398   3.187   0.919   3.624  1.1934  0.6193  0.0091
 2336SOL    MW4 9399   3.205   0.923   3.710  0.0436 -0.1453  0.3014
 2337SOL     OW 9400   3.157   1.162   3.863  0.4605  0.5707  0.1255
 2337SOL    HW2 9401   3.172   1.078   3.818  1.2972  1.4644 -1.2971
 2337SOL    HW3 9402   3.070   1.188   3.835  0.6855  0.7630 -0.4143
 2337SOL    MW4 9403   3.148   1.154   3.853  0.6003  0.7138 -0.1333
 2338SOL     OW 9404   3.380   1.327   3.762  0.1032  0.2702  0.2764
 2338SOL    HW2 9405   3.304   1.282   3.798 -0.6046  0.6875 -0.6755
 2338SOL    HW3 9406   3.375   1.311   3.668  1.7024 -0.4644  0.2909
 2338SOL    MW4 9407   3.370   1.319   3.754  0.2210  0.2282  0.1531
 2339SOL     OW 9408   3.404   1.595   3.835  0.0242  0.0770  0.2838
 2339SOL    HW2 9409   3.315   1.621   3.815  0.5559  1.7935  0.0224
 2339SOL    HW3 9410   3.409   1.502   3.812 -1.8575 -0.1966  0.9178
 2339SOL    MW4 9411   3.393   1.586   3.830 -0.1538  0.2675  0.3328
 2340SOL     OW 9412   3.128   1.652   3.774 -0.0740  0.3567  0.0606
 2340SOL    HW2 9413   3.127   1.740   3.812 -1.0024 -0.3714  1.7642
 2340SOL    HW3 9414   3.135   1.667   3.680  0.0294  2.2465  0.3500
 2340SOL    MW4 9415   3.129   1.666   3.767 -0.1826  0.5099  0.3238
 2341SOL     OW 9416   3.129   1.917   3.887  0.3978  0.2635 -0.2470
 2341SOL    HW2 9417   3.148   1.930   3.980  1.9704 -1.1961 -0.3494
 2341SOL    HW3 9418   3.040   1.950   3.876  0.4187  0.9982  1.6560
 2341SOL    MW4 9419   3.119   1.923   3.898  0.6077  0.1678 -0.0091
 2342SOL     OW 9420   3.379   2.026   3.815 -0.0798  0.2146  0.0744
 2342SOL    HW2 9421   3.290   1.991   3.822 -0.0689  0.1045 -0.3570
 2342SOL    HW3 9422   3.394   2.034   3.721  0.7795 -0.8091  0.1197
 2342SOL    MW4 9423   3.369   2.023   3.804  0.0353  0.0648  0.0234
 2343SOL     OW 9424   3.384   2.290   3.888 -0.3330 -0.2979 -0.2470
 2343SOL    HW2 9425   3.302   2.325   3.853  0.4648 -1.0826 -2.9914
 2343SOL    HW3 9426   3.379   2.195   3.874  0.9600 -0.3820 -0.2532
 2343SOL    MW4 9427   3.373   2.282   3.882 -0.0572 -0.4122 -0.6101
 2344SOL     OW 9428   3.148   2.423   3.787 -0.0379 -0.4127  0.0918
 2344SOL    HW2 9429   3.159   2.513   3.818 -0.3193 -0.3692  0.0664
 2344SOL    HW3 9430   3.152   2.431   3.692 -0.6213 -0.3492  0.0696
 2344SOL    MW4 9431   3.150   2.436   3.779 -0.1521 -0.3984  0.0854
 2345SOL     OW 9432   3.159   2.688   3.873 -0.0808  0.1881  0.2675
 2345SOL    HW2 9433   3.160   2.671   3.967  0.8726 -1.0046  0.0548
 2345SOL    HW3 9434   3.069   2.712   3.854 -0.2295  0.6659  1.5198
 2345SOL    MW4 9435   3.147   2.689   3.883  0.0255  0.0937  0.4048
 2346SOL     OW 9436   3.383   2.819   3.791 -0.3088 -0.2102 -0.0318
 2346SOL    HW2 9437   3.304   2.779   3.828 -1.7501  1.5017 -1.1535
 2346SOL    HW3 9438   3.381   2.795   3.698  0.7429 -0.5216  0.0199
 2346SOL    MW4 9439   3.372   2.811   3.784 -0.3605 -0.0250 -0.1731
 2347SOL     OW 9440   3.349   3.088   3.865 -0.3174  0.1705  0.0999
 2347SOL    HW2 9441   3.428   3.130   3.832 -0.8591 -1.2690 -3.2650
 2347SOL    HW3 9442   3.356   2.997   3.834 -2.6979 -0.2560  0.7517
 2347SOL    MW4 9443   3.360   3.081   3.856 -0.7029 -0.0756 -0.2582
 2348SOL     OW 9444   3.145   3.218   3.744  0.4199  0.0696  0.0746
 2348SOL    HW2 9445   3.225   3.170   3.767 -1.0375 -2.3642  0.2217
 2348SOL    HW3 9446   3.139   3.210   3.649  1.0317  1.4120 -0.0940
 2348SOL    MW4 9447   3.155   3.210   3.735  0.3085 -0.0744  0.0715
 2349SOL     OW 9448   3.158   3.457   3.868 -0.0622 -0.5738 -0.3876
 2349SOL    HW2 9449   3.240   3.503   3.851  1.4130 -1.9546  2.7610
 2349SOL    HW3 9450   3.167   3.374   3.822 -0.3764 -0.0910 -1.3407
 2349SOL    MW4 9451   3.170   3.452   3.859  0.0908 -0.6924 -0.0978
 2350SOL     OW 9452   3.389   3.593   3.776 -0.0536 -0.2803  0.1082
 2350SOL    HW2 9453   3.376   3.683   3.807 -0.4849 -0.5731  0.8080
 2350SOL    HW3 9454   3.386   3.600   3.681 -0.4874  0.3944  0.1594
 2350SOL    MW4 9455   3.387   3.606   3.768 -0.1678 -0.2301  0.2072
 2351SOL     OW 9456   3.369   3.867   3.871 -0.5175  0.0974  0.0704
 2351SOL    HW2 9457   3.435   3.936   3.879  0.3102 -0.3999 -2.1600
 2351SOL    HW3 9458   3.289   3.913   3.844 -0.3612  0.3670  0.0662
 2351SOL    MW4 9459   3.367   3.882   3.869 -0.3874  0.0672 -0.2246
 2352SOL     OW 9460   3.151   3.997   3.785  0.3080  0.1859  0.0109
 2352SOL    HW2 9461   3.168   4.088   3.808  1.0466 -0.1303  0.7723
 2352SOL    HW3 9462   3.074   3.973   3.838 -0.2438  0.5349 -0.6297
 2352SOL    MW4 9463   3.143   4.005   3.795  0.3326  0.1907  0.0267
 2353SOL     OW 9464   3.163   4.262   3.879 -0.1868  0.8011 -0.3516
 2353SOL    HW2 9465   3.140   4.287   3.968  0.3946  1.1367 -0.2963
 2353SOL    HW3 9466   3.239   4.316   3.857 -0.0307  0.3761 -0.8743
 2353SOL    MW4 9467   3.170   4.272   3.888 -0.0894  0.7892 -0.4132
 2354SOL     OW 9468   3.396   4.419   3.800 -0.7136  0.0223  0.1964
 2354SOL    HW2 9469   3.463   4.390   3.863 -1.3916  0.1110  0.9704
 2354SOL    HW3 9470   3.381   4.510   3.822  0.1154  0.4764 -1.0705
 2354SOL    MW4 9471   3.403   4.427   3.811 -0.6936  0.0939  0.1314
 2355SOL     OW 9472   3.791   4.641   3.905 -0.2136  0.0499 -0.2287
 2355SOL    HW2 9473   3.873   4.680   3.875  0.0028 -0.1349  0.1261
 2355SOL    HW3 9474   3.792   4.552   3.871  0.6865 -0.6310  1.4911
 2355SOL    MW4 9475   3.802   4.635   3.897 -0.0663 -0.0644  0.0451
 2356SOL     OW 9476   3.588   0.109   3.806 -0.1433  0.7192 -0.0209
 2356SOL    HW2 9477   3.660   0.058   3.844 -0.9930 -0.1864  0.4070
 2356SOL    HW3 9478   3.582   0.078   3.715  0.3202  1.1470 -0.1986
 2356SOL    MW4 9479   3.597   0.098   3.799 -0.1941  0.6561  0.0122
 2357SOL     OW 9480   3.622   0.355   3.927  0.6828 -0.2097  0.3914
 2357SOL    HW2 9481   3.696   0.399   3.885  1.0580 -0.7261  0.5154
 2357SOL    HW3 9482   3.618   0.269   3.885 -0.6989  0.3162 -0.5973
 2357SOL    MW4 9483   3.631   0.350   3.916  0.5500 -0.2084  0.2773
 2358SOL     OW 9484   3.826   0.498   3.778  0.6921  0.7179 -0.0990
 2358SOL    HW2 9485   3.904   0.462   3.820 -0.3242 -0.0027  1.2093
 2358SOL    HW3 9486   3.824   0.590   3.805  0.9397  0.6657  0.1000
 2358SOL    MW4 9487   3.836   0.505   3.787  0.5908  0.6160  0.0999
 2359SOL     OW 9488   3.834   0.754   3.852 -0.0576 -0.0682 -0.1291
 2359SOL    HW2 9489   3.916   0.799   3.832 -0.3909  0.4951 -0.2253
 2359SOL    HW3 9490   3.767   0.803   3.804 -0.3865 -0.8250 -0.4647
 2359SOL    MW4 9491   3.836   0.766   3.843 -0.1450 -0.0938 -0.1860
 2360SOL     OW 9492   3.639   0.925   3.759  0.3585  0.0887 -0.2907
 2360SOL    HW2 9493   3.629   1.016   3.787  0.2051 -0.4911  1.6094
 2360SOL    HW3 9494   3.555   0.884   3.781  0.3969 -0.4988 -1.2214
 2360SOL    MW4 9495   3.626   0.932   3.765  0.3433 -0.0653 -0.1628
 2361SOL     OW 9496   3.622   1.203   3.840 -0.2778 -0.8990  0.1095
 2361SOL    HW2 9497   3.676   1.254   3.779 -0.7832 -0.2286  0.2117
 2361SOL    HW3 9498   3.532   1.232   3.822 -0.4173 -0.5356  1.3042
 2361SOL    MW4 9499   3.617   1.214   3.830 -0.3631 -0.7626  0.2806
 2362SOL     OW 9500   3.862   1.282   3.726 -0.3268 -0.1744  0.0034
 2362SOL    HW2 9501   3.918   1.234   3.787  0.2380  1.1720  0.5715
 2362SOL    HW3 9502   3.862   1.372   3.759 -2.2641  0.0089 -0.3836
 2362SOL    MW4 9503   3.869   1.288   3.738 -0.5081  0.0274  0.0272
 2363SOL     OW 9504   3.820   1.524   3.838  0.1019  0.1822  0.3099
 2363SOL    HW2 9505   3.796   1.526   3.931  0.2180 -0.3311  0.3552
 2363SOL    HW3 9506   3.775   1.599   3.799  1.2073  1.2635  1.0627
 2363SOL    MW4 9507   3.811   1.534   3.845  0.2627  0.2573  0.4151
 2364SOL     OW 9508   3.638   1.720   3.749  0.1513  0.0068 -0.0589
 2364SOL    HW2 9509   3.553   1.691   3.781  1.2621 -1.7229  1.4314
 2364SOL    HW3 9510   3.634   1.707   3.654 -0.8320 -1.1883  0.1338
 2364SOL    MW4 9511   3.626   1.715   3.740  0.1683 -0.3790  0.1628
 2365SOL     OW 9512   3.590   1.915   3.945  0.6116  0.6234  0.3009
 2365SOL    HW2 9513   3.511   1.968   3.932  0.1541 -0.1567 -0.0984
 2365SOL    HW3 9514   3.593   1.858   3.868  2.3883  1.7010 -0.4483
 2365SOL    MW4 9515   3.580   1.915   3.933  0.7856  0.6627  0.1495
 2366SOL     OW 9516   3.806   2.026   3.814  0.0734  0.0745  0.1606
 2366SOL    HW2 9517   3.881   1.991   3.863 -1.3548  1.0546  3.1540
 2366SOL    HW3 9518   3.731   1.976   3.846 -0.8924  0.6172 -1.2087
 2366SOL    MW4 9519   3.806   2.015   3.825 -0.2425  0.2751  0.3748
 2367SOL     OW 9520   3.832   2.294   3.883 -0.6971 -0.5263 -0.4495
 2367SOL    HW2 9521   3.759   2.351   3.859 -0.5183 -0.4442 -0.7998
 2367SOL    HW3 9522   3.807   2.208   3.849 -0.8316 -0.5958 -0.1795
 2367SOL    MW4 9523   3.819   2.290   3.876 -0.6914 -0.5248 -0.4604
 2368SOL     OW 9524   3.606   2.443   3.809  0.3324 -0.1328  0.0629
 2368SOL    HW2 9525   3.523   2.397   3.824  0.2141 -0.4135 -1.3871
 2368SOL    HW3 9526   3.622   2.435   3.715  0.5031  2.5034 -0.1699
 2368SOL    MW4 9527   3.597   2.436   3.799  0.3395  0.1781 -0.1593
 2369SOL     OW 9528   3.605   2.704   3.924  0.3469  0.2607  0.2446
 2369SOL    HW2 9529   3.606   2.627   3.867  1.6363 -0.5193  1.3006
 2369SOL    HW3 9530   3.529   2.755   3.895 -0.9141 -1.7448 -0.0173
 2369SOL    MW4 9531   3.595   2.701   3.913  0.3505 -0.1066  0.3493
 2370SOL     OW 9532   3.807   2.833   3.790 -0.3217  0.2458  0.1117
 2370SOL    HW2 9533   3.886   2.793   3.827 -0.4225 -0.7928 -0.7663
 2370SOL    HW3 9534   3.735   2.781   3.825 -0.5190  0.2473 -0.2916
 2370SOL    MW4 9535   3.808   2.821   3.799 -0.3610  0.1087 -0.0575
 2371SOL     OW 9536   3.803   3.095   3.901  0.1300  0.3895 -0.4946
 2371SOL    HW2 9537   3.729   3.147   3.873  0.2720  0.3313 -0.9867
 2371SOL    HW3 9538   3.791   3.010   3.858  0.3057  0.2689 -0.3117
 2371SOL    MW4 9539   3.792   3.090   3.892  0.1717  0.3660 -0.5352
 2372SOL     OW 9540   3.602   3.236   3.797  0.0458 -0.1077 -0.4384
 2372SOL    HW2 9541   3.610   3.326   3.831 -0.7688 -0.6921  1.3851
 2372SOL    HW3 9542   3.600   3.246   3.702 -0.2938  1.8321 -0.2457
 2372SOL    MW4 9543   3.603   3.249   3.789 -0.1063  0.0708 -0.1724
 2373SOL     OW 9544   3.644   3.518   3.853  0.1311 -0.1716  0.1824
 2373SOL    HW2 9545   3.630   3.505   3.946 -0.0237 -1.6311 -0.0311
 2373SOL    HW3 9546   3.564   3.562   3.822 -0.7145 -1.5776  0.3554
 2373SOL    MW4 9547   3.632   3.522   3.861 -0.0010 -0.5496  0.1767
 2374SOL     OW 9548   3.871   3.677   3.804  0.1687  0.2553  0.1144
 2374SOL    HW2 9549   3.855   3.770   3.824  0.4420  0.1815  0.7061
 2374SOL    HW3 9550   3.789   3.634   3.826 -0.1564  0.4380 -0.7305
 2374SOL    MW4 9551   3.858   3.684   3.810  0.1621  0.2697  0.0811
 2375SOL     OW 9552   3.804   3.924   3.888 -0.0921 -0.3025  0.3704
 2375SOL    HW2 9553   3.799   3.913   3.983  0.6633  0.3781  0.4956
 2375SOL    HW3 9554   3.893   3.955   3.872 -0.1542 -0.5977 -0.5844
 2375SOL    MW4 9555   3.815   3.927   3.899 -0.0007 -0.2515  0.2608
 2376SOL     OW 9556   3.560   4.060   3.844 -0.3714 -0.5629  0.8828
 2376SOL    HW2 9557   3.576   4.138   3.897  0.6132 -1.1952  1.5297
 2376SOL    HW3 9558   3.637   4.004   3.858 -0.4827 -1.1138 -0.5483
 2376SOL    MW4 9559   3.572   4.063   3.853 -0.2565 -0.7191  0.7794
 2377SOL     OW 9560   3.609   4.313   3.955  0.5016 -0.3573  0.0261
 2377SOL    HW2 9561   3.652   4.289   4.037 -0.2260 -2.0284 -0.0538
 2377SOL    HW3 9562   3.680   4.338   3.897  1.1190 -0.3038  0.7976
 2377SOL    MW4 9563   3.624   4.313   3.958  0.4869 -0.5708  0.1171
 2378SOL     OW 9564   3.816   4.390   3.780 -0.0870 -0.3188 -0.3920
 2378SOL    HW2 9565   3.896   4.346   3.809  0.8439  1.1305 -0.6663
 2378SOL    HW3 9566   3.818   4.381   3.684  0.1617  0.3843 -0.4565
 2378SOL    MW4 9567   3.827   4.383   3.771  0.0689 -0.0348 -0.4368
 2379SOL     OW 9568   4.271   4.654   3.921  0.3182 -0.1574  0.2680
 2379SOL    HW2 9569   4.299   4.650   4.013  0.2260  0.8540  0.3467
 2379SOL    HW3 9570   4.351   4.674   3.873  0.2263  0.0752  0.2104
 2379SOL    MW4 9571   4.285   4.656   3.927  0.2937  0.0062  0.2711
 2380SOL     OW 9572   4.024   0.084   3.801 -0.0218  0.0016 -0.1455
 2380SOL    HW2 9573   4.112   0.083   3.840  0.3218  0.3667 -0.9004
 2380SOL    HW3 9574   4.040   0.099   3.708 -0.9770  1.7882 -0.0460
 2380SOL    MW4 9575   4.038   0.086   3.794 -0.1030  0.2855 -0.2320
 2381SOL     OW 9576   4.036   0.354   3.892 -0.2760  0.6335 -0.0026
 2381SOL    HW2 9577   4.047   0.351   3.987  0.5840  0.0309 -0.1150
 2381SOL    HW3 9578   4.018   0.263   3.867  1.6709  0.4079 -0.6608
 2381SOL    MW4 9579   4.035   0.341   3.901  0.0944  0.5243 -0.1044
 2382SOL     OW 9580   4.272   0.499   3.823  0.0238  0.0467  0.0388
 2382SOL    HW2 9581   4.194   0.446   3.840  0.8891 -1.5764 -0.8998
 2382SOL    HW3 9582   4.276   0.505   3.728  0.9029  0.3326  0.0905
 2382SOL    MW4 9583   4.262   0.493   3.813  0.2537 -0.1297 -0.0782
 2383SOL     OW 9584   4.268   0.767   3.927  0.4213 -0.5175 -0.5515
 2383SOL    HW2 9585   4.194   0.801   3.876  0.3105 -0.7994 -0.5804
 2383SOL    HW3 9586   4.273   0.675   3.903 -1.5233 -1.4017  2.1502
 2383SOL    MW4 9587   4.259   0.759   3.917  0.1502 -0.6713 -0.1988
 2384SOL     OW 9588   4.055   0.892   3.795  0.1601  0.6900  0.0480
 2384SOL    HW2 9589   4.047   0.980   3.833 -1.0185  0.9469 -0.7852
 2384SOL    HW3 9590   4.061   0.907   3.701 -1.2835 -0.1997 -0.1846
 2384SOL    MW4 9591   4.055   0.906   3.788 -0.1855  0.6066 -0.0925
 2385SOL     OW 9592   4.047   1.154   3.918  0.2301  0.2904  0.0845
 2385SOL    HW2 9593   4.043   1.163   4.013 -0.5569  0.2444  0.0639
 2385SOL    HW3 9594   4.124   1.203   3.892 -0.6723  1.9942  0.5603
 2385SOL    MW4 9595   4.057   1.162   3.927  0.0067  0.5091  0.1447
 2386SOL     OW 9596   4.277   1.283   3.805 -0.3355 -0.1113 -0.1084
 2386SOL    HW2 9597   4.271   1.374   3.836 -0.8189 -0.4570  0.8620
 2386SOL    HW3 9598   4.271   1.290   3.710 -0.1376  0.8969 -0.0579
 2386SOL    MW4 9599   4.275   1.296   3.797 -0.3729 -0.0238  0.0265
 2387SOL     OW 9600   4.291   1.547   3.863 -0.1308 -0.0165  0.8488
 2387SOL    HW2 9601   4.213   1.601   3.847 -0.2307 -0.3837  0.0603
 2387SOL    HW3 9602   4.363   1.598   3.826  0.1448  0.7651  2.4434
 2387SOL    MW4 9603   4.290   1.561   3.856 -0.1078  0.0381  0.9553
 2388SOL     OW 9604   4.051   1.680   3.804  0.1863  0.2346 -0.0367
 2388SOL    HW2 9605   4.030   1.764   3.845  0.6949 -0.1847  1.0975
 2388SOL    HW3 9606   3.982   1.620   3.834  0.8422 -0.1986  0.6285
 2388SOL    MW4 9607   4.039   1.683   3.814  0.3395  0.1222  0.2007
 2389SOL     OW 9608   4.026   1.923   3.922  0.1265 -0.3834 -0.0199
 2389SOL    HW2 9609   4.029   1.918   4.018 -0.4887 -1.3889 -0.0523
 2389SOL    HW3 9610   4.106   1.972   3.899 -1.1549  2.3913  1.1520
 2389SOL    MW4 9611   4.037   1.929   3.932 -0.1240 -0.1501  0.1307
 2390SOL     OW 9612   4.253   2.039   3.833 -0.2945  0.0759  0.1795
 2390SOL    HW2 9613   4.272   2.129   3.859  0.3722 -0.2744  0.9186
 2390SOL    HW3 9614   4.248   2.042   3.737 -0.7830  0.9923  0.2317
 2390SOL    MW4 9615   4.255   2.051   3.824 -0.2708  0.1504  0.2837
 2391SOL     OW 9616   4.341   2.295   3.934 -0.4037  0.5268 -0.0650
 2391SOL    HW2 9617   4.347   2.283   4.029  1.8248  0.3021 -0.2135
 2391SOL    HW3 9618   4.259   2.342   3.921 -1.5401 -0.8763  1.8346
 2391SOL    MW4 9619   4.331   2.300   3.945 -0.2594  0.3119  0.1659
 2392SOL     OW 9620   4.075   2.415   3.846  0.5075  0.1258 -0.1065
 2392SOL    HW2 9621   4.042   2.503   3.863  0.3053  0.5123 -2.3497
 2392SOL    HW3 9622   3.999   2.358   3.854  0.0152  0.5487 -1.5233
 2392SOL    MW4 9623   4.061   2.419   3.849  0.4163  0.2325 -0.5894
 2393SOL     OW 9624   4.032   2.685   3.887  0.3775  0.3781 -0.2750
 2393SOL    HW2 9625   4.037   2.697   3.981 -0.2124  1.2915 -0.3544
 2393SOL    HW3 9626   4.108   2.731   3.852  0.7245 -0.1557 -0.2379
 2393SOL    MW4 9627   4.043   2.692   3.895  0.3457  0.4282 -0.2806
 2394SOL     OW 9628   4.250   2.823   3.799 -0.0111 -0.2139  0.0967
 2394SOL    HW2 9629   4.237   2.905   3.846  0.7085  0.9516 -1.6841
 2394SOL    HW3 9630   4.332   2.789   3.834  0.3216  0.4488 -0.0244
 2394SOL    MW4 9631   4.259   2.829   3.810  0.1273  0.0274 -0.1545
 2395SOL     OW 9632   4.265   3.093   3.909  0.5377  0.5241 -0.4062
 2395SOL    HW2 9633   4.192   3.153   3.891  0.5496  0.2955 -1.2308
 2395SOL    HW3 9634   4.337   3.124   3.854  0.7510  0.1618 -0.3371
 2395SOL    MW4 9635   4.265   3.105   3.899  0.5679  0.4461 -0.5059
 2396SOL     OW 9636   4.034   3.239   3.854 -0.4543  0.0831  0.3158
 2396SOL    HW2 9637   3.948   3.200   3.870 -0.2712  0.1334  1.4630
 2396SOL    HW3 9638   4.051   3.222   3.761 -1.7170  0.1194  0.0716
 2396SOL    MW4 9639   4.025   3.231   3.844 -0.5975  0.0947  0.4351
 2397SOL     OW 9640   4.080   3.502   3.895 -0.6492  0.2903  0.3236
 2397SOL    HW2 9641   4.058   3.419   3.852  1.1636 -0.3568  0.6090
 2397SOL    HW3 9642   4.007   3.559   3.875 -1.3554 -1.0116 -0.8998
 2397SOL    MW4 9643   4.068   3.498   3.887 -0.5035  0.0331  0.1998
 2398SOL     OW 9644   4.320   3.609   3.819 -0.3739 -0.2183  0.2139
 2398SOL    HW2 9645   4.243   3.556   3.839  0.0161 -0.5461  0.8870
 2398SOL    HW3 9646   4.392   3.561   3.860  0.2368 -0.0912 -0.6987
 2398SOL    MW4 9647   4.319   3.595   3.827 -0.2418 -0.2449  0.1824
 2399SOL     OW 9648   4.289   3.866   3.902  0.1395 -0.1724 -0.0983
 2399SOL    HW2 9649   4.207   3.894   3.860  1.3286  0.2477 -2.1770
 2399SOL    HW3 9650   4.299   3.775   3.876  1.0558  0.1886 -1.0309
 2399SOL    MW4 9651   4.279   3.858   3.893  0.4172 -0.0694 -0.4957
 2400SOL     OW 9652   4.064   3.987   3.807 -0.1283 -0.2884  0.1957
 2400SOL    HW2 9653   4.078   4.076   3.841  0.6157 -0.6752  0.9183
 2400SOL    HW3 9654   4.060   3.998   3.712 -2.8511  0.9007  0.3988
 2400SOL    MW4 9655   4.065   4.000   3.799 -0.3901 -0.1826  0.3181
 2401SOL     OW 9656   4.030   4.245   3.890 -0.3311  0.1620  0.0872
 2401SOL    HW2 9657   4.033   4.213   3.980 -0.6009 -0.7764 -0.2397
 2401SOL    HW3 9658   4.102   4.308   3.885  0.7137 -0.9966  0.4942
 2401SOL    MW4 9659   4.040   4.249   3.901 -0.2294 -0.1149  0.0978
 2402SOL     OW 9660   4.239   4.405   3.810 -0.2383 -0.0274  0.1463
 2402SOL    HW2 9661   4.244   4.491   3.853 -0.6612 -0.1550  0.4536
 2402SOL    HW3 9662   4.325   4.366   3.824 -0.4754 -0.2071  1.1827
 2402SOL    MW4 9663   4.251   4.411   3.818 -0.3257 -0.0682  0.3238
 2403SOL     OW 9664   0.204   4.628   4.167  0.6576 -0.2926  0.0637
 2403SOL    HW2 9665   0.186   4.540   4.200  0.0216 -0.3800 -0.5076
 2403SOL    HW3 9666   0.293   4.647   4.197  0.7823 -1.1101  0.2321
 2403SOL    MW4 9667   0.214   4.619   4.175  0.5901 -0.4120  0.0105
 2404SOL     OW 9668   0.043   0.354   4.172  0.4993 -0.3726  0.0053
 2404SOL    HW2 9669   0.044   0.339   4.077  0.3069 -0.2113 -0.0227
 2404SOL    HW3 9670   0.032   0.267   4.210 -0.8698 -0.2779 -0.1668
 2404SOL    MW4 9671   0.042   0.341   4.164  0.2932 -0.3388 -0.0205
 2405SOL     OW 9672   1.319   3.502   4.606 -0.3265  0.3952 -0.0823
 2405SOL    HW2 9673   1.332   3.412   4.576  0.8967  0.5557 -0.0695
 2405SOL    HW3 9674   1.385   3.552   4.558 -0.9377  1.2770 -0.0180
 2405SOL    MW4 9675   1.329   3.497   4.596 -0.2458  0.5331 -0.0725
 2406SOL     OW 9676   0.248   0.495   4.298  0.2414 -0.6047 -0.6778
 2406SOL    HW2 9677   0.242   0.479   4.393  0.4824 -3.0277 -1.0324
 2406SOL    HW3 9678   0.165   0.463   4.263  0.2525  0.0573 -1.3305
 2406SOL    MW4 9679   0.236   0.489   4.306  0.2746 -0.8371 -0.8106
 2407SOL     OW 9680   0.229   0.772   4.204 -0.5018 -0.2211 -0.5073
 2407SOL    HW2 9681   0.223   0.685   4.244  0.7651  0.7859  2.0398
 2407SOL    HW3 9682   0.317   0.803   4.229 -0.6735  1.4975 -1.9654
 2407SOL    MW4 9683   0.240   0.764   4.213 -0.3573  0.1385 -0.3643
 2408SOL     OW 9684   1.012   1.781   4.619 -0.0550 -0.0015 -0.1395
 2408SOL    HW2 9685   1.105   1.802   4.604 -0.0048  1.3452  1.9002
 2408SOL    HW3 9686   0.968   1.866   4.613 -0.7894 -0.2626  1.5007
 2408SOL    MW4 9687   1.019   1.795   4.616 -0.1453  0.1417  0.3462
 2409SOL     OW 9688   4.489   1.133   4.192  0.2855  0.0884  0.2410
 2409SOL    HW2 9689   4.492   1.123   4.097  0.3865  1.1381  0.1298
 2409SOL    HW3 9690   4.499   1.044   4.225 -0.3826 -0.3597 -0.7372
 2409SOL    MW4 9691   4.491   1.120   4.184  0.2107  0.1677  0.0968
 2410SOL     OW 9692   1.073   1.335   4.564 -0.3427 -0.0910 -0.0038
 2410SOL    HW2 9693   1.001   1.397   4.555 -0.0148  0.3105  0.0743
 2410SOL    HW3 9694   1.032   1.249   4.569 -0.7854  0.0987 -0.4345
 2410SOL    MW4 9695   1.058   1.332   4.564 -0.3577 -0.0130 -0.0501
 2411SOL     OW 9696   4.247   4.343   4.534 -0.2278 -0.4276  0.1285
 2411SOL    HW2 9697   4.198   4.266   4.564 -0.5316  0.4500  1.9852
 2411SOL    HW3 9698   4.189   4.417   4.553  1.1915  0.4953  0.9832
 2411SOL    MW4 9699   4.233   4.342   4.541 -0.0811 -0.1903  0.4859
 2412SOL     OW 9700   0.032   1.632   4.253 -0.0940  0.1203 -0.0255
 2412SOL    HW2 9701  -0.013   1.637   4.336  0.8369 -0.6381  0.5335
 2412SOL    HW3 9702   0.041   1.723   4.225  0.8822  0.4821  1.4149
 2412SOL    MW4 9703   0.027   1.645   4.260  0.1576  0.0679  0.2384
 2413SOL     OW 9704   2.438   2.799   4.240 -0.0443 -0.0699  0.2576
 2413SOL    HW2 9705   2.526   2.767   4.259 -0.4874 -1.2687  0.3321
 2413SOL    HW3 9706   2.384   2.766   4.312 -0.2585  1.9931  1.0530
 2413SOL    MW4 9707   2.442   2.790   4.252 -0.1311  0.0443  0.3724
 2414SOL     OW 9708   0.647   3.654   4.532  0.4383 -1.0615  0.2275
 2414SOL    HW2 9709   0.655   3.654   4.437  0.3590  0.0718  0.2166
 2414SOL    HW3 9710   0.720   3.708   4.563 -0.4771 -0.0820  0.7128
 2414SOL    MW4 9711   0.658   3.661   4.524  0.3071 -0.7827  0.2899
 2415SOL     OW 9712   0.236   2.256   4.144  0.4210 -0.2704  0.0242
 2415SOL    HW2 9713   0.325   2.289   4.152  0.1409  0.5619 -0.2344
 2415SOL    HW3 9714   0.234   2.178   4.199  0.7452  0.8503  1.6465
 2415SOL    MW4 9715   0.247   2.250   4.152  0.4268 -0.0131  0.2041
 2416SOL     OW 9716   0.906   2.579   4.479  0.1011 -0.4128  0.2690
 2416SOL    HW2 9717   0.989   2.627   4.479  0.3201 -0.7792 -0.4004
 2416SOL    HW3 9718   0.908   2.529   4.397 -1.2230  0.3332 -0.2245
 2416SOL    MW4 9719   0.917   2.578   4.468 -0.0446 -0.3626  0.1159
 2417SOL     OW 9720   0.057   2.432   4.278 -0.1775  0.0360  0.2893
 2417SOL    HW2 9721   0.141   2.400   4.247 -0.1960  0.1094  0.1584
 2417SOL    HW3 9722  -0.006   2.367   4.247 -0.2340  0.2822 -0.1223
 2417SOL    MW4 9723   0.060   2.419   4.270 -0.1874  0.0782  0.2179
 2418SOL     OW 9724   1.030   1.046   4.561  0.2521 -0.0584 -0.1395
 2418SOL    HW2 9725   0.948   1.007   4.587  0.1736  0.4156  0.3332
 2418SOL    HW3 9726   1.088   0.972   4.544 -0.7382 -0.4261 -2.0167
 2418SOL    MW4 9727   1.027   1.031   4.562  0.1111 -0.0445 -0.3242
 2419SOL     OW 9728   0.207   3.118   4.152  0.6384  0.4887 -0.0312
 2419SOL    HW2 9729   0.139   3.167   4.198  0.1175  1.2161 -1.5247
 2419SOL    HW3 9730   0.289   3.159   4.178  0.3576  0.7875  0.3748
 2419SOL    MW4 9731   0.208   3.130   4.161  0.5326  0.6244 -0.1745
 2420SOL     OW 9732   0.003   3.234   4.306 -0.4185  0.2645 -0.0800
 2420SOL    HW2 9733   0.006   3.323   4.270  0.5404  0.0868 -0.4362
 2420SOL    HW3 9734  -0.069   3.192   4.258 -0.2423  0.5491 -0.6034
 2420SOL    MW4 9735  -0.006   3.240   4.295 -0.2689  0.2787 -0.1965
 2421SOL     OW 9736   4.483   3.483   4.199 -0.1113  0.1052 -0.5817
 2421SOL    HW2 9737   4.405   3.536   4.213  0.4542  1.1532 -1.3293
 2421SOL    HW3 9738   4.494   3.479   4.104  0.6045 -0.2387 -0.4932
 2421SOL    MW4 9739   4.474   3.489   4.188  0.0577  0.1984 -0.6680
 2422SOL     OW 9740   0.046   3.993   4.260 -0.5252  0.1660 -0.3648
 2422SOL    HW2 9741   0.100   3.918   4.236  0.9861  1.3593 -0.7579
 2422SOL    HW3 9742   0.073   4.015   4.349  0.1495  1.2100 -0.8245
 2422SOL    MW4 9743   0.057   3.986   4.268 -0.2368  0.4611 -0.4773
 2423SOL     OW 9744   0.009   1.451   4.597 -0.0543 -0.3576 -0.1629
 2423SOL    HW2 9745  -0.026   1.533   4.561 -0.3454 -0.1994  0.4839
 2423SOL    HW3 9746  -0.066   1.391   4.597  0.0530 -0.4941 -0.2243
 2423SOL    MW4 9747  -0.006   1.454   4.592 -0.0786 -0.3548 -0.0858
 2424SOL     OW 9748   3.097   4.047   4.532 -0.0290  0.5448 -0.3903
 2424SOL    HW2 9749   3.130   4.044   4.442  1.1919 -1.3911  0.0848
 2424SOL    HW3 9750   3.173   4.025   4.586 -1.0375  0.5102  1.0309
 2424SOL    MW4 9751   3.111   4.043   4.527 -0.0010  0.2847 -0.1407
 2425SOL     OW 9752   3.610   0.956   4.456  0.1045 -0.5413  0.0459
 2425SOL    HW2 9753   3.627   0.872   4.498 -0.2112 -2.0671 -2.7718
 2425SOL    HW3 9754   3.605   0.936   4.363 -2.0110  2.2863 -0.5202
 2425SOL    MW4 9755   3.612   0.942   4.450 -0.2165 -0.3695 -0.4010
 2426SOL     OW 9756   0.252   3.814   4.130  1.0961  0.1315 -0.1292
 2426SOL    HW2 9757   0.266   3.739   4.189 -0.6060 -0.5122 -0.5094
 2426SOL    HW3 9758   0.320   3.876   4.154  1.4271 -0.8005  1.4284
 2426SOL    MW4 9759   0.263   3.812   4.141  0.9152 -0.0763  0.0257
 2427SOL     OW 9760   4.377   3.999   4.664  0.3706  0.1092 -0.1853
 2427SOL    HW2 9761   4.395   3.982   4.756  1.0402  2.2062  0.0949
 2427SOL    HW3 9762   4.284   4.023   4.662 -0.0462 -1.4498 -0.2967
 2427SOL    MW4 9763   4.367   4.000   4.676  0.4044  0.1802 -0.1631
 2428SOL     OW 9764   0.675   0.015   4.173  0.0758  0.0059 -0.1532
 2428SOL    HW2 9765   0.663  -0.077   4.197 -0.9157 -0.0445 -0.8033
 2428SOL    HW3 9766   0.705   0.012   4.082 -2.2482  0.3855 -0.9544
 2428SOL    MW4 9767   0.677   0.002   4.164 -0.3617  0.0491 -0.3448
 2429SOL     OW 9768   1.154   0.514   4.257  0.2150 -0.2887  0.0730
 2429SOL    HW2 9769   1.149   0.537   4.349  0.6697  0.2162 -0.0236
 2429SOL    HW3 9770   1.071   0.470   4.238 -0.6048  1.1521  0.2954
 2429SOL    MW4 9771   1.142   0.511   4.266  0.1669 -0.0320  0.0896
 2430SOL     OW 9772   1.313   1.634   4.253  0.3751  0.0832  0.4718
 2430SOL    HW2 9773   1.310   1.599   4.342  1.0669 -0.2891  0.3471
 2430SOL    HW3 9774   1.242   1.588   4.208  0.4418 -0.2039  0.6564
 2430SOL    MW4 9775   1.303   1.623   4.259  0.4752 -0.0038  0.4792
 2431SOL     OW 9776   0.468   0.864   4.286  0.1417 -0.3872  0.4074
 2431SOL    HW2 9777   0.527   0.809   4.234 -0.4852 -1.0608  0.4086
 2431SOL    HW3 9778   0.459   0.944   4.234  0.0635 -0.7832 -0.1994
 2431SOL    MW4 9779   0.475   0.867   4.272  0.0487 -0.5283  0.3271
 2432SOL     OW 9780   1.201   3.745   4.745  0.0112 -0.3158 -0.1491
 2432SOL    HW2 9781   1.113   3.708   4.748  0.2964 -1.2445 -2.6718
 2432SOL    HW3 9782   1.258   3.671   4.726  1.1607  0.5859 -0.2871
 2432SOL    MW4 9783   1.197   3.731   4.743  0.2005 -0.3195 -0.5007
 2433SOL     OW 9784   2.872   4.499   4.544 -0.5142 -0.1232 -0.3400
 2433SOL    HW2 9785   2.882   4.410   4.579 -0.1657 -0.5659 -1.5340
 2433SOL    HW3 9786   2.955   4.542   4.564 -0.3886 -0.3125 -0.4542
 2433SOL    MW4 9787   2.884   4.493   4.551 -0.4516 -0.2065 -0.5126
 2434SOL     OW 9788   0.238   1.276   4.255 -0.0844  0.4795  0.3740
 2434SOL    HW2 9789   0.305   1.209   4.239 -0.3895 -0.1232  1.5918
 2434SOL    HW3 9790   0.155   1.231   4.243 -0.2922  0.7346  0.8555
 2434SOL    MW4 9791   0.236   1.261   4.251 -0.1521  0.4338  0.5984
 2435SOL     OW 9792   0.668   1.483   4.232 -0.1933 -0.0708  0.3385
 2435SOL    HW2 9793   0.586   1.528   4.253  0.3892  0.4753  1.4630
 2435SOL    HW3 9794   0.676   1.492   4.137 -0.6624  1.2294  0.4129
 2435SOL    MW4 9795   0.658   1.490   4.222 -0.1784  0.1727  0.4973
 2436SOL     OW 9796   0.251   1.521   4.125 -0.1399 -0.7580 -0.6460
 2436SOL    HW2 9797   0.260   1.433   4.162 -0.1598  0.2148  1.7461
 2436SOL    HW3 9798   0.177   1.560   4.171  1.3974  1.3824  0.1094
 2436SOL    MW4 9799   0.242   1.515   4.136  0.0603 -0.3471 -0.2308
 2437SOL     OW 9800   0.440   1.634   4.289  0.0999 -0.1302 -0.2541
 2437SOL    HW2 9801   0.367   1.595   4.241 -1.0592  0.8432  0.6926
 2437SOL    HW3 9802   0.450   1.721   4.251  0.4786 -0.0977 -0.0849
 2437SOL    MW4 9803   0.432   1.641   4.278 -0.0030  0.0025 -0.1068
 2438SOL     OW 9804   0.899   1.621   4.278  0.1263 -0.2417 -0.0783
 2438SOL    HW2 9805   0.818   1.577   4.251 -0.7087  1.0312  0.3090
 2438SOL    HW3 9806   0.900   1.614   4.374 -1.0898  2.3503  0.1775
 2438SOL    MW4 9807   0.888   1.614   4.287 -0.1443  0.2683  0.0062
 2439SOL     OW 9808   0.692   2.330   4.149  0.0747 -0.6823 -0.2759
 2439SOL    HW2 9809   0.677   2.239   4.173  0.5724 -0.9421 -0.9185
 2439SOL    HW3 9810   0.704   2.328   4.054  2.1349 -0.2426 -0.0607
 2439SOL    MW4 9811   0.692   2.318   4.140  0.4122 -0.6585 -0.3324
 2440SOL     OW 9812   0.443   2.440   4.234  0.4381 -0.3299  0.0274
 2440SOL    HW2 9813   0.434   2.531   4.208 -0.6889  0.2523  2.3167
 2440SOL    HW3 9814   0.528   2.412   4.199  1.1359  1.8187 -0.0243
 2440SOL    MW4 9815   0.453   2.448   4.226  0.3815  0.0303  0.3233
 2441SOL     OW 9816   0.450   2.706   4.146  0.4088 -0.0390  0.0988
 2441SOL    HW2 9817   0.450   2.719   4.051  1.6175 -0.6012  0.0063
 2441SOL    HW3 9818   0.530   2.749   4.176  1.2009 -1.7729  0.5643
 2441SOL    MW4 9819   0.460   2.713   4.137  0.6728 -0.3419  0.1483
 2442SOL     OW 9820   0.693   2.802   4.270 -0.2015 -0.0525 -0.0088
 2442SOL    HW2 9821   0.775   2.774   4.228 -0.3946 -0.8939  0.1716
 2442SOL    HW3 9822   0.715   2.807   4.363 -0.0948  0.6862 -0.0639
 2442SOL    MW4 9823   0.707   2.799   4.277 -0.2130 -0.0660  0.0081
 2443SOL     OW 9824   1.803   3.320   4.752  0.7022 -0.1835  0.0698
 2443SOL    HW2 9825   1.871   3.267   4.793 -0.5651 -0.4065  1.9477
 2443SOL    HW3 9826   1.836   3.338   4.664  4.0252  1.3264  1.5659
 2443SOL    MW4 9827   1.816   3.315   4.745  0.9735 -0.0141  0.5155
 2444SOL     OW 9828   1.606   2.822   4.547  0.2457 -0.1666 -0.0148
 2444SOL    HW2 9829   1.597   2.830   4.452  0.2918 -0.6269 -0.0552
 2444SOL    HW3 9830   1.554   2.895   4.581  1.0799  0.6320 -0.4240
 2444SOL    MW4 9831   1.598   2.833   4.539  0.3619 -0.1218 -0.0744
 2445SOL     OW 9832   0.429   3.424   4.166 -0.5164 -0.0794  0.4575
 2445SOL    HW2 9833   0.346   3.459   4.197 -1.5868 -0.8029 -1.5424
 2445SOL    HW3 9834   0.437   3.457   4.077  2.6574  2.2395  1.4925
 2445SOL    MW4 9835   0.419   3.433   4.158 -0.2389  0.1311  0.3304
 2446SOL     OW 9836   0.420   4.026   4.247 -0.0879  0.2396 -0.3216
 2446SOL    HW2 9837   0.392   4.104   4.199 -0.6035 -0.3342 -0.9510
 2446SOL    HW3 9838   0.400   4.046   4.338 -1.2802  0.3740 -0.6105
 2446SOL    MW4 9839   0.414   4.039   4.253 -0.3132  0.1817 -0.4425
 2447SOL     OW 9840   0.879   3.232   4.213 -0.0226 -0.6479 -0.1437
 2447SOL    HW2 9841   0.968   3.202   4.195  0.4090  0.5806 -0.1049
 2447SOL    HW3 9842   0.866   3.214   4.307  0.2607 -0.6409 -0.1038
 2447SOL    MW4 9843   0.889   3.226   4.223  0.0717 -0.4849 -0.1330
 2448SOL     OW 9844   2.510   2.144   4.934  0.4815  0.4700  0.0776
 2448SOL    HW2 9845   2.598   2.146   4.898  0.6911 -0.1137  0.5494
 2448SOL    HW3 9846   2.483   2.236   4.936  0.9712  0.6240 -0.3211
 2448SOL    MW4 9847   2.518   2.156   4.930  0.5739  0.4132  0.0873
 2449SOL     OW 9848   0.519   0.138   4.697  0.0006  0.2312  0.2434
 2449SOL    HW2 9849   0.503   0.050   4.662  0.1154  0.3882 -0.2146
 2449SOL    HW3 9850   0.614   0.143   4.704  0.0262  0.5270 -0.2848
 2449SOL    MW4 9851   0.530   0.127   4.693  0.0191  0.2909  0.1135
 2450SOL     OW 9852   0.629   4.405   4.237  0.1731 -0.0069 -0.3351
 2450SOL    HW2 9853   0.558   4.360   4.191 -0.5371  1.0349 -0.2828
 2450SOL    HW3 9854   0.607   4.396   4.330  0.1563  0.2125 -0.3155
 2450SOL    MW4 9855   0.616   4.398   4.243  0.0771  0.1593 -0.3262
 2451SOL     OW 9856   1.098   4.660   4.151  0.2560 -0.1378  0.2183
 2451SOL    HW2 9857   1.127   4.657   4.059 -0.6202 -0.2686 -0.0557
 2451SOL    HW3 9858   1.175   4.689   4.199  0.8334 -0.4292 -0.5179
 2451SOL    MW4 9859   1.112   4.664   4.145  0.2166 -0.1936  0.0849
 2452SOL     OW 9860   0.928   0.102   4.323  0.2190 -0.2527 -0.2297
 2452SOL    HW2 9861   0.837   0.088   4.296  0.0297  0.7092 -0.1322
 2452SOL    HW3 9862   0.980   0.058   4.256 -0.3203 -0.7988 -0.2945
 2452SOL    MW4 9863   0.923   0.094   4.311  0.1228 -0.1978 -0.2255
 2453SOL     OW 9864   0.919   0.353   4.167  0.3555 -0.5741 -0.4059
 2453SOL    HW2 9865   0.830   0.374   4.196  0.2039 -0.2906 -1.0703
 2453SOL    HW3 9866   0.946   0.281   4.224 -0.3040 -0.6733 -0.2137
 2453SOL    MW4 9867   0.911   0.347   4.178  0.2484 -0.5498 -0.4683
 2454SOL     OW 9868   0.819   4.225   4.655 -0.6002  0.2355 -0.0200
 2454SOL    HW2 9869   0.752   4.258   4.596 -0.8601 -0.4754 -0.1255
 2454SOL    HW3 9870   0.770   4.191   4.730 -0.3038  0.6267  0.3571
 2454SOL    MW4 9871   0.804   4.225   4.657 -0.5955  0.1931  0.0162
 2455SOL     OW 9872   4.462   0.608   4.661  0.3698  0.2425 -0.7014
 2455SOL    HW2 9873   4.464   0.704   4.657  0.4245  0.2680 -0.0641
 2455SOL    HW3 9874   4.554   0.582   4.667  0.4256  0.0942 -2.0152
 2455SOL    MW4 9875   4.474   0.617   4.661  0.3839  0.2263 -0.7911
 2456SOL     OW 9876   0.224   1.050   4.593  0.1396  0.0433 -0.5241
 2456SOL    HW2 9877   0.225   1.145   4.592 -0.4968  0.0882  1.5415
 2456SOL    HW3 9878   0.312   1.025   4.622 -0.3245  0.0451  0.8854
 2456SOL    MW4 9879   0.236   1.059   4.597 -0.0056  0.0494 -0.0653
 2457SOL     OW 9880   0.904   1.117   4.193 -0.2678 -0.3504 -0.2350
 2457SOL    HW2 9881   0.891   1.022   4.191 -0.0649 -0.3881  0.1046
 2457SOL    HW3 9882   0.831   1.149   4.246 -0.2542 -0.3332 -0.2270
 2457SOL    MW4 9883   0.892   1.108   4.200 -0.2392 -0.3531 -0.1893
 2458SOL     OW 9884   1.141   1.230   4.297  0.0936 -0.1617 -0.0292
 2458SOL    HW2 9885   1.134   1.246   4.391  0.6894 -0.5606  0.0897
 2458SOL    HW3 9886   1.058   1.189   4.274 -0.2031  0.2723  0.2517
 2458SOL    MW4 9887   1.129   1.226   4.307  0.1332 -0.1570  0.0238
 2459SOL     OW 9888   1.111   1.472   4.163  0.8230  0.1660 -0.1794
 2459SOL    HW2 9889   1.035   1.523   4.192  0.0713  0.1454 -2.0620
 2459SOL    HW3 9890   1.114   1.398   4.224 -0.7654  0.0874 -0.1724
 2459SOL    MW4 9891   1.101   1.469   4.175  0.5141  0.1529 -0.4272
 2460SOL     OW 9892   0.854   1.913   4.213 -0.1766  0.1554 -0.4615
 2460SOL    HW2 9893   0.867   1.904   4.119 -3.2675 -0.3939 -0.8785
 2460SOL    HW3 9894   0.858   1.823   4.246 -0.7193  0.1847 -0.3130
 2460SOL    MW4 9895   0.856   1.900   4.205 -0.6561  0.0868 -0.4969
 2461SOL     OW 9896   0.639   2.073   4.264 -0.0191 -0.0751 -0.5560
 2461SOL    HW2 9897   0.711   2.012   4.246  1.4277  1.5561 -0.5459
 2461SOL    HW3 9898   0.647   2.094   4.357  0.1029  0.8502 -0.7674
 2461SOL    MW4 9899   0.650   2.068   4.274  0.1880  0.2620 -0.5827
 2462SOL     OW 9900   1.561   2.273   4.210 -0.4453 -0.3956 -0.0594
 2462SOL    HW2 9901   1.553   2.186   4.250 -0.0947 -0.2110  0.4187
 2462SOL    HW3 9902   1.566   2.256   4.116  0.7804 -0.9667  0.1088
 2462SOL    MW4 9903   1.560   2.259   4.203 -0.2372 -0.4468  0.0262
 2463SOL     OW 9904   1.539   2.136   4.702  0.4081  0.0288 -0.4567
 2463SOL    HW2 9905   1.466   2.189   4.733  0.0733 -1.0510  0.6817
 2463SOL    HW3 9906   1.617   2.182   4.732  0.1401  0.2381 -0.0826
 2463SOL    MW4 9907   1.540   2.149   4.710  0.3284 -0.0858 -0.2570
 2464SOL     OW 9908   2.989   1.719   4.833  0.4614 -0.5108  0.2740
 2464SOL    HW2 9909   2.914   1.735   4.775  1.7837 -1.1099 -1.6787
 2464SOL    HW3 9910   2.976   1.630   4.866  0.7141 -0.9265 -0.7202
 2464SOL    MW4 9911   2.978   1.709   4.829  0.6692 -0.6447 -0.1149
 2465SOL     OW 9912   0.931   2.733   4.144  0.1027  0.6799  0.1940
 2465SOL    HW2 9913   0.931   2.646   4.184  0.2363  0.4313 -0.3402
 2465SOL    HW3 9914   1.008   2.777   4.181  0.8341  0.0747 -0.5939
 2465SOL    MW4 9915   0.941   2.728   4.154  0.2168  0.5672  0.0200
 2466SOL     OW 9916   1.153   2.818   4.270  0.2394  0.0029 -0.1079
 2466SOL    HW2 9917   1.127   2.910   4.263 -1.2990 -0.5167 -1.5160
 2466SOL    HW3 9918   1.120   2.791   4.356  1.6619  1.0334  0.7972
 2466SOL    MW4 9919   1.145   2.827   4.281  0.2241  0.0706 -0.1745
 2467SOL     OW 9920   1.109   3.073   4.179 -0.3657  0.4715 -0.0936
 2467SOL    HW2 9921   1.187   3.117   4.213 -0.2772  0.4901 -0.3198
 2467SOL    HW3 9922   1.110   3.091   4.085 -0.4211  0.1303 -0.1627
 2467SOL    MW4 9923   1.119   3.081   4.171 -0.3613  0.4289 -0.1321
 2468SOL     OW 9924   0.655   3.048   4.166  0.0647 -0.4243 -0.4455
 2468SOL    HW2 9925   0.733   3.102   4.179 -0.6328  0.9475 -1.6785
 2468SOL    HW3 9926   0.672   2.968   4.214  1.4898  0.5764  0.7494
 2468SOL    MW4 9927   0.668   3.045   4.174  0.1608 -0.1113 -0.4506
 2469SOL     OW 9928   0.857   3.495   4.158  0.0784  0.1436 -0.0171
 2469SOL    HW2 9929   0.860   3.404   4.187 -2.2362  0.0533  0.0362
 2469SOL    HW3 9930   0.871   3.490   4.063  3.0220  0.0434  0.3696
 2469SOL    MW4 9931   0.859   3.482   4.149  0.1613  0.1183  0.0410
 2470SOL     OW 9932   1.064   3.611   4.305 -0.0017 -0.1982  0.5923
 2470SOL    HW2 9933   0.993   3.578   4.249  0.5433 -0.4793  0.0527
 2470SOL    HW3 9934   1.051   3.567   4.389  0.3592 -1.3360  0.0601
 2470SOL    MW4 9935   1.053   3.601   4.309  0.1178 -0.3853  0.4511
 2471SOL     OW 9936   1.133   3.860   4.223  0.3202  0.5784  0.0917
 2471SOL    HW2 9937   1.043   3.894   4.218  0.6202  1.5152  0.8573
 2471SOL    HW3 9938   1.122   3.768   4.245 -0.4853  0.4143 -0.9300
 2471SOL    MW4 9939   1.119   3.853   4.225  0.2534  0.6804  0.0577
 2472SOL     OW 9940   1.705   4.004   4.560 -0.2582 -0.4013 -0.1544
 2472SOL    HW2 9941   1.611   4.018   4.575 -0.0338  0.3763  0.5794
 2472SOL    HW3 9942   1.748   4.073   4.610  0.7473 -1.3416  0.3080
 2472SOL    MW4 9943   1.698   4.015   4.569 -0.0960 -0.4230  0.0033
 2473SOL     OW 9944   1.071   4.399   4.302 -0.6527 -0.0495  0.4846
 2473SOL    HW2 9945   1.150   4.347   4.288 -0.5167 -0.0067  1.0847
 2473SOL    HW3 9946   1.081   4.474   4.244  0.7673  1.0637  2.1195
 2473SOL    MW4 9947   1.083   4.402   4.293 -0.4473  0.1035  0.7796
 2474SOL     OW 9948   0.866   4.296   4.155  0.3799 -0.0404 -0.0230
 2474SOL    HW2 9949   0.787   4.341   4.185 -0.0167  0.5636 -1.9094
 2474SOL    HW3 9950   0.937   4.337   4.204 -0.2108  1.0829 -0.0958
 2474SOL    MW4 9951   0.865   4.307   4.166  0.2496  0.1874 -0.2813
 2475SOL     OW 9952   3.150   2.269   4.903 -0.4170 -0.0091 -0.1558
 2475SOL    HW2 9953   3.058   2.284   4.879 -0.9320 -1.2045  0.9587
 2475SOL    HW3 9954   3.148   2.186   4.951  1.2834 -0.1284 -0.2722
 2475SOL    MW4 9955   3.137   2.260   4.906 -0.2606 -0.1826 -0.0238
 2476SOL     OW 9956   1.101   2.064   4.250 -0.4733  0.2618  0.0671
 2476SOL    HW2 9957   1.019   2.015   4.243  0.4023 -1.1810 -0.1264
 2476SOL    HW3 9958   1.125   2.057   4.343 -0.3806  0.4039  0.0543
 2476SOL    MW4 9959   1.093   2.057   4.262 -0.3455  0.0904  0.0401
 2477SOL     OW 9960   1.991   4.354   4.546  0.3743 -0.1544  0.2484
 2477SOL    HW2 9961   2.081   4.334   4.572  1.3407  1.9449 -1.3738
 2477SOL    HW3 9962   1.993   4.354   4.450 -1.5688 -0.9774  0.1847
 2477SOL    MW4 9963   2.003   4.351   4.537  0.2456  0.0138  0.0262
 2478SOL     OW 9964   4.099   1.462   4.723  0.2244  0.2721  0.3694
 2478SOL    HW2 9965   4.166   1.410   4.679  0.4254 -0.2726  1.3156
 2478SOL    HW3 9966   4.131   1.472   4.813 -0.9357  0.0548  0.8103
 2478SOL    MW4 9967   4.112   1.457   4.729  0.0982  0.1715  0.5522
 2479SOL     OW 9968   1.558   0.751   3.913 -0.0065  0.1366  0.1434
 2479SOL    HW2 9969   1.641   0.792   3.888  0.5320 -1.0558 -0.0303
 2479SOL    HW3 9970   1.491   0.803   3.869  0.6955  0.6367 -0.3276
 2479SOL    MW4 9971   1.560   0.763   3.904  0.1571  0.0452  0.0587
 2480SOL     OW 9972   1.047   4.398   4.582  0.2645  0.6086  0.5180
 2480SOL    HW2 9973   1.041   4.408   4.487  0.5468  0.4604  0.4838
 2480SOL    HW3 9974   0.979   4.334   4.604  1.0272 -0.3204  0.2547
 2480SOL    MW4 9975   1.037   4.391   4.573  0.4023  0.4668  0.4787
 2481SOL     OW 9976   1.568   0.708   4.189  0.2392 -0.2206  0.1564
 2481SOL    HW2 9977   1.623   0.779   4.222  0.1298  0.4149 -0.9941
 2481SOL    HW3 9978   1.571   0.718   4.093 -0.3137 -1.3602  0.0152
 2481SOL    MW4 9979   1.576   0.719   4.180  0.1518 -0.2872 -0.0143
 2482SOL     OW 9980   1.588   1.305   4.267  0.0389  0.4909 -0.0986
 2482SOL    HW2 9981   1.577   1.335   4.358 -2.5294  1.9017 -0.8351
 2482SOL    HW3 9982   1.523   1.236   4.257  0.1187  0.5459 -0.9594
 2482SOL    MW4 9983   1.578   1.300   4.278 -0.2894  0.6841 -0.3090
 2483SOL     OW 9984   4.306   0.382   4.530  0.2743  0.0243  0.3167
 2483SOL    HW2 9985   4.346   0.456   4.577 -0.5813  0.6928  0.0209
 2483SOL    HW3 9986   4.302   0.411   4.439 -1.9472  0.4784  0.5236
 2483SOL    MW4 9987   4.310   0.396   4.525 -0.1321  0.1724  0.3057
 2484SOL     OW 9988   1.762   1.667   4.308  0.1535  0.4060  0.2718
 2484SOL    HW2 9989   1.744   1.650   4.401 -0.6998 -0.4150 -0.0456
 2484SOL    HW3 9990   1.689   1.626   4.261  1.4729 -0.6944 -0.8657
 2484SOL    MW4 9991   1.750   1.659   4.314  0.2151  0.1527  0.0806
 2485SOL     OW 9992   1.288   1.894   4.172 -0.5069  0.1485  0.5162
 2485SOL    HW2 9993   1.210   1.942   4.199 -0.2293  0.3384  0.9746
 2485SOL    HW3 9994   1.274   1.806   4.207  0.8570  0.9657  3.1566
 2485SOL    MW4 9995   1.276   1.888   4.180 -0.2905  0.2813  0.9255
 2486SOL     OW 9996   0.992   4.018   4.523  0.6201 -0.0693 -0.5609
 2486SOL    HW2 9997   0.949   4.080   4.581 -0.1955 -2.3941  1.4045
 2486SOL    HW3 9998   0.955   4.036   4.437 -0.5099  1.3241  0.1963
 2486SOL    MW4 9999   0.981   4.028   4.519  0.3634 -0.1922 -0.2017
 2487SOL     OW10000   1.797   2.425   4.274 -0.6871 -0.2086  0.0437
 2487SOL    HW210001   1.723   2.365   4.264 -0.3904 -0.8174  1.3189
 2487SOL    HW310002   1.823   2.415   4.366  0.5185  0.5321 -0.2094
 2487SOL    MW410003   1.791   2.416   4.285 -0.4889 -0.1912  0.1783
 2488SOL     OW10004   1.378   2.475   4.285 -0.2758 -0.3966  0.1267
 2488SOL    HW210005   1.439   2.415   4.242  0.1175 -0.1277  0.2996
 2488SOL    HW310006   1.397   2.560   4.245 -0.7609 -0.3724 -0.0460
 2488SOL    MW410007   1.389   2.479   4.274 -0.2879 -0.3581  0.1264
 2489SOL     OW10008   1.379   2.723   4.145  0.0530 -0.2094 -0.0230
 2489SOL    HW210009   1.453   2.778   4.170 -0.6179  0.8832 -0.4169
 2489SOL    HW310010   1.303   2.766   4.183 -0.7583  0.4393 -2.2689
 2489SOL    MW410011   1.379   2.736   4.153 -0.1426  0.0205 -0.3710
 2490SOL     OW10012   1.771   2.694   4.163  0.2371 -0.2767  0.2396
 2490SOL    HW210013   1.858   2.723   4.190  0.2666  0.0335 -0.1750
 2490SOL    HW310014   1.759   2.608   4.204  0.4907 -0.0450  0.7957
 2490SOL    MW410015   1.781   2.686   4.172  0.2745 -0.2053  0.2584
 2491SOL     OW10016   1.583   3.131   4.170 -0.1117 -0.4495  0.2141
 2491SOL    HW210017   1.654   3.152   4.231 -0.5665 -0.0295  0.5947
 2491SOL    HW310018   1.505   3.169   4.209 -0.1340  1.3212 -1.4572
 2491SOL    MW410019   1.582   3.139   4.183 -0.1748 -0.1605  0.0443
 2492SOL     OW10020   1.342   3.222   4.267  0.7011 -0.2280  0.5069
 2492SOL    HW210021   1.347   3.317   4.267 -1.7639 -0.0390 -0.2782
 2492SOL    HW310022   1.319   3.199   4.357 -1.5312  0.1825  0.0899
 2492SOL    MW410023   1.339   3.231   4.279  0.0813 -0.1490  0.3486
 2493SOL     OW10024   1.587   3.852   4.130 -0.2387 -0.1390 -0.2034
 2493SOL    HW210025   1.514   3.905   4.163  0.3069  0.4272  0.0952
 2493SOL    HW310026   1.565   3.762   4.157 -1.1989 -0.0846 -0.7782
 2493SOL    MW410027   1.574   3.847   4.138 -0.2933 -0.0575 -0.2394
 2494SOL     OW10028   1.437   3.923   4.528  0.3264  0.0162 -0.4981
 2494SOL    HW210029   1.373   3.970   4.581 -1.9086 -2.2359 -1.1291
 2494SOL    HW310030   1.423   3.954   4.439  1.6898  1.1941 -0.3206
 2494SOL    MW410031   1.427   3.933   4.523  0.2115 -0.1256 -0.5579
 2495SOL     OW10032   1.383   3.985   4.270 -0.1491  0.1185  0.2306
 2495SOL    HW210033   1.358   4.077   4.263  0.3610  0.3669  1.5351
 2495SOL    HW310034   1.301   3.937   4.267 -0.5651  0.7440  1.5823
 2495SOL    MW410035   1.369   3.991   4.269 -0.1367  0.2339  0.5808
 2496SOL     OW10036   0.895   3.766   4.580  0.0664 -0.1327 -0.4426
 2496SOL    HW210037   0.919   3.857   4.564  0.9988 -0.2360  0.3123
 2496SOL    HW310038   0.965   3.714   4.540  1.0704 -0.4371  1.6172
 2496SOL    MW410039   0.907   3.771   4.573  0.3219 -0.1864 -0.0710
 2497SOL     OW10040   1.317   4.265   4.234 -0.0870 -0.1188  0.4201
 2497SOL    HW210041   1.306   4.265   4.139 -2.5923  0.5055  0.6754
 2497SOL    HW310042   1.407   4.294   4.248  0.8131 -1.7751 -1.7999
 2497SOL    MW410043   1.327   4.269   4.224 -0.2987 -0.2542  0.1612
 2498SOL     OW10044   1.531   4.596   4.199  0.0783 -0.3976 -0.5104
 2498SOL    HW210045   1.610   4.631   4.241 -0.9489  1.0781  0.2281
 2498SOL    HW310046   1.538   4.501   4.211  0.1710 -0.0649  2.3733
 2498SOL    MW410047   1.542   4.588   4.206 -0.0449 -0.1588 -0.0329
 2499SOL     OW10048   1.996   4.613   4.183 -0.2439 -0.0757 -0.1627
 2499SOL    HW210049   1.975   4.641   4.094  1.0568 -0.4740 -0.5998
 2499SOL    HW310050   1.926   4.651   4.237 -1.7712 -0.9529 -1.5081
 2499SOL    MW410051   1.984   4.622   4.179 -0.2739 -0.2441 -0.3977
 2500SOL     OW10052   2.444   3.626   4.494 -0.5402 -0.8637  0.2062
 2500SOL    HW210053   2.368   3.648   4.547  0.5849 -0.6896  1.8168
 2500SOL    HW310054   2.497   3.706   4.493 -0.7973 -0.7083 -1.6375
 2500SOL    MW410055   2.441   3.639   4.501 -0.4258 -0.8202  0.1760
 2501SOL     OW10056   1.551   4.404   4.556  0.1675 -0.2689  0.2931
 2501SOL    HW210057   1.468   4.361   4.574  0.5177 -1.3827 -0.6781
 2501SOL    HW310058   1.615   4.355   4.609  0.2478  0.4158  0.8328
 2501SOL    MW410059   1.549   4.392   4.565  0.2242 -0.3252  0.2360
 2502SOL     OW10060   1.767   0.307   4.188 -0.3874  0.5289  0.4060
 2502SOL    HW210061   1.840   0.361   4.217 -1.0184  0.9684  1.2053
 2502SOL    HW310062   1.690   0.347   4.229 -1.0469 -0.0723 -0.2272
 2502SOL    MW410063   1.766   0.320   4.197 -0.5577  0.5075  0.4277
 2503SOL     OW10064   1.990   0.707   4.200 -0.6601 -0.0062  0.4808
 2503SOL    HW210065   2.070   0.738   4.244 -0.6630  0.6337  0.0374
 2503SOL    HW310066   1.981   0.616   4.229 -0.3487  0.2338  1.3668
 2503SOL    MW410067   1.999   0.699   4.210 -0.6193  0.1099  0.5393
 2504SOL     OW10068   1.778   0.891   4.265  0.1798 -0.2957  0.5969
 2504SOL    HW210069   1.855   0.836   4.247  0.8171  0.9880 -0.7794
 2504SOL    HW310070   1.775   0.898   4.360  0.6353 -1.9314  0.7443
 2504SOL    MW410071   1.788   0.885   4.275  0.3240 -0.3421  0.4349
 2505SOL     OW10072   1.776   1.141   4.126 -0.0722 -0.4677  0.4045
 2505SOL    HW210073   1.720   1.193   4.183  0.4384  0.2563  0.2510
 2505SOL    HW310074   1.783   1.056   4.169 -1.5103 -0.6509  0.2795
 2505SOL    MW410075   1.770   1.136   4.139 -0.1945 -0.3964  0.3681
 2506SOL     OW10076   0.804   3.210   4.468  0.2199 -0.0842  0.4352
 2506SOL    HW210077   0.715   3.190   4.499 -0.1505  0.4529 -0.2801
 2506SOL    HW310078   0.828   3.290   4.514 -0.2631  0.6165 -0.5031
 2506SOL    MW410079   0.795   3.218   4.478  0.1073  0.0792  0.2170
 2507SOL     OW10080   1.988   1.527   4.235 -0.2086 -0.1628 -0.1747
 2507SOL    HW210081   1.913   1.581   4.257 -0.9005 -1.1483 -0.0834
 2507SOL    HW310082   1.989   1.524   4.140  0.7049  1.2051 -0.2266
 2507SOL    MW410083   1.978   1.534   4.226 -0.1793 -0.1122 -0.1688
 2508SOL     OW10084   3.277   3.719   4.647  0.0212 -0.1305 -0.4626
 2508SOL    HW210085   3.192   3.710   4.603  0.0352  0.3052 -0.5734
 2508SOL    HW310086   3.328   3.645   4.613 -0.4111 -0.5611 -0.1734
 2508SOL    MW410087   3.273   3.708   4.636 -0.0339 -0.1299 -0.4392
 2509SOL     OW10088   2.349   1.703   4.924 -0.1000 -0.3867 -0.2242
 2509SOL    HW210089   2.435   1.743   4.938 -0.5610 -0.1623  2.1649
 2509SOL    HW310090   2.359   1.612   4.953 -0.8741 -0.1217  0.9488
 2509SOL    MW410091   2.362   1.697   4.930 -0.2627 -0.3222  0.2456
 2510SOL     OW10092   0.398   2.046   4.553 -0.2081 -0.1500 -0.1978
 2510SOL    HW210093   0.493   2.057   4.557 -0.4828  1.8740  1.6832
 2510SOL    HW310094   0.379   1.975   4.614  0.0066  0.0844  0.1417
 2510SOL    MW410095   0.408   2.039   4.561 -0.2161  0.1481  0.0949
 2511SOL     OW10096   3.009   1.234   4.492  0.0065  0.5592 -0.0496
 2511SOL    HW210097   3.072   1.303   4.510  0.1021  0.4959 -0.1419
 2511SOL    HW310098   2.974   1.256   4.405  1.3076 -0.4669 -0.8570
 2511SOL    MW410099   3.012   1.246   4.483  0.1907  0.4154 -0.1683
 2512SOL     OW10100   2.701   0.380   4.177 -0.1303  0.3597  0.0287
 2512SOL    HW210101   2.625   0.430   4.205  0.3264 -0.2396  2.4673
 2512SOL    HW310102   2.704   0.391   4.081 -1.7142  2.5353  0.2047
 2512SOL    MW410103   2.692   0.388   4.168 -0.2787  0.5676  0.3734
 2513SOL     OW10104   1.588   2.861   4.264 -0.0897 -0.1258 -0.0153
 2513SOL    HW210105   1.590   2.942   4.213  0.3090 -0.4616 -0.5500
 2513SOL    HW310106   1.654   2.805   4.222 -0.4612 -0.7771  0.2615
 2513SOL    MW410107   1.597   2.864   4.252 -0.0861 -0.2563 -0.0491
 2514SOL     OW10108   2.422   2.051   4.261 -0.1738 -0.2772 -0.0042
 2514SOL    HW210109   2.444   2.141   4.236  0.2858 -0.4088 -0.0866
 2514SOL    HW310110   2.384   2.059   4.349  0.1749 -0.0359  0.1284
 2514SOL    MW410111   2.420   2.064   4.269 -0.0670 -0.2625  0.0024
 2515SOL     OW10112   2.021   3.060   4.159 -0.0052 -0.0209 -0.1017
 2515SOL    HW210113   2.107   3.102   4.169 -0.1043  0.0382  0.4952
 2515SOL    HW310114   1.992   3.087   4.072  1.3633 -1.4790 -1.0365
 2515SOL    MW410115   2.029   3.069   4.149  0.1624 -0.2053 -0.1464
 2516SOL     OW10116   1.813   3.210   4.307  0.1186  0.3356  0.0574
 2516SOL    HW210117   1.795   3.281   4.244 -0.0571 -0.3400 -0.6622
 2516SOL    HW310118   1.873   3.152   4.261 -0.1707 -0.2703  0.4433
 2516SOL    MW410119   1.818   3.212   4.292  0.0573  0.1664  0.0134
 2517SOL     OW10120   1.803   3.449   4.174 -0.2627  0.4536 -0.1065
 2517SOL    HW210121   1.879   3.500   4.203  0.7184 -0.5250 -0.9211
 2517SOL    HW310122   1.797   3.466   4.080  0.3253 -1.2454 -0.4665
 2517SOL    MW410123   1.812   3.458   4.166 -0.0557  0.1004 -0.2613
 2518SOL     OW10124   1.389   1.136   4.209 -0.4889 -0.0587 -0.0906
 2518SOL    HW210125   1.314   1.189   4.238 -1.3183 -1.1416 -0.2284
 2518SOL    HW310126   1.382   1.138   4.113 -2.5769 -3.2516 -0.0824
 2518SOL    MW410127   1.378   1.143   4.200 -0.8738 -0.6227 -0.1073
 2519SOL     OW10128   2.034   3.575   4.248  0.1451 -0.2997  0.1677
 2519SOL    HW210129   2.044   3.666   4.221  0.3411 -0.6892 -1.1376
 2519SOL    HW310130   2.040   3.577   4.343 -2.1339  1.3126  0.2919
 2519SOL    MW410131   2.036   3.587   4.257 -0.1299 -0.1385  0.0114
 2520SOL     OW10132   1.779   3.998   4.287 -0.3533 -0.0665 -0.2854
 2520SOL    HW210133   1.759   3.989   4.380  0.0056 -1.8419 -0.3546
 2520SOL    HW310134   1.711   3.948   4.242 -0.3727  0.5553 -0.9611
 2520SOL    MW410135   1.767   3.990   4.293 -0.3085 -0.2186 -0.3839
 2521SOL     OW10136   1.797   4.252   4.170  0.4210  0.4474  0.0128
 2521SOL    HW210137   1.780   4.160   4.191 -1.7139  0.7672 -0.1837
 2521SOL    HW310138   1.779   4.259   4.077 -1.4919  1.4930  0.4405
 2521SOL    MW410139   1.792   4.240   4.161 -0.1130  0.6280  0.0439
 2522SOL     OW10140   2.542   4.281   4.682  0.2928 -0.6000 -0.3124
 2522SOL    HW210141   2.541   4.369   4.646 -0.7743 -0.3853  0.2163
 2522SOL    HW310142   2.455   4.245   4.660  0.5780 -1.3794 -0.2004
 2522SOL    MW410143   2.530   4.288   4.674  0.1898 -0.6742 -0.2284
 2523SOL     OW10144   0.754   0.832   4.538  0.1236 -0.5986  0.4413
 2523SOL    HW210145   0.778   0.829   4.445  0.5533 -0.4041  0.5495
 2523SOL    HW310146   0.666   0.870   4.538  0.0815 -0.6934  0.1041
 2523SOL    MW410147   0.745   0.837   4.526  0.1748 -0.5854  0.4115
 2524SOL     OW10148   1.230   4.015   4.679  0.1608  0.0676  0.6979
 2524SOL    HW210149   1.169   4.014   4.606  0.4757 -1.1251  0.4249
 2524SOL    HW310150   1.226   3.926   4.714  0.0861  0.6041  2.0735
 2524SOL    MW410151   1.222   4.003   4.674  0.1924 -0.0196  0.8430
 2525SOL     OW10152   2.254   0.375   4.156 -0.3309  0.2607  0.1194
 2525SOL    HW210153   2.270   0.284   4.182 -0.0669  0.1775 -0.3362
 2525SOL    HW310154   2.243   0.371   4.061 -0.7252  0.6488  0.1457
 2525SOL    MW410155   2.255   0.362   4.147 -0.3479  0.3009  0.0625
 2526SOL     OW10156   2.208   0.824   4.320 -0.2065  0.2941 -0.0807
 2526SOL    HW210157   2.211   0.834   4.415 -0.6488  3.2658 -0.3384
 2526SOL    HW310158   2.227   0.911   4.285  2.0049 -1.1915 -2.7778
 2526SOL    MW410159   2.211   0.837   4.328  0.0272  0.4902 -0.4711
 2527SOL     OW10160   2.461   0.776   4.188 -0.0126 -0.2541  0.4538
 2527SOL    HW210161   2.446   0.762   4.095 -0.1607 -0.0552  0.4473
 2527SOL    HW310162   2.373   0.785   4.225  0.0192 -0.8987  0.7013
 2527SOL    MW410163   2.447   0.775   4.181 -0.0281 -0.3129  0.4854
 2528SOL     OW10164   2.934   0.538   4.268  0.1221  0.2109  0.1347
 2528SOL    HW210165   2.860   0.488   4.233  1.3347 -0.8508 -1.0013
 2528SOL    HW310166   2.923   0.626   4.232 -0.2465 -0.1011 -0.5295
 2528SOL    MW410167   2.923   0.543   4.258  0.2334  0.0297 -0.1030
 2529SOL     OW10168   2.056   1.182   4.598 -0.4997  0.3356 -0.2173
 2529SOL    HW210169   2.123   1.239   4.637 -0.8547  0.8916 -0.4210
 2529SOL    HW310170   2.061   1.200   4.504  0.0480 -0.6797 -0.3941
 2529SOL    MW410171   2.065   1.192   4.591 -0.4745  0.2749 -0.2675
 2530SOL     OW10172   2.237   1.094   4.219 -0.2491 -0.1220  0.0487
 2530SOL    HW210173   2.164   1.147   4.252  1.4534  1.8759  0.7441
 2530SOL    HW310174   2.311   1.154   4.220  1.2438 -1.9157 -1.3542
 2530SOL    MW410175   2.237   1.109   4.224  0.1726 -0.0950 -0.0448
 2531SOL     OW10176   2.178   1.929   4.191  0.5483 -0.3930 -0.2292
 2531SOL    HW210177   2.185   1.835   4.210  0.2741  0.2427  3.2731
 2531SOL    HW310178   2.262   1.965   4.219 -0.3384  0.7991  0.9322
 2531SOL    MW410179   2.190   1.921   4.197  0.3951 -0.1519  0.3867
 2532SOL     OW10180   2.433   1.532   4.190  0.3212  0.0817  0.5383
 2532SOL    HW210181   2.438   1.536   4.095 -0.2914 -1.0994  0.4415
 2532SOL    HW310182   2.517   1.564   4.221  0.3336  0.9611 -0.3846
 2532SOL    MW410183   2.445   1.537   4.182  0.2420  0.0418  0.4044
 2533SOL     OW10184   2.623   1.575   4.585  0.1641 -0.0138 -0.0426
 2533SOL    HW210185   2.657   1.657   4.621  0.4903 -0.4131  0.5663
 2533SOL    HW310186   2.529   1.578   4.601  0.3538 -0.3600  1.2100
 2533SOL    MW410187   2.615   1.586   4.592  0.2325 -0.1122  0.2027
 2534SOL     OW10188   1.183   2.043   4.511  0.2825  0.2252 -0.3814
 2534SOL    HW210189   1.231   2.117   4.551 -1.1575  0.7881  0.3312
 2534SOL    HW310190   1.241   1.968   4.524  0.7492  0.7918  0.9777
 2534SOL    MW410191   1.197   2.043   4.518  0.1543  0.3743 -0.1078
 2535SOL     OW10192   2.261   2.437   4.184 -0.1088 -0.1673  0.1321
 2535SOL    HW210193   2.260   2.527   4.150 -0.2119  0.4568  1.7326
 2535SOL    HW310194   2.175   2.402   4.162  0.1929 -0.1259 -1.1392
 2535SOL    MW410195   2.249   2.444   4.177 -0.0827 -0.0796  0.1760
 2536SOL     OW10196   1.227   0.362   4.689  0.7411  0.0139  0.1779
 2536SOL    HW210197   1.225   0.285   4.633  1.6298 -1.6369  2.3433
 2536SOL    HW310198   1.144   0.360   4.736  0.7136  0.4220  0.1451
 2536SOL    MW410199   1.216   0.352   4.688  0.8546 -0.1500  0.4592
 2537SOL     OW10200   0.899   1.545   4.550 -0.2469 -0.4013  0.4845
 2537SOL    HW210201   0.942   1.626   4.576 -1.2009 -0.8305  3.4877
 2537SOL    HW310202   0.809   1.553   4.581 -1.4322 -1.0196 -2.5966
 2537SOL    MW410203   0.893   1.556   4.557 -0.5292 -0.5395  0.4740
 2538SOL     OW10204   0.956   2.307   4.787 -0.5140 -0.2708 -0.2543
 2538SOL    HW210205   0.930   2.279   4.875 -0.2384 -0.1634 -0.1389
 2538SOL    HW310206   0.879   2.354   4.753 -0.5700 -0.1930 -0.0182
 2538SOL    MW410207   0.942   2.310   4.794 -0.4851 -0.2463 -0.2084
 2539SOL     OW10208   2.260   2.983   4.846 -0.1939 -0.0117 -0.0137
 2539SOL    HW210209   2.330   3.026   4.895 -0.5865  1.4947 -0.7612
 2539SOL    HW310210   2.253   2.896   4.886  1.3593  0.2105  0.7740
 2539SOL    MW410211   2.268   2.977   4.858 -0.0405  0.2165 -0.0086
 2540SOL     OW10212   2.263   3.184   4.199  0.3196  0.5761 -0.0009
 2540SOL    HW210213   2.281   3.263   4.149  0.2160  0.0255 -0.9285
 2540SOL    HW310214   2.253   3.214   4.290 -1.3809  1.8561 -0.5733
 2540SOL    MW410215   2.264   3.198   4.204  0.0818  0.6723 -0.1984
 2541SOL     OW10216   2.230   3.444   4.100 -0.3522  0.3432 -0.2803
 2541SOL    HW210217   2.312   3.482   4.130  0.1881 -0.2721 -0.9502
 2541SOL    HW310218   2.163   3.480   4.159  0.6657 -0.7757  1.5815
 2541SOL    MW410219   2.232   3.454   4.112 -0.1464  0.1144 -0.1225
 2542SOL     OW10220   0.505   0.936   4.557  0.0075  0.5963  0.4963
 2542SOL    HW210221   0.503   0.860   4.616 -0.4990  1.5144  1.6874
 2542SOL    HW310222   0.480   0.900   4.472 -1.2995 -0.4067  1.2685
 2542SOL    MW410223   0.501   0.921   4.554 -0.2319  0.5851  0.7553
 2543SOL     OW10224   2.469   3.816   4.114  0.2469  0.2419 -0.3106
 2543SOL    HW210225   2.394   3.864   4.149  0.2374 -0.4438  0.6209
 2543SOL    HW310226   2.459   3.823   4.019  0.2932  2.1233 -0.1833
 2543SOL    MW410227   2.458   3.823   4.106  0.2518  0.3994 -0.1707
 2544SOL     OW10228   4.105   4.051   4.576 -0.4040  0.5117  0.3269
 2544SOL    HW210229   4.108   4.011   4.489  2.1220 -1.5223  1.2806
 2544SOL    HW310230   4.015   4.038   4.606 -2.2806  4.1596 -3.2111
 2544SOL    MW410231   4.093   4.044   4.569 -0.3185  0.7248 -0.0143
 2545SOL     OW10232   2.280   3.981   4.241  0.8231 -0.2023  0.2314
 2545SOL    HW210233   2.187   3.969   4.222  0.8015  0.0918  0.1509
 2545SOL    HW310234   2.297   4.072   4.218  0.9909 -0.0835  0.8437
 2545SOL    MW410235   2.270   3.991   4.235  0.8423 -0.1481  0.3018
 2546SOL     OW10236   2.287   4.243   4.181  0.4140  0.0397 -0.3575
 2546SOL    HW210237   2.338   4.305   4.232 -0.0003  0.0762  0.0221
 2546SOL    HW310238   2.196   4.257   4.210  0.0402  0.7614 -1.8225
 2546SOL    MW410239   2.281   4.253   4.192  0.3102  0.1397 -0.5007
 2547SOL     OW10240   1.517   1.997   4.293  0.3218 -0.2501  0.3390
 2547SOL    HW210241   1.440   1.957   4.254  0.3001 -0.9763  1.1105
 2547SOL    HW310242   1.591   1.961   4.244  0.2045  0.0121 -0.0303
 2547SOL    MW410243   1.517   1.987   4.281  0.3035 -0.3114  0.3924
 2548SOL     OW10244   2.602   0.441   4.504  0.4267 -0.4200 -0.1971
 2548SOL    HW210245   2.556   0.475   4.428  1.1746 -0.2745 -0.5913
 2548SOL    HW310246   2.670   0.507   4.522 -0.6174  0.2438  1.4410
 2548SOL    MW410247   2.605   0.454   4.496  0.3877 -0.3132 -0.0334
 2549SOL     OW10248   2.466   0.517   4.274 -0.4519 -0.3894  0.0888
 2549SOL    HW210249   2.390   0.477   4.232 -0.6366  1.6787 -1.5813
 2549SOL    HW310250   2.462   0.609   4.250  1.1515  0.2551  2.1381
 2549SOL    MW410251   2.455   0.524   4.266 -0.2651 -0.0315  0.1388
 2550SOL     OW10252   1.967   1.784   4.688  0.6130  0.2977 -0.0556
 2550SOL    HW210253   2.011   1.826   4.762  2.0485  1.5461 -1.5939
 2550SOL    HW310254   1.927   1.856   4.640 -0.7082 -0.5559 -0.2544
 2550SOL    MW410255   1.968   1.799   4.691  0.6280  0.3499 -0.2847
 2551SOL     OW10256   2.925   0.786   4.132 -0.3644  0.0723 -0.8070
 2551SOL    HW210257   2.937   0.789   4.037  0.5646 -0.3837 -0.7122
 2551SOL    HW310258   2.986   0.851   4.166  0.3343 -0.7706 -0.4380
 2551SOL    MW410259   2.935   0.795   4.124 -0.1495 -0.0990 -0.7458
 2552SOL     OW10260   2.695   0.917   4.252  0.6990 -0.0796  0.1663
 2552SOL    HW210261   2.752   0.855   4.205 -0.7549 -0.9291 -0.4851
 2552SOL    HW310262   2.607   0.882   4.241 -0.2117  2.3571 -0.6191
 2552SOL    MW410263   2.691   0.904   4.244  0.3872  0.1298 -0.0229
 2553SOL     OW10264   2.705   1.174   4.149  0.0621  0.5031 -0.1471
 2553SOL    HW210265   2.704   1.159   4.055  0.2565  0.3065 -0.1164
 2553SOL    HW310266   2.698   1.087   4.188  0.5826  0.5370  0.0220
 2553SOL    MW410267   2.704   1.161   4.142  0.1564  0.4817 -0.1206
 2554SOL     OW10268   3.608   0.074   4.579 -0.3337  0.0500 -0.1007
 2554SOL    HW210269   3.546   0.145   4.596 -1.0666 -0.3801 -0.9412
 2554SOL    HW310270   3.694   0.116   4.580 -0.4524  0.3418  3.0057
 2554SOL    MW410271   3.611   0.089   4.582 -0.4463  0.0317  0.1984
 2555SOL     OW10272   2.901   1.548   4.139 -0.3083 -0.3031 -0.2047
 2555SOL    HW210273   2.832   1.582   4.196  1.6131  0.1899  1.8894
 2555SOL    HW310274   2.923   1.463   4.177  1.6191  0.4360  0.3912
 2555SOL    MW410275   2.895   1.542   4.152  0.1996 -0.1404  0.1507
 2556SOL     OW10276   1.669   2.556   4.638 -0.0266  0.0801  0.4952
 2556SOL    HW210277   1.664   2.648   4.612 -0.4039  0.0657  0.5032
 2556SOL    HW310278   1.755   2.527   4.608 -0.3240  0.1507 -0.4543
 2556SOL    MW410279   1.679   2.565   4.630 -0.1155  0.0875  0.3710
 2557SOL     OW10280   3.134   1.677   4.247  0.4285  0.4913  0.2519
 2557SOL    HW210281   3.108   1.691   4.338  1.4512  0.0322  0.6119
 2557SOL    HW310282   3.062   1.626   4.210  1.2815 -1.7435  1.5486
 2557SOL    MW410283   3.121   1.672   4.254  0.6762  0.1358  0.4702
 2558SOL     OW10284   1.992   4.659   4.515  0.3672  0.1546 -0.0739
 2558SOL    HW210285   1.909   4.692   4.548 -0.3320 -0.0891 -1.5187
 2558SOL    HW310286   1.997   4.569   4.548 -0.6338 -0.3075 -1.1189
 2558SOL    MW410287   1.981   4.651   4.524  0.1429  0.0615 -0.4025
 2559SOL     OW10288   1.755   4.269   4.689 -0.0371 -0.1290 -0.0141
 2559SOL    HW210289   1.785   4.288   4.778 -0.5713  2.5616 -0.3549
 2559SOL    HW310290   1.824   4.303   4.632  0.2924 -1.8181 -0.6724
 2559SOL    MW410291   1.768   4.276   4.693 -0.0641  0.0029 -0.1459
 2560SOL     OW10292   3.253   2.123   4.348  0.7135 -0.1024  0.4096
 2560SOL    HW210293   3.306   2.192   4.310  1.5662 -0.4012  1.0235
 2560SOL    HW310294   3.208   2.165   4.422  0.0720  0.1573 -0.1272
 2560SOL    MW410295   3.254   2.138   4.353  0.7410 -0.1073  0.4201
 2561SOL     OW10296   2.684   2.468   4.165  0.2292  0.1228  0.2347
 2561SOL    HW210297   2.609   2.410   4.159 -0.3538  1.0214 -1.3877
 2561SOL    HW310298   2.759   2.412   4.146 -0.3832  0.0028 -1.9131
 2561SOL    MW410299   2.684   2.453   4.162  0.0713  0.2253 -0.2627
 2562SOL     OW10300   2.489   3.046   4.108  0.0894 -0.2856  0.0509
 2562SOL    HW210301   2.493   2.958   4.143 -0.5383 -1.0662 -1.8012
 2562SOL    HW310302   2.412   3.085   4.148 -0.3865 -1.0181 -0.1552
 2562SOL    MW410303   2.480   3.040   4.118 -0.0563 -0.4852 -0.2203
 2563SOL     OW10304   2.714   2.731   4.245 -0.2708 -0.2766  0.2645
 2563SOL    HW210305   2.807   2.752   4.249 -0.1256 -0.4933 -1.5799
 2563SOL    HW310306   2.712   2.636   4.229 -0.8310 -0.4266  1.1606
 2563SOL    MW410307   2.726   2.721   4.243 -0.3254 -0.3250  0.1397
 2564SOL     OW10308   2.920   3.064   4.144 -0.0479 -0.3630  0.6231
 2564SOL    HW210309   2.830   3.085   4.169  0.2426 -0.1365  1.4971
 2564SOL    HW310310   2.917   3.054   4.049 -0.8136  0.5826  0.5431
 2564SOL    MW410311   2.908   3.066   4.135 -0.1106 -0.2084  0.7281
 2565SOL     OW10312   2.609   3.860   4.450 -0.3417 -0.0731  0.3065
 2565SOL    HW210313   2.697   3.850   4.488  0.5462 -0.0750 -1.6785
 2565SOL    HW310314   2.623   3.911   4.371 -2.4373  1.6495  1.0031
 2565SOL    MW410315   2.623   3.866   4.445 -0.5012  0.1540  0.1364
 2566SOL     OW10316   2.903   3.122   4.718 -0.8563  0.5281 -0.4483
 2566SOL    HW210317   2.920   3.216   4.712 -0.7652  0.3946 -2.7353
 2566SOL    HW310318   2.810   3.116   4.741 -0.0858  1.1705  3.0495
 2566SOL    MW410319   2.893   3.134   4.720 -0.7427  0.5953 -0.2890
 2567SOL     OW10320   2.923   3.872   4.205 -0.1574  0.2248 -0.4043
 2567SOL    HW210321   2.836   3.911   4.203 -0.5463 -0.4456  1.9227
 2567SOL    HW310322   2.908   3.778   4.218  0.9029  0.1733  0.5738
 2567SOL    MW410323   2.910   3.865   4.206 -0.0689  0.1295  0.0324
 2568SOL     OW10324   3.396   3.473   4.484 -0.2923  0.1888  0.2862
 2568SOL    HW210325   3.372   3.510   4.400 -0.3544 -0.0546  0.1965
 2568SOL    HW310326   3.486   3.503   4.499 -0.1213 -0.1361 -0.0759
 2568SOL    MW410327   3.405   3.482   4.475 -0.2782  0.1135  0.2265
 2569SOL     OW10328   2.589   4.545   4.533  0.3264 -0.0866 -0.4317
 2569SOL    HW210329   2.684   4.549   4.538  0.2332 -0.4559  2.2224
 2569SOL    HW310330   2.559   4.635   4.548  0.1850 -0.3058  0.5775
 2569SOL    MW410331   2.597   4.557   4.535  0.2954 -0.1640  0.0525
 2570SOL     OW10332   0.666   2.121   4.531  0.1668 -0.3503  0.5545
 2570SOL    HW210333   0.681   2.215   4.545  1.1778 -0.1338 -1.6599
 2570SOL    HW310334   0.747   2.079   4.558 -0.5416 -0.6693  2.2108
 2570SOL    MW410335   0.678   2.128   4.536  0.2067 -0.3641  0.4811
 2571SOL     OW10336   3.414   0.301   4.608 -0.7590  0.3040 -0.1059
 2571SOL    HW210337   3.333   0.255   4.629 -0.0847 -1.1259 -0.5926
 2571SOL    HW310338   3.405   0.324   4.515  0.0136 -1.1640 -0.5535
 2571SOL    MW410339   3.402   0.298   4.598 -0.5682 -0.0784 -0.2294
 2572SOL     OW10340   1.852   2.947   4.679 -0.0450  0.2045  0.1601
 2572SOL    HW210341   1.840   3.041   4.668  0.6782  0.1821 -0.8675
 2572SOL    HW310342   1.777   2.908   4.633  0.5403  0.2413 -0.8426
 2572SOL    MW410343   1.840   2.954   4.672  0.1277  0.2065 -0.1073
 2573SOL     OW10344   2.430   3.375   4.618  0.0869  0.2821  0.2315
 2573SOL    HW210345   2.356   3.336   4.573  1.4351 -0.0117 -1.7952
 2573SOL    HW310346   2.445   3.458   4.574  2.5228 -0.7993 -1.1363
 2573SOL    MW410347   2.422   3.381   4.606  0.5863  0.1004 -0.2165
 2574SOL     OW10348   3.787   3.586   4.241 -0.0304  0.3457 -0.7500
 2574SOL    HW210349   3.880   3.563   4.244 -0.0927  0.3354  1.2369
 2574SOL    HW310350   3.752   3.559   4.325 -1.4704  1.9312 -0.8093
 2574SOL    MW410351   3.795   3.580   4.252 -0.2289  0.5536 -0.4954
 2575SOL     OW10352   1.956   3.318   4.509  0.0038  0.1877  0.2992
 2575SOL    HW210353   1.955   3.414   4.506 -2.6540  0.2212  0.3748
 2575SOL    HW310354   1.908   3.292   4.430  1.8513 -1.1343 -0.4193
 2575SOL    MW410355   1.949   3.327   4.498 -0.1030  0.0174  0.2146
 2576SOL     OW10356   3.392   1.059   4.614  0.1680 -0.0690 -0.6088
 2576SOL    HW210357   3.459   1.024   4.556  1.5512  1.1645  0.1855
 2576SOL    HW310358   3.421   1.034   4.702  0.0326  1.1306 -0.2036
 2576SOL    MW410359   3.405   1.051   4.618  0.3328  0.2520 -0.4501
 2577SOL     OW10360   3.178   1.208   4.133 -0.3555 -0.3912  0.0194
 2577SOL    HW210361   3.258   1.253   4.162 -1.0488  1.0543 -0.2689
 2577SOL    HW310362   3.189   1.198   4.039 -0.8366  0.5077 -0.1426
 2577SOL    MW410363   3.190   1.213   4.125 -0.5105 -0.0819 -0.0401
 2578SOL     OW10364   3.414   1.308   4.249 -0.2654  0.3949 -0.1186
 2578SOL    HW210365   3.407   1.295   4.344  1.4512 -0.6124 -0.1107
 2578SOL    HW310366   3.395   1.401   4.237 -1.3211  0.3527  1.1182
 2578SOL    MW410367   3.411   1.319   4.260 -0.1781  0.2564  0.0458
 2579SOL     OW10368   3.375   1.572   4.129  0.1250 -0.0962 -0.2627
 2579SOL    HW210369   3.293   1.618   4.144  0.6855  0.9604 -0.4132
 2579SOL    HW310370   3.394   1.585   4.037  0.8862  0.3692 -0.0459
 2579SOL    MW410371   3.367   1.580   4.119  0.2995  0.1045 -0.2542
 2580SOL     OW10372   3.826   1.394   4.657  0.0292 -0.3620  0.0866
 2580SOL    HW210373   3.907   1.416   4.701  0.8695 -1.3014 -0.9559
 2580SOL    HW310374   3.836   1.301   4.634 -1.8143 -0.8095  0.9814
 2580SOL    MW410375   3.838   1.384   4.660 -0.1032 -0.5449  0.0668
 2581SOL     OW10376   3.056   0.499   4.512 -0.2162 -0.0281  0.6387
 2581SOL    HW210377   3.026   0.500   4.421  0.3674 -1.1612  0.4227
 2581SOL    HW310378   3.111   0.576   4.521 -0.5807  0.2892  0.1281
 2581SOL    MW410379   3.059   0.509   4.501 -0.1874 -0.1357  0.5431
 2582SOL     OW10380   3.630   1.891   4.227  0.1990  0.3011  0.7450
 2582SOL    HW210381   3.604   1.887   4.135 -0.1543  1.7300  0.7768
 2582SOL    HW310382   3.641   1.799   4.253 -0.4860 -0.1375 -0.4971
 2582SOL    MW410383   3.628   1.878   4.218  0.0620  0.4319  0.5856
 2583SOL     OW10384   2.910   2.313   4.153 -0.1181  0.3143 -0.1590
 2583SOL    HW210385   2.906   2.231   4.203 -2.9128  1.6307  1.9174
 2583SOL    HW310386   2.998   2.346   4.169  0.7899 -1.8801 -0.3993
 2583SOL    MW410387   2.921   2.306   4.162 -0.3672  0.1984  0.0830
 2584SOL     OW10388   3.206   2.673   4.150 -0.2295 -0.6456  0.2574
 2584SOL    HW210389   3.187   2.584   4.180 -0.6487 -0.6685 -0.0834
 2584SOL    HW310390   3.133   2.725   4.180  0.2698 -0.3148  0.9063
 2584SOL    MW410391   3.194   2.668   4.158 -0.2191 -0.6049  0.2975
 2585SOL     OW10392   2.976   2.821   4.240  0.3289  0.7739  0.4755
 2585SOL    HW210393   2.992   2.837   4.333 -0.2656  0.9998  0.5427
 2585SOL    HW310394   2.956   2.907   4.204  0.5679  0.6885  0.1318
 2585SOL    MW410395   2.976   2.835   4.247  0.2823  0.7923  0.4392
 2586SOL     OW10396   0.498   2.712   4.539 -0.2145  0.1309  0.2319
 2586SOL    HW210397   0.410   2.743   4.516  0.1444  0.4935 -0.6644
 2586SOL    HW310398   0.491   2.617   4.536 -0.9471  0.1206  1.5841
 2586SOL    MW410399   0.485   2.703   4.536 -0.2638  0.1776  0.2918
 2587SOL     OW10400   3.361   3.098   4.158  0.0674 -0.4351  0.5742
 2587SOL    HW210401   3.370   3.103   4.063 -1.8761  0.8767  0.4316
 2587SOL    HW310402   3.376   3.006   4.179 -0.0345 -0.8336 -1.0626
 2587SOL    MW410403   3.365   3.086   4.148 -0.2024 -0.3147  0.3400
 2588SOL     OW10404   3.134   3.226   4.246  0.7794  0.5661 -0.8366
 2588SOL    HW210405   3.212   3.183   4.213  0.6361 -0.5677  0.2600
 2588SOL    HW310406   3.062   3.167   4.222  0.2937  1.4283 -1.5290
 2588SOL    MW410407   3.135   3.213   4.238  0.6962  0.5302 -0.7830
 2589SOL     OW10408   3.099   3.498   4.138  0.1880 -0.8054 -0.2641
 2589SOL    HW210409   3.096   3.409   4.172 -0.4723 -0.6392  0.1326
 2589SOL    HW310410   3.116   3.488   4.045  0.9793 -1.3097 -0.0748
 2589SOL    MW410411   3.101   3.485   4.131  0.2053 -0.8502 -0.1864
 2590SOL     OW10412   2.898   3.615   4.287 -0.2228 -0.2709  0.2754
 2590SOL    HW210413   2.978   3.593   4.239 -1.2424 -2.9504 -0.2953
 2590SOL    HW310414   2.923   3.607   4.379  0.6006  0.5876  0.1325
 2590SOL    MW410415   2.912   3.611   4.293 -0.2487 -0.5112  0.1817
 2591SOL     OW10416   3.342   3.878   4.148 -0.2755  0.0071 -0.3534
 2591SOL    HW210417   3.342   3.870   4.053  1.2568 -0.5165 -0.3242
 2591SOL    HW310418   3.341   3.788   4.180  1.5039  0.1263  0.0903
 2591SOL    MW410419   3.342   3.865   4.140  0.1612 -0.0460 -0.2904
 2592SOL     OW10420   0.142   4.386   4.263 -0.0046 -0.1511 -0.4352
 2592SOL    HW210421   0.131   4.416   4.353  1.3978 -0.0705 -0.2686
 2592SOL    HW310422   0.058   4.347   4.239  0.6050 -3.1127  2.0138
 2592SOL    MW410423   0.130   4.385   4.272  0.2609 -0.5312 -0.0906
 2593SOL     OW10424   2.438   4.374   4.371 -0.2704 -0.0056 -0.0696
 2593SOL    HW210425   2.473   4.441   4.429 -1.8593  0.2830  0.5945
 2593SOL    HW310426   2.514   4.338   4.326  0.7189  1.4054  0.4619
 2593SOL    MW410427   2.452   4.378   4.373 -0.3493  0.2189  0.0882
 2594SOL     OW10428   3.143   4.026   4.252 -0.0552  0.1356 -0.2023
 2594SOL    HW210429   3.213   3.971   4.218 -0.3825 -0.7278  0.5001
 2594SOL    HW310430   3.064   3.974   4.240 -0.4073  0.5689  0.2163
 2594SOL    MW410431   3.142   4.012   4.246 -0.1447  0.0787 -0.0544
 2595SOL     OW10432   3.815   4.613   4.184 -0.1570 -0.0353 -0.0990
 2595SOL    HW210433   3.744   4.672   4.208 -0.6121 -0.4548 -0.3987
 2595SOL    HW310434   3.808   4.605   4.089  2.7399  3.0766 -0.7142
 2595SOL    MW410435   3.805   4.620   4.174  0.1650  0.3200 -0.2203
 2596SOL     OW10436   3.347   4.667   4.210 -0.2573 -0.1618  0.0713
 2596SOL    HW210437   3.438   4.691   4.226  0.2602 -1.6134 -0.5598
 2596SOL    HW310438   3.333   4.589   4.263 -0.8415 -0.4957 -0.5605
 2596SOL    MW410439   3.358   4.660   4.219 -0.2663 -0.3972 -0.0958
 2597SOL     OW10440   3.609   0.379   4.208  0.3322 -0.3372  0.0890
 2597SOL    HW210441   3.627   0.376   4.114 -0.0417 -0.5356  0.0201
 2597SOL    HW310442   3.683   0.426   4.246  0.9297 -1.0452 -0.1952
 2597SOL    MW410443   3.621   0.384   4.200  0.3619 -0.4568  0.0424
 2598SOL     OW10444   0.358   1.631   4.575  0.3400  0.3231 -0.3210
 2598SOL    HW210445   0.328   1.541   4.591 -0.8502  0.9143  0.7876
 2598SOL    HW310446   0.379   1.632   4.481  0.4567 -1.1380 -0.3281
 2598SOL    MW410447   0.357   1.619   4.565  0.1983  0.2083 -0.1760
 2599SOL     OW10448   3.599   0.900   4.189 -0.6364 -0.3414  0.3124
 2599SOL    HW210449   3.512   0.875   4.159 -0.3776 -1.0664  0.1451
 2599SOL    HW310450   3.608   0.992   4.164 -1.3632 -0.2553  0.3663
 2599SOL    MW410451   3.589   0.909   4.182 -0.6983 -0.4258  0.2975
 2600SOL     OW10452   3.151   0.944   4.206 -0.4166  0.0913  0.0881
 2600SOL    HW210453   3.149   0.950   4.302 -0.6849  0.0723  0.0825
 2600SOL    HW310454   3.165   1.034   4.176  1.4618 -0.1346  0.1995
 2600SOL    MW410455   3.153   0.956   4.215 -0.2046  0.0590  0.1020
 2601SOL     OW10456   3.618   1.171   4.129 -0.3102 -0.3518  0.2241
 2601SOL    HW210457   3.553   1.233   4.164 -0.8438 -0.2829 -0.8474
 2601SOL    HW310458   3.615   1.185   4.034  1.6074 -0.0309  0.1869
 2601SOL    MW410459   3.609   1.181   4.121 -0.1278 -0.3004  0.0782
 2602SOL     OW10460   3.838   1.276   4.275  0.0225  0.0813 -0.3884
 2602SOL    HW210461   3.773   1.232   4.221  0.0023  1.3603 -1.4467
 2602SOL    HW310462   3.854   1.359   4.230  1.5318  0.2838  0.4696
 2602SOL    MW410463   3.832   1.281   4.262  0.2191  0.2767 -0.4153
 2603SOL     OW10464   3.870   2.873   4.514  0.6763  0.4388 -0.4628
 2603SOL    HW210465   3.783   2.913   4.512  0.6267  0.3496  0.0540
 2603SOL    HW310466   3.859   2.793   4.565  0.7197 -0.3780 -1.7081
 2603SOL    MW410467   3.857   2.868   4.520  0.6757  0.3192 -0.5589
 2604SOL     OW10468   0.842   0.832   4.260 -0.0591  0.1176 -0.0891
 2604SOL    HW210469   0.776   0.789   4.205  0.2320  1.0752 -1.2172
 2604SOL    HW310470   0.925   0.792   4.232 -0.0786 -0.5536  0.8036
 2604SOL    MW410471   0.844   0.821   4.249 -0.0232  0.1554 -0.1202
 2605SOL     OW10472   3.610   1.620   4.307  0.5195 -0.5814  0.0091
 2605SOL    HW210473   3.524   1.597   4.273  0.5521 -1.2631  0.3695
 2605SOL    HW310474   3.610   1.588   4.397  1.3853 -1.2096 -0.2017
 2605SOL    MW410475   3.599   1.612   4.314  0.6380 -0.7544  0.0291
 2606SOL     OW10476   4.377   1.670   4.503  0.4698 -0.3672 -0.2095
 2606SOL    HW210477   4.407   1.746   4.552  0.3891 -0.0235 -0.6911
 2606SOL    HW310478   4.283   1.684   4.492  0.7577  0.3328 -1.8227
 2606SOL    MW410479   4.368   1.682   4.508  0.4973 -0.2294 -0.4854
 2607SOL     OW10480   3.837   2.299   4.166 -0.4901 -0.2411 -0.3054
 2607SOL    HW210481   3.837   2.293   4.071  1.5605  0.1709 -0.3620
 2607SOL    HW310482   3.918   2.347   4.187 -1.2093  0.1823  1.6047
 2607SOL    MW410483   3.848   2.304   4.157 -0.3145 -0.1309 -0.0606
 2608SOL     OW10484   4.274   3.638   4.301 -0.0100 -0.2419 -0.0333
 2608SOL    HW210485   4.193   3.605   4.262 -0.6052  0.1856  0.8247
 2608SOL    HW310486   4.291   3.720   4.256 -0.6712  0.2276  0.5590
 2608SOL    MW410487   4.266   3.644   4.290 -0.1755 -0.1240  0.1578
 2609SOL     OW10488   3.628   2.674   4.201 -0.3644 -0.1367  0.6629
 2609SOL    HW210489   3.629   2.584   4.234 -0.2523 -0.2129  0.4578
 2609SOL    HW310490   3.630   2.664   4.105  0.2665  0.0964  0.6468
 2609SOL    MW410491   3.628   2.661   4.192 -0.2661 -0.1161  0.6332
 2610SOL     OW10492   3.436   1.938   4.430  0.5072 -0.0887 -0.0851
 2610SOL    HW210493   3.481   1.917   4.348  0.4897  0.5429 -0.2527
 2610SOL    HW310494   3.368   2.000   4.406 -0.1638 -0.6884  0.2479
 2610SOL    MW410495   3.433   1.943   4.416  0.4165 -0.0845 -0.0639
 2611SOL     OW10496   3.784   3.091   4.185  0.1969  0.3517 -0.4778
 2611SOL    HW210497   3.802   2.998   4.193 -0.3389  0.2742 -0.1946
 2611SOL    HW310498   3.781   3.106   4.090 -2.0479 -0.3708 -0.5388
 2611SOL    MW410499   3.786   3.081   4.173 -0.1705  0.2460 -0.4487
 2612SOL     OW10500   3.578   3.233   4.311  0.1053  0.3060 -0.5363
 2612SOL    HW210501   3.505   3.175   4.288 -1.0531  1.7191 -0.4923
 2612SOL    HW310502   3.654   3.194   4.267 -0.6725 -1.1446 -0.6500
 2612SOL    MW410503   3.578   3.220   4.302 -0.1502  0.3009 -0.5455
 2613SOL     OW10504   2.853   2.972   4.446 -0.3257 -0.3903  0.2420
 2613SOL    HW210505   2.842   3.050   4.499  2.4800  0.4436 -0.3229
 2613SOL    HW310506   2.904   2.912   4.501 -0.2150 -0.7995 -0.3001
 2613SOL    MW410507   2.858   2.974   4.460  0.0591 -0.3345  0.0958
 2614SOL     OW10508   3.319   3.974   4.676 -0.3281  0.1825  0.2115
 2614SOL    HW210509   3.325   3.878   4.671  1.3803  0.2742 -0.0094
 2614SOL    HW310510   3.306   3.992   4.769  1.1712 -0.2218  0.5269
 2614SOL    MW410511   3.318   3.964   4.688  0.0951  0.1411  0.2236
 2615SOL     OW10512   2.852   3.886   4.595 -0.1259 -0.2222  0.3301
 2615SOL    HW210513   2.940   3.917   4.574 -0.1955 -0.1430  0.1577
 2615SOL    HW310514   2.814   3.954   4.650 -0.3498  0.0870 -0.2115
 2615SOL    MW410515   2.859   3.899   4.600 -0.1647 -0.1709  0.2365
 2616SOL     OW10516   4.060   3.955   4.307 -0.4340 -0.7038  0.1428
 2616SOL    HW210517   4.144   3.931   4.268 -0.5039  0.3392 -0.6932
 2616SOL    HW310518   3.995   3.904   4.259 -0.4109 -0.3396 -0.2789
 2616SOL    MW410519   4.063   3.945   4.295 -0.4396 -0.5181 -0.0229
 2617SOL     OW10520   3.300   4.457   4.385  0.2824 -0.1869  0.3266
 2617SOL    HW210521   3.242   4.478   4.459  0.9697  0.6510  0.6388
 2617SOL    HW310522   3.384   4.436   4.425  0.3431 -0.8949 -0.1578
 2617SOL    MW410523   3.303   4.457   4.400  0.3810 -0.1702  0.3042
 2618SOL     OW10524   3.812   4.431   4.385 -0.6212  0.2001 -0.1017
 2618SOL    HW210525   3.793   4.344   4.351  0.1496  0.1880 -0.5237
 2618SOL    HW310526   3.806   4.488   4.308  0.0340  0.3396 -0.0501
 2618SOL    MW410527   3.809   4.427   4.370 -0.4327  0.2170 -0.1512
 2619SOL     OW10528   1.526   0.319   4.743 -0.1359 -0.2276 -0.5391
 2619SOL    HW210529   1.529   0.224   4.732 -1.9022 -0.2390 -0.9643
 2619SOL    HW310530   1.433   0.340   4.744  0.2584  1.5739 -1.0214
 2619SOL    MW410531   1.514   0.309   4.742 -0.3169  0.0086 -0.6580
 2620SOL     OW10532   4.034   0.357   4.167  0.1766 -0.0638 -0.2705
 2620SOL    HW210533   4.112   0.398   4.203  0.1313  0.2205 -0.4901
 2620SOL    HW310534   3.961   0.396   4.216  0.1443  0.0048 -0.3714
 2620SOL    MW410535   4.035   0.368   4.178  0.1659 -0.0172 -0.3128
 2621SOL     OW10536   4.269   0.461   4.275  0.0489 -0.1304 -0.0552
 2621SOL    HW210537   4.278   0.556   4.280  0.2505 -0.1580  0.1034
 2621SOL    HW310538   4.352   0.431   4.236  1.1235 -0.4865  2.4207
 2621SOL    MW410539   4.282   0.469   4.270  0.2174 -0.1810  0.2918
 2622SOL     OW10540   3.559   4.468   4.509 -0.4895 -0.2878 -0.2294
 2622SOL    HW210541   3.640   4.468   4.459 -0.8445  0.4996 -0.8176
 2622SOL    HW310542   3.557   4.554   4.551 -0.4571 -0.7414  0.7050
 2622SOL    MW410543   3.569   4.479   4.508 -0.5322 -0.2437 -0.1836
 2623SOL     OW10544   4.291   0.742   4.216  0.1546  0.0879 -0.5955
 2623SOL    HW210545   4.214   0.787   4.251 -0.1028 -1.3803  0.8051
 2623SOL    HW310546   4.288   0.758   4.122  0.4586  3.5389 -0.1012
 2623SOL    MW410547   4.281   0.750   4.209  0.1602  0.3495 -0.3448
 2624SOL     OW10548   4.075   0.896   4.311  0.2085 -0.1159 -0.0321
 2624SOL    HW210549   4.080   0.989   4.290  0.1459  0.2865  1.6547
 2624SOL    HW310550   4.000   0.864   4.261 -0.8117  1.1007  0.7044
 2624SOL    MW410551   4.066   0.904   4.302  0.0648  0.0978  0.2875
 2625SOL     OW10552   4.076   1.148   4.189 -0.5493 -0.2487 -0.8547
 2625SOL    HW210553   4.149   1.209   4.206 -1.2075  0.3402 -0.0905
 2625SOL    HW310554   3.999   1.193   4.225 -1.2560 -0.9641 -1.4647
 2625SOL    MW410555   4.076   1.162   4.196 -0.7300 -0.2654 -0.8340
 2626SOL     OW10556   4.289   1.278   4.277  0.4398 -0.3555  0.1906
 2626SOL    HW210557   4.305   1.357   4.225  0.3024  0.3907  1.2582
 2626SOL    HW310558   4.348   1.213   4.239  1.2285  0.5153 -0.1321
 2626SOL    MW410559   4.299   1.280   4.265  0.5255 -0.1422  0.2885
 2627SOL     OW10560   4.300   1.514   4.130 -0.4458 -0.5498 -0.4839
 2627SOL    HW210561   4.381   1.558   4.157 -1.6059  0.6510  1.1548
 2627SOL    HW310562   4.300   1.520   4.034  0.5416  1.0006 -0.3997
 2627SOL    MW410563   4.311   1.521   4.121 -0.4692 -0.1868 -0.2565
 2628SOL     OW10564   0.376   4.094   4.522  0.0466  0.0514  0.0697
 2628SOL    HW210565   0.390   4.006   4.557 -1.3248  0.7591  2.5814
 2628SOL    HW310566   0.281   4.107   4.528  0.3941  2.3172  1.3688
 2628SOL    MW410567   0.365   4.084   4.527 -0.0885  0.4439  0.5722
 2629SOL     OW10568   3.720   2.003   4.700  0.3299  0.4078 -0.2161
 2629SOL    HW210569   3.658   1.937   4.732  1.5856 -0.2471  0.9003
 2629SOL    HW310570   3.664   2.069   4.658 -1.0787 -0.4761  0.2178
 2629SOL    MW410571   3.704   2.003   4.699  0.3097  0.2046 -0.0119
 2630SOL     OW10572   4.302   2.024   4.300  0.2867  0.0919  0.0551
 2630SOL    HW210573   4.278   2.020   4.393  0.7442 -1.9974  0.1105
 2630SOL    HW310574   4.228   1.982   4.255  0.5950  0.0554 -0.4170
 2630SOL    MW410575   4.289   2.018   4.307  0.3881 -0.1886  0.0000
 2631SOL     OW10576   4.325   2.284   4.204 -0.8130  0.0375 -0.0173
 2631SOL    HW210577   4.315   2.197   4.243  0.8454  0.1942  0.8153
 2631SOL    HW310578   4.251   2.334   4.239 -0.8426 -0.5809  0.8309
 2631SOL    MW410579   4.314   2.279   4.214 -0.5980 -0.0234  0.2046
 2632SOL     OW10580   0.462   1.122   4.168 -0.4922 -0.3730 -0.1271
 2632SOL    HW210581   0.457   1.136   4.074  0.6420  0.7254 -0.0289
 2632SOL    HW310582   0.529   1.183   4.199 -1.1344 -0.4246  1.4478
 2632SOL    MW410583   0.470   1.132   4.160 -0.4272 -0.2348  0.0935
 2633SOL     OW10584   4.089   2.672   4.167  0.0168  0.0403  0.3237
 2633SOL    HW210585   4.156   2.727   4.208 -0.0946 -0.6209  1.4141
 2633SOL    HW310586   4.006   2.710   4.197 -0.1065  0.6831 -0.7940
 2633SOL    MW410587   4.086   2.684   4.177 -0.0143  0.0379  0.3200
 2634SOL     OW10588   2.423   1.421   4.949  0.3572  0.1667 -0.0223
 2634SOL    HW210589   2.370   1.382   4.879  0.5483 -0.3899  0.1420
 2634SOL    HW310590   2.513   1.415   4.917  0.2791  1.6534 -0.5605
 2634SOL    MW410591   2.428   1.415   4.936  0.3724  0.2894 -0.0710
 2635SOL     OW10592   4.290   2.808   4.307 -0.1343  0.3580  0.2470
 2635SOL    HW210593   4.366   2.766   4.267  0.2899 -0.2316  1.6422
 2635SOL    HW310594   4.292   2.898   4.275  0.3844 -0.0112 -0.7726
 2635SOL    MW410595   4.300   2.814   4.297 -0.0105  0.2317  0.2971
 2636SOL     OW10596   4.281   3.081   4.182 -0.1460 -0.1767  0.3163
 2636SOL    HW210597   4.291   3.070   4.088 -1.1113  1.2308  0.0337
 2636SOL    HW310598   4.200   3.130   4.192  0.5365  0.6888  1.8081
 2636SOL    MW410599   4.272   3.086   4.171 -0.1831  0.1230  0.4764
 2637SOL     OW10600   4.024   3.205   4.283  0.0939 -0.3334 -0.0747
 2637SOL    HW210601   4.022   3.188   4.378 -0.4087 -0.5179 -0.1195
 2637SOL    HW310602   3.945   3.163   4.249  0.9664 -1.4556 -0.7691
 2637SOL    MW410603   4.014   3.197   4.291  0.1426 -0.5059 -0.1721
 2638SOL     OW10604   4.049   3.466   4.203 -0.5274 -0.3259  0.0029
 2638SOL    HW210605   4.054   3.372   4.217  1.8775 -0.3552 -0.7817
 2638SOL    HW310606   4.049   3.476   4.108  0.4957  0.5041  0.0839
 2638SOL    MW410607   4.050   3.455   4.192 -0.0749 -0.2203 -0.0901
 2639SOL     OW10608   3.828   0.508   4.291  0.4026 -0.0808  0.6076
 2639SOL    HW210609   3.833   0.584   4.232 -1.4157 -0.3670  0.0593
 2639SOL    HW310610   3.849   0.543   4.378 -0.6448  1.0931  0.3921
 2639SOL    MW410611   3.831   0.523   4.295  0.0248  0.0363  0.5074
 2640SOL     OW10612   0.024   0.181   4.531  0.5398  0.1729  0.1673
 2640SOL    HW210613  -0.040   0.249   4.552  2.2587  1.9003  0.0135
 2640SOL    HW310614   0.013   0.166   4.437 -0.2358 -0.1919  0.3119
 2640SOL    MW410615   0.014   0.188   4.522  0.6642  0.3527  0.1664
 2641SOL     OW10616   2.711   0.892   4.542  0.0934 -0.5640  0.8981
 2641SOL    HW210617   2.755   0.807   4.536  1.0886 -0.1523  2.0213
 2641SOL    HW310618   2.685   0.912   4.452  0.2946 -1.8247  0.5508
 2641SOL    MW410619   2.714   0.884   4.529  0.2511 -0.6760  1.0009
 2642SOL     OW10620   0.427   0.313   4.195 -0.7100 -0.1265  0.0160
 2642SOL    HW210621   0.416   0.313   4.099 -2.0605 -2.6342  0.1124
 2642SOL    HW310622   0.359   0.371   4.227 -0.7281  0.1487 -0.5166
 2642SOL    MW410623   0.417   0.321   4.186 -0.8906 -0.4211 -0.0415
 2643SOL     OW10624   2.654   4.258   4.194  0.1246  0.2944  0.1161
 2643SOL    HW210625   2.663   4.260   4.099  1.8052  0.8433  0.2874
 2643SOL    HW310626   2.736   4.293   4.228 -0.3446 -0.1481  1.7835
 2643SOL    MW410627   2.666   4.263   4.186  0.2847  0.3080  0.3591
 2644SOL     OW10628   4.291   3.883   4.173 -0.2498 -0.0818 -0.1297
 2644SOL    HW210629   4.294   3.868   4.079 -1.7837  1.9634 -0.5281
 2644SOL    HW310630   4.372   3.930   4.193 -0.1610 -0.0855 -0.4935
 2644SOL    MW410631   4.302   3.887   4.164 -0.4406  0.1876 -0.2303
 2645SOL     OW10632   0.149   4.628   4.633  0.7756 -0.1015  1.3913
 2645SOL    HW210633   0.098   4.703   4.604  1.3183  0.3496  1.6000
 2645SOL    HW310634   0.156   4.638   4.728  0.6359 -0.5483  1.4504
 2645SOL    MW410635   0.143   4.639   4.642  0.8288 -0.1011  1.4272
 2646SOL     OW10636   1.621   0.539   4.568  0.0154  0.1402 -0.7094
 2646SOL    HW210637   1.713   0.553   4.591 -0.3167  1.4268 -0.1300
 2646SOL    HW310638   1.599   0.456   4.610  0.5753  0.4179  0.1401
 2646SOL    MW410639   1.630   0.530   4.576  0.0453  0.3466 -0.5212
 2647SOL     OW10640   1.490   0.034   4.655  0.4231 -0.4047  0.1091
 2647SOL    HW210641   1.511  -0.057   4.634 -0.1359 -0.0218 -2.2466
 2647SOL    HW310642   1.399   0.045   4.626  0.7385  1.1076 -0.3576
 2647SOL    MW410643   1.480   0.023   4.648  0.3909 -0.1546 -0.2632
 2648SOL     OW10644   0.545   0.706   4.693 -0.0352  0.3459  0.4549
 2648SOL    HW210645   0.639   0.690   4.699  0.0465  1.2297  1.7325
 2648SOL    HW310646   0.509   0.623   4.661  1.1254 -0.1338  0.3474
 2648SOL    MW410647   0.553   0.693   4.690  0.1287  0.3992  0.6089
 2649SOL     OW10648   0.925   2.072   4.634 -0.0205  0.2012  0.0581
 2649SOL    HW210649   0.934   2.150   4.689  0.2577  0.5938 -0.5494
 2649SOL    HW310650   1.010   2.064   4.590 -1.2274  1.5642 -2.5860
 2649SOL    MW410651   0.938   2.081   4.636 -0.1430  0.4330 -0.3710
 2650SOL     OW10652   3.345   3.587   4.239  0.1741 -0.4087  0.0924
 2650SOL    HW210653   3.412   3.541   4.188 -0.2323  1.7214 -2.4704
 2650SOL    HW310654   3.263   3.570   4.191 -0.4508  0.4639  0.8243
 2650SOL    MW410655   3.343   3.578   4.226  0.0381 -0.0124 -0.1493
 2651SOL     OW10656   1.965   2.072   4.299 -0.1167  0.4144 -0.2244
 2651SOL    HW210657   2.046   2.022   4.285 -1.1923 -0.9940 -1.6144
 2651SOL    HW310658   1.983   2.158   4.261  1.0865  0.4575  0.4188
 2651SOL    MW410659   1.978   2.077   4.292 -0.0999  0.2341 -0.3228
 2652SOL     OW10660   0.027   1.900   4.198  0.0550  0.5364 -0.0034
 2652SOL    HW210661   0.097   1.950   4.239 -0.2196  1.0977 -0.2120
 2652SOL    HW310662  -0.054   1.934   4.237 -0.0483 -0.8904  1.0763
 2652SOL    MW410663   0.025   1.911   4.209  0.0051  0.4221  0.1116
 2653SOL     OW10664   1.298   4.288   4.606  0.0794 -0.5052 -0.5692
 2653SOL    HW210665   1.260   4.206   4.636  0.9721 -0.9732 -0.7107
 2653SOL    HW310666   1.225   4.350   4.607 -0.1352 -0.7632  1.5744
 2653SOL    MW410667   1.283   4.286   4.610  0.1688 -0.6013 -0.3052
 2654SOL     OW10668   0.536   1.216   4.585  0.3016  0.1523  0.0600
 2654SOL    HW210669   0.541   1.120   4.593  0.1346  0.3279  2.8144
 2654SOL    HW310670   0.443   1.235   4.579  0.2482  0.2211  1.0131
 2654SOL    MW410671   0.525   1.206   4.585  0.2726  0.1845  0.5493
 2655SOL     OW10672   0.439   4.568   4.542 -0.3602 -0.0950  0.1279
 2655SOL    HW210673   0.348   4.575   4.570 -0.2591  0.3385  0.3429
 2655SOL    HW310674   0.441   4.608   4.455 -0.2366  0.5190  0.4120
 2655SOL    MW410675   0.427   4.574   4.534 -0.3306  0.0434  0.1941
 2656SOL     OW10676   1.746   1.192   4.612 -0.0764  0.5598  0.2326
 2656SOL    HW210677   1.714   1.170   4.699 -0.3006  0.8962  0.2347
 2656SOL    HW310678   1.841   1.197   4.622 -0.2281  2.3526  0.8526
 2656SOL    MW410679   1.754   1.189   4.624 -0.1260  0.8407  0.3147
 2657SOL     OW10680   0.659   0.449   4.240 -0.9133  0.0715 -0.3378
 2657SOL    HW210681   0.587   0.391   4.214 -0.4016 -0.6170 -0.2306
 2657SOL    HW310682   0.674   0.429   4.332 -0.9172  0.5756 -0.2263
 2657SOL    MW410683   0.651   0.438   4.249 -0.8463  0.0472 -0.3090
 2658SOL     OW10684   3.988   0.899   4.559  0.6120  0.5283  0.0765
 2658SOL    HW210685   3.946   0.985   4.552  1.5543  1.1812  2.0131
 2658SOL    HW310686   4.041   0.892   4.480 -0.2670  1.2872 -0.5968
 2658SOL    MW410687   3.989   0.909   4.548  0.6204  0.7146  0.2427
 2659SOL     OW10688   3.848   1.507   4.108  0.1154 -0.3566 -0.3361
 2659SOL    HW210689   3.929   1.540   4.148 -0.1640  0.8278 -0.7162
 2659SOL    HW310690   3.778   1.546   4.160 -0.2369  0.4329 -1.3828
 2659SOL    MW410691   3.850   1.517   4.120  0.0322 -0.0960 -0.5245
 2660SOL     OW10692   0.018   2.687   4.152  0.6357 -0.0094 -0.0180
 2660SOL    HW210693   0.097   2.735   4.177 -0.2505  0.3766  2.1496
 2660SOL    HW310694   0.027   2.602   4.196 -0.9977  0.7166  1.8048
 2660SOL    MW410695   0.030   2.682   4.161  0.3033  0.1371  0.5088
 2661SOL     OW10696   1.575   1.389   4.532  0.0866  0.1316 -0.0540
 2661SOL    HW210697   1.625   1.469   4.550 -0.1955  0.4591 -0.7028
 2661SOL    HW310698   1.635   1.318   4.554  0.8214  0.5203 -0.7397
 2661SOL    MW410699   1.590   1.390   4.537  0.1462  0.2261 -0.2298
 2662SOL     OW10700   3.103   0.206   4.522  0.1681 -0.7740  0.0907
 2662SOL    HW210701   3.082   0.299   4.531  0.5897 -0.7532  0.9291
 2662SOL    HW310702   3.094   0.188   4.428  1.0194  0.3413 -0.2093
 2662SOL    MW410703   3.099   0.216   4.511  0.3357 -0.6241  0.1616
 2663SOL     OW10704   1.525   3.652   4.500  0.2711 -0.0560 -1.0324
 2663SOL    HW210705   1.546   3.651   4.406  1.5142  0.7718 -0.7869
 2663SOL    HW310706   1.498   3.742   4.517  1.6785  0.2495 -0.2805
 2663SOL    MW410707   1.524   3.664   4.490  0.6207  0.0935 -0.9007
 2664SOL     OW10708   2.137   1.904   4.869 -0.0442  0.2198 -0.2664
 2664SOL    HW210709   2.188   1.976   4.832  0.6600 -0.2188 -0.1516
 2664SOL    HW310710   2.201   1.835   4.886 -0.7425 -0.4978 -0.5191
 2664SOL    MW410711   2.152   1.905   4.866 -0.0432  0.0672 -0.2847
 2665SOL     OW10712   2.206   1.673   4.282  0.6214 -0.5333 -0.2031
 2665SOL    HW210713   2.274   1.611   4.255  0.2848 -1.3370  0.7892
 2665SOL    HW310714   2.124   1.626   4.268  0.2743  0.2855 -1.0025
 2665SOL    MW410715   2.204   1.659   4.276  0.5314 -0.5313 -0.1779
 2666SOL     OW10716   1.310   1.799   4.552  0.1293 -0.0210 -0.2524
 2666SOL    HW210717   1.402   1.820   4.564  0.2646 -0.0658 -1.1850
 2666SOL    HW310718   1.306   1.703   4.558 -0.0454  0.0410  0.9662
 2666SOL    MW410719   1.321   1.789   4.555  0.1240 -0.0187 -0.2146
 2667SOL     OW10720   3.110   2.811   5.015  0.2211  0.3750 -0.2881
 2667SOL    HW210721   3.154   2.728   4.999 -1.2590 -0.5952  0.5859
 2667SOL    HW310722   3.107   2.853   4.929  1.2150 -0.3495 -0.6893
 2667SOL    MW410723   3.115   2.806   5.001  0.1569  0.1512 -0.2260
 2668SOL     OW10724   3.738   4.235   4.187 -0.5446  0.1457  0.1294
 2668SOL    HW210725   3.828   4.207   4.169 -0.3130  0.6253  0.5058
 2668SOL    HW310726   3.692   4.155   4.210  0.2429  0.1262  1.7354
 2668SOL    MW410727   3.744   4.221   4.188 -0.4103  0.2060  0.3910
 2669SOL     OW10728   2.462   4.597   4.163 -0.4189 -0.0778  0.2385
 2669SOL    HW210729   2.535   4.659   4.172 -1.5824  1.4436 -0.5744
 2669SOL    HW310730   2.473   4.536   4.235  0.2949  1.5705  1.5398
 2669SOL    MW410731   2.473   4.597   4.173 -0.4783  0.3405  0.3028
 2670SOL     OW10732   2.945   1.447   4.868 -0.3350 -0.1971  0.5509
 2670SOL    HW210733   2.851   1.432   4.859  0.1162 -1.3191 -2.7442
 2670SOL    HW310734   2.982   1.361   4.882  0.3087  0.1512  1.0091
 2670SOL    MW410735   2.937   1.434   4.869 -0.1907 -0.2992  0.1769
 2671SOL     OW10736   2.457   0.905   4.713  0.3176  0.0526  0.1460
 2671SOL    HW210737   2.530   0.865   4.667  0.8029 -0.0474  0.9847
 2671SOL    HW310738   2.456   0.996   4.683 -0.5740 -0.4931 -1.5014
 2671SOL    MW410739   2.467   0.912   4.703  0.2644 -0.0325  0.0391
 2672SOL     OW10740   4.094   2.419   4.274 -0.7073 -0.3907  0.0258
 2672SOL    HW210741   4.087   2.448   4.365  2.1620 -0.3089  0.2816
 2672SOL    HW310742   4.091   2.500   4.223  0.6318 -0.1707  0.2756
 2672SOL    MW410743   4.093   2.434   4.279 -0.1516 -0.3512  0.0925
 2673SOL     OW10744   1.808   2.453   4.846  0.2438  0.0259 -0.4330
 2673SOL    HW210745   1.818   2.360   4.826 -0.2940 -0.2145  0.3806
 2673SOL    HW310746   1.743   2.484   4.783 -1.0762 -0.6153  0.5617
 2673SOL    MW410747   1.800   2.445   4.835 -0.0013 -0.0904 -0.1941
 2674SOL     OW10748   1.902   0.523   4.638  0.3223 -0.4285  0.1523
 2674SOL    HW210749   1.929   0.614   4.648  1.3255 -0.7165  0.1523
 2674SOL    HW310750   1.972   0.483   4.586 -0.9372 -0.7944 -1.3076
 2674SOL    MW410751   1.915   0.530   4.632  0.2885 -0.5147 -0.0401
 2675SOL     OW10752   0.622   3.607   4.255 -0.2113  0.3300 -0.0296
 2675SOL    HW210753   0.700   3.566   4.219 -0.6457 -0.6574  0.1443
 2675SOL    HW310754   0.549   3.554   4.222 -0.7847  0.9503  0.2032
 2675SOL    MW410755   0.622   3.595   4.246 -0.3442  0.2816  0.0238
 2676SOL     OW10756   0.749   2.429   4.650  0.4025  0.0168 -0.2204
 2676SOL    HW210757   0.809   2.474   4.591  0.0680  1.0036  0.1955
 2676SOL    HW310758   0.663   2.443   4.612  0.0875  1.4417  0.9922
 2676SOL    MW410759   0.746   2.436   4.637  0.3167  0.3350 -0.0052
 2677SOL     OW10760   1.739   0.936   4.526  0.1571 -0.2564  0.3042
 2677SOL    HW210761   1.741   1.028   4.552 -0.8332 -0.0780 -0.2313
 2677SOL    HW310762   1.808   0.895   4.578 -1.3855  0.2175  2.8060
 2677SOL    MW410763   1.749   0.943   4.536 -0.1771 -0.1703  0.5641
 2678SOL     OW10764   1.793   3.746   4.507  0.2132  0.0338  0.0633
 2678SOL    HW210765   1.708   3.702   4.514  0.1394  0.1429 -0.1165
 2678SOL    HW310766   1.773   3.839   4.522  0.2774  0.0770 -0.1082
 2678SOL    MW410767   1.779   3.753   4.510  0.2120  0.0541  0.0167
 2679SOL     OW10768   2.322   3.969   4.510 -0.3553 -0.1121 -0.1846
 2679SOL    HW210769   2.297   3.972   4.418 -0.0208 -0.0802 -0.2754
 2679SOL    HW310770   2.413   3.938   4.509 -0.0786  0.6786  0.0863
 2679SOL    MW410771   2.331   3.965   4.498 -0.2747 -0.0033 -0.1612
 2680SOL     OW10772   2.256   1.329   4.711 -0.4528  0.2167  0.0663
 2680SOL    HW210773   2.269   1.424   4.707 -1.6476  0.4222  0.7884
 2680SOL    HW310774   2.333   1.293   4.668  0.9494  1.4533  1.4767
 2680SOL    MW410775   2.268   1.337   4.705 -0.4256  0.4071  0.3476
 2681SOL     OW10776   3.869   2.609   4.644  0.0230 -0.0946  0.4658
 2681SOL    HW210777   3.818   2.538   4.605 -1.5181  1.0670  0.3214
 2681SOL    HW310778   3.831   2.621   4.731 -0.4889  1.2915  0.0754
 2681SOL    MW410779   3.857   2.601   4.650 -0.2477  0.2418  0.3953
 2682SOL     OW10780   4.315   2.735   4.591  0.0702 -0.2698  0.3310
 2682SOL    HW210781   4.308   2.758   4.499  0.7779  0.2021  0.3923
 2682SOL    HW310782   4.407   2.711   4.603 -0.1583 -0.9436  0.7728
 2682SOL    MW410783   4.326   2.735   4.581  0.1335 -0.2966  0.3972
 2683SOL     OW10784   4.434   4.241   4.118  0.4910 -0.2984  0.1675
 2683SOL    HW210785   4.483   4.258   4.038  2.5255 -0.5026  1.3153
 2683SOL    HW310786   4.475   4.162   4.155  2.2058  1.9786  3.3479
 2683SOL    MW410787   4.446   4.233   4.113  0.9856 -0.0248  0.7381
 2684SOL     OW10788   2.008   2.328   4.138  0.1809 -0.5160 -0.0229
 2684SOL    HW210789   1.987   2.325   4.045  1.3015  0.1149 -0.3053
 2684SOL    HW310790   1.931   2.368   4.179  0.0243 -0.0457 -0.7779
 2684SOL    MW410791   1.995   2.333   4.131  0.3082 -0.3707 -0.1597
 2685SOL     OW10792   3.325   2.835   4.529 -0.0522  0.0349 -0.1793
 2685SOL    HW210793   3.333   2.841   4.434 -3.7573  0.8169 -0.5229
 2685SOL    HW310794   3.337   2.925   4.560  1.7338 -0.3081  0.1897
 2685SOL    MW410795   3.328   2.848   4.521 -0.3052  0.0927 -0.1760
 2686SOL     OW10796   0.654   3.880   4.171  0.6191 -0.2523  0.4572
 2686SOL    HW210797   0.648   3.792   4.207  1.9966 -0.6525 -0.2670
 2686SOL    HW310798   0.573   3.923   4.199 -0.0190 -1.7134  0.8774
 2686SOL    MW410799   0.643   3.874   4.180  0.7166 -0.4981  0.4172
 2687SOL     OW10800   2.017   3.588   4.519  0.4471  0.1513 -0.2295
 2687SOL    HW210801   1.950   3.656   4.511  1.3122  0.9044 -1.2857
 2687SOL    HW310802   2.094   3.634   4.554  0.6575 -0.5329  0.2018
 2687SOL    MW410803   2.019   3.603   4.522  0.5889  0.1605 -0.3123
 2688SOL     OW10804   0.002   0.107   4.275 -0.0640 -0.0237 -0.8289
 2688SOL    HW210805  -0.073   0.053   4.249 -0.3864  0.0465 -0.0452
 2688SOL    HW310806   0.078   0.056   4.247 -0.4041  0.1820 -2.1687
 2688SOL    MW410807   0.002   0.093   4.267 -0.1516  0.0127 -0.9027
 2689SOL     OW10808   4.204   2.053   4.571  0.1918 -0.0023 -0.1159
 2689SOL    HW210809   4.261   2.008   4.634 -0.2490  0.1342  0.3786
 2689SOL    HW310810   4.118   2.011   4.582 -0.0348  0.4405 -0.1996
 2689SOL    MW410811   4.200   2.041   4.580  0.1040  0.0739 -0.0615
 2690SOL     OW10812   0.955   3.006   4.562  0.3520  0.4500 -0.1145
 2690SOL    HW210813   0.889   2.938   4.573  0.2173  0.3086 -1.6783
 2690SOL    HW310814   0.910   3.075   4.514  1.4765  0.1155 -1.6854
 2690SOL    MW410815   0.941   3.006   4.557  0.4826  0.3872 -0.5279
 2691SOL     OW10816   1.889   3.544   4.897 -0.0017  0.3002 -0.0482
 2691SOL    HW210817   1.806   3.591   4.910 -0.8425 -0.7121 -1.6784
 2691SOL    HW310818   1.864   3.463   4.853  1.6213 -0.9796  1.3111
 2691SOL    MW410819   1.874   3.539   4.893  0.1016 -0.0024 -0.0834
 2692SOL     OW10820   1.304   3.487   4.158 -1.0931 -0.7040 -0.2063
 2692SOL    HW210821   1.288   3.492   4.064 -0.9280  0.1984 -0.1957
 2692SOL    HW310822   1.223   3.521   4.198 -0.6200  0.2656 -0.0619
 2692SOL    MW410823   1.291   3.493   4.151 -1.0087 -0.4568 -0.1860
 2693SOL     OW10824   2.950   4.271   4.674  0.0014  0.4701 -0.1385
 2693SOL    HW210825   2.890   4.211   4.717  0.0253  0.8092  0.3744
 2693SOL    HW310826   3.015   4.215   4.632 -0.3678  0.1213 -0.2419
 2693SOL    MW410827   2.950   4.256   4.674 -0.0443  0.4687 -0.0844
 2694SOL     OW10828   2.216   1.780   4.527  0.0224  0.8039  0.1887
 2694SOL    HW210829   2.182   1.747   4.445  0.8582 -0.3799  0.3149
 2694SOL    HW310830   2.141   1.779   4.587 -0.0631 -0.4518  0.0681
 2694SOL    MW410831   2.201   1.776   4.524  0.1211  0.4821  0.1898
 2695SOL     OW10832   1.570   4.346   4.291 -0.6366 -0.7416  0.2069
 2695SOL    HW210833   1.658   4.314   4.269 -0.3606  0.4433 -0.4441
 2695SOL    HW310834   1.580   4.386   4.377 -0.4856 -0.3886  0.0252
 2695SOL    MW410835   1.583   4.347   4.300 -0.5802 -0.5388  0.0973
 2696SOL     OW10836   3.353   2.110   4.750  0.0131 -0.0128 -0.5179
 2696SOL    HW210837   3.321   2.022   4.771  1.4851 -0.3452  0.4832
 2696SOL    HW310838   3.321   2.165   4.822  0.6706 -0.1211 -0.1321
 2696SOL    MW410839   3.345   2.106   4.763  0.2940 -0.0708 -0.3352
 2697SOL     OW10840   1.864   1.990   4.541  0.3923 -0.4061  0.2961
 2697SOL    HW210841   1.771   1.969   4.530  0.7340 -2.3385  0.7635
 2697SOL    HW310842   1.892   2.023   4.456 -0.7353  0.2185  0.1673
 2697SOL    MW410843   1.855   1.991   4.528  0.2886 -0.5788  0.3414
 2698SOL     OW10844   2.036   4.339   4.268 -0.3709 -0.4525 -0.1120
 2698SOL    HW210845   1.957   4.297   4.233  0.7077 -1.5448 -1.2758
 2698SOL    HW310846   2.026   4.431   4.246 -0.6276 -0.8218 -1.5896
 2698SOL    MW410847   2.024   4.346   4.261 -0.2625 -0.6456 -0.4606
 2699SOL     OW10848   0.442   1.896   4.171  0.5976 -0.8018 -0.3726
 2699SOL    HW210849   0.517   1.942   4.209  1.9725 -2.5250 -0.9238
 2699SOL    HW310850   0.456   1.903   4.077 -0.8810  0.3420 -0.5280
 2699SOL    MW410851   0.454   1.903   4.164  0.5839 -0.8782 -0.4659
 2700SOL     OW10852   3.517   4.091   4.501  0.3545 -0.0932 -0.0034
 2700SOL    HW210853   3.538   4.161   4.563 -1.5248  1.1472 -0.7309
 2700SOL    HW310854   3.452   4.037   4.546 -0.4789  0.3964 -0.6118
 2700SOL    MW410855   3.512   4.093   4.515 -0.0036  0.1349 -0.1793
 2701SOL     OW10856   3.621   3.018   4.524 -0.1814  0.1457  0.0840
 2701SOL    HW210857   3.535   3.009   4.564 -0.8368 -1.1453 -1.5556
 2701SOL    HW310858   3.612   3.092   4.464 -0.1415  0.0647 -0.0246
 2701SOL    MW410859   3.608   3.027   4.521 -0.2627 -0.0350 -0.1469
 2702SOL     OW10860   2.367   1.996   4.537 -0.3381 -0.5956  0.3417
 2702SOL    HW210861   2.318   1.914   4.540 -1.7984  0.2898  2.1317
 2702SOL    HW310862   2.349   2.038   4.621 -0.3757  1.9760 -0.8837
 2702SOL    MW410863   2.358   1.991   4.548 -0.5357 -0.1396  0.4168
 2703SOL     OW10864   3.148   0.388   4.148  0.1830 -0.5240 -0.4226
 2703SOL    HW210865   3.137   0.302   4.188  0.1953  0.0340  0.7807
 2703SOL    HW310866   3.073   0.439   4.179  1.1260  0.4482  0.3125
 2703SOL    MW410867   3.136   0.384   4.157  0.3090 -0.3221 -0.1674
 2704SOL     OW10868   3.217   2.557   4.845 -0.1818 -0.0409  0.1280
 2704SOL    HW210869   3.207   2.466   4.872 -2.7434  0.2000  0.1492
 2704SOL    HW310870   3.149   2.570   4.779  1.3094  1.3832 -1.1731
 2704SOL    MW410871   3.207   2.547   4.840 -0.3228  0.1786 -0.0410
 2705SOL     OW10872   4.075   1.899   4.218  0.0357 -0.2679  0.0754
 2705SOL    HW210873   4.055   1.805   4.225 -1.0323  0.0032  0.7844
 2705SOL    HW310874   4.003   1.942   4.264 -0.3750  0.9861 -1.7149
 2705SOL    MW410875   4.063   1.892   4.225 -0.1597 -0.0666 -0.0677
 2706SOL     OW10876   0.284   1.867   4.724 -0.0968 -0.4063 -0.2129
 2706SOL    HW210877   0.324   1.836   4.805  1.1719 -0.4800 -0.8555
 2706SOL    HW310878   0.293   1.794   4.662 -0.6100 -0.1732 -0.5741
 2706SOL    MW410879   0.290   1.853   4.726  0.0029 -0.3853 -0.3452
 2707SOL     OW10880   2.470   3.104   4.987 -0.1897 -0.3068 -0.0538
 2707SOL    HW210881   2.517   3.059   5.057  0.0181 -3.0700 -1.8952
 2707SOL    HW310882   2.527   3.095   4.911 -0.4145  2.6674 -0.6333
 2707SOL    MW410883   2.484   3.097   4.986 -0.1922 -0.2789 -0.3734
 2708SOL     OW10884   2.730   4.104   4.777  0.0013 -0.0965 -0.2338
 2708SOL    HW210885   2.679   4.169   4.730 -0.0281  0.4675  0.5755
 2708SOL    HW310886   2.718   4.125   4.870  0.6227 -0.7665  0.0120
 2708SOL    MW410887   2.722   4.115   4.783  0.0792 -0.1106 -0.0944
 2709SOL     OW10888   1.731   1.626   4.567 -0.4262 -0.5754  0.0355
 2709SOL    HW210889   1.693   1.701   4.613 -1.1575 -1.3141  0.6505
 2709SOL    HW310890   1.815   1.612   4.610 -0.3877 -0.2473  0.0705
 2709SOL    MW410891   1.737   1.634   4.579 -0.5176 -0.6297  0.1216
 2710SOL     OW10892   1.222   2.292   4.650  0.3816 -0.5569 -0.5285
 2710SOL    HW210893   1.144   2.304   4.704 -0.9465 -0.7365 -2.3609
 2710SOL    HW310894   1.260   2.380   4.645  0.7330 -0.6036  0.9761
 2710SOL    MW410895   1.217   2.305   4.656  0.2527 -0.5867 -0.5717
 2711SOL     OW10896   0.587   4.330   4.516 -0.2478  0.5283 -0.2958
 2711SOL    HW210897   0.540   4.411   4.533  0.3865  0.7173  0.6106
 2711SOL    HW310898   0.521   4.261   4.523 -0.2021  0.6679  2.1818
 2711SOL    MW410899   0.572   4.332   4.519 -0.1581  0.5717  0.1507
 2712SOL     OW10900   3.118   4.615   4.617 -0.1764  0.4641 -0.1394
 2712SOL    HW210901   3.117   4.709   4.598 -0.3148  0.4491 -0.2049
 2712SOL    HW310902   3.115   4.610   4.712  1.6269  0.5582 -0.0643
 2712SOL    MW410903   3.117   4.627   4.627  0.0432  0.4745 -0.1378
 2713SOL     OW10904   0.313   3.125   4.549 -0.2648  0.3150 -0.2745
 2713SOL    HW210905   0.322   3.030   4.537  0.3039  0.1376  1.4325
 2713SOL    HW310906   0.365   3.163   4.479 -0.7339 -0.6244 -1.1521
 2713SOL    MW410907   0.321   3.117   4.538 -0.2517  0.1676 -0.1650
 2714SOL     OW10908   1.222   0.840   4.522 -0.0928  0.1247 -0.2716
 2714SOL    HW210909   1.305   0.842   4.571 -0.7831 -2.6381  1.0518
 2714SOL    HW310910   1.249   0.833   4.430  1.1334 -0.6190  0.1341
 2714SOL    MW410911   1.237   0.840   4.516 -0.0222 -0.3380 -0.0434
 2715SOL     OW10912   2.191   0.938   4.582  0.3110 -0.0506  0.0405
 2715SOL    HW210913   2.156   1.025   4.602 -0.6908 -1.0420  2.9291
 2715SOL    HW310914   2.285   0.947   4.594  0.1896  0.5878  0.5463
 2715SOL    MW410915   2.199   0.951   4.586  0.1628 -0.0972  0.4883
 2716SOL     OW10916   1.227   0.118   4.558  0.1697 -0.0441  0.2452
 2716SOL    HW210917   1.251   0.103   4.466  2.0267 -0.0609  0.7194
 2716SOL    HW310918   1.152   0.060   4.572  0.7687 -1.1304 -0.8594
 2716SOL    MW410919   1.220   0.108   4.547  0.4939 -0.1897  0.1626
 2717SOL     OW10920   0.490   2.442   4.527 -0.2538  0.0668  0.3480
 2717SOL    HW210921   0.424   2.398   4.579 -1.8763  0.9685 -0.8970
 2717SOL    HW310922   0.463   2.427   4.436  0.0088  2.2862 -0.1207
 2717SOL    MW410923   0.478   2.434   4.522 -0.4332  0.4787  0.1216
 2718SOL     OW10924   2.590   2.893   4.561  0.4906 -0.3364  0.3082
 2718SOL    HW210925   2.580   2.798   4.561  2.2527 -0.5438 -0.5266
 2718SOL    HW310926   2.647   2.911   4.486 -1.9901  1.6273 -1.1825
 2718SOL    MW410927   2.596   2.883   4.551  0.3958 -0.1047  0.0014
 2719SOL     OW10928   1.349   0.328   4.215  0.0279 -0.3842 -0.4828
 2719SOL    HW210929   1.280   0.393   4.223  0.3656 -0.1098  0.2026
 2719SOL    HW310930   1.424   0.366   4.260  0.7032 -0.5777 -1.4330
 2719SOL    MW410931   1.350   0.341   4.222  0.1616 -0.3735 -0.5174
 2720SOL     OW10932   2.908   2.035   4.267 -0.2371  0.3460 -0.6077
 2720SOL    HW210933   2.986   2.004   4.220  0.8827 -0.4608  1.7074
 2720SOL    HW310934   2.836   1.986   4.227  0.4647  0.8847 -2.5829
 2720SOL    MW410935   2.909   2.024   4.256  0.0036  0.3107 -0.5631
 2721SOL     OW10936   0.735   0.387   4.502 -0.1129 -0.7189  0.0930
 2721SOL    HW210937   0.747   0.307   4.553 -0.4455 -0.3067  0.8278
 2721SOL    HW310938   0.791   0.452   4.545  1.2394 -0.9132 -1.3411
 2721SOL    MW410939   0.744   0.385   4.514  0.0216 -0.6901  0.0014
 2722SOL     OW10940   3.387   1.336   4.553  0.4247 -0.2474 -0.1248
 2722SOL    HW210941   3.310   1.370   4.599 -0.5843  0.4771 -2.2635
 2722SOL    HW310942   3.397   1.247   4.586 -1.1171 -0.2253  0.4688
 2722SOL    MW410943   3.378   1.328   4.564  0.0882 -0.1488 -0.3285
 2723SOL     OW10944   2.466   1.270   4.275 -0.3675  0.1231 -0.0363
 2723SOL    HW210945   2.554   1.252   4.243  0.3817  1.5583  1.1367
 2723SOL    HW310946   2.445   1.356   4.238 -0.7834  0.3317  0.6766
 2723SOL    MW410947   2.475   1.279   4.266 -0.3238  0.3400  0.2127
 2724SOL     OW10948   3.408   2.833   4.260  0.3823  0.1321 -0.1194
 2724SOL    HW210949   3.347   2.779   4.212  0.2530  0.3913 -0.2499
 2724SOL    HW310950   3.494   2.795   4.242  0.4024  0.6027 -1.0732
 2724SOL    MW410951   3.411   2.821   4.251  0.3676  0.2286 -0.2623
 2725SOL     OW10952   0.314   2.287   4.660 -0.1568 -0.2080 -0.6258
 2725SOL    HW210953   0.222   2.295   4.635 -0.4860  0.1190  0.6424
 2725SOL    HW310954   0.347   2.215   4.607 -1.3302 -0.7803 -0.5907
 2725SOL    MW410955   0.306   2.279   4.650 -0.3550 -0.2406 -0.4539
 2726SOL     OW10956   3.222   0.736   4.561 -0.1771 -0.4188  0.3448
 2726SOL    HW210957   3.185   0.823   4.548  0.8119 -0.0607 -0.1229
 2726SOL    HW310958   3.283   0.725   4.488  0.2251 -1.2227  0.7987
 2726SOL    MW410959   3.225   0.746   4.550  0.0064 -0.4776  0.3428
 2727SOL     OW10960   1.128   0.574   4.523 -0.5176 -0.1677  0.2993
 2727SOL    HW210961   1.176   0.517   4.582  1.4889  0.0135 -1.1210
 2727SOL    HW310962   1.157   0.662   4.545 -0.6459 -0.0080 -0.1670
 2727SOL    MW410963   1.138   0.578   4.534 -0.2698 -0.1227  0.0501
 2728SOL     OW10964   0.172   3.401   4.685  0.3367 -0.2690 -0.1763
 2728SOL    HW210965   0.139   3.433   4.769  0.2046 -1.4057  0.2103
 2728SOL    HW310966   0.115   3.327   4.664  1.0190 -0.6255 -0.7697
 2728SOL    MW410967   0.160   3.395   4.693  0.4093 -0.4661 -0.2036
 2729SOL     OW10968   1.163   2.916   4.708  0.0424 -0.5100  0.1316
 2729SOL    HW210969   1.113   2.874   4.778 -1.2070  0.3907 -0.1916
 2729SOL    HW310970   1.097   2.961   4.655  1.0756 -0.3626 -1.0610
 2729SOL    MW410971   1.147   2.917   4.710  0.0137 -0.3717 -0.0687
 2730SOL     OW10972   2.071   3.174   4.828  0.0816  0.3588 -0.0853
 2730SOL    HW210973   2.121   3.094   4.839  0.1858  0.4284 -0.0542
 2730SOL    HW310974   2.137   3.242   4.813  0.1085  0.7380  1.5984
 2730SOL    MW410975   2.086   3.172   4.828  0.0989  0.4182  0.1407
 2731SOL     OW10976   1.293   3.222   4.549 -0.2654 -0.2388  0.3431
 2731SOL    HW210977   1.350   3.155   4.586  0.2194  1.0124  1.9373
 2731SOL    HW310978   1.219   3.226   4.610 -2.1788 -1.9698 -1.8002
 2731SOL    MW410979   1.291   3.214   4.562 -0.4539 -0.3021  0.2708
 2732SOL     OW10980   1.573   0.461   4.302 -0.0731  0.3165  0.1314
 2732SOL    HW210981   1.588   0.551   4.274 -0.7940  0.7207  1.0260
 2732SOL    HW310982   1.592   0.461   4.396  0.5973 -0.6224  0.0082
 2732SOL    MW410983   1.578   0.472   4.311 -0.0796  0.2460  0.2332
 2733SOL     OW10984   0.429   3.808   4.605  0.2591 -0.0589  0.3851
 2733SOL    HW210985   0.505   3.753   4.587 -0.2777 -0.7246  0.1200
 2733SOL    HW310986   0.354   3.749   4.594 -0.2671  0.4687  1.1054
 2733SOL    MW410987   0.429   3.793   4.601  0.1189 -0.0775  0.4444
 2734SOL     OW10988   4.265   3.040   4.631 -0.1035  0.0003  0.0228
 2734SOL    HW210989   4.342   3.089   4.603 -0.2482 -0.6226 -1.5670
 2734SOL    HW310990   4.298   2.951   4.649 -0.2265  0.0771  0.6320
 2734SOL    MW410991   4.279   3.034   4.629 -0.1392 -0.0715 -0.1068
 2735SOL     OW10992   2.689   3.189   4.229  0.1773  0.0196  0.2096
 2735SOL    HW210993   2.618   3.142   4.186 -0.5942  0.1150  1.3690
 2735SOL    HW310994   2.681   3.279   4.198 -0.7305  0.2130  0.9936
 2735SOL    MW410995   2.679   3.195   4.219 -0.0439  0.0577  0.4659
 2736SOL     OW10996   3.393   2.307   4.177 -0.0444  0.3164 -0.2749
 2736SOL    HW210997   3.408   2.317   4.083  1.8826  0.3929  0.0129
 2736SOL    HW310998   3.470   2.347   4.218 -1.2743  1.0605  1.3626
 2736SOL    MW410999   3.405   2.313   4.170  0.0479  0.4246 -0.0210
 2737SOL     OW11000   3.103   2.931   4.764 -0.0368  0.2026 -0.0434
 2737SOL    HW211001   3.030   2.992   4.752  0.8379  1.3598  0.4201
 2737SOL    HW311002   3.083   2.858   4.706 -1.5278  0.5468  0.0282
 2737SOL    MW411003   3.091   2.929   4.755 -0.1183  0.4008  0.0272
 2738SOL     OW11004   4.460   0.892   4.600 -0.4053 -0.3779  0.4265
 2738SOL    HW211005   4.443   0.891   4.506 -1.7607 -0.1084  0.6570
 2738SOL    HW311006   4.532   0.954   4.611 -0.5718 -0.0379 -0.3747
 2738SOL    MW411007   4.467   0.900   4.589 -0.6061 -0.2974  0.3514
 2739SOL     OW11008   0.473   3.295   4.705  0.3853  0.1645 -0.3669
 2739SOL    HW211009   0.409   3.365   4.692 -0.1470 -0.0092  1.2883
 2739SOL    HW311010   0.430   3.216   4.672 -0.0190  0.1544  0.1834
 2739SOL    MW411011   0.459   3.294   4.699  0.2618  0.1402 -0.0758
 2740SOL     OW11012   0.936   2.460   4.239 -0.4390 -0.1310  0.3299
 2740SOL    HW211013   1.017   2.418   4.212 -1.0458 -0.4445 -1.0409
 2740SOL    HW311014   0.867   2.408   4.199 -1.3936 -0.6746  2.5823
 2740SOL    MW411015   0.937   2.448   4.230 -0.6450 -0.2441  0.4463
 2741SOL     OW11016   2.026   3.855   4.178  0.2405 -0.0110  0.6111
 2741SOL    HW211017   1.953   3.898   4.224  0.4945 -0.1380  1.1367
 2741SOL    HW311018   2.006   3.867   4.085  0.4988  1.5475  0.7532
 2741SOL    MW411019   2.014   3.862   4.172  0.3083  0.1779  0.7000
 2742SOL     OW11020   0.887   4.009   4.242  0.0747  0.1536 -0.4914
 2742SOL    HW211021   0.877   4.101   4.216  1.1124 -0.5881 -3.6346
 2742SOL    HW311022   0.800   3.971   4.227  0.3704 -0.0040 -1.8782
 2742SOL    MW411023   0.874   4.016   4.237  0.2506  0.0348 -1.0891
 2743SOL     OW11024   1.996   0.431   4.273 -0.7046 -0.6392 -0.0692
 2743SOL    HW211025   2.074   0.405   4.223 -0.1998  1.0926 -0.2394
 2743SOL    HW311026   2.023   0.427   4.364 -0.2705  0.3615 -0.1463
 2743SOL    MW411027   2.010   0.427   4.278 -0.5810 -0.2787 -0.1020
 2744SOL     OW11028   2.243   0.078   4.236 -0.4136  0.0020  0.6177
 2744SOL    HW211029   2.312   0.022   4.201  0.1574 -0.1763  1.9800
 2744SOL    HW311030   2.162   0.029   4.222 -0.1882 -0.0795 -0.4006
 2744SOL    MW411031   2.242   0.064   4.230 -0.3088 -0.0323  0.6633
 2745SOL     OW11032   1.752   0.100   4.609 -0.5811  0.0097 -0.0410
 2745SOL    HW211033   1.660   0.094   4.633 -0.2347  0.8948  1.5528
 2745SOL    HW311034   1.789   0.164   4.669  1.0144 -0.0974 -0.8727
 2745SOL    MW411035   1.745   0.107   4.620 -0.3250  0.1124  0.0596
 2746SOL     OW11036   2.765   2.122   4.823 -0.2921  0.2560  0.4544
 2746SOL    HW211037   2.822   2.199   4.819  1.0822 -0.7791 -0.3127
 2746SOL    HW311038   2.737   2.108   4.732 -0.0882 -0.4575  0.4936
 2746SOL    MW411039   2.769   2.130   4.810 -0.0837  0.0253  0.3581
 2747SOL     OW11040   0.466   3.184   4.308 -0.4853 -0.0568 -0.2277
 2747SOL    HW211041   0.515   3.126   4.250  2.5798  2.8131 -0.6437
 2747SOL    HW311042   0.478   3.272   4.270 -2.0095  1.3295  2.3617
 2747SOL    MW411043   0.474   3.188   4.295 -0.2820  0.5047  0.0591
 2748SOL     OW11044   2.275   2.115   4.786 -0.4867 -0.5249 -0.2826
 2748SOL    HW211045   2.227   2.195   4.808 -1.1738 -0.8320 -0.6464
 2748SOL    HW311046   2.351   2.116   4.844 -0.3729  0.5015 -0.4352
 2748SOL    MW411047   2.279   2.126   4.797 -0.5627 -0.4301 -0.3510
 2749SOL     OW11048   2.936   1.291   4.233  0.0822  0.3658  0.0674
 2749SOL    HW211049   3.010   1.252   4.186 -0.9106  0.3626 -1.5580
 2749SOL    HW311050   2.859   1.246   4.197 -0.7983  1.2303  0.8539
 2749SOL    MW411051   2.936   1.280   4.222 -0.1647  0.4796 -0.0429
 2750SOL     OW11052   1.324   1.511   4.512  0.1562 -0.1150 -0.1362
 2750SOL    HW211053   1.402   1.459   4.531 -0.9505 -1.5826  0.4127
 2750SOL    HW311054   1.251   1.454   4.533 -1.0878  0.9810 -1.3769
 2750SOL    MW411055   1.325   1.497   4.517 -0.1538 -0.1640 -0.2275
 2751SOL     OW11056   0.381   4.301   4.153  0.0215 -0.4767  0.3711
 2751SOL    HW211057   0.366   4.301   4.059  0.6287  0.4928  0.2659
 2751SOL    HW311058   0.298   4.328   4.191 -0.1370 -0.5901  0.1064
 2751SOL    MW411059   0.368   4.304   4.146  0.0807 -0.3638  0.3223
 2752SOL     OW11060   1.999   2.806   4.246 -0.3847  0.0790  0.2214
 2752SOL    HW211061   2.006   2.819   4.340  2.8321 -0.8523  0.1870
 2752SOL    HW311062   2.002   2.894   4.209  0.0978  0.3603  0.9260
 2752SOL    MW411063   2.000   2.819   4.253  0.1032 -0.0069  0.3099
 2753SOL     OW11064   3.553   2.188   4.581  0.3349  1.0009 -0.1669
 2753SOL    HW211065   3.474   2.170   4.633 -0.6443  1.0736 -1.5899
 2753SOL    HW311066   3.532   2.154   4.494  1.3436  2.2750 -0.9245
 2753SOL    MW411067   3.540   2.181   4.576  0.3388  1.1785 -0.4544
 2754SOL     OW11068   1.488   0.817   4.630 -0.2957 -0.3155  0.1196
 2754SOL    HW211069   1.565   0.865   4.601 -0.2851 -1.0561 -1.0908
 2754SOL    HW311070   1.516   0.725   4.630 -0.7670 -0.4690  1.0034
 2754SOL    MW411071   1.502   0.811   4.626 -0.3566 -0.4335  0.0763
 2755SOL     OW11072   2.244   3.259   4.464  0.1812 -0.3420  0.0800
 2755SOL    HW211073   2.154   3.271   4.495  0.5309  1.6700  0.3850
 2755SOL    HW311074   2.270   3.174   4.500 -1.5536 -0.9128  0.0568
 2755SOL    MW411075   2.235   3.249   4.473 -0.0017 -0.1521  0.1173
 2756SOL     OW11076   2.146   0.431   4.517  0.2748  0.1640 -0.3732
 2756SOL    HW211077   2.181   0.343   4.504  0.2452  0.5819 -3.5386
 2756SOL    HW311078   2.220   0.482   4.550  0.4965 -0.8154  0.6958
 2756SOL    MW411079   2.160   0.426   4.520  0.3002  0.0899 -0.6499
 2757SOL     OW11080   4.036   0.100   4.276  0.0472  0.4728 -0.2343
 2757SOL    HW211081   3.979   0.049   4.218  0.0548 -0.0406  0.2123
 2757SOL    HW311082   4.035   0.188   4.238  0.0071  0.1554 -0.9850
 2757SOL    MW411083   4.029   0.105   4.263  0.0434  0.3632 -0.2742
 2758SOL     OW11084   3.765   3.237   4.664 -0.1778  0.0512 -0.3766
 2758SOL    HW211085   3.700   3.170   4.648 -0.0000 -0.3217  0.4328
 2758SOL    HW311086   3.848   3.198   4.638 -0.0056 -0.2390  0.5804
 2758SOL    MW411087   3.768   3.223   4.658 -0.1318 -0.0362 -0.1440
 2759SOL     OW11088   3.838   1.125   4.514 -0.2518  0.0107 -0.1008
 2759SOL    HW211089   3.850   1.180   4.437 -0.2869  0.8961  0.5123
 2759SOL    HW311090   3.765   1.068   4.492 -0.9032  0.9220 -0.3643
 2759SOL    MW411091   3.830   1.125   4.501 -0.3424  0.2477 -0.0548
 2760SOL     OW11092   0.016   3.192   4.588 -0.0540  0.1159 -0.2633
 2760SOL    HW211093   0.006   3.203   4.494 -0.4351  1.3333 -0.0860
 2760SOL    HW311094   0.102   3.151   4.598  0.1969  0.4148 -1.1202
 2760SOL    MW411095   0.026   3.188   4.577 -0.0712  0.3161 -0.3529
 2761SOL     OW11096   3.153   0.992   4.483 -0.2212 -0.0882  0.3159
 2761SOL    HW211097   3.098   1.069   4.491  0.4278  0.6132 -1.6323
 2761SOL    HW311098   3.239   1.020   4.515 -0.1272 -0.1574  0.1276
 2761SOL    MW411099   3.157   1.006   4.488 -0.1233 -0.0046  0.0339
 2762SOL     OW11100   4.096   1.661   4.488 -0.3940 -0.1077 -0.1416
 2762SOL    HW211101   4.068   1.742   4.531 -0.2126 -0.4053  0.5385
 2762SOL    HW311102   4.091   1.595   4.557 -0.0780 -0.5810 -0.5777
 2762SOL    MW411103   4.091   1.663   4.503 -0.3285 -0.2095 -0.1097
 2763SOL     OW11104   4.013   4.198   4.160 -0.1519  0.0897 -0.5803
 2763SOL    HW211105   4.054   4.280   4.188  1.5570 -0.1320 -2.3012
 2763SOL    HW311106   4.038   4.135   4.227 -1.3574  0.9354  0.6807
 2763SOL    MW411107   4.022   4.201   4.172 -0.0854  0.1717 -0.6409
 2764SOL     OW11108   3.152   1.463   4.646  0.1003  0.3406  0.1144
 2764SOL    HW211109   3.090   1.482   4.717 -0.7068  0.1596 -0.5414
 2764SOL    HW311110   3.164   1.548   4.602 -0.3981  0.1859 -0.3266
 2764SOL    MW411111   3.146   1.477   4.650 -0.0718  0.2962 -0.0305
 2765SOL     OW11112   0.031   4.403   4.509  0.5838  0.1939 -0.0210
 2765SOL    HW211113   0.055   4.475   4.568  1.1053  0.2567 -0.3123
 2765SOL    HW311114  -0.064   4.393   4.522  0.4260  1.2109 -0.2849
 2765SOL    MW411115   0.021   4.411   4.519  0.6319  0.3362 -0.0944
 2766SOL     OW11116   2.860   1.900   5.008  0.0626 -0.2606 -0.0693
 2766SOL    HW211117   2.847   1.969   4.944  0.8168 -0.2665 -0.2253
 2766SOL    HW311118   2.892   1.825   4.958  0.3422 -0.3672  0.2613
 2766SOL    MW411119   2.862   1.899   4.993  0.1993 -0.2754 -0.0458
 2767SOL     OW11120   1.761   1.911   4.184  0.6367 -0.2054 -0.5034
 2767SOL    HW211121   1.835   1.964   4.213  0.8704 -0.5924 -0.3850
 2767SOL    HW311122   1.767   1.831   4.237 -0.1152 -0.0602 -0.1899
 2767SOL    MW411123   1.772   1.907   4.195  0.5684 -0.2373 -0.4468
 2768SOL     OW11124   3.426   0.588   4.736 -0.3369 -0.2206  0.1748
 2768SOL    HW211125   3.349   0.630   4.699 -0.2586  1.0267  1.3947
 2768SOL    HW311126   3.415   0.495   4.714 -0.2966  0.4437 -2.9106
 2768SOL    MW411127   3.414   0.581   4.728 -0.3211  0.0317 -0.0715
 2769SOL     OW11128   2.659   1.904   4.225 -0.2137 -0.4351  0.2135
 2769SOL    HW211129   2.655   1.901   4.130  1.1458 -1.3560  0.1612
 2769SOL    HW311130   2.577   1.946   4.252 -0.4624  0.1198 -1.3648
 2769SOL    MW411131   2.648   1.909   4.216 -0.0672 -0.4834 -0.0014
 2770SOL     OW11132   2.238   3.710   4.629  0.7857 -0.1624  0.5431
 2770SOL    HW211133   2.230   3.694   4.723 -0.9994 -0.1780  0.4095
 2770SOL    HW311134   2.258   3.803   4.622 -1.2515  0.3240  0.8776
 2770SOL    MW411135   2.240   3.720   4.640  0.2816 -0.1004  0.5698
 2771SOL     OW11136   1.175   2.312   4.169 -0.1023  0.2255  0.2247
 2771SOL    HW211137   1.160   2.228   4.212 -1.3891 -0.5358 -1.7111
 2771SOL    HW311138   1.231   2.360   4.231 -1.0537 -1.2401  2.2879
 2771SOL    MW411139   1.180   2.308   4.183 -0.3977 -0.0684  0.2418
 2772SOL     OW11140   1.433   3.004   4.659  0.3289  0.7130 -0.2514
 2772SOL    HW211141   1.470   3.047   4.736  0.2969  1.8617 -0.8705
 2772SOL    HW311142   1.348   2.972   4.689  0.1862  1.4252  0.1174
 2772SOL    MW411143   1.426   3.005   4.673  0.3059  0.9587 -0.2842
 2773SOL     OW11144   2.258   0.146   4.496  0.0578 -0.1611 -0.2650
 2773SOL    HW211145   2.253   0.127   4.403 -1.3906  1.7313 -0.6304
 2773SOL    HW311146   2.191   0.090   4.536 -0.2613  0.0047 -0.5633
 2773SOL    MW411147   2.248   0.136   4.489 -0.1755  0.1104 -0.3524
 2774SOL     OW11148   3.098   1.717   4.519 -0.0910  0.6190  0.0973
 2774SOL    HW211149   3.179   1.759   4.546 -0.6373  1.4828  0.4295
 2774SOL    HW311150   3.030   1.782   4.537 -0.9490 -0.3836  0.5608
 2774SOL    MW411151   3.099   1.731   4.525 -0.2766  0.6008  0.2022
 2775SOL     OW11152   1.567   3.594   4.242  0.0444 -0.0698 -0.0581
 2775SOL    HW211153   1.487   3.559   4.203 -0.5754  1.2009  0.0329
 2775SOL    HW311154   1.632   3.525   4.230 -0.6111 -0.4283 -1.7194
 2775SOL    MW411155   1.565   3.580   4.235 -0.1239  0.0510 -0.2656
 2776SOL     OW11156   3.207   2.429   4.466 -0.0953  0.1922 -0.2309
 2776SOL    HW211157   3.281   2.486   4.485  0.0603 -0.3907  0.9153
 2776SOL    HW311158   3.138   2.457   4.526 -0.5459  0.1927 -0.7342
 2776SOL    MW411159   3.207   2.440   4.476 -0.1342  0.1154 -0.1459
 2777SOL     OW11160   0.229   2.847   4.239 -0.3266 -0.2261  0.0562
 2777SOL    HW211161   0.317   2.821   4.209 -0.5274 -0.8628  0.0137
 2777SOL    HW311162   0.227   2.942   4.225 -0.0159 -0.3540 -0.9239
 2777SOL    MW411163   0.241   2.856   4.233 -0.3121 -0.3269 -0.0787
 2778SOL     OW11164   2.923   1.939   4.527 -0.1925 -0.0971 -0.6315
 2778SOL    HW211165   2.979   2.009   4.560  1.0603 -0.6199 -1.5873
 2778SOL    HW311166   2.889   1.972   4.444 -1.3261  0.2223 -0.0490
 2778SOL    MW411167   2.926   1.953   4.520 -0.1767 -0.1241 -0.6809
 2779SOL     OW11168   4.116   2.519   4.556 -0.0267 -0.1770 -0.2740
 2779SOL    HW211169   4.163   2.602   4.561  0.0807 -0.2880  0.6782
 2779SOL    HW311170   4.029   2.538   4.593 -0.5464 -0.1041 -1.5224
 2779SOL    MW411171   4.110   2.532   4.562 -0.0815 -0.1822 -0.3133
 2780SOL     OW11172   3.177   3.289   4.505  0.2493  0.0519  0.3170
 2780SOL    HW211173   3.258   3.340   4.503  0.5658 -0.4779 -0.2594
 2780SOL    HW311174   3.156   3.274   4.413  0.2913 -1.0935  0.4927
 2780SOL    MW411175   3.185   3.294   4.493  0.2968 -0.1690  0.2632
 2781SOL     OW11176   2.671   3.971   4.206 -0.5855  0.0374  0.1892
 2781SOL    HW211177   2.657   4.065   4.207  0.1730  0.1415  1.4099
 2781SOL    HW311178   2.592   3.935   4.165 -1.3339  1.1144  0.6811
 2781SOL    MW411179   2.659   3.978   4.201 -0.5841  0.1931  0.4148
 2782SOL     OW11180   1.016   3.498   4.543 -0.1716  0.0273 -0.3332
 2782SOL    HW211181   0.955   3.474   4.613  1.2786 -1.7398  0.4028
 2782SOL    HW311182   1.102   3.477   4.580  0.8231  1.8341 -1.5865
 2782SOL    MW411183   1.020   3.492   4.557  0.1509  0.0324 -0.4010
 2783SOL     OW11184   3.893   0.607   4.536  0.0697 -0.3119 -0.4916
 2783SOL    HW211185   3.959   0.541   4.560  0.2467 -0.2278 -0.7481
 2783SOL    HW311186   3.935   0.691   4.555 -0.4896 -0.2873  0.7012
 2783SOL    MW411187   3.907   0.609   4.542  0.0191 -0.2975 -0.3681
 2784SOL     OW11188   2.323   3.019   4.580 -0.0058 -0.0022 -0.4171
 2784SOL    HW211189   2.402   2.971   4.555 -0.0842  0.1037 -0.8657
 2784SOL    HW311190   2.311   2.998   4.673  1.2579  0.9709 -0.0128
 2784SOL    MW411191   2.332   3.010   4.589  0.1507  0.1402 -0.4230
 2785SOL     OW11192   1.588   1.906   4.544 -0.1033 -0.0988  0.1456
 2785SOL    HW211193   1.570   1.952   4.462 -0.5308  0.5763  0.6084
 2785SOL    HW311194   1.573   1.972   4.612 -0.6291 -0.8972  0.8179
 2785SOL    MW411195   1.584   1.921   4.542 -0.2291 -0.1150  0.2952
 2786SOL     OW11196   0.266   1.360   4.543 -0.3681  0.3402  0.2332
 2786SOL    HW211197   0.259   1.334   4.451 -0.7770 -0.3148  0.4428
 2786SOL    HW311198   0.175   1.373   4.571 -0.1517  3.0428 -0.1435
 2786SOL    MW411199   0.253   1.359   4.535 -0.3935  0.6104  0.2117
 2787SOL     OW11200   1.387   2.508   4.572 -0.0001  0.2105 -0.0478
 2787SOL    HW211201   1.480   2.522   4.589  0.0932 -0.5065  0.0317
 2787SOL    HW311202   1.382   2.490   4.478  0.0512 -0.7032  0.1261
 2787SOL    MW411203   1.399   2.508   4.561  0.0190 -0.0045 -0.0143
 2788SOL     OW11204   2.318   3.341   4.884  0.0358  0.5781  0.1880
 2788SOL    HW211205   2.378   3.277   4.922 -1.3465 -1.1073 -0.4088
 2788SOL    HW311206   2.362   3.370   4.804  0.3994 -0.0632  0.1502
 2788SOL    MW411207   2.332   3.336   4.878 -0.0987  0.2713  0.1044
 2789SOL     OW11208   3.138   1.953   4.160 -0.0259  0.4199  0.1191
 2789SOL    HW211209   3.171   2.013   4.227  0.0751  0.3627  0.1220
 2789SOL    HW311210   3.134   1.868   4.204 -0.2228  0.4357  0.1321
 2789SOL    MW411211   3.142   1.949   4.175 -0.0386  0.4144  0.1211
 2790SOL     OW11212   3.855   2.037   4.306 -0.8794 -0.2978  0.2394
 2790SOL    HW211213   3.859   2.130   4.285 -0.5069 -0.8272 -2.2550
 2790SOL    HW311214   3.764   2.012   4.289 -1.1003 -0.3103  1.3794
 2790SOL    MW411215   3.844   2.046   4.301 -0.8595 -0.3693  0.0610
 2791SOL     OW11216   0.861   0.592   4.649  0.2121 -0.0498 -0.0704
 2791SOL    HW211217   0.832   0.681   4.628  1.7655  0.7612  1.0922
 2791SOL    HW311218   0.950   0.587   4.614 -0.0440 -1.3386 -0.5825
 2791SOL    MW411219   0.869   0.603   4.641  0.3833 -0.1128  0.0157
 2792SOL     OW11220   3.349   0.791   4.109  0.3823  0.5321 -0.1103
 2792SOL    HW211221   3.274   0.830   4.154 -1.0554 -1.2820 -0.8620
 2792SOL    HW311222   3.368   0.711   4.159 -0.1432 -0.5920 -1.6470
 2792SOL    MW411223   3.341   0.785   4.121  0.1230  0.1444 -0.4125
 2793SOL     OW11224   3.598   0.109   4.285 -0.0322 -0.1536  0.2446
 2793SOL    HW211225   3.604   0.110   4.381  0.4609  0.7651  0.2121
 2793SOL    HW311226   3.594   0.202   4.261 -2.1671 -0.4120 -0.5093
 2793SOL    MW411227   3.598   0.122   4.295 -0.2487 -0.0665  0.1407
 2794SOL     OW11228   0.480   0.410   4.618  0.0172  0.0216 -0.4822
 2794SOL    HW211229   0.466   0.320   4.647  0.4175  0.0211 -0.2977
 2794SOL    HW311230   0.559   0.407   4.565  0.8190  0.5078  0.6537
 2794SOL    MW411231   0.489   0.398   4.615  0.1758  0.0857 -0.3076
 2795SOL     OW11232   3.855   2.830   4.232 -0.2937  0.2365 -0.3360
 2795SOL    HW211233   3.772   2.782   4.224 -0.4861  0.5788 -0.3760
 2795SOL    HW311234   3.864   2.846   4.326  0.7539 -1.6198 -0.0890
 2795SOL    MW411235   3.845   2.826   4.243 -0.1810  0.0365 -0.3080
 2796SOL     OW11236   1.320   0.850   4.256  0.5411  0.0787 -0.0364
 2796SOL    HW211237   1.398   0.808   4.219  1.5583  0.7993  1.2326
 2796SOL    HW311238   1.341   0.943   4.259 -0.5480  0.3378 -0.0779
 2796SOL    MW411239   1.333   0.857   4.252  0.5317  0.2080  0.1254
 2797SOL     OW11240   3.617   2.412   4.298 -0.0455 -0.3958  0.2541
 2797SOL    HW211241   3.695   2.369   4.261  1.0625  1.2428  0.6695
 2797SOL    HW311242   3.632   2.411   4.392  0.3637  1.5725  0.2281
 2797SOL    MW411243   3.630   2.406   4.305  0.1547  0.0799  0.3057
 2798SOL     OW11244   0.970   0.360   4.817  0.0556  0.1422  0.4745
 2798SOL    HW211245   0.985   0.377   4.910 -0.6377  0.9230  0.4448
 2798SOL    HW311246   0.913   0.431   4.788  0.1939 -0.1479 -0.5288
 2798SOL    MW411247   0.965   0.371   4.826 -0.0176  0.2069  0.3381
 2799SOL     OW11248   2.577   1.885   4.961  0.0144 -0.1567  0.2249
 2799SOL    HW211249   2.538   1.972   4.967 -1.1030 -0.6483  0.2244
 2799SOL    HW311250   2.657   1.891   5.013  0.3819  1.0999 -0.4512
 2799SOL    MW411251   2.583   1.897   4.969 -0.0842 -0.0559  0.1354
 2800SOL     OW11252   0.095   4.135   4.521  0.0891  0.1460  0.3968
 2800SOL    HW211253   0.024   4.103   4.577  0.3388 -0.3106  0.4542
 2800SOL    HW311254   0.081   4.229   4.515 -1.2457 -0.0976 -0.5843
 2800SOL    MW411255   0.084   4.143   4.527 -0.0541  0.0534  0.2742
 2801SOL     OW11256   2.927   3.408   4.616  0.1889 -0.0804 -0.5310
 2801SOL    HW211257   2.849   3.379   4.568  0.5259 -1.0596 -0.4927
 2801SOL    HW311258   2.999   3.359   4.576  0.7080  0.3989 -0.1878
 2801SOL    MW411259   2.926   3.398   4.604  0.3018 -0.1462 -0.4807
 2802SOL     OW11260   0.234   2.841   4.520  0.1967 -0.0514 -0.0475
 2802SOL    HW211261   0.221   2.832   4.425  0.7598  1.4961 -0.2765
 2802SOL    HW311262   0.173   2.778   4.558  0.1028 -0.8355 -1.4399
 2802SOL    MW411263   0.224   2.831   4.512  0.2586  0.0496 -0.2613
 2803SOL     OW11264   4.276   4.626   4.193  0.3908 -0.2587 -0.3949
 2803SOL    HW211265   4.201   4.677   4.223  0.4244 -0.4995  0.0988
 2803SOL    HW311266   4.255   4.536   4.217  0.6929 -0.3701 -0.5464
 2803SOL    MW411267   4.264   4.621   4.200  0.4354 -0.3057 -0.3495
 2804SOL     OW11268   3.584   1.532   4.570 -0.4956  0.1768 -0.1224
 2804SOL    HW211269   3.664   1.490   4.601  0.2166  0.9179 -0.9311
 2804SOL    HW311270   3.517   1.463   4.575 -0.0434 -0.1556  1.5255
 2804SOL    MW411271   3.586   1.517   4.575 -0.3419  0.2307 -0.0119
 2805SOL     OW11272   0.658   1.226   4.326 -0.0101  0.1140  0.3348
 2805SOL    HW211273   0.627   1.236   4.416 -1.1636  0.0949 -0.0458
 2805SOL    HW311274   0.678   1.315   4.297 -1.5308  0.3445 -0.0372
 2805SOL    MW411275   0.657   1.239   4.334 -0.3629  0.1420  0.2356
 2806SOL     OW11276   1.320   0.053   4.302 -0.4067 -0.2437  0.3433
 2806SOL    HW211277   1.401   0.008   4.278  0.1073  0.5621  0.5585
 2806SOL    HW311278   1.339   0.146   4.286 -1.2480 -0.0455  0.5099
 2806SOL    MW411279   1.333   0.060   4.296 -0.4499 -0.1112  0.3939
 2807SOL     OW11280   2.068   2.846   4.544  0.0962 -0.2653  0.4200
 2807SOL    HW211281   1.999   2.882   4.599 -1.3252  0.3858 -1.7400
 2807SOL    HW311282   2.146   2.896   4.569 -0.9776  1.4636  0.4047
 2807SOL    MW411283   2.070   2.858   4.554 -0.2327  0.0489  0.1330
 2808SOL     OW11284   2.235   2.704   4.088 -0.2438 -0.2204  0.3828
 2808SOL    HW211285   2.159   2.738   4.136 -0.0340 -0.2826  0.7553
 2808SOL    HW311286   2.311   2.735   4.137 -0.0477 -1.4832  0.9142
 2808SOL    MW411287   2.235   2.712   4.101 -0.1903 -0.3953  0.5016
 2809SOL     OW11288   3.690   3.444   4.468  0.4279 -0.0552 -0.1704
 2809SOL    HW211289   3.646   3.384   4.409 -1.1856 -0.6414  1.5728
 2809SOL    HW311290   3.723   3.389   4.539  0.5022  0.8722  0.5375
 2809SOL    MW411291   3.689   3.429   4.470  0.2246 -0.0100  0.1531
 2810SOL     OW11292   3.102   0.138   4.249 -0.5675  0.2625  0.2814
 2810SOL    HW211293   3.185   0.100   4.221  0.6077  2.1558  1.0609
 2810SOL    HW311294   3.035   0.078   4.216  1.0266 -0.3971 -1.8329
 2810SOL    MW411295   3.104   0.125   4.241 -0.2024  0.4253  0.1054
 2811SOL     OW11296   2.461   1.170   4.558  0.5405  0.6469  0.6362
 2811SOL    HW211297   2.457   1.201   4.468 -0.5808  0.4644  0.6058
 2811SOL    HW311298   2.554   1.169   4.580  0.7845  1.1486 -0.3579
 2811SOL    MW411299   2.473   1.174   4.549  0.4246  0.6890  0.5012
 2812SOL     OW11300   1.826   0.309   4.793 -0.1663  0.0340 -0.4596
 2812SOL    HW211301   1.871   0.383   4.753 -0.9921 -0.0694 -1.6248
 2812SOL    HW311302   1.739   0.343   4.815 -1.0476 -0.9420 -2.2993
 2812SOL    MW411303   1.820   0.323   4.790 -0.3915 -0.1084 -0.8554
 2813SOL     OW11304   2.670   1.407   4.828  0.3702  0.0552 -0.1636
 2813SOL    HW211305   2.652   1.454   4.746 -2.0920 -2.2688 -1.0416
 2813SOL    HW311306   2.672   1.315   4.802 -0.1034 -0.6897  2.3433
 2813SOL    MW411307   2.668   1.401   4.814 -0.0169 -0.3499  0.0510
 2814SOL     OW11308   1.971   0.803   4.671 -0.8473  0.0633  0.2123
 2814SOL    HW211309   1.991   0.801   4.765 -1.6982  0.5939  0.4078
 2814SOL    HW311310   2.046   0.847   4.632 -0.1161 -0.8617  0.5430
 2814SOL    MW411311   1.984   0.808   4.678 -0.8630  0.0113  0.2823
 2815SOL     OW11312   4.221   1.021   4.691  0.0935 -0.0892 -0.2790
 2815SOL    HW211313   4.290   0.955   4.684 -0.6179 -0.7928 -0.7236
 2815SOL    HW311314   4.139   0.971   4.682 -0.4393  0.8976 -1.0028
 2815SOL    MW411315   4.219   1.005   4.689 -0.0710 -0.0519 -0.4330
 2816SOL     OW11316   0.231   3.590   4.278  0.2643  0.6082 -0.3458
 2816SOL    HW211317   0.149   3.545   4.257  1.1514 -0.6340 -1.2222
 2816SOL    HW311318   0.223   3.613   4.370  0.2393 -2.3422  0.4208
 2816SOL    MW411319   0.219   3.587   4.287  0.3780  0.0551 -0.3605
 2817SOL     OW11320   3.393   1.729   4.632  0.3306  0.2294  0.0709
 2817SOL    HW211321   3.410   1.792   4.562 -0.7490 -1.3558 -1.6774
 2817SOL    HW311322   3.467   1.668   4.627  0.4799  0.3687  0.6003
 2817SOL    MW411323   3.405   1.729   4.622  0.2081  0.0386 -0.0901
 2818SOL     OW11324   1.761   0.059   4.305 -0.3348  0.2886  0.0223
 2818SOL    HW211325   1.773   0.145   4.264 -2.0214  0.9912  0.9380
 2818SOL    HW311326   1.772   0.077   4.399 -1.1963 -0.4100  0.2526
 2818SOL    MW411327   1.764   0.073   4.312 -0.6710  0.2891  0.1731
 2819SOL     OW11328   2.687   1.618   4.302  0.0139  0.0833 -0.0619
 2819SOL    HW211329   2.684   1.608   4.397  0.4228 -1.1258 -0.1568
 2819SOL    HW311330   2.670   1.710   4.286  0.6798  0.4425  1.2342
 2819SOL    MW411331   2.685   1.629   4.312  0.1559 -0.0287  0.0963
 2820SOL     OW11332   0.072   2.365   4.548  0.3522  0.2199  0.1722
 2820SOL    HW211333  -0.017   2.345   4.576  0.4921 -0.1540  0.3580
 2820SOL    HW311334   0.064   2.386   4.455  0.0475  0.3440  0.2275
 2820SOL    MW411335   0.059   2.365   4.539  0.3304  0.1869  0.2041
 2821SOL     OW11336   1.505   3.194   4.863 -0.3551 -0.3731  0.0904
 2821SOL    HW211337   1.587   3.233   4.832  0.0252 -0.7660  0.5909
 2821SOL    HW311338   1.502   3.218   4.956  1.0388 -3.4808  0.9954
 2821SOL    MW411339   1.515   3.202   4.872 -0.1211 -0.8352  0.2761
 2822SOL     OW11340   1.999   1.238   4.299 -0.2799 -0.3046  0.1228
 2822SOL    HW211341   1.940   1.220   4.226  0.7832  1.5302 -1.2515
 2822SOL    HW311342   2.003   1.333   4.303  2.2419 -0.3965  0.4548
 2822SOL    MW411343   1.992   1.248   4.290  0.1930 -0.0746 -0.0148
 2823SOL     OW11344   3.057   2.788   4.524  0.4747 -0.5356 -0.6062
 2823SOL    HW211345   3.041   2.694   4.533  0.8003 -0.7260 -1.8840
 2823SOL    HW311346   3.152   2.796   4.523  0.4770  0.0242  1.4434
 2823SOL    MW411347   3.067   2.776   4.525  0.5183 -0.4866 -0.5045
 2824SOL     OW11348   3.385   2.584   4.630  0.3285  0.2464 -0.2010
 2824SOL    HW211349   3.379   2.679   4.620  0.4714  0.2752 -0.0142
 2824SOL    HW311350   3.335   2.565   4.709  1.3572  0.3109  0.4764
 2824SOL    MW411351   3.378   2.594   4.639  0.4830  0.2587 -0.0873
 2825SOL     OW11352   0.078   2.638   4.650  0.0013 -0.3575  0.2706
 2825SOL    HW211353   0.154   2.604   4.699  0.2523 -0.5018 -0.2118
 2825SOL    HW311354   0.044   2.561   4.604  0.3506 -0.0415 -0.5409
 2825SOL    MW411355   0.084   2.623   4.650  0.0805 -0.3350  0.0997
 2826SOL     OW11356   3.660   2.441   4.575  0.0177  0.3311 -0.3035
 2826SOL    HW211357   3.632   2.352   4.594  1.4318 -0.2087 -0.6806
 2826SOL    HW311358   3.590   2.496   4.610 -0.1474 -0.8537  1.2922
 2826SOL    MW411359   3.647   2.437   4.582  0.1826  0.1040 -0.1426
 2827SOL     OW11360   3.401   0.655   4.372 -0.0785 -0.2159  0.3541
 2827SOL    HW211361   3.469   0.662   4.439  0.0719 -0.3724  0.2197
 2827SOL    HW311362   3.362   0.569   4.387  0.8631 -0.8254 -0.6101
 2827SOL    MW411363   3.405   0.644   4.382  0.0656 -0.3170  0.2089
 2828SOL     OW11364   3.128   2.034   5.017 -0.0248 -0.0192  0.0933
 2828SOL    HW211365   3.157   1.975   4.948 -0.5036  0.5233 -0.5762
 2828SOL    HW311366   3.051   1.991   5.055 -0.9394  0.6135 -1.0174
 2828SOL    MW411367   3.122   2.021   5.013 -0.2086  0.1359 -0.1416
 2829SOL     OW11368   2.533   0.161   4.517 -0.1348  0.1354  0.4323
 2829SOL    HW211369   2.438   0.159   4.522 -0.2003  0.2829 -0.7186
 2829SOL    HW311370   2.556   0.254   4.525 -0.1037  0.1288  0.4234
 2829SOL    MW411371   2.524   0.173   4.519 -0.1395  0.1540  0.2799
 2830SOL     OW11372   2.706   3.265   4.523  0.0174  0.2199  0.1024
 2830SOL    HW211373   2.702   3.229   4.434 -0.2052  0.8281 -0.1426
 2830SOL    HW311374   2.620   3.306   4.535  1.1204  2.8149 -0.5654
 2830SOL    MW411375   2.694   3.266   4.513  0.1333  0.6423 -0.0181
 2831SOL     OW11376   3.098   2.157   4.607  0.0900 -0.6325  0.2518
 2831SOL    HW211377   3.038   2.222   4.643 -0.4834 -0.8948 -0.2180
 2831SOL    HW311378   3.183   2.176   4.648 -0.0163  0.5826 -0.0978
 2831SOL    MW411379   3.102   2.168   4.617  0.0002 -0.5066  0.1435
 2832SOL     OW11380   3.823   3.857   4.159  0.0572  0.0010  0.3054
 2832SOL    HW211381   3.752   3.903   4.205 -1.3641 -0.2887 -1.5074
 2832SOL    HW311382   3.804   3.764   4.173  0.9480 -0.0693  1.0689
 2832SOL    MW411383   3.811   3.851   4.167 -0.0126 -0.0465  0.1674
 2833SOL     OW11384   2.723   1.181   4.624 -0.3156  0.2455  0.7353
 2833SOL    HW211385   2.726   1.085   4.624 -0.2776  0.2048 -2.0896
 2833SOL    HW311386   2.802   1.208   4.577 -0.9051  1.6026  0.4841
 2833SOL    MW411387   2.733   1.172   4.618 -0.3881  0.4191  0.3295
 2834SOL     OW11388   2.879   4.633   4.178 -0.1271 -0.5597  0.3242
 2834SOL    HW211389   2.860   4.558   4.234 -1.5838  0.4120  1.1607
 2834SOL    HW311390   2.813   4.698   4.201 -0.3578  0.1074 -2.0634
 2834SOL    MW411391   2.868   4.632   4.188 -0.3500 -0.3433  0.1187
 2835SOL     OW11392   2.157   3.588   4.871 -0.2012 -0.0765  0.0877
 2835SOL    HW211393   2.193   3.505   4.903 -0.2791  0.1265  0.7225
 2835SOL    HW311394   2.063   3.580   4.884 -0.1624  0.3153  0.6625
 2835SOL    MW411395   2.149   3.576   4.877 -0.2062  0.0019  0.2475
 2836SOL     OW11396   2.660   0.120   4.248 -0.0033  0.1397 -0.1702
 2836SOL    HW211397   2.678   0.210   4.222  0.6091  0.2690  0.6980
 2836SOL    HW311398   2.630   0.127   4.339 -0.1522 -0.5089 -0.1667
 2836SOL    MW411399   2.658   0.133   4.257  0.0582  0.0712 -0.0548
 2837SOL     OW11400   3.319   3.087   4.640 -0.3166  0.6010  0.1517
 2837SOL    HW211401   3.254   3.036   4.689  1.6452 -0.0387  2.1933
 2837SOL    HW311402   3.268   3.156   4.597 -2.5019 -0.6942  0.5825
 2837SOL    MW411403   3.304   3.089   4.641 -0.3462  0.3457  0.4783
 2838SOL     OW11404   2.762   1.788   4.700 -0.2360  0.0899 -0.2477
 2838SOL    HW211405   2.709   1.841   4.760  0.5120 -0.6686  1.1154
 2838SOL    HW311406   2.801   1.851   4.639 -2.2750  0.6979 -0.9371
 2838SOL    MW411407   2.760   1.803   4.700 -0.4065  0.0701 -0.1588
 2839SOL     OW11408   0.196   3.637   4.540  0.2182  0.1907  0.0036
 2839SOL    HW211409   0.125   3.700   4.539 -0.2647 -0.3542 -0.0803
 2839SOL    HW311410   0.160   3.561   4.586  0.9129  0.1112  0.4355
 2839SOL    MW411411   0.182   3.635   4.546  0.2462  0.1085  0.0496
 2840SOL     OW11412   3.147   2.428   4.204 -0.5095  0.0520 -0.4313
 2840SOL    HW211413   3.148   2.445   4.298 -1.2483 -0.5266 -0.3131
 2840SOL    HW311414   3.223   2.371   4.190 -0.3074  0.2660 -0.2064
 2840SOL    MW411415   3.157   2.422   4.214 -0.5803  0.0038 -0.3858
 2841SOL     OW11416   0.755   3.412   4.654  0.1576 -0.2099 -0.1723
 2841SOL    HW211417   0.688   3.371   4.709  0.6524  0.9451  1.3102
 2841SOL    HW311418   0.710   3.484   4.610  0.1421 -0.1927 -0.1277
 2841SOL    MW411419   0.740   3.416   4.655  0.2208 -0.0553  0.0291
 2842SOL     OW11420   3.939   0.124   4.536  0.3346  0.2936  0.0184
 2842SOL    HW211421   3.984   0.206   4.551  0.7334  0.2669 -1.0104
 2842SOL    HW311422   3.969   0.095   4.450  1.7589 -1.9458  1.2246
 2842SOL    MW411423   3.949   0.131   4.527  0.5751 -0.0054  0.0415
 2843SOL     OW11424   0.807   0.179   4.693 -0.0626  0.4629 -0.1650
 2843SOL    HW211425   0.859   0.111   4.651  0.0098 -0.5997  1.5895
 2843SOL    HW311426   0.868   0.225   4.750 -0.3409  1.3121 -0.5506
 2843SOL    MW411427   0.822   0.176   4.695 -0.0898  0.4347  0.0157
 2844SOL     OW11428   2.698   3.455   4.144 -0.5833 -0.4315 -0.1111
 2844SOL    HW211429   2.614   3.481   4.182 -0.6967 -0.1422 -0.5503
 2844SOL    HW311430   2.763   3.478   4.210 -0.5878  1.8159 -0.8412
 2844SOL    MW411431   2.695   3.462   4.157 -0.5991 -0.0968 -0.2651
 2845SOL     OW11432   4.297   2.320   4.619  0.1576  0.2427  0.1291
 2845SOL    HW211433   4.246   2.246   4.586 -0.9013  0.3492  1.5191
 2845SOL    HW311434   4.238   2.394   4.616  0.4907  0.5519  0.9064
 2845SOL    MW411435   4.283   2.320   4.614  0.0615  0.2975  0.4148
 2846SOL     OW11436   1.565   1.547   4.151 -0.0299 -0.2682 -0.3625
 2846SOL    HW211437   1.476   1.569   4.179  0.4867  1.4573 -0.0044
 2846SOL    HW311438   1.579   1.458   4.183 -2.1416 -1.1343 -1.7101
 2846SOL    MW411439   1.555   1.538   4.159 -0.2403 -0.1547 -0.4930
 2847SOL     OW11440   2.370   0.583   4.606  0.1187 -0.1680 -0.4046
 2847SOL    HW211441   2.387   0.647   4.676  0.8095 -0.6313 -0.1448
 2847SOL    HW311442   2.452   0.534   4.598  0.3222  0.4136 -2.0960
 2847SOL    MW411443   2.383   0.585   4.614  0.2367 -0.1523 -0.5932
 2848SOL     OW11444   3.840   0.750   4.142  0.0799  0.7631  0.4668
 2848SOL    HW211445   3.756   0.791   4.163 -0.7951 -0.8488  0.1821
 2848SOL    HW311446   3.846   0.755   4.047  0.0820  0.4481  0.4503
 2848SOL    MW411447   3.830   0.756   4.133 -0.0355  0.5088  0.4272
 2849SOL     OW11448   0.008   0.876   4.326 -0.1168 -0.1996 -0.2161
 2849SOL    HW211449  -0.069   0.830   4.293 -0.8102  0.2194  0.8165
 2849SOL    HW311450   0.082   0.832   4.283 -0.9414 -0.2718 -1.6034
 2849SOL    MW411451   0.008   0.864   4.316 -0.3172 -0.1539 -0.2627
 2850SOL     OW11452   2.476   2.292   4.141  0.2071 -0.2812 -0.5050
 2850SOL    HW211453   2.403   2.353   4.149 -0.0577 -0.4324 -1.7762
 2850SOL    HW311454   2.477   2.267   4.049  1.5556 -0.6680 -0.3938
 2850SOL    MW411455   2.466   2.297   4.130  0.3498 -0.3521 -0.6580
 2851SOL     OW11456   1.146   2.694   4.531 -0.2734  0.0928  0.1895
 2851SOL    HW211457   1.214   2.626   4.531 -1.4790 -1.1345  0.8382
 2851SOL    HW311458   1.179   2.762   4.589  0.9448  0.0553 -0.4535
 2851SOL    MW411459   1.159   2.694   4.539 -0.2719 -0.0739  0.1898
 2852SOL     OW11460   3.247   1.862   4.811  0.1034  0.0364  0.3631
 2852SOL    HW211461   3.316   1.816   4.762 -1.6475  0.3220 -2.4886
 2852SOL    HW311462   3.177   1.798   4.819 -0.5262  0.7393  0.4820
 2852SOL    MW411463   3.247   1.847   4.805 -0.2108  0.1668  0.0024
 2853SOL     OW11464   0.979   0.001   4.580  0.0902  0.9202  0.0267
 2853SOL    HW211465   1.007  -0.091   4.587 -0.6773  0.8118  1.8439
 2853SOL    HW311466   0.969   0.015   4.486 -1.5616 -1.3955 -0.1892
 2853SOL    MW411467   0.981  -0.009   4.568 -0.2289  0.6003  0.2379
 2854SOL     OW11468   2.348   1.587   4.670  0.3509 -0.5699  0.3373
 2854SOL    HW211469   2.299   1.648   4.615  1.1539  0.4496  0.7299
 2854SOL    HW311470   2.364   1.636   4.751  0.1964 -1.6359  1.0223
 2854SOL    MW411471   2.344   1.601   4.674  0.4363 -0.5760  0.4787
 2855SOL     OW11472   3.566   3.454   4.119 -0.1657  0.2806  0.5946
 2855SOL    HW211473   3.553   3.364   4.150  0.6942  0.1401  0.5506
 2855SOL    HW311474   3.640   3.487   4.171  0.2259  0.5964 -0.1553
 2855SOL    MW411475   3.574   3.447   4.130 -0.0005  0.3040  0.4897
 2856SOL     OW11476   4.466   1.921   4.601  0.3664 -0.5771 -0.5039
 2856SOL    HW211477   4.520   1.961   4.533 -0.2254 -0.6185 -1.0009
 2856SOL    HW311478   4.525   1.910   4.676  0.3088  2.0886 -0.0113
 2856SOL    MW411479   4.481   1.925   4.602  0.2813 -0.2307 -0.5050
 2857SOL     OW11480   3.953   1.929   4.558 -0.2756  0.0481  0.0875
 2857SOL    HW211481   3.925   1.952   4.469 -0.3371 -0.9023 -0.1453
 2857SOL    HW311482   3.882   1.958   4.614  0.7551  2.7593  0.0813
 2857SOL    MW411483   3.940   1.936   4.553 -0.1476  0.2803  0.0558
 2858SOL     OW11484   2.453   3.552   4.224  0.0877 -0.0777  0.0542
 2858SOL    HW211485   2.460   3.558   4.320  0.5099 -1.3124  0.0991
 2858SOL    HW311486   2.456   3.644   4.195 -3.4569  0.5667  1.4320
 2858SOL    MW411487   2.455   3.565   4.233 -0.3245 -0.1554  0.2422
 2859SOL     OW11488   1.963   2.115   4.985 -0.5849  0.5812  0.1704
 2859SOL    HW211489   2.021   2.190   4.970 -0.5014  0.4279 -0.2834
 2859SOL    HW311490   2.020   2.038   4.975 -1.1040  0.3841 -1.5024
 2859SOL    MW411491   1.978   2.115   4.982 -0.6423  0.5348 -0.1101
 2860SOL     OW11492   0.763   2.812   4.532 -0.2055 -0.2426  0.5005
 2860SOL    HW211493   0.810   2.732   4.556  0.1393 -0.5322 -1.0820
 2860SOL    HW311494   0.671   2.792   4.550  0.0242 -0.5067  1.3959
 2860SOL    MW411495   0.757   2.798   4.537 -0.1297 -0.3154  0.4101
 2861SOL     OW11496   3.611   0.683   4.556 -0.0912  0.1952 -0.0746
 2861SOL    HW211497   3.562   0.652   4.632 -0.1582 -0.6180 -0.4420
 2861SOL    HW311498   3.701   0.655   4.571 -0.3324 -1.0266 -0.8567
 2861SOL    MW411499   3.616   0.675   4.568 -0.1321 -0.0733 -0.2265
 2862SOL     OW11500   0.630   0.709   4.129 -0.1812  0.1963  0.2017
 2862SOL    HW211501   0.646   0.707   4.034  0.6175 -0.4390  0.3397
 2862SOL    HW311502   0.643   0.618   4.157 -1.3363  0.1949  0.7809
 2862SOL    MW411503   0.634   0.696   4.120 -0.2282  0.1123  0.2961
 2863SOL     OW11504   4.448   3.779   4.541 -0.1187 -0.0725 -0.1685
 2863SOL    HW211505   4.407   3.858   4.575  2.3813  1.6392 -0.9153
 2863SOL    HW311506   4.384   3.742   4.480 -1.4258  1.2207  0.4181
 2863SOL    MW411507   4.434   3.784   4.537  0.0386  0.3242 -0.1888
 2864SOL     OW11508   2.623   3.104   4.743  0.0429  0.4412  0.1337
 2864SOL    HW211509   2.627   3.183   4.690  0.4396  0.7899  0.6845
 2864SOL    HW311510   2.605   3.034   4.680  0.5549  0.8491 -0.4687
 2864SOL    MW411511   2.621   3.105   4.728  0.1626  0.5412  0.1268
 2865SOL     OW11512   2.274   4.231   4.577  0.1787  0.7507 -0.4706
 2865SOL    HW211513   2.334   4.266   4.511  0.9153  0.1334 -0.1336
 2865SOL    HW311514   2.262   4.139   4.553  0.3073  0.5686  0.1599
 2865SOL    MW411515   2.280   4.223   4.565  0.2928  0.6461 -0.3428
 2866SOL     OW11516   1.807   2.195   4.764 -0.6070  0.2210 -0.0262
 2866SOL    HW211517   1.833   2.127   4.702 -2.2677 -1.1850  0.7697
 2866SOL    HW311518   1.842   2.165   4.848 -0.9934  0.5693  0.2590
 2866SOL    MW411519   1.815   2.182   4.767 -0.8771  0.0813  0.1159
 2867SOL     OW11520   0.236   2.045   4.318 -0.2891 -0.1096  0.0216
 2867SOL    HW211521   0.268   2.076   4.403 -1.2596 -0.3389  0.4840
 2867SOL    HW311522   0.309   1.998   4.280 -0.7015 -2.4323  1.9567
 2867SOL    MW411523   0.250   2.043   4.324 -0.4715 -0.4466  0.3376
 2868SOL     OW11524   4.009   3.110   4.539 -0.2506  0.2994 -0.1725
 2868SOL    HW211525   4.092   3.106   4.585 -0.2716 -1.7099 -0.2844
 2868SOL    HW311526   3.970   3.024   4.551 -1.7580  0.8203 -1.1562
 2868SOL    MW411527   4.015   3.098   4.546 -0.4525  0.1030 -0.3171
 2869SOL     OW11528   4.267   1.281   4.579  0.0102  0.4519  0.5587
 2869SOL    HW211529   4.255   1.263   4.486  0.7847 -0.6505  0.6618
 2869SOL    HW311530   4.269   1.195   4.620  0.2579  0.9128  1.5201
 2869SOL    MW411531   4.266   1.267   4.572  0.1454  0.3673  0.6990
 2870SOL     OW11532   4.077   1.627   4.226  0.0384  0.2280  0.2650
 2870SOL    HW211533   4.159   1.581   4.207  0.0119  0.2681  0.0543
 2870SOL    HW311534   4.067   1.620   4.321 -0.2174 -0.6272  0.1746
 2870SOL    MW411535   4.086   1.620   4.236  0.0010  0.1206  0.2251
 2871SOL     OW11536   0.207   0.445   4.567  0.1102 -0.1542 -0.2472
 2871SOL    HW211537   0.295   0.446   4.606 -0.2566 -0.6764  0.5938
 2871SOL    HW311538   0.178   0.354   4.574 -0.6155  0.0714 -0.2799
 2871SOL    MW411539   0.215   0.433   4.573 -0.0339 -0.1933 -0.1402
 2872SOL     OW11540   4.030   4.527   4.564  0.4628  0.4945 -0.4716
 2872SOL    HW211541   3.966   4.487   4.505 -1.0682 -0.0183  1.4893
 2872SOL    HW311542   4.000   4.617   4.574  1.4373  0.9386 -1.4454
 2872SOL    MW411543   4.017   4.534   4.558  0.3891  0.4854 -0.3419
 2873SOL     OW11544   0.441   0.049   4.301  0.2093 -0.1407 -0.0701
 2873SOL    HW211545   0.527   0.023   4.269  0.8911  0.0718  1.5327
 2873SOL    HW311546   0.431   0.140   4.273 -0.3466 -0.7731 -1.9637
 2873SOL    MW411547   0.451   0.057   4.293  0.2259 -0.1961 -0.1082
 2874SOL     OW11548   4.045   0.384   4.627 -0.1282  0.0266 -0.0206
 2874SOL    HW211549   4.044   0.401   4.722 -0.5362 -0.7779  0.1236
 2874SOL    HW311550   4.138   0.382   4.604  0.0224 -1.2115  0.6368
 2874SOL    MW411551   4.057   0.386   4.637 -0.1616 -0.2429  0.0854
 2875SOL     OW11552   3.377   0.378   4.349  0.2566 -0.1582  0.1522
 2875SOL    HW211553   3.457   0.379   4.296  0.0166  0.5518 -0.1981
 2875SOL    HW311554   3.307   0.390   4.285 -0.0639  0.2442  0.5823
 2875SOL    MW411555   3.378   0.380   4.333  0.1829 -0.0114  0.1631
 2876SOL     OW11556   0.619   1.538   4.611  0.5815 -0.3773  0.0074
 2876SOL    HW211557   0.591   1.452   4.642  0.0765 -0.0731  0.3967
 2876SOL    HW311558   0.539   1.590   4.610  0.5750 -0.4147 -1.9322
 2876SOL    MW411559   0.605   1.533   4.615  0.5140 -0.3419 -0.1969
 2877SOL     OW11560   3.003   3.655   4.543  0.2629 -0.4884 -0.2455
 2877SOL    HW211561   2.967   3.579   4.588 -0.3641  0.7094  1.3229
 2877SOL    HW311562   2.947   3.728   4.570  0.0919  0.3466 -2.6829
 2877SOL    MW411563   2.991   3.654   4.553  0.1576 -0.2201 -0.3600
 2878SOL     OW11564   3.585   4.017   4.251 -0.1649  0.4748 -0.0375
 2878SOL    HW211565   3.500   3.982   4.226  0.5342 -0.2325 -1.5297
 2878SOL    HW311566   3.576   4.041   4.343 -1.9838  0.4668 -0.2051
 2878SOL    MW411567   3.573   4.016   4.260 -0.3130  0.3800 -0.2570
 2879SOL     OW11568   2.890   4.350   4.302  0.3881  0.3881 -0.4439
 2879SOL    HW211569   2.897   4.406   4.379  0.4702 -0.1702 -0.0367
 2879SOL    HW311570   2.981   4.336   4.274  0.2446  2.6677 -2.1873
 2879SOL    MW411571   2.903   4.355   4.308  0.3798  0.6156 -0.6208
 2880SOL     OW11572   2.809   0.616   4.576  0.0791 -0.1844  0.1700
 2880SOL    HW211573   2.880   0.559   4.549 -0.2395  0.0912 -1.2920
 2880SOL    HW311574   2.830   0.641   4.666  1.9276  0.0524 -0.3205
 2880SOL    MW411575   2.821   0.612   4.584  0.2809 -0.1168 -0.0877
 2881SOL     OW11576   3.155   4.301   4.185 -0.0399  0.2942 -0.2674
 2881SOL    HW211577   3.156   4.206   4.196 -1.3715  0.1589 -1.1755
 2881SOL    HW311578   3.208   4.334   4.258 -0.4582 -1.0817  0.6886
 2881SOL    MW411579   3.162   4.293   4.196 -0.2706  0.0944 -0.2608
 2882SOL     OW11580   4.206   4.374   4.261  0.0650  0.2367  0.7067
 2882SOL    HW211581   4.227   4.388   4.354  0.3601  0.6613  0.5778
 2882SOL    HW311582   4.283   4.329   4.225  0.0903  0.3689  0.5945
 2882SOL    MW411583   4.219   4.370   4.269  0.1073  0.3099  0.6747
 2883NA      NA11584   2.747   3.158   0.499 -0.1197  0.2412 -0.4788
   4.49070   4.66690  10.00000
