Gromacs Runs On Most of All Computer Systems in water t= 100000.00000 step= 100000000
11584
    1RU5    O5'    1   2.691   2.204   4.588  0.0379  0.2016 -0.2836
    1RU5    H5T    2   2.616   2.144   4.585 -0.4927  0.6641  2.8284
    1RU5    C5'    3   2.720   2.263   4.465 -0.1177 -0.0406  0.4771
    1RU5   H5'1    4   2.692   2.203   4.378  1.2894  1.1818 -0.8569
    1RU5   H5'2    5   2.827   2.288   4.469 -0.4578  1.6316 -0.3055
    1RU5    C4'    6   2.645   2.394   4.452 -0.1479  0.3029 -0.0597
    1RU5    H4'    7   2.694   2.450   4.372 -1.3392  0.6259 -0.5854
    1RU5    O4'    8   2.509   2.369   4.416  0.1304  0.1548 -0.1216
    1RU5    C1'    9   2.448   2.500   4.423 -0.1350 -0.2630 -0.0465
    1RU5    H1'   10   2.442   2.547   4.325 -0.2238 -1.2144 -0.5088
    1RU5     N1   11   2.305   2.493   4.465  0.7683  0.5837  0.4173
    1RU5     C6   12   2.246   2.372   4.501 -0.0209  0.0784  0.2061
    1RU5     H6   13   2.313   2.288   4.510  0.0971 -0.0845 -1.9006
    1RU5     C5   14   2.120   2.358   4.540 -0.2114  0.2288 -0.2615
    1RU5     H5   15   2.085   2.259   4.566  0.4176  0.2007  0.5238
    1RU5     C4   16   2.031   2.468   4.538  0.1125 -0.8679 -0.3643
    1RU5     O4   17   1.914   2.464   4.573  0.3513  0.0079 -0.0593
    1RU5     N3   18   2.087   2.584   4.496  0.2363 -0.6914 -0.1917
    1RU5     H3   19   2.032   2.668   4.508  1.1631 -0.1361  0.2395
    1RU5     C2   20   2.222   2.605   4.470 -0.5117 -0.0259 -0.0457
    1RU5     O2   21   2.256   2.723   4.446  0.1716 -0.0068  0.1645
    1RU5    C3'   22   2.639   2.492   4.574 -0.3016  0.3967 -0.1411
    1RU5    H3'   23   2.611   2.435   4.663 -1.2471  1.3706  0.1973
    1RU5    C2'   24   2.533   2.591   4.524  0.3163  0.3247  1.1462
    1RU5   H2'1   25   2.476   2.629   4.608 -2.2276  0.5286 -0.6098
    1RU5    O2'   26   2.589   2.698   4.444 -0.5781 -0.2721 -0.2948
    1RU5   HO'2   27   2.674   2.714   4.485 -1.1987  1.0592  0.4936
    1RU5    O3'   28   2.749   2.566   4.605  0.4052  0.6102 -0.0432
    2RG3      P   29   2.790   2.602   4.752  0.3947 -0.0385 -0.2489
    2RG3    O1P   30   2.904   2.699   4.739 -0.2771  0.2906 -0.2503
    2RG3    O2P   31   2.805   2.476   4.830 -0.3665  0.2537  0.2704
    2RG3    O5'   32   2.656   2.670   4.805 -0.2919 -0.1322 -0.0845
    2RG3    C5'   33   2.622   2.806   4.768 -0.1190  0.1258 -0.4494
    2RG3   H5'1   34   2.608   2.810   4.660 -0.3979  0.4794 -0.3994
    2RG3   H5'2   35   2.700   2.876   4.798 -2.1386  2.0486  0.4455
    2RG3    C4'   36   2.488   2.856   4.826  0.0491  0.1983 -0.5294
    2RG3    H4'   37   2.481   2.964   4.813 -0.3194  0.1932 -0.3761
    2RG3    O4'   38   2.372   2.798   4.762  0.3862  0.0968  0.0772
    2RG3    C1'   39   2.264   2.780   4.853 -0.0019 -0.5056 -0.1581
    2RG3    H1'   40   2.171   2.832   4.828  0.0078 -0.2863  0.2718
    2RG3     N9   41   2.237   2.636   4.872  1.1954  0.1713  0.0058
    2RG3     C8   42   2.319   2.522   4.871 -0.1680 -0.1728 -0.1990
    2RG3     H8   43   2.427   2.530   4.867 -0.3089  1.2146 -1.4108
    2RG3     N7   44   2.254   2.408   4.876 -0.3523 -0.1423 -0.5462
    2RG3     C5   45   2.117   2.443   4.879 -0.4743 -0.5387  0.4215
    2RG3     C6   46   2.001   2.361   4.869  0.4421 -0.0935  0.0967
    2RG3     O6   47   1.981   2.242   4.857 -0.0997  0.4449 -0.0306
    2RG3     N1   48   1.886   2.436   4.871  0.2468 -0.2461 -0.2410
    2RG3     H1   49   1.803   2.379   4.860 -0.2292  0.3524  0.2490
    2RG3     C2   50   1.882   2.567   4.866  0.6845  0.4256 -0.4810
    2RG3     N2   51   1.764   2.620   4.880 -0.6147 -0.3496  0.1656
    2RG3    H21   52   1.685   2.558   4.874 -0.0069 -1.2142  0.9025
    2RG3    H22   53   1.764   2.718   4.856 -0.0185 -0.4524 -0.2698
    2RG3     N3   54   1.984   2.650   4.869 -0.0712 -0.3984 -0.0453
    2RG3     C4   55   2.105   2.583   4.869 -0.4027 -0.3623 -0.1819
    2RG3    C3'   56   2.464   2.831   4.980 -0.2864  0.2065  0.0114
    2RG3    H3'   57   2.505   2.734   5.008  2.7638  1.1925 -0.8760
    2RG3    C2'   58   2.311   2.836   4.986  0.4962  0.2848  0.0297
    2RG3   H2'1   59   2.276   2.775   5.070  0.6760  0.8369  0.5053
    2RG3    O2'   60   2.263   2.971   4.997  0.3610 -0.1082 -0.2249
    2RG3   HO'2   61   2.324   3.023   5.049 -0.1831  0.9185 -0.5924
    2RG3    O3'   62   2.520   2.928   5.065  0.2491  0.1856  0.0069
    2RG3    H3T   63   2.613   2.905   5.077  0.3184  0.2104 -0.4712
    3SOL     OW   64   4.359   3.685   0.467 -0.3409  0.0379 -0.2200
    3SOL    HW2   65   4.269   3.695   0.437 -0.7306  0.3717  1.0036
    3SOL    HW3   66   4.394   3.774   0.467 -0.0434 -0.0784 -0.5896
    3SOL    MW4   67   4.352   3.698   0.463 -0.3533  0.0663 -0.1073
    4SOL     OW   68   4.444   3.426   0.428 -0.0584  0.4467 -0.3571
    4SOL    HW2   69   4.363   3.376   0.429 -0.1364  0.5619 -0.7912
    4SOL    HW3   70   4.415   3.517   0.417  0.2477  0.2258 -3.3760
    4SOL    MW4   71   4.429   3.432   0.427 -0.0277  0.4325 -0.8127
    5SOL     OW   72   1.546   2.321   0.848 -0.0737  0.5936  0.3400
    5SOL    HW2   73   1.512   2.241   0.810 -0.2671  0.0122  1.7089
    5SOL    HW3   74   1.483   2.389   0.822 -0.6814  0.0491  0.4012
    5SOL    MW4   75   1.533   2.320   0.840 -0.1793  0.4449  0.5287
    6SOL     OW   76   1.343   0.137   0.451 -0.2106 -0.8220 -0.3905
    6SOL    HW2   77   1.326   0.148   0.545  1.0813  0.6475 -0.3015
    6SOL    HW3   78   1.269   0.180   0.408  0.4823  0.7717 -0.0266
    6SOL    MW4   79   1.331   0.144   0.458  0.0513 -0.4178 -0.3308
    7SOL     OW   80   3.379   1.220   0.789 -0.0747 -0.3951  0.2035
    7SOL    HW2   81   3.359   1.234   0.697  1.7411  0.3164 -0.1080
    7SOL    HW3   82   3.375   1.308   0.828 -2.1581 -0.8538  1.1049
    7SOL    MW4   83   3.376   1.234   0.782 -0.1101 -0.3618  0.2814
    8SOL     OW   84   1.313   0.104   0.728  0.4783  0.3710  0.4902
    8SOL    HW2   85   1.386   0.103   0.790  0.9238 -0.0735 -0.0327
    8SOL    HW3   86   1.245   0.052   0.770  0.5867  0.5057  0.8345
    8SOL    MW4   87   1.314   0.097   0.742  0.5513  0.3301  0.4666
    9SOL     OW   88   3.369   4.363   0.820 -0.2223  0.1676 -0.0077
    9SOL    HW2   89   3.378   4.353   0.725  0.7700  2.4862 -0.1978
    9SOL    HW3   90   3.386   4.456   0.836  0.2063 -0.3086  2.5289
    9SOL    MW4   91   3.372   4.374   0.809 -0.0348  0.4110  0.3019
   10SOL     OW   92   0.817   2.167   0.517 -0.1806 -0.9405  0.2521
   10SOL    HW2   93   0.787   2.146   0.606 -0.6960  1.1249  0.5997
   10SOL    HW3   94   0.739   2.153   0.463 -0.2467 -0.8973  0.3342
   10SOL    MW4   95   0.803   2.163   0.522 -0.2573 -0.6623  0.3088
   11SOL     OW   96   3.345   3.077   0.780  0.6896  0.4507 -0.3934
   11SOL    HW2   97   3.364   2.988   0.750  0.3393 -0.0106  0.6889
   11SOL    HW3   98   3.360   3.073   0.875  2.2595  1.9807 -0.5490
   11SOL    MW4   99   3.349   3.065   0.789  0.8504  0.5920 -0.2711
   12SOL     OW  100   1.261   2.179   0.336  0.2814 -0.1362 -0.2503
   12SOL    HW2  101   1.276   2.272   0.355 -1.0617  0.0722 -0.1973
   12SOL    HW3  102   1.253   2.176   0.240 -3.2625  0.3615 -0.0228
   12SOL    MW4  103   1.262   2.191   0.326 -0.3635 -0.0434 -0.2133
   13SOL     OW  104   2.336   4.432   0.492  0.1810 -0.6306 -0.4232
   13SOL    HW2  105   2.349   4.456   0.583  0.5503 -0.2922 -0.5605
   13SOL    HW3  106   2.398   4.361   0.476  1.2305  0.3500 -0.8232
   13SOL    MW4  107   2.346   4.426   0.502  0.3681 -0.4568 -0.4940
   14SOL     OW  108   2.919   1.771   0.444  0.6496 -0.1733 -0.2566
   14SOL    HW2  109   2.851   1.730   0.497 -0.3192  0.8031 -0.7293
   14SOL    HW3  110   2.934   1.709   0.373  0.6203 -0.6296  0.1317
   14SOL    MW4  111   2.912   1.757   0.442  0.5176 -0.1047 -0.2677
   15SOL     OW  112   3.102   2.453   0.724  0.4126  0.3619 -0.1516
   15SOL    HW2  113   3.183   2.406   0.741  1.3973  2.4228  1.0918
   15SOL    HW3  114   3.033   2.398   0.762  1.5478  0.0553  1.4925
   15SOL    MW4  115   3.103   2.440   0.731  0.6921  0.5932  0.2294
   16SOL     OW  116   0.243   2.060   0.767 -0.1926 -0.5760  0.2052
   16SOL    HW2  117   0.258   2.142   0.814 -1.8913 -0.5768  0.7712
   16SOL    HW3  118   0.204   2.087   0.684 -0.0804 -0.7791  0.0857
   16SOL    MW4  119   0.240   2.074   0.762 -0.4019 -0.6027  0.2640
   17SOL     OW  120   4.482   0.091   0.517  0.0954  0.3737  0.5944
   17SOL    HW2  121   4.395   0.124   0.496 -0.2187 -0.0747  1.1710
   17SOL    HW3  122   4.477  -0.003   0.499  1.5142  0.8505 -2.8080
   17SOL    MW4  123   4.470   0.083   0.512  0.2408  0.3774  0.2216
   18SOL     OW  124   1.755   1.732   0.662  0.1350 -0.1385 -0.3925
   18SOL    HW2  125   1.831   1.711   0.607  0.7601  0.1414  0.3395
   18SOL    HW3  126   1.681   1.735   0.601  0.3324 -2.5259 -0.7957
   18SOL    MW4  127   1.756   1.730   0.647  0.2435 -0.4166 -0.3490
   19SOL     OW  128   0.905   0.351   0.820 -0.4577 -0.5052 -0.1935
   19SOL    HW2  129   0.911   0.350   0.915 -1.1763 -0.1445 -0.1387
   19SOL    HW3  130   0.969   0.415   0.791  0.0962 -0.9642  0.0213
   19SOL    MW4  131   0.914   0.359   0.828 -0.4793 -0.5182 -0.1580
   20SOL     OW  132   0.553   3.051   0.425 -0.0205  0.3149  0.3220
   20SOL    HW2  133   0.503   2.973   0.400 -0.8216  1.2093 -0.9266
   20SOL    HW3  134   0.486   3.115   0.450  0.5342  1.2164 -0.4592
   20SOL    MW4  135   0.537   3.049   0.425 -0.0530  0.5519  0.0542
   21SOL     OW  136   3.812   3.136   0.853  0.3547 -0.2205  0.4557
   21SOL    HW2  137   3.736   3.159   0.800  0.4332 -0.6570  0.1528
   21SOL    HW3  138   3.886   3.173   0.806  0.2274  1.1992  1.3420
   21SOL    MW4  139   3.812   3.144   0.840  0.3481 -0.0911  0.5327
   22SOL     OW  140   3.390   0.605   0.627 -0.3656 -0.3541 -0.6615
   22SOL    HW2  141   3.468   0.626   0.576 -1.2094  0.9441 -1.4465
   22SOL    HW3  142   3.403   0.652   0.710  0.2726 -1.1824 -0.2850
   22SOL    MW4  143   3.402   0.614   0.631 -0.3927 -0.2921 -0.7154
   23SOL     OW  144   0.084   3.193   0.469 -0.2811 -0.6276  0.0149
   23SOL    HW2  145   0.047   3.278   0.442 -1.3866 -0.6972  1.2814
   23SOL    HW3  146   0.070   3.190   0.563  0.2168 -2.0147  0.0480
   23SOL    MW4  147   0.077   3.204   0.478 -0.3612 -0.8199  0.1864
   24SOL     OW  148   0.177   2.160   0.509 -0.0522  0.2836 -0.2954
   24SOL    HW2  149   0.106   2.224   0.507 -0.2004  0.0879 -1.8046
   24SOL    HW3  150   0.141   2.083   0.465  1.5242  0.6427 -2.2768
   24SOL    MW4  151   0.163   2.158   0.503  0.1362  0.3049 -0.7559
   25SOL     OW  152   3.667   0.837   0.767  0.2538  0.5485  0.0541
   25SOL    HW2  153   3.656   0.931   0.783 -0.7536  0.0997  2.2965
   25SOL    HW3  154   3.746   0.813   0.817 -1.6474 -0.4611  2.7327
   25SOL    MW4  155   3.676   0.846   0.776 -0.1297  0.3560  0.7034
   26SOL     OW  156   0.666   2.661   0.464 -0.3780  0.4149 -0.1274
   26SOL    HW2  157   0.707   2.745   0.483 -1.1260  0.8701 -0.4988
   26SOL    HW3  158   0.738   2.598   0.469  0.4167  1.2261 -0.9834
   26SOL    MW4  159   0.681   2.664   0.467 -0.3718  0.5822 -0.2894
   27SOL     OW  160   2.512   4.607   0.341 -0.2983 -0.0112  0.1590
   27SOL    HW2  161   2.475   4.558   0.414  2.1686 -2.3239 -0.0899
   27SOL    HW3  162   2.584   4.657   0.379 -1.1347  1.4310 -0.0952
   27SOL    MW4  163   2.517   4.607   0.356 -0.0832 -0.1259  0.0927
   28SOL     OW  164   0.888   4.041   0.754  0.6798 -0.6889  0.9484
   28SOL    HW2  165   0.879   4.129   0.791 -0.8721 -0.1929 -0.5117
   28SOL    HW3  166   0.950   3.997   0.811  0.3989  0.9039  2.5275
   28SOL    MW4  167   0.895   4.047   0.766  0.4380 -0.4134  0.9641
   29SOL     OW  168   2.097   1.574   0.826  0.3935 -0.4990  0.3127
   29SOL    HW2  169   2.053   1.575   0.910  0.6469  1.0878  0.4474
   29SOL    HW3  170   2.190   1.577   0.847  0.5228 -1.9877  0.0016
   29SOL    MW4  171   2.104   1.574   0.840  0.4439 -0.4860  0.2894
   30SOL     OW  172   0.295   1.251   0.452 -0.2006  0.2382 -0.7992
   30SOL    HW2  173   0.275   1.323   0.392 -0.8098  1.1381  0.4505
   30SOL    HW3  174   0.271   1.285   0.539  2.2436 -0.4078  0.1741
   30SOL    MW4  175   0.290   1.265   0.456  0.0415  0.2717 -0.5059
   31SOL     OW  176   4.072   0.018   0.516 -0.1976  0.2054  0.3900
   31SOL    HW2  177   4.076   0.028   0.611  0.3118 -0.4837  0.4510
   31SOL    HW3  178   4.133   0.085   0.483 -0.9282  0.9313  0.5099
   31SOL    MW4  179   4.081   0.028   0.524 -0.2275  0.2102  0.4139
   32SOL     OW  180   0.469   0.828   0.692 -0.1851  0.3255 -0.4226
   32SOL    HW2  181   0.382   0.825   0.731  0.0215  0.0287  0.0251
   32SOL    HW3  182   0.496   0.919   0.701  0.0508  0.1720  0.5731
   32SOL    MW4  183   0.461   0.839   0.699 -0.1267  0.2661 -0.2322
   33SOL     OW  184   4.392   4.475   0.514  0.1177 -0.0635 -0.0780
   33SOL    HW2  185   4.324   4.479   0.581  0.3443 -1.7997  0.2772
   33SOL    HW3  186   4.390   4.384   0.483  1.7997  0.0466 -0.5471
   33SOL    MW4  187   4.383   4.464   0.519  0.3695 -0.2775 -0.0930
   34SOL     OW  188   2.899   2.031   0.786 -0.0181 -0.0166  0.1373
   34SOL    HW2  189   2.876   2.118   0.821  0.6263  0.3073 -0.2406
   34SOL    HW3  190   2.975   2.005   0.837 -0.0584 -0.2542  0.0735
   34SOL    MW4  191   2.906   2.039   0.797  0.0618 -0.0052  0.0790
   35SOL     OW  192   4.277   2.776   0.415  0.0087 -0.0966  0.2151
   35SOL    HW2  193   4.182   2.777   0.402  0.3040 -2.0544 -2.4585
   35SOL    HW3  194   4.305   2.864   0.390 -1.0215  0.3608  0.6057
   35SOL    MW4  195   4.268   2.788   0.410 -0.0882 -0.2947 -0.0861
   36SOL     OW  196   1.623   0.837   0.170  0.0055  0.4562 -0.4781
   36SOL    HW2  197   1.677   0.857   0.094 -0.2931  0.8548 -0.5873
   36SOL    HW3  198   1.680   0.787   0.228  0.3828  0.5764 -0.7477
   36SOL    MW4  199   1.638   0.833   0.168  0.0157  0.5247 -0.5281
   37SOL     OW  200   1.901   4.518   0.303 -0.0767 -0.1470 -0.3844
   37SOL    HW2  201   1.893   4.506   0.208 -0.3424 -0.4517 -0.3279
   37SOL    HW3  202   1.816   4.488   0.337  0.1586 -0.3965 -0.0199
   37SOL    MW4  203   1.889   4.512   0.295 -0.0807 -0.2198 -0.3288
   38SOL     OW  204   0.015   2.715   0.853  0.0348 -0.2894 -0.0580
   38SOL    HW2  205   0.010   2.709   0.949  0.0308  1.2263  0.0600
   38SOL    HW3  206   0.007   2.625   0.823 -2.7187 -0.5631  1.2658
   38SOL    MW4  207   0.013   2.703   0.862 -0.3290 -0.1254  0.1323
   39SOL     OW  208   4.044   2.475   0.460 -0.1166 -0.2563 -0.2954
   39SOL    HW2  209   4.026   2.567   0.441 -1.5150 -0.7013 -1.1871
   39SOL    HW3  210   4.043   2.469   0.556  0.7811  0.7982 -0.2150
   39SOL    MW4  211   4.042   2.486   0.470 -0.1831 -0.1760 -0.4025
   40SOL     OW  212   2.260   2.719   0.906  0.4987 -0.6007  0.0020
   40SOL    HW2  213   2.282   2.712   0.998 -0.4247 -1.2903  0.1779
   40SOL    HW3  214   2.256   2.629   0.875  1.1805 -0.3578 -0.8049
   40SOL    MW4  215   2.262   2.706   0.914  0.4668 -0.6597 -0.0812
   41SOL     OW  216   4.280   3.132   0.816 -0.6742 -0.3560 -0.0771
   41SOL    HW2  217   4.362   3.156   0.773  0.9160 -1.2278  2.3791
   41SOL    HW3  218   4.258   3.046   0.780 -0.0866 -0.4881 -0.1152
   41SOL    MW4  219   4.288   3.124   0.806 -0.3872 -0.4880  0.2420
   42SOL     OW  220   0.470   2.735   0.882  0.1017 -0.3959 -0.2136
   42SOL    HW2  221   0.459   2.647   0.848  0.0791 -0.1158 -0.9396
   42SOL    HW3  222   0.404   2.787   0.837 -0.0785 -0.0606  0.4249
   42SOL    MW4  223   0.460   2.730   0.872  0.0749 -0.3145 -0.2252
   43SOL     OW  224   4.252   0.209   0.401 -0.4233  0.0463 -0.3878
   43SOL    HW2  225   4.205   0.219   0.319  0.3704  1.0227 -0.7277
   43SOL    HW3  226   4.268   0.298   0.431 -0.1255 -0.2931  0.4956
   43SOL    MW4  227   4.248   0.222   0.394 -0.2789  0.1303 -0.3161
   44SOL     OW  228   1.333   2.720   0.210  0.0550  0.6214  0.0930
   44SOL    HW2  229   1.257   2.666   0.233  0.5759 -0.3178 -0.3383
   44SOL    HW3  230   1.404   2.685   0.263  0.3759  0.9688 -0.1066
   44SOL    MW4  231   1.332   2.708   0.220  0.1662  0.5436  0.0097
   45SOL     OW  232   1.957   0.480   0.422  0.5959  0.3721 -0.1866
   45SOL    HW2  233   1.938   0.474   0.516  0.5778  0.0545 -0.2079
   45SOL    HW3  234   2.025   0.546   0.415 -0.4049  1.4255 -0.0933
   45SOL    MW4  235   1.963   0.488   0.433  0.4613  0.4692 -0.1771
   46SOL     OW  236   1.592   4.474   0.725 -0.0113 -0.6874  0.5423
   46SOL    HW2  237   1.565   4.553   0.771  0.6373 -0.0703 -0.1315
   46SOL    HW3  238   1.659   4.436   0.782 -0.3742 -0.7920  0.9010
   46SOL    MW4  239   1.598   4.479   0.739  0.0263 -0.6199  0.5007
   47SOL     OW  240   1.099   0.524   0.736 -0.1839  0.1696 -0.1318
   47SOL    HW2  241   1.098   0.613   0.773 -0.9774  1.0375 -2.2042
   47SOL    HW3  242   1.177   0.483   0.774 -0.0495  1.6007  1.1781
   47SOL    MW4  243   1.109   0.530   0.746 -0.2710  0.4728 -0.2323
   48SOL     OW  244   4.121   4.181   0.289 -0.1656  0.1143  0.0242
   48SOL    HW2  245   4.065   4.163   0.214 -0.2379 -0.2518  0.1658
   48SOL    HW3  246   4.088   4.263   0.325 -0.7698 -0.2333  0.2577
   48SOL    MW4  247   4.110   4.190   0.284 -0.2546  0.0196  0.0737
   49SOL     OW  248   3.457   0.956   0.442 -0.0958  0.1902 -0.0982
   49SOL    HW2  249   3.517   1.011   0.391 -0.5895  0.3800 -0.4811
   49SOL    HW3  250   3.504   0.874   0.454 -0.3467 -0.2107 -1.7085
   49SOL    MW4  251   3.471   0.953   0.437 -0.1938  0.1624 -0.3612
   50SOL     OW  252   4.019   1.937   0.893  0.3093  0.2013  0.0486
   50SOL    HW2  253   4.007   1.852   0.852  2.2286  0.3766 -0.9129
   50SOL    HW3  254   3.944   1.989   0.862 -0.6670 -0.9895  0.3431
   50SOL    MW4  255   4.007   1.933   0.884  0.4339  0.0674 -0.0394
   51SOL     OW  256   3.328   1.262   0.512  0.1963  0.2828  0.1639
   51SOL    HW2  257   3.335   1.174   0.476 -0.9116 -0.4154  1.5928
   51SOL    HW3  258   3.413   1.303   0.495  0.4049 -0.7497 -1.2964
   51SOL    MW4  259   3.340   1.256   0.505  0.0777  0.0545  0.1597
   52SOL     OW  260   1.354   3.226   0.779 -0.0265  0.3597 -0.4424
   52SOL    HW2  261   1.435   3.187   0.810 -1.3315 -1.9106  0.2059
   52SOL    HW3  262   1.357   3.215   0.684 -0.0474 -0.6419 -0.3279
   52SOL    MW4  263   1.365   3.219   0.770 -0.2015 -0.0722 -0.3417
   53SOL     OW  264   1.322   2.458   0.750 -0.1581 -0.1529 -0.2641
   53SOL    HW2  265   1.314   2.449   0.655 -1.6032 -1.7532 -0.0221
   53SOL    HW3  266   1.241   2.420   0.785 -0.7797  2.6099  1.5282
   53SOL    MW4  267   1.310   2.452   0.742 -0.4308  0.0005  0.0044
   54SOL     OW  268   4.131   1.263   0.225  0.3659 -0.4907 -0.1128
   54SOL    HW2  269   4.120   1.266   0.129  0.8145 -0.9994 -0.1835
   54SOL    HW3  270   4.079   1.187   0.252  0.8479 -0.7951 -0.0411
   54SOL    MW4  271   4.123   1.253   0.216  0.4883 -0.5980 -0.1126
   55SOL     OW  272   3.576   2.412   0.800 -0.1176 -0.1317 -0.5697
   55SOL    HW2  273   3.489   2.371   0.796 -0.1095 -0.3812  1.2843
   55SOL    HW3  274   3.559   2.506   0.799 -0.5266 -0.1713  1.5126
   55SOL    MW4  275   3.562   2.419   0.799 -0.1702 -0.1698 -0.0504
   56SOL     OW  276   2.942   0.578   0.722 -0.1730 -0.1017 -0.2955
   56SOL    HW2  277   2.876   0.625   0.672  0.8794  0.3064 -1.3091
   56SOL    HW3  278   3.005   0.547   0.657  0.7394 -0.3297  0.6782
   56SOL    MW4  279   2.942   0.580   0.707  0.0863 -0.0778 -0.3008
   57SOL     OW  280   3.999   1.695   0.757 -0.5600  0.1183 -0.6937
   57SOL    HW2  281   3.928   1.645   0.797 -0.4785 -0.3437 -1.1268
   57SOL    HW3  282   4.078   1.644   0.777 -0.3796  0.4887 -0.4485
   57SOL    MW4  283   4.000   1.682   0.765 -0.5255  0.1061 -0.7185
   58SOL     OW  284   0.428   1.617   0.407 -0.0496 -0.0708  0.1035
   58SOL    HW2  285   0.343   1.581   0.381 -0.1514  1.0999 -1.2448
   58SOL    HW3  286   0.412   1.711   0.419  0.8629  0.0190  0.6916
   58SOL    MW4  287   0.415   1.625   0.405  0.0574  0.0955  0.0032
   59SOL     OW  288   3.980   2.751   0.396 -0.1121 -0.1023 -0.2199
   59SOL    HW2  289   3.906   2.800   0.432 -0.1198 -0.1145 -0.2188
   59SOL    HW3  290   3.986   2.780   0.305 -0.5597 -0.6223 -0.4182
   59SOL    MW4  291   3.971   2.761   0.389 -0.1719 -0.1724 -0.2459
   60SOL     OW  292   3.283   2.784   0.458  0.0231  0.0831 -0.1226
   60SOL    HW2  293   3.242   2.863   0.422 -1.6136 -0.7696 -0.1401
   60SOL    HW3  294   3.237   2.711   0.417  0.6289 -0.8948  0.8951
   60SOL    MW4  295   3.272   2.785   0.448 -0.1130 -0.1583  0.0093
   61SOL     OW  296   0.290   2.675   0.129  0.2948  0.0754 -0.1866
   61SOL    HW2  297   0.223   2.721   0.078  0.1651 -0.4164 -0.4612
   61SOL    HW3  298   0.250   2.590   0.150  0.4843  0.1361  0.4278
   61SOL    MW4  299   0.276   2.670   0.125  0.3027  0.0186 -0.1418
   62SOL     OW  300   1.040   2.867   0.468 -0.3818 -0.0626 -0.2147
   62SOL    HW2  301   0.950   2.898   0.471 -0.0330  0.8765  0.8858
   62SOL    HW3  302   1.067   2.860   0.560  1.0747  0.8869 -0.5462
   62SOL    MW4  303   1.032   2.870   0.481 -0.1436  0.1867 -0.1132
   63SOL     OW  304   0.575   1.198   0.494  0.1923  0.1788 -0.6405
   63SOL    HW2  305   0.481   1.206   0.480  0.2088 -0.3213 -1.0653
   63SOL    HW3  306   0.602   1.128   0.434  1.0339  1.1479 -1.4093
   63SOL    MW4  307   0.566   1.190   0.484  0.3054  0.2406 -0.7980
   64SOL     OW  308   3.098   4.006   0.762  0.3484 -0.1142 -0.4425
   64SOL    HW2  309   3.103   4.088   0.811  0.6118  0.6247 -1.6909
   64SOL    HW3  310   3.170   3.953   0.796 -0.2133 -0.0894  0.8203
   64SOL    MW4  311   3.108   4.010   0.773  0.3090 -0.0134 -0.4405
   65SOL     OW  312   3.605   1.646   0.494  0.0944 -0.6209  0.4654
   65SOL    HW2  313   3.537   1.699   0.453  0.7753  0.1896  0.3697
   65SOL    HW3  314   3.583   1.648   0.588  0.7031  0.6959  0.5854
   65SOL    MW4  315   3.593   1.653   0.501  0.2646 -0.3403  0.4686
   66SOL     OW  316   1.916   3.507   0.360 -0.1670  0.4020 -0.2809
   66SOL    HW2  317   1.882   3.423   0.390  1.2759 -0.4025 -0.8161
   66SOL    HW3  318   1.890   3.512   0.268  1.7199 -0.5740 -0.9140
   66SOL    MW4  319   1.908   3.497   0.352  0.2724  0.1669 -0.4350
   67SOL     OW  320   0.482   1.920   0.834  0.7109  0.0728 -0.2075
   67SOL    HW2  321   0.400   1.964   0.811 -0.0513 -1.5740 -0.7381
   67SOL    HW3  322   0.478   1.911   0.930  0.0533 -0.3834 -0.2721
   67SOL    MW4  323   0.470   1.924   0.844  0.5235 -0.2047 -0.2860
   68SOL     OW  324   2.501   1.485   0.429  0.2194 -0.1443 -0.1741
   68SOL    HW2  325   2.524   1.392   0.436  0.3949 -0.1600 -0.9146
   68SOL    HW3  326   2.582   1.531   0.450 -0.0069 -0.1455  0.7300
   68SOL    MW4  327   2.515   1.479   0.432  0.2127 -0.1466 -0.1525
   69SOL     OW  328   2.924   0.807   0.911 -0.7163  0.2808 -0.2435
   69SOL    HW2  329   2.951   0.735   0.854  2.2858 -0.1127  1.5183
   69SOL    HW3  330   2.899   0.764   0.993  0.1418  1.1400  0.4868
   69SOL    MW4  331   2.924   0.792   0.915 -0.2072  0.3422  0.0854
   70SOL     OW  332   2.101   1.900   0.466 -0.1816  0.7507  0.4266
   70SOL    HW2  333   2.190   1.902   0.500 -0.6723  0.0836  1.7933
   70SOL    HW3  334   2.072   1.810   0.479 -1.0135  0.9283 -0.1410
   70SOL    MW4  335   2.109   1.888   0.472 -0.3560  0.6860  0.5320
   71SOL     OW  336   2.252   1.188   0.366 -0.4187 -0.0064  0.0623
   71SOL    HW2  337   2.181   1.239   0.405  0.7394  0.7638  1.1998
   71SOL    HW3  338   2.272   1.234   0.284 -2.5977 -1.4117 -1.3047
   71SOL    MW4  339   2.245   1.201   0.360 -0.5534 -0.0901  0.0320
   72SOL     OW  340   0.821   1.197   0.836 -0.6514 -0.5146 -0.4152
   72SOL    HW2  341   0.776   1.272   0.875 -1.0463 -0.1481 -1.5673
   72SOL    HW3  342   0.894   1.236   0.787  1.2200 -1.1194  1.7634
   72SOL    MW4  343   0.825   1.212   0.835 -0.4567 -0.5459 -0.2798
   73SOL     OW  344   1.159   3.070   0.903 -0.0776 -0.2500 -0.1163
   73SOL    HW2  345   1.121   3.012   0.837  0.1646  1.1774 -1.5451
   73SOL    HW3  346   1.230   3.115   0.858 -0.6301  1.5770  0.7857
   73SOL    MW4  347   1.163   3.069   0.889 -0.1185  0.1795 -0.1857
   74SOL     OW  348   3.171   1.654   0.822  0.5732 -0.1196 -0.2209
   74SOL    HW2  349   3.093   1.608   0.853 -0.1012  0.7017 -0.6770
   74SOL    HW3  350   3.174   1.637   0.728  1.6110 -1.1249 -0.0161
   74SOL    MW4  351   3.162   1.646   0.813  0.6211 -0.1439 -0.2540
   75SOL     OW  352   1.109   1.344   0.302  0.2709  0.3411  0.1639
   75SOL    HW2  353   1.062   1.324   0.221 -0.4440 -0.7441  0.8359
   75SOL    HW3  354   1.052   1.406   0.348 -1.0905 -1.8171  1.4892
   75SOL    MW4  355   1.095   1.349   0.297 -0.0030 -0.0868  0.4274
   76SOL     OW  356   3.989   1.644   0.482  0.0459 -0.2418  0.5501
   76SOL    HW2  357   4.004   1.669   0.573  1.8090 -1.5092  0.6494
   76SOL    HW3  358   3.910   1.691   0.457 -0.7922 -0.3010  2.9048
   76SOL    MW4  359   3.981   1.653   0.491  0.1678 -0.4168  0.8739
   77SOL     OW  360   4.246   2.060   0.810 -0.1809  0.3226  0.0905
   77SOL    HW2  361   4.166   2.017   0.839 -0.3521  0.2448 -0.4845
   77SOL    HW3  362   4.317   2.013   0.855 -0.4408  0.2269  0.3986
   77SOL    MW4  363   4.245   2.048   0.819 -0.2379  0.2997  0.0553
   78SOL     OW  364   4.329   0.473   0.484 -0.1511 -0.1240  0.0314
   78SOL    HW2  365   4.323   0.556   0.436 -0.4862  0.5672  1.2413
   78SOL    HW3  366   4.422   0.457   0.493 -0.0800 -0.3003 -0.9020
   78SOL    MW4  367   4.340   0.482   0.479 -0.1860 -0.0560  0.0679
   79SOL     OW  368   1.612   4.469   0.442 -0.3917  0.6713 -0.2147
   79SOL    HW2  369   1.523   4.491   0.415 -0.9671  0.6616  1.5954
   79SOL    HW3  370   1.604   4.444   0.534  1.1520 -1.4491 -0.6014
   79SOL    MW4  371   1.600   4.469   0.451 -0.2639  0.3901 -0.0269
   80SOL     OW  372   3.652   1.117   0.272 -0.4839  0.2007 -0.4797
   80SOL    HW2  373   3.639   1.194   0.328 -0.7884  0.2410 -0.6021
   80SOL    HW3  374   3.610   1.140   0.190  0.3309  0.3008 -0.8705
   80SOL    MW4  375   3.645   1.130   0.269 -0.4168  0.2193 -0.5473
   81SOL     OW  376   1.624   1.508   0.820  0.4525  0.2855 -0.1981
   81SOL    HW2  377   1.669   1.578   0.774  0.0351  0.9124  0.3359
   81SOL    HW3  378   1.635   1.528   0.913  2.0362 -1.4435  0.0204
   81SOL    MW4  379   1.631   1.520   0.826  0.6063  0.1401 -0.0989
   82SOL     OW  380   2.275   3.310   0.351 -0.3616  0.0789 -0.3962
   82SOL    HW2  381   2.224   3.364   0.413 -0.2245 -1.2755  0.9291
   82SOL    HW3  382   2.277   3.224   0.392  0.0350 -0.7529 -2.1571
   82SOL    MW4  383   2.268   3.306   0.365 -0.2913 -0.2096 -0.4537
   83SOL     OW  384   1.521   2.106   0.449 -0.0844  0.1080 -0.4271
   83SOL    HW2  385   1.444   2.136   0.400 -0.7707  0.5770  0.9185
   83SOL    HW3  386   1.595   2.144   0.402 -0.8115  1.7869 -0.2431
   83SOL    MW4  387   1.521   2.115   0.436 -0.2710  0.3915 -0.2253
   84SOL     OW  388   2.939   2.893   0.872  0.1328 -0.4062 -0.5111
   84SOL    HW2  389   3.024   2.851   0.859 -0.3032 -0.6950 -2.8024
   84SOL    HW3  390   2.878   2.819   0.881 -0.2434 -0.2625 -1.7289
   84SOL    MW4  391   2.942   2.877   0.871  0.0260 -0.4253 -0.9741
   85SOL     OW  392   0.678   3.635   0.773  0.1094 -0.2318 -0.4254
   85SOL    HW2  393   0.745   3.592   0.826 -0.9482 -1.1420  0.1890
   85SOL    HW3  394   0.668   3.722   0.813 -0.6073 -0.8725  0.8261
   85SOL    MW4  395   0.686   3.641   0.786 -0.1248 -0.4363 -0.1792
   86SOL     OW  396   2.990   1.191   0.509  0.0953 -0.6128  0.0852
   86SOL    HW2  397   3.051   1.125   0.478  0.7257 -0.6772  1.3900
   86SOL    HW3  398   2.906   1.147   0.513  0.0266 -0.6142 -1.4305
   86SOL    MW4  399   2.987   1.177   0.506  0.1693 -0.6216  0.0574
   87SOL     OW  400   4.255   2.259   0.389 -0.2492  0.0263  0.0380
   87SOL    HW2  401   4.179   2.317   0.390 -0.3045 -0.0518  0.2601
   87SOL    HW3  402   4.223   2.175   0.421  0.0499  0.1427  0.6637
   87SOL    MW4  403   4.241   2.256   0.393 -0.2170  0.0312  0.1498
   88SOL     OW  404   0.617   4.521   0.860 -0.1095 -0.0028 -0.2956
   88SOL    HW2  405   0.602   4.570   0.940  0.5724 -1.3414  0.6699
   88SOL    HW3  406   0.635   4.588   0.794  1.1246  1.0362  1.0644
   88SOL    MW4  407   0.618   4.536   0.862  0.1434 -0.0420  0.0111
   89SOL     OW  408   1.771   0.882   0.751 -0.3247  0.1692  0.1052
   89SOL    HW2  409   1.694   0.828   0.771 -0.2118 -0.3055 -0.6696
   89SOL    HW3  410   1.844   0.833   0.789 -0.0604 -0.9462 -1.7374
   89SOL    MW4  411   1.770   0.868   0.758 -0.2749 -0.0405 -0.2401
   90SOL     OW  412   1.802   2.719   0.839 -0.1630  0.2688 -0.5751
   90SOL    HW2  413   1.720   2.769   0.829  0.1640  1.0945  0.7335
   90SOL    HW3  414   1.782   2.632   0.804 -1.5351  0.5332 -0.4671
   90SOL    MW4  415   1.788   2.714   0.833 -0.3009  0.4125 -0.3881
   91SOL     OW  416   2.845   3.680   0.785 -0.2409 -0.2240 -0.0561
   91SOL    HW2  417   2.861   3.768   0.817  1.0453 -0.6627  0.5331
   91SOL    HW3  418   2.769   3.650   0.835  0.7071 -0.2748  1.3905
   91SOL    MW4  419   2.837   3.687   0.796  0.0536 -0.2882  0.2124
   92SOL     OW  420   0.706   3.146   0.893 -0.1001  0.1857 -0.1039
   92SOL    HW2  421   0.704   3.050   0.887 -1.9121  0.0436  2.1949
   92SOL    HW3  422   0.627   3.174   0.847  0.2518  0.5762 -0.4760
   92SOL    MW4  423   0.695   3.137   0.886 -0.2928  0.2184  0.1503
   93SOL     OW  424   1.108   2.319   0.917 -0.3368 -0.3137 -0.0324
   93SOL    HW2  425   1.112   2.230   0.880  0.0518 -0.3627  0.1299
   93SOL    HW3  426   1.123   2.307   1.010  1.5344  0.1149 -0.2678
   93SOL    MW4  427   1.110   2.305   0.924 -0.0386 -0.2637 -0.0420
   94SOL     OW  428   2.425   2.393   0.375  0.4905 -0.2824  0.3381
   94SOL    HW2  429   2.374   2.397   0.294  0.6238  2.0097  0.3341
   94SOL    HW3  430   2.368   2.348   0.437  0.6197 -2.5943 -1.1586
   94SOL    MW4  431   2.411   2.387   0.373  0.5250 -0.2851  0.1402
   95SOL     OW  432   0.883   2.453   0.494 -0.0823 -0.0497 -0.1761
   95SOL    HW2  433   0.872   2.358   0.494 -0.1107 -0.0567  1.1417
   95SOL    HW3  434   0.887   2.477   0.586 -1.2519  1.3658 -0.4699
   95SOL    MW4  435   0.882   2.444   0.506 -0.2404  0.1361 -0.0410
   96SOL     OW  436   3.474   4.048   0.497  0.4389  0.1588  0.4199
   96SOL    HW2  437   3.485   4.011   0.585  0.2611 -0.3167  0.2485
   96SOL    HW3  438   3.437   4.135   0.512  0.6399  0.1758  0.8259
   96SOL    MW4  439   3.470   4.054   0.511  0.4418  0.0978  0.4508
   97SOL     OW  440   3.625   0.126   0.760  0.5217 -0.5661 -0.2903
   97SOL    HW2  441   3.631   0.120   0.665 -0.1833  0.5737 -0.4206
   97SOL    HW3  442   3.579   0.209   0.775 -0.6921 -1.4662  1.0158
   97SOL    MW4  443   3.620   0.136   0.749  0.2687 -0.5345 -0.1352
   98SOL     OW  444   0.850   3.599   0.336  0.6236  0.7852 -1.0540
   98SOL    HW2  445   0.864   3.547   0.257 -0.7318  0.5236 -1.1456
   98SOL    HW3  446   0.923   3.577   0.393  0.8997 -0.0359 -1.7147
   98SOL    MW4  447   0.861   3.589   0.333  0.4813  0.6421 -1.1533
   99SOL     OW  448   1.989   4.072   0.453  0.1285  0.2086  0.2770
   99SOL    HW2  449   2.002   4.167   0.449  1.3839  0.0425  0.3223
   99SOL    HW3  450   2.077   4.036   0.466 -0.4180 -0.9295  0.8696
   99SOL    MW4  451   2.002   4.080   0.454  0.2220  0.0362  0.3612
  100SOL     OW  452   2.037   2.828   0.758 -0.0697  0.0658 -0.5074
  100SOL    HW2  453   2.095   2.777   0.814  0.8919 -0.1115 -1.6431
  100SOL    HW3  454   1.954   2.781   0.761 -0.0796  0.1585  0.8960
  100SOL    MW4  455   2.034   2.815   0.766  0.0558  0.0546 -0.4721
  101SOL     OW  456   1.768   3.997   0.772  0.4271  0.0136  0.0034
  101SOL    HW2  457   1.750   3.985   0.678  0.1569  1.5861 -0.1515
  101SOL    HW3  458   1.694   3.954   0.816 -0.0879  0.3400 -0.5303
  101SOL    MW4  459   1.756   3.989   0.765  0.3235  0.2639 -0.0875
  102SOL     OW  460   1.770   3.282   0.483  0.3799 -0.1421 -0.1019
  102SOL    HW2  461   1.679   3.312   0.472  1.3544  2.0696 -2.6165
  102SOL    HW3  462   1.779   3.269   0.578 -2.2477  0.6484  0.3124
  102SOL    MW4  463   1.759   3.284   0.494  0.1616  0.2539 -0.3791
  103SOL     OW  464   1.111   1.076   0.431 -0.0175  0.1681 -0.1346
  103SOL    HW2  465   1.200   1.046   0.412 -0.1142  0.9180 -1.8362
  103SOL    HW3  466   1.101   1.156   0.380 -1.1913  0.8628  1.1442
  103SOL    MW4  467   1.122   1.083   0.422 -0.1851  0.3586 -0.1903
  104SOL     OW  468   0.461   4.311   0.200  0.0616 -0.5395  0.5193
  104SOL    HW2  469   0.410   4.274   0.272 -0.0715 -1.1196  0.1278
  104SOL    HW3  470   0.396   4.356   0.146 -0.0511 -1.4030 -0.0579
  104SOL    MW4  471   0.446   4.312   0.203  0.0291 -0.7305  0.3915
  105SOL     OW  472   2.656   4.388   0.209 -0.2111 -0.5733 -0.4136
  105SOL    HW2  473   2.612   4.471   0.222 -0.1597 -0.6136  0.0271
  105SOL    HW3  474   2.639   4.365   0.118 -1.5092 -0.8229 -0.1101
  105SOL    MW4  475   2.648   4.396   0.199 -0.3755 -0.6118 -0.3154
  106SOL     OW  476   3.786   4.331   0.537 -0.2524 -0.7205  0.3342
  106SOL    HW2  477   3.880   4.340   0.517 -0.1433  1.4522  1.7189
  106SOL    HW3  478   3.780   4.344   0.631 -2.1255  0.6984  0.0496
  106SOL    MW4  479   3.798   4.334   0.546 -0.4849 -0.2465  0.4793
  107SOL     OW  480   3.948   3.306   0.481 -0.1927  0.0572  0.0019
  107SOL    HW2  481   3.977   3.290   0.571  1.1114  0.8149 -0.2786
  107SOL    HW3  482   3.860   3.269   0.478  0.4827 -1.6977  1.0453
  107SOL    MW4  483   3.940   3.299   0.493  0.0684 -0.0746  0.1026
  108SOL     OW  484   4.163   2.030   0.534  0.7483  0.2002  0.2497
  108SOL    HW2  485   4.191   2.040   0.624  0.6143  3.1155  0.0222
  108SOL    HW3  486   4.218   1.961   0.498  1.8324  0.0840  2.1303
  108SOL    MW4  487   4.174   2.022   0.541  0.8736  0.5693  0.4678
  109SOL     OW  488   2.451   3.626   0.779 -0.5359  0.0433 -0.6473
  109SOL    HW2  489   2.442   3.721   0.775  0.6019  0.2134  0.6613
  109SOL    HW3  490   2.520   3.606   0.716 -0.1558  0.1703 -0.2694
  109SOL    MW4  491   2.459   3.636   0.770 -0.3357  0.0825 -0.4247
  110SOL     OW  492   0.451   2.789   0.341  0.1400 -0.1144 -0.1547
  110SOL    HW2  493   0.423   2.752   0.257  1.1907 -0.9247 -0.1621
  110SOL    HW3  494   0.529   2.738   0.365 -0.0077  0.2772  1.1947
  110SOL    MW4  495   0.458   2.777   0.333  0.2591 -0.1698  0.0224
  111SOL     OW  496   1.256   3.188   0.506  0.0847 -0.4002  0.2723
  111SOL    HW2  497   1.260   3.113   0.447 -0.3096 -0.4037  0.2455
  111SOL    HW3  498   1.163   3.209   0.511  0.3090  0.8876 -0.7201
  111SOL    MW4  499   1.244   3.181   0.499  0.0622 -0.2308  0.1378
  112SOL     OW  500   3.777   2.912   0.498 -0.3631 -0.0122 -0.2774
  112SOL    HW2  501   3.805   2.895   0.588  0.4624 -0.3720 -0.6065
  112SOL    HW3  502   3.695   2.864   0.489  0.4912 -1.4813 -0.2972
  112SOL    MW4  503   3.770   2.903   0.509 -0.1416 -0.2534 -0.3234
  113SOL     OW  504   1.330   3.926   0.525  0.0263 -0.2273 -0.0607
  113SOL    HW2  505   1.389   3.991   0.488  0.3245 -0.3682  0.1661
  113SOL    HW3  506   1.242   3.962   0.511  0.2296  0.6355  0.8313
  113SOL    MW4  507   1.326   3.939   0.519  0.0924 -0.1321  0.0868
  114SOL     OW  508   0.424   2.498   0.514  0.2095  0.2915 -0.0340
  114SOL    HW2  509   0.505   2.532   0.476 -0.2839  0.0227 -1.3424
  114SOL    HW3  510   0.360   2.569   0.502  0.1635  0.3826  0.7104
  114SOL    MW4  511   0.426   2.512   0.508  0.1383  0.2682 -0.1084
  115SOL     OW  512   1.095   2.870   0.737  0.0260 -0.4010 -0.0225
  115SOL    HW2  513   1.028   2.813   0.774 -0.5843  0.4453  0.1835
  115SOL    HW3  514   1.176   2.841   0.779 -0.2218 -1.3722 -0.2119
  115SOL    MW4  515   1.097   2.858   0.748 -0.0871 -0.4175 -0.0203
  116SOL     OW  516   1.073   3.546   0.538 -0.0298  0.1029 -0.0153
  116SOL    HW2  517   1.168   3.541   0.527 -0.0767  1.4413 -1.1218
  116SOL    HW3  518   1.046   3.456   0.555  1.5863 -0.1187  1.5941
  116SOL    MW4  519   1.082   3.533   0.539  0.1771  0.2501  0.0511
  117SOL     OW  520   4.313   0.731   0.362  0.0535 -0.0782 -0.3266
  117SOL    HW2  521   4.393   0.776   0.386  0.4958 -0.8768 -0.3008
  117SOL    HW3  522   4.244   0.776   0.411  0.6117 -0.0352  0.4205
  117SOL    MW4  523   4.314   0.743   0.371  0.1860 -0.1779 -0.2246
  118SOL     OW  524   3.537   3.516   0.733  0.1516 -0.3702  0.0442
  118SOL    HW2  525   3.620   3.552   0.765  0.1367 -1.1532  0.9791
  118SOL    HW3  526   3.530   3.548   0.643  1.1483  0.2403  0.1781
  118SOL    MW4  527   3.547   3.525   0.725  0.2811 -0.3927  0.1852
  119SOL     OW  528   2.983   0.011   0.885  0.2617  0.0937  0.4057
  119SOL    HW2  529   3.039   0.057   0.823 -0.4705 -0.6886 -0.8666
  119SOL    HW3  530   2.969  -0.075   0.844 -0.8988 -0.1306  1.2657
  119SOL    MW4  531   2.988   0.006   0.871  0.0122 -0.0391  0.3513
  120SOL     OW  532   2.214   0.365   0.835 -0.5697 -0.0613 -0.1935
  120SOL    HW2  533   2.229   0.274   0.811  0.7867  0.3449 -0.9522
  120SOL    HW3  534   2.291   0.412   0.801  0.1662  0.9381  2.6981
  120SOL    MW4  535   2.226   0.359   0.827 -0.2937  0.1241  0.0880
  121SOL     OW  536   1.342   4.535   0.402  0.4950 -0.0533 -0.4829
  121SOL    HW2  537   1.352   4.629   0.412  1.9275 -0.1984 -0.3218
  121SOL    HW3  538   1.294   4.507   0.480  1.0165  0.4145  0.0136
  121SOL    MW4  539   1.337   4.543   0.414  0.7528 -0.0114 -0.3961
  122SOL     OW  540   2.717   1.613   0.567 -0.2647 -0.2897  0.0230
  122SOL    HW2  541   2.709   1.623   0.662  0.7985 -0.0352  0.1022
  122SOL    HW3  542   2.795   1.558   0.555 -0.2675 -0.1433 -0.6990
  122SOL    MW4  543   2.726   1.607   0.578 -0.1247 -0.2370 -0.0618
  123SOL     OW  544   0.083   1.951   0.359 -0.2283 -0.1982 -0.1601
  123SOL    HW2  545   0.066   2.026   0.303  0.6707  0.0628 -0.1017
  123SOL    HW3  546  -0.003   1.912   0.375 -0.7918  1.2844  0.4658
  123SOL    MW4  547   0.070   1.955   0.354 -0.1841  0.0318 -0.0698
  124SOL     OW  548   2.408   2.052   0.796  0.0620  0.0147 -0.0710
  124SOL    HW2  549   2.334   1.998   0.823  1.0037 -1.2708  0.0107
  124SOL    HW3  550   2.485   2.008   0.834  0.7210  2.2172  1.2010
  124SOL    MW4  551   2.409   2.039   0.804  0.2730  0.1354  0.1076
  125SOL     OW  552   1.718   1.932   0.841  0.3474  0.8712 -0.0192
  125SOL    HW2  553   1.737   1.868   0.772 -2.1668  0.1051 -0.0547
  125SOL    HW3  554   1.649   1.987   0.804  0.1588  1.5293  1.2768
  125SOL    MW4  555   1.711   1.931   0.827 -0.0091  0.8570  0.1472
  126SOL     OW  556   0.686   3.888   0.881 -0.1794  0.1440 -0.1175
  126SOL    HW2  557   0.752   3.942   0.837  0.1036  0.0688  0.2129
  126SOL    HW3  558   0.603   3.917   0.845 -0.0613  1.1006  0.3722
  126SOL    MW4  559   0.684   3.899   0.870 -0.1265  0.2601 -0.0094
  127SOL     OW  560   0.697   2.078   0.752  0.1442  0.1796 -0.3913
  127SOL    HW2  561   0.766   2.034   0.801  0.7555  0.5411 -0.9243
  127SOL    HW3  562   0.616   2.035   0.780  0.6355 -0.5925 -0.1534
  127SOL    MW4  563   0.696   2.067   0.762  0.2897  0.1256 -0.4302
  128SOL     OW  564   0.455   4.264   0.822 -0.8468  0.3420  0.0765
  128SOL    HW2  565   0.468   4.229   0.910 -0.6155 -0.1131 -0.1394
  128SOL    HW3  566   0.517   4.337   0.815  0.3466 -0.7066 -0.3220
  128SOL    MW4  567   0.465   4.269   0.833 -0.6588  0.1435 -0.0046
  129SOL     OW  568   4.073   0.344   0.861 -0.6794  0.3636  0.1097
  129SOL    HW2  569   3.991   0.391   0.844 -0.1685  0.9107 -0.9083
  129SOL    HW3  570   4.139   0.395   0.814 -0.0385 -1.0900 -0.5752
  129SOL    MW4  571   4.071   0.357   0.853 -0.5279  0.2440 -0.1149
  130SOL     OW  572   1.080   4.647   0.813  0.1039  0.2066 -0.0784
  130SOL    HW2  573   1.016   4.696   0.761  1.3607  1.4072 -0.5213
  130SOL    HW3  574   1.084   4.561   0.770  0.4287  0.8633 -1.4070
  130SOL    MW4  575   1.072   4.642   0.800  0.3127  0.4516 -0.3121
  131SOL     OW  576   3.912   0.667   0.388  0.1652  0.0083  0.3342
  131SOL    HW2  577   3.900   0.594   0.449  1.3580 -0.8025 -0.3948
  131SOL    HW3  578   3.964   0.731   0.437 -0.9804  0.4341  1.0133
  131SOL    MW4  579   3.917   0.666   0.403  0.1714 -0.0424  0.3275
  132SOL     OW  580   2.206   2.465   0.759  0.2927 -0.6223  0.1873
  132SOL    HW2  581   2.122   2.426   0.785 -0.0090 -1.0490 -1.3588
  132SOL    HW3  582   2.223   2.429   0.672  0.1688  2.4604 -1.1816
  132SOL    MW4  583   2.197   2.455   0.751  0.2367 -0.2718 -0.1974
  133SOL     OW  584   1.058   4.374   0.764  0.1708 -0.5022  0.2554
  133SOL    HW2  585   1.153   4.361   0.753  0.0503 -2.4581  1.3573
  133SOL    HW3  586   1.023   4.368   0.675  1.0559  0.1559 -0.1548
  133SOL    MW4  587   1.066   4.371   0.751  0.2717 -0.6733  0.3466
  134SOL     OW  588   2.456   0.777   0.856 -0.1990  0.1889  0.1239
  134SOL    HW2  589   2.377   0.813   0.815 -0.5127  0.2532  0.7884
  134SOL    HW3  590   2.447   0.682   0.844 -0.6549  0.1580  0.7028
  134SOL    MW4  591   2.444   0.769   0.849 -0.3004  0.1934  0.2880
  135SOL     OW  592   4.444   3.949   0.521  0.0783 -0.0206 -0.1353
  135SOL    HW2  593   4.455   3.968   0.614  0.0913 -0.9219  0.0531
  135SOL    HW3  594   4.531   3.961   0.483  0.2850 -0.6118  0.1476
  135SOL    MW4  595   4.457   3.953   0.528  0.1078 -0.2177 -0.0732
  136SOL     OW  596   2.730   4.373   0.676  0.4434 -0.1737 -0.2043
  136SOL    HW2  597   2.722   4.282   0.706  0.2666  0.0048  0.2919
  136SOL    HW3  598   2.769   4.366   0.588 -0.4496 -0.7808 -0.5608
  136SOL    MW4  599   2.734   4.360   0.668  0.3023 -0.2303 -0.1858
  137SOL     OW  600   2.067   1.307   0.748 -0.1118  0.2494  0.0794
  137SOL    HW2  601   2.069   1.403   0.755 -0.8696  0.2358  0.5146
  137SOL    HW3  602   1.977   1.284   0.769  0.2074 -0.6075  0.4986
  137SOL    MW4  603   2.056   1.317   0.752 -0.1695  0.1345  0.1922
  138SOL     OW  604   0.219   3.604   0.768 -0.0332 -0.1626 -0.6424
  138SOL    HW2  605   0.302   3.570   0.800 -0.6186 -0.0413  1.0591
  138SOL    HW3  606   0.218   3.695   0.797  0.1954  0.4650 -2.5543
  138SOL    MW4  607   0.230   3.612   0.776 -0.0803 -0.0639 -0.6701
  139SOL     OW  608   4.481   1.657   0.670 -0.3128  0.3500 -0.3870
  139SOL    HW2  609   4.399   1.650   0.718 -0.9562  0.3259 -1.4600
  139SOL    HW3  610   4.481   1.581   0.612  0.9433 -0.1913  0.3140
  139SOL    MW4  611   4.470   1.646   0.669 -0.2317  0.2753 -0.4361
  140SOL     OW  612   2.224   0.889   0.760  0.2189  0.2657 -0.0704
  140SOL    HW2  613   2.205   0.904   0.667  1.5846  2.5041 -0.0110
  140SOL    HW3  614   2.237   0.976   0.797  0.0885 -0.6209  2.1588
  140SOL    MW4  615   2.223   0.902   0.753  0.3817  0.4441  0.2314
  141SOL     OW  616   1.357   3.637   0.565  0.3631  0.0078  0.0882
  141SOL    HW2  617   1.322   3.725   0.553  0.7583 -0.0749 -1.8223
  141SOL    HW3  618   1.439   3.650   0.613 -0.9481  0.4106  2.2998
  141SOL    MW4  619   1.363   3.650   0.570  0.2422  0.0498  0.1280
  142SOL     OW  620   3.628   1.104   0.853  0.0508  0.6030  0.3566
  142SOL    HW2  621   3.620   1.107   0.948 -1.1507 -2.0453  0.3829
  142SOL    HW3  622   3.544   1.138   0.821 -0.0132  0.3452  0.2508
  142SOL    MW4  623   3.616   1.109   0.861 -0.1161  0.2195  0.3461
  143SOL     OW  624   1.586   0.272   0.395  0.0519  0.1682 -0.1099
  143SOL    HW2  625   1.649   0.208   0.430  0.2749  0.2888 -0.2857
  143SOL    HW3  626   1.500   0.233   0.411  0.2277 -0.6684 -1.1866
  143SOL    MW4  627   1.583   0.259   0.402  0.1045  0.0737 -0.2751
  144SOL     OW  628   3.004   4.101   0.507  0.6710 -0.0370 -0.7350
  144SOL    HW2  629   3.047   4.071   0.587 -0.1810 -0.6974 -0.5195
  144SOL    HW3  630   2.911   4.106   0.530  0.7584  2.6544 -0.7940
  144SOL    MW4  631   2.997   4.098   0.520  0.5701  0.2313 -0.7143
  145SOL     OW  632   1.231   0.547   0.391  0.0801  0.6689 -0.1944
  145SOL    HW2  633   1.266   0.618   0.338  0.8733  1.1097  0.9217
  145SOL    HW3  634   1.154   0.585   0.434 -0.5195  0.3330 -0.9554
  145SOL    MW4  635   1.225   0.561   0.390  0.1056  0.6827 -0.1476
  146SOL     OW  636   0.208   0.995   0.372 -0.5960 -0.2379  0.0556
  146SOL    HW2  637   0.251   1.080   0.382 -3.0135  0.8756  1.2772
  146SOL    HW3  638   0.267   0.934   0.418  0.7865  0.8690 -0.2008
  146SOL    MW4  639   0.222   0.998   0.380 -0.7326  0.0551  0.1830
  147SOL     OW  640   3.093   4.363   0.499  0.0027  0.2474  0.5292
  147SOL    HW2  641   3.070   4.270   0.499  0.4607  0.1232  1.6866
  147SOL    HW3  642   3.011   4.408   0.478 -0.0893 -0.4376 -0.6299
  147SOL    MW4  643   3.079   4.357   0.496  0.0508  0.1407  0.5290
  148SOL     OW  644   1.067   4.525   0.293  0.3188 -0.4077 -0.1131
  148SOL    HW2  645   1.162   4.530   0.307  0.4206 -1.3505 -0.4867
  148SOL    HW3  646   1.038   4.450   0.343 -0.0032 -1.0406 -1.2192
  148SOL    MW4  647   1.076   4.516   0.301  0.2898 -0.6156 -0.3083
  149SOL     OW  648   1.810   3.217   0.765  0.6057 -0.2380 -0.1233
  149SOL    HW2  649   1.734   3.176   0.807  1.3023 -0.3994  1.0085
  149SOL    HW3  650   1.885   3.181   0.812  1.4332 -0.6090 -1.6866
  149SOL    MW4  651   1.810   3.207   0.777  0.8067 -0.3080 -0.1802
  150SOL     OW  652   3.562   0.383   0.536 -0.1844  0.7105  0.2918
  150SOL    HW2  653   3.511   0.352   0.461 -0.1293 -0.1460  0.6072
  150SOL    HW3  654   3.497   0.424   0.593 -0.5048 -0.2095  0.6017
  150SOL    MW4  655   3.546   0.384   0.534 -0.2193  0.4762  0.3743
  151SOL     OW  656   4.106   0.866   0.498 -0.0025 -0.2255  0.4028
  151SOL    HW2  657   4.074   0.872   0.588 -2.3508 -0.6139 -0.3502
  151SOL    HW3  658   4.064   0.940   0.453  0.9050 -0.2075 -0.4306
  151SOL    MW4  659   4.096   0.877   0.504 -0.1931 -0.2744  0.1935
  152SOL     OW  660   1.786   0.103   0.783  0.2015  0.2205 -0.5576
  152SOL    HW2  661   1.860   0.053   0.818  0.1013  0.4660  0.0082
  152SOL    HW3  662   1.795   0.095   0.688  0.8516  0.0957 -0.4884
  152SOL    MW4  663   1.797   0.095   0.775  0.2739  0.2364 -0.4739
  153SOL     OW  664   2.047   1.359   0.461  0.0591 -0.2617 -0.0820
  153SOL    HW2  665   1.959   1.344   0.428 -0.0257 -0.8848  0.3948
  153SOL    HW3  666   2.044   1.327   0.552  0.5736  0.3870  0.1687
  153SOL    MW4  667   2.035   1.353   0.469  0.1159 -0.2584  0.0139
  154SOL     OW  668   2.967   1.482   0.520 -0.4539 -0.4452  0.3308
  154SOL    HW2  669   3.058   1.509   0.537 -0.2029 -0.7871 -0.4641
  154SOL    HW3  670   2.973   1.388   0.504 -1.1621 -0.7692  1.8403
  154SOL    MW4  671   2.980   1.473   0.520 -0.5145 -0.5329  0.4251
  155SOL     OW  672   2.256   2.256   0.554  0.1318  0.5951  0.2133
  155SOL    HW2  673   2.171   2.226   0.524 -0.1063 -0.2356  1.6987
  155SOL    HW3  674   2.301   2.177   0.583  1.0321  1.1516  0.3705
  155SOL    MW4  675   2.251   2.242   0.554  0.2193  0.5593  0.4300
  156SOL     OW  676   3.172   0.216   0.459  0.2146  0.2108 -0.4072
  156SOL    HW2  677   3.160   0.310   0.472  1.0169  0.2042  0.5189
  156SOL    HW3  678   3.176   0.180   0.548 -1.6985 -0.9273 -0.7607
  156SOL    MW4  679   3.171   0.224   0.473  0.0679  0.0598 -0.3317
  157SOL     OW  680   2.902   2.318   0.834 -0.1240 -0.0994  0.6304
  157SOL    HW2  681   2.825   2.365   0.802  0.8404  1.2135  0.2151
  157SOL    HW3  682   2.913   2.351   0.924  0.5183  0.4293  0.3578
  157SOL    MW4  683   2.893   2.329   0.842  0.0877  0.1433  0.5397
  158SOL     OW  684   1.744   3.719   0.521 -0.3931 -0.0441  0.4543
  158SOL    HW2  685   1.697   3.677   0.593 -0.5566 -2.4238 -0.9907
  158SOL    HW3  686   1.792   3.647   0.478  1.3235  1.6643 -0.5738
  158SOL    MW4  687   1.744   3.704   0.525 -0.1882 -0.1326  0.1280
  159SOL     OW  688   2.359   0.183   0.453 -0.4100  0.1533 -0.3007
  159SOL    HW2  689   2.389   0.110   0.399  0.6181  1.6385 -1.7788
  159SOL    HW3  690   2.265   0.188   0.437 -0.3542 -0.3434 -0.7899
  159SOL    MW4  691   2.351   0.174   0.444 -0.2673  0.2837 -0.5603
  160SOL     OW  692   4.487   0.089   0.801 -0.4780  0.1907  0.3638
  160SOL    HW2  693   4.484   0.182   0.823 -0.9506  0.8169 -2.1186
  160SOL    HW3  694   4.477   0.087   0.705 -0.8272 -2.4294  0.4131
  160SOL    MW4  695   4.486   0.101   0.791 -0.5860 -0.0724  0.0427
  161SOL     OW  696   4.272   1.261   0.482 -0.0169  0.1560 -0.4242
  161SOL    HW2  697   4.233   1.249   0.396 -0.1807  1.5149 -0.5436
  161SOL    HW3  698   4.329   1.185   0.493 -2.2540 -1.5885 -0.4664
  161SOL    MW4  699   4.274   1.250   0.472 -0.3333  0.1050 -0.4455
  162SOL     OW  700   1.276   1.245   0.592 -0.3002 -0.0365  0.2390
  162SOL    HW2  701   1.327   1.290   0.525  1.1091 -1.5572  0.2568
  162SOL    HW3  702   1.235   1.172   0.545  0.5997 -1.0371  0.9731
  162SOL    MW4  703   1.277   1.241   0.577  0.0044 -0.3692  0.3382
  163SOL     OW  704   0.654   0.978   0.361  0.5118 -0.0342 -0.3143
  163SOL    HW2  705   0.744   0.971   0.393  0.4244  0.2419  0.0054
  163SOL    HW3  706   0.622   0.888   0.356  0.0049 -0.0100  1.9284
  163SOL    MW4  707   0.661   0.966   0.365  0.4334  0.0054  0.0238
  164SOL     OW  708   2.793   0.736   0.552  0.3243  0.3062 -0.4535
  164SOL    HW2  709   2.731   0.683   0.501 -0.5178  0.7467  0.1078
  164SOL    HW3  710   2.768   0.826   0.533 -1.1080  0.4896  2.0626
  164SOL    MW4  711   2.781   0.741   0.542  0.0241  0.3886 -0.0474
  165SOL     OW  712   3.845   0.410   0.544  0.1564  0.2801 -0.8814
  165SOL    HW2  713   3.871   0.339   0.486  0.9292 -1.2072  1.2511
  165SOL    HW3  714   3.750   0.411   0.540  0.0954 -1.4792 -0.2484
  165SOL    MW4  715   3.836   0.401   0.536  0.2506 -0.1483 -0.5166
  166SOL     OW  716   1.119   0.791   0.819  0.0910 -0.1110  0.0919
  166SOL    HW2  717   1.050   0.851   0.793 -0.2819 -0.0348  1.2352
  166SOL    HW3  718   1.126   0.802   0.914  1.5759 -0.2148  0.0027
  166SOL    MW4  719   1.111   0.800   0.828  0.2376 -0.1147  0.2310
  167SOL     OW  720   0.037   3.219   0.739 -0.0596 -0.3308 -0.1126
  167SOL    HW2  721   0.105   3.174   0.791 -1.3356 -1.1410  0.8849
  167SOL    HW3  722   0.031   3.306   0.779  1.9694  0.5581 -1.6456
  167SOL    MW4  723   0.045   3.224   0.751  0.0398 -0.3204 -0.1833
  168SOL     OW  724   3.578   4.207   0.896 -0.6054  0.2376  0.2509
  168SOL    HW2  725   3.649   4.256   0.854 -0.5946  0.0777  0.0834
  168SOL    HW3  726   3.499   4.253   0.869 -0.5938  0.1717  0.1059
  168SOL    MW4  727   3.577   4.220   0.887 -0.6027  0.2079  0.2096
  169SOL     OW  728   2.605   3.856   0.612  0.0424 -0.1677  0.3402
  169SOL    HW2  729   2.575   3.902   0.689  0.0752  1.2850 -0.5024
  169SOL    HW3  730   2.525   3.820   0.572 -0.3007  1.3618 -0.3992
  169SOL    MW4  731   2.591   3.857   0.617  0.0014  0.2258  0.1315
  170SOL     OW  732   0.317   4.197   0.434 -0.2640  0.2559 -0.3974
  170SOL    HW2  733   0.256   4.266   0.463 -0.6751 -0.6323  0.8857
  170SOL    HW3  734   0.264   4.117   0.433  0.6950 -0.3928  0.0296
  170SOL    MW4  735   0.302   4.196   0.438 -0.1916  0.0529 -0.1717
  171SOL     OW  736   2.655   1.651   0.835  0.3010 -0.7030 -0.1406
  171SOL    HW2  737   2.652   1.746   0.846  0.7765 -0.7195  0.1774
  171SOL    HW3  738   2.564   1.622   0.845  0.0162 -0.1779 -1.2234
  171SOL    MW4  739   2.643   1.659   0.838  0.3264 -0.6359 -0.2415
  172SOL     OW  740   1.056   4.051   0.512 -0.2216 -0.1201 -0.1819
  172SOL    HW2  741   0.992   4.046   0.582 -0.3121  0.6368 -0.2140
  172SOL    HW3  742   1.009   4.018   0.435  0.0652 -1.5482  0.2253
  172SOL    MW4  743   1.041   4.046   0.511 -0.1959 -0.2084 -0.1324
  173SOL     OW  744   4.035   3.991   0.479  0.1702 -0.3589 -0.4325
  173SOL    HW2  745   3.944   4.020   0.483 -0.2838 -1.9259  0.9112
  173SOL    HW3  746   4.075   4.048   0.413 -1.9505 -0.1621 -1.6023
  173SOL    MW4  747   4.028   4.003   0.471 -0.1698 -0.5398 -0.4096
  174SOL     OW  748   3.576   2.453   0.536 -0.3419 -0.3010  0.0156
  174SOL    HW2  749   3.654   2.423   0.490  1.1062  1.2826  1.3542
  174SOL    HW3  750   3.592   2.430   0.628 -1.4289  0.1071  0.3164
  174SOL    MW4  751   3.588   2.446   0.542 -0.2942 -0.0384  0.2319
  175SOL     OW  752   4.076   0.071   0.804  0.0312 -0.0687 -0.1408
  175SOL    HW2  753   4.099   0.163   0.816  0.0801 -0.2579  1.2806
  175SOL    HW3  754   4.155   0.023   0.829 -0.3384 -0.5334  0.1468
  175SOL    MW4  755   4.089   0.077   0.809 -0.0110 -0.1550  0.0847
  176SOL     OW  756   2.006   4.417   0.748 -0.3715 -0.0591  0.2208
  176SOL    HW2  757   1.935   4.362   0.781  0.1586 -0.7548  0.2132
  176SOL    HW3  758   2.026   4.381   0.661  0.2250 -0.0911  0.3652
  176SOL    MW4  759   1.999   4.405   0.741 -0.2228 -0.1550  0.2390
  177SOL     OW  760   1.976   2.330   0.823 -0.1788  0.2126  0.7099
  177SOL    HW2  761   1.986   2.236   0.807 -2.2504  0.0872 -0.0062
  177SOL    HW3  762   1.969   2.338   0.918 -1.6594 -0.5515  0.6733
  177SOL    MW4  763   1.976   2.319   0.833 -0.6474  0.0949  0.6106
  178SOL     OW  764   0.156   2.431   0.186 -0.2601 -0.6588 -0.0899
  178SOL    HW2  765   0.109   2.493   0.241  0.8414 -0.1519  0.3070
  178SOL    HW3  766   0.219   2.390   0.245  2.1805  1.1710 -1.3103
  178SOL    MW4  767   0.158   2.434   0.201  0.2072 -0.3505 -0.1985
  179SOL     OW  768   1.280   2.960   0.352  0.1621 -0.1234 -0.2768
  179SOL    HW2  769   1.192   2.933   0.382  0.7616 -0.8876  0.8466
  179SOL    HW3  770   1.303   2.896   0.286 -0.7842  1.0277 -1.7623
  179SOL    MW4  771   1.271   2.948   0.348  0.1165 -0.0725 -0.3246
  180SOL     OW  772   1.749   2.477   0.724  0.2352 -0.8078  0.1154
  180SOL    HW2  773   1.680   2.426   0.766  0.0427  2.1646  3.5780
  180SOL    HW3  774   1.830   2.431   0.746 -0.0565 -0.4290  2.0082
  180SOL    MW4  775   1.751   2.464   0.732  0.1713 -0.3655  0.8220
  181SOL     OW  776   1.095   2.077   0.788 -0.0303  0.5130 -0.1953
  181SOL    HW2  777   1.093   2.073   0.693  0.3612 -0.1373 -0.1856
  181SOL    HW3  778   1.170   2.022   0.812 -1.5540 -1.2927  0.5827
  181SOL    MW4  779   1.105   2.069   0.779 -0.1798  0.1888 -0.0913
  182SOL     OW  780   4.238   2.329   0.863  0.1103 -0.0420  0.4026
  182SOL    HW2  781   4.324   2.364   0.841 -0.2150 -0.6249 -1.9364
  182SOL    HW3  782   4.247   2.234   0.853 -0.7027 -0.1371  0.4924
  182SOL    MW4  783   4.250   2.321   0.859 -0.0396 -0.1314  0.1057
  183SOL     OW  784   1.962   0.483   0.716 -0.3153  0.3649 -0.4966
  183SOL    HW2  785   1.898   0.460   0.783  0.9819 -0.5513  0.4534
  183SOL    HW3  786   2.042   0.437   0.742  0.5552  0.9809 -2.0026
  183SOL    MW4  787   1.964   0.474   0.728 -0.0293  0.3253 -0.5699
  184SOL     OW  788   1.367   1.632   0.779  0.1024 -0.2328 -0.5631
  184SOL    HW2  789   1.451   1.587   0.783  0.1728 -0.2579 -2.1614
  184SOL    HW3  790   1.310   1.582   0.837  1.1388 -0.2850  0.4397
  184SOL    MW4  791   1.371   1.620   0.787  0.2484 -0.2431 -0.6416
  185SOL     OW  792   3.399   3.815   0.373 -0.4004  0.1374  0.4736
  185SOL    HW2  793   3.428   3.896   0.414  0.5632 -0.4486  0.9780
  185SOL    HW3  794   3.411   3.829   0.279  0.1121  0.4340  0.5872
  185SOL    MW4  795   3.404   3.827   0.366 -0.2058  0.0992  0.5552
  186SOL     OW  796   0.555   2.090   0.395  0.2319 -0.3448  0.1502
  186SOL    HW2  797   0.485   2.151   0.372 -1.1391 -1.4247  1.3351
  186SOL    HW3  798   0.552   2.086   0.491  1.4678 -0.9340  0.1741
  186SOL    MW4  799   0.545   2.097   0.405  0.2140 -0.5651  0.3097
  187SOL     OW  800   4.432   1.471   0.472  0.3618  0.0639  0.4319
  187SOL    HW2  801   4.365   1.507   0.413  0.4318  0.0444  0.3408
  187SOL    HW3  802   4.402   1.382   0.490  0.4038  0.0285  0.3285
  187SOL    MW4  803   4.419   1.464   0.467  0.3767  0.0565  0.4062
  188SOL     OW  804   0.425   3.499   0.481  0.2457  0.0097  0.1583
  188SOL    HW2  805   0.487   3.569   0.502  0.8736 -0.4667 -0.1004
  188SOL    HW3  806   0.343   3.545   0.462  0.3137  0.6010  1.2188
  188SOL    MW4  807   0.422   3.514   0.481  0.3376  0.0253  0.2641
  189SOL     OW  808   2.712   1.190   0.894  0.2032  0.0532 -0.2725
  189SOL    HW2  809   2.711   1.095   0.886  0.5025  0.1194 -1.0848
  189SOL    HW3  810   2.796   1.217   0.858 -0.2883  0.7104 -0.9446
  189SOL    MW4  811   2.723   1.181   0.888  0.1781  0.1485 -0.4684
  190SOL     OW  812   3.573   1.647   0.796 -0.0739  0.0707 -0.5177
  190SOL    HW2  813   3.566   1.733   0.839  0.5736 -0.3310  0.4173
  190SOL    HW3  814   3.507   1.593   0.839  1.0475 -0.5314  0.4927
  190SOL    MW4  815   3.564   1.651   0.807  0.1593 -0.0618 -0.2611
  191SOL     OW  816   2.828   4.454   0.437  0.0645 -0.2794  0.0998
  191SOL    HW2  817   2.788   4.414   0.359  1.2097 -0.8484 -0.2031
  191SOL    HW3  818   2.779   4.535   0.450 -1.2048 -0.9652 -0.2590
  191SOL    MW4  819   2.816   4.459   0.429  0.0479 -0.4454  0.0125
  192SOL     OW  820   4.487   2.449   0.788  0.1228  0.0475  0.5346
  192SOL    HW2  821   4.561   2.402   0.826 -0.2108  0.1006  1.2596
  192SOL    HW3  822   4.486   2.421   0.696  1.1338  0.1715  0.4728
  192SOL    MW4  823   4.497   2.439   0.781  0.2122  0.0706  0.6220
  193SOL     OW  824   1.737   2.496   0.447 -0.2783  0.2082 -0.1353
  193SOL    HW2  825   1.756   2.493   0.541 -1.6846 -1.5399  0.1105
  193SOL    HW3  826   1.780   2.576   0.416  1.9447 -0.2753  1.6105
  193SOL    MW4  827   1.745   2.506   0.455 -0.1705 -0.0863  0.1275
  194SOL     OW  828   2.161   3.553   0.473  0.4855 -0.0614 -0.2775
  194SOL    HW2  829   2.083   3.522   0.427 -0.5409 -0.0369  1.4119
  194SOL    HW3  830   2.131   3.572   0.561  1.9869  1.9084 -0.1609
  194SOL    MW4  831   2.147   3.551   0.478  0.5481  0.2017 -0.0392
  195SOL     OW  832   3.544   2.732   0.502  0.7272 -0.0601 -0.0327
  195SOL    HW2  833   3.458   2.744   0.463  0.2553  0.7009  1.2218
  195SOL    HW3  834   3.550   2.637   0.516  0.0856 -0.1176 -0.1184
  195SOL    MW4  835   3.533   2.721   0.499  0.5803  0.0329  0.1215
  196SOL     OW  836   0.696   0.759   0.866  0.3726 -0.2276  0.3632
  196SOL    HW2  837   0.773   0.807   0.836  0.2308 -0.1873  0.0557
  196SOL    HW3  838   0.627   0.783   0.804  0.3937 -1.1129 -0.0125
  196SOL    MW4  839   0.697   0.768   0.854  0.3566 -0.3391  0.2731
  197SOL     OW  840   2.185   0.639   0.410  0.1782 -0.1204 -0.3462
  197SOL    HW2  841   2.185   0.728   0.444 -1.7978  0.1187 -0.9083
  197SOL    HW3  842   2.226   0.647   0.324  3.0850 -0.3511  0.9609
  197SOL    MW4  843   2.191   0.651   0.403  0.3011 -0.1193 -0.2479
  198SOL     OW  844   2.031   3.880   0.784  0.1754  0.3880  0.5523
  198SOL    HW2  845   1.951   3.925   0.757 -0.9631 -1.2967  1.0318
  198SOL    HW3  846   2.034   3.891   0.879 -0.4711 -1.0724  0.7627
  198SOL    MW4  847   2.021   3.887   0.793 -0.0601 -0.0269  0.6433
  199SOL     OW  848   0.897   0.118   0.648 -0.6215  0.0691 -0.3944
  199SOL    HW2  849   0.900   0.142   0.556 -1.1449 -0.1576 -0.4711
  199SOL    HW3  850   0.894   0.202   0.694 -0.6371  0.1795 -0.5964
  199SOL    MW4  851   0.897   0.132   0.642 -0.6925  0.0538 -0.4312
  200SOL     OW  852   3.402   3.108   0.189 -0.4840 -0.0044  0.2592
  200SOL    HW2  853   3.446   3.165   0.252  1.0315 -0.9665  0.0926
  200SOL    HW3  854   3.425   3.143   0.104  0.6748 -0.9956  0.1470
  200SOL    MW4  855   3.411   3.120   0.186 -0.1311 -0.2623  0.2224
  201SOL     OW  856   0.447   1.268   0.909  0.0626  0.1248  0.1318
  201SOL    HW2  857   0.490   1.194   0.867 -0.1852 -1.0022  1.8131
  201SOL    HW3  858   0.512   1.339   0.907  1.6072 -1.2071  1.6375
  201SOL    MW4  859   0.461   1.268   0.903  0.2337 -0.1994  0.5523
  202SOL     OW  860   4.026   2.450   0.732  0.5283  0.6982  0.2865
  202SOL    HW2  861   3.956   2.418   0.789  0.4158  0.2446 -0.1004
  202SOL    HW3  862   4.107   2.420   0.772  0.3936 -0.5819 -0.3904
  202SOL    MW4  863   4.027   2.442   0.745  0.4959  0.4694  0.1462
  203SOL     OW  864   4.039   0.843   0.761 -0.1159  0.3765  0.1320
  203SOL    HW2  865   3.973   0.797   0.812  0.0537  1.7242  1.6106
  203SOL    HW3  866   4.024   0.936   0.779  1.5688  0.7538 -0.2696
  203SOL    MW4  867   4.029   0.850   0.770  0.1287  0.6041  0.2741
  204SOL     OW  868   1.570   3.610   0.775 -0.3188  0.1251 -0.2099
  204SOL    HW2  869   1.564   3.693   0.821 -1.1758 -0.8046  1.3850
  204SOL    HW3  870   1.647   3.568   0.811 -0.2094 -0.0207 -0.6112
  204SOL    MW4  871   1.579   3.615   0.786 -0.4175 -0.0169 -0.0524
  205SOL     OW  872   2.509   4.226   0.409 -0.3157 -0.1112 -0.2429
  205SOL    HW2  873   2.437   4.164   0.397  0.7218 -1.4040  0.2346
  205SOL    HW3  874   2.527   4.259   0.321 -0.5843 -0.7990 -0.5598
  205SOL    MW4  875   2.502   4.222   0.396 -0.2143 -0.3719 -0.2217
  206SOL     OW  876   2.275   0.126   0.728 -0.1397  0.1067  0.5245
  206SOL    HW2  877   2.347   0.109   0.788 -0.3341  1.4030  1.1376
  206SOL    HW3  878   2.315   0.127   0.641  0.3708 -0.3582  0.7551
  206SOL    MW4  879   2.289   0.124   0.724 -0.0982  0.2164  0.6359
  207SOL     OW  880   3.603   1.902   0.907 -0.4845 -0.0997 -0.2406
  207SOL    HW2  881   3.669   1.959   0.869  0.2217 -1.1003 -0.5384
  207SOL    HW3  882   3.520   1.936   0.873 -0.0510  0.5878 -0.6219
  207SOL    MW4  883   3.601   1.914   0.897 -0.3340 -0.1409 -0.3302
  208SOL     OW  884   3.345   2.303   0.447 -0.0339  0.3768 -0.1700
  208SOL    HW2  885   3.416   2.349   0.491  0.3575  0.2767 -0.6926
  208SOL    HW3  886   3.267   2.355   0.467  0.1564  0.3955  0.5380
  208SOL    MW4  887   3.344   2.316   0.455  0.0424  0.3660 -0.1455
  209SOL     OW  888   3.422   0.228   0.343  0.3059 -0.8691 -0.0766
  209SOL    HW2  889   3.330   0.242   0.367  0.4911  1.0114 -0.3192
  209SOL    HW3  890   3.425   0.247   0.249  0.9690 -0.7771 -0.0379
  209SOL    MW4  891   3.410   0.233   0.334  0.4179 -0.6089 -0.1035
  210SOL     OW  892   2.497   3.954   0.853  0.0192  0.2844 -0.1508
  210SOL    HW2  893   2.562   4.024   0.856 -0.5561  0.7881  1.3123
  210SOL    HW3  894   2.419   3.995   0.816  0.0160  0.1335 -0.3094
  210SOL    MW4  895   2.495   3.969   0.849 -0.0570  0.3309  0.0214
  211SOL     OW  896   2.542   2.954   0.479 -0.4201  0.3004 -0.2078
  211SOL    HW2  897   2.490   2.875   0.468  0.2527 -0.0713 -0.7489
  211SOL    HW3  898   2.609   2.931   0.543  0.4960  0.0657 -1.2350
  211SOL    MW4  899   2.544   2.941   0.486 -0.2108  0.2203 -0.4147
  212SOL     OW  900   3.141   0.406   0.869  0.0696 -0.1010  0.2989
  212SOL    HW2  901   3.129   0.381   0.960  1.3541  0.9866  0.7778
  212SOL    HW3  902   3.086   0.484   0.858  1.0234  0.6145  0.5416
  212SOL    MW4  903   3.132   0.413   0.879  0.3648  0.1368  0.3941
  213SOL     OW  904   3.367   2.032   0.782 -0.1335 -0.2496 -0.0987
  213SOL    HW2  905   3.296   1.986   0.826 -0.0389  0.5950  0.9490
  213SOL    HW3  906   3.339   2.039   0.691 -1.0212 -0.6437  0.1432
  213SOL    MW4  907   3.354   2.027   0.776 -0.2379 -0.1900  0.0713
  214SOL     OW  908   0.814   4.643   0.358 -0.2810 -0.0523  0.0633
  214SOL    HW2  909   0.819   4.738   0.354 -1.6805 -0.0152 -1.3355
  214SOL    HW3  910   0.900   4.614   0.325 -0.1806  0.7244 -0.3885
  214SOL    MW4  911   0.826   4.652   0.353 -0.4523  0.0548 -0.1808
  215SOL     OW  912   1.851   2.741   0.382 -0.2039 -0.4480  0.2012
  215SOL    HW2  913   1.944   2.762   0.397 -0.4503  0.2467  0.7695
  215SOL    HW3  914   1.809   2.827   0.373 -0.5190 -0.7846 -1.7717
  215SOL    MW4  915   1.858   2.755   0.383 -0.2779 -0.4005  0.0159
  216SOL     OW  916   3.864   1.301   0.527  0.1083 -0.0382 -0.0251
  216SOL    HW2  917   3.865   1.283   0.620  0.5169 -1.6829 -0.3391
  216SOL    HW3  918   3.915   1.382   0.517 -1.4568  1.1356  1.3559
  216SOL    MW4  919   3.871   1.310   0.538 -0.0441 -0.1005  0.1157
  217SOL     OW  920   2.475   4.462   0.743 -0.3838  0.1463 -0.3878
  217SOL    HW2  921   2.566   4.441   0.719 -0.8274 -1.6061 -0.6364
  217SOL    HW3  922   2.481   4.545   0.790  1.3637  0.0036 -0.3199
  217SOL    MW4  923   2.488   4.470   0.746 -0.2120 -0.1035 -0.4116
  218SOL     OW  924   2.391   1.539   0.856 -0.2120 -0.2116  0.1955
  218SOL    HW2  925   2.415   1.449   0.834 -0.9571 -0.5643  0.8315
  218SOL    HW3  926   2.373   1.580   0.771 -0.0049 -0.6950 -0.0854
  218SOL    MW4  927   2.392   1.533   0.842 -0.2830 -0.3221  0.2423
  219SOL     OW  928   3.595   2.202   0.282 -0.5249  0.4859  0.1205
  219SOL    HW2  929   3.670   2.250   0.316  0.2076 -0.2544 -0.4409
  219SOL    HW3  930   3.519   2.249   0.316  0.1894  0.7880  1.3194
  219SOL    MW4  931   3.594   2.214   0.291 -0.3340  0.4282  0.2047
  220SOL     OW  932   2.488   0.054   0.868  0.2447  0.1847 -0.7557
  220SOL    HW2  933   2.507   0.022   0.956 -0.6602  0.0453 -0.6049
  220SOL    HW3  934   2.574   0.071   0.829  0.6104  2.2302  0.8645
  220SOL    MW4  935   2.501   0.052   0.874  0.1733  0.4362 -0.5221
  221SOL     OW  936   0.350   1.889   0.439 -0.0636  0.8287 -0.3965
  221SOL    HW2  937   0.400   1.951   0.386  0.6025 -0.6182 -1.4968
  221SOL    HW3  938   0.260   1.900   0.411  0.0310  1.4273 -0.4642
  221SOL    MW4  939   0.345   1.899   0.429  0.0367  0.7168 -0.5505
  222SOL     OW  940   2.920   2.995   0.444  0.3294  0.0700 -0.3647
  222SOL    HW2  941   2.881   2.910   0.462  0.1630 -0.2161 -1.9338
  222SOL    HW3  942   3.007   2.975   0.411  1.0016  0.6057  1.0671
  222SOL    MW4  943   2.926   2.981   0.442  0.3963  0.1028 -0.3828
  223SOL     OW  944   3.048   1.076   0.932 -0.4048 -0.1136  0.4664
  223SOL    HW2  945   2.999   0.994   0.944 -0.0993 -0.3520  0.0975
  223SOL    HW3  946   3.061   1.109   1.021 -0.6923 -0.3691  0.6061
  223SOL    MW4  947   3.043   1.070   0.946 -0.4025 -0.1788  0.4361
  224SOL     OW  948   3.174   3.678   0.471  0.0367 -0.0481 -0.5434
  224SOL    HW2  949   3.228   3.642   0.541 -0.9434  1.5532  1.0955
  224SOL    HW3  950   3.226   3.749   0.433  0.0397 -0.0528 -0.5483
  224SOL    MW4  951   3.188   3.683   0.475 -0.0920  0.1624 -0.3279
  225SOL     OW  952   1.064   2.036   0.499  0.1342  0.4842 -0.5042
  225SOL    HW2  953   0.986   2.092   0.495  0.1313  0.6461  1.4231
  225SOL    HW3  954   1.125   2.074   0.437 -1.1299  0.6617 -1.6598
  225SOL    MW4  955   1.061   2.048   0.491 -0.0329  0.5291 -0.4024
  226SOL     OW  956   0.439   2.486   0.783  0.1218 -0.1893  0.0863
  226SOL    HW2  957   0.519   2.435   0.794  0.6823  0.5434 -0.5708
  226SOL    HW3  958   0.426   2.488   0.688 -0.3517  0.1974  0.1599
  226SOL    MW4  959   0.448   2.479   0.772  0.1333 -0.0417  0.0093
  227SOL     OW  960   1.537   0.045   0.890  0.0931 -0.1984  0.0982
  227SOL    HW2  961   1.622   0.081   0.867 -1.2061  1.6589 -2.0501
  227SOL    HW3  962   1.540   0.031   0.985  2.9465 -0.7133 -0.0417
  227SOL    MW4  963   1.548   0.048   0.899  0.2981 -0.0212 -0.2038
  228SOL     OW  964   0.236   2.831   0.752  0.0215  0.2257  0.0841
  228SOL    HW2  965   0.155   2.787   0.778  0.3627 -0.3753  0.1431
  228SOL    HW3  966   0.224   2.922   0.781 -1.7374  0.7936 -2.3348
  228SOL    MW4  967   0.224   2.838   0.760 -0.1655  0.2213 -0.2273
  229SOL     OW  968   0.919   2.459   0.775 -0.4021  0.4607  0.1684
  229SOL    HW2  969   0.974   2.412   0.838  0.1108 -0.1404 -0.7246
  229SOL    HW3  970   0.830   2.446   0.807 -0.2132 -0.6012  0.2670
  229SOL    MW4  971   0.914   2.451   0.787 -0.3095  0.2415  0.0636
  230SOL     OW  972   3.548   1.943   0.224  0.1968 -0.0744 -0.2764
  230SOL    HW2  973   3.567   2.036   0.231  0.4096 -0.1556  0.2722
  230SOL    HW3  974   3.564   1.921   0.132  1.7735  0.0650 -0.0345
  230SOL    MW4  975   3.552   1.952   0.213  0.4332 -0.0666 -0.1721
  231SOL     OW  976   3.015   2.021   0.517 -0.0291  0.2714 -0.5277
  231SOL    HW2  977   2.990   1.934   0.486 -1.2181  0.4169 -0.0070
  231SOL    HW3  978   2.977   2.027   0.605  0.4310  1.1494 -0.3845
  231SOL    MW4  979   3.007   2.010   0.525 -0.1256  0.4065 -0.4401
  232SOL     OW  980   3.802   2.326   0.448  0.4120 -0.1594  0.0612
  232SOL    HW2  981   3.887   2.370   0.447  0.8836 -1.0800 -1.4793
  232SOL    HW3  982   3.816   2.249   0.502  0.8971 -0.9411 -1.1571
  232SOL    MW4  983   3.815   2.322   0.455  0.5383 -0.3841 -0.3027
  233SOL     OW  984   0.181   1.471   0.321  0.1197  0.0337 -0.2646
  233SOL    HW2  985   0.103   1.472   0.377 -0.1741 -0.4119 -0.6636
  233SOL    HW3  986   0.147   1.452   0.234  0.6924 -0.2884 -0.4149
  233SOL    MW4  987   0.166   1.469   0.317  0.1565 -0.0676 -0.3371
  234SOL     OW  988   1.022   1.324   0.685  0.2024 -0.4732 -0.5142
  234SOL    HW2  989   0.991   1.396   0.630  2.4184  1.5574  0.8094
  234SOL    HW3  990   1.111   1.307   0.654  1.0892 -0.0161  1.6969
  234SOL    MW4  991   1.029   1.331   0.673  0.6119 -0.1451 -0.0478
  235SOL     OW  992   2.795   2.108   0.356 -0.0350 -0.2179 -0.3926
  235SOL    HW2  993   2.857   2.079   0.423  0.9297  1.7595 -0.4059
  235SOL    HW3  994   2.809   2.047   0.283 -0.4490 -1.8169  0.8525
  235SOL    MW4  995   2.805   2.096   0.355  0.0379 -0.1681 -0.2301
  236SOL     OW  996   4.469   2.358   0.539 -0.1233 -0.0845 -0.0394
  236SOL    HW2  997   4.478   2.437   0.485 -2.6274  0.2759 -0.0340
  236SOL    HW3  998   4.392   2.314   0.502  0.3545 -1.7523  0.9199
  236SOL    MW4  999   4.460   2.363   0.527 -0.3910 -0.2570  0.0879
  237SOL     OW 1000   1.643   1.122   0.873 -0.0392  0.5943  0.3921
  237SOL    HW2 1001   1.686   1.046   0.834 -1.5547  0.8366 -1.8926
  237SOL    HW3 1002   1.677   1.197   0.823  0.8218  1.3276  2.0697
  237SOL    MW4 1003   1.653   1.122   0.861 -0.1255  0.7228  0.3120
  238SOL     OW 1004   0.712   3.287   0.441 -0.0258 -0.1529  0.4539
  238SOL    HW2 1005   0.660   3.213   0.410 -0.8785  0.8115 -0.4752
  238SOL    HW3 1006   0.656   3.364   0.425  0.5271  0.6189  2.0991
  238SOL    MW4 1007   0.698   3.288   0.435 -0.0654  0.0763  0.5484
  239SOL     OW 1008   4.487   4.012   0.807  0.4953 -0.0176  0.5903
  239SOL    HW2 1009   4.580   3.987   0.804  0.0184 -1.6683 -1.0243
  239SOL    HW3 1010   4.488   4.103   0.838  2.6205 -0.1789  1.0806
  239SOL    MW4 1011   4.500   4.021   0.811  0.7124 -0.2561  0.4419
  240SOL     OW 1012   2.950   1.283   0.779  0.1755 -0.0583 -0.3854
  240SOL    HW2 1013   2.992   1.224   0.842 -0.1950 -0.1444 -0.2196
  240SOL    HW3 1014   2.977   1.250   0.693  0.3170 -0.2111 -0.2827
  240SOL    MW4 1015   2.959   1.271   0.776  0.1454 -0.0899 -0.3501
  241SOL     OW 1016   1.782   1.301   0.715 -0.1428  0.2363  0.3395
  241SOL    HW2 1017   1.753   1.384   0.754 -0.2770  0.1302  0.4675
  241SOL    HW3 1018   1.790   1.320   0.622  1.0624  0.7370  0.5387
  241SOL    MW4 1019   1.779   1.315   0.708 -0.0015  0.2884  0.3827
  242SOL     OW 1020   1.686   3.031   0.392  0.2062  0.2707 -0.0577
  242SOL    HW2 1021   1.734   3.099   0.437  0.2788 -1.0069  1.8392
  242SOL    HW3 1022   1.627   3.078   0.333 -0.3076  2.0074  1.7851
  242SOL    MW4 1023   1.684   3.046   0.390  0.1481  0.3314  0.4357
  243SOL     OW 1024   0.222   0.808   0.806 -0.4218 -0.1067 -0.1973
  243SOL    HW2 1025   0.195   0.717   0.798  2.0091 -1.1308  2.5679
  243SOL    HW3 1026   0.225   0.824   0.900 -1.5116  3.0814 -0.6343
  243SOL    MW4 1027   0.219   0.798   0.817 -0.2449  0.1788  0.1099
  244SOL     OW 1028   0.247   0.005   0.897  0.2660 -0.0379 -0.9172
  244SOL    HW2 1029   0.161   0.025   0.859 -0.1524  0.5365  0.2969
  244SOL    HW3 1030   0.261  -0.088   0.877 -0.2708  0.0728 -1.8215
  244SOL    MW4 1031   0.237  -0.005   0.890  0.1400  0.0529 -0.8763
  245SOL     OW 1032   0.002   0.356   0.862  0.4854  0.0463 -0.6894
  245SOL    HW2 1033   0.007   0.369   0.957  1.2691 -1.5130 -0.5005
  245SOL    HW3 1034  -0.065   0.418   0.833 -0.3913 -0.0675  1.0028
  245SOL    MW4 1035  -0.006   0.366   0.870  0.4730 -0.1744 -0.4412
  246SOL     OW 1036   2.389   3.744   0.459  0.0712  0.0206  0.2419
  246SOL    HW2 1037   2.449   3.714   0.391  2.8157 -0.2823  2.6887
  246SOL    HW3 1038   2.315   3.683   0.454 -0.0337  0.3212 -2.7623
  246SOL    MW4 1039   2.387   3.732   0.450  0.4194  0.0203  0.1683
  247SOL     OW 1040   4.365   4.196   0.461  0.1196 -0.4995  0.0622
  247SOL    HW2 1041   4.389   4.107   0.488 -0.8107 -0.4988  0.9034
  247SOL    HW3 1042   4.285   4.185   0.409 -1.2835  0.0376  2.0350
  247SOL    MW4 1043   4.358   4.183   0.458 -0.1884 -0.4287  0.4335
  248SOL     OW 1044   4.040   1.109   0.831 -0.7094  0.7322  0.2499
  248SOL    HW2 1045   4.107   1.173   0.806 -0.4138  0.4219  0.2469
  248SOL    HW3 1046   4.039   1.111   0.927 -0.7653  0.8077  0.2478
  248SOL    MW4 1047   4.048   1.118   0.840 -0.6776  0.7012  0.2493
  249SOL     OW 1048   0.172   3.606   0.492  0.1391 -0.1103  0.1271
  249SOL    HW2 1049   0.177   3.606   0.587  0.8684  0.1735  0.0959
  249SOL    HW3 1050   0.106   3.540   0.471 -0.2398  0.0334  0.8358
  249SOL    MW4 1051   0.164   3.597   0.502  0.1853 -0.0539  0.2165
  250SOL     OW 1052   0.181   0.537   0.754  0.3698 -0.1327  0.1864
  250SOL    HW2 1053   0.113   0.477   0.785 -0.4578  0.0135 -1.2499
  250SOL    HW3 1054   0.263   0.494   0.776 -0.2115 -1.3721  0.0156
  250SOL    MW4 1055   0.183   0.524   0.761  0.1839 -0.2770 -0.0256
  251SOL     OW 1056   4.045   4.252   0.888  0.9484 -0.2302 -0.0101
  251SOL    HW2 1057   4.035   4.168   0.845 -0.3202 -0.6249  1.0138
  251SOL    HW3 1058   4.113   4.297   0.838  0.3343 -1.1257 -1.6757
  251SOL    MW4 1059   4.053   4.247   0.876  0.6995 -0.4005 -0.0948
  252SOL     OW 1060   4.214   3.273   0.371  0.3736 -0.0546  0.1396
  252SOL    HW2 1061   4.188   3.303   0.284  1.2352  1.8653  0.5151
  252SOL    HW3 1062   4.133   3.270   0.421  0.2071  1.1798 -0.0481
  252SOL    MW4 1063   4.200   3.276   0.366  0.4649  0.3617  0.1644
  253SOL     OW 1064   2.359   1.916   0.548 -0.3204 -0.2565  0.0854
  253SOL    HW2 1065   2.415   1.966   0.488 -0.4007  0.0357  0.2544
  253SOL    HW3 1066   2.377   1.953   0.634 -1.0906  0.1331  0.0818
  253SOL    MW4 1067   2.369   1.927   0.551 -0.4325 -0.1665  0.1073
  254SOL     OW 1068   3.059   0.723   0.433  0.1473  0.3247  0.6198
  254SOL    HW2 1069   2.974   0.734   0.476 -0.0886 -0.8958  0.4850
  254SOL    HW3 1070   3.105   0.805   0.449 -0.8648  0.7936  1.1403
  254SOL    MW4 1071   3.054   0.735   0.441 -0.0172  0.2256  0.6707
  255SOL     OW 1072   0.220   2.335   0.887  0.2512  0.3089 -0.0972
  255SOL    HW2 1073   0.235   2.322   0.981  0.4262  1.9311  0.1073
  255SOL    HW3 1074   0.301   2.374   0.855  0.3329 -0.5887 -1.0055
  255SOL    MW4 1075   0.233   2.338   0.895  0.2850  0.4041 -0.1900
  256SOL     OW 1076   0.006   1.916   0.865 -0.0509  0.2766 -0.2603
  256SOL    HW2 1077   0.000   1.837   0.811 -2.3789  0.6747 -0.6696
  256SOL    HW3 1078   0.074   1.969   0.824  0.6577 -0.9778 -0.7139
  256SOL    MW4 1079   0.014   1.913   0.853 -0.2645  0.1638 -0.3741
  257SOL     OW 1080   4.271   2.840   0.709 -0.1330 -0.4199  0.6593
  257SOL    HW2 1081   4.333   2.796   0.766  1.9149  2.0978  0.4830
  257SOL    HW3 1082   4.282   2.798   0.624 -0.7582 -1.9250  1.3225
  257SOL    MW4 1083   4.281   2.829   0.705  0.0548 -0.2863  0.7235
  258SOL     OW 1084   0.358   3.232   0.517  0.3381 -0.1952  0.0572
  258SOL    HW2 1085   0.268   3.225   0.485  0.6823  0.1393 -1.0206
  258SOL    HW3 1086   0.374   3.326   0.523  0.2463 -0.2612  1.3227
  258SOL    MW4 1087   0.348   3.244   0.513  0.3714 -0.1597  0.0820
  259SOL     OW 1088   0.246   3.097   0.851 -0.5635  0.5029 -0.1911
  259SOL    HW2 1089   0.244   3.070   0.943 -0.6999  0.1536 -0.2956
  259SOL    HW3 1090   0.332   3.137   0.839  0.4157 -1.6773 -0.5413
  259SOL    MW4 1091   0.257   3.099   0.861 -0.4523  0.1688 -0.2511
  260SOL     OW 1092   3.783   2.092   0.798  0.4818 -0.6165 -0.2325
  260SOL    HW2 1093   3.805   2.092   0.705  0.0168  0.6013 -0.3621
  260SOL    HW3 1094   3.808   2.180   0.829 -0.3301 -0.6398  0.5419
  260SOL    MW4 1095   3.789   2.104   0.790  0.3133 -0.4590 -0.1474
  261SOL     OW 1096   0.001   3.486   0.876  0.0838  0.2800 -0.2670
  261SOL    HW2 1097  -0.070   3.534   0.833  0.8825  0.7929 -1.0283
  261SOL    HW3 1098   0.081   3.526   0.842  0.7523  1.3623  2.4399
  261SOL    MW4 1099   0.002   3.498   0.866  0.2774  0.4904 -0.0103
  262SOL     OW 1100   3.139   0.486   0.542  0.0607  0.3080  0.2957
  262SOL    HW2 1101   3.102   0.561   0.494  0.2801 -0.4168 -1.0281
  262SOL    HW3 1102   3.208   0.525   0.597  1.1066  0.9161 -1.4005
  262SOL    MW4 1103   3.143   0.501   0.543  0.2279  0.2926 -0.1028
  263SOL     OW 1104   1.515   2.075   0.739 -0.6367  0.5903  0.0629
  263SOL    HW2 1105   1.449   2.009   0.762  0.0359  0.1726  0.8084
  263SOL    HW3 1106   1.517   2.073   0.643 -0.8889 -0.2172  0.0647
  263SOL    MW4 1107   1.506   2.066   0.729 -0.5813  0.4287  0.1615
  264SOL     OW 1108   0.239   3.888   0.841  0.2890  0.1885  0.0019
  264SOL    HW2 1109   0.241   3.885   0.936  1.2914 -1.1623 -0.0595
  264SOL    HW3 1110   0.320   3.933   0.816 -0.3351  1.2334 -0.2019
  264SOL    MW4 1111   0.250   3.894   0.850  0.3389  0.1481 -0.0331
  265SOL     OW 1112   1.006   4.327   0.493  0.3741 -0.3522  0.1826
  265SOL    HW2 1113   0.913   4.304   0.486  0.4423 -0.7120  0.4277
  265SOL    HW3 1114   1.051   4.242   0.494  0.7278 -0.1723 -0.2684
  265SOL    MW4 1115   1.000   4.313   0.492  0.4297 -0.3767  0.1554
  266SOL     OW 1116   0.644   3.676   0.504 -0.5335 -0.3439  0.1675
  266SOL    HW2 1117   0.665   3.671   0.597  0.4002 -0.9740 -0.0769
  266SOL    HW3 1118   0.723   3.646   0.459 -1.0896 -0.3664 -0.8193
  266SOL    MW4 1119   0.657   3.671   0.510 -0.4836 -0.4301  0.0051
  267SOL     OW 1120   0.716   0.525   0.482  0.3674  0.5617 -0.3737
  267SOL    HW2 1121   0.711   0.504   0.575 -1.1751 -0.6454 -0.7099
  267SOL    HW3 1122   0.634   0.571   0.463  0.2814  0.0309 -1.3142
  267SOL    MW4 1123   0.705   0.528   0.492  0.1525  0.3324 -0.5421
  268SOL     OW 1124   2.693   3.286   0.775  0.1967 -0.1217  0.8179
  268SOL    HW2 1125   2.752   3.222   0.734  0.5079 -0.0525  1.1488
  268SOL    HW3 1126   2.729   3.298   0.863  0.3947  0.8326  0.6125
  268SOL    MW4 1127   2.706   3.279   0.782  0.2642  0.0136  0.8344
  269SOL     OW 1128   0.636   0.033   0.644 -0.1679  0.2349  0.2019
  269SOL    HW2 1129   0.639  -0.026   0.569 -0.2365  0.8026 -0.2610
  269SOL    HW3 1130   0.725   0.067   0.652  0.0083 -0.3544  0.8216
  269SOL    MW4 1131   0.648   0.030   0.635 -0.1537  0.2320  0.2225
  270SOL     OW 1132   0.771   2.915   0.554 -0.5698 -0.0640 -0.6343
  270SOL    HW2 1133   0.719   2.981   0.509  0.4578  0.3242 -1.2765
  270SOL    HW3 1134   0.731   2.907   0.640 -0.5404  1.6181 -0.4459
  270SOL    MW4 1135   0.759   2.923   0.559 -0.4303  0.2089 -0.6942
  271SOL     OW 1136   0.657   0.510   0.768 -0.1533 -0.3060  0.2859
  271SOL    HW2 1137   0.684   0.597   0.797 -1.3427  0.5763 -1.2013
  271SOL    HW3 1138   0.735   0.456   0.781  1.5150  1.5923 -1.3270
  271SOL    MW4 1139   0.671   0.514   0.773 -0.0901  0.0609 -0.1231
  272SOL     OW 1140   0.010   1.227   0.853  0.4020  0.4095 -0.2323
  272SOL    HW2 1141   0.091   1.246   0.805  0.6613 -1.1360 -0.4409
  272SOL    HW3 1142   0.037   1.226   0.945  0.5469  0.2908 -0.2747
  272SOL    MW4 1143   0.025   1.229   0.859  0.4549  0.1900 -0.2654
  273SOL     OW 1144   0.909   0.939   0.746 -0.1965 -0.1546 -0.2131
  273SOL    HW2 1145   0.887   1.029   0.770 -1.8979 -0.3650 -0.8685
  273SOL    HW3 1146   0.918   0.941   0.651 -2.3231 -1.0625 -0.4681
  273SOL    MW4 1147   0.907   0.951   0.736 -0.7015 -0.3021 -0.3332
  274SOL     OW 1148   2.170   1.854   0.857 -0.1804 -0.3322  0.2361
  274SOL    HW2 1149   2.095   1.913   0.842  0.4960  0.1614 -1.3166
  274SOL    HW3 1150   2.136   1.767   0.835 -0.0986 -0.0135 -1.2004
  274SOL    MW4 1151   2.156   1.851   0.852 -0.0803 -0.2251 -0.1583
  275SOL     OW 1152   3.874   2.070   0.537  0.4765 -0.2640  0.2081
  275SOL    HW2 1153   3.968   2.063   0.522  0.4472  0.5198 -0.3659
  275SOL    HW3 1154   3.836   1.993   0.494  0.6542  0.5334 -1.4190
  275SOL    MW4 1155   3.881   2.059   0.530  0.4959 -0.0553 -0.0823
  276SOL     OW 1156   0.196   1.558   0.851  0.1628  0.1165 -0.0009
  276SOL    HW2 1157   0.276   1.592   0.810 -0.4156  0.7768 -0.5918
  276SOL    HW3 1158   0.125   1.593   0.797 -0.6028  0.8451  1.4675
  276SOL    MW4 1159   0.197   1.567   0.838 -0.0145  0.2997  0.1149
  277SOL     OW 1160   0.595   1.098   0.742 -0.2131 -0.3763 -0.4984
  277SOL    HW2 1161   0.687   1.117   0.762  0.0726 -0.5878 -1.5593
  277SOL    HW3 1162   0.585   1.124   0.650 -0.7896 -1.8614 -0.8725
  277SOL    MW4 1163   0.606   1.104   0.732 -0.2514 -0.6001 -0.6877
  278SOL     OW 1164   2.883   0.516   0.330 -0.1309  0.0764 -0.2906
  278SOL    HW2 1165   2.963   0.569   0.333 -0.2970  0.3132 -0.0171
  278SOL    HW3 1166   2.910   0.429   0.357 -0.4033  0.6874  2.0528
  278SOL    MW4 1167   2.897   0.512   0.334 -0.1886  0.1883  0.0547
  279SOL     OW 1168   0.671   2.345   0.844 -0.0109 -0.1637 -0.1297
  279SOL    HW2 1169   0.684   2.253   0.819  0.8008  0.1621 -0.9039
  279SOL    HW3 1170   0.648   2.341   0.937 -1.2730 -1.2426 -0.4717
  279SOL    MW4 1171   0.670   2.332   0.853 -0.0703 -0.2630 -0.2770
  280SOL     OW 1172   0.914   2.721   0.892  0.1033 -0.0765 -0.1341
  280SOL    HW2 1173   0.917   2.710   0.987 -0.0461 -1.6631 -0.2976
  280SOL    HW3 1174   0.928   2.633   0.857  0.0115  0.4670 -1.5828
  280SOL    MW4 1175   0.916   2.708   0.900  0.0715 -0.2141 -0.3468
  281SOL     OW 1176   0.900   0.897   0.456  0.2887 -0.0176  0.2894
  281SOL    HW2 1177   0.984   0.939   0.440  1.1287 -0.6702  2.8485
  281SOL    HW3 1178   0.922   0.807   0.480 -1.1654 -0.3630  0.3781
  281SOL    MW4 1179   0.914   0.891   0.457  0.2076 -0.1492  0.6387
  282SOL     OW 1180   2.740   1.057   0.579  0.0295  0.2074 -0.0889
  282SOL    HW2 1181   2.688   1.024   0.653  0.0702  0.6006  0.1127
  282SOL    HW3 1182   2.676   1.097   0.521 -0.0387 -0.3479 -0.4053
  282SOL    MW4 1183   2.725   1.058   0.581  0.0260  0.1860 -0.1041
  283SOL     OW 1184   1.330   4.289   0.761 -0.1283 -0.1123  0.2233
  283SOL    HW2 1185   1.411   4.299   0.711 -0.4710 -0.5747 -0.4316
  283SOL    HW3 1186   1.323   4.195   0.776 -0.7376 -0.1123 -0.0440
  283SOL    MW4 1187   1.340   4.278   0.757 -0.2539 -0.1736  0.1017
  284SOL     OW 1188   0.463   3.501   0.875  0.2948 -0.2408 -0.1103
  284SOL    HW2 1189   0.469   3.493   0.970 -0.3015 -0.7272 -0.1103
  284SOL    HW3 1190   0.543   3.547   0.849 -0.5938  1.9764  0.8844
  284SOL    MW4 1191   0.474   3.506   0.884  0.0989 -0.0126  0.0210
  285SOL     OW 1192   2.065   4.361   0.469  0.2447  0.8211  0.3223
  285SOL    HW2 1193   2.156   4.389   0.465  0.0574  1.4400  0.3026
  285SOL    HW3 1194   2.022   4.409   0.399 -0.3218  1.4008  1.0473
  285SOL    MW4 1195   2.071   4.371   0.460  0.1454  0.9789  0.4153
  286SOL     OW 1196   2.953   0.098   0.354  0.0481  0.1158 -0.1910
  286SOL    HW2 1197   2.979   0.012   0.319  0.5795 -0.3998  1.4321
  286SOL    HW3 1198   3.033   0.134   0.391 -0.5369  0.5640  0.6498
  286SOL    MW4 1199   2.967   0.091   0.354  0.0412  0.1069  0.1341
  287SOL     OW 1200   4.258   3.854   0.882 -0.5386 -0.2211  0.2490
  287SOL    HW2 1201   4.257   3.844   0.977 -0.7771  2.7772  0.6300
  287SOL    HW3 1202   4.341   3.899   0.864 -1.4859  1.2262 -0.6706
  287SOL    MW4 1203   4.269   3.859   0.892 -0.6952  0.3655  0.1779
  288SOL     OW 1204   1.612   1.553   0.373 -0.6057 -0.2529 -0.6970
  288SOL    HW2 1205   1.518   1.539   0.379 -0.4608 -0.7597  0.4388
  288SOL    HW3 1206   1.623   1.648   0.381 -0.9120 -0.3255  0.6079
  288SOL    MW4 1207   1.601   1.564   0.375 -0.6270 -0.3294 -0.3749
  289SOL     OW 1208   0.227   4.405   0.830  0.5781  0.1469  0.5974
  289SOL    HW2 1209   0.309   4.361   0.853  0.5724  0.5151  1.3251
  289SOL    HW3 1210   0.228   4.409   0.734  1.1633 -0.3216  0.5821
  289SOL    MW4 1211   0.238   4.400   0.820  0.6545  0.1335  0.6914
  290SOL     OW 1212   3.869   3.581   0.473  0.1383  0.2686  0.2106
  290SOL    HW2 1213   3.784   3.582   0.430 -0.1137  0.9195  0.7306
  290SOL    HW3 1214   3.898   3.490   0.466 -0.8468 -0.0658  0.5307
  290SOL    MW4 1215   3.862   3.569   0.466 -0.0250  0.3104  0.3215
  291SOL     OW 1216   3.634   0.099   0.486  0.4688  0.0673 -0.0093
  291SOL    HW2 1217   3.562   0.148   0.446  0.9398  0.1308 -0.8062
  291SOL    HW3 1218   3.713   0.139   0.449  0.8934 -0.4448  0.3329
  291SOL    MW4 1219   3.635   0.111   0.476  0.5870  0.0081 -0.0693
  292SOL     OW 1220   4.295   0.761   0.820 -0.2367 -0.4053 -0.0481
  292SOL    HW2 1221   4.355   0.830   0.792 -0.1153 -0.7938 -0.7681
  292SOL    HW3 1222   4.209   0.790   0.790 -0.2689 -0.2950  0.1518
  292SOL    MW4 1223   4.292   0.774   0.812 -0.2251 -0.4420 -0.1168
  293SOL     OW 1224   0.406   0.367   0.846 -0.0160 -0.6041  0.3217
  293SOL    HW2 1225   0.406   0.282   0.802 -1.4478  0.1988 -1.2930
  293SOL    HW3 1226   0.492   0.404   0.827  0.9144 -1.9796  1.6839
  293SOL    MW4 1227   0.418   0.361   0.838 -0.0822 -0.6797  0.2884
  294SOL     OW 1228   0.696   1.397   0.973 -0.1159 -0.4767 -0.0154
  294SOL    HW2 1229   0.701   1.462   0.903  1.0649  0.0359  0.5220
  294SOL    HW3 1230   0.700   1.448   1.053 -0.6076 -1.1213  0.4287
  294SOL    MW4 1231   0.697   1.412   0.974 -0.0250 -0.4939  0.1141
  295SOL     OW 1232   1.504   2.874   0.515  0.5001  0.1780  0.4043
  295SOL    HW2 1233   1.420   2.910   0.484  0.3472 -1.3916 -1.0891
  295SOL    HW3 1234   1.570   2.928   0.471  0.2813  0.4371  0.3840
  295SOL    MW4 1235   1.501   2.886   0.505  0.4510  0.0055  0.2046
  296SOL     OW 1236   2.976   4.421   0.758 -0.1831 -0.2210  0.0377
  296SOL    HW2 1237   2.891   4.381   0.741 -0.1787 -0.6015  0.8873
  296SOL    HW3 1238   3.025   4.408   0.676 -0.5582 -0.9699 -0.0775
  296SOL    MW4 1239   2.971   4.414   0.745 -0.2320 -0.3700  0.1346
  297SOL     OW 1240   0.420   1.681   0.725 -0.0270  0.1569  0.0217
  297SOL    HW2 1241   0.441   1.766   0.763 -0.0562  0.0853  0.2009
  297SOL    HW3 1242   0.429   1.693   0.631  2.0363 -0.2138  0.1573
  297SOL    MW4 1243   0.424   1.694   0.718  0.2414  0.0986  0.0632
  298SOL     OW 1244   1.347   1.437   0.391 -0.5825  0.0554  0.7341
  298SOL    HW2 1245   1.266   1.416   0.346  0.2568 -0.4495 -0.5780
  298SOL    HW3 1246   1.332   1.523   0.430 -1.4165  0.3902 -0.3097
  298SOL    MW4 1247   1.334   1.445   0.391 -0.5819  0.0328  0.4233
  299SOL     OW 1248   1.118   1.521   0.859 -0.1336  0.1173 -0.0594
  299SOL    HW2 1249   1.061   1.595   0.839 -0.1792  0.1277  0.1068
  299SOL    HW3 1250   1.080   1.448   0.809  0.2279  0.3265 -0.6502
  299SOL    MW4 1251   1.105   1.521   0.850 -0.0918  0.1464 -0.1154
  300SOL     OW 1252   4.106   0.595   0.183 -0.4495  0.7493  0.7243
  300SOL    HW2 1253   4.176   0.655   0.209 -0.4825  0.8455  0.5915
  300SOL    HW3 1254   4.032   0.619   0.238 -0.9476  1.8655 -0.4286
  300SOL    MW4 1255   4.106   0.606   0.194 -0.5193  0.9093  0.5547
  301SOL     OW 1256   2.373   0.667   0.200 -0.1425 -0.2409 -0.5444
  301SOL    HW2 1257   2.457   0.651   0.242  0.2442  1.4678 -0.6394
  301SOL    HW3 1258   2.395   0.719   0.123 -1.1724 -0.7654 -1.2054
  301SOL    MW4 1259   2.387   0.672   0.195 -0.2275 -0.0847 -0.6441
  302SOL     OW 1260   2.498   1.206   0.495  0.0398  0.0750  0.5720
  302SOL    HW2 1261   2.473   1.236   0.583  0.1096  2.1531 -0.1026
  302SOL    HW3 1262   2.415   1.204   0.447  0.4257  1.9953 -0.2015
  302SOL    MW4 1263   2.484   1.209   0.500  0.0999  0.6026  0.3810
  303SOL     OW 1264   3.960   1.092   0.372  0.2622 -0.3754 -0.0432
  303SOL    HW2 1265   3.933   1.167   0.426 -0.9730 -0.2659 -0.8069
  303SOL    HW3 1266   3.884   1.072   0.318  0.3966 -2.5008  0.4912
  303SOL    MW4 1267   3.946   1.099   0.372  0.1168 -0.6415 -0.0735
  304SOL     OW 1268   2.401   0.467   0.505  0.0249  0.0434  0.1954
  304SOL    HW2 1269   2.322   0.512   0.476  1.0807  0.5290 -2.0608
  304SOL    HW3 1270   2.388   0.376   0.478 -0.2930 -0.1310  0.9366
  304SOL    MW4 1271   2.389   0.461   0.498  0.1223  0.0845 -0.0045
  305SOL     OW 1272   1.341   2.724   0.869 -0.0931 -0.3174  0.8408
  305SOL    HW2 1273   1.339   2.725   0.965 -0.2947  1.2355  0.8356
  305SOL    HW3 1274   1.346   2.632   0.846  0.1664 -0.6970  2.3584
  305SOL    MW4 1275   1.342   2.712   0.879 -0.0855 -0.1624  1.0404
  306SOL     OW 1276   3.569   3.603   0.468 -0.3626 -0.2053  0.3940
  306SOL    HW2 1277   3.535   3.526   0.423 -1.9033  1.3431 -1.1817
  306SOL    HW3 1278   3.509   3.674   0.442  2.5513  2.0657 -0.3719
  306SOL    MW4 1279   3.556   3.602   0.459 -0.1817  0.2985  0.0850
  307SOL     OW 1280   0.976   1.504   0.466 -0.0749 -0.3123  0.0571
  307SOL    HW2 1281   0.978   1.592   0.503 -0.6627 -0.0124 -0.5971
  307SOL    HW3 1282   0.883   1.488   0.448  0.2666 -0.1678 -1.9195
  307SOL    MW4 1283   0.964   1.514   0.468 -0.1073 -0.2537 -0.2901
  308SOL     OW 1284   0.474   3.977   0.707  0.2767 -0.7781  0.3400
  308SOL    HW2 1285   0.465   4.072   0.702  0.7837 -0.6257  2.0202
  308SOL    HW3 1286   0.472   3.948   0.616 -0.3037  0.7969 -0.1646
  308SOL    MW4 1287   0.473   3.985   0.694  0.2671 -0.5500  0.4951
  309SOL     OW 1288   0.240   0.205   0.456  0.1489  0.0032 -0.0661
  309SOL    HW2 1289   0.293   0.177   0.531  1.2464 -0.1381 -0.8866
  309SOL    HW3 1290   0.152   0.172   0.476  1.1226 -2.9770 -0.3933
  309SOL    MW4 1291   0.235   0.197   0.469  0.4222 -0.4086 -0.2176
  310SOL     OW 1292   1.726   3.991   0.505 -0.4075  0.5152  0.1839
  310SOL    HW2 1293   1.734   3.895   0.505  0.4584  0.5758  0.5054
  310SOL    HW3 1294   1.816   4.021   0.491 -0.8928  1.2717 -1.3958
  310SOL    MW4 1295   1.739   3.982   0.503 -0.3573  0.6230  0.0179
  311SOL     OW 1296   1.131   0.292   0.303  0.6760  0.0688 -0.0298
  311SOL    HW2 1297   1.115   0.295   0.208  0.7444  1.7558  0.0055
  311SOL    HW3 1298   1.179   0.373   0.321  1.2629 -0.5827  1.3400
  311SOL    MW4 1299   1.136   0.303   0.293  0.7625  0.2055  0.1556
  312SOL     OW 1300   0.906   3.523   0.908  0.1854 -0.1912  0.3854
  312SOL    HW2 1301   0.920   3.436   0.872  0.5819  0.4721 -1.1357
  312SOL    HW3 1302   0.984   3.573   0.882  0.3364  0.3965  1.9295
  312SOL    MW4 1303   0.918   3.518   0.900  0.2576 -0.0262  0.3884
  313SOL     OW 1304   0.810   4.322   0.849  0.5232 -0.3916  0.5537
  313SOL    HW2 1305   0.756   4.400   0.860  0.3828 -0.3020 -0.6822
  313SOL    HW3 1306   0.898   4.355   0.835  0.7304 -0.5087  1.5337
  313SOL    MW4 1307   0.814   4.337   0.849  0.5320 -0.3953  0.5200
  314SOL     OW 1308   0.276   0.668   0.366 -0.4461  0.0899 -0.1155
  314SOL    HW2 1309   0.270   0.638   0.275  1.1664 -2.0082  0.4369
  314SOL    HW3 1310   0.219   0.608   0.414  1.3010 -0.9097  0.7303
  314SOL    MW4 1311   0.267   0.656   0.360 -0.0028 -0.3188  0.0690
  315SOL     OW 1312   1.770   0.369   0.878 -0.1435  0.1906 -0.1927
  315SOL    HW2 1313   1.687   0.397   0.840  0.8388  2.6616 -0.5680
  315SOL    HW3 1314   1.778   0.277   0.852 -2.1819  0.2567 -1.1420
  315SOL    MW4 1315   1.761   0.360   0.869 -0.2829  0.5254 -0.3675
  316SOL     OW 1316   3.141   1.919   0.902 -0.1685 -0.1745 -0.0384
  316SOL    HW2 1317   3.142   1.907   0.997  0.0029  1.1477  0.1345
  316SOL    HW3 1318   3.144   1.830   0.867 -0.2226 -0.6748  1.1910
  316SOL    MW4 1319   3.141   1.905   0.910 -0.1533 -0.0660  0.1466
  317SOL     OW 1320   1.362   0.756   0.276 -0.5870 -0.1168 -0.4036
  317SOL    HW2 1321   1.442   0.773   0.228 -1.6994  2.1079 -1.5259
  317SOL    HW3 1322   1.349   0.834   0.330 -1.9779 -0.4527 -0.2209
  317SOL    MW4 1323   1.371   0.768   0.277 -0.9173  0.1324 -0.5276
  318SOL     OW 1324   0.954   3.276   0.822 -0.3150  0.0529  0.0456
  318SOL    HW2 1325   0.871   3.238   0.850 -0.5375  0.6117  0.1436
  318SOL    HW3 1326   1.020   3.212   0.849 -0.7102 -0.3839 -0.0172
  318SOL    MW4 1327   0.952   3.262   0.829 -0.3966  0.0689  0.0502
  319SOL     OW 1328   3.530   0.369   0.859  0.1476 -0.3610 -0.6742
  319SOL    HW2 1329   3.481   0.448   0.835 -1.0652 -0.8095  0.3225
  319SOL    HW3 1330   3.536   0.372   0.954  1.2688 -0.7920 -0.7201
  319SOL    MW4 1331   3.525   0.380   0.868  0.1357 -0.4770 -0.5487
  320SOL     OW 1332   1.298   1.695   0.498 -0.2396  0.4804  0.0527
  320SOL    HW2 1333   1.211   1.735   0.492 -0.0677  1.1258  1.5141
  320SOL    HW3 1334   1.308   1.675   0.591 -0.0684 -2.4288 -0.5406
  320SOL    MW4 1335   1.288   1.697   0.510 -0.1944  0.1818  0.1672
  321SOL     OW 1336   2.481   1.278   0.775  0.0243  0.1709  0.1424
  321SOL    HW2 1337   2.566   1.258   0.815 -0.1754 -0.8889  0.0379
  321SOL    HW3 1338   2.421   1.213   0.811 -0.5496  0.3452 -0.4945
  321SOL    MW4 1339   2.485   1.267   0.785 -0.0780  0.0540  0.0446
  322SOL     OW 1340   1.557   0.553   0.479  0.0180 -0.2798  0.0310
  322SOL    HW2 1341   1.576   0.468   0.440 -0.9241 -0.3986 -0.1753
  322SOL    HW3 1342   1.495   0.594   0.419  0.0166  0.3098  0.4304
  322SOL    MW4 1343   1.551   0.547   0.466 -0.1065 -0.2176  0.0565
  323SOL     OW 1344   1.352   0.856   0.694  0.4049 -0.0176  0.2031
  323SOL    HW2 1345   1.272   0.825   0.738  1.6402 -1.1547  1.6947
  323SOL    HW3 1346   1.366   0.944   0.729 -0.5763  0.4833 -0.6148
  323SOL    MW4 1347   1.343   0.863   0.704  0.4386 -0.1015  0.2920
  324SOL     OW 1348   0.729   4.237   0.499  0.2067 -0.1406 -0.3873
  324SOL    HW2 1349   0.677   4.208   0.574  0.6255  0.0459 -0.0216
  324SOL    HW3 1350   0.680   4.310   0.462  0.0728 -0.1398 -0.2066
  324SOL    MW4 1351   0.716   4.243   0.504  0.2443 -0.1154 -0.3152
  325SOL     OW 1352   0.883   1.952   0.918  0.2519 -0.7445  0.0502
  325SOL    HW2 1353   0.893   1.944   1.013 -1.0873  0.1069  0.2675
  325SOL    HW3 1354   0.963   1.997   0.890 -0.2585  0.7978  1.0305
  325SOL    MW4 1355   0.895   1.957   0.927  0.0078 -0.4286  0.2083
  326SOL     OW 1356   3.625   0.725   0.517  0.3717  0.1927  0.0751
  326SOL    HW2 1357   3.655   0.766   0.598 -0.0445  0.2502  0.2014
  326SOL    HW3 1358   3.706   0.705   0.469  0.5642  2.1237 -0.4564
  326SOL    MW4 1359   3.640   0.728   0.521  0.3419  0.4552  0.0217
  327SOL     OW 1360   3.554   3.960   0.745  0.3569 -0.3081 -0.2341
  327SOL    HW2 1361   3.557   4.040   0.797  0.6768 -0.6846  0.3322
  327SOL    HW3 1362   3.633   3.913   0.769 -0.0631 -1.0133 -0.2037
  327SOL    MW4 1363   3.565   3.965   0.755  0.3436 -0.4506 -0.1553
  328SOL     OW 1364   4.042   4.398   0.466  0.4393  0.0469 -0.1196
  328SOL    HW2 1365   4.044   4.493   0.456 -2.1978  0.2499  0.9026
  328SOL    HW3 1366   4.107   4.379   0.533  0.3767  1.2340  0.2871
  328SOL    MW4 1367   4.051   4.408   0.474  0.0830  0.2303  0.0690
  329SOL     OW 1368   2.733   4.093   0.535  0.2269  0.6513 -0.3400
  329SOL    HW2 1369   2.710   4.001   0.527 -1.1923  0.9872 -0.1492
  329SOL    HW3 1370   2.659   4.140   0.498 -0.6465  1.8106  2.7516
  329SOL    MW4 1371   2.720   4.087   0.529 -0.0756  0.8488  0.0930
  330SOL     OW 1372   0.011   2.594   0.396  0.1862  0.0084 -0.2695
  330SOL    HW2 1373  -0.062   2.654   0.412  1.7019  1.5195  1.3036
  330SOL    HW3 1374   0.088   2.643   0.425  1.7368 -1.8404 -1.1817
  330SOL    MW4 1375   0.012   2.609   0.402  0.5907 -0.0360 -0.1823
  331SOL     OW 1376   1.590   3.114   0.897 -0.1798  0.2414 -0.0875
  331SOL    HW2 1377   1.582   3.020   0.882 -1.3218  0.4625 -0.9075
  331SOL    HW3 1378   1.592   3.123   0.993 -1.9650 -0.4809  0.0355
  331SOL    MW4 1379   1.589   3.103   0.908 -0.5660  0.1755 -0.1795
  332SOL     OW 1380   3.379   1.489   0.917 -0.3656  0.1882 -0.2704
  332SOL    HW2 1381   3.312   1.553   0.892  0.8313  1.2414 -0.8473
  332SOL    HW3 1382   3.368   1.479   1.012 -1.5596  0.0848 -0.4107
  332SOL    MW4 1383   3.369   1.496   0.926 -0.3650  0.3136 -0.3651
  333SOL     OW 1384   1.281   2.437   0.472 -0.2342  0.3752  0.0577
  333SOL    HW2 1385   1.363   2.484   0.455 -0.2946  0.2299 -0.6589
  333SOL    HW3 1386   1.212   2.502   0.456 -0.2950  0.2064 -0.3901
  333SOL    MW4 1387   1.283   2.452   0.468 -0.2502  0.3338 -0.0959
  334SOL     OW 1388   0.866   0.252   0.382  0.2534 -0.0242  0.3416
  334SOL    HW2 1389   0.955   0.263   0.350 -0.8362  0.6863 -2.7328
  334SOL    HW3 1390   0.832   0.341   0.391 -0.3935 -0.2971  0.6871
  334SOL    MW4 1391   0.873   0.265   0.379  0.0243  0.0336 -0.0184
  335SOL     OW 1392   1.083   3.915   0.903  0.0893  0.2703  0.3391
  335SOL    HW2 1393   1.077   3.823   0.878  1.6749  0.0131  0.8366
  335SOL    HW3 1394   1.100   3.913   0.997  0.3232  1.0635  0.3184
  335SOL    MW4 1395   1.084   3.903   0.912  0.3294  0.3412  0.4020
  336SOL     OW 1396   0.121   0.476   0.498 -0.1942 -0.3354 -0.0623
  336SOL    HW2 1397   0.171   0.398   0.473 -1.7297 -1.1490 -0.6485
  336SOL    HW3 1398   0.147   0.494   0.588  1.7409 -0.2865 -0.6131
  336SOL    MW4 1399   0.131   0.468   0.506 -0.1415 -0.4363 -0.2123
  337SOL     OW 1400   0.698   2.874   0.823 -0.0331 -0.1866  0.4495
  337SOL    HW2 1401   0.771   2.812   0.834 -1.2861 -1.6263  0.9016
  337SOL    HW3 1402   0.620   2.822   0.844 -1.3540  0.8391 -1.7537
  337SOL    MW4 1403   0.697   2.859   0.828 -0.3728 -0.2413  0.2185
  338SOL     OW 1404   1.368   1.112   0.836 -0.2239 -0.0350 -0.0780
  338SOL    HW2 1405   1.342   1.178   0.771  1.2020  1.0364  0.4166
  338SOL    HW3 1406   1.463   1.114   0.836 -0.2015  0.0555  2.1324
  338SOL    MW4 1407   1.377   1.121   0.827 -0.0329  0.1183  0.2789
  339SOL     OW 1408   2.250   4.298   0.849 -0.4420  0.3406  0.0761
  339SOL    HW2 1409   2.173   4.348   0.820  0.2790  1.7568  0.5152
  339SOL    HW3 1410   2.324   4.345   0.810  0.2602 -0.3462  0.5839
  339SOL    MW4 1411   2.250   4.311   0.840 -0.2542  0.4373  0.2010
  340SOL     OW 1412   3.233   1.570   0.563  0.0614  0.0897 -0.2549
  340SOL    HW2 1413   3.295   1.633   0.527  0.6519 -0.8041 -0.7998
  340SOL    HW3 1414   3.270   1.484   0.543  0.1380 -0.4403  1.9878
  340SOL    MW4 1415   3.246   1.567   0.556  0.1497 -0.0980 -0.0309
  341SOL     OW 1416   1.030   1.756   0.554 -0.1248 -0.2677 -0.2720
  341SOL    HW2 1417   1.016   1.848   0.531  1.1798 -0.1417 -0.5659
  341SOL    HW3 1418   0.975   1.743   0.632 -0.6291  0.6452 -0.4683
  341SOL    MW4 1419   1.021   1.767   0.562 -0.0192 -0.1305 -0.3367
  342SOL     OW 1420   1.306   0.385   0.851  0.6829  0.8035 -0.3848
  342SOL    HW2 1421   1.304   0.293   0.826  0.0079  0.5904  0.4465
  342SOL    HW3 1422   1.316   0.384   0.946 -0.8445  1.5585 -0.1971
  342SOL    MW4 1423   1.307   0.373   0.860  0.3922  0.8750 -0.2504
  343SOL     OW 1424   2.876   3.930   0.885  0.3383  0.3079 -0.5079
  343SOL    HW2 1425   2.956   3.935   0.832  0.4454 -0.0139 -0.3791
  343SOL    HW3 1426   2.907   3.907   0.973 -0.0977 -2.4399 -1.0274
  343SOL    MW4 1427   2.891   3.927   0.890  0.2949 -0.0970 -0.5594
  344SOL     OW 1428   3.321   3.850   0.855 -0.1056 -0.5719  0.0806
  344SOL    HW2 1429   3.400   3.887   0.814  0.1518 -0.3726  0.7359
  344SOL    HW3 1430   3.350   3.825   0.943 -0.6426 -1.0088  0.1337
  344SOL    MW4 1431   3.336   3.852   0.861 -0.1423 -0.6027  0.1740
  345SOL     OW 1432   0.321   4.606   0.403 -0.0441  0.4081  0.5213
  345SOL    HW2 1433   0.315   4.699   0.383  0.7416  0.1391 -1.0911
  345SOL    HW3 1434   0.414   4.591   0.423  0.5031 -0.5622 -2.3641
  345SOL    MW4 1435   0.333   4.616   0.403  0.1318  0.2441 -0.0721
  346SOL     OW 1436   1.552   0.482   0.745  0.1924  0.2346 -0.4629
  346SOL    HW2 1437   1.465   0.452   0.771  0.6649  1.2376  2.4034
  346SOL    HW3 1438   1.537   0.530   0.663 -1.6513 -1.2256 -1.0145
  346SOL    MW4 1439   1.538   0.485   0.737  0.0114  0.1743 -0.1576
  347SOL     OW 1440   0.466   3.237   0.788 -0.2253  0.5239 -0.0582
  347SOL    HW2 1441   0.458   3.327   0.818 -1.7205 -0.0177  1.2188
  347SOL    HW3 1442   0.438   3.239   0.697  1.6106  1.6757 -0.6293
  347SOL    MW4 1443   0.461   3.249   0.780 -0.1803  0.6046  0.0349
  348SOL     OW 1444   1.318   1.917   0.859 -0.7098  0.1187  0.0351
  348SOL    HW2 1445   1.327   1.824   0.835  0.3153  0.4104 -0.7621
  348SOL    HW3 1446   1.331   1.919   0.954  0.1870 -0.4514 -0.0684
  348SOL    MW4 1447   1.321   1.905   0.868 -0.4562  0.0819 -0.0837
  349SOL     OW 1448   1.978   2.051   0.781  0.4750  0.6778  0.0171
  349SOL    HW2 1449   1.892   2.012   0.800  0.9715  0.2892  1.5825
  349SOL    HW3 1450   1.969   2.088   0.693 -1.5199  1.2778  0.4492
  349SOL    MW4 1451   1.965   2.050   0.772  0.2773  0.7057  0.2807
  350SOL     OW 1452   3.484   3.329   0.375 -0.2327  0.1084  0.4567
  350SOL    HW2 1453   3.552   3.282   0.423 -0.2901 -1.8298 -1.2930
  350SOL    HW3 1454   3.402   3.295   0.409 -0.2857 -0.2210  0.0030
  350SOL    MW4 1455   3.482   3.318   0.385 -0.2472 -0.1912  0.1660
  351SOL     OW 1456   1.768   2.224   0.374  0.0919  0.4956  0.2365
  351SOL    HW2 1457   1.806   2.220   0.286  0.0699 -0.4854  0.2737
  351SOL    HW3 1458   1.759   2.318   0.391  1.0050  0.7140 -0.4172
  351SOL    MW4 1459   1.772   2.236   0.364  0.2095  0.3948  0.1552
  352SOL     OW 1460   0.504   3.906   0.442 -0.1214  0.0069 -0.2978
  352SOL    HW2 1461   0.553   3.824   0.445  1.3603  0.7857 -2.1101
  352SOL    HW3 1462   0.549   3.959   0.376 -1.2927  2.1285  0.5336
  352SOL    MW4 1463   0.516   3.902   0.434 -0.0805  0.3893 -0.4272
  353SOL     OW 1464   2.048   3.596   0.742  0.3459 -0.1879  0.1970
  353SOL    HW2 1465   2.053   3.691   0.756 -1.1079 -0.1063  0.1942
  353SOL    HW3 1466   2.096   3.559   0.817  0.0627  0.5257  0.7432
  353SOL    MW4 1467   2.055   3.604   0.754  0.1168 -0.0830  0.2687
  354SOL     OW 1468   2.866   3.086   0.686 -0.3614  0.2092  0.6367
  354SOL    HW2 1469   2.894   3.011   0.738  2.6928  0.6756 -0.2265
  354SOL    HW3 1470   2.871   3.055   0.596  2.6941  1.8995  0.1435
  354SOL    MW4 1471   2.870   3.072   0.681  0.4447  0.4938  0.4577
  355SOL     OW 1472   1.479   2.609   0.420 -0.2533  0.5424 -0.2468
  355SOL    HW2 1473   1.487   2.698   0.456  0.7265  0.4851 -0.3208
  355SOL    HW3 1474   1.568   2.575   0.420 -0.6255 -0.4427 -0.2361
  355SOL    MW4 1475   1.491   2.616   0.425 -0.1732  0.4051 -0.2552
  356SOL     OW 1476   1.555   3.869   0.878 -0.0305  0.0933  0.0462
  356SOL    HW2 1477   1.565   3.871   0.973  0.7597 -0.6381 -0.0020
  356SOL    HW3 1478   1.478   3.922   0.860  0.2268  0.8191  1.0383
  356SOL    MW4 1479   1.546   3.876   0.888  0.1076  0.0923  0.1708
  357SOL     OW 1480   2.398   2.703   0.506  0.0705  0.1095 -0.3276
  357SOL    HW2 1481   2.435   2.722   0.592  0.6443 -1.5079 -0.1900
  357SOL    HW3 1482   2.462   2.644   0.465 -0.3255  0.6481 -1.7642
  357SOL    MW4 1483   2.411   2.698   0.512  0.0939 -0.0329 -0.4990
  358SOL     OW 1484   3.362   4.325   0.552 -0.0074 -0.3180  0.1825
  358SOL    HW2 1485   3.421   4.386   0.508 -0.3020 -1.3427 -1.6772
  358SOL    HW3 1486   3.275   4.356   0.530 -0.1582 -1.0092 -0.2042
  358SOL    MW4 1487   3.359   4.337   0.544 -0.0660 -0.5441 -0.1140
  359SOL     OW 1488   1.817   3.473   0.857  0.0216 -0.0464  0.0360
  359SOL    HW2 1489   1.891   3.515   0.813 -0.3591  0.1336 -0.4383
  359SOL    HW3 1490   1.818   3.383   0.826  0.8990 -0.4321  1.1308
  359SOL    MW4 1491   1.827   3.467   0.847  0.0870 -0.0734  0.1178
  360SOL     OW 1492   1.326   3.502   0.852 -0.1009 -0.1826 -0.2658
  360SOL    HW2 1493   1.331   3.408   0.834 -0.2027 -0.3469  0.5227
  360SOL    HW3 1494   1.400   3.540   0.804  2.8135 -1.2668  3.1465
  360SOL    MW4 1495   1.336   3.494   0.843  0.2701 -0.3474  0.2884
  361SOL     OW 1496   1.789   4.282   0.833  0.3453  0.2783 -0.3341
  361SOL    HW2 1497   1.778   4.284   0.928 -0.4235 -0.3756 -0.3947
  361SOL    HW3 1498   1.754   4.196   0.807  0.6157  0.4211 -1.1985
  361SOL    MW4 1499   1.783   4.271   0.842  0.2795  0.2108 -0.4561
  362SOL     OW 1500   2.711   0.385   0.795  0.5687 -0.1771 -0.5141
  362SOL    HW2 1501   2.789   0.440   0.783  0.1369  0.7545  0.9022
  362SOL    HW3 1502   2.695   0.385   0.889 -0.0373 -1.9318 -0.5924
  362SOL    MW4 1503   2.719   0.392   0.806  0.4318 -0.2857 -0.3376
  363SOL     OW 1504   2.724   0.124   0.757 -0.1689  0.2947 -0.2199
  363SOL    HW2 1505   2.799   0.108   0.815  0.5430  0.2882 -1.1249
  363SOL    HW3 1506   2.711   0.219   0.759 -1.2545  0.1231  1.3021
  363SOL    MW4 1507   2.732   0.134   0.765 -0.2182  0.2712 -0.1385
  364SOL     OW 1508   2.347   1.631   0.611  0.0576 -0.0723  0.0418
  364SOL    HW2 1509   2.385   1.571   0.546  0.9195  0.6364 -0.1230
  364SOL    HW3 1510   2.381   1.717   0.586 -1.0873  0.4763  0.3404
  364SOL    MW4 1511   2.357   1.634   0.599  0.0203  0.0936  0.0595
  365SOL     OW 1512   1.994   0.750   0.849  0.0571  0.2154 -0.4354
  365SOL    HW2 1513   1.999   0.667   0.802 -0.5712 -0.3389  0.4610
  365SOL    HW3 1514   2.080   0.790   0.837 -0.4278  0.5907 -2.9513
  365SOL    MW4 1515   2.006   0.744   0.841 -0.0899  0.1918 -0.6490
  366SOL     OW 1516   4.216   1.304   0.750 -0.0182 -0.3973  0.1117
  366SOL    HW2 1517   4.299   1.273   0.785 -0.9982 -3.0012  0.2227
  366SOL    HW3 1518   4.219   1.280   0.657 -0.1817  0.5455 -0.1447
  366SOL    MW4 1519   4.227   1.297   0.742 -0.1693 -0.6166  0.0924
  367SOL     OW 1520   3.184   0.979   0.482  0.4556  0.3543  0.1656
  367SOL    HW2 1521   3.273   0.962   0.452  0.4916 -0.8698  0.9257
  367SOL    HW3 1522   3.192   0.985   0.578 -0.4234 -0.7171  0.3149
  367SOL    MW4 1523   3.196   0.978   0.491  0.3445  0.0514  0.2856
  368SOL     OW 1524   2.925   1.547   0.876  0.0942  0.2305 -0.1361
  368SOL    HW2 1525   2.832   1.567   0.865  0.2788  0.2152 -1.8493
  368SOL    HW3 1526   2.937   1.461   0.835  0.3589 -1.0058  2.4482
  368SOL    MW4 1527   2.915   1.538   0.869  0.1535  0.0654 -0.0212
  369SOL     OW 1528   2.257   1.127   0.899  0.0017  0.6481  0.1718
  369SOL    HW2 1529   2.230   1.123   0.991 -1.9831 -1.4665 -0.4483
  369SOL    HW3 1530   2.199   1.193   0.861 -0.8018 -0.1673 -0.0429
  369SOL    MW4 1531   2.246   1.135   0.906 -0.3662  0.2615  0.0616
  370SOL     OW 1532   1.561   2.856   0.794  0.3577 -0.2592 -0.2999
  370SOL    HW2 1533   1.491   2.796   0.818 -0.3246  0.8129  0.4116
  370SOL    HW3 1534   1.562   2.854   0.698  0.1189 -1.1377 -0.2896
  370SOL    MW4 1535   1.552   2.848   0.784  0.2363 -0.2337 -0.2046
  371SOL     OW 1536   0.974   3.273   0.544  0.1104 -0.1694 -0.7221
  371SOL    HW2 1537   0.951   3.248   0.634  0.5011 -0.8727 -0.8098
  371SOL    HW3 1538   0.890   3.289   0.501 -0.3888 -4.4903 -1.5518
  371SOL    MW4 1539   0.960   3.272   0.550  0.0961 -0.8321 -0.8430
  372SOL     OW 1540   1.991   2.133   0.520  0.4736  0.4554  0.3730
  372SOL    HW2 1541   2.015   2.045   0.493  1.7811  1.0331 -0.4035
  372SOL    HW3 1542   1.906   2.149   0.477  0.1369 -0.4753  0.6775
  372SOL    MW4 1543   1.983   2.124   0.510  0.6016  0.4089  0.3108
  373SOL     OW 1544   1.549   1.833   0.438  0.0212  0.2176 -0.2315
  373SOL    HW2 1545   1.538   1.927   0.425 -0.0824  0.3011  0.4232
  373SOL    HW3 1546   1.460   1.798   0.441  0.0263  0.2779  0.7581
  373SOL    MW4 1547   1.536   1.841   0.437  0.0081  0.2365 -0.0146
  374SOL     OW 1548   0.913   1.718   0.784 -0.1857  0.1021 -0.3229
  374SOL    HW2 1549   0.826   1.678   0.780 -0.1867  0.0867 -0.1519
  374SOL    HW3 1550   0.899   1.802   0.826 -0.0492 -0.0979  0.1332
  374SOL    MW4 1551   0.900   1.724   0.789 -0.1678  0.0737 -0.2401
  375SOL     OW 1552   2.443   2.331   0.852  0.0953 -0.5299  0.1783
  375SOL    HW2 1553   2.441   2.245   0.810 -0.8794 -0.7150  0.5979
  375SOL    HW3 1554   2.371   2.380   0.811  0.6382  0.0909 -0.0533
  375SOL    MW4 1555   2.433   2.326   0.841  0.0384 -0.4723  0.2032
  376SOL     OW 1556   0.378   0.130   0.683 -0.2889 -0.2899  0.4460
  376SOL    HW2 1557   0.467   0.096   0.676  0.1083  0.3574  2.0631
  376SOL    HW3 1558   0.342   0.086   0.761 -0.6479  1.0010  1.0239
  376SOL    MW4 1559   0.385   0.120   0.693 -0.2839 -0.0342  0.7358
  377SOL     OW 1560   2.012   3.077   0.877 -0.4144 -0.1493  0.1418
  377SOL    HW2 1561   2.090   3.128   0.854 -0.5604 -0.0352 -0.1021
  377SOL    HW3 1562   2.024   2.993   0.834 -0.0333 -0.4301  0.7872
  377SOL    MW4 1563   2.024   3.073   0.868 -0.3831 -0.1714  0.1948
  378SOL     OW 1564   2.725   2.710   0.859 -0.0548  0.0361 -0.0962
  378SOL    HW2 1565   2.722   2.719   0.954  0.3674 -0.0151 -0.0759
  378SOL    HW3 1566   2.646   2.754   0.828  0.4728  1.2238  0.1968
  378SOL    MW4 1567   2.714   2.717   0.867  0.0703  0.1857 -0.0549
  379SOL     OW 1568   2.507   3.084   0.862  0.3360 -0.1313  0.4351
  379SOL    HW2 1569   2.564   3.148   0.820  0.0439  0.4551  0.9266
  379SOL    HW3 1570   2.527   3.091   0.955 -0.2526 -0.1983  0.5686
  379SOL    MW4 1571   2.517   3.093   0.869  0.2196 -0.0629  0.5175
  380SOL     OW 1572   2.281   3.202   0.756 -0.8980  0.3573 -0.2965
  380SOL    HW2 1573   2.358   3.163   0.797 -0.4202  0.6527 -0.9047
  380SOL    HW3 1574   2.267   3.152   0.676 -0.8703  0.8029 -0.5831
  380SOL    MW4 1575   2.289   3.191   0.751 -0.8311  0.4551 -0.4146
  381SOL     OW 1576   2.267   3.450   0.888 -0.4742 -0.0866  0.3067
  381SOL    HW2 1577   2.331   3.510   0.850 -0.3670  0.5258  1.3987
  381SOL    HW3 1578   2.264   3.375   0.829 -1.3677  1.4520 -1.6367
  381SOL    MW4 1579   2.275   3.448   0.875 -0.5782  0.1969  0.1944
  382SOL     OW 1580   2.124   2.821   0.487 -0.0131 -0.0036  0.4136
  382SOL    HW2 1581   2.189   2.754   0.466 -1.6150 -1.4072 -0.1748
  382SOL    HW3 1582   2.104   2.807   0.580  0.7079  0.5966  0.6616
  382SOL    MW4 1583   2.130   2.810   0.497 -0.1295 -0.1097  0.3687
  383SOL     OW 1584   2.081   0.223   0.453 -0.3022  0.1730  0.2232
  383SOL    HW2 1585   2.038   0.303   0.422  0.2401  0.4591  0.2110
  383SOL    HW3 1586   2.057   0.217   0.546 -1.0394 -0.1088  0.0228
  383SOL    MW4 1587   2.072   0.233   0.461 -0.3276  0.1736  0.1951
  384SOL     OW 1588   3.278   2.026   0.515 -0.1750 -0.1390  0.1148
  384SOL    HW2 1589   3.308   2.111   0.483 -0.6919  0.2818  0.7509
  384SOL    HW3 1590   3.183   2.033   0.517 -0.2033 -0.6055  0.5166
  384SOL    MW4 1591   3.269   2.038   0.511 -0.2468 -0.1450  0.2518
  385SOL     OW 1592   2.262   4.042   0.732 -0.3386 -0.0543  0.3491
  385SOL    HW2 1593   2.235   4.128   0.765  1.7197 -0.0829  2.2334
  385SOL    HW3 1594   2.182   3.989   0.736 -1.5660  1.6459 -0.5475
  385SOL    MW4 1595   2.248   4.046   0.737 -0.2289  0.1664  0.4794
  386SOL     OW 1596   1.646   1.054   0.383  0.2666 -0.2085 -0.0833
  386SOL    HW2 1597   1.722   1.019   0.429 -0.1095 -0.7539  0.1346
  386SOL    HW3 1598   1.632   0.993   0.311  0.1189 -0.0358 -0.2000
  386SOL    MW4 1599   1.654   1.041   0.380  0.1975 -0.2577 -0.0700
  387SOL     OW 1600   4.444   1.022   0.481  0.1928 -0.1779  0.2805
  387SOL    HW2 1601   4.535   1.015   0.452  0.4080  1.5296  0.5100
  387SOL    HW3 1602   4.445   0.991   0.571  0.3793 -0.9465  0.0245
  387SOL    MW4 1603   4.456   1.017   0.489  0.2460 -0.0541  0.2770
  388SOL     OW 1604   0.672   4.073   0.275  0.0657  0.5024 -0.6727
  388SOL    HW2 1605   0.708   4.110   0.356  1.3935  0.1474 -1.0770
  388SOL    HW3 1606   0.628   4.147   0.233 -0.8641  0.6233  0.4965
  388SOL    MW4 1607   0.671   4.088   0.280  0.1181  0.4716 -0.5717
  389SOL     OW 1608   1.870   0.880   0.482  0.3842  0.1755  0.3712
  389SOL    HW2 1609   1.830   0.801   0.445  0.1710  0.2423  0.4586
  389SOL    HW3 1610   1.866   0.867   0.577 -0.0840  0.5017  0.3986
  389SOL    MW4 1611   1.864   0.868   0.490  0.2943  0.2274  0.3863
  390SOL     OW 1612   4.333   1.807   0.454  1.2525 -0.1156 -0.3068
  390SOL    HW2 1613   4.305   1.734   0.398  0.1469 -0.1555  0.2911
  390SOL    HW3 1614   4.380   1.765   0.526  1.3321 -0.1695 -0.3886
  390SOL    MW4 1615   4.336   1.792   0.456  1.1168 -0.1279 -0.2387
  391SOL     OW 1616   3.754   1.858   0.397  0.1551  0.2874 -0.2291
  391SOL    HW2 1617   3.712   1.779   0.429  0.6927  0.0024 -0.2203
  391SOL    HW3 1618   3.695   1.892   0.330 -1.0354  0.9511  1.1313
  391SOL    MW4 1619   3.741   1.852   0.393  0.0689  0.3375 -0.0485
  392SOL     OW 1620   0.535   0.742   0.436 -0.0467  0.2479 -0.2940
  392SOL    HW2 1621   0.446   0.717   0.409  0.5727 -1.2435 -1.0336
  392SOL    HW3 1622   0.523   0.783   0.521 -1.4505 -0.0350 -0.3390
  392SOL    MW4 1623   0.522   0.744   0.444 -0.1502  0.0138 -0.3975
  393SOL     OW 1624   2.175   0.898   0.498  0.2593 -0.2218 -0.1417
  393SOL    HW2 1625   2.084   0.928   0.491  0.5493  0.8207  0.4038
  393SOL    HW3 1626   2.222   0.952   0.434  0.6720  0.0149  0.3569
  393SOL    MW4 1627   2.169   0.909   0.489  0.3519 -0.0531 -0.0040
  394SOL     OW 1628   0.354   2.286   0.338 -0.4159  0.4257 -0.2680
  394SOL    HW2 1629   0.388   2.350   0.401 -0.9339  0.5823 -0.1449
  394SOL    HW3 1630   0.290   2.235   0.388 -1.0183  0.7181 -0.7357
  394SOL    MW4 1631   0.350   2.288   0.353 -0.5637  0.4849 -0.3135
  395SOL     OW 1632   2.460   0.496   0.762 -0.2145  0.6202 -0.0235
  395SOL    HW2 1633   2.546   0.459   0.784 -0.0199  0.1579 -1.5140
  395SOL    HW3 1634   2.458   0.496   0.666 -0.9371  2.7855 -0.0350
  395SOL    MW4 1635   2.471   0.491   0.752 -0.2842  0.8449 -0.2216
  396SOL     OW 1636   0.166   4.423   0.541 -0.3287 -0.4328 -0.3883
  396SOL    HW2 1637   0.204   4.494   0.489 -1.4420 -0.3512 -1.1113
  396SOL    HW3 1638   0.071   4.438   0.536 -0.4414 -0.1607  2.0598
  396SOL    MW4 1639   0.158   4.434   0.533 -0.4904 -0.3867 -0.1607
  397SOL     OW 1640   0.972   0.624   0.519  0.0193 -0.2861  0.2039
  397SOL    HW2 1641   0.888   0.584   0.496  0.1306 -0.5887  0.3260
  397SOL    HW3 1642   1.001   0.575   0.596  0.7632 -0.7976 -0.3963
  397SOL    MW4 1643   0.965   0.612   0.526  0.1321 -0.3936  0.1408
  398SOL     OW 1644   0.894   3.902   0.340  0.1913  0.0093  0.1523
  398SOL    HW2 1645   0.836   3.952   0.283  1.0369  0.1178 -0.6051
  398SOL    HW3 1646   0.865   3.811   0.330 -1.1002  0.2810  1.2490
  398SOL    MW4 1647   0.882   3.896   0.331  0.1325  0.0594  0.1971
  399SOL     OW 1648   2.045   0.003   0.844  0.0089 -0.2759  0.2543
  399SOL    HW2 1649   2.115   0.056   0.807 -1.6295  1.0789 -0.9724
  399SOL    HW3 1650   2.043  -0.075   0.788  0.1787 -0.0734 -0.0370
  399SOL    MW4 1651   2.054  -0.001   0.831 -0.1850 -0.0706  0.0541
  400SOL     OW 1652   2.679   2.445   0.742  0.1007  0.1861  0.2343
  400SOL    HW2 1653   2.598   2.407   0.775 -0.3258  1.1336  0.3142
  400SOL    HW3 1654   2.676   2.537   0.771  1.8943 -0.1171  1.4946
  400SOL    MW4 1655   2.668   2.452   0.750  0.2813  0.2711  0.4111
  401SOL     OW 1656   2.485   2.805   0.755  0.4101  0.2401 -0.1969
  401SOL    HW2 1657   2.414   2.782   0.816  0.6640  1.3827  0.5465
  401SOL    HW3 1658   2.480   2.900   0.748  0.7518  0.1717 -1.5305
  401SOL    MW4 1659   2.475   2.814   0.762  0.4885  0.3819 -0.2748
  402SOL     OW 1660   1.551   0.754   0.847  0.1728 -0.2043 -0.1918
  402SOL    HW2 1661   1.533   0.661   0.841  1.1234 -0.3777 -0.3841
  402SOL    HW3 1662   1.486   0.795   0.788 -1.4817 -0.5690  1.3289
  402SOL    MW4 1663   1.540   0.747   0.838  0.0800 -0.2753 -0.0165
  403SOL     OW 1664   2.986   3.326   0.621  0.2826 -0.6613 -0.2732
  403SOL    HW2 1665   2.960   3.237   0.645 -0.6672 -0.4164 -0.3734
  403SOL    HW3 1666   2.999   3.370   0.705  1.0558 -0.9835 -0.2261
  403SOL    MW4 1667   2.984   3.320   0.635  0.2594 -0.6714 -0.2803
  404SOL     OW 1668   2.639   3.499   0.611  0.1497  0.3259 -0.2374
  404SOL    HW2 1669   2.583   3.465   0.542  0.6549  0.4618 -0.7169
  404SOL    HW3 1670   2.652   3.425   0.671 -0.6671  0.3389 -0.0385
  404SOL    MW4 1671   2.634   3.485   0.610  0.1085  0.3455 -0.2745
  405SOL     OW 1672   2.655   3.660   0.337  0.1093 -0.0176 -0.1360
  405SOL    HW2 1673   2.631   3.567   0.337  1.6012 -0.4184 -0.7285
  405SOL    HW3 1674   2.743   3.662   0.300  0.2272  1.6060  0.1927
  405SOL    MW4 1675   2.663   3.648   0.332  0.3216  0.1438 -0.1708
  406SOL     OW 1676   2.956   3.819   0.523 -0.2119 -0.2954  0.3000
  406SOL    HW2 1677   2.981   3.912   0.515 -1.5148 -0.1436 -2.3960
  406SOL    HW3 1678   3.039   3.772   0.519  0.4462  0.7127  1.4583
  406SOL    MW4 1679   2.970   3.825   0.521 -0.2971 -0.1421  0.0972
  407SOL     OW 1680   2.698   4.134   0.847  0.1221  0.7834  0.2322
  407SOL    HW2 1681   2.765   4.066   0.848 -0.4985  0.1194 -1.0371
  407SOL    HW3 1682   2.710   4.182   0.928  1.7529  0.2998  0.2872
  407SOL    MW4 1683   2.708   4.131   0.858  0.2553  0.6323  0.0721
  408SOL     OW 1684   2.681   3.159   0.366 -0.3899  0.2082 -0.1803
  408SOL    HW2 1685   2.626   3.085   0.390  0.8074 -0.7000 -0.1995
  408SOL    HW3 1686   2.769   3.122   0.358  0.1509  1.5536 -0.5763
  408SOL    MW4 1687   2.685   3.144   0.368 -0.1605  0.2656 -0.2351
  409SOL     OW 1688   3.132   4.274   0.902 -0.4628 -0.0981  0.4144
  409SOL    HW2 1689   3.205   4.311   0.853 -0.1824  0.1492  1.0060
  409SOL    HW3 1690   3.054   4.313   0.863 -0.2929 -0.4548 -0.2979
  409SOL    MW4 1691   3.131   4.284   0.890 -0.4034 -0.1130  0.3985
  410SOL     OW 1692   1.117   3.660   0.811 -0.1704  0.0591  0.2301
  410SOL    HW2 1693   1.109   3.628   0.721 -2.0416 -0.2755  0.5139
  410SOL    HW3 1694   1.196   3.617   0.844 -0.8963 -1.8130 -0.4225
  410SOL    MW4 1695   1.127   3.650   0.803 -0.5133 -0.2320  0.1814
  411SOL     OW 1696   4.097   3.718   0.379 -0.0484 -0.1478 -0.4499
  411SOL    HW2 1697   4.018   3.669   0.404  0.7481 -1.1241  0.1960
  411SOL    HW3 1698   4.087   3.802   0.423 -1.7473  0.5543 -2.1024
  411SOL    MW4 1699   4.085   3.722   0.388 -0.1678 -0.1841 -0.5827
  412SOL     OW 1700   2.785   2.764   0.545 -0.0165 -0.0975  0.3881
  412SOL    HW2 1701   2.762   2.684   0.497  0.3639 -0.4600  0.7980
  412SOL    HW3 1702   2.799   2.734   0.635  2.6774 -0.0221  0.0374
  412SOL    MW4 1703   2.784   2.750   0.550  0.3891 -0.1354  0.3959
  413SOL     OW 1704   1.372   0.979   0.447 -0.0129  0.1010  0.0092
  413SOL    HW2 1705   1.373   0.934   0.531  0.7371  0.7747  0.3729
  413SOL    HW3 1706   1.453   1.031   0.447 -0.6974  1.1866 -0.5375
  413SOL    MW4 1707   1.383   0.980   0.458 -0.0043  0.3331 -0.0149
  414SOL     OW 1708   1.768   0.659   0.348 -0.3435 -0.1741 -0.2095
  414SOL    HW2 1709   1.696   0.619   0.397 -0.9350  0.0633 -0.8793
  414SOL    HW3 1710   1.837   0.593   0.347 -1.0404 -0.8959 -0.6699
  414SOL    MW4 1711   1.768   0.645   0.354 -0.5134 -0.2381 -0.3586
  415SOL     OW 1712   3.405   0.770   0.847  0.5778 -0.1259  0.1089
  415SOL    HW2 1713   3.494   0.806   0.840  0.4897  0.3388  1.2472
  415SOL    HW3 1714   3.349   0.839   0.812  0.5165  0.3570  1.1300
  415SOL    MW4 1715   3.409   0.784   0.842  0.5586 -0.0009  0.3937
  416SOL     OW 1716   1.998   1.658   0.541 -0.5232  0.0816  0.5094
  416SOL    HW2 1717   2.054   1.654   0.619 -0.7843 -0.5503  0.6752
  416SOL    HW3 1718   2.006   1.571   0.502  0.1976  0.6423 -0.5920
  416SOL    MW4 1719   2.006   1.646   0.546 -0.4628  0.0722  0.3859
  417SOL     OW 1720   3.385   1.787   0.403 -0.3353  0.1078  0.2196
  417SOL    HW2 1721   3.339   1.849   0.459  0.7548  0.1022  1.1519
  417SOL    HW3 1722   3.428   1.842   0.337  0.6923  0.3629  1.0902
  417SOL    MW4 1723   3.385   1.802   0.402 -0.0563  0.1407  0.4575
  418SOL     OW 1724   2.280   3.083   0.511 -0.1878  0.1056  0.4111
  418SOL    HW2 1725   2.211   3.023   0.482 -1.1123  1.6650 -0.6684
  418SOL    HW3 1726   2.362   3.039   0.486 -0.8630 -0.5080 -0.7503
  418SOL    MW4 1727   2.282   3.069   0.504 -0.3989  0.2301  0.1154
  419SOL     OW 1728   2.718   0.031   0.482 -0.2669 -0.1264 -0.3591
  419SOL    HW2 1729   2.799   0.061   0.440 -0.0288  0.4176  0.4668
  419SOL    HW3 1730   2.733   0.045   0.576 -1.7662  1.1236 -0.2811
  419SOL    MW4 1731   2.731   0.037   0.489 -0.4334  0.1103 -0.2398
  420SOL     OW 1732   1.486   3.365   0.466  0.2930 -0.3333 -0.8414
  420SOL    HW2 1733   1.419   3.298   0.477  1.2964 -1.1367  0.5338
  420SOL    HW3 1734   1.437   3.445   0.448 -1.1466 -0.6036  1.5975
  420SOL    MW4 1735   1.471   3.367   0.465  0.2353 -0.4747 -0.3381
  421SOL     OW 1736   3.165   2.517   0.444 -0.2217  0.7916  0.3530
  421SOL    HW2 1737   3.124   2.516   0.531 -1.2486 -0.3722 -0.1304
  421SOL    HW3 1738   3.099   2.478   0.386  1.3276 -0.5581 -0.5462
  421SOL    MW4 1739   3.150   2.511   0.448 -0.1531  0.4601  0.1706
  422SOL     OW 1740   3.888   0.190   0.389  0.0530  0.1792  0.0092
  422SOL    HW2 1741   3.941   0.217   0.314 -1.2406  0.7783 -0.7216
  422SOL    HW3 1742   3.946   0.137   0.442  0.7589 -0.9732 -1.8620
  422SOL    MW4 1743   3.903   0.187   0.386 -0.0248  0.1062 -0.3341
  423SOL     OW 1744   3.622   1.348   0.433 -0.3386 -0.2918  0.3365
  423SOL    HW2 1745   3.613   1.443   0.436 -1.2451 -0.4157  2.1044
  423SOL    HW3 1746   3.709   1.330   0.468  0.3127 -0.0703 -1.1101
  423SOL    MW4 1747   3.632   1.358   0.438 -0.3724 -0.2789  0.3789
  424SOL     OW 1748   4.072   0.309   0.207 -0.0344 -0.1814  0.4691
  424SOL    HW2 1749   4.060   0.283   0.116  0.0553 -1.1121  0.7238
  424SOL    HW3 1750   4.107   0.399   0.201  2.2284 -1.0769 -0.4838
  424SOL    MW4 1751   4.075   0.318   0.194  0.2761 -0.4223  0.3770
  425SOL     OW 1752   3.415   2.811   0.746 -0.1791  0.1883 -0.1598
  425SOL    HW2 1753   3.439   2.790   0.656  2.5146  1.3935  0.2147
  425SOL    HW3 1754   3.476   2.759   0.799  0.1200  1.6099  0.9173
  425SOL    MW4 1755   3.426   2.801   0.741  0.2160  0.5350  0.0317
  426SOL     OW 1756   2.511   2.117   0.372 -0.1138 -0.1333 -0.3850
  426SOL    HW2 1757   2.497   2.212   0.368 -1.3786 -0.3124 -0.4098
  426SOL    HW3 1758   2.606   2.107   0.371  0.0371  1.1453 -0.1578
  426SOL    MW4 1759   2.522   2.128   0.371 -0.2608  0.0117 -0.3583
  427SOL     OW 1760   3.161   2.708   0.837  0.0913 -0.2470 -0.2399
  427SOL    HW2 1761   3.250   2.725   0.806  0.4438 -0.6220  0.5483
  427SOL    HW3 1762   3.137   2.625   0.795 -0.5727  0.7429 -1.8651
  427SOL    MW4 1763   3.170   2.699   0.827  0.0501 -0.1659 -0.3503
  428SOL     OW 1764   3.254   3.239   0.531 -0.2301 -0.0104  0.5573
  428SOL    HW2 1765   3.281   3.192   0.610 -1.5491 -0.1792  0.9192
  428SOL    HW3 1766   3.169   3.275   0.553  0.0934  1.2586 -0.2620
  428SOL    MW4 1767   3.247   3.237   0.544 -0.3614  0.1347  0.4970
  429SOL     OW 1768   3.030   3.479   0.843  0.0561  0.0678  0.0548
  429SOL    HW2 1769   3.114   3.523   0.825 -0.4251  1.4733  1.1728
  429SOL    HW3 1770   2.964   3.545   0.824 -0.6960 -0.2149  1.6520
  429SOL    MW4 1771   3.033   3.494   0.838 -0.1066  0.2160  0.4131
  430SOL     OW 1772   3.576   3.240   0.740 -0.4307 -0.1628 -0.5280
  430SOL    HW2 1773   3.561   3.335   0.748 -0.3968 -0.3032  1.3060
  430SOL    HW3 1774   3.495   3.200   0.770  0.2405 -0.7529  0.5225
  430SOL    MW4 1775   3.563   3.247   0.745 -0.3378 -0.2592 -0.1475
  431SOL     OW 1776   3.707   3.172   0.491  0.0597  0.0869  0.1588
  431SOL    HW2 1777   3.728   3.081   0.473 -0.3120 -0.0109  0.2303
  431SOL    HW3 1778   3.662   3.171   0.576 -0.0543  0.3226  0.1028
  431SOL    MW4 1779   3.704   3.160   0.500 -0.0045  0.1051  0.1609
  432SOL     OW 1780   3.165   0.169   0.737 -0.1339 -0.4473 -0.2710
  432SOL    HW2 1781   3.164   0.253   0.781 -1.2855 -0.7558  0.3149
  432SOL    HW3 1782   3.243   0.124   0.771 -0.2614 -0.1450  0.4272
  432SOL    MW4 1783   3.175   0.174   0.747 -0.3026 -0.4481 -0.1016
  433SOL     OW 1784   3.557   4.496   0.471 -0.1481 -0.0154  0.0334
  433SOL    HW2 1785   3.631   4.441   0.496  0.1571 -0.4593 -1.7838
  433SOL    HW3 1786   3.592   4.585   0.469 -0.1156 -0.0025  0.8764
  433SOL    MW4 1787   3.571   4.501   0.474 -0.1040 -0.0725 -0.0951
  434SOL     OW 1788   1.762   0.060   0.513  0.1347 -0.1065 -0.2443
  434SOL    HW2 1789   1.718  -0.024   0.526 -0.1562 -0.0346 -0.7487
  434SOL    HW3 1790   1.838   0.040   0.459  0.3252 -0.1194  0.0292
  434SOL    MW4 1791   1.766   0.046   0.508  0.1216 -0.0987 -0.2748
  435SOL     OW 1792   3.832   4.632   0.906  0.0898 -0.4923  0.1478
  435SOL    HW2 1793   3.906   4.674   0.863 -0.9137 -0.7712 -1.9005
  435SOL    HW3 1794   3.756   4.684   0.880 -0.6852 -1.3589  0.6425
  435SOL    MW4 1795   3.832   4.645   0.897 -0.1450 -0.6434 -0.0571
  436SOL     OW 1796   1.770   1.336   0.441 -0.0402 -0.1406 -0.0532
  436SOL    HW2 1797   1.719   1.259   0.419 -0.6262  0.5495 -1.1547
  436SOL    HW3 1798   1.721   1.410   0.404  1.0797  0.6545 -0.0077
  436SOL    MW4 1799   1.757   1.336   0.434  0.0304  0.0554 -0.1925
  437SOL     OW 1800   2.536   3.388   0.375 -0.2290  0.5354  0.1544
  437SOL    HW2 1801   2.450   3.359   0.345 -0.1126  0.3400  0.0048
  437SOL    HW3 1802   2.588   3.307   0.379 -0.2398  0.5603  0.8716
  437SOL    MW4 1803   2.531   3.373   0.372 -0.2148  0.5128  0.2293
  438SOL     OW 1804   2.917   3.541   0.448 -0.0295 -0.2375  0.3543
  438SOL    HW2 1805   2.917   3.452   0.482  0.9621 -0.2357  0.3825
  438SOL    HW3 1806   3.010   3.567   0.449 -0.6490  2.1591  3.9810
  438SOL    MW4 1807   2.930   3.533   0.452  0.0196  0.0792  0.8365
  439SOL     OW 1808   4.276   0.497   0.748  0.1289  0.0648 -0.0254
  439SOL    HW2 1809   4.293   0.493   0.653 -0.2478  0.7973 -0.1215
  439SOL    HW3 1810   4.287   0.589   0.770 -1.3240  0.1429  0.3696
  439SOL    MW4 1811   4.280   0.508   0.738 -0.1130  0.1718  0.0141
  440SOL     OW 1812   3.853   0.692   0.915  0.4970  0.1317  0.5657
  440SOL    HW2 1813   3.825   0.601   0.898 -1.2662  0.7865 -0.2089
  440SOL    HW3 1814   3.821   0.710   1.004 -0.3016  0.3981  0.2332
  440SOL    MW4 1815   3.845   0.682   0.925  0.1590  0.2533  0.4196
  441SOL     OW 1816   4.207   1.563   0.335  0.3795  0.0012  0.0388
  441SOL    HW2 1817   4.133   1.589   0.390  0.2537 -0.8888  0.2975
  441SOL    HW3 1818   4.180   1.480   0.296  0.9740  0.0076 -0.3946
  441SOL    MW4 1819   4.194   1.556   0.337  0.4411 -0.1154  0.0157
  442SOL     OW 1820   4.479   2.177   0.220 -0.0353  0.3680  0.0415
  442SOL    HW2 1821   4.539   2.248   0.195  0.5393  0.5136  1.7539
  442SOL    HW3 1822   4.401   2.222   0.253 -0.7865  0.1804 -1.4425
  442SOL    MW4 1823   4.477   2.192   0.221 -0.0587  0.3626  0.0716
  443SOL     OW 1824   3.808   1.543   0.890 -0.0225  0.0794 -0.1877
  443SOL    HW2 1825   3.805   1.448   0.876 -0.1143  0.1188 -0.4460
  443SOL    HW3 1826   3.727   1.575   0.851 -0.1629  0.2255  0.2191
  443SOL    MW4 1827   3.797   1.534   0.883 -0.0532  0.1038 -0.1681
  444SOL     OW 1828   3.254   0.970   0.756 -0.8823 -0.6446 -0.3375
  444SOL    HW2 1829   3.187   0.981   0.824 -1.3357 -0.7651 -0.7599
  444SOL    HW3 1830   3.299   1.054   0.754 -1.4772 -0.3252 -0.5248
  444SOL    MW4 1831   3.251   0.983   0.765 -1.0204 -0.6184 -0.4179
  445SOL     OW 1832   0.242   2.725   0.495 -0.0710 -0.0369 -0.0776
  445SOL    HW2 1833   0.251   2.776   0.576 -3.0192  1.4314 -0.6017
  445SOL    HW3 1834   0.305   2.765   0.435 -0.5143  1.3130  0.3340
  445SOL    MW4 1835   0.252   2.737   0.498 -0.5185  0.3352 -0.0924
  446SOL     OW 1836   3.840   2.342   0.883  0.4720  0.3016  0.1236
  446SOL    HW2 1837   3.832   2.333   0.978 -0.0904 -1.1451 -0.0441
  446SOL    HW3 1838   3.752   2.366   0.854  0.8344  1.5454  0.0513
  446SOL    MW4 1839   3.827   2.344   0.892  0.4454  0.2749  0.0919
  447SOL     OW 1840   3.330   2.308   0.832 -0.0957  0.1388  0.2741
  447SOL    HW2 1841   3.346   2.306   0.926  3.5453  0.5960 -0.2595
  447SOL    HW3 1842   3.339   2.217   0.805 -0.5944  0.0830  0.3040
  447SOL    MW4 1843   3.333   2.296   0.841  0.3190  0.1917  0.2076
  448SOL     OW 1844   2.299   4.016   0.456  0.0299  0.4647  0.0262
  448SOL    HW2 1845   2.300   4.036   0.550  2.7749  0.4329  0.0491
  448SOL    HW3 1846   2.324   3.924   0.451  0.4732  0.6235 -0.7554
  448SOL    MW4 1847   2.303   4.007   0.468  0.4506  0.4811 -0.0739
  449SOL     OW 1848   3.619   2.689   0.890  0.0605  0.1685 -0.0622
  449SOL    HW2 1849   3.627   2.710   0.983 -1.6147  1.0277 -0.0889
  449SOL    HW3 1850   3.701   2.721   0.852  2.1679 -3.0563  1.5610
  449SOL    MW4 1851   3.631   2.696   0.897  0.1175 -0.1438  0.1484
  450SOL     OW 1852   2.885   2.395   0.328 -0.1573  0.3962 -0.0716
  450SOL    HW2 1853   2.876   2.300   0.326 -0.7123  0.4619 -1.1510
  450SOL    HW3 1854   2.797   2.427   0.347 -0.4697  0.7600 -2.0267
  450SOL    MW4 1855   2.872   2.386   0.330 -0.2720  0.4528 -0.4719
  451SOL     OW 1856   4.055   2.718   0.841  0.0447  0.2882  0.0491
  451SOL    HW2 1857   4.131   2.757   0.797  0.3981 -0.9047 -0.4165
  451SOL    HW3 1858   4.052   2.629   0.807 -1.1448  0.1166  0.6156
  451SOL    MW4 1859   4.065   2.711   0.830 -0.0658  0.1082  0.0625
  452SOL     OW 1860   1.325   4.009   0.807  0.2417 -0.1317 -0.4675
  452SOL    HW2 1861   1.250   3.967   0.848  0.1539  1.0420  0.5931
  452SOL    HW3 1862   1.325   3.975   0.717 -2.3358  0.8387 -0.8713
  452SOL    MW4 1863   1.315   3.999   0.800 -0.1100  0.1514 -0.3808
  453SOL     OW 1864   3.827   3.612   0.752 -0.3225 -0.0188 -0.4970
  453SOL    HW2 1865   3.842   3.623   0.658  1.7143  0.8829 -0.0966
  453SOL    HW3 1866   3.909   3.573   0.784 -0.2210  1.5447  1.2034
  453SOL    MW4 1867   3.840   3.609   0.743 -0.0403  0.3061 -0.2198
  454SOL     OW 1868   1.545   4.205   0.514 -0.2059 -0.1060 -0.3936
  454SOL    HW2 1869   1.614   4.140   0.505  0.2331  0.2268  0.4774
  454SOL    HW3 1870   1.577   4.281   0.465 -0.0559 -0.0296 -0.1764
  454SOL    MW4 1871   1.558   4.207   0.506 -0.1281 -0.0525 -0.2500
  455SOL     OW 1872   3.807   3.874   0.835 -0.1729  0.4434  0.3200
  455SOL    HW2 1873   3.830   3.784   0.810 -1.0131  0.3718 -0.2247
  455SOL    HW3 1874   3.885   3.925   0.814  0.1068 -0.0695  0.0945
  455SOL    MW4 1875   3.820   3.869   0.829 -0.2470  0.3662  0.2184
  456SOL     OW 1876   2.605   0.601   0.356  0.0246  0.0534 -0.2155
  456SOL    HW2 1877   2.542   0.543   0.400  0.1861 -0.7601 -1.0385
  456SOL    HW3 1878   2.685   0.548   0.349  0.3211  0.5457 -0.5450
  456SOL    MW4 1879   2.607   0.586   0.361  0.0851  0.0110 -0.3675
  457SOL     OW 1880   3.799   4.372   0.822  0.0077  0.1914  0.1766
  457SOL    HW2 1881   3.879   4.333   0.859 -0.0210  0.6052  0.6729
  457SOL    HW3 1882   3.809   4.466   0.837 -0.7286  0.2089  0.5252
  457SOL    MW4 1883   3.811   4.379   0.829 -0.0935  0.2484  0.2881
  458SOL     OW 1884   3.271   3.603   0.762  0.0913  0.0168 -0.6413
  458SOL    HW2 1885   3.350   3.552   0.782  0.0098 -0.1076 -0.6321
  458SOL    HW3 1886   3.287   3.688   0.802 -0.3558 -0.4461  0.5495
  458SOL    MW4 1887   3.284   3.608   0.770  0.0212 -0.0608 -0.4830
  459SOL     OW 1888   4.300   4.587   0.904  0.3242  0.4476 -0.2000
  459SOL    HW2 1889   4.283   4.576   0.998  0.9868 -1.2336 -0.2567
  459SOL    HW3 1890   4.374   4.647   0.899  0.0265  0.8650  0.3261
  459SOL    MW4 1891   4.307   4.594   0.916  0.3729  0.2804 -0.1380
  460SOL     OW 1892   3.820   0.425   0.833 -0.3391  0.4287  0.0659
  460SOL    HW2 1893   3.828   0.397   0.741  0.0570 -0.2345  0.3001
  460SOL    HW3 1894   3.735   0.392   0.861 -0.5205  0.7482 -0.0949
  460SOL    MW4 1895   3.810   0.417   0.824 -0.3107  0.3833  0.0755
  461SOL     OW 1896   2.656   2.518   0.452 -0.2152  0.4379 -0.0451
  461SOL    HW2 1897   2.678   2.461   0.526 -1.6932  1.2254  1.0168
  461SOL    HW3 1898   2.582   2.475   0.410  0.8791 -0.2177 -1.3272
  461SOL    MW4 1899   2.649   2.504   0.456 -0.2658  0.4554 -0.0741
  462SOL     OW 1900   3.389   4.658   0.844 -0.2783 -0.1322 -0.3285
  462SOL    HW2 1901   3.381   4.653   0.939 -1.2397 -0.5204 -0.4327
  462SOL    HW3 1902   3.468   4.711   0.830 -0.8713  1.0596  0.6854
  462SOL    MW4 1903   3.398   4.664   0.855 -0.4833 -0.0257 -0.2084
  463SOL     OW 1904   0.588   4.499   0.414 -0.4355 -0.4454  0.1417
  463SOL    HW2 1905   0.671   4.538   0.387 -1.0633  0.9022  0.1425
  463SOL    HW3 1906   0.554   4.458   0.335 -0.1347 -0.3565 -0.0355
  463SOL    MW4 1907   0.595   4.499   0.400 -0.4786 -0.2561  0.1185
  464SOL     OW 1908   2.685   0.933   0.818  0.5970  0.1282 -0.0891
  464SOL    HW2 1909   2.769   0.890   0.839  0.3745 -0.4998 -0.4723
  464SOL    HW3 1910   2.621   0.862   0.823  0.1560  0.5181 -0.2779
  464SOL    MW4 1911   2.688   0.918   0.822  0.5095  0.0968 -0.1646
  465SOL     OW 1912   3.181   3.013   0.345  0.3146  0.4898 -0.3985
  465SOL    HW2 1913   3.166   3.100   0.383  0.2708  1.0582 -1.6838
  465SOL    HW3 1914   3.249   3.027   0.279 -0.0075 -0.3700 -0.9194
  465SOL    MW4 1915   3.188   3.026   0.341  0.2663  0.4513 -0.6368
  466SOL     OW 1916   3.768   4.072   0.498 -0.1492  0.0720 -0.2279
  466SOL    HW2 1917   3.770   4.166   0.517 -2.8203  0.1980 -0.4407
  466SOL    HW3 1918   3.676   4.048   0.503  0.4521 -2.4797 -0.5789
  466SOL    MW4 1919   3.756   4.081   0.501 -0.4225 -0.2480 -0.3023
  467SOL     OW 1920   4.252   1.581   0.814 -0.3964 -0.0874  0.2764
  467SOL    HW2 1921   4.245   1.580   0.910  0.0231  0.8110  0.3291
  467SOL    HW3 1922   4.242   1.490   0.788 -0.4023 -0.3540  1.1906
  467SOL    MW4 1923   4.250   1.569   0.823 -0.3414 -0.0041  0.4039
  468SOL     OW 1924   1.092   2.602   0.363  0.0203 -0.4532 -0.0768
  468SOL    HW2 1925   1.059   2.687   0.392  1.0927 -0.2963  0.7134
  468SOL    HW3 1926   1.026   2.539   0.394 -0.9550  0.1038 -0.9770
  468SOL    MW4 1927   1.079   2.605   0.371  0.0330 -0.3591 -0.0913
  469SOL     OW 1928   0.690   1.567   0.746 -0.1543  0.3912  0.1719
  469SOL    HW2 1929   0.601   1.600   0.757  0.1936  1.1868  0.5816
  469SOL    HW3 1930   0.693   1.537   0.655 -0.9520  0.0235  0.2673
  469SOL    MW4 1931   0.679   1.567   0.735 -0.2136  0.4475  0.2385
  470SOL     OW 1932   3.833   1.274   0.791  0.1200 -0.2113 -0.2866
  470SOL    HW2 1933   3.907   1.219   0.818  0.1052  0.0286  0.2268
  470SOL    HW3 1934   3.755   1.224   0.817  0.0411 -1.5202 -2.7961
  470SOL    MW4 1935   3.832   1.260   0.798  0.1078 -0.3525 -0.5500
  471SOL     OW 1936   0.250   1.318   0.713 -0.1661  0.0505  0.7658
  471SOL    HW2 1937   0.327   1.291   0.763 -2.1799 -2.4398  2.5991
  471SOL    HW3 1938   0.226   1.403   0.750  0.9023  0.2214  1.0846
  471SOL    MW4 1939   0.257   1.326   0.724 -0.2908 -0.2557  1.0498
  472SOL     OW 1940   4.362   3.043   0.372  0.0584  0.0120  0.5100
  472SOL    HW2 1941   4.448   3.074   0.400  0.5519  0.5837 -1.5244
  472SOL    HW3 1942   4.305   3.118   0.385  0.5915  0.7656 -1.3751
  472SOL    MW4 1943   4.366   3.057   0.377  0.1941  0.1867 -0.0071
  473SOL     OW 1944   3.829   2.867   0.773  0.4275 -0.0269  0.2413
  473SOL    HW2 1945   3.908   2.815   0.791  0.9066  0.1665 -1.2257
  473SOL    HW3 1946   3.835   2.941   0.833  1.1140 -0.2634  0.4734
  473SOL    MW4 1947   3.840   2.870   0.783  0.5813 -0.0327  0.0783
  474SOL     OW 1948   0.229   3.910   0.441  0.1452 -0.3884 -0.2319
  474SOL    HW2 1949   0.200   3.818   0.441  0.5801 -0.5564 -2.6462
  474SOL    HW3 1950   0.323   3.905   0.424  0.2762  0.4807  0.2342
  474SOL    MW4 1951   0.238   3.897   0.439  0.2199 -0.2961 -0.4890
  475SOL     OW 1952   4.032   3.235   0.723 -0.2925 -0.3086 -0.3166
  475SOL    HW2 1953   4.123   3.205   0.724  0.2051  1.1636 -0.2254
  475SOL    HW3 1954   4.035   3.322   0.762 -1.7594 -0.2833 -0.2329
  475SOL    MW4 1955   4.045   3.243   0.728 -0.4201 -0.1111 -0.2935
  476SOL     OW 1956   4.058   3.483   0.832 -0.3326  0.6763 -0.0091
  476SOL    HW2 1957   4.072   3.503   0.924  0.1801  1.9629 -0.3541
  476SOL    HW3 1958   4.135   3.517   0.788  0.1737 -1.3155 -0.7526
  476SOL    MW4 1959   4.070   3.490   0.838 -0.1984  0.5829 -0.1527
  477SOL     OW 1960   4.457   4.269   0.868 -0.1984  0.0634  0.0315
  477SOL    HW2 1961   4.535   4.322   0.850 -1.3246  1.3032 -1.3581
  477SOL    HW3 1962   4.438   4.286   0.961  0.8179  0.2149  0.2255
  477SOL    MW4 1963   4.465   4.278   0.878 -0.2127  0.2470 -0.1262
  478SOL     OW 1964   4.281   3.621   0.741 -0.4602  0.0643 -0.1526
  478SOL    HW2 1965   4.303   3.660   0.656 -0.2433 -0.3654 -0.2955
  478SOL    HW3 1966   4.280   3.695   0.802  1.3581  0.1141 -0.1472
  478SOL    MW4 1967   4.284   3.636   0.738 -0.1922  0.0141 -0.1708
  479SOL     OW 1968   4.465   0.950   0.768 -0.2086 -0.4274  0.2804
  479SOL    HW2 1969   4.550   0.908   0.780  0.4180  0.7753  0.0399
  479SOL    HW3 1970   4.472   1.034   0.812 -1.0145  0.0191 -0.4115
  479SOL    MW4 1971   4.477   0.955   0.775 -0.2323 -0.2098  0.1574
  480SOL     OW 1972   4.039   4.003   0.764  0.4236 -0.0361 -0.0951
  480SOL    HW2 1973   4.050   4.004   0.669  0.1274 -1.1257 -0.1470
  480SOL    HW3 1974   4.123   3.970   0.797 -0.5791 -2.7975 -0.1737
  480SOL    MW4 1975   4.052   3.999   0.756  0.2522 -0.5441 -0.1123
  481SOL     OW 1976   4.210   4.385   0.713 -0.4144  0.1234  0.0068
  481SOL    HW2 1977   4.224   4.450   0.782 -1.2600  0.6513 -0.3142
  481SOL    HW3 1978   4.293   4.337   0.709  0.1953  1.1274  0.2994
  481SOL    MW4 1979   4.223   4.388   0.722 -0.4454  0.3257  0.0032
  482SOL     OW 1980   0.684   1.486   0.486  0.4900 -0.1457 -0.6155
  482SOL    HW2 1981   0.663   1.393   0.489  2.1256 -0.5109  0.8022
  482SOL    HW3 1982   0.608   1.527   0.445 -1.6588 -1.7060  1.6432
  482SOL    MW4 1983   0.672   1.479   0.481  0.4223 -0.3998 -0.1304
  483SOL     OW 1984   0.229   4.627   1.163  0.1591 -0.2131 -0.0665
  483SOL    HW2 1985   0.293   4.686   1.203  1.0321 -0.7886 -0.5966
  483SOL    HW3 1986   0.235   4.645   1.069  0.0785 -0.8017 -0.1844
  483SOL    MW4 1987   0.239   4.637   1.156  0.2636 -0.3667 -0.1521
  484SOL     OW 1988   4.481   0.095   1.215  0.3765  0.1967 -0.3081
  484SOL    HW2 1989   4.411   0.042   1.176 -0.4095 -0.1800  1.5290
  484SOL    HW3 1990   4.560   0.043   1.202 -0.1957 -0.8852  0.3643
  484SOL    MW4 1991   4.482   0.081   1.208  0.1979  0.0043  0.0231
  485SOL     OW 1992   4.479   0.383   1.149 -0.3136  0.5254  0.0856
  485SOL    HW2 1993   4.398   0.427   1.175 -0.2083  0.4387  0.5589
  485SOL    HW3 1994   4.469   0.293   1.179  0.6262  0.9030  1.5938
  485SOL    MW4 1995   4.467   0.377   1.156 -0.1764  0.5637  0.3469
  486SOL     OW 1996   0.217   0.544   1.203  0.3107  0.4455  0.1927
  486SOL    HW2 1997   0.233   0.622   1.150  1.6254 -0.1493 -0.3087
  486SOL    HW3 1998   0.135   0.509   1.171  1.2051 -0.0392 -1.6247
  486SOL    MW4 1999   0.209   0.550   1.192  0.6021  0.3031 -0.1134
  487SOL     OW 2000   0.244   0.803   1.078  0.6285 -0.3833 -0.4707
  487SOL    HW2 2001   0.320   0.837   1.124  0.7490 -1.4637  0.1517
  487SOL    HW3 2002   0.169   0.840   1.123  0.7351 -1.8127  0.9226
  487SOL    MW4 2003   0.244   0.812   1.090  0.6585 -0.7144 -0.2047
  488SOL     OW 2004   0.040   0.939   1.191  0.2070  0.3980 -0.4962
  488SOL    HW2 2005   0.053   0.921   1.284  2.6772  0.7319 -0.7475
  488SOL    HW3 2006  -0.040   0.891   1.168  0.3025 -0.7524  1.4777
  488SOL    MW4 2007   0.031   0.930   1.200  0.5455  0.2902 -0.2689
  489SOL     OW 2008   0.019   1.218   1.129 -0.4842 -0.3062 -0.1844
  489SOL    HW2 2009  -0.064   1.244   1.168 -0.3142  0.4683 -0.3272
  489SOL    HW3 2010   0.033   1.129   1.160 -1.5394 -0.5687 -0.4472
  489SOL    MW4 2011   0.010   1.210   1.139 -0.6010 -0.2387 -0.2379
  490SOL     OW 2012   0.250   1.320   1.253  0.2237 -0.3609 -0.0105
  490SOL    HW2 2013   0.323   1.261   1.238 -0.5421 -1.4109  0.3128
  490SOL    HW3 2014   0.172   1.265   1.242 -0.5220  0.7893 -0.5787
  490SOL    MW4 2015   0.249   1.305   1.250  0.0243 -0.3476 -0.0428
  491SOL     OW 2016   0.228   1.564   1.125 -0.3426  0.8071 -0.5148
  491SOL    HW2 2017   0.238   1.475   1.158  0.0431  0.7938 -0.6604
  491SOL    HW3 2018   0.224   1.554   1.030  0.8974  1.0372 -0.6107
  491SOL    MW4 2019   0.229   1.551   1.117 -0.1281  0.8357 -0.5467
  492SOL     OW 2020   0.007   1.669   1.235 -0.0326 -0.2228  0.6171
  492SOL    HW2 2021   0.014   1.759   1.202 -2.0108  0.2383  1.3918
  492SOL    HW3 2022   0.088   1.628   1.208  0.3454  1.4379 -0.8980
  492SOL    MW4 2023   0.018   1.676   1.227 -0.2432  0.0571  0.5195
  493SOL     OW 2024   0.012   1.936   1.161  0.0229  0.7142  0.4835
  493SOL    HW2 2025  -0.075   1.966   1.186 -0.5567 -0.7117  0.2438
  493SOL    HW3 2026   0.006   1.921   1.066  0.4576  0.3707  0.5095
  493SOL    MW4 2027  -0.000   1.938   1.152  0.0038  0.4808  0.4553
  494SOL     OW 2028   0.241   2.071   1.230 -0.0938 -0.5278 -0.0165
  494SOL    HW2 2029   0.233   2.164   1.211 -0.4481 -0.1308  1.9565
  494SOL    HW3 2030   0.155   2.034   1.212  0.1850 -0.5655 -1.2743
  494SOL    MW4 2031   0.229   2.078   1.225 -0.1038 -0.4804  0.0778
  495SOL     OW 2032   0.220   2.332   1.168 -0.0197 -0.0002  0.3128
  495SOL    HW2 2033   0.283   2.393   1.207 -0.2579 -0.5921  1.6619
  495SOL    HW3 2034   0.134   2.369   1.191 -0.1583 -0.3146  0.3014
  495SOL    MW4 2035   0.217   2.345   1.176 -0.0694 -0.1197  0.4894
  496SOL     OW 2036   4.450   2.444   1.223  0.3171  0.4850  0.2788
  496SOL    HW2 2037   4.461   2.449   1.318  0.4531  0.1662  0.2806
  496SOL    HW3 2038   4.375   2.387   1.211  1.0672 -0.4943  0.1649
  496SOL    MW4 2039   4.442   2.437   1.234  0.4344  0.3135  0.2640
  497SOL     OW 2040   0.020   2.697   1.146  0.0304  0.2183  0.7292
  497SOL    HW2 2041  -0.059   2.745   1.170  0.5115  0.8159  1.1179
  497SOL    HW3 2042  -0.002   2.605   1.164 -0.6442  0.3594  0.6404
  497SOL    MW4 2043   0.007   2.691   1.152  0.0048  0.3159  0.7687
  498SOL     OW 2044   0.252   2.799   1.270  0.3677 -0.1546 -0.0501
  498SOL    HW2 2045   0.246   2.816   1.364 -2.3525 -0.5213 -0.1156
  498SOL    HW3 2046   0.162   2.777   1.244  1.1356 -0.3253 -2.6823
  498SOL    MW4 2047   0.239   2.799   1.279  0.1101 -0.2253 -0.4060
  499SOL     OW 2048   0.220   3.057   1.120  0.0685 -0.1152  0.2933
  499SOL    HW2 2049   0.296   3.103   1.156  1.6161 -1.3178 -1.3853
  499SOL    HW3 2050   0.227   2.968   1.154 -0.8799 -0.1181  0.5073
  499SOL    MW4 2051   0.231   3.052   1.129  0.1476 -0.2742  0.1001
  500SOL     OW 2052   0.015   3.231   1.198 -0.1301  0.0453 -0.2306
  500SOL    HW2 2053  -0.063   3.189   1.161  1.2188 -0.5114 -2.5784
  500SOL    HW3 2054   0.087   3.172   1.174  1.4627  2.3755 -1.2727
  500SOL    MW4 2055   0.014   3.217   1.190  0.2579  0.2794 -0.6778
  501SOL     OW 2056   0.035   3.504   1.164  0.0714 -0.2468 -0.0676
  501SOL    HW2 2057   0.030   3.412   1.191  0.4351 -0.1986  0.1706
  501SOL    HW3 2058   0.023   3.502   1.070 -2.2300 -0.3265  0.1966
  501SOL    MW4 2059   0.033   3.491   1.155 -0.1843 -0.2513 -0.0014
  502SOL     OW 2060   0.250   3.662   1.252 -0.1069  0.1972 -0.1593
  502SOL    HW2 2061   0.248   3.644   1.346  1.1213  0.5352 -0.0646
  502SOL    HW3 2062   0.178   3.610   1.216 -0.0869 -0.5424  0.8611
  502SOL    MW4 2063   0.240   3.653   1.260  0.0578  0.1442 -0.0122
  503SOL     OW 2064   0.237   3.893   1.127 -0.3826 -0.4222 -0.1224
  503SOL    HW2 2065   0.168   3.946   1.167  0.5974 -0.2245  1.3636
  503SOL    HW3 2066   0.235   3.810   1.176 -0.8726 -1.1744 -1.3931
  503SOL    MW4 2067   0.227   3.889   1.139 -0.3180 -0.4950 -0.0938
  504SOL     OW 2068   0.021   4.016   1.233 -0.2899 -0.1100 -0.5240
  504SOL    HW2 2069   0.012   4.000   1.327  0.1161  0.6465 -0.3549
  504SOL    HW3 2070  -0.055   3.971   1.194 -0.9362  0.2978  0.2428
  504SOL    MW4 2071   0.010   4.008   1.241 -0.3216  0.0439 -0.4005
  505SOL     OW 2072   4.470   4.291   1.146  0.1002  0.2895  0.2750
  505SOL    HW2 2073   4.565   4.303   1.151  0.3096 -1.6611  1.8884
  505SOL    HW3 2074   4.456   4.202   1.179 -2.2554  0.4247 -0.3091
  505SOL    MW4 2075   4.481   4.280   1.151 -0.1831  0.0505  0.4108
  506SOL     OW 2076   0.243   4.359   1.184 -0.6455  0.3727  0.2607
  506SOL    HW2 2077   0.229   4.337   1.277 -0.0323 -1.4203 -0.0452
  506SOL    HW3 2078   0.228   4.454   1.179 -1.1726  0.4082  2.0949
  506SOL    MW4 2079   0.239   4.369   1.196 -0.6342  0.1407  0.4624
  507SOL     OW 2080   0.624   4.654   1.119 -0.1178  0.1044  0.3354
  507SOL    HW2 2081   0.716   4.681   1.123 -0.5945  1.6091  1.4457
  507SOL    HW3 2082   0.623   4.568   1.161  0.9572 -0.4476 -0.7157
  507SOL    MW4 2083   0.636   4.646   1.125 -0.0388  0.2294  0.3431
  508SOL     OW 2084   0.413   0.133   1.246 -0.0616 -0.2762  0.2937
  508SOL    HW2 2085   0.421   0.222   1.210  0.8741 -0.5253 -0.1192
  508SOL    HW3 2086   0.492   0.088   1.218 -0.7496 -1.3939  0.0908
  508SOL    MW4 2087   0.424   0.139   1.237 -0.0289 -0.4566  0.2124
  509SOL     OW 2088   0.437   0.386   1.124 -0.2568 -0.1767  0.4284
  509SOL    HW2 2089   0.357   0.435   1.143  0.3680  0.6224  1.0286
  509SOL    HW3 2090   0.430   0.366   1.031 -1.3824 -0.5327  0.5732
  509SOL    MW4 2091   0.425   0.390   1.115 -0.3228 -0.1183  0.5268
  510SOL     OW 2092   0.661   0.509   1.242  0.3049 -0.4907  0.3957
  510SOL    HW2 2093   0.679   0.596   1.207  1.8147 -1.3726 -1.1119
  510SOL    HW3 2094   0.574   0.487   1.209 -0.3328  0.6926  1.2843
  510SOL    MW4 2095   0.652   0.518   1.233  0.4200 -0.4508  0.3141
  511SOL     OW 2096   0.666   0.769   1.141  0.0476 -0.1502 -0.1525
  511SOL    HW2 2097   0.590   0.814   1.177  0.4226  0.3307  0.0555
  511SOL    HW3 2098   0.653   0.770   1.046 -0.5058 -0.6242 -0.0865
  511SOL    MW4 2099   0.654   0.775   1.133  0.0241 -0.1494 -0.1163
  512SOL     OW 2100   0.447   0.915   1.239  0.3803 -0.1136 -0.1471
  512SOL    HW2 2101   0.432   0.925   1.333  0.5124  0.5360 -0.1909
  512SOL    HW3 2102   0.479   1.001   1.211 -1.5389  0.2956 -1.1507
  512SOL    MW4 2103   0.449   0.928   1.247  0.1445  0.0261 -0.2853
  513SOL     OW 2104   0.478   1.182   1.183 -0.0591 -0.8458 -0.0959
  513SOL    HW2 2105   0.562   1.207   1.224  0.0345 -2.8567  0.9813
  513SOL    HW3 2106   0.481   1.223   1.097  1.5579  0.0406  0.3523
  513SOL    MW4 2107   0.490   1.191   1.177  0.1666 -0.9941  0.1055
  514SOL     OW 2108   0.715   1.280   1.315  0.0056 -0.0899  0.2280
  514SOL    HW2 2109   0.775   1.236   1.255  1.1453  0.4668  0.9291
  514SOL    HW3 2110   0.720   1.372   1.290 -1.1361 -0.1396 -0.1950
  514SOL    MW4 2111   0.724   1.287   1.304  0.0054 -0.0231  0.2646
  515SOL     OW 2112   0.737   1.524   1.207  0.6264  0.0170 -0.6133
  515SOL    HW2 2113   0.809   1.581   1.236  0.7805 -0.9993  1.0283
  515SOL    HW3 2114   0.658   1.572   1.232  0.7227  0.5503 -1.2922
  515SOL    MW4 2115   0.736   1.538   1.214  0.6595 -0.0468 -0.4863
  516SOL     OW 2116   0.467   1.638   1.236 -0.1849 -0.0504  0.2884
  516SOL    HW2 2117   0.457   1.633   1.332 -1.1916 -1.5352  0.1296
  516SOL    HW3 2118   0.383   1.606   1.202  0.8491 -1.3694 -1.0928
  516SOL    MW4 2119   0.455   1.633   1.244 -0.1813 -0.4203  0.0851
  517SOL     OW 2120   0.453   1.912   1.112  0.1467 -0.3080  0.1152
  517SOL    HW2 2121   0.454   1.830   1.162 -1.7143 -0.8848 -0.7553
  517SOL    HW3 2122   0.377   1.959   1.144  0.3749  0.4352 -0.4221
  517SOL    MW4 2123   0.443   1.907   1.123 -0.0688 -0.2859 -0.0706
  518SOL     OW 2124   0.658   2.083   1.239 -0.2071  0.2272  0.0317
  518SOL    HW2 2125   0.656   2.076   1.335  3.4385 -0.8844  0.1225
  518SOL    HW3 2126   0.596   2.017   1.209  0.4414 -1.1545  1.6171
  518SOL    MW4 2127   0.650   2.073   1.248  0.3595 -0.1016  0.2528
  519SOL     OW 2128   0.667   2.346   1.143 -0.3317  0.6040  0.0994
  519SOL    HW2 2129   0.592   2.400   1.167  0.6260  1.2086  1.7815
  519SOL    HW3 2130   0.652   2.263   1.188 -0.1896  0.5939  0.1290
  519SOL    MW4 2131   0.655   2.342   1.152 -0.1866  0.6824  0.3252
  520SOL     OW 2132   0.446   2.483   1.251 -0.6510 -0.2492 -0.2880
  520SOL    HW2 2133   0.472   2.486   1.343 -1.8437 -0.5225  0.0673
  520SOL    HW3 2134   0.452   2.574   1.221  0.1129 -0.2232 -0.0403
  520SOL    MW4 2135   0.450   2.496   1.259 -0.7076 -0.2818 -0.2085
  521SOL     OW 2136   0.496   2.731   1.166  0.2260  0.0712 -0.4776
  521SOL    HW2 2137   0.414   2.764   1.202 -1.1559 -1.9326 -1.6271
  521SOL    HW3 2138   0.479   2.722   1.072  0.4911 -3.7281 -0.2465
  521SOL    MW4 2139   0.483   2.734   1.159  0.0786 -0.6945 -0.5988
  522SOL     OW 2140   0.749   2.861   1.263  0.4801  0.5544  0.3884
  522SOL    HW2 2141   0.738   2.949   1.226  0.7445  0.7247  0.7165
  522SOL    HW3 2142   0.661   2.823   1.261  0.3920  0.7751  0.1134
  522SOL    MW4 2143   0.736   2.868   1.258  0.5034  0.6061  0.3954
  523SOL     OW 2144   0.675   3.121   1.173 -0.1135  0.3593 -0.1728
  523SOL    HW2 2145   0.757   3.157   1.208 -0.0317 -0.5669  0.5975
  523SOL    HW3 2146   0.685   3.128   1.078  0.6637  0.6727 -0.0775
  523SOL    MW4 2147   0.687   3.127   1.165 -0.0002  0.2782 -0.0587
  524SOL     OW 2148   0.408   3.207   1.235 -0.5584  0.1974  0.5116
  524SOL    HW2 2149   0.387   3.296   1.207  0.5493  0.4741  0.5077
  524SOL    HW3 2150   0.493   3.189   1.193 -2.0065 -1.8609 -1.7059
  524SOL    MW4 2151   0.417   3.216   1.226 -0.6033 -0.0377  0.2185
  525SOL     OW 2152   0.433   3.484   1.150 -0.0235 -0.3222  0.2106
  525SOL    HW2 2153   0.510   3.517   1.196 -0.9030 -0.9874  2.2356
  525SOL    HW3 2154   0.362   3.542   1.178 -0.5391 -0.6017 -0.5045
  525SOL    MW4 2155   0.434   3.496   1.160 -0.2075 -0.4468  0.3834
  526SOL     OW 2156   0.667   3.584   1.263 -0.2980 -0.4031  0.4617
  526SOL    HW2 2157   0.657   3.602   1.357  0.9735 -0.4410  0.6159
  526SOL    HW3 2158   0.660   3.669   1.221 -0.9964 -0.4011  0.5823
  526SOL    MW4 2159   0.665   3.598   1.270 -0.2223 -0.4077  0.4978
  527SOL     OW 2160   0.685   3.842   1.155 -0.1677  0.1709  0.1696
  527SOL    HW2 2161   0.607   3.888   1.185 -0.2351 -0.0190  0.2790
  527SOL    HW3 2162   0.682   3.850   1.060 -1.4872 -1.7750  0.0362
  527SOL    MW4 2163   0.675   3.849   1.147 -0.3506 -0.1109  0.1664
  528SOL     OW 2164   0.475   3.982   1.237  0.3020  0.0614  0.1077
  528SOL    HW2 2165   0.494   4.052   1.173  1.3722  0.2967  0.6734
  528SOL    HW3 2166   0.397   3.939   1.202  0.0337  1.0988 -0.6170
  528SOL    MW4 2167   0.468   3.986   1.224  0.4078  0.2291  0.0867
  529SOL     OW 2168   0.467   4.210   1.100 -0.0752 -0.0342  0.1236
  529SOL    HW2 2169   0.530   4.279   1.125 -0.7757  1.3002 -1.7070
  529SOL    HW3 2170   0.383   4.243   1.132 -0.2780 -0.4968  0.0635
  529SOL    MW4 2171   0.465   4.224   1.108 -0.1943  0.0811 -0.1259
  530SOL     OW 2172   0.631   4.382   1.234 -0.5574 -0.0003 -0.4330
  530SOL    HW2 2173   0.650   4.405   1.325  0.2127  2.0845 -1.0987
  530SOL    HW3 2174   0.710   4.338   1.203 -0.2647  0.5783 -0.5141
  530SOL    MW4 2175   0.644   4.379   1.242 -0.4172  0.3514 -0.5316
  531SOL     OW 2176   1.107   4.656   1.097  0.0810  0.1146  0.2334
  531SOL    HW2 2177   1.108   4.564   1.125  1.4210  0.2887  0.7796
  531SOL    HW3 2178   1.114   4.652   1.001  0.6415 -0.3442  0.2900
  531SOL    MW4 2179   1.108   4.643   1.088  0.3318  0.0777  0.3129
  532SOL     OW 2180   0.865   0.086   1.189  0.2391 -0.0688  0.1017
  532SOL    HW2 2181   0.864   0.102   1.284  1.3739 -1.7985  0.4263
  532SOL    HW3 2182   0.953   0.051   1.172  0.0727  0.3216 -1.6160
  532SOL    MW4 2183   0.877   0.084   1.199  0.3669 -0.2455 -0.0821
  533SOL     OW 2184   0.888   0.379   1.089 -0.3469  0.3888 -0.1603
  533SOL    HW2 2185   0.886   0.291   1.126  1.7440  1.1759  1.8872
  533SOL    HW3 2186   0.812   0.423   1.127 -1.3862 -0.4866 -1.1750
  533SOL    MW4 2187   0.878   0.374   1.099 -0.2081  0.3771 -0.0240
  534SOL     OW 2188   1.115   0.514   1.194  0.1941  0.4812 -0.1648
  534SOL    HW2 2189   1.097   0.520   1.288 -0.0465  1.5637 -0.2778
  534SOL    HW3 2190   1.042   0.462   1.159  0.3874 -0.0899  0.2705
  534SOL    MW4 2191   1.103   0.508   1.202  0.1878  0.5487 -0.1223
  535SOL     OW 2192   1.120   0.783   1.099  0.1454  0.4606  0.3514
  535SOL    HW2 2193   1.039   0.817   1.137  0.0882 -0.1876  0.8224
  535SOL    HW3 2194   1.122   0.691   1.125  0.5263  0.2165 -0.5256
  535SOL    MW4 2195   1.110   0.775   1.107  0.1882  0.3429  0.2978
  536SOL     OW 2196   0.893   0.902   1.210  0.3059 -0.1685  0.0752
  536SOL    HW2 2197   0.874   0.985   1.165  1.0612  0.4422  0.8597
  536SOL    HW3 2198   0.815   0.849   1.196 -0.4997  0.9564  0.1857
  536SOL    MW4 2199   0.880   0.906   1.203  0.2993  0.0605  0.1934
  537SOL     OW 2200   0.856   1.143   1.109 -0.1805 -0.2059  0.0122
  537SOL    HW2 2201   0.943   1.173   1.135  0.5428 -1.4236 -0.9651
  537SOL    HW3 2202   0.849   1.169   1.017 -1.2299  0.7069  0.3326
  537SOL    MW4 2203   0.866   1.150   1.100 -0.2235 -0.2459 -0.0743
  538SOL     OW 2204   1.084   1.280   1.192 -0.2509 -0.0914  0.5004
  538SOL    HW2 2205   1.098   1.294   1.286 -0.1291  1.1045  0.3069
  538SOL    HW3 2206   1.164   1.237   1.162  0.4608  1.1496  0.6008
  538SOL    MW4 2207   1.097   1.276   1.201 -0.1409  0.2301  0.4882
  539SOL     OW 2208   1.130   1.542   1.134  0.1347 -0.0374  0.0465
  539SOL    HW2 2209   1.107   1.451   1.155 -3.4252  0.7816 -0.0150
  539SOL    HW3 2210   1.104   1.552   1.042 -0.1127  1.2369  0.2574
  539SOL    MW4 2211   1.123   1.531   1.125 -0.3675  0.2388  0.0663
  540SOL     OW 2212   0.934   1.707   1.289  0.2304 -0.5467 -0.1890
  540SOL    HW2 2213   0.921   1.793   1.249 -0.6958  0.2885  1.8736
  540SOL    HW3 2214   1.006   1.668   1.239  0.4047  1.2728 -1.3768
  540SOL    MW4 2215   0.942   1.713   1.277  0.1311 -0.1963 -0.0734
  541SOL     OW 2216   0.900   1.947   1.180  0.1298  0.0966  0.0275
  541SOL    HW2 2217   0.973   1.998   1.214  0.9976 -2.1992  1.6857
  541SOL    HW3 2218   0.823   2.000   1.200  1.0257  0.9458  1.3498
  541SOL    MW4 2219   0.900   1.961   1.187  0.3626 -0.0943  0.4207
  542SOL     OW 2220   1.148   2.029   1.270 -0.2584 -0.2504 -0.0450
  542SOL    HW2 2221   1.158   2.019   1.364 -1.9414  0.0044  0.1749
  542SOL    HW3 2222   1.160   2.123   1.255 -0.4955 -0.2159 -0.0190
  542SOL    MW4 2223   1.151   2.040   1.280 -0.5118 -0.2122 -0.0125
  543SOL     OW 2224   1.161   2.280   1.192  0.3137 -0.3323 -0.0819
  543SOL    HW2 2225   1.236   2.338   1.201  0.5158 -0.3315 -1.5444
  543SOL    HW3 2226   1.084   2.335   1.207  0.6122 -0.4521  1.9617
  543SOL    MW4 2227   1.160   2.295   1.195  0.3798 -0.3479 -0.0052
  544SOL     OW 2228   0.938   2.426   1.247  0.2568  0.0087  0.3037
  544SOL    HW2 2229   0.943   2.435   1.342 -0.4212  0.0204  0.3407
  544SOL    HW3 2230   0.848   2.398   1.230  0.3235  0.1803 -0.3468
  544SOL    MW4 2231   0.927   2.424   1.257  0.1761  0.0331  0.2228
  545SOL     OW 2232   0.948   2.701   1.164  0.1759  0.1251 -0.1971
  545SOL    HW2 2233   0.944   2.611   1.195  0.1879 -0.0588 -0.7264
  545SOL    HW3 2234   0.872   2.744   1.204  1.0924  0.3051  1.3830
  545SOL    MW4 2235   0.938   2.695   1.174  0.2983  0.1245 -0.0585
  546SOL     OW 2236   1.155   2.845   1.258 -0.4394 -0.2645  0.1789
  546SOL    HW2 2237   1.153   2.837   1.354  0.1554 -0.7381  0.1520
  546SOL    HW3 2238   1.080   2.792   1.229  0.4521 -1.6020  0.2881
  546SOL    MW4 2239   1.145   2.837   1.267 -0.2434 -0.5033  0.1898
  547SOL     OW 2240   1.172   3.102   1.176 -0.5240  0.1095 -0.1277
  547SOL    HW2 2241   1.160   3.013   1.209 -1.5058  0.9802  1.9185
  547SOL    HW3 2242   1.173   3.092   1.080 -1.7504 -1.9394  0.0487
  547SOL    MW4 2243   1.171   3.089   1.168 -0.8153 -0.0458  0.1655
  548SOL     OW 2244   0.918   3.215   1.250 -0.1662 -0.5700  0.0143
  548SOL    HW2 2245   0.919   3.305   1.217  0.6661  0.3020  2.3660
  548SOL    HW3 2246   0.995   3.174   1.210 -0.2724 -0.1229 -0.6632
  548SOL    MW4 2247   0.928   3.221   1.240 -0.0705 -0.3960  0.2352
  549SOL     OW 2248   0.924   3.480   1.173  0.2453 -0.1696 -0.3031
  549SOL    HW2 2249   0.845   3.517   1.213 -0.5666 -0.1759 -1.8651
  549SOL    HW3 2250   0.913   3.496   1.079  1.7922 -0.7684 -0.6013
  549SOL    MW4 2251   0.912   3.487   1.166  0.3422 -0.2496 -0.5485
  550SOL     OW 2252   1.134   3.660   1.249  0.4058 -0.1077 -0.3184
  550SOL    HW2 2253   1.211   3.617   1.212  0.4154 -0.8648  0.5495
  550SOL    HW3 2254   1.061   3.603   1.227  0.4691 -0.8018  1.1731
  550SOL    MW4 2255   1.134   3.647   1.242  0.4154 -0.2992 -0.0072
  551SOL     OW 2256   1.145   3.922   1.176  0.2791 -0.2622  0.4248
  551SOL    HW2 2257   1.057   3.955   1.194 -0.8660 -1.8581 -1.9072
  551SOL    HW3 2258   1.142   3.831   1.207  0.4079 -0.9567 -1.5441
  551SOL    MW4 2259   1.133   3.914   1.183  0.1450 -0.5643 -0.1426
  552SOL     OW 2260   0.883   4.016   1.230 -0.6442 -0.1012 -0.0116
  552SOL    HW2 2261   0.882   4.022   1.325 -0.3522 -1.8566  0.1053
  552SOL    HW3 2262   0.821   3.947   1.208  0.9747 -1.2945 -0.9617
  552SOL    MW4 2263   0.875   4.008   1.239 -0.3920 -0.4897 -0.1214
  553SOL     OW 2264   0.856   4.264   1.127 -0.2531  0.2663 -0.2749
  553SOL    HW2 2265   0.857   4.175   1.161  1.1971  0.1495 -0.6019
  553SOL    HW3 2266   0.837   4.255   1.034 -1.0561  0.3643 -0.1201
  553SOL    MW4 2267   0.854   4.251   1.120 -0.1678  0.2637 -0.2977
  554SOL     OW 2268   1.115   4.398   1.176 -0.0894  0.4116 -0.2764
  554SOL    HW2 2269   1.104   4.398   1.271  0.4070 -0.8906 -0.2085
  554SOL    HW3 2270   1.032   4.367   1.142  0.8260 -2.4130 -0.0893
  554SOL    MW4 2271   1.103   4.394   1.184  0.0968 -0.1326 -0.2427
  555SOL     OW 2272   1.542   4.667   1.167 -0.5212  0.1767 -0.4758
  555SOL    HW2 2273   1.625   4.702   1.199 -1.3296  1.0596  0.6629
  555SOL    HW3 2274   1.553   4.572   1.173  0.3615  0.2879 -0.2439
  555SOL    MW4 2275   1.554   4.659   1.172 -0.5114  0.3080 -0.2952
  556SOL     OW 2276   1.308   0.110   1.258  0.1125  0.4743 -0.4659
  556SOL    HW2 2277   1.393   0.082   1.224  0.2307  0.9796 -0.5862
  556SOL    HW3 2278   1.245   0.077   1.194  0.0228 -1.8387  0.7505
  556SOL    MW4 2279   1.311   0.102   1.245  0.1161  0.2358 -0.3211
  557SOL     OW 2280   1.334   0.366   1.134 -0.0164  0.0511 -0.0118
  557SOL    HW2 2281   1.332   0.295   1.198  0.9794  0.1297  0.1214
  557SOL    HW3 2282   1.255   0.416   1.150 -0.2790 -0.5242  0.4799
  557SOL    MW4 2283   1.324   0.363   1.144  0.0803 -0.0144  0.0706
  558SOL     OW 2284   1.532   0.491   1.258 -0.2005 -0.5655 -0.0106
  558SOL    HW2 2285   1.522   0.573   1.211 -1.1110 -0.4316  0.3985
  558SOL    HW3 2286   1.468   0.432   1.216 -0.9030 -0.4909  0.9360
  558SOL    MW4 2287   1.522   0.494   1.246 -0.4133 -0.5380  0.1682
  559SOL     OW 2288   1.535   0.734   1.119 -0.2033 -0.0625  0.1404
  559SOL    HW2 2289   1.614   0.778   1.150 -1.2196  2.0306 -0.1836
  559SOL    HW3 2290   1.543   0.735   1.024 -0.3260 -0.4028  0.1268
  559SOL    MW4 2291   1.547   0.740   1.111 -0.3536  0.1687  0.0960
  560SOL     OW 2292   1.337   0.897   1.218  0.1264 -0.5244 -0.0789
  560SOL    HW2 2293   1.409   0.853   1.171 -0.2305 -1.6496  0.3918
  560SOL    HW3 2294   1.258   0.858   1.181 -0.1415 -1.9832  1.9483
  560SOL    MW4 2295   1.336   0.886   1.207  0.0439 -0.8653  0.2507
  561SOL     OW 2296   1.313   1.146   1.121 -0.3009 -0.0582 -0.3583
  561SOL    HW2 2297   1.312   1.059   1.160 -1.8428  0.6633  1.2477
  561SOL    HW3 2298   1.337   1.131   1.029 -0.2532 -2.1222 -0.0202
  561SOL    MW4 2299   1.316   1.133   1.114 -0.4979 -0.2354 -0.1017
  562SOL     OW 2300   1.522   1.314   1.206  0.1586  0.1394 -0.2969
  562SOL    HW2 2301   1.600   1.260   1.192 -0.8247 -1.3704  0.0165
  562SOL    HW3 2302   1.449   1.260   1.176 -0.8317  1.3252 -0.0564
  562SOL    MW4 2303   1.523   1.300   1.201 -0.1017  0.0967 -0.2238
  563SOL     OW 2304   1.587   1.562   1.084  0.3290  0.1235 -0.2564
  563SOL    HW2 2305   1.654   1.597   1.143 -0.5623 -0.3146  1.0557
  563SOL    HW3 2306   1.560   1.480   1.126 -0.1154 -0.3444 -1.4435
  563SOL    MW4 2307   1.592   1.556   1.098  0.1528  0.0039 -0.2398
  564SOL     OW 2308   1.363   1.663   1.226  0.1747  0.1879  0.0394
  564SOL    HW2 2309   1.428   1.624   1.167  1.1832  0.9091  0.6477
  564SOL    HW3 2310   1.279   1.630   1.195  0.8159 -0.5792 -0.9093
  564SOL    MW4 2311   1.361   1.654   1.214  0.3924  0.1819 -0.0054
  565SOL     OW 2312   1.376   1.923   1.131  0.6665 -0.0655 -0.0823
  565SOL    HW2 2313   1.301   1.966   1.175  1.5751  0.3399  1.1129
  565SOL    HW3 2314   1.372   1.832   1.160  0.2393 -0.2016 -0.5649
  565SOL    MW4 2315   1.365   1.917   1.141  0.7299 -0.0300  0.0118
  566SOL     OW 2316   1.583   2.058   1.235 -0.5022 -0.2679 -0.2758
  566SOL    HW2 2317   1.585   2.141   1.186 -1.3793 -1.1937 -1.9192
  566SOL    HW3 2318   1.511   2.009   1.196  2.0910 -3.1828 -1.6216
  566SOL    MW4 2319   1.574   2.063   1.224 -0.2757 -0.7746 -0.6701
  567SOL     OW 2320   1.585   2.309   1.133 -0.1973 -0.1406  0.4836
  567SOL    HW2 2321   1.514   2.350   1.182  0.4813  0.7252  0.7603
  567SOL    HW3 2322   1.561   2.321   1.041 -1.1314 -1.1615  0.5777
  567SOL    MW4 2323   1.572   2.316   1.127 -0.2311 -0.1612  0.5326
  568SOL     OW 2324   1.376   2.439   1.262 -0.4965  0.2253 -0.0758
  568SOL    HW2 2325   1.377   2.452   1.357 -1.4718 -0.0989 -0.0185
  568SOL    HW3 2326   1.353   2.525   1.226  0.7206  0.5679 -0.0700
  568SOL    MW4 2327   1.373   2.452   1.270 -0.4646  0.2275 -0.0674
  569SOL     OW 2328   1.359   2.688   1.151 -0.4986  0.1397  0.1327
  569SOL    HW2 2329   1.435   2.735   1.184 -0.6329 -0.3739  1.2152
  569SOL    HW3 2330   1.284   2.737   1.185 -0.6391 -0.2021  0.3221
  569SOL    MW4 2331   1.359   2.701   1.160 -0.5350  0.0269  0.3005
  570SOL     OW 2332   1.556   2.843   1.261 -0.0283  0.0531 -0.1220
  570SOL    HW2 2333   1.634   2.808   1.219 -0.7793  0.6558 -2.0766
  570SOL    HW3 2334   1.554   2.935   1.237 -1.1184  0.1380  0.2346
  570SOL    MW4 2335   1.566   2.850   1.252 -0.2711  0.1440 -0.3328
  571SOL     OW 2336   1.579   3.110   1.174 -0.1383 -0.4111  0.1917
  571SOL    HW2 2337   1.660   3.145   1.212 -0.2388  0.0317  0.0038
  571SOL    HW3 2338   1.512   3.173   1.199  0.0766  0.7960 -2.1629
  571SOL    MW4 2339   1.581   3.123   1.182 -0.1231 -0.1934 -0.1436
  572SOL     OW 2340   1.363   3.272   1.248 -0.0290 -0.0892 -0.3180
  572SOL    HW2 2341   1.379   3.280   1.342  0.8119  1.5938 -0.5786
  572SOL    HW3 2342   1.293   3.207   1.241  0.7223 -1.1201  1.3889
  572SOL    MW4 2343   1.356   3.265   1.260  0.1812 -0.0031 -0.1271
  573SOL     OW 2344   1.351   3.526   1.137  0.0994 -0.2189  0.1502
  573SOL    HW2 2345   1.347   3.437   1.172 -0.0850  0.2250  1.2901
  573SOL    HW3 2346   1.351   3.515   1.042 -1.9381 -1.3617  0.2469
  573SOL    MW4 2347   1.350   3.513   1.129 -0.1937 -0.3109  0.3133
  574SOL     OW 2348   1.583   3.624   1.250 -0.1642 -0.2619  0.5059
  574SOL    HW2 2349   1.656   3.577   1.208  0.2050  0.2675  0.5520
  574SOL    HW3 2350   1.505   3.584   1.212  0.1546 -0.4526  0.0361
  574SOL    MW4 2351   1.582   3.612   1.239 -0.0736 -0.2172  0.4500
  575SOL     OW 2352   1.620   3.887   1.145 -0.5034 -0.1346 -0.4963
  575SOL    HW2 2353   1.550   3.930   1.194 -0.0736 -0.4718  0.4200
  575SOL    HW3 2354   1.621   3.798   1.179  0.6733 -0.0052 -0.2013
  575SOL    MW4 2355   1.611   3.881   1.156 -0.2915 -0.1619 -0.3365
  576SOL     OW 2356   1.395   4.043   1.229 -0.2704  0.1329 -0.2516
  576SOL    HW2 2357   1.398   4.123   1.177  0.7260 -0.3676 -0.9925
  576SOL    HW3 2358   1.314   4.000   1.203 -0.0784  0.1870 -0.9330
  576SOL    MW4 2359   1.385   4.048   1.219 -0.1135  0.0734 -0.4392
  577SOL     OW 2360   1.373   4.293   1.065 -0.8154  0.0325 -0.2694
  577SOL    HW2 2361   1.373   4.301   0.970  0.6364  1.0990 -0.1985
  577SOL    HW3 2362   1.287   4.324   1.092 -0.8619  0.6986 -1.1600
  577SOL    MW4 2363   1.362   4.298   1.056 -0.6301  0.2613 -0.3775
  578SOL     OW 2364   1.584   4.413   1.211 -0.1052  0.0077  0.1531
  578SOL    HW2 2365   1.583   4.403   1.306  1.0056  1.0416  0.3016
  578SOL    HW3 2366   1.514   4.357   1.179 -0.9591  0.2104  1.6406
  578SOL    MW4 2367   1.575   4.404   1.219 -0.0712  0.1707  0.3691
  579SOL     OW 2368   2.035   4.650   1.129  0.3297 -0.1981  0.4097
  579SOL    HW2 2369   2.048   4.560   1.160  0.0851 -0.9511 -1.6019
  579SOL    HW3 2370   2.044   4.644   1.034  2.2634  2.2548  0.3909
  579SOL    MW4 2371   2.038   4.638   1.120  0.5527  0.0267  0.1419
  580SOL     OW 2372   1.804   0.103   1.256  0.0965 -0.3737  0.1261
  580SOL    HW2 2373   1.805   0.192   1.220  0.6791 -0.3228  0.2597
  580SOL    HW3 2374   1.882   0.061   1.219 -0.5438 -1.0473 -0.4693
  580SOL    MW4 2375   1.815   0.109   1.246  0.0890 -0.4559  0.0652
  581SOL     OW 2376   1.757   0.362   1.146  0.5074  0.3983 -0.5369
  581SOL    HW2 2377   1.681   0.412   1.175  0.6970  0.5321 -0.2790
  581SOL    HW3 2378   1.758   0.375   1.051 -0.8171 -1.0177 -0.7654
  581SOL    MW4 2379   1.747   0.370   1.137  0.3576  0.2291 -0.5330
  582SOL     OW 2380   1.979   0.521   1.249 -0.1393 -0.2455  0.1198
  582SOL    HW2 2381   1.963   0.521   1.343  0.0056 -1.0258  0.1530
  582SOL    HW3 2382   1.914   0.459   1.214 -0.9844  0.9395 -0.4324
  582SOL    MW4 2383   1.968   0.513   1.257 -0.2316 -0.1921  0.0514
  583SOL     OW 2384   1.984   0.775   1.121 -0.3642  0.0867 -0.1421
  583SOL    HW2 2385   1.991   0.686   1.156 -0.2465  0.4161  0.6859
  583SOL    HW3 2386   1.978   0.763   1.026 -2.1163 -0.9024  0.0701
  583SOL    MW4 2387   1.984   0.762   1.113 -0.5798 -0.0002 -0.0048
  584SOL     OW 2388   1.744   0.862   1.224 -0.3489 -0.4310 -0.0545
  584SOL    HW2 2389   1.761   0.867   1.318 -0.6408 -2.0767  0.1107
  584SOL    HW3 2390   1.828   0.834   1.186  0.1569  1.5625 -0.4627
  584SOL    MW4 2391   1.758   0.859   1.231 -0.3207 -0.3850 -0.0867
  585SOL     OW 2392   1.719   1.147   1.134 -0.3374  0.0671  0.2236
  585SOL    HW2 2393   1.698   1.141   1.041 -1.1824  1.0559  0.3424
  585SOL    HW3 2394   1.708   1.058   1.167  0.3868 -0.3784 -0.6966
  585SOL    MW4 2395   1.715   1.135   1.126 -0.3532  0.1389  0.1178
  586SOL     OW 2396   1.941   1.332   1.228  0.5172  0.5020  0.0621
  586SOL    HW2 2397   2.025   1.289   1.212  0.1704  0.1055 -0.7627
  586SOL    HW3 2398   1.876   1.264   1.210  0.0643 -0.1759  3.7805
  586SOL    MW4 2399   1.943   1.317   1.223  0.4116  0.3604  0.4438
  587SOL     OW 2400   1.987   1.576   1.086 -0.3261 -0.3379  0.1838
  587SOL    HW2 2401   1.977   1.487   1.120 -0.3121 -0.2330  0.4705
  587SOL    HW3 2402   2.062   1.611   1.135  0.3209 -0.5249 -0.6775
  587SOL    MW4 2403   1.996   1.569   1.097 -0.2390 -0.3488  0.1082
  588SOL     OW 2404   1.784   1.676   1.247 -0.3630  0.1872 -0.2764
  588SOL    HW2 2405   1.788   1.764   1.210  1.3344  0.0434 -0.4819
  588SOL    HW3 2406   1.845   1.625   1.194 -0.9165 -0.9751  0.2013
  588SOL    MW4 2407   1.793   1.681   1.235 -0.2122  0.0150 -0.2406
  589SOL     OW 2408   1.774   1.921   1.111 -0.1417 -0.6124  0.2204
  589SOL    HW2 2409   1.704   1.972   1.153 -0.5887 -1.4355  0.4792
  589SOL    HW3 2410   1.750   1.921   1.019  1.5603  2.3559 -0.2850
  589SOL    MW4 2411   1.761   1.928   1.105  0.0240 -0.3294  0.1878
  590SOL     OW 2412   2.008   2.110   1.160 -0.3770  0.1153 -0.1891
  590SOL    HW2 2413   2.023   2.097   1.254 -0.4491 -0.0422 -0.1979
  590SOL    HW3 2414   1.925   2.065   1.144  0.3089 -1.0290 -0.5910
  590SOL    MW4 2415   1.999   2.102   1.170 -0.2962 -0.0565 -0.2433
  591SOL     OW 2416   2.024   2.382   1.107 -0.4258  0.1790  0.0757
  591SOL    HW2 2417   2.109   2.414   1.135 -0.2511  0.8179 -1.1754
  591SOL    HW3 2418   2.024   2.289   1.130  0.4973  0.2406  0.3139
  591SOL    MW4 2419   2.035   2.374   1.114 -0.2813  0.2713 -0.0582
  592SOL     OW 2420   1.792   2.472   1.231 -0.2069 -0.0252 -0.0358
  592SOL    HW2 2421   1.880   2.443   1.205  0.1429  1.2094 -0.2427
  592SOL    HW3 2422   1.733   2.404   1.197  0.4065  0.5924 -2.3935
  592SOL    MW4 2423   1.796   2.459   1.223 -0.0798  0.2191 -0.3743
  593SOL     OW 2424   1.762   2.729   1.112 -0.6175 -0.2191  0.0085
  593SOL    HW2 2425   1.771   2.638   1.138 -0.3246 -0.4533 -0.8717
  593SOL    HW3 2426   1.778   2.728   1.017  2.6389  1.2181  0.4988
  593SOL    MW4 2427   1.765   2.717   1.103 -0.1493 -0.0603 -0.0429
  594SOL     OW 2428   2.010   2.818   1.223  0.4906  0.7618 -0.3407
  594SOL    HW2 2429   2.022   2.902   1.179  1.0752  0.6595 -0.3875
  594SOL    HW3 2430   1.933   2.780   1.181  0.1635  1.3133 -0.2532
  594SOL    MW4 2431   2.001   2.824   1.212  0.5245  0.8209 -0.3352
  595SOL     OW 2432   2.057   3.081   1.142  0.9024 -0.1316 -0.2015
  595SOL    HW2 2433   1.980   3.127   1.173  0.5012 -1.7124  1.2128
  595SOL    HW3 2434   2.047   3.078   1.047 -0.0168  0.9841 -0.1408
  595SOL    MW4 2435   2.046   3.086   1.134  0.7284 -0.1931 -0.0069
  596SOL     OW 2436   1.816   3.226   1.246 -0.5711 -0.0739  0.5761
  596SOL    HW2 2437   1.829   3.235   1.340 -0.3867 -0.1397  0.5577
  596SOL    HW3 2438   1.812   3.316   1.214 -1.0364 -0.0492  0.6992
  596SOL    MW4 2439   1.817   3.239   1.254 -0.6083 -0.0796  0.5898
  597SOL     OW 2440   1.814   3.490   1.139  0.5522 -0.2392 -0.2653
  597SOL    HW2 2441   1.885   3.548   1.168  0.9426 -0.1913 -1.3210
  597SOL    HW3 2442   1.816   3.494   1.044  1.2669 -2.7968 -0.4068
  597SOL    MW4 2443   1.824   3.498   1.130  0.6981 -0.5703 -0.4233
  598SOL     OW 2444   2.062   3.705   1.220 -0.1744  0.1829 -0.2788
  598SOL    HW2 2445   2.059   3.691   1.315  0.6265 -0.6570 -0.3624
  598SOL    HW3 2446   2.128   3.643   1.190 -0.3449  0.5328 -1.3752
  598SOL    MW4 2447   2.070   3.695   1.229 -0.0911  0.1183 -0.4344
  599SOL     OW 2448   2.030   3.930   1.072  0.7486 -0.1308 -0.0718
  599SOL    HW2 2449   1.959   3.981   1.112  0.9653  0.9988 -1.1050
  599SOL    HW3 2450   2.029   3.846   1.119  0.3852  0.8171  1.6317
  599SOL    MW4 2451   2.020   3.925   1.084  0.7296  0.1431  0.0168
  600SOL     OW 2452   1.834   4.058   1.243  0.1966 -0.1282 -0.1192
  600SOL    HW2 2453   1.841   4.043   1.337  1.6725  0.2535 -0.1477
  600SOL    HW3 2454   1.769   3.994   1.213 -0.5211 -0.0467  1.1925
  600SOL    MW4 2455   1.826   4.048   1.251  0.2968 -0.0668  0.0502
  601SOL     OW 2456   1.819   4.299   1.115  0.0058  0.0121 -0.2401
  601SOL    HW2 2457   1.822   4.213   1.158 -1.5367 -0.1108 -0.3759
  601SOL    HW3 2458   1.750   4.346   1.161 -0.2351  0.6223 -1.2179
  601SOL    MW4 2459   1.811   4.293   1.127 -0.2296  0.0763 -0.3870
  602SOL     OW 2460   2.058   4.402   1.224 -0.2121  0.8215 -0.0304
  602SOL    HW2 2461   2.066   4.382   1.317 -0.1902 -1.4794 -0.5012
  602SOL    HW3 2462   1.971   4.371   1.200  0.9759 -1.5344 -1.4487
  602SOL    MW4 2463   2.048   4.395   1.233 -0.0527  0.2069 -0.2797
  603SOL     OW 2464   2.502   0.009   1.149 -0.0221  0.6125  0.1018
  603SOL    HW2 2465   2.577   0.063   1.177 -0.3912  0.1570  2.0072
  603SOL    HW3 2466   2.425   0.058   1.177 -0.4525  0.8010 -1.3532
  603SOL    MW4 2467   2.502   0.023   1.156 -0.1276  0.5770  0.1613
  604SOL     OW 2468   2.259   0.119   1.265  0.4229  0.0324 -0.1639
  604SOL    HW2 2469   2.250   0.211   1.239 -1.9949  0.3465  1.5794
  604SOL    HW3 2470   2.195   0.073   1.211  0.4444 -0.3771  0.1611
  604SOL    MW4 2471   2.249   0.125   1.254  0.1068  0.0198  0.1090
  605SOL     OW 2472   2.228   0.372   1.153 -0.4989  0.2544 -0.4208
  605SOL    HW2 2473   2.146   0.412   1.182 -0.7147 -1.2499  1.1518
  605SOL    HW3 2474   2.226   0.380   1.058 -2.4438  0.3340 -0.4102
  605SOL    MW4 2475   2.217   0.378   1.144 -0.7842  0.0664 -0.2118
  606SOL     OW 2476   2.448   0.540   1.211 -0.0636  0.4907  0.0070
  606SOL    HW2 2477   2.456   0.538   1.306  0.0787 -1.2122 -0.0238
  606SOL    HW3 2478   2.373   0.483   1.192  0.7364 -0.2588 -0.9743
  606SOL    MW4 2479   2.439   0.532   1.221  0.0608  0.1672 -0.1265
  607SOL     OW 2480   2.424   0.789   1.125  0.0795  0.0187  0.5372
  607SOL    HW2 2481   2.428   0.697   1.151 -0.0791 -0.7750 -2.0863
  607SOL    HW3 2482   2.436   0.788   1.030  0.8204  2.7756  0.5398
  607SOL    MW4 2483   2.426   0.777   1.116  0.1562  0.2778  0.1915
  608SOL     OW 2484   2.200   0.917   1.237 -0.1114  0.0357 -0.4673
  608SOL    HW2 2485   2.281   0.876   1.209  0.0029  0.8115 -1.2881
  608SOL    HW3 2486   2.131   0.865   1.196  0.0502  1.0595 -2.0829
  608SOL    MW4 2487   2.201   0.905   1.228 -0.0753  0.2732 -0.7888
  609SOL     OW 2488   2.181   1.193   1.167 -0.1688 -0.0945  0.3889
  609SOL    HW2 2489   2.265   1.234   1.187 -0.3081  0.7376 -0.7026
  609SOL    HW3 2490   2.190   1.103   1.199  0.4450  0.5341  2.0263
  609SOL    MW4 2491   2.193   1.186   1.174 -0.1063  0.0981  0.4610
  610SOL     OW 2492   2.419   1.295   1.234  0.3076 -0.3175 -0.1754
  610SOL    HW2 2493   2.506   1.256   1.232  1.0672  1.2723  0.6907
  610SOL    HW3 2494   2.433   1.386   1.205 -0.7306  0.5255  1.8939
  610SOL    MW4 2495   2.432   1.302   1.230  0.2706  0.0036  0.2118
  611SOL     OW 2496   2.433   1.560   1.127  0.4982 -0.6746  0.1808
  611SOL    HW2 2497   2.361   1.601   1.175  1.3876  0.5695  0.4927
  611SOL    HW3 2498   2.404   1.556   1.037 -0.7393 -1.9738  0.6339
  611SOL    MW4 2499   2.420   1.565   1.122  0.4520 -0.6819  0.2817
  612SOL     OW 2500   2.206   1.924   1.136 -0.2002  0.0513 -0.1734
  612SOL    HW2 2501   2.147   1.999   1.139  0.6321  0.7056  0.1606
  612SOL    HW3 2502   2.211   1.901   1.044 -2.0921 -0.9129 -0.0527
  612SOL    MW4 2503   2.199   1.931   1.124 -0.3397  0.0105 -0.1132
  613SOL     OW 2504   2.647   1.916   0.870 -0.2336  0.2274 -1.1501
  613SOL    HW2 2505   2.679   1.915   0.960  0.6207 -0.7561 -1.4529
  613SOL    HW3 2506   2.717   1.958   0.820  0.2014 -1.0594 -1.6635
  613SOL    MW4 2507   2.660   1.921   0.875 -0.0634 -0.0720 -1.2578
  614SOL     OW 2508   2.434   2.056   1.214  0.2007  0.9221 -0.0312
  614SOL    HW2 2509   2.512   2.011   1.183 -0.2985 -1.2616  1.7432
  614SOL    HW3 2510   2.362   2.012   1.168 -0.1776  1.0266  0.4614
  614SOL    MW4 2511   2.435   2.044   1.204  0.0851  0.6475  0.2680
  615SOL     OW 2512   2.503   2.328   1.125 -0.3177  0.1113  0.0118
  615SOL    HW2 2513   2.493   2.239   1.157  1.4580  0.1317  0.6647
  615SOL    HW3 2514   2.478   2.324   1.032  0.6429 -1.2463 -0.1881
  615SOL    MW4 2515   2.498   2.316   1.117  0.0432 -0.0651  0.0716
  616SOL     OW 2516   2.274   2.462   1.204  0.1549  0.0702 -0.2572
  616SOL    HW2 2517   2.264   2.460   1.299 -0.2357  1.4231 -0.2590
  616SOL    HW3 2518   2.350   2.407   1.187 -0.0863 -0.5995  0.7950
  616SOL    MW4 2519   2.283   2.455   1.214  0.0715  0.1600 -0.1187
  617SOL     OW 2520   2.279   2.740   1.167 -0.2202  0.3975 -0.2748
  617SOL    HW2 2521   2.280   2.647   1.192  0.1183  0.3044 -0.6335
  617SOL    HW3 2522   2.191   2.769   1.188 -0.3627 -0.0361 -0.2609
  617SOL    MW4 2523   2.268   2.731   1.173 -0.1943  0.3281 -0.3202
  618SOL     OW 2524   2.497   2.894   1.212 -0.4144  0.4198  0.2991
  618SOL    HW2 2525   2.500   2.881   1.306 -1.2179  1.1430  0.4324
  618SOL    HW3 2526   2.410   2.865   1.186 -0.4112  0.7739 -0.1288
  618SOL    MW4 2527   2.486   2.889   1.221 -0.5198  0.5617  0.2601
  619SOL     OW 2528   2.525   3.162   1.165  0.0693  0.0921 -0.3013
  619SOL    HW2 2529   2.438   3.203   1.170 -0.4306 -0.9427 -0.4462
  619SOL    HW3 2530   2.509   3.069   1.181  1.3376  0.0947  1.0682
  619SOL    MW4 2531   2.512   3.155   1.168  0.1707 -0.0443 -0.1398
  620SOL     OW 2532   2.270   3.241   1.210  0.3072  0.1386  0.1993
  620SOL    HW2 2533   2.248   3.334   1.199 -0.5308 -0.0172  0.5779
  620SOL    HW3 2534   2.190   3.194   1.186  1.1961 -0.5634 -1.5074
  620SOL    MW4 2535   2.257   3.247   1.205  0.3138  0.0255  0.0240
  621SOL     OW 2536   2.247   3.524   1.161  0.1646  0.1490  0.5332
  621SOL    HW2 2537   2.338   3.530   1.188 -0.1052  2.4931  0.9826
  621SOL    HW3 2538   2.250   3.517   1.065  0.8247 -0.4369  0.5933
  621SOL    MW4 2539   2.259   3.524   1.152  0.2160  0.3810  0.6005
  622SOL     OW 2540   2.507   3.617   1.201 -0.3360  0.2581 -0.6049
  622SOL    HW2 2541   2.498   3.623   1.296 -1.7314 -0.8099 -0.6628
  622SOL    HW3 2542   2.499   3.708   1.171 -0.0396  0.5836  0.2696
  622SOL    MW4 2543   2.505   3.630   1.210 -0.4809  0.1602 -0.4971
  623SOL     OW 2544   2.467   3.874   1.120 -0.1732 -0.6550  0.7744
  623SOL    HW2 2545   2.390   3.928   1.140 -0.5789 -1.6774  2.0493
  623SOL    HW3 2546   2.479   3.883   1.026 -1.3465  0.2099  0.7014
  623SOL    MW4 2547   2.458   3.882   1.110 -0.3817 -0.6757  0.9329
  624SOL     OW 2548   2.253   4.028   1.212  0.2259 -0.2342  0.3653
  624SOL    HW2 2549   2.268   4.116   1.177  0.2386 -0.2452  0.3432
  624SOL    HW3 2550   2.173   3.998   1.170 -0.3485  0.1744  1.1669
  624SOL    MW4 2551   2.245   4.035   1.202  0.1519 -0.1817  0.4681
  625SOL     OW 2552   2.289   4.273   1.122 -0.1486 -0.5738 -0.1721
  625SOL    HW2 2553   2.204   4.304   1.154  0.8504  2.3454 -0.1496
  625SOL    HW3 2554   2.279   4.266   1.027 -0.4353 -0.2457 -0.1662
  625SOL    MW4 2555   2.277   4.276   1.114 -0.0548 -0.1450 -0.1683
  626SOL     OW 2556   2.519   4.396   1.242 -0.2378  0.0626  0.0002
  626SOL    HW2 2557   2.448   4.345   1.205 -1.5178  1.0954  0.9854
  626SOL    HW3 2558   2.499   4.487   1.218  0.8608  0.3379  0.0869
  626SOL    MW4 2559   2.507   4.401   1.234 -0.2618  0.2351  0.1415
  627SOL     OW 2560   2.942   0.021   1.175 -0.2295 -0.3238  0.2792
  627SOL    HW2 2561   2.943   0.031   1.080 -1.8420  1.9000  0.4557
  627SOL    HW3 2562   2.958  -0.072   1.190 -2.2386 -1.1337 -2.2507
  627SOL    MW4 2563   2.944   0.010   1.165 -0.7074 -0.1369 -0.0312
  628SOL     OW 2564   2.701   0.147   1.253 -0.0438  0.0320 -0.2293
  628SOL    HW2 2565   2.703   0.151   1.349 -0.5441 -0.2215 -0.2085
  628SOL    HW3 2566   2.780   0.098   1.230  0.2286  0.3331  0.0357
  628SOL    MW4 2567   2.712   0.141   1.263 -0.0739  0.0383 -0.1917
  629SOL     OW 2568   2.623   0.376   1.092 -0.5596 -0.0319 -0.3542
  629SOL    HW2 2569   2.614   0.295   1.143 -2.0143  0.6334  0.4914
  629SOL    HW3 2570   2.555   0.434   1.128 -0.5727  0.9988 -2.0060
  629SOL    MW4 2571   2.613   0.373   1.104 -0.7532  0.1918 -0.4607
  630SOL     OW 2572   2.873   0.455   1.250 -0.2607 -0.0562  0.3796
  630SOL    HW2 2573   2.877   0.550   1.241  0.7096 -0.1296 -0.0446
  630SOL    HW3 2574   2.786   0.431   1.218  0.4457  0.4216 -1.9393
  630SOL    MW4 2575   2.862   0.464   1.245 -0.0396 -0.0029  0.0178
  631SOL     OW 2576   2.888   0.718   1.170 -0.3736 -0.3871  0.1198
  631SOL    HW2 2577   2.957   0.772   1.208  0.9413 -1.1907 -1.0748
  631SOL    HW3 2578   2.809   0.770   1.180 -0.1537 -0.6457  4.0990
  631SOL    MW4 2579   2.887   0.732   1.176 -0.1712 -0.5273  0.4872
  632SOL     OW 2580   2.670   0.884   1.200  0.3703  0.1111  0.1088
  632SOL    HW2 2581   2.671   0.973   1.167 -0.5442  0.0524 -0.0751
  632SOL    HW3 2582   2.587   0.847   1.170  0.5907 -0.6962  0.4600
  632SOL    MW4 2583   2.659   0.891   1.191  0.2787 -0.0032  0.1309
  633SOL     OW 2584   2.693   1.155   1.174  0.2166 -0.0412  0.1212
  633SOL    HW2 2585   2.705   1.194   1.087  0.0756 -0.4566 -0.0895
  633SOL    HW3 2586   2.767   1.188   1.226  0.0245  0.6073 -0.0112
  633SOL    MW4 2587   2.704   1.164   1.169  0.1726 -0.0105  0.0758
  634SOL     OW 2588   2.912   1.311   1.257  0.3524  0.4186 -0.4596
  634SOL    HW2 2589   2.925   1.319   1.351 -0.5403 -0.3642 -0.2642
  634SOL    HW3 2590   2.892   1.400   1.228  0.6386  0.6636  0.0865
  634SOL    MW4 2591   2.911   1.324   1.266  0.2723  0.3476 -0.3616
  635SOL     OW 2592   2.894   1.568   1.149 -0.3604  0.0661  0.1271
  635SOL    HW2 2593   2.982   1.592   1.179 -0.4427 -0.3137  0.6743
  635SOL    HW3 2594   2.907   1.543   1.057 -0.2169  1.8383 -0.3463
  635SOL    MW4 2595   2.908   1.567   1.141 -0.3526  0.2497  0.1367
  636SOL     OW 2596   2.658   1.687   1.234 -0.3540  0.0784 -0.1204
  636SOL    HW2 2597   2.733   1.639   1.201 -0.4709 -0.7380  0.7883
  636SOL    HW3 2598   2.584   1.657   1.180 -0.4591 -0.9014  0.5622
  636SOL    MW4 2599   2.658   1.677   1.222 -0.3831 -0.1585  0.0894
  637SOL     OW 2600   2.673   1.943   1.134  0.1999 -0.4192 -0.2062
  637SOL    HW2 2601   2.748   1.994   1.164 -0.6266  0.6811  0.0079
  637SOL    HW3 2602   2.672   1.866   1.191  0.6647 -0.0183  0.3457
  637SOL    MW4 2603   2.683   1.940   1.146  0.1523 -0.2211 -0.1050
  638SOL     OW 2604   2.899   2.085   1.213 -0.1433  0.3573  0.1084
  638SOL    HW2 2605   2.906   2.097   1.308  0.1068  1.2718 -0.0170
  638SOL    HW3 2606   2.904   2.174   1.178  1.4091 -0.0911 -0.8629
  638SOL    MW4 2607   2.901   2.099   1.221  0.0947  0.4189 -0.0364
  639SOL     OW 2608   2.922   2.360   1.126  0.3513  0.1491  0.2104
  639SOL    HW2 2609   3.000   2.399   1.166  0.0004  1.8772 -0.7343
  639SOL    HW3 2610   2.850   2.416   1.154  0.0118  0.9876 -2.2351
  639SOL    MW4 2611   2.923   2.373   1.135  0.2601  0.4876 -0.2369
  640SOL     OW 2612   2.708   2.501   1.226  0.2994  0.1380  0.4426
  640SOL    HW2 2613   2.709   2.491   1.321 -0.1803  1.1489  0.5566
  640SOL    HW3 2614   2.636   2.445   1.196  0.7661 -0.5613  0.6288
  640SOL    MW4 2615   2.699   2.492   1.234  0.2975  0.1791  0.4822
  641SOL     OW 2616   2.723   2.767   1.131 -0.4079 -0.1530  0.3956
  641SOL    HW2 2617   2.719   2.676   1.160 -1.1016 -0.7460 -1.4339
  641SOL    HW3 2618   2.640   2.806   1.160  0.8606  0.5773  3.2013
  641SOL    MW4 2619   2.711   2.760   1.138 -0.3321 -0.1349  0.5244
  642SOL     OW 2620   2.974   2.862   1.233  0.0390  0.2799 -0.0909
  642SOL    HW2 2621   2.968   2.864   1.329 -1.9054  1.3851 -0.2146
  642SOL    HW3 2622   2.897   2.813   1.206  0.0261  0.8721 -1.1352
  642SOL    MW4 2623   2.963   2.856   1.242 -0.2191  0.5040 -0.2450
  643SOL     OW 2624   2.905   3.077   1.088 -0.1805 -0.3974  0.1110
  643SOL    HW2 2625   2.900   3.004   1.149  1.5657 -0.1798  0.5498
  643SOL    HW3 2626   2.910   3.035   1.002 -0.3475 -0.7705  0.2826
  643SOL    MW4 2627   2.905   3.061   1.084  0.0277 -0.4179  0.1916
  644SOL     OW 2628   2.741   3.286   1.067 -0.3472 -0.0300 -0.1806
  644SOL    HW2 2629   2.810   3.221   1.076  0.9879  1.7204  2.6028
  644SOL    HW3 2630   2.661   3.241   1.096  0.6830 -0.2693  2.3854
  644SOL    MW4 2631   2.739   3.271   1.072 -0.0350  0.1695  0.5252
  645SOL     OW 2632   2.719   3.571   1.030  0.2405 -0.0159 -0.1746
  645SOL    HW2 2633   2.743   3.479   1.042  0.5024 -0.0373 -0.8153
  645SOL    HW3 2634   2.637   3.582   1.077  0.5227 -0.4340  0.4070
  645SOL    MW4 2635   2.712   3.560   1.037  0.3123 -0.0737 -0.1825
  646SOL     OW 2636   2.897   3.604   1.221  0.3710  0.1042  0.0871
  646SOL    HW2 2637   2.975   3.553   1.199  0.7055  0.7008 -0.1070
  646SOL    HW3 2638   2.838   3.589   1.147  1.4315  1.9789 -1.1823
  646SOL    MW4 2639   2.900   3.595   1.208  0.5548  0.4306 -0.1060
  647SOL     OW 2640   2.915   3.878   1.161  0.2996 -0.0801  0.7054
  647SOL    HW2 2641   3.003   3.910   1.181  0.0002  0.1239  1.7592
  647SOL    HW3 2642   2.918   3.785   1.183  0.7803 -0.4897 -1.0516
  647SOL    MW4 2643   2.927   3.870   1.167  0.3238 -0.1070  0.6127
  648SOL     OW 2644   2.686   4.014   1.234 -0.0208  0.1088  0.1685
  648SOL    HW2 2645   2.762   3.962   1.209 -0.5801  0.5117 -2.4956
  648SOL    HW3 2646   2.611   3.963   1.202 -0.6199  2.0440 -1.5495
  648SOL    MW4 2647   2.686   4.000   1.227 -0.1736  0.4168 -0.4100
  649SOL     OW 2648   2.734   4.265   1.117  0.1298 -0.3532  0.7784
  649SOL    HW2 2649   2.718   4.179   1.154  2.8502 -0.8354  0.8937
  649SOL    HW3 2650   2.666   4.321   1.156 -1.2004 -2.2642  1.2378
  649SOL    MW4 2651   2.723   4.261   1.127  0.3133 -0.6695  0.8544
  650SOL     OW 2652   2.968   4.407   1.231 -0.3135 -0.0059  0.1489
  650SOL    HW2 2653   3.042   4.348   1.217  0.3395  0.8928 -0.2607
  650SOL    HW3 2654   2.895   4.366   1.186 -0.1684 -1.1075  0.8995
  650SOL    MW4 2655   2.968   4.394   1.223 -0.2079 -0.0329  0.1938
  651SOL     OW 2656   3.361   4.624   1.116  0.2626 -0.0372  0.2112
  651SOL    HW2 2657   3.433   4.676   1.152 -1.6015  2.3621  0.6141
  651SOL    HW3 2658   3.284   4.654   1.163 -1.1622 -1.8614 -0.8971
  651SOL    MW4 2659   3.360   4.635   1.127 -0.1714  0.0386  0.1183
  652SOL     OW 2660   3.185   0.113   1.285  0.5243  0.0663 -0.7017
  652SOL    HW2 2661   3.166   0.094   1.377  0.2061 -1.2897 -1.0312
  652SOL    HW3 2662   3.106   0.084   1.238  0.3694  1.4728 -1.3229
  652SOL    MW4 2663   3.172   0.106   1.291  0.4618  0.0730 -0.8271
  653SOL     OW 2664   3.100   0.353   1.148  0.3381 -0.1183  0.0501
  653SOL    HW2 2665   3.117   0.276   1.202  0.1090 -0.8564 -0.8969
  653SOL    HW3 2666   3.019   0.390   1.183  2.0481  1.4750  2.4452
  653SOL    MW4 2667   3.091   0.347   1.159  0.5336 -0.0055  0.2412
  654SOL     OW 2668   3.347   0.516   1.244 -0.0797 -0.2388 -0.2629
  654SOL    HW2 2669   3.345   0.603   1.205 -1.4056  0.5650  1.5056
  654SOL    HW3 2670   3.276   0.468   1.201  0.5970 -0.4312 -1.1769
  654SOL    MW4 2671   3.337   0.521   1.233 -0.1655 -0.1581 -0.1501
  655SOL     OW 2672   3.346   0.765   1.125 -0.2933 -0.1171  0.0234
  655SOL    HW2 2673   3.267   0.815   1.146  0.4148  0.5411  1.1580
  655SOL    HW3 2674   3.360   0.780   1.031 -0.1704  1.7184  0.3163
  655SOL    MW4 2675   3.337   0.774   1.115 -0.1836  0.2119  0.2117
  656SOL     OW 2676   3.122   0.884   1.252  0.3726  0.4264 -0.0174
  656SOL    HW2 2677   3.118   0.884   1.348  2.5939  1.7621  0.1280
  656SOL    HW3 2678   3.130   0.977   1.229  0.2677  0.0877 -1.4670
  656SOL    MW4 2679   3.123   0.897   1.262  0.6518  0.5579 -0.1895
  657SOL     OW 2680   3.118   1.157   1.191  0.5537  0.2194  0.4395
  657SOL    HW2 2681   3.207   1.190   1.196  0.2749  1.1071 -0.4074
  657SOL    HW3 2682   3.063   1.233   1.210 -0.0636  0.0309 -0.6090
  657SOL    MW4 2683   3.122   1.171   1.194  0.4354  0.3116  0.1893
  658SOL     OW 2684   3.361   1.236   1.275  0.1409 -0.0822  0.1703
  658SOL    HW2 2685   3.363   1.217   1.369 -0.1232  0.7815  0.3593
  658SOL    HW3 2686   3.367   1.332   1.270  1.5627 -0.1951 -0.7368
  658SOL    MW4 2687   3.362   1.246   1.287  0.2935  0.0168  0.0755
  659SOL     OW 2688   3.354   1.501   1.197 -0.1637 -0.4359  0.2509
  659SOL    HW2 2689   3.424   1.565   1.202 -0.6983  0.1928 -0.1320
  659SOL    HW3 2690   3.275   1.549   1.225 -0.0083 -1.8586  3.2470
  659SOL    MW4 2691   3.353   1.516   1.201 -0.2139 -0.5407  0.5956
  660SOL     OW 2692   3.135   1.652   1.251 -0.2076  0.8402  0.0089
  660SOL    HW2 2693   3.114   1.669   1.343 -0.4819  0.4761  0.0169
  660SOL    HW3 2694   3.127   1.737   1.208 -1.7455  0.7184  0.0075
  660SOL    MW4 2695   3.131   1.665   1.257 -0.4466  0.7761  0.0099
  661SOL     OW 2696   3.110   1.917   1.173 -0.2077 -0.5705  0.1970
  661SOL    HW2 2697   3.182   1.975   1.201 -0.0847 -0.0082 -1.2176
  661SOL    HW3 2698   3.031   1.966   1.193 -0.1501 -0.6179  0.5359
  661SOL    MW4 2699   3.109   1.931   1.179 -0.1841 -0.5026  0.0550
  662SOL     OW 2700   3.332   2.064   1.254  0.2144  0.4313 -0.2450
  662SOL    HW2 2701   3.416   2.030   1.224  0.2473  0.0567  0.2589
  662SOL    HW3 2702   3.318   2.144   1.203  0.5435  0.1160 -0.8268
  662SOL    MW4 2703   3.341   2.070   1.244  0.2620  0.3400 -0.2555
  663SOL     OW 2704   3.344   2.318   1.128  0.1669 -0.2188 -0.3885
  663SOL    HW2 2705   3.423   2.366   1.152  0.0813 -1.0031  1.5260
  663SOL    HW3 2706   3.274   2.362   1.176 -0.6909  0.8682 -2.5594
  663SOL    MW4 2707   3.345   2.330   1.138  0.0422 -0.1786 -0.4225
  664SOL     OW 2708   3.141   2.463   1.239  0.1847 -0.3279  0.5247
  664SOL    HW2 2709   3.145   2.472   1.334  0.3115 -1.6246  0.6499
  664SOL    HW3 2710   3.176   2.546   1.206 -0.8015  0.5472  1.5973
  664SOL    MW4 2711   3.146   2.475   1.247  0.0715 -0.3831  0.6827
  665SOL     OW 2712   3.183   2.712   1.105 -0.6692 -0.0967 -0.1973
  665SOL    HW2 2713   3.116   2.771   1.140 -1.6954 -0.3183 -1.6806
  665SOL    HW3 2714   3.166   2.711   1.010 -0.3035 -2.2947 -0.2721
  665SOL    MW4 2715   3.172   2.719   1.097 -0.7565 -0.4160 -0.4028
  666SOL     OW 2716   3.393   2.860   1.228 -0.0044 -0.2289 -0.4163
  666SOL    HW2 2717   3.405   2.931   1.165 -0.4957 -0.4895 -0.8017
  666SOL    HW3 2718   3.321   2.808   1.193  0.0977 -0.6997  0.0651
  666SOL    MW4 2719   3.385   2.863   1.215 -0.0560 -0.3254 -0.4035
  667SOL     OW 2720   3.394   3.079   1.055  0.2635 -0.3305  0.4636
  667SOL    HW2 2721   3.459   3.140   1.090  1.0311 -1.0192  0.2638
  667SOL    HW3 2722   3.310   3.121   1.072  0.7754  0.7367  0.4191
  667SOL    MW4 2723   3.392   3.093   1.062  0.4325 -0.2804  0.4313
  668SOL     OW 2724   3.157   3.176   1.164 -0.2263  0.0420 -0.1047
  668SOL    HW2 2725   3.132   3.268   1.168  0.7669  0.3355 -0.3827
  668SOL    HW3 2726   3.080   3.131   1.130 -1.0580  0.6299  1.0005
  668SOL    MW4 2727   3.144   3.182   1.160 -0.2050  0.1585  0.0044
  669SOL     OW 2728   3.106   3.460   1.121  0.3218 -0.2572  0.2956
  669SOL    HW2 2729   3.194   3.497   1.121  0.7415 -1.2590 -0.0949
  669SOL    HW3 2730   3.082   3.453   1.029  0.8245 -2.3300  0.3069
  669SOL    MW4 2731   3.114   3.464   1.109  0.4437 -0.6628  0.2456
  670SOL     OW 2732   3.376   3.563   1.180 -0.1216 -0.1144  0.2012
  670SOL    HW2 2733   3.382   3.578   1.274 -0.4945 -0.0117  0.2096
  670SOL    HW3 2734   3.464   3.580   1.147  0.1203 -0.5998  0.5934
  670SOL    MW4 2735   3.388   3.567   1.188 -0.1388 -0.1650  0.2542
  671SOL     OW 2736   3.395   3.838   1.123  0.0523  0.3043  0.3266
  671SOL    HW2 2737   3.377   3.745   1.141  0.8694 -0.1984 -1.3614
  671SOL    HW3 2738   3.317   3.884   1.156  0.2570 -0.8168  2.5087
  671SOL    MW4 2739   3.382   3.831   1.130  0.1872  0.0899  0.3918
  672SOL     OW 2740   3.171   3.959   1.215  0.5332  0.4135 -0.2819
  672SOL    HW2 2741   3.170   3.958   1.311  2.1235 -1.3160 -0.2565
  672SOL    HW3 2742   3.181   4.051   1.192 -0.9481  0.9713  1.1794
  672SOL    MW4 2743   3.172   3.971   1.225  0.5476  0.2589 -0.0858
  673SOL     OW 2744   3.180   4.242   1.179 -0.1351 -0.7333 -0.1500
  673SOL    HW2 2745   3.246   4.290   1.229 -0.5296  0.0764 -0.4036
  673SOL    HW3 2746   3.188   4.275   1.089 -2.3396  0.9830  0.2326
  673SOL    MW4 2747   3.190   4.252   1.174 -0.4783 -0.4005 -0.1328
  674SOL     OW 2748   3.402   4.395   1.276 -0.1657  0.4906 -0.1552
  674SOL    HW2 2749   3.467   4.340   1.232 -0.0269  0.3259  0.2515
  674SOL    HW3 2750   3.400   4.476   1.225 -0.1126  0.2410 -0.5490
  674SOL    MW4 2751   3.410   4.399   1.264 -0.1402  0.4363 -0.1535
  675SOL     OW 2752   3.822   4.665   1.167 -0.1952  0.3724 -0.3141
  675SOL    HW2 2753   3.817   4.575   1.200 -0.3698  0.6505  0.4409
  675SOL    HW3 2754   3.831   4.655   1.072  1.0410 -0.4584 -0.1249
  675SOL    MW4 2755   3.822   4.652   1.159 -0.0551  0.2995 -0.1895
  676SOL     OW 2756   3.561   0.113   1.220  0.0028 -0.6863  0.1981
  676SOL    HW2 2757   3.561   0.207   1.205  0.0699 -0.5861  0.8100
  676SOL    HW3 2758   3.652   0.086   1.208 -0.1129 -0.7685 -0.5323
  676SOL    MW4 2759   3.573   0.122   1.216 -0.0038 -0.6840  0.1824
  677SOL     OW 2760   3.562   0.373   1.121 -0.1354 -0.2198  0.2435
  677SOL    HW2 2761   3.640   0.428   1.129 -0.1983  0.0856 -1.1389
  677SOL    HW3 2762   3.493   0.422   1.168  0.6848 -0.8970  2.2047
  677SOL    MW4 2763   3.563   0.387   1.128 -0.0353 -0.2689  0.3198
  678SOL     OW 2764   3.810   0.487   1.215 -0.0134 -0.1183  0.4636
  678SOL    HW2 2765   3.897   0.450   1.203 -0.3531 -0.3464 -1.5380
  678SOL    HW3 2766   3.819   0.579   1.193 -0.2589 -0.1386  0.2659
  678SOL    MW4 2767   3.823   0.494   1.211 -0.0906 -0.1510  0.1733
  679SOL     OW 2768   3.800   0.751   1.186 -0.5910  0.0465 -0.1849
  679SOL    HW2 2769   3.862   0.817   1.217 -1.0788  0.7037 -0.5796
  679SOL    HW3 2770   3.715   0.783   1.215 -0.8041 -0.5455 -0.1563
  679SOL    MW4 2771   3.797   0.764   1.194 -0.6833  0.0550 -0.2332
  680SOL     OW 2772   3.555   0.890   1.278  0.0644  0.2088 -0.2291
  680SOL    HW2 2773   3.558   0.976   1.236 -0.4812  0.2677 -0.1440
  680SOL    HW3 2774   3.480   0.846   1.238  0.3419 -0.2273 -0.2725
  680SOL    MW4 2775   3.545   0.895   1.267  0.0291  0.1591 -0.2235
  681SOL     OW 2776   3.593   1.124   1.130 -0.1013 -0.1972  0.0750
  681SOL    HW2 2777   3.668   1.182   1.141  0.7885 -1.7091  2.1335
  681SOL    HW3 2778   3.518   1.176   1.160  0.6149  0.1095  1.3784
  681SOL    MW4 2779   3.593   1.138   1.135  0.1106 -0.3561  0.5187
  682SOL     OW 2780   3.803   1.292   1.212  0.2229  0.1334 -0.2976
  682SOL    HW2 2781   3.795   1.282   1.306 -1.1571 -0.3060 -0.4534
  682SOL    HW3 2782   3.799   1.387   1.198  1.9624  0.3106  0.1895
  682SOL    MW4 2783   3.802   1.303   1.222  0.2699  0.0988 -0.2539
  683SOL     OW 2784   3.796   1.562   1.170  0.2025  0.2371  0.5874
  683SOL    HW2 2785   3.884   1.587   1.197  0.1192  0.3406  0.7614
  683SOL    HW3 2786   3.797   1.572   1.075  0.1711  0.8945  0.6573
  683SOL    MW4 2787   3.808   1.566   1.161  0.1872  0.3375  0.6196
  684SOL     OW 2788   3.574   1.670   1.268 -0.1879  0.1740  0.0070
  684SOL    HW2 2789   3.571   1.762   1.241 -0.1643  0.2621  0.3001
  684SOL    HW3 2790   3.651   1.634   1.224  0.8741  0.7628  1.3281
  684SOL    MW4 2791   3.584   1.677   1.259 -0.0446  0.2632  0.2199
  685SOL     OW 2792   3.565   1.934   1.168 -0.4085 -0.0653 -0.0947
  685SOL    HW2 2793   3.642   1.978   1.204 -0.8146 -0.1148  0.8443
  685SOL    HW3 2794   3.575   1.942   1.073  1.0518 -0.5720 -0.0010
  685SOL    MW4 2795   3.576   1.940   1.160 -0.2697 -0.1388  0.0415
  686SOL     OW 2796   3.794   2.072   1.254 -0.5167  0.4165  0.0757
  686SOL    HW2 2797   3.805   2.077   1.349 -0.5858 -0.2015  0.1178
  686SOL    HW3 2798   3.870   2.024   1.224 -0.3542  0.8563 -0.2126
  686SOL    MW4 2799   3.805   2.066   1.263 -0.5043  0.3927  0.0430
  687SOL     OW 2800   3.797   2.319   1.147 -0.2290 -0.2616  0.2350
  687SOL    HW2 2801   3.877   2.363   1.178 -0.4248 -0.8130  1.5876
  687SOL    HW3 2802   3.803   2.231   1.185 -1.4829 -0.3071  0.3375
  687SOL    MW4 2803   3.809   2.313   1.156 -0.4206 -0.3402  0.4269
  688SOL     OW 2804   3.580   2.473   1.218  0.3140  0.1179 -0.1774
  688SOL    HW2 2805   3.572   2.453   1.311  0.1053  0.0398 -0.2130
  688SOL    HW3 2806   3.651   2.417   1.188  2.6386  2.4944  0.6417
  688SOL    MW4 2807   3.589   2.463   1.227  0.5934  0.4213 -0.0739
  689SOL     OW 2808   3.637   2.731   1.159 -0.4501  0.6752  0.2715
  689SOL    HW2 2809   3.633   2.639   1.187  1.2297  1.1278  2.1008
  689SOL    HW3 2810   3.552   2.767   1.184 -1.4460 -0.5800 -1.2282
  689SOL    MW4 2811   3.625   2.723   1.166 -0.3598  0.5696  0.3151
  690SOL     OW 2812   3.870   2.837   1.254 -0.2538  0.1319 -0.2946
  690SOL    HW2 2813   3.855   2.862   1.346  1.0307 -1.7787  0.4706
  690SOL    HW3 2814   3.785   2.804   1.224 -0.6658  0.7012  0.2318
  690SOL    MW4 2815   3.856   2.836   1.262 -0.1385 -0.0448 -0.1243
  691SOL     OW 2816   3.805   3.112   1.131 -0.3174 -0.4893  0.1426
  691SOL    HW2 2817   3.802   3.017   1.147  0.8288 -0.4915  0.3504
  691SOL    HW3 2818   3.792   3.121   1.037 -0.7808 -0.8373  0.1734
  691SOL    MW4 2819   3.803   3.101   1.121 -0.2275 -0.5355  0.1740
  692SOL     OW 2820   3.571   3.244   1.206 -0.0834  0.1549 -0.6766
  692SOL    HW2 2821   3.567   3.328   1.161 -0.3384 -0.5211 -1.9494
  692SOL    HW3 2822   3.648   3.201   1.170 -0.0060 -0.1972 -0.0961
  692SOL    MW4 2823   3.581   3.249   1.195 -0.1070  0.0193 -0.7679
  693SOL     OW 2824   3.626   3.497   1.044  0.3720 -0.4913  0.1527
  693SOL    HW2 2825   3.691   3.536   1.102 -0.1511 -0.3099  0.6173
  693SOL    HW3 2826   3.668   3.498   0.958  0.7220  0.2409  0.3297
  693SOL    MW4 2827   3.640   3.502   1.040  0.3493 -0.3710  0.2373
  694SOL     OW 2828   3.840   3.606   1.209 -0.0214 -0.2186  0.0041
  694SOL    HW2 2829   3.823   3.616   1.302 -1.7126 -0.9262 -0.2035
  694SOL    HW3 2830   3.863   3.694   1.179  0.3921  0.0416  1.0555
  694SOL    MW4 2831   3.841   3.619   1.217 -0.1900 -0.2778  0.1153
  695SOL     OW 2832   3.860   3.868   1.109 -0.0189 -0.0888  0.4995
  695SOL    HW2 2833   3.790   3.897   1.169  1.0935  0.9155  1.3238
  695SOL    HW3 2834   3.820   3.873   1.022 -0.9109  0.6720  0.9394
  695SOL    MW4 2835   3.845   3.872   1.106  0.0100  0.1440  0.6663
  696SOL     OW 2836   3.626   3.991   1.236  0.2229 -0.1545 -0.1543
  696SOL    HW2 2837   3.629   3.996   1.331  1.3073 -0.4971 -0.1640
  696SOL    HW3 2838   3.548   3.938   1.217  0.6908 -1.1291  0.5869
  696SOL    MW4 2839   3.616   3.985   1.246  0.4277 -0.3283 -0.0579
  697SOL     OW 2840   3.599   4.244   1.160  0.1388  0.2559 -0.4224
  697SOL    HW2 2841   3.609   4.151   1.177  2.1348  0.7060  1.1689
  697SOL    HW3 2842   3.595   4.251   1.065 -2.9255 -1.6744 -0.4889
  697SOL    MW4 2843   3.600   4.233   1.150 -0.0021  0.0610 -0.2213
  698SOL     OW 2844   3.825   4.397   1.236 -0.0693 -0.1647 -0.3498
  698SOL    HW2 2845   3.812   4.398   1.330  0.1585 -2.1090 -0.2637
  698SOL    HW3 2846   3.760   4.335   1.203 -0.3395  0.7104 -1.5062
  698SOL    MW4 2847   3.815   4.389   1.244 -0.0751 -0.3057 -0.4909
  699SOL     OW 2848   4.250   4.625   1.173  0.7828 -0.0468 -0.1794
  699SOL    HW2 2849   4.261   4.545   1.225 -2.6250 -1.6483 -1.7827
  699SOL    HW3 2850   4.183   4.675   1.219 -0.5293 -0.3650 -1.7062
  699SOL    MW4 2851   4.243   4.621   1.186  0.1597 -0.2999 -0.5925
  700SOL     OW 2852   4.040   0.132   1.260 -0.2223 -0.4691 -0.0159
  700SOL    HW2 2853   4.028   0.136   1.355  0.5538  0.6200  0.0545
  700SOL    HW3 2854   3.967   0.080   1.228 -0.9682 -0.1206  1.0972
  700SOL    MW4 2855   4.029   0.126   1.268 -0.2179 -0.2794  0.1402
  701SOL     OW 2856   4.052   0.383   1.141  0.3461  0.1323  0.1515
  701SOL    HW2 2857   4.048   0.293   1.173 -2.4883  0.1730  0.0017
  701SOL    HW3 2858   4.065   0.374   1.047 -0.5389 -0.1495  0.0498
  701SOL    MW4 2859   4.053   0.370   1.133 -0.1445  0.1005  0.1184
  702SOL     OW 2860   4.286   0.563   1.222  0.0653  0.3039 -0.0197
  702SOL    HW2 2861   4.276   0.565   1.317 -1.4493 -0.2778 -0.1467
  702SOL    HW3 2862   4.199   0.539   1.189  0.2724  1.6095 -1.6058
  702SOL    MW4 2863   4.273   0.560   1.230 -0.1068  0.3994 -0.2456
  703SOL     OW 2864   4.293   0.821   1.106 -0.2588 -0.7579 -0.0043
  703SOL    HW2 2865   4.307   0.735   1.146  1.4700 -0.9318 -0.9341
  703SOL    HW3 2866   4.293   0.804   1.011  1.2887  0.4089 -0.2391
  703SOL    MW4 2867   4.295   0.808   1.098  0.1736 -0.6270 -0.1580
  704SOL     OW 2868   4.039   0.901   1.233 -0.2193  0.0282 -0.0986
  704SOL    HW2 2869   4.069   0.896   1.324 -1.4641 -0.7532  0.2826
  704SOL    HW3 2870   4.108   0.857   1.182 -0.4451 -1.2752  0.6994
  704SOL    MW4 2871   4.052   0.894   1.238 -0.4129 -0.2469  0.0570
  705SOL     OW 2872   4.056   1.160   1.121  0.1589  0.0325 -0.1373
  705SOL    HW2 2873   4.059   1.070   1.154  0.0724 -0.0460 -0.3415
  705SOL    HW3 2874   3.979   1.199   1.163  0.6883  0.2769  0.6183
  705SOL    MW4 2875   4.046   1.153   1.131  0.2179  0.0544 -0.0646
  706SOL     OW 2876   4.267   1.307   1.236  0.1085  0.6079 -0.0972
  706SOL    HW2 2877   4.250   1.292   1.329  1.9608 -1.9945 -0.1374
  706SOL    HW3 2878   4.200   1.255   1.191  1.3429 -0.9306 -0.2001
  706SOL    MW4 2879   4.256   1.298   1.243  0.5155  0.0614 -0.1160
  707SOL     OW 2880   4.278   1.552   1.112 -0.1432  0.3745  0.8922
  707SOL    HW2 2881   4.273   1.460   1.140 -0.6612  0.5850  1.5043
  707SOL    HW3 2882   4.364   1.581   1.142  0.3670 -0.1444 -0.0395
  707SOL    MW4 2883   4.289   1.543   1.120 -0.1450  0.3339  0.8502
  708SOL     OW 2884   4.051   1.657   1.251  0.3955 -0.2160  0.0998
  708SOL    HW2 2885   4.065   1.660   1.346  0.8388 -0.5511  0.0493
  708SOL    HW3 2886   4.131   1.617   1.217  1.0202  1.5893 -0.6028
  708SOL    MW4 2887   4.063   1.652   1.259  0.5364 -0.0219  0.0005
  709SOL     OW 2888   4.013   1.905   1.166 -0.4457  0.4209 -0.3520
  709SOL    HW2 2889   4.017   1.813   1.190 -0.0311  0.5277  0.0165
  709SOL    HW3 2890   4.010   1.906   1.071  1.0343  0.0675 -0.4091
  709SOL    MW4 2891   4.013   1.893   1.157 -0.1955  0.3883 -0.3109
  710SOL     OW 2892   4.258   2.024   1.234 -0.2924 -0.0047 -0.0062
  710SOL    HW2 2893   4.262   2.112   1.196  0.3842 -0.3207 -0.6835
  710SOL    HW3 2894   4.175   1.988   1.201 -0.7164  0.4827  0.5162
  710SOL    MW4 2895   4.248   2.031   1.225 -0.2594  0.0179 -0.0266
  711SOL     OW 2896   4.227   2.295   1.151 -0.3581 -0.2392  0.0145
  711SOL    HW2 2897   4.152   2.343   1.187 -1.2045 -1.6014  0.0929
  711SOL    HW3 2898   4.232   2.324   1.059  0.1083  1.1532  0.4605
  711SOL    MW4 2899   4.218   2.306   1.143 -0.4086 -0.2353  0.0836
  712SOL     OW 2900   4.020   2.465   1.216  0.4484  0.1566 -0.1825
  712SOL    HW2 2901   4.035   2.484   1.308  2.8548 -0.4978 -0.4033
  712SOL    HW3 2902   4.020   2.551   1.173 -1.5815  0.5312  0.5197
  712SOL    MW4 2903   4.022   2.479   1.222  0.4983  0.1194 -0.1190
  713SOL     OW 2904   4.081   2.714   1.127 -0.1180  0.0340 -0.3619
  713SOL    HW2 2905   4.006   2.754   1.172 -0.1656 -0.0051 -0.4062
  713SOL    HW3 2906   4.073   2.744   1.037  0.0413  0.2063 -0.3202
  713SOL    MW4 2907   4.070   2.724   1.121 -0.1035  0.0515 -0.3622
  714SOL     OW 2908   4.304   2.854   1.231 -0.2097 -0.0975  0.1712
  714SOL    HW2 2909   4.307   2.939   1.186 -0.9663 -0.7396 -1.1170
  714SOL    HW3 2910   4.234   2.806   1.187 -0.3141 -1.1100  1.4128
  714SOL    MW4 2911   4.295   2.859   1.219 -0.3233 -0.3157  0.1651
  715SOL     OW 2912   4.288   3.098   1.093  0.2385 -0.7582 -0.0892
  715SOL    HW2 2913   4.201   3.122   1.125 -0.0469 -1.1954 -0.5281
  715SOL    HW3 2914   4.279   3.097   0.998  1.0084  0.2677 -0.1883
  715SOL    MW4 2915   4.275   3.101   1.085  0.3023 -0.6804 -0.1602
  716SOL     OW 2916   4.057   3.207   1.180 -0.2437 -0.0441  0.1185
  716SOL    HW2 2917   4.044   3.212   1.274 -1.7472  1.1861 -0.1377
  716SOL    HW3 2918   3.977   3.167   1.146 -0.3421  0.8848 -0.7761
  716SOL    MW4 2919   4.045   3.202   1.188 -0.4549  0.2408 -0.0333
  717SOL     OW 2920   4.074   3.504   1.126 -0.2324 -0.3528  0.3105
  717SOL    HW2 2921   4.084   3.409   1.140 -0.6862 -0.6610 -1.3730
  717SOL    HW3 2922   3.982   3.521   1.146 -0.8110 -0.7444 -1.9028
  717SOL    MW4 2923   4.064   3.493   1.130 -0.3681 -0.4451 -0.2038
  718SOL     OW 2924   4.287   3.623   1.277 -0.2207  0.0184 -0.1737
  718SOL    HW2 2925   4.226   3.574   1.222  0.1742  1.8206 -2.2510
  718SOL    HW3 2926   4.373   3.590   1.253 -0.1045  0.1183  0.0993
  718SOL    MW4 2927   4.290   3.612   1.267 -0.1531  0.2692 -0.4117
  719SOL     OW 2928   4.287   3.865   1.147 -0.0810 -0.4394  0.1887
  719SOL    HW2 2929   4.216   3.915   1.186  1.1921  0.3815  1.5105
  719SOL    HW3 2930   4.287   3.782   1.196 -1.5541 -1.3704 -1.3354
  719SOL    MW4 2931   4.278   3.861   1.159 -0.1078 -0.4537  0.1620
  720SOL     OW 2932   4.055   3.988   1.249  0.5203 -0.3190 -0.4274
  720SOL    HW2 2933   4.061   4.081   1.227  0.7117 -0.6357 -1.7367
  720SOL    HW3 2934   3.997   3.951   1.182 -1.6225 -0.6830  1.5628
  720SOL    MW4 2935   4.048   3.996   1.237  0.2623 -0.4086 -0.3375
  721SOL     OW 2936   4.061   4.262   1.167 -0.3128  0.0464 -0.0146
  721SOL    HW2 2937   3.981   4.312   1.183 -1.0241 -0.9601 -0.3292
  721SOL    HW3 2938   4.070   4.259   1.072 -0.3895 -0.5825 -0.0076
  721SOL    MW4 2939   4.052   4.268   1.156 -0.4168 -0.1693 -0.0552
  722SOL     OW 2940   4.273   4.373   1.329 -0.0660 -0.1709  0.0835
  722SOL    HW2 2941   4.209   4.323   1.278 -0.6694  0.2002  0.4663
  722SOL    HW3 2942   4.355   4.362   1.282 -0.5687 -0.0390 -0.8259
  722SOL    MW4 2943   4.275   4.365   1.316 -0.2122 -0.1044  0.0141
  723SOL     OW 2944   0.202   4.633   1.583  0.2823 -0.5674  0.2626
  723SOL    HW2 2945   0.282   4.687   1.581  0.5493 -0.9218  1.1886
  723SOL    HW3 2946   0.131   4.696   1.569  0.7116 -0.2536 -0.6085
  723SOL    MW4 2947   0.203   4.649   1.581  0.3742 -0.5732  0.2698
  724SOL     OW 2948   4.461   0.123   1.494  0.2569 -0.4859  0.0006
  724SOL    HW2 2949   4.400   0.065   1.540 -1.0696  0.9035  0.0062
  724SOL    HW3 2950   4.447   0.106   1.401  0.2197 -0.5241  0.0138
  724SOL    MW4 2951   4.451   0.113   1.488  0.0768 -0.3076  0.0032
  725SOL     OW 2952   4.468   0.387   1.554 -0.0845  0.1297 -0.4996
  725SOL    HW2 2953   4.463   0.390   1.650 -1.3330 -0.2226 -0.5388
  725SOL    HW3 2954   4.465   0.294   1.533  1.8878  0.1259 -0.8212
  725SOL    MW4 2955   4.467   0.375   1.564  0.0110  0.0827 -0.5472
  726SOL     OW 2956   0.221   0.501   1.474  0.3685 -0.3905  0.0007
  726SOL    HW2 2957   0.137   0.465   1.502  0.5193 -0.7600 -0.0187
  726SOL    HW3 2958   0.214   0.511   1.379  0.9020 -1.8845 -0.2003
  726SOL    MW4 2959   0.209   0.498   1.465  0.4588 -0.6363 -0.0286
  727SOL     OW 2960   0.241   0.748   1.616 -0.0178  0.0674 -0.5957
  727SOL    HW2 2961   0.310   0.801   1.575  0.7940 -0.0377  0.5999
  727SOL    HW3 2962   0.246   0.664   1.571 -0.2496  0.4725 -1.4057
  727SOL    MW4 2963   0.251   0.744   1.605  0.0587  0.1069 -0.5447
  728SOL     OW 2964   0.053   0.896   1.455  0.1695 -0.0163  0.3276
  728SOL    HW2 2965   0.061   0.976   1.508 -0.4022 -0.7164  1.4998
  728SOL    HW3 2966   0.121   0.838   1.490 -0.2284 -0.4948  0.3067
  728SOL    MW4 2967   0.063   0.899   1.467  0.0416 -0.1717  0.4797
  729SOL     OW 2968   0.020   1.125   1.616 -0.2663  0.1509  0.0855
  729SOL    HW2 2969   0.016   1.137   1.711  2.1580 -1.1236  0.3836
  729SOL    HW3 2970   0.085   1.188   1.587 -1.1783  0.7029 -0.7701
  729SOL    MW4 2971   0.028   1.135   1.625 -0.0663  0.0556  0.0119
  730SOL     OW 2972   0.246   1.268   1.528  0.7858 -0.1628  0.5148
  730SOL    HW2 2973   0.234   1.360   1.553  0.5624 -0.3791  1.2275
  730SOL    HW3 2974   0.257   1.270   1.433 -1.6275  0.3785  0.2090
  730SOL    MW4 2975   0.246   1.281   1.519  0.4379 -0.1198  0.5683
  731SOL     OW 2976   0.209   1.540   1.628  0.6160 -0.0781 -0.2295
  731SOL    HW2 2977   0.190   1.540   1.722  0.7097 -0.0298 -0.2100
  731SOL    HW3 2978   0.136   1.588   1.588  0.0752 -0.9484 -0.2851
  731SOL    MW4 2979   0.197   1.546   1.635  0.5571 -0.1867 -0.2342
  732SOL     OW 2980   4.484   1.646   1.506  0.5965 -0.0878 -0.3795
  732SOL    HW2 2981   4.479   1.729   1.554 -2.5859 -0.3339 -0.2419
  732SOL    HW3 2982   4.480   1.671   1.414  0.5382 -0.0528 -0.3670
  732SOL    MW4 2983   4.483   1.660   1.501  0.1683 -0.1158 -0.3597
  733SOL     OW 2984   0.002   1.921   1.614  0.6932 -0.0452  0.1189
  733SOL    HW2 2985  -0.005   1.927   1.709  1.3927  3.2292  0.0311
  733SOL    HW3 2986  -0.060   1.986   1.581  1.8380  0.2098 -1.6087
  733SOL    MW4 2987  -0.007   1.930   1.622  0.9365  0.4205 -0.1206
  734SOL     OW 2988   0.249   2.016   1.513 -0.0535 -0.1703  0.5582
  734SOL    HW2 2989   0.164   1.983   1.543 -0.9202  1.7822  0.3021
  734SOL    HW3 2990   0.244   2.011   1.418  0.1589 -0.1493  0.5462
  734SOL    MW4 2991   0.237   2.011   1.505 -0.1398  0.0901  0.5227
  735SOL     OW 2992   0.258   2.291   1.601 -0.4957  0.2643  0.4425
  735SOL    HW2 2993   0.257   2.284   1.696 -1.7825  0.1882  0.4394
  735SOL    HW3 2994   0.241   2.202   1.570 -0.7735  0.4119  0.1603
  735SOL    MW4 2995   0.256   2.278   1.609 -0.7021  0.2737  0.4048
  736SOL     OW 2996   0.013   2.439   1.491  0.3607 -0.3103 -0.1886
  736SOL    HW2 2997  -0.063   2.393   1.527 -0.2098  1.1934  0.6273
  736SOL    HW3 2998   0.087   2.381   1.508 -0.2508 -0.6816  1.3393
  736SOL    MW4 2999   0.013   2.426   1.498  0.2047 -0.1609  0.1206
  737SOL     OW 3000   0.013   2.690   1.616  0.5977 -0.1491 -0.3911
  737SOL    HW2 3001  -0.063   2.733   1.578  0.8896  1.3734  0.7037
  737SOL    HW3 3002   0.019   2.607   1.569 -0.3239  0.7376 -2.1329
  737SOL    MW4 3003   0.004   2.685   1.605  0.5147  0.1688 -0.4766
  738SOL     OW 3004   0.262   2.844   1.543 -0.1009 -0.0985 -0.2303
  738SOL    HW2 3005   0.339   2.796   1.572  0.4676  0.9732  0.0507
  738SOL    HW3 3006   0.188   2.794   1.578  0.4960 -0.5125  0.4517
  738SOL    MW4 3007   0.262   2.831   1.551  0.0529 -0.0117 -0.1031
  739SOL     OW 3008   0.241   3.127   1.626  0.2523 -0.4715 -0.0246
  739SOL    HW2 3009   0.166   3.165   1.581  0.2293  1.5713  1.6433
  739SOL    HW3 3010   0.245   3.036   1.595 -2.3550 -0.3502 -0.8111
  739SOL    MW4 3011   0.231   3.120   1.616 -0.0947 -0.1860  0.0917
  740SOL     OW 3012   0.002   3.196   1.469  0.1983  0.2997  0.0594
  740SOL    HW2 3013  -0.002   3.284   1.505 -1.4824  0.3335 -0.1679
  740SOL    HW3 3014   0.007   3.209   1.374 -0.1592  0.1438  0.0200
  740SOL    MW4 3015   0.002   3.209   1.461 -0.0706  0.2837  0.0242
  741SOL     OW 3016   4.488   3.449   1.601 -0.1720 -0.1045 -0.2656
  741SOL    HW2 3017   4.505   3.443   1.695 -1.5544 -0.1254  0.0037
  741SOL    HW3 3018   4.410   3.505   1.595  0.4875  0.6857 -1.4611
  741SOL    MW4 3019   4.480   3.456   1.613 -0.2670 -0.0031 -0.3878
  742SOL     OW 3020   0.240   3.603   1.529  0.2067 -0.0222 -0.2721
  742SOL    HW2 3021   0.223   3.695   1.553  1.7366  0.5997 -1.4895
  742SOL    HW3 3022   0.165   3.555   1.565 -0.3934  1.6398  0.7735
  742SOL    MW4 3023   0.228   3.609   1.537  0.3294  0.2792 -0.2948
  743SOL     OW 3024   0.451   3.996   1.530 -0.2212  0.0913 -0.5295
  743SOL    HW2 3025   0.533   3.955   1.556  0.5070  1.4100 -0.6972
  743SOL    HW3 3026   0.453   3.995   1.434  1.0148  2.8093 -0.5784
  743SOL    MW4 3027   0.462   3.990   1.520  0.0380  0.6237 -0.5581
  744SOL     OW 3028   4.480   4.003   1.506 -0.0700  0.2353 -0.9717
  744SOL    HW2 3029   4.463   4.094   1.531  1.3327  0.3675 -0.4618
  744SOL    HW3 3030   4.564   3.982   1.546 -0.4231 -1.3236 -1.0125
  744SOL    MW4 3031   4.489   4.012   1.514  0.0682  0.0472 -0.9098
  745SOL     OW 3032   4.480   4.251   1.610 -0.4026 -0.0434 -0.1184
  745SOL    HW2 3033   4.494   4.225   1.701  1.6084  1.3326 -0.0141
  745SOL    HW3 3034   4.395   4.295   1.610 -1.2718 -1.7031  0.7243
  745SOL    MW4 3035   4.471   4.253   1.622 -0.2522 -0.0806  0.0064
  746SOL     OW 3036   0.189   4.362   1.468  0.0918 -0.1827 -0.5582
  746SOL    HW2 3037   0.118   4.317   1.514 -0.9497  0.1421 -1.8144
  746SOL    HW3 3038   0.180   4.453   1.494 -0.2377 -0.0690 -1.0553
  746SOL    MW4 3039   0.178   4.368   1.477 -0.0890 -0.1245 -0.7895
  747SOL     OW 3040   0.667   4.663   1.623  0.4287 -0.2826 -0.0949
  747SOL    HW2 3041   0.737   4.703   1.572  0.3976  1.0361  0.8793
  747SOL    HW3 3042   0.587   4.701   1.587  0.3693  0.1610  0.5026
  747SOL    MW4 3043   0.666   4.673   1.611  0.4168 -0.0501  0.1127
  748SOL     OW 3044   0.441   0.105   1.521  0.1933 -0.2174 -0.3767
  748SOL    HW2 3045   0.421   0.189   1.562  0.5483 -0.0661 -0.5112
  748SOL    HW3 3046   0.422   0.118   1.428  0.4476 -0.2255 -0.4282
  748SOL    MW4 3047   0.436   0.118   1.514  0.2737 -0.1985 -0.4013
  749SOL     OW 3048   0.408   0.361   1.615  0.4769 -0.1428 -0.3706
  749SOL    HW2 3049   0.487   0.410   1.592 -0.1654  0.2957 -1.7089
  749SOL    HW3 3050   0.338   0.407   1.569 -0.6616 -0.0983  1.3866
  749SOL    MW4 3051   0.409   0.373   1.606  0.2419 -0.0791 -0.3153
  750SOL     OW 3052   0.620   0.513   1.514  0.2147  0.0742  0.1153
  750SOL    HW2 3053   0.641   0.604   1.535 -0.1501  0.1634  0.0930
  750SOL    HW3 3054   0.638   0.506   1.420 -0.6388  0.3711 -0.0718
  750SOL    MW4 3055   0.626   0.524   1.504  0.0539  0.1251  0.0875
  751SOL     OW 3056   0.670   0.781   1.586 -0.0653  0.5261 -0.1755
  751SOL    HW2 3057   0.687   0.775   1.680  0.7621 -1.8237 -0.4480
  751SOL    HW3 3058   0.740   0.837   1.553  1.2288 -0.8138  0.2354
  751SOL    MW4 3059   0.682   0.788   1.594  0.2145  0.0393 -0.1574
  752SOL     OW 3060   0.442   0.899   1.516  0.0189  0.1182  0.0631
  752SOL    HW2 3061   0.439   0.976   1.573 -0.9852 -0.7553  1.2110
  752SOL    HW3 3062   0.521   0.853   1.544  0.5226  0.6222 -0.5034
  752SOL    MW4 3063   0.452   0.903   1.527 -0.0471  0.0694  0.1397
  753SOL     OW 3064   0.437   1.136   1.679 -0.0142 -0.3910  0.1920
  753SOL    HW2 3065   0.506   1.189   1.638 -1.0436  1.4896  0.8548
  753SOL    HW3 3066   0.358   1.158   1.630 -0.7732 -0.0566  1.5579
  753SOL    MW4 3067   0.436   1.146   1.667 -0.2502 -0.0987  0.4596
  754SOL     OW 3068   0.665   1.281   1.577  0.3220  0.3104 -0.6375
  754SOL    HW2 3069   0.651   1.373   1.600  2.2869  0.4405  0.1724
  754SOL    HW3 3070   0.691   1.283   1.485 -1.3799  0.3813 -1.1323
  754SOL    MW4 3071   0.667   1.294   1.568  0.3567  0.3370 -0.5959
  755SOL     OW 3072   0.644   1.555   1.634 -0.2073 -0.1260  0.7275
  755SOL    HW2 3073   0.711   1.589   1.575 -0.2790  0.4701  0.9829
  755SOL    HW3 3074   0.561   1.579   1.594 -0.2568  0.1244  0.9745
  755SOL    MW4 3075   0.642   1.563   1.621 -0.2232 -0.0143  0.7939
  756SOL     OW 3076   0.426   1.652   1.501 -0.1035  0.5462 -0.2284
  756SOL    HW2 3077   0.428   1.743   1.528 -1.1480  0.2603  0.8701
  756SOL    HW3 3078   0.346   1.617   1.540  0.9030 -1.1499  0.3726
  756SOL    MW4 3079   0.415   1.659   1.509 -0.1085  0.2848 -0.0042
  757SOL     OW 3080   0.462   1.891   1.634 -0.3235  0.1330  0.4186
  757SOL    HW2 3081   0.446   1.886   1.728 -2.2194 -1.1108  0.0693
  757SOL    HW3 3082   0.383   1.931   1.598  0.0899 -0.0502 -0.7308
  757SOL    MW4 3083   0.450   1.896   1.642 -0.5191 -0.0553  0.2208
  758SOL     OW 3084   0.672   2.049   1.509  0.8434 -0.2105 -0.1610
  758SOL    HW2 3085   0.752   1.998   1.519  1.0656 -0.0000 -0.8455
  758SOL    HW3 3086   0.606   2.001   1.560  1.7605  0.4629  1.6989
  758SOL    MW4 3087   0.674   2.036   1.517  0.9937 -0.0939 -0.0061
  759SOL     OW 3088   0.706   2.296   1.637  0.4355 -0.2197  0.0698
  759SOL    HW2 3089   0.640   2.352   1.597  0.3750  0.7854  1.5312
  759SOL    HW3 3090   0.692   2.210   1.598 -2.4877 -0.2994  1.1894
  759SOL    MW4 3091   0.696   2.292   1.627  0.0419 -0.0973  0.4103
  760SOL     OW 3092   0.489   2.428   1.542 -0.1317 -0.0108 -0.0365
  760SOL    HW2 3093   0.469   2.515   1.578 -0.8014  0.3513 -1.2553
  760SOL    HW3 3094   0.411   2.376   1.561  0.3097 -0.3713  0.7793
  760SOL    MW4 3095   0.476   2.433   1.549 -0.1618 -0.0103 -0.0895
  761SOL     OW 3096   0.492   2.700   1.611  0.1403 -0.1670 -0.1035
  761SOL    HW2 3097   0.493   2.713   1.705 -1.1186  0.3461 -0.1547
  761SOL    HW3 3098   0.572   2.744   1.580  0.6758 -0.5394  0.7315
  761SOL    MW4 3099   0.503   2.708   1.619  0.0449 -0.1483 -0.0001
  762SOL     OW 3100   0.720   2.837   1.540  0.1382  0.3602 -0.4217
  762SOL    HW2 3101   0.701   2.930   1.555  0.1646  0.3018 -0.0063
  762SOL    HW3 3102   0.739   2.831   1.447 -0.7640  0.6188 -0.6300
  762SOL    MW4 3103   0.720   2.849   1.530  0.0228  0.3865 -0.3943
  763SOL     OW 3104   0.695   3.111   1.600 -0.0916 -0.4371 -0.0022
  763SOL    HW2 3105   0.775   3.150   1.564 -0.9143 -0.2078 -1.6698
  763SOL    HW3 3106   0.625   3.170   1.571 -1.0198 -1.4696  0.1153
  763SOL    MW4 3107   0.696   3.124   1.591 -0.3226 -0.5429 -0.2067
  764SOL     OW 3108   0.468   3.241   1.520 -0.4750 -0.1017  0.1959
  764SOL    HW2 3109   0.383   3.210   1.551 -1.4598  0.7952 -1.4952
  764SOL    HW3 3110   0.460   3.238   1.424  0.9846  1.0825  0.0262
  764SOL    MW4 3111   0.456   3.236   1.511 -0.4123  0.1726 -0.0497
  765SOL     OW 3112   0.466   3.500   1.655 -0.1575 -0.1369 -0.2271
  765SOL    HW2 3113   0.467   3.408   1.631 -1.5056 -0.2842  0.2377
  765SOL    HW3 3114   0.389   3.536   1.611 -0.1288  0.5758  0.2887
  765SOL    MW4 3115   0.456   3.493   1.646 -0.3316 -0.0625 -0.0978
  766SOL     OW 3116   0.696   3.614   1.537  0.4497  0.1513 -0.5517
  766SOL    HW2 3117   0.768   3.559   1.569  0.0082  0.9951  2.0948
  766SOL    HW3 3118   0.618   3.580   1.582  0.0398  2.3850  0.5121
  766SOL    MW4 3119   0.695   3.603   1.548  0.3373  0.5574 -0.0621
  767SOL     OW 3120   0.676   3.875   1.646 -0.1418 -0.3598  0.1162
  767SOL    HW2 3121   0.766   3.899   1.621 -0.7980  0.6710 -1.2877
  767SOL    HW3 3122   0.664   3.787   1.611  0.0973 -0.2480 -0.2512
  767SOL    MW4 3123   0.687   3.867   1.638 -0.1968 -0.2089 -0.1175
  768SOL     OW 3124   0.229   3.869   1.590  0.2099 -0.5974 -0.5014
  768SOL    HW2 3125   0.228   3.864   1.686 -2.6802  0.2106 -0.4321
  768SOL    HW3 3126   0.313   3.910   1.569  0.5249 -0.0174  1.7396
  768SOL    MW4 3127   0.240   3.874   1.600 -0.1298 -0.4141 -0.1966
  769SOL     OW 3128   0.396   4.235   1.646  0.5510 -0.1766 -0.1640
  769SOL    HW2 3129   0.411   4.152   1.600 -1.1006 -0.9852  0.7347
  769SOL    HW3 3130   0.327   4.278   1.596  2.1902  1.2055 -1.2966
  769SOL    MW4 3131   0.389   4.230   1.633  0.5493 -0.1011 -0.1948
  770SOL     OW 3132   0.642   4.395   1.524  0.2991 -0.1992 -0.3899
  770SOL    HW2 3133   0.566   4.354   1.565 -0.1565  1.0321  0.0331
  770SOL    HW3 3134   0.641   4.485   1.556  1.5930 -0.0024 -0.8614
  770SOL    MW4 3135   0.632   4.402   1.533  0.4097 -0.0105 -0.3965
  771SOL     OW 3136   1.069   0.011   1.618 -0.4751 -0.5466 -0.2022
  771SOL    HW2 3137   1.081   0.001   1.713  0.6200  0.6272 -0.2026
  771SOL    HW3 3138   1.144   0.064   1.590 -1.0920 -0.4173 -1.6388
  771SOL    MW4 3139   1.081   0.017   1.627 -0.4120 -0.3747 -0.3917
  772SOL     OW 3140   0.864   0.127   1.468 -0.0096  0.3236 -0.0992
  772SOL    HW2 3141   0.830   0.210   1.501  0.1369  0.2760  0.1717
  772SOL    HW3 3142   0.925   0.097   1.535  0.4838  0.3513 -0.5309
  772SOL    MW4 3143   0.867   0.134   1.481  0.0748  0.3210 -0.1205
  773SOL     OW 3144   0.852   0.366   1.603  0.4221  0.1716 -0.6271
  773SOL    HW2 3145   0.860   0.361   1.699  1.8876  0.8067 -0.7074
  773SOL    HW3 3146   0.785   0.432   1.588 -1.0961 -1.1844 -0.0196
  773SOL    MW4 3147   0.844   0.374   1.614  0.4151  0.0765 -0.5575
  774SOL     OW 3148   1.066   0.508   1.472 -0.1132 -0.6638  0.0101
  774SOL    HW2 3149   1.065   0.593   1.516 -1.0656 -0.2956 -0.6904
  774SOL    HW3 3150   0.997   0.457   1.515  1.6212 -1.7283  1.6160
  774SOL    MW4 3151   1.057   0.512   1.483 -0.0100 -0.7556  0.1295
  775SOL     OW 3152   1.073   0.741   1.620 -0.4008 -0.3376  0.1507
  775SOL    HW2 3153   1.079   0.733   1.715 -0.1793 -2.6315 -0.0252
  775SOL    HW3 3154   1.156   0.779   1.593  0.4601 -1.7997  0.6870
  775SOL    MW4 3155   1.085   0.745   1.629 -0.2580 -0.8332  0.1982
  776SOL     OW 3156   0.888   0.928   1.511 -0.2046  0.2969  0.2223
  776SOL    HW2 3157   0.951   0.868   1.552 -0.6924 -0.6293 -0.3693
  776SOL    HW3 3158   0.905   0.919   1.417 -0.1824  1.2050  0.1359
  776SOL    MW4 3159   0.899   0.919   1.504 -0.2660  0.2945  0.1330
  777SOL     OW 3160   0.922   1.168   1.647 -0.6972  0.4680 -0.0435
  777SOL    HW2 3161   0.911   1.087   1.597 -0.6227 -0.2482  1.0653
  777SOL    HW3 3162   0.844   1.220   1.627 -1.2410 -0.3160  0.0120
  777SOL    MW4 3163   0.910   1.164   1.638 -0.7591  0.2701  0.1101
  778SOL     OW 3164   1.117   1.299   1.466 -0.0290 -0.2904 -0.1329
  778SOL    HW2 3165   1.205   1.272   1.491  0.0891  0.1259 -0.0957
  778SOL    HW3 3166   1.059   1.237   1.511  0.2687 -1.0076 -0.7400
  778SOL    MW4 3167   1.121   1.287   1.476  0.0259 -0.3300 -0.2080
  779SOL     OW 3168   1.149   1.516   1.650 -0.0806  0.3621  0.4001
  779SOL    HW2 3169   1.206   1.580   1.607 -0.3399  0.9659  0.9512
  779SOL    HW3 3170   1.143   1.444   1.587 -0.0317  1.0027 -0.3512
  779SOL    MW4 3171   1.156   1.515   1.636 -0.1084  0.5263  0.3736
  780SOL     OW 3172   0.914   1.638   1.562  0.0243 -0.3619 -0.0784
  780SOL    HW2 3173   0.998   1.604   1.592 -0.3703 -1.0452  0.2455
  780SOL    HW3 3174   0.931   1.667   1.473  0.8206  0.2942  0.2764
  780SOL    MW4 3175   0.927   1.637   1.554  0.0773 -0.3655  0.0112
  781SOL     OW 3176   0.908   1.907   1.600 -0.5252 -0.5230 -0.3426
  781SOL    HW2 3177   0.994   1.948   1.587 -0.4964 -0.0284  1.3984
  781SOL    HW3 3178   0.927   1.814   1.607 -0.2792 -0.5529 -1.2629
  781SOL    MW4 3179   0.922   1.900   1.599 -0.4889 -0.4617 -0.2342
  782SOL     OW 3180   1.183   2.013   1.544 -0.2553  0.1210  0.4840
  782SOL    HW2 3181   1.259   1.977   1.591 -0.5982  0.1598  1.0708
  782SOL    HW3 3182   1.180   2.105   1.570 -0.5847  0.0862  0.5710
  782SOL    MW4 3183   1.193   2.020   1.554 -0.3439  0.1216  0.5730
  783SOL     OW 3184   1.167   2.287   1.621  0.1413 -0.0571 -0.2346
  783SOL    HW2 3185   1.236   2.352   1.614  0.2964 -0.1301  0.6143
  783SOL    HW3 3186   1.087   2.335   1.602  0.0926  0.7199  1.8025
  783SOL    MW4 3187   1.165   2.302   1.617  0.1553  0.0358  0.1462
  784SOL     OW 3188   0.928   2.435   1.546 -0.1093 -0.0600 -0.2118
  784SOL    HW2 3189   0.917   2.521   1.586  1.5955 -0.0476  0.2618
  784SOL    HW3 3190   0.856   2.383   1.582 -0.7019  0.9446  0.0847
  784SOL    MW4 3191   0.917   2.439   1.556  0.0376  0.0741 -0.1100
  785SOL     OW 3192   0.939   2.700   1.651 -0.0869  0.0390  0.3374
  785SOL    HW2 3193   0.940   2.704   1.747 -0.0093 -0.8770  0.3824
  785SOL    HW3 3194   0.868   2.759   1.625  0.9167  1.4860  0.8829
  785SOL    MW4 3195   0.930   2.708   1.660  0.0557  0.1090  0.4154
  786SOL     OW 3196   1.164   2.828   1.553  0.0066  0.5017 -0.0722
  786SOL    HW2 3197   1.150   2.918   1.580  0.1970  0.5057  0.0098
  786SOL    HW3 3198   1.093   2.779   1.594 -0.4711  0.7142 -0.6345
  786SOL    MW4 3199   1.153   2.833   1.562 -0.0314  0.5305 -0.1357
  787SOL     OW 3200   1.140   3.108   1.625  0.3314  0.0868  0.0411
  787SOL    HW2 3201   1.158   3.107   1.719  0.6073 -1.2831 -0.0106
  787SOL    HW3 3202   1.208   3.164   1.589 -1.0087  2.3104  0.8746
  787SOL    MW4 3203   1.152   3.115   1.633  0.1910  0.1993  0.1444
  788SOL     OW 3204   0.924   3.244   1.527  0.1893  0.1373  0.1972
  788SOL    HW2 3205   1.001   3.192   1.551  2.5889  3.3100 -0.2090
  788SOL    HW3 3206   0.921   3.240   1.432  0.8864  1.3508  0.1093
  788SOL    MW4 3207   0.934   3.236   1.518  0.5979  0.7160  0.1320
  789SOL     OW 3208   0.910   3.497   1.651  0.0839  0.1833 -0.0525
  789SOL    HW2 3209   0.978   3.560   1.625  0.9130  0.1074  1.8770
  789SOL    HW3 3210   0.933   3.417   1.603  0.8673  0.4107 -0.0752
  789SOL    MW4 3211   0.922   3.495   1.641  0.2966  0.2034  0.1991
  790SOL     OW 3212   1.097   3.660   1.534  0.4989  0.2758 -0.1456
  790SOL    HW2 3213   1.181   3.624   1.561  0.0128 -2.0372 -1.5224
  790SOL    HW3 3214   1.101   3.659   1.438 -1.0288  0.3179 -0.2186
  790SOL    MW4 3215   1.109   3.655   1.525  0.2332 -0.0238 -0.3370
  791SOL     OW 3216   1.130   3.913   1.623  0.1139  0.2493 -0.0361
  791SOL    HW2 3217   1.201   3.963   1.583 -1.7840  1.2287 -2.2465
  791SOL    HW3 3218   1.132   3.828   1.578 -1.3982  1.0051 -1.5576
  791SOL    MW4 3219   1.140   3.908   1.612 -0.3358  0.4785 -0.5285
  792SOL     OW 3220   0.918   4.027   1.510  0.1803 -0.0222 -0.0186
  792SOL    HW2 3221   0.906   4.114   1.547 -0.1810 -0.4193  0.8220
  792SOL    HW3 3222   1.006   4.001   1.536  0.0897 -0.1222  0.1914
  792SOL    MW4 3223   0.928   4.035   1.518  0.1206 -0.0882  0.1200
  793SOL     OW 3224   0.905   4.285   1.610  0.4066  0.3273  0.2801
  793SOL    HW2 3225   0.906   4.270   1.705  0.6312  2.1072  0.5798
  793SOL    HW3 3226   0.813   4.304   1.590  0.4264  0.3667  0.2260
  793SOL    MW4 3227   0.893   4.286   1.620  0.4388  0.5674  0.3127
  794SOL     OW 3228   1.104   4.437   1.491 -0.8860 -0.1031 -0.0236
  794SOL    HW2 3229   1.038   4.386   1.538 -0.2853 -0.9124 -0.0456
  794SOL    HW3 3230   1.091   4.527   1.522 -0.9751 -0.5063  1.1306
  794SOL    MW4 3231   1.093   4.442   1.502 -0.8185 -0.2632  0.1259
  795SOL     OW 3232   1.560   0.000   1.596 -0.5485 -0.2892 -0.1482
  795SOL    HW2 3233   1.567  -0.006   1.692 -0.6383 -0.8128 -0.1749
  795SOL    HW3 3234   1.472   0.033   1.581  0.0570  1.4560  0.0081
  795SOL    MW4 3235   1.550   0.004   1.607 -0.4807 -0.1283 -0.1311
  796SOL     OW 3236   1.306   0.126   1.544  0.3243 -0.2259 -0.0607
  796SOL    HW2 3237   1.297   0.220   1.561 -0.0565 -0.2299 -0.2273
  796SOL    HW3 3238   1.302   0.118   1.449 -1.6655 -0.5967  0.0207
  796SOL    MW4 3239   1.304   0.137   1.534  0.0113 -0.2753 -0.0719
  797SOL     OW 3240   1.293   0.399   1.591 -0.4296  0.3749  0.3105
  797SOL    HW2 3241   1.373   0.448   1.571 -0.2262 -0.3081 -0.6230
  797SOL    HW3 3242   1.225   0.443   1.540  0.0574 -1.2636 -1.8530
  797SOL    MW4 3243   1.295   0.411   1.581 -0.3386  0.0686 -0.0981
  798SOL     OW 3244   1.527   0.506   1.535  0.2724 -0.6805  0.3718
  798SOL    HW2 3245   1.607   0.476   1.578  0.2539 -1.4731 -0.1324
  798SOL    HW3 3246   1.547   0.503   1.441 -0.4407 -1.2022  0.2243
  798SOL    MW4 3247   1.540   0.502   1.528  0.1758 -0.8540  0.2857
  799SOL     OW 3248   1.538   0.773   1.578 -0.0477 -0.0686 -0.2553
  799SOL    HW2 3249   1.561   0.784   1.670 -0.8667  1.5872 -0.2293
  799SOL    HW3 3250   1.531   0.679   1.566  1.6902 -0.3724  0.9675
  799SOL    MW4 3251   1.540   0.762   1.588  0.0737  0.1097 -0.0905
  800SOL     OW 3252   1.291   0.893   1.494  0.6766  0.2468 -0.5860
  800SOL    HW2 3253   1.380   0.883   1.528  1.3595 -0.4698 -2.4903
  800SOL    HW3 3254   1.302   0.900   1.399 -1.3466 -0.4312 -0.9058
  800SOL    MW4 3255   1.304   0.893   1.486  0.4997  0.0627 -0.8794
  801SOL     OW 3256   1.344   1.164   1.593 -0.0469 -0.1519 -0.3083
  801SOL    HW2 3257   1.344   1.160   1.689  0.9354  1.5515 -0.2136
  801SOL    HW3 3258   1.314   1.077   1.566 -0.1135 -0.7428  1.5345
  801SOL    MW4 3259   1.340   1.152   1.602  0.0739 -0.0051 -0.0527
  802SOL     OW 3260   1.573   1.270   1.485  0.1184 -0.2532 -0.3431
  802SOL    HW2 3261   1.499   1.217   1.514  0.3186  0.2165  1.0702
  802SOL    HW3 3262   1.556   1.286   1.392 -1.0890 -0.8997 -0.2446
  802SOL    MW4 3263   1.561   1.265   1.477 -0.0144 -0.2764 -0.1436
  803SOL     OW 3264   1.573   1.509   1.619  0.0260  0.0897  0.0410
  803SOL    HW2 3265   1.573   1.502   1.714  0.9316  1.3273  0.1543
  803SOL    HW3 3266   1.561   1.420   1.587 -0.6956 -0.2703  1.3157
  803SOL    MW4 3267   1.571   1.496   1.627  0.0502  0.2055  0.2241
  804SOL     OW 3268   1.351   1.648   1.494 -0.1342  0.3134  0.1840
  804SOL    HW2 3269   1.421   1.590   1.523 -0.1102  0.4036  0.3076
  804SOL    HW3 3270   1.363   1.656   1.399 -0.3516 -0.1669  0.1171
  804SOL    MW4 3271   1.362   1.642   1.485 -0.1596  0.2619  0.1916
  805SOL     OW 3272   1.419   1.884   1.609  0.6496 -0.1574  0.0208
  805SOL    HW2 3273   1.421   1.879   1.704  0.9414 -0.0500  0.0215
  805SOL    HW3 3274   1.398   1.795   1.581 -0.6094  0.0739  0.2153
  805SOL    MW4 3275   1.417   1.872   1.617  0.5220 -0.1127  0.0466
  806SOL     OW 3276   1.624   2.068   1.539  0.0373 -0.1240 -0.2479
  806SOL    HW2 3277   1.567   2.001   1.578  2.4552 -2.9340 -1.3956
  806SOL    HW3 3278   1.605   2.064   1.445  0.7919  0.2033 -0.4181
  806SOL    MW4 3279   1.614   2.058   1.532  0.4557 -0.4513 -0.4216
  807SOL     OW 3280   1.597   2.316   1.639 -0.1032  0.0755  0.6272
  807SOL    HW2 3281   1.669   2.369   1.604 -0.9299  1.1101  0.4490
  807SOL    HW3 3282   1.610   2.229   1.600  0.7763  0.3805  0.2226
  807SOL    MW4 3283   1.608   2.312   1.629 -0.0963  0.2525  0.5503
  808SOL     OW 3284   1.367   2.458   1.540  0.6016 -0.2983 -0.4428
  808SOL    HW2 3285   1.385   2.549   1.563  0.8826 -0.4396 -0.0943
  808SOL    HW3 3286   1.448   2.411   1.562  0.6735 -0.5316 -1.1897
  808SOL    MW4 3287   1.380   2.463   1.546  0.6480 -0.3476 -0.4952
  809SOL     OW 3288   1.614   2.852   1.535  0.0179 -0.2835 -0.2927
  809SOL    HW2 3289   1.611   2.847   1.440  0.3591 -0.6510 -0.2862
  809SOL    HW3 3290   1.530   2.817   1.564  0.9405 -2.6709 -0.3795
  809SOL    MW4 3291   1.603   2.847   1.526  0.1847 -0.6471 -0.3031
  810SOL     OW 3292   1.830   2.686   1.590 -0.7783  0.2662  0.5062
  810SOL    HW2 3293   1.755   2.741   1.568 -1.0318 -0.1718  0.2777
  810SOL    HW3 3294   1.906   2.741   1.572 -0.9996  0.2014 -0.7136
  810SOL    MW4 3295   1.830   2.700   1.584 -0.8408  0.2000  0.3153
  811SOL     OW 3296   1.586   3.127   1.619  0.1851  0.3219  0.1106
  811SOL    HW2 3297   1.666   3.168   1.585 -0.1527  0.8681 -0.0392
  811SOL    HW3 3298   1.587   3.038   1.583  0.0774  0.7441 -0.9601
  811SOL    MW4 3299   1.596   3.121   1.610  0.1264  0.4497 -0.0505
  812SOL     OW 3300   1.369   3.292   1.524 -0.0360 -0.1643 -0.1231
  812SOL    HW2 3301   1.346   3.379   1.558 -1.1659 -0.3266 -0.4240
  812SOL    HW3 3302   1.441   3.262   1.579 -0.8517  0.2076  1.1553
  812SOL    MW4 3303   1.375   3.299   1.535 -0.2928 -0.1366  0.0058
  813SOL     OW 3304   1.347   3.558   1.610 -0.5055 -0.0406  0.0441
  813SOL    HW2 3305   1.354   3.537   1.703  0.4246 -1.3695 -0.3128
  813SOL    HW3 3306   1.436   3.579   1.583 -1.0482  2.0930 -0.1611
  813SOL    MW4 3307   1.360   3.558   1.619 -0.4545  0.0653 -0.0300
  814SOL     OW 3308   1.607   3.611   1.527 -0.2743  0.0785 -0.1794
  814SOL    HW2 3309   1.599   3.699   1.563  1.0418 -0.7003  2.1263
  814SOL    HW3 3310   1.622   3.625   1.434  0.4432  2.3309  0.2307
  814SOL    MW4 3311   1.608   3.625   1.520 -0.0060  0.2728  0.1791
  815SOL     OW 3312   1.563   3.876   1.607  0.3594 -0.2157  0.7277
  815SOL    HW2 3313   1.553   3.872   1.702 -0.5488  0.0491  0.6544
  815SOL    HW3 3314   1.491   3.933   1.578  1.2589  0.5695 -0.0125
  815SOL    MW4 3315   1.552   3.883   1.616  0.3583 -0.0775  0.6204
  816SOL     OW 3316   1.356   4.049   1.530  0.3086 -0.1292  0.4450
  816SOL    HW2 3317   1.325   4.131   1.569 -1.8086 -1.2560  1.2369
  816SOL    HW3 3318   1.368   4.069   1.437 -0.8533  0.9189  0.5089
  816SOL    MW4 3319   1.353   4.062   1.523 -0.1240 -0.1402  0.5579
  817SOL     OW 3320   1.315   4.309   1.623  0.2490 -0.2660 -0.1407
  817SOL    HW2 3321   1.394   4.342   1.579 -0.0062 -1.0959 -1.2176
  817SOL    HW3 3322   1.242   4.346   1.573 -0.0388 -1.4694 -0.6322
  817SOL    MW4 3323   1.316   4.318   1.611  0.1774 -0.5341 -0.3476
  818SOL     OW 3324   1.570   4.399   1.502  0.1060  0.1227 -0.2991
  818SOL    HW2 3325   1.649   4.356   1.535 -0.9328 -0.5027  1.3901
  818SOL    HW3 3326   1.575   4.488   1.537  0.3945  0.2827 -0.7433
  818SOL    MW4 3327   1.581   4.405   1.511  0.0070  0.0610 -0.1349
  819SOL     OW 3328   2.031   4.630   1.627 -0.2168  0.1467  0.7861
  819SOL    HW2 3329   2.024   4.632   1.723 -1.8118 -1.3265  0.7348
  819SOL    HW3 3330   1.959   4.686   1.597  0.7884  1.2669  0.4523
  819SOL    MW4 3331   2.020   4.637   1.636 -0.2949  0.1001  0.7354
  820SOL     OW 3332   1.814   0.112   1.538 -0.1099  0.0625  0.0092
  820SOL    HW2 3333   1.735   0.064   1.563  0.9781 -1.8155 -0.0818
  820SOL    HW3 3334   1.811   0.116   1.442 -0.4190  0.5557  0.0394
  820SOL    MW4 3335   1.803   0.107   1.529 -0.0070 -0.1202  0.0012
  821SOL     OW 3336   1.761   0.372   1.623 -0.4597  0.4724  0.1594
  821SOL    HW2 3337   1.823   0.428   1.576 -0.8499  0.1483 -0.7464
  821SOL    HW3 3338   1.786   0.283   1.599 -2.0445  0.3718 -1.1947
  821SOL    MW4 3339   1.773   0.368   1.614 -0.7203  0.4164 -0.1389
  822SOL     OW 3340   1.976   0.541   1.525 -0.0140  0.0089 -0.4180
  822SOL    HW2 3341   2.063   0.507   1.546  0.4862  0.7683 -1.1958
  822SOL    HW3 3342   1.978   0.633   1.552 -0.6725 -0.0375 -0.1856
  822SOL    MW4 3343   1.988   0.548   1.531 -0.0348  0.1029 -0.4900
  823SOL     OW 3344   1.996   0.785   1.641 -0.5281 -0.1080  0.4352
  823SOL    HW2 3345   2.072   0.826   1.601 -0.2442  0.7976  1.8580
  823SOL    HW3 3346   1.922   0.816   1.589  0.1085 -1.8099 -1.6042
  823SOL    MW4 3347   1.996   0.794   1.629 -0.4064 -0.2131  0.3539
  824SOL     OW 3348   1.764   0.899   1.503  0.1403  0.0672  0.0907
  824SOL    HW2 3349   1.754   0.988   1.538 -0.7865 -0.9560  2.5323
  824SOL    HW3 3350   1.681   0.856   1.522  0.7291 -1.4696 -0.6951
  824SOL    MW4 3351   1.752   0.905   1.510  0.0957 -0.2705  0.3093
  825SOL     OW 3352   1.797   1.160   1.584  0.1534  0.2319  0.3166
  825SOL    HW2 3353   1.877   1.188   1.539 -1.3399  1.0821 -1.8844
  825SOL    HW3 3354   1.726   1.207   1.540 -1.5557 -0.3139  2.3906
  825SOL    MW4 3355   1.798   1.170   1.572 -0.2691  0.2720  0.2997
  826SOL     OW 3356   2.023   1.298   1.483 -0.1687  0.3206  0.3863
  826SOL    HW2 3357   2.010   1.379   1.532  1.0808  1.5046 -1.2031
  826SOL    HW3 3358   1.974   1.312   1.401 -0.6529 -0.8822  0.4545
  826SOL    MW4 3359   2.015   1.310   1.479 -0.0675  0.3182  0.1856
  827SOL     OW 3360   2.011   1.526   1.617  0.5282 -0.1378  0.2939
  827SOL    HW2 3361   2.082   1.572   1.571  2.1199 -2.1429  0.6692
  827SOL    HW3 3362   1.931   1.569   1.587  1.7924  1.1025 -1.3948
  827SOL    MW4 3363   2.010   1.538   1.607  0.9048 -0.2388  0.1206
  828SOL     OW 3364   1.788   1.655   1.521  0.0850  0.6925 -0.2208
  828SOL    HW2 3365   1.707   1.630   1.566  0.0062  1.7100  0.2104
  828SOL    HW3 3366   1.767   1.648   1.428 -0.0377 -0.5067 -0.1122
  828SOL    MW4 3367   1.775   1.651   1.515  0.0584  0.6685 -0.1497
  829SOL     OW 3368   1.839   1.910   1.632  0.2326 -0.3207 -0.1562
  829SOL    HW2 3369   1.814   1.822   1.602 -1.0237 -0.2268  0.6056
  829SOL    HW3 3370   1.775   1.968   1.592 -1.1168 -0.1329  2.2243
  829SOL    MW4 3371   1.828   1.906   1.623 -0.1112 -0.2835  0.2582
  830SOL     OW 3372   2.240   1.916   1.586  0.0714 -0.3332  0.0407
  830SOL    HW2 3373   2.246   1.925   1.681 -1.7117  0.2201  0.1143
  830SOL    HW3 3374   2.170   1.976   1.560  1.7806  0.8900 -1.8464
  830SOL    MW4 3375   2.231   1.925   1.595  0.0618 -0.0987 -0.1985
  831SOL     OW 3376   2.027   2.055   1.482 -0.2502 -0.0115 -0.4483
  831SOL    HW2 3377   2.036   2.142   1.522 -0.9108 -0.4135  0.5699
  831SOL    HW3 3378   1.964   2.009   1.536 -0.5320 -0.8572 -1.4717
  831SOL    MW4 3379   2.020   2.061   1.494 -0.3748 -0.1764 -0.4488
  832SOL     OW 3380   2.034   2.310   1.615  0.0017  0.2465 -0.0762
  832SOL    HW2 3381   2.029   2.312   1.710  0.6247 -0.7459 -0.0187
  832SOL    HW3 3382   1.951   2.347   1.586 -0.5485 -0.2465  0.8452
  832SOL    MW4 3383   2.023   2.315   1.624  0.0112  0.0505  0.0528
  833SOL     OW 3384   1.808   2.431   1.503  0.3277 -0.0596  0.0231
  833SOL    HW2 3385   1.809   2.522   1.532 -3.3773  0.3672 -0.9737
  833SOL    HW3 3386   1.779   2.435   1.412 -1.9712 -2.3475  0.6087
  833SOL    MW4 3387   1.804   2.444   1.495 -0.4643 -0.3049 -0.0312
  834SOL     OW 3388   2.052   2.824   1.512 -0.2795  0.1659  0.0283
  834SOL    HW2 3389   2.053   2.915   1.543 -2.7538  0.6692 -1.2654
  834SOL    HW3 3390   2.052   2.831   1.417 -2.1313 -1.1401 -0.0859
  834SOL    MW4 3391   2.052   2.837   1.503 -0.8502  0.0601 -0.1575
  835SOL     OW 3392   2.017   3.080   1.624  0.3855 -0.3145 -0.4171
  835SOL    HW2 3393   2.026   3.084   1.719 -1.9973 -2.1649 -0.0514
  835SOL    HW3 3394   2.089   3.132   1.591  0.9252  0.8401  2.4197
  835SOL    MW4 3395   2.028   3.087   1.632  0.1423 -0.4063  0.0055
  836SOL     OW 3396   1.805   3.248   1.534  0.1218  0.2753 -0.4377
  836SOL    HW2 3397   1.814   3.339   1.563 -0.9007 -0.1981  1.4128
  836SOL    HW3 3398   1.881   3.204   1.570  0.3472  0.2753 -0.9055
  836SOL    MW4 3399   1.816   3.254   1.542  0.0166  0.2129 -0.2553
  837SOL     OW 3400   1.839   3.508   1.634  0.0807  1.0626 -0.2243
  837SOL    HW2 3401   1.818   3.493   1.726  0.4745  0.6794 -0.1966
  837SOL    HW3 3402   1.760   3.547   1.597 -0.5073  0.0850 -0.0065
  837SOL    MW4 3403   1.826   3.511   1.641  0.0551  0.8829 -0.1919
  838SOL     OW 3404   2.064   3.617   1.487  0.4902 -0.3474 -0.8783
  838SOL    HW2 3405   2.138   3.561   1.508  1.1036  0.9716  0.5735
  838SOL    HW3 3406   1.992   3.584   1.542  1.1405  0.9360  0.7567
  838SOL    MW4 3407   2.064   3.605   1.497  0.6571 -0.0041 -0.4709
  839SOL     OW 3408   2.043   3.878   1.590  0.2245  0.2561 -0.0402
  839SOL    HW2 3409   2.118   3.917   1.545  1.8894 -0.1534  2.3214
  839SOL    HW3 3410   2.036   3.790   1.553  0.9427  0.2892 -0.2691
  839SOL    MW4 3411   2.052   3.871   1.579  0.5386  0.2065  0.2412
  840SOL     OW 3412   1.808   4.005   1.506  0.0313 -0.3852 -0.5630
  840SOL    HW2 3413   1.881   3.959   1.548  0.3273  0.9448  0.4455
  840SOL    HW3 3414   1.730   3.959   1.537  0.3032 -0.0282  0.6901
  840SOL    MW4 3415   1.807   3.993   1.516  0.1063 -0.1626 -0.2646
  841SOL     OW 3416   1.800   4.271   1.593 -0.2167 -0.6020 -0.5369
  841SOL    HW2 3417   1.886   4.302   1.565  0.0206 -1.8712 -1.2619
  841SOL    HW3 3418   1.795   4.181   1.560 -1.9333 -0.4427 -0.7483
  841SOL    MW4 3419   1.810   4.263   1.585 -0.4119 -0.7482 -0.6605
  842SOL     OW 3420   2.044   4.374   1.499  0.3154 -0.1641 -0.3052
  842SOL    HW2 3421   2.126   4.338   1.533  1.4490 -0.1281 -2.8489
  842SOL    HW3 3422   2.042   4.464   1.531  1.7602  0.1217 -0.9487
  842SOL    MW4 3423   2.055   4.382   1.507  0.6557 -0.1221 -0.7257
  843SOL     OW 3424   2.453   0.002   1.618 -0.0299 -0.4208 -0.0907
  843SOL    HW2 3425   2.449  -0.002   1.714 -0.3229  0.5076 -0.0630
  843SOL    HW3 3426   2.374   0.049   1.593 -0.0366 -0.8110 -0.8056
  843SOL    MW4 3427   2.442   0.008   1.627 -0.0696 -0.3495 -0.1814
  844SOL     OW 3428   2.237   0.134   1.536  0.0375  0.4738  0.1624
  844SOL    HW2 3429   2.169   0.078   1.574 -0.2771  1.0669  0.4842
  844SOL    HW3 3430   2.243   0.105   1.445  0.2804 -0.4577  0.4711
  844SOL    MW4 3431   2.229   0.123   1.529  0.0279  0.4292  0.2456
  845SOL     OW 3432   2.217   0.397   1.569 -0.1245 -0.4020 -0.0207
  845SOL    HW2 3433   2.217   0.404   1.665  1.5646  0.4438 -0.0676
  845SOL    HW3 3434   2.224   0.303   1.552  1.3582 -0.4356  0.6979
  845SOL    MW4 3435   2.218   0.385   1.580  0.2940 -0.2948  0.0678
  846SOL     OW 3436   2.457   0.509   1.471  0.2527 -0.1425  0.4782
  846SOL    HW2 3437   2.524   0.449   1.503 -0.5900 -0.8061  1.0265
  846SOL    HW3 3438   2.374   0.466   1.493 -0.3652  1.4395  1.3493
  846SOL    MW4 3439   2.454   0.496   1.478  0.0601 -0.0213  0.6654
  847SOL     OW 3440   2.421   0.782   1.596  0.6091  0.8635 -0.4999
  847SOL    HW2 3441   2.332   0.807   1.573  0.2462  0.6204  0.6474
  847SOL    HW3 3442   2.435   0.698   1.552  0.1909  0.7762 -0.4636
  847SOL    MW4 3443   2.411   0.774   1.587  0.5059  0.8199 -0.3437
  848SOL     OW 3444   2.188   0.903   1.506 -0.3324 -0.2237  0.0667
  848SOL    HW2 3445   2.201   0.995   1.526  0.3300 -0.1605 -0.6321
  848SOL    HW3 3446   2.185   0.900   1.410  0.4289 -1.0262  0.0625
  848SOL    MW4 3447   2.189   0.915   1.496 -0.1447 -0.3213 -0.0260
  849SOL     OW 3448   2.220   1.170   1.622 -0.3281  0.7112 -0.0165
  849SOL    HW2 3449   2.228   1.178   1.717 -3.6744 -0.4864  0.4288
  849SOL    HW3 3450   2.146   1.227   1.600 -2.2890 -2.2306 -1.2877
  849SOL    MW4 3451   2.211   1.179   1.632 -1.0285  0.1651 -0.1256
  850SOL     OW 3452   2.473   1.285   1.533 -0.2122 -0.2366  0.2463
  850SOL    HW2 3453   2.391   1.257   1.574  0.1169 -0.5520  0.7042
  850SOL    HW3 3454   2.450   1.303   1.442 -0.6135 -1.1623  0.1547
  850SOL    MW4 3455   2.459   1.284   1.527 -0.2217 -0.4003  0.2947
  851SOL     OW 3456   2.466   1.550   1.614 -0.1040 -0.3283  0.0581
  851SOL    HW2 3457   2.548   1.591   1.588  0.9066 -2.4775 -0.1742
  851SOL    HW3 3458   2.467   1.464   1.572 -2.6181 -0.2582 -0.2271
  851SOL    MW4 3459   2.477   1.544   1.605 -0.3023 -0.6025 -0.0101
  852SOL     OW 3460   2.206   1.677   1.238 -0.2224 -1.0571  0.0175
  852SOL    HW2 3461   2.225   1.676   1.332  1.6169 -0.4673 -0.3219
  852SOL    HW3 3462   2.214   1.769   1.214 -2.0366 -1.0197 -0.4715
  852SOL    MW4 3463   2.210   1.689   1.248 -0.2193 -0.9744 -0.0918
  853SOL     OW 3464   2.224   1.662   1.511 -0.0550  0.2545  0.1399
  853SOL    HW2 3465   2.215   1.754   1.535  0.1466  0.3584 -0.1760
  853SOL    HW3 3466   2.301   1.631   1.559 -0.5680  0.0474  0.8372
  853SOL    MW4 3467   2.233   1.670   1.520 -0.0961  0.2408  0.1904
  854SOL     OW 3468   2.474   2.047   1.492 -0.0529  0.0108  0.2930
  854SOL    HW2 3469   2.409   1.985   1.526  0.1242 -0.4348 -0.1771
  854SOL    HW3 3470   2.464   2.042   1.397  0.5709  0.0537  0.2279
  854SOL    MW4 3471   2.464   2.038   1.484  0.0527 -0.0424  0.2223
  855SOL     OW 3472   2.473   2.331   1.561  0.2542 -0.4959  0.1929
  855SOL    HW2 3473   2.457   2.323   1.655 -0.7741 -1.2827 -0.0416
  855SOL    HW3 3474   2.481   2.241   1.530  0.1488 -0.2551 -0.5464
  855SOL    MW4 3475   2.472   2.318   1.569  0.1049 -0.5677  0.0644
  856SOL     OW 3476   2.237   2.449   1.463 -0.4212 -0.2246 -0.4827
  856SOL    HW2 3477   2.313   2.411   1.507 -0.4852  1.3582  1.0575
  856SOL    HW3 3478   2.162   2.401   1.499 -0.4511  0.8840  0.9539
  856SOL    MW4 3479   2.237   2.437   1.474 -0.4337  0.1304 -0.0899
  857SOL     OW 3480   2.263   2.687   1.607 -0.1340 -0.2682 -0.4128
  857SOL    HW2 3481   2.265   2.606   1.557 -2.3579 -0.4071 -0.3230
  857SOL    HW3 3482   2.182   2.731   1.579 -0.2555  0.7074  1.3954
  857SOL    MW4 3483   2.253   2.682   1.597 -0.4435 -0.1576 -0.1624
  858SOL     OW 3484   2.509   2.864   1.488  0.3405 -0.6008 -0.2869
  858SOL    HW2 3485   2.526   2.950   1.526  0.9113 -0.4132 -0.9596
  858SOL    HW3 3486   2.429   2.834   1.532 -0.6762  0.8772 -1.1007
  858SOL    MW4 3487   2.501   2.871   1.499  0.2816 -0.3810 -0.4830
  859SOL     OW 3488   2.458   3.113   1.608  0.0655  0.4549  0.3000
  859SOL    HW2 3489   2.530   3.153   1.558 -0.7789  1.1344 -0.4047
  859SOL    HW3 3490   2.379   3.136   1.558 -0.4780 -1.9064  0.0147
  859SOL    MW4 3491   2.457   3.121   1.595 -0.1178  0.2329  0.1693
  860SOL     OW 3492   2.227   3.210   1.483 -0.1416 -0.5137 -0.2375
  860SOL    HW2 3493   2.250   3.298   1.515  0.0162 -1.0145  1.0483
  860SOL    HW3 3494   2.238   3.216   1.388  0.5379  0.6725 -0.1003
  860SOL    MW4 3495   2.232   3.223   1.474 -0.0308 -0.4232 -0.0497
  861SOL     OW 3496   2.291   3.463   1.563 -0.4765  0.1377 -0.1573
  861SOL    HW2 3497   2.279   3.483   1.656  1.9390 -0.6131  0.3489
  861SOL    HW3 3498   2.364   3.518   1.535 -0.9542  0.0902 -1.5321
  861SOL    MW4 3499   2.299   3.473   1.572 -0.2208  0.0324 -0.2718
  862SOL     OW 3500   2.494   3.644   1.487  0.1056  0.1020 -0.2025
  862SOL    HW2 3501   2.564   3.599   1.533  0.1110 -1.3955 -1.6479
  862SOL    HW3 3502   2.489   3.730   1.529  0.5240 -0.9947  2.1417
  862SOL    MW4 3503   2.502   3.650   1.498  0.1616 -0.2403 -0.0839
  863SOL     OW 3504   2.483   3.887   1.598 -0.2885  0.6061 -0.2889
  863SOL    HW2 3505   2.493   3.877   1.692 -0.7459  2.4224 -0.0130
  863SOL    HW3 3506   2.558   3.941   1.571  0.1914 -0.4358 -1.0688
  863SOL    MW4 3507   2.494   3.893   1.607 -0.2854  0.7083 -0.3552
  864SOL     OW 3508   2.279   4.028   1.489 -0.2846 -0.2972 -0.2974
  864SOL    HW2 3509   2.360   3.987   1.520 -0.1211  0.0746 -0.2316
  864SOL    HW3 3510   2.279   4.011   1.395 -0.7176 -1.3163 -0.1238
  864SOL    MW4 3511   2.290   4.020   1.480 -0.3202 -0.3824 -0.2660
  865SOL     OW 3512   2.274   4.285   1.615  0.2909  0.2068 -0.3610
  865SOL    HW2 3513   2.360   4.321   1.595  1.2978 -1.8229  0.1564
  865SOL    HW3 3514   2.277   4.195   1.582 -0.5085 -0.9074  2.3792
  865SOL    MW4 3515   2.286   4.278   1.608  0.3183 -0.2079  0.0688
  866SOL     OW 3516   2.506   4.404   1.535  0.2114  0.1078 -0.1311
  866SOL    HW2 3517   2.503   4.496   1.561  0.3591  0.1161 -0.1434
  866SOL    HW3 3518   2.500   4.406   1.439 -1.6354  0.0186 -0.0392
  866SOL    MW4 3519   2.505   4.416   1.526 -0.0126  0.0963 -0.1205
  867SOL     OW 3520   2.892   4.630   1.617  0.1373 -0.7265  0.2140
  867SOL    HW2 3521   2.886   4.644   1.711 -1.2390 -0.0130  0.0293
  867SOL    HW3 3522   2.822   4.684   1.580 -0.3344 -2.2019 -1.0928
  867SOL    MW4 3523   2.882   4.639   1.624 -0.1066 -0.8268  0.0172
  868SOL     OW 3524   2.688   0.108   1.515  0.0234  0.0598  0.1535
  868SOL    HW2 3525   2.690   0.196   1.552  1.1597 -0.4406  1.3235
  868SOL    HW3 3526   2.609   0.068   1.553  0.3207  0.0824  0.8030
  868SOL    MW4 3527   2.678   0.114   1.525  0.2124 -0.0033  0.3935
  869SOL     OW 3528   2.681   0.371   1.573 -0.0353 -0.6939  0.6397
  869SOL    HW2 3529   2.672   0.378   1.668 -0.0824 -1.8177  0.7309
  869SOL    HW3 3530   2.755   0.428   1.552 -0.2907 -0.1157  1.3032
  869SOL    MW4 3531   2.690   0.379   1.583 -0.0756 -0.7659  0.7393
  870SOL     OW 3532   2.918   0.495   1.528  0.2136 -0.3495 -0.6213
  870SOL    HW2 3533   2.906   0.588   1.546 -0.9152 -0.7448  0.6843
  870SOL    HW3 3534   2.914   0.488   1.432 -0.3074  0.8534 -0.6887
  870SOL    MW4 3535   2.916   0.506   1.517 -0.0041 -0.2429 -0.4580
  871SOL     OW 3536   2.893   0.761   1.577  0.5073 -0.5760 -0.5799
  871SOL    HW2 3537   2.894   0.764   1.673  0.1169 -0.2062 -0.5888
  871SOL    HW3 3538   2.815   0.809   1.552  1.0187 -0.0098 -1.1166
  871SOL    MW4 3539   2.883   0.767   1.586  0.5231 -0.4525 -0.6518
  872SOL     OW 3540   2.661   0.913   1.493 -0.5178 -0.3391 -0.0114
  872SOL    HW2 3541   2.584   0.864   1.520  0.4850 -1.7720  0.3186
  872SOL    HW3 3542   2.656   0.914   1.397 -0.2785 -1.5764 -0.0528
  872SOL    MW4 3543   2.651   0.907   1.484 -0.3541 -0.6914  0.0266
  873SOL     OW 3544   2.705   1.169   1.615  0.1331  0.0413  0.1916
  873SOL    HW2 3545   2.709   1.088   1.566  2.1603 -0.0287  0.4119
  873SOL    HW3 3546   2.619   1.206   1.595 -0.8209 -2.1583  0.1229
  873SOL    MW4 3547   2.694   1.163   1.606  0.2749 -0.2581  0.2116
  874SOL     OW 3548   2.923   1.326   1.541  0.4759  0.9941 -0.2113
  874SOL    HW2 3549   2.989   1.265   1.574  0.3840  0.5692 -0.8113
  874SOL    HW3 3550   2.840   1.284   1.560  0.4176  0.8474 -0.8029
  874SOL    MW4 3551   2.921   1.313   1.548  0.4561  0.9187 -0.3686
  875SOL     OW 3552   2.894   1.572   1.671  0.8721  0.0224  0.2335
  875SOL    HW2 3553   2.815   1.607   1.629  1.6259  1.0197 -0.3757
  875SOL    HW3 3554   2.903   1.484   1.635 -0.2904 -0.3304  0.7592
  875SOL    MW4 3555   2.885   1.565   1.661  0.8180  0.1074  0.2224
  876SOL     OW 3556   2.693   1.700   1.528  0.4256  0.2022 -0.0374
  876SOL    HW2 3557   2.718   1.790   1.547  1.4403 -0.0703 -0.0247
  876SOL    HW3 3558   2.689   1.695   1.433 -0.8727  0.5804 -0.0079
  876SOL    MW4 3559   2.696   1.711   1.518  0.3881  0.2161 -0.0318
  877SOL     OW 3560   2.725   1.983   1.629 -0.6461 -0.4514 -0.3506
  877SOL    HW2 3561   2.715   1.960   1.721  1.6657  2.4950  0.7234
  877SOL    HW3 3562   2.635   1.993   1.597 -1.5022  0.7773  2.2412
  877SOL    MW4 3563   2.712   1.981   1.637 -0.4542  0.0995  0.1329
  878SOL     OW 3564   2.927   2.083   1.486 -0.2885 -0.4568 -0.2858
  878SOL    HW2 3565   2.921   2.176   1.507 -0.2786 -0.7348  0.9917
  878SOL    HW3 3566   2.855   2.043   1.536 -0.1406 -1.1675 -0.6355
  878SOL    MW4 3567   2.917   2.090   1.496 -0.2675 -0.5875 -0.1633
  879SOL     OW 3568   2.942   2.347   1.606  0.0852 -0.1249 -0.2026
  879SOL    HW2 3569   2.941   2.354   1.701  0.4080  0.8530 -0.2582
  879SOL    HW3 3570   2.858   2.385   1.578 -0.3223 -1.0794 -0.2685
  879SOL    MW4 3571   2.931   2.353   1.615  0.0739 -0.1218 -0.2186
  880SOL     OW 3572   2.708   2.462   1.512 -0.0519 -0.0176 -0.3384
  880SOL    HW2 3573   2.697   2.554   1.536  0.6136 -0.1064  0.3088
  880SOL    HW3 3574   2.623   2.421   1.530 -0.4584  0.5388 -0.9640
  880SOL    MW4 3575   2.695   2.469   1.517 -0.0179  0.0443 -0.3356
  881SOL     OW 3576   2.703   2.722   1.609 -0.1066 -0.0563  0.5982
  881SOL    HW2 3577   2.782   2.755   1.565  0.8898 -1.1075  1.5758
  881SOL    HW3 3578   2.632   2.775   1.573  0.9992  0.6753 -0.5501
  881SOL    MW4 3579   2.704   2.733   1.599  0.1707 -0.0987  0.5757
  882SOL     OW 3580   2.920   2.862   1.500 -0.4638 -0.0349 -0.8370
  882SOL    HW2 3581   2.979   2.817   1.562 -1.6846  0.0608  0.4211
  882SOL    HW3 3582   2.911   2.950   1.536 -2.3674 -0.4228 -0.2932
  882SOL    MW4 3583   2.927   2.867   1.513 -0.8759 -0.0734 -0.5991
  883SOL     OW 3584   2.880   3.122   1.571  0.2514  0.3919  0.2561
  883SOL    HW2 3585   2.903   3.108   1.663 -0.0678 -0.2321  0.2398
  883SOL    HW3 3586   2.955   3.170   1.535  0.8263 -0.2411  0.5964
  883SOL    MW4 3587   2.893   3.126   1.578  0.2851  0.2260  0.2987
  884SOL     OW 3588   2.650   3.222   1.429  0.0269  0.0478  0.1129
  884SOL    HW2 3589   2.725   3.172   1.461 -0.5620 -0.9206 -0.0110
  884SOL    HW3 3590   2.633   3.187   1.341 -1.2394 -0.5005  0.5578
  884SOL    MW4 3591   2.657   3.211   1.421 -0.2177 -0.1523  0.1553
  885SOL     OW 3592   2.686   3.477   1.612  0.4474  0.4205 -0.4848
  885SOL    HW2 3593   2.688   3.442   1.701 -0.5446  2.4472  0.3536
  885SOL    HW3 3594   2.681   3.399   1.556 -0.2033 -0.8265  1.2722
  885SOL    MW4 3595   2.685   3.462   1.616  0.2306  0.5233 -0.1423
  886SOL     OW 3596   2.921   3.603   1.509  0.1291  0.4420  0.0775
  886SOL    HW2 3597   2.851   3.548   1.542  0.7894 -0.0348  0.6976
  886SOL    HW3 3598   2.897   3.620   1.418 -0.4448 -0.2895  0.0855
  886SOL    MW4 3599   2.909   3.598   1.501  0.1402  0.2825  0.1603
  887SOL     OW 3600   2.910   3.862   1.602  0.1445  0.5721 -0.4952
  887SOL    HW2 3601   2.831   3.905   1.569 -0.6473  1.0988  1.9554
  887SOL    HW3 3602   2.896   3.769   1.585 -1.1164  0.6422  0.1126
  887SOL    MW4 3603   2.898   3.855   1.596 -0.1259  0.6506 -0.0917
  888SOL     OW 3604   2.697   4.016   1.517 -0.6309 -0.3241 -0.0307
  888SOL    HW2 3605   2.711   4.106   1.546  0.6339 -0.0479 -1.4448
  888SOL    HW3 3606   2.675   4.024   1.424 -0.7004 -1.4674 -0.1219
  888SOL    MW4 3607   2.696   4.029   1.509 -0.4733 -0.4387 -0.2292
  889SOL     OW 3608   2.731   4.266   1.620 -0.1740  0.1345 -0.2813
  889SOL    HW2 3609   2.808   4.302   1.577 -0.1333  0.5144  0.1047
  889SOL    HW3 3610   2.658   4.318   1.587 -0.0661  0.8358  0.5797
  889SOL    MW4 3611   2.731   4.277   1.610 -0.1545  0.2770 -0.1168
  890SOL     OW 3612   2.952   4.386   1.501 -0.3480  0.0690  0.5698
  890SOL    HW2 3613   2.939   4.475   1.534 -0.8172  0.1433  0.1876
  890SOL    HW3 3614   2.947   4.395   1.406  0.3025 -0.2585  0.5012
  890SOL    MW4 3615   2.950   4.399   1.493 -0.3238  0.0353  0.5103
  891SOL     OW 3616   3.365   4.625   1.660 -0.0468  0.0633  0.5105
  891SOL    HW2 3617   3.427   4.673   1.606 -1.8807  3.4821  1.2733
  891SOL    HW3 3618   3.350   4.543   1.613  3.2273  0.1721 -0.8358
  891SOL    MW4 3619   3.371   4.621   1.647  0.1433  0.5283  0.4336
  892SOL     OW 3620   3.149   0.081   1.557 -0.2719 -0.2347  0.6815
  892SOL    HW2 3621   3.224   0.051   1.608 -0.9347 -0.5098  1.4865
  892SOL    HW3 3622   3.073   0.039   1.597 -1.0364  1.2581  0.8496
  892SOL    MW4 3623   3.149   0.072   1.569 -0.4601 -0.0740  0.8099
  893SOL     OW 3624   3.152   0.361   1.613 -0.1519 -0.1391  0.1804
  893SOL    HW2 3625   3.154   0.275   1.571  0.1403  0.0915 -0.2969
  893SOL    HW3 3626   3.081   0.408   1.568 -0.5561 -0.2537  0.6934
  893SOL    MW4 3627   3.143   0.356   1.601 -0.1667 -0.1238  0.1851
  894SOL     OW 3628   3.368   0.496   1.520 -0.0691  0.2033  0.2322
  894SOL    HW2 3629   3.289   0.454   1.555 -0.1979  0.0789 -0.2021
  894SOL    HW3 3630   3.354   0.497   1.426  0.3006  0.4901  0.1820
  894SOL    MW4 3631   3.356   0.491   1.512 -0.0374  0.2247  0.1683
  895SOL     OW 3632   3.331   0.758   1.631  0.2867  0.0698  0.2262
  895SOL    HW2 3633   3.320   0.737   1.724  0.2545  1.4781  0.5510
  895SOL    HW3 3634   3.363   0.677   1.592 -0.4260 -0.7540  1.3277
  895SOL    MW4 3635   3.334   0.745   1.638  0.1886  0.1469  0.4145
  896SOL     OW 3636   3.110   0.909   1.529  0.2126 -0.4714  0.1257
  896SOL    HW2 3637   3.185   0.852   1.545 -0.2303 -1.0236  0.2692
  896SOL    HW3 3638   3.034   0.852   1.542 -0.2443  0.2550  0.6608
  896SOL    MW4 3639   3.110   0.894   1.532  0.0942 -0.4485  0.2152
  897SOL     OW 3640   3.132   1.160   1.646  0.4026  0.0708 -0.1680
  897SOL    HW2 3641   3.147   1.131   1.736  0.0051  1.3021  0.3034
  897SOL    HW3 3642   3.121   1.079   1.596  0.2500 -0.6110  0.9582
  897SOL    MW4 3643   3.132   1.145   1.651  0.3300  0.1433  0.0428
  898SOL     OW 3644   3.385   1.280   1.566 -0.2117  0.2461  0.0598
  898SOL    HW2 3645   3.312   1.230   1.604 -0.3765  0.5849  0.1915
  898SOL    HW3 3646   3.463   1.232   1.592 -0.3749  0.0059  0.1098
  898SOL    MW4 3647   3.385   1.267   1.574 -0.2551  0.2590  0.0838
  899SOL     OW 3648   3.363   1.547   1.630  0.1530 -0.0302  0.0947
  899SOL    HW2 3649   3.346   1.536   1.724  0.1492  0.8127  0.1980
  899SOL    HW3 3650   3.362   1.458   1.595 -0.5671 -0.3007  0.7749
  899SOL    MW4 3651   3.360   1.534   1.638  0.0575  0.0453  0.1980
  900SOL     OW 3652   3.133   1.680   1.543 -0.3287 -0.6125  0.2094
  900SOL    HW2 3653   3.210   1.634   1.577  0.2405  0.7139  0.7719
  900SOL    HW3 3654   3.060   1.645   1.594  0.1146 -0.8489  0.6880
  900SOL    MW4 3655   3.134   1.670   1.554 -0.1953 -0.4687  0.3468
  901SOL     OW 3656   3.153   1.947   1.615  0.3332  0.3936  0.5024
  901SOL    HW2 3657   3.141   1.857   1.585 -1.7284  0.3060  1.5138
  901SOL    HW3 3658   3.087   1.997   1.568  0.3397  1.0873  1.2269
  901SOL    MW4 3659   3.143   1.942   1.605  0.0620  0.4736  0.7315
  902SOL     OW 3660   3.398   2.079   1.523  0.6678  0.1524  0.3174
  902SOL    HW2 3661   3.330   2.020   1.558  0.3135 -0.2204 -0.9826
  902SOL    HW3 3662   3.376   2.089   1.431  1.5012  1.2775  0.2378
  902SOL    MW4 3663   3.386   2.072   1.516  0.7310  0.2515  0.1354
  903SOL     OW 3664   3.366   2.328   1.633 -0.1764 -0.2089  0.0087
  903SOL    HW2 3665   3.442   2.371   1.595 -0.5808  0.3800 -0.1337
  903SOL    HW3 3666   3.374   2.237   1.604  0.6186 -0.2141  0.2188
  903SOL    MW4 3667   3.377   2.321   1.624 -0.1249 -0.1318  0.0175
  904SOL     OW 3668   3.154   2.486   1.509  0.3265  0.1889  0.3176
  904SOL    HW2 3669   3.225   2.437   1.552 -0.1948 -0.4055  0.5044
  904SOL    HW3 3670   3.074   2.445   1.541 -0.0934  0.5103 -0.3172
  904SOL    MW4 3671   3.153   2.474   1.519  0.2019  0.1528  0.2584
  905SOL     OW 3672   3.134   2.742   1.614 -0.2804  0.4173 -0.0627
  905SOL    HW2 3673   3.216   2.791   1.613 -0.0212 -0.0132  0.0048
  905SOL    HW3 3674   3.156   2.658   1.575 -0.1505 -0.5673  2.0642
  905SOL    MW4 3675   3.148   2.737   1.609 -0.2291  0.2308  0.2269
  906SOL     OW 3676   3.391   2.848   1.519 -0.0848 -0.5788 -0.1633
  906SOL    HW2 3677   3.394   2.941   1.543  0.3725 -0.8689  0.9280
  906SOL    HW3 3678   3.391   2.848   1.424 -1.9639  0.6091 -0.2013
  906SOL    MW4 3679   3.391   2.860   1.510 -0.2728 -0.4599 -0.0244
  907SOL     OW 3680   3.347   3.109   1.614 -0.7167  0.6072  0.5662
  907SOL    HW2 3681   3.366   3.113   1.708 -0.1665 -0.5385  0.5055
  907SOL    HW3 3682   3.426   3.141   1.572 -0.8026  0.6994  0.4726
  907SOL    MW4 3683   3.360   3.114   1.621 -0.6554  0.4683  0.5459
  908SOL     OW 3684   3.126   3.222   1.454  0.3303 -0.7235 -0.1463
  908SOL    HW2 3685   3.190   3.170   1.502 -0.7919 -1.5992  0.4277
  908SOL    HW3 3686   3.142   3.201   1.362  1.4348 -0.2643 -0.0663
  908SOL    MW4 3687   3.137   3.213   1.448  0.3278 -0.7784 -0.0600
  909SOL     OW 3688   3.174   3.476   1.556 -0.3461 -0.1781  0.2878
  909SOL    HW2 3689   3.179   3.387   1.521 -1.2628 -0.8628  1.8673
  909SOL    HW3 3690   3.090   3.509   1.525 -0.6333 -0.3653  0.8691
  909SOL    MW4 3691   3.164   3.468   1.547 -0.5050 -0.2925  0.5729
  910SOL     OW 3692   3.387   3.622   1.457  0.0081  0.1891 -0.3074
  910SOL    HW2 3693   3.453   3.569   1.502 -0.2159  1.6468  1.8237
  910SOL    HW3 3694   3.303   3.592   1.494 -0.2723  0.6870 -0.5376
  910SOL    MW4 3695   3.384   3.611   1.468 -0.0584  0.4475 -0.0565
  911SOL     OW 3696   3.380   3.847   1.618 -0.3999  0.1971 -0.5556
  911SOL    HW2 3697   3.296   3.884   1.592 -0.5190 -0.1403 -0.6433
  911SOL    HW3 3698   3.387   3.765   1.570  0.8786  1.1800 -2.1108
  911SOL    MW4 3699   3.370   3.841   1.608 -0.2470  0.2823 -0.7725
  912SOL     OW 3700   3.153   3.952   1.509 -0.0587 -0.0067 -0.4036
  912SOL    HW2 3701   3.150   4.036   1.555 -0.8105  0.7900 -1.8884
  912SOL    HW3 3702   3.069   3.911   1.529  0.7264 -0.9196  1.2044
  912SOL    MW4 3703   3.142   3.958   1.518 -0.0546 -0.0219 -0.3874
  913SOL     OW 3704   3.167   4.218   1.605 -0.3868  0.4886 -0.2882
  913SOL    HW2 3705   3.166   4.230   1.700 -0.7764 -0.4835 -0.1648
  913SOL    HW3 3706   3.099   4.277   1.573 -0.1106  0.9763  0.0128
  913SOL    MW4 3707   3.158   4.228   1.613 -0.4017  0.4249 -0.2323
  914SOL     OW 3708   3.392   4.362   1.557 -0.2568  0.0682  0.2654
  914SOL    HW2 3709   3.319   4.300   1.565  0.8143 -1.4961 -1.6413
  914SOL    HW3 3710   3.406   4.370   1.463 -0.4484  3.3820  0.4543
  914SOL    MW4 3711   3.384   4.355   1.545 -0.1409  0.2985  0.0387
  915SOL     OW 3712   3.797   0.004   1.599  0.4893  0.2957  0.2357
  915SOL    HW2 3713   3.788  -0.010   1.693  1.0494  0.8333  0.3699
  915SOL    HW3 3714   3.880   0.050   1.589  0.4693  0.1728 -0.5308
  915SOL    MW4 3715   3.806   0.008   1.610  0.5605  0.3504  0.1523
  916SOL     OW 3716   3.554   0.091   1.497  0.4573 -0.1817  0.4197
  916SOL    HW2 3717   3.644   0.057   1.502  0.8080  0.6299 -0.1465
  916SOL    HW3 3718   3.535   0.095   1.403 -0.5152 -1.2205  0.5717
  916SOL    MW4 3719   3.564   0.087   1.485  0.3753 -0.2117  0.3650
  917SOL     OW 3720   3.575   0.335   1.613  0.0703  0.5748 -0.0225
  917SOL    HW2 3721   3.557   0.245   1.586 -0.9526  0.3983  1.2291
  917SOL    HW3 3722   3.500   0.385   1.580 -0.1211  0.7106  0.6196
  917SOL    MW4 3723   3.563   0.329   1.605 -0.0899  0.5694  0.2273
  918SOL     OW 3724   3.803   0.465   1.507 -0.2843  0.0480  0.3951
  918SOL    HW2 3725   3.717   0.436   1.539 -0.9275  0.6909 -0.7277
  918SOL    HW3 3726   3.795   0.463   1.412  0.5477  1.2919  0.2881
  918SOL    MW4 3727   3.790   0.461   1.499 -0.2596  0.2970  0.2328
  919SOL     OW 3728   3.850   0.725   1.596  0.0773 -0.4322  0.1710
  919SOL    HW2 3729   3.771   0.779   1.588 -0.0116 -0.6476 -0.4476
  919SOL    HW3 3730   3.823   0.639   1.564  0.4544 -0.6130  0.3421
  919SOL    MW4 3731   3.836   0.721   1.591  0.1154 -0.4845  0.1119
  920SOL     OW 3732   3.587   0.846   1.567  0.5719 -0.4959  0.2847
  920SOL    HW2 3733   3.504   0.814   1.602 -0.4152  2.1753  0.4741
  920SOL    HW3 3734   3.570   0.859   1.474  1.0345 -0.7382  0.1657
  920SOL    MW4 3735   3.574   0.844   1.559  0.5023 -0.1754  0.2941
  921SOL     OW 3736   3.598   1.115   1.633  0.6182  0.0624  0.1721
  921SOL    HW2 3737   3.662   1.143   1.568  1.1162 -1.2519  0.0907
  921SOL    HW3 3738   3.587   1.021   1.618  1.3854 -0.4492  2.5306
  921SOL    MW4 3739   3.605   1.106   1.622  0.7851 -0.1785  0.4725
  922SOL     OW 3740   3.792   1.260   1.491  0.2873  0.1244 -0.3290
  922SOL    HW2 3741   3.868   1.218   1.531 -0.6098 -0.0043  1.2550
  922SOL    HW3 3742   3.784   1.344   1.536 -0.9204 -0.1573 -0.0055
  922SOL    MW4 3743   3.801   1.265   1.502  0.0098  0.0703 -0.0774
  923SOL     OW 3744   3.818   1.529   1.642  0.1833 -0.4913  0.3917
  923SOL    HW2 3745   3.809   1.508   1.735  0.7424  0.2744  0.6304
  923SOL    HW3 3746   3.748   1.592   1.624  1.2916  0.9099  0.8044
  923SOL    MW4 3747   3.808   1.535   1.652  0.4032 -0.2055  0.4777
  924SOL     OW 3748   3.590   1.660   1.538  0.1034  0.0272 -0.1093
  924SOL    HW2 3749   3.510   1.614   1.565  0.5709 -1.0747 -0.5845
  924SOL    HW3 3750   3.586   1.660   1.443 -0.2339  1.5883 -0.0968
  924SOL    MW4 3751   3.579   1.654   1.529  0.1206  0.0879 -0.1702
  925SOL     OW 3752   3.597   1.920   1.629 -0.0490  0.3208 -0.0637
  925SOL    HW2 3753   3.590   1.832   1.591  0.5833 -0.3932  1.3892
  925SOL    HW3 3754   3.531   1.972   1.583  0.1676 -0.6969 -1.5508
  925SOL    MW4 3755   3.587   1.915   1.618  0.0632  0.0924 -0.0683
  926SOL     OW 3756   3.833   2.039   1.518 -0.0772 -0.1358 -0.3716
  926SOL    HW2 3757   3.833   2.130   1.546 -0.3758  0.4267 -2.1134
  926SOL    HW3 3758   3.757   2.000   1.561 -0.0538  0.4858  0.2358
  926SOL    MW4 3759   3.823   2.046   1.527 -0.1137  0.0205 -0.5213
  927SOL     OW 3760   3.832   2.314   1.582 -0.0312 -0.0394 -0.1321
  927SOL    HW2 3761   3.827   2.325   1.677 -1.5681 -0.0389 -0.2120
  927SOL    HW3 3762   3.900   2.377   1.556 -1.1378  1.5635  0.7126
  927SOL    MW4 3763   3.841   2.324   1.591 -0.3798  0.1719 -0.0312
  928SOL     OW 3764   3.586   2.460   1.495 -0.2099 -0.0885 -0.0845
  928SOL    HW2 3765   3.590   2.554   1.515 -0.6046 -0.1834  0.4406
  928SOL    HW3 3766   3.671   2.426   1.523 -0.0683  0.1024 -0.2669
  928SOL    MW4 3767   3.598   2.468   1.501 -0.2437 -0.0758 -0.0393
  929SOL     OW 3768   3.628   2.706   1.583 -0.1613  0.2381  0.0805
  929SOL    HW2 3769   3.647   2.701   1.677 -0.1554 -0.3245  0.0497
  929SOL    HW3 3770   3.546   2.756   1.578 -0.0335  0.4835  0.3654
  929SOL    MW4 3771   3.620   2.712   1.595 -0.1435  0.1965  0.1141
  930SOL     OW 3772   3.819   2.900   1.531 -0.4309  0.2130  0.2545
  930SOL    HW2 3773   3.897   2.850   1.552 -0.3962  0.5693  1.0080
  930SOL    HW3 3774   3.746   2.841   1.551 -0.3625  0.0029 -0.1176
  930SOL    MW4 3775   3.819   2.886   1.536 -0.4172  0.2322  0.3049
  931SOL     OW 3776   3.829   3.166   1.584 -0.1457  0.1855  0.2400
  931SOL    HW2 3777   3.888   3.211   1.524 -1.4124  1.5807 -0.0018
  931SOL    HW3 3778   3.832   3.074   1.557  1.9740  0.2267  0.3091
  931SOL    MW4 3779   3.837   3.160   1.573 -0.0331  0.3750  0.2172
  932SOL     OW 3780   3.572   3.237   1.493 -0.1578 -0.2024 -0.2895
  932SOL    HW2 3781   3.661   3.215   1.519  0.2754  0.2843 -1.3068
  932SOL    HW3 3782   3.581   3.267   1.402 -0.9448  2.5049  0.4808
  932SOL    MW4 3783   3.585   3.238   1.484 -0.2046  0.2189 -0.3220
  933SOL     OW 3784   3.566   3.508   1.602 -0.0495  0.0845  0.1502
  933SOL    HW2 3785   3.650   3.535   1.567 -0.1227  0.6314  0.3989
  933SOL    HW3 3786   3.563   3.413   1.586 -1.1579  0.6678 -3.6506
  933SOL    MW4 3787   3.576   3.499   1.596 -0.2055  0.2337 -0.3183
  934SOL     OW 3788   3.795   3.612   1.502 -0.2352 -0.3552 -0.5578
  934SOL    HW2 3789   3.878   3.571   1.526  0.8791  1.1782 -1.6570
  934SOL    HW3 3790   3.798   3.698   1.545 -1.2333 -0.2671 -0.6581
  934SOL    MW4 3791   3.807   3.618   1.511 -0.2196 -0.1409 -0.7160
  935SOL     OW 3792   3.813   3.858   1.628 -0.3937 -0.5739 -0.0018
  935SOL    HW2 3793   3.888   3.908   1.598 -0.7718 -0.3778 -0.6368
  935SOL    HW3 3794   3.737   3.906   1.594 -0.9550  0.9427  3.1510
  935SOL    MW4 3795   3.813   3.871   1.620 -0.5178 -0.3479  0.3304
  936SOL     OW 3796   3.592   3.986   1.512  0.5329  0.0409  0.8433
  936SOL    HW2 3797   3.595   4.071   1.556  1.3406  0.1278  0.6326
  936SOL    HW3 3798   3.524   3.938   1.558  0.8591  0.3959  1.7115
  936SOL    MW4 3799   3.583   3.991   1.524  0.6826  0.0992  0.9302
  937SOL     OW 3800   3.621   4.230   1.644 -0.3482 -0.5605 -0.5532
  937SOL    HW2 3801   3.623   4.237   1.739 -0.3337  0.5348 -0.6302
  937SOL    HW3 3802   3.537   4.269   1.619  0.0288 -0.0584 -1.0493
  937SOL    MW4 3803   3.610   4.236   1.653 -0.2961 -0.3500 -0.6288
  938SOL     OW 3804   3.812   4.396   1.511  0.0391 -0.2640 -0.1390
  938SOL    HW2 3805   3.742   4.346   1.553  0.1264 -0.7498 -0.5695
  938SOL    HW3 3806   3.802   4.484   1.546 -0.4345 -0.4624  0.2378
  938SOL    MW4 3807   3.801   4.401   1.521 -0.0119 -0.3543 -0.1460
  939SOL     OW 3808   4.261   4.656   1.626 -0.1953 -0.2190 -0.2027
  939SOL    HW2 3809   4.253   4.673   1.720  0.1714 -0.0641 -0.1993
  939SOL    HW3 3810   4.255   4.561   1.618 -0.9020 -0.1863 -0.0879
  939SOL    MW4 3811   4.259   4.646   1.637 -0.2394 -0.1945 -0.1870
  940SOL     OW 3812   4.033   0.134   1.540 -0.1998  0.2503 -0.0035
  940SOL    HW2 3813   4.046   0.224   1.572 -1.2325  0.1453  0.7374
  940SOL    HW3 3814   4.112   0.087   1.567 -0.1509  0.6688  0.5930
  940SOL    MW4 3815   4.045   0.140   1.548 -0.3300  0.2917  0.1730
  941SOL     OW 3816   4.073   0.411   1.592  0.3829  0.0628 -0.4840
  941SOL    HW2 3817   4.066   0.398   1.686 -0.0080  0.0683 -0.5099
  941SOL    HW3 3818   3.983   0.429   1.564  0.4926  0.0281 -0.8606
  941SOL    MW4 3819   4.060   0.412   1.600  0.3457  0.0589 -0.5373
  942SOL     OW 3820   4.293   0.583   1.487  0.1396 -0.7294  0.2624
  942SOL    HW2 3821   4.211   0.539   1.512 -0.1829 -0.2431  0.0717
  942SOL    HW3 3822   4.362   0.524   1.517 -0.3155 -2.1698 -1.4165
  942SOL    MW4 3823   4.291   0.569   1.494  0.0372 -0.8553  0.0159
  943SOL     OW 3824   4.356   0.793   1.642 -0.1555  0.2704  0.1142
  943SOL    HW2 3825   4.333   0.716   1.591 -1.3082  0.5156  0.2532
  943SOL    HW3 3826   4.409   0.847   1.583 -1.8217  0.7425 -0.9576
  943SOL    MW4 3827   4.360   0.790   1.628 -0.5274  0.3651 -0.0088
  944SOL     OW 3828   4.086   0.870   1.505  0.0471 -0.0095 -0.3025
  944SOL    HW2 3829   4.161   0.846   1.559 -0.5432  1.0629  1.0201
  944SOL    HW3 3830   4.014   0.816   1.538 -0.2828  0.5522 -0.0960
  944SOL    MW4 3831   4.086   0.860   1.516 -0.0739  0.2061 -0.1010
  945SOL     OW 3832   4.024   1.127   1.582 -0.1354  0.2348  0.3590
  945SOL    HW2 3833   4.027   1.137   1.677  0.5939  0.6023  0.3005
  945SOL    HW3 3834   4.049   1.036   1.566  0.7424  0.4607  0.4573
  945SOL    MW4 3835   4.027   1.117   1.592  0.0768  0.3130  0.3642
  946SOL     OW 3836   4.268   1.261   1.541  0.3454  0.5067 -0.3747
  946SOL    HW2 3837   4.195   1.199   1.546  0.8493 -0.0888 -0.2759
  946SOL    HW3 3838   4.345   1.207   1.557  0.9505  0.8212 -2.0641
  946SOL    MW4 3839   4.268   1.246   1.543  0.4916  0.4696 -0.5846
  947SOL     OW 3840   4.260   1.523   1.637 -0.2733 -0.4340 -0.1530
  947SOL    HW2 3841   4.261   1.434   1.600  1.3216 -0.7789  0.6522
  947SOL    HW3 3842   4.327   1.570   1.588 -0.3037 -0.0181  0.1988
  947SOL    MW4 3843   4.269   1.517   1.626 -0.0668 -0.4245 -0.0002
  948SOL     OW 3844   4.045   1.649   1.534 -0.2525  0.2729 -0.2318
  948SOL    HW2 3845   4.120   1.606   1.576 -1.5027 -1.4986  0.2001
  948SOL    HW3 3846   3.969   1.612   1.577 -1.3998  2.3135 -0.4379
  948SOL    MW4 3847   4.045   1.639   1.545 -0.5684  0.3084 -0.2019
  949SOL     OW 3848   4.040   1.904   1.651  0.4753  0.1669 -0.0322
  949SOL    HW2 3849   4.044   1.815   1.616  2.1770  0.3278 -0.3042
  949SOL    HW3 3850   3.978   1.950   1.593  0.2397 -0.6191 -0.4082
  949SOL    MW4 3851   4.032   1.898   1.639  0.6685  0.0844 -0.1177
  950SOL     OW 3852   4.266   2.056   1.539 -0.0867  0.1157  0.1766
  950SOL    HW2 3853   4.197   1.996   1.565  0.2473 -0.0378  0.7203
  950SOL    HW3 3854   4.283   2.035   1.448 -2.4523  1.8088 -0.7075
  950SOL    MW4 3855   4.259   2.045   1.531 -0.3552  0.3188  0.1317
  951SOL     OW 3856   4.270   2.332   1.589 -0.2430 -0.0845  0.1124
  951SOL    HW2 3857   4.292   2.319   1.681  1.8521  0.2866 -0.3106
  951SOL    HW3 3858   4.256   2.244   1.555  2.1367 -0.4904  0.0697
  951SOL    MW4 3859   4.271   2.319   1.597  0.3467 -0.0889  0.0509
  952SOL     OW 3860   4.043   2.476   1.499  0.5666 -0.1383 -0.5101
  952SOL    HW2 3861   4.035   2.561   1.542 -0.4204 -0.0037 -0.9604
  952SOL    HW3 3862   4.131   2.445   1.524 -0.1675 -0.2940  2.0294
  952SOL    MW4 3863   4.054   2.483   1.508  0.3395 -0.1409 -0.2345
  953SOL     OW 3864   4.048   2.733   1.587  0.0671  0.3570 -0.1569
  953SOL    HW2 3865   4.055   2.722   1.682 -0.7478  0.1799 -0.1113
  953SOL    HW3 3866   4.130   2.773   1.561  1.0702 -1.3003  0.3761
  953SOL    MW4 3867   4.060   2.737   1.596  0.0916  0.1149 -0.0805
  954SOL     OW 3868   4.285   2.824   1.509  0.2194  0.0537  0.0974
  954SOL    HW2 3869   4.280   2.915   1.539  2.4916 -0.2329  1.4847
  954SOL    HW3 3870   4.283   2.830   1.413 -0.3824  1.4999  0.1929
  954SOL    MW4 3871   4.284   2.837   1.500  0.4396  0.2067  0.2930
  955SOL     OW 3872   4.247   3.090   1.587  0.0870  0.0273 -0.4396
  955SOL    HW2 3873   4.260   3.092   1.682  0.4536  0.4229 -0.4973
  955SOL    HW3 3874   4.327   3.127   1.551 -0.3421  0.5257 -0.8802
  955SOL    MW4 3875   4.259   3.095   1.594  0.0787  0.1452 -0.5052
  956SOL     OW 3876   4.055   3.253   1.450  0.0061 -0.1256  0.0228
  956SOL    HW2 3877   4.063   3.338   1.494 -1.2944 -0.0143  0.0564
  956SOL    HW3 3878   4.119   3.197   1.494 -0.6338  0.2383  1.4533
  956SOL    MW4 3879   4.065   3.257   1.462 -0.2499 -0.0627  0.2161
  957SOL     OW 3880   4.030   3.484   1.605  0.5261  0.1469 -0.0360
  957SOL    HW2 3881   4.031   3.472   1.700 -0.0490 -0.1449 -0.0613
  957SOL    HW3 3882   4.110   3.533   1.586  1.7329 -1.5985  0.3607
  957SOL    MW4 3883   4.041   3.489   1.615  0.6094 -0.1218  0.0130
  958SOL     OW 3884   4.267   3.609   1.558 -0.3288 -0.1031 -0.0902
  958SOL    HW2 3885   4.273   3.698   1.592 -0.2845  0.6025 -1.8787
  958SOL    HW3 3886   4.268   3.620   1.463  0.1928 -2.0486 -0.3259
  958SOL    MW4 3887   4.268   3.622   1.550 -0.2542 -0.2670 -0.3573
  959SOL     OW 3888   4.280   3.857   1.660  0.1964 -0.3274  0.3695
  959SOL    HW2 3889   4.204   3.895   1.617  0.1711 -0.2939  0.4437
  959SOL    HW3 3890   4.355   3.906   1.625  0.3648 -1.6746 -1.2047
  959SOL    MW4 3891   4.280   3.869   1.650  0.2155 -0.5004  0.1715
  960SOL     OW 3892   4.047   3.979   1.551 -0.3405 -0.3031 -0.1134
  960SOL    HW2 3893   4.034   4.069   1.580 -1.2902 -0.2731 -0.6256
  960SOL    HW3 3894   4.070   3.987   1.458  0.4934 -0.5385  0.0642
  960SOL    MW4 3895   4.049   3.992   1.542 -0.3557 -0.3300 -0.1576
  961SOL     OW 3896   3.995   4.234   1.646  0.2018 -0.0649 -0.1741
  961SOL    HW2 3897   4.016   4.263   1.735  0.6721 -1.7993  0.2895
  961SOL    HW3 3898   3.928   4.296   1.617  1.1154  1.4534  0.8123
  961SOL    MW4 3899   3.989   4.246   1.654  0.3846 -0.0930  0.0172
  962SOL     OW 3900   4.231   4.379   1.599 -0.1799 -0.3008  0.1200
  962SOL    HW2 3901   4.155   4.325   1.622 -0.4521  0.4961  1.1089
  962SOL    HW3 3902   4.237   4.371   1.504 -2.3459  0.7037 -0.1488
  962SOL    MW4 3903   4.222   4.370   1.589 -0.5012 -0.0625  0.2149
  963SOL     OW 3904   0.187   0.001   1.888  0.1031 -0.2013 -0.1496
  963SOL    HW2 3905   0.276   0.036   1.895 -0.0101  0.1378 -0.3804
  963SOL    HW3 3906   0.179  -0.024   1.796  0.0924 -0.5876 -0.0425
  963SOL    MW4 3907   0.198   0.002   1.877  0.0868 -0.2075 -0.1659
  964SOL     OW 3908   4.471   0.160   1.959 -0.3442 -0.2055 -0.1337
  964SOL    HW2 3909   4.466   0.241   1.907 -0.2997 -1.1248 -1.6051
  964SOL    HW3 3910   4.548   0.114   1.924 -1.2618 -1.5946 -0.3654
  964SOL    MW4 3911   4.481   0.165   1.947 -0.4592 -0.5101 -0.3583
  965SOL     OW 3912   4.482   0.415   1.828  0.3650 -0.1635  0.2175
  965SOL    HW2 3913   4.409   0.444   1.882  0.5502 -0.7799  0.8015
  965SOL    HW3 3914   4.560   0.437   1.879  0.5053 -1.9156  0.8091
  965SOL    MW4 3915   4.483   0.422   1.842  0.4079 -0.4760  0.3728
  966SOL     OW 3916   0.218   0.441   1.982  0.2256  0.3876 -0.7098
  966SOL    HW2 3917   0.299   0.394   1.960  1.0530  1.2929  0.3434
  966SOL    HW3 3918   0.233   0.530   1.951  0.4383  1.0602  1.2976
  966SOL    MW4 3919   0.230   0.446   1.975  0.3628  0.5957 -0.3060
  967SOL     OW 3920   0.260   0.707   1.897  0.1594  0.2373 -0.0396
  967SOL    HW2 3921   0.328   0.766   1.930  0.5711  0.1740 -0.7776
  967SOL    HW3 3922   0.262   0.718   1.802  0.6509 -1.3964 -0.2368
  967SOL    MW4 3923   0.270   0.716   1.889  0.2785  0.0134 -0.1631
  968SOL     OW 3924   0.047   0.875   1.971  0.5264 -0.3024 -0.5668
  968SOL    HW2 3925  -0.025   0.812   1.966  0.6699 -0.7506  2.1587
  968SOL    HW3 3926   0.124   0.825   1.944  0.2988 -0.7118 -0.4678
  968SOL    MW4 3927   0.047   0.860   1.967  0.5153 -0.4156 -0.1941
  969SOL     OW 3928   0.041   1.141   1.883 -0.4622  0.3039 -0.1992
  969SOL    HW2 3929  -0.036   1.183   1.921  0.5596  0.9611  1.1940
  969SOL    HW3 3930   0.040   1.051   1.917 -0.1629  0.5637  0.5113
  969SOL    MW4 3931   0.031   1.134   1.892 -0.2880  0.4249  0.0783
  970SOL     OW 3932   0.232   1.257   2.022 -0.2456 -0.1678 -0.5450
  970SOL    HW2 3933   0.247   1.345   1.987 -0.5342  0.5671  1.1313
  970SOL    HW3 3934   0.165   1.219   1.964  0.4029  0.4307 -1.7149
  970SOL    MW4 3935   0.225   1.263   2.009 -0.1981  0.0081 -0.4785
  971SOL     OW 3936   0.194   1.518   1.914  0.1574  0.2837 -0.1455
  971SOL    HW2 3937   0.276   1.562   1.938 -0.5594  1.3846  0.3304
  971SOL    HW3 3938   0.126   1.565   1.962 -0.5943 -1.6598  0.7241
  971SOL    MW4 3939   0.196   1.530   1.923 -0.0363  0.1725  0.0321
  972SOL     OW 3940   0.009   1.694   2.041  0.0845  0.2356 -0.6138
  972SOL    HW2 3941   0.028   1.682   2.134  2.0812  0.4218 -0.9651
  972SOL    HW3 3942  -0.052   1.624   2.019 -0.4462  0.2240  0.8462
  972SOL    MW4 3943   0.003   1.683   2.051  0.2780  0.2586 -0.4673
  973SOL     OW 3944   0.015   1.925   1.895  0.2131 -0.3789  0.2396
  973SOL    HW2 3945  -0.051   1.985   1.929 -1.2014 -0.7509 -1.7490
  973SOL    HW3 3946   0.005   1.846   1.947 -1.4539 -0.7010 -0.5338
  973SOL    MW4 3947   0.005   1.923   1.906 -0.1936 -0.4704 -0.1249
  974SOL     OW 3948   0.250   2.039   1.992 -0.0621  0.1235 -0.3280
  974SOL    HW2 3949   0.255   2.129   1.958 -1.7133  0.8627  1.3180
  974SOL    HW3 3950   0.165   2.007   1.962 -0.3441 -0.1753  0.7728
  974SOL    MW4 3951   0.239   2.047   1.983 -0.3171  0.1817  0.0343
  975SOL     OW 3952   0.260   2.290   1.882  0.0753  0.6454  0.1153
  975SOL    HW2 3953   0.335   2.339   1.917  0.4932 -1.2618  2.0650
  975SOL    HW3 3954   0.184   2.341   1.907  0.4488 -0.0721  2.9622
  975SOL    MW4 3955   0.260   2.303   1.890  0.1797  0.2990  0.7482
  976SOL     OW 3956   0.024   2.430   1.975 -0.1149 -0.0500  0.6419
  976SOL    HW2 3957   0.008   2.447   2.068 -0.9216 -0.0222  0.5046
  976SOL    HW3 3958   0.027   2.517   1.935 -0.0962 -0.0724  0.5957
  976SOL    MW4 3959   0.022   2.444   1.982 -0.2188 -0.0494  0.6176
  977SOL     OW 3960   0.025   2.700   1.883 -0.1821 -0.0718 -0.6017
  977SOL    HW2 3961  -0.056   2.747   1.904 -1.2006 -2.1344  0.2733
  977SOL    HW3 3962   0.028   2.699   1.788 -1.6381 -0.7153 -0.6504
  977SOL    MW4 3963   0.015   2.706   1.873 -0.5086 -0.4289 -0.4926
  978SOL     OW 3964   0.246   2.807   2.017  0.1198 -0.3809  0.0000
  978SOL    HW2 3965   0.238   2.890   1.970  0.4130  0.5201  1.4883
  978SOL    HW3 3966   0.181   2.750   1.977  0.4723  0.2967 -1.5873
  978SOL    MW4 3967   0.236   2.811   2.006  0.2050 -0.1729 -0.0134
  979SOL     OW 3968   0.257   3.083   1.906 -0.1007 -0.4621  0.1332
  979SOL    HW2 3969   0.323   3.141   1.943 -2.0431  0.9370  1.4830
  979SOL    HW3 3970   0.248   3.111   1.815  0.7945 -0.3485  0.0748
  979SOL    MW4 3971   0.265   3.094   1.899 -0.2389 -0.2625  0.3036
  980SOL     OW 3972   0.023   3.205   2.004  0.8716  0.2450  0.1526
  980SOL    HW2 3973  -0.055   3.165   1.965 -0.0247  0.0210  2.1421
  980SOL    HW3 3974   0.096   3.160   1.961 -0.0749 -0.0141 -1.2457
  980SOL    MW4 3975   0.023   3.194   1.993  0.6285  0.1812  0.2306
  981SOL     OW 3976   0.027   3.457   1.883  0.1024  0.4507  0.7152
  981SOL    HW2 3977   0.107   3.507   1.903  0.7285 -0.9379  1.7733
  981SOL    HW3 3978   0.050   3.367   1.903 -1.0290 -0.2755 -1.1732
  981SOL    MW4 3979   0.041   3.452   1.889  0.0357  0.1719  0.6057
  982SOL     OW 3980   0.249   3.610   2.007 -0.2007 -0.0159  0.5030
  982SOL    HW2 3981   0.256   3.628   2.101  0.7793 -0.2156  0.4784
  982SOL    HW3 3982   0.320   3.547   1.989  0.2908  0.8136 -0.5524
  982SOL    MW4 3983   0.260   3.604   2.017 -0.0066  0.0672  0.3605
  983SOL     OW 3984   0.228   3.847   1.859 -0.1459  0.5653 -0.0376
  983SOL    HW2 3985   0.284   3.910   1.904  2.5639 -0.8844 -1.2916
  983SOL    HW3 3986   0.235   3.767   1.911  0.7310 -0.2737 -1.4373
  983SOL    MW4 3987   0.236   3.845   1.872  0.3273  0.2630 -0.3877
  984SOL     OW 3988   0.008   3.981   1.971 -0.3320 -0.6357  0.4021
  984SOL    HW2 3989   0.006   4.073   1.944  0.4831 -0.3168  1.4174
  984SOL    HW3 3990   0.084   3.944   1.925 -0.5339 -0.7590  0.1628
  984SOL    MW4 3991   0.018   3.988   1.961 -0.2511 -0.6096  0.5046
  985SOL     OW 3992   0.023   4.244   1.885  0.2070  0.4730 -0.3140
  985SOL    HW2 3993  -0.055   4.300   1.892 -0.6323 -0.9857  2.6193
  985SOL    HW3 3994   0.093   4.296   1.924 -0.2612  0.0409  1.1033
  985SOL    MW4 3995   0.022   4.258   1.891  0.0345  0.2236  0.2601
  986SOL     OW 3996   0.215   4.415   1.986  0.4409 -0.1690  0.1902
  986SOL    HW2 3997   0.207   4.423   2.081  0.4143  0.3188  0.1463
  986SOL    HW3 3998   0.200   4.503   1.953 -1.8847 -0.7381 -0.4175
  986SOL    MW4 3999   0.212   4.427   1.994  0.1305 -0.1798  0.1044
  987SOL     OW 4000   0.687   4.618   1.907 -0.0519 -0.2183 -0.4649
  987SOL    HW2 4001   0.701   4.524   1.919 -0.4144 -0.4357 -1.6644
  987SOL    HW3 4002   0.715   4.635   1.817  0.6323  0.9462 -0.0348
  987SOL    MW4 4003   0.692   4.608   1.897 -0.0095 -0.0930 -0.5665
  988SOL     OW 4004   0.442   0.083   1.975  0.1468  0.1181  0.3324
  988SOL    HW2 4005   0.451   0.176   1.952 -0.3362  0.1548  0.2762
  988SOL    HW3 4006   0.518   0.041   1.936  1.1963  0.7358  1.6978
  988SOL    MW4 4007   0.453   0.090   1.966  0.2216  0.2044  0.5052
  989SOL     OW 4008   0.463   0.335   1.888 -0.3311 -0.0710  0.1047
  989SOL    HW2 4009   0.537   0.393   1.908 -0.5523 -0.0942  1.0205
  989SOL    HW3 4010   0.435   0.361   1.801  0.2042  0.5357  0.1114
  989SOL    MW4 4011   0.469   0.346   1.879 -0.2897  0.0060  0.2264
  990SOL     OW 4012   0.698   0.517   1.982  0.0748  0.4251 -0.1192
  990SOL    HW2 4013   0.710   0.509   2.077 -0.6207 -1.5003 -0.1699
  990SOL    HW3 4014   0.769   0.465   1.945 -0.8021 -0.4402 -0.6068
  990SOL    MW4 4015   0.709   0.509   1.990 -0.1327  0.0569 -0.1903
  991SOL     OW 4016   0.695   0.757   1.869 -0.4532  0.3134 -0.3412
  991SOL    HW2 4017   0.780   0.786   1.900 -0.9230  0.8035  0.5225
  991SOL    HW3 4018   0.687   0.667   1.900 -0.0944  0.1323 -0.7623
  991SOL    MW4 4019   0.705   0.749   1.877 -0.4679  0.3541 -0.2829
  992SOL     OW 4020   0.464   0.864   1.996  0.3444 -0.1492  0.1352
  992SOL    HW2 4021   0.448   0.953   1.965  0.8277 -0.2571 -0.4431
  992SOL    HW3 4022   0.535   0.832   1.940 -1.5945 -1.8308 -1.4385
  992SOL    MW4 4023   0.471   0.872   1.985  0.1523 -0.3853 -0.1487
  993SOL     OW 4024   0.470   1.141   1.947 -0.3528  0.2975  0.1566
  993SOL    HW2 4025   0.394   1.190   1.979  0.4099  0.6225  1.5134
  993SOL    HW3 4026   0.462   1.144   1.852 -1.3747  1.3981  0.2636
  993SOL    MW4 4027   0.459   1.148   1.939 -0.3870  0.4855  0.3498
  994SOL     OW 4028   0.689   1.291   2.011 -0.2636  0.5029 -0.1924
  994SOL    HW2 4029   0.705   1.277   2.105 -0.2765  0.6730 -0.1649
  994SOL    HW3 4030   0.617   1.231   1.991  0.2046 -0.0438 -0.2506
  994SOL    MW4 4031   0.682   1.281   2.021 -0.2034  0.4534 -0.1962
  995SOL     OW 4032   0.702   1.547   1.907  0.2453  0.3022  0.6108
  995SOL    HW2 4033   0.697   1.457   1.938  2.0725  0.1269  0.4442
  995SOL    HW3 4034   0.677   1.542   1.815  0.6545 -0.0843  0.5207
  995SOL    MW4 4035   0.698   1.534   1.899  0.5404  0.2280  0.5769
  996SOL     OW 4036   0.462   1.658   1.987 -0.6273 -0.0715  0.0775
  996SOL    HW2 4037   0.469   1.658   2.083 -0.0501 -1.5636  0.0486
  996SOL    HW3 4038   0.544   1.618   1.957 -0.6890  0.6245 -1.0550
  996SOL    MW4 4039   0.474   1.653   1.996 -0.5593 -0.1765 -0.0757
  997SOL     OW 4040   0.477   1.916   1.917 -0.4743 -0.0986  0.1886
  997SOL    HW2 4041   0.465   1.825   1.945 -2.2144 -0.4272 -1.5114
  997SOL    HW3 4042   0.396   1.960   1.943 -0.7004  0.3653 -1.2505
  997SOL    MW4 4043   0.465   1.910   1.924 -0.7337 -0.0808 -0.2257
  998SOL     OW 4044   0.712   2.030   1.981 -0.5852  0.2725 -0.1338
  998SOL    HW2 4045   0.724   2.017   2.075  0.7215  0.2825 -0.2951
  998SOL    HW3 4046   0.634   1.978   1.960 -0.5365 -0.2094  0.8369
  998SOL    MW4 4047   0.703   2.021   1.991 -0.4064  0.2100 -0.0268
  999SOL     OW 4048   0.696   2.299   1.916 -0.2594  0.3327  0.0159
  999SOL    HW2 4049   0.692   2.205   1.932  1.4817  0.0988 -0.8117
  999SOL    HW3 4050   0.691   2.308   1.821 -0.5077  1.0913  0.0915
  999SOL    MW4 4051   0.695   2.288   1.906 -0.0625  0.4022 -0.0834
 1000SOL     OW 4052   0.458   2.432   1.994 -0.6817 -0.2216 -0.4707
 1000SOL    HW2 4053   0.456   2.416   2.088 -0.2509 -0.0559 -0.4288
 1000SOL    HW3 4054   0.539   2.389   1.964 -0.3872  0.4276 -0.6270
 1000SOL    MW4 4055   0.468   2.424   2.002 -0.5860 -0.1142 -0.4854
 1001SOL     OW 4056   0.463   2.689   1.912  0.2619 -0.1834  0.6238
 1001SOL    HW2 4057   0.457   2.599   1.943 -0.9886  0.2266  1.5921
 1001SOL    HW3 4058   0.395   2.736   1.960 -0.6891  0.7976 -1.6025
 1001SOL    MW4 4059   0.453   2.683   1.922 -0.0285  0.0000  0.4578
 1002SOL     OW 4060   0.706   2.833   1.989 -0.3640 -0.0826  0.4008
 1002SOL    HW2 4061   0.699   2.858   2.081 -0.0669 -2.3201  1.0579
 1002SOL    HW3 4062   0.629   2.779   1.972  0.3450 -0.9053 -0.2541
 1002SOL    MW4 4063   0.695   2.829   1.999 -0.2313 -0.4864  0.4009
 1003SOL     OW 4064   0.729   3.086   1.897  0.0462  0.3278  0.0472
 1003SOL    HW2 4065   0.725   2.992   1.914 -1.0098  0.5822  1.3061
 1003SOL    HW3 4066   0.713   3.095   1.803 -3.7656 -0.5121  0.5237
 1003SOL    MW4 4067   0.726   3.075   1.887 -0.5960  0.2506  0.2761
 1004SOL     OW 4068   0.498   3.205   2.014 -0.2722 -0.3545 -0.2055
 1004SOL    HW2 4069   0.501   3.297   1.987 -1.7008 -0.1263  0.3513
 1004SOL    HW3 4070   0.583   3.169   1.989  0.3941  1.1896 -0.1799
 1004SOL    MW4 4071   0.510   3.212   2.007 -0.3728 -0.1204 -0.1287
 1005SOL     OW 4072   0.463   3.469   1.940  0.2106  0.1630  0.1592
 1005SOL    HW2 4073   0.529   3.533   1.967 -0.3082  0.1786  1.4082
 1005SOL    HW3 4074   0.469   3.467   1.844  2.0365  0.1483  0.2556
 1005SOL    MW4 4075   0.473   3.477   1.931  0.3831  0.1633  0.3368
 1006SOL     OW 4076   0.661   3.635   2.029  0.0739  0.1374  0.0849
 1006SOL    HW2 4077   0.734   3.591   1.984  0.0322  0.1408  0.0130
 1006SOL    HW3 4078   0.664   3.725   1.996 -0.2834  0.0022 -0.3120
 1006SOL    MW4 4079   0.671   3.641   2.018  0.0213  0.1199  0.0234
 1007SOL     OW 4080   0.641   3.891   1.918 -0.4194 -0.2854 -0.2115
 1007SOL    HW2 4081   0.732   3.916   1.931 -0.1215 -1.1031 -0.6616
 1007SOL    HW3 4082   0.632   3.880   1.823 -0.9142 -0.4822 -0.1443
 1007SOL    MW4 4083   0.652   3.893   1.907 -0.4454 -0.4191 -0.2620
 1008SOL     OW 4084   0.410   4.008   1.994 -0.2844 -0.2934 -0.6345
 1008SOL    HW2 4085   0.401   4.097   1.961 -0.2817  0.6874  1.8743
 1008SOL    HW3 4086   0.498   3.981   1.969  0.6413  1.3669  0.7509
 1008SOL    MW4 4087   0.420   4.016   1.986 -0.1619  0.0558 -0.1208
 1009SOL     OW 4088   0.452   4.281   1.913 -0.1349  0.5744  0.3453
 1009SOL    HW2 4089   0.388   4.350   1.933 -0.7581  0.6491 -1.7917
 1009SOL    HW3 4090   0.443   4.267   1.818  0.4825 -1.9636  0.6399
 1009SOL    MW4 4091   0.442   4.288   1.903 -0.1357  0.2494  0.1022
 1010SOL     OW 4092   0.704   4.361   2.014 -0.2464 -0.1742  0.2618
 1010SOL    HW2 4093   0.780   4.319   1.974  0.6927  1.3067  0.4571
 1010SOL    HW3 4094   0.628   4.322   1.970  0.6806 -0.5746 -0.9812
 1010SOL    MW4 4095   0.704   4.351   2.003 -0.0002 -0.0315  0.1235
 1011SOL     OW 4096   1.080   4.655   1.888 -0.3068 -0.0641  0.1450
 1011SOL    HW2 4097   1.161   4.699   1.915  0.0688 -0.1782 -0.7734
 1011SOL    HW3 4098   1.089   4.566   1.924 -0.1668  0.0156  0.3099
 1011SOL    MW4 4099   1.092   4.649   1.897 -0.2388 -0.0687  0.0457
 1012SOL     OW 4100   0.882   0.136   2.022 -0.2969  0.1095  0.5107
 1012SOL    HW2 4101   0.954   0.089   1.978 -0.0015  0.6852  0.3715
 1012SOL    HW3 4102   0.803   0.087   1.998  0.0650 -0.6048  0.7760
 1012SOL    MW4 4103   0.881   0.123   2.013 -0.2102  0.0912  0.5271
 1013SOL     OW 4104   0.886   0.353   1.867  0.4592  0.3031 -0.0806
 1013SOL    HW2 4105   0.966   0.388   1.906 -0.2277  0.9603  0.7951
 1013SOL    HW3 4106   0.880   0.263   1.900  1.1066  0.0762 -0.5771
 1013SOL    MW4 4107   0.895   0.346   1.876  0.4540  0.3598 -0.0305
 1014SOL     OW 4108   1.110   0.475   1.972  0.1889  0.2463 -0.0956
 1014SOL    HW2 4109   1.192   0.445   1.932 -0.3179 -0.6024 -0.5001
 1014SOL    HW3 4110   1.108   0.569   1.955  0.7974  0.1744 -0.5840
 1014SOL    MW4 4111   1.121   0.483   1.965  0.2024  0.1248 -0.2134
 1015SOL     OW 4112   1.110   0.741   1.899 -0.0797  0.1250  0.0573
 1015SOL    HW2 4113   1.189   0.788   1.926  0.6520 -1.6097  1.0071
 1015SOL    HW3 4114   1.039   0.789   1.941  0.4547  1.7011 -0.8054
 1015SOL    MW4 4115   1.111   0.754   1.908  0.0874  0.1041  0.0689
 1016SOL     OW 4116   0.906   0.887   2.000  0.4070 -0.4867 -0.2201
 1016SOL    HW2 4117   0.905   0.890   2.096 -0.1724 -0.2232 -0.2289
 1016SOL    HW3 4118   0.927   0.976   1.973 -1.1548 -0.1398 -0.3469
 1016SOL    MW4 4119   0.908   0.899   2.009  0.1245 -0.4062 -0.2379
 1017SOL     OW 4120   0.924   1.156   1.929 -0.1250 -0.7527 -0.0427
 1017SOL    HW2 4121   0.839   1.191   1.955 -0.3741 -1.8086  0.6266
 1017SOL    HW3 4122   0.925   1.163   1.834 -0.8134 -0.4083 -0.0282
 1017SOL    MW4 4123   0.913   1.161   1.920 -0.2487 -0.8466  0.0474
 1018SOL     OW 4124   1.162   1.262   2.027  0.1405 -0.0530  0.8485
 1018SOL    HW2 4125   1.158   1.354   2.000 -1.0126  0.4036  2.5266
 1018SOL    HW3 4126   1.080   1.224   1.996  0.6230 -0.5474  0.1413
 1018SOL    MW4 4127   1.151   1.269   2.019  0.0520 -0.0581  0.9766
 1019SOL     OW 4128   1.167   1.524   1.916 -0.0929  0.4478 -0.5571
 1019SOL    HW2 4129   1.083   1.562   1.941  1.1770  1.5366  2.2560
 1019SOL    HW3 4130   1.170   1.531   1.820 -3.6073 -0.5730 -0.7970
 1019SOL    MW4 4131   1.156   1.530   1.907 -0.3890  0.4567 -0.2177
 1020SOL     OW 4132   0.935   1.647   2.014 -0.4035 -0.1805 -0.0738
 1020SOL    HW2 4133   0.937   1.734   1.973  1.0057 -0.5626 -0.8412
 1020SOL    HW3 4134   0.856   1.607   1.981  0.8042 -0.5517 -2.6240
 1020SOL    MW4 4135   0.925   1.654   2.004 -0.0582 -0.2799 -0.5114
 1021SOL     OW 4136   0.937   1.901   1.867  0.0777  0.4729  0.4679
 1021SOL    HW2 4137   0.862   1.943   1.910 -0.3978 -0.6039  0.7080
 1021SOL    HW3 4138   0.925   1.920   1.774  0.8130  2.3440  0.7246
 1021SOL    MW4 4139   0.925   1.909   1.860  0.1120  0.5778  0.5333
 1022SOL     OW 4140   1.169   2.031   1.972  0.2585  0.4813  0.3583
 1022SOL    HW2 4141   1.180   2.121   1.942 -0.6496  0.4359 -0.1237
 1022SOL    HW3 4142   1.090   2.001   1.929 -0.6732  0.1716  2.2099
 1022SOL    MW4 4143   1.160   2.039   1.963  0.0159  0.4346  0.5389
 1023SOL     OW 4144   1.143   2.297   1.895 -0.1975  0.3415 -0.0776
 1023SOL    HW2 4145   1.214   2.357   1.918  1.2087 -0.7645 -1.4066
 1023SOL    HW3 4146   1.140   2.298   1.800  1.0495 -2.9635 -0.2350
 1023SOL    MW4 4147   1.152   2.305   1.886  0.1525 -0.2406 -0.2738
 1024SOL     OW 4148   0.922   2.428   2.021 -0.6062  0.4043 -0.2381
 1024SOL    HW2 4149   0.996   2.388   1.976  0.6284 -0.1055  2.1588
 1024SOL    HW3 4150   0.845   2.387   1.982  0.4269 -0.0567 -1.8148
 1024SOL    MW4 4151   0.922   2.417   2.010 -0.3069  0.2763 -0.1299
 1025SOL     OW 4152   0.940   2.679   1.937 -0.1956 -0.4305  0.1266
 1025SOL    HW2 4153   0.928   2.600   1.989 -0.1377 -1.5558 -1.5155
 1025SOL    HW3 4154   0.866   2.736   1.961  0.5604 -0.3610  2.3759
 1025SOL    MW4 4155   0.928   2.676   1.947 -0.0883 -0.5701  0.2068
 1026SOL     OW 4156   1.151   2.829   2.010  0.1966 -0.0860 -0.2801
 1026SOL    HW2 4157   1.149   2.829   2.105  1.1467  0.2828 -0.2537
 1026SOL    HW3 4158   1.078   2.773   1.984 -0.4899  0.3836  0.6462
 1026SOL    MW4 4159   1.141   2.821   2.019  0.2311  0.0248 -0.1545
 1027SOL     OW 4160   1.151   3.091   1.894 -0.2118 -0.1868  0.2168
 1027SOL    HW2 4161   1.077   3.128   1.943 -0.1981  0.1846 -0.0398
 1027SOL    HW3 4162   1.160   3.002   1.929 -1.6186 -0.6982 -0.6559
 1027SOL    MW4 4163   1.142   3.084   1.905 -0.3957 -0.2053  0.0677
 1028SOL     OW 4164   0.926   3.242   2.014 -0.2653  0.5838 -0.0735
 1028SOL    HW2 4165   0.907   3.238   2.108 -1.4144  1.9215 -0.2289
 1028SOL    HW3 4166   0.865   3.180   1.974 -0.8825  1.2008 -0.0898
 1028SOL    MW4 4167   0.915   3.233   2.021 -0.4983  0.8416 -0.0963
 1029SOL     OW 4168   0.860   3.499   1.912 -0.5721 -0.0203  0.0919
 1029SOL    HW2 4169   0.883   3.409   1.936  3.1920  0.5187 -1.1889
 1029SOL    HW3 4170   0.878   3.505   1.818 -1.5841  1.8226 -0.0110
 1029SOL    MW4 4171   0.866   3.488   1.903 -0.2090  0.2940 -0.0907
 1030SOL     OW 4172   1.119   3.601   1.987  0.2499 -0.3400 -0.1016
 1030SOL    HW2 4173   1.127   3.609   2.082  1.4463 -0.9091 -0.1467
 1030SOL    HW3 4174   1.044   3.542   1.975  0.0451 -0.2093  0.4835
 1030SOL    MW4 4175   1.110   3.594   1.998  0.3808 -0.3979 -0.0304
 1031SOL     OW 4176   1.134   3.874   1.908  0.1367  0.1066  0.6089
 1031SOL    HW2 4177   1.141   3.782   1.933  1.3007  0.1592  0.5299
 1031SOL    HW3 4178   1.126   3.873   1.813  0.8593  0.1045  0.5423
 1031SOL    MW4 4179   1.134   3.862   1.899  0.3855  0.1132  0.5898
 1032SOL     OW 4180   0.896   3.976   1.979  0.2768  0.2032  0.1556
 1032SOL    HW2 4181   0.911   3.994   2.072 -1.5933  1.5524  0.2275
 1032SOL    HW3 4182   0.970   3.923   1.952  1.8313  1.4202  1.9596
 1032SOL    MW4 4183   0.907   3.972   1.987  0.2352  0.5417  0.4032
 1033SOL     OW 4184   0.921   4.236   1.878  0.3902  0.4487  0.3258
 1033SOL    HW2 4185   0.985   4.281   1.933  0.1130  0.8591  0.3056
 1033SOL    HW3 4186   0.934   4.143   1.899  1.4493  0.4768 -0.1534
 1033SOL    MW4 4187   0.931   4.229   1.888  0.4933  0.5064  0.2600
 1034SOL     OW 4188   1.139   4.396   1.984  0.2209  0.6193 -0.2010
 1034SOL    HW2 4189   1.112   4.365   2.071 -0.3707  0.4593 -0.4334
 1034SOL    HW3 4190   1.222   4.352   1.967  0.1384  0.3370  0.1200
 1034SOL    MW4 4191   1.146   4.386   1.993  0.1320  0.5612 -0.1892
 1035SOL     OW 4192   1.551   4.656   1.879  0.0016 -0.1612  0.0962
 1035SOL    HW2 4193   1.608   4.702   1.941  0.7787 -1.2793  0.2312
 1035SOL    HW3 4194   1.558   4.564   1.904  0.1983 -0.6112 -1.5624
 1035SOL    MW4 4195   1.559   4.650   1.891  0.1299 -0.3681 -0.1048
 1036SOL     OW 4196   1.322   0.093   1.957 -0.2450 -0.7770  0.0987
 1036SOL    HW2 4197   1.328   0.119   2.049 -1.0159  2.5526 -0.7504
 1036SOL    HW3 4198   1.405   0.048   1.940  0.7307  0.2652  1.9252
 1036SOL    MW4 4199   1.334   0.090   1.967 -0.2179 -0.2002  0.2278
 1037SOL     OW 4200   1.359   0.375   1.875 -0.2647 -0.4829 -0.2560
 1037SOL    HW2 4201   1.349   0.283   1.899  0.2148 -0.5319 -0.2354
 1037SOL    HW3 4202   1.340   0.378   1.781 -0.8112 -0.5130 -0.1464
 1037SOL    MW4 4203   1.355   0.363   1.866 -0.2735 -0.4934 -0.2388
 1038SOL     OW 4204   1.564   0.531   1.938  0.3630 -0.5464 -0.0335
 1038SOL    HW2 4205   1.645   0.487   1.912  0.1713 -0.2991 -1.0881
 1038SOL    HW3 4206   1.496   0.464   1.930  0.3229 -0.5018 -0.0719
 1038SOL    MW4 4207   1.566   0.517   1.933  0.3324 -0.5080 -0.1777
 1039SOL     OW 4208   1.598   0.801   1.840  0.3860 -0.3709 -0.1137
 1039SOL    HW2 4209   1.674   0.840   1.884  0.2483  0.4804 -0.6302
 1039SOL    HW3 4210   1.601   0.708   1.866  0.4263  0.0625  1.5333
 1039SOL    MW4 4211   1.609   0.794   1.849  0.3732 -0.2015  0.0355
 1040SOL     OW 4212   1.332   0.890   1.975 -0.2393  0.6140  0.3363
 1040SOL    HW2 4213   1.321   0.876   2.069 -0.5685 -0.9855  0.0691
 1040SOL    HW3 4214   1.393   0.822   1.948 -0.6967  0.6281 -0.7432
 1040SOL    MW4 4215   1.339   0.880   1.984 -0.3432  0.4048  0.1587
 1041SOL     OW 4216   1.340   1.138   1.868  0.3178  0.2773 -0.3260
 1041SOL    HW2 4217   1.327   1.051   1.906 -0.9034 -0.0043 -1.3558
 1041SOL    HW3 4218   1.276   1.194   1.912  0.7428  0.5446 -0.0421
 1041SOL    MW4 4219   1.330   1.134   1.879  0.2128  0.2755 -0.4245
 1042SOL     OW 4220   1.582   1.241   1.957  0.1922  0.2474  0.0444
 1042SOL    HW2 4221   1.573   1.333   1.934 -0.2127  0.5740  1.4276
 1042SOL    HW3 4222   1.498   1.202   1.933 -0.3253  0.6402  1.1813
 1042SOL    MW4 4223   1.569   1.248   1.951  0.0705  0.3422  0.3769
 1043SOL     OW 4224   1.611   1.506   1.889 -0.1292  0.3133  0.2972
 1043SOL    HW2 4225   1.690   1.529   1.939  0.3479  1.7285 -1.0592
 1043SOL    HW3 4226   1.542   1.561   1.927 -0.0921  0.3296  0.3420
 1043SOL    MW4 4227   1.612   1.516   1.901 -0.0614  0.5022  0.1241
 1044SOL     OW 4228   1.389   1.642   2.007 -0.4285  0.3958  0.2115
 1044SOL    HW2 4229   1.391   1.645   2.103 -0.3569  2.6432  0.1730
 1044SOL    HW3 4230   1.309   1.595   1.986 -0.3399 -0.2975  1.3769
 1044SOL    MW4 4231   1.379   1.636   2.017 -0.4073  0.6008  0.3600
 1045SOL     OW 4232   1.388   1.888   1.901 -0.3409  0.2059 -0.3367
 1045SOL    HW2 4233   1.374   1.802   1.940  1.0923 -1.0564 -2.5250
 1045SOL    HW3 4234   1.313   1.940   1.931 -0.6420 -1.4398  1.9123
 1045SOL    MW4 4235   1.376   1.884   1.910 -0.1917 -0.1777 -0.3287
 1046SOL     OW 4236   1.602   2.008   2.000 -0.1167 -0.0104 -0.1026
 1046SOL    HW2 4237   1.581   2.096   1.970 -0.0959  0.5537  1.4958
 1046SOL    HW3 4238   1.530   1.954   1.967 -2.1301  1.2583  2.0464
 1046SOL    MW4 4239   1.590   2.012   1.991 -0.3796  0.2315  0.3917
 1047SOL     OW 4240   1.546   2.281   1.916 -0.2981  1.0012 -0.1250
 1047SOL    HW2 4241   1.633   2.311   1.941  0.3606 -0.1419 -1.0134
 1047SOL    HW3 4242   1.543   2.292   1.821 -1.0012  0.6967 -0.1458
 1047SOL    MW4 4243   1.557   2.287   1.906 -0.3039  0.8104 -0.2449
 1048SOL     OW 4244   1.384   2.703   1.928 -0.0277  0.3276 -0.2516
 1048SOL    HW2 4245   1.312   2.750   1.970  0.9308  1.2347  0.4080
 1048SOL    HW3 4246   1.374   2.612   1.957 -1.1499  0.3654 -0.5120
 1048SOL    MW4 4247   1.373   2.697   1.937 -0.0494  0.4523 -0.1991
 1049SOL     OW 4248   1.392   2.715   1.639  0.2187 -0.1886  0.1123
 1049SOL    HW2 4249   1.399   2.734   1.732 -0.3077  2.3572 -0.3326
 1049SOL    HW3 4250   1.309   2.755   1.612  0.3223 -0.9535 -1.4382
 1049SOL    MW4 4251   1.382   2.722   1.648  0.1628  0.0463 -0.1509
 1050SOL     OW 4252   1.628   2.830   1.983  0.0409  0.4629 -0.1553
 1050SOL    HW2 4253   1.687   2.771   1.936  0.0825 -0.8475  1.4965
 1050SOL    HW3 4254   1.541   2.792   1.970 -0.1273  0.9231 -0.3921
 1050SOL    MW4 4255   1.624   2.817   1.975  0.0242  0.3507  0.0312
 1051SOL     OW 4256   1.576   3.096   1.888 -0.8662 -0.0622  0.2578
 1051SOL    HW2 4257   1.591   3.003   1.900 -0.3200  0.0536  0.4793
 1051SOL    HW3 4258   1.575   3.109   1.793  1.6567  0.1195  0.2194
 1051SOL    MW4 4259   1.578   3.086   1.877 -0.4613 -0.0229  0.2819
 1052SOL     OW 4260   1.353   3.245   2.013  0.7440  0.1762  0.4841
 1052SOL    HW2 4261   1.433   3.199   1.987  0.3016 -0.3810  0.0836
 1052SOL    HW3 4262   1.286   3.209   1.956  0.2349  0.7566  0.7141
 1052SOL    MW4 4263   1.355   3.234   2.002  0.6185  0.1793  0.4616
 1053SOL     OW 4264   1.360   3.503   1.894  0.4319  0.1175  0.0022
 1053SOL    HW2 4265   1.361   3.417   1.936  1.7120  0.1046 -0.0328
 1053SOL    HW3 4266   1.286   3.548   1.934  0.2880 -0.6853  0.6599
 1053SOL    MW4 4267   1.351   3.497   1.905  0.5819  0.0100  0.0844
 1054SOL     OW 4268   1.585   3.576   2.027  0.0782 -0.1053 -0.2333
 1054SOL    HW2 4269   1.575   3.580   2.122  1.4856 -0.2415 -0.0629
 1054SOL    HW3 4270   1.499   3.552   1.994  0.2093 -2.6818  1.2023
 1054SOL    MW4 4271   1.572   3.573   2.035  0.2812 -0.4632 -0.0212
 1055SOL     OW 4272   1.574   3.829   1.879 -0.3932 -0.1348 -0.1758
 1055SOL    HW2 4273   1.653   3.877   1.902 -0.4183 -0.1467 -0.0604
 1055SOL    HW3 4274   1.582   3.746   1.926 -1.0634  0.3676  0.8586
 1055SOL    MW4 4275   1.585   3.824   1.888 -0.4848 -0.0703 -0.0240
 1056SOL     OW 4276   1.375   4.002   1.976  0.2307 -0.5001  0.5174
 1056SOL    HW2 4277   1.431   3.932   1.944 -0.2897 -0.0737 -1.4355
 1056SOL    HW3 4278   1.287   3.976   1.951  0.0280  0.7976 -0.2168
 1056SOL    MW4 4279   1.371   3.990   1.968  0.1354 -0.2728  0.1628
 1057SOL     OW 4280   1.357   4.265   1.907 -0.3324  0.3385  0.4455
 1057SOL    HW2 4281   1.374   4.171   1.913  0.6132  0.5757  1.4849
 1057SOL    HW3 4282   1.345   4.281   1.813  1.0708 -0.5379  0.1123
 1057SOL    MW4 4283   1.358   4.255   1.895 -0.0225  0.2542  0.5387
 1058SOL     OW 4284   1.593   4.400   1.975 -0.1319 -0.0591 -0.6197
 1058SOL    HW2 4285   1.589   4.413   2.070 -1.0364  0.4539 -0.7265
 1058SOL    HW3 4286   1.511   4.355   1.953 -0.2087  0.3737 -1.2369
 1058SOL    MW4 4287   1.582   4.395   1.984 -0.2614  0.0658 -0.7153
 1059SOL     OW 4288   1.990   4.649   1.919 -0.1006  0.1169 -0.0108
 1059SOL    HW2 4289   2.076   4.685   1.943 -0.1388  1.0683 -1.1937
 1059SOL    HW3 4290   1.992   4.559   1.950  1.5894 -0.0737 -0.5697
 1059SOL    MW4 4291   2.002   4.642   1.926  0.1175  0.2170 -0.2407
 1060SOL     OW 4292   1.757   0.131   2.010  0.2720 -0.0897 -0.4073
 1060SOL    HW2 4293   1.776   0.137   2.103 -0.1994 -0.0935 -0.3102
 1060SOL    HW3 4294   1.827   0.077   1.975  1.7820  1.8325 -0.4605
 1060SOL    MW4 4295   1.769   0.125   2.018  0.4091  0.1634 -0.4017
 1061SOL     OW 4296   1.775   0.376   1.893 -0.0259  0.4516 -0.2299
 1061SOL    HW2 4297   1.753   0.289   1.927  2.7155 -0.0977  0.2469
 1061SOL    HW3 4298   1.775   0.365   1.798 -0.7061  0.1983 -0.2039
 1061SOL    MW4 4299   1.772   0.363   1.885  0.2460  0.3457 -0.1636
 1062SOL     OW 4300   2.030   0.484   1.985  0.1732 -0.0693  0.2723
 1062SOL    HW2 4301   2.038   0.578   1.969 -0.0397  0.1502  1.4570
 1062SOL    HW3 4302   1.943   0.462   1.953  1.5266 -0.5637 -3.3130
 1062SOL    MW4 4303   2.020   0.494   1.978  0.3235 -0.1056 -0.0446
 1063SOL     OW 4304   2.052   0.749   1.915 -0.1925  0.4068  0.2596
 1063SOL    HW2 4305   2.138   0.789   1.926  0.3713 -0.6518 -0.2591
 1063SOL    HW3 4306   2.024   0.776   1.828 -1.1569  2.1732  1.0848
 1063SOL    MW4 4307   2.060   0.758   1.905 -0.2453  0.5001  0.2998
 1064SOL     OW 4308   1.823   0.893   1.972 -0.0323 -0.0417  0.1475
 1064SOL    HW2 4309   1.834   0.987   1.954  2.1661 -0.3091  0.0281
 1064SOL    HW3 4310   1.910   0.856   1.963 -0.6569 -1.9090  1.4304
 1064SOL    MW4 4311   1.836   0.901   1.968  0.1754 -0.3234  0.3009
 1065SOL     OW 4312   1.843   1.148   1.871 -0.6326 -0.2045 -0.0868
 1065SOL    HW2 4313   1.756   1.172   1.905 -0.3602  0.5613  0.0804
 1065SOL    HW3 4314   1.841   1.176   1.780 -0.3848  0.2850  0.0547
 1065SOL    MW4 4315   1.831   1.155   1.864 -0.5641 -0.0390 -0.0460
 1066SOL     OW 4316   2.053   1.301   1.989 -0.0274  0.0101 -0.2597
 1066SOL    HW2 4317   2.135   1.260   1.959  0.2703  0.1737  0.3255
 1066SOL    HW3 4318   1.984   1.248   1.950  0.3557 -0.1088 -0.7938
 1066SOL    MW4 4319   2.055   1.288   1.980  0.0627  0.0160 -0.2530
 1067SOL     OW 4320   2.064   1.567   1.901 -0.3452 -0.5120  0.0389
 1067SOL    HW2 4321   2.065   1.479   1.938 -1.6310 -0.8457 -0.6961
 1067SOL    HW3 4322   2.034   1.555   1.811  2.0550  0.3861 -0.9042
 1067SOL    MW4 4323   2.060   1.554   1.894 -0.1981 -0.4375 -0.1826
 1068SOL     OW 4324   1.827   1.660   1.993  0.1214 -0.6451 -0.4107
 1068SOL    HW2 4325   1.832   1.750   1.960  0.5094 -0.1005  1.0820
 1068SOL    HW3 4326   1.917   1.627   1.987  0.1843 -0.5589  0.0593
 1068SOL    MW4 4327   1.839   1.668   1.988  0.1810 -0.5620 -0.1518
 1069SOL     OW 4328   1.860   1.912   1.910 -0.0841 -0.7963 -0.3986
 1069SOL    HW2 4329   1.775   1.950   1.932 -0.0686 -0.8367 -0.2697
 1069SOL    HW3 4330   1.859   1.905   1.815  0.0393 -0.1648 -0.4497
 1069SOL    MW4 4331   1.849   1.916   1.901 -0.0658 -0.7184 -0.3884
 1070SOL     OW 4332   2.064   2.058   2.017 -0.4025 -0.1597 -0.0680
 1070SOL    HW2 4333   2.144   2.021   1.980 -0.5836 -0.7518  0.1369
 1070SOL    HW3 4334   1.994   2.003   1.984 -0.7160  0.2806 -0.1394
 1070SOL    MW4 4335   2.065   2.046   2.008 -0.4673 -0.1798 -0.0503
 1071SOL     OW 4336   2.024   2.327   1.902 -0.3882 -0.2707 -0.1740
 1071SOL    HW2 4337   2.097   2.379   1.936  0.9700 -1.1890 -1.6718
 1071SOL    HW3 4338   2.026   2.246   1.952 -0.7808 -0.0540  0.2043
 1071SOL    MW4 4339   2.034   2.323   1.913 -0.2608 -0.3633 -0.3216
 1072SOL     OW 4340   1.771   2.412   1.985  0.1941 -0.3438  0.0785
 1072SOL    HW2 4341   1.771   2.409   2.081  0.8707  0.3196  0.1035
 1072SOL    HW3 4342   1.862   2.394   1.960  0.0198 -0.5157 -0.4401
 1072SOL    MW4 4343   1.783   2.409   1.994  0.2604 -0.2792  0.0135
 1073SOL     OW 4344   1.828   2.660   1.894 -0.1955  0.7710 -0.3501
 1073SOL    HW2 4345   1.802   2.573   1.922  0.9952  0.7946  0.8062
 1073SOL    HW3 4346   1.849   2.650   1.801 -0.5794 -0.0501 -0.3492
 1073SOL    MW4 4347   1.827   2.647   1.885 -0.0892  0.6659 -0.1974
 1074SOL     OW 4348   2.021   2.833   1.979  0.0149  0.4769  0.1743
 1074SOL    HW2 4349   2.027   2.823   2.074 -1.3770  1.0745  0.3375
 1074SOL    HW3 4350   1.954   2.770   1.953 -0.1380  0.8460 -0.3215
 1074SOL    MW4 4351   2.013   2.823   1.988 -0.1888  0.6044  0.1303
 1075SOL     OW 4352   2.008   3.101   1.900 -0.0440 -0.2131 -0.3325
 1075SOL    HW2 4353   1.933   3.140   1.945  0.4478 -0.0799  0.3800
 1075SOL    HW3 4354   2.016   3.014   1.938  0.2360 -0.1831 -0.3205
 1075SOL    MW4 4355   1.999   3.095   1.911  0.0579 -0.1915 -0.2370
 1076SOL     OW 4356   1.790   3.223   2.008  0.1309 -0.1331  0.3448
 1076SOL    HW2 4357   1.779   3.202   2.101 -0.7005 -0.0662  0.2711
 1076SOL    HW3 4358   1.717   3.177   1.966  0.7868 -0.5552 -0.3302
 1076SOL    MW4 4359   1.779   3.214   2.015  0.1078 -0.1800  0.2460
 1077SOL     OW 4360   1.827   3.479   1.907  0.1251  0.2076  0.0723
 1077SOL    HW2 4361   1.830   3.390   1.943  0.1288 -0.1935 -0.9275
 1077SOL    HW3 4362   1.750   3.518   1.948 -0.2265 -0.4561  0.0535
 1077SOL    MW4 4363   1.817   3.473   1.918  0.0793  0.0672 -0.0620
 1078SOL     OW 4364   2.067   3.613   1.975 -0.1156  0.4955  0.3835
 1078SOL    HW2 4365   2.071   3.701   1.938  0.5644  1.0741  1.7775
 1078SOL    HW3 4366   1.982   3.579   1.947  0.1525  1.0946 -1.2332
 1078SOL    MW4 4367   2.056   3.621   1.967  0.0093  0.6509  0.3541
 1079SOL     OW 4368   2.024   3.868   1.862 -0.2694 -0.1047  0.1023
 1079SOL    HW2 4369   2.101   3.908   1.902 -0.0940  0.7000 -1.0046
 1079SOL    HW3 4370   2.040   3.876   1.767 -1.2554 -0.8151 -0.1321
 1079SOL    MW4 4371   2.037   3.874   1.855 -0.3760 -0.0923 -0.0746
 1080SOL     OW 4372   1.795   3.979   1.962  0.2398  0.2364  0.1316
 1080SOL    HW2 4373   1.785   4.068   1.929  0.7167  0.6630  1.1352
 1080SOL    HW3 4374   1.873   3.945   1.917 -0.1439  0.1898 -0.5159
 1080SOL    MW4 4375   1.804   3.986   1.951  0.2522  0.2866  0.1786
 1081SOL     OW 4376   1.792   4.249   1.873  0.5059  0.1201 -0.2318
 1081SOL    HW2 4377   1.721   4.300   1.912  0.2933 -1.2141  1.1828
 1081SOL    HW3 4378   1.794   4.276   1.781 -0.3786  1.7810  0.2250
 1081SOL    MW4 4379   1.783   4.259   1.866  0.3612  0.1636  0.0151
 1082SOL     OW 4380   2.019   4.370   2.021 -0.2534  0.6364  0.1668
 1082SOL    HW2 4381   2.103   4.354   1.977 -0.3499  0.8243 -0.0840
 1082SOL    HW3 4382   1.959   4.306   1.981 -0.2916  0.6743  0.1634
 1082SOL    MW4 4383   2.022   4.359   2.010 -0.2711  0.6666  0.1335
 1083SOL     OW 4384   2.465   4.654   1.895 -0.0112  0.1725 -0.2561
 1083SOL    HW2 4385   2.536   4.711   1.924  0.5999  0.2233 -1.7982
 1083SOL    HW3 4386   2.488   4.567   1.928  0.3014  0.3595  0.0202
 1083SOL    MW4 4387   2.477   4.650   1.903  0.1109  0.2046 -0.4230
 1084SOL     OW 4388   2.236   0.110   1.992  0.7950 -0.3342  0.5910
 1084SOL    HW2 4389   2.250   0.120   2.086  1.7465 -1.0655  0.5382
 1084SOL    HW3 4390   2.317   0.070   1.960  0.0314 -1.1526 -0.3532
 1084SOL    MW4 4391   2.248   0.106   2.000  0.8197 -0.5386  0.4596
 1085SOL     OW 4392   2.242   0.357   1.847 -0.0093 -0.4273 -0.0149
 1085SOL    HW2 4393   2.268   0.273   1.884  0.1944 -0.7217 -0.8042
 1085SOL    HW3 4394   2.171   0.388   1.902 -1.2750 -1.9575 -0.7693
 1085SOL    MW4 4395   2.236   0.350   1.859 -0.1493 -0.6681 -0.2186
 1086SOL     OW 4396   2.498   0.497   1.963 -0.1067  0.1760 -0.5886
 1086SOL    HW2 4397   2.580   0.459   1.933 -0.4890 -1.2211  0.0760
 1086SOL    HW3 4398   2.431   0.456   1.908 -0.4797  0.2901 -0.2234
 1086SOL    MW4 4399   2.500   0.487   1.952 -0.2062  0.0067 -0.4528
 1087SOL     OW 4400   2.485   0.772   1.896  0.0302 -0.2152 -0.7194
 1087SOL    HW2 4401   2.494   0.682   1.927 -0.6081 -0.0241  0.0307
 1087SOL    HW3 4402   2.483   0.764   1.800  1.6369 -0.8350 -0.7171
 1087SOL    MW4 4403   2.486   0.759   1.887  0.1578 -0.2718 -0.6200
 1088SOL     OW 4404   2.267   0.901   1.982  0.2510  0.1875 -0.1439
 1088SOL    HW2 4405   2.270   0.897   2.078 -1.3094 -0.8412 -0.1269
 1088SOL    HW3 4406   2.352   0.867   1.954 -0.6136 -2.9502  0.8231
 1088SOL    MW4 4407   2.279   0.896   1.991 -0.0687 -0.3622 -0.0142
 1089SOL     OW 4408   2.259   1.163   1.890  0.3502  0.6222  0.3692
 1089SOL    HW2 4409   2.339   1.203   1.925  1.0174 -0.2428 -0.1377
 1089SOL    HW3 4410   2.259   1.074   1.925 -0.8555  0.8894  1.0735
 1089SOL    MW4 4411   2.269   1.157   1.899  0.2787  0.5435  0.3953
 1090SOL     OW 4412   2.490   1.279   1.981  0.4535  0.3730 -0.0783
 1090SOL    HW2 4413   2.487   1.285   2.076 -2.0586 -0.0691 -0.0952
 1090SOL    HW3 4414   2.489   1.370   1.951  0.6765  0.5001  0.2928
 1090SOL    MW4 4415   2.490   1.291   1.990  0.1514  0.3314 -0.0315
 1091SOL     OW 4416   2.484   1.550   1.921  0.0280 -0.3139 -0.3518
 1091SOL    HW2 4417   2.406   1.593   1.955  0.1092 -0.6093  0.2152
 1091SOL    HW3 4418   2.473   1.551   1.826  0.4739  1.7980 -0.4032
 1091SOL    MW4 4419   2.472   1.556   1.913  0.0975 -0.0741 -0.2838
 1092SOL     OW 4420   2.291   1.702   2.001  0.2807 -0.1216 -0.1619
 1092SOL    HW2 4421   2.282   1.694   2.096  0.5862  1.1168 -0.0145
 1092SOL    HW3 4422   2.211   1.662   1.966  0.2224 -0.6863  0.6130
 1092SOL    MW4 4423   2.279   1.696   2.009  0.3133 -0.0327 -0.0401
 1093SOL     OW 4424   2.280   1.936   1.861 -0.1581 -0.0367  0.3955
 1093SOL    HW2 4425   2.354   1.991   1.888  0.6211  0.1940 -2.0574
 1093SOL    HW3 4426   2.294   1.853   1.906  0.7021  0.5599  1.2450
 1093SOL    MW4 4427   2.291   1.933   1.870  0.0582  0.0725  0.1839
 1094SOL     OW 4428   2.481   2.070   1.969  0.0176 -0.0416 -0.1086
 1094SOL    HW2 4429   2.557   2.017   1.944 -0.6575 -0.6798 -0.8246
 1094SOL    HW3 4430   2.498   2.156   1.931  0.4846 -0.1196 -0.0799
 1094SOL    MW4 4431   2.494   2.074   1.961 -0.0098 -0.1361 -0.1994
 1095SOL     OW 4432   2.459   2.335   1.849  0.3061  0.1789  0.3370
 1095SOL    HW2 4433   2.539   2.369   1.890 -0.1204 -0.9593  2.1982
 1095SOL    HW3 4434   2.388   2.378   1.897 -0.2086 -0.5184  0.2039
 1095SOL    MW4 4435   2.460   2.345   1.861  0.1819 -0.0634  0.5649
 1096SOL     OW 4436   2.269   2.454   1.999 -0.3464 -0.2357  0.2229
 1096SOL    HW2 4437   2.279   2.457   2.094 -0.9514  0.1595  0.2781
 1096SOL    HW3 4438   2.268   2.546   1.972 -0.0741 -0.3474 -0.1799
 1096SOL    MW4 4439   2.270   2.467   2.008 -0.3905 -0.1981  0.1769
 1097SOL     OW 4440   2.267   2.721   1.896  0.1143 -0.1825 -0.2884
 1097SOL    HW2 4441   2.183   2.753   1.929  0.5093 -0.4582  1.0079
 1097SOL    HW3 4442   2.255   2.716   1.801 -1.3480 -0.2572 -0.1119
 1097SOL    MW4 4443   2.255   2.724   1.888 -0.0265 -0.2289 -0.0941
 1098SOL     OW 4444   2.495   2.834   2.000 -0.1667  0.1774 -0.1504
 1098SOL    HW2 4445   2.476   2.918   1.959 -0.9983  0.6495  1.1448
 1098SOL    HW3 4446   2.422   2.777   1.974 -0.5990  0.4246  0.4808
 1098SOL    MW4 4447   2.483   2.837   1.991 -0.3335  0.2725  0.1040
 1099SOL     OW 4448   2.460   3.080   1.893 -0.0389  0.1181  0.0450
 1099SOL    HW2 4449   2.386   3.132   1.924  0.6848  1.6632 -0.7573
 1099SOL    HW3 4450   2.469   3.103   1.801  0.2052 -1.5630 -0.3691
 1099SOL    MW4 4451   2.452   3.090   1.885  0.0889  0.1001 -0.1156
 1100SOL     OW 4452   2.243   3.211   1.988 -0.2324 -0.2235  0.3453
 1100SOL    HW2 4453   2.240   3.208   2.084  0.3206  1.7750  0.4482
 1100SOL    HW3 4454   2.158   3.177   1.961 -0.6918 -0.0868  1.5561
 1100SOL    MW4 4455   2.231   3.206   1.997 -0.2201  0.0582  0.5186
 1101SOL     OW 4456   2.249   3.457   1.865 -0.1704 -0.0516  0.1716
 1101SOL    HW2 4457   2.243   3.374   1.911 -1.1470 -0.8661 -1.3675
 1101SOL    HW3 4458   2.179   3.510   1.902 -0.0713 -0.2052  0.5804
 1101SOL    MW4 4459   2.239   3.453   1.876 -0.2863 -0.1793  0.0224
 1102SOL     OW 4460   2.479   3.584   1.922 -0.3977  0.2529 -0.1522
 1102SOL    HW2 4461   2.470   3.588   2.017  0.7902  0.7071 -0.0530
 1102SOL    HW3 4462   2.399   3.542   1.892 -1.3147  1.1734  0.9619
 1102SOL    MW4 4463   2.467   3.579   1.930 -0.3622  0.4342  0.0079
 1103SOL     OW 4464   2.473   3.873   1.877 -0.6282  0.0573  0.0196
 1103SOL    HW2 4465   2.393   3.915   1.908 -0.3303 -0.2794  1.2857
 1103SOL    HW3 4466   2.464   3.782   1.902  0.8797  0.3395  1.7013
 1103SOL    MW4 4467   2.461   3.867   1.884 -0.3901  0.0503  0.4085
 1104SOL     OW 4468   2.254   4.009   1.969 -0.0871  0.1031 -0.4169
 1104SOL    HW2 4469   2.250   4.021   2.063 -0.8149  0.9653 -0.5541
 1104SOL    HW3 4470   2.264   4.098   1.934 -0.5126 -0.1483 -1.1863
 1104SOL    MW4 4471   2.255   4.022   1.976 -0.2391  0.1841 -0.5364
 1105SOL     OW 4472   2.275   4.280   1.896 -0.0581  0.0366 -0.0176
 1105SOL    HW2 4473   2.358   4.317   1.925 -0.2859 -0.7648  1.6794
 1105SOL    HW3 4474   2.278   4.288   1.800  1.5916  0.7913  0.0779
 1105SOL    MW4 4475   2.286   4.286   1.887  0.1295  0.0305  0.2189
 1106SOL     OW 4476   2.507   4.385   1.998 -0.0615  0.0495 -0.5948
 1106SOL    HW2 4477   2.498   4.387   2.094  1.0120  1.6402 -0.5090
 1106SOL    HW3 4478   2.591   4.341   1.984 -1.3688 -2.3917 -0.9040
 1106SOL    MW4 4479   2.517   4.380   2.009 -0.0923 -0.0629 -0.6242
 1107SOL     OW 4480   2.919   4.623   1.898  0.6469 -0.3826  0.2331
 1107SOL    HW2 4481   2.995   4.672   1.928  0.2704  0.6312 -0.4237
 1107SOL    HW3 4482   2.933   4.534   1.931  1.0718  0.2888  1.8928
 1107SOL    MW4 4483   2.931   4.617   1.906  0.6533 -0.1612  0.3654
 1108SOL     OW 4484   2.689   0.114   1.974 -0.2872 -0.1237 -0.1843
 1108SOL    HW2 4485   2.687   0.091   2.067 -0.8333 -1.7692 -0.5812
 1108SOL    HW3 4486   2.758   0.059   1.937 -1.0432 -0.5399 -1.0029
 1108SOL    MW4 4487   2.698   0.103   1.981 -0.4592 -0.3957 -0.3446
 1109SOL     OW 4488   2.702   0.366   1.849  0.3927  0.3197 -0.0478
 1109SOL    HW2 4489   2.781   0.410   1.881  0.2161  0.2607  0.4766
 1109SOL    HW3 4490   2.709   0.277   1.884 -0.3419  0.5676  0.7465
 1109SOL    MW4 4491   2.713   0.360   1.858  0.2725  0.3446  0.1262
 1110SOL     OW 4492   2.910   0.508   1.984  0.2777 -0.0887  0.4884
 1110SOL    HW2 4493   2.995   0.474   1.956 -0.0810 -0.9528  0.4146
 1110SOL    HW3 4494   2.908   0.598   1.952  0.8075 -0.3375 -0.2687
 1110SOL    MW4 4495   2.921   0.515   1.976  0.3002 -0.2356  0.3787
 1111SOL     OW 4496   2.907   0.758   1.848  0.2388  0.1871 -0.2497
 1111SOL    HW2 4497   2.982   0.791   1.897  0.6673 -2.3928  0.9054
 1111SOL    HW3 4498   2.831   0.792   1.896  0.6680 -0.5465  0.9629
 1111SOL    MW4 4499   2.907   0.767   1.861  0.3519 -0.2500  0.0627
 1112SOL     OW 4500   2.715   0.886   2.001  0.1358 -0.7974  0.6247
 1112SOL    HW2 4501   2.721   0.976   1.969  0.0912 -1.2595 -0.6924
 1112SOL    HW3 4502   2.632   0.854   1.966  0.1837 -1.3796  1.0337
 1112SOL    MW4 4503   2.705   0.894   1.992  0.1361 -0.9352  0.5049
 1113SOL     OW 4504   2.733   1.148   1.905  0.3270 -0.1407 -0.4909
 1113SOL    HW2 4505   2.657   1.204   1.919  1.1347  0.7425  0.5134
 1113SOL    HW3 4506   2.738   1.137   1.810 -1.9132 -1.4488 -0.4917
 1113SOL    MW4 4507   2.724   1.154   1.894  0.1378 -0.1966 -0.3585
 1114SOL     OW 4508   2.974   1.256   2.016  0.3441 -0.1919 -0.0763
 1114SOL    HW2 4509   2.979   1.347   1.987  1.2442 -0.5155 -0.9448
 1114SOL    HW3 4510   2.894   1.222   1.975 -0.3055  0.3557  0.7092
 1114SOL    MW4 4511   2.964   1.263   2.007  0.3769 -0.1624 -0.0873
 1115SOL     OW 4512   2.937   1.534   1.945  0.1013 -0.5370  0.2192
 1115SOL    HW2 4513   2.999   1.599   1.977  0.1913 -1.3041  1.6915
 1115SOL    HW3 4514   2.916   1.561   1.856  1.2663  0.6604  0.2998
 1115SOL    MW4 4515   2.942   1.546   1.938  0.2668 -0.4802  0.4240
 1116SOL     OW 4516   2.705   1.670   2.029 -0.0119 -0.3811 -0.1983
 1116SOL    HW2 4517   2.789   1.634   2.001 -0.2266 -1.9955  1.1511
 1116SOL    HW3 4518   2.641   1.602   2.007 -0.8756  0.5420 -0.5806
 1116SOL    MW4 4519   2.708   1.657   2.022 -0.1540 -0.4724 -0.0703
 1117SOL     OW 4520   2.704   1.909   1.916  0.1770  0.1125 -0.1817
 1117SOL    HW2 4521   2.775   1.952   1.962  1.9538 -0.3021 -2.4303
 1117SOL    HW3 4522   2.704   1.819   1.949  0.7626  0.0959 -0.2284
 1117SOL    MW4 4523   2.713   1.903   1.926  0.4888  0.0557 -0.4846
 1118SOL     OW 4524   2.907   2.094   1.994 -0.1471 -0.0305 -0.1175
 1118SOL    HW2 4525   2.911   2.099   2.090 -0.1798  0.6620 -0.1546
 1118SOL    HW3 4526   2.983   2.041   1.970 -0.9409 -1.4492  0.3880
 1118SOL    MW4 4527   2.917   2.088   2.004 -0.2561 -0.1261 -0.0558
 1119SOL     OW 4528   2.939   2.349   1.870  0.1604  0.2356 -0.2649
 1119SOL    HW2 4529   3.020   2.371   1.916  0.0915  0.6360 -0.3321
 1119SOL    HW3 4530   2.919   2.259   1.898 -0.4389  0.8353  1.3057
 1119SOL    MW4 4531   2.947   2.340   1.880  0.0722  0.3676 -0.0664
 1120SOL     OW 4532   2.712   2.447   1.973 -0.1011 -0.3733  0.6940
 1120SOL    HW2 4533   2.716   2.533   1.931 -0.7282 -0.8037 -0.2924
 1120SOL    HW3 4534   2.794   2.404   1.948 -0.7811 -0.8918 -0.7226
 1120SOL    MW4 4535   2.723   2.452   1.964 -0.2735 -0.4983  0.3769
 1121SOL     OW 4536   2.721   2.703   1.882 -0.3817 -0.1286  0.2818
 1121SOL    HW2 4537   2.649   2.757   1.914  1.4374  2.0766  0.8818
 1121SOL    HW3 4538   2.718   2.712   1.787  0.1190  1.3880  0.3942
 1121SOL    MW4 4539   2.711   2.712   1.874 -0.0756  0.3622  0.3757
 1122SOL     OW 4540   2.971   2.834   1.993  0.0865 -0.2932 -0.4100
 1122SOL    HW2 4541   2.994   2.914   1.947  0.9669 -1.1941 -1.5946
 1122SOL    HW3 4542   2.896   2.799   1.944 -0.9303  0.3092  0.7034
 1122SOL    MW4 4543   2.964   2.840   1.980  0.0687 -0.3328 -0.4193
 1123SOL     OW 4544   2.942   3.067   1.837 -0.0061 -0.0590 -0.1552
 1123SOL    HW2 4545   3.012   3.130   1.856 -0.4255  0.8920 -1.6587
 1123SOL    HW3 4546   2.868   3.097   1.889  0.3461 -0.3609  0.5160
 1123SOL    MW4 4547   2.941   3.080   1.846 -0.0150  0.0265 -0.2650
 1124SOL     OW 4548   2.703   3.168   1.994 -0.2753  0.4684 -0.3546
 1124SOL    HW2 4549   2.716   3.261   1.972  0.0682  0.3482 -0.6640
 1124SOL    HW3 4550   2.613   3.150   1.964 -1.0343  1.1908  1.4383
 1124SOL    MW4 4551   2.693   3.178   1.987 -0.3300  0.5476 -0.1589
 1125SOL     OW 4552   2.692   3.416   1.877 -0.4532  0.4761 -0.5089
 1125SOL    HW2 4553   2.760   3.472   1.915  0.2437  0.9431 -2.4235
 1125SOL    HW3 4554   2.612   3.467   1.886 -0.5721 -0.0192  1.6363
 1125SOL    MW4 4555   2.691   3.430   1.883 -0.3769  0.4725 -0.4784
 1126SOL     OW 4556   2.901   3.572   1.962 -0.1120 -0.5327 -0.0213
 1126SOL    HW2 4557   2.920   3.579   2.055  1.2094  1.7100 -0.4237
 1126SOL    HW3 4558   2.982   3.538   1.923  0.1434  0.7624 -0.6410
 1126SOL    MW4 4559   2.914   3.568   1.969  0.0961 -0.0658 -0.1560
 1127SOL     OW 4560   2.928   3.855   1.885  0.0063 -0.2069 -0.1482
 1127SOL    HW2 4561   2.915   3.761   1.896  0.0945 -0.0975  1.0155
 1127SOL    HW3 4562   2.928   3.869   1.790  1.8938 -1.6600 -0.4008
 1127SOL    MW4 4563   2.927   3.844   1.874  0.2666 -0.3839 -0.0280
 1128SOL     OW 4564   2.718   3.983   1.990  0.5945 -0.0725 -0.1684
 1128SOL    HW2 4565   2.797   3.935   1.963  0.0710 -1.3045  0.4581
 1128SOL    HW3 4566   2.647   3.940   1.942  0.6343  3.0764 -3.2271
 1128SOL    MW4 4567   2.719   3.971   1.980  0.5305  0.1802 -0.4894
 1129SOL     OW 4568   2.731   4.246   1.890  0.3730  0.1656  0.0662
 1129SOL    HW2 4569   2.721   4.153   1.906  0.1909  0.3034  0.7540
 1129SOL    HW3 4570   2.727   4.255   1.794 -1.4240 -0.3121  0.0824
 1129SOL    MW4 4571   2.729   4.235   1.879  0.1121  0.1206  0.1590
 1130SOL     OW 4572   2.948   4.355   2.009  0.1192  0.5218 -0.1168
 1130SOL    HW2 4573   2.937   4.353   2.104  0.0215  0.4195 -0.1310
 1130SOL    HW3 4574   2.874   4.306   1.975  0.4823  0.0458 -0.2234
 1130SOL    MW4 4575   2.937   4.348   2.017  0.1543  0.4463 -0.1328
 1131SOL     OW 4576   3.357   4.653   1.934  0.1567 -0.3064 -0.1873
 1131SOL    HW2 4577   3.352   4.564   1.970  0.1895 -0.0503  0.4644
 1131SOL    HW3 4578   3.368   4.640   1.840  1.2329 -1.0192  0.0139
 1131SOL    MW4 4579   3.358   4.640   1.926  0.3033 -0.3662 -0.0749
 1132SOL     OW 4580   3.120   0.122   1.999 -0.2475 -0.0564  0.2234
 1132SOL    HW2 4581   3.107   0.122   2.093  0.6121  2.9728  0.4144
 1132SOL    HW3 4582   3.206   0.083   1.986 -0.3833 -0.5046  0.7017
 1132SOL    MW4 4583   3.130   0.117   2.009 -0.1521  0.2842  0.3116
 1133SOL     OW 4584   3.147   0.375   1.877 -0.1705  0.0398  0.0803
 1133SOL    HW2 4585   3.143   0.284   1.907  0.3144  0.0143  0.0663
 1133SOL    HW3 4586   3.137   0.368   1.782  1.2181 -0.1066 -0.0609
 1133SOL    MW4 4587   3.145   0.362   1.868  0.0768  0.0171  0.0600
 1134SOL     OW 4588   3.379   0.484   1.994  0.4816 -0.2923 -0.6840
 1134SOL    HW2 4589   3.460   0.440   1.970 -0.4413 -1.4140 -1.7751
 1134SOL    HW3 4590   3.310   0.432   1.953 -0.9384 -0.5940  1.9752
 1134SOL    MW4 4591   3.380   0.472   1.986  0.1726 -0.4801 -0.4772
 1135SOL     OW 4592   3.373   0.748   1.896 -0.1263  0.5439  0.1331
 1135SOL    HW2 4593   3.296   0.780   1.943  0.5901  1.3325  0.7871
 1135SOL    HW3 4594   3.390   0.661   1.934  0.1634  0.9771  1.0172
 1135SOL    MW4 4595   3.365   0.740   1.907  0.0064  0.7050  0.3359
 1136SOL     OW 4596   3.119   0.844   1.986 -0.1668 -0.1101 -0.0154
 1136SOL    HW2 4597   3.136   0.832   2.079 -0.8889 -0.3879  0.0856
 1136SOL    HW3 4598   3.148   0.933   1.967 -2.1518  0.7834  0.9892
 1136SOL    MW4 4599   3.125   0.854   1.996 -0.5240 -0.0288  0.1305
 1137SOL     OW 4600   3.175   1.106   1.909  0.0014  0.2935 -0.3198
 1137SOL    HW2 4601   3.253   1.158   1.928  0.1540  0.2643 -0.8521
 1137SOL    HW3 4602   3.102   1.155   1.948  0.1702  0.7953 -0.6369
 1137SOL    MW4 4603   3.176   1.119   1.917  0.0436  0.3560 -0.4318
 1138SOL     OW 4604   3.384   1.254   1.998 -0.0078 -0.4087  0.4161
 1138SOL    HW2 4605   3.360   1.260   2.091  0.2295  1.6712  0.3819
 1138SOL    HW3 4606   3.373   1.343   1.965  0.6673 -0.9608 -1.3757
 1138SOL    MW4 4607   3.380   1.267   2.006  0.1128 -0.2072  0.1752
 1139SOL     OW 4608   3.346   1.527   1.898  0.2997  0.0555 -0.0227
 1139SOL    HW2 4609   3.424   1.569   1.934 -0.5454  0.6935  1.0853
 1139SOL    HW3 4610   3.273   1.579   1.931 -0.6498 -1.0271 -0.3760
 1139SOL    MW4 4611   3.347   1.539   1.907  0.0629 -0.0032  0.0770
 1140SOL     OW 4612   3.132   1.697   2.027  0.0295  0.0030 -0.2293
 1140SOL    HW2 4613   3.126   1.714   2.121  1.2453 -0.6686 -0.0151
 1140SOL    HW3 4614   3.131   1.784   1.987 -0.6809  0.2881  0.3915
 1140SOL    MW4 4615   3.131   1.711   2.034  0.0961 -0.0480 -0.1190
 1141SOL     OW 4616   3.109   1.930   1.906  0.1249  0.2738 -0.0152
 1141SOL    HW2 4617   3.192   1.960   1.944  0.4725  0.6883 -1.0538
 1141SOL    HW3 4618   3.120   1.945   1.812 -1.5913  1.4356 -0.0495
 1141SOL    MW4 4619   3.122   1.936   1.898 -0.0558  0.4817 -0.1568
 1142SOL     OW 4620   3.350   2.027   2.000  0.2632  0.0651  0.6582
 1142SOL    HW2 4621   3.423   1.985   1.955  0.0087 -0.8226  1.0613
 1142SOL    HW3 4622   3.363   2.121   1.986  1.8982 -0.0430  1.3816
 1142SOL    MW4 4623   3.361   2.034   1.992  0.4454 -0.0665  0.8068
 1143SOL     OW 4624   3.383   2.302   1.907  0.6477  0.1367 -0.1615
 1143SOL    HW2 4625   3.303   2.344   1.939 -0.6949 -2.4500  0.0358
 1143SOL    HW3 4626   3.378   2.311   1.812 -0.3571 -0.7946 -0.2117
 1143SOL    MW4 4627   3.372   2.309   1.899  0.3378 -0.3273 -0.1420
 1144SOL     OW 4628   3.149   2.440   1.999  0.3693 -0.2316  0.4038
 1144SOL    HW2 4629   3.165   2.445   2.093 -1.0593  1.0348  0.6112
 1144SOL    HW3 4630   3.149   2.531   1.970 -0.4851 -0.5327 -0.5854
 1144SOL    MW4 4631   3.151   2.453   2.007  0.0679 -0.1040  0.3006
 1145SOL     OW 4632   3.188   2.695   1.891 -0.0801  0.1430  0.3025
 1145SOL    HW2 4633   3.110   2.738   1.927  0.6671  1.0641  0.8636
 1145SOL    HW3 4634   3.183   2.712   1.797 -1.1074 -0.7183  0.2020
 1145SOL    MW4 4635   3.177   2.703   1.883 -0.1171  0.1507  0.3632
 1146SOL     OW 4636   3.409   2.841   1.997  0.3097  0.2306  0.1553
 1146SOL    HW2 4637   3.404   2.841   2.092 -0.6899  1.6739  0.1208
 1146SOL    HW3 4638   3.337   2.784   1.969  0.5290 -0.0994  0.2690
 1146SOL    MW4 4639   3.399   2.834   2.006  0.2065  0.3774  0.1657
 1147SOL     OW 4640   3.393   3.111   1.896  0.5949  0.5086  0.0603
 1147SOL    HW2 4641   3.482   3.139   1.916  1.6576 -0.9681 -2.5117
 1147SOL    HW3 4642   3.391   3.018   1.918 -0.7553  0.8460  1.4622
 1147SOL    MW4 4643   3.404   3.103   1.902  0.5567  0.3581 -0.0941
 1148SOL     OW 4644   3.145   3.229   1.952  0.0905  0.0596 -0.6036
 1148SOL    HW2 4645   3.161   3.315   1.913  0.7303  0.6715  0.9790
 1148SOL    HW3 4646   3.228   3.182   1.940 -0.4149 -0.5199 -1.9009
 1148SOL    MW4 4647   3.158   3.234   1.945  0.1082  0.0637 -0.5659
 1149SOL     OW 4648   3.143   3.496   1.840  0.1132  0.1430 -0.0600
 1149SOL    HW2 4649   3.221   3.528   1.886 -1.0158  2.8819  0.0236
 1149SOL    HW3 4650   3.170   3.491   1.748  0.5923  0.3740  0.0688
 1149SOL    MW4 4651   3.157   3.499   1.834  0.0272  0.5350 -0.0321
 1150SOL     OW 4652   3.362   3.578   1.977  0.0221  0.2141 -0.0087
 1150SOL    HW2 4653   3.439   3.531   1.946 -0.0437 -0.5769  0.9861
 1150SOL    HW3 4654   3.376   3.669   1.951  0.6270 -0.1744 -1.0620
 1150SOL    MW4 4655   3.374   3.584   1.969  0.0932  0.0584 -0.0165
 1151SOL     OW 4656   3.386   3.841   1.901  0.4975 -0.4902  0.1293
 1151SOL    HW2 4657   3.313   3.898   1.927  1.3790  0.3567  0.7957
 1151SOL    HW3 4658   3.385   3.844   1.805  0.1269  0.1288  0.1460
 1151SOL    MW4 4659   3.376   3.849   1.892  0.5651 -0.2968  0.2196
 1152SOL     OW 4660   3.160   3.983   1.975  0.2249  0.1680  0.0304
 1152SOL    HW2 4661   3.160   3.974   2.071  0.6597  2.2362  0.2285
 1152SOL    HW3 4662   3.073   3.952   1.949 -0.6182  1.4471  1.2689
 1152SOL    MW4 4663   3.149   3.978   1.984  0.1709  0.6096  0.2198
 1153SOL     OW 4664   3.178   4.248   1.887 -0.1581  0.3905 -0.4062
 1153SOL    HW2 4665   3.183   4.158   1.919 -1.1523  0.5575  0.2361
 1153SOL    HW3 4666   3.105   4.286   1.935 -0.2754  1.2906 -1.2933
 1153SOL    MW4 4667   3.169   4.241   1.897 -0.3047  0.5312 -0.4385
 1154SOL     OW 4668   3.341   4.389   2.044  0.3656 -0.2265 -0.1511
 1154SOL    HW2 4669   3.427   4.361   2.012 -0.2522 -1.0335 -1.1178
 1154SOL    HW3 4670   3.278   4.338   1.993 -0.7105  0.8601  0.0580
 1154SOL    MW4 4671   3.344   4.379   2.033  0.1419 -0.1888 -0.2513
 1155SOL     OW 4672   3.802   4.604   1.864 -0.2122 -0.3586  0.5596
 1155SOL    HW2 4673   3.813   4.518   1.904 -0.9045 -0.4830  0.4773
 1155SOL    HW3 4674   3.732   4.646   1.914  0.5231  0.3857  0.9831
 1155SOL    MW4 4675   3.794   4.598   1.876 -0.2065 -0.2766  0.6046
 1156SOL     OW 4676   3.608   0.085   1.993  0.0030  0.0029  0.6160
 1156SOL    HW2 4677   3.613   0.114   2.084 -0.8530 -1.8110  1.2720
 1156SOL    HW3 4678   3.516   0.061   1.981  0.0103  0.7047 -0.8758
 1156SOL    MW4 4679   3.596   0.085   2.004 -0.1092 -0.1438  0.5059
 1157SOL     OW 4680   3.599   0.355   1.894 -0.1634  0.3317  0.1165
 1157SOL    HW2 4681   3.589   0.261   1.908 -1.2913  0.4747  0.2906
 1157SOL    HW3 4682   3.606   0.364   1.799  3.0532 -0.2044  0.2287
 1157SOL    MW4 4683   3.599   0.344   1.883  0.1123  0.2798  0.1543
 1158SOL     OW 4684   3.845   0.484   1.993  0.1160  0.2198 -0.1897
 1158SOL    HW2 4685   3.855   0.569   1.951  2.1633 -0.3245 -0.8342
 1158SOL    HW3 4686   3.762   0.450   1.959 -0.3810  1.6431 -0.4420
 1158SOL    MW4 4687   3.835   0.490   1.983  0.3204  0.3358 -0.3080
 1159SOL     OW 4688   3.861   0.744   1.881 -0.3129  0.1065 -0.0706
 1159SOL    HW2 4689   3.789   0.797   1.915  0.3181  0.6101  0.4922
 1159SOL    HW3 4690   3.852   0.750   1.786 -0.6205  0.7005 -0.0074
 1159SOL    MW4 4691   3.850   0.752   1.873 -0.2704  0.2512  0.0119
 1160SOL     OW 4692   3.604   0.877   2.016 -0.3465 -0.3580  0.1965
 1160SOL    HW2 4693   3.613   0.964   1.977  0.3638 -1.0627 -1.2647
 1160SOL    HW3 4694   3.542   0.832   1.958 -0.7839 -0.7975  1.0023
 1160SOL    MW4 4695   3.597   0.883   2.003 -0.3104 -0.5090  0.1099
 1161SOL     OW 4696   3.625   1.129   1.915  0.3649  0.0195 -0.4495
 1161SOL    HW2 4697   3.549   1.177   1.949  1.5280  1.8894 -0.4509
 1161SOL    HW3 4698   3.606   1.116   1.822 -0.4750 -0.5693 -0.2035
 1161SOL    MW4 4699   3.612   1.133   1.907  0.4075  0.1884 -0.4172
 1162SOL     OW 4700   3.855   1.254   2.039  0.2417 -0.7537  0.1868
 1162SOL    HW2 4701   3.847   1.244   2.133 -0.7889  0.5978  0.2660
 1162SOL    HW3 4702   3.775   1.213   2.004  0.3949 -0.8421 -0.0598
 1162SOL    MW4 4703   3.843   1.248   2.047  0.1259 -0.5871  0.1647
 1163SOL     OW 4704   3.830   1.518   1.941 -0.1578  0.2719  0.0180
 1163SOL    HW2 4705   3.906   1.575   1.949 -0.3110  0.4967 -0.1151
 1163SOL    HW3 4706   3.857   1.436   1.981 -0.0989  0.5934  0.6433
 1163SOL    MW4 4707   3.843   1.515   1.948 -0.1702  0.3439  0.0830
 1164SOL     OW 4708   3.576   1.648   2.009 -0.3844  0.4576 -0.5405
 1164SOL    HW2 4709   3.572   1.736   1.970 -0.5397  1.0665  0.8302
 1164SOL    HW3 4710   3.653   1.608   1.969  0.5094  1.7290 -0.1356
 1164SOL    MW4 4711   3.585   1.655   1.998 -0.2868  0.7057 -0.3059
 1165SOL     OW 4712   3.575   1.914   1.903  0.0497  0.2647  0.0406
 1165SOL    HW2 4713   3.647   1.972   1.925 -0.1261  0.7770 -0.7469
 1165SOL    HW3 4714   3.567   1.919   1.808  0.0213 -1.0281 -0.0462
 1165SOL    MW4 4715   3.584   1.922   1.893  0.0226  0.1616 -0.0747
 1166SOL     OW 4716   3.803   2.056   1.996 -0.1408 -0.1406 -0.2535
 1166SOL    HW2 4717   3.878   2.009   1.960 -1.1500 -1.1996 -0.9790
 1166SOL    HW3 4718   3.810   2.144   1.959  0.2529 -0.4838 -0.9945
 1166SOL    MW4 4719   3.814   2.061   1.987 -0.2222 -0.3254 -0.4469
 1167SOL     OW 4720   3.832   2.303   1.856  0.8709  0.0630 -0.4957
 1167SOL    HW2 4721   3.900   2.354   1.900  1.0757 -0.7982  0.2040
 1167SOL    HW3 4722   3.750   2.335   1.894  0.9934 -0.0695 -0.1182
 1167SOL    MW4 4723   3.830   2.314   1.867  0.9141 -0.0682 -0.3535
 1168SOL     OW 4724   3.617   2.430   1.956 -0.4334  0.1359 -0.3282
 1168SOL    HW2 4725   3.613   2.515   1.912  0.8801 -0.0157 -0.7857
 1168SOL    HW3 4726   3.543   2.381   1.920 -1.9060  1.4847  0.8272
 1168SOL    MW4 4727   3.607   2.435   1.945 -0.4544  0.2940 -0.2363
 1169SOL     OW 4728   3.606   2.694   1.873 -0.0239  0.0356  0.6117
 1169SOL    HW2 4729   3.682   2.726   1.922 -0.1152  1.0467  0.1107
 1169SOL    HW3 4730   3.532   2.742   1.909  0.0177  1.3434 -1.0247
 1169SOL    MW4 4731   3.607   2.704   1.884 -0.0305  0.3417  0.3297
 1170SOL     OW 4732   3.848   2.849   1.971  0.1129  0.4081  0.7325
 1170SOL    HW2 4733   3.839   2.861   2.066  0.1495 -0.0082  0.7868
 1170SOL    HW3 4734   3.846   2.938   1.936 -1.8456  0.4770  0.9544
 1170SOL    MW4 4735   3.847   2.862   1.979 -0.1407  0.3622  0.7690
 1171SOL     OW 4736   3.866   3.099   1.860  0.3380  0.2375  0.0363
 1171SOL    HW2 4737   3.786   3.127   1.903  0.4513  0.6196 -0.0052
 1171SOL    HW3 4738   3.854   3.123   1.768  0.4185  0.1155 -0.0073
 1171SOL    MW4 4739   3.854   3.106   1.854  0.3638  0.2720  0.0250
 1172SOL     OW 4740   3.638   3.208   1.964  0.0959 -0.5089  0.3927
 1172SOL    HW2 4741   3.612   3.199   2.056 -0.5419  0.9786  0.3818
 1172SOL    HW3 4742   3.645   3.303   1.951 -0.5912 -0.6744 -1.2898
 1172SOL    MW4 4743   3.635   3.219   1.975 -0.0787 -0.3345  0.1693
 1173SOL     OW 4744   3.619   3.497   1.889 -0.4750 -0.1417 -0.4690
 1173SOL    HW2 4745   3.698   3.545   1.915 -0.8843  0.0144  0.5075
 1173SOL    HW3 4746   3.620   3.499   1.794 -0.2413  1.4170 -0.4404
 1173SOL    MW4 4747   3.630   3.504   1.880 -0.4983  0.0846 -0.3364
 1174SOL     OW 4748   3.857   3.585   2.008 -0.0467 -0.3600 -0.2569
 1174SOL    HW2 4749   3.922   3.534   1.960 -0.4295 -1.2589  0.1556
 1174SOL    HW3 4750   3.858   3.671   1.966  2.0063 -0.0978  0.3159
 1174SOL    MW4 4751   3.866   3.589   1.996  0.1738 -0.4439 -0.1271
 1175SOL     OW 4752   3.863   3.851   1.899  0.3824 -0.0130  0.3254
 1175SOL    HW2 4753   3.786   3.896   1.933  0.8838  0.1294  1.3038
 1175SOL    HW3 4754   3.859   3.862   1.804 -0.6082  0.2909  0.4042
 1175SOL    MW4 4755   3.852   3.858   1.891  0.3181  0.0460  0.4649
 1176SOL     OW 4756   3.605   3.987   2.005  0.3109 -0.2247  0.3897
 1176SOL    HW2 4757   3.602   3.973   2.100 -0.4743  0.9343  0.5471
 1176SOL    HW3 4758   3.535   3.932   1.970 -0.4497  0.5575  0.6524
 1176SOL    MW4 4759   3.595   3.978   2.013  0.1070  0.0312  0.4451
 1177SOL     OW 4760   3.618   4.271   1.915 -0.0795  0.2715 -0.0219
 1177SOL    HW2 4761   3.694   4.297   1.967 -0.7159  1.9422  0.1046
 1177SOL    HW3 4762   3.606   4.178   1.935  1.5708  0.1287  0.4009
 1177SOL    MW4 4763   3.627   4.262   1.925  0.0544  0.4725  0.0505
 1178SOL     OW 4764   3.866   4.393   2.021 -0.0739 -0.2706 -0.2573
 1178SOL    HW2 4765   3.871   4.387   2.117 -1.5894 -0.2508 -0.1588
 1178SOL    HW3 4766   3.935   4.335   1.990  1.3582  0.8172  0.8656
 1178SOL    MW4 4767   3.876   4.384   2.030 -0.0849 -0.1249 -0.0963
 1179SOL     OW 4768   4.242   0.013   1.898 -0.2691 -0.0589 -0.3369
 1179SOL    HW2 4769   4.167   0.047   1.946 -1.4447 -1.2011 -1.3430
 1179SOL    HW3 4770   4.314   0.072   1.922 -0.8783 -0.3826  2.5558
 1179SOL    MW4 4771   4.242   0.025   1.908 -0.5045 -0.2523 -0.0881
 1180SOL     OW 4772   3.988   0.092   1.987  0.1511 -0.2356  0.2219
 1180SOL    HW2 4773   3.982   0.081   2.082 -0.8818  1.8960  0.4434
 1180SOL    HW3 4774   3.926   0.028   1.952 -0.7925  0.1898  1.0793
 1180SOL    MW4 4775   3.979   0.082   1.995 -0.1099  0.1018  0.3642
 1181SOL     OW 4776   4.035   0.340   1.849  0.0359  0.0339 -0.1792
 1181SOL    HW2 4777   4.029   0.246   1.864  0.4939 -0.0397 -0.4533
 1181SOL    HW3 4778   3.962   0.377   1.898 -0.4510 -0.5138 -0.4937
 1181SOL    MW4 4779   4.025   0.332   1.858  0.0315 -0.0481 -0.2568
 1182SOL     OW 4780   4.254   0.474   1.958  0.2583  0.4868 -0.0697
 1182SOL    HW2 4781   4.238   0.489   2.051 -0.4928  2.6357 -0.5072
 1182SOL    HW3 4782   4.185   0.413   1.931  1.4243 -1.3860  1.0967
 1182SOL    MW4 4783   4.242   0.468   1.967  0.3128  0.5232  0.0265
 1183SOL     OW 4784   4.293   0.757   1.909  0.0641  0.2336  0.1225
 1183SOL    HW2 4785   4.250   0.672   1.913  1.4129 -0.4345  0.7608
 1183SOL    HW3 4786   4.327   0.763   1.820 -0.1526  0.1593  0.0351
 1183SOL    MW4 4787   4.292   0.747   1.898  0.2136  0.1356  0.1951
 1184SOL     OW 4788   4.070   0.878   2.011 -0.3538 -0.1978 -0.4696
 1184SOL    HW2 4789   4.150   0.841   1.973  0.2615  0.2271  0.3788
 1184SOL    HW3 4790   3.999   0.826   1.974  0.5222 -2.4764  0.9591
 1184SOL    MW4 4791   4.071   0.866   2.002 -0.1564 -0.4424 -0.1693
 1185SOL     OW 4792   4.063   1.140   1.880  0.3590 -0.2794 -0.0290
 1185SOL    HW2 4793   4.072   1.059   1.930 -1.2708 -0.4027  0.0848
 1185SOL    HW3 4794   3.998   1.191   1.928  0.2288  0.4452 -0.9520
 1185SOL    MW4 4795   4.056   1.136   1.893  0.1264 -0.2002 -0.1359
 1186SOL     OW 4796   4.303   1.261   1.985  0.6504 -0.6153 -0.0444
 1186SOL    HW2 4797   4.296   1.262   2.080  0.1034 -0.4615 -0.0860
 1186SOL    HW3 4798   4.220   1.224   1.955  1.1726 -1.4936 -0.4254
 1186SOL    MW4 4799   4.291   1.256   1.993  0.6471 -0.7110 -0.1001
 1187SOL     OW 4800   4.299   1.537   1.930  0.4549  0.0321 -0.2521
 1187SOL    HW2 4801   4.316   1.443   1.935  0.2379  0.0498  0.9194
 1187SOL    HW3 4802   4.316   1.559   1.839 -4.2674 -2.0537 -1.8221
 1187SOL    MW4 4803   4.303   1.528   1.919 -0.1969 -0.2408 -0.3046
 1188SOL     OW 4804   4.060   1.667   1.964  0.5195  0.1391 -0.0458
 1188SOL    HW2 4805   4.073   1.667   2.059  2.6327  1.2706 -0.2993
 1188SOL    HW3 4806   4.127   1.606   1.931  1.3029  1.4638 -0.9527
 1188SOL    MW4 4807   4.071   1.659   1.973  0.9017  0.4632 -0.1991
 1189SOL     OW 4808   4.052   1.936   1.918  0.0029  0.3343 -0.3162
 1189SOL    HW2 4809   4.050   1.845   1.946 -1.2012  0.4334 -0.0479
 1189SOL    HW3 4810   4.047   1.932   1.823 -0.0046  0.1275 -0.3072
 1189SOL    MW4 4811   4.051   1.924   1.909 -0.1569  0.3201 -0.2795
 1190SOL     OW 4812   4.290   2.079   1.989  0.7686 -0.0094  0.0900
 1190SOL    HW2 4813   4.301   2.071   2.083 -0.0822 -1.6936  0.0649
 1190SOL    HW3 4814   4.209   2.032   1.970  0.1002  1.6467 -1.2893
 1190SOL    MW4 4815   4.281   2.072   1.999  0.5684 -0.0131 -0.0952
 1191SOL     OW 4816   4.284   2.336   1.867 -0.1418 -0.3363  0.2623
 1191SOL    HW2 4817   4.265   2.250   1.904 -0.0235  0.0438  1.2174
 1191SOL    HW3 4818   4.370   2.359   1.902 -1.3070  1.3091  2.1607
 1191SOL    MW4 4819   4.293   2.328   1.877 -0.2804 -0.0691  0.6388
 1192SOL     OW 4820   4.024   2.453   1.969  0.2731 -0.0064 -0.0388
 1192SOL    HW2 4821   4.019   2.470   2.063  0.6563 -0.0479 -0.0099
 1192SOL    HW3 4822   4.104   2.402   1.958  0.6891  0.7353 -0.4892
 1192SOL    MW4 4823   4.034   2.449   1.980  0.3786  0.0861 -0.0944
 1193SOL     OW 4824   4.051   2.700   1.861 -0.3519 -0.0006  0.1738
 1193SOL    HW2 4825   4.039   2.611   1.896  0.1064 -0.4976 -0.9126
 1193SOL    HW3 4826   3.973   2.748   1.891 -0.3451 -0.6184  1.2124
 1193SOL    MW4 4827   4.039   2.695   1.870 -0.2909 -0.1478  0.1675
 1194SOL     OW 4828   4.277   2.835   1.948  0.1404 -0.2034  0.1864
 1194SOL    HW2 4829   4.264   2.844   2.043  0.2383 -0.1634  0.1956
 1194SOL    HW3 4830   4.209   2.773   1.921 -1.5046  1.6536 -0.1142
 1194SOL    MW4 4831   4.266   2.828   1.957 -0.0639  0.0470  0.1479
 1195SOL     OW 4832   4.314   3.090   1.860  0.1548 -0.5984  0.3309
 1195SOL    HW2 4833   4.239   3.134   1.900 -0.9875 -1.6035 -0.6643
 1195SOL    HW3 4834   4.309   3.000   1.892  0.1857 -0.9916 -0.7493
 1195SOL    MW4 4835   4.303   3.084   1.869  0.0086 -0.7830  0.0571
 1196SOL     OW 4836   4.098   3.196   1.989  0.3112  0.5326  0.3657
 1196SOL    HW2 4837   4.070   3.201   2.080  0.2017  0.9063  0.3137
 1196SOL    HW3 4838   4.023   3.159   1.943  0.7431 -0.6450  0.5878
 1196SOL    MW4 4839   4.085   3.192   1.995  0.3533  0.4268  0.3880
 1197SOL     OW 4840   4.078   3.453   1.886 -0.6211 -0.0079  0.3747
 1197SOL    HW2 4841   4.156   3.504   1.907 -0.9571  0.0831  1.4149
 1197SOL    HW3 4842   4.088   3.371   1.934 -0.1989 -0.8450 -1.1051
 1197SOL    MW4 4843   4.090   3.449   1.895 -0.6099 -0.1063  0.3169
 1198SOL     OW 4844   4.306   3.592   2.003 -0.1099 -0.0160 -0.3625
 1198SOL    HW2 4845   4.300   3.686   1.991 -1.4647  0.1186  1.2183
 1198SOL    HW3 4846   4.390   3.568   1.963  1.3705  2.1938  1.3180
 1198SOL    MW4 4847   4.316   3.601   1.996 -0.0935  0.2935  0.0679
 1199SOL     OW 4848   4.270   3.848   1.939  0.1640  0.5591 -0.0988
 1199SOL    HW2 4849   4.353   3.896   1.940  0.6920 -0.3289 -0.8219
 1199SOL    HW3 4850   4.247   3.842   1.846 -0.6848  0.7422  0.0947
 1199SOL    MW4 4851   4.278   3.854   1.927  0.1221  0.4659 -0.1686
 1200SOL     OW 4852   4.065   4.013   2.014 -0.1625 -0.0165  0.3947
 1200SOL    HW2 4853   4.141   3.960   1.989  0.1458  1.1304 -1.1227
 1200SOL    HW3 4854   3.990   3.959   1.988  0.1473  0.5641 -1.8473
 1200SOL    MW4 4855   4.065   3.999   2.007 -0.0811  0.2112 -0.1016
 1201SOL     OW 4856   4.071   4.261   1.892 -0.4775  0.5070 -0.0785
 1201SOL    HW2 4857   4.158   4.298   1.912 -0.4583 -0.0470  0.9214
 1201SOL    HW3 4858   4.075   4.172   1.927 -1.1978  0.2243 -0.7140
 1201SOL    MW4 4859   4.083   4.254   1.899 -0.5703  0.3967 -0.0304
 1202SOL     OW 4860   4.297   4.402   1.948 -0.0982  0.1816  0.4944
 1202SOL    HW2 4861   4.283   4.404   2.042  0.7023  1.5294  0.5968
 1202SOL    HW3 4862   4.285   4.492   1.920 -1.0249 -0.3243 -0.8130
 1202SOL    MW4 4863   4.293   4.414   1.957 -0.1154  0.2923  0.3355
 1203SOL     OW 4864   0.222   0.025   2.337 -0.1273  0.2250  0.1773
 1203SOL    HW2 4865   0.228   0.015   2.432 -1.2220  0.2606  0.2593
 1203SOL    HW3 4866   0.305   0.065   2.312 -0.2343  1.1651  1.2563
 1203SOL    MW4 4867   0.234   0.029   2.346 -0.2858  0.3538  0.3307
 1204SOL     OW 4868   4.467   0.086   2.253 -0.3730 -0.5188  0.2163
 1204SOL    HW2 4869   4.549   0.044   2.280  0.0335  0.1394  0.0016
 1204SOL    HW3 4870   4.476   0.099   2.158 -0.9657 -0.9714  0.0890
 1204SOL    MW4 4871   4.479   0.082   2.244 -0.3977 -0.4917  0.1712
 1205SOL     OW 4872   4.473   0.360   2.353  0.4260  0.3184 -0.2298
 1205SOL    HW2 4873   4.560   0.395   2.332  0.5750 -0.1863 -0.4622
 1205SOL    HW3 4874   4.481   0.265   2.337  0.2625  0.0652  1.1504
 1205SOL    MW4 4875   4.486   0.352   2.348  0.4244  0.2184 -0.0782
 1206SOL     OW 4876   0.224   0.477   2.278 -0.3171  0.1655 -0.2585
 1206SOL    HW2 4877   0.314   0.453   2.302 -0.5458  0.1283  0.5980
 1206SOL    HW3 4878   0.214   0.448   2.188 -0.0240 -1.3871  0.1852
 1206SOL    MW4 4879   0.235   0.470   2.270 -0.3086 -0.0442 -0.0868
 1207SOL     OW 4880   0.207   0.749   2.364  0.1100 -0.0954 -0.0388
 1207SOL    HW2 4881   0.231   0.739   2.456  0.7444  0.2631 -0.1682
 1207SOL    HW3 4882   0.215   0.660   2.328 -0.1879 -0.2467  0.2545
 1207SOL    MW4 4883   0.211   0.736   2.371  0.1544 -0.0681 -0.0174
 1208SOL     OW 4884   0.001   0.903   2.259  0.2969 -0.0637  0.0244
 1208SOL    HW2 4885   0.070   0.849   2.297 -0.8941 -2.2446 -0.8193
 1208SOL    HW3 4886   0.017   0.901   2.165 -0.3801  0.1835 -0.1019
 1208SOL    MW4 4887   0.012   0.896   2.251  0.0501 -0.3188 -0.1037
 1209SOL     OW 4888   0.021   1.143   2.366 -0.0733 -0.1640 -0.2068
 1209SOL    HW2 4889   0.006   1.133   2.460  1.9355 -0.1614  0.1378
 1209SOL    HW3 4890   0.023   1.053   2.332  1.0549 -0.2595  0.0817
 1209SOL    MW4 4891   0.019   1.130   2.374  0.3405 -0.1763 -0.1233
 1210SOL     OW 4892   0.264   1.243   2.295  0.0787  0.2394 -0.2331
 1210SOL    HW2 4893   0.179   1.216   2.330  0.1917  0.8242  0.5041
 1210SOL    HW3 4894   0.255   1.231   2.200 -0.7451  0.0644 -0.1409
 1210SOL    MW4 4895   0.251   1.238   2.287 -0.0151  0.2935 -0.1237
 1211SOL     OW 4896   0.236   1.502   2.379  0.5857  0.1030 -0.0435
 1211SOL    HW2 4897   0.254   1.486   2.472 -1.7802  0.9748  0.6163
 1211SOL    HW3 4898   0.250   1.418   2.337  0.2470 -0.6837  1.3736
 1211SOL    MW4 4899   0.240   1.489   2.386  0.2289  0.1141  0.2306
 1212SOL     OW 4900   0.008   1.667   2.315  0.0255  0.2376  0.2633
 1212SOL    HW2 4901   0.029   1.755   2.346  0.2478  0.1402  0.3884
 1212SOL    HW3 4902   0.083   1.614   2.341  0.7680  0.3823 -1.4590
 1212SOL    MW4 4903   0.021   1.672   2.322  0.1531  0.2438  0.0527
 1213SOL     OW 4904   0.041   1.932   2.365 -0.4367 -0.2540  0.7282
 1213SOL    HW2 4905  -0.032   1.976   2.321 -0.2174 -0.2537  0.3586
 1213SOL    HW3 4906   0.119   1.974   2.329 -0.2154 -1.2673  0.0171
 1213SOL    MW4 4907   0.041   1.943   2.354 -0.3786 -0.3877  0.5856
 1214SOL     OW 4908   0.268   2.050   2.269 -0.2329 -0.5946 -0.0232
 1214SOL    HW2 4909   0.344   2.002   2.302  1.4060  1.0992 -1.2128
 1214SOL    HW3 4910   0.272   2.040   2.174 -1.2118 -0.0518 -0.1314
 1214SOL    MW4 4911   0.278   2.042   2.261 -0.1458 -0.2995 -0.1945
 1215SOL     OW 4912   0.183   2.297   2.371  0.4620 -0.5430  0.4680
 1215SOL    HW2 4913   0.189   2.287   2.466 -0.5741 -0.0070  0.5897
 1215SOL    HW3 4914   0.200   2.209   2.337 -0.0731 -0.9245  1.1830
 1215SOL    MW4 4915   0.186   2.284   2.379  0.2547 -0.5226  0.5784
 1216SOL     OW 4916   0.005   2.470   2.263 -0.1496 -0.3302 -0.5150
 1216SOL    HW2 4917   0.029   2.548   2.313 -0.7479  0.0883 -0.8726
 1216SOL    HW3 4918   0.060   2.400   2.300  1.1631  0.4673 -0.9104
 1216SOL    MW4 4919   0.016   2.471   2.275 -0.0558 -0.1698 -0.6142
 1217SOL     OW 4920   0.037   2.729   2.370  0.5144 -0.4167  0.0609
 1217SOL    HW2 4921   0.024   2.730   2.465 -0.2905  0.5227 -0.0453
 1217SOL    HW3 4922   0.128   2.757   2.358  0.2052  0.8330  0.5149
 1217SOL    MW4 4923   0.047   2.733   2.381  0.3672 -0.1280  0.1068
 1218SOL     OW 4924   0.277   2.843   2.284  0.4150  0.2753  0.3369
 1218SOL    HW2 4925   0.354   2.791   2.305  0.6698  0.4937 -0.0580
 1218SOL    HW3 4926   0.254   2.819   2.195  1.0161  1.4209 -0.1421
 1218SOL    MW4 4927   0.284   2.833   2.275  0.5279  0.4551  0.2213
 1219SOL     OW 4928   0.226   3.097   2.390  0.0065 -0.3097 -0.0662
 1219SOL    HW2 4929   0.137   3.124   2.365 -0.0104 -0.4215 -0.1287
 1219SOL    HW3 4930   0.238   3.013   2.346 -0.0449 -0.5377  0.3498
 1219SOL    MW4 4931   0.216   3.090   2.381 -0.0025 -0.3545 -0.0198
 1220SOL     OW 4932   4.458   3.246   2.273 -0.0400 -0.1034  0.0453
 1220SOL    HW2 4933   4.489   3.334   2.293 -2.4918  0.9640 -0.6405
 1220SOL    HW3 4934   4.469   3.238   2.178 -0.5126 -0.2410  0.0009
 1220SOL    MW4 4935   4.463   3.256   2.263 -0.4263  0.0196 -0.0513
 1221SOL     OW 4936   0.047   3.493   2.362 -0.1728 -0.6339 -0.0219
 1221SOL    HW2 4937   0.045   3.480   2.457 -0.5807 -1.6731 -0.1612
 1221SOL    HW3 4938  -0.037   3.534   2.342  0.2275  0.2752  0.1595
 1221SOL    MW4 4939   0.035   3.497   2.372 -0.1738 -0.6511 -0.0162
 1222SOL     OW 4940   0.256   3.645   2.282 -0.0936 -0.1237  0.3911
 1222SOL    HW2 4941   0.340   3.609   2.312  0.4424 -0.4972 -1.4921
 1222SOL    HW3 4942   0.191   3.580   2.310  0.5965 -1.3685 -0.8172
 1222SOL    MW4 4943   0.259   3.631   2.289  0.0681 -0.3374 -0.0167
 1223SOL     OW 4944   0.200   3.891   2.389 -0.1302  0.2019  0.6228
 1223SOL    HW2 4945   0.118   3.925   2.353 -0.2812 -1.0720 -0.2860
 1223SOL    HW3 4946   0.212   3.807   2.345  1.9172  0.5882  0.4197
 1223SOL    MW4 4947   0.191   3.884   2.379  0.1200  0.0844  0.4761
 1224SOL     OW 4948   4.473   4.027   2.250  0.0589  0.2352  0.1702
 1224SOL    HW2 4949   4.489   4.115   2.284 -1.1858  0.7285 -0.4836
 1224SOL    HW3 4950   4.486   4.035   2.155 -0.0990 -0.2790  0.1029
 1224SOL    MW4 4951   4.477   4.039   2.242 -0.1264  0.2322  0.0751
 1225SOL     OW 4952   4.485   4.282   2.354 -0.1785 -0.0978  0.5815
 1225SOL    HW2 4953   4.470   4.304   2.446  1.5177  0.1129  0.8341
 1225SOL    HW3 4954   4.549   4.346   2.324 -0.4809 -0.3662 -0.6588
 1225SOL    MW4 4955   4.491   4.293   2.363  0.0057 -0.1059  0.4513
 1226SOL     OW 4956   0.189   4.429   2.266 -0.4194  0.7453  0.3618
 1226SOL    HW2 4957   0.247   4.367   2.309  0.3782  0.9121 -0.4451
 1226SOL    HW3 4958   0.228   4.515   2.284  1.1297  0.6920 -2.3920
 1226SOL    MW4 4959   0.202   4.432   2.274 -0.1098  0.7606 -0.1078
 1227SOL     OW 4960   0.705   0.000   2.361 -0.6131 -0.1722 -0.8930
 1227SOL    HW2 4961   0.711  -0.008   2.456 -1.4210 -1.4828 -0.9468
 1227SOL    HW3 4962   0.793   0.025   2.333 -0.7365  1.7267  0.3333
 1227SOL    MW4 4963   0.717   0.002   2.369 -0.7359 -0.0944 -0.7381
 1228SOL     OW 4964   0.482   0.123   2.245  0.0148  0.0966 -0.2198
 1228SOL    HW2 4965   0.562   0.073   2.260  0.4813  0.4848 -1.3290
 1228SOL    HW3 4966   0.456   0.100   2.156 -0.4476  0.8899 -0.2919
 1228SOL    MW4 4967   0.489   0.114   2.235  0.0154  0.2525 -0.3755
 1229SOL     OW 4968   0.445   0.377   2.359  0.1208 -0.2408  0.1772
 1229SOL    HW2 4969   0.456   0.381   2.454 -1.3426 -1.0000  0.3815
 1229SOL    HW3 4970   0.459   0.285   2.336 -0.3170 -0.2016 -0.2545
 1229SOL    MW4 4971   0.449   0.366   2.368 -0.1300 -0.3358  0.1471
 1230SOL     OW 4972   0.691   0.490   2.265 -0.3153 -0.3405  0.0330
 1230SOL    HW2 4973   0.694   0.581   2.296 -0.1481 -0.2224 -0.3230
 1230SOL    HW3 4974   0.607   0.457   2.295 -0.7242  0.1819 -0.5163
 1230SOL    MW4 4975   0.681   0.498   2.273 -0.3472 -0.2560 -0.0863
 1231SOL     OW 4976   0.707   0.739   2.383 -0.4939  0.2059 -0.3729
 1231SOL    HW2 4977   0.705   0.747   2.478 -1.0634 -3.4483 -0.0264
 1231SOL    HW3 4978   0.619   0.763   2.355 -0.8897 -0.5828  0.1950
 1231SOL    MW4 4979   0.696   0.743   2.392 -0.6213 -0.3803 -0.2520
 1232SOL     OW 4980   0.467   0.827   2.292  0.3432 -0.2792  0.3202
 1232SOL    HW2 4981   0.379   0.807   2.324  0.0173  0.8956  0.1718
 1232SOL    HW3 4982   0.457   0.839   2.198  0.8183 -0.9955  0.1755
 1232SOL    MW4 4983   0.455   0.826   2.284  0.3629 -0.2187  0.2813
 1233SOL     OW 4984   0.471   1.087   2.397 -0.3573 -0.1320  0.3635
 1233SOL    HW2 4985   0.468   1.000   2.359  0.2151  0.3583 -0.8253
 1233SOL    HW3 4986   0.409   1.139   2.346  0.0222  0.3955  0.4250
 1233SOL    MW4 4987   0.462   1.082   2.386 -0.2318  0.0024  0.2146
 1234SOL     OW 4988   0.711   1.241   2.281  0.0367 -0.1998  0.0045
 1234SOL    HW2 4989   0.707   1.321   2.334  0.9696 -0.0410 -0.1716
 1234SOL    HW3 4990   0.631   1.193   2.305 -0.0393  0.3288  0.8283
 1234SOL    MW4 4991   0.700   1.245   2.291  0.1497 -0.1091  0.0901
 1235SOL     OW 4992   0.668   1.460   2.425 -0.5154  0.2100  0.0651
 1235SOL    HW2 4993   0.669   1.477   2.519 -1.1307  0.9505 -0.0529
 1235SOL    HW3 4994   0.743   1.509   2.391  0.6774 -1.3808  0.3789
 1235SOL    MW4 4995   0.678   1.469   2.433 -0.4392  0.0978  0.0911
 1236SOL     OW 4996   0.470   1.611   2.275 -0.1358 -0.3395 -0.4672
 1236SOL    HW2 4997   0.536   1.550   2.309  0.0697  0.5688  0.8346
 1236SOL    HW3 4998   0.389   1.585   2.319 -0.2148 -0.1783 -0.5184
 1236SOL    MW4 4999   0.468   1.600   2.285 -0.1191 -0.1982 -0.3021
 1237SOL     OW 5000   0.470   1.897   2.352  0.0557  0.1475  0.2898
 1237SOL    HW2 5001   0.550   1.930   2.313 -0.1163 -1.1137 -1.2191
 1237SOL    HW3 5002   0.464   1.806   2.321 -2.1165  0.3221  0.0777
 1237SOL    MW4 5003   0.480   1.889   2.343 -0.2536  0.0041  0.0629
 1238SOL     OW 5004   0.700   1.990   2.254  0.2977 -0.2148  0.0263
 1238SOL    HW2 5005   0.785   1.967   2.290  0.2264  0.7306  0.8166
 1238SOL    HW3 5006   0.681   2.077   2.289 -1.6099 -0.9706  1.0115
 1238SOL    MW4 5007   0.708   1.998   2.264  0.0366 -0.1900  0.2606
 1239SOL     OW 5008   0.641   2.243   2.358  0.1065  0.3070 -0.1467
 1239SOL    HW2 5009   0.654   2.263   2.451  0.3155  0.7219 -0.2610
 1239SOL    HW3 5010   0.707   2.296   2.313  0.5090 -0.4681 -0.4790
 1239SOL    MW4 5011   0.651   2.253   2.364  0.1872  0.2594 -0.2058
 1240SOL     OW 5012   0.419   2.393   2.262 -0.1178 -0.1880  0.3134
 1240SOL    HW2 5013   0.495   2.352   2.301  0.0733  0.3209  0.4784
 1240SOL    HW3 5014   0.344   2.347   2.300  0.0627  0.2820  1.2614
 1240SOL    MW4 5015   0.419   2.382   2.272 -0.0688 -0.0589  0.4604
 1241SOL     OW 5016   0.487   2.680   2.345 -0.1636 -0.1645 -0.1094
 1241SOL    HW2 5017   0.504   2.688   2.439  0.2135  0.2434 -0.2093
 1241SOL    HW3 5018   0.456   2.590   2.334  0.8863 -0.5738  0.2371
 1241SOL    MW4 5019   0.485   2.669   2.356  0.0246 -0.1647 -0.0770
 1242SOL     OW 5020   0.691   2.845   2.262 -0.2537 -0.7031 -0.2111
 1242SOL    HW2 5021   0.765   2.803   2.305 -1.5163 -1.6324  1.0914
 1242SOL    HW3 5022   0.616   2.792   2.286 -1.4295  0.5036 -1.1319
 1242SOL    MW4 5023   0.691   2.832   2.271 -0.5754 -0.6664 -0.1607
 1243SOL     OW 5024   0.672   3.097   2.414 -0.5885  0.1262 -0.0938
 1243SOL    HW2 5025   0.596   3.135   2.368 -0.3993 -0.0786 -0.5837
 1243SOL    HW3 5026   0.665   3.003   2.397  0.1263  0.1748 -0.6765
 1243SOL    MW4 5027   0.661   3.090   2.405 -0.4691  0.1056 -0.2356
 1244SOL     OW 5028   0.470   3.243   2.292  0.5218  0.1638 -0.1352
 1244SOL    HW2 5029   0.390   3.204   2.325 -0.2346  2.4791  0.8796
 1244SOL    HW3 5030   0.468   3.226   2.197  0.3827 -2.4421  0.3104
 1244SOL    MW4 5031   0.459   3.236   2.284  0.4037  0.1254  0.0577
 1245SOL     OW 5032   0.476   3.497   2.402  0.3526  0.3949 -0.3751
 1245SOL    HW2 5033   0.557   3.545   2.385  0.9982 -0.0514  1.4046
 1245SOL    HW3 5034   0.484   3.417   2.351  1.0920  0.2950 -0.1060
 1245SOL    MW4 5035   0.488   3.493   2.393  0.5353  0.3231 -0.1047
 1246SOL     OW 5036   0.696   3.634   2.313 -0.2569 -0.1303  0.0393
 1246SOL    HW2 5037   0.663   3.722   2.333  1.2937  0.5616 -0.2948
 1246SOL    HW3 5038   0.678   3.622   2.220 -1.2044 -0.5010  0.2702
 1246SOL    MW4 5039   0.689   3.644   2.304 -0.1773 -0.0880  0.0255
 1247SOL     OW 5040   0.619   3.895   2.361 -0.1368  0.2989 -0.1237
 1247SOL    HW2 5041   0.629   3.888   2.456  1.9954  0.6967 -0.2960
 1247SOL    HW3 5042   0.544   3.953   2.350  0.2471  1.1167  1.3292
 1247SOL    MW4 5043   0.610   3.902   2.372  0.1951  0.4592  0.0453
 1248SOL     OW 5044   0.390   4.055   2.267  0.1108  0.2561  0.0767
 1248SOL    HW2 5045   0.316   4.005   2.300  0.5996 -0.3194  0.3209
 1248SOL    HW3 5046   0.397   4.032   2.175  0.9124 -0.8599  0.4078
 1248SOL    MW4 5047   0.381   4.045   2.259  0.2811  0.0329  0.1526
 1249SOL     OW 5048   0.404   4.296   2.396  0.3836  0.1413  0.0269
 1249SOL    HW2 5049   0.475   4.343   2.354  0.9919 -0.0624  0.8207
 1249SOL    HW3 5050   0.404   4.210   2.354  0.6064  0.1439  0.0206
 1249SOL    MW4 5051   0.413   4.291   2.385  0.4932  0.1144  0.1307
 1250SOL     OW 5052   0.630   4.401   2.277 -0.0423  0.0163  0.0304
 1250SOL    HW2 5053   0.639   4.491   2.310 -0.3243  0.4163 -0.9685
 1250SOL    HW3 5054   0.653   4.407   2.184  0.1609 -0.9906  0.0111
 1250SOL    MW4 5055   0.634   4.414   2.269 -0.0528 -0.0634 -0.1040
 1251SOL     OW 5056   1.174   4.585   2.346  0.0966  0.1277 -0.3662
 1251SOL    HW2 5057   1.195   4.609   2.436 -2.5450  0.7442  0.1219
 1251SOL    HW3 5058   1.104   4.645   2.320 -1.9327 -2.5803 -1.4379
 1251SOL    MW4 5059   1.167   4.596   2.354 -0.5196 -0.1483 -0.4432
 1252SOL     OW 5060   0.965   0.078   2.276 -0.1181 -0.2037  0.1413
 1252SOL    HW2 5061   0.952   0.155   2.331  0.5974 -0.9090  1.3300
 1252SOL    HW3 5062   0.940   0.106   2.188 -1.9987  0.7334  0.9406
 1252SOL    MW4 5063   0.960   0.092   2.272 -0.2719 -0.1732  0.4036
 1253SOL     OW 5064   0.908   0.347   2.382  0.3943  0.1149  1.0126
 1253SOL    HW2 5065   0.984   0.385   2.338  0.6307 -0.2373  1.1121
 1253SOL    HW3 5066   0.833   0.394   2.346  0.4944 -0.8954 -0.5585
 1253SOL    MW4 5067   0.908   0.359   2.372  0.4387 -0.0648  0.8183
 1254SOL     OW 5068   1.115   0.472   2.241  0.0688  0.2341 -0.0301
 1254SOL    HW2 5069   1.191   0.422   2.270  0.3403  0.7350  0.1231
 1254SOL    HW3 5070   1.121   0.472   2.145  0.1571  0.1114 -0.0236
 1254SOL    MW4 5071   1.126   0.465   2.232  0.1162  0.2840 -0.0088
 1255SOL     OW 5072   1.106   0.698   2.404 -0.1565 -0.0315  0.4887
 1255SOL    HW2 5073   1.039   0.759   2.372 -2.0143 -1.2835  1.9189
 1255SOL    HW3 5074   1.095   0.620   2.349 -0.4777 -0.5654  1.3014
 1255SOL    MW4 5075   1.096   0.696   2.392 -0.4439 -0.2671  0.7846
 1256SOL     OW 5076   0.925   0.880   2.286  0.2667  0.5025 -0.2669
 1256SOL    HW2 5077   0.922   0.964   2.333  1.5285  1.1798 -1.3711
 1256SOL    HW3 5078   0.843   0.837   2.310 -0.7778  2.4012 -0.3256
 1256SOL    MW4 5079   0.914   0.886   2.296  0.2954  0.8423 -0.4206
 1257SOL     OW 5080   0.927   1.122   2.393  0.4681  0.2579  0.3152
 1257SOL    HW2 5081   1.002   1.164   2.351  0.6373 -2.0529 -1.8181
 1257SOL    HW3 5082   0.851   1.166   2.357  0.6559 -0.9529 -1.6611
 1257SOL    MW4 5083   0.927   1.133   2.383  0.5153 -0.2067 -0.2272
 1258SOL     OW 5084   1.133   1.266   2.298 -0.4752  0.1760  0.1027
 1258SOL    HW2 5085   1.202   1.204   2.323 -1.3960 -0.5776  0.7953
 1258SOL    HW3 5086   1.137   1.268   2.202  0.0137 -0.4496  0.1043
 1258SOL    MW4 5087   1.143   1.258   2.289 -0.5322 -0.0060  0.1943
 1259SOL     OW 5088   1.136   1.534   2.383 -0.1839  0.2945  0.3478
 1259SOL    HW2 5089   1.048   1.570   2.365  0.6126  1.7325 -0.8223
 1259SOL    HW3 5090   1.129   1.442   2.359 -1.1536  0.5805 -0.5471
 1259SOL    MW4 5091   1.123   1.527   2.378 -0.2068  0.5220  0.0753
 1260SOL     OW 5092   0.882   1.613   2.300  0.1031  0.2012  0.4531
 1260SOL    HW2 5093   0.872   1.700   2.339 -0.1958  0.7302 -0.7817
 1260SOL    HW3 5094   0.906   1.631   2.209  0.2683 -1.0154  0.2579
 1260SOL    MW4 5095   0.884   1.627   2.293  0.0855  0.1106  0.2646
 1261SOL     OW 5096   0.925   1.904   2.378 -0.1198 -0.0080  0.5356
 1261SOL    HW2 5097   0.926   1.914   2.473  1.7443 -0.7724  0.6176
 1261SOL    HW3 5098   0.998   1.957   2.347 -0.5066 -0.0397 -0.4538
 1261SOL    MW4 5099   0.935   1.912   2.387  0.0751 -0.1131  0.4163
 1262SOL     OW 5100   1.160   2.027   2.251 -0.2929 -0.5230 -0.8119
 1262SOL    HW2 5101   1.229   1.974   2.289  0.7982  0.4553 -1.3980
 1262SOL    HW3 5102   1.181   2.031   2.158  0.0107  1.4555 -0.6785
 1262SOL    MW4 5103   1.172   2.021   2.244 -0.1088 -0.1330 -0.8717
 1263SOL     OW 5104   1.109   2.286   2.364  0.4879  0.0089  0.3987
 1263SOL    HW2 5105   1.189   2.336   2.344  0.5359 -0.0698  0.3926
 1263SOL    HW3 5106   1.127   2.198   2.329  0.2518  0.0935  0.0606
 1263SOL    MW4 5107   1.122   2.281   2.357  0.4631  0.0095  0.3531
 1264SOL     OW 5108   0.873   2.393   2.288 -0.0724  0.3473 -0.3295
 1264SOL    HW2 5109   0.951   2.347   2.318 -0.9009 -0.9965 -0.2051
 1264SOL    HW3 5110   0.890   2.413   2.196 -0.3988 -1.7223 -0.8508
 1264SOL    MW4 5111   0.885   2.390   2.280 -0.2247 -0.1032 -0.3819
 1265SOL     OW 5112   0.896   2.692   2.356 -0.7063 -0.7830 -0.6860
 1265SOL    HW2 5113   0.900   2.700   2.451  0.5213  1.4172 -0.8928
 1265SOL    HW3 5114   0.904   2.598   2.339  1.1492 -1.0094  1.2862
 1265SOL    MW4 5115   0.898   2.680   2.366 -0.2995 -0.5229 -0.4530
 1266SOL     OW 5116   1.145   2.836   2.294  0.3414 -0.0419  0.3939
 1266SOL    HW2 5117   1.220   2.778   2.308 -0.8012 -2.0351 -1.4777
 1266SOL    HW3 5118   1.069   2.784   2.319 -0.6149  1.1394  0.0118
 1266SOL    MW4 5119   1.145   2.822   2.299  0.0645 -0.1493  0.0963
 1267SOL     OW 5120   1.101   3.108   2.385 -0.1969 -0.2484  0.0636
 1267SOL    HW2 5121   1.023   3.144   2.343 -0.3374 -0.3613  0.2260
 1267SOL    HW3 5122   1.112   3.022   2.345 -0.0873 -0.1825 -0.0455
 1267SOL    MW4 5123   1.092   3.102   2.374 -0.2010 -0.2546  0.0708
 1268SOL     OW 5124   0.870   3.209   2.281 -0.2330  0.2410  0.0294
 1268SOL    HW2 5125   0.876   3.291   2.330 -0.4466 -0.1128  0.6477
 1268SOL    HW3 5126   0.788   3.169   2.310  1.6412 -1.9360  2.4501
 1268SOL    MW4 5127   0.860   3.215   2.291 -0.0138 -0.0930  0.4301
 1269SOL     OW 5128   0.900   3.457   2.384  0.1758  0.3975 -0.3964
 1269SOL    HW2 5129   0.924   3.462   2.476  0.1880  1.3643 -0.4453
 1269SOL    HW3 5130   0.836   3.527   2.372 -1.4636 -1.1073 -0.6390
 1269SOL    MW4 5131   0.895   3.467   2.394 -0.0389  0.3266 -0.4346
 1270SOL     OW 5132   1.107   3.600   2.268  0.5100  0.1462  0.0354
 1270SOL    HW2 5133   1.179   3.560   2.316 -1.0607 -0.9136  1.5474
 1270SOL    HW3 5134   1.031   3.548   2.291 -0.7934  1.3845 -1.3833
 1270SOL    MW4 5135   1.107   3.588   2.278  0.1308  0.1698  0.0477
 1271SOL     OW 5136   1.092   3.866   2.335  0.2671  0.3827  0.0552
 1271SOL    HW2 5137   1.167   3.912   2.297 -0.8941  1.0172 -1.5314
 1271SOL    HW3 5138   1.099   3.777   2.300  1.2833 -0.0655  1.3662
 1271SOL    MW4 5139   1.103   3.860   2.325  0.2480  0.4075  0.0188
 1272SOL     OW 5140   0.860   3.992   2.251 -0.2530  0.6059 -0.3006
 1272SOL    HW2 5141   0.933   3.940   2.285 -0.1258  0.1905 -1.1993
 1272SOL    HW3 5142   0.783   3.958   2.297 -0.1970 -0.5091 -1.0251
 1272SOL    MW4 5143   0.860   3.981   2.262 -0.2288  0.4039 -0.5147
 1273SOL     OW 5144   0.853   4.255   2.359 -0.1255  0.0925  0.6031
 1273SOL    HW2 5145   0.856   4.170   2.316  0.1301  0.2868  0.2360
 1273SOL    HW3 5146   0.777   4.299   2.321 -0.7508 -0.2929  1.3972
 1273SOL    MW4 5147   0.843   4.250   2.349 -0.1743  0.0677  0.6592
 1274SOL     OW 5148   1.102   4.336   2.246 -0.0257  0.1428  0.1983
 1274SOL    HW2 5149   1.013   4.317   2.276  0.2963 -0.8715  0.5045
 1274SOL    HW3 5150   1.123   4.420   2.288 -0.1976 -0.4465  1.4976
 1274SOL    MW4 5151   1.093   4.345   2.256 -0.0060 -0.0691  0.4101
 1275SOL     OW 5152   1.579   4.641   2.330  0.3300  0.0717  0.0160
 1275SOL    HW2 5153   1.657   4.692   2.310 -0.8667  2.7525  1.8622
 1275SOL    HW3 5154   1.512   4.675   2.270  0.1665 -1.1026 -0.4769
 1275SOL    MW4 5155   1.580   4.653   2.320  0.1504  0.2704  0.1948
 1276SOL     OW 5156   1.361   0.107   2.220  0.0070  0.3862  0.2299
 1276SOL    HW2 5157   1.369   0.180   2.282 -1.4745  0.0677  0.8002
 1276SOL    HW3 5158   1.292   0.052   2.255  0.4614 -0.8161 -0.7067
 1276SOL    MW4 5159   1.353   0.110   2.233 -0.1286  0.1855  0.1817
 1277SOL     OW 5160   1.342   0.358   2.358  0.0496  0.0943 -0.1159
 1277SOL    HW2 5161   1.339   0.376   2.452 -0.8175 -1.4308  0.1657
 1277SOL    HW3 5162   1.418   0.407   2.327  0.8897 -0.1126  1.5484
 1277SOL    MW4 5163   1.352   0.366   2.367  0.0460 -0.1342  0.1409
 1278SOL     OW 5164   1.557   0.499   2.226 -0.3743  0.3946  0.4712
 1278SOL    HW2 5165   1.640   0.487   2.272 -0.8512 -1.8813  0.7834
 1278SOL    HW3 5166   1.582   0.502   2.133  0.0405 -0.3649  0.5552
 1278SOL    MW4 5167   1.571   0.498   2.220 -0.3827 -0.0059  0.5236
 1279SOL     OW 5168   1.540   0.736   2.349 -0.1256 -0.4558 -0.6077
 1279SOL    HW2 5169   1.623   0.779   2.328 -0.1652 -0.1343 -0.1285
 1279SOL    HW3 5170   1.541   0.655   2.299  0.3845 -0.3505 -0.7681
 1279SOL    MW4 5171   1.551   0.731   2.340 -0.0635 -0.3995 -0.5658
 1280SOL     OW 5172   1.318   0.860   2.254 -0.3812  0.1277  0.1299
 1280SOL    HW2 5173   1.393   0.808   2.284 -0.3933 -0.0704 -0.1792
 1280SOL    HW3 5174   1.242   0.816   2.293 -0.4765 -0.7012 -0.9618
 1280SOL    MW4 5175   1.318   0.847   2.263 -0.3953 -0.0078 -0.0548
 1281SOL     OW 5176   1.345   1.116   2.359  0.9558  0.7845  0.1277
 1281SOL    HW2 5177   1.356   1.105   2.453 -1.3558 -0.2915  0.3016
 1281SOL    HW3 5178   1.343   1.027   2.324 -1.2897  1.0550 -0.5223
 1281SOL    MW4 5179   1.346   1.103   2.367  0.3546  0.6781  0.0653
 1282SOL     OW 5180   1.555   1.237   2.237  0.0815  0.0402  0.2675
 1282SOL    HW2 5181   1.478   1.197   2.276 -0.8309  0.3061 -1.2462
 1282SOL    HW3 5182   1.535   1.243   2.144  2.0245 -0.1081 -0.1744
 1282SOL    MW4 5183   1.542   1.233   2.230  0.2173  0.0558  0.0095
 1283SOL     OW 5184   1.580   1.471   2.354  0.2920 -0.0028  0.2160
 1283SOL    HW2 5185   1.658   1.513   2.319  1.1356 -1.0757  0.7917
 1283SOL    HW3 5186   1.573   1.388   2.306 -0.0827 -0.2462  0.6801
 1283SOL    MW4 5187   1.589   1.465   2.343  0.3539 -0.1765  0.3531
 1284SOL     OW 5188   1.363   1.623   2.267  0.2283 -0.1531 -0.0133
 1284SOL    HW2 5189   1.439   1.579   2.304  1.1814  1.2425 -0.2873
 1284SOL    HW3 5190   1.288   1.581   2.310  1.2377 -0.0040  1.9382
 1284SOL    MW4 5191   1.363   1.612   2.278  0.4872  0.0508  0.2081
 1285SOL     OW 5192   1.363   1.864   2.385 -0.7384  0.1876 -0.2268
 1285SOL    HW2 5193   1.438   1.907   2.343  0.0374  0.5019  1.4463
 1285SOL    HW3 5194   1.358   1.778   2.343  0.4171  0.2455 -0.4986
 1285SOL    MW4 5195   1.372   1.859   2.374 -0.4836  0.2367 -0.0422
 1286SOL     OW 5196   1.575   1.990   2.282  0.2077  0.4805 -0.1323
 1286SOL    HW2 5197   1.647   1.930   2.303 -0.8015 -0.2510  1.3941
 1286SOL    HW3 5198   1.569   1.989   2.187  2.2525  0.6120 -0.2800
 1286SOL    MW4 5199   1.584   1.982   2.272  0.3443  0.4013  0.0496
 1287SOL     OW 5200   1.617   2.271   2.372  0.1426 -0.1594  0.0126
 1287SOL    HW2 5201   1.609   2.291   2.465 -0.6451  0.4035 -0.1702
 1287SOL    HW3 5202   1.605   2.176   2.367  0.0189 -0.1700  0.4703
 1287SOL    MW4 5203   1.614   2.261   2.384  0.0224 -0.0865  0.0491
 1288SOL     OW 5204   1.343   2.447   1.992  0.4749 -0.1039  0.0908
 1288SOL    HW2 5205   1.343   2.442   2.088 -0.5527 -1.0651  0.0576
 1288SOL    HW3 5206   1.414   2.389   1.965 -0.7577 -1.7197  0.2221
 1288SOL    MW4 5207   1.352   2.439   2.001  0.1767 -0.4437  0.1040
 1289SOL     OW 5208   1.355   2.425   2.270 -0.2232  0.0088  0.0144
 1289SOL    HW2 5209   1.369   2.515   2.298 -0.8164 -0.0393  0.4697
 1289SOL    HW3 5210   1.438   2.381   2.288  0.5369  0.7911 -1.5293
 1289SOL    MW4 5211   1.368   2.431   2.277 -0.2012  0.1059 -0.1295
 1290SOL     OW 5212   1.613   2.831   2.267 -0.0089 -0.3140  0.4009
 1290SOL    HW2 5213   1.609   2.926   2.276 -0.3779 -0.2494 -0.3651
 1290SOL    HW3 5214   1.634   2.816   2.175  0.5569 -0.9695  0.6253
 1290SOL    MW4 5215   1.615   2.841   2.256  0.0172 -0.3922  0.3295
 1291SOL     OW 5216   1.552   3.078   2.372 -0.3218  0.4001  0.0185
 1291SOL    HW2 5217   1.547   3.090   2.467  0.6144  1.3308 -0.0372
 1291SOL    HW3 5218   1.500   3.150   2.337 -0.7506 -0.0035 -0.1801
 1291SOL    MW4 5219   1.544   3.089   2.380 -0.2549  0.4697 -0.0153
 1292SOL     OW 5220   1.345   3.249   2.278 -0.6738  0.0334 -0.0408
 1292SOL    HW2 5221   1.265   3.200   2.299  0.6524 -2.2071 -0.1705
 1292SOL    HW3 5222   1.355   3.238   2.184  0.3230 -0.5109  0.1272
 1292SOL    MW4 5223   1.336   3.241   2.269 -0.3672 -0.3340 -0.0360
 1293SOL     OW 5224   1.318   3.487   2.416  0.0712  0.1980  0.3021
 1293SOL    HW2 5225   1.319   3.470   2.510  1.0456  0.5891  0.3721
 1293SOL    HW3 5226   1.334   3.402   2.375 -0.4630  0.0088  0.4883
 1293SOL    MW4 5227   1.320   3.474   2.423  0.1295  0.2248  0.3357
 1294SOL     OW 5228   1.536   3.603   2.289 -0.2278  0.1955 -0.2751
 1294SOL    HW2 5229   1.551   3.696   2.302 -0.9629  0.2389  0.2871
 1294SOL    HW3 5230   1.461   3.582   2.345 -1.5321 -0.2437 -2.1185
 1294SOL    MW4 5231   1.528   3.613   2.298 -0.4967  0.1433 -0.4442
 1295SOL     OW 5232   1.574   3.868   2.346  0.2135 -0.6438  0.1291
 1295SOL    HW2 5233   1.571   3.858   2.441  0.4459 -0.9759  0.1016
 1295SOL    HW3 5234   1.644   3.932   2.331 -1.7928  1.6825  0.3504
 1295SOL    MW4 5235   1.583   3.875   2.357 -0.0205 -0.3810  0.1547
 1296SOL     OW 5236   1.338   3.987   2.238 -0.1626 -0.2163 -0.3982
 1296SOL    HW2 5237   1.413   3.954   2.287 -0.7900 -1.2776 -0.1316
 1296SOL    HW3 5238   1.372   4.009   2.152  0.7947  0.9102  0.2442
 1296SOL    MW4 5239   1.352   3.986   2.233 -0.1191 -0.2077 -0.2782
 1297SOL     OW 5240   1.343   4.236   2.350 -0.1594  0.1926 -0.2593
 1297SOL    HW2 5241   1.355   4.151   2.307 -0.7968 -0.4694  0.8418
 1297SOL    HW3 5242   1.253   4.262   2.327 -0.3390  0.0559  0.2833
 1297SOL    MW4 5243   1.332   4.228   2.341 -0.2673  0.0873 -0.0427
 1298SOL     OW 5244   1.555   4.376   2.258 -0.5437  0.3183  0.1045
 1298SOL    HW2 5245   1.473   4.333   2.284 -0.1941  0.1458  0.9369
 1298SOL    HW3 5246   1.552   4.462   2.300 -0.2578  0.2781  0.2088
 1298SOL    MW4 5247   1.544   4.382   2.267 -0.4599  0.2899  0.2282
 1299SOL     OW 5248   2.041   0.023   2.381 -0.7227 -0.6137  0.1849
 1299SOL    HW2 5249   2.113   0.073   2.342 -1.7263  1.1732  0.5458
 1299SOL    HW3 5250   2.036  -0.057   2.329  1.4093 -0.6944  0.0562
 1299SOL    MW4 5251   2.050   0.019   2.369 -0.5736 -0.3886  0.2155
 1300SOL     OW 5252   1.807   0.131   2.282  0.1179  0.1502  0.1809
 1300SOL    HW2 5253   1.799   0.226   2.297 -0.7455  0.0916  0.0965
 1300SOL    HW3 5254   1.884   0.106   2.332 -0.2161  0.7321  0.9984
 1300SOL    MW4 5255   1.816   0.140   2.291 -0.0402  0.2193  0.2778
 1301SOL     OW 5256   1.789   0.412   2.332 -0.0242  0.1793  0.3511
 1301SOL    HW2 5257   1.792   0.393   2.426 -0.3234  1.5866  0.6553
 1301SOL    HW3 5258   1.876   0.448   2.312  0.7441 -1.9917 -0.3384
 1301SOL    MW4 5259   1.801   0.415   2.342  0.0378  0.0785  0.3002
 1302SOL     OW 5260   2.031   0.534   2.279 -0.8418 -0.1964  0.3239
 1302SOL    HW2 5261   2.023   0.627   2.303  0.3644 -0.0104  0.0073
 1302SOL    HW3 5262   2.030   0.533   2.184  2.3655 -0.1959  0.2516
 1302SOL    MW4 5263   2.030   0.546   2.270 -0.2594 -0.1718  0.2725
 1303SOL     OW 5264   2.010   0.781   2.400 -0.1796  0.2461  0.0425
 1303SOL    HW2 5265   2.065   0.821   2.333  1.0116 -0.0838  0.8105
 1303SOL    HW3 5266   1.921   0.801   2.372  0.3193  0.8498 -1.1797
 1303SOL    MW4 5267   2.006   0.789   2.387  0.0434  0.2822 -0.0176
 1304SOL     OW 5268   1.773   0.854   2.272  0.4809 -0.2647 -0.3310
 1304SOL    HW2 5269   1.784   0.944   2.305  1.1514 -0.6234  0.4650
 1304SOL    HW3 5270   1.750   0.865   2.180  0.0466  0.7392 -0.1137
 1304SOL    MW4 5271   1.771   0.868   2.264  0.5121 -0.1795 -0.1974
 1305SOL     OW 5272   1.785   1.123   2.359  0.5931  0.4009  0.3922
 1305SOL    HW2 5273   1.864   1.156   2.317  1.0102  1.9263  2.3359
 1305SOL    HW3 5274   1.717   1.186   2.334  0.5205  0.4721  0.7735
 1305SOL    MW4 5275   1.786   1.136   2.350  0.6386  0.6115  0.6988
 1306SOL     OW 5276   2.029   1.235   2.272 -0.2812 -0.7028  0.2834
 1306SOL    HW2 5277   2.048   1.315   2.322  0.7243 -0.7800  0.0494
 1306SOL    HW3 5278   2.028   1.264   2.181  0.0743 -0.9488  0.1984
 1306SOL    MW4 5279   2.031   1.250   2.267 -0.1016 -0.7453  0.2415
 1307SOL     OW 5280   2.039   1.499   2.370 -0.0856 -0.0240  0.0089
 1307SOL    HW2 5281   2.034   1.502   2.465  1.2445  0.4655  0.0632
 1307SOL    HW3 5282   1.952   1.526   2.340 -0.6520 -0.6564  1.0864
 1307SOL    MW4 5283   2.027   1.503   2.378  0.0153 -0.0429  0.1583
 1308SOL     OW 5284   1.805   1.608   2.264 -0.3509 -0.2907 -0.1033
 1308SOL    HW2 5285   1.809   1.689   2.314  0.3206 -0.0030 -0.6125
 1308SOL    HW3 5286   1.825   1.634   2.174 -2.0380 -0.7156 -0.6212
 1308SOL    MW4 5287   1.808   1.622   2.258 -0.4848 -0.3090 -0.2387
 1309SOL     OW 5288   1.834   1.871   2.374  0.0261  0.2236 -0.3987
 1309SOL    HW2 5289   1.827   1.889   2.468 -0.9782 -0.5996 -0.3070
 1309SOL    HW3 5290   1.900   1.933   2.343  0.6364  0.2601  0.9123
 1309SOL    MW4 5291   1.842   1.882   2.383 -0.0259  0.1197 -0.2136
 1310SOL     OW 5292   2.029   2.044   2.287 -0.2119 -0.1793 -0.1399
 1310SOL    HW2 5293   2.109   2.010   2.328 -0.5587  0.5469  1.1681
 1310SOL    HW3 5294   2.045   2.035   2.193  1.7833  0.7142  0.0690
 1310SOL    MW4 5295   2.042   2.039   2.280  0.0060  0.0346  0.0601
 1311SOL     OW 5296   2.023   2.301   2.384 -0.2474 -0.3737 -0.1856
 1311SOL    HW2 5297   2.097   2.346   2.343 -0.6713  0.2464 -0.2671
 1311SOL    HW3 5298   2.020   2.215   2.341 -0.6885  0.2707 -1.4520
 1311SOL    MW4 5299   2.033   2.295   2.373 -0.3614 -0.2067 -0.3636
 1312SOL     OW 5300   1.816   2.422   2.269  0.4175 -0.2906 -0.4683
 1312SOL    HW2 5301   1.896   2.396   2.315  0.4956  0.6236 -0.0704
 1312SOL    HW3 5302   1.746   2.372   2.313  0.8133 -1.4377 -1.1177
 1312SOL    MW4 5303   1.817   2.412   2.281  0.4799 -0.3211 -0.5014
 1313SOL     OW 5304   1.834   2.680   2.387 -0.2488  0.0363  0.0337
 1313SOL    HW2 5305   1.828   2.591   2.352 -0.0160  0.6768 -1.7251
 1313SOL    HW3 5306   1.762   2.727   2.344 -0.7387  0.5543  1.4090
 1313SOL    MW4 5307   1.823   2.675   2.377 -0.2828  0.1891 -0.0169
 1314SOL     OW 5308   2.051   2.802   2.254  0.2937 -0.2347 -0.3176
 1314SOL    HW2 5309   2.132   2.759   2.282  0.4549 -0.2362 -0.7936
 1314SOL    HW3 5310   1.981   2.751   2.296  0.5196 -0.4431 -0.1931
 1314SOL    MW4 5311   2.052   2.790   2.263  0.3448 -0.2620 -0.3643
 1315SOL     OW 5312   2.000   3.059   2.359  0.3506  0.2999  0.6690
 1315SOL    HW2 5313   2.074   3.103   2.316  0.8264  1.4125  2.5644
 1315SOL    HW3 5314   2.006   2.968   2.329  2.0500  0.5391  0.1988
 1315SOL    MW4 5315   2.011   3.053   2.349  0.6375  0.4785  0.8571
 1316SOL     OW 5316   1.787   3.212   2.267  0.1664 -0.1836 -0.0990
 1316SOL    HW2 5317   1.857   3.155   2.298  1.1246  2.5043  2.9497
 1316SOL    HW3 5318   1.708   3.178   2.310  0.7368  0.7834  1.7333
 1316SOL    MW4 5319   1.786   3.200   2.277  0.3681  0.2990  0.5450
 1317SOL     OW 5320   1.776   3.474   2.362  0.4748  0.0651  0.0203
 1317SOL    HW2 5321   1.781   3.388   2.320  0.3022  1.0221 -2.0284
 1317SOL    HW3 5322   1.687   3.504   2.343  0.9100  1.1831 -0.2758
 1317SOL    MW4 5323   1.765   3.467   2.354  0.5094  0.3390 -0.2892
 1318SOL     OW 5324   1.985   3.620   2.259 -0.3360 -0.1396 -0.2041
 1318SOL    HW2 5325   1.909   3.572   2.291  1.1825 -1.4302  1.5665
 1318SOL    HW3 5326   1.988   3.601   2.165 -1.7035 -0.7518 -0.1296
 1318SOL    MW4 5327   1.975   3.611   2.251 -0.3161 -0.3905  0.0391
 1319SOL     OW 5328   2.020   3.881   2.354  0.1198  0.1735  0.0186
 1319SOL    HW2 5329   2.036   3.874   2.448 -0.9942 -0.4763  0.1649
 1319SOL    HW3 5330   2.019   3.791   2.323 -1.8397  0.2609 -0.2154
 1319SOL    MW4 5331   2.022   3.868   2.363 -0.2859  0.0992  0.0072
 1320SOL     OW 5332   1.805   4.022   2.251 -0.3995 -0.3004 -0.0641
 1320SOL    HW2 5333   1.881   3.968   2.274  0.7058  0.2897 -2.1564
 1320SOL    HW3 5334   1.800   4.016   2.156 -1.2729  1.9098 -0.1923
 1320SOL    MW4 5335   1.815   4.014   2.242 -0.3690  0.0691 -0.3569
 1321SOL     OW 5336   1.795   4.268   2.376  0.1546  0.1451 -0.2041
 1321SOL    HW2 5337   1.804   4.186   2.329  0.9789  0.4596 -0.5974
 1321SOL    HW3 5338   1.715   4.307   2.340  0.9914  0.5733 -1.6573
 1321SOL    MW4 5339   1.785   4.263   2.365  0.3737  0.2432 -0.4478
 1322SOL     OW 5340   1.989   4.423   2.290  0.3547 -0.2691  0.4754
 1322SOL    HW2 5341   1.917   4.368   2.320 -0.4086  0.5153  0.1133
 1322SOL    HW3 5342   2.002   4.399   2.198 -2.0647  2.3051 -0.6008
 1322SOL    MW4 5343   1.981   4.413   2.282 -0.0651  0.1740  0.2856
 1323SOL     OW 5344   2.473   0.017   2.372 -0.2329  0.2276 -0.0562
 1323SOL    HW2 5345   2.560   0.039   2.337  0.0848 -0.5679  0.2222
 1323SOL    HW3 5346   2.460  -0.075   2.347 -1.0403  0.3701 -0.1842
 1323SOL    MW4 5347   2.483   0.008   2.364 -0.2975  0.1411 -0.0365
 1324SOL     OW 5348   2.248   0.143   2.266  1.0130 -0.3768 -0.1021
 1324SOL    HW2 5349   2.245   0.234   2.295  0.8403 -0.5542  0.4479
 1324SOL    HW3 5350   2.330   0.110   2.303  0.8459 -0.5750  0.0879
 1324SOL    MW4 5351   2.259   0.151   2.275  0.9685 -0.4264 -0.0045
 1325SOL     OW 5352   2.251   0.396   2.379  0.5171  0.1115 -0.2590
 1325SOL    HW2 5353   2.325   0.429   2.329  0.6035  1.4781  0.7349
 1325SOL    HW3 5354   2.178   0.453   2.355  0.5662  0.7967  1.1794
 1325SOL    MW4 5355   2.251   0.408   2.369  0.5348  0.3822  0.0618
 1326SOL     OW 5356   2.483   0.504   2.244 -0.5140 -0.6314 -0.3665
 1326SOL    HW2 5357   2.555   0.446   2.270  0.4866  0.4307 -0.6888
 1326SOL    HW3 5358   2.489   0.508   2.148 -0.5703  0.0050 -0.3445
 1326SOL    MW4 5359   2.494   0.497   2.234 -0.3893 -0.4073 -0.4060
 1327SOL     OW 5360   2.483   0.774   2.365  0.4082  0.3875  0.4264
 1327SOL    HW2 5361   2.563   0.810   2.327  0.8925 -0.5272  0.5536
 1327SOL    HW3 5362   2.470   0.690   2.320 -1.3031  1.2046 -0.6418
 1327SOL    MW4 5363   2.492   0.767   2.354  0.2460  0.3746  0.3021
 1328SOL     OW 5364   2.256   0.884   2.256 -0.0142  0.3420 -0.0251
 1328SOL    HW2 5365   2.253   0.969   2.300  0.5514  0.4194 -0.1371
 1328SOL    HW3 5366   2.320   0.833   2.306 -1.5891 -0.6069  1.0842
 1328SOL    MW4 5367   2.264   0.889   2.269 -0.1473  0.2271  0.1066
 1329SOL     OW 5368   2.272   1.129   2.378 -0.5363  0.5344 -0.0673
 1329SOL    HW2 5369   2.334   1.183   2.328 -0.6175  0.2695 -0.4575
 1329SOL    HW3 5370   2.186   1.158   2.348 -0.5648 -1.5921 -2.2105
 1329SOL    MW4 5371   2.269   1.140   2.367 -0.5507  0.2187 -0.4015
 1330SOL     OW 5372   2.462   1.269   2.257 -0.4272  0.1917 -0.2654
 1330SOL    HW2 5373   2.539   1.233   2.300  0.6858  0.4020 -2.0065
 1330SOL    HW3 5374   2.448   1.353   2.299 -0.2823 -0.2762  0.7186
 1330SOL    MW4 5375   2.470   1.275   2.268 -0.2611  0.1576 -0.3653
 1331SOL     OW 5376   2.436   1.512   2.395  0.4364  0.2039 -0.3736
 1331SOL    HW2 5377   2.418   1.533   2.487 -0.7068  0.2615 -0.6054
 1331SOL    HW3 5378   2.527   1.539   2.382  1.7693 -2.8409  1.6719
 1331SOL    MW4 5379   2.446   1.518   2.406  0.4613 -0.1903 -0.1342
 1332SOL     OW 5380   2.246   1.669   2.264 -0.5375  0.2405  0.2177
 1332SOL    HW2 5381   2.314   1.612   2.297 -0.2560 -0.4383 -1.5042
 1332SOL    HW3 5382   2.164   1.627   2.290 -0.3318 -0.9060 -0.9120
 1332SOL    MW4 5383   2.244   1.656   2.272 -0.4733 -0.0004 -0.1585
 1333SOL     OW 5384   2.239   1.918   2.405 -0.2259 -0.2642 -0.0357
 1333SOL    HW2 5385   2.314   1.966   2.368  0.5165 -0.6824  0.8934
 1333SOL    HW3 5386   2.244   1.832   2.365 -0.8888  0.0705 -0.8424
 1333SOL    MW4 5387   2.250   1.913   2.395 -0.2153 -0.2751 -0.0193
 1334SOL     OW 5388   2.447   2.041   2.249 -0.0018  0.0847 -0.4132
 1334SOL    HW2 5389   2.518   1.980   2.271 -0.2888 -0.1201 -0.0469
 1334SOL    HW3 5390   2.433   2.029   2.156  2.2324  2.0143 -1.0398
 1334SOL    MW4 5391   2.455   2.031   2.240  0.2551  0.3121 -0.4475
 1335SOL     OW 5392   2.496   2.285   2.384 -0.6631 -0.0797  0.0998
 1335SOL    HW2 5393   2.574   2.329   2.352 -0.7181  0.4763  0.7205
 1335SOL    HW3 5394   2.488   2.207   2.330  0.3018 -0.1175  0.0165
 1335SOL    MW4 5395   2.505   2.281   2.373 -0.5431 -0.0112  0.1705
 1336SOL     OW 5396   2.259   2.404   2.273 -0.0917 -0.0212 -0.0035
 1336SOL    HW2 5397   2.260   2.482   2.329 -2.7768 -0.2210  0.4148
 1336SOL    HW3 5398   2.332   2.351   2.304 -0.0652  0.9741  1.6983
 1336SOL    MW4 5399   2.269   2.407   2.284 -0.4425  0.0837  0.2761
 1337SOL     OW 5400   2.259   2.650   2.373 -0.2685 -0.1610  0.0580
 1337SOL    HW2 5401   2.242   2.668   2.465 -0.1627 -0.3219  0.1079
 1337SOL    HW3 5402   2.336   2.703   2.352  0.8076 -1.5076  0.5288
 1337SOL    MW4 5403   2.267   2.659   2.382 -0.1128 -0.3600  0.1266
 1338SOL     OW 5404   2.488   2.811   2.277  0.2171  0.0471 -0.4116
 1338SOL    HW2 5405   2.570   2.767   2.300  0.7360  0.7582 -0.8578
 1338SOL    HW3 5406   2.490   2.816   2.181 -0.3525  0.0610 -0.4241
 1338SOL    MW4 5407   2.499   2.806   2.267  0.2105  0.1426 -0.4721
 1339SOL     OW 5408   2.432   3.089   2.358 -0.2909  0.5332  0.0176
 1339SOL    HW2 5409   2.518   3.124   2.334  0.1834 -1.1531 -0.7937
 1339SOL    HW3 5410   2.443   2.994   2.354 -1.8589  0.2923  1.1317
 1339SOL    MW4 5411   2.445   3.081   2.355 -0.4354  0.2792  0.0572
 1340SOL     OW 5412   2.209   3.201   2.247  0.1060  0.4456 -0.2150
 1340SOL    HW2 5413   2.204   3.293   2.272  0.5983  0.9023 -1.6966
 1340SOL    HW3 5414   2.288   3.168   2.290  0.4842  0.9862 -0.5028
 1340SOL    MW4 5415   2.219   3.208   2.256  0.2208  0.5770 -0.4485
 1341SOL     OW 5416   2.227   3.477   2.302 -0.2164 -0.1061 -0.0882
 1341SOL    HW2 5417   2.241   3.469   2.396  0.2271 -0.0779 -0.1525
 1341SOL    HW3 5418   2.151   3.536   2.294 -0.5147 -0.4466  0.2590
 1341SOL    MW4 5419   2.219   3.484   2.314 -0.1972 -0.1473 -0.0510
 1342SOL     OW 5420   2.466   3.592   2.205  0.2055 -0.0028  0.0237
 1342SOL    HW2 5421   2.459   3.686   2.223  0.4797 -0.0423  0.3469
 1342SOL    HW3 5422   2.383   3.556   2.238 -0.2638  0.2384 -0.8706
 1342SOL    MW4 5423   2.454   3.600   2.212  0.1798  0.0236 -0.0517
 1343SOL     OW 5424   2.438   3.848   2.306  0.1912  0.0699  0.0788
 1343SOL    HW2 5425   2.443   3.848   2.402 -1.0045  0.0030  0.1458
 1343SOL    HW3 5426   2.380   3.922   2.286  1.7496  1.1216 -0.6759
 1343SOL    MW4 5427   2.431   3.858   2.316  0.2391  0.1998 -0.0119
 1344SOL     OW 5428   2.224   4.046   2.247 -0.5364 -0.1471  0.1432
 1344SOL    HW2 5429   2.215   4.135   2.283 -0.2983 -1.2516  3.0263
 1344SOL    HW3 5430   2.145   4.001   2.275 -0.6481 -0.8999 -1.3095
 1344SOL    MW4 5431   2.212   4.052   2.255 -0.5198 -0.3920  0.3319
 1345SOL     OW 5432   2.232   4.304   2.360  0.2281 -0.0415 -0.5666
 1345SOL    HW2 5433   2.236   4.287   2.454 -0.7912 -1.5537 -0.7674
 1345SOL    HW3 5434   2.151   4.353   2.348  0.4140  0.2485 -0.6454
 1345SOL    MW4 5435   2.222   4.308   2.371  0.1180 -0.2031 -0.6034
 1346SOL     OW 5436   2.483   4.410   2.276 -0.2209  0.2695 -0.7231
 1346SOL    HW2 5437   2.535   4.349   2.328  0.5012  1.3685 -0.1184
 1346SOL    HW3 5438   2.393   4.377   2.281  0.3321 -1.3334 -1.3139
 1346SOL    MW4 5439   2.478   4.398   2.284 -0.0527  0.2031 -0.7215
 1347SOL     OW 5440   2.898   4.574   2.401 -0.0709 -0.1485 -0.2292
 1347SOL    HW2 5441   2.960   4.632   2.356 -0.6644 -0.2979 -1.2367
 1347SOL    HW3 5442   2.922   4.486   2.372  0.6037 -0.3873  1.0283
 1347SOL    MW4 5443   2.910   4.570   2.392 -0.0603 -0.1998 -0.1962
 1348SOL     OW 5444   2.725   0.093   2.254  0.5421  0.0861 -0.0253
 1348SOL    HW2 5445   2.748   0.181   2.281 -0.1618  0.0916  0.5556
 1348SOL    HW3 5446   2.774   0.035   2.312  1.1769  0.0880 -0.5510
 1348SOL    MW4 5447   2.734   0.097   2.265  0.5329  0.0871 -0.0181
 1349SOL     OW 5448   2.714   0.399   2.371  0.2449  0.4977 -0.2950
 1349SOL    HW2 5449   2.707   0.398   2.466  0.8973  1.2363 -0.2323
 1349SOL    HW3 5450   2.801   0.435   2.354  0.4685 -0.4196 -1.1570
 1349SOL    MW4 5451   2.725   0.404   2.381  0.3603  0.4742 -0.4005
 1350SOL     OW 5452   2.938   0.521   2.282 -0.6124  0.5974  0.0147
 1350SOL    HW2 5453   2.951   0.613   2.304  1.7819  0.7287 -1.7020
 1350SOL    HW3 5454   2.945   0.517   2.186 -2.4540 -1.1222 -0.0878
 1350SOL    MW4 5455   2.941   0.532   2.272 -0.5395  0.3879 -0.2253
 1351SOL     OW 5456   2.947   0.773   2.360  0.2894  0.3556  0.2501
 1351SOL    HW2 5457   2.940   0.758   2.454 -1.0248  1.3813  0.3195
 1351SOL    HW3 5458   2.862   0.808   2.334  0.9138  0.8684 -1.1778
 1351SOL    MW4 5459   2.935   0.775   2.369  0.1986  0.5586  0.0710
 1352SOL     OW 5460   2.720   0.896   2.279 -0.1921 -0.1460  0.5699
 1352SOL    HW2 5461   2.710   0.988   2.304  0.5669  0.7679 -2.2578
 1352SOL    HW3 5462   2.723   0.898   2.183  1.5392 -2.9409  0.5203
 1352SOL    MW4 5463   2.719   0.908   2.270  0.1366 -0.3942  0.1905
 1353SOL     OW 5464   2.681   1.159   2.367 -0.0389 -0.0728  0.3900
 1353SOL    HW2 5465   2.663   1.163   2.461 -1.0134  1.1719  0.1638
 1353SOL    HW3 5466   2.765   1.203   2.357  0.8052 -1.5240  0.8409
 1353SOL    MW4 5467   2.690   1.165   2.378 -0.0560 -0.1001  0.4196
 1354SOL     OW 5468   2.935   1.270   2.289 -0.2949 -0.0050  0.2187
 1354SOL    HW2 5469   3.005   1.222   2.333  0.4675  1.2923  0.4431
 1354SOL    HW3 5470   2.952   1.257   2.196 -0.5407 -0.7998  0.2797
 1354SOL    MW4 5471   2.947   1.262   2.283 -0.2267  0.0613  0.2561
 1355SOL     OW 5472   2.894   1.535   2.376 -0.2929  0.1058 -0.5727
 1355SOL    HW2 5473   2.903   1.549   2.471 -2.9923 -1.0746 -0.0810
 1355SOL    HW3 5474   2.918   1.444   2.363 -0.4777  0.1057 -0.9221
 1355SOL    MW4 5475   2.898   1.525   2.387 -0.6733 -0.0498 -0.5541
 1356SOL     OW 5476   2.662   1.641   2.292 -0.2061  0.4066  0.1918
 1356SOL    HW2 5477   2.745   1.609   2.329 -1.1338 -1.5994  0.5954
 1356SOL    HW3 5478   2.676   1.639   2.197 -0.1693 -1.0993  0.2072
 1356SOL    MW4 5479   2.675   1.636   2.284 -0.3238 -0.0567  0.2472
 1357SOL     OW 5480   2.672   1.911   2.353  0.4981 -0.0371  0.1754
 1357SOL    HW2 5481   2.683   1.916   2.448  1.5839  1.1381 -0.0080
 1357SOL    HW3 5482   2.657   1.818   2.335  1.2313 -0.3926  1.3896
 1357SOL    MW4 5483   2.671   1.899   2.363  0.7381  0.0712  0.3114
 1358SOL     OW 5484   2.897   2.055   2.270  0.2531  0.5165 -0.6162
 1358SOL    HW2 5485   2.962   1.996   2.310  0.4626  0.1312 -1.5028
 1358SOL    HW3 5486   2.813   2.012   2.284  0.4569 -0.2493 -1.6959
 1358SOL    MW4 5487   2.895   2.042   2.277  0.3078  0.3648 -0.8757
 1359SOL     OW 5488   2.935   2.296   2.401  0.4440 -0.1452 -0.2559
 1359SOL    HW2 5489   2.934   2.282   2.496  0.6444 -1.6263 -0.4517
 1359SOL    HW3 5490   2.915   2.209   2.365 -1.9271  0.8801 -1.5240
 1359SOL    MW4 5491   2.932   2.282   2.409  0.1576 -0.2053 -0.4489
 1360SOL     OW 5492   2.729   2.415   2.266  0.3307 -0.3796  0.4490
 1360SOL    HW2 5493   2.810   2.376   2.300 -0.7987 -2.2309  1.1132
 1360SOL    HW3 5494   2.744   2.422   2.172  1.1277 -1.0293  0.5186
 1360SOL    MW4 5495   2.742   2.411   2.259  0.2871 -0.7098  0.5460
 1361SOL     OW 5496   2.713   2.689   2.367 -0.0909 -0.0152  0.0985
 1361SOL    HW2 5497   2.791   2.736   2.341 -0.1910  0.4283  0.5863
 1361SOL    HW3 5498   2.730   2.598   2.342  1.0513 -0.1226  1.2257
 1361SOL    MW4 5499   2.725   2.683   2.360  0.0465  0.0291  0.3116
 1362SOL     OW 5500   2.939   2.831   2.274  0.2148  0.2422 -0.4164
 1362SOL    HW2 5501   2.925   2.918   2.312 -1.2641 -0.3532  0.4385
 1362SOL    HW3 5502   2.926   2.845   2.180 -0.1126  0.9299 -0.2761
 1362SOL    MW4 5503   2.935   2.845   2.267 -0.0234  0.2546 -0.2851
 1363SOL     OW 5504   2.933   3.082   2.395  0.5667  0.0506  0.2578
 1363SOL    HW2 5505   3.010   3.103   2.341 -0.0530 -0.0187 -0.6613
 1363SOL    HW3 5506   2.861   3.128   2.353  0.2650  0.9156  1.6888
 1363SOL    MW4 5507   2.934   3.091   2.383  0.4449  0.1557  0.3254
 1364SOL     OW 5508   2.688   3.190   2.289 -0.9796 -0.1214 -0.1927
 1364SOL    HW2 5509   2.684   3.280   2.318 -0.3605 -0.1258 -0.0850
 1364SOL    HW3 5510   2.699   3.196   2.194  1.5661 -0.0309  0.0680
 1364SOL    MW4 5511   2.689   3.202   2.280 -0.5622 -0.1101 -0.1440
 1365SOL     OW 5512   2.670   3.463   2.337  0.2349 -0.3687  0.0035
 1365SOL    HW2 5513   2.751   3.501   2.304  0.5653 -1.2243 -0.1760
 1365SOL    HW3 5514   2.601   3.521   2.302  0.7321  0.0937 -0.2228
 1365SOL    MW4 5515   2.671   3.476   2.328  0.3440 -0.4206 -0.0503
 1366SOL     OW 5516   2.922   3.568   2.263  0.5592  0.4294 -0.0036
 1366SOL    HW2 5517   2.997   3.514   2.286  0.5222  0.9522  1.3986
 1366SOL    HW3 5518   2.946   3.656   2.293 -0.3683  0.7165 -0.0966
 1366SOL    MW4 5519   2.935   3.573   2.270  0.4320  0.5360  0.1693
 1367SOL     OW 5520   2.951   3.829   2.364 -0.5833  0.8712  0.4975
 1367SOL    HW2 5521   2.964   3.876   2.446 -1.3570 -0.5627  1.4644
 1367SOL    HW3 5522   2.865   3.856   2.334 -0.9429  0.2256  0.9484
 1367SOL    MW4 5523   2.942   3.839   2.370 -0.7329  0.5968  0.6845
 1368SOL     OW 5524   2.701   3.943   2.273 -0.0563  0.4067 -0.0344
 1368SOL    HW2 5525   2.626   3.888   2.292 -0.4393  1.1250  0.5719
 1368SOL    HW3 5526   2.701   3.952   2.177 -1.1045  0.8987  0.0067
 1368SOL    MW4 5527   2.691   3.937   2.263 -0.2453  0.5667  0.0513
 1369SOL     OW 5528   2.668   4.222   2.388 -0.0905 -0.0620 -0.1725
 1369SOL    HW2 5529   2.667   4.204   2.482  0.6274  1.1254  0.0742
 1369SOL    HW3 5530   2.671   4.136   2.347 -2.7321 -0.7042  0.8331
 1369SOL    MW4 5531   2.668   4.208   2.395 -0.3443  0.0100 -0.0072
 1370SOL     OW 5532   2.915   4.329   2.287  0.1689  0.3248  0.4088
 1370SOL    HW2 5533   2.987   4.278   2.323 -0.6484 -0.7365  0.5596
 1370SOL    HW3 5534   2.836   4.289   2.323 -0.4954  1.7124  0.5528
 1370SOL    MW4 5535   2.914   4.317   2.296 -0.0265  0.3681  0.4475
 1371SOL     OW 5536   3.358   4.646   2.376 -0.2442 -0.2557  0.3435
 1371SOL    HW2 5537   3.375   4.649   2.471  0.5942 -0.2028  0.1948
 1371SOL    HW3 5538   3.439   4.678   2.337 -1.0519  0.9705 -0.3506
 1371SOL    MW4 5539   3.371   4.651   2.384 -0.2401 -0.0868  0.2325
 1372SOL     OW 5540   3.105   0.097   2.282 -0.4653 -0.2366  0.1412
 1372SOL    HW2 5541   3.094   0.188   2.310 -1.7540  0.1315 -1.4649
 1372SOL    HW3 5542   3.191   0.071   2.317 -0.4121  1.3431  1.2413
 1372SOL    MW4 5543   3.115   0.106   2.290 -0.6285  0.0204  0.0746
 1373SOL     OW 5544   3.138   0.356   2.361 -0.0514 -0.5695 -0.0217
 1373SOL    HW2 5545   3.222   0.385   2.326  0.0400  1.3856  1.7392
 1373SOL    HW3 5546   3.075   0.420   2.329 -0.5224 -0.7726  0.4781
 1373SOL    MW4 5547   3.141   0.368   2.352 -0.1011 -0.3383  0.2766
 1374SOL     OW 5548   3.380   0.477   2.285 -0.2237 -0.3161  0.3715
 1374SOL    HW2 5549   3.456   0.427   2.315  0.5967  0.5800 -0.1981
 1374SOL    HW3 5550   3.395   0.489   2.191 -0.5282  0.8279  0.4677
 1374SOL    MW4 5551   3.392   0.472   2.276 -0.1557 -0.0469  0.3092
 1375SOL     OW 5552   3.385   0.741   2.383  0.2289 -0.0845  0.3145
 1375SOL    HW2 5553   3.465   0.781   2.347 -0.0842 -0.2205 -0.5458
 1375SOL    HW3 5554   3.380   0.656   2.340 -0.7020  0.1669 -0.0897
 1375SOL    MW4 5555   3.395   0.735   2.372  0.0648 -0.0693  0.1473
 1376SOL     OW 5556   3.186   0.854   2.250 -0.0457 -0.2927  0.1887
 1376SOL    HW2 5557   3.261   0.812   2.293 -0.0592 -0.4784  0.0300
 1376SOL    HW3 5558   3.109   0.810   2.287 -0.1845  1.4449  2.0535
 1376SOL    MW4 5559   3.186   0.842   2.260 -0.0660 -0.0879  0.4139
 1377SOL     OW 5560   3.135   1.109   2.376  0.0592  0.1450  0.0726
 1377SOL    HW2 5561   3.202   1.161   2.332 -1.0436 -0.0034 -1.8134
 1377SOL    HW3 5562   3.139   1.023   2.333 -0.1499 -0.4189  1.1538
 1377SOL    MW4 5563   3.144   1.105   2.365 -0.1137  0.0510 -0.0336
 1378SOL     OW 5564   3.339   1.256   2.270 -0.4957  0.0264 -0.0930
 1378SOL    HW2 5565   3.420   1.219   2.304 -1.4233  0.1604  2.3530
 1378SOL    HW3 5566   3.339   1.347   2.302 -1.7837 -0.0955  0.2903
 1378SOL    MW4 5567   3.349   1.263   2.279 -0.7877  0.0279  0.2804
 1379SOL     OW 5568   3.343   1.514   2.370  0.4105  0.1176 -0.0992
 1379SOL    HW2 5569   3.360   1.511   2.464 -0.5824 -0.5018  0.0707
 1379SOL    HW3 5570   3.264   1.567   2.362 -0.1422 -0.7401 -0.4735
 1379SOL    MW4 5571   3.335   1.520   2.381  0.2067 -0.0771 -0.1264
 1380SOL     OW 5572   3.119   1.666   2.340 -0.5052  0.4572 -0.4399
 1380SOL    HW2 5573   3.088   1.742   2.390 -0.0848  0.0774  0.3983
 1380SOL    HW3 5574   3.051   1.600   2.351 -0.4650  0.4125 -0.4571
 1380SOL    MW4 5575   3.106   1.668   2.348 -0.4444  0.4011 -0.3319
 1381SOL     OW 5576   3.135   1.953   2.373 -0.1339  0.2730 -0.7620
 1381SOL    HW2 5577   3.148   1.945   2.468 -1.1515 -2.1482 -0.7979
 1381SOL    HW3 5578   3.215   1.995   2.342  1.2091 -1.0074  0.8763
 1381SOL    MW4 5579   3.147   1.958   2.382 -0.0911 -0.2154 -0.5505
 1382SOL     OW 5580   3.388   2.052   2.279  0.3921  0.1803  0.1527
 1382SOL    HW2 5581   3.467   2.001   2.298  1.0859  0.6996 -1.2979
 1382SOL    HW3 5582   3.381   2.052   2.184  0.0105  2.1896  0.1585
 1382SOL    MW4 5583   3.397   2.046   2.269  0.4332  0.5140 -0.0379
 1383SOL     OW 5584   3.421   2.312   2.389  0.2563 -0.0685 -0.3614
 1383SOL    HW2 5585   3.344   2.357   2.354 -0.4254 -0.2365  0.8923
 1383SOL    HW3 5586   3.404   2.219   2.373 -0.5163 -0.2193  1.2953
 1383SOL    MW4 5587   3.409   2.306   2.382  0.0639 -0.1106  0.0224
 1384SOL     OW 5588   3.173   2.424   2.284  0.1293  0.1963 -0.2276
 1384SOL    HW2 5589   3.163   2.514   2.314 -0.5662 -0.2815  1.0518
 1384SOL    HW3 5590   3.097   2.379   2.320  0.5553 -0.9341 -0.7224
 1384SOL    MW4 5591   3.162   2.430   2.293  0.0937 -0.0157 -0.1240
 1385SOL     OW 5592   3.164   2.690   2.353 -0.3799  0.2184 -0.3133
 1385SOL    HW2 5593   3.172   2.706   2.447  0.2151  0.4244 -0.3996
 1385SOL    HW3 5594   3.086   2.740   2.327 -0.5512  0.1493  0.0738
 1385SOL    MW4 5595   3.155   2.699   2.362 -0.3240  0.2365 -0.2732
 1386SOL     OW 5596   3.402   2.821   2.274  0.0836  0.3840  0.6570
 1386SOL    HW2 5597   3.410   2.907   2.314  1.0830 -0.7168  2.9289
 1386SOL    HW3 5598   3.332   2.778   2.323  1.6301 -1.1452  1.5929
 1386SOL    MW4 5599   3.394   2.827   2.286  0.4194  0.0370  1.0803
 1387SOL     OW 5600   3.381   3.072   2.386  0.1586 -0.2159 -0.3685
 1387SOL    HW2 5601   3.451   3.124   2.345 -0.7794  1.5206  0.1532
 1387SOL    HW3 5602   3.303   3.092   2.335 -0.4161 -0.3456  0.4429
 1387SOL    MW4 5603   3.380   3.082   2.374 -0.0410 -0.0041 -0.1924
 1388SOL     OW 5604   3.146   3.165   2.234  0.5616  0.9750 -0.0753
 1388SOL    HW2 5605   3.152   3.248   2.280  1.7614  0.7493  0.1746
 1388SOL    HW3 5606   3.137   3.190   2.142  1.1029  1.3867 -0.0217
 1388SOL    MW4 5607   3.146   3.179   2.228  0.7913  0.9995 -0.0350
 1389SOL     OW 5608   3.149   3.410   2.368  0.7506 -0.0783 -0.2295
 1389SOL    HW2 5609   3.133   3.440   2.457 -1.9733  2.2044 -1.3948
 1389SOL    HW3 5610   3.214   3.472   2.333  0.5309  0.0809 -0.3584
 1389SOL    MW4 5611   3.156   3.422   2.375  0.3624  0.2439 -0.3998
 1390SOL     OW 5612   3.344   3.567   2.263  0.3277 -0.1011 -0.5706
 1390SOL    HW2 5613   3.430   3.525   2.272 -0.4493 -1.8385 -1.0964
 1390SOL    HW3 5614   3.333   3.579   2.169  0.9962  2.3117 -0.3810
 1390SOL    MW4 5615   3.354   3.563   2.252  0.3135 -0.0122 -0.6151
 1391SOL     OW 5616   3.355   3.842   2.398  0.2358 -0.0201 -0.0483
 1391SOL    HW2 5617   3.442   3.874   2.374 -0.4184  0.4686 -1.8200
 1391SOL    HW3 5618   3.358   3.748   2.380  1.0896 -0.4323  2.0292
 1391SOL    MW4 5619   3.367   3.834   2.393  0.2623 -0.0100 -0.0079
 1392SOL     OW 5620   3.166   3.958   2.233 -0.2351  0.3351  0.2447
 1392SOL    HW2 5621   3.246   3.922   2.270 -0.3385 -0.1262  0.0224
 1392SOL    HW3 5622   3.095   3.911   2.277 -0.3426 -0.9610 -1.2679
 1392SOL    MW4 5623   3.167   3.947   2.243 -0.2630  0.1030  0.0157
 1393SOL     OW 5624   3.149   4.213   2.368  0.4118  0.0372  0.2322
 1393SOL    HW2 5625   3.227   4.262   2.340  0.0224  0.4149 -0.1974
 1393SOL    HW3 5626   3.156   4.129   2.323 -0.2784  0.6931 -1.1203
 1393SOL    MW4 5627   3.160   4.209   2.358  0.2694  0.1740 -0.0031
 1394SOL     OW 5628   3.383   4.375   2.316  0.1007 -0.4417  0.0880
 1394SOL    HW2 5629   3.386   4.467   2.344  0.2561 -0.4915  0.2317
 1394SOL    HW3 5630   3.350   4.379   2.226  1.1238 -0.1599 -0.2847
 1394SOL    MW4 5631   3.379   4.388   2.308  0.2563 -0.4110  0.0577
 1395SOL     OW 5632   3.822   4.624   2.392  0.1642  0.5418  0.0030
 1395SOL    HW2 5633   3.818   4.631   2.488 -0.1359  1.0291 -0.0446
 1395SOL    HW3 5634   3.905   4.665   2.369  0.7679 -0.5789  0.1453
 1395SOL    MW4 5635   3.832   4.630   2.402  0.2043  0.4582  0.0157
 1396SOL     OW 5636   3.585   0.064   2.268  0.3944 -0.2605 -0.3785
 1396SOL    HW2 5637   3.572   0.156   2.289 -1.7169 -0.4470 -0.7219
 1396SOL    HW3 5638   3.670   0.042   2.305  0.5162  1.5949  0.4811
 1396SOL    MW4 5639   3.594   0.073   2.275  0.1318 -0.0403 -0.3104
 1397SOL     OW 5640   3.584   0.326   2.361 -0.6109  0.5782 -0.1541
 1397SOL    HW2 5641   3.602   0.325   2.455  0.7029 -2.8432 -0.3746
 1397SOL    HW3 5642   3.654   0.379   2.323  0.0291  0.2720  0.5956
 1397SOL    MW4 5643   3.595   0.333   2.368 -0.3531  0.0864 -0.0842
 1398SOL     OW 5644   3.807   0.458   2.265 -0.0321  0.2631 -0.3957
 1398SOL    HW2 5645   3.793   0.549   2.290 -0.8129  0.2658 -0.8308
 1398SOL    HW3 5646   3.816   0.460   2.169 -2.2002 -0.3595 -0.6464
 1398SOL    MW4 5647   3.806   0.471   2.255 -0.4210  0.1813 -0.4861
 1399SOL     OW 5648   3.790   0.721   2.332  0.2160  0.2310  0.1247
 1399SOL    HW2 5649   3.796   0.735   2.427 -0.3577  0.6686  0.1044
 1399SOL    HW3 5650   3.873   0.753   2.298 -0.2780  1.7372  0.2996
 1399SOL    MW4 5651   3.801   0.727   2.340  0.0751  0.4874  0.1447
 1400SOL     OW 5652   3.591   0.898   2.280  0.2656 -0.7908 -0.5025
 1400SOL    HW2 5653   3.658   0.832   2.294 -0.6155 -1.7731 -0.8492
 1400SOL    HW3 5654   3.580   0.903   2.185 -1.6641 -2.2019 -0.3724
 1400SOL    MW4 5655   3.598   0.890   2.270 -0.1051 -1.1066 -0.5310
 1401SOL     OW 5656   3.574   1.150   2.384 -0.1385  0.3125 -0.5700
 1401SOL    HW2 5657   3.594   1.127   2.474 -0.5117  1.0925 -0.2865
 1401SOL    HW3 5658   3.584   1.068   2.335 -3.0243 -0.8339  0.6612
 1401SOL    MW4 5659   3.578   1.136   2.389 -0.5684  0.2643 -0.3700
 1402SOL     OW 5660   3.835   1.244   2.301 -0.0059 -0.2584 -0.3044
 1402SOL    HW2 5661   3.840   1.336   2.325  0.5818 -0.1857 -0.6956
 1402SOL    HW3 5662   3.747   1.217   2.328  0.0415  0.2529  0.3797
 1402SOL    MW4 5663   3.824   1.252   2.308  0.0780 -0.1812 -0.2658
 1403SOL     OW 5664   3.826   1.528   2.346  0.0573  0.4341  0.2582
 1403SOL    HW2 5665   3.827   1.532   2.442  1.6348  0.6423  0.2455
 1403SOL    HW3 5666   3.741   1.564   2.322  0.0316  1.3041  1.5543
 1403SOL    MW4 5667   3.815   1.534   2.356  0.2620  0.5763  0.4277
 1404SOL     OW 5668   3.569   1.637   2.297 -0.2831  0.2401  0.0688
 1404SOL    HW2 5669   3.492   1.593   2.334  0.7849 -0.8501  1.0577
 1404SOL    HW3 5670   3.552   1.638   2.202 -1.2436 -0.5218  0.2153
 1404SOL    MW4 5671   3.556   1.631   2.289 -0.2687 -0.0042  0.2184
 1405SOL     OW 5672   3.602   1.905   2.391 -0.2733 -0.2596 -0.3280
 1405SOL    HW2 5673   3.687   1.936   2.358 -0.3832 -0.4669 -0.8107
 1405SOL    HW3 5674   3.593   1.816   2.355 -1.1674  0.1506 -1.1484
 1405SOL    MW4 5675   3.612   1.897   2.382 -0.4060 -0.2329 -0.5000
 1406SOL     OW 5676   3.832   2.015   2.282 -0.2516 -0.3203  0.0610
 1406SOL    HW2 5677   3.925   2.013   2.307 -0.4659 -1.1914  0.8232
 1406SOL    HW3 5678   3.833   2.041   2.190  0.7965 -1.0267 -0.1393
 1406SOL    MW4 5679   3.845   2.018   2.273 -0.1416 -0.5283  0.1349
 1407SOL     OW 5680   3.833   2.285   2.356  0.1633 -0.2536 -0.0183
 1407SOL    HW2 5681   3.756   2.337   2.333 -1.5860 -2.3422  1.0011
 1407SOL    HW3 5682   3.817   2.200   2.315  1.1525 -1.2200  1.5773
 1407SOL    MW4 5683   3.821   2.281   2.348  0.0627 -0.6566  0.3266
 1408SOL     OW 5684   3.640   2.434   2.249 -0.2827 -0.1645  0.0736
 1408SOL    HW2 5685   3.560   2.402   2.290 -0.4992  0.0510 -0.1771
 1408SOL    HW3 5686   3.628   2.417   2.155  0.1300 -0.4890  0.0761
 1408SOL    MW4 5687   3.628   2.428   2.242 -0.2570 -0.1788  0.0410
 1409SOL     OW 5688   3.643   2.696   2.345  0.4168  0.1882  0.4717
 1409SOL    HW2 5689   3.664   2.620   2.291  1.1201  1.3307 -0.8599
 1409SOL    HW3 5690   3.565   2.734   2.304  0.5732  0.6903  0.6348
 1409SOL    MW4 5691   3.635   2.691   2.332  0.5305  0.4051  0.3176
 1410SOL     OW 5692   3.841   2.882   2.260  0.2561  0.0203 -0.3277
 1410SOL    HW2 5693   3.838   2.969   2.299  1.1007 -1.2401  2.7503
 1410SOL    HW3 5694   3.774   2.832   2.307  0.8002 -1.3698 -0.9846
 1410SOL    MW4 5695   3.832   2.887   2.272  0.4392 -0.3290 -0.0086
 1411SOL     OW 5696   3.790   3.127   2.377  0.0692 -0.2607  0.3932
 1411SOL    HW2 5697   3.789   3.134   2.473 -1.4788  0.3879  0.3470
 1411SOL    HW3 5698   3.865   3.180   2.350  0.2683 -0.1120  1.2220
 1411SOL    MW4 5699   3.800   3.135   2.386 -0.1085 -0.1554  0.4964
 1412SOL     OW 5700   3.560   3.214   2.254 -0.3539 -0.2257  0.1567
 1412SOL    HW2 5701   3.568   3.305   2.281  1.1008 -0.8510  1.9609
 1412SOL    HW3 5702   3.635   3.170   2.295  0.3646 -1.7769 -2.6924
 1412SOL    MW4 5703   3.571   3.220   2.263 -0.0672 -0.5128  0.0188
 1413SOL     OW 5704   3.595   3.476   2.326  0.4859  0.0821 -0.4000
 1413SOL    HW2 5705   3.591   3.478   2.422  0.7378 -1.6364 -0.3393
 1413SOL    HW3 5706   3.679   3.515   2.305  0.9662 -0.6525  0.1358
 1413SOL    MW4 5707   3.605   3.482   2.336  0.5822 -0.2415 -0.3216
 1414SOL     OW 5708   3.839   3.602   2.276  0.8042 -1.1286  0.0774
 1414SOL    HW2 5709   3.839   3.696   2.289 -1.5824 -1.2337  0.9478
 1414SOL    HW3 5710   3.853   3.591   2.182  0.9357  0.0839 -0.0474
 1414SOL    MW4 5711   3.841   3.613   2.265  0.5066 -0.9828  0.1757
 1415SOL     OW 5712   3.833   3.855   2.362  0.2365 -0.3365  0.4451
 1415SOL    HW2 5713   3.830   3.866   2.457 -0.1928 -0.3962  0.4435
 1415SOL    HW3 5714   3.911   3.902   2.334 -0.4963  1.0247  0.6540
 1415SOL    MW4 5715   3.843   3.862   2.371  0.0830 -0.1647  0.4723
 1416SOL     OW 5716   3.578   3.946   2.306  0.6764 -0.1654 -0.3871
 1416SOL    HW2 5717   3.586   4.038   2.329  0.9350 -0.8122  2.3378
 1416SOL    HW3 5718   3.666   3.910   2.321 -0.2148 -1.5140  1.9745
 1416SOL    MW4 5719   3.590   3.953   2.311  0.5927 -0.4287  0.2840
 1417SOL     OW 5720   3.620   4.220   2.348  0.5378 -0.0371 -0.1449
 1417SOL    HW2 5721   3.692   4.275   2.320  0.2612  0.6950  0.5610
 1417SOL    HW3 5722   3.542   4.274   2.335  0.2079 -0.4762 -0.0039
 1417SOL    MW4 5723   3.619   4.234   2.343  0.4580  0.0019 -0.0329
 1418SOL     OW 5724   3.853   4.378   2.305  0.4931 -0.7648  0.5697
 1418SOL    HW2 5725   3.930   4.338   2.345  0.4875 -1.1006  0.2462
 1418SOL    HW3 5726   3.848   4.465   2.344  0.1818 -1.2819  1.7126
 1418SOL    MW4 5727   3.862   4.384   2.316  0.4513 -0.8774  0.6781
 1419SOL     OW 5728   4.270   4.626   2.381  0.2178 -0.1065  0.0620
 1419SOL    HW2 5729   4.281   4.633   2.476  0.3072  0.9320 -0.0174
 1419SOL    HW3 5730   4.351   4.662   2.345 -0.2842  0.5542 -0.4195
 1419SOL    MW4 5731   4.282   4.632   2.389  0.1636  0.1183 -0.0119
 1420SOL     OW 5732   4.042   0.064   2.307  0.5049 -0.2287  0.5343
 1420SOL    HW2 5733   4.045   0.159   2.316 -0.2882  0.0569 -1.8498
 1420SOL    HW3 5734   4.132   0.035   2.323  0.8711  0.9819  0.6734
 1420SOL    MW4 5735   4.054   0.073   2.310  0.4487 -0.0313  0.2382
 1421SOL     OW 5736   4.045   0.346   2.347  0.4691  0.3134  0.2797
 1421SOL    HW2 5737   4.113   0.396   2.302  0.1935 -0.6949 -1.2732
 1421SOL    HW3 5738   3.963   0.391   2.324  0.2390 -0.7067 -0.9681
 1421SOL    MW4 5739   4.043   0.359   2.338  0.4029  0.0457 -0.0896
 1422SOL     OW 5740   4.237   0.509   2.240 -0.5793 -0.1796  0.2626
 1422SOL    HW2 5741   4.264   0.591   2.282  1.8605 -0.4192 -0.7443
 1422SOL    HW3 5742   4.303   0.446   2.268 -1.4329 -1.3838 -0.4171
 1422SOL    MW4 5743   4.249   0.512   2.249 -0.3700 -0.3700  0.0401
 1423SOL     OW 5744   4.285   0.755   2.376  0.4604  0.1260  0.6359
 1423SOL    HW2 5745   4.202   0.796   2.352  0.1656 -0.5795  0.4432
 1423SOL    HW3 5746   4.352   0.816   2.345 -0.0086  1.6106  2.4572
 1423SOL    MW4 5747   4.283   0.768   2.369  0.3595  0.2288  0.8512
 1424SOL     OW 5748   4.036   0.864   2.281  0.1920  0.4687  0.5805
 1424SOL    HW2 5749   4.041   0.946   2.330  0.2267  0.3243  0.8196
 1424SOL    HW3 5750   4.064   0.887   2.192  1.4970  0.4454  0.9687
 1424SOL    MW4 5751   4.041   0.878   2.276  0.3691  0.4466  0.6633
 1425SOL     OW 5752   4.094   1.138   2.389 -0.2227  0.3292 -0.1599
 1425SOL    HW2 5753   4.079   1.149   2.482  0.1940  1.1198 -0.1781
 1425SOL    HW3 5754   4.009   1.155   2.348 -0.3289  0.3042  0.0541
 1425SOL    MW4 5755   4.081   1.142   2.396 -0.1812  0.4301 -0.1345
 1426SOL     OW 5756   4.293   1.308   2.269  0.1556  0.1774 -0.1435
 1426SOL    HW2 5757   4.221   1.258   2.307  1.0812 -0.6859  0.5181
 1426SOL    HW3 5758   4.372   1.265   2.303  0.9776  1.7890  0.0392
 1426SOL    MW4 5759   4.294   1.296   2.278  0.3862  0.2762 -0.0322
 1427SOL     OW 5760   4.248   1.571   2.395  0.1426  0.3848 -0.2104
 1427SOL    HW2 5761   4.266   1.483   2.362 -0.0469  0.3617 -0.2546
 1427SOL    HW3 5762   4.325   1.623   2.371  0.5804  0.0605  0.4529
 1427SOL    MW4 5763   4.260   1.566   2.388  0.1755  0.3389 -0.1285
 1428SOL     OW 5764   4.048   1.673   2.250  0.5708 -0.0423  0.1799
 1428SOL    HW2 5765   4.118   1.623   2.292  0.4478  0.1001  0.5537
 1428SOL    HW3 5766   3.968   1.643   2.293  0.3083 -0.8124 -0.8182
 1428SOL    MW4 5767   4.046   1.662   2.261  0.5198 -0.1251  0.0978
 1429SOL     OW 5768   4.094   1.942   2.360 -0.1445  0.2671 -0.0207
 1429SOL    HW2 5769   4.083   1.938   2.455  1.1729 -0.7552  0.0948
 1429SOL    HW3 5770   4.074   1.854   2.329 -0.5313  0.5849 -0.6849
 1429SOL    MW4 5771   4.090   1.930   2.368 -0.0219  0.1742 -0.0930
 1430SOL     OW 5772   4.317   2.067   2.261  0.1614 -0.1209 -0.0765
 1430SOL    HW2 5773   4.297   2.158   2.284 -2.1970 -0.4858 -0.5836
 1430SOL    HW3 5774   4.248   2.016   2.302  0.9480 -1.6153 -0.5838
 1430SOL    MW4 5775   4.305   2.073   2.269 -0.0463 -0.3662 -0.2105
 1431SOL     OW 5776   4.269   2.334   2.342  0.1847 -0.0872 -0.0656
 1431SOL    HW2 5777   4.198   2.379   2.296  0.8224  0.6283 -0.3633
 1431SOL    HW3 5778   4.349   2.367   2.301  0.7326 -0.1293  0.9481
 1431SOL    MW4 5779   4.271   2.344   2.330  0.3414  0.0017  0.0288
 1432SOL     OW 5780   4.030   2.438   2.267  0.2707  0.4465 -0.3075
 1432SOL    HW2 5781   4.001   2.528   2.282 -0.2078  0.1429  0.6004
 1432SOL    HW3 5782   3.974   2.385   2.323  1.8967 -0.2492  0.7038
 1432SOL    MW4 5783   4.019   2.443   2.276  0.4220  0.3145 -0.0539
 1433SOL     OW 5784   4.040   2.720   2.325 -0.0489  0.0295 -0.1661
 1433SOL    HW2 5785   4.036   2.725   2.421  0.2573 -0.4698 -0.1256
 1433SOL    HW3 5786   3.968   2.775   2.295  0.0225  0.4076  0.3486
 1433SOL    MW4 5787   4.030   2.728   2.334  0.0014  0.0134 -0.0927
 1434SOL     OW 5788   4.294   2.842   2.243 -0.1691  0.0782  0.2534
 1434SOL    HW2 5789   4.223   2.788   2.278 -0.4453  1.0912  1.2850
 1434SOL    HW3 5790   4.374   2.796   2.269 -0.4340 -1.4598 -1.5523
 1434SOL    MW4 5791   4.295   2.828   2.251 -0.2413  0.0088  0.1514
 1435SOL     OW 5792   4.262   3.069   2.390 -0.0282  0.3818 -0.0053
 1435SOL    HW2 5793   4.286   2.989   2.344  0.8771 -0.3074  1.6519
 1435SOL    HW3 5794   4.318   3.137   2.351  0.3418 -0.0861 -0.2971
 1435SOL    MW4 5795   4.272   3.067   2.379  0.1397  0.2289  0.1750
 1436SOL     OW 5796   4.038   3.209   2.280  0.4124 -0.2028 -0.2524
 1436SOL    HW2 5797   4.053   3.298   2.311  0.6496 -0.4301  0.2834
 1436SOL    HW3 5798   4.100   3.155   2.328 -0.3507 -0.7840  0.1050
 1436SOL    MW4 5799   4.048   3.214   2.290  0.3428 -0.3095 -0.1347
 1437SOL     OW 5800   4.082   3.463   2.364 -0.2366  0.3416 -0.0254
 1437SOL    HW2 5801   4.161   3.511   2.342 -0.2867  0.2229 -0.4636
 1437SOL    HW3 5802   4.010   3.522   2.339 -0.2983  0.0376 -0.5696
 1437SOL    MW4 5803   4.083   3.478   2.358 -0.2518  0.2859 -0.1550
 1438SOL     OW 5804   4.297   3.605   2.279 -0.5302 -0.0208 -0.2304
 1438SOL    HW2 5805   4.298   3.689   2.323  1.2667  0.1341 -0.5049
 1438SOL    HW3 5806   4.305   3.626   2.186  1.2769 -0.4958 -0.2184
 1438SOL    MW4 5807   4.298   3.619   2.272 -0.0548 -0.0629 -0.2649
 1439SOL     OW 5808   4.288   3.860   2.379  0.1335  0.3670 -0.6407
 1439SOL    HW2 5809   4.298   3.880   2.473  1.8806 -0.4641 -0.6485
 1439SOL    HW3 5810   4.330   3.934   2.335  0.6567  0.0025 -0.7506
 1439SOL    MW4 5811   4.295   3.873   2.386  0.4330  0.2091 -0.6561
 1440SOL     OW 5812   4.067   4.008   2.286 -0.1299 -0.1830  0.2322
 1440SOL    HW2 5813   4.142   3.959   2.321  0.1417  1.0566  1.3977
 1440SOL    HW3 5814   4.085   4.013   2.192  0.2011 -1.6879  0.2036
 1440SOL    MW4 5815   4.079   4.002   2.278 -0.0501 -0.2179  0.3822
 1441SOL     OW 5816   4.075   4.264   2.399 -0.2560 -0.2293 -0.0995
 1441SOL    HW2 5817   4.141   4.308   2.345  0.9522 -0.8197  0.8471
 1441SOL    HW3 5818   4.069   4.176   2.362 -1.6981  0.3179 -1.1765
 1441SOL    MW4 5819   4.083   4.258   2.387 -0.2866 -0.2346 -0.1168
 1442SOL     OW 5820   4.259   4.398   2.235  0.1992  0.3968  0.2609
 1442SOL    HW2 5821   4.257   4.477   2.289  1.5885  0.4880  0.1829
 1442SOL    HW3 5822   4.335   4.350   2.265 -0.1126 -0.4786 -0.3231
 1442SOL    MW4 5823   4.269   4.402   2.246  0.3414  0.2937  0.1736
 1443SOL     OW 5824   0.222   4.656   2.629 -0.0684 -0.2213  0.3116
 1443SOL    HW2 5825   0.220   4.579   2.686  1.6302  0.0497  0.7712
 1443SOL    HW3 5826   0.153   4.713   2.662  0.7714 -0.1621  1.9841
 1443SOL    MW4 5827   0.213   4.653   2.641  0.2665 -0.1779  0.5932
 1444SOL     OW 5828   0.001   0.111   2.718 -0.2567 -0.3442 -0.6289
 1444SOL    HW2 5829   0.016   0.101   2.812 -0.5398 -0.9992 -0.6509
 1444SOL    HW3 5830  -0.008   0.205   2.705  0.6706 -0.1885 -0.1350
 1444SOL    MW4 5831   0.002   0.122   2.729 -0.1717 -0.4101 -0.5667
 1445SOL     OW 5832   4.485   0.386   2.641 -0.4551 -0.5491 -0.1280
 1445SOL    HW2 5833   4.574   0.415   2.660 -0.4171 -0.4060 -0.5136
 1445SOL    HW3 5834   4.485   0.370   2.546 -0.3808 -2.1167  0.1291
 1445SOL    MW4 5835   4.497   0.388   2.631 -0.4406 -0.7371 -0.1450
 1446SOL     OW 5836   0.231   0.507   2.762  0.2644 -0.4413  0.4632
 1446SOL    HW2 5837   0.223   0.487   2.855  1.0931 -0.0411  0.6190
 1446SOL    HW3 5838   0.317   0.474   2.738 -0.0159 -0.6981 -0.2029
 1446SOL    MW4 5839   0.241   0.500   2.771  0.3367 -0.4224  0.3958
 1447SOL     OW 5840   0.231   0.767   2.637  0.6792  0.0504  0.1619
 1447SOL    HW2 5841   0.307   0.809   2.678  2.0060 -1.3944 -0.7039
 1447SOL    HW3 5842   0.219   0.687   2.688 -0.9211  0.7661  0.9226
 1447SOL    MW4 5843   0.240   0.762   2.649  0.6431 -0.0458  0.1481
 1448SOL     OW 5844   0.009   0.910   2.735 -0.1508 -0.1699  0.2721
 1448SOL    HW2 5845  -0.071   0.868   2.703  0.0706 -0.5433  0.2026
 1448SOL    HW3 5846   0.080   0.855   2.701  0.1472  0.3612  0.0356
 1448SOL    MW4 5847   0.008   0.897   2.726 -0.0822 -0.1491  0.2317
 1449SOL     OW 5848   4.485   1.169   2.640  0.1447 -0.1609 -0.1513
 1449SOL    HW2 5849   4.557   1.216   2.681  0.8666  0.0226 -1.6038
 1449SOL    HW3 5850   4.493   1.079   2.671  0.2029  0.1426  0.7255
 1449SOL    MW4 5851   4.495   1.164   2.650  0.2475 -0.0967 -0.2275
 1450SOL     OW 5852   0.225   1.261   2.776  0.2023  0.1616 -0.5723
 1450SOL    HW2 5853   0.309   1.217   2.766  0.1234  0.2560 -1.6110
 1450SOL    HW3 5854   0.239   1.349   2.742 -0.3201  0.1767 -0.7477
 1450SOL    MW4 5855   0.238   1.267   2.770  0.1230  0.1761 -0.7324
 1451SOL     OW 5856   0.242   1.515   2.662 -0.0937 -0.0293 -0.0211
 1451SOL    HW2 5857   0.306   1.567   2.710  0.2505  0.6313 -1.1915
 1451SOL    HW3 5858   0.158   1.539   2.701  0.1718  0.5778  0.1785
 1451SOL    MW4 5859   0.239   1.525   2.674 -0.0133  0.1379 -0.1490
 1452SOL     OW 5860   4.484   1.601   2.752  0.0102 -0.4235  0.0519
 1452SOL    HW2 5861   4.499   1.618   2.845 -1.9133  0.1065  0.2773
 1452SOL    HW3 5862   4.494   1.686   2.709  0.5070 -0.5942 -0.1708
 1452SOL    MW4 5863   4.487   1.614   2.758 -0.1781 -0.3762  0.0522
 1453SOL     OW 5864   0.017   1.864   2.634 -0.5295  0.2604  0.5894
 1453SOL    HW2 5865   0.097   1.903   2.667  0.2174 -0.8738  0.1529
 1453SOL    HW3 5866   0.022   1.875   2.539 -1.0511  0.4886  0.5863
 1453SOL    MW4 5867   0.028   1.870   2.626 -0.4997  0.1408  0.5312
 1454SOL     OW 5868   0.225   2.001   2.737  0.1868 -0.4884 -0.0502
 1454SOL    HW2 5869   0.308   1.966   2.704  1.0743  0.1156  1.4843
 1454SOL    HW3 5870   0.216   2.085   2.692  0.8007 -0.1960  0.3741
 1454SOL    MW4 5871   0.235   2.008   2.727  0.3849 -0.3700  0.2084
 1455SOL     OW 5872   0.243   2.267   2.640  0.5381 -0.3583  0.0542
 1455SOL    HW2 5873   0.322   2.317   2.660  0.5593  0.2670 -1.5277
 1455SOL    HW3 5874   0.172   2.316   2.681  0.7401  0.1755 -0.2323
 1455SOL    MW4 5875   0.244   2.280   2.648  0.5676 -0.2053 -0.1924
 1456SOL     OW 5876   4.485   2.395   2.715  0.1272 -0.3495  0.0305
 1456SOL    HW2 5877   4.476   2.406   2.809 -0.8979  0.0534 -0.1038
 1456SOL    HW3 5878   4.404   2.353   2.688  0.2127 -0.0397 -0.7352
 1456SOL    MW4 5879   4.473   2.391   2.724  0.0033 -0.2556 -0.0885
 1457SOL     OW 5880   0.038   2.684   2.656  0.2376  0.1162 -0.3511
 1457SOL    HW2 5881  -0.044   2.725   2.684 -0.0179  0.0699 -1.0141
 1457SOL    HW3 5882   0.022   2.590   2.667 -0.5229 -0.0144 -2.3451
 1457SOL    MW4 5883   0.025   2.677   2.661  0.1035  0.0930 -0.7017
 1458SOL     OW 5884   0.247   2.789   2.772 -0.0874  0.6750  0.4902
 1458SOL    HW2 5885   0.249   2.881   2.747 -0.4047  0.7808  0.8543
 1458SOL    HW3 5886   0.163   2.757   2.739  0.3304  0.3379 -0.2600
 1458SOL    MW4 5887   0.236   2.797   2.765 -0.0741  0.6444  0.4394
 1459SOL     OW 5888   0.215   3.058   2.654 -0.0635  0.2654 -0.2666
 1459SOL    HW2 5889   0.279   3.117   2.693  0.2541 -0.0131 -0.3594
 1459SOL    HW3 5890   0.224   3.071   2.559 -1.1287  1.2517 -0.2428
 1459SOL    MW4 5891   0.224   3.067   2.646 -0.1622  0.3586 -0.2754
 1460SOL     OW 5892   0.003   3.230   2.738  0.2769 -0.1571 -0.1501
 1460SOL    HW2 5893  -0.081   3.193   2.709  0.4034 -0.6176  0.0611
 1460SOL    HW3 5894   0.068   3.165   2.712  0.5594  0.1584 -0.2327
 1460SOL    MW4 5895   0.000   3.217   2.731  0.3309 -0.1764 -0.1333
 1461SOL     OW 5896   0.010   3.487   2.661 -0.0726  0.2446 -0.0756
 1461SOL    HW2 5897   0.088   3.528   2.700 -0.4994  0.0294  1.0219
 1461SOL    HW3 5898   0.005   3.401   2.703 -1.8290  0.8871  1.0899
 1461SOL    MW4 5899   0.020   3.482   2.672 -0.3605  0.3009  0.2229
 1462SOL     OW 5900   0.216   3.621   2.767  0.1453  0.0082  0.1580
 1462SOL    HW2 5901   0.243   3.629   2.859  0.7925 -0.8163  0.0423
 1462SOL    HW3 5902   0.282   3.565   2.727  0.0492  0.6132 -0.8928
 1462SOL    MW4 5903   0.229   3.615   2.774  0.2180 -0.0210  0.0038
 1463SOL     OW 5904   0.235   3.880   2.656  0.0551  0.0023  0.1875
 1463SOL    HW2 5905   0.250   3.788   2.677 -0.1119 -0.0839 -0.0692
 1463SOL    HW3 5906   0.229   3.882   2.560  0.2299  0.3051  0.1828
 1463SOL    MW4 5907   0.236   3.868   2.646  0.0562  0.0310  0.1528
 1464SOL     OW 5908   0.033   4.027   2.760 -0.2425  0.4545  0.1038
 1464SOL    HW2 5909   0.036   4.101   2.700  0.2610  0.9881  0.7753
 1464SOL    HW3 5910   0.100   3.967   2.728  1.0482  1.4040  0.9774
 1464SOL    MW4 5911   0.042   4.029   2.748 -0.0058  0.6504  0.3078
 1465SOL     OW 5912   0.004   4.281   2.638 -0.4577 -0.1922 -0.3905
 1465SOL    HW2 5913  -0.071   4.296   2.696 -1.8242  1.5464 -2.5022
 1465SOL    HW3 5914   0.076   4.329   2.678 -1.0536 -0.0222  0.4960
 1465SOL    MW4 5915   0.003   4.289   2.651 -0.7167  0.0596 -0.5522
 1466SOL     OW 5916   0.217   4.418   2.776 -0.4488  0.0419  0.3220
 1466SOL    HW2 5917   0.224   4.394   2.868  1.5329  0.3577  0.2652
 1466SOL    HW3 5918   0.293   4.379   2.734 -0.1713  1.6815 -0.7755
 1466SOL    MW4 5919   0.228   4.410   2.782 -0.1507  0.3004  0.1698
 1467SOL     OW 5920   0.690   0.000   2.635  0.3967  0.3236  0.3600
 1467SOL    HW2 5921   0.772   0.024   2.678  0.4649  0.1718  0.3141
 1467SOL    HW3 5922   0.621   0.036   2.692  0.5004  0.8024  0.1924
 1467SOL    MW4 5923   0.691   0.008   2.648  0.4194  0.3667  0.3316
 1468SOL     OW 5924   0.449   0.103   2.747 -0.2423  0.6511 -0.1530
 1468SOL    HW2 5925   0.444   0.097   2.842 -0.1824 -1.8486 -0.2943
 1468SOL    HW3 5926   0.362   0.076   2.716  0.1339  0.2084 -0.8468
 1468SOL    MW4 5927   0.437   0.099   2.755 -0.1848  0.2629 -0.2632
 1469SOL     OW 5928   0.459   0.383   2.645  0.0959  0.2098 -0.4476
 1469SOL    HW2 5929   0.541   0.416   2.680  1.5725 -1.9130 -1.7846
 1469SOL    HW3 5930   0.453   0.294   2.678 -1.0295 -0.0884 -1.4053
 1469SOL    MW4 5931   0.469   0.376   2.654  0.1423 -0.1096 -0.7505
 1470SOL     OW 5932   0.698   0.488   2.744 -0.1584 -0.2020 -0.2338
 1470SOL    HW2 5933   0.714   0.498   2.838  0.5104  0.6687 -0.4214
 1470SOL    HW3 5934   0.779   0.451   2.710 -0.4115 -0.5457 -0.4609
 1470SOL    MW4 5935   0.711   0.485   2.752 -0.1035 -0.1325 -0.2885
 1471SOL     OW 5936   0.705   0.755   2.652 -0.1374 -0.0703 -0.0614
 1471SOL    HW2 5937   0.775   0.782   2.712 -0.3784 -0.6549  0.4895
 1471SOL    HW3 5938   0.674   0.672   2.688 -0.0701 -0.5873 -1.1727
 1471SOL    MW4 5939   0.710   0.748   2.665 -0.1603 -0.2156 -0.1354
 1472SOL     OW 5940   0.473   0.856   2.782 -0.2556  0.2757 -0.1257
 1472SOL    HW2 5941   0.485   0.950   2.769  0.4015  0.2490  0.2741
 1472SOL    HW3 5942   0.534   0.815   2.721 -0.1428  0.1164  0.0907
 1472SOL    MW4 5943   0.482   0.863   2.772 -0.1540  0.2512 -0.0446
 1473SOL     OW 5944   0.457   1.130   2.682 -0.0421  0.2494 -0.3020
 1473SOL    HW2 5945   0.549   1.154   2.694  0.6682 -1.9346 -1.2014
 1473SOL    HW3 5946   0.445   1.126   2.587 -1.2309  1.0996 -0.1982
 1473SOL    MW4 5947   0.468   1.133   2.671 -0.1053  0.0736 -0.4070
 1474SOL     OW 5948   0.694   1.253   2.741  0.0802 -0.3435  0.0519
 1474SOL    HW2 5949   0.697   1.242   2.836 -1.3646  0.2970  0.1895
 1474SOL    HW3 5950   0.769   1.203   2.709  1.5953  0.8652  1.6498
 1474SOL    MW4 5951   0.704   1.245   2.750  0.0895 -0.0995  0.2809
 1475SOL     OW 5952   0.698   1.533   2.680  0.2324  0.2768 -0.5157
 1475SOL    HW2 5953   0.618   1.578   2.705 -0.0442 -0.0257 -0.8516
 1475SOL    HW3 5954   0.689   1.445   2.715  1.4054  0.8886  1.3991
 1475SOL    MW4 5955   0.687   1.527   2.688  0.3507  0.3176 -0.3076
 1476SOL     OW 5956   0.472   1.657   2.757 -0.0251 -0.5844  0.0069
 1476SOL    HW2 5957   0.490   1.674   2.849  0.5188 -0.9018 -0.0415
 1476SOL    HW3 5958   0.454   1.744   2.720  0.9662 -0.3147  0.1465
 1476SOL    MW4 5959   0.472   1.671   2.764  0.1775 -0.5907  0.0188
 1477SOL     OW 5960   0.460   1.901   2.640  0.3777 -0.1750 -0.0387
 1477SOL    HW2 5961   0.532   1.962   2.657  0.3930 -0.4263  0.7945
 1477SOL    HW3 5962   0.449   1.904   2.545 -1.1496  2.8465  0.1952
 1477SOL    MW4 5963   0.468   1.909   2.629  0.1782  0.1905  0.1018
 1478SOL     OW 5964   0.671   2.056   2.754  0.3753 -0.0614 -0.0555
 1478SOL    HW2 5965   0.682   2.063   2.849  0.2188 -1.6920  0.0927
 1478SOL    HW3 5966   0.751   2.012   2.724 -0.6282 -1.6871 -0.3741
 1478SOL    MW4 5967   0.683   2.051   2.762  0.2223 -0.4911 -0.0782
 1479SOL     OW 5968   0.667   2.294   2.624  0.0062  0.3866  0.0579
 1479SOL    HW2 5969   0.738   2.352   2.650  0.3599  0.6747 -1.4602
 1479SOL    HW3 5970   0.672   2.220   2.684  1.0438  0.8091  0.4935
 1479SOL    MW4 5971   0.677   2.292   2.635  0.1897  0.4804 -0.0851
 1480SOL     OW 5972   0.453   2.421   2.720 -0.0431 -0.0553  0.1903
 1480SOL    HW2 5973   0.471   2.512   2.699 -1.2483  0.2316  0.3961
 1480SOL    HW3 5974   0.530   2.373   2.687  0.6909  1.0467  0.2814
 1480SOL    MW4 5975   0.466   2.426   2.713 -0.1052  0.1280  0.2291
 1481SOL     OW 5976   0.477   2.683   2.626 -0.1960 -0.2070  0.0031
 1481SOL    HW2 5977   0.539   2.744   2.666 -0.9016  1.5169 -1.4815
 1481SOL    HW3 5978   0.391   2.718   2.648 -0.6250 -1.1198 -0.1922
 1481SOL    MW4 5979   0.474   2.696   2.634 -0.3457 -0.0999 -0.2186
 1482SOL     OW 5980   0.669   2.828   2.738 -0.1030  0.1992 -0.4974
 1482SOL    HW2 5981   0.660   2.827   2.833 -2.6286  2.2732 -0.6684
 1482SOL    HW3 5982   0.670   2.921   2.714 -0.9037 -0.2866 -2.5898
 1482SOL    MW4 5983   0.668   2.840   2.747 -0.5419  0.4089 -0.7958
 1483SOL     OW 5984   0.677   3.100   2.678  0.3753  0.1694  0.1295
 1483SOL    HW2 5985   0.755   3.143   2.712  0.6784 -0.2103 -0.0825
 1483SOL    HW3 5986   0.677   3.122   2.585 -0.4240  1.1642  0.3502
 1483SOL    MW4 5987   0.687   3.109   2.670  0.3098  0.2503  0.1307
 1484SOL     OW 5988   0.433   3.191   2.748  0.1391  0.2084 -0.3415
 1484SOL    HW2 5989   0.417   3.175   2.841  0.3947 -0.3083 -0.3814
 1484SOL    HW3 5990   0.514   3.143   2.729 -0.7253 -0.9839 -1.1757
 1484SOL    MW4 5991   0.441   3.182   2.757  0.0587 -0.0172 -0.4568
 1485SOL     OW 5992   0.400   3.465   2.663 -0.3138 -0.1976 -0.4462
 1485SOL    HW2 5993   0.415   3.375   2.690  1.0260 -0.1336 -0.9442
 1485SOL    HW3 5994   0.407   3.463   2.567  0.1689  0.5079 -0.4317
 1485SOL    MW4 5995   0.403   3.453   2.654 -0.0733 -0.0961 -0.5100
 1486SOL     OW 5996   0.618   3.598   2.709  0.1449 -0.5618  0.2409
 1486SOL    HW2 5997   0.635   3.587   2.803  0.9944  0.7618  0.2668
 1486SOL    HW3 5998   0.544   3.540   2.691 -0.6869 -0.0967  1.9517
 1486SOL    MW4 5999   0.610   3.589   2.719  0.1473 -0.3257  0.4702
 1487SOL     OW 6000   0.657   3.867   2.634  0.3238  0.0024  0.1280
 1487SOL    HW2 6001   0.596   3.913   2.691  0.8866  0.1541  0.6157
 1487SOL    HW3 6002   0.660   3.778   2.669 -1.0780 -0.5290 -1.0644
 1487SOL    MW4 6003   0.650   3.861   2.646  0.2131 -0.0477  0.0350
 1488SOL     OW 6004   0.453   4.008   2.754 -0.3695  0.3476 -0.0209
 1488SOL    HW2 6005   0.445   4.102   2.737 -1.1451  0.2330 -0.3201
 1488SOL    HW3 6006   0.367   3.973   2.732 -0.4215 -0.2745  1.1290
 1488SOL    MW4 6007   0.440   4.016   2.749 -0.4787  0.2508  0.0913
 1489SOL     OW 6008   0.431   4.267   2.675  0.3911  0.4698  0.7074
 1489SOL    HW2 6009   0.512   4.319   2.676  1.0449 -0.5074  0.0830
 1489SOL    HW3 6010   0.406   4.264   2.583 -0.5957  1.1083  0.9471
 1489SOL    MW4 6011   0.439   4.274   2.663  0.3472  0.4253  0.6566
 1490SOL     OW 6012   0.676   4.389   2.739 -0.0295  0.1595 -0.5764
 1490SOL    HW2 6013   0.757   4.348   2.709 -0.0404 -0.0313 -0.3549
 1490SOL    HW3 6014   0.681   4.479   2.709  1.1020  0.6446  0.9863
 1490SOL    MW4 6015   0.687   4.395   2.731  0.1184  0.1984 -0.3412
 1491SOL     OW 6016   1.165   4.653   2.623  0.2927  0.0424 -0.2734
 1491SOL    HW2 6017   1.236   4.694   2.672  1.5233  0.0692 -2.0320
 1491SOL    HW3 6018   1.167   4.561   2.651  2.2153 -0.3554 -1.6367
 1491SOL    MW4 6019   1.174   4.646   2.633  0.7087 -0.0067 -0.6852
 1492SOL     OW 6020   0.934   0.085   2.735 -0.0875  0.3502  0.1925
 1492SOL    HW2 6021   0.955   0.066   2.826  0.0859 -1.4267 -0.1941
 1492SOL    HW3 6022   1.012   0.061   2.686 -0.2813  1.0185 -0.4513
 1492SOL    MW4 6023   0.947   0.080   2.740 -0.0902  0.2039  0.0567
 1493SOL     OW 6024   0.927   0.368   2.658  0.0904 -0.0102  0.5033
 1493SOL    HW2 6025   0.919   0.275   2.680 -0.4835  0.0260  0.4732
 1493SOL    HW3 6026   0.919   0.370   2.563 -0.8474  0.1589  0.5820
 1493SOL    MW4 6027   0.925   0.356   2.648 -0.1091  0.0169  0.5097
 1494SOL     OW 6028   1.161   0.472   2.794 -0.5999 -0.6605  0.5850
 1494SOL    HW2 6029   1.153   0.563   2.765 -0.6969 -0.4045  1.4017
 1494SOL    HW3 6030   1.080   0.430   2.763 -1.1276 -0.1672  1.2659
 1494SOL    MW4 6031   1.149   0.478   2.786 -0.6822 -0.5616  0.7825
 1495SOL     OW 6032   1.123   0.727   2.685 -0.2471 -0.0682  0.7355
 1495SOL    HW2 6033   1.203   0.780   2.685 -0.3099  0.0284  0.9906
 1495SOL    HW3 6034   1.107   0.707   2.593  0.4101 -0.6071  0.7378
 1495SOL    MW4 6035   1.131   0.732   2.673 -0.1687 -0.1266  0.7694
 1496SOL     OW 6036   0.934   0.905   2.797  0.3948  0.0772  0.0107
 1496SOL    HW2 6037   0.935   0.895   2.892  0.0691 -0.4913 -0.0444
 1496SOL    HW3 6038   0.997   0.841   2.765 -1.3401 -1.5328 -0.3104
 1496SOL    MW4 6039   0.942   0.895   2.806  0.1230 -0.2102 -0.0389
 1497SOL     OW 6040   0.925   1.142   2.668 -0.3284 -0.2530  0.2900
 1497SOL    HW2 6041   0.931   1.054   2.704 -1.0322  0.0565  1.1936
 1497SOL    HW3 6042   0.926   1.130   2.573  0.5818 -1.1552  0.4134
 1497SOL    MW4 6043   0.926   1.129   2.660 -0.3011 -0.3312  0.4253
 1498SOL     OW 6044   1.156   1.281   2.749  0.0306  0.2091 -0.0637
 1498SOL    HW2 6045   1.159   1.373   2.724 -1.7935  0.6798  1.3996
 1498SOL    HW3 6046   1.070   1.251   2.719  0.2266 -0.7692  0.3337
 1498SOL    MW4 6047   1.145   1.289   2.741 -0.1841  0.1423  0.1819
 1499SOL     OW 6048   1.164   1.540   2.661  0.7868 -0.3445 -0.1242
 1499SOL    HW2 6049   1.092   1.592   2.696  0.3654  0.0444 -1.5588
 1499SOL    HW3 6050   1.147   1.533   2.567  2.5932 -0.2550 -0.4898
 1499SOL    MW4 6051   1.153   1.546   2.653  0.9694 -0.2815 -0.3617
 1500SOL     OW 6052   0.926   1.669   2.762 -0.4875  0.0984 -0.4563
 1500SOL    HW2 6053   0.919   1.686   2.856  0.9332 -1.4087 -0.0560
 1500SOL    HW3 6054   0.853   1.611   2.743 -0.3502 -0.1859 -0.1257
 1500SOL    MW4 6055   0.916   1.664   2.772 -0.2820 -0.1380 -0.3600
 1501SOL     OW 6056   0.901   1.940   2.644 -0.1693 -0.4943  0.1046
 1501SOL    HW2 6057   0.970   1.989   2.688  0.4083 -0.8524 -0.3898
 1501SOL    HW3 6058   0.911   1.850   2.674 -0.3769 -0.5628 -0.0246
 1501SOL    MW4 6059   0.911   1.935   2.653 -0.1205 -0.5506  0.0224
 1502SOL     OW 6060   1.116   2.064   2.754  0.2626  0.5767 -0.0224
 1502SOL    HW2 6061   1.191   2.020   2.713 -0.4589  0.0082 -0.7349
 1502SOL    HW3 6062   1.116   2.151   2.715  0.4019  0.5006 -0.1932
 1502SOL    MW4 6063   1.126   2.069   2.744  0.1857  0.4916 -0.1390
 1503SOL     OW 6064   1.115   2.321   2.636  0.4911 -0.2875  0.2323
 1503SOL    HW2 6065   1.200   2.351   2.668 -0.2002  1.6456  0.3198
 1503SOL    HW3 6066   1.128   2.309   2.542  1.1592 -1.1076  0.4217
 1503SOL    MW4 6067   1.128   2.324   2.628  0.4880 -0.1407  0.2687
 1504SOL     OW 6068   0.890   2.424   2.762  0.0903 -0.4881 -0.6110
 1504SOL    HW2 6069   0.888   2.509   2.718 -0.8269 -0.5825 -0.7630
 1504SOL    HW3 6070   0.966   2.379   2.724 -0.2798 -0.2956 -1.5925
 1504SOL    MW4 6071   0.900   2.429   2.751 -0.0795 -0.4749 -0.7603
 1505SOL     OW 6072   0.878   2.682   2.635 -0.2302  0.4145  0.3243
 1505SOL    HW2 6073   0.952   2.732   2.671  0.5858 -0.0874 -0.6344
 1505SOL    HW3 6074   0.801   2.727   2.669  0.5100  0.7740  1.5778
 1505SOL    MW4 6075   0.878   2.695   2.644 -0.0249  0.3958  0.3629
 1506SOL     OW 6076   1.106   2.839   2.730  0.0225  0.3951 -0.1517
 1506SOL    HW2 6077   1.099   2.826   2.824 -1.4822 -0.2691 -0.3487
 1506SOL    HW3 6078   1.185   2.791   2.705 -0.4536 -0.7658  0.5280
 1506SOL    MW4 6079   1.116   2.831   2.739 -0.2388  0.1543 -0.0880
 1507SOL     OW 6080   1.148   3.096   2.667  0.0000  0.0000  0.1209
 1507SOL    HW2 6081   1.122   3.007   2.690  0.0000  0.0000  0.1299
 1507SOL    HW3 6082   1.136   3.101   2.572  0.0000  0.0000  0.1206
 1507SOL    MW4 6083   1.143   3.085   2.658  0.0000  0.0000  0.1221
 1508SOL     OW 6084   0.919   3.208   2.765  0.0000  0.0000  0.5475
 1508SOL    HW2 6085   0.903   3.287   2.713  0.0000  0.0000  0.5202
 1508SOL    HW3 6086   1.006   3.179   2.738  0.0000  0.0000  0.5870
 1508SOL    MW4 6087   0.928   3.215   2.755  0.0000  0.0000  0.5488
 1509SOL     OW 6088   0.887   3.462   2.656  0.0000  0.0000  0.5650
 1509SOL    HW2 6089   0.961   3.509   2.697  0.0000  0.0000  0.5590
 1509SOL    HW3 6090   0.810   3.512   2.682  0.0000  0.0000  0.5617
 1509SOL    MW4 6091   0.887   3.475   2.665  0.0000  0.0000  0.5639
 1510SOL     OW 6092   1.102   3.599   2.747  0.0000  0.0000 -0.1029
 1510SOL    HW2 6093   1.101   3.626   2.839  0.0000  0.0000 -0.1026
 1510SOL    HW3 6094   1.100   3.681   2.698  0.0000  0.0000 -0.1012
 1510SOL    MW4 6095   1.102   3.613   2.752  0.0000  0.0000 -0.1028
 1511SOL     OW 6096   1.098   3.851   2.621  0.0000  0.0000 -0.2140
 1511SOL    HW2 6097   1.178   3.889   2.659  0.0000  0.0000 -0.2140
 1511SOL    HW3 6098   1.110   3.859   2.527  0.0000  0.0000 -0.2141
 1511SOL    MW4 6099   1.110   3.857   2.614  0.0000  0.0000 -0.2141
 1512SOL     OW 6100   0.893   4.008   2.740  0.0000  0.0000  0.0097
 1512SOL    HW2 6101   0.957   3.963   2.685  0.0000  0.0000  0.0114
 1512SOL    HW3 6102   0.809   3.969   2.715  0.0000  0.0000  0.0162
 1512SOL    MW4 6103   0.890   3.997   2.730  0.0000  0.0000  0.0105
 1513SOL     OW 6104   0.888   4.266   2.631  0.0000  0.0000  0.0908
 1513SOL    HW2 6105   0.892   4.173   2.656  0.0000  0.0000  0.0907
 1513SOL    HW3 6106   0.884   4.265   2.536  0.0000  0.0000  0.0909
 1513SOL    MW4 6107   0.888   4.254   2.622  0.0000  0.0000  0.0908
 1514SOL     OW 6108   1.144   4.351   2.735  0.0000  0.0000  0.3480
 1514SOL    HW2 6109   1.137   4.378   2.827  0.0000  0.0000  0.3494
 1514SOL    HW3 6110   1.055   4.327   2.710  0.0000  0.0000  0.3574
 1514SOL    MW4 6111   1.131   4.351   2.744  0.0000  0.0000  0.3493
 1515SOL     OW 6112   1.593   4.643   2.607  0.0000  0.0000  0.2621
 1515SOL    HW2 6113   1.588   4.549   2.623  0.0000  0.0000  0.2684
 1515SOL    HW3 6114   1.581   4.652   2.512  0.0000  0.0000  0.2616
 1515SOL    MW4 6115   1.591   4.632   2.596  0.0000  0.0000  0.2630
 1516SOL     OW 6116   1.366   0.135   2.737 -0.0939  0.1054 -0.4130
 1516SOL    HW2 6117   1.361   0.225   2.704  0.7834  0.1075 -0.5487
 1516SOL    HW3 6118   1.451   0.103   2.707 -0.0889 -0.5202  0.2521
 1516SOL    MW4 6119   1.377   0.143   2.729  0.0225  0.0232 -0.3431
 1517SOL     OW 6120   1.368   0.388   2.637  0.3827  0.2510  0.5355
 1517SOL    HW2 6121   1.442   0.427   2.684  0.1020  1.4523  0.0003
 1517SOL    HW3 6122   1.291   0.425   2.679  0.1321  2.2267 -1.5560
 1517SOL    MW4 6123   1.368   0.398   2.649  0.3127  0.6701  0.1888
 1518SOL     OW 6124   1.590   0.502   2.725  0.0518  0.1441  0.2953
 1518SOL    HW2 6125   1.662   0.457   2.682 -0.7597 -1.4225  0.5469
 1518SOL    HW3 6126   1.582   0.585   2.679  0.4277 -0.7105 -1.3435
 1518SOL    MW4 6127   1.598   0.507   2.713 -0.0057 -0.1754  0.1123
 1519SOL     OW 6128   1.579   0.752   2.630  0.4946  0.1022  0.1192
 1519SOL    HW2 6129   1.499   0.788   2.669 -0.9177 -0.6773 -1.9912
 1519SOL    HW3 6130   1.562   0.752   2.536  1.8736 -2.6912 -0.1760
 1519SOL    MW4 6131   1.566   0.756   2.623  0.4903 -0.3692 -0.1984
 1520SOL     OW 6132   1.351   0.863   2.739  0.2022 -0.2266  0.0890
 1520SOL    HW2 6133   1.329   0.869   2.832 -1.2443  0.2438 -0.2569
 1520SOL    HW3 6134   1.349   0.953   2.708  0.0397 -0.4389 -0.5338
 1520SOL    MW4 6135   1.347   0.876   2.747 -0.0100 -0.1925 -0.0389
 1521SOL     OW 6136   1.360   1.116   2.645  0.4901 -0.0393  0.5933
 1521SOL    HW2 6137   1.430   1.161   2.693  0.4220 -1.0748  1.7037
 1521SOL    HW3 6138   1.282   1.169   2.661  0.2562 -0.9022  2.5164
 1521SOL    MW4 6139   1.359   1.129   2.654  0.4503 -0.2898  0.9933
 1522SOL     OW 6140   1.565   1.270   2.783 -0.1706  0.2678 -0.0301
 1522SOL    HW2 6141   1.568   1.277   2.878  0.4262 -0.1572 -0.0159
 1522SOL    HW3 6142   1.649   1.231   2.759  0.1640  1.4225 -0.8263
 1522SOL    MW4 6143   1.576   1.266   2.792 -0.0477  0.3642 -0.1330
 1523SOL     OW 6144   1.590   1.512   2.642  0.0972 -0.8646  0.1490
 1523SOL    HW2 6145   1.589   1.426   2.684 -1.9156 -0.7986  0.2515
 1523SOL    HW3 6146   1.565   1.495   2.551 -2.9937 -0.0793  0.8139
 1523SOL    MW4 6147   1.587   1.498   2.636 -0.5761 -0.7523  0.2503
 1524SOL     OW 6148   1.394   1.685   2.739 -0.0331  0.0689 -0.0506
 1524SOL    HW2 6149   1.465   1.632   2.702 -0.1945  0.6041 -1.1516
 1524SOL    HW3 6150   1.314   1.636   2.719 -0.1543  0.5485 -0.7810
 1524SOL    MW4 6151   1.393   1.672   2.731 -0.0705  0.2028 -0.2921
 1525SOL     OW 6152   1.340   1.945   2.661  0.3275 -0.0016 -0.2281
 1525SOL    HW2 6153   1.366   1.860   2.696  1.0493  0.2338 -0.2031
 1525SOL    HW3 6154   1.337   1.932   2.566  1.1802  0.1583 -0.2743
 1525SOL    MW4 6155   1.343   1.932   2.653  0.5352  0.0507 -0.2310
 1526SOL     OW 6156   1.568   2.089   2.754  0.0408  0.0748  0.5064
 1526SOL    HW2 6157   1.644   2.043   2.719  0.1467  0.7722 -0.1859
 1526SOL    HW3 6158   1.493   2.037   2.725  0.0371  1.4586 -2.0609
 1526SOL    MW4 6159   1.568   2.076   2.746  0.0544  0.3495  0.0763
 1527SOL     OW 6160   1.586   2.343   2.644 -0.6137  0.1617  0.3743
 1527SOL    HW2 6161   1.672   2.382   2.663  0.5242 -0.7528 -2.4920
 1527SOL    HW3 6162   1.587   2.259   2.689  1.3246 -1.2161 -2.0300
 1527SOL    MW4 6163   1.598   2.337   2.652 -0.2078 -0.1407 -0.3209
 1528SOL     OW 6164   1.337   2.681   2.628  0.0201  0.0991 -0.1296
 1528SOL    HW2 6165   1.400   2.728   2.683 -1.6197  1.0894  0.9735
 1528SOL    HW3 6166   1.325   2.597   2.672  1.6332 -0.6785 -1.1378
 1528SOL    MW4 6167   1.344   2.676   2.641  0.0166  0.1268 -0.1171
 1529SOL     OW 6168   1.379   2.688   2.345 -0.1309 -0.3932  0.1225
 1529SOL    HW2 6169   1.383   2.701   2.440 -0.3746  0.0901  0.0683
 1529SOL    HW3 6170   1.461   2.725   2.312 -0.1352 -0.3846  0.1220
 1529SOL    MW4 6171   1.390   2.694   2.353 -0.1638 -0.3278  0.1154
 1530SOL     OW 6172   1.552   2.831   2.765  0.2075 -0.1610 -0.6334
 1530SOL    HW2 6173   1.558   2.855   2.858 -0.6061  0.0545 -0.6345
 1530SOL    HW3 6174   1.639   2.799   2.743  0.5836  0.3774  0.0468
 1530SOL    MW4 6175   1.564   2.830   2.774  0.1497 -0.0615 -0.5441
 1531SOL     OW 6176   1.590   3.082   2.645 -0.6176 -0.0062  0.0078
 1531SOL    HW2 6177   1.677   3.106   2.675 -1.1177 -0.1894  1.6614
 1531SOL    HW3 6178   1.580   2.990   2.669  0.1292 -1.0581 -3.5568
 1531SOL    MW4 6179   1.600   3.073   2.652 -0.5852 -0.1693 -0.2444
 1532SOL     OW 6180   1.372   3.199   2.763  0.1882 -0.2949  0.3301
 1532SOL    HW2 6181   1.449   3.148   2.739  1.0925  0.7902  0.8509
 1532SOL    HW3 6182   1.298   3.149   2.729  1.2564 -0.0264 -2.5676
 1532SOL    MW4 6183   1.373   3.186   2.755  0.4486 -0.1161  0.0165
 1533SOL     OW 6184   1.346   3.474   2.688 -0.1929  0.4460  0.7095
 1533SOL    HW2 6185   1.353   3.384   2.722 -0.0457  0.2538  0.1883
 1533SOL    HW3 6186   1.262   3.506   2.720 -1.2924 -0.6798 -0.9695
 1533SOL    MW4 6187   1.336   3.466   2.697 -0.3186  0.2720  0.4191
 1534SOL     OW 6188   1.588   3.588   2.764  0.0449 -0.0081 -0.3211
 1534SOL    HW2 6189   1.655   3.546   2.710 -0.9908 -0.6890 -1.1073
 1534SOL    HW3 6190   1.508   3.540   2.744 -0.9207  1.5440 -0.2847
 1534SOL    MW4 6191   1.586   3.576   2.754 -0.2192  0.1068 -0.4199
 1535SOL     OW 6192   1.577   3.835   2.628 -0.2433 -0.4549 -0.3667
 1535SOL    HW2 6193   1.492   3.873   2.651 -0.4971 -0.4383 -1.3112
 1535SOL    HW3 6194   1.580   3.752   2.675  0.4650  0.8686  2.0050
 1535SOL    MW4 6195   1.566   3.829   2.637 -0.1832 -0.2780 -0.1786
 1536SOL     OW 6196   1.336   3.956   2.709  0.2174 -0.3884 -0.0405
 1536SOL    HW2 6197   1.357   3.967   2.802  0.9403 -2.1202  0.0278
 1536SOL    HW3 6198   1.355   4.040   2.669  1.0511  0.0083  1.1824
 1536SOL    MW4 6199   1.341   3.968   2.716  0.4228 -0.5646  0.1295
 1537SOL     OW 6200   1.369   4.234   2.630 -0.0278 -0.1770 -0.1319
 1537SOL    HW2 6201   1.295   4.263   2.683 -0.4744 -0.7772 -0.4259
 1537SOL    HW3 6202   1.337   4.237   2.540  0.4530  0.0016 -0.3001
 1537SOL    MW4 6203   1.355   4.238   2.625 -0.0234 -0.2327 -0.1929
 1538SOL     OW 6204   1.567   4.394   2.718  0.0811  0.4738 -0.1938
 1538SOL    HW2 6205   1.580   4.374   2.810  0.2733  1.3805 -0.0248
 1538SOL    HW3 6206   1.488   4.345   2.694 -1.1841  1.8760  0.9939
 1538SOL    MW4 6207   1.558   4.385   2.727 -0.0604  0.7782 -0.0148
 1539SOL     OW 6208   2.045   4.638   2.651  0.4574  0.4492  0.1699
 1539SOL    HW2 6209   2.127   4.676   2.683  1.0479 -0.3422 -0.3890
 1539SOL    HW3 6210   2.046   4.654   2.557  0.0539  0.2708  0.1322
 1539SOL    MW4 6211   2.056   4.645   2.643  0.4823  0.3214  0.0911
 1540SOL     OW 6212   1.808   0.078   2.743 -0.7620 -0.2512 -0.1555
 1540SOL    HW2 6213   1.888   0.040   2.707 -1.1614 -1.6243  0.3694
 1540SOL    HW3 6214   1.738   0.041   2.689 -0.9846  1.7383 -1.2761
 1540SOL    MW4 6215   1.809   0.068   2.731 -0.8440 -0.1699 -0.2339
 1541SOL     OW 6216   1.806   0.353   2.596  0.0935 -0.2814  0.5287
 1541SOL    HW2 6217   1.870   0.399   2.650  1.9258 -0.8519 -1.1085
 1541SOL    HW3 6218   1.814   0.261   2.622  1.2285 -0.6112 -0.8992
 1541SOL    MW4 6219   1.815   0.347   2.607  0.4849 -0.4002  0.1242
 1542SOL     OW 6220   1.995   0.454   2.775  0.1485 -0.0398  0.1237
 1542SOL    HW2 6221   2.078   0.416   2.746  0.5865  0.5587  0.5850
 1542SOL    HW3 6222   2.005   0.548   2.758 -0.9477 -0.1237 -1.0697
 1542SOL    MW4 6223   2.007   0.461   2.769  0.0618  0.0281  0.0272
 1543SOL     OW 6224   2.017   0.722   2.685  0.2831  0.3088  0.2664
 1543SOL    HW2 6225   1.945   0.782   2.703 -0.1064 -0.6965  2.2026
 1543SOL    HW3 6226   2.014   0.709   2.590 -1.7878  0.6657  0.2509
 1543SOL    MW4 6227   2.007   0.728   2.675 -0.0417  0.2232  0.5195
 1544SOL     OW 6228   1.806   0.877   2.734 -0.3611  0.0185 -0.3596
 1544SOL    HW2 6229   1.797   0.961   2.688 -1.1198  0.0143 -0.2262
 1544SOL    HW3 6230   1.724   0.831   2.716 -1.0794  0.3930  1.7418
 1544SOL    MW4 6231   1.794   0.882   2.726 -0.5560  0.0673 -0.0646
 1545SOL     OW 6232   1.787   1.136   2.641 -0.4001 -0.0691 -0.0564
 1545SOL    HW2 6233   1.866   1.178   2.677 -0.1819 -0.0678 -0.5284
 1545SOL    HW3 6234   1.797   1.145   2.546  0.0320 -1.8980 -0.2022
 1545SOL    MW4 6235   1.799   1.143   2.633 -0.3145 -0.3102 -0.1378
 1546SOL     OW 6236   2.010   1.261   2.733  0.0635  0.4908  0.4036
 1546SOL    HW2 6237   2.012   1.261   2.829 -1.3027  0.2021  0.4353
 1546SOL    HW3 6238   2.093   1.221   2.708  0.0466 -0.2514  1.4795
 1546SOL    MW4 6239   2.021   1.256   2.743 -0.1190  0.3546  0.5498
 1547SOL     OW 6240   2.031   1.515   2.638 -0.0422  0.1826 -0.1006
 1547SOL    HW2 6241   1.959   1.564   2.677 -0.2916  1.0167 -1.5890
 1547SOL    HW3 6242   2.021   1.426   2.674 -1.1161  0.5744  0.6032
 1547SOL    MW4 6243   2.020   1.509   2.648 -0.2170  0.3443 -0.2041
 1548SOL     OW 6244   1.804   1.659   2.745 -0.0256  0.0896  0.1706
 1548SOL    HW2 6245   1.811   1.655   2.840  1.0341 -1.7531  0.0530
 1548SOL    HW3 6246   1.727   1.605   2.725  1.2322 -1.6560 -0.1330
 1548SOL    MW4 6247   1.794   1.651   2.755  0.2803 -0.3839  0.1152
 1549SOL     OW 6248   1.807   1.917   2.649  0.1036 -0.5147  0.2778
 1549SOL    HW2 6249   1.885   1.952   2.691  0.6274 -0.2199 -0.9269
 1549SOL    HW3 6250   1.801   1.827   2.680  0.1584 -0.1262  1.4281
 1549SOL    MW4 6251   1.816   1.910   2.658  0.1800 -0.4246  0.2704
 1550SOL     OW 6252   2.020   2.026   2.774 -0.1835  0.0252  0.1830
 1550SOL    HW2 6253   2.014   2.046   2.867  3.2274  0.0367  0.4641
 1550SOL    HW3 6254   2.011   2.111   2.730 -2.6107 -0.0756  0.3823
 1550SOL    MW4 6255   2.018   2.040   2.780 -0.0536  0.0136  0.2465
 1551SOL     OW 6256   2.055   2.291   2.661 -0.3319 -0.0581  0.5145
 1551SOL    HW2 6257   2.132   2.341   2.688 -0.8623 -0.0552  2.0672
 1551SOL    HW3 6258   2.053   2.300   2.566  1.5219  0.0304  0.4572
 1551SOL    MW4 6259   2.065   2.299   2.652 -0.1574 -0.0460  0.7117
 1552SOL     OW 6260   1.816   2.453   2.775 -0.2839  0.1591  0.0670
 1552SOL    HW2 6261   1.814   2.470   2.869  1.4241  2.4890 -0.2780
 1552SOL    HW3 6262   1.891   2.395   2.762  0.7275  1.4636 -0.0622
 1552SOL    MW4 6263   1.826   2.448   2.785  0.0749  0.6387  0.0045
 1553SOL     OW 6264   1.782   2.712   2.662  0.3666  0.0027  0.2272
 1553SOL    HW2 6265   1.797   2.623   2.693 -0.7725  0.2703  1.5614
 1553SOL    HW3 6266   1.785   2.704   2.566  1.4403 -1.2481  0.3420
 1553SOL    MW4 6267   1.784   2.699   2.653  0.3581 -0.1271  0.4184
 1554SOL     OW 6268   2.007   2.844   2.739  0.3208  0.0416 -0.0047
 1554SOL    HW2 6269   2.081   2.789   2.712  1.1311  1.4603 -0.8127
 1554SOL    HW3 6270   1.930   2.802   2.701  1.1545  0.5553 -2.3521
 1554SOL    MW4 6271   2.007   2.832   2.730  0.5379  0.2966 -0.4210
 1555SOL     OW 6272   2.063   3.097   2.619 -0.4493 -0.0862 -0.4210
 1555SOL    HW2 6273   2.051   3.011   2.659  0.8727 -0.3223 -0.5092
 1555SOL    HW3 6274   2.042   3.084   2.527  0.1611 -0.4122 -0.5148
 1555SOL    MW4 6275   2.058   3.084   2.612 -0.1943 -0.1605 -0.4451
 1556SOL     OW 6276   1.828   3.186   2.706  0.0898  0.1731  0.4303
 1556SOL    HW2 6277   1.819   3.275   2.672  1.3546  0.7794  1.6597
 1556SOL    HW3 6278   1.902   3.149   2.658  1.2637  0.7025  1.8089
 1556SOL    MW4 6279   1.836   3.193   2.695  0.4117  0.3233  0.7746
 1557SOL     OW 6280   1.797   3.451   2.628 -0.2949  0.0889  0.2769
 1557SOL    HW2 6281   1.874   3.505   2.645 -0.1176 -0.4765  1.2872
 1557SOL    HW3 6282   1.786   3.455   2.533  0.2451  1.1733  0.2510
 1557SOL    MW4 6283   1.806   3.459   2.617 -0.2005  0.1574  0.4067
 1558SOL     OW 6284   2.034   3.579   2.691 -0.4453  0.0411  0.2496
 1558SOL    HW2 6285   2.050   3.583   2.786  0.4250  0.0561  0.1024
 1558SOL    HW3 6286   2.117   3.550   2.654 -0.7644  0.1121 -0.5243
 1558SOL    MW4 6287   2.047   3.576   2.699 -0.3724  0.0522  0.1280
 1559SOL     OW 6288   2.053   3.845   2.636 -0.4993  0.3678  0.1375
 1559SOL    HW2 6289   1.976   3.879   2.682 -1.3755 -0.5087 -0.6479
 1559SOL    HW3 6290   2.048   3.750   2.648 -0.6963  0.1266 -1.6573
 1559SOL    MW4 6291   2.042   3.837   2.644 -0.6409  0.2203 -0.2029
 1560SOL     OW 6292   1.815   3.970   2.745  0.3719 -0.3523  0.2768
 1560SOL    HW2 6293   1.816   4.057   2.706  0.2632  0.3563  1.7920
 1560SOL    HW3 6294   1.739   3.926   2.707  0.2018  0.3545 -0.1976
 1560SOL    MW4 6295   1.805   3.975   2.735  0.3351 -0.1657  0.4139
 1561SOL     OW 6296   1.768   4.220   2.644 -0.0147  0.6739  0.2655
 1561SOL    HW2 6297   1.689   4.270   2.662 -0.9447 -0.6478 -0.1342
 1561SOL    HW3 6298   1.776   4.220   2.549 -0.2141 -0.2323  0.2461
 1561SOL    MW4 6299   1.759   4.227   2.634 -0.1637  0.3796  0.2100
 1562SOL     OW 6300   2.010   4.374   2.743 -0.0755  0.1775 -0.2186
 1562SOL    HW2 6301   1.920   4.351   2.718 -0.6318  2.1355 -0.0791
 1562SOL    HW3 6302   2.020   4.466   2.718  1.5096  0.3094  0.8067
 1562SOL    MW4 6303   1.999   4.383   2.737  0.0602  0.4530 -0.0646
 1563SOL     OW 6304   2.492   4.599   2.647  0.2003 -0.3179 -0.0557
 1563SOL    HW2 6305   2.563   4.651   2.685 -0.5774  0.5113  0.2985
 1563SOL    HW3 6306   2.490   4.625   2.555  1.7076 -1.8948 -0.5554
 1563SOL    MW4 6307   2.501   4.609   2.640  0.2968 -0.4168 -0.0751
 1564SOL     OW 6308   2.274   0.081   2.744 -0.2950 -0.0086 -0.1470
 1564SOL    HW2 6309   2.264   0.088   2.839 -1.2167 -1.1081 -0.1490
 1564SOL    HW3 6310   2.353   0.029   2.732 -0.3302 -0.1045  0.0304
 1564SOL    MW4 6311   2.283   0.075   2.755 -0.4215 -0.1663 -0.1240
 1565SOL     OW 6312   2.264   0.359   2.664  0.0817  0.1005 -0.2869
 1565SOL    HW2 6313   2.275   0.265   2.678 -1.6516 -0.3103 -1.4599
 1565SOL    HW3 6314   2.264   0.369   2.569 -1.3329  1.0426 -0.2141
 1565SOL    MW4 6315   2.265   0.348   2.653 -0.3335  0.1706 -0.4320
 1566SOL     OW 6316   2.485   0.490   2.789 -0.2450 -0.2405  0.0736
 1566SOL    HW2 6317   2.494   0.574   2.743  1.7773 -0.1591  0.5761
 1566SOL    HW3 6318   2.421   0.441   2.737  0.0155  0.8652 -1.3209
 1566SOL    MW4 6319   2.477   0.495   2.776  0.0563 -0.0838 -0.0441
 1567SOL     OW 6320   2.506   0.725   2.636 -0.0534 -0.2598  0.1489
 1567SOL    HW2 6321   2.427   0.766   2.671 -0.3138 -0.4188 -0.2532
 1567SOL    HW3 6322   2.504   0.743   2.542  1.0887  0.8987  0.3332
 1567SOL    MW4 6323   2.495   0.733   2.629  0.0629 -0.1279  0.1199
 1568SOL     OW 6324   2.270   0.842   2.751 -0.5050  0.2909  0.2075
 1568SOL    HW2 6325   2.264   0.834   2.846 -0.5223  0.4716  0.2215
 1568SOL    HW3 6326   2.189   0.802   2.718 -0.2505 -0.2534  0.2439
 1568SOL    MW4 6327   2.259   0.836   2.759 -0.4737  0.2429  0.2141
 1569SOL     OW 6328   2.235   1.124   2.667 -0.2627  0.0101  0.2304
 1569SOL    HW2 6329   2.234   1.031   2.691 -1.6816 -0.0088  0.1147
 1569SOL    HW3 6330   2.228   1.124   2.571  1.6396  0.1935  0.0746
 1569SOL    MW4 6331   2.234   1.111   2.658 -0.1988  0.0317  0.1945
 1570SOL     OW 6332   2.469   1.266   2.764 -1.1870  0.1253 -0.3564
 1570SOL    HW2 6333   2.540   1.220   2.720 -1.3437  0.8839 -1.4191
 1570SOL    HW3 6334   2.389   1.225   2.729 -1.3089  0.5759 -0.6069
 1570SOL    MW4 6335   2.468   1.255   2.753 -1.2238  0.2847 -0.5295
 1571SOL     OW 6336   2.453   1.539   2.676 -0.0078 -0.3295  0.0610
 1571SOL    HW2 6337   2.384   1.587   2.721  0.4761  1.2967 -0.8930
 1571SOL    HW3 6338   2.454   1.453   2.718 -1.1414  0.3652  1.5441
 1571SOL    MW4 6339   2.444   1.534   2.688 -0.0935 -0.0232  0.1309
 1572SOL     OW 6340   2.222   1.658   2.773  0.2653  0.1440 -0.0951
 1572SOL    HW2 6341   2.224   1.748   2.743  0.8755  0.4898  0.9480
 1572SOL    HW3 6342   2.159   1.615   2.716 -0.5456  1.3908 -0.1642
 1572SOL    MW4 6343   2.214   1.664   2.762  0.2389  0.3542  0.0334
 1573SOL     OW 6344   2.247   1.908   2.675  0.2592  0.4060  0.3271
 1573SOL    HW2 6345   2.166   1.949   2.705  0.0340  0.1093  0.1337
 1573SOL    HW3 6346   2.247   1.922   2.580  0.0920 -0.1921  0.2352
 1573SOL    MW4 6347   2.237   1.915   2.666  0.2072  0.2881  0.2894
 1574SOL     OW 6348   2.479   2.033   2.798  0.3934  0.4543 -0.4010
 1574SOL    HW2 6349   2.487   2.118   2.755 -1.5301  1.2481  0.7143
 1574SOL    HW3 6350   2.397   1.997   2.764  1.0428 -0.8311 -0.6406
 1574SOL    MW4 6351   2.469   2.039   2.788  0.2251  0.3896 -0.2856
 1575SOL     OW 6352   2.483   2.258   2.652 -0.2837 -0.5521  0.0993
 1575SOL    HW2 6353   2.571   2.289   2.673 -1.0665  1.7413  0.1929
 1575SOL    HW3 6354   2.476   2.269   2.557 -0.1587 -1.6068 -0.0379
 1575SOL    MW4 6355   2.494   2.264   2.642 -0.3707 -0.3886  0.0937
 1576SOL     OW 6356   2.271   2.444   2.714 -0.1998 -0.0960  0.1926
 1576SOL    HW2 6357   2.260   2.446   2.809 -0.7965  0.9072  0.1077
 1576SOL    HW3 6358   2.348   2.389   2.700  0.1130  0.0518  1.2751
 1576SOL    MW4 6359   2.280   2.437   2.725 -0.2370  0.0560  0.3242
 1577SOL     OW 6360   2.226   2.710   2.637  0.2503 -0.7928  0.2361
 1577SOL    HW2 6361   2.303   2.759   2.665  0.3179 -1.6186  1.5383
 1577SOL    HW3 6362   2.235   2.625   2.679 -0.9732 -1.1737 -0.2436
 1577SOL    MW4 6363   2.238   2.705   2.646  0.0980 -0.9522  0.3448
 1578SOL     OW 6364   2.455   2.848   2.758 -0.3488 -0.0338 -0.4235
 1578SOL    HW2 6365   2.526   2.790   2.729 -0.1160  0.3709 -0.6603
 1578SOL    HW3 6366   2.466   2.927   2.706 -1.6147 -0.3676 -1.2192
 1578SOL    MW4 6367   2.466   2.851   2.747 -0.4849 -0.0246 -0.5598
 1579SOL     OW 6368   2.486   3.092   2.631  0.4126  0.2031  0.0838
 1579SOL    HW2 6369   2.419   3.141   2.680  1.5530  0.5726  1.2789
 1579SOL    HW3 6370   2.461   3.105   2.539 -0.1828  1.7688  0.4391
 1579SOL    MW4 6371   2.474   3.100   2.625  0.4845  0.4582  0.2885
 1580SOL     OW 6372   2.271   3.241   2.734  0.1194 -0.1543  0.3267
 1580SOL    HW2 6373   2.275   3.248   2.829  0.7577 -0.6130  0.3388
 1580SOL    HW3 6374   2.189   3.196   2.716  0.6321 -1.2419  0.7233
 1580SOL    MW4 6375   2.261   3.236   2.744  0.2711 -0.3581  0.3808
 1581SOL     OW 6376   2.254   3.481   2.580  0.2876  0.1265  0.3358
 1581SOL    HW2 6377   2.334   3.521   2.615 -0.2532  0.1794  1.5602
 1581SOL    HW3 6378   2.242   3.402   2.633 -0.7461  0.3962  0.5254
 1581SOL    MW4 6379   2.263   3.476   2.592  0.0801  0.1690  0.5221
 1582SOL     OW 6380   2.475   3.596   2.721 -0.4270 -0.4742  0.6033
 1582SOL    HW2 6381   2.493   3.608   2.815  1.0793  1.8401  0.0677
 1582SOL    HW3 6382   2.474   3.685   2.685 -1.0691 -1.3292 -1.5680
 1582SOL    MW4 6383   2.478   3.610   2.729 -0.3133 -0.2818  0.2460
 1583SOL     OW 6384   2.467   3.846   2.594  0.0100  0.5712 -0.1659
 1583SOL    HW2 6385   2.540   3.897   2.630 -0.4873  0.6352  0.7957
 1583SOL    HW3 6386   2.391   3.877   2.643 -0.4711 -0.3284 -0.3363
 1583SOL    MW4 6387   2.467   3.857   2.606 -0.1190  0.4606 -0.0613
 1584SOL     OW 6388   2.274   3.999   2.731 -0.6408 -0.0523  0.1758
 1584SOL    HW2 6389   2.260   3.998   2.826 -0.7198 -0.8766  0.1611
 1584SOL    HW3 6390   2.197   3.955   2.695  0.0223 -0.9283 -0.1839
 1584SOL    MW4 6391   2.262   3.993   2.739 -0.5639 -0.2768  0.1266
 1585SOL     OW 6392   2.230   4.259   2.637  0.1586 -0.3770 -0.3641
 1585SOL    HW2 6393   2.247   4.171   2.671  0.7590 -0.1511 -0.0756
 1585SOL    HW3 6394   2.151   4.287   2.683  0.3824 -0.4782  0.0863
 1585SOL    MW4 6395   2.222   4.251   2.648  0.2673 -0.3605 -0.2666
 1586SOL     OW 6396   2.465   4.352   2.784  0.0771 -0.0046 -0.0732
 1586SOL    HW2 6397   2.383   4.320   2.745  0.0795 -0.3000  0.1668
 1586SOL    HW3 6398   2.479   4.437   2.742 -0.4800  0.1553  0.0616
 1586SOL    MW4 6399   2.456   4.359   2.773  0.0038 -0.0219 -0.0238
 1587SOL     OW 6400   2.914   0.006   2.664  0.8197 -0.5629 -0.7254
 1587SOL    HW2 6401   2.997   0.047   2.686 -0.3402  1.3630  0.2061
 1587SOL    HW3 6402   2.916  -0.003   2.569  1.9227 -0.1600 -0.7450
 1587SOL    MW4 6403   2.925   0.010   2.654  0.8121 -0.2561 -0.6049
 1588SOL     OW 6404   2.671   0.071   2.796 -0.3117  0.5530  0.3636
 1588SOL    HW2 6405   2.698   0.064   2.888 -0.5627 -0.4269  0.3627
 1588SOL    HW3 6406   2.747   0.042   2.747 -0.2638  0.8424  0.2666
 1588SOL    MW4 6407   2.685   0.066   2.802 -0.3386  0.4619  0.3507
 1589SOL     OW 6408   2.673   0.339   2.653  0.0246 -0.1920  0.0048
 1589SOL    HW2 6409   2.670   0.254   2.698 -1.4978 -0.5969 -0.8133
 1589SOL    HW3 6410   2.604   0.390   2.695  0.7395  0.5458  0.2869
 1589SOL    MW4 6411   2.663   0.334   2.664 -0.0820 -0.1481 -0.0660
 1590SOL     OW 6412   2.920   0.461   2.709  0.0039 -0.3608 -0.0364
 1590SOL    HW2 6413   2.912   0.548   2.670  0.0519 -1.4381 -2.4986
 1590SOL    HW3 6414   2.840   0.416   2.683 -0.0527 -1.0466  1.2871
 1590SOL    MW4 6415   2.908   0.467   2.701  0.0026 -0.5934 -0.1864
 1591SOL     OW 6416   2.928   0.724   2.627  0.3497  0.0670  0.1552
 1591SOL    HW2 6417   2.992   0.775   2.677  1.0626 -0.6193 -0.0290
 1591SOL    HW3 6418   2.843   0.761   2.650  0.7769  0.6229  0.8466
 1591SOL    MW4 6419   2.925   0.735   2.637  0.5007  0.0499  0.2222
 1592SOL     OW 6420   2.723   0.890   2.715 -0.0431  0.0385  0.2943
 1592SOL    HW2 6421   2.741   0.884   2.809 -0.2839 -0.7126  0.2964
 1592SOL    HW3 6422   2.640   0.844   2.703  0.2181 -0.2807 -0.3531
 1592SOL    MW4 6423   2.714   0.883   2.726 -0.0403 -0.1028  0.2093
 1593SOL     OW 6424   2.665   1.146   2.637  0.0387  0.5870 -0.2698
 1593SOL    HW2 6425   2.738   1.190   2.681 -0.9500  0.6734  1.3112
 1593SOL    HW3 6426   2.671   1.055   2.667  0.5588  0.1912 -1.5471
 1593SOL    MW4 6427   2.676   1.140   2.647 -0.0231  0.5461 -0.2298
 1594SOL     OW 6428   2.903   1.276   2.753 -0.1745 -0.6511  0.1372
 1594SOL    HW2 6429   2.906   1.283   2.848 -0.7530  0.6138  0.0708
 1594SOL    HW3 6430   2.972   1.213   2.732  0.7617 -0.0453  1.3065
 1594SOL    MW4 6431   2.912   1.269   2.763 -0.1271 -0.4042  0.2828
 1595SOL     OW 6432   2.950   1.538   2.657  0.3869 -0.4045 -0.5251
 1595SOL    HW2 6433   2.866   1.569   2.689 -0.0070 -1.4825 -0.4745
 1595SOL    HW3 6434   2.955   1.447   2.687  1.7820 -0.2164 -0.1182
 1595SOL    MW4 6435   2.940   1.530   2.665  0.5190 -0.5219 -0.4647
 1596SOL     OW 6436   2.702   1.627   2.753  0.0993  0.5971 -0.0667
 1596SOL    HW2 6437   2.700   1.654   2.845 -0.3468  0.3202  0.0073
 1596SOL    HW3 6438   2.623   1.575   2.742  0.0305  0.8216 -0.6694
 1596SOL    MW4 6439   2.691   1.624   2.764  0.0315  0.5901 -0.1364
 1597SOL     OW 6440   2.668   1.883   2.658 -0.8440 -0.2202 -0.2615
 1597SOL    HW2 6441   2.660   1.792   2.686 -1.5638 -0.1109 -0.0817
 1597SOL    HW3 6442   2.602   1.929   2.710 -0.5060  0.3952 -0.3753
 1597SOL    MW4 6443   2.658   1.877   2.669 -0.8945 -0.1245 -0.2527
 1598SOL     OW 6444   2.905   2.007   2.759  0.0649  0.0932  0.7810
 1598SOL    HW2 6445   2.898   2.092   2.716 -0.8690 -0.0300  0.6588
 1598SOL    HW3 6446   2.824   1.961   2.733  0.1441 -0.4948  1.5633
 1598SOL    MW4 6447   2.893   2.012   2.750 -0.0479 -0.0007  0.8683
 1599SOL     OW 6448   2.937   2.259   2.674 -0.4323  0.0722  0.1140
 1599SOL    HW2 6449   3.018   2.302   2.699  0.1737 -0.5949 -0.6630
 1599SOL    HW3 6450   2.869   2.324   2.689  0.4824  1.3207 -1.0878
 1599SOL    MW4 6451   2.938   2.273   2.679 -0.2320  0.1488 -0.1471
 1600SOL     OW 6452   2.707   2.429   2.753 -0.1411  0.4536 -0.1091
 1600SOL    HW2 6453   2.706   2.430   2.849 -0.3060  0.5805 -0.1118
 1600SOL    HW3 6454   2.684   2.518   2.728  0.3741  0.5468 -0.2642
 1600SOL    MW4 6455   2.704   2.441   2.763 -0.0949  0.4826 -0.1302
 1601SOL     OW 6456   2.670   2.711   2.653  0.0509  0.4401 -0.1422
 1601SOL    HW2 6457   2.744   2.762   2.686 -1.4438  1.8867  1.0758
 1601SOL    HW3 6458   2.680   2.714   2.558  1.6857  0.4017  0.0066
 1601SOL    MW4 6459   2.681   2.718   2.645  0.0691  0.6261  0.0381
 1602SOL     OW 6460   2.893   2.824   2.754 -0.1208 -0.0607 -0.3795
 1602SOL    HW2 6461   2.915   2.835   2.846 -1.0097  0.7744 -0.2710
 1602SOL    HW3 6462   2.913   2.909   2.714  1.6461 -0.8468 -1.2452
 1602SOL    MW4 6463   2.899   2.836   2.761 -0.0050 -0.0541 -0.4795
 1603SOL     OW 6464   2.921   3.078   2.670 -0.0597  0.2125 -0.1551
 1603SOL    HW2 6465   2.836   3.119   2.688  0.0009 -0.2377  1.2444
 1603SOL    HW3 6466   2.931   3.084   2.575 -1.3006  0.9705 -0.2532
 1603SOL    MW4 6467   2.911   3.084   2.660 -0.2153  0.2532  0.0169
 1604SOL     OW 6468   2.713   3.233   2.729 -0.1859 -0.0543 -0.3209
 1604SOL    HW2 6469   2.737   3.319   2.695  1.3924  0.6181  2.2964
 1604SOL    HW3 6470   2.628   3.213   2.689 -0.6410  2.7842 -0.8410
 1604SOL    MW4 6471   2.705   3.242   2.719 -0.0379  0.4089 -0.0441
 1605SOL     OW 6472   2.719   3.489   2.632  0.5306  0.2342  0.0959
 1605SOL    HW2 6473   2.631   3.513   2.664  0.3957  1.1430 -0.8980
 1605SOL    HW3 6474   2.709   3.487   2.536  2.1006  2.5204 -0.1534
 1605SOL    MW4 6475   2.706   3.492   2.623  0.7198  0.6554 -0.0679
 1606SOL     OW 6476   2.927   3.641   2.714 -0.0841 -0.0345  0.0026
 1606SOL    HW2 6477   2.950   3.625   2.806 -1.8771  0.6079  0.5748
 1606SOL    HW3 6478   2.858   3.579   2.695  0.9818 -0.8615 -1.2484
 1606SOL    MW4 6479   2.921   3.631   2.724 -0.1800 -0.0587 -0.0870
 1607SOL     OW 6480   2.958   3.895   2.638 -0.3849  0.4672  0.2699
 1607SOL    HW2 6481   3.026   3.928   2.697  0.7600 -0.7093 -0.3802
 1607SOL    HW3 6482   2.955   3.801   2.655 -0.0972  0.1333 -1.5013
 1607SOL    MW4 6483   2.967   3.887   2.648 -0.1962  0.2680 -0.0496
 1608SOL     OW 6484   2.699   3.952   2.738  0.2842  0.6438 -0.0724
 1608SOL    HW2 6485   2.696   4.046   2.719 -0.3449  0.2977 -1.7108
 1608SOL    HW3 6486   2.787   3.925   2.712 -0.1654  0.4143 -1.3813
 1608SOL    MW4 6487   2.710   3.961   2.732  0.1419  0.5679 -0.4613
 1609SOL     OW 6488   2.685   4.214   2.661 -0.0573  0.1222 -0.4470
 1609SOL    HW2 6489   2.764   4.265   2.678  0.6105 -0.6144 -1.2846
 1609SOL    HW3 6490   2.616   4.259   2.709  0.5920  1.6082 -0.8951
 1609SOL    MW4 6491   2.687   4.226   2.669  0.1166  0.2213 -0.6166
 1610SOL     OW 6492   2.882   4.388   2.719  0.0240  0.4579  0.3086
 1610SOL    HW2 6493   2.914   4.389   2.810 -1.6693  1.0105  0.9324
 1610SOL    HW3 6494   2.888   4.479   2.691 -1.9382  0.7813  0.8160
 1610SOL    MW4 6495   2.887   4.401   2.728 -0.4580  0.5732  0.4578
 1611SOL     OW 6496   3.399   4.639   2.638 -0.0806 -0.3249 -0.2312
 1611SOL    HW2 6497   3.405   4.546   2.663 -0.6847 -0.7570 -1.6105
 1611SOL    HW3 6498   3.323   4.672   2.685  2.4598  0.5496  3.4203
 1611SOL    MW4 6499   3.390   4.631   2.647  0.1748 -0.2670  0.0684
 1612SOL     OW 6500   3.164   0.101   2.756 -0.0931 -0.2450  0.5323
 1612SOL    HW2 6501   3.159   0.090   2.851 -0.0717  0.3516  0.6024
 1612SOL    HW3 6502   3.167   0.196   2.743 -3.7155 -0.1895 -0.2537
 1612SOL    MW4 6503   3.164   0.112   2.767 -0.5679 -0.1590  0.4377
 1613SOL     OW 6504   3.171   0.367   2.644  0.3714  0.3221  0.5578
 1613SOL    HW2 6505   3.088   0.401   2.675  0.2164  0.6156 -0.1719
 1613SOL    HW3 6506   3.162   0.364   2.549  1.6191  1.4782  0.3924
 1613SOL    MW4 6507   3.159   0.371   2.636  0.5155  0.5133  0.4396
 1614SOL     OW 6508   3.419   0.511   2.717  0.1189 -0.0851  0.1410
 1614SOL    HW2 6509   3.413   0.605   2.700  0.3704  0.0250  0.6490
 1614SOL    HW3 6510   3.332   0.477   2.696 -0.4440  0.5073  1.4763
 1614SOL    MW4 6511   3.407   0.519   2.712  0.0777  0.0075  0.3843
 1615SOL     OW 6512   3.360   0.767   2.674  0.5458 -0.2901  0.1060
 1615SOL    HW2 6513   3.446   0.807   2.686 -0.2536  1.5823 -0.1505
 1615SOL    HW3 6514   3.353   0.752   2.579  0.9269 -1.2329  0.2261
 1615SOL    MW4 6515   3.370   0.770   2.663  0.4907 -0.1675  0.0880
 1616SOL     OW 6516   3.124   0.891   2.756  0.2422  0.4729  0.1249
 1616SOL    HW2 6517   3.108   0.886   2.850 -0.5102 -2.3855 -0.1019
 1616SOL    HW3 6518   3.211   0.855   2.744  0.3857  0.9434 -0.2535
 1616SOL    MW4 6519   3.133   0.886   2.767  0.1619  0.1579  0.0451
 1617SOL     OW 6520   3.124   1.145   2.639 -0.2090  0.0303 -0.1461
 1617SOL    HW2 6521   3.115   1.058   2.680  1.8482 -0.1728 -0.0624
 1617SOL    HW3 6522   3.134   1.127   2.546  1.6236  0.0550  0.0222
 1617SOL    MW4 6523   3.124   1.131   2.632  0.3042  0.0068 -0.1125
 1618SOL     OW 6524   3.354   1.274   2.728 -0.1588  0.1299  0.0710
 1618SOL    HW2 6525   3.359   1.265   2.823  0.7979 -0.6461 -0.0299
 1618SOL    HW3 6526   3.271   1.234   2.704  0.0452 -0.5757  0.5040
 1618SOL    MW4 6527   3.344   1.267   2.737 -0.0057 -0.0657  0.1147
 1619SOL     OW 6528   3.370   1.535   2.655 -0.1914 -0.1839 -0.3218
 1619SOL    HW2 6529   3.314   1.576   2.721  1.5996  1.0489  0.4692
 1619SOL    HW3 6530   3.364   1.441   2.673 -1.7416 -0.0354 -0.0430
 1619SOL    MW4 6531   3.362   1.528   2.666 -0.1595 -0.0018 -0.1807
 1620SOL     OW 6532   3.168   1.659   2.785 -0.2829  0.5683 -0.0341
 1620SOL    HW2 6533   3.178   1.750   2.759 -1.7474  0.5281 -0.7696
 1620SOL    HW3 6534   3.100   1.624   2.727  1.0716 -1.3037 -0.5751
 1620SOL    MW4 6535   3.160   1.666   2.774 -0.2973  0.3159 -0.2022
 1621SOL     OW 6536   3.152   1.901   2.662 -0.0221  0.3642  0.4947
 1621SOL    HW2 6537   3.223   1.951   2.703 -0.2289  0.4566  0.7407
 1621SOL    HW3 6538   3.072   1.938   2.700 -0.1941  0.1395  0.3500
 1621SOL    MW4 6539   3.151   1.913   2.672 -0.0722  0.3467  0.5081
 1622SOL     OW 6540   3.378   2.063   2.736  0.1801  0.6622 -0.3378
 1622SOL    HW2 6541   3.376   2.056   2.832 -1.9606 -0.1964 -0.4244
 1622SOL    HW3 6542   3.384   2.157   2.719 -0.4080  0.8880  0.6451
 1622SOL    MW4 6543   3.378   2.075   2.747 -0.1798  0.5789 -0.2196
 1623SOL     OW 6544   3.412   2.340   2.662  0.1049 -0.0707  0.6505
 1623SOL    HW2 6545   3.481   2.399   2.693  0.3410  0.3652 -0.6334
 1623SOL    HW3 6546   3.430   2.330   2.568 -1.3557 -0.2467  0.3704
 1623SOL    MW4 6547   3.424   2.347   2.653 -0.0567 -0.0362  0.4439
 1624SOL     OW 6548   3.162   2.444   2.742 -0.4163 -0.1546  0.1074
 1624SOL    HW2 6549   3.130   2.523   2.699 -0.0222  0.5441  1.0636
 1624SOL    HW3 6550   3.241   2.421   2.693 -1.0289 -0.4755 -0.7330
 1624SOL    MW4 6551   3.168   2.451   2.730 -0.4451 -0.1047  0.1228
 1625SOL     OW 6552   3.113   2.698   2.634 -0.1196  0.0742 -0.4548
 1625SOL    HW2 6553   3.185   2.743   2.679  1.0709 -1.7780 -0.4679
 1625SOL    HW3 6554   3.034   2.739   2.669  0.9107  1.6964  0.0435
 1625SOL    MW4 6555   3.112   2.709   2.645  0.1733  0.0439 -0.3910
 1626SOL     OW 6556   3.354   2.837   2.727  0.1577  0.0090  0.0733
 1626SOL    HW2 6557   3.361   2.829   2.822 -0.8444  0.2752  0.1710
 1626SOL    HW3 6558   3.427   2.784   2.693  0.1847 -0.5403  0.9711
 1626SOL    MW4 6559   3.365   2.829   2.735  0.0291 -0.0284  0.2046
 1627SOL     OW 6560   3.362   3.112   2.666 -0.1548  0.3234  0.0946
 1627SOL    HW2 6561   3.360   3.021   2.697  1.3924  0.2255 -0.0514
 1627SOL    HW3 6562   3.383   3.105   2.573  0.2476  0.8365  0.1453
 1627SOL    MW4 6563   3.364   3.099   2.658  0.1025  0.3781  0.0820
 1628SOL     OW 6564   3.144   3.233   2.760  0.1908  0.4572  0.1107
 1628SOL    HW2 6565   3.217   3.195   2.711  0.4908 -0.3883  1.2028
 1628SOL    HW3 6566   3.068   3.184   2.731  0.3706 -0.0539  0.4979
 1628SOL    MW4 6567   3.144   3.222   2.749  0.2542  0.2782  0.3057
 1629SOL     OW 6568   3.138   3.472   2.631  0.1278 -0.4387  0.0667
 1629SOL    HW2 6569   3.127   3.393   2.684 -0.0441 -0.5623 -0.1503
 1629SOL    HW3 6570   3.068   3.530   2.661  0.3564 -0.3048  0.3414
 1629SOL    MW4 6571   3.127   3.469   2.642  0.1354 -0.4377  0.0744
 1630SOL     OW 6572   3.358   3.620   2.750  0.8057 -0.6948  0.0632
 1630SOL    HW2 6573   3.345   3.619   2.845 -0.4928  1.5556 -0.0422
 1630SOL    HW3 6574   3.282   3.572   2.715 -0.5816  1.4380  0.0431
 1630SOL    MW4 6575   3.346   3.613   2.758  0.4516 -0.1166  0.0467
 1631SOL     OW 6576   3.346   3.891   2.667  0.3154  0.2084 -0.0493
 1631SOL    HW2 6577   3.351   3.801   2.699  0.1314  0.3787  0.4653
 1631SOL    HW3 6578   3.339   3.882   2.572 -0.1233 -0.3347  0.0272
 1631SOL    MW4 6579   3.346   3.878   2.659  0.2329  0.1593  0.0286
 1632SOL     OW 6580   3.153   4.012   2.806  0.0568  0.5249  0.0308
 1632SOL    HW2 6581   3.130   4.092   2.758  0.0616  1.7718  2.0506
 1632SOL    HW3 6582   3.229   3.978   2.760 -0.0358  1.5984 -0.9545
 1632SOL    MW4 6583   3.160   4.018   2.794  0.0451  0.8311  0.1671
 1633SOL     OW 6584   3.123   4.254   2.650  0.0916 -0.0667 -0.2199
 1633SOL    HW2 6585   3.035   4.293   2.649  0.6298  1.2010 -1.1567
 1633SOL    HW3 6586   3.133   4.216   2.562 -0.0096 -1.3582  0.3246
 1633SOL    MW4 6587   3.113   4.254   2.638  0.1495 -0.0701 -0.2716
 1634SOL     OW 6588   3.399   4.358   2.725 -0.0206  0.2436  0.1374
 1634SOL    HW2 6589   3.394   4.365   2.820 -0.7488 -1.5889  0.2577
 1634SOL    HW3 6590   3.316   4.319   2.700  0.7598 -0.6301 -1.1090
 1634SOL    MW4 6591   3.387   4.354   2.734 -0.0138 -0.1135 -0.0110
 1635SOL     OW 6592   3.875   4.657   2.670 -0.2030 -0.1342 -0.2297
 1635SOL    HW2 6593   3.865   4.567   2.700  1.6384 -0.4190 -0.4505
 1635SOL    HW3 6594   3.802   4.704   2.711  0.0101 -1.3037  1.5480
 1635SOL    MW4 6595   3.864   4.651   2.680  0.0679 -0.3262 -0.0241
 1636SOL     OW 6596   3.620   0.101   2.768 -0.1267  0.2333  0.6450
 1636SOL    HW2 6597   3.621   0.180   2.714 -0.2435  0.6290  1.2272
 1636SOL    HW3 6598   3.548   0.048   2.731 -0.4574  0.6751  0.6535
 1636SOL    MW4 6599   3.610   0.104   2.756 -0.1857  0.3438  0.7231
 1637SOL     OW 6600   3.640   0.356   2.633 -0.3510  0.4846  0.2447
 1637SOL    HW2 6601   3.708   0.414   2.668 -0.9718  1.1480  0.3556
 1637SOL    HW3 6602   3.558   0.402   2.650 -0.7072  0.5094 -1.4891
 1637SOL    MW4 6603   3.639   0.369   2.640 -0.4799  0.5754  0.0305
 1638SOL     OW 6604   3.851   0.512   2.752  0.2391 -0.1350 -0.5500
 1638SOL    HW2 6605   3.840   0.482   2.842 -2.1445  0.6278 -0.5580
 1638SOL    HW3 6606   3.933   0.472   2.724  0.9136 -0.5654  1.8738
 1638SOL    MW4 6607   3.860   0.503   2.760  0.0136 -0.0911 -0.2310
 1639SOL     OW 6608   3.791   0.742   2.628  0.2524  0.1532 -0.3706
 1639SOL    HW2 6609   3.724   0.781   2.684  0.3651 -0.8555  0.4763
 1639SOL    HW3 6610   3.811   0.658   2.670  2.4782  0.7151 -0.2794
 1639SOL    MW4 6611   3.785   0.736   2.641  0.5608  0.0943 -0.2470
 1640SOL     OW 6612   3.607   0.873   2.778  0.4519  0.0481 -0.1023
 1640SOL    HW2 6613   3.612   0.881   2.874 -1.0018  0.0703 -0.0120
 1640SOL    HW3 6614   3.604   0.963   2.746 -2.9350  0.1055  0.1092
 1640SOL    MW4 6615   3.607   0.886   2.787 -0.1867  0.0586 -0.0627
 1641SOL     OW 6616   3.585   1.134   2.663  0.1645 -0.1872 -0.5915
 1641SOL    HW2 6617   3.651   1.185   2.709  0.0454 -0.6046  0.0478
 1641SOL    HW3 6618   3.502   1.177   2.684  0.4296  1.6262 -3.1356
 1641SOL    MW4 6619   3.583   1.146   2.672  0.1836 -0.0029 -0.8426
 1642SOL     OW 6620   3.797   1.287   2.781  0.2600  0.2129 -0.0531
 1642SOL    HW2 6621   3.877   1.244   2.751  1.5704  1.7826  1.1168
 1642SOL    HW3 6622   3.798   1.372   2.737 -0.1401  0.7132  0.8948
 1642SOL    MW4 6623   3.808   1.293   2.771  0.3800  0.4860  0.2265
 1643SOL     OW 6624   3.834   1.527   2.640  0.2108  0.0531 -0.2736
 1643SOL    HW2 6625   3.900   1.570   2.694  0.5037 -0.5895 -0.1173
 1643SOL    HW3 6626   3.750   1.559   2.675  0.3159 -1.8586  1.8989
 1643SOL    MW4 6627   3.831   1.537   2.652  0.2635 -0.2838  0.0339
 1644SOL     OW 6628   3.604   1.629   2.749 -0.0681 -0.3833 -0.0379
 1644SOL    HW2 6629   3.616   1.718   2.716 -0.2180 -0.3754 -0.0752
 1644SOL    HW3 6630   3.522   1.600   2.707  0.0363 -0.5758 -0.1106
 1644SOL    MW4 6631   3.595   1.636   2.739 -0.0741 -0.4077 -0.0525
 1645SOL     OW 6632   3.608   1.922   2.669 -0.3504 -0.0652  0.2116
 1645SOL    HW2 6633   3.527   1.963   2.699  0.5598  0.4445  2.0254
 1645SOL    HW3 6634   3.599   1.917   2.574 -1.8098  1.4591  0.2572
 1645SOL    MW4 6635   3.596   1.926   2.661 -0.4227  0.2033  0.4568
 1646SOL     OW 6636   3.856   2.011   2.738 -0.4389 -0.3097 -0.5108
 1646SOL    HW2 6637   3.910   1.947   2.691 -0.6370  0.7904 -2.3028
 1646SOL    HW3 6638   3.766   1.990   2.713 -0.6569 -0.5444  0.4497
 1646SOL    MW4 6639   3.851   1.999   2.728 -0.4940 -0.1954 -0.6206
 1647SOL     OW 6640   3.824   2.268   2.629  0.1383 -0.3418 -0.4848
 1647SOL    HW2 6641   3.839   2.181   2.666  0.2668 -0.1922 -0.1786
 1647SOL    HW3 6642   3.830   2.256   2.535 -2.6291 -1.2064 -0.5990
 1647SOL    MW4 6643   3.827   2.255   2.622 -0.2100 -0.4358 -0.4592
 1648SOL     OW 6644   3.646   2.461   2.734  0.6655  0.3244  0.1533
 1648SOL    HW2 6645   3.637   2.467   2.829 -0.7175  1.6182 -0.0460
 1648SOL    HW3 6646   3.703   2.385   2.720  2.0294  0.9497  2.0671
 1648SOL    MW4 6647   3.652   2.452   2.745  0.6630  0.5774  0.3793
 1649SOL     OW 6648   3.598   2.719   2.637 -0.0620  0.1170  0.3123
 1649SOL    HW2 6649   3.621   2.630   2.663 -1.6318 -0.6021 -0.7087
 1649SOL    HW3 6650   3.610   2.720   2.542 -1.4865  0.5525  0.1286
 1649SOL    MW4 6651   3.603   2.708   2.628 -0.4570  0.0796  0.1538
 1650SOL     OW 6652   3.835   2.867   2.755  0.4094 -0.6925  0.6725
 1650SOL    HW2 6653   3.913   2.832   2.712 -0.5115 -2.8222  0.6510
 1650SOL    HW3 6654   3.762   2.820   2.714 -1.0156  2.1907 -0.2522
 1650SOL    MW4 6655   3.836   2.856   2.744  0.0999 -0.5929  0.5476
 1651SOL     OW 6656   3.799   3.113   2.642  0.2760 -0.0876 -0.1989
 1651SOL    HW2 6657   3.735   3.161   2.696  0.3091  0.1367 -0.3558
 1651SOL    HW3 6658   3.793   3.023   2.673 -1.2029 -0.3662 -1.2286
 1651SOL    MW4 6659   3.790   3.108   2.653  0.0854 -0.0949 -0.3550
 1652SOL     OW 6660   3.593   3.261   2.761  0.1176  0.4581  0.1426
 1652SOL    HW2 6661   3.582   3.348   2.722 -1.3884  0.4024  0.3971
 1652SOL    HW3 6662   3.510   3.217   2.743  0.0989 -0.2035  1.8348
 1652SOL    MW4 6663   3.580   3.267   2.753 -0.0834  0.3633  0.3994
 1653SOL     OW 6664   3.566   3.501   2.621 -0.0731  0.0859  0.1404
 1653SOL    HW2 6665   3.644   3.534   2.667  0.4466 -1.6779  0.5335
 1653SOL    HW3 6666   3.493   3.537   2.671  0.4862  0.4331  0.7236
 1653SOL    MW4 6667   3.567   3.510   2.634  0.0694 -0.1009  0.2689
 1654SOL     OW 6668   3.812   3.585   2.744 -0.2486  0.0327 -0.1555
 1654SOL    HW2 6669   3.897   3.553   2.714  0.1643  0.5847  0.4125
 1654SOL    HW3 6670   3.799   3.666   2.695  0.3659  0.8674  1.0180
 1654SOL    MW4 6671   3.822   3.592   2.734 -0.1132  0.2158  0.0744
 1655SOL     OW 6672   3.822   3.837   2.632 -0.1394  0.3725  0.2248
 1655SOL    HW2 6673   3.903   3.869   2.670 -0.3669  1.3324 -0.0956
 1655SOL    HW3 6674   3.756   3.901   2.659 -0.7539 -0.2967  0.3241
 1655SOL    MW4 6675   3.824   3.849   2.641 -0.2506  0.4108  0.1960
 1656SOL     OW 6676   3.600   3.969   2.749 -0.3881 -0.3478  0.5804
 1656SOL    HW2 6677   3.608   4.058   2.715 -0.7262 -0.2238  0.8196
 1656SOL    HW3 6678   3.517   3.937   2.714 -0.0332 -0.7483  0.0977
 1656SOL    MW4 6679   3.590   3.977   2.740 -0.3860 -0.3846  0.5481
 1657SOL     OW 6680   3.639   4.227   2.633 -0.3148  0.6735 -0.2742
 1657SOL    HW2 6681   3.559   4.271   2.663 -1.7665 -2.0942  0.1045
 1657SOL    HW3 6682   3.629   4.221   2.538 -1.0369 -0.5124 -0.1341
 1657SOL    MW4 6683   3.627   4.232   2.624 -0.6020  0.1516 -0.2060
 1658SOL     OW 6684   3.846   4.391   2.756 -0.0619 -0.0671  0.1506
 1658SOL    HW2 6685   3.928   4.343   2.745  0.3236  0.4389  0.7660
 1658SOL    HW3 6686   3.780   4.333   2.719  0.6502 -0.2174 -0.9132
 1658SOL    MW4 6687   3.848   4.377   2.750  0.0834 -0.0205  0.0916
 1659SOL     OW 6688   4.279   4.625   2.644 -0.1838 -0.3175  0.6701
 1659SOL    HW2 6689   4.209   4.673   2.689 -0.0329 -0.1077  0.6809
 1659SOL    HW3 6690   4.360   4.665   2.676 -0.1086  0.5264 -0.5896
 1659SOL    MW4 6691   4.280   4.636   2.654 -0.1540 -0.1788  0.5054
 1660SOL     OW 6692   4.095   0.116   2.757  0.0765  0.5339 -0.3139
 1660SOL    HW2 6693   4.081   0.119   2.851 -0.9841  1.0897 -0.4838
 1660SOL    HW3 6694   4.018   0.072   2.722  1.4893 -1.7012 -0.7250
 1660SOL    MW4 6695   4.083   0.111   2.765  0.1225  0.3123 -0.3905
 1661SOL     OW 6696   4.070   0.389   2.658 -0.3269 -0.5940 -0.1922
 1661SOL    HW2 6697   4.106   0.304   2.681  0.0376 -0.6920 -1.0809
 1661SOL    HW3 6698   4.062   0.387   2.562  0.5189  0.6948 -0.3078
 1661SOL    MW4 6699   4.073   0.378   2.648 -0.1674 -0.4368 -0.3247
 1662SOL     OW 6700   4.288   0.534   2.744 -0.4346  0.0466  0.1659
 1662SOL    HW2 6701   4.216   0.496   2.694  0.5445 -2.1902  0.4063
 1662SOL    HW3 6702   4.365   0.484   2.717  0.4855  0.2772  2.2660
 1662SOL    MW4 6703   4.289   0.523   2.734 -0.1841 -0.2182  0.4747
 1663SOL     OW 6704   4.281   0.785   2.654 -0.0999 -0.4406  0.0096
 1663SOL    HW2 6705   4.274   0.701   2.698  0.4213 -0.4205  0.1390
 1663SOL    HW3 6706   4.298   0.763   2.562 -2.8975 -0.5032 -0.5393
 1663SOL    MW4 6707   4.282   0.771   2.648 -0.4001 -0.4462 -0.0458
 1664SOL     OW 6708   4.028   0.850   2.762  0.4014 -0.2861 -0.0575
 1664SOL    HW2 6709   4.099   0.833   2.701  0.0547 -0.1270 -0.5070
 1664SOL    HW3 6710   3.951   0.810   2.722 -0.3340  1.8951 -0.9388
 1664SOL    MW4 6711   4.028   0.843   2.749  0.2589  0.0226 -0.2329
 1665SOL     OW 6712   4.013   1.120   2.685  0.0102 -0.4874  0.1422
 1665SOL    HW2 6713   4.099   1.146   2.717  0.5776 -0.2534 -1.5344
 1665SOL    HW3 6714   3.996   1.035   2.726  1.3088 -0.8268 -0.0101
 1665SOL    MW4 6715   4.022   1.112   2.695  0.2565 -0.5014 -0.0989
 1666SOL     OW 6716   4.253   1.249   2.770  0.5117 -0.1362 -0.2772
 1666SOL    HW2 6717   4.256   1.334   2.726  1.4147 -0.4486 -0.8206
 1666SOL    HW3 6718   4.328   1.201   2.735  0.2506 -1.0033  0.3447
 1666SOL    MW4 6719   4.263   1.254   2.760  0.5965 -0.2918 -0.2670
 1667SOL     OW 6720   4.234   1.513   2.665 -0.1357  0.2764  0.5202
 1667SOL    HW2 6721   4.314   1.549   2.705 -0.2498  0.4967  0.5537
 1667SOL    HW3 6722   4.245   1.530   2.571  0.9751 -1.8975  0.2287
 1667SOL    MW4 6723   4.246   1.520   2.658 -0.0038  0.0186  0.4861
 1668SOL     OW 6724   4.038   1.655   2.779 -0.4758  0.2165 -0.5488
 1668SOL    HW2 6725   4.054   1.654   2.873 -0.4537  1.6331 -0.5147
 1668SOL    HW3 6726   4.114   1.613   2.740 -1.2384 -1.8494  0.1518
 1668SOL    MW4 6727   4.050   1.650   2.786 -0.5732  0.1307 -0.4518
 1669SOL     OW 6728   4.078   1.890   2.638  0.0923  0.2820  0.4407
 1669SOL    HW2 6729   4.153   1.938   2.671  0.9726  0.1072 -1.2411
 1669SOL    HW3 6730   4.064   1.819   2.700  2.2149 -0.5376 -0.0018
 1669SOL    MW4 6731   4.086   1.887   2.650  0.4892  0.1509  0.1602
 1670SOL     OW 6732   4.298   2.037   2.766 -0.1406  0.3059 -0.4272
 1670SOL    HW2 6733   4.301   2.108   2.701  0.4284 -0.2103 -0.9797
 1670SOL    HW3 6734   4.372   1.981   2.742  1.5522  1.3774  2.1433
 1670SOL    MW4 6735   4.308   2.039   2.754  0.1578  0.3793 -0.1609
 1671SOL     OW 6736   4.236   2.278   2.628  0.6547 -0.7879 -0.1917
 1671SOL    HW2 6737   4.163   2.336   2.652  1.8946  0.5402  0.4637
 1671SOL    HW3 6738   4.257   2.302   2.538  0.5552 -0.8815 -0.2401
 1671SOL    MW4 6739   4.229   2.289   2.619  0.8049 -0.6251 -0.1118
 1672SOL     OW 6740   4.012   2.450   2.712 -0.1641  0.0674 -0.0512
 1672SOL    HW2 6741   4.015   2.452   2.807  0.6738  1.0484 -0.0840
 1672SOL    HW3 6742   3.954   2.377   2.691  1.0417 -1.2791  1.1833
 1672SOL    MW4 6743   4.005   2.441   2.722  0.1054  0.0191  0.1073
 1673SOL     OW 6744   4.049   2.710   2.617 -0.5225 -0.1080 -0.6440
 1673SOL    HW2 6745   4.136   2.737   2.646 -0.4104  0.2332 -1.2921
 1673SOL    HW3 6746   4.040   2.620   2.649  0.7686 -0.7719 -2.0563
 1673SOL    MW4 6747   4.060   2.701   2.625 -0.3376 -0.1504 -0.9158
 1674SOL     OW 6748   4.285   2.811   2.716  0.1497  0.9208 -0.8511
 1674SOL    HW2 6749   4.251   2.791   2.804 -0.8428  1.7911 -1.0313
 1674SOL    HW3 6750   4.273   2.905   2.706  2.2154  1.1798 -1.1144
 1674SOL    MW4 6751   4.279   2.820   2.726  0.2918  1.0695 -0.9096
 1675SOL     OW 6752   4.259   3.067   2.675 -0.3217  0.2604 -0.0981
 1675SOL    HW2 6753   4.190   3.120   2.715 -0.4412  0.4212 -0.5147
 1675SOL    HW3 6754   4.250   3.082   2.581 -0.7259 -0.9567 -0.2628
 1675SOL    MW4 6755   4.249   3.076   2.668 -0.3910  0.1211 -0.1748
 1676SOL     OW 6756   4.044   3.228   2.755  0.0916  0.2508 -0.2374
 1676SOL    HW2 6757   4.050   3.318   2.722  0.9266  0.5846  0.8037
 1676SOL    HW3 6758   3.972   3.189   2.705 -0.6204  1.6501 -0.3322
 1676SOL    MW4 6759   4.035   3.234   2.744  0.1082  0.4799 -0.1125
 1677SOL     OW 6760   4.045   3.497   2.649  0.2915  0.5448  0.3769
 1677SOL    HW2 6761   4.119   3.540   2.691  0.3293  0.5573  0.2993
 1677SOL    HW3 6762   4.066   3.500   2.555  1.6482 -2.1993  0.5519
 1677SOL    MW4 6763   4.057   3.503   2.642  0.4759  0.1845  0.3896
 1678SOL     OW 6764   4.280   3.643   2.735  0.0088  0.3382 -0.5691
 1678SOL    HW2 6765   4.280   3.641   2.830  0.5893  3.0928 -0.4730
 1678SOL    HW3 6766   4.357   3.591   2.710  0.6028  0.6755  0.5199
 1678SOL    MW4 6767   4.291   3.636   2.744  0.1636  0.7460 -0.4129
 1679SOL     OW 6768   4.298   3.904   2.661  0.3911  0.5285 -0.3380
 1679SOL    HW2 6769   4.302   3.812   2.688  0.7967  0.6188 -0.0977
 1679SOL    HW3 6770   4.366   3.948   2.713 -0.7755  1.2310  0.6370
 1679SOL    MW4 6771   4.307   3.898   2.671  0.2904  0.6332 -0.1774
 1680SOL     OW 6772   4.043   3.975   2.736  0.4297  0.2200 -0.2072
 1680SOL    HW2 6773   4.046   3.990   2.831  0.6772  0.2053 -0.2132
 1680SOL    HW3 6774   4.132   3.949   2.713  0.7317  1.6179 -0.6792
 1680SOL    MW4 6775   4.055   3.974   2.746  0.5026  0.4027 -0.2701
 1681SOL     OW 6776   4.055   4.242   2.679  0.2853 -0.1735  0.2916
 1681SOL    HW2 6777   4.039   4.148   2.687  0.3082 -0.1937  0.1011
 1681SOL    HW3 6778   4.074   4.255   2.586  0.6564 -0.0385  0.3874
 1681SOL    MW4 6779   4.055   4.231   2.668  0.3376 -0.1578  0.2792
 1682SOL     OW 6780   4.293   4.372   2.792 -0.6243  0.0922  0.0610
 1682SOL    HW2 6781   4.213   4.327   2.766 -0.2703 -0.0175 -0.8581
 1682SOL    HW3 6782   4.285   4.459   2.753  0.5128 -0.5096 -1.5649
 1682SOL    MW4 6783   4.282   4.378   2.784 -0.4272 -0.0019 -0.2751
 1683SOL     OW 6784   0.234   4.658   3.154 -0.6346 -0.4484 -0.4171
 1683SOL    HW2 6785   0.218   4.671   3.247  0.0520 -1.0482 -0.2134
 1683SOL    HW3 6786   0.168   4.713   3.110 -0.5192  0.3700  0.4189
 1683SOL    MW4 6787   0.223   4.667   3.160 -0.5288 -0.4201 -0.2799
 1684SOL     OW 6788   0.019   0.110   3.006 -0.3127 -0.0368  0.2881
 1684SOL    HW2 6789  -0.057   0.062   3.039 -1.0413  0.9395  0.0371
 1684SOL    HW3 6790   0.014   0.195   3.049 -0.0711  0.4847 -0.7053
 1684SOL    MW4 6791   0.008   0.114   3.016 -0.3770  0.1608  0.1240
 1685SOL     OW 6792   4.464   0.350   3.122 -0.0075 -0.0729 -0.1627
 1685SOL    HW2 6793   4.461   0.362   3.217  0.5593  1.9311 -0.3734
 1685SOL    HW3 6794   4.381   0.386   3.091 -0.1102 -0.5549 -0.4517
 1685SOL    MW4 6795   4.453   0.356   3.130  0.0534  0.1279 -0.2284
 1686SOL     OW 6796   0.200   0.479   3.033  0.0811  0.0140  0.3304
 1686SOL    HW2 6797   0.276   0.425   3.054  0.3618 -0.2630 -1.3013
 1686SOL    HW3 6798   0.125   0.429   3.063  0.3715 -1.0969 -0.7678
 1686SOL    MW4 6799   0.200   0.466   3.040  0.1565 -0.1690 -0.0298
 1687SOL     OW 6800   0.233   0.726   3.160  0.0486 -0.2416 -0.0447
 1687SOL    HW2 6801   0.233   0.713   3.255  0.8799 -0.5208 -0.0761
 1687SOL    HW3 6802   0.219   0.638   3.124 -1.4699  0.0427 -0.1683
 1687SOL    MW4 6803   0.231   0.713   3.168 -0.0421 -0.2409 -0.0648
 1688SOL     OW 6804   0.001   0.859   3.024  0.0484  0.3139 -0.0343
 1688SOL    HW2 6805   0.078   0.810   3.053 -0.5027 -0.0787  0.7774
 1688SOL    HW3 6806   0.010   0.865   2.929  1.4790  0.9331  0.1287
 1688SOL    MW4 6807   0.012   0.853   3.015  0.1640  0.3439  0.0944
 1689SOL     OW 6808   0.004   1.113   3.133 -0.0610 -0.1874 -0.3129
 1689SOL    HW2 6809  -0.075   1.158   3.102 -0.1175  1.0603  1.5347
 1689SOL    HW3 6810  -0.007   1.022   3.106 -0.9484  0.4811 -2.2636
 1689SOL    MW4 6811  -0.008   1.107   3.125 -0.1855  0.0654 -0.3264
 1690SOL     OW 6812   0.222   1.263   3.045 -0.2441  0.4891 -0.2061
 1690SOL    HW2 6813   0.146   1.217   3.080 -0.3323 -0.7907 -1.9973
 1690SOL    HW3 6814   0.215   1.250   2.950  1.2780  1.8171 -0.5058
 1690SOL    MW4 6815   0.211   1.255   3.037 -0.0549  0.4957 -0.4818
 1691SOL     OW 6816   0.252   1.536   3.102  0.1440 -0.4848 -0.2431
 1691SOL    HW2 6817   0.169   1.575   3.074 -0.3840 -0.7915  0.8715
 1691SOL    HW3 6818   0.239   1.442   3.090  0.4116 -0.5199 -0.2528
 1691SOL    MW4 6819   0.239   1.529   3.096  0.1096 -0.5300 -0.0975
 1692SOL     OW 6820   0.006   1.655   3.035 -0.0732 -0.1199 -0.0841
 1692SOL    HW2 6821  -0.044   1.595   3.091  2.2219 -0.8193  1.2792
 1692SOL    HW3 6822  -0.015   1.742   3.070  0.3044 -0.4617  1.0086
 1692SOL    MW4 6823  -0.003   1.658   3.047  0.2793 -0.2573  0.2398
 1693SOL     OW 6824   4.475   1.917   3.130  0.0479  0.3024  0.1657
 1693SOL    HW2 6825   4.413   1.976   3.087 -0.8742 -0.3183  0.6045
 1693SOL    HW3 6826   4.561   1.953   3.110 -0.4686  1.3542 -0.2062
 1693SOL    MW4 6827   4.478   1.929   3.121 -0.1416  0.3593  0.1745
 1694SOL     OW 6828   0.221   2.023   3.015  0.4081  0.5196 -0.0894
 1694SOL    HW2 6829   0.217   2.116   3.038  0.3271  0.5489 -0.2220
 1694SOL    HW3 6830   0.220   2.021   2.920 -0.2259  0.3602 -0.0871
 1694SOL    MW4 6831   0.220   2.035   3.006  0.3137  0.5026 -0.1066
 1695SOL     OW 6832   0.209   2.296   3.095  0.1279 -0.0317 -0.4755
 1695SOL    HW2 6833   0.196   2.302   3.189  0.2335 -2.0117 -0.3023
 1695SOL    HW3 6834   0.286   2.351   3.077  1.1915 -1.0595  0.8697
 1695SOL    MW4 6835   0.218   2.304   3.105  0.2821 -0.4284 -0.2751
 1696SOL     OW 6836   0.009   2.451   2.989  0.3137 -0.0589  0.0982
 1696SOL    HW2 6837   0.027   2.530   3.040  0.7198 -0.3496  0.4099
 1696SOL    HW3 6838   0.079   2.390   3.013 -1.7192 -1.6587  2.2200
 1696SOL    MW4 6839   0.021   2.453   2.999  0.0992 -0.3083  0.4191
 1697SOL     OW 6840   4.470   2.701   3.087  0.0792 -0.7530  0.4451
 1697SOL    HW2 6841   4.471   2.716   3.181  2.3560 -1.8729  0.6270
 1697SOL    HW3 6842   4.550   2.742   3.055 -1.0519  0.3054 -1.1409
 1697SOL    MW4 6843   4.481   2.708   3.095  0.2303 -0.7610  0.2599
 1698SOL     OW 6844   0.228   2.823   3.046 -0.5070  0.3938 -0.0188
 1698SOL    HW2 6845   0.311   2.789   3.080 -0.8354  0.1290  0.5217
 1698SOL    HW3 6846   0.236   2.813   2.951  0.4861  1.3117 -0.0380
 1698SOL    MW4 6847   0.240   2.817   3.038 -0.4193  0.4802  0.0498
 1699SOL     OW 6848   0.204   3.095   3.118  0.1005  0.0575  0.3976
 1699SOL    HW2 6849   0.123   3.127   3.078 -0.1194 -1.5073 -0.4189
 1699SOL    HW3 6850   0.197   3.000   3.116  0.6888 -0.0879  2.9552
 1699SOL    MW4 6851   0.192   3.087   3.113  0.1491 -0.1681  0.6273
 1700SOL     OW 6852   4.479   3.239   3.021  0.1819  0.0289 -0.1632
 1700SOL    HW2 6853   4.400   3.188   3.040  0.9094 -0.5729  1.3264
 1700SOL    HW3 6854   4.485   3.239   2.926 -0.5758 -1.5286 -0.2297
 1700SOL    MW4 6855   4.470   3.232   3.011  0.1779 -0.2561  0.0246
 1701SOL     OW 6856   0.020   3.513   3.092  0.2855 -0.2182  0.8407
 1701SOL    HW2 6857  -0.060   3.555   3.061 -0.0730 -0.5440  1.3102
 1701SOL    HW3 6858   0.009   3.421   3.068  1.1849 -0.0082 -0.4221
 1701SOL    MW4 6859   0.008   3.506   3.085  0.3572 -0.2334  0.7360
 1702SOL     OW 6860   0.267   3.634   3.035  0.0489 -0.0700  0.2732
 1702SOL    HW2 6861   0.265   3.720   3.076 -1.7952  0.7594 -1.4425
 1702SOL    HW3 6862   0.187   3.591   3.066  1.2364 -1.4077  1.5626
 1702SOL    MW4 6863   0.256   3.639   3.045 -0.0377 -0.1371  0.2172
 1703SOL     OW 6864   0.245   3.883   3.141 -0.2025  0.1981  0.3178
 1703SOL    HW2 6865   0.262   3.886   3.235  0.0910  1.7466  0.2380
 1703SOL    HW3 6866   0.322   3.923   3.101 -0.9480  0.8823 -0.4760
 1703SOL    MW4 6867   0.257   3.889   3.148 -0.2622  0.4928  0.2024
 1704SOL     OW 6868   0.030   4.033   3.050  0.1948  0.7107  0.6080
 1704SOL    HW2 6869   0.110   3.990   3.080  0.7207  1.0130 -0.3421
 1704SOL    HW3 6870   0.033   4.025   2.955 -1.6482 -0.5728  0.6542
 1704SOL    MW4 6871   0.041   4.026   3.042  0.0210  0.5808  0.4890
 1705SOL     OW 6872   4.490   4.284   3.138 -0.0314  0.1737  0.0175
 1705SOL    HW2 6873   4.482   4.278   3.234  1.1934  0.0947  0.1286
 1705SOL    HW3 6874   4.482   4.194   3.107 -0.2800  0.1817  0.0600
 1705SOL    MW4 6875   4.488   4.272   3.147  0.0973  0.1645  0.0379
 1706SOL     OW 6876   0.241   4.394   3.052  0.1945 -0.0354  0.1457
 1706SOL    HW2 6877   0.161   4.357   3.090  0.0269  0.5190  0.3411
 1706SOL    HW3 6878   0.238   4.487   3.076  1.3562 -0.1896  0.9187
 1706SOL    MW4 6879   0.230   4.402   3.060  0.3256  0.0172  0.2737
 1707SOL     OW 6880   0.704   4.630   3.070  0.3018  0.1025 -0.5810
 1707SOL    HW2 6881   0.704   4.541   3.035  1.4830 -0.3064  0.4175
 1707SOL    HW3 6882   0.626   4.671   3.032 -0.4011 -1.4352 -0.8446
 1707SOL    MW4 6883   0.694   4.623   3.061  0.3648 -0.1545 -0.4842
 1708SOL     OW 6884   0.454   0.081   3.018  0.3205  0.1697  0.1936
 1708SOL    HW2 6885   0.453   0.168   3.057  1.5302  1.2164 -1.9893
 1708SOL    HW3 6886   0.382   0.035   3.060 -0.8672  2.4803  0.7800
 1708SOL    MW4 6887   0.444   0.086   3.029  0.3234  0.6126 -0.0172
 1709SOL     OW 6888   0.458   0.364   3.099  0.0399  0.1840  0.1615
 1709SOL    HW2 6889   0.469   0.360   3.194  0.2029  1.6125  0.2078
 1709SOL    HW3 6890   0.541   0.400   3.067 -0.4114  0.7009 -0.4313
 1709SOL    MW4 6891   0.470   0.368   3.108  0.0019  0.4407  0.0896
 1710SOL     OW 6892   0.685   0.475   3.027 -0.3794  0.1071 -0.0330
 1710SOL    HW2 6893   0.773   0.446   3.050 -0.8294  0.2083  1.8980
 1710SOL    HW3 6894   0.682   0.567   3.053 -0.6688  0.4433 -1.2195
 1710SOL    MW4 6895   0.696   0.483   3.034 -0.4769  0.1648  0.0651
 1711SOL     OW 6896   0.681   0.732   3.117  0.5002  0.3924 -0.6892
 1711SOL    HW2 6897   0.686   0.743   3.212  0.1739  0.9976 -0.7439
 1711SOL    HW3 6898   0.603   0.780   3.090  0.9390  0.7488 -1.3418
 1711SOL    MW4 6899   0.672   0.740   3.126  0.5151  0.5193 -0.7825
 1712SOL     OW 6900   0.425   0.896   3.061 -0.0130 -0.0715 -0.0868
 1712SOL    HW2 6901   0.347   0.849   3.089 -0.2426 -0.1828 -0.9181
 1712SOL    HW3 6902   0.434   0.876   2.968  1.1847 -0.3191  0.0641
 1712SOL    MW4 6903   0.416   0.887   3.053  0.1147 -0.1189 -0.1767
 1713SOL     OW 6904   0.472   1.153   3.108  0.0514 -0.3431 -0.2169
 1713SOL    HW2 6905   0.448   1.064   3.085 -0.3983 -0.3559  0.3036
 1713SOL    HW3 6906   0.391   1.203   3.100  0.4567  0.1646 -1.2299
 1713SOL    MW4 6907   0.458   1.148   3.104  0.0455 -0.2779 -0.2820
 1714SOL     OW 6908   0.743   1.263   3.010 -0.2600 -0.0834 -0.4498
 1714SOL    HW2 6909   0.809   1.216   3.060 -0.0871  1.7830  1.1548
 1714SOL    HW3 6910   0.660   1.241   3.052 -0.3063  0.0685 -0.4587
 1714SOL    MW4 6911   0.741   1.254   3.022 -0.2433  0.1829 -0.2394
 1715SOL     OW 6912   0.696   1.546   3.136 -0.0850 -0.0215 -0.3521
 1715SOL    HW2 6913   0.713   1.548   3.230  0.2273 -1.0173 -0.3849
 1715SOL    HW3 6914   0.715   1.456   3.110 -1.2693 -0.0373 -1.1730
 1715SOL    MW4 6915   0.701   1.535   3.145 -0.2000 -0.1550 -0.4649
 1716SOL     OW 6916   0.480   1.685   3.037  0.3031 -0.0221  0.1388
 1716SOL    HW2 6917   0.562   1.645   3.065  0.1674 -0.7629 -0.4676
 1716SOL    HW3 6918   0.412   1.626   3.069  0.0397  0.2902  0.1609
 1716SOL    MW4 6919   0.482   1.672   3.045  0.2505 -0.0786  0.0615
 1717SOL     OW 6920   0.467   1.938   3.131 -0.3364  0.0375  0.1817
 1717SOL    HW2 6921   0.477   1.846   3.106 -0.8882 -0.3970  1.5358
 1717SOL    HW3 6922   0.391   1.968   3.082  1.6350  0.6563 -2.6429
 1717SOL    MW4 6923   0.458   1.929   3.121 -0.1491  0.0620 -0.0126
 1718SOL     OW 6924   0.699   2.063   3.053 -0.0975 -0.2153 -0.1055
 1718SOL    HW2 6925   0.774   2.034   3.105 -0.2433 -0.9112 -0.2751
 1718SOL    HW3 6926   0.625   2.014   3.089 -0.6961  1.3261  0.8412
 1718SOL    MW4 6927   0.699   2.053   3.065 -0.1957 -0.1037 -0.0029
 1719SOL     OW 6928   0.645   2.333   3.126 -0.2771  0.1703 -0.4929
 1719SOL    HW2 6929   0.646   2.340   3.222 -0.9133  1.1470 -0.5488
 1719SOL    HW3 6930   0.663   2.241   3.108  0.4565  0.1015  0.5531
 1719SOL    MW4 6931   0.647   2.322   3.137 -0.2642  0.2902 -0.3624
 1720SOL     OW 6932   0.409   2.443   2.994  0.3731 -0.0076 -0.1243
 1720SOL    HW2 6933   0.485   2.402   3.036  0.8808 -0.0154 -1.0451
 1720SOL    HW3 6934   0.425   2.434   2.900 -0.6797  0.1560 -0.3298
 1720SOL    MW4 6935   0.421   2.436   2.987  0.3012  0.0126 -0.2728
 1721SOL     OW 6936   0.465   2.709   3.105  0.6845  0.2964  0.1267
 1721SOL    HW2 6937   0.528   2.757   3.052 -0.9024 -0.2690 -2.3401
 1721SOL    HW3 6938   0.458   2.623   3.063 -1.7967  0.3908  0.2700
 1721SOL    MW4 6939   0.472   2.704   3.093  0.1478  0.2344 -0.1798
 1722SOL     OW 6940   0.673   2.844   3.005 -0.1111 -0.4324 -0.1538
 1722SOL    HW2 6941   0.760   2.808   3.026 -0.0013  0.0689  0.2581
 1722SOL    HW3 6942   0.667   2.923   3.058 -0.0654  0.5513 -1.5990
 1722SOL    MW4 6943   0.684   2.849   3.015 -0.0907 -0.2365 -0.2902
 1723SOL     OW 6944   0.667   3.089   3.124 -0.4627  0.6232 -0.0911
 1723SOL    HW2 6945   0.673   3.080   3.219  2.1586  0.8001 -0.2105
 1723SOL    HW3 6946   0.580   3.126   3.109 -1.0498  0.2322  2.2141
 1723SOL    MW4 6947   0.656   3.093   3.134 -0.1943  0.5949  0.1974
 1724SOL     OW 6948   0.442   3.192   3.026 -0.0967  0.3454  0.2885
 1724SOL    HW2 6949   0.440   3.285   3.050 -1.7553  0.8079 -1.5825
 1724SOL    HW3 6950   0.358   3.158   3.055  1.3112 -1.1247  2.8780
 1724SOL    MW4 6951   0.431   3.200   3.033 -0.1297  0.2124  0.3831
 1725SOL     OW 6952   0.456   3.448   3.101 -0.3884 -0.5275 -0.0236
 1725SOL    HW2 6953   0.464   3.459   3.195  0.1895  0.0545 -0.1285
 1725SOL    HW3 6954   0.387   3.510   3.075 -1.8638 -2.0389  0.2548
 1725SOL    MW4 6955   0.448   3.458   3.110 -0.5068 -0.6499 -0.0007
 1726SOL     OW 6956   0.678   3.569   2.973 -0.2053 -0.6629  0.0781
 1726SOL    HW2 6957   0.762   3.530   2.998 -0.7038 -1.7177  0.1132
 1726SOL    HW3 6958   0.613   3.515   3.017 -0.9017  0.2356  0.1563
 1726SOL    MW4 6959   0.681   3.557   2.982 -0.3630 -0.6835  0.0932
 1727SOL     OW 6960   0.702   3.838   3.071  0.0722 -0.4452  0.1054
 1727SOL    HW2 6961   0.700   3.826   3.166 -2.1909  0.5537  0.2247
 1727SOL    HW3 6962   0.693   3.750   3.035  1.7043 -0.9089  0.8036
 1727SOL    MW4 6963   0.700   3.825   3.079 -0.0110 -0.3748  0.2129
 1728SOL     OW 6964   0.466   4.015   3.025  0.2036 -0.1697 -0.1899
 1728SOL    HW2 6965   0.544   3.962   3.042  0.7782  0.2749 -1.4049
 1728SOL    HW3 6966   0.456   4.014   2.930 -1.8051 -0.9705 -0.0011
 1728SOL    MW4 6967   0.475   4.008   3.015  0.0144 -0.2160 -0.3252
 1729SOL     OW 6968   0.487   4.260   3.141 -0.3009 -0.0969 -0.2195
 1729SOL    HW2 6969   0.472   4.188   3.080 -1.5857  0.2070 -0.2803
 1729SOL    HW3 6970   0.417   4.322   3.122  0.1833  0.6944  0.5442
 1729SOL    MW4 6971   0.476   4.259   3.130 -0.4065  0.0477 -0.1268
 1730SOL     OW 6972   0.739   4.355   3.004 -0.1384  0.2226  0.3929
 1730SOL    HW2 6973   0.666   4.327   3.059 -1.2306  3.2265  0.5602
 1730SOL    HW3 6974   0.706   4.346   2.914  0.2174 -0.8357  0.3586
 1730SOL    MW4 6975   0.725   4.350   2.999 -0.2355  0.4792  0.4103
 1731SOL     OW 6976   1.180   4.650   3.117  0.4278  0.5418 -0.7550
 1731SOL    HW2 6977   1.248   4.713   3.092 -0.6227  2.0105  0.0300
 1731SOL    HW3 6978   1.098   4.694   3.094 -0.3356 -0.2959  0.3672
 1731SOL    MW4 6979   1.179   4.664   3.110  0.1886  0.6251 -0.5035
 1732SOL     OW 6980   0.939   0.088   3.003  0.1601  0.0654  0.1977
 1732SOL    HW2 6981   0.925   0.180   3.026 -0.6896  0.4015 -1.6013
 1732SOL    HW3 6982   0.864   0.042   3.042 -0.6369  0.4612 -0.8648
 1732SOL    MW4 6983   0.927   0.094   3.011 -0.0572  0.1620 -0.1798
 1733SOL     OW 6984   0.930   0.350   3.113  0.2944 -0.2911  0.1067
 1733SOL    HW2 6985   0.927   0.337   3.208 -0.7760  0.1303  0.1359
 1733SOL    HW3 6986   1.001   0.413   3.100 -1.0775  1.4601  0.8521
 1733SOL    MW4 6987   0.939   0.357   3.124 -0.0280 -0.0044  0.2089
 1734SOL     OW 6988   1.152   0.528   3.066  0.4086  0.3279 -0.3676
 1734SOL    HW2 6989   1.211   0.460   3.099 -1.1868 -0.9873 -0.1211
 1734SOL    HW3 6990   1.143   0.508   2.973 -0.5867 -0.2247 -0.1611
 1734SOL    MW4 6991   1.159   0.516   3.058  0.0669  0.0815 -0.3073
 1735SOL     OW 6992   1.137   0.777   3.182 -0.0984  0.5540 -0.2736
 1735SOL    HW2 6993   1.128   0.777   3.277 -1.1652  2.0033 -0.3524
 1735SOL    HW3 6994   1.140   0.684   3.158 -1.6974  0.1375  1.0191
 1735SOL    MW4 6995   1.136   0.765   3.191 -0.4500  0.6903 -0.1132
 1736SOL     OW 6996   0.921   0.885   3.062 -0.1982  0.1191 -0.1687
 1736SOL    HW2 6997   1.002   0.855   3.102 -0.7423  1.0772  1.7533
 1736SOL    HW3 6998   0.852   0.842   3.113 -0.9034 -0.4491 -1.5869
 1736SOL    MW4 6999   0.922   0.876   3.074 -0.3631  0.1706 -0.1025
 1737SOL     OW 7000   0.950   1.140   3.165  0.4955  0.0410  0.0572
 1737SOL    HW2 7001   1.012   1.192   3.114  0.2790  0.6240  0.3737
 1737SOL    HW3 7002   0.940   1.059   3.116  0.4375  0.5118 -0.7254
 1737SOL    MW4 7003   0.956   1.136   3.152  0.4593  0.1800 -0.0043
 1738SOL     OW 7004   1.143   1.305   3.035 -0.2036  0.3673  0.2377
 1738SOL    HW2 7005   1.214   1.247   3.062  1.2413  1.9466 -0.0232
 1738SOL    HW3 7006   1.149   1.307   2.939 -0.7315  0.3623  0.2019
 1738SOL    MW4 7007   1.153   1.298   3.026 -0.0826  0.5749  0.1986
 1739SOL     OW 7008   1.125   1.571   3.122 -0.1968 -0.0776  0.1599
 1739SOL    HW2 7009   1.209   1.601   3.088  0.4009  0.6832  2.2474
 1739SOL    HW3 7010   1.120   1.478   3.097  1.5910 -0.3134  0.6517
 1739SOL    MW4 7011   1.135   1.562   3.114  0.1180 -0.0083  0.5002
 1740SOL     OW 7012   0.890   1.711   3.035 -0.2670  0.1938  0.4197
 1740SOL    HW2 7013   0.965   1.676   3.082 -1.4321 -0.2506  1.9982
 1740SOL    HW3 7014   0.818   1.651   3.057 -0.9716  0.3107 -1.4624
 1740SOL    MW4 7015   0.890   1.699   3.044 -0.5137  0.1506  0.3796
 1741SOL     OW 7016   0.931   1.958   3.153 -0.1049 -0.8835  0.1998
 1741SOL    HW2 7017   0.917   1.939   3.245  1.7889 -1.3174  0.4108
 1741SOL    HW3 7018   0.922   1.874   3.109 -0.0371 -0.8429  0.1084
 1741SOL    MW4 7019   0.928   1.945   3.159  0.1539 -0.9353  0.2153
 1742SOL     OW 7020   1.151   2.060   3.034  0.1194 -0.4426  0.3477
 1742SOL    HW2 7021   1.070   2.026   3.072  0.5527 -1.4095  0.4166
 1742SOL    HW3 7022   1.138   2.054   2.940  0.4862 -1.5008  0.3640
 1742SOL    MW4 7023   1.139   2.055   3.027  0.2249 -0.7100  0.3588
 1743SOL     OW 7024   1.149   2.337   3.110 -0.2431 -0.5740 -0.0496
 1743SOL    HW2 7025   1.065   2.372   3.078 -0.3818 -0.8270  0.0377
 1743SOL    HW3 7026   1.154   2.249   3.073 -0.7692 -1.1687  1.2546
 1743SOL    MW4 7027   1.138   2.330   3.101 -0.3308 -0.6859  0.1338
 1744SOL     OW 7028   0.885   2.433   3.048 -0.2475  0.2707 -0.3835
 1744SOL    HW2 7029   0.800   2.395   3.067  0.4256 -1.1253 -0.1388
 1744SOL    HW3 7030   0.887   2.440   2.953 -1.1473  1.5368 -0.3289
 1744SOL    MW4 7031   0.874   2.429   3.038 -0.2775  0.2534 -0.3440
 1745SOL     OW 7032   0.906   2.698   3.080 -0.3351 -0.0259  0.1430
 1745SOL    HW2 7033   0.894   2.711   3.174 -2.4383 -1.5579  0.1208
 1745SOL    HW3 7034   0.888   2.605   3.066 -1.0585  0.3936 -1.9108
 1745SOL    MW4 7035   0.902   2.687   3.090 -0.7080 -0.1729 -0.1309
 1746SOL     OW 7036   1.131   2.830   3.010  0.2955  0.2251 -0.2629
 1746SOL    HW2 7037   1.126   2.920   3.042 -0.3549  0.2780 -0.4892
 1746SOL    HW3 7038   1.057   2.786   3.052 -0.3229  0.1916 -1.3621
 1746SOL    MW4 7039   1.120   2.836   3.020  0.1281  0.2275 -0.4377
 1747SOL     OW 7040   1.147   3.090   3.143 -0.0420 -0.5399  0.0139
 1747SOL    HW2 7041   1.220   3.138   3.104  0.8192 -1.0477  0.9870
 1747SOL    HW3 7042   1.070   3.144   3.125  0.5873  0.0623 -0.9061
 1747SOL    MW4 7043   1.146   3.103   3.135  0.1546 -0.5271  0.0210
 1748SOL     OW 7044   0.919   3.199   3.057 -0.5390  0.0062 -0.1046
 1748SOL    HW2 7045   0.828   3.174   3.074 -0.7462  0.3311 -0.7209
 1748SOL    HW3 7046   0.923   3.214   2.963 -0.3590  2.0252  0.2002
 1748SOL    MW4 7047   0.908   3.198   3.047 -0.5426  0.3152 -0.1457
 1749SOL     OW 7048   0.927   3.473   3.110 -0.0189 -0.3749 -0.1077
 1749SOL    HW2 7049   1.003   3.510   3.065 -0.1825 -1.5037 -1.3392
 1749SOL    HW3 7050   0.924   3.382   3.082 -2.3395 -0.1130 -0.7834
 1749SOL    MW4 7051   0.936   3.466   3.100 -0.3467 -0.4892 -0.3593
 1750SOL     OW 7052   1.137   3.650   3.025 -0.1789 -0.6001  0.3988
 1750SOL    HW2 7053   1.215   3.608   3.061  0.2855  0.0558  0.1551
 1750SOL    HW3 7054   1.142   3.741   3.053 -1.3190 -0.7534  1.1350
 1750SOL    MW4 7055   1.148   3.656   3.033 -0.2681 -0.5336  0.4637
 1751SOL     OW 7056   1.170   3.897   3.136 -0.0538 -0.4756 -0.2593
 1751SOL    HW2 7057   1.153   3.870   3.226  1.6527 -0.7368 -0.0062
 1751SOL    HW3 7058   1.088   3.937   3.107 -0.2130  0.8300  1.8660
 1751SOL    MW4 7059   1.157   3.899   3.144  0.1503 -0.3378  0.0546
 1752SOL     OW 7060   0.944   3.996   3.013  0.8692 -0.2331  0.0441
 1752SOL    HW2 7061   0.860   3.953   3.032  0.5801  0.3041  0.0003
 1752SOL    HW3 7062   0.940   4.015   2.920  0.7342  0.4444  0.1863
 1752SOL    MW4 7063   0.932   3.993   3.004  0.8132 -0.0727  0.0572
 1753SOL     OW 7064   0.945   4.237   3.138 -0.2583  0.7741  0.1026
 1753SOL    HW2 7065   0.951   4.151   3.096 -0.0907  0.8120  0.0465
 1753SOL    HW3 7066   0.870   4.279   3.096 -0.4712  0.5713  0.2835
 1753SOL    MW4 7067   0.936   4.231   3.127 -0.2642  0.7524  0.1190
 1754SOL     OW 7068   1.112   4.419   2.993 -0.0782 -0.6705 -0.3021
 1754SOL    HW2 7069   1.058   4.370   3.055  0.4497 -0.1031  0.6196
 1754SOL    HW3 7070   1.133   4.500   3.039  2.6037 -1.4189 -0.1239
 1754SOL    MW4 7071   1.108   4.423   3.007  0.3452 -0.6943 -0.1569
 1755SOL     OW 7072   1.583   4.651   3.079 -0.5465  0.1917 -0.7527
 1755SOL    HW2 7073   1.584   4.655   3.175 -0.8674 -0.7766 -0.7056
 1755SOL    HW3 7074   1.511   4.708   3.053 -0.6952  0.1645 -0.4007
 1755SOL    MW4 7075   1.574   4.659   3.088 -0.6084  0.0606 -0.7000
 1756SOL     OW 7076   1.366   0.131   3.007 -0.0783 -0.0536  0.0416
 1756SOL    HW2 7077   1.361   0.221   3.040  0.4064  0.2120 -0.5949
 1756SOL    HW3 7078   1.347   0.139   2.914  1.0900 -0.4572 -0.2385
 1756SOL    MW4 7079   1.363   0.144   2.999  0.1397 -0.0718 -0.0792
 1757SOL     OW 7080   1.361   0.372   3.136 -0.2826 -0.5005  0.4718
 1757SOL    HW2 7081   1.384   0.364   3.229  0.1758 -1.4903  0.2800
 1757SOL    HW3 7082   1.433   0.422   3.098 -0.0458 -0.8220  0.4925
 1757SOL    MW4 7083   1.374   0.377   3.143 -0.1910 -0.6735  0.4494
 1758SOL     OW 7084   1.548   0.517   3.005  0.1243  0.2462  0.6206
 1758SOL    HW2 7085   1.556   0.607   3.036  0.6853  0.4839 -0.1852
 1758SOL    HW3 7086   1.566   0.522   2.911  0.0163 -0.6859  0.5371
 1758SOL    MW4 7087   1.551   0.529   2.996  0.1841  0.1546  0.5031
 1759SOL     OW 7088   1.574   0.776   3.114 -0.2105 -0.1173  0.0444
 1759SOL    HW2 7089   1.571   0.778   3.210  0.3316  0.7404  0.0500
 1759SOL    HW3 7090   1.490   0.814   3.087  0.2565  1.0524  0.1896
 1759SOL    MW4 7091   1.563   0.781   3.123 -0.0774  0.1501  0.0644
 1760SOL     OW 7092   1.339   0.871   3.022 -0.1453  0.1967  0.1092
 1760SOL    HW2 7093   1.347   0.961   3.054 -1.3541  0.1923  0.4286
 1760SOL    HW3 7094   1.274   0.831   3.080  0.4226 -0.8974 -0.0051
 1760SOL    MW4 7095   1.332   0.878   3.034 -0.2298  0.0517  0.1361
 1761SOL     OW 7096   1.329   1.130   3.130 -0.0061  0.2274  0.3865
 1761SOL    HW2 7097   1.330   1.134   3.225  1.2059 -0.3812  0.4066
 1761SOL    HW3 7098   1.408   1.177   3.103  1.8017 -2.9740 -0.1554
 1761SOL    MW4 7099   1.339   1.136   3.139  0.3924 -0.2751  0.3176
 1762SOL     OW 7100   1.549   1.293   3.051  0.3066 -0.5050 -0.1781
 1762SOL    HW2 7101   1.637   1.262   3.073  0.9350  1.0691 -0.3648
 1762SOL    HW3 7102   1.545   1.381   3.088 -0.8821 -0.2332 -0.9127
 1762SOL    MW4 7103   1.560   1.301   3.058  0.2326 -0.2614 -0.2995
 1763SOL     OW 7104   1.574   1.551   3.175 -0.0173 -0.2844  0.4926
 1763SOL    HW2 7105   1.657   1.576   3.134 -0.1718 -1.9902 -0.9413
 1763SOL    HW3 7106   1.507   1.591   3.120 -0.1687  0.9256  1.5353
 1763SOL    MW4 7107   1.576   1.559   3.162 -0.0578 -0.3498  0.4408
 1764SOL     OW 7108   1.374   1.637   3.004 -0.3202 -0.2126 -0.0496
 1764SOL    HW2 7109   1.376   1.721   3.049  0.9017 -1.1812  1.7951
 1764SOL    HW3 7110   1.404   1.656   2.915  0.1217  1.2578  0.4040
 1764SOL    MW4 7111   1.378   1.651   2.998 -0.1007 -0.1464  0.2534
 1765SOL     OW 7112   1.343   1.884   3.143 -0.0300  0.2458  0.7744
 1765SOL    HW2 7113   1.346   1.895   3.238 -0.2591  0.7736  0.7247
 1765SOL    HW3 7114   1.274   1.944   3.115  0.5507  0.6349  0.1900
 1765SOL    MW4 7115   1.334   1.893   3.152  0.0165  0.3668  0.6909
 1766SOL     OW 7116   1.559   2.015   3.053 -0.2816 -0.4512  0.1084
 1766SOL    HW2 7117   1.477   1.973   3.082 -0.5039  1.0844  1.8362
 1766SOL    HW3 7118   1.553   2.017   2.958 -2.0109 -0.8961  0.1928
 1766SOL    MW4 7119   1.547   2.010   3.044 -0.5391 -0.3073  0.3476
 1767SOL     OW 7120   1.396   2.435   3.008  0.3992  0.2018  0.3245
 1767SOL    HW2 7121   1.318   2.393   3.045 -0.1986  0.6327 -0.4331
 1767SOL    HW3 7122   1.468   2.404   3.064 -0.6495  2.0265  2.7847
 1767SOL    MW4 7123   1.395   2.425   3.021  0.1818  0.4995  0.5493
 1768SOL     OW 7124   1.352   2.409   2.749 -0.4508  0.1714 -0.1073
 1768SOL    HW2 7125   1.376   2.435   2.838 -0.4806 -0.3691  0.0626
 1768SOL    HW3 7126   1.434   2.382   2.709 -0.6017 -0.6475  0.1224
 1768SOL    MW4 7127   1.366   2.409   2.756 -0.4747 -0.0079 -0.0544
 1769SOL     OW 7128   1.360   2.706   3.111 -0.0837 -0.0575 -0.3041
 1769SOL    HW2 7129   1.384   2.625   3.066  1.1787  0.7004 -1.0169
 1769SOL    HW3 7130   1.280   2.736   3.067 -0.3016 -0.6776 -0.3300
 1769SOL    MW4 7131   1.352   2.699   3.099  0.0540 -0.0393 -0.4015
 1770SOL     OW 7132   1.572   2.881   3.048  0.3362 -0.4109 -0.2646
 1770SOL    HW2 7133   1.646   2.823   3.063  0.1310 -0.8085 -0.7695
 1770SOL    HW3 7134   1.498   2.836   3.089  0.0138 -0.9130 -1.3848
 1770SOL    MW4 7135   1.572   2.867   3.055  0.2667 -0.5295 -0.4790
 1771SOL     OW 7136   1.605   3.134   3.096 -0.0995  0.3395 -0.1454
 1771SOL    HW2 7137   1.603   3.146   3.191  0.2717 -0.7565  0.0141
 1771SOL    HW3 7138   1.611   3.039   3.084 -0.0310  0.4737 -1.2630
 1771SOL    MW4 7139   1.606   3.123   3.107 -0.0416  0.2127 -0.2720
 1772SOL     OW 7140   1.364   3.221   3.021 -0.4382  0.1072  0.2429
 1772SOL    HW2 7141   1.445   3.180   3.050 -0.3424  0.4630  0.4824
 1772SOL    HW3 7142   1.364   3.211   2.926 -0.7551 -1.0704  0.3537
 1772SOL    MW4 7143   1.374   3.214   3.013 -0.4674 -0.0012  0.2892
 1773SOL     OW 7144   1.338   3.487   3.115  0.0689  0.4229  0.0129
 1773SOL    HW2 7145   1.345   3.472   3.210  1.7184  1.0102  0.0125
 1773SOL    HW3 7146   1.338   3.399   3.077 -0.1764  0.1935  0.5383
 1773SOL    MW4 7147   1.339   3.474   3.123  0.2543  0.4702  0.0823
 1774SOL     OW 7148   1.586   3.596   3.037 -0.2280 -0.2756 -0.5018
 1774SOL    HW2 7149   1.500   3.561   3.059 -0.2225 -1.2187 -1.8750
 1774SOL    HW3 7150   1.592   3.586   2.942  0.4329  2.0079 -0.7376
 1774SOL    MW4 7151   1.575   3.590   3.027 -0.1401 -0.0987 -0.7143
 1775SOL     OW 7152   1.589   3.864   3.125  0.2112  0.2307 -0.2019
 1775SOL    HW2 7153   1.663   3.898   3.075  0.3298  0.2864  0.0117
 1775SOL    HW3 7154   1.569   3.780   3.085 -0.1974  0.6346 -0.8501
 1775SOL    MW4 7155   1.596   3.857   3.113  0.1730  0.2913 -0.2594
 1776SOL     OW 7156   1.385   3.998   3.000 -0.1953  0.0559  0.4737
 1776SOL    HW2 7157   1.469   3.970   3.037 -0.0734 -0.6565 -0.3231
 1776SOL    HW3 7158   1.319   3.954   3.054 -0.0056 -1.6087 -0.6294
 1776SOL    MW4 7159   1.387   3.989   3.012 -0.1541 -0.2577  0.2229
 1777SOL     OW 7160   1.362   4.271   3.086  0.4177 -0.1441  0.2697
 1777SOL    HW2 7161   1.360   4.183   3.048  0.2490  0.6441 -1.5908
 1777SOL    HW3 7162   1.292   4.318   3.042 -0.8092  0.3804  2.6860
 1777SOL    MW4 7163   1.353   4.266   3.075  0.2335  0.0291  0.3431
 1778SOL     OW 7164   1.607   4.389   2.986 -0.3157  0.1070  0.2183
 1778SOL    HW2 7165   1.525   4.351   3.018  0.1085  0.0805  1.3129
 1778SOL    HW3 7166   1.604   4.480   3.015 -1.3466  0.9583 -2.4268
 1778SOL    MW4 7167   1.596   4.396   2.994 -0.3957  0.2160  0.0138
 1779SOL     OW 7168   2.015   4.616   3.125  0.1041 -0.1090  0.2684
 1779SOL    HW2 7169   2.029   4.628   3.219 -0.5295  0.8210  0.2596
 1779SOL    HW3 7170   1.947   4.680   3.103  0.1293 -0.4348 -0.7892
 1779SOL    MW4 7171   2.008   4.626   3.134  0.0241 -0.0296  0.1276
 1780SOL     OW 7172   1.808   0.135   3.011  0.1526 -0.1199 -0.3332
 1780SOL    HW2 7173   1.733   0.079   3.034  0.2586 -0.4450 -0.7653
 1780SOL    HW3 7174   1.818   0.123   2.916  1.2040 -0.6420 -0.1630
 1780SOL    MW4 7175   1.799   0.126   3.001  0.3053 -0.2317 -0.3679
 1781SOL     OW 7176   1.763   0.377   3.145  0.4595  0.3743 -0.0593
 1781SOL    HW2 7177   1.777   0.303   3.085 -0.3361  0.1256  0.0593
 1781SOL    HW3 7178   1.714   0.441   3.094 -0.9928 -0.2010  0.5705
 1781SOL    MW4 7179   1.759   0.375   3.130  0.1630  0.2656  0.0393
 1782SOL     OW 7180   1.997   0.501   3.055  0.1311 -0.5582  0.0102
 1782SOL    HW2 7181   1.916   0.464   3.092 -0.6547  0.9355 -0.1731
 1782SOL    HW3 7182   2.002   0.465   2.967 -1.1373  0.4915 -0.5093
 1782SOL    MW4 7183   1.987   0.491   3.048 -0.1400 -0.2227 -0.0830
 1783SOL     OW 7184   2.011   0.770   3.148  0.2656  0.3992 -0.2387
 1783SOL    HW2 7185   1.943   0.818   3.101 -1.2638 -1.3280  0.1879
 1783SOL    HW3 7186   2.013   0.684   3.107  0.3249 -0.4537  1.4900
 1783SOL    MW4 7187   2.003   0.765   3.137  0.0713  0.0588  0.0458
 1784SOL     OW 7188   1.808   0.911   3.019 -0.6671  0.2984  0.5860
 1784SOL    HW2 7189   1.729   0.858   3.030  0.0629 -0.8213  0.5542
 1784SOL    HW3 7190   1.829   0.903   2.926 -0.6795  0.8352  0.5366
 1784SOL    MW4 7191   1.801   0.903   3.008 -0.5724  0.2215  0.5753
 1785SOL     OW 7192   1.792   1.175   3.119 -0.1609  0.0418 -0.0997
 1785SOL    HW2 7193   1.789   1.166   3.214  0.5444 -1.5287 -0.2129
 1785SOL    HW3 7194   1.778   1.086   3.086  3.1415 -0.0741 -1.3904
 1785SOL    MW4 7195   1.789   1.162   3.127  0.3679 -0.1807 -0.2851
 1786SOL     OW 7196   2.030   1.259   3.007  0.4218 -0.2133  0.3742
 1786SOL    HW2 7197   2.100   1.208   3.048  1.0122  1.8133  1.9875
 1786SOL    HW3 7198   1.952   1.236   3.057  0.2600 -1.1640 -0.3067
 1786SOL    MW4 7199   2.029   1.249   3.019  0.4785 -0.0713  0.4969
 1787SOL     OW 7200   2.038   1.516   3.130  0.1706 -0.2591  0.5637
 1787SOL    HW2 7201   2.028   1.511   3.225  0.0848  0.9951  0.6388
 1787SOL    HW3 7202   2.029   1.426   3.100 -0.9881 -0.5149  1.6321
 1787SOL    MW4 7203   2.036   1.504   3.139  0.0064 -0.1273  0.7145
 1788SOL     OW 7204   1.798   1.658   3.033  0.2062  0.1008  0.2461
 1788SOL    HW2 7205   1.790   1.737   3.086 -0.4561  0.5769 -0.5429
 1788SOL    HW3 7206   1.887   1.627   3.049  0.5153  1.0747  0.4750
 1788SOL    MW4 7207   1.809   1.664   3.042  0.1596  0.2921  0.1721
 1789SOL     OW 7208   1.817   1.911   3.199 -0.1579  0.0104  0.0628
 1789SOL    HW2 7209   1.888   1.953   3.150 -0.0292 -0.3997 -0.1061
 1789SOL    HW3 7210   1.737   1.951   3.165  0.0554  1.4998  1.2444
 1789SOL    MW4 7211   1.816   1.922   3.188 -0.1129  0.1529  0.1965
 1790SOL     OW 7212   2.006   2.046   3.057 -0.1460 -0.1333  0.1767
 1790SOL    HW2 7213   2.087   1.999   3.079 -1.7889 -2.4657  1.4955
 1790SOL    HW3 7214   2.025   2.137   3.079  2.5935 -0.4016 -0.9018
 1790SOL    MW4 7215   2.019   2.052   3.063 -0.0014 -0.4764  0.2084
 1791SOL     OW 7216   2.078   2.298   3.110 -0.2741  0.1915 -0.0322
 1791SOL    HW2 7217   2.156   2.335   3.068  0.3149 -1.0872 -0.0756
 1791SOL    HW3 7218   2.010   2.364   3.095  1.3779  2.4931  2.1374
 1791SOL    MW4 7219   2.080   2.312   3.102  0.0217  0.3269  0.2484
 1792SOL     OW 7220   1.835   2.451   3.050  0.1562  0.1391 -0.6316
 1792SOL    HW2 7221   1.814   2.543   3.070  0.3628  0.1733 -0.5693
 1792SOL    HW3 7222   1.767   2.401   3.095  0.4858  0.2292 -0.0304
 1792SOL    MW4 7223   1.823   2.457   3.059  0.2270  0.1554 -0.5441
 1793SOL     OW 7224   1.790   2.715   3.102  0.3505  0.3000  0.0941
 1793SOL    HW2 7225   1.800   2.702   3.197 -0.3473  0.0661  0.1326
 1793SOL    HW3 7226   1.868   2.765   3.077  0.5936  0.2658  0.7729
 1793SOL    MW4 7227   1.802   2.720   3.111  0.2904  0.2649  0.1888
 1794SOL     OW 7228   2.006   2.854   3.018  0.1683  0.2575  0.0195
 1794SOL    HW2 7229   2.011   2.937   3.065 -2.4129  0.7097 -0.4274
 1794SOL    HW3 7230   1.999   2.879   2.926 -1.6516 -0.3847 -0.0432
 1794SOL    MW4 7231   2.006   2.868   3.012 -0.4122  0.2327 -0.0474
 1795SOL     OW 7232   2.061   3.133   3.109  0.0493 -0.2901  0.3886
 1795SOL    HW2 7233   2.041   3.133   3.203 -0.5604 -1.7970  0.2815
 1795SOL    HW3 7234   1.984   3.171   3.068  0.6731  1.1879  0.5441
 1795SOL    MW4 7235   2.048   3.138   3.116  0.0513 -0.2937  0.3951
 1796SOL     OW 7236   1.833   3.240   2.989  0.0567 -0.4667 -0.1011
 1796SOL    HW2 7237   1.752   3.202   3.023 -0.7358  1.8381  0.6435
 1796SOL    HW3 7238   1.827   3.226   2.894 -0.3878 -1.8581  0.1203
 1796SOL    MW4 7239   1.821   3.233   2.981 -0.1065 -0.3462  0.0265
 1797SOL     OW 7240   1.835   3.486   3.111 -0.1611 -0.0696 -0.5769
 1797SOL    HW2 7241   1.838   3.405   3.060  0.6441 -0.3595 -0.0713
 1797SOL    HW3 7242   1.767   3.538   3.068  0.8712 -0.0872 -2.2802
 1797SOL    MW4 7243   1.827   3.482   3.099  0.0814 -0.1104 -0.7350
 1798SOL     OW 7244   2.050   3.612   2.975  0.4109  0.3326  0.7975
 1798SOL    HW2 7245   2.035   3.690   3.029 -0.4684  1.1108 -0.5542
 1798SOL    HW3 7246   1.976   3.555   2.993 -0.0468  0.7294  0.1735
 1798SOL    MW4 7247   2.038   3.615   2.984  0.2344  0.4878  0.5369
 1799SOL     OW 7248   2.020   3.846   3.118  0.0337  0.3440 -0.1110
 1799SOL    HW2 7249   2.018   3.851   3.213 -1.4632 -2.1957  0.0270
 1799SOL    HW3 7250   1.944   3.897   3.089 -0.8936 -0.8804  0.1609
 1799SOL    MW4 7251   2.010   3.854   3.127 -0.2859 -0.1526 -0.0570
 1800SOL     OW 7252   1.807   3.980   3.014 -0.4268 -0.2349 -0.3374
 1800SOL    HW2 7253   1.794   4.073   3.035  1.7820  0.3369 -1.3203
 1800SOL    HW3 7254   1.811   3.977   2.918 -0.4647 -1.3479 -0.3120
 1800SOL    MW4 7255   1.806   3.992   3.004 -0.1403 -0.3059 -0.4637
 1801SOL     OW 7256   1.793   4.240   3.103 -0.6849 -0.2608  0.1206
 1801SOL    HW2 7257   1.878   4.281   3.089 -0.8606  0.2001  0.3643
 1801SOL    HW3 7258   1.730   4.301   3.066 -0.9500 -0.3226  0.4610
 1801SOL    MW4 7259   1.796   4.253   3.097 -0.7430 -0.2079  0.1976
 1802SOL     OW 7260   2.037   4.357   3.030 -0.1972 -0.1186 -0.3307
 1802SOL    HW2 7261   2.039   4.445   3.066 -1.2101  0.1045 -0.8092
 1802SOL    HW3 7262   2.024   4.369   2.936 -0.6463 -0.7781 -0.3590
 1802SOL    MW4 7263   2.035   4.370   3.023 -0.3898 -0.1760 -0.3972
 1803SOL     OW 7264   2.457   4.626   3.132  0.2755 -0.2993  0.0997
 1803SOL    HW2 7265   2.449   4.547   3.078  0.1318  0.0067 -0.3364
 1803SOL    HW3 7266   2.386   4.683   3.100 -0.1130 -0.3087  0.9473
 1803SOL    MW4 7267   2.446   4.624   3.120  0.2053 -0.2604  0.1543
 1804SOL     OW 7268   2.230   0.096   3.012  0.0268 -0.4986  0.4499
 1804SOL    HW2 7269   2.217   0.184   3.049 -0.1335  0.0557 -0.9235
 1804SOL    HW3 7270   2.163   0.042   3.055  0.1284  0.0345  1.3047
 1804SOL    MW4 7271   2.220   0.100   3.023  0.0191 -0.3552  0.3817
 1805SOL     OW 7272   2.236   0.353   3.144  0.0390 -0.1976 -0.0806
 1805SOL    HW2 7273   2.255   0.340   3.237  0.1066 -0.3155 -0.1118
 1805SOL    HW3 7274   2.157   0.409   3.144  0.0361 -0.2014  0.0469
 1805SOL    MW4 7275   2.228   0.359   3.156  0.0474 -0.2137 -0.0682
 1806SOL     OW 7276   2.458   0.506   3.065  0.0502  0.4975  0.3324
 1806SOL    HW2 7277   2.380   0.457   3.092 -0.3657  0.7976 -0.3288
 1806SOL    HW3 7278   2.460   0.498   2.970  1.2052 -0.0809  0.3967
 1806SOL    MW4 7279   2.448   0.498   3.056  0.1476  0.4608  0.2534
 1807SOL     OW 7280   2.484   0.776   3.144 -0.5517  0.5632  0.1658
 1807SOL    HW2 7281   2.569   0.813   3.119 -0.2837  0.4888  0.9599
 1807SOL    HW3 7282   2.486   0.686   3.112 -0.5694  0.7404 -0.3413
 1807SOL    MW4 7283   2.496   0.769   3.137 -0.5190  0.5767  0.2036
 1808SOL     OW 7284   2.253   0.847   3.020 -0.1106  0.4733 -0.4309
 1808SOL    HW2 7285   2.339   0.834   3.059 -1.3779  2.6811  3.3563
 1808SOL    HW3 7286   2.192   0.807   3.082 -2.0029  0.8864 -1.9661
 1808SOL    MW4 7287   2.256   0.840   3.033 -0.5271  0.8191 -0.1338
 1809SOL     OW 7288   2.217   1.106   3.105  0.2257  0.4496  0.1981
 1809SOL    HW2 7289   2.217   1.084   3.198 -0.2595 -0.3365  0.0181
 1809SOL    HW3 7290   2.218   1.021   3.060 -0.8988  0.7944 -0.5083
 1809SOL    MW4 7291   2.217   1.092   3.111  0.0136  0.3914  0.0813
 1810SOL     OW 7292   2.464   1.233   3.054 -0.2924 -0.0073  0.2924
 1810SOL    HW2 7293   2.377   1.200   3.077 -0.0112 -0.1055  1.2651
 1810SOL    HW3 7294   2.464   1.236   2.959 -1.5748  0.5773  0.2950
 1810SOL    MW4 7295   2.453   1.229   3.045 -0.4246  0.0569  0.4210
 1811SOL     OW 7296   2.502   1.497   3.135 -0.1581 -0.0798  0.7923
 1811SOL    HW2 7297   2.427   1.554   3.117 -0.6163 -0.7810  0.4665
 1811SOL    HW3 7298   2.488   1.420   3.080  0.5097 -0.4685  1.1530
 1811SOL    MW4 7299   2.491   1.495   3.126 -0.1307 -0.2238  0.7968
 1812SOL     OW 7300   2.263   1.647   3.055 -0.5120 -0.3970 -0.1080
 1812SOL    HW2 7301   2.185   1.600   3.082 -0.3466 -0.2891  0.5665
 1812SOL    HW3 7302   2.254   1.658   2.960 -1.0933 -0.7801 -0.0929
 1812SOL    MW4 7303   2.252   1.643   3.046 -0.5670 -0.4332 -0.0172
 1813SOL     OW 7304   2.243   1.915   3.125 -0.0407 -0.0322  0.4005
 1813SOL    HW2 7305   2.321   1.968   3.107 -0.1376  0.0876  0.3349
 1813SOL    HW3 7306   2.268   1.827   3.098 -0.4058  0.2624 -0.9230
 1813SOL    MW4 7307   2.257   1.911   3.120 -0.1018  0.0225  0.2170
 1814SOL     OW 7308   2.475   2.070   3.065 -0.0461 -0.5731  0.0048
 1814SOL    HW2 7309   2.548   2.026   3.109 -0.2867 -1.0610 -0.0790
 1814SOL    HW3 7310   2.488   2.051   2.972 -1.1399 -1.9690  0.1261
 1814SOL    MW4 7311   2.486   2.062   3.059 -0.2220 -0.8218  0.0098
 1815SOL     OW 7312   2.455   2.326   3.123 -0.0969 -0.1595  0.0918
 1815SOL    HW2 7313   2.454   2.314   3.218 -2.0861 -0.1586  0.0941
 1815SOL    HW3 7314   2.450   2.237   3.088  1.2227 -0.1987 -0.0453
 1815SOL    MW4 7315   2.454   2.312   3.131 -0.1853 -0.1647  0.0739
 1816SOL     OW 7316   2.262   2.467   2.984  0.3120 -0.1647  0.3417
 1816SOL    HW2 7317   2.255   2.559   3.010  1.1938  0.2128 -0.7230
 1816SOL    HW3 7318   2.340   2.436   3.030 -0.0704 -0.4294  0.8184
 1816SOL    MW4 7319   2.271   2.475   2.993  0.3779 -0.1500  0.2642
 1817SOL     OW 7320   2.232   2.728   3.100 -0.0615 -0.4017 -0.0630
 1817SOL    HW2 7321   2.306   2.787   3.087  0.3646 -0.4233  2.0101
 1817SOL    HW3 7322   2.161   2.766   3.049  1.1869 -0.0343 -1.5653
 1817SOL    MW4 7323   2.232   2.741   3.092  0.1597 -0.3562  0.0122
 1818SOL     OW 7324   2.439   2.877   3.050  0.0205  0.3609 -0.0033
 1818SOL    HW2 7325   2.469   2.963   3.077  1.2742  0.3031 -1.1402
 1818SOL    HW3 7326   2.446   2.878   2.954  1.0169 -1.3243  0.0183
 1818SOL    MW4 7327   2.444   2.888   3.041  0.3176  0.1307 -0.1502
 1819SOL     OW 7328   2.502   3.127   3.152 -0.3123  0.2954  0.1148
 1819SOL    HW2 7329   2.583   3.162   3.114  1.0641 -1.4348  1.3850
 1819SOL    HW3 7330   2.432   3.177   3.109  1.4688  2.6912 -0.1008
 1819SOL    MW4 7331   2.503   3.138   3.141  0.1044  0.3831  0.2539
 1820SOL     OW 7332   2.296   3.271   3.011  0.1359  0.2696 -0.0904
 1820SOL    HW2 7333   2.289   3.358   3.051  0.5620 -0.3418  1.3278
 1820SOL    HW3 7334   2.215   3.226   3.035  0.5196 -0.2008  0.3199
 1820SOL    MW4 7335   2.284   3.277   3.019  0.2425  0.1271  0.1509
 1821SOL     OW 7336   2.263   3.540   3.119  0.0996 -0.3304 -0.0573
 1821SOL    HW2 7337   2.344   3.578   3.086 -0.3161 -0.1717 -0.9197
 1821SOL    HW3 7338   2.194   3.578   3.064 -0.4626 -1.2114  0.0126
 1821SOL    MW4 7339   2.265   3.550   3.107 -0.0296 -0.4258 -0.1619
 1822SOL     OW 7340   2.514   3.623   2.991  0.0572 -0.5997 -0.1867
 1822SOL    HW2 7341   2.576   3.566   3.035 -1.2557 -2.7342 -1.0190
 1822SOL    HW3 7342   2.510   3.702   3.045  1.2158 -1.6705  1.4770
 1822SOL    MW4 7343   2.522   3.626   3.004  0.0365 -1.0228 -0.0770
 1823SOL     OW 7344   2.489   3.850   3.138  0.0719  0.3125  0.0894
 1823SOL    HW2 7345   2.503   3.847   3.233  0.2495  1.3022  0.0952
 1823SOL    HW3 7346   2.564   3.900   3.105  0.8160 -1.2951 -0.7339
 1823SOL    MW4 7347   2.501   3.856   3.146  0.1936  0.2310 -0.0184
 1824SOL     OW 7348   2.258   3.972   3.012 -0.3387  0.0448  0.3260
 1824SOL    HW2 7349   2.322   3.916   3.055 -0.3890 -1.1039 -1.0921
 1824SOL    HW3 7350   2.174   3.946   3.051 -0.2004  0.1061  0.6706
 1824SOL    MW4 7351   2.255   3.961   3.023 -0.3269 -0.0985  0.1843
 1825SOL     OW 7352   2.257   4.215   3.148  0.0916 -0.1144  0.0438
 1825SOL    HW2 7353   2.255   4.129   3.106 -0.9757 -0.0954  0.0319
 1825SOL    HW3 7354   2.176   4.257   3.118  0.8652  1.0999 -0.3807
 1825SOL    MW4 7355   2.246   4.209   3.138  0.0527  0.0482 -0.0138
 1826SOL     OW 7356   2.482   4.348   3.062 -0.0566  0.3730 -0.4156
 1826SOL    HW2 7357   2.403   4.309   3.102  0.1668 -0.0217 -0.3571
 1826SOL    HW3 7358   2.462   4.350   2.969 -1.1851  2.6662 -0.1731
 1826SOL    MW4 7359   2.469   4.343   3.055 -0.1762  0.6237 -0.3757
 1827SOL     OW 7360   2.926   4.595   3.103 -0.0453  0.3367  0.2382
 1827SOL    HW2 7361   3.012   4.627   3.079 -0.1227  0.4259  0.0752
 1827SOL    HW3 7362   2.928   4.502   3.081  0.1657  0.2403  0.6720
 1827SOL    MW4 7363   2.937   4.587   3.097 -0.0274  0.3357  0.2739
 1828SOL     OW 7364   2.704   0.089   3.084 -0.0555  0.0355 -0.0001
 1828SOL    HW2 7365   2.768   0.019   3.099 -0.0916 -0.3301 -1.4355
 1828SOL    HW3 7366   2.619   0.048   3.099 -0.0384 -0.0021 -0.0060
 1828SOL    MW4 7367   2.702   0.074   3.088 -0.0579 -0.0177 -0.1900
 1829SOL     OW 7368   2.700   0.371   3.114  0.1452 -0.2641  0.1495
 1829SOL    HW2 7369   2.690   0.276   3.116 -0.1977 -0.2584 -0.8665
 1829SOL    HW3 7370   2.613   0.404   3.093  0.2864  0.2709  0.3860
 1829SOL    MW4 7371   2.687   0.363   3.111  0.1185 -0.1928  0.0465
 1830SOL     OW 7372   2.931   0.468   2.984  0.0049  0.2259 -0.0532
 1830SOL    HW2 7373   2.852   0.425   3.015  1.5389 -2.4707  0.3290
 1830SOL    HW3 7374   2.931   0.454   2.890 -0.1766  0.5683 -0.1031
 1830SOL    MW4 7375   2.921   0.461   2.976  0.1833 -0.0847 -0.0095
 1831SOL     OW 7376   2.949   0.708   3.109  0.1162 -0.1289  0.0647
 1831SOL    HW2 7377   2.926   0.702   3.201 -1.2213  0.1184 -0.2453
 1831SOL    HW3 7378   2.946   0.618   3.077  0.3173 -0.1810  0.1872
 1831SOL    MW4 7379   2.946   0.696   3.117 -0.0336 -0.1031  0.0398
 1832SOL     OW 7380   2.734   0.865   3.001 -0.4187  0.3260  0.2280
 1832SOL    HW2 7381   2.750   0.946   3.049  0.3588  0.6770 -0.6144
 1832SOL    HW3 7382   2.807   0.808   3.027 -0.0897  0.4593 -0.3992
 1832SOL    MW4 7383   2.746   0.868   3.011 -0.2728  0.3899  0.0339
 1833SOL     OW 7384   2.714   1.101   3.135  0.4203  0.1138 -0.0557
 1833SOL    HW2 7385   2.787   1.158   3.110 -0.4607  1.3602  0.1614
 1833SOL    HW3 7386   2.636   1.153   3.116 -0.3636 -0.6310  1.1130
 1833SOL    MW4 7387   2.713   1.115   3.129  0.2007  0.1800  0.1268
 1834SOL     OW 7388   2.938   1.255   3.047  0.0411  0.0700 -0.1786
 1834SOL    HW2 7389   3.011   1.215   3.095  0.0879  0.3280 -0.0338
 1834SOL    HW3 7390   2.951   1.349   3.059  0.3806  0.1544 -1.1760
 1834SOL    MW4 7391   2.949   1.262   3.055  0.0923  0.1150 -0.2913
 1835SOL     OW 7392   2.913   1.519   3.123 -0.3708 -0.8509  0.2527
 1835SOL    HW2 7393   2.907   1.517   3.218  1.8152 -1.8419  0.3844
 1835SOL    HW3 7394   2.993   1.568   3.105 -1.7698  0.9923 -1.1367
 1835SOL    MW4 7395   2.923   1.525   3.133 -0.2670 -0.7385  0.0868
 1836SOL     OW 7396   2.696   1.674   3.049 -0.0055 -0.0236 -0.5974
 1836SOL    HW2 7397   2.783   1.636   3.061 -0.2603 -0.0078  1.5146
 1836SOL    HW3 7398   2.637   1.615   3.097 -1.1791 -0.0811 -2.0660
 1836SOL    MW4 7399   2.700   1.661   3.057 -0.1938 -0.0292 -0.5126
 1837SOL     OW 7400   2.694   1.924   3.156 -0.1339 -0.1263 -0.2189
 1837SOL    HW2 7401   2.777   1.959   3.123 -0.1018 -0.9974 -1.1026
 1837SOL    HW3 7402   2.688   1.837   3.117 -0.4670 -0.8896  1.5036
 1837SOL    MW4 7403   2.704   1.917   3.146 -0.1736 -0.3420 -0.1085
 1838SOL     OW 7404   2.930   2.034   3.048  0.3059 -0.1807 -0.1650
 1838SOL    HW2 7405   2.923   2.127   3.070  0.2531  0.0402 -1.0874
 1838SOL    HW3 7406   2.915   2.031   2.953 -2.0569 -1.3968  0.2188
 1838SOL    MW4 7407   2.927   2.046   3.038 -0.0126 -0.3121 -0.2360
 1839SOL     OW 7408   2.936   2.311   3.134 -0.0721  0.3336  0.7116
 1839SOL    HW2 7409   3.013   2.351   3.094 -0.9776  1.1321 -0.2499
 1839SOL    HW3 7410   2.866   2.375   3.123 -0.7729 -0.1848  1.9948
 1839SOL    MW4 7411   2.937   2.325   3.127 -0.2840  0.3707  0.7541
 1840SOL     OW 7412   2.705   2.436   3.040  0.2909 -0.3632  0.9104
 1840SOL    HW2 7413   2.676   2.527   3.030 -1.3253 -1.0750 -1.2593
 1840SOL    HW3 7414   2.629   2.391   3.076  0.4615 -1.2195  0.2093
 1840SOL    MW4 7415   2.691   2.442   3.044  0.1004 -0.5703  0.5319
 1841SOL     OW 7416   2.680   2.726   3.086 -0.1135 -0.1554 -0.2348
 1841SOL    HW2 7417   2.686   2.726   3.182  1.8087 -2.3031 -0.3215
 1841SOL    HW3 7418   2.594   2.764   3.068 -1.1899 -1.1876  2.3942
 1841SOL    MW4 7419   2.670   2.731   3.097 -0.0021 -0.5751  0.1006
 1842SOL     OW 7420   2.919   2.864   3.027 -0.2891 -0.1608 -0.2131
 1842SOL    HW2 7421   2.979   2.805   3.072  0.6240  0.7293 -0.2429
 1842SOL    HW3 7422   2.832   2.828   3.045  0.1997 -1.0147  0.4866
 1842SOL    MW4 7423   2.916   2.852   3.035 -0.1044 -0.1562 -0.1245
 1843SOL     OW 7424   2.929   3.106   3.149 -0.4906 -0.2567  0.2897
 1843SOL    HW2 7425   2.857   3.159   3.116 -0.0506 -0.8303 -1.6643
 1843SOL    HW3 7426   2.933   3.031   3.089  1.1154 -0.7121  0.9385
 1843SOL    MW4 7427   2.920   3.103   3.137 -0.2205 -0.3924  0.1175
 1844SOL     OW 7428   2.703   3.228   2.998  0.1954  0.1743  0.1406
 1844SOL    HW2 7429   2.694   3.323   3.011  1.6069  0.3202  0.1409
 1844SOL    HW3 7430   2.719   3.219   2.904 -0.2606 -0.1030  0.0865
 1844SOL    MW4 7431   2.704   3.240   2.987  0.3214  0.1566  0.1335
 1845SOL     OW 7432   2.717   3.501   3.120 -0.7574 -0.8790  0.2388
 1845SOL    HW2 7433   2.729   3.485   3.214  0.7577 -0.8844  0.0577
 1845SOL    HW3 7434   2.805   3.515   3.086 -1.4588  1.1974 -0.8286
 1845SOL    MW4 7435   2.730   3.500   3.128 -0.6502 -0.6056  0.0739
 1846SOL     OW 7436   2.964   3.565   2.990  0.9386 -0.1505  0.0325
 1846SOL    HW2 7437   3.033   3.527   3.044  2.2123  1.8578 -0.1458
 1846SOL    HW3 7438   2.945   3.649   3.032 -1.3359 -0.6213  0.0183
 1846SOL    MW4 7439   2.970   3.571   3.003  0.8066  0.0522  0.0072
 1847SOL     OW 7440   2.920   3.815   3.123 -0.4117  0.0183 -0.4417
 1847SOL    HW2 7441   2.926   3.816   3.218 -0.3159 -2.6623 -0.3851
 1847SOL    HW3 7442   2.832   3.850   3.104 -0.2184  1.0674  0.5878
 1847SOL    MW4 7443   2.909   3.820   3.133 -0.3734 -0.1972 -0.2985
 1848SOL     OW 7444   2.697   3.966   3.027 -0.0136 -0.1004  0.5384
 1848SOL    HW2 7445   2.718   4.055   3.052 -0.1905  0.0468  0.1723
 1848SOL    HW3 7446   2.694   3.968   2.931  0.5215 -0.6200  0.5075
 1848SOL    MW4 7447   2.699   3.978   3.017  0.0339 -0.1497  0.4861
 1849SOL     OW 7448   2.737   4.246   3.113  0.1653 -0.3780  0.0770
 1849SOL    HW2 7449   2.742   4.269   3.206 -1.2491  0.7910 -0.1059
 1849SOL    HW3 7450   2.652   4.280   3.085  1.2270  0.6590 -2.0196
 1849SOL    MW4 7451   2.726   4.254   3.122  0.1187 -0.0868 -0.2241
 1850SOL     OW 7452   2.963   4.346   2.999 -0.0238  0.0507 -0.3400
 1850SOL    HW2 7453   3.029   4.323   3.065  0.4587 -0.4742 -1.0135
 1850SOL    HW3 7454   2.884   4.300   3.028  0.3234 -0.5975 -0.4110
 1850SOL    MW4 7455   2.961   4.337   3.012  0.0858 -0.1040 -0.4382
 1851SOL     OW 7456   3.360   4.600   3.162 -0.1986  0.4151 -0.6179
 1851SOL    HW2 7457   3.429   4.656   3.125  1.0238 -0.0489  0.8879
 1851SOL    HW3 7458   3.362   4.522   3.108  1.4835 -0.1974  0.2868
 1851SOL    MW4 7459   3.370   4.597   3.150  0.1848  0.2728 -0.2999
 1852SOL     OW 7460   3.154   0.073   3.036  0.0676 -0.0188  0.3206
 1852SOL    HW2 7461   3.157   0.166   3.058  0.3933  0.0007  0.1930
 1852SOL    HW3 7462   3.236   0.037   3.071  1.4133  0.3316 -2.2996
 1852SOL    MW4 7463   3.165   0.081   3.044  0.2882  0.0300 -0.0420
 1853SOL     OW 7464   3.136   0.354   3.114  0.1310  0.1437 -0.1853
 1853SOL    HW2 7465   3.207   0.399   3.068  0.1029  1.3519  0.9469
 1853SOL    HW3 7466   3.056   0.391   3.077  0.0842 -0.5654 -0.8116
 1853SOL    MW4 7467   3.135   0.365   3.103  0.1214  0.2096 -0.1185
 1854SOL     OW 7468   3.356   0.481   3.009 -0.0787  0.4221 -0.0477
 1854SOL    HW2 7469   3.435   0.437   3.038  0.7136  1.3682 -0.7510
 1854SOL    HW3 7470   3.371   0.499   2.916 -1.5554 -0.3626 -0.4512
 1854SOL    MW4 7471   3.368   0.478   3.000 -0.1688  0.4434 -0.1936
 1855SOL     OW 7472   3.364   0.743   3.132 -0.3152  0.5760 -0.2199
 1855SOL    HW2 7473   3.363   0.730   3.227  0.6489 -1.3305 -0.4405
 1855SOL    HW3 7474   3.359   0.655   3.096  0.1099  1.2355 -1.9310
 1855SOL    MW4 7475   3.364   0.730   3.140 -0.1318  0.4115 -0.4747
 1856SOL     OW 7476   3.153   0.894   3.036  0.3521  0.0331 -0.2643
 1856SOL    HW2 7477   3.235   0.847   3.052 -0.5214 -1.3736  0.1673
 1856SOL    HW3 7478   3.086   0.837   3.072 -0.9933  0.3426 -2.2444
 1856SOL    MW4 7479   3.155   0.880   3.043  0.0591 -0.1116 -0.4687
 1857SOL     OW 7480   3.189   1.155   3.161  0.0845 -0.2758 -0.6372
 1857SOL    HW2 7481   3.250   1.202   3.104 -0.3548 -0.4510 -1.2563
 1857SOL    HW3 7482   3.185   1.067   3.123 -1.3072  0.0065 -1.1926
 1857SOL    MW4 7483   3.197   1.150   3.148 -0.1571 -0.2617 -0.7920
 1858SOL     OW 7484   3.368   1.294   3.008 -0.1113 -0.2339 -0.2850
 1858SOL    HW2 7485   3.450   1.267   3.049  0.0930  0.4631 -0.2249
 1858SOL    HW3 7486   3.344   1.375   3.054 -1.4851 -1.0980  0.5552
 1858SOL    MW4 7487   3.375   1.301   3.020 -0.2656 -0.2561 -0.1659
 1859SOL     OW 7488   3.372   1.541   3.153  0.1058 -0.5211 -0.1448
 1859SOL    HW2 7489   3.375   1.544   3.249 -0.0321 -0.0460 -0.1564
 1859SOL    HW3 7490   3.458   1.573   3.125 -0.3396  0.6279 -0.2075
 1859SOL    MW4 7491   3.384   1.545   3.162  0.0288 -0.3068 -0.1543
 1860SOL     OW 7492   3.138   1.660   3.062 -0.4878 -0.1132  0.3925
 1860SOL    HW2 7493   3.221   1.620   3.086  0.0395  1.6740  1.6334
 1860SOL    HW3 7494   3.139   1.662   2.966  0.4885 -0.9267  0.3838
 1860SOL    MW4 7495   3.149   1.655   3.052 -0.2894  0.0153  0.5553
 1861SOL     OW 7496   3.169   1.923   3.144  0.0051 -0.0083  0.0532
 1861SOL    HW2 7497   3.165   1.830   3.121  0.6129 -0.1099  0.3345
 1861SOL    HW3 7498   3.092   1.962   3.103  0.2075 -0.4785 -0.7770
 1861SOL    MW4 7499   3.159   1.916   3.136  0.1118 -0.0839 -0.0191
 1862SOL     OW 7500   3.379   2.043   3.013 -0.5377 -0.1955 -0.7719
 1862SOL    HW2 7501   3.459   2.016   3.058 -1.2734 -1.0649  0.0352
 1862SOL    HW3 7502   3.310   1.990   3.053 -1.5413  0.6486 -1.3583
 1862SOL    MW4 7503   3.380   2.033   3.024 -0.7672 -0.1988 -0.7429
 1863SOL     OW 7504   3.370   2.300   3.127  0.0512  0.0895 -0.4618
 1863SOL    HW2 7505   3.385   2.289   3.221 -1.4382  1.3684 -0.0657
 1863SOL    HW3 7506   3.354   2.211   3.095 -0.9763 -0.1854  0.7711
 1863SOL    MW4 7507   3.370   2.287   3.136 -0.2809  0.2217 -0.2468
 1864SOL     OW 7508   3.156   2.437   3.011  0.2883 -0.5307 -0.2800
 1864SOL    HW2 7509   3.229   2.387   3.047  0.1961 -1.1217 -0.9008
 1864SOL    HW3 7510   3.168   2.433   2.916 -0.5427 -0.6401 -0.3909
 1864SOL    MW4 7511   3.167   2.430   3.003  0.1667 -0.6230 -0.3762
 1865SOL     OW 7512   3.127   2.696   3.116  0.2575 -0.1288  0.3459
 1865SOL    HW2 7513   3.138   2.674   3.209 -0.6906 -0.9237  0.2683
 1865SOL    HW3 7514   3.135   2.613   3.070  0.0585  0.1718 -0.2360
 1865SOL    MW4 7515   3.130   2.682   3.123  0.1059 -0.1941  0.2587
 1866SOL     OW 7516   3.376   2.807   3.007  0.4306  0.3985  0.0040
 1866SOL    HW2 7517   3.393   2.901   3.016 -0.5203  0.5920 -0.1151
 1866SOL    HW3 7518   3.296   2.792   3.057  0.7552 -0.4145  0.2872
 1866SOL    MW4 7519   3.368   2.818   3.015  0.3481  0.3169  0.0257
 1867SOL     OW 7520   3.404   3.086   3.095 -0.2851  0.0046  0.0524
 1867SOL    HW2 7521   3.408   3.072   3.190  1.3657  0.9871  0.1644
 1867SOL    HW3 7522   3.321   3.131   3.081  0.1628  1.2704  1.2646
 1867SOL    MW4 7523   3.394   3.090   3.106 -0.0081  0.3009  0.2272
 1868SOL     OW 7524   3.164   3.204   3.058  0.1025 -0.4297  0.2555
 1868SOL    HW2 7525   3.082   3.166   3.090  0.5959 -1.0527  0.8079
 1868SOL    HW3 7526   3.152   3.212   2.963 -1.0689  0.6767  0.4818
 1868SOL    MW4 7527   3.151   3.200   3.049  0.0131 -0.3662  0.3586
 1869SOL     OW 7528   3.159   3.457   3.167 -0.0507 -0.3257  0.9349
 1869SOL    HW2 7529   3.228   3.501   3.117 -0.5943 -0.2140  0.2730
 1869SOL    HW3 7530   3.156   3.368   3.132  0.2605 -0.5561  1.4806
 1869SOL    MW4 7531   3.168   3.451   3.156 -0.0815 -0.3414  0.9198
 1870SOL     OW 7532   3.347   3.619   3.019 -0.1613  0.1183  0.1789
 1870SOL    HW2 7533   3.426   3.576   3.052 -1.5092 -0.5492  2.6189
 1870SOL    HW3 7534   3.358   3.711   3.042  0.4525  0.2261 -0.5527
 1870SOL    MW4 7535   3.359   3.625   3.026 -0.2582  0.0441  0.4041
 1871SOL     OW 7536   3.394   3.881   3.096  0.1859  0.1038  0.2770
 1871SOL    HW2 7537   3.410   3.878   3.191 -1.3452  1.3794  0.5956
 1871SOL    HW3 7538   3.304   3.913   3.088  0.4190  0.3088 -1.6255
 1871SOL    MW4 7539   3.384   3.885   3.108  0.0148  0.2995  0.0679
 1872SOL     OW 7540   3.150   3.987   3.073  0.0747 -0.4278  0.3641
 1872SOL    HW2 7541   3.076   3.932   3.099 -1.2407  1.6941  1.2092
 1872SOL    HW3 7542   3.148   3.987   2.977 -1.4030  0.1040  0.3828
 1872SOL    MW4 7543   3.140   3.980   3.064 -0.2940 -0.0775  0.4783
 1873SOL     OW 7544   3.203   4.241   3.159  0.0615  0.4921  0.0711
 1873SOL    HW2 7545   3.200   4.248   3.255 -0.0404 -0.0145  0.1070
 1873SOL    HW3 7546   3.182   4.149   3.141 -0.1149  0.6303 -0.4474
 1873SOL    MW4 7547   3.200   4.230   3.170  0.0248  0.4435  0.0074
 1874SOL     OW 7548   3.394   4.369   2.995 -0.2422  0.4474 -0.1962
 1874SOL    HW2 7549   3.477   4.341   3.033  0.2805 -2.5894 -3.3304
 1874SOL    HW3 7550   3.328   4.319   3.044  0.0183  0.3640  0.0735
 1874SOL    MW4 7551   3.396   4.359   3.006 -0.1390  0.0358 -0.5746
 1875SOL     OW 7552   3.813   4.641   3.130 -0.2871  0.4377 -0.2504
 1875SOL    HW2 7553   3.825   4.554   3.092 -1.9055 -0.7861  1.9472
 1875SOL    HW3 7554   3.723   4.666   3.107  0.0037  1.3223 -0.4651
 1875SOL    MW4 7555   3.802   4.633   3.122 -0.4623  0.3929  0.0110
 1876SOL     OW 7556   3.568   0.069   3.059 -0.2060 -0.3223  0.1516
 1876SOL    HW2 7557   3.567   0.155   3.099  1.1401  0.0805 -0.6402
 1876SOL    HW3 7558   3.578   0.086   2.965  0.2604 -1.3443  0.0063
 1876SOL    MW4 7559   3.569   0.082   3.052  0.0331 -0.4040  0.0277
 1877SOL     OW 7560   3.571   0.348   3.141 -0.0137  0.2322  0.0206
 1877SOL    HW2 7561   3.580   0.337   3.236 -1.2843  1.8484  0.3482
 1877SOL    HW3 7562   3.647   0.399   3.116  0.3180 -0.1834  0.1714
 1877SOL    MW4 7563   3.582   0.353   3.151 -0.1376  0.3906  0.0837
 1878SOL     OW 7564   3.809   0.488   3.033  0.6632 -0.0371  0.0403
 1878SOL    HW2 7565   3.882   0.445   3.076  1.4786  1.1131 -0.1622
 1878SOL    HW3 7566   3.814   0.579   3.063  0.0985  0.3493 -0.9972
 1878SOL    MW4 7567   3.819   0.495   3.043  0.6962  0.1657 -0.1233
 1879SOL     OW 7568   3.817   0.720   3.154 -0.1048  0.8991  0.1898
 1879SOL    HW2 7569   3.821   0.725   3.250  0.8279 -2.0506  0.3440
 1879SOL    HW3 7570   3.897   0.765   3.125  0.9513 -0.4367  0.9323
 1879SOL    MW4 7571   3.828   0.727   3.163  0.1576  0.3336  0.3080
 1880SOL     OW 7572   3.602   0.886   3.084 -0.0365  0.5331  0.6973
 1880SOL    HW2 7573   3.668   0.825   3.117  0.1431  1.2383  1.6697
 1880SOL    HW3 7574   3.519   0.844   3.104  0.1020 -0.2804 -0.3797
 1880SOL    MW4 7575   3.600   0.872   3.091  0.0055  0.5188  0.6835
 1881SOL     OW 7576   3.602   1.180   3.114  0.3836 -0.0886  0.0697
 1881SOL    HW2 7577   3.679   1.218   3.071  0.2485 -0.1193 -0.2020
 1881SOL    HW3 7578   3.609   1.086   3.095  1.8792 -0.5149  2.5494
 1881SOL    MW4 7579   3.613   1.172   3.105  0.5631 -0.1489  0.3607
 1882SOL     OW 7580   3.861   1.278   3.045  0.5650  0.0500 -0.3001
 1882SOL    HW2 7581   3.855   1.369   3.074  2.5863 -0.1997  0.9981
 1882SOL    HW3 7582   3.849   1.282   2.950 -1.0370  1.4556 -0.0621
 1882SOL    MW4 7583   3.859   1.290   3.036  0.6204  0.2024 -0.0975
 1883SOL     OW 7584   3.845   1.547   3.128  0.0571 -0.1891 -0.0648
 1883SOL    HW2 7585   3.846   1.553   3.224  0.7507  1.3125 -0.1639
 1883SOL    HW3 7586   3.758   1.579   3.103 -0.2374 -0.8714  0.0766
 1883SOL    MW4 7587   3.834   1.552   3.137  0.1099 -0.0809 -0.0594
 1884SOL     OW 7588   3.597   1.659   3.048 -0.2159 -0.1925  0.0379
 1884SOL    HW2 7589   3.612   1.751   3.068  0.0311 -0.0724 -0.6961
 1884SOL    HW3 7590   3.605   1.653   2.953  2.2298 -1.4203  0.2920
 1884SOL    MW4 7591   3.600   1.670   3.038  0.1395 -0.3386 -0.0253
 1885SOL     OW 7592   3.618   1.936   3.118 -0.2086 -0.2596  0.1978
 1885SOL    HW2 7593   3.624   1.923   3.213  0.5286 -2.1493 -0.0653
 1885SOL    HW3 7594   3.703   1.973   3.094 -0.8033  1.2762  0.4034
 1885SOL    MW4 7595   3.630   1.939   3.127 -0.1900 -0.3064  0.1900
 1886SOL     OW 7596   3.854   2.064   3.027  0.3889 -0.4308  0.2582
 1886SOL    HW2 7597   3.841   2.157   3.045 -1.8392 -0.5975 -0.3105
 1886SOL    HW3 7598   3.855   2.058   2.932  2.2009 -0.7965  0.2918
 1886SOL    MW4 7599   3.853   2.076   3.017  0.3340 -0.5014  0.1879
 1887SOL     OW 7600   3.816   2.331   3.112  0.0316  0.3762  0.0380
 1887SOL    HW2 7601   3.816   2.337   3.207  0.2071  3.7088 -0.1209
 1887SOL    HW3 7602   3.734   2.372   3.085 -0.3113 -1.0941 -1.2429
 1887SOL    MW4 7603   3.805   2.337   3.121  0.0098  0.6220 -0.1521
 1888SOL     OW 7604   3.589   2.462   3.000 -0.2381  0.1680 -0.2213
 1888SOL    HW2 7605   3.594   2.542   3.053  0.5670 -0.3649  0.5375
 1888SOL    HW3 7606   3.515   2.413   3.036 -0.4920  0.4008 -0.4322
 1888SOL    MW4 7607   3.580   2.466   3.012 -0.1655  0.1285 -0.1490
 1889SOL     OW 7608   3.592   2.710   3.116  0.2647 -0.3574  0.2247
 1889SOL    HW2 7609   3.658   2.768   3.078 -0.0123 -1.3258 -1.8106
 1889SOL    HW3 7610   3.510   2.737   3.075  0.3777 -3.2589 -2.1397
 1889SOL    MW4 7611   3.590   2.721   3.106  0.2429 -0.8678 -0.3555
 1890SOL     OW 7612   3.810   2.866   3.034 -0.0550 -0.1163  0.0549
 1890SOL    HW2 7613   3.821   2.959   3.055  0.4849 -0.0517 -0.4940
 1890SOL    HW3 7614   3.827   2.861   2.940  0.8292 -0.9105  0.2533
 1890SOL    MW4 7615   3.813   2.878   3.025  0.1330 -0.2124  0.0083
 1891SOL     OW 7616   3.836   3.129   3.117 -0.2938 -0.0114 -0.0510
 1891SOL    HW2 7617   3.908   3.185   3.089 -1.6979  2.8064  1.6861
 1891SOL    HW3 7618   3.757   3.180   3.100 -1.6086 -1.1957  2.1466
 1891SOL    MW4 7619   3.835   3.143   3.111 -0.6526  0.2041  0.4683
 1892SOL     OW 7620   3.602   3.261   3.029 -0.4132  0.0121 -0.0934
 1892SOL    HW2 7621   3.536   3.196   3.052 -0.3933 -0.2887 -0.8668
 1892SOL    HW3 7622   3.597   3.268   2.934 -0.2347  0.9515 -0.0400
 1892SOL    MW4 7623   3.593   3.253   3.020 -0.3872  0.0961 -0.1884
 1893SOL     OW 7624   3.588   3.503   3.152 -0.0866 -0.1490 -0.1903
 1893SOL    HW2 7625   3.664   3.551   3.119 -0.0305  1.1784  1.7660
 1893SOL    HW3 7626   3.598   3.415   3.117  2.0912  0.1561 -0.4027
 1893SOL    MW4 7627   3.600   3.498   3.143  0.2081  0.0665  0.0393
 1894SOL     OW 7628   3.803   3.603   3.038  0.3609 -0.2237  0.2630
 1894SOL    HW2 7629   3.807   3.692   3.072  0.1889 -0.4000  0.7491
 1894SOL    HW3 7630   3.802   3.614   2.943 -1.6710  0.3780  0.3349
 1894SOL    MW4 7631   3.803   3.616   3.030  0.0701 -0.1678  0.3366
 1895SOL     OW 7632   3.804   3.858   3.140  0.2314 -0.3075 -0.0421
 1895SOL    HW2 7633   3.811   3.882   3.233 -0.1057  0.0088 -0.0978
 1895SOL    HW3 7634   3.731   3.910   3.107 -0.7031 -1.6436 -0.0960
 1895SOL    MW4 7635   3.796   3.868   3.148  0.0639 -0.4420 -0.0565
 1896SOL     OW 7636   3.607   4.037   3.025 -0.3772 -0.2442  0.3352
 1896SOL    HW2 7637   3.526   3.993   3.051 -0.3433 -0.9191 -0.6720
 1896SOL    HW3 7638   3.618   4.014   2.933  0.8613  0.0039  0.4122
 1896SOL    MW4 7639   3.598   4.028   3.017 -0.2096 -0.3009  0.2120
 1897SOL     OW 7640   3.597   4.280   3.161 -0.3252 -0.1114 -0.4683
 1897SOL    HW2 7641   3.677   4.322   3.130 -0.0257 -0.3840 -0.0714
 1897SOL    HW3 7642   3.598   4.193   3.121 -0.9085  0.2354 -1.2315
 1897SOL    MW4 7643   3.608   4.274   3.152 -0.3626 -0.1011 -0.5169
 1898SOL     OW 7644   3.832   4.381   3.029 -0.2051 -0.5668 -0.0002
 1898SOL    HW2 7645   3.921   4.351   3.046  0.6104  1.2550 -0.8280
 1898SOL    HW3 7646   3.821   4.369   2.934 -0.4932  0.0497 -0.0480
 1898SOL    MW4 7647   3.843   4.375   3.018 -0.1354 -0.2451 -0.1156
 1899SOL     OW 7648   4.288   0.014   3.136  0.9994 -0.7531  0.0667
 1899SOL    HW2 7649   4.293   0.025   3.231 -0.7985  0.5678  0.0470
 1899SOL    HW3 7650   4.275  -0.080   3.122 -0.9835 -0.6905  1.2711
 1899SOL    MW4 7651   4.287   0.003   3.147  0.5007 -0.5703  0.2232
 1900SOL     OW 7652   4.045   0.118   3.059 -0.1811  0.2461 -0.1920
 1900SOL    HW2 7653   4.121   0.070   3.091 -0.1016  0.2196 -0.4206
 1900SOL    HW3 7654   3.970   0.071   3.096 -0.1266 -0.5479 -1.0939
 1900SOL    MW4 7655   4.045   0.105   3.068 -0.1636  0.1379 -0.3414
 1901SOL     OW 7656   4.025   0.370   3.190 -0.0941  0.0950  0.7585
 1901SOL    HW2 7657   4.092   0.421   3.145  0.0267  0.4633  1.3534
 1901SOL    HW3 7658   4.027   0.285   3.147  0.3760  0.2776  0.4111
 1901SOL    MW4 7659   4.034   0.366   3.178 -0.0157  0.1677  0.7913
 1902SOL     OW 7660   4.232   0.470   3.019 -0.1419 -0.1695  0.1190
 1902SOL    HW2 7661   4.271   0.545   3.063 -2.1539  0.9146  0.1069
 1902SOL    HW3 7662   4.249   0.485   2.926  1.5728 -0.9923  0.2757
 1902SOL    MW4 7663   4.239   0.482   3.013 -0.1812 -0.1350  0.1378
 1903SOL     OW 7664   4.285   0.733   3.159  0.2284 -0.0276 -0.1474
 1903SOL    HW2 7665   4.200   0.762   3.125 -0.0366 -0.5953  0.0279
 1903SOL    HW3 7666   4.348   0.793   3.119 -0.1431 -0.2930 -1.1467
 1903SOL    MW4 7667   4.282   0.745   3.149  0.1445 -0.1375 -0.2563
 1904SOL     OW 7668   4.038   0.840   3.054 -0.3291 -0.4009  0.0535
 1904SOL    HW2 7669   4.036   0.935   3.066 -0.9608 -0.3907 -0.1347
 1904SOL    HW3 7670   4.047   0.828   2.959  0.1064 -0.5277  0.1089
 1904SOL    MW4 7671   4.039   0.851   3.043 -0.3552 -0.4163  0.0360
 1905SOL     OW 7672   4.049   1.105   3.123 -0.1094  0.1103  0.3156
 1905SOL    HW2 7673   4.042   1.082   3.216 -0.2155 -0.1911  0.2337
 1905SOL    HW3 7674   3.981   1.171   3.109 -1.7427 -1.6050 -0.0998
 1905SOL    MW4 7675   4.039   1.110   3.134 -0.3386 -0.1558  0.2499
 1906SOL     OW 7676   4.268   1.236   3.040  0.3598 -0.0269  0.2077
 1906SOL    HW2 7677   4.183   1.194   3.052  0.3076 -0.1974 -0.7314
 1906SOL    HW3 7678   4.276   1.248   2.945  0.7441  1.3177  0.4033
 1906SOL    MW4 7679   4.258   1.232   3.029  0.4044  0.1281  0.1097
 1907SOL     OW 7680   4.322   1.485   3.154  0.1502 -0.2791  0.1237
 1907SOL    HW2 7681   4.253   1.539   3.115  1.2018  0.6012 -0.5529
 1907SOL    HW3 7682   4.302   1.396   3.124 -1.7320 -0.3343  1.4456
 1907SOL    MW4 7683   4.310   1.480   3.145  0.0401 -0.1702  0.2089
 1908SOL     OW 7684   4.098   1.632   3.045 -0.5390 -0.1613 -0.9241
 1908SOL    HW2 7685   4.100   1.726   3.061 -0.9318 -0.3477  0.2148
 1908SOL    HW3 7686   4.014   1.603   3.080  0.2091 -1.1823  0.0577
 1908SOL    MW4 7687   4.087   1.640   3.051 -0.4926 -0.3208 -0.6442
 1909SOL     OW 7688   4.072   1.908   3.084 -0.0589 -0.3249 -0.1177
 1909SOL    HW2 7689   4.137   1.978   3.071 -0.2181 -0.5081 -2.1905
 1909SOL    HW3 7690   3.988   1.949   3.064 -0.4652 -0.3701  1.4965
 1909SOL    MW4 7691   4.070   1.923   3.079 -0.1340 -0.3550 -0.1781
 1910SOL     OW 7692   4.261   2.109   3.042  0.2777  0.4078  0.4350
 1910SOL    HW2 7693   4.259   2.204   3.056  0.4104  0.5308 -0.3584
 1910SOL    HW3 7694   4.271   2.099   2.948 -2.1568 -0.4084  0.2243
 1910SOL    MW4 7695   4.262   2.121   3.032 -0.0262  0.3164  0.3026
 1911SOL     OW 7696   4.243   2.389   3.074  0.4407 -0.1423 -0.0944
 1911SOL    HW2 7697   4.170   2.427   3.024 -0.1721 -1.3293 -0.1039
 1911SOL    HW3 7698   4.319   2.442   3.048 -0.2880  0.6963 -0.5670
 1911SOL    MW4 7699   4.243   2.401   3.064  0.2632 -0.1881 -0.1578
 1912SOL     OW 7700   3.998   2.505   2.997 -0.4804  0.1821  0.2275
 1912SOL    HW2 7701   4.022   2.573   3.060  1.0508 -0.7727  0.7008
 1912SOL    HW3 7702   3.939   2.447   3.045  1.7020 -1.2759  1.2615
 1912SOL    MW4 7703   3.994   2.506   3.012  0.0095 -0.1364  0.4263
 1913SOL     OW 7704   4.032   2.729   3.159  0.4417 -0.4343 -0.0910
 1913SOL    HW2 7705   4.025   2.736   3.254  0.5912 -3.2780  0.1780
 1913SOL    HW3 7706   3.959   2.781   3.126 -0.0672 -0.0327  1.6004
 1913SOL    MW4 7707   4.021   2.736   3.167  0.3943 -0.7567  0.1676
 1914SOL     OW 7708   4.247   2.816   2.987  0.4693  0.4230  0.1065
 1914SOL    HW2 7709   4.175   2.776   3.036  0.1758  0.6101 -0.1712
 1914SOL    HW3 7710   4.325   2.771   3.019  0.4181  1.3695  1.6193
 1914SOL    MW4 7711   4.247   2.805   2.998  0.4239  0.5729  0.2694
 1915SOL     OW 7712   4.274   3.067   3.096 -0.3447  0.2466 -0.1451
 1915SOL    HW2 7713   4.206   3.125   3.063 -0.2022  0.8001  0.5379
 1915SOL    HW3 7714   4.249   2.980   3.064 -0.6283  0.6537 -1.0518
 1915SOL    MW4 7715   4.262   3.063   3.087 -0.3629  0.3734 -0.1745
 1916SOL     OW 7716   4.069   3.235   3.021 -0.0322  0.3178 -0.4539
 1916SOL    HW2 7717   4.065   3.330   3.036 -2.4742  0.2883 -0.7612
 1916SOL    HW3 7718   4.067   3.226   2.926 -2.4339 -0.1188 -0.3770
 1916SOL    MW4 7719   4.068   3.246   3.010 -0.6714  0.2563 -0.4845
 1917SOL     OW 7720   4.055   3.487   3.090  0.1550 -0.1132  0.3954
 1917SOL    HW2 7721   4.043   3.469   3.183  0.4389  0.4388  0.5379
 1917SOL    HW3 7722   3.974   3.530   3.063 -0.2145 -0.8991  0.2241
 1917SOL    MW4 7723   4.043   3.490   3.099  0.1431 -0.1440  0.3917
 1918SOL     OW 7724   4.283   3.637   3.010  0.6285 -0.0532  0.1343
 1918SOL    HW2 7725   4.282   3.720   3.058  1.0988 -0.5948  1.1023
 1918SOL    HW3 7726   4.204   3.592   3.038  0.1748  0.2197 -0.6826
 1918SOL    MW4 7727   4.273   3.642   3.020  0.6304 -0.0887  0.1543
 1919SOL     OW 7728   4.274   3.890   3.169 -0.0647  0.1102  0.6167
 1919SOL    HW2 7729   4.189   3.912   3.129  0.2575 -0.1680 -0.2209
 1919SOL    HW3 7730   4.337   3.944   3.122  0.6099 -1.8415 -0.7818
 1919SOL    MW4 7731   4.271   3.900   3.158  0.0668 -0.1841  0.3216
 1920SOL     OW 7732   4.030   3.965   3.047 -0.0258 -0.2382  0.2583
 1920SOL    HW2 7733   4.028   4.049   3.092 -0.8060  0.3061 -0.7759
 1920SOL    HW3 7734   3.948   3.922   3.073  1.1182 -1.3925  2.0906
 1920SOL    MW4 7735   4.019   3.970   3.056  0.0224 -0.3185  0.3636
 1921SOL     OW 7736   4.075   4.225   3.138  0.5005 -0.4675  0.0448
 1921SOL    HW2 7737   4.067   4.237   3.233  1.9859  1.0366 -0.0070
 1921SOL    HW3 7738   4.137   4.292   3.110 -0.9430 -0.0149 -2.1944
 1921SOL    MW4 7739   4.082   4.235   3.147  0.5064 -0.2093 -0.2577
 1922SOL     OW 7740   4.255   4.420   3.061  0.7035  0.0802 -0.1434
 1922SOL    HW2 7741   4.330   4.369   3.089  0.1362 -1.0442 -0.6531
 1922SOL    HW3 7742   4.259   4.420   2.965 -0.3288 -0.5858 -0.2003
 1922SOL    MW4 7743   4.265   4.413   3.052  0.4921 -0.1564 -0.2182
 1923SOL     OW 7744   0.182   0.015   3.414 -0.1905 -0.5960  0.1241
 1923SOL    HW2 7745   0.263   0.062   3.435  0.5008 -1.5796 -0.2387
 1923SOL    HW3 7746   0.206  -0.078   3.423 -1.4112 -0.8810  0.4640
 1923SOL    MW4 7747   0.196   0.009   3.418 -0.2603 -0.7634  0.1214
 1924SOL     OW 7748   4.476   0.155   3.560  0.2214 -0.1725  0.1739
 1924SOL    HW2 7749   4.475   0.242   3.520  0.5710 -0.1454  0.2269
 1924SOL    HW3 7750   4.541   0.106   3.510  0.6992 -0.1207  0.7432
 1924SOL    MW4 7751   4.484   0.160   3.548  0.3304 -0.1621  0.2561
 1925SOL     OW 7752   4.461   0.407   3.388 -0.4720  0.1023 -0.7897
 1925SOL    HW2 7753   4.399   0.450   3.447  0.6572 -1.0075  1.2336
 1925SOL    HW3 7754   4.547   0.432   3.420  0.1925 -2.2341 -0.6376
 1925SOL    MW4 7755   4.464   0.416   3.400 -0.2353 -0.3524 -0.5031
 1926SOL     OW 7756   0.212   0.462   3.515 -0.1635  0.1133  0.2013
 1926SOL    HW2 7757   0.289   0.418   3.480  0.4407  0.4776  1.0629
 1926SOL    HW3 7758   0.217   0.551   3.479 -1.3269 -0.4481 -1.4533
 1926SOL    MW4 7759   0.223   0.468   3.505 -0.2373  0.0873  0.0966
 1927SOL     OW 7760   0.239   0.711   3.434 -0.0148 -0.3575  0.1086
 1927SOL    HW2 7761   0.316   0.768   3.440 -1.2588  1.4415 -0.7560
 1927SOL    HW3 7762   0.167   0.764   3.466 -1.4441 -0.9654 -1.9845
 1927SOL    MW4 7763   0.240   0.725   3.439 -0.3675 -0.2003 -0.2816
 1928SOL     OW 7764   0.039   0.860   3.519  0.1806 -0.1384 -0.1714
 1928SOL    HW2 7765   0.022   0.874   3.612  1.4420  1.9780 -0.2250
 1928SOL    HW3 7766   0.019   0.945   3.478 -0.4208 -1.0570 -1.8349
 1928SOL    MW4 7767   0.034   0.873   3.526  0.2675  0.0197 -0.3982
 1929SOL     OW 7768   4.461   1.093   3.407 -0.0784 -0.3346 -0.2648
 1929SOL    HW2 7769   4.535   1.145   3.439 -0.4383  0.0607 -0.0768
 1929SOL    HW3 7770   4.469   1.096   3.312 -0.3152  0.3881 -0.2670
 1929SOL    MW4 7771   4.472   1.101   3.399 -0.1569 -0.1870 -0.2403
 1930SOL     OW 7772   0.204   1.234   3.492  0.2611 -0.4041  0.1248
 1930SOL    HW2 7773   0.281   1.187   3.460  1.2902  0.3913  1.3804
 1930SOL    HW3 7774   0.213   1.323   3.458 -0.6193 -0.5517 -0.5281
 1930SOL    MW4 7775   0.215   1.239   3.483  0.2807 -0.3186  0.2041
 1931SOL     OW 7776   0.258   1.495   3.379  0.5837  0.2043 -0.4134
 1931SOL    HW2 7777   0.331   1.544   3.418  0.1893  0.9770 -0.6386
 1931SOL    HW3 7778   0.274   1.500   3.284  1.8531 -2.1501 -0.3717
 1931SOL    MW4 7779   0.270   1.502   3.371  0.6991 -0.0044 -0.4377
 1932SOL     OW 7780   0.010   1.613   3.501 -0.1126  0.0644  0.4122
 1932SOL    HW2 7781  -0.070   1.562   3.489 -0.4302  0.5299  0.5064
 1932SOL    HW3 7782   0.077   1.565   3.453 -0.1442 -1.0754  1.4645
 1932SOL    MW4 7783   0.009   1.600   3.493 -0.1586 -0.0246  0.5639
 1933SOL     OW 7784   4.485   1.899   3.404  0.1317  0.4653  0.2745
 1933SOL    HW2 7785   4.495   1.812   3.443 -0.1578  1.4303  2.5968
 1933SOL    HW3 7786   4.483   1.883   3.310  0.6019 -1.9876  0.6433
 1933SOL    MW4 7787   4.486   1.885   3.397  0.1554  0.2691  0.6294
 1934SOL     OW 7788   0.224   2.059   3.484  0.0476 -0.1388  0.0959
 1934SOL    HW2 7789   0.228   2.048   3.579 -0.7755  0.9763  0.2777
 1934SOL    HW3 7790   0.144   2.014   3.458 -0.2675  0.4292  0.0735
 1934SOL    MW4 7791   0.214   2.052   3.493 -0.1025  0.0830  0.1171
 1935SOL     OW 7792   0.219   2.321   3.376  0.1196  0.3048 -0.0567
 1935SOL    HW2 7793   0.144   2.369   3.411  0.6963  0.1525  1.3969
 1935SOL    HW3 7794   0.209   2.232   3.409 -0.2783 -0.2953 -1.7396
 1935SOL    MW4 7795   0.208   2.316   3.385  0.1432  0.2055 -0.0868
 1936SOL     OW 7796   0.011   2.467   3.481 -0.1857  0.4155 -0.1725
 1936SOL    HW2 7797   0.009   2.468   3.577  0.9696  0.1791 -0.1337
 1936SOL    HW3 7798  -0.072   2.428   3.456  0.4093 -1.5499  0.8030
 1936SOL    MW4 7799  -0.000   2.462   3.490  0.0452  0.1247 -0.0389
 1937SOL     OW 7800   4.461   2.742   3.367 -0.1174  0.2208  0.2076
 1937SOL    HW2 7801   4.539   2.793   3.387  0.5413 -0.7722  0.2175
 1937SOL    HW3 7802   4.483   2.653   3.395 -1.4824  0.0530  0.7965
 1937SOL    MW4 7803   4.474   2.737   3.374 -0.2103  0.0677  0.2866
 1938SOL     OW 7804   0.204   2.837   3.482 -0.0755  0.1065  0.3398
 1938SOL    HW2 7805   0.292   2.807   3.457  0.2536  0.9839  0.4257
 1938SOL    HW3 7806   0.209   2.933   3.475 -1.4738  0.0736 -1.0979
 1938SOL    MW4 7807   0.217   2.846   3.478 -0.2165  0.2182  0.1616
 1939SOL     OW 7808   0.205   3.100   3.390 -0.6194 -0.1802 -0.0580
 1939SOL    HW2 7809   0.139   3.164   3.415 -0.1903  0.2931 -0.1337
 1939SOL    HW3 7810   0.213   3.109   3.295  0.4074  0.5946  0.0924
 1939SOL    MW4 7811   0.197   3.109   3.381 -0.4273 -0.0157 -0.0484
 1940SOL     OW 7812   0.003   3.254   3.482  0.3079  0.4857 -0.7559
 1940SOL    HW2 7813  -0.075   3.213   3.444 -0.0770  1.2523 -0.8027
 1940SOL    HW3 7814   0.010   3.338   3.438  0.2695  1.0836  0.3538
 1940SOL    MW4 7815  -0.006   3.259   3.471  0.2522  0.6654 -0.6158
 1941SOL     OW 7816   0.036   3.497   3.379  0.1578 -0.0329  0.0668
 1941SOL    HW2 7817  -0.044   3.534   3.416 -0.9562 -2.2451 -0.0404
 1941SOL    HW3 7818   0.029   3.514   3.285  0.4168  0.8756  0.2111
 1941SOL    MW4 7819   0.025   3.504   3.372  0.0450 -0.2050  0.0718
 1942SOL     OW 7820   0.251   3.637   3.462 -0.1010 -0.0116 -0.2185
 1942SOL    HW2 7821   0.260   3.609   3.554  0.7341  1.3914  0.1414
 1942SOL    HW3 7822   0.173   3.592   3.431 -0.4581 -0.4199  1.2218
 1942SOL    MW4 7823   0.242   3.627   3.470 -0.0379  0.1194  0.0191
 1943SOL     OW 7824   0.265   3.911   3.419  0.7371 -0.3203 -0.4175
 1943SOL    HW2 7825   0.183   3.935   3.461  0.2744 -0.3059 -1.3078
 1943SOL    HW3 7826   0.269   3.816   3.426 -0.1768 -0.4900 -1.8100
 1943SOL    MW4 7827   0.255   3.902   3.425  0.5554 -0.3409 -0.7184
 1944SOL     OW 7828   0.030   4.018   3.509  0.6336  0.2091 -0.3408
 1944SOL    HW2 7829   0.027   4.036   3.602 -1.8454  0.3139 -0.4072
 1944SOL    HW3 7830   0.035   4.104   3.467  1.1277  0.1854 -0.3382
 1944SOL    MW4 7831   0.030   4.031   3.515  0.3715  0.2193 -0.3490
 1945SOL     OW 7832   0.001   4.272   3.415  0.4744  0.2595  0.3163
 1945SOL    HW2 7833  -0.059   4.329   3.464  0.2002  0.5394 -0.3366
 1945SOL    HW3 7834   0.088   4.309   3.433  0.6907 -1.5027  3.0822
 1945SOL    MW4 7835   0.005   4.285   3.424  0.4668  0.0639  0.5951
 1946SOL     OW 7836   0.234   4.405   3.464 -0.2654  0.1582  0.3582
 1946SOL    HW2 7837   0.212   4.408   3.557 -0.8787  1.7577  0.1719
 1946SOL    HW3 7838   0.321   4.366   3.461  0.1596  0.9785  1.6746
 1946SOL    MW4 7839   0.242   4.400   3.476 -0.2903  0.4778  0.5071
 1947SOL     OW 7840   0.626   0.007   3.338  0.2687  0.3739  0.0974
 1947SOL    HW2 7841   0.704   0.048   3.375  0.3657  0.5138 -0.2679
 1947SOL    HW3 7842   0.648  -0.011   3.247 -0.0277  0.1648  0.0649
 1947SOL    MW4 7843   0.639   0.010   3.331  0.2424  0.3648  0.0446
 1948SOL     OW 7844   0.432   0.113   3.500  0.6354  0.1984 -0.5909
 1948SOL    HW2 7845   0.449   0.108   3.594 -1.1664 -1.2674 -0.3153
 1948SOL    HW3 7846   0.509   0.074   3.459 -0.0063 -2.2318  0.4353
 1948SOL    MW4 7847   0.444   0.107   3.507  0.3130 -0.3156 -0.4189
 1949SOL     OW 7848   0.453   0.353   3.372  0.1636  0.4046  0.6044
 1949SOL    HW2 7849   0.532   0.399   3.401  0.1893 -0.6813  2.3326
 1949SOL    HW3 7850   0.461   0.266   3.410 -0.5995 -0.5707 -1.4038
 1949SOL    MW4 7851   0.465   0.348   3.381  0.0663  0.1327  0.5672
 1950SOL     OW 7852   0.674   0.485   3.452  0.0277 -0.0399 -0.0560
 1950SOL    HW2 7853   0.686   0.500   3.546 -1.0985  0.0175  0.0914
 1950SOL    HW3 7854   0.742   0.421   3.429 -0.2026 -0.6764  0.9719
 1950SOL    MW4 7855   0.685   0.478   3.461 -0.1513 -0.1163  0.0992
 1951SOL     OW 7856   0.679   0.757   3.390  0.7152 -0.1119  0.5029
 1951SOL    HW2 7857   0.603   0.811   3.410  1.1945  0.7685  0.0044
 1951SOL    HW3 7858   0.651   0.667   3.408 -0.7433  0.1136 -0.6135
 1951SOL    MW4 7859   0.665   0.752   3.395  0.5860  0.0340  0.2899
 1952SOL     OW 7860   0.444   0.896   3.478  0.1134 -0.0391 -0.4182
 1952SOL    HW2 7861   0.451   0.901   3.573 -1.1585  0.0452 -0.3256
 1952SOL    HW3 7862   0.432   0.986   3.449 -1.1159 -0.2361 -0.5271
 1952SOL    MW4 7863   0.443   0.908   3.486 -0.2166 -0.0541 -0.4206
 1953SOL     OW 7864   0.444   1.143   3.373  0.2610  0.0425 -0.3875
 1953SOL    HW2 7865   0.508   1.203   3.412 -0.3348  0.5372 -0.1602
 1953SOL    HW3 7866   0.471   1.135   3.282  0.6027  0.3090 -0.3138
 1953SOL    MW4 7867   0.456   1.150   3.366  0.2275  0.1431 -0.3479
 1954SOL     OW 7868   0.679   1.248   3.495 -0.2496  0.4700 -0.0924
 1954SOL    HW2 7869   0.747   1.184   3.474 -1.1763 -0.1440 -1.2874
 1954SOL    HW3 7870   0.714   1.331   3.462  0.4258  0.3609  0.3472
 1954SOL    MW4 7871   0.693   1.251   3.488 -0.2828  0.3747 -0.1919
 1955SOL     OW 7872   0.724   1.504   3.411  0.2460 -0.4747  0.4352
 1955SOL    HW2 7873   0.792   1.554   3.456  0.1075 -0.2491  0.3932
 1955SOL    HW3 7874   0.642   1.540   3.444  0.1212  0.8001 -1.2185
 1955SOL    MW4 7875   0.722   1.515   3.421  0.2113 -0.2767  0.2112
 1956SOL     OW 7876   0.489   1.639   3.491  0.1485  0.1948  0.3465
 1956SOL    HW2 7877   0.473   1.644   3.585 -0.9291 -0.3837  0.2023
 1956SOL    HW3 7878   0.477   1.729   3.460 -0.0382  0.2867  0.6763
 1956SOL    MW4 7879   0.486   1.652   3.499 -0.0182  0.1305  0.3710
 1957SOL     OW 7880   0.459   1.924   3.407  0.2973  0.4896 -0.1302
 1957SOL    HW2 7881   0.381   1.967   3.441 -1.2107 -1.7914 -0.5873
 1957SOL    HW3 7882   0.450   1.928   3.312 -0.1174 -1.2450 -0.1796
 1957SOL    MW4 7883   0.448   1.930   3.399  0.0436 -0.0403 -0.1972
 1958SOL     OW 7884   0.674   2.040   3.551  0.0616 -0.0189 -0.1417
 1958SOL    HW2 7885   0.669   2.041   3.647  1.7110  2.1143 -0.0235
 1958SOL    HW3 7886   0.587   2.013   3.522 -0.6237 -0.1567  1.9527
 1958SOL    MW4 7887   0.662   2.036   3.560  0.1888  0.2446  0.1504
 1959SOL     OW 7888   0.665   2.303   3.406  0.0875  0.1357 -0.0965
 1959SOL    HW2 7889   0.742   2.355   3.428 -0.9525  1.0736  1.4072
 1959SOL    HW3 7890   0.673   2.225   3.461 -0.2514  0.4165  0.3447
 1959SOL    MW4 7891   0.676   2.299   3.416 -0.0945  0.2964  0.1602
 1960SOL     OW 7892   0.438   2.463   3.470 -0.0058 -0.1341 -0.0951
 1960SOL    HW2 7893   0.510   2.405   3.446 -1.0495 -1.0572 -1.0314
 1960SOL    HW3 7894   0.360   2.421   3.435 -1.2402 -0.0490  2.4062
 1960SOL    MW4 7895   0.437   2.450   3.462 -0.3064 -0.2449  0.1116
 1961SOL     OW 7896   0.462   2.749   3.396  0.6776 -0.5782  0.2477
 1961SOL    HW2 7897   0.451   2.659   3.427 -0.2544 -0.3474  0.6110
 1961SOL    HW3 7898   0.464   2.743   3.301  1.1135 -1.0338  0.2857
 1961SOL    MW4 7899   0.461   2.737   3.388  0.6121 -0.6077  0.3006
 1962SOL     OW 7900   0.691   2.856   3.481  0.1777 -0.4190  0.2978
 1962SOL    HW2 7901   0.757   2.798   3.445  1.0811  0.9680 -0.3143
 1962SOL    HW3 7902   0.608   2.823   3.446  0.8568 -0.2100 -1.5487
 1962SOL    MW4 7903   0.689   2.844   3.472  0.3865 -0.2084 -0.0265
 1963SOL     OW 7904   0.689   3.119   3.401 -0.1502  0.3112  0.0882
 1963SOL    HW2 7905   0.624   3.165   3.453 -0.6947  0.7082 -0.9277
 1963SOL    HW3 7906   0.691   3.030   3.437 -0.6871  0.5197  0.6265
 1963SOL    MW4 7907   0.681   3.113   3.413 -0.2929  0.3912  0.0250
 1964SOL     OW 7908   0.463   3.242   3.513  0.5402 -0.0548 -0.0771
 1964SOL    HW2 7909   0.448   3.244   3.608  0.9740  1.3953 -0.0233
 1964SOL    HW3 7910   0.385   3.200   3.477 -0.2627  0.6620  0.8053
 1964SOL    MW4 7911   0.451   3.237   3.521  0.4915  0.2308  0.0465
 1965SOL     OW 7912   0.467   3.496   3.394 -0.3817  0.0250  0.1741
 1965SOL    HW2 7913   0.456   3.413   3.440  0.0197 -0.5757 -0.7898
 1965SOL    HW3 7914   0.390   3.547   3.418 -2.1385 -1.7207 -1.4981
 1965SOL    MW4 7915   0.455   3.492   3.403 -0.5605 -0.2842 -0.1740
 1966SOL     OW 7916   0.696   3.604   3.510  0.2289 -0.1669  0.3681
 1966SOL    HW2 7917   0.769   3.575   3.455  0.5369 -0.4248  0.9139
 1966SOL    HW3 7918   0.623   3.548   3.484  0.0540  0.4961 -0.6132
 1966SOL    MW4 7919   0.696   3.593   3.499  0.2465 -0.1132  0.3107
 1967SOL     OW 7920   0.711   3.830   3.350  0.2786  0.0316 -0.1117
 1967SOL    HW2 7921   0.659   3.895   3.398  0.5257  0.1312  0.0227
 1967SOL    HW3 7922   0.704   3.751   3.404 -0.5486 -0.2400 -0.6035
 1967SOL    MW4 7923   0.703   3.828   3.363  0.2021  0.0086 -0.1590
 1968SOL     OW 7924   0.522   3.995   3.482  0.0900 -0.4322 -0.4971
 1968SOL    HW2 7925   0.500   4.080   3.443 -1.2916 -0.6428 -0.2206
 1968SOL    HW3 7926   0.442   3.943   3.473  0.8777 -1.6566 -0.5232
 1968SOL    MW4 7927   0.508   3.999   3.476  0.0116 -0.6211 -0.4640
 1969SOL     OW 7928   0.475   4.249   3.410  0.3848 -0.1205  0.2735
 1969SOL    HW2 7929   0.548   4.301   3.443  0.6546  0.0791 -0.6340
 1969SOL    HW3 7930   0.482   4.254   3.315  0.5759 -2.0726  0.1720
 1969SOL    MW4 7931   0.485   4.257   3.402  0.4456 -0.3514  0.1404
 1970SOL     OW 7932   0.687   4.429   3.494  0.0531  0.1688 -0.0097
 1970SOL    HW2 7933   0.752   4.373   3.452  0.3578 -0.0440  0.7434
 1970SOL    HW3 7934   0.673   4.500   3.432  1.2983  0.4326 -0.0057
 1970SOL    MW4 7935   0.694   4.431   3.480  0.2576  0.1755  0.0906
 1971SOL     OW 7936   1.135   4.636   3.397  0.1314 -0.1812  0.7512
 1971SOL    HW2 7937   1.220   4.669   3.424  0.0913 -0.2818  1.0057
 1971SOL    HW3 7938   1.138   4.634   3.302  0.6035 -0.7002  0.7810
 1971SOL    MW4 7939   1.146   4.640   3.388  0.1885 -0.2627  0.7887
 1972SOL     OW 7940   0.875   0.073   3.495 -0.3116 -0.1074  0.0358
 1972SOL    HW2 7941   0.875   0.090   3.589  1.5423  1.6959 -0.2564
 1972SOL    HW3 7942   0.964   0.043   3.476  0.4338  2.9938 -1.6822
 1972SOL    MW4 7943   0.887   0.071   3.505  0.0313  0.5396 -0.2294
 1973SOL     OW 7944   0.900   0.347   3.382 -0.2085  0.0519  0.3127
 1973SOL    HW2 7945   0.975   0.385   3.428  2.4434 -1.7673 -2.3040
 1973SOL    HW3 7946   0.890   0.260   3.421  1.4837 -1.1478 -1.8163
 1973SOL    MW4 7947   0.908   0.341   3.393  0.3647 -0.3465 -0.3133
 1974SOL     OW 7948   1.095   0.457   3.520 -0.3031  0.1913  0.1085
 1974SOL    HW2 7949   1.095   0.471   3.615  1.2342  0.9785  0.0074
 1974SOL    HW3 7950   1.078   0.543   3.483  3.0450  0.7301 -0.3842
 1974SOL    MW4 7951   1.093   0.470   3.528  0.3414  0.3663  0.0303
 1975SOL     OW 7952   1.078   0.729   3.454  0.2647  0.0599  0.0445
 1975SOL    HW2 7953   1.150   0.771   3.502  0.4656 -1.0913  0.7629
 1975SOL    HW3 7954   0.999   0.775   3.484  0.5954  0.6834 -0.0315
 1975SOL    MW4 7955   1.077   0.741   3.464  0.3350 -0.0097  0.1295
 1976SOL     OW 7956   0.849   0.861   3.599 -0.2920 -0.3138 -0.0488
 1976SOL    HW2 7957   0.868   0.936   3.543  0.1500 -0.1308  0.3492
 1976SOL    HW3 7958   0.800   0.801   3.542 -1.2971  0.5912 -0.1564
 1976SOL    MW4 7959   0.845   0.863   3.584 -0.3664 -0.1703 -0.0105
 1977SOL     OW 7960   0.896   1.078   3.431  0.3305 -0.1546 -0.0774
 1977SOL    HW2 7961   0.969   1.122   3.475  0.1736  1.0298 -0.9639
 1977SOL    HW3 7962   0.918   1.085   3.338 -0.5689 -0.4150 -0.3083
 1977SOL    MW4 7963   0.909   1.085   3.424  0.1912 -0.0329 -0.2248
 1978SOL     OW 7964   1.101   1.243   3.521  0.4004 -0.1249 -0.3799
 1978SOL    HW2 7965   1.123   1.250   3.614  1.0328 -0.9472 -0.4528
 1978SOL    HW3 7966   1.120   1.329   3.485 -1.1910  0.6226  0.5233
 1978SOL    MW4 7967   1.106   1.255   3.529  0.2738 -0.1348 -0.2701
 1979SOL     OW 7968   1.153   1.491   3.411  0.0788 -0.1961  0.1115
 1979SOL    HW2 7969   1.215   1.553   3.448 -0.7463 -0.1473  1.4521
 1979SOL    HW3 7970   1.158   1.504   3.317  0.4368  1.3960  0.3452
 1979SOL    MW4 7971   1.162   1.501   3.404  0.0172  0.0204  0.3195
 1980SOL     OW 7972   0.933   1.648   3.515 -0.0785  0.0250 -0.2036
 1980SOL    HW2 7973   0.933   1.734   3.475 -0.9743 -0.6314 -1.6653
 1980SOL    HW3 7974   1.009   1.603   3.478 -0.2869 -0.2069 -0.3572
 1980SOL    MW4 7975   0.943   1.653   3.505 -0.2242 -0.0923 -0.4165
 1981SOL     OW 7976   0.907   1.927   3.423 -0.0598 -0.4079  0.2047
 1981SOL    HW2 7977   0.978   1.982   3.454 -0.7137  0.5068  0.1034
 1981SOL    HW3 7978   0.829   1.961   3.467 -0.4353 -1.4084  0.3318
 1981SOL    MW4 7979   0.906   1.939   3.433 -0.1957 -0.4193  0.2081
 1982SOL     OW 7980   1.147   2.078   3.532  0.0244 -0.2453  0.1490
 1982SOL    HW2 7981   1.212   2.022   3.489 -0.0220 -0.9499  0.9909
 1982SOL    HW3 7982   1.136   2.152   3.472  2.7991  0.7053  0.7621
 1982SOL    MW4 7983   1.154   2.080   3.518  0.3844 -0.2129  0.3407
 1983SOL     OW 7984   1.113   2.325   3.393 -0.2651 -0.1024 -0.4500
 1983SOL    HW2 7985   1.197   2.364   3.417 -0.6477  0.4027  0.0999
 1983SOL    HW3 7986   1.110   2.332   3.297 -0.5537  1.7377 -0.3245
 1983SOL    MW4 7987   1.124   2.331   3.383 -0.3537  0.2069 -0.3612
 1984SOL     OW 7988   0.886   2.474   3.479 -0.2700  0.5930 -0.1463
 1984SOL    HW2 7989   0.900   2.483   3.573  0.4678 -0.0421 -0.1938
 1984SOL    HW3 7990   0.959   2.422   3.448 -0.3061  1.1044 -1.1376
 1984SOL    MW4 7991   0.897   2.469   3.487 -0.1774  0.5767 -0.2835
 1985SOL     OW 7992   0.894   2.729   3.355  0.2633 -0.3653 -0.3509
 1985SOL    HW2 7993   0.965   2.773   3.402 -0.1630 -0.9539  0.8616
 1985SOL    HW3 7994   0.898   2.638   3.386  0.2243 -0.8520 -1.7472
 1985SOL    MW4 7995   0.904   2.723   3.365  0.2019 -0.5071 -0.3753
 1986SOL     OW 7996   1.108   2.815   3.516 -0.3558 -0.0926  0.1506
 1986SOL    HW2 7997   1.121   2.822   3.611 -0.5711  0.0508  0.1689
 1986SOL    HW3 7998   1.189   2.774   3.484 -0.4572 -0.5229  0.4477
 1986SOL    MW4 7999   1.121   2.811   3.524 -0.3974 -0.1307  0.1922
 1987SOL     OW 8000   1.166   3.084   3.447 -0.0946  0.3209 -0.1923
 1987SOL    HW2 8001   1.157   2.991   3.469 -1.0148  0.4508  0.0246
 1987SOL    HW3 8002   1.182   3.085   3.353 -1.0499 -0.0246 -0.3683
 1987SOL    MW4 8003   1.167   3.072   3.438 -0.3420  0.2923 -0.1869
 1988SOL     OW 8004   0.942   3.219   3.493 -0.1667  0.1707 -0.1826
 1988SOL    HW2 8005   1.026   3.181   3.469  0.1606  1.0330 -0.4507
 1988SOL    HW3 8006   0.878   3.173   3.440  0.3220  0.6057 -1.1684
 1988SOL    MW4 8007   0.945   3.208   3.483 -0.0590  0.3417 -0.3483
 1989SOL     OW 8008   0.912   3.489   3.400 -0.2359  0.1402 -0.6390
 1989SOL    HW2 8009   0.907   3.400   3.436 -1.5408  0.7595  0.7642
 1989SOL    HW3 8010   0.909   3.476   3.305  0.1323 -1.3472 -0.4650
 1989SOL    MW4 8011   0.911   3.476   3.392 -0.3594  0.0255 -0.4311
 1990SOL     OW 8012   1.167   3.590   3.492 -0.0005  0.1326  0.4861
 1990SOL    HW2 8013   1.162   3.589   3.587  0.9669 -1.1751  0.5283
 1990SOL    HW3 8014   1.083   3.554   3.464  0.7148 -1.8723  0.8887
 1990SOL    MW4 8015   1.155   3.585   3.501  0.2216 -0.3045  0.5450
 1991SOL     OW 8016   1.138   3.866   3.412 -0.5474  0.0787  0.5168
 1991SOL    HW2 8017   1.214   3.920   3.433  0.1748 -0.1556 -1.3939
 1991SOL    HW3 8018   1.161   3.779   3.444 -0.8091  0.4262  1.6553
 1991SOL    MW4 8019   1.151   3.862   3.419 -0.4865  0.0939  0.4151
 1992SOL     OW 8020   0.904   3.995   3.483 -0.3429  0.7249  0.0179
 1992SOL    HW2 8021   0.986   3.952   3.461 -0.0643  1.2934 -0.0814
 1992SOL    HW3 8022   0.837   3.946   3.436 -0.0430  0.3373 -0.0042
 1992SOL    MW4 8023   0.906   3.983   3.474 -0.2666  0.7486  0.0017
 1993SOL     OW 8024   0.893   4.257   3.405 -0.0839  0.2146  0.0473
 1993SOL    HW2 8025   0.902   4.168   3.439  1.2441  0.9595  1.6919
 1993SOL    HW3 8026   0.901   4.247   3.310 -0.9293 -1.5301  0.1283
 1993SOL    MW4 8027   0.895   4.244   3.397 -0.0202  0.0825  0.2749
 1994SOL     OW 8028   1.122   4.385   3.515  0.2077  0.2781 -0.1373
 1994SOL    HW2 8029   1.034   4.358   3.489  1.1872 -0.6898 -2.6150
 1994SOL    HW3 8030   1.126   4.478   3.493 -0.0481  0.2279 -0.3896
 1994SOL    MW4 8031   1.111   4.394   3.509  0.3031  0.1435 -0.4976
 1995SOL     OW 8032   1.597   4.653   3.364 -0.2818  0.5642  0.2510
 1995SOL    HW2 8033   1.587   4.563   3.396  0.7833 -0.1154 -1.2288
 1995SOL    HW3 8034   1.525   4.701   3.404 -0.3209 -0.7407  1.8127
 1995SOL    MW4 8035   1.586   4.647   3.373 -0.1465  0.3028  0.2618
 1996SOL     OW 8036   1.363   0.102   3.476 -0.0830  0.6821 -0.2436
 1996SOL    HW2 8037   1.348   0.105   3.571  1.0157  0.1368 -0.0428
 1996SOL    HW3 8038   1.352   0.192   3.447 -0.0542  0.9156  0.4637
 1996SOL    MW4 8039   1.360   0.114   3.485  0.0659  0.6410 -0.1235
 1997SOL     OW 8040   1.350   0.357   3.409  0.0956  0.2793  0.3532
 1997SOL    HW2 8041   1.432   0.402   3.430  0.8874 -0.6945 -0.6216
 1997SOL    HW3 8042   1.286   0.394   3.471  1.2898  0.9524  1.2021
 1997SOL    MW4 8043   1.352   0.368   3.420  0.3576  0.2397  0.3366
 1998SOL     OW 8044   1.562   0.505   3.495 -0.3184  0.1950  0.6487
 1998SOL    HW2 8045   1.561   0.510   3.590 -0.2183 -0.6882  0.7051
 1998SOL    HW3 8046   1.641   0.455   3.474 -1.0268 -0.7467  0.1689
 1998SOL    MW4 8047   1.572   0.499   3.505 -0.3986 -0.0458  0.5932
 1999SOL     OW 8048   1.537   0.781   3.412  0.4480  0.3414  0.0615
 1999SOL    HW2 8049   1.455   0.804   3.455 -0.1452 -0.6370 -0.5363
 1999SOL    HW3 8050   1.559   0.694   3.447  0.6945  0.1554 -0.5403
 1999SOL    MW4 8051   1.529   0.772   3.422  0.4023  0.1877 -0.0966
 2000SOL     OW 8052   1.306   0.886   3.531 -0.1784  0.3330  0.1550
 2000SOL    HW2 8053   1.315   0.898   3.625  1.8494 -0.7334  0.1417
 2000SOL    HW3 8054   1.312   0.974   3.494 -0.6507  0.7189  0.9974
 2000SOL    MW4 8055   1.308   0.899   3.538  0.0267  0.2432  0.2644
 2001SOL     OW 8056   1.323   1.145   3.404  0.2327 -0.5941  0.5594
 2001SOL    HW2 8057   1.393   1.207   3.424  0.4457 -0.2812 -1.0735
 2001SOL    HW3 8058   1.248   1.176   3.456  0.7703  0.1421  0.9044
 2001SOL    MW4 8059   1.322   1.157   3.414  0.3316 -0.4559  0.3893
 2002SOL     OW 8060   1.556   1.280   3.497  0.1673  0.1347  0.2851
 2002SOL    HW2 8061   1.568   1.296   3.590 -1.4815 -0.1443  0.5740
 2002SOL    HW3 8062   1.643   1.256   3.464  1.0624  1.7932  1.4215
 2002SOL    MW4 8063   1.569   1.279   3.505  0.0678  0.3167  0.4730
 2003SOL     OW 8064   1.567   1.563   3.448  0.0539 -0.0279  1.0479
 2003SOL    HW2 8065   1.554   1.470   3.468  0.0201 -0.5002 -1.1071
 2003SOL    HW3 8066   1.575   1.567   3.353  2.2443  1.9047  1.2477
 2003SOL    MW4 8067   1.566   1.551   3.438  0.3384  0.1647  0.7896
 2004SOL     OW 8068   1.327   1.655   3.537  0.3122  0.3641 -0.3632
 2004SOL    HW2 8069   1.323   1.653   3.633  0.6819  1.8834 -0.2952
 2004SOL    HW3 8070   1.418   1.633   3.517 -0.0302 -1.0353 -0.4237
 2004SOL    MW4 8071   1.338   1.652   3.547  0.3158  0.3798 -0.3622
 2005SOL     OW 8072   1.333   1.907   3.417 -0.1961 -0.1055 -0.5700
 2005SOL    HW2 8073   1.410   1.944   3.462 -0.5350 -0.2208  0.1151
 2005SOL    HW3 8074   1.325   1.819   3.454 -0.6532 -0.0958 -0.6530
 2005SOL    MW4 8075   1.342   1.901   3.428 -0.3011 -0.1194 -0.4907
 2006SOL     OW 8076   1.557   2.017   3.545 -0.2261 -0.3143  0.2666
 2006SOL    HW2 8077   1.650   1.995   3.538 -0.0232  0.7158 -0.4159
 2006SOL    HW3 8078   1.550   2.104   3.504 -0.9521  0.9757  2.9863
 2006SOL    MW4 8079   1.568   2.026   3.539 -0.2950 -0.0081  0.5352
 2007SOL     OW 8080   1.602   2.308   3.148 -0.7171  0.1191  0.7646
 2007SOL    HW2 8081   1.586   2.296   3.241 -0.1563  0.7679  0.9473
 2007SOL    HW3 8082   1.593   2.220   3.110  1.8686 -0.6535  1.8663
 2007SOL    MW4 8083   1.599   2.295   3.155 -0.3021  0.1025  0.9341
 2008SOL     OW 8084   1.347   2.460   3.505  0.0194  0.1587  0.6141
 2008SOL    HW2 8085   1.354   2.466   3.601 -0.2076  1.3390  0.5652
 2008SOL    HW3 8086   1.362   2.550   3.475 -0.7204 -0.0563 -0.4074
 2008SOL    MW4 8087   1.350   2.473   3.514 -0.1082  0.2859  0.4728
 2009SOL     OW 8088   1.343   2.726   3.388  0.3621 -1.1355  0.2945
 2009SOL    HW2 8089   1.424   2.771   3.417  0.2716 -0.4279 -0.5381
 2009SOL    HW3 8090   1.345   2.733   3.293 -1.5121  0.3387  0.3521
 2009SOL    MW4 8091   1.354   2.733   3.380  0.1029 -0.8478  0.1922
 2010SOL     OW 8092   1.826   2.708   3.399 -0.0025 -0.0104 -0.7513
 2010SOL    HW2 8093   1.891   2.770   3.431  1.1672 -2.3810  1.6447
 2010SOL    HW3 8094   1.743   2.740   3.432  0.5710  0.4058  0.2964
 2010SOL    MW4 8095   1.824   2.720   3.407  0.2276 -0.2682 -0.2971
 2011SOL     OW 8096   1.606   3.121   3.409  0.3612  0.4647  0.3071
 2011SOL    HW2 8097   1.688   3.150   3.449  0.4933  1.0423 -0.3848
 2011SOL    HW3 8098   1.539   3.146   3.474  0.6215  0.9807  0.3844
 2011SOL    MW4 8099   1.608   3.129   3.423  0.4131  0.6089  0.2258
 2012SOL     OW 8100   1.387   3.231   3.560 -0.1358 -0.0082 -0.0689
 2012SOL    HW2 8101   1.395   3.228   3.655 -0.2529 -0.0241 -0.0593
 2012SOL    HW3 8102   1.306   3.183   3.541 -0.0852 -0.0499 -0.1801
 2012SOL    MW4 8103   1.377   3.224   3.570 -0.1444 -0.0157 -0.0820
 2013SOL     OW 8104   1.357   3.436   3.380 -0.4106 -0.5485 -0.0977
 2013SOL    HW2 8105   1.376   3.359   3.434  0.4264 -0.6342 -0.5062
 2013SOL    HW3 8106   1.279   3.474   3.420 -0.1878 -0.9838  0.7732
 2013SOL    MW4 8107   1.349   3.431   3.393 -0.2707 -0.6173 -0.0367
 2014SOL     OW 8108   1.570   3.606   3.505 -0.2764 -0.2415 -0.2916
 2014SOL    HW2 8109   1.577   3.615   3.600  0.0114 -1.9148 -0.1502
 2014SOL    HW3 8110   1.496   3.547   3.492 -0.2840 -0.0522 -1.1088
 2014SOL    MW4 8111   1.561   3.600   3.516 -0.2395 -0.4373 -0.3805
 2015SOL     OW 8112   1.590   3.874   3.400  0.1671 -0.3737 -0.2241
 2015SOL    HW2 8113   1.595   3.781   3.424 -0.2804 -0.3973 -0.2225
 2015SOL    HW3 8114   1.601   3.875   3.305 -1.0914 -0.5349 -0.3726
 2015SOL    MW4 8115   1.592   3.862   3.391 -0.0579 -0.3979 -0.2434
 2016SOL     OW 8116   1.364   4.020   3.492  0.0740  0.0092 -0.2835
 2016SOL    HW2 8117   1.371   4.100   3.440 -1.4902  0.3235 -0.0204
 2016SOL    HW3 8118   1.442   3.970   3.468  0.2401  0.8947 -1.6735
 2016SOL    MW4 8119   1.375   4.024   3.482 -0.1105  0.1674 -0.4318
 2017SOL     OW 8120   1.361   4.280   3.377 -0.2099  0.2128  0.2386
 2017SOL    HW2 8121   1.274   4.313   3.402  0.5705  2.0213  0.6073
 2017SOL    HW3 8122   1.356   4.270   3.282 -0.5211  1.1968  0.1474
 2017SOL    MW4 8123   1.349   4.283   3.368 -0.1478  0.5813  0.2751
 2018SOL     OW 8124   1.586   4.398   3.479  0.0411 -0.2044  0.3519
 2018SOL    HW2 8125   1.660   4.356   3.435  1.0005  0.1078  1.6246
 2018SOL    HW3 8126   1.508   4.355   3.442  0.9309 -1.8977  0.3795
 2018SOL    MW4 8127   1.585   4.387   3.468  0.2851 -0.3867  0.5236
 2019SOL     OW 8128   2.072   4.604   3.395  0.1003 -0.5925  0.0937
 2019SOL    HW2 8129   2.121   4.680   3.427 -0.8342  0.8402 -1.8107
 2019SOL    HW3 8130   1.981   4.623   3.420 -0.1946 -0.8739 -0.7603
 2019SOL    MW4 8131   2.067   4.617   3.403 -0.0620 -0.4401 -0.2701
 2020SOL     OW 8132   1.832   0.029   3.475  0.0506  0.1591 -0.2848
 2020SOL    HW2 8133   1.816   0.040   3.568 -0.3775 -0.7610 -0.2447
 2020SOL    HW3 8134   1.746   0.010   3.437  0.2682  0.1989 -0.8108
 2020SOL    MW4 8135   1.818   0.028   3.482  0.0229  0.0429 -0.3488
 2021SOL     OW 8136   1.807   0.323   3.422  0.3157 -0.0580 -0.3871
 2021SOL    HW2 8137   1.822   0.230   3.440 -0.0399 -0.1446 -0.5516
 2021SOL    HW3 8138   1.791   0.328   3.328  2.3814  0.4300 -0.7364
 2021SOL    MW4 8139   1.807   0.312   3.412  0.5413 -0.0051 -0.4549
 2022SOL     OW 8140   2.040   0.491   3.489  0.0930  0.2567 -0.1431
 2022SOL    HW2 8141   2.020   0.585   3.487 -0.6363  0.1376  1.3013
 2022SOL    HW3 8142   1.956   0.449   3.474  0.5413 -0.1898 -1.5526
 2022SOL    MW4 8143   2.026   0.498   3.487  0.0560  0.1820 -0.1383
 2023SOL     OW 8144   1.984   0.759   3.428  0.0948 -0.1825  0.3232
 2023SOL    HW2 8145   2.056   0.805   3.473  0.7526 -0.8063 -0.0759
 2023SOL    HW3 8146   2.008   0.762   3.336 -1.3857  1.3058 -0.0277
 2023SOL    MW4 8147   1.997   0.765   3.422 -0.0138 -0.0684  0.2241
 2024SOL     OW 8148   1.769   0.915   3.516 -0.4947  0.2441 -0.3093
 2024SOL    HW2 8149   1.843   0.867   3.479 -0.8339 -1.7019  1.3939
 2024SOL    HW3 8150   1.692   0.876   3.475 -0.6955  0.4619 -0.1399
 2024SOL    MW4 8151   1.769   0.903   3.506 -0.5660  0.0162 -0.0620
 2025SOL     OW 8152   1.800   1.161   3.405 -0.0350 -0.0655  0.1359
 2025SOL    HW2 8153   1.879   1.184   3.455 -0.9626  0.6520  1.3013
 2025SOL    HW3 8154   1.771   1.078   3.444  0.9148 -1.0624 -1.2299
 2025SOL    MW4 8155   1.807   1.153   3.417 -0.0321 -0.1024  0.1094
 2026SOL     OW 8156   2.025   1.262   3.512 -0.6598 -0.0329  0.1881
 2026SOL    HW2 8157   2.039   1.270   3.606 -0.3440  0.0509  0.1353
 2026SOL    HW3 8158   2.005   1.352   3.484 -0.1279  0.0523  0.0764
 2026SOL    MW4 8159   2.024   1.275   3.521 -0.5481 -0.0105  0.1667
 2027SOL     OW 8160   2.023   1.519   3.417 -0.0650  0.0061  0.3325
 2027SOL    HW2 8161   2.100   1.574   3.432  0.1842  0.0430 -1.0088
 2027SOL    HW3 8162   1.953   1.562   3.466  0.2708  1.1689 -0.1916
 2027SOL    MW4 8163   2.024   1.532   3.425  0.0119  0.1645  0.0861
 2028SOL     OW 8164   1.813   1.641   3.538  0.6217 -0.0872  0.0687
 2028SOL    HW2 8165   1.809   1.732   3.509  2.4340 -0.5898 -1.9626
 2028SOL    HW3 8166   1.728   1.604   3.513  0.3097  0.7613 -0.1395
 2028SOL    MW4 8167   1.801   1.648   3.531  0.8197 -0.0415 -0.2270
 2029SOL     OW 8168   1.832   1.918   3.489 -0.1156  0.0881  0.0008
 2029SOL    HW2 8169   1.901   1.982   3.506  1.1459 -0.6366 -2.1719
 2029SOL    HW3 8170   1.833   1.906   3.394 -2.9903 -0.2370 -0.0458
 2029SOL    MW4 8171   1.841   1.925   3.479 -0.3284 -0.0503 -0.2918
 2030SOL     OW 8172   2.065   2.073   3.535  0.2544  0.4149 -0.0039
 2030SOL    HW2 8173   2.124   2.008   3.496  0.2265 -0.0771  0.7507
 2030SOL    HW3 8174   2.066   2.147   3.474  0.5098 -0.1810 -0.7291
 2030SOL    MW4 8175   2.073   2.074   3.522  0.2847  0.2713  0.0000
 2031SOL     OW 8176   2.074   2.298   3.384  0.2722 -0.0232  0.1881
 2031SOL    HW2 8177   2.144   2.345   3.430 -1.3412  2.2845  0.3465
 2031SOL    HW3 8178   2.105   2.291   3.294  1.0771  0.1755  0.4422
 2031SOL    MW4 8179   2.088   2.303   3.378  0.1655  0.3073  0.2425
 2032SOL     OW 8180   1.569   2.287   3.452 -0.5721 -0.1391 -0.1467
 2032SOL    HW2 8181   1.657   2.324   3.442 -1.0903  1.3112  0.4572
 2032SOL    HW3 8182   1.520   2.356   3.496 -1.7343 -1.3625  0.4846
 2032SOL    MW4 8183   1.574   2.301   3.456 -0.7939 -0.1094  0.0167
 2033SOL     OW 8184   1.822   2.417   3.447 -0.0141  0.1731 -0.6616
 2033SOL    HW2 8185   1.839   2.510   3.438 -0.3506  0.3036  0.0310
 2033SOL    HW3 8186   1.906   2.375   3.430  0.2521  0.6327 -0.4758
 2033SOL    MW4 8187   1.835   2.424   3.443 -0.0232  0.2511 -0.5455
 2034SOL     OW 8188   2.034   2.866   3.505 -0.1181 -0.1194 -0.3140
 2034SOL    HW2 8189   2.049   2.856   3.600 -1.1807 -2.1459 -0.3133
 2034SOL    HW3 8190   2.025   2.960   3.492  0.1089  0.2034  1.5973
 2034SOL    MW4 8191   2.035   2.877   3.516 -0.2282 -0.3443 -0.0618
 2035SOL     OW 8192   2.026   3.122   3.398 -0.3764 -0.0227  0.0357
 2035SOL    HW2 8193   2.103   3.155   3.444 -0.2627 -1.9366  1.2576
 2035SOL    HW3 8194   1.952   3.166   3.440 -0.2085 -1.1201  1.5172
 2035SOL    MW4 8195   2.026   3.132   3.410 -0.3393 -0.4203  0.3920
 2036SOL     OW 8196   1.838   3.256   3.530  0.5403  0.4708 -0.1590
 2036SOL    HW2 8197   1.846   3.261   3.625  1.7971  1.5253 -0.3195
 2036SOL    HW3 8198   1.827   3.347   3.501 -0.3575  0.1179 -0.9884
 2036SOL    MW4 8199   1.838   3.269   3.539  0.5876  0.5636 -0.2897
 2037SOL     OW 8200   1.811   3.502   3.407  0.4729 -0.2034 -0.0276
 2037SOL    HW2 8201   1.723   3.534   3.429  0.5452 -0.4246  0.5893
 2037SOL    HW3 8202   1.808   3.489   3.313  0.7491  2.5749 -0.4798
 2037SOL    MW4 8203   1.799   3.505   3.398  0.5188  0.1340 -0.0055
 2038SOL     OW 8204   2.034   3.623   3.546 -0.3248 -0.3497  0.3714
 2038SOL    HW2 8205   2.102   3.588   3.488 -0.4102  1.9757 -1.2361
 2038SOL    HW3 8206   1.952   3.592   3.508 -0.3741  1.0686 -0.7227
 2038SOL    MW4 8207   2.032   3.615   3.533 -0.3424  0.1440  0.0145
 2039SOL     OW 8208   2.059   3.866   3.397 -0.0982 -0.1789 -0.0796
 2039SOL    HW2 8209   1.980   3.916   3.417 -0.7197 -1.5260  0.9093
 2039SOL    HW3 8210   2.051   3.786   3.449  2.6643  0.3494  1.2500
 2039SOL    MW4 8211   2.047   3.862   3.406  0.1841 -0.2868  0.2263
 2040SOL     OW 8212   1.821   4.003   3.467 -0.3827 -0.3246 -0.2293
 2040SOL    HW2 8213   1.828   4.036   3.557  1.2617 -1.0896 -0.0625
 2040SOL    HW3 8214   1.735   3.962   3.463 -0.6812  0.1693  0.8356
 2040SOL    MW4 8215   1.811   4.002   3.478 -0.2050 -0.3605 -0.0668
 2041SOL     OW 8216   1.800   4.251   3.372  0.3196  0.2718  0.1462
 2041SOL    HW2 8217   1.823   4.164   3.406  0.6783  0.1917 -0.2915
 2041SOL    HW3 8218   1.779   4.235   3.280 -1.1707  0.4002  0.4507
 2041SOL    MW4 8219   1.800   4.237   3.364  0.1702  0.2785  0.1287
 2042SOL     OW 8220   2.036   4.350   3.493  0.1286 -0.0855  0.0257
 2042SOL    HW2 8221   1.943   4.336   3.472 -0.5589  1.4242  1.9544
 2042SOL    HW3 8222   2.055   4.437   3.459  0.4334  0.2031  0.9267
 2042SOL    MW4 8223   2.026   4.359   3.486  0.0780  0.1516  0.3989
 2043SOL     OW 8224   2.487   4.653   3.419 -0.2297  0.0823  0.0176
 2043SOL    HW2 8225   2.506   4.569   3.462 -1.2756 -0.6599 -0.9367
 2043SOL    HW3 8226   2.453   4.628   3.333 -0.7270  1.4867 -0.1980
 2043SOL    MW4 8227   2.485   4.638   3.413 -0.4334  0.1698 -0.1366
 2044SOL     OW 8228   2.251   0.116   3.505 -0.5266 -0.0622  0.1415
 2044SOL    HW2 8229   2.256   0.207   3.474 -0.5170  0.1779  0.8477
 2044SOL    HW3 8230   2.335   0.078   3.479 -0.5514  0.1096 -0.2031
 2044SOL    MW4 8231   2.263   0.123   3.497 -0.5283 -0.0078  0.1893
 2045SOL     OW 8232   2.281   0.370   3.409 -0.0893  0.6747 -0.1875
 2045SOL    HW2 8233   2.343   0.440   3.429  0.6314  0.1175 -0.4440
 2045SOL    HW3 8234   2.197   0.402   3.442  0.3918  1.3073  0.4357
 2045SOL    MW4 8235   2.278   0.383   3.416  0.0694  0.6846 -0.1390
 2046SOL     OW 8236   2.458   0.565   3.518 -0.4390 -0.1954  0.1266
 2046SOL    HW2 8237   2.536   0.526   3.479 -1.2676 -2.0657  0.2753
 2046SOL    HW3 8238   2.459   0.655   3.488  1.2198 -0.4627 -0.7167
 2046SOL    MW4 8239   2.469   0.571   3.509 -0.3295 -0.4774  0.0350
 2047SOL     OW 8240   2.436   0.825   3.413  0.3987 -0.0891  0.1375
 2047SOL    HW2 8241   2.525   0.845   3.442  0.9768 -1.7251 -0.4181
 2047SOL    HW3 8242   2.443   0.820   3.318 -0.1328 -0.9022  0.1402
 2047SOL    MW4 8243   2.449   0.827   3.405  0.4051 -0.4122  0.0644
 2048SOL     OW 8244   2.203   0.895   3.542  0.2296 -0.2332  0.1338
 2048SOL    HW2 8245   2.215   0.987   3.519  0.2100 -0.2905 -0.1052
 2048SOL    HW3 8246   2.279   0.850   3.506 -0.0229 -0.3900 -0.2164
 2048SOL    MW4 8247   2.214   0.901   3.534  0.1938 -0.2614  0.0563
 2049SOL     OW 8248   2.237   1.135   3.410  0.1441 -0.0552 -0.1560
 2049SOL    HW2 8249   2.317   1.172   3.448 -0.3313  1.6456 -0.7825
 2049SOL    HW3 8250   2.166   1.185   3.451 -0.5882 -1.1403 -0.0685
 2049SOL    MW4 8251   2.238   1.146   3.421 -0.0153  0.0261 -0.2275
 2050SOL     OW 8252   2.465   1.266   3.513  0.2830 -0.7697  0.2525
 2050SOL    HW2 8253   2.471   1.267   3.608 -0.4969  0.5630  0.2907
 2050SOL    HW3 8254   2.541   1.215   3.485 -0.1553 -2.2097  1.6254
 2050SOL    MW4 8255   2.476   1.259   3.522  0.1223 -0.7838  0.4387
 2051SOL     OW 8256   2.438   1.508   3.418  0.0428  0.3209 -0.2800
 2051SOL    HW2 8257   2.450   1.418   3.450 -1.5365  0.2925  0.2583
 2051SOL    HW3 8258   2.453   1.501   3.323 -0.9474 -0.6945 -0.3765
 2051SOL    MW4 8259   2.442   1.495   3.410 -0.2964  0.1832 -0.2217
 2052SOL     OW 8260   2.237   1.666   3.526 -0.1902 -0.0434  0.5413
 2052SOL    HW2 8261   2.230   1.671   3.622 -0.9333 -1.3472  0.5555
 2052SOL    HW3 8262   2.306   1.602   3.511  0.2802  0.5388  0.1983
 2052SOL    MW4 8263   2.245   1.658   3.537 -0.2263 -0.1386  0.4981
 2053SOL     OW 8264   2.275   1.930   3.406 -0.1753  0.4655  0.2030
 2053SOL    HW2 8265   2.272   1.836   3.428  1.9255  0.4507  0.5521
 2053SOL    HW3 8266   2.258   1.933   3.312 -0.9892 -0.1984  0.3204
 2053SOL    MW4 8267   2.272   1.918   3.397 -0.0055  0.3760  0.2644
 2054SOL     OW 8268   2.495   2.070   3.496  0.0633 -0.3962 -0.3451
 2054SOL    HW2 8269   2.495   2.056   3.591  2.0812 -0.6770 -0.3715
 2054SOL    HW3 8270   2.421   2.019   3.465 -0.8286 -0.0292  1.1157
 2054SOL    MW4 8271   2.485   2.061   3.505  0.2120 -0.3850 -0.1562
 2055SOL     OW 8272   2.476   2.328   3.413  0.1984 -0.4461 -0.0547
 2055SOL    HW2 8273   2.557   2.376   3.426 -0.9219  1.5121 -0.1367
 2055SOL    HW3 8274   2.491   2.243   3.456  1.6447  0.5437  1.4403
 2055SOL    MW4 8275   2.488   2.323   3.420  0.2413 -0.0575  0.1316
 2056SOL     OW 8276   2.263   2.442   3.535  0.1367 -0.2607 -1.0089
 2056SOL    HW2 8277   2.256   2.526   3.490 -0.8104  0.1770 -0.0796
 2056SOL    HW3 8278   2.329   2.394   3.486  0.7333  1.0494 -1.5117
 2056SOL    MW4 8279   2.271   2.447   3.523  0.0904 -0.0300 -0.9527
 2057SOL     OW 8280   2.216   2.696   3.379 -0.0599  0.5806 -0.3145
 2057SOL    HW2 8281   2.149   2.759   3.405 -0.6825 -0.2849  0.2200
 2057SOL    HW3 8282   2.219   2.702   3.284 -1.0127  0.5296 -0.3592
 2057SOL    MW4 8283   2.207   2.705   3.370 -0.2677  0.4599 -0.2499
 2058SOL     OW 8284   2.468   2.810   3.494  0.1235  0.2801  0.1610
 2058SOL    HW2 8285   2.465   2.905   3.483  0.0125  0.6227  2.6793
 2058SOL    HW3 8286   2.385   2.780   3.458  0.0063  1.1702 -0.3486
 2058SOL    MW4 8287   2.457   2.819   3.488  0.0932  0.4427  0.4261
 2059SOL     OW 8288   2.459   3.083   3.431  0.1157  0.0111 -0.1980
 2059SOL    HW2 8289   2.533   3.124   3.475  1.7720 -1.0898 -1.8966
 2059SOL    HW3 8290   2.477   3.094   3.338 -0.2924 -2.9573 -0.6794
 2059SOL    MW4 8291   2.471   3.090   3.425  0.2804 -0.5257 -0.4857
 2060SOL     OW 8292   2.252   3.259   3.489 -0.2573  0.3960 -0.0245
 2060SOL    HW2 8293   2.251   3.253   3.585 -1.0509  1.6472  0.0614
 2060SOL    HW3 8294   2.326   3.204   3.462 -1.0008 -1.2678  1.1972
 2060SOL    MW4 8295   2.262   3.251   3.498 -0.4604  0.3414  0.1481
 2061SOL     OW 8296   2.255   3.531   3.393  0.3406  0.3484 -0.0614
 2061SOL    HW2 8297   2.235   3.440   3.412  1.2332  0.2171  0.2688
 2061SOL    HW3 8298   2.246   3.538   3.298  0.4457 -0.1189 -0.1067
 2061SOL    MW4 8299   2.251   3.520   3.383  0.4723  0.2694 -0.0238
 2062SOL     OW 8300   2.508   3.600   3.503  0.3775 -0.1264  0.0024
 2062SOL    HW2 8301   2.524   3.689   3.474 -0.3206 -0.0463 -0.1458
 2062SOL    HW3 8302   2.426   3.575   3.460 -0.2201 -0.3012  1.2019
 2062SOL    MW4 8303   2.499   3.608   3.494  0.2065 -0.1390  0.1414
 2063SOL     OW 8304   2.549   3.873   3.419 -0.2659 -0.0416  0.0140
 2063SOL    HW2 8305   2.624   3.927   3.444  0.3355 -0.3967 -0.9967
 2063SOL    HW3 8306   2.474   3.918   3.457  0.4912  0.1241  1.3303
 2063SOL    MW4 8307   2.549   3.886   3.427 -0.0865 -0.0670  0.0544
 2064SOL     OW 8308   2.274   3.968   3.532 -0.9642 -0.2749 -0.0313
 2064SOL    HW2 8309   2.276   4.060   3.503 -0.4393 -0.6756 -1.2745
 2064SOL    HW3 8310   2.217   3.924   3.469 -0.7513 -0.9259  0.2262
 2064SOL    MW4 8311   2.267   3.975   3.520 -0.8674 -0.4132 -0.1612
 2065SOL     OW 8312   2.271   4.242   3.420  0.3945  0.1258  0.1479
 2065SOL    HW2 8313   2.188   4.287   3.440  0.5195  0.3508  0.1707
 2065SOL    HW3 8314   2.272   4.234   3.325 -0.6247 -1.7622  0.2895
 2065SOL    MW4 8315   2.260   4.247   3.410  0.2768 -0.0930  0.1695
 2066SOL     OW 8316   2.522   4.355   3.527 -0.2144  0.0185  0.0298
 2066SOL    HW2 8317   2.515   4.375   3.620  0.2774 -1.4316  0.3927
 2066SOL    HW3 8318   2.438   4.313   3.505  0.2059 -0.9016  0.1542
 2066SOL    MW4 8319   2.510   4.352   3.536 -0.0939 -0.2942  0.0942
 2067SOL     OW 8320   2.929   4.638   3.422 -0.5312 -0.1373 -0.4956
 2067SOL    HW2 8321   2.860   4.704   3.422 -1.0179 -0.6395 -2.0678
 2067SOL    HW3 8322   2.946   4.620   3.330  2.7067  1.0191 -0.1893
 2067SOL    MW4 8323   2.922   4.644   3.410 -0.1683 -0.0510 -0.6628
 2068SOL     OW 8324   2.699   0.149   3.500  0.0104  0.2750  0.4100
 2068SOL    HW2 8325   2.688   0.238   3.467  1.6381 -0.0312 -1.0536
 2068SOL    HW3 8326   2.631   0.098   3.455 -0.2057  0.5740  0.3969
 2068SOL    MW4 8327   2.689   0.154   3.489  0.1965  0.2740  0.2151
 2069SOL     OW 8328   2.679   0.410   3.403  0.2027 -0.2879  0.2470
 2069SOL    HW2 8329   2.764   0.426   3.442  0.4383 -0.3507 -0.2399
 2069SOL    HW3 8330   2.695   0.409   3.309 -0.2605 -0.7360  0.1675
 2069SOL    MW4 8331   2.692   0.412   3.396  0.1726 -0.3553  0.1724
 2070SOL     OW 8332   2.934   0.498   3.498 -0.1780 -0.1902 -0.4018
 2070SOL    HW2 8333   2.935   0.515   3.593  0.8201 -0.5246 -0.3406
 2070SOL    HW3 8334   2.931   0.585   3.458  0.0981 -0.0203 -0.0589
 2070SOL    MW4 8335   2.934   0.512   3.506 -0.0100 -0.2119 -0.3486
 2071SOL     OW 8336   2.918   0.739   3.386  0.1431  0.6843 -0.2127
 2071SOL    HW2 8337   2.987   0.795   3.421  0.2604  0.9809 -0.9091
 2071SOL    HW3 8338   2.837   0.776   3.420  0.4256 -0.7038  2.0445
 2071SOL    MW4 8339   2.916   0.751   3.395  0.1960  0.5403 -0.0067
 2072SOL     OW 8340   2.705   0.865   3.516  0.3496 -0.1322  0.3012
 2072SOL    HW2 8341   2.703   0.861   3.611 -2.6245 -0.0747  0.3053
 2072SOL    HW3 8342   2.711   0.958   3.495  0.7745 -0.1302  0.4403
 2072SOL    MW4 8343   2.705   0.877   3.526  0.0134 -0.1243  0.3200
 2073SOL     OW 8344   2.683   1.126   3.420 -0.1280 -0.1346  0.3972
 2073SOL    HW2 8345   2.768   1.167   3.434  0.1641 -0.9093  0.9308
 2073SOL    HW3 8346   2.683   1.099   3.328  0.1728 -0.0525  0.3735
 2073SOL    MW4 8347   2.694   1.128   3.410 -0.0498 -0.2259  0.4644
 2074SOL     OW 8348   2.907   1.263   3.483 -0.3031  0.1506  0.5746
 2074SOL    HW2 8349   2.902   1.257   3.578 -1.2121  0.6032  0.5574
 2074SOL    HW3 8350   2.988   1.218   3.460  1.1023  2.0440  1.7371
 2074SOL    MW4 8351   2.917   1.256   3.492 -0.2379  0.4600  0.7260
 2075SOL     OW 8352   2.929   1.543   3.402  0.0866 -0.1621  0.3422
 2075SOL    HW2 8353   2.847   1.574   3.439 -0.5015  1.1802 -2.0219
 2075SOL    HW3 8354   2.929   1.449   3.421 -3.0956 -0.6408 -1.5689
 2075SOL    MW4 8355   2.918   1.534   3.410 -0.4108 -0.0483 -0.2217
 2076SOL     OW 8356   2.684   1.610   3.521 -0.2611 -0.6069 -0.0527
 2076SOL    HW2 8357   2.694   1.690   3.470  0.0774 -0.4641  0.2319
 2076SOL    HW3 8358   2.594   1.582   3.506 -0.0641 -0.7496 -0.9963
 2076SOL    MW4 8359   2.674   1.617   3.513 -0.1905 -0.6069 -0.1397
 2077SOL     OW 8360   2.684   1.880   3.423  0.2340 -0.2144 -0.1129
 2077SOL    HW2 8361   2.635   1.953   3.461 -1.3681 -0.5698 -1.4577
 2077SOL    HW3 8362   2.684   1.896   3.329  0.6549 -1.4848 -0.3410
 2077SOL    MW4 8363   2.678   1.891   3.416  0.0780 -0.4289 -0.3204
 2078SOL     OW 8364   2.909   2.025   3.524  0.4405  0.2684 -0.1073
 2078SOL    HW2 8365   2.887   2.033   3.617  1.0609  0.4848  0.0224
 2078SOL    HW3 8366   2.860   1.949   3.494  0.7657 -0.2105  0.5628
 2078SOL    MW4 8367   2.900   2.016   3.532  0.5653  0.2339 -0.0019
 2079SOL     OW 8368   2.941   2.300   3.418 -0.6165 -0.2225  0.3826
 2079SOL    HW2 8369   2.933   2.212   3.456  0.3224 -0.7257 -0.5437
 2079SOL    HW3 8370   2.928   2.287   3.324  0.0058  0.5567  0.1808
 2079SOL    MW4 8371   2.938   2.287   3.411 -0.4106 -0.1857  0.2337
 2080SOL     OW 8372   2.723   2.467   3.460 -0.3276  0.2095  0.0914
 2080SOL    HW2 8373   2.706   2.465   3.554 -0.3170 -0.0558  0.0867
 2080SOL    HW3 8374   2.789   2.400   3.446 -0.7404 -0.1443 -0.1878
 2080SOL    MW4 8375   2.729   2.458   3.471 -0.3808  0.1278  0.0539
 2081SOL     OW 8376   2.684   2.727   3.353 -0.4211  0.4044 -0.6520
 2081SOL    HW2 8377   2.685   2.635   3.379 -0.3487  0.1442 -1.5462
 2081SOL    HW3 8378   2.609   2.764   3.400  0.0929  0.1028  0.4067
 2081SOL    MW4 8379   2.674   2.720   3.362 -0.3438  0.3300 -0.6301
 2082SOL     OW 8380   2.919   2.802   3.483  0.1644  0.3418  0.0719
 2082SOL    HW2 8381   2.901   2.803   3.577 -0.3303  0.2889 -0.0228
 2082SOL    HW3 8382   2.841   2.763   3.444  1.0123 -1.1287 -0.2196
 2082SOL    MW4 8383   2.906   2.797   3.491  0.2110  0.1409  0.0207
 2083SOL     OW 8384   2.896   3.085   3.430 -0.6825  0.0283 -0.0914
 2083SOL    HW2 8385   2.907   2.994   3.458  3.1957  0.0592 -1.2762
 2083SOL    HW3 8386   2.894   3.080   3.334 -0.2798  1.2382 -0.1600
 2083SOL    MW4 8387   2.897   3.072   3.421 -0.1178  0.1922 -0.2568
 2084SOL     OW 8388   2.681   3.227   3.524  0.4982  0.1123 -0.4311
 2084SOL    HW2 8389   2.681   3.231   3.620 -1.8661  0.3432 -0.4109
 2084SOL    HW3 8390   2.754   3.169   3.502  0.4081 -0.7822  1.5544
 2084SOL    MW4 8391   2.690   3.220   3.534  0.1743  0.0246 -0.1664
 2085SOL     OW 8392   2.713   3.448   3.382  0.0357 -0.0300 -0.0734
 2085SOL    HW2 8393   2.690   3.363   3.421  0.8269  0.0377  0.5535
 2085SOL    HW3 8394   2.639   3.504   3.403 -0.0545 -0.3036  0.3640
 2085SOL    MW4 8395   2.700   3.444   3.390  0.1280 -0.0572  0.0670
 2086SOL     OW 8396   2.946   3.564   3.492  0.1509 -0.7786 -0.0749
 2086SOL    HW2 8397   2.935   3.655   3.466 -0.3077 -0.3022  1.7579
 2086SOL    HW3 8398   2.867   3.520   3.460 -0.0829 -0.3462 -0.0930
 2086SOL    MW4 8399   2.934   3.570   3.484  0.0594 -0.6583  0.1645
 2087SOL     OW 8400   2.951   3.846   3.406  0.7769  0.4424  0.3423
 2087SOL    HW2 8401   3.033   3.878   3.444  0.4064 -0.8430  2.2742
 2087SOL    HW3 8402   2.882   3.897   3.449  0.3684 -0.8225  1.2100
 2087SOL    MW4 8403   2.953   3.857   3.416  0.6740  0.1061  0.7119
 2088SOL     OW 8404   2.764   3.992   3.543  0.1356  0.4038 -0.4630
 2088SOL    HW2 8405   2.731   3.998   3.633 -1.8333 -1.0934 -1.0414
 2088SOL    HW3 8406   2.761   4.082   3.510 -1.7695  0.5665  0.0885
 2088SOL    MW4 8407   2.759   4.005   3.550 -0.3757  0.2275 -0.4666
 2089SOL     OW 8408   2.754   4.241   3.417  0.0810  0.1433 -0.4413
 2089SOL    HW2 8409   2.824   4.293   3.455 -0.4335  0.0636  0.6367
 2089SOL    HW3 8410   2.673   4.278   3.453 -0.3694 -0.4494 -0.8188
 2089SOL    MW4 8411   2.752   4.253   3.427 -0.0463  0.0544 -0.3488
 2090SOL     OW 8412   2.941   4.390   3.556 -0.0593  0.0233 -0.3928
 2090SOL    HW2 8413   2.923   4.389   3.650 -0.3594 -1.6523 -0.4434
 2090SOL    HW3 8414   2.934   4.482   3.531  2.3332  0.8172  1.6474
 2090SOL    MW4 8415   2.937   4.402   3.565  0.2167 -0.0930 -0.1302
 2091SOL     OW 8416   3.357   4.591   3.439 -0.2068  0.4347 -0.0130
 2091SOL    HW2 8417   3.294   4.657   3.466  0.3582  1.0527 -0.1960
 2091SOL    HW3 8418   3.339   4.577   3.346  0.7095  1.4870 -0.3542
 2091SOL    MW4 8419   3.346   4.598   3.430 -0.0112  0.6552 -0.0818
 2092SOL     OW 8420   3.157   0.100   3.515  0.1471  0.0127 -0.2613
 2092SOL    HW2 8421   3.153   0.185   3.472  0.0364 -0.6350 -1.5532
 2092SOL    HW3 8422   3.074   0.057   3.493  0.5569 -0.7590 -0.3336
 2092SOL    MW4 8423   3.146   0.105   3.507  0.1867 -0.1746 -0.4413
 2093SOL     OW 8424   3.146   0.334   3.398 -0.0460 -0.5586  0.0289
 2093SOL    HW2 8425   3.081   0.395   3.432 -1.0129 -1.2327 -0.5990
 2093SOL    HW3 8426   3.139   0.341   3.303  1.5132  0.1172 -0.0571
 2093SOL    MW4 8427   3.137   0.343   3.390  0.0319 -0.5584 -0.0651
 2094SOL     OW 8428   3.374   0.468   3.489 -0.1017 -0.4892 -0.0969
 2094SOL    HW2 8429   3.363   0.481   3.583  1.0309  1.1016 -0.1632
 2094SOL    HW3 8430   3.293   0.425   3.461 -1.3673  0.9715  1.2399
 2094SOL    MW4 8431   3.362   0.464   3.498 -0.1190 -0.0866  0.0710
 2095SOL     OW 8432   3.373   0.735   3.411 -0.0934  0.0585  0.1283
 2095SOL    HW2 8433   3.445   0.782   3.454 -1.0509  0.2417  1.5952
 2095SOL    HW3 8434   3.383   0.645   3.440 -1.3988  0.3860  1.6987
 2095SOL    MW4 8435   3.384   0.729   3.421 -0.3920  0.1259  0.5293
 2096SOL     OW 8436   3.164   0.871   3.521  0.2698 -0.1649 -0.2105
 2096SOL    HW2 8437   3.164   0.965   3.499  0.4557 -0.3551 -1.0422
 2096SOL    HW3 8438   3.243   0.837   3.479  2.2625  0.0150  3.2167
 2096SOL    MW4 8439   3.175   0.879   3.513  0.5574 -0.1663  0.1318
 2097SOL     OW 8440   3.155   1.137   3.446 -0.0224 -0.2839 -0.4856
 2097SOL    HW2 8441   3.230   1.188   3.476  0.5264 -1.6903  0.6270
 2097SOL    HW3 8442   3.166   1.131   3.351  1.9630 -1.4660 -0.2212
 2097SOL    MW4 8443   3.166   1.143   3.437  0.3121 -0.6254 -0.3037
 2098SOL     OW 8444   3.376   1.274   3.505 -0.1463 -0.4137 -0.6632
 2098SOL    HW2 8445   3.456   1.236   3.467  0.3868 -0.2463  0.2797
 2098SOL    HW3 8446   3.373   1.363   3.471  0.1181 -0.3917 -0.6335
 2098SOL    MW4 8447   3.387   1.280   3.495 -0.0410 -0.3885 -0.5348
 2099SOL     OW 8448   3.384   1.531   3.421 -0.0254  0.0760 -0.2290
 2099SOL    HW2 8449   3.464   1.575   3.450 -0.0784 -0.5014  0.7987
 2099SOL    HW3 8450   3.313   1.590   3.448 -0.0230 -0.0351  0.0200
 2099SOL    MW4 8451   3.385   1.544   3.428 -0.0319 -0.0149 -0.0606
 2100SOL     OW 8452   3.150   1.678   3.503 -0.2686 -0.4155 -0.4222
 2100SOL    HW2 8453   3.156   1.772   3.486 -0.5587 -0.1752  0.7560
 2100SOL    HW3 8454   3.079   1.648   3.446  0.8265 -0.2141 -1.9342
 2100SOL    MW4 8455   3.142   1.687   3.493 -0.1621 -0.3573 -0.4661
 2101SOL     OW 8456   3.158   1.953   3.428  0.3329 -0.0699  0.0639
 2101SOL    HW2 8457   3.077   1.990   3.463  0.1862  0.2591 -0.6178
 2101SOL    HW3 8458   3.144   1.948   3.334  0.2376 -2.1809  0.1686
 2101SOL    MW4 8459   3.145   1.957   3.421  0.3006 -0.3049 -0.0122
 2102SOL     OW 8460   3.411   2.068   3.526  0.5530  0.3768  0.7742
 2102SOL    HW2 8461   3.405   2.156   3.487 -0.0311 -0.0658 -0.1341
 2102SOL    HW3 8462   3.332   2.023   3.497  1.9053 -1.1834 -0.6006
 2102SOL    MW4 8463   3.400   2.074   3.517  0.6542  0.1123  0.4728
 2103SOL     OW 8464   3.404   2.303   3.397 -0.1321  0.3116 -0.6656
 2103SOL    HW2 8465   3.478   2.344   3.442 -0.9505  0.6426  0.4091
 2103SOL    HW3 8466   3.327   2.346   3.434 -0.9938 -1.9171  0.1895
 2103SOL    MW4 8467   3.403   2.314   3.408 -0.3538  0.0613 -0.4113
 2104SOL     OW 8468   3.165   2.428   3.532 -0.2226 -0.0785  0.1972
 2104SOL    HW2 8469   3.161   2.517   3.498 -1.0945  0.5142  1.7918
 2104SOL    HW3 8470   3.079   2.391   3.513  0.4704 -0.9182 -1.3370
 2104SOL    MW4 8471   3.153   2.435   3.525 -0.2460 -0.1111  0.2053
 2105SOL     OW 8472   3.156   2.667   3.402 -0.4396 -0.1512 -0.2784
 2105SOL    HW2 8473   3.231   2.723   3.424 -0.7835  0.5566 -0.8702
 2105SOL    HW3 8474   3.080   2.719   3.429 -0.7826 -0.1059 -1.3307
 2105SOL    MW4 8475   3.156   2.681   3.409 -0.5302 -0.0520 -0.4954
 2106SOL     OW 8476   3.369   2.825   3.491  0.3479 -0.3981  0.1729
 2106SOL    HW2 8477   3.446   2.779   3.458  1.4364  0.0722  1.9861
 2106SOL    HW3 8478   3.374   2.912   3.453  0.5071 -0.4916 -0.0189
 2106SOL    MW4 8479   3.380   2.830   3.482  0.5124 -0.3481  0.3867
 2107SOL     OW 8480   3.374   3.072   3.360  0.0545 -0.1690  0.1696
 2107SOL    HW2 8481   3.448   3.116   3.403  0.2288 -0.8120  0.5298
 2107SOL    HW3 8482   3.297   3.103   3.409  0.1431  0.0232  0.1884
 2107SOL    MW4 8483   3.374   3.082   3.372  0.0894 -0.2282  0.2198
 2108SOL     OW 8484   3.161   3.186   3.523  0.2976 -0.0707  0.4905
 2108SOL    HW2 8485   3.183   3.280   3.527  0.0136 -0.0323  1.1956
 2108SOL    HW3 8486   3.069   3.184   3.496  1.3414 -0.2522 -3.2085
 2108SOL    MW4 8487   3.152   3.198   3.520  0.3979 -0.0896  0.0956
 2109SOL     OW 8488   3.202   3.475   3.433 -0.0391 -0.3393  0.1755
 2109SOL    HW2 8489   3.114   3.506   3.453  0.4151  0.7618  0.4995
 2109SOL    HW3 8490   3.205   3.471   3.337 -0.6389 -0.9826  0.1797
 2109SOL    MW4 8491   3.190   3.479   3.423 -0.0584 -0.2787  0.2189
 2110SOL     OW 8492   3.411   3.628   3.506 -0.1707  0.3501  0.3558
 2110SOL    HW2 8493   3.407   3.707   3.453  2.2656 -0.0763 -0.5523
 2110SOL    HW3 8494   3.335   3.577   3.481 -0.6260  1.4771 -0.5681
 2110SOL    MW4 8495   3.400   3.632   3.496  0.0908  0.4423  0.1140
 2111SOL     OW 8496   3.407   3.867   3.373  0.1264  0.1690  0.2298
 2111SOL    HW2 8497   3.467   3.913   3.432  0.0649 -0.2681  0.6398
 2111SOL    HW3 8498   3.320   3.895   3.401  0.1437  0.8290 -0.3863
 2111SOL    MW4 8499   3.404   3.876   3.384  0.1204  0.1984  0.2027
 2112SOL     OW 8500   3.187   3.959   3.506  0.8811 -0.6693  0.1564
 2112SOL    HW2 8501   3.176   3.957   3.601 -1.0157 -1.1698 -0.0414
 2112SOL    HW3 8502   3.161   4.048   3.481  0.8930 -0.6910  0.0674
 2112SOL    MW4 8503   3.182   3.970   3.515  0.6328 -0.7381  0.1185
 2113SOL     OW 8504   3.154   4.234   3.450 -0.5191 -0.0667  0.0678
 2113SOL    HW2 8505   3.235   4.271   3.485  0.1612 -0.9505 -0.5541
 2113SOL    HW3 8506   3.087   4.298   3.473  0.5298  1.2491 -0.4416
 2113SOL    MW4 8507   3.156   4.247   3.458 -0.2909 -0.0095 -0.0813
 2114SOL     OW 8508   3.380   4.341   3.580  0.4609 -0.1329  0.0164
 2114SOL    HW2 8509   3.363   4.339   3.674 -0.1214 -1.7697 -0.1057
 2114SOL    HW3 8510   3.377   4.433   3.557 -2.0512  0.0940  1.1271
 2114SOL    MW4 8511   3.377   4.353   3.590  0.0527 -0.3190  0.1469
 2115SOL     OW 8512   3.820   4.654   3.409  0.4073 -0.2319  0.3834
 2115SOL    HW2 8513   3.736   4.689   3.439 -0.4241 -1.1518 -0.8347
 2115SOL    HW3 8514   3.815   4.658   3.314  1.4303 -1.0349  0.2905
 2115SOL    MW4 8515   3.808   4.659   3.401  0.4325 -0.4597  0.2108
 2116SOL     OW 8516   3.585   0.064   3.543  0.0428  0.5746 -0.0975
 2116SOL    HW2 8517   3.583   0.155   3.512 -0.1404  0.3868 -0.6587
 2116SOL    HW3 8518   3.507   0.024   3.504 -0.4394  0.4415  0.9809
 2116SOL    MW4 8519   3.574   0.071   3.533 -0.0448  0.5322 -0.0293
 2117SOL     OW 8520   3.601   0.323   3.429 -0.1417  0.1946 -0.0913
 2117SOL    HW2 8521   3.655   0.376   3.488 -0.7937  0.3804  0.3489
 2117SOL    HW3 8522   3.512   0.354   3.444 -0.5879 -1.2958  0.4519
 2117SOL    MW4 8523   3.596   0.334   3.439 -0.2866  0.0225  0.0386
 2118SOL     OW 8524   3.797   0.463   3.557  0.2684 -0.2770  0.4714
 2118SOL    HW2 8525   3.811   0.476   3.651  2.2205  1.3581  0.0081
 2118SOL    HW3 8526   3.872   0.412   3.528 -0.7301 -1.4555 -0.0722
 2118SOL    MW4 8527   3.809   0.458   3.566  0.3943 -0.2167  0.3386
 2119SOL     OW 8528   3.793   0.728   3.445  0.1158  0.1427  0.2862
 2119SOL    HW2 8529   3.875   0.763   3.481  0.6716  0.2102 -1.0044
 2119SOL    HW3 8530   3.776   0.648   3.495  0.3273  0.7644  1.3710
 2119SOL    MW4 8531   3.802   0.722   3.457  0.2172  0.2337  0.2592
 2120SOL     OW 8532   3.573   0.889   3.526 -0.5811 -0.3138  0.2143
 2120SOL    HW2 8533   3.568   0.886   3.622 -0.3083  0.9024  0.2813
 2120SOL    HW3 8534   3.653   0.842   3.504  1.2952  2.4164  0.8469
 2120SOL    MW4 8535   3.583   0.883   3.536 -0.2973  0.2069  0.3068
 2121SOL     OW 8536   3.605   1.167   3.401 -0.2048  0.0483  0.1302
 2121SOL    HW2 8537   3.606   1.073   3.419  0.1274  0.3721  1.8065
 2121SOL    HW3 8538   3.598   1.172   3.305  1.7892 -1.6770 -0.1417
 2121SOL    MW4 8539   3.604   1.155   3.391  0.1025 -0.1365  0.3157
 2122SOL     OW 8540   3.833   1.297   3.494 -0.5061 -0.4659  0.7782
 2122SOL    HW2 8541   3.837   1.297   3.589  1.2160 -0.2318  0.7235
 2122SOL    HW3 8542   3.751   1.252   3.473 -1.2574  0.1167  2.3680
 2122SOL    MW4 8543   3.823   1.291   3.503 -0.3781 -0.3580  0.9811
 2123SOL     OW 8544   3.856   1.545   3.399 -0.0522 -0.3240 -0.3290
 2123SOL    HW2 8545   3.942   1.576   3.427  0.2531 -0.8323 -0.6837
 2123SOL    HW3 8546   3.844   1.462   3.446 -1.1267  0.5909  1.0915
 2123SOL    MW4 8547   3.866   1.538   3.409 -0.1538 -0.2704 -0.1881
 2124SOL     OW 8548   3.621   1.671   3.501 -0.0770  0.1604 -0.1841
 2124SOL    HW2 8549   3.632   1.764   3.480 -0.3026 -0.1672 -1.8537
 2124SOL    HW3 8550   3.696   1.628   3.461  0.1645 -0.3427  0.8122
 2124SOL    MW4 8551   3.632   1.678   3.493 -0.0751  0.0507 -0.2732
 2125SOL     OW 8552   3.626   1.953   3.416  0.1697 -0.0397 -0.4305
 2125SOL    HW2 8553   3.702   2.003   3.444  0.6759 -1.3731  0.6512
 2125SOL    HW3 8554   3.552   1.994   3.462  0.7790 -1.1897  1.6693
 2125SOL    MW4 8555   3.626   1.965   3.426  0.3171 -0.3673 -0.0110
 2126SOL     OW 8556   3.853   2.087   3.503  0.2924 -0.0737 -0.0433
 2126SOL    HW2 8557   3.855   2.047   3.590 -0.4534 -1.2046 -0.5276
 2126SOL    HW3 8558   3.918   2.037   3.453  0.2401  0.1317 -0.3155
 2126SOL    MW4 8559   3.862   2.075   3.508  0.1872 -0.1960 -0.1433
 2127SOL     OW 8560   3.811   2.327   3.383 -0.1135  0.0694  0.1017
 2127SOL    HW2 8561   3.886   2.371   3.422  0.0049  0.5768 -0.7032
 2127SOL    HW3 8562   3.816   2.237   3.417 -0.4042  0.6771  1.8055
 2127SOL    MW4 8563   3.821   2.321   3.392 -0.1361  0.2165  0.2201
 2128SOL     OW 8564   3.602   2.441   3.542 -0.3289  0.1329  0.0572
 2128SOL    HW2 8565   3.601   2.519   3.487 -1.6166  0.8118  1.0320
 2128SOL    HW3 8566   3.676   2.389   3.509  0.5879  1.7892 -0.5477
 2128SOL    MW4 8567   3.612   2.445   3.531 -0.3779  0.4411  0.1061
 2129SOL     OW 8568   3.579   2.665   3.385  0.8977 -0.2076 -0.4870
 2129SOL    HW2 8569   3.644   2.721   3.428  0.2303  0.1716  0.0297
 2129SOL    HW3 8570   3.587   2.686   3.292  1.5931 -0.2449 -0.4393
 2129SOL    MW4 8571   3.589   2.675   3.378  0.9017 -0.1626 -0.4125
 2130SOL     OW 8572   3.786   2.840   3.504  0.3852 -0.5171  0.4300
 2130SOL    HW2 8573   3.789   2.838   3.600  0.2082 -2.0357  0.4121
 2130SOL    HW3 8574   3.807   2.931   3.482  2.2106 -0.5470  1.8572
 2130SOL    MW4 8575   3.789   2.852   3.514  0.6027 -0.7212  0.6161
 2131SOL     OW 8576   3.823   3.104   3.397 -0.4850  0.5730 -0.3003
 2131SOL    HW2 8577   3.896   3.156   3.432  1.1188 -1.2669 -0.8571
 2131SOL    HW3 8578   3.841   3.097   3.304 -0.1167 -1.8586 -0.0589
 2131SOL    MW4 8579   3.835   3.110   3.390 -0.2246  0.0093 -0.3419
 2132SOL     OW 8580   3.579   3.219   3.473 -0.3177  0.1623  0.3771
 2132SOL    HW2 8581   3.581   3.312   3.451 -1.4338  0.0343 -0.3406
 2132SOL    HW3 8582   3.665   3.186   3.447 -0.2238  0.8226 -0.1620
 2132SOL    MW4 8583   3.590   3.227   3.466 -0.4525  0.2327  0.2112
 2133SOL     OW 8584   3.635   3.486   3.413  0.0839 -0.4234  0.3405
 2133SOL    HW2 8585   3.561   3.539   3.445  1.1256  2.1716 -1.3544
 2133SOL    HW3 8586   3.627   3.489   3.318  2.1220 -0.4790  0.1536
 2133SOL    MW4 8587   3.624   3.494   3.405  0.4904 -0.0885  0.0923
 2134SOL     OW 8588   3.863   3.635   3.481 -0.0128  0.4273  0.2919
 2134SOL    HW2 8589   3.870   3.615   3.574  1.3065 -1.2787 -0.1354
 2134SOL    HW3 8590   3.786   3.586   3.452  0.5650 -0.4421  0.1735
 2134SOL    MW4 8591   3.854   3.626   3.489  0.2375  0.0875  0.2201
 2135SOL     OW 8592   3.822   3.898   3.410  0.3497 -0.2079 -0.0078
 2135SOL    HW2 8593   3.751   3.927   3.467 -0.0232 -0.7645 -0.1907
 2135SOL    HW3 8594   3.836   3.806   3.433 -0.4806 -0.7222 -1.5215
 2135SOL    MW4 8595   3.815   3.890   3.421  0.1910 -0.3490 -0.2315
 2136SOL     OW 8596   3.585   3.989   3.545  0.4197  0.0449 -0.2671
 2136SOL    HW2 8597   3.574   3.996   3.640 -2.3292 -0.5095 -0.5094
 2136SOL    HW3 8598   3.581   4.080   3.514 -0.9945  0.0586 -0.0685
 2136SOL    MW4 8599   3.583   4.002   3.553 -0.1297 -0.0267 -0.2730
 2137SOL     OW 8600   3.610   4.253   3.434 -0.0033  0.1734 -0.0679
 2137SOL    HW2 8601   3.538   4.306   3.469  0.5584  0.0954  1.2495
 2137SOL    HW3 8602   3.600   4.258   3.339 -1.9294 -0.0880  0.0964
 2137SOL    MW4 8603   3.599   4.261   3.426 -0.1833  0.1292  0.1276
 2138SOL     OW 8604   3.830   4.389   3.522  0.3700  0.4237 -0.0252
 2138SOL    HW2 8605   3.753   4.345   3.487 -0.1630  0.9009  0.5286
 2138SOL    HW3 8606   3.827   4.477   3.486  0.6474  0.4514  0.0137
 2138SOL    MW4 8607   3.820   4.395   3.513  0.3362  0.4907  0.0529
 2139SOL     OW 8608   4.289   0.015   3.403  0.1340 -0.4401 -0.2159
 2139SOL    HW2 8609   4.287  -0.062   3.460  0.2777  0.4999  1.0950
 2139SOL    HW3 8610   4.351   0.075   3.446 -0.3635  0.6077 -0.9398
 2139SOL    MW4 8611   4.297   0.013   3.416  0.0873 -0.1779 -0.1380
 2140SOL     OW 8612   4.051   0.082   3.531 -0.1345  0.6279 -0.4827
 2140SOL    HW2 8613   4.126   0.053   3.479 -0.7715 -0.5503 -0.7637
 2140SOL    HW3 8614   3.975   0.043   3.488 -0.5402 -1.8893  2.2956
 2140SOL    MW4 8615   4.051   0.073   3.519 -0.2718  0.1403 -0.1531
 2141SOL     OW 8616   4.037   0.347   3.470 -0.1321  0.1172 -0.0180
 2141SOL    HW2 8617   4.056   0.259   3.503 -2.3482 -0.3707  0.0937
 2141SOL    HW3 8618   4.031   0.336   3.375  0.0872  0.2326 -0.0435
 2141SOL    MW4 8619   4.039   0.334   3.461 -0.3953  0.0681 -0.0069
 2142SOL     OW 8620   4.249   0.500   3.547 -0.2931 -0.4109 -0.2207
 2142SOL    HW2 8621   4.258   0.584   3.502  2.8524 -0.1636  0.7087
 2142SOL    HW3 8622   4.178   0.455   3.502 -1.0369  2.1470 -1.6844
 2142SOL    MW4 8623   4.241   0.505   3.535  0.0234 -0.0408 -0.2913
 2143SOL     OW 8624   4.274   0.743   3.428  0.0213  0.1243 -0.0480
 2143SOL    HW2 8625   4.357   0.774   3.464 -1.5074  2.5990  1.4620
 2143SOL    HW3 8626   4.287   0.748   3.333  1.8827 -0.3681  0.1511
 2143SOL    MW4 8627   4.287   0.748   3.420  0.0648  0.3859  0.1776
 2144SOL     OW 8628   4.020   0.859   3.519  0.1328  0.0508 -0.2109
 2144SOL    HW2 8629   4.023   0.945   3.478 -0.6153 -0.1672 -0.7184
 2144SOL    HW3 8630   4.099   0.815   3.487  0.2080  0.3376 -0.4189
 2144SOL    MW4 8631   4.031   0.864   3.509  0.0439  0.0598 -0.3054
 2145SOL     OW 8632   4.042   1.121   3.411 -0.4806 -0.1396  0.1849
 2145SOL    HW2 8633   4.119   1.169   3.443  0.0009 -0.2641 -0.7816
 2145SOL    HW3 8634   3.968   1.179   3.430  0.2017  1.4642 -1.8820
 2145SOL    MW4 8635   4.043   1.135   3.418 -0.3271  0.0557 -0.2153
 2146SOL     OW 8636   4.262   1.236   3.536  0.4626 -0.2915  0.1245
 2146SOL    HW2 8637   4.260   1.321   3.492 -0.8317 -0.1818  0.3695
 2146SOL    HW3 8638   4.336   1.190   3.496 -0.0344  0.2083 -1.4102
 2146SOL    MW4 8639   4.272   1.241   3.525  0.2260 -0.2112 -0.0455
 2147SOL     OW 8640   4.258   1.483   3.421 -0.4315  0.0460 -0.1066
 2147SOL    HW2 8641   4.207   1.561   3.441 -0.5677 -0.1827  0.4587
 2147SOL    HW3 8642   4.271   1.486   3.326 -1.7968 -0.0747 -0.3009
 2147SOL    MW4 8643   4.253   1.493   3.411 -0.6294 -0.0001 -0.0579
 2148SOL     OW 8644   4.103   1.682   3.500 -0.2054  0.4125 -0.4778
 2148SOL    HW2 8645   4.103   1.692   3.595 -0.9514 -0.1172 -0.4163
 2148SOL    HW3 8646   4.083   1.770   3.467  1.1323  0.8317 -0.1798
 2148SOL    MW4 8647   4.100   1.695   3.508 -0.1278  0.3980 -0.4303
 2149SOL     OW 8648   4.031   1.924   3.354 -0.1067  0.4560 -0.4723
 2149SOL    HW2 8649   4.106   1.982   3.367  1.5479 -1.5934 -0.6502
 2149SOL    HW3 8650   4.035   1.900   3.261 -1.2791  0.7231 -0.5950
 2149SOL    MW4 8651   4.042   1.929   3.343 -0.0434  0.2209 -0.5121
 2150SOL     OW 8652   4.253   2.070   3.454 -0.3131 -0.1075  0.3902
 2150SOL    HW2 8653   4.253   2.158   3.418  0.6872  0.0621  0.8094
 2150SOL    HW3 8654   4.337   2.033   3.428 -0.0234 -0.3477  1.6524
 2150SOL    MW4 8655   4.264   2.077   3.446 -0.1431 -0.1168  0.6123
 2151SOL     OW 8656   4.259   2.374   3.356 -0.2014 -0.4240 -0.2218
 2151SOL    HW2 8657   4.174   2.377   3.400 -0.0807 -1.0676  0.0587
 2151SOL    HW3 8658   4.239   2.390   3.264 -0.8592 -2.3827 -0.4549
 2151SOL    MW4 8659   4.245   2.376   3.350 -0.2723 -0.7672 -0.2158
 2152SOL     OW 8660   4.028   2.432   3.498  0.9825  0.1578  0.4903
 2152SOL    HW2 8661   4.038   2.410   3.591 -0.2930  2.0565  1.0978
 2152SOL    HW3 8662   4.025   2.527   3.496  0.4155  0.1190 -1.4476
 2152SOL    MW4 8663   4.029   2.441   3.510  0.7391  0.4029  0.3147
 2153SOL     OW 8664   4.012   2.721   3.441  0.0770 -0.3139 -0.1841
 2153SOL    HW2 8665   4.086   2.770   3.475 -0.7929 -0.0116  1.3313
 2153SOL    HW3 8666   3.935   2.772   3.467 -0.6945 -1.0165 -1.0399
 2153SOL    MW4 8667   4.011   2.734   3.449 -0.1397 -0.3669 -0.0968
 2154SOL     OW 8668   4.241   2.847   3.514  0.3120 -0.4758 -0.0022
 2154SOL    HW2 8669   4.250   2.855   3.609 -1.2338  0.9612  0.0557
 2154SOL    HW3 8670   4.322   2.804   3.486  1.0010 -0.4967  1.9041
 2154SOL    MW4 8671   4.253   2.843   3.523  0.1993 -0.2892  0.2570
 2155SOL     OW 8672   4.275   3.099   3.377  0.5786 -0.2706  0.6028
 2155SOL    HW2 8673   4.276   3.009   3.410 -1.2463 -0.7429 -0.5349
 2155SOL    HW3 8674   4.267   3.090   3.282  0.4220  1.0983  0.4704
 2155SOL    MW4 8675   4.274   3.086   3.369  0.3171 -0.1521  0.4354
 2156SOL     OW 8676   4.051   3.218   3.490 -0.0550  0.1044  0.1510
 2156SOL    HW2 8677   4.061   3.301   3.445 -0.4898 -0.1047 -0.3395
 2156SOL    HW3 8678   4.127   3.166   3.463 -0.9291 -0.4542 -1.3082
 2156SOL    MW4 8679   4.062   3.222   3.481 -0.2279  0.0031 -0.1061
 2157SOL     OW 8680   4.056   3.473   3.380 -0.2372  0.1412  0.0875
 2157SOL    HW2 8681   4.139   3.515   3.403 -0.5621  0.3025  0.9722
 2157SOL    HW3 8682   3.989   3.531   3.416 -0.7370  0.0241 -0.6464
 2157SOL    MW4 8683   4.058   3.486   3.387 -0.3452  0.1471  0.1073
 2158SOL     OW 8684   4.294   3.577   3.506  0.2961  0.1686  0.1225
 2158SOL    HW2 8685   4.274   3.574   3.599  1.0289  0.3044  0.2824
 2158SOL    HW3 8686   4.293   3.670   3.484 -0.5190  0.1045 -0.1491
 2158SOL    MW4 8687   4.291   3.589   3.515  0.2851  0.1779  0.1078
 2159SOL     OW 8688   4.280   3.873   3.438 -0.0540 -0.2507 -0.1174
 2159SOL    HW2 8689   4.359   3.920   3.465 -0.9502  0.8447  0.6511
 2159SOL    HW3 8690   4.277   3.884   3.343  0.6289 -0.1728 -0.1339
 2159SOL    MW4 8691   4.290   3.881   3.429 -0.0820 -0.0961 -0.0184
 2160SOL     OW 8692   4.072   4.039   3.511  0.0789  0.2138 -0.4035
 2160SOL    HW2 8693   4.148   3.986   3.484 -0.0646  0.1208 -0.6239
 2160SOL    HW3 8694   3.996   3.984   3.491  0.0522 -0.7760  2.2111
 2160SOL    MW4 8695   4.072   4.025   3.505  0.0572  0.0706 -0.0877
 2161SOL     OW 8696   4.063   4.293   3.405 -0.0385  0.3501  0.0657
 2161SOL    HW2 8697   4.053   4.202   3.432  0.8649  0.1424 -0.2758
 2161SOL    HW3 8698   3.988   4.338   3.445 -0.8240 -0.6404 -0.2459
 2161SOL    MW4 8699   4.052   4.287   3.414 -0.0229  0.1922 -0.0203
 2162SOL     OW 8700   4.286   4.434   3.531 -0.2828 -0.5380 -0.9142
 2162SOL    HW2 8701   4.278   4.436   3.626  0.9847 -0.5141 -0.8020
 2162SOL    HW3 8702   4.210   4.385   3.501 -0.4770 -0.8782  0.1347
 2162SOL    MW4 8703   4.275   4.428   3.539 -0.1411 -0.5798 -0.7613
 2163SOL     OW 8704   0.243   4.637   3.843 -0.1288 -0.0565  0.2273
 2163SOL    HW2 8705   0.252   4.633   3.938 -1.6404  0.8582  0.4300
 2163SOL    HW3 8706   0.150   4.656   3.829  0.2287  0.5673 -1.4064
 2163SOL    MW4 8707   0.232   4.639   3.854 -0.2811  0.1469  0.0384
 2164SOL     OW 8708   4.457   0.106   3.819 -0.0872 -0.1032 -0.4017
 2164SOL    HW2 8709   4.468   0.193   3.858 -2.0677  0.3950 -0.9322
 2164SOL    HW3 8710   4.465   0.120   3.725  1.0828 -0.7437 -0.4057
 2164SOL    MW4 8711   4.460   0.120   3.812 -0.1936 -0.1220 -0.4723
 2165SOL     OW 8712   0.003   0.356   3.961  0.7183 -0.1883 -0.3817
 2165SOL    HW2 8713  -0.077   0.403   3.937  0.4279 -0.7618 -0.5567
 2165SOL    HW3 8714   0.070   0.393   3.903  1.2308  2.3365  1.7533
 2165SOL    MW4 8715   0.001   0.367   3.950  0.7476  0.0691 -0.1233
 2166SOL     OW 8716   0.200   0.474   3.794 -0.1626 -0.1072 -0.1612
 2166SOL    HW2 8717   0.198   0.564   3.827  0.9908 -0.3133  0.4747
 2166SOL    HW3 8718   0.205   0.484   3.699 -1.4378  0.4903 -0.1845
 2166SOL    MW4 8719   0.200   0.487   3.786 -0.1787 -0.0555 -0.0803
 2167SOL     OW 8720   0.246   0.737   3.855 -0.5375  0.0197 -0.0290
 2167SOL    HW2 8721   0.277   0.729   3.945 -1.0938 -0.8790  0.0986
 2167SOL    HW3 8722   0.160   0.779   3.863  0.3132  1.8246 -0.3159
 2167SOL    MW4 8723   0.238   0.741   3.868 -0.4986  0.1394 -0.0503
 2168SOL     OW 8724   0.004   0.855   3.818 -0.0922  0.2491  0.0984
 2168SOL    HW2 8725  -0.082   0.825   3.846  0.4787 -0.0097  1.6667
 2168SOL    HW3 8726   0.001   0.950   3.829 -1.8601  0.8845 -4.7561
 2168SOL    MW4 8727  -0.007   0.863   3.823 -0.2499  0.2988 -0.3352
 2169SOL     OW 8728   4.477   1.123   3.891  0.5658 -0.7142 -0.1706
 2169SOL    HW2 8729   4.400   1.174   3.864 -0.4977 -0.7710  2.5726
 2169SOL    HW3 8730   4.552   1.174   3.860 -0.5640  0.0424 -1.6962
 2169SOL    MW4 8731   4.477   1.136   3.884  0.2766 -0.6219 -0.0098
 2170SOL     OW 8732   0.204   1.249   3.780  0.0143  0.0264  0.0070
 2170SOL    HW2 8733   0.214   1.335   3.821 -1.1635  1.1813 -2.0438
 2170SOL    HW3 8734   0.198   1.268   3.686 -0.9410 -2.2481 -0.4098
 2170SOL    MW4 8735   0.205   1.263   3.773 -0.2671 -0.1214 -0.3185
 2171SOL     OW 8736   0.236   1.535   4.136 -0.4768  0.0845 -0.1249
 2171SOL    HW2 8737   0.238   1.445   4.168 -0.3877 -0.1418 -0.7722
 2171SOL    HW3 8738   0.296   1.582   4.194 -0.0474 -0.4005 -0.1675
 2171SOL    MW4 8739   0.244   1.529   4.148 -0.4084 -0.0095 -0.2155
 2172SOL     OW 8740   0.022   1.629   3.780  0.1870  0.2294 -0.1827
 2172SOL    HW2 8741   0.017   1.722   3.802 -1.2195  0.1510 -0.1110
 2172SOL    HW3 8742   0.004   1.625   3.686 -0.7184 -0.0555  0.0025
 2172SOL    MW4 8743   0.019   1.641   3.771 -0.1178  0.1814 -0.1488
 2173SOL     OW 8744   4.467   1.904   3.850 -0.2043 -0.2886  0.2605
 2173SOL    HW2 8745   4.437   1.885   3.939  1.0644  0.5785  0.8915
 2173SOL    HW3 8746   4.391   1.941   3.806 -1.3791 -2.4560  0.4162
 2173SOL    MW4 8747   4.453   1.906   3.856 -0.1922 -0.4603  0.3643
 2174SOL     OW 8748   0.209   2.053   3.767 -0.0072 -0.4185  0.0036
 2174SOL    HW2 8749   0.191   2.146   3.780  0.2347 -0.4005  0.2017
 2174SOL    HW3 8750   0.136   2.009   3.810  1.0596 -0.3736  1.8819
 2174SOL    MW4 8751   0.197   2.060   3.774  0.1654 -0.4101  0.2775
 2175SOL     OW 8752   0.225   2.345   3.834  0.6141 -0.6802 -0.2262
 2175SOL    HW2 8753   0.204   2.334   3.927 -2.7110 -0.2928 -0.8753
 2175SOL    HW3 8754   0.143   2.372   3.794  2.1402 -0.2625 -3.2138
 2175SOL    MW4 8755   0.212   2.347   3.841  0.3768 -0.5739 -0.7062
 2176SOL     OW 8756   4.474   2.445   3.762  0.1089  0.3116 -0.5159
 2176SOL    HW2 8757   4.409   2.387   3.801  0.5560  0.3722  0.3507
 2176SOL    HW3 8758   4.474   2.522   3.819  0.5217  0.5536 -0.8417
 2176SOL    MW4 8759   4.465   2.447   3.775  0.2232  0.3514 -0.4447
 2177SOL     OW 8760   4.455   2.675   3.915  0.1690  0.2756 -0.2789
 2177SOL    HW2 8761   4.536   2.704   3.875 -0.3913 -0.0705 -1.6900
 2177SOL    HW3 8762   4.480   2.648   4.003  1.5380  0.3694 -0.6313
 2177SOL    MW4 8763   4.469   2.675   3.921  0.2757  0.2422 -0.5114
 2178SOL     OW 8764   0.193   2.814   3.780 -0.5508  0.0097 -0.2677
 2178SOL    HW2 8765   0.272   2.764   3.797 -0.3364  0.0078 -1.2149
 2178SOL    HW3 8766   0.189   2.820   3.684 -1.1544  0.8739 -0.1902
 2178SOL    MW4 8767   0.203   2.808   3.769 -0.6021  0.1235 -0.3822
 2179SOL     OW 8768   0.207   3.086   3.881  0.4519 -0.3084 -0.0388
 2179SOL    HW2 8769   0.184   3.086   3.973 -0.3256  0.1723 -0.2293
 2179SOL    HW3 8770   0.194   2.995   3.853 -0.9499 -0.1137 -0.0664
 2179SOL    MW4 8771   0.203   3.074   3.889  0.1644 -0.2191 -0.0672
 2180SOL     OW 8772   4.483   3.256   3.762 -0.2442  0.2494  0.3428
 2180SOL    HW2 8773   4.560   3.208   3.792  0.0842  0.8092  0.4152
 2180SOL    HW3 8774   4.484   3.247   3.667  0.6138  1.2927  0.2465
 2180SOL    MW4 8775   4.493   3.249   3.753 -0.0877  0.4606  0.3395
 2181SOL     OW 8776   0.016   3.488   3.897  0.5774  0.0152 -0.6131
 2181SOL    HW2 8777   0.094   3.525   3.856 -0.1082  0.7909 -1.2319
 2181SOL    HW3 8778   0.004   3.403   3.854 -0.4003  1.0223 -2.3643
 2181SOL    MW4 8779   0.024   3.482   3.886  0.3579  0.2503 -0.9255
 2182SOL     OW 8780   0.260   3.584   3.740 -0.0466  0.1257 -0.4776
 2182SOL    HW2 8781   0.325   3.545   3.799 -0.1047 -0.5326 -0.8354
 2182SOL    HW3 8782   0.245   3.672   3.774  0.3687 -0.0397  0.1340
 2182SOL    MW4 8783   0.266   3.590   3.753  0.0005  0.0172 -0.4442
 2183SOL     OW 8784   0.222   3.849   3.860  0.0018  0.4040  0.0831
 2183SOL    HW2 8785   0.231   3.838   3.955  1.7137 -0.5535 -0.1568
 2183SOL    HW3 8786   0.285   3.918   3.839  1.6953 -1.3253 -0.7016
 2183SOL    MW4 8787   0.232   3.857   3.870  0.4511  0.0494 -0.0520
 2184SOL     OW 8788   0.003   4.008   3.804 -0.3170 -0.0029  0.1070
 2184SOL    HW2 8789  -0.075   3.954   3.816 -1.0032  1.0313  0.4121
 2184SOL    HW3 8790   0.076   3.949   3.821 -0.9887 -1.3036 -1.3816
 2184SOL    MW4 8791   0.002   3.993   3.807 -0.4962 -0.0381 -0.0491
 2185SOL     OW 8792   0.029   4.271   3.898  0.0982  0.3644 -0.2259
 2185SOL    HW2 8793   0.095   4.311   3.842 -0.0784 -0.8238 -1.3192
 2185SOL    HW3 8794   0.025   4.180   3.868 -1.7435  0.3276  0.0929
 2185SOL    MW4 8795   0.037   4.264   3.886 -0.1681  0.2027 -0.3281
 2186SOL     OW 8796   0.244   4.384   3.745  0.5530  0.1934 -0.2086
 2186SOL    HW2 8797   0.295   4.327   3.802  0.3008 -0.9263 -1.0942
 2186SOL    HW3 8798   0.249   4.470   3.787  1.0068 -0.4499  1.0860
 2186SOL    MW4 8799   0.251   4.388   3.758  0.5797 -0.0391 -0.1547
 2187SOL     OW 8800   0.662   4.643   3.914  0.5930 -0.0925 -0.3334
 2187SOL    HW2 8801   0.665   4.556   3.873  0.0269  0.3196 -1.2497
 2187SOL    HW3 8802   0.584   4.684   3.878  1.2321  1.0674 -0.4194
 2187SOL    MW4 8803   0.652   4.637   3.904  0.6027  0.1154 -0.4656
 2188SOL     OW 8804   0.463   0.122   3.764 -0.1975 -0.0289 -0.2855
 2188SOL    HW2 8805   0.474   0.210   3.799  0.1295 -0.5046  0.8312
 2188SOL    HW3 8806   0.377   0.095   3.795 -0.3860 -0.0243 -0.8029
 2188SOL    MW4 8807   0.453   0.130   3.773 -0.1793 -0.0911 -0.2065
 2189SOL     OW 8808   0.460   0.371   3.869  0.2041  0.2531 -0.0095
 2189SOL    HW2 8809   0.518   0.429   3.821  0.8671 -0.3158  0.0976
 2189SOL    HW3 8810   0.373   0.410   3.859  0.3803  0.3151 -1.3909
 2189SOL    MW4 8811   0.456   0.384   3.861  0.3148  0.1862 -0.1776
 2190SOL     OW 8812   0.645   0.531   3.734  0.1936  0.4449 -0.1585
 2190SOL    HW2 8813   0.720   0.487   3.774 -0.4616 -1.2666 -0.7709
 2190SOL    HW3 8814   0.643   0.617   3.775  0.8907 -0.4468  1.8312
 2190SOL    MW4 8815   0.655   0.536   3.745  0.1991  0.1014  0.0231
 2191SOL     OW 8816   0.657   0.782   3.883 -0.0539 -0.0162 -0.3096
 2191SOL    HW2 8817   0.748   0.814   3.891  0.0692 -0.3957 -0.1707
 2191SOL    HW3 8818   0.615   0.844   3.824  0.3382  0.0789 -0.4928
 2191SOL    MW4 8819   0.664   0.795   3.876  0.0141 -0.0538 -0.3157
 2192SOL     OW 8820   0.430   0.920   3.742 -0.1713  0.5356 -0.0999
 2192SOL    HW2 8821   0.424   0.988   3.809 -0.8585  0.0254  0.3643
 2192SOL    HW3 8822   0.373   0.850   3.774 -0.3698  0.2194 -1.1364
 2192SOL    MW4 8823   0.422   0.920   3.755 -0.2882  0.4265 -0.1752
 2193SOL     OW 8824   0.437   1.156   3.892  0.1618 -0.0684 -0.6390
 2193SOL    HW2 8825   0.503   1.202   3.840 -0.9060 -0.3144 -2.2695
 2193SOL    HW3 8826   0.353   1.184   3.854 -0.6394 -0.5299  0.7364
 2193SOL    MW4 8827   0.434   1.166   3.880 -0.0848 -0.1618 -0.6726
 2194SOL     OW 8828   0.650   1.300   3.766  0.7614 -0.4552 -0.7139
 2194SOL    HW2 8829   0.726   1.255   3.802  2.0117  2.1439  0.0034
 2194SOL    HW3 8830   0.655   1.285   3.671  0.4506 -2.8204 -0.3718
 2194SOL    MW4 8831   0.660   1.292   3.758  0.8854 -0.4243 -0.5739
 2195SOL     OW 8832   0.655   1.528   3.911  0.3311  0.0712  1.1212
 2195SOL    HW2 8833   0.733   1.575   3.879  1.3886 -1.2899  1.6740
 2195SOL    HW3 8834   0.646   1.454   3.851 -2.8092  2.2694 -1.2940
 2195SOL    MW4 8835   0.664   1.525   3.899  0.0562  0.1816  0.8757
 2196SOL     OW 8836   0.258   1.518   3.851  0.6177  0.0634  0.1294
 2196SOL    HW2 8837   0.261   1.535   3.945  1.4197 -2.9394  0.6756
 2196SOL    HW3 8838   0.169   1.541   3.825  0.7847  2.2270  1.3203
 2196SOL    MW4 8839   0.247   1.523   3.860  0.7456 -0.0472  0.3588
 2197SOL     OW 8840   0.466   1.667   3.771  0.0479 -0.5232  0.2407
 2197SOL    HW2 8841   0.544   1.630   3.813  0.1731  0.1232  0.5986
 2197SOL    HW3 8842   0.393   1.615   3.805  0.2157 -0.4120  0.7827
 2197SOL    MW4 8843   0.467   1.655   3.781  0.0865 -0.4233  0.3598
 2198SOL     OW 8844   0.695   2.039   3.831  0.4758 -0.2915  0.4826
 2198SOL    HW2 8845   0.694   2.129   3.863  1.8757 -0.8142  2.0959
 2198SOL    HW3 8846   0.608   2.005   3.854 -0.9067  1.2649 -2.1512
 2198SOL    MW4 8847   0.683   2.046   3.838  0.4781 -0.1550  0.3479
 2199SOL     OW 8848   0.677   2.311   3.857  0.1477 -0.3514  0.1941
 2199SOL    HW2 8849   0.750   2.356   3.813  0.0344 -0.0140  0.3556
 2199SOL    HW3 8850   0.598   2.353   3.822  0.0586 -0.0304  0.7807
 2199SOL    MW4 8851   0.676   2.322   3.847  0.1210 -0.2646  0.2925
 2200SOL     OW 8852   0.466   2.442   3.757  0.4876  0.3234  0.6353
 2200SOL    HW2 8853   0.380   2.407   3.781  0.0862  0.5568 -0.4199
 2200SOL    HW3 8854   0.464   2.445   3.661  1.3262  1.2068  0.6422
 2200SOL    MW4 8855   0.454   2.438   3.747  0.5453  0.4711  0.4971
 2201SOL     OW 8856   0.471   2.698   3.846 -0.0413  0.2126 -0.3509
 2201SOL    HW2 8857   0.551   2.745   3.822 -0.3547  0.7885 -0.2678
 2201SOL    HW3 8858   0.484   2.610   3.810  0.6575  0.2825 -0.2827
 2201SOL    MW4 8859   0.484   2.693   3.838  0.0095  0.2975 -0.3312
 2202SOL     OW 8860   0.684   2.840   3.755  0.5562  0.0881 -0.1027
 2202SOL    HW2 8861   0.768   2.797   3.773  0.2581 -0.7129 -0.5889
 2202SOL    HW3 8862   0.677   2.839   3.660 -0.1167 -0.0661 -0.0509
 2202SOL    MW4 8863   0.694   2.834   3.745  0.4281 -0.0381 -0.1600
 2203SOL     OW 8864   0.672   3.100   3.817  0.3541 -0.3838  0.4372
 2203SOL    HW2 8865   0.685   3.090   3.911  4.0519  0.4934  0.0976
 2203SOL    HW3 8866   0.675   3.011   3.781 -1.5508 -0.7585  1.1634
 2203SOL    MW4 8867   0.674   3.087   3.824  0.5907 -0.3173  0.4883
 2204SOL     OW 8868   0.426   3.219   3.805  0.1745  0.3581 -0.3716
 2204SOL    HW2 8869   0.499   3.163   3.832  0.0726 -0.5978 -2.0437
 2204SOL    HW3 8870   0.348   3.176   3.839  0.2273  0.3411 -0.2723
 2204SOL    MW4 8871   0.425   3.206   3.813  0.1680  0.2296 -0.5791
 2205SOL     OW 8872   0.458   3.478   3.885 -0.3378 -0.0753 -0.3979
 2205SOL    HW2 8873   0.540   3.505   3.845  0.0732 -0.8240 -0.0806
 2205SOL    HW3 8874   0.445   3.388   3.856 -0.9291 -0.0398 -0.2643
 2205SOL    MW4 8875   0.467   3.470   3.876 -0.3617 -0.1695 -0.3386
 2206SOL     OW 8876   0.674   3.604   3.776 -0.0390 -0.2483  0.2434
 2206SOL    HW2 8877   0.678   3.691   3.816 -0.3731 -0.0692 -0.0993
 2206SOL    HW3 8878   0.683   3.621   3.682 -1.5081 -0.4517  0.0564
 2206SOL    MW4 8879   0.675   3.618   3.769 -0.2769 -0.2513  0.1733
 2207SOL     OW 8880   0.683   3.861   3.869 -0.3551  0.0941 -0.0476
 2207SOL    HW2 8881   0.679   3.869   3.964 -1.8692  2.2901 -0.2612
 2207SOL    HW3 8882   0.759   3.913   3.844 -0.5514  0.3343 -0.1363
 2207SOL    MW4 8883   0.692   3.869   3.878 -0.5808  0.4156 -0.0875
 2208SOL     OW 8884   0.451   3.989   3.753 -0.0924  0.3139 -0.6593
 2208SOL    HW2 8885   0.507   3.918   3.785  0.0306  0.6055 -0.2287
 2208SOL    HW3 8886   0.482   4.006   3.664 -0.0049 -0.0499 -0.7005
 2208SOL    MW4 8887   0.462   3.982   3.746 -0.0646  0.3040 -0.6080
 2209SOL     OW 8888   0.432   4.232   3.876 -0.2174 -0.1648  0.2255
 2209SOL    HW2 8889   0.497   4.287   3.833 -0.3078  0.0453  0.3554
 2209SOL    HW3 8890   0.448   4.144   3.842 -0.6091  0.0796 -0.6119
 2209SOL    MW4 8891   0.443   4.227   3.866 -0.2810 -0.1049  0.1323
 2210SOL     OW 8892   0.652   4.394   3.792 -0.2598 -0.0779  0.2114
 2210SOL    HW2 8893   0.735   4.351   3.815 -0.4114 -0.5030 -0.0149
 2210SOL    HW3 8894   0.656   4.404   3.697 -1.3539 -2.0162 -0.0670
 2210SOL    MW4 8895   0.664   4.389   3.782 -0.4242 -0.3891  0.1450
 2211SOL     OW 8896   1.103   4.634   3.904  0.2468  0.3731  0.3277
 2211SOL    HW2 8897   1.178   4.668   3.855 -0.2507  0.2661 -0.5285
 2211SOL    HW3 8898   1.094   4.544   3.874 -0.0873  0.3187  0.5955
 2211SOL    MW4 8899   1.112   4.627   3.893  0.1371  0.3514  0.2499
 2212SOL     OW 8900   0.882   0.103   3.777 -0.0818 -0.2241 -0.4046
 2212SOL    HW2 8901   0.955   0.062   3.823  0.1983 -0.8776 -1.4138
 2212SOL    HW3 8902   0.804   0.071   3.823  0.2529  0.3537  0.5742
 2212SOL    MW4 8903   0.881   0.093   3.789 -0.0007 -0.2341 -0.4084
 2213SOL     OW 8904   0.852   0.392   3.860  0.1737  0.2002  0.1161
 2213SOL    HW2 8905   0.831   0.398   3.953  0.1005  0.7844  0.0677
 2213SOL    HW3 8906   0.861   0.299   3.843  0.4894  0.1066  0.7785
 2213SOL    MW4 8907   0.851   0.381   3.870  0.2057  0.2649  0.1972
 2214SOL     OW 8908   1.082   0.528   3.793  0.1531 -0.3131  0.0357
 2214SOL    HW2 8909   1.155   0.468   3.814  0.2226  0.1055  1.0073
 2214SOL    HW3 8910   1.005   0.485   3.829  0.0679 -0.2580 -0.0820
 2214SOL    MW4 8911   1.082   0.514   3.800  0.1512 -0.2506  0.1481
 2215SOL     OW 8912   1.104   0.804   4.223  0.3579  0.1699  0.6380
 2215SOL    HW2 8913   1.087   0.710   4.230 -1.2255  0.4778  1.1817
 2215SOL    HW3 8914   1.190   0.816   4.264  0.5645 -1.0403  0.5784
 2215SOL    MW4 8915   1.113   0.793   4.230  0.1762  0.0508  0.7024
 2216SOL     OW 8916   0.905   0.899   3.863  0.1419  0.2991  0.1618
 2216SOL    HW2 8917   0.992   0.863   3.882 -0.0176  0.3162  0.9163
 2216SOL    HW3 8918   0.897   0.892   3.767  1.4378  1.3635 -0.0419
 2216SOL    MW4 8919   0.915   0.893   3.853  0.2918  0.4418  0.2344
 2217SOL     OW 8920   0.877   1.170   3.862 -0.0628 -0.4618 -0.2685
 2217SOL    HW2 8921   0.885   1.204   3.951 -1.8869  0.0156 -0.2693
 2217SOL    HW3 8922   0.878   1.075   3.873  1.3507 -0.4219  0.0858
 2217SOL    MW4 8923   0.878   1.162   3.875 -0.1169 -0.3936 -0.2215
 2218SOL     OW 8924   1.124   1.274   3.799 -0.0530  0.1350  0.0883
 2218SOL    HW2 8925   1.118   1.366   3.826  0.5025 -0.6772  3.2033
 2218SOL    HW3 8926   1.036   1.239   3.814  0.1990 -0.2690  0.6382
 2218SOL    MW4 8927   1.112   1.281   3.804  0.0535 -0.0254  0.5720
 2219SOL     OW 8928   1.104   1.535   3.914 -0.4085 -0.4127 -0.5671
 2219SOL    HW2 8929   1.114   1.555   4.008 -1.7612  0.7107 -0.6309
 2219SOL    HW3 8930   1.173   1.586   3.871 -1.4360  1.1908 -0.3842
 2219SOL    MW4 8931   1.114   1.544   3.921 -0.7225 -0.0529 -0.5515
 2220SOL     OW 8932   0.881   1.643   3.792  0.6485  0.1088  0.1196
 2220SOL    HW2 8933   0.954   1.595   3.832 -0.6470 -1.1949  0.9420
 2220SOL    HW3 8934   0.893   1.631   3.698 -0.1746 -2.6079  0.3334
 2220SOL    MW4 8935   0.892   1.635   3.785  0.3690 -0.4216  0.2561
 2221SOL     OW 8936   0.923   1.915   3.897  0.0151  0.3053  0.3835
 2221SOL    HW2 8937   0.915   1.827   3.860 -0.5914  0.3880  0.3096
 2221SOL    HW3 8938   0.841   1.958   3.873 -0.4647  0.3051  1.9701
 2221SOL    MW4 8939   0.911   1.909   3.889 -0.1283  0.3163  0.5832
 2222SOL     OW 8940   1.143   2.055   3.792  0.0164 -0.1056 -0.0147
 2222SOL    HW2 8941   1.057   2.022   3.819  0.0735 -1.4068 -1.3325
 2222SOL    HW3 8942   1.135   2.066   3.697  0.7907  1.3549  0.0804
 2222SOL    MW4 8943   1.130   2.052   3.783  0.1261 -0.0844 -0.1762
 2223SOL     OW 8944   1.132   2.325   3.872  0.3769 -0.3196  0.2813
 2223SOL    HW2 8945   1.149   2.325   3.966  0.8711 -0.1293  0.1958
 2223SOL    HW3 8946   1.133   2.233   3.847  2.2520 -0.2781  0.1168
 2223SOL    MW4 8947   1.135   2.313   3.881  0.6895 -0.2892  0.2480
 2224SOL     OW 8948   0.908   2.453   3.750  0.0882  0.0744 -0.1504
 2224SOL    HW2 8949   0.901   2.541   3.786  0.2551  0.3010 -0.6679
 2224SOL    HW3 8950   0.983   2.414   3.795 -0.2571  0.0398  0.4003
 2224SOL    MW4 8951   0.917   2.460   3.760  0.0647  0.0997 -0.1459
 2225SOL     OW 8952   0.912   2.721   3.845 -0.0603 -0.1142 -0.0852
 2225SOL    HW2 8953   0.882   2.737   3.935 -0.3724  1.6579 -0.4866
 2225SOL    HW3 8954   0.983   2.783   3.832 -1.0233  0.7077 -1.5644
 2225SOL    MW4 8955   0.917   2.731   3.855 -0.2285  0.2282 -0.3333
 2226SOL     OW 8956   1.142   2.849   3.802 -0.0982  0.2190  0.2246
 2226SOL    HW2 8957   1.232   2.815   3.810 -0.0560  0.2646 -0.0329
 2226SOL    HW3 8958   1.147   2.939   3.832 -0.3242 -0.1655  1.4402
 2226SOL    MW4 8959   1.155   2.856   3.807 -0.1225  0.1743  0.3507
 2227SOL     OW 8960   1.426   3.230   3.829  0.4639 -0.2125  0.2326
 2227SOL    HW2 8961   1.413   3.325   3.836  1.1581 -0.1690  1.0225
 2227SOL    HW3 8962   1.343   3.193   3.859  0.7965  0.1195  1.6007
 2227SOL    MW4 8963   1.413   3.238   3.834  0.5995 -0.1631  0.5174
 2228SOL     OW 8964   0.915   3.211   3.764  0.0944  0.3730  0.2078
 2228SOL    HW2 8965   0.826   3.183   3.781  0.0862 -0.6962 -1.5428
 2228SOL    HW3 8966   0.926   3.204   3.669  1.9721  0.6417  0.3707
 2228SOL    MW4 8967   0.905   3.206   3.754  0.3411  0.2675 -0.0017
 2229SOL     OW 8968   0.887   3.461   3.879  0.0289  0.3917  0.1476
 2229SOL    HW2 8969   0.891   3.375   3.838 -0.0069 -0.2612  1.5297
 2229SOL    HW3 8970   0.821   3.508   3.828 -0.6807 -0.7178  0.0288
 2229SOL    MW4 8971   0.879   3.456   3.867 -0.0693  0.1590  0.3142
 2230SOL     OW 8972   1.119   3.591   3.776 -0.1193  0.2386  0.1142
 2230SOL    HW2 8973   1.121   3.682   3.807 -0.3782  0.4698 -0.5450
 2230SOL    HW3 8974   1.038   3.555   3.813 -1.1397  0.9190 -1.3990
 2230SOL    MW4 8975   1.108   3.598   3.785 -0.2881  0.3586 -0.1721
 2231SOL     OW 8976   1.126   3.860   3.879  0.0588  0.2463  0.0939
 2231SOL    HW2 8977   1.133   3.855   3.974  2.6913 -3.0237 -0.1596
 2231SOL    HW3 8978   1.195   3.922   3.853 -0.0756  0.4650  0.2594
 2231SOL    MW4 8979   1.136   3.867   3.888  0.3883 -0.1564  0.0823
 2232SOL     OW 8980   0.906   3.984   3.770  0.5400 -0.1936  0.2729
 2232SOL    HW2 8981   0.983   3.941   3.808  0.3349  0.0467  0.9692
 2232SOL    HW3 8982   0.907   3.958   3.678  0.6803 -1.3177  0.5823
 2232SOL    MW4 8983   0.916   3.975   3.763  0.5314 -0.3102  0.4053
 2233SOL     OW 8984   0.862   4.240   3.856  0.0081  0.0627 -0.2209
 2233SOL    HW2 8985   0.873   4.237   3.951  2.6711 -0.5775 -0.5261
 2233SOL    HW3 8986   0.869   4.149   3.828 -0.4421  0.2854 -1.0750
 2233SOL    MW4 8987   0.864   4.227   3.865  0.3000  0.0072 -0.3741
 2234SOL     OW 8988   1.078   4.393   3.794 -0.6981 -0.2751  0.2731
 2234SOL    HW2 8989   1.003   4.337   3.813 -0.5584 -0.9004 -0.9807
 2234SOL    HW3 8990   1.092   4.383   3.700 -0.0478  1.0926  0.2224
 2234SOL    MW4 8991   1.070   4.384   3.784 -0.5938 -0.1769  0.1011
 2235SOL     OW 8992   1.562   4.647   3.818  0.1077  0.0828  0.1524
 2235SOL    HW2 8993   1.565   4.648   3.914 -1.2938  0.0130  0.2073
 2235SOL    HW3 8994   1.557   4.554   3.795 -1.1536  0.1475  0.0911
 2235SOL    MW4 8995   1.561   4.635   3.828 -0.2438  0.0825  0.1516
 2236SOL     OW 8996   1.309   0.098   3.741  0.1040  0.0366  0.4797
 2236SOL    HW2 8997   1.297   0.186   3.778 -1.0156 -0.0648  0.3697
 2236SOL    HW3 8998   1.390   0.066   3.781 -0.3924  0.4503  1.8364
 2236SOL    MW4 8999   1.318   0.106   3.751 -0.1092  0.0778  0.6442
 2237SOL     OW 9000   1.315   0.364   3.838 -0.1673  0.5938  0.0338
 2237SOL    HW2 9001   1.323   0.370   3.933 -0.0674 -1.5839  0.1873
 2237SOL    HW3 9002   1.395   0.404   3.804  0.7444 -0.4452  0.9341
 2237SOL    MW4 9003   1.326   0.370   3.846 -0.0337  0.1694  0.1729
 2238SOL     OW 9004   1.549   0.493   3.761 -0.2074  0.4886 -0.1305
 2238SOL    HW2 9005   1.626   0.447   3.795  0.3128  1.5177  0.1119
 2238SOL    HW3 9006   1.553   0.580   3.802 -1.0235  0.8409 -0.7840
 2238SOL    MW4 9007   1.560   0.499   3.771 -0.2463  0.6709 -0.1845
 2239SOL     OW 9008   1.342   0.902   3.802 -0.3845  0.4765  0.0093
 2239SOL    HW2 9009   1.354   0.983   3.851 -0.8770  0.2140  0.5700
 2239SOL    HW3 9010   1.274   0.855   3.850 -0.3663 -0.1017 -0.5258
 2239SOL    MW4 9011   1.334   0.907   3.815 -0.4472  0.3655  0.0126
 2240SOL     OW 9012   1.131   0.773   3.928  0.2870  0.0645  0.6306
 2240SOL    HW2 9013   1.114   0.768   4.022 -0.0452  1.7452  0.6719
 2240SOL    HW3 9014   1.118   0.683   3.896  0.1256 -0.4539  2.1322
 2240SOL    MW4 9015   1.127   0.760   3.936  0.2220  0.2179  0.8345
 2241SOL     OW 9016   1.356   1.158   3.901  0.1774  0.1687 -0.2351
 2241SOL    HW2 9017   1.430   1.213   3.878 -0.0523  0.2128 -0.8815
 2241SOL    HW3 9018   1.280   1.206   3.867 -0.1909  0.3636  0.8517
 2241SOL    MW4 9019   1.355   1.172   3.893  0.0985  0.2002 -0.1771
 2242SOL     OW 9020   1.571   1.311   3.773 -0.0420  0.3947 -0.2157
 2242SOL    HW2 9021   1.658   1.285   3.802  0.7771  1.7724 -1.3847
 2242SOL    HW3 9022   1.557   1.397   3.813 -1.2341 -0.1888  0.6666
 2242SOL    MW4 9023   1.581   1.319   3.782 -0.0913  0.4995 -0.2534
 2243SOL     OW 9024   1.531   1.548   3.915  0.2142  0.4069 -0.0924
 2243SOL    HW2 9025   1.534   1.516   4.006  1.1395  1.1356  0.1373
 2243SOL    HW3 9026   1.614   1.593   3.903 -0.3064  1.1237 -1.0169
 2243SOL    MW4 9027   1.542   1.549   3.926  0.2676  0.5976 -0.1843
 2244SOL     OW 9028   1.315   1.694   3.809 -0.3993 -0.1722 -0.3993
 2244SOL    HW2 9029   1.316   1.784   3.842  0.3178 -0.7876  1.3512
 2244SOL    HW3 9030   1.395   1.655   3.845 -1.1997 -1.7803 -0.3185
 2244SOL    MW4 9031   1.326   1.700   3.818 -0.4103 -0.4655 -0.1576
 2245SOL     OW 9032   1.359   1.958   3.905 -0.1245 -0.0201 -0.1285
 2245SOL    HW2 9033   1.335   1.970   3.997  0.7745  0.7727  0.0054
 2245SOL    HW3 9034   1.290   2.003   3.856  0.2134  0.8671  0.2052
 2245SOL    MW4 9035   1.346   1.966   3.911  0.0386  0.2016 -0.0670
 2246SOL     OW 9036   1.595   2.042   3.807 -0.4696  0.0668  0.7000
 2246SOL    HW2 9037   1.514   2.025   3.855 -0.9104  0.6831  0.1915
 2246SOL    HW3 9038   1.573   2.026   3.716  0.7703 -2.5559  0.8129
 2246SOL    MW4 9039   1.582   2.038   3.801 -0.3642 -0.1979  0.6478
 2247SOL     OW 9040   1.590   2.313   3.864  0.1226 -0.2269 -0.0681
 2247SOL    HW2 9041   1.677   2.337   3.831 -0.3409  0.6610 -0.6798
 2247SOL    HW3 9042   1.582   2.220   3.844  1.1813 -0.4572  0.5616
 2247SOL    MW4 9043   1.601   2.304   3.857  0.2011 -0.1402 -0.0656
 2248SOL     OW 9044   1.360   2.465   3.772 -0.1841  0.0184 -0.3937
 2248SOL    HW2 9045   1.432   2.411   3.803  0.7046  1.0821 -0.5733
 2248SOL    HW3 9046   1.281   2.420   3.803  0.5882 -0.5373  0.7906
 2248SOL    MW4 9047   1.359   2.452   3.780  0.0349  0.0856 -0.2611
 2249SOL     OW 9048   1.399   2.729   3.843 -0.0823 -0.2631  0.2082
 2249SOL    HW2 9049   1.383   2.729   3.938  0.5175 -2.3065  0.3330
 2249SOL    HW3 9050   1.377   2.640   3.815  1.7261 -0.2882 -1.2259
 2249SOL    MW4 9051   1.394   2.718   3.852  0.2354 -0.5357  0.0353
 2250SOL     OW 9052   1.583   2.850   3.452 -0.3237  0.1852  0.0420
 2250SOL    HW2 9053   1.590   2.853   3.547  1.5057 -0.1607 -0.0546
 2250SOL    HW3 9054   1.598   2.940   3.424  1.5394 -0.1278 -0.0291
 2250SOL    MW4 9055   1.586   2.862   3.461  0.1636  0.0987  0.0200
 2251SOL     OW 9056   1.620   2.866   3.745  0.3775 -0.0135  0.3073
 2251SOL    HW2 9057   1.631   2.933   3.813  0.6684  0.1941  0.0505
 2251SOL    HW3 9058   1.543   2.817   3.774  1.3540 -0.8500  1.5631
 2251SOL    MW4 9059   1.611   2.869   3.758  0.5448 -0.0963  0.4392
 2252SOL     OW 9060   1.655   3.111   3.916 -0.7038  0.4289 -0.2055
 2252SOL    HW2 9061   1.571   3.150   3.893 -1.6306 -0.7077  1.1765
 2252SOL    HW3 9062   1.657   3.112   4.012  2.0218  2.8576 -0.2158
 2252SOL    MW4 9063   1.644   3.116   3.926 -0.4663  0.5994 -0.0246
 2253SOL     OW 9064   1.356   3.487   3.877  0.3991  0.0661  0.0629
 2253SOL    HW2 9065   1.414   3.547   3.829  0.7112  1.2811  1.9171
 2253SOL    HW3 9066   1.271   3.499   3.834  0.2413  2.5708  0.9600
 2253SOL    MW4 9067   1.352   3.497   3.865  0.4195  0.5569  0.4258
 2254SOL     OW 9068   1.586   3.649   3.783  0.1106 -0.0663 -0.1849
 2254SOL    HW2 9069   1.664   3.619   3.830 -0.1923 -0.4678  0.0618
 2254SOL    HW3 9070   1.585   3.744   3.797  0.0022 -0.1891  0.6510
 2254SOL    MW4 9071   1.596   3.658   3.791  0.0564 -0.1354 -0.0424
 2255SOL     OW 9072   1.555   3.933   3.857  0.2638 -0.4717  0.1111
 2255SOL    HW2 9073   1.563   3.917   3.951 -0.8621  0.2917  0.3465
 2255SOL    HW3 9074   1.466   3.966   3.846  0.5120 -0.2178 -1.1781
 2255SOL    MW4 9075   1.545   3.935   3.868  0.1481 -0.3374 -0.0277
 2256SOL     OW 9076   1.330   4.037   3.774 -0.0350  0.0148  0.1432
 2256SOL    HW2 9077   1.314   4.123   3.811 -0.2171 -0.3459  0.9044
 2256SOL    HW3 9078   1.346   4.054   3.681  0.8757  0.9550  0.4616
 2256SOL    MW4 9079   1.330   4.051   3.766  0.0612  0.0916  0.2854
 2257SOL     OW 9080   1.325   4.296   3.896  0.0484  0.5412  0.2482
 2257SOL    HW2 9081   1.406   4.327   3.856  0.0877  0.3311  0.1683
 2257SOL    HW3 9082   1.256   4.342   3.847 -0.0045 -1.3302 -1.4915
 2257SOL    MW4 9083   1.326   4.306   3.884  0.0466  0.2666  0.0083
 2258SOL     OW 9084   1.541   4.388   3.756 -0.4942 -0.0371 -0.0691
 2258SOL    HW2 9085   1.620   4.343   3.784 -0.7459 -0.8431 -0.6427
 2258SOL    HW3 9086   1.545   4.389   3.660 -0.5875  0.9894 -0.0720
 2258SOL    MW4 9087   1.552   4.382   3.747 -0.5398 -0.0081 -0.1450
 2259SOL     OW 9088   2.015   0.004   3.874 -0.1680 -0.2945  0.3211
 2259SOL    HW2 9089   2.094   0.053   3.850  0.1501 -0.5020  0.9480
 2259SOL    HW3 9090   2.020  -0.076   3.823 -0.2222 -0.0945 -0.0043
 2259SOL    MW4 9091   2.026   0.000   3.864 -0.1333 -0.2955  0.3607
 2260SOL     OW 9092   1.792   0.112   3.749  0.4597  0.4126  0.4240
 2260SOL    HW2 9093   1.859   0.075   3.807 -0.0587  0.0282  0.7854
 2260SOL    HW3 9094   1.714   0.060   3.767  0.6115 -0.5111 -1.5139
 2260SOL    MW4 9095   1.790   0.101   3.759  0.4113  0.2400  0.2160
 2261SOL     OW 9096   1.789   0.370   3.817 -0.3805  0.1365 -0.4228
 2261SOL    HW2 9097   1.767   0.380   3.910 -0.9296  0.5780 -0.5988
 2261SOL    HW3 9098   1.778   0.277   3.800 -0.5341  0.0965 -0.1068
 2261SOL    MW4 9099   1.784   0.359   3.827 -0.4733  0.1895 -0.4044
 2262SOL     OW 9100   2.014   0.522   3.776  0.4437 -0.0380  0.4561
 2262SOL    HW2 9101   1.941   0.462   3.795 -0.7599  1.1758 -0.2135
 2262SOL    HW3 9102   2.030   0.512   3.682  2.5791 -1.8507  0.9847
 2262SOL    MW4 9103   2.006   0.513   3.766  0.5667 -0.1170  0.4377
 2263SOL     OW 9104   1.983   0.795   3.873  0.0559  0.0915  0.0929
 2263SOL    HW2 9105   1.980   0.777   3.967  0.7614 -0.5846 -0.0130
 2263SOL    HW3 9106   1.960   0.712   3.832  1.5951 -0.1137 -0.3687
 2263SOL    MW4 9107   1.979   0.782   3.880  0.3519 -0.0248  0.0181
 2264SOL     OW 9108   1.771   0.947   3.800  0.3588  0.3383 -0.1630
 2264SOL    HW2 9109   1.848   0.907   3.840  1.0111  1.6741 -0.0696
 2264SOL    HW3 9110   1.786   0.941   3.706  0.2084 -0.0924 -0.1631
 2264SOL    MW4 9111   1.783   0.941   3.793  0.4250  0.4578 -0.1507
 2265SOL     OW 9112   1.808   1.206   3.874 -0.3473 -0.1562 -0.2056
 2265SOL    HW2 9113   1.809   1.204   3.970 -0.1864  0.6721 -0.1818
 2265SOL    HW3 9114   1.797   1.115   3.848  1.4690 -0.6210  0.5805
 2265SOL    MW4 9115   1.807   1.194   3.883 -0.0864 -0.1081 -0.0987
 2266SOL     OW 9116   2.056   1.297   3.802 -0.1189  0.1789  0.5368
 2266SOL    HW2 9117   2.119   1.258   3.862  0.5044 -0.4535 -0.5086
 2266SOL    HW3 9118   1.971   1.264   3.832  0.2479 -0.6693  0.6610
 2266SOL    MW4 9119   2.053   1.288   3.814  0.0117 -0.0165  0.4153
 2267SOL     OW 9120   2.025   1.562   3.898  0.2105 -0.1754  0.3351
 2267SOL    HW2 9121   1.936   1.587   3.876 -0.4519 -1.3930  1.6102
 2267SOL    HW3 9122   2.032   1.470   3.872  0.5556 -0.5706  1.7966
 2267SOL    MW4 9123   2.014   1.553   3.891  0.1688 -0.3883  0.6959
 2268SOL     OW 9124   1.771   1.681   3.844 -0.0967 -0.1647 -0.0034
 2268SOL    HW2 9125   1.794   1.766   3.882 -2.0094  1.0500 -1.4428
 2268SOL    HW3 9126   1.784   1.692   3.750 -0.7849 -1.3030 -0.2485
 2268SOL    MW4 9127   1.775   1.694   3.836 -0.4399 -0.1545 -0.2258
 2269SOL     OW 9128   1.827   1.930   3.948  0.1252 -0.2440  0.2712
 2269SOL    HW2 9129   1.817   1.942   4.042 -0.8694  2.7301 -0.1288
 2269SOL    HW3 9130   1.742   1.956   3.912  0.8196 -0.3460 -1.4911
 2269SOL    MW4 9131   1.815   1.935   3.955  0.0855  0.1349 -0.0141
 2270SOL     OW 9132   2.046   2.103   3.827 -0.3075  0.5229 -0.3513
 2270SOL    HW2 9133   1.990   2.032   3.857  1.8207 -1.1812 -0.2994
 2270SOL    HW3 9134   2.050   2.091   3.732 -0.4022  0.9378 -0.4100
 2270SOL    MW4 9135   2.039   2.092   3.818 -0.0393  0.3529 -0.3524
 2271SOL     OW 9136   2.016   2.342   3.937 -0.6445  0.1942 -0.0324
 2271SOL    HW2 9137   2.043   2.252   3.917 -0.9927  0.1278 -0.1971
 2271SOL    HW3 9138   1.948   2.362   3.873 -0.2475  0.7376 -0.2909
 2271SOL    MW4 9139   2.011   2.333   3.926 -0.6382  0.2573 -0.0885
 2272SOL     OW 9140   1.820   2.424   3.748  0.0493  0.0617  0.3966
 2272SOL    HW2 9141   1.799   2.511   3.782 -1.1268 -0.5039  1.1521
 2272SOL    HW3 9142   1.833   2.438   3.654  0.6166  1.1745  0.6332
 2272SOL    MW4 9143   1.819   2.437   3.740 -0.0310  0.1338  0.5276
 2273SOL     OW 9144   1.833   2.689   3.828  0.3522 -0.3398 -0.2258
 2273SOL    HW2 9145   1.834   2.695   3.923  0.0688  0.0528 -0.2492
 2273SOL    HW3 9146   1.781   2.764   3.799  2.2456  0.7894 -0.7833
 2273SOL    MW4 9147   1.826   2.700   3.837  0.5648 -0.1390 -0.3026
 2274SOL     OW 9148   2.055   2.847   3.793 -0.0473  0.3161  0.2128
 2274SOL    HW2 9149   2.132   2.803   3.829  0.1628 -1.4083 -2.1667
 2274SOL    HW3 9150   1.984   2.782   3.802 -0.2818  0.3543 -1.1686
 2274SOL    MW4 9151   2.055   2.832   3.799 -0.0505  0.0935 -0.2835
 2275SOL     OW 9152   2.039   3.106   3.883 -0.2928 -0.2120 -1.0087
 2275SOL    HW2 9153   2.115   3.146   3.840  0.9775 -1.8850 -0.3694
 2275SOL    HW3 9154   2.041   3.015   3.855 -0.4400 -0.9241  1.2306
 2275SOL    MW4 9155   2.050   3.099   3.874 -0.1445 -0.5267 -0.6287
 2276SOL     OW 9156   1.849   3.284   3.805 -0.3347 -0.0726 -0.1730
 2276SOL    HW2 9157   1.921   3.226   3.829 -0.7467 -1.0933 -1.3289
 2276SOL    HW3 9158   1.773   3.249   3.852 -0.7567 -0.9834 -1.5019
 2276SOL    MW4 9159   1.848   3.272   3.815 -0.4448 -0.3276 -0.5009
 2277SOL     OW 9160   1.815   3.538   3.902  0.4176 -0.3307 -0.0284
 2277SOL    HW2 9161   1.883   3.590   3.859 -0.3507 -0.1320 -1.0374
 2277SOL    HW3 9162   1.823   3.451   3.862 -0.7368  0.0326 -1.1057
 2277SOL    MW4 9163   1.825   3.533   3.891  0.1639 -0.2568 -0.3037
 2278SOL     OW 9164   2.051   3.665   3.820 -0.2026  0.5624 -0.1437
 2278SOL    HW2 9165   2.115   3.597   3.839  0.6969  1.2683 -0.6259
 2278SOL    HW3 9166   2.035   3.658   3.726  0.5239  1.5529 -0.3526
 2278SOL    MW4 9167   2.057   3.655   3.810  0.0119  0.7861 -0.2348
 2279SOL     OW 9168   1.999   3.932   3.914 -0.5960  0.3072 -0.1239
 2279SOL    HW2 9169   2.064   3.993   3.879 -0.0355  0.1539  0.6323
 2279SOL    HW3 9170   2.027   3.846   3.880 -0.5574  0.2808 -0.0275
 2279SOL    MW4 9171   2.011   3.928   3.905 -0.5171  0.2835 -0.0114
 2280SOL     OW 9172   1.800   4.041   3.757 -0.0062 -0.1641  0.7285
 2280SOL    HW2 9173   1.854   3.996   3.822  0.3291  0.9461  1.2313
 2280SOL    HW3 9174   1.710   4.021   3.782  0.1127  0.5102  1.7346
 2280SOL    MW4 9175   1.795   4.032   3.769  0.0536  0.0710  0.9277
 2281SOL     OW 9176   1.776   4.300   3.852  0.1344 -0.2096  0.3166
 2281SOL    HW2 9177   1.859   4.346   3.839  0.7958 -0.9616  1.7457
 2281SOL    HW3 9178   1.790   4.214   3.813 -0.6998  0.3651 -1.2955
 2281SOL    MW4 9179   1.789   4.295   3.845  0.1116 -0.2332  0.2923
 2282SOL     OW 9180   2.018   4.412   3.792 -0.6501 -0.5249 -0.4479
 2282SOL    HW2 9181   2.090   4.372   3.840 -2.4811 -3.3880  0.0583
 2282SOL    HW3 9182   2.039   4.399   3.700  0.7325  1.0645 -0.3877
 2282SOL    MW4 9183   2.030   4.405   3.786 -0.7095 -0.6928 -0.3726
 2283SOL     OW 9184   2.452   0.037   3.847  0.3982  0.1457  0.5965
 2283SOL    HW2 9185   2.465   0.027   3.941 -0.0115  0.7287  0.7133
 2283SOL    HW3 9186   2.527   0.089   3.817 -0.1377  1.0377  0.8041
 2283SOL    MW4 9187   2.464   0.042   3.855  0.2739  0.3403  0.6392
 2284SOL     OW 9188   2.220   0.151   3.778  0.0945  0.0019 -0.2238
 2284SOL    HW2 9189   2.300   0.112   3.813  0.0617  0.0347 -0.1102
 2284SOL    HW3 9190   2.225   0.137   3.684  1.0039  1.4315 -0.3985
 2284SOL    MW4 9191   2.231   0.144   3.770  0.2103  0.1948 -0.2320
 2285SOL     OW 9192   2.235   0.398   3.909 -0.3950 -0.5785 -0.0231
 2285SOL    HW2 9193   2.232   0.315   3.862 -0.6307 -0.9280  0.6124
 2285SOL    HW3 9194   2.157   0.446   3.879 -0.1725 -0.5116 -0.5102
 2285SOL    MW4 9195   2.225   0.394   3.899 -0.3970 -0.6158 -0.0033
 2286SOL     OW 9196   2.451   0.526   3.794  0.1055 -1.2295  0.1478
 2286SOL    HW2 9197   2.364   0.490   3.810 -0.0309 -1.6418 -1.4895
 2286SOL    HW3 9198   2.459   0.530   3.699  1.1709  0.5322  0.2911
 2286SOL    MW4 9199   2.441   0.521   3.784  0.2279 -1.0515 -0.0494
 2287SOL     OW 9200   2.468   0.767   3.933 -0.5376 -0.0908  0.1258
 2287SOL    HW2 9201   2.386   0.811   3.911 -1.8844 -2.0638  1.1003
 2287SOL    HW3 9202   2.473   0.693   3.873  0.6669  0.1427 -0.0810
 2287SOL    MW4 9203   2.458   0.763   3.922 -0.5565 -0.3203  0.2272
 2288SOL     OW 9204   2.243   0.888   3.828  0.2898 -0.1767  0.3654
 2288SOL    HW2 9205   2.153   0.864   3.847  0.5794  0.4183  2.6035
 2288SOL    HW3 9206   2.246   0.896   3.733 -2.1241  0.1908  0.2891
 2288SOL    MW4 9207   2.232   0.886   3.818  0.0093 -0.0498  0.6509
 2289SOL     OW 9208   2.265   1.146   3.933 -0.1675  0.3994 -0.2479
 2289SOL    HW2 9209   2.273   1.130   4.027  0.3669  1.3770 -0.1205
 2289SOL    HW3 9210   2.264   1.059   3.894 -1.5205 -0.0580  0.7457
 2289SOL    MW4 9211   2.266   1.133   3.940 -0.2756  0.4681 -0.1001
 2290SOL     OW 9212   2.490   1.271   3.781  0.3382  0.0952 -0.2177
 2290SOL    HW2 9213   2.496   1.354   3.827  0.6231  0.8227 -1.5405
 2290SOL    HW3 9214   2.411   1.230   3.815 -0.8996  1.7977 -0.9789
 2290SOL    MW4 9215   2.481   1.276   3.791  0.2124  0.4158 -0.4928
 2291SOL     OW 9216   2.477   1.551   3.904 -0.0232  0.5001 -0.0850
 2291SOL    HW2 9217   2.548   1.611   3.883 -1.2385  1.9838 -0.1034
 2291SOL    HW3 9218   2.397   1.599   3.880 -1.0147 -1.3964 -0.7786
 2291SOL    MW4 9219   2.476   1.565   3.898 -0.3142  0.4456 -0.1788
 2292SOL     OW 9220   2.257   1.684   3.798 -0.0534 -0.1155  0.4473
 2292SOL    HW2 9221   2.256   1.776   3.824  0.9931 -0.1245  0.5667
 2292SOL    HW3 9222   2.176   1.648   3.834 -0.5323  0.7882  0.2852
 2292SOL    MW4 9223   2.246   1.691   3.806  0.0217  0.0027  0.4416
 2293SOL     OW 9224   2.253   1.938   3.926  0.3768  0.0513 -0.1765
 2293SOL    HW2 9225   2.257   1.943   4.021  1.5617 -0.1425 -0.2054
 2293SOL    HW3 9226   2.189   2.004   3.901  0.1265  0.1682  0.7487
 2293SOL    MW4 9227   2.245   1.947   3.935  0.5004  0.0410 -0.0582
 2294SOL     OW 9228   2.477   2.018   3.785  0.3136  0.0570 -0.8422
 2294SOL    HW2 9229   2.479   2.108   3.816  1.7762 -0.5583  0.9936
 2294SOL    HW3 9230   2.414   1.974   3.843 -0.0092 -0.2236 -1.3973
 2294SOL    MW4 9231   2.469   2.024   3.797  0.4642 -0.0610 -0.6733
 2295SOL     OW 9232   2.492   2.286   3.848 -0.0725 -0.1966 -0.5234
 2295SOL    HW2 9233   2.561   2.341   3.809 -0.7986  1.2380  0.1854
 2295SOL    HW3 9234   2.412   2.337   3.838 -0.5384 -0.5413  1.3498
 2295SOL    MW4 9235   2.491   2.300   3.842 -0.2298 -0.0527 -0.1826
 2296SOL     OW 9236   2.256   2.430   3.815 -0.0699 -0.3760 -0.0271
 2296SOL    HW2 9237   2.173   2.403   3.853 -0.2872 -0.6555 -0.6928
 2296SOL    HW3 9238   2.242   2.426   3.720  0.6977 -0.4179 -0.1450
 2296SOL    MW4 9239   2.243   2.426   3.808  0.0026 -0.4182 -0.1307
 2297SOL     OW 9240   2.264   2.687   3.879 -0.4377  0.4657 -0.2024
 2297SOL    HW2 9241   2.246   2.697   3.973  1.7903 -1.4636  0.4901
 2297SOL    HW3 9242   2.260   2.592   3.864  0.2684  0.6783 -1.8183
 2297SOL    MW4 9243   2.261   2.676   3.889 -0.0505  0.2396 -0.3242
 2298SOL     OW 9244   2.483   2.817   3.774 -0.0588  0.6019  0.4628
 2298SOL    HW2 9245   2.405   2.772   3.805  0.1262  1.1230  1.7132
 2298SOL    HW3 9246   2.482   2.805   3.679 -0.5603 -1.1496  0.6745
 2298SOL    MW4 9247   2.473   2.810   3.765 -0.1006  0.4396  0.6557
 2299SOL     OW 9248   2.469   3.106   3.875  0.1442 -0.1970 -0.4140
 2299SOL    HW2 9249   2.472   3.105   3.970  0.7074 -0.7421 -0.4371
 2299SOL    HW3 9250   2.480   3.015   3.849 -0.5320 -0.1259 -0.9868
 2299SOL    MW4 9251   2.471   3.094   3.884  0.1295 -0.2594 -0.4926
 2300SOL     OW 9252   2.253   3.221   3.762  0.4185 -0.6017  0.2418
 2300SOL    HW2 9253   2.259   3.305   3.808 -0.7731 -1.0001  1.1492
 2300SOL    HW3 9254   2.324   3.168   3.801  0.1668 -0.5393  0.7970
 2300SOL    MW4 9255   2.263   3.225   3.773  0.2284 -0.6459  0.4349
 2301SOL     OW 9256   2.261   3.470   3.893  0.4661 -0.7223 -0.2280
 2301SOL    HW2 9257   2.299   3.455   3.980  1.2481 -1.2347 -0.6596
 2301SOL    HW3 9258   2.321   3.531   3.851 -1.1669  1.4296  0.4482
 2301SOL    MW4 9259   2.274   3.476   3.899  0.3538 -0.5057 -0.1957
 2302SOL     OW 9260   2.449   3.635   3.800 -0.1928 -0.3592  0.1906
 2302SOL    HW2 9261   2.527   3.587   3.829 -0.0449  0.4040  1.0732
 2302SOL    HW3 9262   2.452   3.629   3.705  1.2108  0.0699  0.1904
 2302SOL    MW4 9263   2.460   3.628   3.791  0.0119 -0.2015  0.3068
 2303SOL     OW 9264   2.448   3.901   3.921  0.0285 -0.0869  0.0838
 2303SOL    HW2 9265   2.512   3.957   3.878  1.3126 -0.7288  1.1525
 2303SOL    HW3 9266   2.455   3.817   3.877  0.1206 -0.2433  0.3981
 2303SOL    MW4 9267   2.457   3.897   3.909  0.2100 -0.1922  0.2661
 2304SOL     OW 9268   2.243   4.040   3.808 -0.5416 -0.1344  0.0971
 2304SOL    HW2 9269   2.298   3.989   3.867 -1.1357  1.1183  1.7487
 2304SOL    HW3 9270   2.251   3.994   3.724  0.6496 -1.6849  1.0121
 2304SOL    MW4 9271   2.252   4.027   3.804 -0.4628 -0.1736  0.4356
 2305SOL     OW 9272   2.255   4.293   3.917 -0.1490 -0.3343 -0.1588
 2305SOL    HW2 9273   2.281   4.275   4.007  1.1568  0.7600 -0.2846
 2305SOL    HW3 9274   2.243   4.207   3.877 -0.0227 -0.8305  0.8583
 2305SOL    MW4 9275   2.257   4.280   3.923  0.0403 -0.2551 -0.0410
 2306SOL     OW 9276   2.459   4.439   3.788 -0.6042 -0.1655 -0.1338
 2306SOL    HW2 9277   2.376   4.396   3.811 -0.7820  0.7838  1.0438
 2306SOL    HW3 9278   2.446   4.530   3.813  0.6443  0.0789 -0.3605
 2306SOL    MW4 9279   2.446   4.445   3.794 -0.4628 -0.0076 -0.0083
 2307SOL     OW 9280   2.928   4.656   3.859  0.1673  0.0753 -0.2160
 2307SOL    HW2 9281   2.919   4.655   3.954 -1.3452  0.2636 -0.3402
 2307SOL    HW3 9282   3.012   4.699   3.843  0.5176 -0.1215  1.0313
 2307SOL    MW4 9283   2.938   4.661   3.869  0.0141  0.0741 -0.0677
 2308SOL     OW 9284   2.714   0.122   3.778 -0.0033 -0.0800 -0.4224
 2308SOL    HW2 9285   2.791   0.074   3.810  1.7447  1.4458 -2.2743
 2308SOL    HW3 9286   2.729   0.132   3.684 -1.5665  1.8779 -0.4846
 2308SOL    MW4 9287   2.726   0.117   3.770  0.0207  0.3796 -0.6750
 2309SOL     OW 9288   2.691   0.390   3.893  0.8147 -0.0211 -0.2222
 2309SOL    HW2 9289   2.693   0.303   3.852 -0.5866 -0.5923  0.8964
 2309SOL    HW3 9290   2.616   0.433   3.854 -0.3643 -0.4694  1.5123
 2309SOL    MW4 9291   2.682   0.384   3.882  0.4740 -0.1557  0.1540
 2310SOL     OW 9292   2.912   0.531   3.791  0.2659 -0.0102  0.0310
 2310SOL    HW2 9293   2.998   0.500   3.818 -0.0331  0.8366  1.9818
 2310SOL    HW3 9294   2.850   0.477   3.840 -0.3257 -0.4611 -1.1873
 2310SOL    MW4 9295   2.915   0.520   3.801  0.1481  0.0420  0.1276
 2311SOL     OW 9296   2.925   0.775   3.920  0.5811 -0.2913 -0.6943
 2311SOL    HW2 9297   3.001   0.817   3.881 -0.1512 -0.4680 -2.3732
 2311SOL    HW3 9298   2.918   0.691   3.875 -0.2017 -0.5717 -0.0629
 2311SOL    MW4 9299   2.934   0.770   3.909  0.3812 -0.3516 -0.8326
 2312SOL     OW 9300   2.686   0.869   3.789  0.2084 -0.2309  0.1010
 2312SOL    HW2 9301   2.759   0.835   3.840  0.0581 -1.1600 -0.2919
 2312SOL    HW3 9302   2.608   0.838   3.836  0.0227  2.4857  1.6878
 2312SOL    MW4 9303   2.685   0.861   3.802  0.1643  0.0049  0.2587
 2313SOL     OW 9304   2.687   1.137   3.902 -0.2231  0.4260 -0.0798
 2313SOL    HW2 9305   2.696   1.046   3.876 -1.7646  0.1423  0.3222
 2313SOL    HW3 9306   2.621   1.173   3.842  0.0222  1.1460  0.0766
 2313SOL    MW4 9307   2.680   1.130   3.891 -0.3943  0.4835 -0.0062
 2314SOL     OW 9308   2.902   1.257   3.769 -0.3260  0.4487 -0.6517
 2314SOL    HW2 9309   2.907   1.352   3.775  1.9477  0.3178 -0.2232
 2314SOL    HW3 9310   2.823   1.234   3.818  0.7824  1.8883  1.8804
 2314SOL    MW4 9311   2.892   1.266   3.776  0.1199  0.6213 -0.2611
 2315SOL     OW 9312   2.905   1.521   3.860 -0.0874  0.8425  0.2037
 2315SOL    HW2 9313   2.929   1.499   3.950 -1.6428 -0.9262  0.2111
 2315SOL    HW3 9314   2.975   1.578   3.830  0.7566  0.9850  2.3390
 2315SOL    MW4 9315   2.917   1.526   3.868 -0.1812  0.6280  0.4864
 2316SOL     OW 9316   2.693   1.685   3.806 -0.5937  0.2305 -0.2152
 2316SOL    HW2 9317   2.761   1.623   3.833 -1.2330  0.0542  1.0313
 2316SOL    HW3 9318   2.687   1.674   3.711 -0.7981 -1.7444 -0.0051
 2316SOL    MW4 9319   2.701   1.675   3.797 -0.7048 -0.0533 -0.0229
 2317SOL     OW 9320   2.688   1.953   3.933 -0.3618  0.0878  0.5112
 2317SOL    HW2 9321   2.693   1.868   3.890  0.4463  0.6585 -0.5581
 2317SOL    HW3 9322   2.617   1.999   3.887  0.7562  0.8398 -0.4870
 2317SOL    MW4 9323   2.679   1.948   3.921 -0.1078  0.2623  0.2382
 2318SOL     OW 9324   2.876   2.077   3.779 -0.1355  0.0220 -0.2255
 2318SOL    HW2 9325   2.902   2.162   3.814  0.3245  0.4704 -1.6217
 2318SOL    HW3 9326   2.818   2.040   3.846  0.4529  0.9940  0.8430
 2318SOL    MW4 9327   2.872   2.083   3.793  0.0026  0.2096 -0.2687
 2319SOL     OW 9328   2.927   2.326   3.908  0.6622 -0.0058 -0.2435
 2319SOL    HW2 9329   2.921   2.334   4.003 -0.3435  1.3036 -0.4024
 2319SOL    HW3 9330   3.015   2.356   3.887  0.4345  0.9725  0.1639
 2319SOL    MW4 9331   2.938   2.331   3.918  0.4992  0.2961 -0.2108
 2320SOL     OW 9332   2.703   2.437   3.736  0.1745 -0.0399  0.1374
 2320SOL    HW2 9333   2.693   2.520   3.783  1.3797  0.9242 -1.2584
 2320SOL    HW3 9334   2.787   2.402   3.768  0.5690  0.1948 -0.6201
 2320SOL    MW4 9335   2.713   2.443   3.747  0.3855  0.1183 -0.1471
 2321SOL     OW 9336   2.709   2.675   3.861  0.1251  0.3178  0.7112
 2321SOL    HW2 9337   2.690   2.652   3.952  0.7065 -1.3415  0.4291
 2321SOL    HW3 9338   2.633   2.726   3.833 -1.2756 -1.3281  1.3716
 2321SOL    MW4 9339   2.696   2.678   3.869  0.0172 -0.1185  0.7613
 2322SOL     OW 9340   2.905   2.814   3.760 -0.2502  0.1685 -0.0979
 2322SOL    HW2 9341   2.897   2.900   3.803 -0.1957  0.6567 -1.0555
 2322SOL    HW3 9342   2.838   2.760   3.803 -1.6957  1.2742 -0.8873
 2322SOL    MW4 9343   2.895   2.819   3.771 -0.4334  0.3786 -0.3285
 2323SOL     OW 9344   2.915   3.053   3.887 -0.1879 -0.0939 -0.1162
 2323SOL    HW2 9345   3.004   3.072   3.856  0.4951 -0.4728  1.5615
 2323SOL    HW3 9346   2.863   3.126   3.856  1.3381  1.7647  1.5494
 2323SOL    MW4 9347   2.920   3.065   3.879  0.1037  0.1013  0.3252
 2324SOL     OW 9348   2.710   3.212   3.800  0.2242 -0.4326 -0.2213
 2324SOL    HW2 9349   2.707   3.306   3.816 -2.1785 -0.5781  0.2320
 2324SOL    HW3 9350   2.624   3.179   3.824  0.7039 -2.6201 -1.2716
 2324SOL    MW4 9351   2.699   3.220   3.805 -0.0293 -0.7403 -0.3002
 2325SOL     OW 9352   2.662   3.482   3.862  0.0417 -0.3402  0.2277
 2325SOL    HW2 9353   2.647   3.494   3.956  1.0297  0.5123  0.2913
 2325SOL    HW3 9354   2.740   3.535   3.844 -0.5368  0.0270 -1.1994
 2325SOL    MW4 9355   2.670   3.491   3.872  0.0956 -0.1793  0.0477
 2326SOL     OW 9356   2.908   3.603   3.778 -0.4103  0.5094  0.0977
 2326SOL    HW2 9357   2.975   3.546   3.817 -0.4059  0.2305 -0.3132
 2326SOL    HW3 9358   2.919   3.591   3.684 -0.0769  1.5750 -0.0048
 2326SOL    MW4 9359   2.918   3.594   3.771 -0.3660  0.6132  0.0296
 2327SOL     OW 9360   2.926   3.864   3.876 -0.1878 -0.2239 -0.0010
 2327SOL    HW2 9361   2.955   3.842   3.965  0.9491 -1.8201 -0.7410
 2327SOL    HW3 9362   2.908   3.780   3.835 -0.9103  0.5129 -1.2322
 2327SOL    MW4 9363   2.927   3.850   3.882 -0.1335 -0.3376 -0.2611
 2328SOL     OW 9364   2.683   4.006   3.809  0.0793 -0.0025 -0.0105
 2328SOL    HW2 9365   2.687   4.099   3.834 -0.7935 -0.4597  1.8844
 2328SOL    HW3 9366   2.765   3.969   3.842  0.2678  0.0146 -0.4555
 2328SOL    MW4 9367   2.694   4.014   3.817 -0.0112 -0.0606  0.1810
 2329SOL     OW 9368   2.637   4.261   3.921 -0.5508  0.1352 -0.1493
 2329SOL    HW2 9369   2.709   4.311   3.883  0.6007 -0.8564  0.6822
 2329SOL    HW3 9370   2.560   4.316   3.909  0.3242  1.1340 -1.2003
 2329SOL    MW4 9371   2.636   4.275   3.915 -0.2835  0.1364 -0.1783
 2330SOL     OW 9372   2.903   4.381   3.831  0.4812 -0.4438  0.2096
 2330SOL    HW2 9373   2.978   4.349   3.882  0.1403 -1.1518  0.2625
 2330SOL    HW3 9374   2.910   4.476   3.837  1.0458 -0.5111  0.7021
 2330SOL    MW4 9375   2.914   4.389   3.839  0.5107 -0.5465  0.2813
 2331SOL     OW 9376   3.362   4.613   3.923 -0.0042  0.0349 -0.4482
 2331SOL    HW2 9377   3.363   4.620   4.018 -2.3392  2.0996 -0.5202
 2331SOL    HW3 9378   3.445   4.650   3.895 -0.5625  2.1877  0.6636
 2331SOL    MW4 9379   3.373   4.619   3.932 -0.3860  0.5913 -0.3114
 2332SOL     OW 9380   3.171   0.123   3.828 -0.3202  0.4613  0.1410
 2332SOL    HW2 9381   3.231   0.056   3.862  0.9139  1.9077  0.8774
 2332SOL    HW3 9382   3.187   0.123   3.734 -0.2715 -0.2230  0.1447
 2332SOL    MW4 9383   3.181   0.114   3.820 -0.1509  0.5618  0.2387
 2333SOL     OW 9384   3.155   0.397   3.873  0.0947  0.2239  0.6530
 2333SOL    HW2 9385   3.180   0.403   3.965 -0.5902 -0.3544  0.8848
 2333SOL    HW3 9386   3.135   0.304   3.860 -0.4019  0.4084  0.0774
 2333SOL    MW4 9387   3.155   0.385   3.883 -0.0610  0.1719  0.6077
 2334SOL     OW 9388   3.388   0.482   3.765 -0.0956  0.2618 -0.2882
 2334SOL    HW2 9389   3.455   0.418   3.791 -0.9056 -1.1263 -1.5763
 2334SOL    HW3 9390   3.308   0.451   3.807 -0.4394  0.5864 -0.7093
 2334SOL    MW4 9391   3.386   0.469   3.774 -0.2482  0.1215 -0.5136
 2335SOL     OW 9392   3.377   0.747   3.881 -0.1982 -0.1644 -0.1067
 2335SOL    HW2 9393   3.376   0.720   3.973  2.0097  0.6156  0.1871
 2335SOL    HW3 9394   3.389   0.665   3.832 -1.1326 -0.5500  0.3036
 2335SOL    MW4 9395   3.379   0.732   3.886 -0.0303 -0.1123 -0.0136
 2336SOL     OW 9396   3.150   0.885   3.820 -0.4018  0.4158 -0.1268
 2336SOL    HW2 9397   3.237   0.850   3.840 -0.7993  0.0861  1.0688
 2336SOL    HW3 9398   3.147   0.888   3.725  0.0116 -1.8839 -0.2393
 2336SOL    MW4 9399   3.161   0.881   3.810 -0.3996  0.0688  0.0162
 2337SOL     OW 9400   3.144   1.149   3.910 -0.8413 -0.3638 -0.1842
 2337SOL    HW2 9401   3.166   1.067   3.866 -0.6408 -0.3095 -0.1870
 2337SOL    HW3 9402   3.056   1.170   3.880 -1.1948 -0.9739  0.4116
 2337SOL    MW4 9403   3.135   1.141   3.900 -0.8616 -0.4370 -0.1061
 2338SOL     OW 9404   3.331   1.337   3.798  0.3785  0.0155 -0.2935
 2338SOL    HW2 9405   3.276   1.282   3.853  1.5808 -1.1770 -0.2651
 2338SOL    HW3 9406   3.312   1.308   3.709  0.1729  0.3500 -0.3623
 2338SOL    MW4 9407   3.321   1.326   3.794  0.5102 -0.0975 -0.2990
 2339SOL     OW 9408   3.357   1.617   3.870  0.3393 -0.3039  0.2465
 2339SOL    HW2 9409   3.270   1.647   3.845  0.4844 -0.2943 -0.2357
 2339SOL    HW3 9410   3.361   1.526   3.840  0.9862  0.1027 -0.9319
 2339SOL    MW4 9411   3.346   1.609   3.863  0.4437 -0.2489  0.0274
 2340SOL     OW 9412   3.110   1.683   3.768  0.0351 -0.2747  0.2331
 2340SOL    HW2 9413   3.090   1.776   3.779 -2.8585 -0.7647 -0.6446
 2340SOL    HW3 9414   3.130   1.674   3.675  0.3609 -0.5364  0.3265
 2340SOL    MW4 9415   3.110   1.694   3.757 -0.3037 -0.3738  0.1295
 2341SOL     OW 9416   3.138   1.988   3.848  0.0838  0.1705  0.2255
 2341SOL    HW2 9417   3.129   1.967   3.941  1.0366 -0.4846  0.1883
 2341SOL    HW3 9418   3.052   2.020   3.822 -0.8171 -1.6474  0.8343
 2341SOL    MW4 9419   3.126   1.989   3.857  0.0906 -0.1558  0.3011
 2342SOL     OW 9420   3.402   2.087   3.811  0.3913  0.1404  0.3894
 2342SOL    HW2 9421   3.317   2.044   3.816 -0.4722  1.4504 -2.2568
 2342SOL    HW3 9422   3.424   2.086   3.718  2.0693  2.1128  0.7360
 2342SOL    MW4 9423   3.394   2.081   3.800  0.4988  0.5734  0.0861
 2343SOL     OW 9424   3.398   2.326   3.940  0.0950  0.6015 -0.1553
 2343SOL    HW2 9425   3.331   2.390   3.916 -0.0228  0.2991 -0.6429
 2343SOL    HW3 9426   3.384   2.253   3.879 -1.1460 -0.8037  1.7444
 2343SOL    MW4 9427   3.387   2.325   3.929 -0.0844  0.3760  0.0308
 2344SOL     OW 9428   3.176   2.439   3.810 -0.0565  0.3213  0.1062
 2344SOL    HW2 9429   3.159   2.532   3.827  0.9863  0.2738  1.5686
 2344SOL    HW3 9430   3.163   2.428   3.716 -1.2430  1.7168  0.0895
 2344SOL    MW4 9431   3.172   2.450   3.800 -0.0753  0.4992  0.2968
 2345SOL     OW 9432   3.127   2.702   3.884  0.4506  0.0592 -0.3269
 2345SOL    HW2 9433   3.107   2.713   3.977 -0.1094 -1.4162 -0.2669
 2345SOL    HW3 9434   3.056   2.746   3.838 -0.3390 -0.9467 -0.0719
 2345SOL    MW4 9435   3.115   2.709   3.890  0.2725 -0.2680 -0.2854
 2346SOL     OW 9436   3.370   2.800   3.769 -0.6967  0.2255  0.2163
 2346SOL    HW2 9437   3.293   2.761   3.810  0.1437 -1.1958  0.4780
 2346SOL    HW3 9438   3.342   2.819   3.679 -1.9055  1.4338  0.8433
 2346SOL    MW4 9439   3.356   2.797   3.762 -0.7453  0.1974  0.3338
 2347SOL     OW 9440   3.397   3.060   3.915  0.6957 -0.0276  0.4938
 2347SOL    HW2 9441   3.470   3.105   3.872  0.4536  0.3978  0.5236
 2347SOL    HW3 9442   3.402   2.970   3.883  0.7528  0.1903 -0.1251
 2347SOL    MW4 9443   3.408   3.054   3.905  0.6714  0.0570  0.4160
 2348SOL     OW 9444   3.173   3.163   3.809 -0.2769 -0.5020  0.1489
 2348SOL    HW2 9445   3.256   3.124   3.836 -0.4177 -1.1381 -0.3269
 2348SOL    HW3 9446   3.182   3.175   3.715 -0.6375 -0.3584  0.1334
 2348SOL    MW4 9447   3.185   3.160   3.800 -0.3431 -0.5670  0.0842
 2349SOL     OW 9448   3.148   3.444   3.867 -0.2422 -0.3058  0.0806
 2349SOL    HW2 9449   3.235   3.472   3.839  0.3912 -0.4185  1.8874
 2349SOL    HW3 9450   3.148   3.349   3.854 -0.9060 -0.0445 -2.0389
 2349SOL    MW4 9451   3.160   3.435   3.862 -0.2460 -0.2861  0.0391
 2350SOL     OW 9452   3.368   3.609   3.779  0.4890 -0.0221 -0.0611
 2350SOL    HW2 9453   3.354   3.693   3.823  1.7360  0.5867 -0.7988
 2350SOL    HW3 9454   3.377   3.632   3.687 -0.4459 -1.1201 -0.4382
 2350SOL    MW4 9455   3.367   3.623   3.773  0.5300 -0.0865 -0.2084
 2351SOL     OW 9456   3.366   3.857   3.890 -0.3116  0.3561  0.0025
 2351SOL    HW2 9457   3.429   3.929   3.881  0.2295  0.1153  1.7365
 2351SOL    HW3 9458   3.283   3.894   3.859  0.0309  1.6443  0.5916
 2351SOL    MW4 9459   3.363   3.872   3.885 -0.1950  0.4942  0.3090
 2352SOL     OW 9460   3.149   4.027   3.805  0.1333  0.2648  0.5478
 2352SOL    HW2 9461   3.143   4.117   3.837  1.6718 -0.1943  2.1916
 2352SOL    HW3 9462   3.067   3.986   3.833 -0.3468  1.0179  0.2409
 2352SOL    MW4 9463   3.137   4.033   3.813  0.2728  0.3037  0.7241
 2353SOL     OW 9464   3.143   4.276   3.950  0.2766 -0.1053  0.0787
 2353SOL    HW2 9465   3.155   4.242   4.039  2.4063  0.0915 -0.1080
 2353SOL    HW3 9466   3.231   4.304   3.923 -0.7889  2.1870 -1.1314
 2353SOL    MW4 9467   3.156   4.276   3.958  0.4172  0.2227 -0.1056
 2354SOL     OW 9468   3.382   4.353   3.853  0.0977 -0.3475  0.2196
 2354SOL    HW2 9469   3.455   4.311   3.899  1.8481  1.8034 -0.5072
 2354SOL    HW3 9470   3.378   4.441   3.891 -1.9624 -0.3537  0.0486
 2354SOL    MW4 9471   3.391   4.359   3.864  0.0567 -0.0648  0.1009
 2355SOL     OW 9472   3.862   4.594   3.936 -0.2681 -0.1132 -0.1735
 2355SOL    HW2 9473   3.907   4.664   3.888 -0.9632  0.0371 -0.6234
 2355SOL    HW3 9474   3.868   4.518   3.878  1.7081 -0.8164  0.9275
 2355SOL    MW4 9475   3.869   4.593   3.922 -0.0987 -0.1855 -0.0875
 2356SOL     OW 9476   3.616   0.052   3.827 -0.1686  0.0118  0.0439
 2356SOL    HW2 9477   3.681  -0.002   3.871  1.4676  1.8262 -0.1089
 2356SOL    HW3 9478   3.641   0.049   3.734 -1.7236 -1.2065 -0.3647
 2356SOL    MW4 9479   3.628   0.044   3.820 -0.1578  0.0904 -0.0305
 2357SOL     OW 9480   3.582   0.315   3.902 -0.4367  0.5033  0.2868
 2357SOL    HW2 9481   3.664   0.359   3.880 -0.6818  1.0938  0.5488
 2357SOL    HW3 9482   3.591   0.227   3.866  0.2259  0.6378  0.1286
 2357SOL    MW4 9483   3.594   0.309   3.895 -0.3815  0.5989  0.3006
 2358SOL     OW 9484   3.804   0.472   3.832  0.1142  0.0394  0.1214
 2358SOL    HW2 9485   3.896   0.448   3.843  0.3036  0.8612  0.3694
 2358SOL    HW3 9486   3.800   0.563   3.860 -0.9778 -0.3036  1.1123
 2358SOL    MW4 9487   3.816   0.481   3.837 -0.0048  0.1026  0.2847
 2359SOL     OW 9488   3.803   0.731   3.906  0.6598 -0.1305 -0.4685
 2359SOL    HW2 9489   3.885   0.773   3.880  0.7614 -0.1129 -0.1246
 2359SOL    HW3 9490   3.735   0.794   3.880  0.8709  0.7193  0.9500
 2359SOL    MW4 9491   3.805   0.745   3.899  0.7012 -0.0160 -0.2358
 2360SOL     OW 9492   3.596   0.905   3.814 -0.0544  0.6522  0.0447
 2360SOL    HW2 9493   3.561   0.994   3.816  0.5419  0.8980 -0.0707
 2360SOL    HW3 9494   3.523   0.849   3.838 -0.1900  1.2603  1.0931
 2360SOL    MW4 9495   3.582   0.909   3.818  0.0064  0.7650  0.1681
 2361SOL     OW 9496   3.570   1.186   3.855 -0.4504  0.1141  0.4545
 2361SOL    HW2 9497   3.651   1.210   3.809 -0.5720  0.4793  0.4294
 2361SOL    HW3 9498   3.512   1.261   3.841 -0.3586  0.3859  1.5132
 2361SOL    MW4 9499   3.573   1.199   3.847 -0.4542  0.1981  0.5910
 2362SOL     OW 9500   3.830   1.288   3.765  0.3868  0.1562  0.4408
 2362SOL    HW2 9501   3.885   1.228   3.815  1.4171 -0.0830 -0.9544
 2362SOL    HW3 9502   3.820   1.365   3.821 -0.4570 -1.0562  2.0021
 2362SOL    MW4 9503   3.836   1.290   3.779  0.4113 -0.0352  0.4628
 2363SOL     OW 9504   3.805   1.543   3.883  0.1629  0.2067 -0.2702
 2363SOL    HW2 9505   3.794   1.538   3.978 -1.0534  0.0711 -0.4185
 2363SOL    HW3 9506   3.733   1.598   3.853  1.5580  1.7088 -0.9360
 2363SOL    MW4 9507   3.794   1.550   3.892  0.1867  0.3870 -0.3774
 2364SOL     OW 9508   3.603   1.715   3.793  0.1241  0.3751 -0.1420
 2364SOL    HW2 9509   3.519   1.680   3.825  0.1327  0.4310 -0.0593
 2364SOL    HW3 9510   3.601   1.697   3.699 -0.5084  1.4683 -0.3476
 2364SOL    MW4 9511   3.591   1.708   3.785  0.0420  0.5267 -0.1585
 2365SOL     OW 9512   3.597   1.934   3.956  0.1839  0.1581  0.2293
 2365SOL    HW2 9513   3.590   1.868   3.887  0.3367 -1.0965  1.3849
 2365SOL    HW3 9514   3.528   1.998   3.936 -1.9082 -1.8907  0.7225
 2365SOL    MW4 9515   3.587   1.934   3.944 -0.0720 -0.2776  0.4470
 2366SOL     OW 9516   3.783   2.012   3.768 -0.7488 -0.4069 -0.6190
 2366SOL    HW2 9517   3.868   1.973   3.791 -0.5400  0.7412  0.6273
 2366SOL    HW3 9518   3.724   1.984   3.837 -0.5651  1.5579  0.3547
 2366SOL    MW4 9519   3.787   2.003   3.780 -0.6971  0.0041 -0.3259
 2367SOL     OW 9520   3.813   2.280   3.871 -0.0668 -0.0291 -0.1054
 2367SOL    HW2 9521   3.740   2.338   3.852  1.2792  0.7357 -3.2210
 2367SOL    HW3 9522   3.792   2.199   3.824 -0.0017 -0.6223  0.8848
 2367SOL    MW4 9523   3.801   2.277   3.862  0.1192 -0.0064 -0.3858
 2368SOL     OW 9524   3.600   2.459   3.815 -0.5991 -0.0774  0.2265
 2368SOL    HW2 9525   3.534   2.405   3.858  0.5214 -1.7768 -0.1581
 2368SOL    HW3 9526   3.585   2.445   3.721  0.6856 -0.9492  0.1418
 2368SOL    MW4 9527   3.589   2.450   3.808 -0.2816 -0.4165  0.1645
 2369SOL     OW 9528   3.596   2.713   3.901  0.3661  0.1191 -0.4648
 2369SOL    HW2 9529   3.600   2.623   3.869 -2.3792 -0.3409  0.3755
 2369SOL    HW3 9530   3.513   2.747   3.869  0.4264  1.7037  0.9514
 2369SOL    MW4 9531   3.586   2.706   3.893  0.0119  0.2675 -0.1671
 2370SOL     OW 9532   3.811   2.847   3.780 -0.3651 -0.3957 -0.2052
 2370SOL    HW2 9533   3.890   2.802   3.809 -0.3247 -0.0113  0.2913
 2370SOL    HW3 9534   3.740   2.800   3.822 -0.2765  0.4552  0.9033
 2370SOL    MW4 9535   3.812   2.835   3.789 -0.3483 -0.2329  0.0067
 2371SOL     OW 9536   3.819   3.106   3.852  0.2014  0.0975  0.0662
 2371SOL    HW2 9537   3.751   3.153   3.804 -0.8170 -0.6654  0.7202
 2371SOL    HW3 9538   3.809   3.015   3.824  0.4728 -0.1361  0.7157
 2371SOL    MW4 9539   3.808   3.100   3.842  0.1028 -0.0341  0.2384
 2372SOL     OW 9540   3.578   3.212   3.746  0.3200  0.2179  0.0206
 2372SOL    HW2 9541   3.599   3.299   3.781  1.7208 -0.4464  0.8962
 2372SOL    HW3 9542   3.601   3.218   3.653 -0.5614  1.0799 -0.1582
 2372SOL    MW4 9543   3.584   3.224   3.738  0.3886  0.2439  0.1125
 2373SOL     OW 9544   3.610   3.492   3.817  0.4583 -0.1775  0.0578
 2373SOL    HW2 9545   3.617   3.496   3.912 -0.2927  0.4165  0.0961
 2373SOL    HW3 9546   3.522   3.523   3.798  0.8428  0.3706 -0.8783
 2373SOL    MW4 9547   3.599   3.496   3.827  0.4101 -0.0269 -0.0608
 2374SOL     OW 9548   3.850   3.599   3.774  0.0631 -0.0453  0.2911
 2374SOL    HW2 9549   3.847   3.686   3.814  0.4281 -1.1017  2.7467
 2374SOL    HW3 9550   3.765   3.560   3.796  0.4050 -0.7675  0.3573
 2374SOL    MW4 9551   3.839   3.605   3.782  0.1564 -0.2799  0.6235
 2375SOL     OW 9552   3.841   3.884   3.865  0.4877  0.2489  0.5901
 2375SOL    HW2 9553   3.843   3.871   3.960  0.8341 -2.2140  0.2810
 2375SOL    HW3 9554   3.916   3.941   3.847  0.9939 -0.0585  1.6755
 2375SOL    MW4 9555   3.851   3.890   3.875  0.5999 -0.1166  0.6924
 2376SOL     OW 9556   3.594   4.015   3.819 -0.1799 -0.3905 -0.2871
 2376SOL    HW2 9557   3.592   4.099   3.865  0.5762 -0.3273 -0.3632
 2376SOL    HW3 9558   3.680   3.977   3.841 -1.0422 -1.7640  0.8454
 2376SOL    MW4 9559   3.605   4.021   3.828 -0.1941 -0.5636 -0.1478
 2377SOL     OW 9560   3.614   4.252   3.959  0.2958 -0.2005 -0.0734
 2377SOL    HW2 9561   3.629   4.243   4.053  0.0249  0.7178  0.0565
 2377SOL    HW3 9562   3.699   4.278   3.924  0.1993  0.2693  0.0318
 2377SOL    MW4 9563   3.627   4.254   3.967  0.2475 -0.0176 -0.0424
 2378SOL     OW 9564   3.821   4.360   3.800 -0.0845 -0.5496 -0.3527
 2378SOL    HW2 9565   3.902   4.317   3.825 -0.9653 -1.3447  1.2112
 2378SOL    HW3 9566   3.828   4.371   3.705  1.9080 -0.4401 -0.2100
 2378SOL    MW4 9567   3.832   4.356   3.791  0.0622 -0.6399 -0.1278
 2379SOL     OW 9568   4.256   4.630   3.928 -0.1429  0.2315  0.2006
 2379SOL    HW2 9569   4.267   4.622   4.023 -0.2209 -0.7337  0.1318
 2379SOL    HW3 9570   4.333   4.679   3.899  0.1754  0.0204  0.6846
 2379SOL    MW4 9571   4.267   4.636   3.937 -0.1111  0.0763  0.2553
 2380SOL     OW 9572   4.048   0.117   3.809 -0.8684 -0.1427  0.2556
 2380SOL    HW2 9573   4.120   0.068   3.851 -1.3563  0.1738  1.4808
 2380SOL    HW3 9574   4.065   0.108   3.715  0.6444 -0.2703  0.5269
 2380SOL    MW4 9575   4.060   0.109   3.802 -0.7334 -0.1178  0.4530
 2381SOL     OW 9576   4.050   0.368   3.908  0.1166 -0.1412  0.9409
 2381SOL    HW2 9577   4.065   0.352   4.001  2.0281 -1.4775  0.4381
 2381SOL    HW3 9578   4.032   0.282   3.871  1.9895 -0.0203 -0.3483
 2381SOL    MW4 9579   4.050   0.355   3.915  0.6156 -0.3015  0.7045
 2382SOL     OW 9580   4.286   0.460   3.829 -0.1290  0.2455  0.4623
 2382SOL    HW2 9581   4.204   0.416   3.847  0.2835 -0.5521  0.4160
 2382SOL    HW3 9582   4.283   0.480   3.735  0.6725 -1.7854 -0.0266
 2382SOL    MW4 9583   4.275   0.457   3.819  0.0315 -0.1277  0.3915
 2383SOL     OW 9584   4.265   0.731   3.902  0.2145  0.1161 -0.5237
 2383SOL    HW2 9585   4.177   0.763   3.883 -0.2315 -0.2911  0.7906
 2383SOL    HW3 9586   4.267   0.642   3.866 -0.4080 -0.4125  0.7104
 2383SOL    MW4 9587   4.254   0.724   3.895  0.0734 -0.0074 -0.1876
 2384SOL     OW 9588   4.034   0.854   3.806  0.3272  0.3734 -0.1512
 2384SOL    HW2 9589   4.046   0.947   3.823 -1.3947  0.7745 -0.9747
 2384SOL    HW3 9590   4.035   0.847   3.710 -0.9653 -0.2356 -0.1341
 2384SOL    MW4 9591   4.035   0.865   3.795 -0.0706  0.3459 -0.2575
 2385SOL     OW 9592   4.027   1.127   3.879  0.0020 -0.1949 -0.1158
 2385SOL    HW2 9593   4.046   1.131   3.973  0.7046 -0.0254 -0.2651
 2385SOL    HW3 9594   4.098   1.176   3.838  0.3324 -1.2579 -0.8244
 2385SOL    MW4 9595   4.039   1.134   3.886  0.1378 -0.3128 -0.2289
 2386SOL     OW 9596   4.247   1.262   3.804 -0.5582 -0.0626  0.5419
 2386SOL    HW2 9597   4.237   1.348   3.845  1.0477  0.1747  0.4713
 2386SOL    HW3 9598   4.260   1.281   3.711 -0.7427 -0.4057  0.4459
 2386SOL    MW4 9599   4.248   1.276   3.798 -0.3700 -0.0765  0.5200
 2387SOL     OW 9600   4.274   1.539   3.892  0.4708 -0.1540  0.1483
 2387SOL    HW2 9601   4.205   1.597   3.859  0.4063  0.3946  1.2464
 2387SOL    HW3 9602   4.355   1.575   3.856  0.2499 -0.4562 -0.6654
 2387SOL    MW4 9603   4.275   1.551   3.883  0.4330 -0.1215  0.1857
 2388SOL     OW 9604   4.044   1.686   3.780  0.0854 -0.2496  0.0629
 2388SOL    HW2 9605   4.028   1.778   3.803 -0.8068 -0.0872 -1.1624
 2388SOL    HW3 9606   3.963   1.641   3.803  0.3381 -0.6466  0.1833
 2388SOL    MW4 9607   4.031   1.692   3.786  0.0010 -0.2805 -0.0832
 2389SOL     OW 9608   4.042   1.962   3.876  0.5805 -0.3062 -0.1878
 2389SOL    HW2 9609   4.064   1.992   3.964  1.3503 -0.0055 -0.4760
 2389SOL    HW3 9610   4.117   1.989   3.822  0.2556 -0.7585 -0.8737
 2389SOL    MW4 9611   4.055   1.970   3.880  0.6390 -0.3263 -0.3164
 2390SOL     OW 9612   4.268   2.026   3.729  0.2403 -0.1247 -0.1237
 2390SOL    HW2 9613   4.266   2.113   3.770  0.9680  0.3147 -1.0009
 2390SOL    HW3 9614   4.264   2.044   3.635  1.4308 -0.9962 -0.3447
 2390SOL    MW4 9615   4.267   2.040   3.722  0.4930 -0.1817 -0.2685
 2391SOL     OW 9616   4.282   2.271   3.851 -0.4283  0.5642  0.3519
 2391SOL    HW2 9617   4.282   2.280   3.946  0.0426 -0.8655  0.5000
 2391SOL    HW3 9618   4.206   2.323   3.822 -0.2198  1.5026  1.4383
 2391SOL    MW4 9619   4.272   2.279   3.860 -0.3386  0.4992  0.5147
 2392SOL     OW 9620   4.040   2.412   3.769  0.0667 -0.2031  0.1275
 2392SOL    HW2 9621   4.023   2.500   3.803 -0.0270  0.5956 -1.9047
 2392SOL    HW3 9622   3.958   2.365   3.784  0.3895 -0.2320  1.9883
 2392SOL    MW4 9623   4.027   2.417   3.776  0.0968 -0.1016  0.1051
 2393SOL     OW 9624   4.032   2.680   3.826  0.3778  0.1256  0.1339
 2393SOL    HW2 9625   4.057   2.681   3.919  0.5384  0.0921  0.0914
 2393SOL    HW3 9626   4.099   2.732   3.783 -0.1297  0.7943  0.1438
 2393SOL    MW4 9627   4.044   2.687   3.833  0.3319  0.2093  0.1297
 2394SOL     OW 9628   4.270   2.856   3.782 -0.0971  0.4581  0.0693
 2394SOL    HW2 9629   4.292   2.934   3.832  0.4714  0.1863  0.2493
 2394SOL    HW3 9630   4.315   2.785   3.828 -0.3835  0.0671 -0.2538
 2394SOL    MW4 9631   4.279   2.857   3.795 -0.0596  0.3707  0.0505
 2395SOL     OW 9632   4.286   3.137   3.919 -0.1209 -0.5888 -0.3491
 2395SOL    HW2 9633   4.213   3.160   3.861  0.0298 -1.2863 -0.8175
 2395SOL    HW3 9634   4.364   3.169   3.873 -0.0017 -1.1274 -0.5193
 2395SOL    MW4 9635   4.287   3.144   3.905 -0.0854 -0.7520 -0.4332
 2396SOL     OW 9636   4.052   3.243   3.781  0.0880  0.1786 -0.1827
 2396SOL    HW2 9637   3.973   3.193   3.801  0.1566 -0.1766 -0.7988
 2396SOL    HW3 9638   4.061   3.238   3.686 -0.0202  1.5439 -0.2767
 2396SOL    MW4 9639   4.043   3.235   3.771  0.0830  0.3119 -0.2763
 2397SOL     OW 9640   4.071   3.461   3.931  0.3080 -0.1373 -0.4619
 2397SOL    HW2 9641   4.070   3.382   3.876 -0.9886 -0.1995 -0.3846
 2397SOL    HW3 9642   4.004   3.517   3.891 -1.1424 -0.4649  1.4612
 2397SOL    MW4 9643   4.062   3.458   3.918 -0.0548 -0.1888 -0.1979
 2398SOL     OW 9644   4.260   3.560   3.781 -0.1675  0.1637 -0.1113
 2398SOL    HW2 9645   4.201   3.522   3.846  0.1399  0.6180  0.4294
 2398SOL    HW3 9646   4.347   3.535   3.810  0.1677  2.7239  1.2185
 2398SOL    MW4 9647   4.264   3.552   3.793 -0.0834  0.5615  0.1354
 2399SOL     OW 9648   4.276   3.835   3.878  0.3900 -0.2182 -0.1333
 2399SOL    HW2 9649   4.203   3.882   3.840 -0.8757 -1.3865  0.8061
 2399SOL    HW3 9650   4.264   3.744   3.849  0.1727 -0.8565  1.8643
 2399SOL    MW4 9651   4.265   3.829   3.869  0.1941 -0.4566  0.2544
 2400SOL     OW 9652   4.077   4.008   3.787  0.3715 -0.0131  0.0577
 2400SOL    HW2 9653   4.076   4.093   3.830  0.8380  0.9965 -1.8813
 2400SOL    HW3 9654   4.060   4.027   3.695  0.2750 -2.0426 -0.3798
 2400SOL    MW4 9655   4.074   4.022   3.780  0.4206 -0.1473 -0.2561
 2401SOL     OW 9656   4.078   4.242   3.921  0.0769  0.1401  0.1626
 2401SOL    HW2 9657   4.080   4.275   4.011  0.9232 -0.7558  0.4795
 2401SOL    HW3 9658   4.147   4.291   3.876  0.6513 -0.4484  0.3827
 2401SOL    MW4 9659   4.087   4.253   3.927  0.2642 -0.0558  0.2334
 2402SOL     OW 9660   4.281   4.382   3.791 -0.3921 -0.2799  0.5017
 2402SOL    HW2 9661   4.275   4.464   3.842  0.3589 -0.6113  1.1374
 2402SOL    HW3 9662   4.346   4.330   3.838  0.0005 -0.7655 -0.5804
 2402SOL    MW4 9663   4.289   4.386   3.804 -0.2408 -0.3872  0.4425
 2403SOL     OW 9664   0.039   0.067   4.268 -0.1877 -0.3600  0.0158
 2403SOL    HW2 9665   0.027   0.162   4.268  1.1133 -0.1821  1.4504
 2403SOL    HW3 9666   0.114   0.052   4.211  0.7407 -0.3618  1.2255
 2403SOL    MW4 9667   0.047   0.078   4.260  0.1065 -0.3368  0.3648
 2404SOL     OW 9668   0.420   0.400   4.148  0.2955 -0.0135  0.5191
 2404SOL    HW2 9669   0.430   0.396   4.053  1.5392 -0.8198  0.6761
 2404SOL    HW3 9670   0.450   0.315   4.179  0.9676  0.6470  1.7282
 2404SOL    MW4 9671   0.425   0.389   4.139  0.5482 -0.0327  0.6995
 2405SOL     OW 9672   1.459   0.213   4.466 -0.2501 -0.2876  0.1024
 2405SOL    HW2 9673   1.406   0.200   4.388 -0.2925 -1.2535  0.2874
 2405SOL    HW3 9674   1.417   0.285   4.512  0.1222  0.7021 -1.0589
 2405SOL    MW4 9675   1.447   0.221   4.462 -0.2066 -0.2845 -0.0267
 2406SOL     OW 9676   0.843   0.851   4.650 -0.0370 -0.4977  0.3090
 2406SOL    HW2 9677   0.750   0.828   4.644  0.0250 -1.5951  2.7092
 2406SOL    HW3 9678   0.862   0.845   4.744  2.4276 -0.1261 -0.1451
 2406SOL    MW4 9679   0.833   0.847   4.662  0.2964 -0.5935  0.5655
 2407SOL     OW 9680   4.259   0.747   4.193  0.4610  0.0527 -0.5601
 2407SOL    HW2 9681   4.248   0.723   4.101 -0.3472 -0.2971 -0.3739
 2407SOL    HW3 9682   4.278   0.664   4.237  0.8978  0.2263 -0.4142
 2407SOL    MW4 9683   4.260   0.733   4.187  0.4120  0.0294 -0.5159
 2408SOL     OW 9684   1.110   1.419   4.555  0.0883  0.6188 -0.2825
 2408SOL    HW2 9685   1.172   1.489   4.573  0.6568 -0.1469  0.8084
 2408SOL    HW3 9686   1.024   1.457   4.575  0.4327  0.8503  0.7959
 2408SOL    MW4 9687   1.106   1.433   4.560  0.2087  0.5482  0.0038
 2409SOL     OW 9688   4.468   1.169   4.184 -0.5493  0.3228  0.5804
 2409SOL    HW2 9689   4.470   1.166   4.088  0.1957  0.0120  0.6113
 2409SOL    HW3 9690   4.491   1.081   4.212 -1.8250  0.1178  1.0385
 2409SOL    MW4 9691   4.471   1.157   4.175 -0.6193  0.2548  0.6447
 2410SOL     OW 9692   2.464   1.082   4.559 -0.3621  0.1296 -0.7076
 2410SOL    HW2 9693   2.490   1.034   4.481 -1.0612  0.4466 -1.1370
 2410SOL    HW3 9694   2.486   1.173   4.540  1.5397 -0.0891  0.3518
 2410SOL    MW4 9695   2.470   1.088   4.546 -0.2034  0.1426 -0.6247
 2411SOL     OW 9696   3.857   4.369   4.317 -0.0123 -0.0639  0.0144
 2411SOL    HW2 9697   3.861   4.461   4.290  0.1331 -0.7198 -2.2679
 2411SOL    HW3 9698   3.941   4.332   4.288  0.0035 -0.8915  1.0845
 2411SOL    MW4 9699   3.869   4.377   4.310  0.0093 -0.2599 -0.1459
 2412SOL     OW 9700   0.583   0.749   4.678  0.1061  0.3189 -0.0294
 2412SOL    HW2 9701   0.505   0.784   4.636 -0.3697 -0.1531  0.4477
 2412SOL    HW3 9702   0.588   0.657   4.650 -0.0435  0.0852  0.6789
 2412SOL    MW4 9703   0.573   0.741   4.669  0.0235  0.2258  0.1273
 2413SOL     OW 9704   2.296   3.217   4.267 -0.1735 -0.4269  0.2774
 2413SOL    HW2 9705   2.319   3.306   4.241  1.0726 -0.8489 -0.0989
 2413SOL    HW3 9706   2.361   3.162   4.225 -0.4292 -1.4531  1.1997
 2413SOL    MW4 9707   2.307   3.221   4.258 -0.0427 -0.6180  0.3495
 2414SOL     OW 9708   1.358   0.164   4.209 -0.1759  0.0252  0.2299
 2414SOL    HW2 9709   1.285   0.102   4.201  1.0897 -1.4405  0.0456
 2414SOL    HW3 9710   1.433   0.119   4.170  1.0585  1.1738  1.2481
 2414SOL    MW4 9711   1.358   0.150   4.203  0.1540 -0.0167  0.3400
 2415SOL     OW 9712   0.960   4.228   4.472  0.0980 -0.1229 -0.1299
 2415SOL    HW2 9713   1.033   4.264   4.422 -0.7039  1.0210 -0.5089
 2415SOL    HW3 9714   0.939   4.146   4.428  0.0130  0.4096 -1.0936
 2415SOL    MW4 9715   0.967   4.222   4.459 -0.0191  0.0982 -0.3071
 2416SOL     OW 9716   3.117   3.219   4.606 -0.1438  0.2172 -0.5990
 2416SOL    HW2 9717   3.124   3.201   4.512  2.2896  0.8272 -0.5559
 2416SOL    HW3 9718   3.144   3.137   4.647  0.3397  0.4662 -0.4234
 2416SOL    MW4 9719   3.121   3.206   4.599  0.2408  0.3302 -0.5703
 2417SOL     OW 9720   2.961   4.043   4.527  0.0295 -0.1383  0.3548
 2417SOL    HW2 9721   3.021   4.016   4.458 -0.0917  0.1795  0.1256
 2417SOL    HW3 9722   2.928   3.961   4.564  0.4992 -0.3145  0.3897
 2417SOL    MW4 9723   2.965   4.029   4.523  0.0756 -0.1197  0.3290
 2418SOL     OW 9724   0.280   1.337   4.542 -0.3041  0.1488 -0.2079
 2418SOL    HW2 9725   0.213   1.303   4.601 -0.4930  0.5661 -0.1870
 2418SOL    HW3 9726   0.249   1.314   4.455 -0.4652  0.3286 -0.1979
 2418SOL    MW4 9727   0.267   1.329   4.538 -0.3504  0.2276 -0.2031
 2419SOL     OW 9728   0.374   3.260   4.517 -0.2303 -0.0488 -0.0931
 2419SOL    HW2 9729   0.463   3.231   4.536  0.0110  1.2390  0.8046
 2419SOL    HW3 9730   0.318   3.201   4.566  0.2058  0.1289  0.6367
 2419SOL    MW4 9731   0.378   3.249   4.526 -0.1409  0.1445  0.1216
 2420SOL     OW 9732   0.212   3.107   4.173  0.3263 -0.1124  0.3538
 2420SOL    HW2 9733   0.298   3.142   4.194 -0.5429  1.1351  2.0011
 2420SOL    HW3 9734   0.155   3.142   4.242 -1.2668 -1.8590 -0.0439
 2420SOL    MW4 9735   0.216   3.116   4.185  0.0014 -0.1781  0.5183
 2421SOL     OW 9736   0.004   3.463   4.172 -0.4426  0.2352  0.3699
 2421SOL    HW2 9737  -0.066   3.520   4.204  0.9796  1.6886  0.9788
 2421SOL    HW3 9738   0.007   3.480   4.078  0.5113  1.7875  0.6733
 2421SOL    MW4 9739  -0.005   3.473   4.164 -0.1290  0.6318  0.4902
 2422SOL     OW 9740   4.088   3.964   4.247 -0.3602  0.1540  0.1530
 2422SOL    HW2 9741   4.001   3.932   4.223  0.2192 -1.0776 -0.3618
 2422SOL    HW3 9742   4.148   3.905   4.203  0.7502  1.4616 -0.1117
 2422SOL    MW4 9743   4.084   3.952   4.238 -0.1373  0.1640  0.0501
 2423SOL     OW 9744   4.241   1.265   4.295 -0.0045  0.1264 -0.0122
 2423SOL    HW2 9745   4.232   1.356   4.268 -0.9998  0.3547  1.0571
 2423SOL    HW3 9746   4.324   1.236   4.257  1.0594  1.9185  0.8830
 2423SOL    MW4 9747   4.251   1.273   4.287  0.0048  0.3930  0.2465
 2424SOL     OW 9748   3.088   2.184   4.976 -0.2128 -0.1232 -0.2153
 2424SOL    HW2 9749   3.117   2.093   4.968 -0.3373 -0.1599 -0.2410
 2424SOL    HW3 9750   3.049   2.204   4.891 -1.4078 -0.4657  0.2500
 2424SOL    MW4 9751   3.087   2.174   4.964 -0.3867 -0.1731 -0.1569
 2425SOL     OW 9752   4.173   2.258   4.634 -0.0413  0.2741 -0.3086
 2425SOL    HW2 9753   4.131   2.304   4.708  0.1796 -0.2121  0.1218
 2425SOL    HW3 9754   4.123   2.286   4.558  0.2413  1.4196 -0.0781
 2425SOL    MW4 9755   4.161   2.268   4.634  0.0257  0.3610 -0.2217
 2426SOL     OW 9756   0.235   3.836   4.152  0.1144 -0.1834 -0.2951
 2426SOL    HW2 9757   0.230   3.763   4.214 -0.1839 -0.6336 -0.8435
 2426SOL    HW3 9758   0.309   3.888   4.183  0.4263 -0.8026  0.0149
 2426SOL    MW4 9759   0.244   3.833   4.164  0.1162 -0.3245 -0.3266
 2427SOL     OW 9760   1.824   4.632   4.551 -0.1879 -0.2962  1.0675
 2427SOL    HW2 9761   1.884   4.563   4.578 -0.1591  0.5270  3.1891
 2427SOL    HW3 9762   1.874   4.713   4.561 -0.5006  0.1090 -0.5807
 2427SOL    MW4 9763   1.838   4.634   4.556 -0.2253 -0.1341  1.1301
 2428SOL     OW 9764   0.894   0.148   4.284 -0.8010 -0.4056  0.7310
 2428SOL    HW2 9765   0.981   0.117   4.262 -0.5669  0.3597  0.5757
 2428SOL    HW3 9766   0.835   0.087   4.240 -0.3393 -0.0802 -0.3665
 2428SOL    MW4 9767   0.897   0.136   4.275 -0.7092 -0.2617  0.5655
 2429SOL     OW 9768   0.414   1.706   4.277  0.0560 -0.1098 -0.1629
 2429SOL    HW2 9769   0.395   1.674   4.365  1.3137  2.5190  1.1250
 2429SOL    HW3 9770   0.388   1.798   4.279  0.8843  0.1945 -2.2910
 2429SOL    MW4 9771   0.408   1.714   4.289  0.3313  0.2772 -0.2732
 2430SOL     OW 9772   1.349   1.688   4.282 -0.0340 -0.3159 -0.0155
 2430SOL    HW2 9773   1.415   1.622   4.262 -0.7494 -0.6356 -1.4026
 2430SOL    HW3 9774   1.268   1.653   4.243 -0.9731  0.1730  1.4343
 2430SOL    MW4 9775   1.347   1.674   4.274 -0.2522 -0.2936 -0.0072
 2431SOL     OW 9776   0.432   0.891   4.278  0.3279  0.3130 -0.5510
 2431SOL    HW2 9777   0.443   0.984   4.258 -0.5858  0.4266 -0.5143
 2431SOL    HW3 9778   0.511   0.850   4.243  1.3246  1.2674  0.5173
 2431SOL    MW4 9779   0.444   0.898   4.271  0.3388  0.4539 -0.4048
 2432SOL     OW 9780   1.986   2.878   4.537  0.2830 -0.0975  0.2658
 2432SOL    HW2 9781   1.917   2.881   4.603 -0.2716 -1.1344 -0.2579
 2432SOL    HW3 9782   2.044   2.950   4.559 -0.5979  0.3466  1.1261
 2432SOL    MW4 9783   1.985   2.888   4.548  0.0936 -0.1755  0.3104
 2433SOL     OW 9784   3.256   3.975   4.697  0.4591 -0.0600 -0.0471
 2433SOL    HW2 9785   3.349   3.999   4.690  0.3996  0.0497 -0.4910
 2433SOL    HW3 9786   3.210   4.059   4.691  0.3720 -0.0293  1.0511
 2433SOL    MW4 9787   3.262   3.989   4.695  0.4394 -0.0415  0.0396
 2434SOL     OW 9788   0.227   1.298   4.263 -0.2766 -0.5694 -0.0463
 2434SOL    HW2 9789   0.292   1.231   4.241  0.1556  0.2917 -1.4477
 2434SOL    HW3 9790   0.143   1.257   4.242  0.0207 -0.4704 -1.4746
 2434SOL    MW4 9791   0.225   1.283   4.257 -0.1803 -0.4427 -0.4196
 2435SOL     OW 9792   0.634   1.569   4.174  0.0914 -0.0278  0.2145
 2435SOL    HW2 9793   0.554   1.614   4.201  0.4480 -0.0696  1.3507
 2435SOL    HW3 9794   0.629   1.567   4.078 -1.1597  0.1643  0.2651
 2435SOL    MW4 9795   0.622   1.575   4.165 -0.0266 -0.0082  0.3710
 2436SOL     OW 9796   3.352   0.335   4.566 -0.2416 -0.0075  0.2878
 2436SOL    HW2 9797   3.371   0.386   4.487  0.1619 -0.5185  0.0481
 2436SOL    HW3 9798   3.438   0.309   4.598 -0.4373 -0.3892  0.5013
 2436SOL    MW4 9799   3.366   0.338   4.560 -0.2143 -0.1252  0.2837
 2437SOL     OW 9800   1.125   2.111   4.530  0.2244 -0.3537  0.1844
 2437SOL    HW2 9801   1.120   2.023   4.565 -1.8528  0.1837  1.3120
 2437SOL    HW3 9802   1.104   2.102   4.437 -0.1849 -1.0066  0.3461
 2437SOL    MW4 9803   1.122   2.098   4.522 -0.1037 -0.3691  0.3548
 2438SOL     OW 9804   0.882   1.676   4.309 -0.1765  0.0364  0.1519
 2438SOL    HW2 9805   0.887   1.652   4.401 -0.2668 -0.8510 -0.0699
 2438SOL    HW3 9806   0.792   1.656   4.283 -0.0552 -0.0472 -0.2121
 2438SOL    MW4 9807   0.871   1.670   4.318 -0.1723 -0.0916  0.0749
 2439SOL     OW 9808   0.702   2.348   4.126  0.4274  0.3316  0.0776
 2439SOL    HW2 9809   0.695   2.345   4.030  1.2846  0.7650 -0.0022
 2439SOL    HW3 9810   0.612   2.365   4.156 -0.1492 -1.4176 -0.5576
 2439SOL    MW4 9811   0.689   2.350   4.117  0.4644  0.1578 -0.0167
 2440SOL     OW 9812   0.247   2.326   4.122 -0.1745  0.1328  0.2844
 2440SOL    HW2 9813   0.304   2.252   4.102  0.0394  0.4745 -0.3779
 2440SOL    HW3 9814   0.305   2.392   4.159 -0.4474 -0.2134  1.3444
 2440SOL    MW4 9815   0.262   2.325   4.124 -0.1823  0.1323  0.3366
 2441SOL     OW 9816   0.494   2.706   4.123  0.2063  0.1249 -0.2172
 2441SOL    HW2 9817   0.486   2.693   4.028 -0.7900 -0.3950 -0.0712
 2441SOL    HW3 9818   0.425   2.768   4.145  1.0075  0.9270  0.0354
 2441SOL    MW4 9819   0.484   2.712   4.113  0.1806  0.1621 -0.1650
 2442SOL     OW 9820   0.686   2.849   4.263  0.0788 -0.4924  0.1412
 2442SOL    HW2 9821   0.765   2.818   4.219  0.2403  0.3526 -0.1765
 2442SOL    HW3 9822   0.615   2.800   4.221  0.0129  1.7870 -2.5716
 2442SOL    MW4 9823   0.687   2.839   4.252  0.0914 -0.0801 -0.2584
 2443SOL     OW 9824   3.069   0.804   4.789 -0.3000 -0.4077  0.5177
 2443SOL    HW2 9825   3.085   0.812   4.883 -0.3931  0.5354  0.4664
 2443SOL    HW3 9826   3.133   0.740   4.759  1.2561  0.9486  0.8493
 2443SOL    MW4 9827   3.080   0.797   4.798 -0.1070 -0.1043  0.5541
 2444SOL     OW 9828   1.593   2.859   4.202  0.2312 -0.0393 -0.2409
 2444SOL    HW2 9829   1.666   2.806   4.169  0.4911 -0.2643  0.6567
 2444SOL    HW3 9830   1.618   2.949   4.183  0.0735 -0.2047 -1.2311
 2444SOL    MW4 9831   1.606   2.863   4.195  0.2447 -0.0904 -0.2537
 2445SOL     OW 9832   0.443   3.469   4.163  0.0467 -0.1343 -0.0035
 2445SOL    HW2 9833   0.366   3.518   4.193 -0.1564 -0.4894  0.0515
 2445SOL    HW3 9834   0.445   3.483   4.069  0.3981  0.5682  0.1035
 2445SOL    MW4 9835   0.433   3.477   4.155  0.0662 -0.0882  0.0181
 2446SOL     OW 9836   0.476   4.268   4.148  0.1447 -0.1488 -0.0356
 2446SOL    HW2 9837   0.395   4.308   4.179  0.0951 -1.0317  0.9946
 2446SOL    HW3 9838   0.459   4.249   4.055 -0.3610  0.8287 -0.1474
 2446SOL    MW4 9839   0.463   4.271   4.140  0.0714 -0.1364  0.0858
 2447SOL     OW 9840   1.150   3.145   4.149 -0.0794  0.0339  0.3842
 2447SOL    HW2 9841   1.073   3.190   4.184  0.4508 -0.1242  1.7591
 2447SOL    HW3 9842   1.224   3.196   4.180  0.4395 -0.6901  0.3483
 2447SOL    MW4 9843   1.150   3.158   4.157  0.0590 -0.0823  0.5608
 2448SOL     OW 9844   1.466   1.941   4.699  0.3422 -0.0086 -0.0394
 2448SOL    HW2 9845   1.376   1.927   4.729  0.9440 -0.3514  1.6927
 2448SOL    HW3 9846   1.509   1.856   4.712  0.4236 -0.4428 -2.7826
 2448SOL    MW4 9847   1.460   1.928   4.705  0.4324 -0.1111 -0.1731
 2449SOL     OW 9848   2.701   0.669   4.608 -0.0489  0.1846  0.1181
 2449SOL    HW2 9849   2.726   0.725   4.534  0.0326  0.0962  0.0793
 2449SOL    HW3 9850   2.711   0.725   4.684 -2.5984  1.1006 -0.1558
 2449SOL    MW4 9851   2.706   0.684   4.608 -0.3746  0.2937  0.0768
 2450SOL     OW 9852   0.266   4.428   4.247 -0.1361  0.2044  0.2042
 2450SOL    HW2 9853   0.266   4.445   4.341  0.6030 -1.4876  0.5414
 2450SOL    HW3 9854   0.185   4.379   4.232 -0.8276  1.4776 -0.2465
 2450SOL    MW4 9855   0.255   4.424   4.258 -0.1298  0.1488  0.1898
 2451SOL     OW 9856   0.202   0.519   4.275  0.0824 -0.0513 -0.1855
 2451SOL    HW2 9857   0.246   0.528   4.360  0.4220 -0.0100 -0.3676
 2451SOL    HW3 9858   0.268   0.482   4.217  0.7185  2.5211 -1.1554
 2451SOL    MW4 9859   0.217   0.516   4.279  0.2111  0.2936 -0.3381
 2452SOL     OW 9860   4.128   4.559   4.667 -0.5208  0.1650 -0.0085
 2452SOL    HW2 9861   4.081   4.476   4.656  1.2793 -1.0020  0.8755
 2452SOL    HW3 9862   4.220   4.536   4.653 -0.2297  2.5082 -2.2568
 2452SOL    MW4 9863   4.134   4.545   4.664 -0.2441  0.3200 -0.1888
 2453SOL     OW 9864   0.665   2.113   4.261  0.4013  0.0509  0.0640
 2453SOL    HW2 9865   0.727   2.041   4.259  0.5523  0.1643  0.6023
 2453SOL    HW3 9866   0.699   2.176   4.197  0.8169  0.0916  0.3213
 2453SOL    MW4 9867   0.677   2.112   4.253  0.4761  0.0713  0.1683
 2454SOL     OW 9868   4.396   4.500   4.606 -0.1726 -0.5537 -0.2506
 2454SOL    HW2 9869   4.374   4.457   4.523  0.8858 -1.2815 -0.1570
 2454SOL    HW3 9870   4.469   4.450   4.640  1.2567  1.4700 -0.2530
 2454SOL    MW4 9871   4.402   4.488   4.599  0.1550 -0.3824 -0.2389
 2455SOL     OW 9872   2.855   1.724   4.534 -0.0813  0.3347 -0.1269
 2455SOL    HW2 9873   2.899   1.650   4.577 -1.1327  0.1933  0.7293
 2455SOL    HW3 9874   2.824   1.688   4.451  0.6467  0.2071 -0.3540
 2455SOL    MW4 9875   2.857   1.709   4.529 -0.1237  0.2993 -0.0439
 2456SOL     OW 9876   0.002   0.344   4.230 -0.3660 -0.2190  0.3800
 2456SOL    HW2 9877   0.015   0.344   4.135 -0.6055 -1.6176  0.3431
 2456SOL    HW3 9878   0.069   0.403   4.264 -0.5570  0.6332 -0.6907
 2456SOL    MW4 9879   0.012   0.352   4.222 -0.4230 -0.2911  0.2341
 2457SOL     OW 9880   0.891   1.231   4.146  0.1567  0.3577  0.1852
 2457SOL    HW2 9881   0.874   1.143   4.180 -1.8009 -0.1420 -2.0128
 2457SOL    HW3 9882   0.810   1.279   4.162  0.4452  1.1303 -0.6550
 2457SOL    MW4 9883   0.878   1.226   4.153 -0.0635  0.3936 -0.2155
 2458SOL     OW 9884   1.129   1.312   4.306  0.0283 -0.0340  0.3771
 2458SOL    HW2 9885   1.044   1.284   4.272  0.4763 -0.4359 -0.4500
 2458SOL    HW3 9886   1.111   1.341   4.395 -0.9257 -0.3926  0.3145
 2458SOL    MW4 9887   1.115   1.312   4.313 -0.0385 -0.1345  0.2599
 2459SOL     OW 9888   1.121   1.571   4.185 -0.0019  0.2018 -0.0312
 2459SOL    HW2 9889   1.031   1.588   4.213 -0.2615  0.0457 -0.7500
 2459SOL    HW3 9890   1.142   1.485   4.223 -0.1576  0.2376  0.1353
 2459SOL    MW4 9891   1.112   1.562   4.194 -0.0569  0.1861 -0.1044
 2460SOL     OW 9892   0.880   1.938   4.174 -0.4580 -0.0021  0.8145
 2460SOL    HW2 9893   0.905   1.936   4.082 -0.1016  1.3031  0.8710
 2460SOL    HW3 9894   0.900   1.851   4.207  0.8230 -0.0072  0.0218
 2460SOL    MW4 9895   0.886   1.927   4.166 -0.2419  0.1694  0.7172
 2461SOL     OW 9896   0.862   1.547   4.564  0.2560 -0.2722 -0.0439
 2461SOL    HW2 9897   0.786   1.488   4.563 -0.6686  0.9186 -0.4720
 2461SOL    HW3 9898   0.847   1.603   4.641  1.6503 -1.2506  0.9653
 2461SOL    MW4 9899   0.850   1.546   4.574  0.3180 -0.2441  0.0329
 2462SOL     OW 9900   1.147   2.335   4.156 -0.0128 -0.1223 -0.0828
 2462SOL    HW2 9901   1.231   2.361   4.193 -0.1836  0.4611 -0.0967
 2462SOL    HW3 9902   1.089   2.409   4.174 -0.4222 -0.3586 -0.4206
 2462SOL    MW4 9903   1.150   2.348   4.164 -0.0893 -0.0763 -0.1292
 2463SOL     OW 9904   1.397   2.469   4.238 -0.5340  0.0943 -0.3453
 2463SOL    HW2 9905   1.475   2.430   4.198 -0.8503  0.8357 -1.7266
 2463SOL    HW3 9906   1.402   2.562   4.214 -0.9486  0.4782  1.0199
 2463SOL    MW4 9907   1.408   2.476   4.229 -0.6305  0.2427 -0.3476
 2464SOL     OW 9908   3.117   0.111   4.240 -0.0599 -0.5809 -0.0753
 2464SOL    HW2 9909   3.205   0.074   4.247 -0.8393 -2.0372  2.2161
 2464SOL    HW3 9910   3.096   0.141   4.328 -0.6863  2.6080 -1.2198
 2464SOL    MW4 9911   3.126   0.110   4.252 -0.2451 -0.3523  0.0758
 2465SOL     OW 9912   0.897   2.768   4.109  0.1085 -0.4427  0.1483
 2465SOL    HW2 9913   0.905   2.690   4.164 -0.8684  0.2359  1.2692
 2465SOL    HW3 9914   0.978   2.817   4.126  0.7360 -1.2207 -0.5817
 2465SOL    MW4 9915   0.909   2.764   4.119  0.0624 -0.4556  0.2003
 2466SOL     OW 9916   1.374   4.210   4.157 -0.3323 -0.2715  0.2063
 2466SOL    HW2 9917   1.353   4.232   4.066  0.6169 -0.9755 -0.1819
 2466SOL    HW3 9918   1.441   4.273   4.182  0.2671 -0.8458  0.0386
 2466SOL    MW4 9919   1.380   4.221   4.148 -0.1283 -0.4401  0.1326
 2467SOL     OW 9920   1.167   3.119   3.872 -0.4553  0.0960 -0.3607
 2467SOL    HW2 9921   1.154   3.125   3.966  1.7811  2.3796 -0.1235
 2467SOL    HW3 9922   1.092   3.166   3.834 -1.3127 -0.7557  0.2752
 2467SOL    MW4 9923   1.155   3.126   3.879 -0.2733  0.2849 -0.2453
 2468SOL     OW 9924   0.682   3.105   4.115 -0.0148 -0.1556  0.5958
 2468SOL    HW2 9925   0.608   3.147   4.159  0.3010 -0.0743  1.0492
 2468SOL    HW3 9926   0.695   3.023   4.162 -0.8458 -0.9319 -0.4992
 2468SOL    MW4 9927   0.674   3.100   4.127 -0.0828 -0.2472  0.5112
 2469SOL     OW 9928   0.882   3.482   4.156  0.1124  0.0534 -0.1598
 2469SOL    HW2 9929   0.882   3.390   4.183 -1.5587 -0.1151 -0.6873
 2469SOL    HW3 9930   0.890   3.479   4.061 -1.1962  0.3979 -0.2932
 2469SOL    MW4 9931   0.883   3.470   4.147 -0.2807  0.0763 -0.2470
 2470SOL     OW 9932   1.122   3.621   4.265 -0.0542  0.6317 -0.0796
 2470SOL    HW2 9933   1.202   3.591   4.222  0.5726  2.0197  0.0826
 2470SOL    HW3 9934   1.053   3.564   4.232  0.8871 -0.1057 -0.7795
 2470SOL    MW4 9935   1.124   3.610   4.255  0.1526  0.7176 -0.1512
 2471SOL     OW 9936   0.032   0.907   4.244 -0.0967  0.0164 -0.6050
 2471SOL    HW2 9937  -0.036   0.841   4.229  0.9223 -0.8251 -1.6009
 2471SOL    HW3 9938   0.109   0.873   4.198  1.3633  0.3648  1.5390
 2471SOL    MW4 9939   0.033   0.894   4.236  0.2303 -0.0486 -0.4530
 2472SOL     OW 9940   1.359   3.194   4.740 -0.3645 -0.3615  0.4694
 2472SOL    HW2 9941   1.441   3.147   4.726 -0.3889 -0.3130  0.1602
 2472SOL    HW3 9942   1.370   3.237   4.825  0.4090  0.6447 -0.1346
 2472SOL    MW4 9943   1.371   3.193   4.750 -0.2657 -0.2224  0.3490
 2473SOL     OW 9944   1.140   4.660   4.186  0.0261  0.1263 -0.0181
 2473SOL    HW2 9945   1.148   4.573   4.226 -1.0331  0.7190  1.5213
 2473SOL    HW3 9946   1.129   4.643   4.093  1.5191 -1.3312  0.0533
 2473SOL    MW4 9947   1.140   4.646   4.179  0.0834  0.0119  0.1950
 2474SOL     OW 9948   0.926   4.235   4.147  0.0157  0.4047  0.2999
 2474SOL    HW2 9949   0.925   4.148   4.188 -1.0701  0.4439  0.3606
 2474SOL    HW3 9950   0.856   4.283   4.191 -0.7224  0.6626 -1.1333
 2474SOL    MW4 9951   0.917   4.229   4.158 -0.2250  0.4435  0.1192
 2475SOL     OW 9952   3.881   2.789   4.242  0.7088  0.1894 -0.3813
 2475SOL    HW2 9953   3.871   2.881   4.217  1.9094  0.6583  0.7881
 2475SOL    HW3 9954   3.797   2.749   4.219  0.4007  1.4275 -1.4953
 2475SOL    MW4 9955   3.868   2.796   4.236  0.8264  0.4144 -0.3738
 2476SOL     OW 9956   1.121   2.088   4.263 -0.0749  0.0301  0.4376
 2476SOL    HW2 9957   1.115   2.175   4.224  0.8778  0.1799  0.6249
 2476SOL    HW3 9958   1.051   2.038   4.220  1.8501 -0.2351 -2.5447
 2476SOL    MW4 9959   1.111   2.093   4.252  0.3048  0.0145  0.0687
 2477SOL     OW 9960   0.520   0.167   4.555 -0.3219 -0.3279 -0.0864
 2477SOL    HW2 9961   0.522   0.074   4.578 -1.9505 -0.2953  0.2702
 2477SOL    HW3 9962   0.455   0.205   4.614 -1.5828  0.5334 -1.9805
 2477SOL    MW4 9963   0.512   0.160   4.566 -0.7032 -0.2100 -0.2894
 2478SOL     OW 9964   1.119   3.887   4.164 -0.1164 -0.8123 -0.1019
 2478SOL    HW2 9965   1.117   3.799   4.201  0.4601  0.1462  2.3155
 2478SOL    HW3 9966   1.182   3.934   4.217 -0.9205  1.2650 -0.9194
 2478SOL    MW4 9967   1.127   3.882   4.176 -0.1465 -0.4117  0.1092
 2479SOL     OW 9968   1.575   0.762   3.839 -0.1135  0.1304  0.2203
 2479SOL    HW2 9969   1.640   0.830   3.823 -0.2548 -0.0742 -1.2502
 2479SOL    HW3 9970   1.490   0.804   3.822 -0.4143  0.4470  2.2968
 2479SOL    MW4 9971   1.572   0.777   3.835 -0.1718  0.1451  0.3004
 2480SOL     OW 9972   0.612   2.899   4.535  0.1360  0.1009  0.2527
 2480SOL    HW2 9973   0.644   2.819   4.576  0.1885  0.1764  0.3588
 2480SOL    HW3 9974   0.625   2.884   4.441 -1.3655 -0.6631  0.1653
 2480SOL    MW4 9975   0.618   2.887   4.528 -0.0552  0.0098  0.2551
 2481SOL     OW 9976   1.349   0.897   4.293 -0.2468  0.3723 -0.0797
 2481SOL    HW2 9977   1.326   0.979   4.249  1.3137  1.4335  1.0220
 2481SOL    HW3 9978   1.423   0.864   4.242 -0.9554 -0.4334 -0.5982
 2481SOL    MW4 9979   1.356   0.904   4.280 -0.1345  0.4060 -0.0024
 2482SOL     OW 9980   2.008   4.425   4.594  0.0915 -0.3060 -0.1379
 2482SOL    HW2 9981   2.086   4.471   4.564 -1.9080  3.6496  0.4188
 2482SOL    HW3 9982   2.029   4.396   4.683  1.9830 -2.0363 -1.1172
 2482SOL    MW4 9983   2.021   4.427   4.602  0.0770 -0.0129 -0.1936
 2483SOL     OW 9984   2.036   1.266   4.284 -0.8036 -0.1169 -0.4628
 2483SOL    HW2 9985   2.041   1.361   4.273 -0.3318 -0.1719 -0.7315
 2483SOL    HW3 9986   1.946   1.244   4.260 -0.7358  0.1860 -0.9953
 2483SOL    MW4 9987   2.025   1.275   4.280 -0.7324 -0.0842 -0.5684
 2484SOL     OW 9988   1.801   1.937   4.240 -0.1897  0.3109 -0.0445
 2484SOL    HW2 9989   1.872   1.981   4.288 -0.1216  2.1310 -1.7411
 2484SOL    HW3 9990   1.725   1.994   4.255 -0.3375  0.4955 -1.4559
 2484SOL    MW4 9991   1.801   1.951   4.249 -0.2003  0.5755 -0.4549
 2485SOL     OW 9992   1.361   1.962   4.190 -0.2692  0.0338  0.1860
 2485SOL    HW2 9993   1.287   1.994   4.241 -1.3267 -1.0538 -0.6475
 2485SOL    HW3 9994   1.360   1.867   4.203  0.3969 -0.0865 -0.6221
 2485SOL    MW4 9995   1.351   1.954   4.199 -0.3209 -0.1256 -0.0310
 2486SOL     OW 9996   1.999   3.935   4.189 -0.3122 -0.2992  0.2958
 2486SOL    HW2 9997   1.999   3.947   4.094 -0.0658  1.3185  0.4853
 2486SOL    HW3 9998   1.911   3.961   4.216  0.0709  0.6528  0.6604
 2486SOL    MW4 9999   1.987   3.940   4.180 -0.2292  0.0398  0.3686
 2487SOL     OW10000   1.740   2.256   4.597 -0.1222  0.3431  0.4212
 2487SOL    HW210001   1.797   2.332   4.587  0.2540 -0.0631 -0.5646
 2487SOL    HW310002   1.799   2.181   4.593 -0.6658 -0.0601 -0.1565
 2487SOL    MW410003   1.755   2.256   4.595 -0.1442  0.2365  0.2151
 2488SOL     OW10004   1.639   2.351   4.140 -0.2249 -0.1287 -0.0059
 2488SOL    HW210005   1.626   2.341   4.046 -1.2628  0.2939  0.0883
 2488SOL    HW310006   1.633   2.262   4.175 -1.7927 -0.0736 -0.1059
 2488SOL    MW410007   1.637   2.338   4.132 -0.5686 -0.0653 -0.0072
 2489SOL     OW10008   1.151   2.879   4.182 -0.5021  0.1513 -0.3075
 2489SOL    HW210009   1.156   2.973   4.165  0.9654  0.3618  1.1708
 2489SOL    HW310010   1.175   2.869   4.274 -0.7598 -1.6555 -0.4092
 2489SOL    MW410011   1.155   2.890   4.192 -0.3425 -0.0594 -0.1259
 2490SOL     OW10012   1.818   2.720   4.101 -0.1118 -0.7108 -0.1695
 2490SOL    HW210013   1.877   2.765   4.162 -1.3506  0.6972 -0.0086
 2490SOL    HW310014   1.798   2.637   4.145 -0.4226 -0.0199  1.0056
 2490SOL    MW410015   1.823   2.715   4.115 -0.3164 -0.4342  0.0062
 2491SOL     OW10016   1.646   3.141   4.199 -0.1972  0.2706 -0.3835
 2491SOL    HW210017   1.566   3.181   4.234 -0.0966  0.1721 -0.0420
 2491SOL    HW310018   1.716   3.176   4.254  0.0437  0.6722 -0.9357
 2491SOL    MW410019   1.644   3.151   4.211 -0.1522  0.3104 -0.4115
 2492SOL     OW10020   1.372   3.257   4.264  0.1783 -0.0372  0.0769
 2492SOL    HW210021   1.368   3.270   4.359  0.8733  0.4294  0.0548
 2492SOL    HW310022   1.376   3.346   4.228 -0.8038 -0.1964 -0.4291
 2492SOL    MW410023   1.372   3.271   4.272  0.1404  0.0033  0.0076
 2493SOL     OW10024   1.551   3.949   4.139  0.4680  0.3389 -0.1622
 2493SOL    HW210025   1.480   4.004   4.172  0.8374  1.7276 -1.6463
 2493SOL    HW310026   1.631   3.998   4.157  0.8779 -0.1368 -0.6465
 2493SOL    MW410027   1.552   3.963   4.146  0.5709  0.4592 -0.4220
 2494SOL     OW10028   3.100   0.181   4.501 -0.1731  0.1833  0.2288
 2494SOL    HW210029   3.167   0.246   4.518  0.3395 -0.5683  1.1394
 2494SOL    HW310030   3.028   0.205   4.559 -0.1829  0.2249  0.1991
 2494SOL    MW410031   3.099   0.193   4.510 -0.1068  0.0896  0.3448
 2495SOL     OW10032   1.147   4.380   4.247  0.0238  0.0875  0.1559
 2495SOL    HW210033   1.224   4.324   4.234  0.0834  0.1515  0.2328
 2495SOL    HW310034   1.077   4.337   4.198  0.5260  0.9433 -1.3910
 2495SOL    MW410035   1.148   4.367   4.239  0.0979  0.2093 -0.0381
 2496SOL     OW10036   1.358   3.375   4.526  0.5690 -0.1066 -0.5284
 2496SOL    HW210037   1.353   3.310   4.596  2.2053  0.7315  0.3999
 2496SOL    HW310038   1.291   3.440   4.550 -0.6650 -1.1294 -1.1486
 2496SOL    MW410039   1.348   3.375   4.538  0.6220 -0.1309 -0.4878
 2497SOL     OW10040   0.908   1.100   4.525 -0.2553 -0.2137  0.0586
 2497SOL    HW210041   0.891   1.056   4.442  1.7103 -0.4218 -0.2549
 2497SOL    HW310042   0.896   1.032   4.592  0.4318 -0.6190 -0.2330
 2497SOL    MW410043   0.904   1.086   4.523  0.0947 -0.2946 -0.0210
 2498SOL     OW10044   3.261   3.770   4.518  0.5443 -0.1669  0.1914
 2498SOL    HW210045   3.266   3.835   4.589  0.7689  0.6105 -0.5241
 2498SOL    HW310046   3.200   3.704   4.551  1.1129 -0.1218  1.3541
 2498SOL    MW410047   3.253   3.770   4.532  0.6490 -0.0584  0.2503
 2499SOL     OW10048   1.766   4.117   4.226  0.5670  0.0586  0.2605
 2499SOL    HW210049   1.802   4.129   4.314  2.5987  0.7851 -0.6464
 2499SOL    HW310050   1.758   4.205   4.190 -1.6251 -0.1238  0.2118
 2499SOL    MW410051   1.769   4.130   4.233  0.5459  0.1307  0.1345
 2500SOL     OW10052   4.202   1.962   4.573  0.0375  0.2725 -0.1540
 2500SOL    HW210053   4.123   1.958   4.519  0.9397  0.0535 -1.4977
 2500SOL    HW310054   4.196   2.047   4.617 -2.1214 -0.7708  1.6539
 2500SOL    MW410055   4.191   1.973   4.571 -0.1283  0.1060 -0.0925
 2501SOL     OW10056   1.545   3.862   4.455 -0.7487 -0.1660  0.1673
 2501SOL    HW210057   1.630   3.907   4.459 -0.6125 -0.2872 -1.2650
 2501SOL    HW310058   1.566   3.772   4.481 -0.2594 -0.4338 -1.1373
 2501SOL    MW410059   1.559   3.856   4.459 -0.6661 -0.2172 -0.1941
 2502SOL     OW10060   1.918   0.228   4.669  0.4824 -0.1592  0.1980
 2502SOL    HW210061   1.886   0.203   4.755  0.0375 -1.6402 -0.3742
 2502SOL    HW310062   1.840   0.256   4.621  0.9359  2.1011  0.7304
 2502SOL    MW410063   1.904   0.228   4.674  0.4834 -0.0564  0.1922
 2503SOL     OW10064   1.878   2.020   4.589  0.2407 -0.1435  0.0915
 2503SOL    HW210065   1.930   2.063   4.521 -0.8789  0.4796 -0.3867
 2503SOL    HW310066   1.940   2.003   4.660  1.5026 -1.1163 -1.2066
 2503SOL    MW410067   1.893   2.023   4.590  0.2595 -0.1898 -0.1426
 2504SOL     OW10068   1.808   0.908   4.237 -0.3023  0.3920  0.0863
 2504SOL    HW210069   1.864   0.840   4.199 -0.4205  0.4697 -0.2344
 2504SOL    HW310070   1.781   0.873   4.322 -1.6264 -0.6398 -0.7426
 2504SOL    MW410071   1.812   0.894   4.243 -0.4927  0.2661 -0.0653
 2505SOL     OW10072   1.806   1.173   4.146 -0.1302 -0.0088  0.2113
 2505SOL    HW210073   1.718   1.196   4.177 -0.1988 -0.1440  0.1126
 2505SOL    HW310074   1.821   1.084   4.178 -0.0515 -0.0077  0.1780
 2505SOL    MW410075   1.797   1.165   4.154 -0.1290 -0.0266  0.1936
 2506SOL     OW10076   3.065   3.549   4.533  0.4344 -0.0880  0.1373
 2506SOL    HW210077   3.062   3.505   4.448 -1.8083 -0.8427  0.5802
 2506SOL    HW310078   3.095   3.481   4.594 -0.4481 -0.2714  0.3726
 2506SOL    MW410079   3.069   3.534   4.530  0.0219 -0.2117  0.2265
 2507SOL     OW10080   2.008   1.551   4.209  0.1172 -0.4797 -0.0691
 2507SOL    HW210081   1.929   1.605   4.218  0.1901 -0.2585 -0.7010
 2507SOL    HW310082   2.015   1.534   4.115  0.9826 -0.2566 -0.0546
 2507SOL    MW410083   1.999   1.556   4.198  0.2410 -0.4212 -0.1497
 2508SOL     OW10084   2.876   0.299   4.659  0.1881 -0.0230 -0.1717
 2508SOL    HW210085   2.903   0.289   4.751  2.2507 -0.3169 -0.7944
 2508SOL    HW310086   2.918   0.381   4.631  0.8970 -0.7637 -1.3071
 2508SOL    MW410087   2.885   0.309   4.668  0.5536 -0.1595 -0.4034
 2509SOL     OW10088   0.380   2.067   4.595 -0.1216 -0.0420  0.2102
 2509SOL    HW210089   0.345   2.019   4.520 -0.6658 -1.6573  1.4667
 2509SOL    HW310090   0.303   2.099   4.641  0.2032  0.8079  0.1584
 2509SOL    MW410091   0.366   2.065   4.592 -0.1505 -0.1431  0.3691
 2510SOL     OW10092   1.325   0.733   4.600 -0.0149 -0.2392 -0.2465
 2510SOL    HW210093   1.348   0.826   4.602 -0.2659 -0.1990  1.5295
 2510SOL    HW310094   1.229   0.732   4.595 -0.0137 -0.4070 -0.2330
 2510SOL    MW410095   1.315   0.745   4.599 -0.0478 -0.2560 -0.0105
 2511SOL     OW10096   3.182   0.871   4.271  0.0966  0.1856  0.7173
 2511SOL    HW210097   3.248   0.885   4.338 -0.2043  1.4327  0.7788
 2511SOL    HW310098   3.166   0.958   4.234  1.0549 -0.6354 -1.7432
 2511SOL    MW410099   3.188   0.884   4.275  0.1836  0.2419  0.4005
 2512SOL     OW10100   4.171   1.686   4.679 -0.0224  0.1226  0.0091
 2512SOL    HW210101   4.104   1.636   4.633  0.3019 -0.0456 -0.2813
 2512SOL    HW310102   4.164   1.775   4.644 -0.2929  0.1769  0.1979
 2512SOL    MW410103   4.161   1.692   4.669 -0.0157  0.1076 -0.0038
 2513SOL     OW10104   1.366   2.725   4.113  0.3461 -0.1549 -0.6427
 2513SOL    HW210105   1.279   2.762   4.125  0.1260 -1.1061  0.8823
 2513SOL    HW310106   1.424   2.789   4.156  0.2097 -0.3582 -0.1438
 2513SOL    MW410107   1.362   2.739   4.121  0.2990 -0.3071 -0.3757
 2514SOL     OW10108   2.485   2.024   4.565 -0.1142 -0.4491  0.0195
 2514SOL    HW210109   2.442   2.065   4.640 -0.4816 -0.5268 -0.1510
 2514SOL    HW310110   2.515   1.940   4.598  0.3260 -0.1992  0.2690
 2514SOL    MW410111   2.483   2.019   4.579 -0.1047 -0.4265  0.0296
 2515SOL     OW10112   2.048   3.122   4.154 -0.2251 -0.3926  0.5114
 2515SOL    HW210113   2.138   3.146   4.175 -0.4793  0.3502  0.7583
 2515SOL    HW310114   2.046   3.121   4.058 -0.5997  2.1498  0.4518
 2515SOL    MW410115   2.059   3.125   4.144 -0.3080  0.0408  0.5364
 2516SOL     OW10116   1.882   3.296   4.336  0.0403  0.2790  0.1658
 2516SOL    HW210117   1.844   3.373   4.294  0.8340  1.5957  1.8060
 2516SOL    HW310118   1.936   3.256   4.267 -0.2749  1.2443 -0.6637
 2516SOL    MW410119   1.884   3.301   4.321  0.1034  0.5801  0.2728
 2517SOL     OW10120   1.814   3.519   4.173  0.2293  0.0864 -0.1268
 2517SOL    HW210121   1.737   3.573   4.191  0.0850  0.1248 -0.8810
 2517SOL    HW310122   1.820   3.515   4.078  1.3829  0.4036 -0.0823
 2517SOL    MW410123   1.805   3.526   4.163  0.3624  0.1335 -0.2203
 2518SOL     OW10124   1.322   1.132   4.182  0.3924 -0.2044 -0.2983
 2518SOL    HW210125   1.264   1.200   4.216  0.5947 -0.6836  1.0176
 2518SOL    HW310126   1.329   1.152   4.088 -1.5135  0.1342 -0.3887
 2518SOL    MW410127   1.315   1.144   4.174  0.1676 -0.2229 -0.1369
 2519SOL     OW10128   1.312   3.987   4.340  0.3418  0.0071 -0.6342
 2519SOL    HW210129   1.388   3.942   4.376  0.0377  0.5069  0.6830
 2519SOL    HW310130   1.347   4.067   4.300  0.6785 -0.5337 -1.4268
 2519SOL    MW410131   1.326   3.992   4.340  0.3462  0.0014 -0.5651
 2520SOL     OW10132   2.700   3.671   4.506  0.1747 -0.2510  0.4299
 2520SOL    HW210133   2.780   3.703   4.547 -0.5755  1.3299  0.6972
 2520SOL    HW310134   2.632   3.683   4.572 -0.9138  1.6670 -0.9782
 2520SOL    MW410135   2.701   3.677   4.520 -0.0677  0.2108  0.2789
 2521SOL     OW10136   0.161   4.106   4.579  0.2052 -0.0825 -0.6480
 2521SOL    HW210137   0.248   4.070   4.559 -0.2115 -1.5718  0.2228
 2521SOL    HW310138   0.099   4.043   4.542 -0.5228  0.1821  0.1115
 2521SOL    MW410139   0.165   4.093   4.572  0.0542 -0.2441 -0.4330
 2522SOL     OW10140   3.355   3.354   4.597 -0.0286 -0.3420  0.1058
 2522SOL    HW210141   3.284   3.294   4.570  1.0995 -1.4716 -0.4368
 2522SOL    HW310142   3.423   3.296   4.632  0.3897  0.7794  1.1826
 2522SOL    MW410143   3.355   3.338   4.598  0.1757 -0.3431  0.1760
 2523SOL     OW10144   4.282   2.805   4.229 -0.2516  0.3208 -0.2831
 2523SOL    HW210145   4.372   2.778   4.208  0.2600  1.3775  0.5551
 2523SOL    HW310146   4.285   2.900   4.230 -1.3173  0.3542  0.0726
 2523SOL    MW410147   4.294   2.814   4.226 -0.3242  0.4647 -0.1254
 2524SOL     OW10148   2.972   2.284   4.731  0.4782  0.1457  0.2118
 2524SOL    HW210149   2.904   2.253   4.670  0.5889  1.7787 -0.7659
 2524SOL    HW310150   2.933   2.361   4.773  1.1883  0.2459  0.6914
 2524SOL    MW410151   2.958   2.290   4.728  0.5865  0.3743  0.1464
 2525SOL     OW10152   2.733   0.376   4.194 -0.1391  0.0223 -0.1939
 2525SOL    HW210153   2.645   0.408   4.214 -0.4623 -1.2699  0.5208
 2525SOL    HW310154   2.731   0.358   4.100 -1.2049 -1.5994  0.1022
 2525SOL    MW410155   2.721   0.378   4.184 -0.3223 -0.3621 -0.0606
 2526SOL     OW10156   2.413   0.722   4.210  0.6379 -0.0772 -0.4431
 2526SOL    HW210157   2.430   0.743   4.118  1.1545 -1.3981 -0.6499
 2526SOL    HW310158   2.456   0.638   4.224  0.6680  0.1758  1.0457
 2526SOL    MW410159   2.421   0.714   4.200  0.7102 -0.2181 -0.2737
 2527SOL     OW10160   2.145   0.652   4.269 -0.0523  0.2435 -0.4856
 2527SOL    HW210161   2.232   0.679   4.239 -0.0134  0.4689 -0.1740
 2527SOL    HW310162   2.129   0.705   4.347  0.1648 -0.8728  0.3294
 2527SOL    MW410163   2.154   0.663   4.275 -0.0186  0.1260 -0.3371
 2528SOL     OW10164   2.256   0.584   4.683 -0.2167  0.4675  0.2851
 2528SOL    HW210165   2.221   0.500   4.655 -0.3303  0.8727 -0.8315
 2528SOL    HW310166   2.263   0.577   4.778 -1.9017 -0.1757  0.3803
 2528SOL    MW410167   2.252   0.572   4.692 -0.4542  0.4361  0.1507
 2529SOL     OW10168   0.673   4.090   4.662 -0.3754  0.3497 -0.2167
 2529SOL    HW210169   0.728   4.029   4.614  0.0862  1.3476 -0.9759
 2529SOL    HW310170   0.653   4.045   4.744 -0.1379 -0.8552 -0.8177
 2529SOL    MW410171   0.678   4.076   4.667 -0.2832  0.3219 -0.3963
 2530SOL     OW10172   2.797   0.847   4.418  0.1859 -0.0483 -0.0149
 2530SOL    HW210173   2.845   0.814   4.342 -0.6897  3.3062 -2.1137
 2530SOL    HW310174   2.706   0.851   4.389 -0.3599  0.0024  1.6671
 2530SOL    MW410175   2.792   0.843   4.404 -0.0017  0.4010 -0.0696
 2531SOL     OW10176   2.274   1.941   4.202 -0.4318 -0.2550 -0.1355
 2531SOL    HW210177   2.254   1.859   4.246  1.6753 -0.1229  1.1112
 2531SOL    HW310178   2.366   1.958   4.222 -0.5303  1.8451 -1.2861
 2531SOL    MW410179   2.283   1.933   4.211 -0.1667  0.0396 -0.1230
 2532SOL     OW10180   2.498   1.317   4.298  0.3642 -0.5154 -0.1478
 2532SOL    HW210181   2.488   1.402   4.253  1.3795 -0.5384 -0.4249
 2532SOL    HW310182   2.523   1.340   4.388  1.0599 -0.5244 -0.3358
 2532SOL    MW410183   2.500   1.332   4.304  0.5898 -0.5195 -0.2089
 2533SOL     OW10184   2.980   3.796   4.135 -0.0544 -0.0451  0.0981
 2533SOL    HW210185   2.895   3.771   4.172  0.6484 -0.5668  1.3947
 2533SOL    HW310186   3.029   3.714   4.129  0.8347  0.4280  0.6476
 2533SOL    MW410187   2.975   3.782   4.139  0.1557 -0.0515  0.3419
 2534SOL     OW10188   1.580   3.581   4.485  0.1090  0.0862 -0.0273
 2534SOL    HW210189   1.501   3.534   4.509  0.1924  0.3580  0.7878
 2534SOL    HW310190   1.642   3.563   4.556  0.5288  0.4806 -0.2866
 2534SOL    MW410191   1.578   3.572   4.497  0.1755  0.1738  0.0458
 2535SOL     OW10192   2.280   2.443   4.145 -0.4841  0.1937  0.0063
 2535SOL    HW210193   2.255   2.536   4.140 -1.2790 -0.0759 -1.2033
 2535SOL    HW310194   2.201   2.400   4.178  0.5922  0.2212  2.7400
 2535SOL    MW410195   2.266   2.450   4.149 -0.4470  0.1616  0.2079
 2536SOL     OW10196   2.789   4.238   4.379 -0.3269 -0.2993 -0.2620
 2536SOL    HW210197   2.864   4.295   4.363  1.0609 -1.4955  1.6220
 2536SOL    HW310198   2.826   4.165   4.430 -2.8944 -0.5707  1.2795
 2536SOL    MW410199   2.804   4.236   4.384 -0.4826 -0.4930  0.1903
 2537SOL     OW10200   3.628   2.833   4.589 -0.1447 -0.0096 -0.2958
 2537SOL    HW210201   3.724   2.837   4.582 -0.0844  0.0207  0.4633
 2537SOL    HW310202   3.612   2.770   4.659 -0.6401  1.1194  0.6211
 2537SOL    MW410203   3.639   2.825   4.597 -0.2022  0.1435 -0.0744
 2538SOL     OW10204   0.292   3.515   4.582 -0.1131 -0.0982  0.2081
 2538SOL    HW210205   0.326   3.431   4.552 -1.2151 -0.9734  1.3715
 2538SOL    HW310206   0.208   3.494   4.624  0.2872  1.3927  1.7959
 2538SOL    MW410207   0.285   3.501   4.583 -0.2057 -0.0169  0.5708
 2539SOL     OW10208   1.799   2.890   4.753 -0.4390 -0.1748  0.9825
 2539SOL    HW210209   1.874   2.942   4.782  0.6283 -1.1093 -0.0542
 2539SOL    HW310210   1.735   2.954   4.724  0.9755  0.5840 -0.5825
 2539SOL    MW410211   1.801   2.905   4.753 -0.1115 -0.1979  0.6390
 2540SOL     OW10212   1.519   1.661   4.695 -0.3095  0.2545  0.3445
 2540SOL    HW210213   1.605   1.685   4.660 -0.3495 -2.3047 -1.6013
 2540SOL    HW310214   1.538   1.598   4.764 -0.6358 -0.8472 -0.5604
 2540SOL    MW410215   1.533   1.656   4.699 -0.3579 -0.2286 -0.0319
 2541SOL     OW10216   2.374   3.459   4.140  0.3622  0.5773 -0.0484
 2541SOL    HW210217   2.469   3.471   4.135  0.4315 -0.4040 -1.2869
 2541SOL    HW310218   2.349   3.503   4.222  2.0106 -0.0072  0.8006
 2541SOL    MW410219   2.383   3.466   4.151  0.5887  0.3705 -0.0997
 2542SOL     OW10220   4.473   1.613   4.222  0.0868 -0.0210  0.0750
 2542SOL    HW210221   4.551   1.587   4.173 -0.1364 -0.3946 -0.0839
 2542SOL    HW310222   4.502   1.617   4.313  0.7872  1.7942 -0.2194
 2542SOL    MW410223   4.487   1.610   4.228  0.1502  0.1693  0.0153
 2543SOL     OW10224   3.735   3.232   4.507 -0.0985  0.2380 -0.1750
 2543SOL    HW210225   3.683   3.189   4.575 -0.6522 -0.7476 -1.2045
 2543SOL    HW310226   3.686   3.216   4.426  1.1356  0.4315 -0.9675
 2543SOL    MW410227   3.721   3.224   4.505 -0.0086  0.1335 -0.4158
 2544SOL     OW10228   3.224   2.679   4.395  0.1285 -0.1086 -0.5422
 2544SOL    HW210229   3.186   2.701   4.481 -0.3890 -0.9923 -0.5474
 2544SOL    HW310230   3.308   2.725   4.395  0.8658 -1.4049  1.1064
 2544SOL    MW410231   3.230   2.688   4.407  0.1574 -0.3963 -0.3257
 2545SOL     OW10232   2.561   3.934   4.193 -0.1622  0.2332  0.1885
 2545SOL    HW210233   2.577   4.027   4.183  0.8380  0.0301 -0.1095
 2545SOL    HW310234   2.520   3.907   4.111 -2.3348  0.8004  1.0500
 2545SOL    MW410235   2.557   3.942   4.181 -0.3169  0.2813  0.2632
 2546SOL     OW10236   2.385   3.864   4.424 -0.4248  0.7365 -0.1064
 2546SOL    HW210237   2.430   3.883   4.342 -1.5293  2.8483 -0.2549
 2546SOL    HW310238   2.299   3.905   4.414 -1.4760 -1.0998  1.1404
 2546SOL    MW410239   2.379   3.872   4.412 -0.7093  0.7730  0.0381
 2547SOL     OW10240   1.582   2.104   4.270  0.0924 -0.1452 -0.4006
 2547SOL    HW210241   1.514   2.059   4.220  0.8833 -0.9466 -0.7644
 2547SOL    HW310242   1.544   2.115   4.358 -0.7565  0.0168 -0.7798
 2547SOL    MW410243   1.568   2.100   4.275  0.0849 -0.2298 -0.4988
 2548SOL     OW10244   2.703   3.381   4.566  0.3768  0.1349  0.0705
 2548SOL    HW210245   2.692   3.476   4.563  0.2936  0.1167 -0.1671
 2548SOL    HW310246   2.614   3.346   4.561  0.3975  0.0464  0.2858
 2548SOL    MW410247   2.690   3.389   4.565  0.3684  0.1209  0.0672
 2549SOL     OW10248   2.306   0.260   4.168 -0.4675  0.7488 -0.1433
 2549SOL    HW210249   2.253   0.306   4.234 -0.5431  0.5695 -0.0796
 2549SOL    HW310250   2.287   0.307   4.086 -1.2225  0.2869 -0.2363
 2549SOL    MW410251   2.296   0.272   4.166 -0.5772  0.6642 -0.1473
 2550SOL     OW10252   1.787   0.821   4.503  0.3138 -0.1368 -0.5817
 2550SOL    HW210253   1.738   0.742   4.527  0.5090  0.5138  2.1216
 2550SOL    HW310254   1.879   0.797   4.519  0.3272  0.8079  0.9026
 2550SOL    MW410255   1.793   0.807   4.509  0.3414  0.0736 -0.0291
 2551SOL     OW10256   2.959   0.492   4.272 -0.1802 -0.4299 -0.0850
 2551SOL    HW210257   2.883   0.440   4.247 -0.0076 -0.4207 -0.6448
 2551SOL    HW310258   2.936   0.582   4.247 -0.9947 -0.0305  2.0613
 2551SOL    MW410259   2.946   0.497   4.265 -0.2649 -0.3760  0.1245
 2552SOL     OW10260   3.163   2.752   4.665  0.4188 -0.5741 -0.1487
 2552SOL    HW210261   3.069   2.734   4.675  0.0011  0.5335 -1.8523
 2552SOL    HW310262   3.206   2.674   4.699 -1.2095 -2.3137 -1.9043
 2552SOL    MW410263   3.156   2.739   4.671  0.1488 -0.6576 -0.6051
 2553SOL     OW10264   2.649   1.126   4.176 -0.0399 -0.1366 -0.2933
 2553SOL    HW210265   2.648   1.149   4.083 -1.6755  0.6641 -0.0889
 2553SOL    HW310266   2.604   1.198   4.219  2.6147  0.5731  1.3915
 2553SOL    MW410267   2.643   1.138   4.169  0.0947  0.0628 -0.0443
 2554SOL     OW10268   3.174   1.922   4.937  0.1082 -0.2655  0.2078
 2554SOL    HW210269   3.263   1.905   4.968  0.1483 -2.2474 -0.8635
 2554SOL    HW310270   3.180   1.914   4.842 -1.2425 -0.6297  0.1399
 2554SOL    MW410271   3.186   1.919   4.929 -0.0651 -0.5749  0.0567
 2555SOL     OW10272   2.942   1.506   4.134 -0.2476  0.1414  0.2225
 2555SOL    HW210273   2.864   1.544   4.174  0.5485  2.9812 -0.8469
 2555SOL    HW310274   3.014   1.558   4.169  0.9544 -0.8974 -0.6808
 2555SOL    MW410275   2.941   1.518   4.144  0.0160  0.3790 -0.0377
 2556SOL     OW10276   2.710   3.102   4.247 -0.5057 -0.0121  0.2345
 2556SOL    HW210277   2.741   3.192   4.256 -1.0161  0.1710  0.1507
 2556SOL    HW310278   2.787   3.053   4.219 -0.7395  0.7666 -1.8266
 2556SOL    MW410279   2.724   3.107   4.245 -0.6039  0.1147 -0.0486
 2557SOL     OW10280   3.132   2.617   5.091 -0.2943  0.1985 -0.0010
 2557SOL    HW210281   3.106   2.705   5.062 -0.4737  0.3204  0.5262
 2557SOL    HW310282   3.055   2.583   5.135  0.3827  0.5076  1.4551
 2557SOL    MW410283   3.119   2.624   5.093 -0.2286  0.2551  0.2608
 2558SOL     OW10284   4.242   3.277   4.646  0.2569  0.4976 -0.4701
 2558SOL    HW210285   4.206   3.355   4.689 -1.5534  0.2909 -1.5526
 2558SOL    HW310286   4.166   3.223   4.627  1.3729 -0.9484 -0.9229
 2558SOL    MW410287   4.227   3.280   4.649  0.1650  0.2797 -0.6728
 2559SOL     OW10288   2.165   0.325   4.607 -0.5411  0.0552  0.2495
 2559SOL    HW210289   2.153   0.355   4.517  1.3920  0.5953  0.1382
 2559SOL    HW310290   2.080   0.289   4.633 -0.7004 -1.5044 -2.3150
 2559SOL    MW410291   2.152   0.324   4.599 -0.3071 -0.0792 -0.1030
 2560SOL     OW10292   3.592   1.898   4.236  0.2960  0.4082  0.3115
 2560SOL    HW210293   3.574   1.806   4.253 -0.7758  0.6357  0.4456
 2560SOL    HW310294   3.587   1.907   4.141  0.2083  0.3578  0.3111
 2560SOL    MW410295   3.589   1.887   4.226  0.1428  0.4315  0.3290
 2561SOL     OW10296   2.977   2.350   4.202 -0.3699  0.1260  0.1972
 2561SOL    HW210297   2.975   2.263   4.242  0.2945  0.4426  0.9291
 2561SOL    HW310298   3.054   2.393   4.240  0.0367  0.5858 -1.1092
 2561SOL    MW410299   2.987   2.344   4.212 -0.2284  0.2282  0.1211
 2562SOL     OW10300   2.398   2.955   4.503  0.3777 -0.0121 -0.3625
 2562SOL    HW210301   2.492   2.942   4.509  0.4592  0.8488  0.3911
 2562SOL    HW310302   2.360   2.868   4.513  1.1093 -0.4275 -1.1642
 2562SOL    MW410303   2.405   2.942   4.505  0.4852  0.0467 -0.3691
 2563SOL     OW10304   2.853   2.607   4.253 -0.7084  0.1742  0.0596
 2563SOL    HW210305   2.901   2.528   4.276  2.1989  1.5057 -1.1842
 2563SOL    HW310306   2.852   2.659   4.334  0.5882  0.4504 -0.0962
 2563SOL    MW410307   2.859   2.604   4.267 -0.1540  0.3862 -0.1249
 2564SOL     OW10308   2.955   2.981   4.157  0.0381 -0.1324  0.0392
 2564SOL    HW210309   2.946   2.998   4.063  2.6566  0.8933 -0.0566
 2564SOL    HW310310   2.985   2.890   4.162 -0.9795 -0.4910 -0.0317
 2564SOL    MW410311   2.957   2.971   4.145  0.2494 -0.0443  0.0172
 2565SOL     OW10312   0.357   0.866   4.542 -0.0136  0.5003 -0.4284
 2565SOL    HW210313   0.394   0.865   4.454  0.6052 -0.5653 -0.1766
 2565SOL    HW310314   0.266   0.891   4.531  0.1219  0.5785 -1.3500
 2565SOL    MW410315   0.350   0.869   4.529  0.0860  0.3700 -0.5164
 2566SOL     OW10316   2.166   3.083   4.481 -0.0094 -0.1726  0.0474
 2566SOL    HW210317   2.245   3.031   4.495  0.2964  0.0142 -0.9114
 2566SOL    HW310318   2.191   3.146   4.414 -0.9164  0.0165 -0.1173
 2566SOL    MW410319   2.180   3.084   4.474 -0.0887 -0.1233 -0.1011
 2567SOL     OW10320   2.790   0.845   4.812 -0.1415 -0.2771  0.2221
 2567SOL    HW210321   2.765   0.930   4.779  0.0193 -0.2618  0.1397
 2567SOL    HW310322   2.884   0.838   4.794 -0.2663 -0.7004 -0.2710
 2567SOL    MW410323   2.799   0.855   4.806 -0.1366 -0.3309  0.1464
 2568SOL     OW10324   4.051   0.381   4.652 -0.5985  0.6256 -0.5726
 2568SOL    HW210325   4.114   0.451   4.633 -0.4321  0.9674  1.1661
 2568SOL    HW310326   3.969   0.413   4.615 -0.2196  1.1461 -0.9808
 2568SOL    MW410327   4.049   0.395   4.645 -0.5264  0.7394 -0.3972
 2569SOL     OW10328   2.487   4.292   4.470  0.0627 -0.0223  0.0434
 2569SOL    HW210329   2.444   4.267   4.388  0.2908  0.1935 -0.1420
 2569SOL    HW310330   2.574   4.254   4.465  0.0505 -0.0769  0.2223
 2569SOL    MW410331   2.493   4.284   4.459  0.0913 -0.0010  0.0420
 2570SOL     OW10332   3.757   0.739   4.550 -0.3866 -0.0471  0.0543
 2570SOL    HW210333   3.694   0.811   4.558  0.5321  0.7983 -0.0958
 2570SOL    HW310334   3.842   0.783   4.544  0.2191 -1.1677  0.2956
 2570SOL    MW410335   3.760   0.755   4.550 -0.1855 -0.0834  0.0668
 2571SOL     OW10336   3.531   4.061   4.713  0.0416 -0.5319 -0.0502
 2571SOL    HW210337   3.602   4.022   4.662  1.2721  0.7784  0.6070
 2571SOL    HW310338   3.552   4.040   4.804  0.9077  1.8684  0.3448
 2571SOL    MW410339   3.543   4.053   4.718  0.3183 -0.0420  0.0882
 2572SOL     OW10340   0.085   1.330   4.769 -0.5579 -0.1165  0.1320
 2572SOL    HW210341   0.115   1.354   4.857  2.0569  1.3457 -1.0798
 2572SOL    HW310342   0.013   1.390   4.750  0.1724  0.8821  0.5260
 2572SOL    MW410343   0.080   1.341   4.778 -0.1165  0.2081  0.0243
 2573SOL     OW10344   2.051   3.039   4.814  0.0958  0.3927  0.3336
 2573SOL    HW210345   2.070   3.124   4.776  1.1473  0.3869  0.8358
 2573SOL    HW310346   2.127   3.019   4.868 -0.3900 -0.6122  0.6620
 2573SOL    MW410347   2.063   3.047   4.816  0.1705  0.2592  0.4430
 2574SOL     OW10348   4.057   3.439   4.202  0.1813 -0.6275 -0.5632
 2574SOL    HW210349   4.058   3.436   4.106  0.1003 -1.9443 -0.5321
 2574SOL    HW310350   4.046   3.347   4.229  0.5845 -0.3148  0.7053
 2574SOL    MW410351   4.056   3.426   4.193  0.2236 -0.7598 -0.3924
 2575SOL     OW10352   0.106   0.983   4.507 -0.4638 -0.1352 -0.2720
 2575SOL    HW210353   0.045   1.045   4.548 -0.8471 -0.9735  0.4371
 2575SOL    HW310354   0.075   0.974   4.417 -0.7743  0.2206 -0.2023
 2575SOL    MW410355   0.094   0.990   4.501 -0.5554 -0.1988 -0.1683
 2576SOL     OW10356   2.520   2.032   4.279  0.3873  0.1213 -0.2372
 2576SOL    HW210357   2.515   2.050   4.373 -0.8721  0.6736 -0.4017
 2576SOL    HW310358   2.517   2.119   4.238 -0.3341 -0.1829 -0.8311
 2576SOL    MW410359   2.519   2.046   4.286  0.1261  0.1540 -0.3376
 2577SOL     OW10360   3.156   1.136   4.182  0.2898 -0.3123  0.1818
 2577SOL    HW210361   3.148   1.150   4.087  0.2060 -1.2404  0.0466
 2577SOL    HW310362   3.077   1.176   4.218  0.7291  0.7788 -0.0612
 2577SOL    MW410363   3.144   1.143   4.174  0.3366 -0.2908  0.1326
 2578SOL     OW10364   3.374   1.284   4.263 -0.1577  0.8252 -0.2436
 2578SOL    HW210365   3.311   1.213   4.248  0.1418  0.2094  1.2901
 2578SOL    HW310366   3.333   1.361   4.224 -1.8336  0.4099  0.6367
 2578SOL    MW410367   3.360   1.284   4.256 -0.3393  0.6890  0.0749
 2579SOL     OW10368   3.344   1.535   4.137  0.0280 -0.0585 -0.4124
 2579SOL    HW210369   3.341   1.559   4.044  0.8459 -0.6726 -0.5986
 2579SOL    HW310370   3.268   1.580   4.175 -1.1990 -1.0175 -1.6626
 2579SOL    MW410371   3.333   1.544   4.129 -0.0257 -0.2660 -0.6018
 2580SOL     OW10372   3.218   0.617   4.644 -0.3302  0.0682  0.4694
 2580SOL    HW210373   3.271   0.538   4.655 -0.2608 -0.0332 -0.5427
 2580SOL    HW310374   3.137   0.586   4.603  0.0213  0.6144 -0.6785
 2580SOL    MW410375   3.214   0.603   4.640 -0.2747  0.1268  0.1845
 2581SOL     OW10376   2.931   0.757   4.192 -0.6138 -0.1818 -0.2420
 2581SOL    HW210377   3.017   0.796   4.212  0.3398 -1.3193 -2.0312
 2581SOL    HW310378   2.910   0.788   4.104 -1.5551 -0.7700 -0.2290
 2581SOL    MW410379   2.940   0.766   4.183 -0.6120 -0.4095 -0.4759
 2582SOL     OW10380   2.871   2.512   5.110 -0.0822  0.3404 -0.3547
 2582SOL    HW210381   2.844   2.504   5.019  0.3975 -0.3210 -0.4470
 2582SOL    HW310382   2.841   2.431   5.151  1.0880 -0.0642 -0.2904
 2582SOL    MW410383   2.864   2.500   5.104  0.1354  0.1998 -0.3591
 2583SOL     OW10384   3.192   2.405   4.352  0.1021  0.2894  0.1324
 2583SOL    HW210385   3.205   2.500   4.351  0.3791  0.2523 -0.1775
 2583SOL    HW310386   3.262   2.371   4.296 -0.9069  0.0208 -0.9769
 2583SOL    MW410387   3.203   2.413   4.344  0.0055  0.2489 -0.0544
 2584SOL     OW10388   3.070   2.727   4.151 -0.0182  0.0427  0.4692
 2584SOL    HW210389   3.132   2.729   4.225  0.1244 -0.4023  0.3583
 2584SOL    HW310390   2.992   2.684   4.186 -0.6384  1.4729  0.8986
 2584SOL    MW410391   3.068   2.722   4.166 -0.0813  0.1726  0.5112
 2585SOL     OW10392   4.025   0.123   4.559 -0.3685  0.6402 -0.0628
 2585SOL    HW210393   4.079   0.062   4.609  0.0893 -0.8219 -2.2562
 2585SOL    HW310394   4.050   0.210   4.592  0.4608 -0.2411  1.6783
 2585SOL    MW410395   4.036   0.127   4.570 -0.1988  0.3310 -0.1225
 2586SOL     OW10396   1.217   2.603   4.567  0.3924 -0.1647 -0.1557
 2586SOL    HW210397   1.282   2.537   4.542  0.3942  0.1877 -1.0935
 2586SOL    HW310398   1.242   2.628   4.656  0.0124 -1.8869  0.4683
 2586SOL    MW410399   1.229   2.598   4.576  0.3426 -0.3455 -0.1974
 2587SOL     OW10400   3.368   3.063   4.201  0.1860  0.2365 -0.1569
 2587SOL    HW210401   3.376   3.044   4.108 -0.0770 -1.7699  0.2148
 2587SOL    HW310402   3.400   2.984   4.244 -2.6284 -0.0631  1.4441
 2587SOL    MW410403   3.373   3.050   4.194 -0.2196 -0.0677  0.1035
 2588SOL     OW10404   3.150   3.094   4.358 -0.2348  0.0986  0.1413
 2588SOL    HW210405   3.233   3.095   4.312 -1.1048  1.0264 -1.4683
 2588SOL    HW310406   3.087   3.064   4.293 -0.9660 -1.9414  1.7191
 2588SOL    MW410407   3.152   3.090   4.344 -0.4458 -0.0482  0.1373
 2589SOL     OW10408   1.816   3.940   4.482 -0.1579 -0.1791  0.0632
 2589SOL    HW210409   1.857   4.026   4.492  0.2830 -0.0583 -2.4948
 2589SOL    HW310410   1.871   3.881   4.532  0.0792  0.8655  1.0592
 2589SOL    MW410411   1.828   3.944   4.490 -0.0685 -0.0253 -0.1431
 2590SOL     OW10412   2.650   3.500   4.128  0.0187  0.2736 -0.9985
 2590SOL    HW210413   2.700   3.440   4.183 -1.6737 -0.2461 -0.0282
 2590SOL    HW310414   2.668   3.587   4.165 -0.0718  0.0541 -0.4361
 2590SOL    MW410415   2.659   3.503   4.140 -0.2165  0.1760 -0.7968
 2591SOL     OW10416   3.406   3.904   4.141  0.4097  0.2274 -0.4517
 2591SOL    HW210417   3.324   3.930   4.184  0.2935 -1.4330  0.3993
 2591SOL    HW310418   3.383   3.893   4.049 -0.2192  0.2458 -0.2992
 2591SOL    MW410419   3.392   3.906   4.135  0.3114  0.0107 -0.3190
 2592SOL     OW10420   4.316   4.380   4.336 -0.4213  0.2072  0.1597
 2592SOL    HW210421   4.375   4.325   4.285 -0.4101 -0.9308  1.3596
 2592SOL    HW310422   4.311   4.462   4.287  0.8997 -0.2508 -0.7751
 2592SOL    MW410423   4.323   4.383   4.323 -0.2451 -0.0033  0.1950
 2593SOL     OW10424   2.835   3.170   4.706  0.2348 -0.0968  0.7364
 2593SOL    HW210425   2.925   3.175   4.675 -0.3696 -0.3986 -1.1488
 2593SOL    HW310426   2.795   3.253   4.680  0.0472  0.1645  1.8386
 2593SOL    MW410427   2.841   3.181   4.698  0.1304 -0.1020  0.6328
 2594SOL     OW10428   3.137   3.944   4.327 -0.1776  0.7035  0.2278
 2594SOL    HW210429   3.097   3.903   4.250  0.0555  0.7257  0.0945
 2594SOL    HW310430   3.172   3.871   4.378  0.1574  0.7242  0.0351
 2594SOL    MW410431   3.137   3.929   4.324 -0.1025  0.7088  0.1850
 2595SOL     OW10432   3.843   4.625   4.212  0.2715  0.1523 -0.2414
 2595SOL    HW210433   3.753   4.656   4.228  0.2331 -0.1328  0.1047
 2595SOL    HW310434   3.847   4.611   4.118  0.0842  0.5753 -0.3147
 2595SOL    MW410435   3.831   4.627   4.202  0.2418  0.1707 -0.2055
 2596SOL     OW10436   3.358   4.639   4.208  0.0149 -0.0700  0.1293
 2596SOL    HW210437   3.441   4.675   4.242  0.4809 -0.6799 -0.3398
 2596SOL    HW310438   3.356   4.549   4.242 -0.0427 -0.3317 -0.5687
 2596SOL    MW410439   3.369   4.632   4.217  0.0689 -0.1855 -0.0248
 2597SOL     OW10440   3.590   0.333   4.172 -0.9541 -0.2111  0.3635
 2597SOL    HW210441   3.586   0.317   4.078 -2.3917 -0.8495  0.5153
 2597SOL    HW310442   3.512   0.384   4.192 -1.0882 -0.7598  1.3246
 2597SOL    MW410443   3.579   0.338   4.162 -1.1616 -0.3677  0.5102
 2598SOL     OW10444   1.041   0.718   4.487 -0.0440  0.0506  0.2261
 2598SOL    HW210445   1.063   0.770   4.410  0.4824 -0.8691 -0.2542
 2598SOL    HW310446   0.973   0.769   4.532 -0.9708  0.1862 -1.2902
 2598SOL    MW410447   1.035   0.732   4.483 -0.0968 -0.0529 -0.0377
 2599SOL     OW10448   3.125   1.034   4.657 -0.2374  0.0964  0.7058
 2599SOL    HW210449   3.092   0.962   4.712 -0.8878  0.6391  1.0392
 2599SOL    HW310450   3.059   1.042   4.588 -0.6711  1.0106  1.2214
 2599SOL    MW410451   3.112   1.025   4.655 -0.3803  0.2886  0.8183
 2600SOL     OW10452   2.491   0.454   4.278 -0.2437  0.6512 -0.4507
 2600SOL    HW210453   2.479   0.477   4.370 -0.3802 -0.1184 -0.2714
 2600SOL    HW310454   2.446   0.370   4.269  0.4819  0.3255 -1.0273
 2600SOL    MW410455   2.484   0.446   4.289 -0.1659  0.5067 -0.5035
 2601SOL     OW10456   3.570   1.130   4.139  0.0170 -0.3476 -0.0955
 2601SOL    HW210457   3.502   1.194   4.159  0.0536 -0.2628 -0.2392
 2601SOL    HW310458   3.584   1.139   4.044  1.8180  1.1772  0.3132
 2601SOL    MW410459   3.563   1.139   4.129  0.2594 -0.1352 -0.0606
 2602SOL     OW10460   2.481   1.572   4.186  0.1098  0.1340  0.0485
 2602SOL    HW210461   2.475   1.572   4.090 -1.1812 -1.7500  0.0904
 2602SOL    HW310462   2.398   1.610   4.215  0.4944  0.6918  0.4191
 2602SOL    MW410463   2.469   1.577   4.177 -0.0100 -0.0410  0.1030
 2603SOL     OW10464   4.356   3.605   4.553  0.1523 -0.2583 -0.2855
 2603SOL    HW210465   4.432   3.551   4.574 -0.8840 -1.6082  0.1284
 2603SOL    HW310466   4.336   3.582   4.462 -0.0586 -0.2857 -0.2315
 2603SOL    MW410467   4.363   3.595   4.543 -0.0124 -0.4401 -0.2241
 2604SOL     OW10468   0.855   0.979   4.264 -0.3229  0.1962 -0.2112
 2604SOL    HW210469   0.780   0.923   4.244  0.1233 -0.5222  0.1060
 2604SOL    HW310470   0.932   0.923   4.250  0.1031  0.4928  0.8282
 2604SOL    MW410471   0.855   0.964   4.260 -0.2078  0.1406 -0.0319
 2605SOL     OW10472   3.713   2.133   4.594 -0.2979  0.0700  0.5844
 2605SOL    HW210473   3.745   2.111   4.506 -0.9265 -1.5114  0.7376
 2605SOL    HW310474   3.626   2.093   4.598  0.9270 -2.5146  3.0001
 2605SOL    MW410475   3.706   2.125   4.583 -0.2191 -0.4795  0.9232
 2606SOL     OW10476   1.567   4.618   4.428 -0.1547 -0.0070 -0.7061
 2606SOL    HW210477   1.629   4.623   4.501  0.0129  0.5642 -0.8893
 2606SOL    HW310478   1.508   4.692   4.441  0.0508  0.2642 -1.3112
 2606SOL    MW410479   1.567   4.628   4.439 -0.1055  0.1040 -0.8106
 2607SOL     OW10480   3.823   2.279   4.143  0.2443  0.3669 -0.0486
 2607SOL    HW210481   3.823   2.274   4.048  0.9692 -0.5678  0.0032
 2607SOL    HW310482   3.907   2.319   4.165 -0.4879  1.8548  0.1422
 2607SOL    MW410483   3.834   2.284   4.134  0.2432  0.4399 -0.0162
 2608SOL     OW10484   4.283   3.585   4.299  0.1913 -0.3328  0.2754
 2608SOL    HW210485   4.199   3.543   4.283  0.4849 -0.6068 -0.6111
 2608SOL    HW310486   4.279   3.666   4.248 -0.3407  0.6746  1.9089
 2608SOL    MW410487   4.272   3.590   4.290  0.1602 -0.2360  0.3734
 2609SOL     OW10488   3.629   2.717   4.169 -0.1245 -0.3352  0.3906
 2609SOL    HW210489   3.623   2.625   4.193  1.9740 -0.4782  0.4126
 2609SOL    HW310490   3.621   2.719   4.074 -0.1947 -0.5240  0.3935
 2609SOL    MW410491   3.627   2.705   4.160  0.1433 -0.3791  0.3939
 2610SOL     OW10492   2.701   0.107   4.287  0.2506 -0.3488 -0.2546
 2610SOL    HW210493   2.673   0.125   4.377 -0.3468  0.0712 -0.5273
 2610SOL    HW310494   2.720   0.193   4.250 -1.2075 -0.3762 -1.0921
 2610SOL    MW410495   2.700   0.121   4.294 -0.0207 -0.2970 -0.4005
 2611SOL     OW10496   3.850   3.044   4.128  0.6475 -0.6406 -0.2155
 2611SOL    HW210497   3.771   3.084   4.165  0.7582 -1.3471  0.8005
 2611SOL    HW310498   3.853   3.076   4.038 -0.9122 -0.7772 -0.3279
 2611SOL    MW410499   3.840   3.054   4.121  0.4563 -0.7517 -0.0963
 2612SOL     OW10500   3.617   3.182   4.208 -0.2758  0.1017 -0.1592
 2612SOL    HW210501   3.608   3.273   4.179 -0.2493 -0.2511 -1.3149
 2612SOL    HW310502   3.532   3.143   4.190  0.5188 -0.7837 -2.2116
 2612SOL    MW410503   3.605   3.189   4.201 -0.1674 -0.0618 -0.5827
 2613SOL     OW10504   2.739   3.736   4.246  0.1853  0.1891  0.4005
 2613SOL    HW210505   2.731   3.710   4.338 -0.6838  1.1201  0.6036
 2613SOL    HW310506   2.697   3.822   4.242 -1.0436 -0.4582 -1.1495
 2613SOL    MW410507   2.732   3.744   4.258 -0.0918  0.2263  0.2232
 2614SOL     OW10508   0.812   1.779   4.726  0.0302  0.7129 -0.4445
 2614SOL    HW210509   0.731   1.803   4.681  0.5474  1.2075 -1.1074
 2614SOL    HW310510   0.788   1.780   4.819 -1.0695 -0.4590 -0.7000
 2614SOL    MW410511   0.798   1.782   4.733 -0.0467  0.6236 -0.5655
 2615SOL     OW10512   3.616   4.267   4.239 -0.0453 -0.0248 -0.2250
 2615SOL    HW210513   3.691   4.323   4.260 -0.4142  0.3256  0.1816
 2615SOL    HW310514   3.541   4.326   4.243 -0.3811 -0.4473 -0.2925
 2615SOL    MW410515   3.616   4.282   4.243 -0.1383 -0.0343 -0.1802
 2616SOL     OW10516   2.347   0.103   4.552  0.2267  0.1499  0.2879
 2616SOL    HW210517   2.433   0.145   4.554  0.5138 -0.4668  1.7837
 2616SOL    HW310518   2.285   0.176   4.555  0.7196  0.5516  0.9023
 2616SOL    MW410519   2.350   0.118   4.553  0.3295  0.1215  0.5665
 2617SOL     OW10520   4.046   3.174   4.290 -0.1174 -0.0390 -0.2249
 2617SOL    HW210521   3.984   3.131   4.230 -0.5738  0.1835  0.0879
 2617SOL    HW310522   4.014   3.151   4.377  0.4819 -0.2630 -0.0670
 2617SOL    MW410523   4.033   3.165   4.293 -0.0982 -0.0391 -0.1626
 2618SOL     OW10524   4.083   0.112   4.292  0.2356  0.0968 -0.1126
 2618SOL    HW210525   4.068   0.119   4.386 -0.6455  0.0890 -0.2526
 2618SOL    HW310526   4.007   0.063   4.259  0.4542  0.2509 -0.8510
 2618SOL    MW410527   4.071   0.106   4.300  0.1478  0.1161 -0.2284
 2619SOL     OW10528   1.101   1.872   4.693 -0.1181  0.1496  0.0017
 2619SOL    HW210529   1.132   1.800   4.638 -1.1557  0.2031 -0.6691
 2619SOL    HW310530   1.006   1.858   4.700 -0.1363  0.7097  0.9515
 2619SOL    MW410531   1.093   1.861   4.686 -0.2575  0.2307  0.0381
 2620SOL     OW10532   4.088   0.353   4.179 -0.1279  0.4635 -0.9818
 2620SOL    HW210533   4.095   0.269   4.224 -1.4897  0.2949 -1.0897
 2620SOL    HW310534   4.006   0.391   4.210  0.9322  2.2055 -0.1810
 2620SOL    MW410535   4.078   0.347   4.189 -0.1674  0.6711 -0.8907
 2621SOL     OW10536   4.035   2.447   4.780  0.3569  0.3621 -0.5723
 2621SOL    HW210537   3.962   2.387   4.797  0.8772 -0.2743 -0.5567
 2621SOL    HW310538   4.050   2.491   4.864  0.2855  0.1696 -0.4594
 2621SOL    MW410539   4.027   2.445   4.794  0.4158  0.2527 -0.5555
 2622SOL     OW10540   2.053   3.274   4.655 -0.1871  0.1839  0.1818
 2622SOL    HW210541   1.959   3.274   4.639 -0.0383  0.8140 -0.8092
 2622SOL    HW310542   2.089   3.215   4.588  0.1350  0.0796  0.4438
 2622SOL    MW410543   2.046   3.267   4.644 -0.1249  0.2532  0.0854
 2623SOL     OW10544   4.280   0.511   4.320  0.4117 -0.0493 -0.2761
 2623SOL    HW210545   4.350   0.446   4.307 -0.0555 -0.7124  0.4564
 2623SOL    HW310546   4.201   0.468   4.286 -0.0233 -0.1243  0.8306
 2623SOL    MW410547   4.279   0.497   4.313  0.2928 -0.1467 -0.0334
 2624SOL     OW10548   4.201   1.308   4.568 -0.5667 -0.2044  0.3679
 2624SOL    HW210549   4.137   1.244   4.598 -0.5859 -0.2761  0.1670
 2624SOL    HW310550   4.217   1.286   4.477 -0.8300  0.2900  0.2017
 2624SOL    MW410551   4.195   1.297   4.560 -0.6037 -0.1487  0.3195
 2625SOL     OW10552   4.034   1.137   4.159  0.5652  0.0236  0.3714
 2625SOL    HW210553   4.041   1.055   4.207  0.0309  0.1146  0.6072
 2625SOL    HW310554   4.097   1.195   4.201  0.9652 -0.2743  0.1842
 2625SOL    MW410555   4.043   1.134   4.171  0.5469 -0.0037  0.3772
 2626SOL     OW10556   4.213   1.524   4.164 -0.6157  0.0196  0.2463
 2626SOL    HW210557   4.215   1.533   4.069  0.1054  0.2058  0.2708
 2626SOL    HW310558   4.297   1.560   4.193  0.1085 -2.0249  0.7638
 2626SOL    MW410559   4.225   1.530   4.156 -0.4249 -0.2255  0.3176
 2627SOL     OW10560   0.127   2.102   4.714  0.6291  0.3316  0.9042
 2627SOL    HW210561   0.128   2.101   4.810 -0.6539 -1.7721  0.9336
 2627SOL    HW310562   0.082   2.184   4.692 -0.3374  0.1607  2.1403
 2627SOL    MW410563   0.121   2.112   4.724  0.3323  0.0315  1.0710
 2628SOL     OW10564   0.553   2.459   4.579 -0.3950  0.0625  0.0831
 2628SOL    HW210565   0.624   2.514   4.611 -0.3762  1.2948 -1.9965
 2628SOL    HW310566   0.597   2.378   4.551  0.0212  0.2907  0.0640
 2628SOL    MW410567   0.568   2.456   4.580 -0.3377  0.2553 -0.1936
 2629SOL     OW10568   1.761   4.384   4.117  0.1177 -0.2452  0.2505
 2629SOL    HW210569   1.844   4.429   4.132 -0.4461  0.4682  1.2393
 2629SOL    HW310570   1.763   4.360   4.024  0.1795  2.2943 -0.4176
 2629SOL    MW410571   1.772   4.387   4.106  0.0514  0.1836  0.2923
 2630SOL     OW10572   4.139   2.006   4.126  0.1573 -0.1045 -0.1156
 2630SOL    HW210573   4.221   1.957   4.124  0.0801 -0.2684  0.6369
 2630SOL    HW310574   4.095   1.977   4.206  0.5046  1.7950  0.8030
 2630SOL    MW410575   4.144   1.996   4.137  0.1926  0.1242  0.1054
 2631SOL     OW10576   4.272   2.269   4.127  0.6605  0.3390  0.4769
 2631SOL    HW210577   4.216   2.191   4.134  0.1518  0.6029 -0.5294
 2631SOL    HW310578   4.223   2.337   4.174  1.4239 -0.0981  1.9527
 2631SOL    MW410579   4.258   2.267   4.134  0.6938  0.3161  0.5383
 2632SOL     OW10580   0.438   1.153   4.186  0.8163  0.3403  0.0631
 2632SOL    HW210581   0.442   1.156   4.091 -0.8373  1.4088  0.0093
 2632SOL    HW310582   0.513   1.206   4.214  0.3917  1.3394 -0.6630
 2632SOL    MW410583   0.449   1.161   4.177  0.5421  0.6130 -0.0401
 2633SOL     OW10584   4.083   2.675   4.108  0.1195 -0.1112  0.6686
 2633SOL    HW210585   4.161   2.711   4.149  0.4725 -0.0423 -0.0601
 2633SOL    HW310586   4.010   2.718   4.154  0.5003 -0.3117  1.4640
 2633SOL    MW410587   4.083   2.686   4.119  0.2165 -0.1285  0.6771
 2634SOL     OW10588   3.447   1.329   4.551 -0.0973  0.0036  0.1011
 2634SOL    HW210589   3.410   1.321   4.463  0.5975  0.5237 -0.2423
 2634SOL    HW310590   3.372   1.321   4.609 -0.3396 -2.2064 -0.4633
 2634SOL    MW410591   3.432   1.327   4.547 -0.0374 -0.2193 -0.0186
 2635SOL     OW10592   3.723   3.507   4.558 -0.5965  0.0436 -0.0219
 2635SOL    HW210593   3.739   3.414   4.544 -0.9085  0.3688 -2.9337
 2635SOL    HW310594   3.636   3.522   4.523 -1.1255  1.1968  1.7197
 2635SOL    MW410595   3.714   3.497   4.552 -0.7074  0.2384 -0.1764
 2636SOL     OW10596   4.305   3.071   4.210  0.4070  0.0717  0.0193
 2636SOL    HW210597   4.306   3.089   4.117  1.6534 -0.7282 -0.1296
 2636SOL    HW310598   4.223   3.111   4.241 -0.0656  0.2505 -1.4141
 2636SOL    MW410599   4.294   3.079   4.202  0.5088 -0.0100 -0.1893
 2637SOL     OW10600   0.453   3.200   4.248  0.1727  0.3347 -0.0103
 2637SOL    HW210601   0.466   3.291   4.220  0.4382  0.3850  0.2733
 2637SOL    HW310602   0.421   3.208   4.338 -3.0918  0.2762 -1.0752
 2637SOL    MW410603   0.450   3.213   4.256 -0.2230  0.3338 -0.1135
 2638SOL     OW10604   2.811   2.194   5.102 -0.1496  0.1992 -0.6529
 2638SOL    HW210605   2.782   2.108   5.132  0.0101  0.5562  0.5764
 2638SOL    HW310606   2.899   2.179   5.068  0.3887  0.0752  0.7304
 2638SOL    MW410607   2.819   2.181   5.102 -0.0577  0.2303 -0.3080
 2639SOL     OW10608   1.810   1.310   4.683 -0.2644 -0.4567 -0.0442
 2639SOL    HW210609   1.765   1.238   4.639 -0.5383 -0.4410  0.2093
 2639SOL    HW310610   1.902   1.283   4.685 -0.0731  0.0293 -1.6049
 2639SOL    MW410611   1.816   1.297   4.677 -0.2753 -0.3905 -0.2165
 2640SOL     OW10612   1.260   1.655   4.567 -0.2423 -0.0708  0.2921
 2640SOL    HW210613   1.270   1.664   4.473 -1.4493  2.4027  0.3585
 2640SOL    HW310614   1.347   1.629   4.598  0.6717  1.0570 -1.2741
 2640SOL    MW410615   1.273   1.653   4.559 -0.2811  0.4044  0.0944
 2641SOL     OW10616   2.398   1.684   4.808  0.2273  0.0006  0.3693
 2641SOL    HW210617   2.478   1.721   4.770 -1.1749  1.2388 -1.4747
 2641SOL    HW310618   2.403   1.590   4.788  0.7604  0.2283 -0.6207
 2641SOL    MW410619   2.409   1.676   4.800  0.1125  0.1941 -0.0048
 2642SOL     OW10620   1.936   4.194   4.449  0.7414 -0.0120 -0.7192
 2642SOL    HW210621   2.023   4.158   4.434  0.3787 -0.8963 -0.7200
 2642SOL    HW310622   1.951   4.271   4.504  1.5257 -0.1301 -0.7597
 2642SOL    MW410623   1.950   4.200   4.454  0.7972 -0.1440 -0.7243
 2643SOL     OW10624   2.251   4.513   4.231  0.2925 -0.1148 -0.8984
 2643SOL    HW210625   2.254   4.524   4.327  0.7638 -0.8539 -0.8235
 2643SOL    HW310626   2.311   4.580   4.198 -1.8088  1.8771 -0.8475
 2643SOL    MW410627   2.259   4.523   4.240  0.0772  0.0505 -0.8817
 2644SOL     OW10628   3.637   3.994   4.272  0.8007 -0.1289  0.5463
 2644SOL    HW210629   3.563   3.960   4.221  1.5146 -0.5452 -0.2172
 2644SOL    HW310630   3.629   4.089   4.265 -0.7885 -0.1066  2.1014
 2644SOL    MW410631   3.626   4.002   4.265  0.6852 -0.1807  0.6504
 2645SOL     OW10632   0.260   4.502   4.509  0.2368  0.1216  0.7594
 2645SOL    HW210633   0.212   4.445   4.570 -0.0787  0.1540  0.5472
 2645SOL    HW310634   0.205   4.580   4.501 -1.4525 -1.2457 -2.1172
 2645SOL    MW410635   0.246   4.504   4.516 -0.0277 -0.0548  0.3519
 2646SOL     OW10636   0.943   2.558   4.523  0.1011 -0.0572 -0.0075
 2646SOL    HW210637   1.036   2.578   4.522  0.1805 -0.4219  0.1511
 2646SOL    HW310638   0.938   2.463   4.529 -0.2743 -0.1505 -1.6037
 2646SOL    MW410639   0.954   2.548   4.524  0.0620 -0.1178 -0.1974
 2647SOL     OW10640   1.417   2.153   4.511  0.1321 -0.1556 -0.2517
 2647SOL    HW210641   1.448   2.076   4.558  0.0469  0.1808  0.3719
 2647SOL    HW310642   1.322   2.151   4.521  0.1618  0.2733  0.1679
 2647SOL    MW410643   1.408   2.143   4.519  0.1246 -0.0544 -0.1140
 2648SOL     OW10644   1.714   0.330   4.529  0.0364 -0.2624 -0.0487
 2648SOL    HW210645   1.637   0.282   4.499 -0.1224 -0.1658  0.2010
 2648SOL    HW310646   1.684   0.421   4.536 -0.2734 -0.4674  1.5648
 2648SOL    MW410647   1.700   0.336   4.526 -0.0254 -0.2767  0.1974
 2649SOL     OW10648   0.833   3.902   4.524  0.1825 -0.2853  0.0011
 2649SOL    HW210649   0.922   3.901   4.559  0.5992 -1.6008 -1.0447
 2649SOL    HW310650   0.845   3.909   4.429 -0.7751 -2.0661 -0.2677
 2649SOL    MW410651   0.846   3.903   4.516  0.1111 -0.6938 -0.1721
 2650SOL     OW10652   0.444   4.008   4.235 -0.2165 -0.0723  0.3062
 2650SOL    HW210653   0.455   4.015   4.329  0.9174  0.6948  0.1232
 2650SOL    HW310654   0.471   4.093   4.200 -0.7374 -0.3037 -0.6978
 2650SOL    MW410655   0.449   4.020   4.243 -0.1356 -0.0019  0.1493
 2651SOL     OW10656   2.020   2.078   4.356 -0.2381 -0.3854  0.3697
 2651SOL    HW210657   2.100   2.038   4.321  0.3865  0.5443  0.7163
 2651SOL    HW310658   2.013   2.162   4.310 -0.3009  0.1183  1.2761
 2651SOL    MW410659   2.030   2.084   4.345 -0.1638 -0.1965  0.5355
 2652SOL     OW10660   4.397   1.860   4.114  0.3226  0.0331 -0.3408
 2652SOL    HW210661   4.458   1.911   4.167  0.0080  0.2424 -0.1800
 2652SOL    HW310662   4.405   1.770   4.148  1.2438 -0.1229 -0.9613
 2652SOL    MW410663   4.406   1.855   4.125  0.4029  0.0402 -0.4015
 2653SOL     OW10664   0.236   0.762   4.131  0.5184 -0.4389 -0.1283
 2653SOL    HW210665   0.203   0.691   4.186 -0.2634  1.0742  1.3935
 2653SOL    HW310666   0.315   0.793   4.174 -0.3346  1.0422  0.4378
 2653SOL    MW410667   0.242   0.757   4.144  0.3027 -0.0438  0.1469
 2654SOL     OW10668   3.417   2.083   4.570 -0.6412  0.2661 -0.1071
 2654SOL    HW210669   3.364   2.162   4.577 -2.4625 -0.7833 -1.5653
 2654SOL    HW310670   3.403   2.052   4.481  1.0481 -1.0025  0.0417
 2654SOL    MW410671   3.408   2.089   4.559 -0.6588 -0.0398 -0.2794
 2655SOL     OW10672   2.192   3.564   4.639 -0.6439 -0.0868  0.0187
 2655SOL    HW210673   2.218   3.555   4.547 -1.3841 -0.4778 -0.1576
 2655SOL    HW310674   2.163   3.477   4.664 -0.6641  0.0743  0.5574
 2655SOL    MW410675   2.192   3.552   4.630 -0.7443 -0.1171  0.0663
 2656SOL     OW10676   1.907   1.529   4.538 -0.0194  0.0951  0.2361
 2656SOL    HW210677   1.857   1.600   4.579  0.1990  0.2228  0.2838
 2656SOL    HW310678   1.877   1.450   4.583  0.0198  0.2034  0.4558
 2656SOL    MW410679   1.897   1.528   4.549  0.0145  0.1262  0.2713
 2657SOL     OW10680   3.151   4.252   4.588  0.1572  0.0314  0.2808
 2657SOL    HW210681   3.120   4.341   4.599  0.2244  0.2608 -1.2357
 2657SOL    HW310682   3.072   4.201   4.570  0.3505  0.1850 -1.0777
 2657SOL    MW410683   3.136   4.257   4.587  0.1915  0.0820 -0.0987
 2658SOL     OW10684   4.199   0.648   4.554  0.0626 -0.5129 -1.0328
 2658SOL    HW210685   4.223   0.595   4.478  0.8707 -0.4095 -0.8519
 2658SOL    HW310686   4.282   0.678   4.590 -0.2916 -0.9557  0.1865
 2658SOL    MW410687   4.213   0.645   4.549  0.1225 -0.5577 -0.8478
 2659SOL     OW10688   3.790   1.243   4.233 -0.4292 -0.0948 -0.5112
 2659SOL    HW210689   3.869   1.201   4.198 -0.1191  1.0765 -1.2479
 2659SOL    HW310690   3.718   1.195   4.192 -0.0956 -0.6120 -0.5056
 2659SOL    MW410691   3.791   1.231   4.223 -0.3443 -0.0086 -0.6080
 2660SOL     OW10692   0.016   2.294   4.276  0.1047 -0.0362 -0.3530
 2660SOL    HW210693   0.093   2.310   4.223  0.0328  1.4801 -0.0131
 2660SOL    HW310694  -0.057   2.292   4.213  0.3467 -0.9874 -0.6135
 2660SOL    MW410695   0.016   2.296   4.261  0.1268  0.0384 -0.3424
 2661SOL     OW10696   1.442   2.416   4.494 -0.2583 -0.2130  0.3764
 2661SOL    HW210697   1.431   2.322   4.509 -0.0950 -0.3685 -0.4808
 2661SOL    HW310698   1.424   2.428   4.401 -0.7867  0.6860  0.5882
 2661SOL    MW410699   1.438   2.405   4.484 -0.3064 -0.1149  0.2909
 2662SOL     OW10700   2.914   1.249   4.234  0.1655  0.4655 -0.7844
 2662SOL    HW210701   2.825   1.228   4.205  0.1057 -1.1960  0.4921
 2662SOL    HW310702   2.924   1.342   4.216 -1.5437  0.5048 -1.6794
 2662SOL    MW410703   2.903   1.258   4.228 -0.0677  0.2514 -0.7339
 2663SOL     OW10704   1.523   2.851   4.484  0.3363  0.0934  0.1482
 2663SOL    HW210705   1.557   2.765   4.510  1.4481  0.4706 -0.0356
 2663SOL    HW310706   1.533   2.854   4.389  3.4039  1.7018  0.4648
 2663SOL    MW410707   1.529   2.840   4.475  0.8878  0.3555  0.1655
 2664SOL     OW10708   1.125   3.084   4.599 -0.8157 -0.4283  0.0925
 2664SOL    HW210709   1.204   3.093   4.652 -1.7235 -0.2330  1.4224
 2664SOL    HW310710   1.142   3.009   4.543  0.0915 -0.7166  0.7511
 2664SOL    MW410711   1.138   3.076   4.599 -0.8159 -0.4406  0.3548
 2665SOL     OW10712   2.248   1.680   4.277  0.3003 -0.0888 -0.2860
 2665SOL    HW210713   2.234   1.661   4.369  0.1752 -0.0523 -0.2976
 2665SOL    HW310714   2.165   1.656   4.234  0.2388  0.2110 -0.3390
 2665SOL    MW410715   2.235   1.675   4.283  0.2759 -0.0443 -0.2942
 2666SOL     OW10716   1.672   1.088   4.540 -0.0104  0.1145 -0.1495
 2666SOL    HW210717   1.719   1.006   4.558  0.0714  0.2691  0.3344
 2666SOL    HW310718   1.579   1.065   4.549  0.0155  0.0952  0.0827
 2666SOL    MW410719   1.666   1.074   4.544  0.0038  0.1323 -0.0548
 2667SOL     OW10720   2.436   3.262   4.522  0.4186  0.2127 -0.0447
 2667SOL    HW210721   2.396   3.196   4.579  0.1604  1.0819  0.7960
 2667SOL    HW310722   2.396   3.247   4.437 -1.7112  1.0391  0.7706
 2667SOL    MW410723   2.425   3.251   4.519  0.1037  0.4365  0.1736
 2668SOL     OW10724   3.174   4.554   4.518  0.0694  0.2266 -0.1735
 2668SOL    HW210725   3.268   4.550   4.540  0.3087  0.8563 -1.0677
 2668SOL    HW310726   3.156   4.647   4.507 -1.0121  0.2176  1.4379
 2668SOL    MW410727   3.184   4.565   4.519 -0.0417  0.3080 -0.0787
 2669SOL     OW10728   2.440   0.003   4.113  0.2326  0.0189  0.1300
 2669SOL    HW210729   2.387   0.077   4.143  0.9832 -0.5771  3.1046
 2669SOL    HW310730   2.525   0.016   4.155  1.1189 -1.2552 -1.2398
 2669SOL    MW410731   2.444   0.014   4.123  0.4485 -0.2275  0.3419
 2670SOL     OW10732   2.626   1.804   4.693 -0.1908 -0.0099 -0.4400
 2670SOL    HW210733   2.669   1.872   4.745 -0.9902  0.2191 -0.0745
 2670SOL    HW310734   2.695   1.769   4.637  0.1984  1.2129 -0.7348
 2670SOL    MW410735   2.641   1.809   4.692 -0.2451  0.1816 -0.4306
 2671SOL     OW10736   1.320   0.428   4.113  0.1649  0.0458 -0.0287
 2671SOL    HW210737   1.314   0.339   4.149 -1.6774 -0.0181 -0.4407
 2671SOL    HW310738   1.247   0.475   4.153  0.1108  0.9009 -1.1200
 2671SOL    MW410739   1.309   0.422   4.123 -0.0851  0.1502 -0.2270
 2672SOL     OW10740   4.062   2.429   4.223 -0.0865  0.5512  0.3409
 2672SOL    HW210741   4.065   2.432   4.319  2.6593  1.6472  0.2680
 2672SOL    HW310742   4.070   2.520   4.195 -0.1037  0.1707 -0.9499
 2672SOL    MW410743   4.063   2.441   4.232  0.2737  0.6454  0.1612
 2673SOL     OW10744   2.916   1.736   4.879  0.0766  0.2730 -0.0903
 2673SOL    HW210745   2.986   1.767   4.936  1.0893  0.3333 -1.3517
 2673SOL    HW310746   2.875   1.816   4.846  0.6646  0.2709 -0.8571
 2673SOL    MW410747   2.920   1.751   4.882  0.2880  0.2806 -0.3581
 2674SOL     OW10748   3.846   0.447   4.254 -0.0430  0.1538  0.3292
 2674SOL    HW210749   3.856   0.540   4.234  1.2376 -0.0683 -0.1286
 2674SOL    HW310750   3.756   0.426   4.231 -0.5998  1.4818  1.2709
 2674SOL    MW410751   3.836   0.456   4.249  0.0525  0.2997  0.3929
 2675SOL     OW10752   0.894   3.985   4.259 -0.2229 -0.2658  0.4726
 2675SOL    HW210753   0.976   3.950   4.225 -0.4597  0.0184 -0.4095
 2675SOL    HW310754   0.826   3.937   4.212 -0.5500  0.7803 -0.1635
 2675SOL    MW410755   0.896   3.974   4.248 -0.2972 -0.0906  0.2723
 2676SOL     OW10756   4.012   2.423   4.489  0.1277 -0.1149 -0.0581
 2676SOL    HW210757   4.033   2.511   4.520 -0.4551  0.1038 -0.2675
 2676SOL    HW310758   3.920   2.411   4.514 -0.1171 -0.2402 -1.0209
 2676SOL    MW410759   4.002   2.433   4.496  0.0186 -0.1025 -0.2127
 2677SOL     OW10760   0.693   1.302   4.526  0.0015 -0.6539  0.1266
 2677SOL    HW210761   0.766   1.245   4.548 -0.2534 -0.5301  1.3298
 2677SOL    HW310762   0.615   1.249   4.544 -0.2156 -0.9544 -1.6012
 2677SOL    MW410763   0.692   1.287   4.531 -0.0609 -0.6771  0.0572
 2678SOL     OW10764   1.977   3.716   4.565 -0.0738  0.1274  0.0074
 2678SOL    HW210765   1.996   3.701   4.472  0.3825  1.9808 -0.2143
 2678SOL    HW310766   2.055   3.683   4.610  0.5125  0.9132 -0.4070
 2678SOL    MW410767   1.990   3.709   4.558  0.0638  0.4756 -0.0763
 2679SOL     OW10768   0.903   3.220   4.238  0.5181  0.1992  0.2579
 2679SOL    HW210769   0.823   3.190   4.195  0.4290 -0.1563  0.6654
 2679SOL    HW310770   0.888   3.203   4.331  0.5000  1.4412  0.4923
 2679SOL    MW410771   0.890   3.213   4.244  0.5040  0.3161  0.3433
 2680SOL     OW10772   1.113   3.890   4.517 -0.2704  0.4823 -0.4935
 2680SOL    HW210773   1.143   3.800   4.533 -0.6008  0.3513 -0.6188
 2680SOL    HW310774   1.185   3.930   4.468 -0.5609 -0.0212 -1.3481
 2680SOL    MW410775   1.127   3.883   4.513 -0.3521  0.3989 -0.6227
 2681SOL     OW10776   3.248   2.399   4.958 -0.5508  0.0593  0.2011
 2681SOL    HW210777   3.190   2.323   4.958 -0.5921  0.0911  1.0922
 2681SOL    HW310778   3.201   2.466   5.007 -0.4662  0.6330 -0.4822
 2681SOL    MW410779   3.234   2.398   4.964 -0.5453  0.1395  0.2284
 2682SOL     OW10780   4.173   3.977   4.526  0.4726  0.1958  0.2741
 2682SOL    HW210781   4.131   3.987   4.440 -0.3857 -1.6019  0.4599
 2682SOL    HW310782   4.150   4.058   4.572 -0.7245  0.3284 -0.5029
 2682SOL    MW410783   4.164   3.989   4.520  0.2012 -0.0238  0.1960
 2683SOL     OW10784   0.048   4.264   4.175  0.4467 -0.4978 -0.3589
 2683SOL    HW210785   0.035   4.264   4.080  1.5183  0.7201 -0.5161
 2683SOL    HW310786   0.042   4.172   4.200  0.1215 -0.8232 -1.5952
 2683SOL    MW410787   0.045   4.252   4.166  0.5452 -0.3796 -0.5431
 2684SOL     OW10788   2.017   2.323   4.206  0.0249 -0.0374 -0.3221
 2684SOL    HW210789   2.012   2.334   4.111 -2.1271 -0.9349 -0.3320
 2684SOL    HW310790   1.956   2.387   4.241  0.3797 -0.1099  0.4486
 2684SOL    MW410791   2.009   2.333   4.198 -0.2120 -0.1652 -0.2217
 2685SOL     OW10792   3.740   2.388   4.517 -0.2179 -0.0364 -0.3365
 2685SOL    HW210793   3.723   2.297   4.540  1.2770 -0.2685 -0.0762
 2685SOL    HW310794   3.699   2.439   4.588 -1.3046 -0.4803 -0.6393
 2685SOL    MW410795   3.732   2.383   4.530 -0.1640 -0.1254 -0.3424
 2686SOL     OW10796   1.231   2.859   4.444 -0.5885 -0.1627  0.3101
 2686SOL    HW210797   1.326   2.862   4.455 -0.8537  1.6505  2.3374
 2686SOL    HW310798   1.205   2.777   4.485  0.0897 -0.6340 -0.1884
 2686SOL    MW410799   1.240   2.849   4.451 -0.5342  0.0143  0.5121
 2687SOL     OW10800   3.366   4.379   4.294  0.0651  0.3712 -0.0859
 2687SOL    HW210801   3.311   4.304   4.272 -0.5175  0.7192  0.1716
 2687SOL    HW310802   3.398   4.360   4.382 -0.6716  0.7688  0.2675
 2687SOL    MW410803   3.363   4.367   4.303 -0.1092  0.4697 -0.0062
 2688SOL     OW10804   4.368   1.496   4.678 -0.2207 -0.3425 -0.1731
 2688SOL    HW210805   4.297   1.559   4.687 -0.4465 -0.6903  0.5577
 2688SOL    HW310806   4.327   1.419   4.638 -0.0383 -0.1754 -0.6790
 2688SOL    MW410807   4.353   1.494   4.674 -0.2265 -0.3663 -0.1435
 2689SOL     OW10808   3.122   1.677   4.235 -0.0887 -0.1628 -0.2940
 2689SOL    HW210809   3.157   1.675   4.324 -0.2514  1.4642 -0.1674
 2689SOL    HW310810   3.126   1.769   4.210 -0.2712 -0.5722 -1.8876
 2689SOL    MW410811   3.127   1.689   4.243 -0.1342 -0.0021 -0.4878
 2690SOL     OW10812   4.290   3.816   4.145 -0.1775 -0.3042 -0.0156
 2690SOL    HW210813   4.294   3.807   4.050 -1.5738  2.1157 -0.3537
 2690SOL    HW310814   4.365   3.872   4.166 -0.1058 -0.5023  0.2497
 2690SOL    MW410815   4.301   3.822   4.135 -0.3519 -0.0110 -0.0248
 2691SOL     OW10816   4.427   2.989   4.671 -0.0476  0.0089 -0.5975
 2691SOL    HW210817   4.384   2.914   4.629 -0.7648 -0.5172  1.0495
 2691SOL    HW310818   4.369   3.063   4.652 -1.3238 -0.5608  0.9732
 2691SOL    MW410819   4.414   2.989   4.663 -0.3104 -0.1357 -0.1726
 2692SOL     OW10820   1.358   3.507   4.166  0.2599  0.1962 -0.4491
 2692SOL    HW210821   1.424   3.573   4.186 -0.5088  0.7751  0.1959
 2692SOL    HW310822   1.369   3.490   4.073  0.8690  0.7875 -0.4901
 2692SOL    MW410823   1.368   3.513   4.157  0.2388  0.3502 -0.3700
 2693SOL     OW10824   0.033   3.374   4.567  0.0341  0.0445 -0.2353
 2693SOL    HW210825  -0.053   3.352   4.602  0.0425  1.0794  0.4615
 2693SOL    HW310826   0.034   3.335   4.479 -1.5058  0.8070 -0.6129
 2693SOL    MW410827   0.022   3.366   4.560 -0.1678  0.2813 -0.1926
 2694SOL     OW10828   1.591   3.060   4.666 -0.1197 -0.5581 -0.1507
 2694SOL    HW210829   1.653   3.123   4.630 -0.5347  0.1298  0.3304
 2694SOL    HW310830   1.567   3.005   4.592  0.2999 -0.1948 -0.5579
 2694SOL    MW410831   1.596   3.061   4.652 -0.1191 -0.4196 -0.1416
 2695SOL     OW10832   2.278   4.501   4.513  0.5745  0.5599 -0.3162
 2695SOL    HW210833   2.348   4.438   4.523 -1.3512 -1.3040  2.1852
 2695SOL    HW310834   2.318   4.586   4.533  2.3699 -0.3031 -0.2179
 2695SOL    MW410835   2.292   4.504   4.517  0.5572  0.2003  0.0262
 2696SOL     OW10836   1.295   0.419   4.562 -0.5048 -0.1696  0.0115
 2696SOL    HW210837   1.200   0.413   4.568 -0.5311 -0.7038 -0.8921
 2696SOL    HW310838   1.314   0.512   4.572 -1.1425 -0.0209 -0.1543
 2696SOL    MW410839   1.285   0.430   4.564 -0.5924 -0.2204 -0.1292
 2697SOL     OW10840   0.484   0.157   4.261  0.7229  0.1203 -0.2892
 2697SOL    HW210841   0.492   0.179   4.354  0.5307  0.1007 -0.2680
 2697SOL    HW310842   0.564   0.109   4.241  0.4409 -0.4896  0.0358
 2697SOL    MW410843   0.496   0.154   4.271  0.6603  0.0373 -0.2437
 2698SOL     OW10844   4.006   3.099   4.557  0.5708  0.0124  0.3346
 2698SOL    HW210845   3.925   3.150   4.555  0.7718  0.3368  0.5982
 2698SOL    HW310846   3.976   3.008   4.551  0.2439  0.1788 -0.7041
 2698SOL    MW410847   3.991   3.094   4.556  0.5541  0.0772  0.2322
 2699SOL     OW10848   0.448   1.933   3.893 -0.0920 -0.2655 -0.2644
 2699SOL    HW210849   0.456   1.841   3.866 -1.5898 -0.2227 -0.9196
 2699SOL    HW310850   0.369   1.964   3.848  0.7164  1.5044 -0.5049
 2699SOL    MW410851   0.439   1.925   3.883 -0.1830 -0.0263 -0.3824
 2700SOL     OW10852   3.463   3.570   4.458 -0.2256 -0.4831  0.1101
 2700SOL    HW210853   3.433   3.502   4.519 -2.0748 -1.3532 -1.7410
 2700SOL    HW310854   3.425   3.651   4.492  0.0876 -0.6991  1.0084
 2700SOL    MW410855   3.454   3.572   4.471 -0.4284 -0.6266 -0.0153
 2701SOL     OW10856   3.144   3.570   4.111  0.0285 -0.3576 -0.3637
 2701SOL    HW210857   3.236   3.583   4.132 -0.5668  0.5530  1.8035
 2701SOL    HW310858   3.145   3.524   4.027  2.4398 -0.1745 -0.4720
 2701SOL    MW410859   3.156   3.566   4.102  0.2677 -0.2131 -0.0920
 2702SOL     OW10860   2.062   0.758   4.521 -0.2437 -0.2965  0.2552
 2702SOL    HW210861   2.126   0.830   4.524 -0.2629 -0.2796  0.2619
 2702SOL    HW310862   2.104   0.687   4.569 -0.6629  0.0713  1.1813
 2702SOL    MW410863   2.076   0.758   4.528 -0.3014 -0.2457  0.3786
 2703SOL     OW10864   3.159   0.378   4.140 -0.2112  0.0573  0.3202
 2703SOL    HW210865   3.147   0.288   4.170 -1.9717  0.2167  0.1440
 2703SOL    HW310866   3.089   0.427   4.183 -0.6040  0.9316 -1.2684
 2703SOL    MW410867   3.148   0.372   4.149 -0.4950  0.1937  0.0873
 2704SOL     OW10868   2.771   2.788   5.110 -0.3294  0.4465 -0.0358
 2704SOL    HW210869   2.850   2.826   5.072 -1.3864 -0.9224 -3.7415
 2704SOL    HW310870   2.789   2.694   5.112 -1.3473  0.2530  0.3989
 2704SOL    MW410871   2.784   2.780   5.106 -0.6030  0.2401 -0.4668
 2705SOL     OW10872   4.024   1.927   4.371 -0.1015 -0.3944  0.1699
 2705SOL    HW210873   3.944   1.977   4.357  0.2791 -0.1743 -1.2059
 2705SOL    HW310874   4.001   1.838   4.344  0.5092 -0.0551 -1.4666
 2705SOL    MW410875   4.010   1.922   4.366  0.0296 -0.3207 -0.2275
 2706SOL     OW10876   2.877   2.790   4.489  0.3033 -0.3536  0.4025
 2706SOL    HW210877   2.891   2.763   4.579  0.8406  1.6081  0.9318
 2706SOL    HW310878   2.852   2.883   4.495  0.2712 -0.2173 -1.4477
 2706SOL    MW410879   2.875   2.799   4.501  0.3698 -0.0768  0.2279
 2707SOL     OW10880   0.672   3.867   4.137  0.0775 -0.1685 -0.0905
 2707SOL    HW210881   0.601   3.919   4.174 -0.2579 -1.3095  0.9102
 2707SOL    HW310882   0.667   3.784   4.183  3.5807  0.5401  1.7732
 2707SOL    MW410883   0.662   3.863   4.148  0.4954 -0.2255  0.2875
 2708SOL     OW10884   3.732   3.962   4.538  0.0390 -0.5126  0.4793
 2708SOL    HW210885   3.694   3.971   4.451 -0.1926 -0.2239  0.6090
 2708SOL    HW310886   3.785   3.882   4.533 -0.4166 -0.8037  0.2355
 2708SOL    MW410887   3.734   3.952   4.526 -0.0515 -0.5128  0.4640
 2709SOL     OW10888   1.785   3.543   4.679  0.2764  0.5527 -0.4006
 2709SOL    HW210889   1.793   3.577   4.768 -1.4060  3.2377 -1.2012
 2709SOL    HW310890   1.842   3.600   4.627 -0.9943  0.8981 -1.4537
 2709SOL    MW410891   1.793   3.555   4.684 -0.1132  0.9525 -0.6452
 2710SOL     OW10892   2.156   1.636   4.544 -0.3171  0.1711  0.5562
 2710SOL    HW210893   2.075   1.587   4.535 -0.8513  1.0143  0.6685
 2710SOL    HW310894   2.137   1.702   4.610 -0.6352  2.5829 -1.8381
 2710SOL    MW410895   2.143   1.638   4.551 -0.4296  0.6007  0.2546
 2711SOL     OW10896   4.005   0.877   4.557 -0.4653 -0.4523  0.0311
 2711SOL    HW210897   4.060   0.801   4.577 -0.3880 -0.2415  0.6297
 2711SOL    HW310898   4.015   0.889   4.462  2.3509  0.9706  0.4415
 2711SOL    MW410899   4.014   0.868   4.547 -0.0834 -0.2369  0.1645
 2712SOL     OW10900   2.491   0.514   4.553  0.5062  0.5660  0.0592
 2712SOL    HW210901   2.415   0.540   4.606 -0.7128 -0.2694 -1.2509
 2712SOL    HW310902   2.562   0.571   4.584 -0.6218  1.3165  1.3468
 2712SOL    MW410903   2.490   0.525   4.564  0.1962  0.5548  0.0563
 2713SOL     OW10904   4.091   4.221   4.664  0.3148  0.2402  0.3821
 2713SOL    HW210905   4.078   4.205   4.757 -0.5037  0.5658  0.3273
 2713SOL    HW310906   4.003   4.220   4.627  0.6435 -0.0454 -0.4160
 2713SOL    MW410907   4.078   4.219   4.671  0.2499  0.2460  0.2694
 2714SOL     OW10908   3.841   3.852   4.135  0.1562  0.1582 -0.0823
 2714SOL    HW210909   3.774   3.904   4.180  1.3310 -0.6729  2.7122
 2714SOL    HW310910   3.827   3.763   4.166  1.1806 -0.4018 -1.1833
 2714SOL    MW410911   3.830   3.847   4.145  0.4466 -0.0253  0.1411
 2715SOL     OW10912   3.208   1.890   4.662 -0.2681 -0.3482 -0.4456
 2715SOL    HW210913   3.213   1.813   4.606 -0.1144 -1.3897  0.9673
 2715SOL    HW310914   3.282   1.945   4.636 -0.0773 -0.9209 -1.1068
 2715SOL    MW410915   3.218   1.887   4.651 -0.2227 -0.5611 -0.3462
 2716SOL     OW10916   1.343   2.646   4.813 -0.1514 -0.2453  0.1354
 2716SOL    HW210917   1.393   2.724   4.837  0.1553 -0.5213  0.3946
 2716SOL    HW310918   1.394   2.573   4.846 -0.9788 -0.5070  0.8462
 2716SOL    MW410919   1.356   2.646   4.820 -0.2201 -0.3159  0.2632
 2717SOL     OW10920   0.072   2.023   4.279  0.0196  0.4668 -0.5080
 2717SOL    HW210921   0.038   1.990   4.363  1.5792 -0.2286 -0.1286
 2717SOL    HW310922   0.073   2.118   4.290  0.7539  0.3542  0.4900
 2717SOL    MW410923   0.068   2.031   4.292  0.3223  0.3605 -0.3262
 2718SOL     OW10924   1.076   0.509   4.230 -0.0350 -0.0296 -0.4283
 2718SOL    HW210925   0.992   0.480   4.194 -0.0918 -1.7534  1.0272
 2718SOL    HW310926   1.077   0.475   4.319  1.9307  0.5398 -0.2020
 2718SOL    MW410927   1.065   0.501   4.237  0.2168 -0.1820 -0.2069
 2719SOL     OW10928   0.619   0.493   4.526  0.1694  0.0559 -0.0199
 2719SOL    HW210929   0.530   0.471   4.557  0.6923 -0.1353  1.3780
 2719SOL    HW310930   0.661   0.407   4.515  0.1251  0.1430 -0.8300
 2719SOL    MW410931   0.613   0.479   4.529  0.2325  0.0422  0.0577
 2720SOL     OW10932   2.958   2.099   4.300 -0.7931  0.1867 -0.2761
 2720SOL    HW210933   2.973   2.063   4.388 -1.3981  1.2221  0.2676
 2720SOL    HW310934   2.880   2.054   4.268 -0.3681 -0.4460 -0.4282
 2720SOL    MW410935   2.950   2.088   4.308 -0.8171  0.2396 -0.2246
 2721SOL     OW10936   0.263   0.017   4.140 -0.2293 -0.4409  0.4924
 2721SOL    HW210937   0.346   0.060   4.162  0.8873 -1.6872 -1.1740
 2721SOL    HW310938   0.278  -0.075   4.163  0.1048 -1.3234 -3.0798
 2721SOL    MW410939   0.276   0.010   4.146 -0.0379 -0.7218 -0.1984
 2722SOL     OW10940   1.917   0.676   4.121 -0.3971 -0.3676  0.2966
 2722SOL    HW210941   1.866   0.597   4.136 -0.0417 -0.7618 -0.5677
 2722SOL    HW310942   1.999   0.661   4.168 -0.3485 -0.4906  0.1707
 2722SOL    MW410943   1.921   0.664   4.129 -0.3439 -0.4358  0.1655
 2723SOL     OW10944   2.893   1.095   4.483 -0.0938 -0.3091  0.1298
 2723SOL    HW210945   2.901   1.138   4.398  0.3441  0.1220  0.3886
 2723SOL    HW310946   2.864   1.006   4.462  0.2883 -0.2937 -0.4883
 2723SOL    MW410947   2.890   1.089   4.469  0.0143 -0.2502  0.0830
 2724SOL     OW10948   3.458   2.852   4.359  0.0436  1.0670 -0.2168
 2724SOL    HW210949   3.514   2.809   4.294 -0.4914 -0.3030  0.2232
 2724SOL    HW310950   3.501   2.837   4.443 -0.4161  0.9534 -0.0003
 2724SOL    MW410951   3.471   2.845   4.361 -0.0877  0.8712 -0.1302
 2725SOL     OW10952   2.948   3.769   4.636 -0.4660  0.5551 -0.0915
 2725SOL    HW210953   3.000   3.697   4.600 -1.6550  0.0472 -0.8221
 2725SOL    HW310954   2.969   3.769   4.730  0.9934  0.4842 -0.4160
 2725SOL    MW410955   2.957   3.759   4.644 -0.4301  0.4790 -0.2308
 2726SOL     OW10956   0.912   2.277   4.512  0.1619  0.6997 -0.1875
 2726SOL    HW210957   0.832   2.231   4.539 -0.1171  0.5435 -1.2481
 2726SOL    HW310958   0.983   2.218   4.537 -0.1490  0.0756 -0.7550
 2726SOL    MW410959   0.911   2.263   4.518  0.0841  0.5970 -0.4020
 2727SOL     OW10960   0.774   0.284   4.495 -0.1941  0.5897 -0.3620
 2727SOL    HW210961   0.705   0.224   4.522  0.1687  0.4114  0.1786
 2727SOL    HW310962   0.825   0.235   4.431 -1.2033  1.1004 -1.5780
 2727SOL    MW410963   0.772   0.270   4.490 -0.2794  0.6336 -0.4511
 2728SOL     OW10964   1.859   1.729   4.893 -0.0391  0.0611 -0.1421
 2728SOL    HW210965   1.952   1.750   4.881  0.2678 -0.5734  0.9699
 2728SOL    HW310966   1.824   1.802   4.943 -0.0436  0.1016 -0.2040
 2728SOL    MW410967   1.867   1.741   4.898  0.0007 -0.0173 -0.0038
 2729SOL     OW10968   3.517   3.106   4.643  0.2201 -0.5921  0.0755
 2729SOL    HW210969   3.428   3.086   4.673 -0.8759  1.3839 -1.6453
 2729SOL    HW310970   3.548   3.025   4.603 -1.5577 -0.8204 -0.9238
 2729SOL    MW410971   3.509   3.093   4.641 -0.1590 -0.3617 -0.2832
 2730SOL     OW10972   1.994   2.860   4.258 -0.0168  0.2518 -0.4970
 2730SOL    HW210973   2.015   2.943   4.215 -2.4752  0.7970 -0.7355
 2730SOL    HW310974   1.996   2.880   4.351 -1.4433  0.8299 -0.5735
 2730SOL    MW410975   1.997   2.873   4.265 -0.5295  0.4001 -0.5383
 2731SOL     OW10976   0.445   2.473   4.230 -0.2946 -0.3940  0.4272
 2731SOL    HW210977   0.406   2.503   4.312  0.6758 -1.5951  1.3557
 2731SOL    HW310978   0.462   2.553   4.181  0.9622  0.4893  2.2487
 2731SOL    MW410979   0.442   2.487   4.234 -0.0007 -0.4361  0.7901
 2732SOL     OW10980   1.563   0.835   4.115 -0.3944  0.1101 -0.2643
 2732SOL    HW210981   1.648   0.863   4.147 -0.7589  0.2880  0.5530
 2732SOL    HW310982   1.573   0.834   4.019  0.4899  0.2117 -0.1774
 2732SOL    MW410983   1.575   0.839   4.106 -0.3259  0.1470 -0.1445
 2733SOL     OW10984   1.171   1.140   4.612 -0.0117 -0.3251  0.2505
 2733SOL    HW210985   1.167   1.236   4.621  0.3790 -0.3304  0.5186
 2733SOL    HW310986   1.082   1.114   4.589  0.1648  0.2275 -1.0680
 2733SOL    MW410987   1.159   1.149   4.610  0.0631 -0.2528  0.1121
 2734SOL     OW10988   3.832   3.587   4.232  0.3322  0.5373 -0.6174
 2734SOL    HW210989   3.836   3.600   4.327 -1.6107 -0.9228 -0.3040
 2734SOL    HW310990   3.917   3.549   4.210 -0.6324 -2.9743  1.2269
 2734SOL    MW410991   3.844   3.584   4.242 -0.0515 -0.1187 -0.3338
 2735SOL     OW10992   2.471   3.053   4.137 -0.3722 -0.2120 -0.3476
 2735SOL    HW210993   2.460   2.960   4.155 -0.7105 -0.6295 -2.5512
 2735SOL    HW310994   2.556   3.075   4.175 -0.9901 -1.0326  1.5794
 2735SOL    MW410995   2.481   3.044   4.144 -0.4983 -0.3755 -0.3843
 2736SOL     OW10996   3.358   2.031   4.307 -0.7838 -0.6846 -0.4499
 2736SOL    HW210997   3.440   1.990   4.280 -1.3525 -1.0588 -1.6330
 2736SOL    HW310998   3.366   2.122   4.277 -1.1147 -0.9157 -1.2439
 2736SOL    MW410999   3.370   2.038   4.300 -0.9022 -0.7644 -0.7105
 2737SOL     OW11000   2.726   1.107   4.711 -0.0192 -0.8495  0.3737
 2737SOL    HW211001   2.785   1.107   4.635 -0.5449  0.0626 -0.0337
 2737SOL    HW311002   2.638   1.102   4.674 -0.4463  2.7061  0.7730
 2737SOL    MW411003   2.722   1.106   4.696 -0.1447 -0.2600  0.3724
 2738SOL     OW11004   3.814   2.289   4.837 -0.0319  0.0474  0.0047
 2738SOL    HW211005   3.812   2.231   4.761 -0.3848  1.4173 -1.0427
 2738SOL    HW311006   3.722   2.302   4.860 -0.0402  1.5599 -0.8300
 2738SOL    MW411007   3.802   2.283   4.830 -0.0796  0.4280 -0.2437
 2739SOL     OW11008   0.725   4.352   4.549  0.6184  0.1666  0.3375
 2739SOL    HW211009   0.696   4.267   4.582  0.8573  0.2817  0.8446
 2739SOL    HW311010   0.817   4.339   4.524  0.4734  0.1116 -0.1763
 2739SOL    MW411011   0.733   4.339   4.550  0.6308  0.1750  0.3366
 2740SOL     OW11012   0.910   2.523   4.232  0.1831  0.4287 -0.3471
 2740SOL    HW211013   0.888   2.524   4.325  1.1892 -1.4479 -0.0716
 2740SOL    HW311014   0.841   2.471   4.191  0.6992 -0.2392 -0.3807
 2740SOL    MW411015   0.898   2.516   4.239  0.3839  0.0932 -0.3152
 2741SOL     OW11016   0.255   0.213   4.685 -0.3620 -0.2417 -0.1438
 2741SOL    HW211017   0.185   0.156   4.653 -1.4151  0.2900  1.1391
 2741SOL    HW311018   0.243   0.214   4.780  0.0152  1.6300 -0.0938
 2741SOL    MW411019   0.244   0.205   4.694 -0.4512  0.0754  0.0319
 2742SOL     OW11020   1.860   0.310   4.296 -0.2182  0.0480 -0.9459
 2742SOL    HW211021   1.841   0.217   4.285  0.2335 -0.2384  0.5487
 2742SOL    HW311022   1.804   0.337   4.369  0.2392  0.7671 -0.8538
 2742SOL    MW411023   1.850   0.301   4.304 -0.0982  0.1051 -0.7367
 2743SOL     OW11024   1.994   4.544   4.134  0.0230  0.1546  0.7450
 2743SOL    HW211025   2.006   4.581   4.046  0.5818 -0.3318  0.6142
 2743SOL    HW311026   2.083   4.530   4.167 -0.1825 -0.7635  0.9222
 2743SOL    MW411027   2.007   4.547   4.127  0.0696 -0.0305  0.7505
 2744SOL     OW11028   3.017   4.428   4.337 -0.1523  0.4300  0.3636
 2744SOL    HW211029   3.080   4.473   4.393 -0.1173 -0.3523  0.9543
 2744SOL    HW311030   2.971   4.499   4.292  0.2092  1.0499  0.9533
 2744SOL    MW411031   3.019   4.443   4.339 -0.1001  0.4086  0.5198
 2745SOL     OW11032   0.625   3.176   4.570  0.0267 -0.2231  0.6235
 2745SOL    HW211033   0.718   3.191   4.555 -0.0709  0.2304  0.4624
 2745SOL    HW311034   0.616   3.080   4.573  0.5435 -0.2588  0.9547
 2745SOL    MW411035   0.636   3.165   4.568  0.0821 -0.1681  0.6456
 2746SOL     OW11036   4.404   1.132   4.635 -0.2132 -0.5867  0.1667
 2746SOL    HW211037   4.452   1.184   4.700  0.5188 -1.8499  0.6497
 2746SOL    HW311038   4.324   1.183   4.618  0.2436  0.4346  1.0105
 2746SOL    MW411039   4.400   1.146   4.641 -0.0563 -0.6187  0.3419
 2747SOL     OW11040   0.679   3.613   4.257 -0.0679 -0.1825 -0.7186
 2747SOL    HW211041   0.753   3.562   4.225  0.1317  0.8827 -2.0212
 2747SOL    HW311042   0.602   3.562   4.231  0.1635 -0.5068 -0.7691
 2747SOL    MW411043   0.679   3.599   4.249 -0.0111 -0.0849 -0.8974
 2748SOL     OW11044   1.816   2.503   4.281 -0.1683  0.4425  0.0438
 2748SOL    HW211045   1.776   2.549   4.356  0.1187  1.2658 -0.3006
 2748SOL    HW311046   1.751   2.436   4.257  0.1209 -0.4034  1.5728
 2748SOL    MW411047   1.802   2.500   4.288 -0.0924  0.4396  0.2003
 2749SOL     OW11048   0.457   3.764   4.589  0.1533  0.0687  0.0753
 2749SOL    HW211049   0.541   3.721   4.574 -0.2511 -0.9837  0.6996
 2749SOL    HW311050   0.394   3.691   4.592 -1.0135  0.9585 -1.9721
 2749SOL    MW411051   0.460   3.749   4.587 -0.0540  0.0470 -0.1125
 2750SOL     OW11052   2.470   3.716   4.645 -0.1042  0.2480  0.3775
 2750SOL    HW211053   2.392   3.662   4.651 -0.3105  0.3830 -0.9155
 2750SOL    HW311054   2.446   3.787   4.586  0.9928  0.2928 -0.0380
 2750SOL    MW411055   2.457   3.718   4.638  0.0134  0.2716  0.1521
 2751SOL     OW11056   0.697   4.646   4.189  0.0796  0.0905  0.0178
 2751SOL    HW211057   0.683   4.640   4.095 -0.5513  0.5770  0.0770
 2751SOL    HW311058   0.715   4.556   4.216 -1.9326 -0.4108 -0.2350
 2751SOL    MW411059   0.697   4.634   4.180 -0.2691  0.0887 -0.0072
 2752SOL     OW11060   2.209   2.703   4.153 -0.2789 -0.0707  0.5468
 2752SOL    HW211061   2.292   2.737   4.187 -0.4330 -0.7895  1.6826
 2752SOL    HW311062   2.142   2.745   4.205 -0.6103  0.0789  0.0065
 2752SOL    MW411063   2.211   2.713   4.164 -0.3431 -0.1459  0.6251
 2753SOL     OW11064   0.315   2.533   4.480  0.1936 -0.4895 -0.2613
 2753SOL    HW211065   0.390   2.493   4.524 -0.6940 -0.6497  1.1437
 2753SOL    HW311066   0.322   2.626   4.499  0.0645 -0.4990 -0.1643
 2753SOL    MW411067   0.326   2.540   4.488  0.0595 -0.5119 -0.0629
 2754SOL     OW11068   1.805   0.044   4.273 -0.1102 -0.4974  0.1643
 2754SOL    HW211069   1.787  -0.004   4.354  0.7962 -1.0027  0.0818
 2754SOL    HW311070   1.861  -0.016   4.222  0.0464  0.1687 -0.4548
 2754SOL    MW411071   1.810   0.029   4.277  0.0300 -0.4762  0.0710
 2755SOL     OW11072   1.170   3.594   4.553  0.0851 -0.6223 -0.1121
 2755SOL    HW211073   1.147   3.603   4.461 -0.9953 -1.1102  0.1049
 2755SOL    HW311074   1.097   3.545   4.592  1.2209 -1.6937  0.7109
 2755SOL    MW411075   1.157   3.589   4.546  0.0924 -0.8280  0.0253
 2756SOL     OW11076   0.340   1.600   4.525 -0.3610 -0.2512  0.0305
 2756SOL    HW211077   0.345   1.505   4.535  0.6591 -0.4978 -2.3034
 2756SOL    HW311078   0.247   1.618   4.511 -0.2903 -1.2106 -1.8170
 2756SOL    MW411079   0.329   1.590   4.524 -0.2171 -0.4103 -0.5212
 2757SOL     OW11080   3.741   0.047   4.551 -0.2814 -0.3231  0.0832
 2757SOL    HW211081   3.728  -0.045   4.574  0.0857 -0.9639 -2.1328
 2757SOL    HW311082   3.836   0.059   4.554 -0.4015  0.3275  1.5681
 2757SOL    MW411083   3.752   0.036   4.554 -0.2489 -0.3218 -0.0134
 2758SOL     OW11084   3.608   0.281   4.656  0.1261  0.2869 -0.2019
 2758SOL    HW211085   3.662   0.207   4.629  0.9745  0.8383 -0.0224
 2758SOL    HW311086   3.659   0.358   4.634 -0.6740  0.8215 -0.2152
 2758SOL    MW411087   3.622   0.281   4.650  0.1326  0.4302 -0.1798
 2759SOL     OW11088   2.984   0.536   4.542  0.7041  0.0839  0.5122
 2759SOL    HW211089   2.905   0.589   4.555  0.0906 -1.2354  2.4072
 2759SOL    HW311090   2.986   0.519   4.448 -1.2936  0.1464  0.4259
 2759SOL    MW411091   2.973   0.540   4.531  0.3593 -0.0819  0.7515
 2760SOL     OW11092   3.439   4.271   4.558 -0.0628 -0.3000  0.1669
 2760SOL    HW211093   3.491   4.207   4.607 -0.0917 -1.8254 -1.7464
 2760SOL    HW311094   3.348   4.245   4.574 -0.0802 -0.6240 -0.4691
 2760SOL    MW411095   3.434   4.259   4.567 -0.0687 -0.5441 -0.1688
 2761SOL     OW11096   2.739   1.656   4.269  0.2681  0.2578  0.4253
 2761SOL    HW211097   2.647   1.636   4.252  0.0198  0.5246  1.3940
 2761SOL    HW311098   2.749   1.749   4.247  0.0751  0.4660  1.1890
 2761SOL    MW411099   2.728   1.666   4.264  0.2100  0.3204  0.6537
 2762SOL     OW11100   0.845   0.393   4.136 -0.4121 -0.2685 -0.3165
 2762SOL    HW211101   0.770   0.432   4.181  0.6901 -0.6405  1.9113
 2762SOL    HW311102   0.859   0.310   4.182 -0.2693 -1.4390 -2.4218
 2762SOL    MW411103   0.837   0.387   4.148 -0.2479 -0.4720 -0.2995
 2763SOL     OW11104   4.107   4.266   4.200 -0.2411  0.2137  1.1319
 2763SOL    HW211105   4.112   4.171   4.204  2.4384  0.1486 -1.7791
 2763SOL    HW311106   4.188   4.296   4.241  0.4335  1.0941 -0.7833
 2763SOL    MW411107   4.119   4.258   4.206  0.2017  0.3214  0.4950
 2764SOL     OW11108   1.600   2.157   4.818  0.3785  0.3563  0.1030
 2764SOL    HW211109   1.543   2.087   4.788  0.6852 -0.1334  0.6724
 2764SOL    HW311110   1.635   2.195   4.737  2.0613 -1.6817 -0.1641
 2764SOL    MW411111   1.597   2.153   4.803  0.6410  0.0226  0.1431
 2765SOL     OW11112   2.140   0.386   4.357 -0.2432  0.3811  0.3412
 2765SOL    HW211113   2.141   0.481   4.349 -0.3518  0.4490  1.1020
 2765SOL    HW311114   2.053   0.360   4.325  0.3939  0.3824 -1.4422
 2765SOL    MW411115   2.128   0.395   4.351 -0.1733  0.3903  0.2060
 2766SOL     OW11116   0.122   4.346   4.697 -0.2924  0.4734  0.0018
 2766SOL    HW211117   0.128   4.259   4.657 -0.6989  0.5466 -0.2332
 2766SOL    HW311118   0.122   4.330   4.791 -2.4583  0.0352 -0.0303
 2766SOL    MW411119   0.123   4.332   4.704 -0.6318  0.4249 -0.0334
 2767SOL     OW11120   1.765   1.667   4.296  0.0006 -0.0363  0.1092
 2767SOL    HW211121   1.771   1.643   4.388 -1.0424 -0.8050 -0.0056
 2767SOL    HW311122   1.748   1.761   4.296  0.9833  0.1465  0.6679
 2767SOL    MW411123   1.763   1.676   4.308 -0.0073 -0.1136  0.1683
 2768SOL     OW11124   0.538   1.811   4.645 -0.1624 -0.1342  0.2201
 2768SOL    HW211125   0.481   1.886   4.629  0.0105 -0.0437  0.0419
 2768SOL    HW311126   0.481   1.735   4.631 -0.2320 -0.0444  0.0219
 2768SOL    MW411127   0.523   1.811   4.641 -0.1488 -0.1103  0.1702
 2769SOL     OW11128   2.761   1.919   4.199 -0.7689 -0.2191  0.2489
 2769SOL    HW211129   2.752   1.915   4.104 -1.0118 -0.9514  0.2919
 2769SOL    HW311130   2.678   1.957   4.229 -0.3057  0.9103  0.1108
 2769SOL    MW411131   2.749   1.923   4.191 -0.7396 -0.1668  0.2360
 2770SOL     OW11132   0.714   4.377   4.266 -0.3787  0.0120  0.0922
 2770SOL    HW211133   0.705   4.371   4.361  2.1230  2.3841  0.5389
 2770SOL    HW311134   0.633   4.340   4.232 -1.5425 -0.3940  3.1559
 2770SOL    MW411135   0.702   4.372   4.274 -0.2022  0.2713  0.5555
 2771SOL     OW11136   1.665   2.592   4.493  0.0875  0.4718 -0.1477
 2771SOL    HW211137   1.614   2.514   4.515  0.1654 -0.3124 -2.5823
 2771SOL    HW311138   1.750   2.578   4.536 -0.5835  0.2000  1.1188
 2771SOL    MW411139   1.669   2.580   4.502  0.0092  0.3324 -0.3014
 2772SOL     OW11140   4.443   3.901   4.495 -0.1794  0.1500  0.2526
 2772SOL    HW211141   4.355   3.939   4.499 -0.0633  0.4121  0.3273
 2772SOL    HW311142   4.430   3.809   4.517 -0.5262  0.0455 -0.3682
 2772SOL    MW411143   4.429   3.894   4.499 -0.2093  0.1709  0.1807
 2773SOL     OW11144   3.795   2.077   4.342 -0.2941  0.3780  0.1580
 2773SOL    HW211145   3.784   2.148   4.278  1.5818  1.1904  0.7044
 2773SOL    HW311146   3.728   2.013   4.318  0.2960  0.7008 -2.5671
 2773SOL    MW411147   3.785   2.078   4.330  0.0312  0.5279 -0.1297
 2774SOL     OW11148   0.433   4.031   4.526  0.1237 -0.1436 -0.2888
 2774SOL    HW211149   0.426   3.937   4.546 -0.9668 -0.1517 -0.6646
 2774SOL    HW311150   0.507   4.061   4.578  0.6360 -1.2629 -0.3421
 2774SOL    MW411151   0.442   4.022   4.535  0.0474 -0.2923 -0.3452
 2775SOL     OW11152   1.583   3.665   4.227  0.0101 -0.3381  0.1004
 2775SOL    HW211153   1.594   3.646   4.320  0.9577 -2.4928 -0.4234
 2775SOL    HW311154   1.569   3.759   4.224  0.7544 -0.1124  2.3712
 2775SOL    MW411155   1.583   3.675   4.239  0.2334 -0.5925  0.3309
 2776SOL     OW11156   4.006   1.501   4.539  0.5936  0.1938 -0.0615
 2776SOL    HW211157   3.945   1.476   4.608 -0.5450  1.1960 -0.6769
 2776SOL    HW311158   4.068   1.428   4.533 -0.3750 -0.7084  0.7620
 2776SOL    MW411159   4.006   1.488   4.547  0.3157  0.2072 -0.0339
 2777SOL     OW11160   0.244   2.845   4.243 -0.0771  0.0122  0.1575
 2777SOL    HW211161   0.228   2.932   4.206  0.4084 -0.2257 -0.6279
 2777SOL    HW311162   0.281   2.862   4.329 -1.9950  0.5815  0.8974
 2777SOL    MW411163   0.247   2.859   4.249 -0.2661  0.0560  0.1516
 2778SOL     OW11164   2.970   1.976   4.555 -0.2578 -0.1834  0.0058
 2778SOL    HW211165   2.936   1.887   4.543 -0.2711 -0.2938  0.8532
 2778SOL    HW311166   3.056   1.963   4.595 -0.0393  0.1706 -0.3488
 2778SOL    MW411167   2.977   1.962   4.559 -0.2306 -0.1513  0.0706
 2779SOL     OW11168   3.660   4.459   4.636 -0.0325 -0.3459  0.1692
 2779SOL    HW211169   3.734   4.399   4.628  0.4463  0.4229 -1.2007
 2779SOL    HW311170   3.585   4.402   4.650  0.7758 -1.1464  1.4318
 2779SOL    MW411171   3.660   4.444   4.637  0.1373 -0.3495  0.1550
 2780SOL     OW11172   3.275   2.991   4.737 -0.5665  0.0034  0.3953
 2780SOL    HW211173   3.259   2.971   4.829  0.1047 -1.4062  0.2268
 2780SOL    HW311174   3.244   2.913   4.690 -1.5210  0.9839 -0.6260
 2780SOL    MW411175   3.269   2.978   4.743 -0.6039 -0.0534  0.2379
 2781SOL     OW11176   2.594   4.200   4.196  0.1718  0.3175 -0.2099
 2781SOL    HW211177   2.671   4.215   4.252  0.1906  0.5984 -0.3072
 2781SOL    HW311178   2.624   4.225   4.108 -0.0331  0.4412 -0.2458
 2781SOL    MW411179   2.608   4.205   4.192  0.1471  0.3710 -0.2279
 2782SOL     OW11180   3.413   2.286   4.207 -0.1918 -0.0001  0.1088
 2782SOL    HW211181   3.404   2.291   4.112  1.1091 -0.2965 -0.0380
 2782SOL    HW311182   3.495   2.331   4.226 -0.1619 -0.4320  1.0358
 2782SOL    MW411183   3.422   2.293   4.197 -0.0162 -0.0961  0.2122
 2783SOL     OW11184   0.232   0.661   4.690 -0.2715 -0.4430  0.2034
 2783SOL    HW211185   0.272   0.741   4.655  0.2819 -1.0138 -0.4904
 2783SOL    HW311186   0.146   0.689   4.721 -0.5278  0.2127 -1.0443
 2783SOL    MW411187   0.226   0.675   4.690 -0.2323 -0.4317 -0.0529
 2784SOL     OW11188   2.059   1.245   4.591 -0.1440 -0.1635 -0.7214
 2784SOL    HW211189   2.060   1.277   4.501  2.0860 -0.1149 -0.6952
 2784SOL    HW311190   2.105   1.161   4.587 -0.5964 -0.4605  0.2623
 2784SOL    MW411191   2.065   1.238   4.579  0.0904 -0.1963 -0.5879
 2785SOL     OW11192   1.569   1.224   4.282  0.0567  0.3711 -0.2309
 2785SOL    HW211193   1.582   1.196   4.373  0.3218  1.0166 -0.0671
 2785SOL    HW311194   1.490   1.178   4.253  0.1867 -0.1298  0.2019
 2785SOL    MW411195   1.560   1.214   4.290  0.1090  0.3902 -0.1526
 2786SOL     OW11196   0.939   3.465   4.628  0.2115  0.3465 -0.2531
 2786SOL    HW211197   0.913   3.430   4.713  1.2067  0.0002 -0.0840
 2786SOL    HW311198   0.860   3.508   4.594 -0.3601 -0.0482  0.5677
 2786SOL    MW411199   0.925   3.466   4.635  0.2673  0.2487 -0.1225
 2787SOL     OW11200   3.537   2.410   4.948  0.3423  0.2585  0.3111
 2787SOL    HW211201   3.557   2.429   5.040  0.1047  1.0618  0.2045
 2787SOL    HW311202   3.441   2.411   4.945  0.2337 -3.1565  0.7421
 2787SOL    MW411203   3.527   2.413   4.960  0.2964 -0.0863  0.3533
 2788SOL     OW11204   0.026   2.505   4.464  0.5733  0.2704 -0.5310
 2788SOL    HW211205   0.118   2.493   4.489  0.4132 -0.1344 -0.1327
 2788SOL    HW311206   0.007   2.431   4.407  0.3982  0.1751 -0.3490
 2788SOL    MW411207   0.036   2.494   4.460  0.5291  0.2046 -0.4535
 2789SOL     OW11208   3.141   1.964   4.149  0.1842 -0.5573 -0.1959
 2789SOL    HW211209   3.222   1.983   4.197  0.4871  0.5840 -1.1231
 2789SOL    HW311210   3.074   2.017   4.193  0.2786 -0.2178 -0.4585
 2789SOL    MW411211   3.143   1.973   4.161  0.2367 -0.3620 -0.3533
 2790SOL     OW11212   0.468   1.131   4.547 -0.1314  0.1074 -0.0004
 2790SOL    HW211213   0.403   1.201   4.552  0.7002  0.9722 -1.2802
 2790SOL    HW311214   0.416   1.051   4.554 -1.2573  0.8026 -0.1719
 2790SOL    MW411215   0.452   1.130   4.549 -0.1703  0.3133 -0.1912
 2791SOL     OW11216   3.600   0.865   4.249 -0.6004 -0.2609  0.1394
 2791SOL    HW211217   3.600   0.956   4.218 -0.2137 -0.2510  0.1597
 2791SOL    HW311218   3.582   0.871   4.343 -0.6200 -0.2091  0.1321
 2791SOL    MW411219   3.598   0.878   4.257 -0.5519 -0.2528  0.1411
 2792SOL     OW11220   3.380   0.687   4.155 -0.1704  0.2216  0.2646
 2792SOL    HW211221   3.299   0.732   4.179 -0.1359  0.6248 -0.3485
 2792SOL    HW311222   3.450   0.748   4.180 -0.0372 -0.2742  1.1145
 2792SOL    MW411223   3.379   0.701   4.161 -0.1481  0.2095  0.2961
 2793SOL     OW11224   3.598   0.067   4.293 -0.1745  0.1939  0.1767
 2793SOL    HW211225   3.634   0.078   4.381  1.2288 -2.3335 -0.0364
 2793SOL    HW311226   3.607   0.153   4.253 -0.7092  1.3595  2.4332
 2793SOL    MW411227   3.604   0.080   4.300 -0.0598  0.0143  0.4458
 2794SOL     OW11228   0.016   3.994   4.220  0.2175 -0.5358 -0.1991
 2794SOL    HW211229   0.094   3.951   4.186  0.7090 -0.2426  0.5359
 2794SOL    HW311230   0.012   3.966   4.312 -1.8242 -2.3902 -0.8039
 2794SOL    MW411231   0.026   3.985   4.228  0.0130 -0.7417 -0.1817
 2795SOL     OW11232   3.487   1.613   4.547  0.1339  0.2119 -0.4564
 2795SOL    HW211233   3.488   1.520   4.571 -1.3938  0.2157 -0.3390
 2795SOL    HW311234   3.522   1.615   4.458 -0.0304 -0.4931 -0.5366
 2795SOL    MW411235   3.492   1.601   4.538 -0.0894  0.1193 -0.4511
 2796SOL     OW11236   0.063   1.617   4.509 -0.1752 -0.2608 -0.0210
 2796SOL    HW211237   0.002   1.574   4.568 -1.1512  1.1804  0.0688
 2796SOL    HW311238   0.043   1.710   4.518  1.4720  0.1692 -0.6360
 2796SOL    MW411239   0.052   1.624   4.518 -0.0866 -0.0138 -0.0901
 2797SOL     OW11240   3.625   2.448   4.257 -0.6028  0.0275  0.1303
 2797SOL    HW211241   3.698   2.411   4.208 -0.8486  0.5666 -0.6617
 2797SOL    HW311242   3.647   2.432   4.349  0.2762 -0.2427 -0.1195
 2797SOL    MW411243   3.637   2.441   4.263 -0.5193  0.0629 -0.0076
 2798SOL     OW11244   1.401   1.001   4.551  0.3445 -0.2276 -0.1753
 2798SOL    HW211245   1.319   1.046   4.571 -0.3165 -1.3475 -0.3180
 2798SOL    HW311246   1.385   0.958   4.467  0.4366 -1.9955  0.7030
 2798SOL    MW411247   1.388   1.001   4.542  0.2695 -0.6088 -0.0782
 2799SOL     OW11248   0.077   0.036   4.545  0.1665 -0.4183  0.0966
 2799SOL    HW211249   0.058   0.044   4.452  0.3474 -1.7421 -0.0716
 2799SOL    HW311250   0.007  -0.021   4.579  1.1716 -1.5019  0.3828
 2799SOL    MW411251   0.065   0.029   4.537  0.3230 -0.7359  0.1121
 2800SOL     OW11252   0.001   1.920   4.519  0.4954  0.1076 -0.2634
 2800SOL    HW211253   0.042   1.970   4.589 -0.9892 -0.7082  1.2169
 2800SOL    HW311254  -0.093   1.932   4.532  0.1087 -2.7114 -0.0849
 2800SOL    MW411255  -0.006   1.928   4.530  0.2484 -0.3719 -0.0439
 2801SOL     OW11256   3.590   2.558   4.711  0.0958 -0.4314  0.0398
 2801SOL    HW211257   3.583   2.512   4.794 -1.1371 -0.2576  0.0503
 2801SOL    HW311258   3.500   2.564   4.679  0.2735  1.5710 -0.1654
 2801SOL    MW411259   3.577   2.553   4.718 -0.0432 -0.1442  0.0143
 2802SOL     OW11260   2.169   4.056   4.362 -0.1521  0.0879 -0.0712
 2802SOL    HW211261   2.222   4.125   4.324  0.6310 -0.0793  0.6943
 2802SOL    HW311262   2.121   4.018   4.288  1.4943 -0.3718 -0.9254
 2802SOL    MW411263   2.169   4.060   4.347  0.1686  0.0048 -0.0834
 2803SOL     OW11264   4.286   4.609   4.194  0.0727  0.3326 -0.2193
 2803SOL    HW211265   4.367   4.653   4.220 -0.2709  2.4384 -2.4688
 2803SOL    HW311266   4.217   4.662   4.234 -0.2952  0.8006 -1.4587
 2803SOL    MW411267   4.288   4.622   4.203 -0.0205  0.6723 -0.6800
 2804SOL     OW11268   2.817   1.988   4.793 -0.1493  0.2429 -0.2612
 2804SOL    HW211269   2.775   2.074   4.801 -1.2171 -0.3745  1.0256
 2804SOL    HW311270   2.866   1.993   4.711 -1.3848  1.5853 -0.9510
 2804SOL    MW411271   2.818   2.000   4.783 -0.4532  0.3384 -0.1822
 2805SOL     OW11272   0.647   1.317   4.259 -0.1027 -0.0434  0.1535
 2805SOL    HW211273   0.671   1.324   4.351 -1.8082 -0.0330  0.6244
 2805SOL    HW311274   0.631   1.407   4.231  0.4845 -0.0394 -0.1696
 2805SOL    MW411275   0.648   1.330   4.267 -0.2503 -0.0415  0.1731
 2806SOL     OW11276   0.541   4.556   4.617 -0.1163 -0.0501  0.3287
 2806SOL    HW211277   0.470   4.501   4.584  0.5054 -0.4869 -0.2929
 2806SOL    HW311278   0.620   4.507   4.599  0.4614  1.0802 -0.2994
 2806SOL    MW411279   0.542   4.543   4.610  0.0420  0.0415  0.1645
 2807SOL     OW11280   4.335   2.741   4.531  1.0300 -0.2657  0.1148
 2807SOL    HW211281   4.401   2.671   4.530  1.0981 -0.2112  0.4660
 2807SOL    HW311282   4.330   2.771   4.441  0.1987 -1.4676 -0.2533
 2807SOL    MW411283   4.343   2.736   4.519  0.9284 -0.4170  0.1125
 2808SOL     OW11284   2.479   2.776   4.196  0.6729 -0.0230  0.0727
 2808SOL    HW211285   2.506   2.764   4.287  0.5972 -1.5661 -0.0856
 2808SOL    HW311286   2.520   2.703   4.149  0.3159  0.4806 -1.0343
 2808SOL    MW411287   2.488   2.765   4.202  0.6158 -0.1602 -0.0939
 2809SOL     OW11288   3.886   3.709   4.491  0.0174  0.7592  0.4434
 2809SOL    HW211289   3.839   3.641   4.539  1.0151  0.3337  0.8319
 2809SOL    HW311290   3.971   3.714   4.534  0.5192  1.1590 -0.5877
 2809SOL    MW411291   3.891   3.701   4.503  0.2151  0.7558  0.3586
 2810SOL     OW11292   2.198   1.001   4.497  0.1413  0.1509 -0.5023
 2810SOL    HW211293   2.285   1.022   4.529 -0.2232 -0.2520  0.7940
 2810SOL    HW311294   2.207   0.995   4.402  0.9292  2.9136 -0.6268
 2810SOL    MW411295   2.210   1.003   4.488  0.1974  0.4622 -0.3471
 2811SOL     OW11296   3.995   1.649   4.317 -0.3473 -0.8076 -0.0625
 2811SOL    HW211297   4.067   1.622   4.261  1.3273  2.4930  0.3820
 2811SOL    HW311298   4.001   1.591   4.393  0.6520 -1.8187 -0.8974
 2811SOL    MW411299   4.005   1.637   4.320  0.0057 -0.5056 -0.1140
 2812SOL     OW11300   1.620   0.589   4.475  0.0336  0.3988  0.2361
 2812SOL    HW211301   1.600   0.600   4.382  0.0053  0.7232  0.2787
 2812SOL    HW311302   1.546   0.631   4.520 -0.6554 -0.9993  0.4083
 2812SOL    MW411303   1.607   0.596   4.469 -0.0610  0.2571  0.2646
 2813SOL     OW11304   1.736   0.445   4.084  0.2933  0.0192  0.2175
 2813SOL    HW211305   1.656   0.476   4.128  1.0273  1.2832  0.6851
 2813SOL    HW311306   1.787   0.404   4.153  1.1398  1.3915  0.4102
 2813SOL    MW411307   1.732   0.444   4.099  0.5020  0.3670  0.3047
 2814SOL     OW11308   2.315   4.229   4.196 -0.0788  0.2007  0.6064
 2814SOL    HW211309   2.286   4.320   4.185  0.3590  0.2041 -0.6737
 2814SOL    HW311310   2.411   4.235   4.196 -0.0359 -0.3729 -0.5958
 2814SOL    MW411311   2.324   4.242   4.194 -0.0153  0.1254  0.2785
 2815SOL     OW11312   1.714   1.503   4.864 -0.1046 -0.0143  0.5265
 2815SOL    HW211313   1.791   1.553   4.891  0.2629 -0.4374  0.2585
 2815SOL    HW311314   1.749   1.424   4.823 -0.6855 -0.5446  1.0392
 2815SOL    MW411315   1.729   1.499   4.862 -0.1328 -0.1401  0.5584
 2816SOL     OW11316   0.229   3.589   4.288 -0.2495  0.4171  0.0919
 2816SOL    HW211317   0.155   3.542   4.249  1.2952 -0.7343 -1.4766
 2816SOL    HW311318   0.226   3.566   4.381 -1.4838 -0.1277 -0.0752
 2816SOL    MW411319   0.219   3.580   4.295 -0.2086  0.1934 -0.1373
 2817SOL     OW11320   3.790   1.517   4.156 -0.6544 -0.4313 -0.2082
 2817SOL    HW211321   3.798   1.428   4.188 -1.4707 -1.0495 -1.6818
 2817SOL    HW311322   3.869   1.561   4.188 -0.9516 -1.2651  1.7613
 2817SOL    MW411323   3.802   1.511   4.164 -0.8018 -0.6227 -0.1431
 2818SOL     OW11324   1.822   2.008   4.881 -0.2372 -0.1760 -0.0483
 2818SOL    HW211325   1.884   2.081   4.888 -0.1132 -0.4514  1.9920
 2818SOL    HW311326   1.737   2.051   4.867  0.1697  0.2554 -1.2994
 2818SOL    MW411327   1.819   2.024   4.880 -0.1671 -0.1552  0.0563
 2819SOL     OW11328   2.127   2.054   4.719  0.0929 -0.3312  0.4204
 2819SOL    HW211329   2.072   2.118   4.764  0.9067  0.6758 -0.0044
 2819SOL    HW311330   2.214   2.092   4.719  0.4993 -1.2248 -0.2655
 2819SOL    MW411331   2.131   2.067   4.725  0.2537 -0.3161  0.2742
 2820SOL     OW11332   1.539   2.442   4.826  0.2336  0.0651 -0.0603
 2820SOL    HW211333   1.549   2.349   4.845  0.1267  0.0093 -0.2764
 2820SOL    HW311334   1.501   2.445   4.738 -0.5116  0.2986  0.2647
 2820SOL    MW411335   1.535   2.430   4.817  0.1211  0.0887 -0.0458
 2821SOL     OW11336   2.268   3.609   4.371  0.2667  0.3779  0.3288
 2821SOL    HW211337   2.318   3.684   4.403  1.1484 -0.0495 -0.0073
 2821SOL    HW311338   2.181   3.643   4.353  0.7265  1.3704 -0.0602
 2821SOL    MW411339   2.263   3.623   4.373  0.4437  0.4528  0.2327
 2822SOL     OW11340   2.276   1.104   4.213 -0.2345 -0.1593  0.4581
 2822SOL    HW211341   2.199   1.157   4.234 -0.9796 -1.9271  2.4064
 2822SOL    HW311342   2.347   1.148   4.260 -0.3950  0.4507  0.1406
 2822SOL    MW411343   2.275   1.117   4.222 -0.3538 -0.3121  0.6733
 2823SOL     OW11344   2.610   2.538   4.111  0.2571  0.1415 -0.4639
 2823SOL    HW211345   2.580   2.449   4.132 -0.0791  0.4600  0.4380
 2823SOL    HW311346   2.681   2.554   4.173 -0.0845  0.7314 -0.2265
 2823SOL    MW411347   2.616   2.528   4.122  0.1678  0.2613 -0.3138
 2824SOL     OW11348   2.992   1.518   4.691 -0.4543  0.5433 -0.3988
 2824SOL    HW211349   2.991   1.593   4.750  2.2134 -1.4597  2.3901
 2824SOL    HW311350   2.908   1.474   4.705 -1.0223  1.6556 -0.2717
 2824SOL    MW411351   2.981   1.522   4.701 -0.1774  0.4258 -0.0143
 2825SOL     OW11352   0.029   2.673   4.205 -0.1672 -0.5486 -0.1096
 2825SOL    HW211353   0.056   2.605   4.266  0.9782  0.8711  0.9926
 2825SOL    HW311354   0.098   2.739   4.210 -2.1223  1.5559  0.2017
 2825SOL    MW411355   0.042   2.673   4.214 -0.2740 -0.0839  0.0768
 2826SOL     OW11356   1.023   0.430   4.495  0.0349 -0.1251  0.4109
 2826SOL    HW211357   0.944   0.377   4.503 -0.1389  0.0341 -0.2255
 2826SOL    HW311358   0.996   0.518   4.521 -0.3523  0.2353 -1.1470
 2826SOL    MW411359   1.009   0.435   4.499 -0.0391 -0.0566  0.1211
 2827SOL     OW11360   2.556   1.374   4.574 -0.3973 -0.0248  0.1170
 2827SOL    HW211361   2.624   1.392   4.639  0.0677  0.7652 -0.5754
 2827SOL    HW311362   2.474   1.396   4.619 -0.2296 -1.2998  1.0656
 2827SOL    MW411363   2.554   1.379   4.588 -0.3138 -0.0888  0.1507
 2828SOL     OW11364   3.224   1.658   4.496  0.2582  0.0292  0.1384
 2828SOL    HW211365   3.180   1.594   4.552  0.1514  0.3983  0.4760
 2828SOL    HW311366   3.317   1.646   4.515  0.2244  0.1305  0.3699
 2828SOL    MW411367   3.230   1.648   4.506  0.2396  0.0912  0.2131
 2829SOL     OW11368   3.159   4.209   4.222  0.4029 -0.2685  0.1533
 2829SOL    HW211369   3.131   4.141   4.284  0.9831 -0.9674 -0.3489
 2829SOL    HW311370   3.109   4.287   4.248  0.3283 -0.6676  1.2354
 2829SOL    MW411371   3.148   4.211   4.234  0.4697 -0.4144  0.2298
 2830SOL     OW11372   3.312   0.877   4.525  0.2647 -0.2033  0.0482
 2830SOL    HW211373   3.286   0.791   4.559  1.7126 -0.4932  0.4436
 2830SOL    HW311374   3.251   0.938   4.566 -0.1698 -0.9379  0.5086
 2830SOL    MW411375   3.300   0.874   4.535  0.3984 -0.3385  0.1612
 2831SOL     OW11376   3.220   1.344   4.715 -0.0048  0.2014 -0.0696
 2831SOL    HW211377   3.186   1.258   4.740  1.0799 -0.4171 -0.6765
 2831SOL    HW311378   3.143   1.400   4.711 -0.5678 -0.3935  1.7328
 2831SOL    MW411379   3.205   1.340   4.718  0.0641  0.0414  0.0877
 2832SOL     OW11380   4.091   2.654   4.608  0.2196 -0.4162  0.2159
 2832SOL    HW211381   4.180   2.690   4.607 -0.2054  0.7354  1.6534
 2832SOL    HW311382   4.095   2.581   4.669  0.6455 -1.6850 -1.2974
 2832SOL    MW411383   4.103   2.649   4.616  0.2198 -0.4315  0.2055
 2833SOL     OW11384   0.340   1.972   4.329 -0.5730  0.3429 -0.0527
 2833SOL    HW211385   0.247   1.988   4.312 -0.4263  0.1258 -1.0593
 2833SOL    HW311386   0.385   2.025   4.264 -0.0368 -2.0822 -1.7189
 2833SOL    MW411387   0.333   1.981   4.318 -0.4829 -0.0056 -0.4048
 2834SOL     OW11388   2.921   4.629   4.133  0.4237 -0.3694  0.1712
 2834SOL    HW211389   2.999   4.669   4.171 -0.4724  0.0121  1.6549
 2834SOL    HW311390   2.848   4.663   4.186 -0.7896 -0.4517 -1.3944
 2834SOL    MW411391   2.921   4.639   4.145  0.1454 -0.3295  0.1602
 2835SOL     OW11392   3.076   3.395   4.301 -0.5241 -0.0390 -0.4457
 2835SOL    HW211393   3.113   3.310   4.278  0.3277  0.0002  0.7136
 2835SOL    HW311394   3.099   3.452   4.228  0.2176 -0.4432 -0.5339
 2835SOL    MW411395   3.084   3.391   4.288 -0.3140 -0.0873 -0.3042
 2836SOL     OW11396   2.541   0.919   4.327  0.1759 -0.4620  0.3178
 2836SOL    HW211397   2.484   0.859   4.279 -0.6288  0.7663 -0.2614
 2836SOL    HW311398   2.566   0.985   4.263  1.3315 -0.3549  0.8722
 2836SOL    MW411399   2.537   0.920   4.313  0.2222 -0.2859  0.3142
 2837SOL     OW11400   2.986   2.843   4.956 -0.4410  0.4965 -0.3057
 2837SOL    HW211401   2.953   2.930   4.932 -0.2459  0.5510 -0.3758
 2837SOL    HW311402   2.974   2.791   4.877 -1.2654  0.2557 -0.0277
 2837SOL    MW411403   2.980   2.848   4.943 -0.5243  0.4718 -0.2785
 2838SOL     OW11404   0.624   2.194   4.537  0.3180  0.0513 -0.2941
 2838SOL    HW211405   0.633   2.158   4.448  0.9224  0.0195 -0.2189
 2838SOL    HW311406   0.555   2.142   4.577  0.7187 -0.5770 -0.4193
 2838SOL    MW411407   0.616   2.183   4.530  0.4506 -0.0358 -0.3009
 2839SOL     OW11408   4.445   0.783   4.669 -0.2954  0.0819  0.0044
 2839SOL    HW211409   4.405   0.863   4.704  0.1314  0.2711  0.0682
 2839SOL    HW311410   4.474   0.807   4.582 -0.6046 -0.1481 -0.1631
 2839SOL    MW411411   4.444   0.797   4.662 -0.2794  0.0765 -0.0095
 2840SOL     OW11412   3.895   2.847   4.534  0.0766 -0.0597 -0.2946
 2840SOL    HW211413   3.880   2.822   4.443 -1.0464 -0.7375  0.0619
 2840SOL    HW311414   3.958   2.782   4.567  0.5301  0.2227 -0.6042
 2840SOL    MW411415   3.901   2.835   4.526 -0.0119 -0.1118 -0.2880
 2841SOL     OW11416   1.770   1.763   4.619 -0.0539  0.2832 -0.0480
 2841SOL    HW211417   1.811   1.755   4.706  0.2573 -1.7451 -0.3574
 2841SOL    HW311418   1.795   1.851   4.589  2.6294 -0.2526  0.5099
 2841SOL    MW411419   1.779   1.774   4.627  0.3412 -0.0551 -0.0148
 2842SOL     OW11420   0.013   3.232   4.330  0.0610 -0.0647  0.2014
 2842SOL    HW211421   0.003   3.295   4.259 -0.7116 -0.5178 -0.0910
 2842SOL    HW311422  -0.066   3.179   4.327  0.2554 -0.4190  1.0746
 2842SOL    MW411423   0.001   3.233   4.320 -0.0153 -0.1712  0.2785
 2843SOL     OW11424   2.126   1.779   4.780  0.0324  0.7728  0.4159
 2843SOL    HW211425   2.134   1.873   4.765 -0.8615  1.1669  2.3532
 2843SOL    HW311426   2.214   1.752   4.808  0.8882  0.5941 -2.3029
 2843SOL    MW411427   2.139   1.788   4.781  0.0272  0.8012  0.3123
 2844SOL     OW11428   2.797   3.350   4.306 -0.4653  0.0339  0.1768
 2844SOL    HW211429   2.759   3.352   4.394  0.9481 -0.5763  0.8215
 2844SOL    HW311430   2.890   3.366   4.320 -0.2533  0.0935 -1.2367
 2844SOL    MW411431   2.804   3.353   4.319 -0.2503 -0.0391  0.0749
 2845SOL     OW11432   2.404   2.188   4.768 -0.3096  0.2727  0.6710
 2845SOL    HW211433   2.352   2.262   4.799 -1.3289 -0.4210  0.6579
 2845SOL    HW311434   2.487   2.196   4.814 -1.0563  0.4258  2.0360
 2845SOL    MW411435   2.408   2.199   4.778 -0.5426  0.2015  0.8492
 2846SOL     OW11436   1.545   1.494   4.216  0.1958 -0.2163 -0.1503
 2846SOL    HW211437   1.621   1.539   4.253 -0.4766  1.1514 -0.4077
 2846SOL    HW311438   1.558   1.402   4.239  0.3431  0.4434  2.5221
 2846SOL    MW411439   1.557   1.488   4.224  0.1266  0.0513  0.1683
 2847SOL     OW11440   1.552   0.579   4.218 -0.1196  0.0770  0.1476
 2847SOL    HW211441   1.542   0.664   4.175  0.6972  0.0108 -0.1755
 2847SOL    HW311442   1.476   0.529   4.188  1.2120 -0.4879 -2.4655
 2847SOL    MW411443   1.541   0.584   4.208  0.1639 -0.0063 -0.2398
 2848SOL     OW11444   3.839   0.722   4.189  0.4746  0.2984  0.3323
 2848SOL    HW211445   3.833   0.738   4.095 -0.3723 -0.9433  0.1608
 2848SOL    HW311446   3.754   0.748   4.224  0.2297 -0.7182  0.5172
 2848SOL    MW411447   3.827   0.727   4.182  0.3307  0.0005  0.3343
 2849SOL     OW11448   4.031   0.891   4.266 -0.1900 -0.4900  0.6241
 2849SOL    HW211449   4.106   0.838   4.238  0.1336 -0.6431  1.7632
 2849SOL    HW311450   3.955   0.837   4.244  0.0777 -0.7985  0.4376
 2849SOL    MW411451   4.031   0.877   4.259 -0.1121 -0.5509  0.7496
 2850SOL     OW11452   2.494   2.283   4.129 -0.4388 -0.3011 -0.0355
 2850SOL    HW211453   2.410   2.324   4.149  0.8699  2.4553  0.1632
 2850SOL    HW311454   2.492   2.268   4.034 -1.9694 -2.2711  0.2873
 2850SOL    MW411455   2.483   2.287   4.119 -0.4683 -0.1974  0.0339
 2851SOL     OW11456   0.216   3.020   4.656 -0.1810 -0.0201 -0.5009
 2851SOL    HW211457   0.121   3.012   4.661 -0.3398  0.8778 -1.8443
 2851SOL    HW311458   0.245   3.021   4.747 -1.3739 -1.1233 -0.0917
 2851SOL    MW411459   0.208   3.019   4.668 -0.3593 -0.0474 -0.6242
 2852SOL     OW11460   3.198   2.256   4.586 -0.2985  0.0323 -0.0020
 2852SOL    HW211461   3.180   2.313   4.512  0.3456 -0.8518 -0.8455
 2852SOL    HW311462   3.117   2.256   4.638 -0.9920  0.0790 -1.0813
 2852SOL    MW411463   3.185   2.263   4.583 -0.3049 -0.0784 -0.2561
 2853SOL     OW11464   3.794   0.472   4.560 -0.2964 -0.1012  0.4082
 2853SOL    HW211465   3.813   0.457   4.467 -1.9646  0.0606  0.0377
 2853SOL    HW311466   3.790   0.567   4.569 -0.4602 -0.1249  0.5856
 2853SOL    MW411467   3.796   0.482   4.549 -0.5379 -0.0831  0.3834
 2854SOL     OW11468   0.906   3.217   4.507  0.2176  0.1305  0.0927
 2854SOL    HW211469   0.974   3.159   4.540  0.2384  0.6274  0.9364
 2854SOL    HW311470   0.936   3.305   4.529 -1.1481  0.3037  1.3634
 2854SOL    MW411471   0.919   3.221   4.514  0.0401  0.2189  0.3710
 2855SOL     OW11472   3.618   3.459   4.098  0.5611 -0.0052  0.1043
 2855SOL    HW211473   3.539   3.508   4.121  0.6641 -0.1943  0.8518
 2855SOL    HW311474   3.688   3.502   4.146  0.9590  0.3126 -0.7433
 2855SOL    MW411475   3.617   3.471   4.107  0.6270  0.0117  0.0911
 2856SOL     OW11476   2.604   0.244   4.526 -0.0292 -0.3333  0.0929
 2856SOL    HW211477   2.570   0.334   4.528 -0.1939 -0.4092  1.6127
 2856SOL    HW311478   2.695   0.252   4.554  0.1750 -0.5515 -0.5096
 2856SOL    MW411479   2.612   0.257   4.530 -0.0241 -0.3721  0.2141
 2857SOL     OW11480   0.640   0.522   4.261  0.5624 -0.4155  0.2501
 2857SOL    HW211481   0.561   0.477   4.231  1.2398 -1.4499 -0.0381
 2857SOL    HW311482   0.638   0.514   4.356  0.0472  0.0360  0.2786
 2857SOL    MW411483   0.630   0.515   4.269  0.5838 -0.4925  0.2155
 2858SOL     OW11484   3.822   4.245   4.563 -0.6305 -0.2650 -0.0336
 2858SOL    HW211485   3.836   4.283   4.477  0.7339 -0.6975 -0.0321
 2858SOL    HW311486   3.793   4.155   4.546 -3.3932  0.5906 -0.0349
 2858SOL    MW411487   3.820   4.238   4.550 -0.8149 -0.2089 -0.0329
 2859SOL     OW11488   0.327   0.450   4.557 -0.2662  0.0839  0.0412
 2859SOL    HW211489   0.288   0.370   4.592 -0.8653 -0.1396 -1.1121
 2859SOL    HW311490   0.287   0.520   4.607 -1.1821 -0.2291 -0.2383
 2859SOL    MW411491   0.316   0.448   4.568 -0.4661  0.0131 -0.1478
 2860SOL     OW11492   3.572   0.924   4.535 -0.1404 -0.6287 -0.1737
 2860SOL    HW211493   3.477   0.925   4.546 -0.4980 -0.3784 -3.0101
 2860SOL    HW311494   3.598   1.016   4.544 -0.1443 -0.7138  0.7309
 2860SOL    MW411495   3.563   0.936   4.538 -0.1881 -0.6069 -0.4282
 2861SOL     OW11496   1.547   0.008   4.086  0.4689  0.2771 -0.4355
 2861SOL    HW211497   1.633   0.031   4.120  0.2252  0.5814 -0.0263
 2861SOL    HW311498   1.532  -0.082   4.115  1.0282 -0.0905 -1.2598
 2861SOL    MW411499   1.556  -0.001   4.094  0.5107  0.2689 -0.4902
 2862SOL     OW11500   0.641   0.778   4.179  0.2755  0.3829  1.0463
 2862SOL    HW211501   0.636   0.772   4.084  1.4005  0.3279  0.9846
 2862SOL    HW311502   0.629   0.688   4.210  0.8975  0.2561  0.9125
 2862SOL    MW411503   0.639   0.766   4.171  0.5060  0.3589  1.0204
 2863SOL     OW11504   3.414   3.618   4.196  0.0966  0.3391  0.0498
 2863SOL    HW211505   3.415   3.585   4.286  1.1457  1.4057  0.4556
 2863SOL    HW311506   3.417   3.713   4.206 -1.1658  0.5000 -1.1067
 2863SOL    MW411507   3.415   3.626   4.209  0.0687  0.5012 -0.0491
 2864SOL     OW11508   3.398   0.041   4.590  0.5754  0.1128  0.1700
 2864SOL    HW211509   3.384   0.133   4.612  0.7097  1.1220 -3.7299
 2864SOL    HW311510   3.493   0.029   4.598  0.6079  0.4058  0.2326
 2864SOL    MW411511   3.409   0.052   4.594  0.5977  0.2847 -0.3357
 2865SOL     OW11512   1.777   3.272   4.605 -0.0381 -0.1002 -0.3514
 2865SOL    HW211513   1.767   3.365   4.627 -0.2078 -0.3427  0.6142
 2865SOL    HW311514   1.810   3.272   4.515  2.0011  0.9236  0.3798
 2865SOL    MW411515   1.780   3.284   4.596  0.2086  0.0026 -0.1278
 2866SOL     OW11516   0.733   2.667   4.647  0.6808 -0.7324  0.3623
 2866SOL    HW211517   0.763   2.682   4.736 -0.0428 -0.3911  0.5562
 2866SOL    HW311518   0.807   2.625   4.603  1.3261 -0.1912  0.9088
 2866SOL    MW411519   0.747   2.664   4.653  0.6706 -0.6161  0.4597
 2867SOL     OW11520   0.428   2.120   4.118 -0.0017 -0.4396 -0.4482
 2867SOL    HW211521   0.441   2.056   4.048  1.6967 -1.1970  0.5243
 2867SOL    HW311522   0.515   2.131   4.157 -0.4583  1.7070  0.0617
 2867SOL    MW411523   0.441   2.113   4.113  0.1621 -0.2565 -0.2527
 2868SOL     OW11524   2.022   3.672   4.299 -0.2756 -0.2017  0.3842
 2868SOL    HW211525   1.962   3.617   4.248 -0.0871 -0.1618  0.1167
 2868SOL    HW311526   2.008   3.761   4.266  1.9856 -0.5513 -1.7511
 2868SOL    MW411527   2.013   3.676   4.288  0.0477 -0.2425  0.0672
 2869SOL     OW11528   3.571   1.619   4.279 -0.0654  0.3105 -0.2243
 2869SOL    HW211529   3.649   1.568   4.258  0.1898  0.3553  0.5981
 2869SOL    HW311530   3.501   1.580   4.225 -0.0012 -1.2651  0.7860
 2869SOL    MW411531   3.572   1.607   4.269 -0.0231  0.1086  0.0176
 2870SOL     OW11532   4.447   2.314   4.642  0.5400 -0.0980  0.2885
 2870SOL    HW211533   4.356   2.293   4.621  0.1181  0.2493  1.6938
 2870SOL    HW311534   4.466   2.392   4.589  0.1473 -0.3991 -0.3016
 2870SOL    MW411535   4.438   2.322   4.632  0.4325 -0.0920  0.3967
 2871SOL     OW11536   2.305   1.426   4.656  0.0487 -0.6545 -0.0113
 2871SOL    HW211537   2.238   1.359   4.668 -1.0535  0.3977 -0.1571
 2871SOL    HW311538   2.258   1.499   4.615  1.2683  0.1274 -0.0296
 2871SOL    MW411539   2.290   1.427   4.652  0.0644 -0.4125 -0.0329
 2872SOL     OW11540   3.710   1.179   4.537  0.4192 -0.5765 -0.3819
 2872SOL    HW211541   3.623   1.218   4.534 -0.3615 -2.2660 -0.3439
 2872SOL    HW311542   3.750   1.204   4.453 -0.6141 -0.9345 -0.9971
 2872SOL    MW411543   3.704   1.188   4.525  0.1800 -0.8466 -0.4582
 2873SOL     OW11544   3.974   1.156   4.648  0.0944  0.4177 -0.3211
 2873SOL    HW211545   3.999   1.064   4.649  0.7053  0.5877  0.2918
 2873SOL    HW311546   3.890   1.158   4.603  0.2493 -0.3961 -0.6472
 2873SOL    MW411547   3.966   1.144   4.642  0.1955  0.3328 -0.2842
 2874SOL     OW11548   2.773   1.377   4.752  0.4182 -0.2535 -0.0506
 2874SOL    HW211549   2.733   1.407   4.833  0.2296  0.2483 -0.3250
 2874SOL    HW311550   2.764   1.282   4.754  1.3220 -0.3302  0.9904
 2874SOL    MW411551   2.766   1.369   4.763  0.5124 -0.1975  0.0505
 2875SOL     OW11552   2.657   2.247   4.880  0.4108 -0.6999  0.1123
 2875SOL    HW211553   2.681   2.243   4.972 -2.1329  2.5012  1.0047
 2875SOL    HW311554   2.702   2.325   4.847 -1.3612  0.1036 -0.4670
 2875SOL    MW411555   2.666   2.257   4.887 -0.1585 -0.1712  0.1535
 2876SOL     OW11556   0.720   3.645   4.534 -0.0563  0.3556  0.0828
 2876SOL    HW211557   0.702   3.632   4.441  0.3800  0.7181 -0.0539
 2876SOL    HW311558   0.745   3.737   4.541 -0.4150  0.4156  0.6132
 2876SOL    MW411559   0.721   3.656   4.522 -0.0461  0.4115  0.1349
 2877SOL     OW11560   3.271   2.491   4.701 -0.5671 -0.2115 -0.0753
 2877SOL    HW211561   3.262   2.459   4.791 -0.5936 -0.1896 -0.0702
 2877SOL    HW311562   3.234   2.421   4.647  0.2247 -0.5908 -0.1209
 2877SOL    MW411563   3.265   2.478   4.706 -0.4661 -0.2587 -0.0806
 2878SOL     OW11564   0.350   2.812   4.530  0.1292 -0.6391 -0.2233
 2878SOL    HW211565   0.442   2.837   4.539 -0.0591  0.7284 -1.9185
 2878SOL    HW311566   0.303   2.871   4.590  0.1130  0.3462 -1.1910
 2878SOL    MW411567   0.356   2.823   4.539  0.1022 -0.3285 -0.5746
 2879SOL     OW11568   1.511   4.441   4.220 -0.0918  0.0895 -0.1247
 2879SOL    HW211569   1.602   4.413   4.209  0.4390  2.2762 -1.5747
 2879SOL    HW311570   1.514   4.507   4.289 -0.8790 -1.1753  1.1385
 2879SOL    MW411571   1.523   4.446   4.227 -0.1255  0.2108 -0.1493
 2880SOL     OW11572   3.371   0.458   4.308 -0.3907  0.6746 -0.0265
 2880SOL    HW211573   3.391   0.545   4.272 -0.0670  0.4672 -0.3514
 2880SOL    HW311574   3.298   0.427   4.254 -0.0518  0.4578 -0.3674
 2880SOL    MW411575   3.364   0.465   4.296 -0.3030  0.6186 -0.1149
 2881SOL     OW11576   2.687   3.015   4.524  0.4985 -0.6165 -0.1429
 2881SOL    HW211577   2.693   3.056   4.438 -0.7725 -0.4366 -0.1701
 2881SOL    HW311578   2.737   3.073   4.582  2.1159 -1.2268 -0.9069
 2881SOL    MW411579   2.694   3.028   4.521  0.5443 -0.6735 -0.2465
 2882SOL     OW11580   4.116   3.734   4.637 -0.0206  0.0223  0.3483
 2882SOL    HW211581   4.139   3.821   4.605  0.7225 -0.1844  0.3234
 2882SOL    HW311582   4.196   3.683   4.626 -0.0206 -0.2733  1.7463
 2882SOL    MW411583   4.129   3.739   4.631  0.0772 -0.0439  0.5298
 2883NA      NA11584   2.773   3.696   0.556 -0.1432  0.6520 -0.5800
   4.49070   4.66690  10.00000
